FOO
141312
    1MOL0     O    1   7.591   8.906   3.250  0.1754 -0.8666 -0.2083
    1MOL0     C    2   7.634   8.822   3.331  0.2611  1.3035  0.6672
    1MOL0     O    3   7.585   8.793   3.451 -0.1530 -0.3264  0.1959
    1MOL0     C    4   7.491   8.865   3.508  0.2317 -0.4981 -0.2398
    1MOL0     C    5   7.516   8.912   3.633 -0.7894 -0.9258  0.5807
    1MOL0     C    6   7.410   8.975   3.704 -0.4023  0.2697 -0.5070
    1MOL0     C    7   7.288   8.996   3.646 -0.1823  0.0529 -0.3367
    1MOL0     O    8   7.187   9.080   3.695 -0.6106 -0.4674  0.4958
    1MOL0     C    9   7.104   9.013   3.795  0.1464 -1.1167 -0.7282
    1MOL0     C   10   6.985   9.099   3.843  0.6098 -0.0721  0.1284
    1MOL0     C   11   7.042   9.236   3.889 -0.4616  0.1533 -0.2375
    1MOL0     C   12   6.949   9.313   3.987 -0.3368  0.0019 -0.4793
    1MOL0     C   13   7.021   9.398   4.094  0.8554 -0.2546  0.0918
    1MOL0     C   14   7.095   9.506   4.039  0.4757  1.5491  0.1223
    1MOL0     C   15   7.179   9.585   4.141  0.2231  0.2413  0.1706
    1MOL0     C   16   7.260   9.703   4.074  0.6562 -0.0359  0.0103
    1MOL0     N   17   7.357   9.748   4.170 -0.7446  0.2969 -0.8559
    1MOL0     C   18   7.489   9.756   4.152  0.1279  0.1784 -0.8233
    1MOL0     C   19   7.542   9.776   4.276 -0.1469 -0.0518 -0.4876
    1MOL0     C   20   7.686   9.800   4.297  0.5346  0.2318 -0.1965
    1MOL0     C   21   7.750   9.912   4.211 -0.0718  0.7978 -0.3954
    1MOL0     C   22   7.849  10.008   4.279 -0.0400 -0.1610 -0.6470
    1MOL0     C   23   7.812  10.077   4.414 -0.4537 -0.7993 -0.4587
    1MOL0     O   24   7.676  10.120   4.408  0.2113 -0.4463 -0.1731
    1MOL0     C   25   7.625  10.214   4.505 -0.4949  0.8581 -0.5262
    1MOL0     C   26   7.491  10.250   4.491  0.1121  0.0496 -0.3101
    1MOL0     C   27   7.435  10.346   4.580 -0.1718  0.5235  0.6563
    1MOL0     C   28   7.291  10.395   4.546  0.7564 -0.3658  0.2205
    1MOL0     C   29   7.509  10.398   4.693 -0.3487  0.2108  0.9857
    1MOL0     C   30   7.465  10.490   4.798  0.3302 -0.4854  0.2787
    1MOL0     O   31   7.566  10.547   4.871 -0.8831  0.2498 -1.3531
    1MOL0     C   32   7.534  10.612   4.993 -1.0375 -0.1588  0.9879
    1MOL0     C   33   7.607  10.723   5.021 -0.4831  0.2978 -0.1547
    1MOL0     C   34   7.580  10.806   5.130 -0.5018  0.0289 -1.0130
    1MOL0     C   35   7.476  10.780   5.218 -0.3153 -0.0641  0.8602
    1MOL0     O   36   7.457  10.863   5.328  0.1773 -0.2727  0.3582
    1MOL0     C   37   7.399  10.803   5.442  0.1972  0.2475  0.1402
    1MOL0     C   38   7.413  10.889   5.556 -0.2570 -0.0844 -0.3329
    1MOL0     C   39   7.539  10.866   5.646  0.1664  0.2153  0.3945
    1MOL0     C   40   7.563  10.987   5.740  0.1988  0.1569  0.6394
    1MOL0     C   41   7.705  10.991   5.791 -0.5588  0.1224 -0.1019
    1MOL0     C   42   7.737  11.129   5.841 -0.6113 -0.7998  0.7227
    1MOL0     C   43   7.649  11.185   5.955 -0.4074 -0.2011 -0.1965
    1MOL0     C   44   7.656  11.338   5.956  0.9167 -0.0590 -0.2009
    1MOL0    Cl   45   7.818  11.398   6.005 -0.1743  0.0408  0.3628
    1MOL0     C   46   7.392  10.671   5.182 -0.0351 -0.4989 -0.8732
    1MOL0     C   47   7.418  10.591   5.072 -1.0822 -0.1679 -0.7777
    1MOL0     O   48   7.344  10.505   4.819 -0.5210  0.2496  0.9929
    1MOL0     C   49   7.648  10.360   4.697  0.3727  0.0350  0.4745
    1MOL0     C   50   7.703  10.272   4.602 -0.2906  0.6906  0.8153
    1MOL0     N   51   7.441   9.799   4.363  0.5701 -0.5415 -0.5247
    1MOL0     N   52   7.329   9.777   4.300  0.9057 -0.2872  0.2071
    1MOL0     C   53   7.266   8.944   3.519  0.1247  0.6823  0.2348
    1MOL0     C   54   7.365   8.884   3.451 -0.4495 -0.6605 -0.3108
    1MOL0     C   55   7.738   8.716   3.270  0.4650 -0.1739  1.1300
    1MOL0     C   56   7.729   8.674   3.133  0.3025 -0.6399 -0.1866
    1MOL0     C   57   7.829   8.593   3.063  0.3984 -0.3240 -0.5991
    1MOL0     C   58   7.929   8.538   3.144  0.3252  0.6125  0.0909
    1MOL0     O   59   8.026   8.447   3.100  0.3949 -0.3786  0.1329
    1MOL0     C   60   7.987   8.309   3.129 -0.1249 -0.2704 -1.3476
    1MOL0     C   61   7.924   8.233   3.010  0.0325  1.2947  0.7258
    1MOL0     C   62   7.988   8.255   2.868  1.9093 -0.0810 -0.4295
    1MOL0     C   63   8.110   8.170   2.857  0.0455 -0.2014  0.0035
    1MOL0     C   64   8.187   8.175   2.726 -0.7838 -0.2035 -0.0152
    1MOL0     C   65   8.239   8.191   2.611 -0.4043  0.5474 -0.0977
    1MOL0     C   66   7.929   8.571   3.277 -0.0506  0.3890  0.0490
    1MOL0     C   67   7.848   8.669   3.336  0.1192  0.1863  0.1579
    1MOL0     C   68   7.856   8.688   3.489 -0.3444 -0.0002  0.5916
    1MOL0     H   69   7.612   8.892   3.681 -0.4038 -0.4319  0.0283
    1MOL0     H   70   7.425   9.004   3.808 -0.5267 -2.6993  0.4323
    1MOL0     H   71   7.161   8.983   3.883  2.2446 -0.7051 -1.8837
    1MOL0     H   72   7.071   8.920   3.747  2.2715 -1.7889 -0.9711
    1MOL0     H   73   6.911   9.120   3.765 -2.3252 -1.8481  2.2492
    1MOL0     H   74   6.938   9.059   3.933 -1.7238  2.1259 -0.0168
    1MOL0     H   75   7.122   9.198   3.952 -0.6611  2.3667  1.5064
    1MOL0     H   76   7.068   9.293   3.799  0.4079 -0.3097 -0.2855
    1MOL0     H   77   6.885   9.373   3.921 -0.4115  1.2846  0.7240
    1MOL0     H   78   6.881   9.248   4.043 -0.4005  1.0797  0.7362
    1MOL0     H   79   7.082   9.335   4.159  0.0245 -0.8759  0.2780
    1MOL0     H   80   6.947   9.440   4.163  0.4346  1.6847 -1.4339
    1MOL0     H   81   7.152   9.456   3.959 -4.6045 -2.5783 -1.5175
    1MOL0     H   82   7.027   9.567   3.978  0.0518 -0.6866 -1.8224
    1MOL0     H   83   7.251   9.510   4.176 -1.6620 -1.7182  0.0598
    1MOL0     H   84   7.114   9.604   4.226 -0.9823 -2.3639 -0.0678
    1MOL0     H   85   7.304   9.656   3.986 -2.4180 -4.3631  0.4581
    1MOL0     H   86   7.187   9.783   4.057  0.7500  0.6944  2.5797
    1MOL0     H   87   7.542   9.753   4.057  1.6446  4.2596 -0.2807
    1MOL0     H   88   7.737   9.704   4.281  0.0268  0.0651 -0.8720
    1MOL0     H   89   7.686   9.828   4.403 -1.1162 -0.7744  0.1114
    1MOL0     H   90   7.795   9.862   4.125  2.1079  1.4553  0.2837
    1MOL0     H   91   7.674   9.988   4.190 -0.8298  0.3845  0.7221
    1MOL0     H   92   7.939   9.952   4.305 -0.9986 -2.3864 -1.8302
    1MOL0     H   93   7.878  10.083   4.205  0.4459  0.0382 -0.2620
    1MOL0     H   94   7.821  10.014   4.503  2.0941  3.4641  2.7073
    1MOL0     H   95   7.879  10.163   4.418  0.7209 -1.5482 -2.4214
    1MOL0     H   96   7.436  10.208   4.407 -2.2221  0.6895  0.8192
    1MOL0     H   97   7.288  10.504   4.547 -2.9918 -0.3443 -0.1607
    1MOL0     H   98   7.214  10.363   4.618 -0.2316  1.5891  0.0969
    1MOL0     H   99   7.257  10.348   4.454 -3.0409  1.0583  0.7249
    1MOL0     H  100   7.687  10.750   4.953 -1.0740  1.0224 -0.5659
    1MOL0     H  101   7.643  10.894   5.136 -1.4434  0.6524  0.2130
    1MOL0     H  102   7.295  10.775   5.426  0.7079 -1.8021  0.1904
    1MOL0     H  103   7.446  10.712   5.480 -2.8163 -0.9761  1.2573
    1MOL0     H  104   7.420  10.989   5.513  0.5850 -0.2004 -0.4627
    1MOL0     H  105   7.325  10.867   5.618 -2.4530  2.8520 -2.1332
    1MOL0     H  106   7.618  10.865   5.570 -1.8725 -1.0724 -1.8415
    1MOL0     H  107   7.525  10.768   5.692  1.0460 -0.1199 -0.0289
    1MOL0     H  108   7.502  10.983   5.830  1.3367 -0.9631  1.3913
    1MOL0     H  109   7.544  11.082   5.689 -0.9392  1.3506  3.1036
    1MOL0     H  110   7.709  10.910   5.865  2.5388 -1.4653 -1.7897
    1MOL0     H  111   7.784  10.969   5.718 -0.3602  0.3093  0.0561
    1MOL0     H  112   7.739  11.197   5.756 -0.9630 -0.9894  0.5601
    1MOL0     H  113   7.845  11.127   5.859 -0.6908 -0.8361  1.2191
    1MOL0     H  114   7.681  11.146   6.052 -1.8960  0.8070  0.7534
    1MOL0     H  115   7.545  11.157   5.939 -1.2783  0.8750  2.9073
    1MOL0     H  116   7.585  11.358   6.036  3.7530 -2.0719  3.1260
    1MOL0     H  117   7.624  11.377   5.859 -2.7301 -2.4902 -0.1642
    1MOL0     H  118   7.295  10.646   5.223  0.6270 -0.4878  0.7775
    1MOL0     H  119   7.348  10.510   5.058  0.1072 -2.0810  2.8341
    1MOL0     H  120   7.713  10.399   4.774  1.1308  0.9072 -0.5648
    1MOL0     H  121   7.805  10.237   4.617 -0.0412 -0.1895 -2.2410
    1MOL0     H  122   7.166   8.957   3.480  1.1124  0.3484 -2.6185
    1MOL0     H  123   7.348   8.848   3.350  1.5908 -2.7353 -0.0072
    1MOL0     H  124   7.656   8.720   3.067  2.4149  0.9567 -1.5388
    1MOL0     H  125   7.822   8.563   2.959 -0.9740 -0.7334 -0.4006
    1MOL0     H  126   8.063   8.246   3.176 -0.0729  0.5713 -0.2635
    1MOL0     H  127   7.915   8.316   3.211  0.3618 -1.1072 -0.8332
    1MOL0     H  128   7.821   8.266   2.994 -0.7166 -1.7005 -1.7934
    1MOL0     H  129   7.918   8.126   3.034 -2.3615  1.1830 -0.0789
    1MOL0     H  130   7.912   8.230   2.793 -0.2479  3.0675  0.4808
    1MOL0     H  131   8.011   8.361   2.855  0.2375  0.2912 -0.7169
    1MOL0     H  132   8.077   8.068   2.881  0.7776 -0.7688 -1.2894
    1MOL0     H  133   8.176   8.212   2.933  1.2050 -2.9794  0.6608
    1MOL0     H  134   8.285   8.197   2.514  1.5781  3.0044  0.8636
    1MOL0     H  135   8.002   8.525   3.343  0.2890  2.6058  1.2892
    1MOL0     H  136   7.954   8.659   3.527  0.5564  0.3752 -1.3354
    1MOL0     H  137   7.828   8.790   3.515  0.9933  0.8975 -1.2706
    1MOL0     H  138   7.784   8.615   3.529 -5.4889  3.5233 -1.1919
    2MOL0     O  139   7.786   8.761   2.064  0.4455  0.1071  0.6080
    2MOL0     C  140   7.815   8.705   2.168 -0.1290 -0.4361  0.5158
    2MOL0     O  141   7.724   8.682   2.268 -0.0043 -0.7026 -0.9314
    2MOL0     C  142   7.594   8.714   2.235  0.2624 -0.7109 -0.9061
    2MOL0     C  143   7.503   8.620   2.183 -0.9936 -0.0641  1.6472
    2MOL0     C  144   7.376   8.657   2.142  0.0756 -0.5609  0.0803
    2MOL0     C  145   7.344   8.792   2.133 -0.1126 -0.4936 -0.8660
    2MOL0     O  146   7.217   8.826   2.094 -1.5367 -0.6067 -0.3396
    2MOL0     C  147   7.215   8.927   1.993  0.6171  0.0771 -0.2025
    2MOL0     C  148   7.221   8.852   1.861  0.4624 -0.4527 -0.2906
    2MOL0     C  149   7.071   8.817   1.830  0.2416 -0.0012 -0.4054
    2MOL0     C  150   7.045   8.726   1.706  0.5644  0.2190 -0.1847
    2MOL0     C  151   6.887   8.703   1.703  0.1286  0.1029  1.0661
    2MOL0     C  152   6.843   8.610   1.596  0.7520  0.3430 -0.7944
    2MOL0     C  153   6.868   8.460   1.623  0.0870 -0.0535  0.2547
    2MOL0     C  154   6.875   8.393   1.491 -1.3260  0.7658 -0.1102
    2MOL0     N  155   6.880   8.253   1.501  0.6544  0.1890 -0.1368
    2MOL0     C  156   6.771   8.175   1.467 -0.4851  0.4557  0.6226
    2MOL0     C  157   6.828   8.052   1.439 -0.1897  0.3304 -0.8776
    2MOL0     C  158   6.753   7.929   1.398  0.1805 -0.6376  0.2375
    2MOL0     C  159   6.800   7.892   1.252 -0.4038  0.3106 -0.1267
    2MOL0     C  160   6.747   7.750   1.220 -0.9285  0.4279 -0.2705
    2MOL0     C  161   6.761   7.713   1.073  0.1600 -0.8960  0.9963
    2MOL0     O  162   6.902   7.698   1.041 -0.7166 -0.0034 -0.0922
    2MOL0     C  163   6.957   7.579   1.105  0.3974  0.1314  0.2728
    2MOL0     C  164   7.060   7.594   1.198  1.2776 -0.7041 -0.0418
    2MOL0     C  165   7.106   7.478   1.267 -0.0360 -0.6494  0.6615
    2MOL0     C  166   7.187   7.496   1.393  0.6532 -0.1346 -0.4418
    2MOL0     C  167   7.076   7.352   1.212 -0.2669  0.1500 -0.9236
    2MOL0     C  168   7.136   7.224   1.255 -0.5542  0.7606 -0.3082
    2MOL0     O  169   7.205   7.235   1.365 -0.0717  0.9892  0.4657
    2MOL0     C  170   7.228   7.122   1.445  0.0454  0.8744  0.7133
    2MOL0     C  171   7.123   7.063   1.513  0.0260  0.2178 -0.8824
    2MOL0     C  172   7.135   6.965   1.609  0.0159 -0.0504 -0.2056
    2MOL0     C  173   7.259   6.907   1.627  0.2165 -0.0860 -0.0178
    2MOL0     O  174   7.293   6.796   1.704  0.3945 -1.2511 -0.2485
    2MOL0     C  175   7.189   6.700   1.751 -0.8759 -0.6081  0.9594
    2MOL0     C  176   7.154   6.715   1.892 -0.5044 -0.1089  0.0389
    2MOL0     C  177   7.008   6.729   1.913  0.1308 -0.1994 -0.7799
    2MOL0     C  178   6.979   6.766   2.062  0.9677 -0.2877 -0.7705
    2MOL0     C  179   6.832   6.722   2.089 -0.1003 -1.0508  0.4964
    2MOL0     C  180   6.793   6.765   2.235  0.0634 -1.3088 -0.3949
    2MOL0     C  181   6.645   6.771   2.244  0.7039  1.1487  0.4527
    2MOL0     C  182   6.592   6.783   2.383  0.0268  0.9919  0.6526
    2MOL0    Cl  183   6.601   6.949   2.433  0.1676  0.7927  0.7209
    2MOL0     C  184   7.366   6.961   1.544 -0.0560  0.3187  0.1081
    2MOL0     C  185   7.346   7.064   1.459  0.1298  0.2481  0.8823
    2MOL0     O  186   7.139   7.131   1.186 -0.2778 -0.1293  0.1199
    2MOL0     C  187   6.978   7.345   1.117  1.1126  0.1903  0.0668
    2MOL0     C  188   6.923   7.456   1.051 -1.9237  0.6290 -0.6620
    2MOL0     N  189   6.949   8.051   1.504 -0.5585  0.6004 -0.1361
    2MOL0     N  190   6.986   8.172   1.515  0.0816  0.1972  0.7640
    2MOL0     C  191   7.432   8.893   2.192  1.0470 -0.2922  0.5283
    2MOL0     C  192   7.554   8.853   2.249  0.7807 -0.7626 -0.7646
    2MOL0     C  193   7.957   8.675   2.188 -0.4112 -0.4405  0.1446
    2MOL0     C  194   8.055   8.751   2.117 -0.8164 -0.6691  0.2910
    2MOL0     C  195   8.191   8.717   2.115  0.0134  0.8744 -0.1956
    2MOL0     C  196   8.250   8.622   2.199 -0.3658  0.0467  1.0322
    2MOL0     O  197   8.386   8.585   2.200 -0.1642  0.2844  0.1168
    2MOL0     C  198   8.497   8.662   2.139 -1.1194 -0.8548  0.4728
    2MOL0     C  199   8.611   8.579   2.085 -0.1667  0.8861  0.9464
    2MOL0     C  200   8.572   8.507   1.952  0.8826 -0.2466  0.9707
    2MOL0     C  201   8.510   8.370   1.982  0.5986 -0.3691 -0.0919
    2MOL0     C  202   8.447   8.325   1.860  0.3623  0.2104  1.0188
    2MOL0     C  203   8.393   8.273   1.758  0.0013  0.0145 -0.3305
    2MOL0     C  204   8.157   8.549   2.283  0.7694  0.0264 -0.1750
    2MOL0     C  205   8.013   8.567   2.272 -0.1281 -0.1024 -0.1473
    2MOL0     C  206   7.928   8.459   2.332 -0.0171 -1.0134 -0.4450
    2MOL0     H  207   7.538   8.517   2.177 -0.9892 -0.1125  2.3934
    2MOL0     H  208   7.307   8.576   2.118 -0.0163  0.2920 -3.0417
    2MOL0     H  209   7.302   8.993   1.983  0.5733 -0.1787 -3.0309
    2MOL0     H  210   7.125   8.989   1.986  1.2767  1.7541  3.6084
    2MOL0     H  211   7.250   8.923   1.782 -2.5262  0.8407 -0.3537
    2MOL0     H  212   7.283   8.763   1.873 -3.3616 -3.0739  2.3695
    2MOL0     H  213   7.033   8.763   1.917  0.9989  0.6416  0.3528
    2MOL0     H  214   7.020   8.913   1.816  1.4993  0.5485 -1.4321
    2MOL0     H  215   7.081   8.772   1.613  1.9390 -1.4426 -0.5279
    2MOL0     H  216   7.090   8.629   1.727  2.0475  0.9348  0.0532
    2MOL0     H  217   6.839   8.801   1.702  3.2324  1.8781 -3.0275
    2MOL0     H  218   6.849   8.670   1.800 -1.0487  0.9153  0.8949
    2MOL0     H  219   6.733   8.610   1.594  0.6125  0.5302  2.0903
    2MOL0     H  220   6.891   8.640   1.503 -1.8912  1.2846 -1.9635
    2MOL0     H  221   6.790   8.423   1.690  0.9944 -2.4470  0.0804
    2MOL0     H  222   6.966   8.448   1.670  1.0669  0.3869 -1.5909
    2MOL0     H  223   6.798   8.426   1.421  2.2219 -0.9925 -5.4150
    2MOL0     H  224   6.966   8.428   1.442 -1.9620  0.0621 -1.8792
    2MOL0     H  225   6.670   8.208   1.447 -0.4601  0.4396  0.4685
    2MOL0     H  226   6.648   7.958   1.396  0.4681  0.5145  1.0644
    2MOL0     H  227   6.776   7.848   1.468 -0.1561  2.6328  4.5238
    2MOL0     H  228   6.774   7.965   1.174  2.5420 -1.3027 -2.8273
    2MOL0     H  229   6.909   7.886   1.250 -0.2940  1.9937 -1.2478
    2MOL0     H  230   6.792   7.673   1.283  1.1848  3.0663  1.6399
    2MOL0     H  231   6.641   7.759   1.246 -0.3508 -2.1737  4.0858
    2MOL0     H  232   6.702   7.628   1.039 -0.1874 -1.0090  1.8451
    2MOL0     H  233   6.715   7.798   1.024  0.5719  0.5320  2.9453
    2MOL0     H  234   7.100   7.692   1.222  0.0917 -0.6554  1.9661
    2MOL0     H  235   7.179   7.604   1.414 -2.5593  0.4856 -3.8261
    2MOL0     H  236   7.289   7.456   1.389  1.0068  0.4973  1.1071
    2MOL0     H  237   7.134   7.446   1.475 -0.2321  0.9846 -0.3040
    2MOL0     H  238   7.023   7.097   1.487 -0.2371  1.1782  1.1835
    2MOL0     H  239   7.046   6.921   1.655 -2.0490  0.7602 -3.1644
    2MOL0     H  240   7.101   6.710   1.687 -0.8163  2.1963  1.1829
    2MOL0     H  241   7.222   6.599   1.723 -1.2974 -0.4217 -0.2955
    2MOL0     H  242   7.174   6.621   1.945 -0.0677  0.7785  1.5013
    2MOL0     H  243   7.214   6.797   1.932  0.7102  1.1333 -3.8418
    2MOL0     H  244   6.956   6.636   1.886  1.3488 -0.7027 -1.4446
    2MOL0     H  245   6.957   6.794   1.842  1.4035  1.0183 -0.6116
    2MOL0     H  246   7.003   6.870   2.088 -1.4749 -0.0532  0.9277
    2MOL0     H  247   7.025   6.696   2.132  1.9969  0.3931 -0.7386
    2MOL0     H  248   6.770   6.777   2.017  0.9729 -0.2385  0.1669
    2MOL0     H  249   6.828   6.614   2.076 -0.3811 -0.7396 -3.1440
    2MOL0     H  250   6.843   6.860   2.255  0.3577 -1.5905  0.2324
    2MOL0     H  251   6.826   6.689   2.306  1.2986 -0.8886 -0.4979
    2MOL0     H  252   6.600   6.690   2.186  3.0369 -0.3774  0.6125
    2MOL0     H  253   6.623   6.865   2.192  2.3551  1.2443 -0.1271
    2MOL0     H  254   6.653   6.717   2.445  4.1451  1.9438 -2.0601
    2MOL0     H  255   6.490   6.743   2.389  0.9140 -1.2759  1.6952
    2MOL0     H  256   7.463   6.913   1.538  0.2058  1.0160 -2.7035
    2MOL0     H  257   7.433   7.106   1.409 -1.2476  0.4439 -1.4930
    2MOL0     H  258   6.951   7.249   1.074  3.1873 -1.3140  1.8506
    2MOL0     H  259   6.864   7.446   0.960 -2.0023  1.5153 -0.7137
    2MOL0     H  260   7.392   8.994   2.192  1.2763 -0.1936 -0.4626
    2MOL0     H  261   7.611   8.927   2.306  0.1842  0.8475 -2.1761
    2MOL0     H  262   8.024   8.841   2.065  0.8703  0.4077  1.0502
    2MOL0     H  263   8.248   8.778   2.046 -3.0550  2.4409 -1.5261
    2MOL0     H  264   8.464   8.726   2.056  3.4043  0.9756 -0.2436
    2MOL0     H  265   8.541   8.733   2.210 -0.3855 -1.1991  0.3750
    2MOL0     H  266   8.645   8.512   2.166  0.9061  0.8627  0.4959
    2MOL0     H  267   8.701   8.640   2.074 -1.6136  3.0733  0.7986
    2MOL0     H  268   8.501   8.562   1.889  1.0544  1.5484  2.2616
    2MOL0     H  269   8.654   8.506   1.879  0.2222 -2.1142  0.1805
    2MOL0     H  270   8.434   8.379   2.061  1.4411  1.0572  0.5841
    2MOL0     H  271   8.581   8.294   2.016  1.2850  0.8135  1.2225
    2MOL0     H  272   8.350   8.208   1.684 -2.5638  1.0853  0.0884
    2MOL0     H  273   8.198   8.464   2.337 -1.3200 -1.0107 -0.1199
    2MOL0     H  274   7.918   8.457   2.441 -0.1307  1.6090 -0.3429
    2MOL0     H  275   7.831   8.488   2.290 -0.5724  1.5556  2.2540
    2MOL0     H  276   7.955   8.358   2.299  1.5822  0.3394 -3.6331
    3MOL0     O  277   6.417   4.038   3.327  0.5326  0.1218 -0.1571
    3MOL0     C  278   6.467   4.090   3.227  1.0277  0.3841  0.0920
    3MOL0     O  279   6.562   4.197   3.234 -0.7558  0.5627 -0.5448
    3MOL0     C  280   6.621   4.236   3.355  0.1225  0.1688 -0.2121
    3MOL0     C  281   6.762   4.269   3.338 -0.1413  0.3802 -0.0811
    3MOL0     C  282   6.823   4.332   3.452  0.2879  0.1440 -0.3140
    3MOL0     C  283   6.765   4.352   3.578 -0.6009 -0.5190 -0.6772
    3MOL0     O  284   6.844   4.398   3.681 -0.0563  0.5517  0.6854
    3MOL0     C  285   6.794   4.477   3.781 -0.7237 -0.5537  0.1269
    3MOL0     C  286   6.906   4.501   3.891  0.0561 -1.1260 -0.1735
    3MOL0     C  287   7.029   4.581   3.851 -0.5547 -0.5255 -0.4251
    3MOL0     C  288   7.012   4.735   3.840 -0.1891  0.6958 -0.3057
    3MOL0     C  289   6.975   4.818   3.965  0.6593  0.3090 -0.0233
    3MOL0     C  290   7.096   4.841   4.056  1.1938 -0.2771  0.4788
    3MOL0     C  291   7.101   4.795   4.209  0.9391 -0.1942  0.7578
    3MOL0     C  292   7.230   4.827   4.272 -1.0382  0.2570  0.2436
    3MOL0     N  293   7.239   4.783   4.409 -0.8062  0.9769  0.2099
    3MOL0     C  294   7.195   4.853   4.524  1.3611  0.9536 -0.0834
    3MOL0     C  295   7.243   4.781   4.625  0.2560 -0.9161 -0.1135
    3MOL0     C  296   7.187   4.799   4.758 -0.3069 -0.1845  0.8756
    3MOL0     C  297   7.030   4.821   4.763  0.0526 -1.2838 -0.7009
    3MOL0     C  298   6.942   4.698   4.752 -0.2333  0.3797 -0.5660
    3MOL0     C  299   6.789   4.726   4.770 -0.7413 -0.6216  0.6744
    3MOL0     O  300   6.730   4.600   4.767  0.2743 -0.4482 -0.8345
    3MOL0     C  301   6.610   4.586   4.716  0.6915  0.6941 -0.4604
    3MOL0     C  302   6.573   4.464   4.659  0.1111  0.3452 -0.5150
    3MOL0     C  303   6.452   4.445   4.589  0.5069 -0.5300  0.0446
    3MOL0     C  304   6.422   4.314   4.524 -0.5874  0.5905 -0.0730
    3MOL0     C  305   6.352   4.543   4.598 -0.0302  0.3077  0.5240
    3MOL0     C  306   6.211   4.524   4.561 -0.4691  0.2496  0.3938
    3MOL0     O  307   6.161   4.392   4.567  0.5985  0.5517  0.8930
    3MOL0     C  308   6.027   4.387   4.547  0.9668 -1.0719 -0.3833
    3MOL0     C  309   5.934   4.381   4.643 -0.4678 -0.5755  0.2398
    3MOL0     C  310   5.792   4.397   4.608  0.4149 -0.9021 -0.5469
    3MOL0     C  311   5.749   4.420   4.476 -0.9069 -0.6937 -0.3213
    3MOL0     O  312   5.609   4.434   4.457 -0.1406 -0.1131  0.1298
    3MOL0     C  313   5.552   4.498   4.339  0.3137  0.4999  0.6642
    3MOL0     C  314   5.406   4.504   4.359  0.2631  0.1393 -0.5386
    3MOL0     C  315   5.362   4.594   4.238  0.1545  0.3171 -0.6991
    3MOL0     C  316   5.210   4.616   4.222  0.2552  0.4807  0.0151
    3MOL0     C  317   5.126   4.659   4.351 -1.0520  0.3202  0.9329
    3MOL0     C  318   4.977   4.674   4.315  0.3863  0.2994  0.2903
    3MOL0     C  319   4.880   4.721   4.417 -0.3081 -0.9754  0.0048
    3MOL0     C  320   4.926   4.834   4.513  0.0025  0.2831 -0.7992
    3MOL0    Cl  321   4.780   4.881   4.596  0.0484 -0.0834  0.2013
    3MOL0     C  322   5.848   4.414   4.377  1.1278 -0.9130 -0.3874
    3MOL0     C  323   5.985   4.401   4.415 -0.3929  0.1618 -0.5526
    3MOL0     O  324   6.150   4.626   4.530 -0.2645  0.5249  0.4150
    3MOL0     C  325   6.389   4.665   4.659 -0.1108 -0.2312 -0.6955
    3MOL0     C  326   6.511   4.689   4.712  0.1061 -0.3305 -0.2740
    3MOL0     N  327   7.321   4.678   4.573 -0.4542 -0.7054  0.4514
    3MOL0     N  328   7.317   4.675   4.443  0.2936 -0.4238 -1.2613
    3MOL0     C  329   6.624   4.319   3.582 -0.5411 -0.4984 -0.5861
    3MOL0     C  330   6.551   4.260   3.474  0.3836 -1.0768 -0.6444
    3MOL0     C  331   6.465   4.014   3.097 -0.7194  0.4650 -0.5083
    3MOL0     C  332   6.512   4.086   2.987  0.6907 -0.1241  0.8692
    3MOL0     C  333   6.511   4.023   2.858  0.5452 -0.5059  0.0022
    3MOL0     C  334   6.478   3.893   2.839  0.1503  0.0742 -1.4331
    3MOL0     O  335   6.469   3.850   2.713 -0.5416  0.3411 -0.0371
    3MOL0     C  336   6.480   3.711   2.684  0.5838 -0.6725  0.1068
    3MOL0     C  337   6.466   3.685   2.527 -0.3749 -0.1702 -0.8131
    3MOL0     C  338   6.460   3.532   2.506  0.4405  0.1023 -1.0414
    3MOL0     C  339   6.511   3.495   2.370  0.3632  1.1170  0.4400
    3MOL0     C  340   6.659   3.504   2.349 -0.1657  1.2400 -0.0390
    3MOL0     C  341   6.776   3.487   2.335  0.8129 -0.1142  0.5506
    3MOL0     C  342   6.438   3.820   2.956  0.4439  0.6211  0.2393
    3MOL0     C  343   6.440   3.874   3.082  0.3564  0.5747 -1.0812
    3MOL0     C  344   6.413   3.782   3.197  0.1540  0.4715 -0.5718
    3MOL0     H  345   6.812   4.255   3.243 -1.1934 -0.1229 -0.5870
    3MOL0     H  346   6.926   4.366   3.445  1.1911 -2.0184  1.2096
    3MOL0     H  347   6.707   4.424   3.821 -0.0420 -2.9024 -1.2751
    3MOL0     H  348   6.765   4.572   3.736  2.5338  0.9399  0.8659
    3MOL0     H  349   6.865   4.556   3.976 -2.6123 -0.0495 -1.9903
    3MOL0     H  350   6.939   4.407   3.936 -0.4210 -2.4792 -2.4370
    3MOL0     H  351   7.116   4.551   3.911 -1.8890 -3.6653  0.1288
    3MOL0     H  352   7.054   4.546   3.750 -1.7901  2.9758 -2.1236
    3MOL0     H  353   7.102   4.779   3.796 -0.2448  0.0215 -1.1321
    3MOL0     H  354   6.928   4.758   3.774 -1.0872  3.0360  1.5223
    3MOL0     H  355   6.888   4.768   4.009 -0.5874 -1.2600 -3.8345
    3MOL0     H  356   6.951   4.916   3.925  6.0714  0.3426 -4.3128
    3MOL0     H  357   7.181   4.814   3.994  0.9514  1.3816 -0.6361
    3MOL0     H  358   7.118   4.948   4.054  4.4789 -0.8608 -0.5406
    3MOL0     H  359   7.088   4.686   4.209  3.1086 -0.4949  1.1511
    3MOL0     H  360   7.040   4.857   4.275  1.1809  2.2556 -1.1716
    3MOL0     H  361   7.318   4.784   4.224 -0.6798  2.2369 -0.9876
    3MOL0     H  362   7.232   4.936   4.279 -1.5323  0.2358  0.8545
    3MOL0     H  363   7.123   4.934   4.532 -1.3076 -1.2095 -0.6261
    3MOL0     H  364   7.236   4.880   4.814 -1.1965  0.4808  0.7023
    3MOL0     H  365   7.210   4.710   4.817  1.3726  1.1316  2.3473
    3MOL0     H  366   7.013   4.861   4.864 -1.6957 -3.6740  0.0549
    3MOL0     H  367   6.993   4.898   4.694  2.2230 -3.0650 -4.1158
    3MOL0     H  368   6.951   4.655   4.652  1.1322  2.9167 -1.6287
    3MOL0     H  369   6.980   4.628   4.827  5.0871  3.5733  0.2373
    3MOL0     H  370   6.762   4.784   4.858  0.3637  2.0185 -0.6288
    3MOL0     H  371   6.755   4.794   4.691 -1.9581 -0.8056  1.0162
    3MOL0     H  372   6.657   4.395   4.656  0.9158  1.3496 -1.9169
    3MOL0     H  373   6.368   4.322   4.429 -2.3037 -1.5011  0.6481
    3MOL0     H  374   6.351   4.256   4.584  0.7845  0.5170  1.5699
    3MOL0     H  375   6.510   4.254   4.501 -0.4723  0.0631  1.5804
    3MOL0     H  376   5.971   4.380   4.745 -0.3454  0.2862  0.2090
    3MOL0     H  377   5.713   4.372   4.678 -1.1449 -3.5363 -3.0346
    3MOL0     H  378   5.599   4.597   4.328 -3.0209  2.2936  1.0900
    3MOL0     H  379   5.573   4.435   4.253 -1.0805 -0.3021  0.8724
    3MOL0     H  380   5.341   4.417   4.356 -3.0678  2.4416 -1.8554
    3MOL0     H  381   5.383   4.553   4.454  0.0765 -0.5172 -0.2406
    3MOL0     H  382   5.406   4.556   4.145  0.5810 -1.3440  0.1475
    3MOL0     H  383   5.416   4.689   4.246 -3.0283  2.1102  1.9870
    3MOL0     H  384   5.189   4.531   4.157  1.6486  0.8297 -0.9401
    3MOL0     H  385   5.205   4.707   4.162  1.2616  0.2703 -0.4076
    3MOL0     H  386   5.129   4.579   4.425  4.4165 -0.7493  0.0387
    3MOL0     H  387   5.170   4.750   4.393  3.1185 -1.1759  0.3015
    3MOL0     H  388   4.928   4.597   4.254 -2.2687  0.3883  2.1507
    3MOL0     H  389   4.989   4.748   4.235  0.4266 -0.4005 -0.3585
    3MOL0     H  390   4.832   4.642   4.474 -1.3593 -0.8004 -0.6027
    3MOL0     H  391   4.797   4.762   4.357 -0.1958 -1.7153 -0.6801
    3MOL0     H  392   4.965   4.918   4.454  1.3438  0.3158  0.0964
    3MOL0     H  393   5.011   4.804   4.575  0.9737 -1.1868 -2.7339
    3MOL0     H  394   5.820   4.417   4.272 -2.7507 -2.1729  0.4421
    3MOL0     H  395   6.065   4.411   4.342  0.6373  1.2427  0.6754
    3MOL0     H  396   6.320   4.748   4.667  0.4316  0.1152  0.6438
    3MOL0     H  397   6.520   4.792   4.746  1.4241 -0.6963  0.5589
    3MOL0     H  398   6.566   4.352   3.668 -0.9342  0.0853 -1.0626
    3MOL0     H  399   6.446   4.246   3.497 -0.7957  3.8721 -1.8987
    3MOL0     H  400   6.548   4.188   2.984 -2.0160  0.9233 -2.3895
    3MOL0     H  401   6.529   4.094   2.778 -1.9495  0.5124  0.2608
    3MOL0     H  402   6.578   3.675   2.715  1.7185  0.6043 -1.8177
    3MOL0     H  403   6.394   3.662   2.732 -0.0462  0.0986 -0.2084
    3MOL0     H  404   6.547   3.739   2.478 -0.1208  0.1064 -0.1111
    3MOL0     H  405   6.378   3.734   2.485  0.0236 -0.6645 -2.2944
    3MOL0     H  406   6.520   3.481   2.582  1.0581  2.1317 -0.0891
    3MOL0     H  407   6.355   3.501   2.509  1.1294 -2.3894  0.6338
    3MOL0     H  408   6.467   3.561   2.295  2.3353 -0.4319 -2.2823
    3MOL0     H  409   6.478   3.392   2.353 -0.6698  1.2065  1.7742
    3MOL0     H  410   6.879   3.505   2.313  0.6170  1.9629  1.1185
    3MOL0     H  411   6.410   3.715   2.960  1.8812  0.2372  0.6163
    3MOL0     H  412   6.468   3.803   3.289 -0.9205  0.2368  0.1521
    3MOL0     H  413   6.312   3.788   3.239  1.0651 -2.9043  2.6945
    3MOL0     H  414   6.437   3.677   3.178  0.2407  0.6370 -1.4146
    4MOL0     O  415   0.154   8.345   7.311 -0.2429 -0.2615  0.3200
    4MOL0     C  416   0.047   8.365   7.364 -0.8537  0.1405  0.6022
    4MOL0     O  417   0.006   8.487   7.410 -0.2457 -0.6895  0.1351
    4MOL0     C  418   0.093   8.597   7.390  0.3948  0.2272 -0.4284
    4MOL0     C  419   0.072   8.678   7.280  0.5395 -0.2178 -0.5639
    4MOL0     C  420   0.149   8.797   7.261  0.4820 -0.2833  0.5461
    4MOL0     C  421   0.269   8.811   7.335  0.3415 -0.7843 -0.3172
    4MOL0     O  422   0.351   8.923   7.315 -0.0305  0.7746  0.4874
    4MOL0     C  423   0.312   9.044   7.384 -0.1399 -0.3538  1.0256
    4MOL0     C  424   0.388   9.047   7.514 -0.8791 -0.3028 -0.6279
    4MOL0     C  425   0.347   9.165   7.611  0.4852 -0.4205  0.0546
    4MOL0     C  426   0.465   9.208   7.702  0.6330 -0.1587 -1.5024
    4MOL0     C  427   0.428   9.330   7.784 -0.6751  0.2956 -0.7655
    4MOL0     C  428   0.304   9.300   7.876  1.2554 -0.3291  0.5935
    4MOL0     C  429   0.272   9.401   7.989 -0.5011  1.5331 -0.1386
    4MOL0     C  430   0.249   9.546   7.940  0.8152  1.5545  0.4237
    4MOL0     N  431   0.240   9.655   8.044  0.2769  1.0740  0.0771
    4MOL0     C  432   0.154   9.649   8.154 -0.3120  0.2933  0.2395
    4MOL0     C  433   0.171   9.773   8.203 -0.1766 -0.2500  0.6267
    4MOL0     C  434   0.113   9.835   8.326 -0.3925  0.6954 -0.1153
    4MOL0     C  435   0.169   9.758   8.453 -0.0189  0.3524 -0.4947
    4MOL0     C  436   0.063   9.719   8.562 -0.7317  0.3696  0.7307
    4MOL0     C  437   0.126   9.626   8.663 -0.7402 -0.4624  0.2145
    4MOL0     O  438   0.019   9.575   8.740  0.2748 -0.0360 -0.5011
    4MOL0     C  439   0.054   9.469   8.822  0.4247 -0.0237 -1.0153
    4MOL0     C  440   0.182   9.415   8.845 -0.6981  0.6159 -0.4855
    4MOL0     C  441   0.190   9.302   8.924 -0.0184 -0.4668 -0.1316
    4MOL0     C  442   0.321   9.277   8.980 -0.1426 -0.4318 -0.4186
    4MOL0     C  443   0.070   9.230   8.976 -0.6883 -0.0835 -0.3852
    4MOL0     C  444   0.078   9.090   9.024  0.2230 -0.0166  0.2207
    4MOL0     O  445  -0.025   9.037   9.087  0.0487 -0.4642  0.2806
    4MOL0     C  446  -0.008   8.916   9.148  0.4084  1.1732 -0.3331
    4MOL0     C  447  -0.040   8.894   9.286 -0.0747  0.6499 -0.2051
    4MOL0     C  448  -0.027   8.772   9.346  0.4526  0.2642  1.1734
    4MOL0     C  449   0.006   8.662   9.266 -0.7390 -0.3164  0.0447
    4MOL0     O  450   0.007   8.537   9.336 -0.3552 -0.5029 -0.2674
    4MOL0     C  451   0.126   8.455   9.332 -0.4131 -0.3688 -0.2060
    4MOL0     C  452   0.142   8.351   9.440 -0.4138  0.2807 -0.2845
    4MOL0     C  453   0.014   8.263   9.442  0.3333 -0.0863  0.7665
    4MOL0     C  454   0.039   8.153   9.544  0.7994  0.6617 -1.2087
    4MOL0     C  455  -0.055   8.046   9.540  0.4289  0.5406 -0.4892
    4MOL0     C  456  -0.050   7.965   9.672 -0.3260  0.5835 -0.5479
    4MOL0     C  457  -0.112   7.829   9.650 -0.3297 -1.0329  0.3971
    4MOL0     C  458  -0.127   7.757   9.785  0.2149 -1.6265  0.7656
    4MOL0    Cl  459   0.025   7.669   9.831 -0.2784  0.1336 -0.2365
    4MOL0     C  460   0.037   8.677   9.129  0.1936 -0.2987  0.4979
    4MOL0     C  461   0.020   8.803   9.063 -0.4208  0.1151 -0.0012
    4MOL0     O  462   0.181   9.025   8.990  0.5906 -0.3229 -0.2371
    4MOL0     C  463  -0.054   9.291   8.969 -0.1601 -0.3847 -0.8072
    4MOL0     C  464  -0.057   9.402   8.890  0.8558 -0.1645 -0.5510
    4MOL0     N  465   0.275   9.842   8.138  0.0776 -0.5333  0.1729
    4MOL0     N  466   0.306   9.766   8.034  0.6116 -1.5743 -0.0758
    4MOL0     C  467   0.293   8.717   7.447  0.2749 -0.2359  0.5338
    4MOL0     C  468   0.204   8.614   7.474  0.2864 -0.3641 -0.5844
    4MOL0     C  469  -0.044   8.257   7.391  0.1404  0.3831 -0.0090
    4MOL0     C  470  -0.167   8.251   7.320  0.0109 -0.2780 -0.1765
    4MOL0     C  471  -0.246   8.143   7.336  0.9106  1.0482  0.1279
    4MOL0     C  472  -0.211   8.027   7.414  0.5555 -0.6803 -0.6029
    4MOL0     O  473  -0.274   7.909   7.398 -0.0781  0.1079  0.1237
    4MOL0     C  474  -0.235   7.819   7.300 -0.1857  1.1322  0.5108
    4MOL0     C  475  -0.112   7.727   7.331  0.0960  0.6204 -0.6490
    4MOL0     C  476  -0.118   7.660   7.475 -0.0311 -0.4148 -0.0488
    4MOL0     C  477  -0.229   7.552   7.490 -0.4201 -0.3487  0.9532
    4MOL0     C  478  -0.197   7.460   7.594  0.7277 -1.0139 -0.2033
    4MOL0     C  479  -0.168   7.394   7.687 -0.2122  1.1739  0.5186
    4MOL0     C  480  -0.095   8.034   7.492 -0.3487 -0.0441 -0.0202
    4MOL0     C  481  -0.011   8.149   7.477 -0.0711 -0.4101 -0.3053
    4MOL0     C  482   0.120   8.141   7.565 -0.4895 -0.6195  0.6145
    4MOL0     H  483  -0.003   8.655   7.205  0.7207 -1.0159 -0.5158
    4MOL0     H  484   0.116   8.869   7.187  1.5049  1.6971  1.9079
    4MOL0     H  485   0.205   9.038   7.406 -0.5682 -3.2854 -1.2221
    4MOL0     H  486   0.329   9.137   7.329 -0.6385  0.6327  2.4736
    4MOL0     H  487   0.371   8.956   7.572  0.7341  2.3355  4.5856
    4MOL0     H  488   0.495   9.065   7.504 -0.3494  0.2823  3.9429
    4MOL0     H  489   0.319   9.247   7.544 -5.5392  0.0771  2.4787
    4MOL0     H  490   0.252   9.156   7.665 -0.1102  0.3338 -0.8405
    4MOL0     H  491   0.490   9.127   7.772 -2.4901 -0.7108 -0.9007
    4MOL0     H  492   0.554   9.226   7.641  0.8054 -3.3868 -2.3718
    4MOL0     H  493   0.408   9.418   7.722 -3.5396  2.3444  2.7586
    4MOL0     H  494   0.522   9.347   7.836 -0.3567  3.0547 -2.0501
    4MOL0     H  495   0.216   9.308   7.811  0.9757  0.8146  1.0753
    4MOL0     H  496   0.302   9.205   7.929  2.9324 -1.0659 -0.5698
    4MOL0     H  497   0.361   9.404   8.052 -0.4038  3.6407 -0.2933
    4MOL0     H  498   0.193   9.361   8.053  0.6768  0.4957  0.7243
    4MOL0     H  499   0.324   9.581   7.868  1.4358  0.3589  0.4654
    4MOL0     H  500   0.154   9.551   7.886  0.5454  0.5369  0.7727
    4MOL0     H  501   0.093   9.569   8.196 -1.3534  2.1553  2.5304
    4MOL0     H  502   0.004   9.843   8.328 -0.4532 -0.0266  1.8028
    4MOL0     H  503   0.154   9.936   8.336  1.9169 -0.0205 -1.3658
    4MOL0     H  504   0.213   9.666   8.414  0.6174  0.8843 -1.0513
    4MOL0     H  505   0.246   9.823   8.495 -0.0961 -0.0423  0.2734
    4MOL0     H  506   0.016   9.807   8.607 -1.3672  1.1140 -1.2698
    4MOL0     H  507  -0.017   9.663   8.512 -1.5317  1.5170  0.6829
    4MOL0     H  508   0.179   9.550   8.604  1.1752  2.1145 -1.6109
    4MOL0     H  509   0.190   9.682   8.731  0.5382  0.5245 -1.6884
    4MOL0     H  510   0.274   9.457   8.805  1.1987  1.1655  3.8725
    4MOL0     H  511   0.309   9.220   9.073  1.1049  0.4877  0.3388
    4MOL0     H  512   0.384   9.360   9.012 -1.8429  0.1569  1.7078
    4MOL0     H  513   0.386   9.216   8.917  4.5423  0.2984  3.1736
    4MOL0     H  514  -0.088   8.975   9.340  0.5001  1.1691 -0.4596
    4MOL0     H  515  -0.062   8.749   9.447 -1.7752 -0.3787  0.3236
    4MOL0     H  516   0.123   8.396   9.240  1.6367 -2.7711  1.1071
    4MOL0     H  517   0.218   8.515   9.337 -1.2649  0.9153  0.3550
    4MOL0     H  518   0.233   8.294   9.418 -1.5680 -2.5981  1.8947
    4MOL0     H  519   0.171   8.393   9.536  4.6734 -1.1426 -0.8934
    4MOL0     H  520  -0.004   8.227   9.341 -2.9210  2.0778  0.4406
    4MOL0     H  521  -0.081   8.308   9.471 -1.5784 -3.5421  0.4620
    4MOL0     H  522   0.037   8.205   9.640  0.4208  2.0008 -1.9209
    4MOL0     H  523   0.142   8.116   9.544  0.8700  0.8120  0.3990
    4MOL0     H  524  -0.158   8.077   9.525  0.2370 -0.9409 -2.5735
    4MOL0     H  525  -0.028   7.971   9.465 -1.4298 -0.7149  0.0284
    4MOL0     H  526  -0.099   8.020   9.753  0.2680  1.7925 -0.9927
    4MOL0     H  527   0.053   7.948   9.704 -1.0256 -0.1437  1.4113
    4MOL0     H  528  -0.051   7.770   9.581  0.9880  0.6423  0.0447
    4MOL0     H  529  -0.201   7.839   9.588  1.1351  1.0430 -1.5565
    4MOL0     H  530  -0.210   7.687   9.774 -1.1816  0.2663 -1.7702
    4MOL0     H  531  -0.148   7.830   9.863  0.3833 -2.0565  1.2223
    4MOL0     H  532   0.075   8.593   9.072  0.1430  1.1857 -1.8294
    4MOL0     H  533   0.034   8.823   8.958 -2.0178  2.3152  0.1282
    4MOL0     H  534  -0.144   9.245   9.009 -0.6336 -0.2433 -1.6821
    4MOL0     H  535  -0.149   9.455   8.865  0.9482  0.1709 -0.1892
    4MOL0     H  536   0.380   8.720   7.512  0.2341  1.1125  0.5497
    4MOL0     H  537   0.220   8.538   7.550 -1.0998  1.1293  1.2866
    4MOL0     H  538  -0.196   8.333   7.255  0.7088 -0.7580 -1.1110
    4MOL0     H  539  -0.328   8.132   7.266  1.5440  0.9274 -0.6089
    4MOL0     H  540  -0.329   7.766   7.285 -2.1703  3.6919  2.9164
    4MOL0     H  541  -0.206   7.867   7.206 -1.8912  1.8978  0.3489
    4MOL0     H  542  -0.022   7.788   7.314  1.4175 -0.9751  0.2810
    4MOL0     H  543  -0.110   7.647   7.256 -0.0570 -0.5697  0.5824
    4MOL0     H  544  -0.019   7.614   7.483  0.2603 -0.1934 -1.8360
    4MOL0     H  545  -0.116   7.739   7.551 -3.8367 -1.9948  1.9790
    4MOL0     H  546  -0.243   7.491   7.400 -2.8908  1.5158 -0.0529
    4MOL0     H  547  -0.324   7.599   7.517 -0.3372 -0.6616  1.7989
    4MOL0     H  548  -0.146   7.345   7.780 -0.7271  0.7634  0.4252
    4MOL0     H  549  -0.058   7.943   7.539 -0.2272  0.0596  0.0841
    4MOL0     H  550   0.215   8.153   7.511 -1.0090  0.1921 -0.1297
    4MOL0     H  551   0.117   8.226   7.634 -1.3874 -2.1927  2.6154
    4MOL0     H  552   0.131   8.042   7.612 -1.2074 -1.0138 -0.0212
    5MOL0     O  553   7.329   9.212   5.194 -0.3803  0.0349 -1.2786
    5MOL0     C  554   7.360   9.195   5.073  0.7508  0.2475 -0.6821
    5MOL0     O  555   7.366   9.079   5.005  0.1570 -0.5106  1.2805
    5MOL0     C  556   7.369   8.964   5.068 -0.9385  0.4282  0.1582
    5MOL0     C  557   7.455   8.871   5.013 -0.1600 -0.7084  0.1498
    5MOL0     C  558   7.482   8.744   5.075  0.6137  0.3573 -0.5139
    5MOL0     C  559   7.390   8.711   5.180  1.2057  0.7363 -1.2275
    5MOL0     O  560   7.386   8.592   5.241 -0.8332 -0.1738 -0.5098
    5MOL0     C  561   7.503   8.530   5.292 -0.5299 -0.1256  0.5801
    5MOL0     C  562   7.470   8.422   5.395 -0.0935  0.0874  0.4867
    5MOL0     C  563   7.483   8.287   5.344 -0.4492  0.3960  1.0759
    5MOL0     C  564   7.354   8.243   5.257 -0.6146  0.1745 -0.8965
    5MOL0     C  565   7.386   8.128   5.172  0.9818  0.2772 -0.8387
    5MOL0     C  566   7.273   8.114   5.067  0.0958 -0.6942 -0.6603
    5MOL0     C  567   7.228   7.985   5.021  0.0823  0.8254  1.0127
    5MOL0     C  568   7.194   7.886   5.133  0.8270  0.8079  0.8509
    5MOL0     N  569   7.114   7.775   5.081 -0.5530 -0.1060  0.9512
    5MOL0     C  570   6.983   7.772   5.042 -0.3783 -0.5072 -0.0663
    5MOL0     C  571   6.944   7.643   5.034  0.4307 -0.2662 -0.4330
    5MOL0     C  572   6.807   7.598   5.008 -0.0003 -0.1926  0.3277
    5MOL0     C  573   6.790   7.536   4.874 -0.4728 -0.4209  0.5697
    5MOL0     C  574   6.662   7.458   4.848 -0.6067  0.6084 -0.0902
    5MOL0     C  575   6.641   7.334   4.939 -0.0492  0.0703 -1.1824
    5MOL0     O  576   6.702   7.221   4.888  0.4803  0.4152 -0.7796
    5MOL0     C  577   6.612   7.137   4.818  0.3030  0.3356  0.4320
    5MOL0     C  578   6.630   7.121   4.675 -0.8461  0.7868 -0.4357
    5MOL0     C  579   6.553   7.022   4.602 -0.2950 -0.5807  0.6494
    5MOL0     C  580   6.598   7.015   4.457  0.3870 -0.1083 -0.7083
    5MOL0     C  581   6.449   6.947   4.664  0.2585 -0.1885 -0.8088
    5MOL0     C  582   6.364   6.849   4.589  0.7412 -0.0692  0.9928
    5MOL0     O  583   6.283   6.781   4.669  0.1661 -1.1484  0.1564
    5MOL0     C  584   6.214   6.665   4.630  0.2896 -0.8148  1.0763
    5MOL0     C  585   6.289   6.564   4.572  0.8826 -0.6898  0.5504
    5MOL0     C  586   6.225   6.444   4.535  0.2082 -0.5547 -0.7643
    5MOL0     C  587   6.086   6.432   4.551 -0.0377  1.0713 -1.1001
    5MOL0     O  588   6.012   6.321   4.509 -0.5239  0.4891 -0.1399
    5MOL0     C  589   6.070   6.222   4.419 -0.0697 -0.2445 -0.5489
    5MOL0     C  590   6.048   6.274   4.283  0.3446 -0.6271 -0.2219
    5MOL0     C  591   6.112   6.185   4.187 -0.0575  0.6506 -0.0639
    5MOL0     C  592   6.109   6.243   4.048 -0.3665  0.2091 -0.2135
    5MOL0     C  593   6.182   6.142   3.946  0.4150 -0.8961 -0.2448
    5MOL0     C  594   6.157   6.171   3.796  0.0845 -0.1037 -0.1930
    5MOL0     C  595   6.262   6.099   3.711 -0.4573 -0.5069  0.5057
    5MOL0     C  596   6.205   6.062   3.572  0.6095  0.0128 -0.3101
    5MOL0    Cl  597   6.213   6.214   3.474  0.3078 -0.0195  0.1747
    5MOL0     C  598   6.016   6.537   4.611 -0.2771 -0.3026 -0.0542
    5MOL0     C  599   6.078   6.653   4.658  0.4516  0.9063  0.0799
    5MOL0     O  600   6.369   6.836   4.465 -0.6701  0.4678 -0.0514
    5MOL0     C  601   6.438   6.967   4.805 -0.7206 -0.1412  0.0770
    5MOL0     C  602   6.510   7.057   4.879 -1.0838  0.0679  0.6828
    5MOL0     N  603   7.054   7.569   5.060  0.6741 -0.2180  1.0083
    5MOL0     N  604   7.153   7.651   5.089 -0.5970  1.2477  0.8737
    5MOL0     C  605   7.290   8.797   5.223 -0.6030 -0.5533  0.1196
    5MOL0     C  606   7.286   8.935   5.177 -0.3738  0.7260  0.8273
    5MOL0     C  607   7.378   9.318   5.002 -0.0794 -0.2550  0.2386
    5MOL0     C  608   7.336   9.438   5.062  0.0134 -0.6428  0.7818
    5MOL0     C  609   7.353   9.555   4.989 -0.1273 -0.3360  0.5441
    5MOL0     C  610   7.403   9.559   4.864 -0.9636  0.0123 -1.3173
    5MOL0     O  611   7.404   9.688   4.815 -0.0747 -0.1933 -0.0199
    5MOL0     C  612   7.464   9.716   4.695 -0.3514 -0.3597 -0.1326
    5MOL0     C  613   7.479   9.868   4.660  0.7851 -0.6210 -0.2888
    5MOL0     C  614   7.531   9.951   4.778 -0.2599 -0.5949  0.0969
    5MOL0     C  615   7.654   9.898   4.848 -0.7318 -0.2553 -0.3779
    5MOL0     C  616   7.775   9.887   4.765 -0.6891 -0.1083 -0.7439
    5MOL0     C  617   7.887   9.858   4.722  0.4700  0.4464  0.4349
    5MOL0     C  618   7.447   9.446   4.802  0.2949  0.0246  0.7405
    5MOL0     C  619   7.437   9.323   4.872 -0.3334  0.5036 -0.0973
    5MOL0     C  620   7.472   9.198   4.783 -0.7937  0.5851  0.4889
    5MOL0     H  621   7.508   8.904   4.925 -0.8793  2.8422  0.8991
    5MOL0     H  622   7.555   8.672   5.039  0.8450  1.1398 -1.6872
    5MOL0     H  623   7.557   8.607   5.348  0.5238 -0.2456 -0.2295
    5MOL0     H  624   7.566   8.486   5.214 -1.6341 -0.7119  0.0003
    5MOL0     H  625   7.557   8.429   5.461  0.5778 -2.5831 -0.0023
    5MOL0     H  626   7.374   8.444   5.443 -0.5133  1.6048 -0.9671
    5MOL0     H  627   7.570   8.277   5.278 -0.9213 -0.7401  0.5950
    5MOL0     H  628   7.499   8.229   5.435  1.3546  0.8808  1.1139
    5MOL0     H  629   7.275   8.222   5.330  0.2604  0.9262  0.2994
    5MOL0     H  630   7.315   8.320   5.191 -1.0791  1.4669  0.8186
    5MOL0     H  631   7.378   8.038   5.234 -0.2586 -0.2532 -1.7363
    5MOL0     H  632   7.486   8.133   5.128  0.4978 -2.2297 -2.4139
    5MOL0     H  633   7.191   8.175   5.105  2.1731  0.2127  2.8840
    5MOL0     H  634   7.307   8.159   4.974  1.3174 -1.0502 -0.4129
    5MOL0     H  635   7.312   7.953   4.959 -0.6021  1.6348 -0.3749
    5MOL0     H  636   7.136   8.004   4.965 -0.1847  1.6394  1.6985
    5MOL0     H  637   7.283   7.859   5.191  0.2317  0.0651  1.4271
    5MOL0     H  638   7.127   7.933   5.206  0.8768 -0.8390  2.0277
    5MOL0     H  639   6.918   7.857   5.025 -1.2048 -0.8500  1.2624
    5MOL0     H  640   6.733   7.677   5.022  0.1192 -0.0847  0.3468
    5MOL0     H  641   6.779   7.525   5.085  0.3430  0.4417  1.0613
    5MOL0     H  642   6.787   7.616   4.799  1.3642 -0.7573  0.0745
    5MOL0     H  643   6.873   7.475   4.837 -1.7797 -1.1593 -1.3108
    5MOL0     H  644   6.579   7.529   4.858 -1.6352 -0.2684 -1.8656
    5MOL0     H  645   6.665   7.428   4.743 -2.5850 -0.7930  0.1943
    5MOL0     H  646   6.672   7.325   5.043  0.7054 -2.0865 -1.5397
    5MOL0     H  647   6.534   7.321   4.958  0.5384 -2.0301  1.2094
    5MOL0     H  648   6.698   7.186   4.621  0.0080  0.0646 -0.2554
    5MOL0     H  649   6.642   6.916   4.442 -0.0452 -0.4795  0.3706
    5MOL0     H  650   6.678   7.084   4.429  1.1237 -0.7247 -0.1569
    5MOL0     H  651   6.519   7.029   4.383 -1.4604  2.2225  1.4943
    5MOL0     H  652   6.391   6.583   4.539  0.1934 -0.1939 -1.4365
    5MOL0     H  653   6.280   6.372   4.476  0.3723  0.3175 -1.6938
    5MOL0     H  654   6.170   6.190   4.451 -0.4171  0.9514  1.9891
    5MOL0     H  655   6.015   6.128   4.428  0.3846 -0.6892 -2.1515
    5MOL0     H  656   5.939   6.274   4.272  0.2753 -0.7549  0.4406
    5MOL0     H  657   6.078   6.377   4.265 -1.1929 -0.6462 -3.8597
    5MOL0     H  658   6.044   6.099   4.194 -2.2588  2.2270 -0.8697
    5MOL0     H  659   6.216   6.160   4.206 -0.4385  0.7061  2.4126
    5MOL0     H  660   6.167   6.335   4.045  1.8267 -0.8312  3.3665
    5MOL0     H  661   6.012   6.267   4.004  1.3101  1.6576 -3.4917
    5MOL0     H  662   6.286   6.140   3.978 -0.0591 -3.2794  1.3690
    5MOL0     H  663   6.140   6.043   3.965 -1.6550 -0.2607 -1.1503
    5MOL0     H  664   6.185   6.276   3.780  5.7812 -0.7599  2.8620
    5MOL0     H  665   6.054   6.139   3.781 -0.7837  0.9628  2.6766
    5MOL0     H  666   6.282   6.003   3.760  1.6488 -0.3217  0.1121
    5MOL0     H  667   6.362   6.144   3.709 -0.5432 -0.3270 -0.4720
    5MOL0     H  668   6.099   6.032   3.575  0.0536  1.7599 -1.2588
    5MOL0     H  669   6.250   5.981   3.514 -1.4438 -2.7557  1.6933
    5MOL0     H  670   5.909   6.519   4.616 -0.1135 -0.9749  2.4658
    5MOL0     H  671   6.033   6.743   4.699  0.2616  3.1494 -4.4785
    5MOL0     H  672   6.366   6.902   4.854 -0.1372  0.9655  2.5313
    5MOL0     H  673   6.496   7.078   4.984  4.9114 -2.7058  2.5154
    5MOL0     H  674   7.215   8.769   5.295 -0.0163 -1.9024  0.2339
    5MOL0     H  675   7.202   8.991   5.216 -0.4648  0.8348  0.4825
    5MOL0     H  676   7.295   9.431   5.162  0.5724 -0.5982  1.0197
    5MOL0     H  677   7.326   9.649   5.035 -1.0422 -0.7563  0.8988
    5MOL0     H  678   7.564   9.673   4.690 -1.9575 -4.3209 -1.4446
    5MOL0     H  679   7.408   9.664   4.617 -0.8329  0.6290 -0.4668
    5MOL0     H  680   7.375   9.897   4.639  0.8532  0.4394  0.7247
    5MOL0     H  681   7.545   9.875   4.573  1.3562  1.6082  0.2525
    5MOL0     H  682   7.543  10.051   4.737  2.1392 -0.3414  1.2696
    5MOL0     H  683   7.456   9.952   4.858  0.5831 -0.5046  0.9026
    5MOL0     H  684   7.635   9.798   4.887  4.1574 -1.0399  0.6501
    5MOL0     H  685   7.675   9.962   4.934 -0.1164  0.3056 -0.9302
    5MOL0     H  686   7.984   9.840   4.679  0.8896 -0.2656  1.6479
    5MOL0     H  687   7.492   9.447   4.704 -1.6646 -3.2913 -0.3534
    5MOL0     H  688   7.378   9.146   4.761 -1.0601 -1.0867  4.6976
    5MOL0     H  689   7.507   9.233   4.685 -0.4385 -0.6309  0.1617
    5MOL0     H  690   7.547   9.131   4.825 -1.9656 -0.8941  0.3245
    6MOL0     O  691   9.037  11.220  10.408  0.1371 -0.3630 -0.5779
    6MOL0     C  692   8.957  11.139  10.358 -0.4006 -0.1788 -0.8947
    6MOL0     O  693   8.987  11.046  10.270  0.4595 -0.1651  1.0829
    6MOL0     C  694   9.115  11.033  10.228  0.3553 -0.1252 -0.5595
    6MOL0     C  695   9.224  11.022  10.318 -1.0975 -0.1754 -1.4793
    6MOL0     C  696   9.353  11.015  10.266 -0.0204  0.4398  0.2519
    6MOL0     C  697   9.375  11.027  10.127  0.2568 -0.1310  0.1137
    6MOL0     O  698   9.503  11.019  10.086  0.2852 -0.4030  0.0550
    6MOL0     C  699   9.515  10.945   9.964  0.0484  0.6251  0.2162
    6MOL0     C  700   9.660  10.895   9.953  0.1960 -0.2013  0.0189
    6MOL0     C  701   9.704  10.800  10.059 -0.3111 -0.4200 -0.2277
    6MOL0     C  702   9.854  10.804  10.078  0.4462  0.9958  0.6667
    6MOL0     C  703   9.902  10.887  10.199  0.3521 -0.0246  0.3561
    6MOL0     C  704   9.901  10.803  10.323  1.6300 -0.8741 -0.4302
    6MOL0     C  705   9.962  10.886  10.435  0.0588 -0.2628 -0.1790
    6MOL0     C  706   9.867  10.885  10.561 -1.0662 -0.0978 -0.7927
    6MOL0     N  707   9.929  10.937  10.693 -0.1444  0.6365 -0.5441
    6MOL0     C  708   9.860  10.945  10.813 -0.8694  0.3581  0.3259
    6MOL0     C  709   9.956  10.997  10.902 -0.3431  0.0044 -0.6845
    6MOL0     C  710   9.937  11.034  11.049  0.3936 -0.2039 -0.0003
    6MOL0     C  711   9.860  11.159  11.063 -0.2549  0.5660  0.3525
    6MOL0     C  712   9.846  11.200  11.215 -0.5703 -0.2373 -0.2253
    6MOL0     C  713   9.971  11.279  11.267 -1.1399 -0.5862 -1.2298
    6MOL0     O  714  10.088  11.207  11.312  0.5404 -0.0121 -0.3816
    6MOL0     C  715  10.101  11.153  11.440 -0.6150  0.7532 -0.2289
    6MOL0     C  716  10.229  11.155  11.486 -0.4477 -0.8288 -0.2419
    6MOL0     C  717  10.266  11.104  11.610 -0.6460  0.5956 -0.9845
    6MOL0     C  718  10.408  11.104  11.640 -0.6278 -0.2812  0.2018
    6MOL0     C  719  10.165  11.051  11.698  0.1303  0.3715 -0.5695
    6MOL0     C  720  10.187  10.995  11.838 -0.3735 -0.0152 -0.3581
    6MOL0     O  721  10.313  11.001  11.875 -0.2758  0.3722 -0.4840
    6MOL0     C  722  10.356  10.961  11.999  0.0085  0.8824 -1.4005
    6MOL0     C  723  10.417  10.839  12.021 -0.0857 -0.4862  0.8029
    6MOL0     C  724  10.467  10.800  12.149 -0.6574 -0.9953 -0.8536
    6MOL0     C  725  10.449  10.887  12.262  0.0778  0.4983  0.1961
    6MOL0     O  726  10.491  10.871  12.396  0.2441  0.0807 -0.5869
    6MOL0     C  727  10.559  10.752  12.425  0.3133 -0.1532 -0.1796
    6MOL0     C  728  10.466  10.640  12.459 -0.0053 -0.0439 -0.2265
    6MOL0     C  729  10.356  10.699  12.555 -0.0637 -0.6285 -0.1699
    6MOL0     C  730  10.418  10.749  12.688  0.7322  0.1386  0.2248
    6MOL0     C  731  10.299  10.758  12.789  0.9404 -0.1137 -0.6596
    6MOL0     C  732  10.325  10.825  12.921 -0.3700 -0.0847  0.2038
    6MOL0     C  733  10.359  10.727  13.034  0.1658  0.6072 -0.5669
    6MOL0     C  734  10.444  10.791  13.139  0.3184 -0.7349  1.0964
    6MOL0    Cl  735  10.596  10.858  13.056 -0.1177 -0.0201  0.9374
    6MOL0     C  736  10.377  11.005  12.244  0.3744  0.8340  0.0881
    6MOL0     C  737  10.335  11.041  12.119  0.3045 -0.2712 -0.1844
    6MOL0     O  738  10.098  10.951  11.912  0.9248  0.5480  0.3301
    6MOL0     C  739  10.026  11.045  11.649  0.4117 -0.2523  0.0507
    6MOL0     C  740   9.999  11.104  11.522 -0.5494  0.2995 -0.0976
    6MOL0     N  741  10.083  10.999  10.849  0.2658 -0.2098  0.8887
    6MOL0     N  742  10.067  10.961  10.723  0.7377  0.9283 -0.1515
    6MOL0     C  743   9.262  11.042  10.036 -1.0703  0.9736 -0.5275
    6MOL0     C  744   9.130  11.038  10.085 -0.2509  0.1593  0.2843
    6MOL0     C  745   8.814  11.161  10.365  0.9775 -0.0154 -0.2112
    6MOL0     C  746   8.765  11.189  10.495  0.1416  0.1409 -0.0359
    6MOL0     C  747   8.630  11.224  10.522  0.2846  0.7064  0.1018
    6MOL0     C  748   8.539  11.223  10.410  0.7183 -0.0577  0.0496
    6MOL0     O  749   8.408  11.259  10.413 -0.1568 -0.3303 -0.1222
    6MOL0     C  750   8.391  11.397  10.433  0.0588 -0.1249  0.0458
    6MOL0     C  751   8.246  11.432  10.391 -0.0257 -0.3872  0.7132
    6MOL0     C  752   8.241  11.448  10.239 -0.3288  0.1295 -0.7195
    6MOL0     C  753   8.138  11.561  10.204 -0.1543  0.3514 -1.1826
    6MOL0     C  754   8.013  11.524  10.268 -0.6330  0.4692  0.7844
    6MOL0     C  755   7.920  11.491  10.336  0.1194  0.3346  0.2314
    6MOL0     C  756   8.597  11.219  10.283  0.6447  0.1648  0.0541
    6MOL0     C  757   8.721  11.161  10.252  0.6575 -0.3088 -0.2910
    6MOL0     C  758   8.748  11.129  10.112 -1.0652 -0.4934  1.1412
    6MOL0     H  759   9.200  11.017  10.423 -2.5260  1.6092 -1.6657
    6MOL0     H  760   9.439  11.006  10.331 -0.3694  0.7422  0.7578
    6MOL0     H  761   9.507  11.012   9.878 -1.1776  2.1873  1.4774
    6MOL0     H  762   9.441  10.865   9.955 -0.4616  1.0129  0.9378
    6MOL0     H  763   9.663  10.849   9.853 -1.0205  2.9370 -1.5996
    6MOL0     H  764   9.731  10.978   9.957  0.7606 -0.5110 -2.1402
    6MOL0     H  765   9.657  10.800  10.158 -1.8752 -0.7430 -0.9494
    6MOL0     H  766   9.663  10.703  10.029  1.0918 -0.6581 -1.5377
    6MOL0     H  767   9.885  10.703  10.105 -1.5261  0.3713  0.7405
    6MOL0     H  768   9.902  10.837   9.985  1.8396  1.2212  1.4446
    6MOL0     H  769   9.834  10.971  10.219  0.1406 -0.1556  0.1893
    6MOL0     H  770  10.001  10.934  10.193 -0.6909  2.1302 -1.2790
    6MOL0     H  771   9.798  10.776  10.349  2.1856 -1.3702  1.3738
    6MOL0     H  772   9.974  10.722  10.318  3.5241  0.1950  4.5520
    6MOL0     H  773   9.976  10.992  10.413 -3.9069  0.5746  0.4684
    6MOL0     H  774  10.058  10.846  10.467  0.8488  1.9551  0.4033
    6MOL0     H  775   9.778  10.943  10.536 -1.7779 -0.4739  0.7065
    6MOL0     H  776   9.827  10.788  10.593 -1.8842  1.3381  3.0661
    6MOL0     H  777   9.753  10.927  10.816 -0.4335 -2.8316  0.2398
    6MOL0     H  778  10.026  11.052  11.110  0.0660  3.4393 -0.3277
    6MOL0     H  779   9.885  10.947  11.091  1.4993 -1.2882 -0.8371
    6MOL0     H  780   9.927  11.232  11.017 -2.6863  2.2012 -0.7573
    6MOL0     H  781   9.761  11.145  11.020 -0.3787 -4.8082  1.6045
    6MOL0     H  782   9.765  11.273  11.225 -2.1676 -1.7307 -1.6041
    6MOL0     H  783   9.813  11.112  11.271 -0.8536 -0.7729 -1.2164
    6MOL0     H  784  10.001  11.348  11.187 -0.5821 -0.2260 -0.7250
    6MOL0     H  785   9.938  11.330  11.358  1.2218 -1.5737  0.2978
    6MOL0     H  786  10.288  11.214  11.416  0.3349 -0.0053  1.0810
    6MOL0     H  787  10.468  11.119  11.550 -1.6235  0.9338 -0.2859
    6MOL0     H  788  10.438  11.003  11.668  2.0786 -0.2396 -2.0098
    6MOL0     H  789  10.426  11.178  11.719 -0.0264  1.4291 -1.4444
    6MOL0     H  790  10.433  10.773  11.937 -0.1526 -0.2445  0.6017
    6MOL0     H  791  10.511  10.705  12.176  1.4293  0.7093  2.4346
    6MOL0     H  792  10.627  10.743  12.340 -0.2111  1.2080 -0.7630
    6MOL0     H  793  10.633  10.769  12.504 -0.6898  2.4754  0.2778
    6MOL0     H  794  10.417  10.611  12.365  2.1970 -0.9689 -1.1715
    6MOL0     H  795  10.524  10.555  12.496  0.6742  1.1981  1.6995
    6MOL0     H  796  10.289  10.617  12.580 -1.7328 -0.2897 -3.0988
    6MOL0     H  797  10.289  10.768  12.503 -1.0239 -2.4878 -1.4918
    6MOL0     H  798  10.484  10.836  12.682  0.7710  0.0196 -2.3015
    6MOL0     H  799  10.483  10.666  12.716  0.4015 -1.2799 -2.8623
    6MOL0     H  800  10.225  10.825  12.743 -0.6118 -1.5716 -0.3798
    6MOL0     H  801  10.238  10.671  12.816  1.4085 -0.0938  0.5270
    6MOL0     H  802  10.242  10.887  12.955  2.4319  2.5639  2.9001
    6MOL0     H  803  10.411  10.889  12.899  0.7648 -1.5186  0.2536
    6MOL0     H  804  10.403  10.634  12.997  1.4430  0.0627  2.0601
    6MOL0     H  805  10.260  10.702  13.073 -1.3281  3.6131 -2.1298
    6MOL0     H  806  10.472  10.719  13.216  1.0017  0.5021  2.0479
    6MOL0     H  807  10.384  10.868  13.190  3.5203  2.4971  0.4021
    6MOL0     H  808  10.363  11.086  12.314  0.4211 -0.1708  1.3041
    6MOL0     H  809  10.280  11.134  12.125 -1.4617 -1.3670  3.5100
    6MOL0     H  810   9.945  11.011  11.713 -0.5071  2.0242  0.1856
    6MOL0     H  811   9.895  11.110  11.493 -1.9352 -1.7805  3.7179
    6MOL0     H  812   9.255  11.041   9.928  2.2428  0.1859 -0.8258
    6MOL0     H  813   9.044  11.033  10.020 -0.3568 -0.6432  0.4751
    6MOL0     H  814   8.842  11.198  10.571 -1.1538  1.0748  1.2318
    6MOL0     H  815   8.599  11.229  10.625  4.2227 -5.1410  2.0639
    6MOL0     H  816   8.393  11.410  10.541  0.3414 -0.3224  0.0646
    6MOL0     H  817   8.465  11.455  10.378 -0.6193 -0.1768 -0.9585
    6MOL0     H  818   8.218  11.526  10.439  0.9267  1.4050 -2.0266
    6MOL0     H  819   8.176  11.354  10.423 -0.5743 -1.9117 -3.5968
    6MOL0     H  820   8.340  11.465  10.197 -0.1465 -0.8056 -0.6884
    6MOL0     H  821   8.213  11.351  10.196 -0.3655 -0.2899  0.2327
    6MOL0     H  822   8.130  11.560  10.095 -0.7489  1.2966 -1.1598
    6MOL0     H  823   8.171  11.661  10.234  3.0547 -0.2531 -2.3175
    6MOL0     H  824   7.822  11.472  10.375 -0.9948 -0.2699 -2.6628
    6MOL0     H  825   8.522  11.249  10.211  1.1246 -0.0695 -0.5478
    6MOL0     H  826   8.837  11.187  10.087  0.0672 -0.8857  3.9151
    6MOL0     H  827   8.776  11.025  10.098 -2.0890 -0.7427  0.8770
    6MOL0     H  828   8.664  11.151  10.046 -0.3343 -2.5608 -0.5824
    7MOL0     O  829   5.944   0.907   0.553 -0.5814 -0.1322  0.2372
    7MOL0     C  830   5.915   0.883   0.667 -0.4593  0.3492  0.6019
    7MOL0     O  831   6.006   0.827   0.758 -0.2000 -0.3063 -0.5693
    7MOL0     C  832   6.145   0.827   0.742 -0.4360  0.4915 -0.0590
    7MOL0     C  833   6.228   0.734   0.811  0.5564  0.3473  0.5076
    7MOL0     C  834   6.365   0.748   0.815 -0.2137  2.0759  0.3317
    7MOL0     C  835   6.434   0.842   0.740  0.1961 -0.3991  0.6266
    7MOL0     O  836   6.565   0.832   0.758  0.1221 -0.4020  0.0646
    7MOL0     C  837   6.655   0.881   0.655  0.5550 -1.1441 -0.1864
    7MOL0     C  838   6.788   0.941   0.715  0.9314  0.3122  0.8534
    7MOL0     C  839   6.875   0.839   0.808 -0.3614 -0.0907 -0.2560
    7MOL0     C  840   6.961   0.734   0.723 -0.2996 -0.9242 -0.1443
    7MOL0     C  841   7.016   0.627   0.823 -1.0201  0.1440 -0.4742
    7MOL0     C  842   7.090   0.513   0.755  0.2319 -0.1894 -0.6858
    7MOL0     C  843   7.204   0.559   0.658 -0.5843  0.0940  0.1088
    7MOL0     C  844   7.273   0.446   0.594 -0.2187  0.3830  0.1821
    7MOL0     N  845   7.391   0.414   0.677  0.1673 -0.0407 -1.0747
    7MOL0     C  846   7.413   0.299   0.755  0.1351 -0.0928 -0.3512
    7MOL0     C  847   7.545   0.289   0.774 -0.0779 -0.2847 -0.4625
    7MOL0     C  848   7.603   0.163   0.841 -0.2515 -0.0055 -0.0013
    7MOL0     C  849   7.690   0.113   0.731 -0.5800  0.3834 -0.2897
    7MOL0     C  850   7.781  -0.005   0.780  0.3642  0.1820 -0.3913
    7MOL0     C  851   7.839  -0.091   0.664 -0.4710  0.0924 -0.3761
    7MOL0     O  852   7.960  -0.032   0.600  0.7014 -0.3303 -0.2331
    7MOL0     C  853   8.083  -0.031   0.669 -0.1964  0.5990 -0.2342
    7MOL0     C  854   8.109  -0.085   0.798 -0.2707 -0.0379  0.3807
    7MOL0     C  855   8.233  -0.072   0.856  0.3881  0.5835  0.3763
    7MOL0     C  856   8.254  -0.118   1.000 -0.8212  0.5054  0.1482
    7MOL0     C  857   8.342  -0.019   0.787  0.6759 -0.1654 -0.7292
    7MOL0     C  858   8.483   0.015   0.848  0.7857 -1.0539 -0.0551
    7MOL0     O  859   8.568   0.108   0.779  0.7191 -0.2404 -0.0715
    7MOL0     C  860   8.688   0.134   0.837 -0.1660 -0.9084  0.1555
    7MOL0     C  861   8.798   0.047   0.831 -0.0635  1.1163 -0.4477
    7MOL0     C  862   8.908   0.083   0.905 -0.5725 -0.7790  0.3814
    7MOL0     C  863   8.915   0.206   0.970 -0.7006  0.3753  0.1463
    7MOL0     O  864   9.035   0.241   1.039  0.6108 -0.9329 -0.5350
    7MOL0     C  865   9.038   0.261   1.185 -0.5208  0.0741 -0.2177
    7MOL0     C  866   9.160   0.347   1.194  0.2747 -0.3010 -0.7157
    7MOL0     C  867   9.179   0.395   1.338  0.4532 -0.0635  0.8720
    7MOL0     C  868   9.307   0.466   1.349 -0.8591  0.6859 -0.4879
    7MOL0     C  869   9.332   0.508   1.498 -0.4044 -0.5187  0.5519
    7MOL0     C  870   9.472   0.571   1.517 -0.2024 -0.9642 -0.4419
    7MOL0     C  871   9.515   0.691   1.423  0.7819 -0.2563 -0.5292
    7MOL0     C  872   9.640   0.760   1.488  0.7052 -0.0673  0.1598
    7MOL0    Cl  873   9.786   0.649   1.453  0.1158 -0.3994 -0.1237
    7MOL0     C  874   8.805   0.290   0.975  0.4800 -0.7835 -0.5831
    7MOL0     C  875   8.690   0.255   0.908  0.4502  0.6412  0.0390
    7MOL0     O  876   8.520  -0.037   0.953  0.0183 -0.2963 -0.1215
    7MOL0     C  877   8.317   0.014   0.652 -0.4960 -0.2975  0.4210
    7MOL0     C  878   8.191   0.011   0.590  1.2256  0.3744  0.0930
    7MOL0     N  879   7.604   0.405   0.723  0.2776  1.0140  0.4335
    7MOL0     N  880   7.510   0.481   0.669  0.4798 -0.3443 -0.3026
    7MOL0     C  881   6.361   0.929   0.664 -0.2921  0.6768 -0.4772
    7MOL0     C  882   6.224   0.923   0.671 -0.1900  0.7824  0.9099
    7MOL0     C  883   5.769   0.906   0.703  0.1985  0.7525  0.3506
    7MOL0     C  884   5.666   0.906   0.606 -0.4094 -0.2326  0.0061
    7MOL0     C  885   5.542   0.928   0.646  0.5873 -1.1900 -0.3461
    7MOL0     C  886   5.506   0.954   0.778 -0.0429 -0.5301 -0.7380
    7MOL0     O  887   5.369   0.956   0.809 -0.5327  0.2331  0.1591
    7MOL0     C  888   5.340   0.984   0.954  0.1361 -0.0316  0.3700
    7MOL0     C  889   5.191   0.990   0.950 -0.6451 -0.5210  0.0863
    7MOL0     C  890   5.123   0.876   1.034  0.0447  0.3937 -0.5938
    7MOL0     C  891   5.114   0.916   1.181  0.4449 -0.2205  0.3563
    7MOL0     C  892   5.031   0.823   1.260 -0.6700  0.7987 -0.4219
    7MOL0     C  893   4.953   0.764   1.327 -0.0722 -0.1770 -0.1664
    7MOL0     C  894   5.609   0.972   0.870 -0.0725 -1.3122 -0.1117
    7MOL0     C  895   5.742   0.948   0.835  0.8073 -0.1079  1.0197
    7MOL0     C  896   5.850   0.984   0.930  0.5692 -0.0992  0.0127
    7MOL0     H  897   6.178   0.668   0.880 -1.2121 -1.7905 -2.5818
    7MOL0     H  898   6.421   0.677   0.876 -1.2067  1.0064  0.0178
    7MOL0     H  899   6.622   0.966   0.594 -1.8365 -0.5040  1.8589
    7MOL0     H  900   6.673   0.793   0.592 -0.2114 -0.9009 -0.7636
    7MOL0     H  901   6.857   0.974   0.637  0.1874  0.1248  0.1019
    7MOL0     H  902   6.752   1.034   0.759 -1.0656  1.9603 -3.6360
    7MOL0     H  903   6.929   0.901   0.881 -0.0404 -2.3934  1.5541
    7MOL0     H  904   6.795   0.782   0.856 -0.6964 -1.7135 -2.5929
    7MOL0     H  905   6.898   0.688   0.647 -0.1406 -2.8271  0.8345
    7MOL0     H  906   7.034   0.799   0.673  0.7537  0.9654  3.4695
    7MOL0     H  907   6.934   0.572   0.871 -1.2297 -1.5051 -2.5618
    7MOL0     H  908   7.083   0.667   0.899 -1.7232 -3.6501  2.4688
    7MOL0     H  909   7.132   0.443   0.827  0.6042 -2.2705 -2.7922
    7MOL0     H  910   7.019   0.464   0.687  1.3856 -0.1919 -1.9175
    7MOL0     H  911   7.271   0.625   0.714  0.6644 -0.0827 -1.1310
    7MOL0     H  912   7.162   0.617   0.576  2.0288 -1.8539 -2.8728
    7MOL0     H  913   7.212   0.355   0.580  0.0201 -0.2018  2.5849
    7MOL0     H  914   7.311   0.481   0.497 -4.0238  0.4658 -1.4814
    7MOL0     H  915   7.340   0.221   0.778 -1.3249  1.0223 -1.0100
    7MOL0     H  916   7.530   0.086   0.867  0.5114 -1.0400 -0.8605
    7MOL0     H  917   7.666   0.190   0.926  1.4005  0.7170 -1.3827
    7MOL0     H  918   7.628   0.085   0.646 -0.6986  3.6343 -1.3975
    7MOL0     H  919   7.764   0.186   0.697 -1.8655 -0.1113 -4.6683
    7MOL0     H  920   7.863   0.030   0.843  1.5663 -1.2905 -1.0637
    7MOL0     H  921   7.712  -0.066   0.839 -3.3945  3.5612 -0.9403
    7MOL0     H  922   7.865  -0.191   0.700 -0.3336  0.7724  1.5334
    7MOL0     H  923   7.758  -0.101   0.591 -1.6143 -0.7017  0.9672
    7MOL0     H  924   8.027  -0.127   0.855  1.8680 -1.8847  2.3030
    7MOL0     H  925   8.315  -0.208   1.008  1.7012  2.2420  1.9758
    7MOL0     H  926   8.157  -0.146   1.044 -0.3173 -1.1965  0.2342
    7MOL0     H  927   8.287  -0.043   1.072  4.2728 -0.7928 -0.5123
    7MOL0     H  928   8.781  -0.047   0.779 -1.9983 -0.8744  3.3699
    7MOL0     H  929   8.992   0.016   0.918  1.7568  1.7115 -0.7790
    7MOL0     H  930   8.950   0.311   1.226  0.1584  0.6799  0.5391
    7MOL0     H  931   9.054   0.166   1.237  4.5296  0.3166 -0.8234
    7MOL0     H  932   9.241   0.291   1.147  0.0219 -0.2302 -1.2430
    7MOL0     H  933   9.143   0.440   1.139 -1.3346 -1.4243 -2.2512
    7MOL0     H  934   9.173   0.320   1.417 -1.7668  0.1325  0.9413
    7MOL0     H  935   9.109   0.473   1.369  0.7787  0.4030  0.4649
    7MOL0     H  936   9.317   0.548   1.277 -1.4016  0.1963 -1.1323
    7MOL0     H  937   9.394   0.404   1.326 -1.2268  1.3787 -4.2695
    7MOL0     H  938   9.252   0.571   1.540 -0.0894  2.6816 -3.1475
    7MOL0     H  939   9.329   0.415   1.556 -2.3483  0.5018  2.2481
    7MOL0     H  940   9.553   0.498   1.506  1.5577  0.9175 -0.4636
    7MOL0     H  941   9.479   0.609   1.619 -0.0745  1.4191 -1.2738
    7MOL0     H  942   9.429   0.756   1.409  1.3032  0.3207 -1.1319
    7MOL0     H  943   9.537   0.659   1.320  0.4400  0.3070 -0.7796
    7MOL0     H  944   9.629   0.758   1.597 -0.7374  0.7798  0.0662
    7MOL0     H  945   9.649   0.863   1.452 -0.8042 -0.1655 -0.5910
    7MOL0     H  946   8.818   0.385   1.026  3.5249 -1.9831  1.0978
    7MOL0     H  947   8.611   0.327   0.888 -0.9573 -1.2432 -1.5443
    7MOL0     H  948   8.395   0.058   0.592 -0.3968  2.4876  2.3765
    7MOL0     H  949   8.177   0.035   0.485 -2.4690 -1.9496 -0.1276
    7MOL0     H  950   6.420   1.001   0.608  1.7154 -0.0974  0.5778
    7MOL0     H  951   6.181   1.013   0.627  1.8913  1.0270 -0.7816
    7MOL0     H  952   5.684   0.875   0.504 -2.9247 -2.1706  0.0496
    7MOL0     H  953   5.460   0.934   0.575 -0.2417  0.8505  0.7012
    7MOL0     H  954   5.359   0.908   1.030 -3.9365 -0.7666  0.8788
    7MOL0     H  955   5.387   1.082   0.965 -0.0547  0.5035 -2.7506
    7MOL0     H  956   5.155   1.004   0.847 -0.2224  0.2540  0.0295
    7MOL0     H  957   5.164   1.088   0.992  2.7748  0.3137  0.6835
    7MOL0     H  958   5.019   0.870   0.999 -0.9405  1.0389  1.9788
    7MOL0     H  959   5.184   0.785   1.031  0.7209  0.8780 -1.9063
    7MOL0     H  960   5.076   1.017   1.201  1.4878 -0.1100  2.0092
    7MOL0     H  961   5.218   0.907   1.214  0.2060 -2.0120  0.7065
    7MOL0     H  962   4.871   0.713   1.373 -0.1930 -0.1182 -0.3152
    7MOL0     H  963   5.592   0.991   0.975 -0.3592 -2.5714  0.0885
    7MOL0     H  964   5.941   1.023   0.883  2.7590 -1.9095  2.4462
    7MOL0     H  965   5.802   1.047   1.006  0.4840 -0.1468 -0.0028
    7MOL0     H  966   5.873   0.892   0.985  0.4854 -0.5115 -0.6351
    8MOL0     O  967   1.949   7.554   4.960 -0.0901  0.3391  0.5527
    8MOL0     C  968   1.986   7.573   4.847 -0.7522  0.1195 -0.3001
    8MOL0     O  969   1.906   7.587   4.740  0.4746 -0.0999 -0.2758
    8MOL0     C  970   1.774   7.598   4.760  1.3788 -0.1890 -0.1186
    8MOL0     C  971   1.703   7.718   4.778  0.8381 -0.4321  0.0349
    8MOL0     C  972   1.568   7.718   4.814 -0.3251  0.6582  0.4502
    8MOL0     C  973   1.488   7.594   4.823 -0.1771  1.0309  0.5293
    8MOL0     O  974   1.362   7.593   4.864  0.1755 -0.0064 -0.1544
    8MOL0     C  975   1.328   7.664   4.984  0.2305 -0.2665 -0.5607
    8MOL0     C  976   1.177   7.662   5.019  0.1700  0.1436 -0.4615
    8MOL0     C  977   1.153   7.712   5.167  0.3788  0.1426 -0.3335
    8MOL0     C  978   1.006   7.730   5.193 -0.2722 -0.4734 -0.6446
    8MOL0     C  979   0.941   7.852   5.110  0.9531  0.0935  0.0605
    8MOL0     C  980   0.812   7.907   5.176  0.5427  0.1570  0.5563
    8MOL0     C  981   0.684   7.832   5.143  0.8723 -0.2726  0.7528
    8MOL0     C  982   0.582   7.913   5.057 -0.1821  0.2481  0.6921
    8MOL0     N  983   0.609   7.900   4.911  0.2999 -0.0919  0.1309
    8MOL0     C  984   0.585   7.789   4.837 -1.2835 -0.1692 -0.1661
    8MOL0     C  985   0.639   7.820   4.713  0.0367  0.1546  0.2272
    8MOL0     C  986   0.651   7.735   4.591  0.1140 -0.3562 -0.7573
    8MOL0     C  987   0.776   7.644   4.591 -0.4307 -0.7736  0.5089
    8MOL0     C  988   0.890   7.742   4.555  0.3149  0.4720  0.0735
    8MOL0     C  989   1.008   7.660   4.489  1.3740  0.0111  0.6199
    8MOL0     O  990   0.970   7.587   4.376 -0.0699  0.6404  0.1758
    8MOL0     C  991   0.961   7.635   4.250 -0.3902 -0.2114 -0.1498
    8MOL0     C  992   0.991   7.766   4.206  0.3376  0.2916 -0.0344
    8MOL0     C  993   0.969   7.804   4.071 -1.1634 -0.1144  0.6763
    8MOL0     C  994   1.001   7.943   4.033 -0.0736 -0.2451  0.4882
    8MOL0     C  995   0.899   7.722   3.980  0.4938  0.7582 -1.1727
    8MOL0     C  996   0.852   7.763   3.848 -0.4433 -0.3383 -0.1472
    8MOL0     O  997   0.782   7.673   3.780 -0.4015 -0.3093  0.6035
    8MOL0     C  998   0.729   7.685   3.655 -0.3933 -0.1414 -0.7248
    8MOL0     C  999   0.811   7.692   3.539 -0.5470  1.0807  0.4853
    8MOL0     C 1000   0.756   7.699   3.406  0.2552 -0.6402 -0.0449
    8MOL0     C 1001   0.614   7.706   3.388  0.6891  0.1001  1.2257
    8MOL0     O 1002   0.569   7.728   3.256 -0.6231  0.2014  1.0334
    8MOL0     C 1003   0.450   7.801   3.235  0.3392  0.6353  0.5185
    8MOL0     C 1004   0.431   7.833   3.087 -0.2727 -1.5667 -0.1943
    8MOL0     C 1005   0.304   7.922   3.063 -0.4584 -0.4173  0.5149
    8MOL0     C 1006   0.336   8.076   3.046  0.7171 -0.7086 -1.0741
    8MOL0     C 1007   0.230   8.151   2.972 -0.0737 -0.0587  0.0498
    8MOL0     C 1008   0.091   8.127   3.032 -0.6616  0.1942  0.0450
    8MOL0     C 1009   0.071   8.208   3.158  0.6023  0.6634 -0.0887
    8MOL0     C 1010   0.054   8.110   3.276  1.0917  0.9462  0.3129
    8MOL0    Cl 1011  -0.013   8.214   3.403 -0.6320 -0.1397 -0.0482
    8MOL0     C 1012   0.532   7.697   3.498 -0.1826 -1.0406 -0.7007
    8MOL0     C 1013   0.589   7.684   3.626  0.1874  0.0689 -0.6262
    8MOL0     O 1014   0.882   7.870   3.800  0.9879 -0.6902 -0.7206
    8MOL0     C 1015   0.865   7.591   4.031 -0.0461 -1.1753 -0.0433
    8MOL0     C 1016   0.899   7.555   4.160 -0.5740  0.5031  0.0585
    8MOL0     N 1017   0.696   7.948   4.721  0.3674  0.5807  0.8408
    8MOL0     N 1018   0.679   7.994   4.843 -1.0131 -0.1632  0.7029
    8MOL0     C 1019   1.565   7.473   4.805  0.9543  0.1715 -0.7881
    8MOL0     C 1020   1.703   7.478   4.775 -0.4207  0.2591 -0.0038
    8MOL0     C 1021   2.128   7.596   4.816 -0.4442 -0.8199  0.3513
    8MOL0     C 1022   2.164   7.603   4.680 -0.1931  1.2215  0.0427
    8MOL0     C 1023   2.305   7.610   4.645  0.6378 -1.0600 -0.3844
    8MOL0     C 1024   2.404   7.621   4.745  0.3387 -0.5346 -0.2913
    8MOL0     O 1025   2.536   7.628   4.714 -0.1466  0.0551  0.2893
    8MOL0     C 1026   2.641   7.628   4.813 -0.5126 -0.5528 -0.5250
    8MOL0     C 1027   2.758   7.574   4.724 -0.2512  0.2620 -0.1349
    8MOL0     C 1028   2.811   7.668   4.609  0.2539  1.4154 -0.1155
    8MOL0     C 1029   2.859   7.798   4.658 -0.1029 -1.0068  0.7127
    8MOL0     C 1030   2.864   7.906   4.554  0.3640 -0.8653 -0.0894
    8MOL0     C 1031   2.859   8.000   4.477  0.3325  0.0843 -0.6681
    8MOL0     C 1032   2.360   7.631   4.877  0.3339 -0.4450 -0.1188
    8MOL0     C 1033   2.223   7.623   4.916 -0.2043  0.2075  0.6350
    8MOL0     C 1034   2.188   7.633   5.058 -0.7437 -0.2432 -0.0163
    8MOL0     H 1035   1.759   7.810   4.763  5.0029 -2.7781 -0.3365
    8MOL0     H 1036   1.506   7.806   4.823 -2.1911 -0.5721  0.3577
    8MOL0     H 1037   1.372   7.765   4.981  0.0444 -0.1947 -1.0018
    8MOL0     H 1038   1.366   7.608   5.070 -1.7187  1.7572  1.7609
    8MOL0     H 1039   1.119   7.722   4.949 -0.5972 -0.5684 -0.4492
    8MOL0     H 1040   1.141   7.558   5.017  1.8158 -0.5142  1.0186
    8MOL0     H 1041   1.193   7.634   5.232 -1.2904 -0.9901 -0.5906
    8MOL0     H 1042   1.194   7.810   5.192 -3.2579  1.9757 -0.9813
    8MOL0     H 1043   0.952   7.635   5.185  3.3908 -2.7754 -0.4335
    8MOL0     H 1044   1.017   7.758   5.298  1.9980 -2.4643 -0.2400
    8MOL0     H 1045   0.921   7.824   5.006 -0.5922  0.1751  0.3143
    8MOL0     H 1046   1.009   7.938   5.117 -0.1629  0.9977 -0.0422
    8MOL0     H 1047   0.831   7.916   5.284  1.2500  1.3002  0.3662
    8MOL0     H 1048   0.799   8.009   5.138  4.2319  0.3832 -0.5054
    8MOL0     H 1049   0.644   7.812   5.243 -0.7139  1.3235  0.4788
    8MOL0     H 1050   0.696   7.732   5.100  0.7224 -1.8493  4.0279
    8MOL0     H 1051   0.484   7.865   5.068  0.8471 -1.7348  1.9427
    8MOL0     H 1052   0.570   8.020   5.075 -0.6637  0.5762 -1.3635
    8MOL0     H 1053   0.534   7.697   4.866 -1.3650 -1.0772 -2.8901
    8MOL0     H 1054   0.647   7.808   4.510  2.6787  1.9252  0.9907
    8MOL0     H 1055   0.558   7.678   4.593 -0.2224  0.1977  1.1824
    8MOL0     H 1056   0.812   7.591   4.680  1.4485 -1.1269 -0.4071
    8MOL0     H 1057   0.760   7.563   4.519  2.1771 -2.4064  1.6129
    8MOL0     H 1058   0.867   7.829   4.493  1.4380  0.4074 -0.4551
    8MOL0     H 1059   0.915   7.778   4.655 -1.2396  0.0195  0.6533
    8MOL0     H 1060   1.083   7.728   4.447  0.7258  1.6052  1.9177
    8MOL0     H 1061   1.058   7.602   4.567  0.2773  1.1192  2.1942
    8MOL0     H 1062   1.040   7.842   4.267  3.9816 -0.1335 -2.1291
    8MOL0     H 1063   1.068   7.985   4.108 -1.2085  0.6817  1.0165
    8MOL0     H 1064   0.909   8.002   4.033  0.7329  1.0486  1.1308
    8MOL0     H 1065   1.050   7.954   3.936  1.9211 -0.6884  1.3816
    8MOL0     H 1066   0.918   7.696   3.551 -0.5441  0.8190  0.5663
    8MOL0     H 1067   0.820   7.707   3.319  1.1092  0.4197  0.6535
    8MOL0     H 1068   0.367   7.740   3.272 -1.0784  1.4626 -1.1402
    8MOL0     H 1069   0.441   7.900   3.279 -1.7408  0.4564  0.5851
    8MOL0     H 1070   0.517   7.888   3.050 -0.4798 -1.7215 -0.9193
    8MOL0     H 1071   0.422   7.732   3.044 -0.2788 -1.0707 -1.3905
    8MOL0     H 1072   0.245   7.915   3.155 -0.2724  1.1851  0.7769
    8MOL0     H 1073   0.240   7.892   2.979 -0.6288  0.6784  0.2378
    8MOL0     H 1074   0.426   8.108   2.993  0.4918  3.1738  0.5288
    8MOL0     H 1075   0.359   8.109   3.148  0.0440  0.9417 -1.4248
    8MOL0     H 1076   0.257   8.256   2.959 -1.9496  0.5949  0.9920
    8MOL0     H 1077   0.224   8.105   2.873  0.7921 -1.4249  0.6000
    8MOL0     H 1078   0.067   8.020   3.030  2.0074 -0.4886 -0.2762
    8MOL0     H 1079   0.023   8.171   2.959 -1.6184  2.8926  2.4128
    8MOL0     H 1080  -0.017   8.273   3.150  0.7283  0.7575 -0.7090
    8MOL0     H 1081   0.155   8.275   3.178 -0.1722  3.0313 -3.8546
    8MOL0     H 1082   0.148   8.061   3.303  0.3159 -0.5287  0.4386
    8MOL0     H 1083  -0.015   8.034   3.238  2.8248  0.6926 -2.6906
    8MOL0     H 1084   0.424   7.709   3.494 -0.5875 -2.1674  2.8319
    8MOL0     H 1085   0.534   7.700   3.718 -0.7498  0.2897 -1.2116
    8MOL0     H 1086   0.822   7.517   3.965  1.6102 -1.7933 -0.4650
    8MOL0     H 1087   0.879   7.453   4.194 -0.8966  1.3397  2.6137
    8MOL0     H 1088   1.513   7.380   4.826 -2.0336  2.1869  1.7385
    8MOL0     H 1089   1.746   7.382   4.747 -5.4772 -1.3554 -3.4709
    8MOL0     H 1090   2.099   7.597   4.594  0.4157  0.8908 -0.4038
    8MOL0     H 1091   2.325   7.611   4.538  1.1300 -1.2627 -0.2957
    8MOL0     H 1092   2.660   7.727   4.856 -1.3365 -0.8600  0.6055
    8MOL0     H 1093   2.627   7.566   4.902 -1.2763  0.6786  0.2423
    8MOL0     H 1094   2.736   7.480   4.673  1.5123 -1.1703  1.5642
    8MOL0     H 1095   2.838   7.558   4.797 -1.2226  0.8526  1.0823
    8MOL0     H 1096   2.895   7.613   4.566 -0.5645 -0.8943  1.0706
    8MOL0     H 1097   2.729   7.678   4.537 -0.7940 -0.3282  0.7587
    8MOL0     H 1098   2.960   7.789   4.700  1.5912 -1.1928 -2.9694
    8MOL0     H 1099   2.789   7.825   4.737 -1.5171 -0.1280 -0.7869
    8MOL0     H 1100   2.846   8.094   4.427 -0.9174  0.5338  0.4192
    8MOL0     H 1101   2.432   7.673   4.947 -0.2699 -1.6235  1.2557
    8MOL0     H 1102   2.260   7.698   5.108 -0.2935 -1.0576  0.4067
    8MOL0     H 1103   2.089   7.676   5.077 -1.2688 -0.9755 -0.9621
    8MOL0     H 1104   2.200   7.534   5.103  0.2790  0.1485  0.5880
    9MOL0     O 1105   0.766   7.971   0.119 -0.0552 -0.4162  0.9949
    9MOL0     C 1106   0.666   8.037   0.082 -0.0490 -0.9423  0.3073
    9MOL0     O 1107   0.561   7.982   0.011  0.3224  0.3664  0.3831
    9MOL0     C 1108   0.554   7.840   0.016  0.0739 -0.7946  0.4582
    9MOL0     C 1109   0.538   7.769   0.132 -0.0829  0.7248 -0.1737
    9MOL0     C 1110   0.525   7.628   0.124 -0.1871  1.1631  0.2553
    9MOL0     C 1111   0.510   7.563   0.005 -0.6583  0.1166  1.0418
    9MOL0     O 1112   0.495   7.429  -0.025  1.0496 -0.3424 -0.6476
    9MOL0     C 1113   0.484   7.332   0.081 -0.3970  0.2296  0.0107
    9MOL0     C 1114   0.445   7.206   0.016  1.5082  0.9509 -0.3719
    9MOL0     C 1115   0.544   7.168  -0.093 -0.0087  0.0375 -0.2396
    9MOL0     C 1116   0.520   7.025  -0.129 -0.4199 -0.3715  0.2557
    9MOL0     C 1117   0.624   6.991  -0.231  0.6841 -0.6802  0.1412
    9MOL0     C 1118   0.637   6.841  -0.253  0.1473 -0.6596 -0.4674
    9MOL0     C 1119   0.755   6.789  -0.327  0.8331  0.6892 -0.8461
    9MOL0     C 1120   0.753   6.818  -0.476  0.4957 -0.3280 -0.3121
    9MOL0     N 1121   0.859   6.751  -0.560 -0.0899 -0.4110 -0.0086
    9MOL0     C 1122   0.891   6.621  -0.561 -0.9431 -0.2619 -1.8499
    9MOL0     C 1123   1.005   6.603  -0.623 -0.7004 -0.4204  0.6845
    9MOL0     C 1124   1.092   6.488  -0.649  0.0863  0.0839  0.3545
    9MOL0     C 1125   1.021   6.354  -0.669 -0.6505  0.1633  1.3916
    9MOL0     C 1126   1.039   6.279  -0.532  0.1190 -1.4682  0.3416
    9MOL0     C 1127   0.962   6.152  -0.505 -1.0263  0.0557 -0.3256
    9MOL0     O 1128   0.819   6.167  -0.539  0.1099 -0.4717  0.4747
    9MOL0     C 1129   0.739   6.232  -0.457 -0.0206 -0.2777 -0.4050
    9MOL0     C 1130   0.668   6.349  -0.503  0.2718  0.9016 -0.2956
    9MOL0     C 1131   0.577   6.413  -0.421 -0.2288  0.3225  0.3729
    9MOL0     C 1132   0.494   6.527  -0.474 -0.5232  0.1044  0.2943
    9MOL0     C 1133   0.549   6.362  -0.292 -0.3279  0.6165 -0.4128
    9MOL0     C 1134   0.439   6.431  -0.214 -0.1705 -0.1961 -1.2459
    9MOL0     O 1135   0.358   6.339  -0.148  0.3676 -0.5036  0.1708
    9MOL0     C 1136   0.255   6.378  -0.071  0.8142  1.2087  0.0292
    9MOL0     C 1137   0.195   6.513  -0.083  0.1441 -0.1569 -0.5145
    9MOL0     C 1138   0.086   6.545   0.002 -0.2668  0.0774  0.1349
    9MOL0     C 1139   0.028   6.443   0.080  0.3958  0.6506 -0.4803
    9MOL0     O 1140  -0.088   6.456   0.158 -0.0180  0.1817  0.0097
    9MOL0     C 1141  -0.185   6.552   0.100 -1.2069 -0.2227  0.2985
    9MOL0     C 1142  -0.288   6.459   0.025  0.7066 -0.5846 -0.6823
    9MOL0     C 1143  -0.236   6.386  -0.109  0.1540 -0.2374 -0.1023
    9MOL0     C 1144  -0.229   6.476  -0.235 -0.5793  0.0453  0.0001
    9MOL0     C 1145  -0.135   6.407  -0.335 -0.9147  0.1759 -0.0716
    9MOL0     C 1146  -0.133   6.480  -0.465 -0.3587 -0.3160  0.1028
    9MOL0     C 1147  -0.020   6.456  -0.564 -0.9176 -0.4629  0.3115
    9MOL0     C 1148  -0.060   6.358  -0.671  0.3963  0.3060  0.1921
    9MOL0    Cl 1149   0.080   6.375  -0.795  0.1086  0.5217  0.2328
    9MOL0     C 1150   0.078   6.310   0.081  0.9329 -0.2523  0.4780
    9MOL0     C 1151   0.191   6.282   0.005 -0.7279  0.0645 -0.5674
    9MOL0     O 1152   0.457   6.552  -0.177 -0.0109  0.0487  0.2937
    9MOL0     C 1153   0.621   6.248  -0.247 -0.9388 -0.5780 -0.2884
    9MOL0     C 1154   0.717   6.188  -0.329  0.1365 -0.8354  0.2526
    9MOL0     N 1155   1.045   6.727  -0.665  0.6757 -0.1065  0.9431
    9MOL0     N 1156   0.963   6.817  -0.627 -0.6898 -0.8879 -0.2993
    9MOL0     C 1157   0.528   7.642  -0.112  1.0157 -0.0986  0.2331
    9MOL0     C 1158   0.547   7.783  -0.099 -0.0022  0.1843  1.4519
    9MOL0     C 1159   0.669   8.187   0.091  0.4616  0.0704  0.1414
    9MOL0     C 1160   0.585   8.262   0.007  0.8320  0.3594  0.4527
    9MOL0     C 1161   0.596   8.400  -0.011  0.2729 -0.0149  0.4620
    9MOL0     C 1162   0.690   8.472   0.073  0.1021 -0.2106 -0.1231
    9MOL0     O 1163   0.715   8.601   0.054 -0.4854  0.2345 -0.1307
    9MOL0     C 1164   0.607   8.690   0.017 -0.0265 -0.2140  1.1162
    9MOL0     C 1165   0.501   8.707   0.119  1.2756  1.2696  0.2018
    9MOL0     C 1166   0.378   8.798   0.075  0.5634  0.3160 -0.3326
    9MOL0     C 1167   0.264   8.813   0.178 -0.2220  0.6739 -1.1024
    9MOL0     C 1168   0.324   8.908   0.271  0.0056  0.0505 -0.0807
    9MOL0     C 1169   0.379   8.992   0.348 -0.2685  0.4856 -0.4864
    9MOL0     C 1170   0.768   8.400   0.157 -0.3914  0.4844 -0.9565
    9MOL0     C 1171   0.758   8.259   0.176 -0.0913 -0.0634  0.1349
    9MOL0     C 1172   0.854   8.196   0.273 -0.0389  0.1460  0.3910
    9MOL0     H 1173   0.550   7.822   0.226 -0.9369 -0.5051  0.6567
    9MOL0     H 1174   0.518   7.577   0.220 -0.6623  1.7925  0.5612
    9MOL0     H 1175   0.416   7.374   0.156 -3.3986 -0.5005 -2.0995
    9MOL0     H 1176   0.580   7.318   0.130  1.4576  1.8826 -2.8701
    9MOL0     H 1177   0.429   7.140   0.102  1.7396  3.4712  1.7292
    9MOL0     H 1178   0.350   7.216  -0.037  1.1547 -2.8540 -0.7369
    9MOL0     H 1179   0.521   7.228  -0.182 -2.3854 -2.1060 -1.1936
    9MOL0     H 1180   0.647   7.183  -0.060 -0.3248  1.9507 -0.0281
    9MOL0     H 1181   0.525   6.960  -0.041  0.9242  3.9356  3.7093
    9MOL0     H 1182   0.416   7.020  -0.165 -1.9398  1.1431  3.9728
    9MOL0     H 1183   0.723   7.021  -0.195 -1.0504  1.9422  3.3059
    9MOL0     H 1184   0.592   7.050  -0.317  0.7501 -1.3132 -0.3252
    9MOL0     H 1185   0.628   6.796  -0.153 -0.3699  0.0492 -0.1931
    9MOL0     H 1186   0.550   6.790  -0.296 -1.8925  1.8441  0.4630
    9MOL0     H 1187   0.753   6.679  -0.319 -2.2400  0.5487 -2.1523
    9MOL0     H 1188   0.847   6.830  -0.285  0.5491  0.6169 -0.1477
    9MOL0     H 1189   0.658   6.787  -0.521  0.6117 -3.3159  1.2388
    9MOL0     H 1190   0.770   6.925  -0.492  3.0443 -0.5298  0.5659
    9MOL0     H 1191   0.839   6.549  -0.500  0.9298 -0.3887 -0.3240
    9MOL0     H 1192   1.154   6.482  -0.558 -0.9624 -0.8369  1.0364
    9MOL0     H 1193   1.151   6.502  -0.739 -0.8175 -2.6784 -0.7487
    9MOL0     H 1194   0.918   6.374  -0.701  0.6830  0.5499 -3.3270
    9MOL0     H 1195   1.086   6.297  -0.736 -1.2118  0.5581  0.4901
    9MOL0     H 1196   1.146   6.259  -0.536  1.2516  3.3717  1.0460
    9MOL0     H 1197   1.021   6.341  -0.443  3.2331 -1.9642  1.4269
    9MOL0     H 1198   1.012   6.083  -0.573 -2.3812 -1.3249  0.0329
    9MOL0     H 1199   0.980   6.125  -0.400 -0.2434  2.3287  0.1818
    9MOL0     H 1200   0.692   6.380  -0.604  3.1728 -1.7698 -0.6139
    9MOL0     H 1201   0.471   6.615  -0.413 -0.8126 -0.1758  0.5927
    9MOL0     H 1202   0.401   6.476  -0.499 -0.0712 -0.9388  0.6575
    9MOL0     H 1203   0.540   6.566  -0.565 -1.3394  0.4408  0.0219
    9MOL0     H 1204   0.236   6.593  -0.143 -1.5191  2.7256  1.8852
    9MOL0     H 1205   0.060   6.647   0.026 -0.5207  0.4470 -1.5367
    9MOL0     H 1206  -0.249   6.600   0.175 -1.6615 -0.2686 -0.0576
    9MOL0     H 1207  -0.133   6.630   0.043 -0.0359 -1.4953 -0.4406
    9MOL0     H 1208  -0.311   6.376   0.092  1.5283 -1.3233 -1.2884
    9MOL0     H 1209  -0.370   6.530   0.005 -1.1547 -2.4370 -0.0095
    9MOL0     H 1210  -0.288   6.291  -0.119  3.0941 -2.2125  1.7436
    9MOL0     H 1211  -0.135   6.350  -0.088  0.5855  0.4331 -0.9708
    9MOL0     H 1212  -0.183   6.567  -0.198 -1.5361 -0.4828  2.7083
    9MOL0     H 1213  -0.328   6.487  -0.281 -1.8445 -2.6483  1.8484
    9MOL0     H 1214  -0.032   6.412  -0.299 -1.4391  2.6642  1.3043
    9MOL0     H 1215  -0.165   6.304  -0.357 -1.0064 -0.0624  1.1026
    9MOL0     H 1216  -0.124   6.582  -0.425  1.7980 -1.5065  3.0506
    9MOL0     H 1217  -0.228   6.469  -0.517 -0.4916  2.3364 -0.3594
    9MOL0     H 1218   0.076   6.431  -0.518 -0.7003  1.9943  1.3655
    9MOL0     H 1219   0.006   6.551  -0.612 -0.3745 -0.3077  0.8981
    9MOL0     H 1220  -0.154   6.385  -0.720  0.9888  0.6822 -0.7810
    9MOL0     H 1221  -0.077   6.255  -0.640 -0.7427  0.5847  0.5234
    9MOL0     H 1222   0.016   6.237   0.132  0.0392 -0.4759 -0.8641
    9MOL0     H 1223   0.230   6.182  -0.004 -2.6148 -0.9037  1.0361
    9MOL0     H 1224   0.608   6.212  -0.145  1.1917  0.6275  0.4669
    9MOL0     H 1225   0.756   6.096  -0.288 -0.9408  0.3926  4.4496
    9MOL0     H 1226   0.513   7.595  -0.209  2.2560  0.4645 -0.2561
    9MOL0     H 1227   0.543   7.850  -0.185 -1.4056 -2.1959 -0.4900
    9MOL0     H 1228   0.510   8.218  -0.057 -1.9017 -0.1236  3.7250
    9MOL0     H 1229   0.524   8.449  -0.075 -1.7018  0.2179  2.7388
    9MOL0     H 1230   0.653   8.788   0.003  1.2260 -0.6428  2.0198
    9MOL0     H 1231   0.560   8.670  -0.080 -0.4806  2.6053  0.6601
    9MOL0     H 1232   0.539   8.744   0.215  0.0667 -0.7104  1.5214
    9MOL0     H 1233   0.467   8.605   0.138  1.6170  0.7990 -1.5166
    9MOL0     H 1234   0.423   8.895   0.049 -0.4950  0.0989 -3.2522
    9MOL0     H 1235   0.336   8.759  -0.017 -0.7295  2.5323 -0.7614
    9MOL0     H 1236   0.247   8.711   0.216  3.7613  0.5698  0.9594
    9MOL0     H 1237   0.174   8.850   0.129 -2.3503 -1.8382  0.6077
    9MOL0     H 1238   0.442   9.057   0.406  0.5883 -1.2520  0.6436
    9MOL0     H 1239   0.859   8.439   0.200 -0.5559  0.2940 -0.4348
    9MOL0     H 1240   0.953   8.172   0.234 -1.1336 -2.8751 -0.8643
    9MOL0     H 1241   0.868   8.269   0.353 -0.5526  1.0486 -0.3108
    9MOL0     H 1242   0.812   8.104   0.315 -0.5553 -0.8754 -2.1819
   10MOL0     O 1243   8.865   6.603  10.459  0.2274 -0.5745  0.0888
   10MOL0     C 1244   8.932   6.546  10.374 -0.2360 -0.2477  0.5152
   10MOL0     O 1245   9.002   6.614  10.279 -0.5808 -0.2720  0.3156
   10MOL0     C 1246   9.005   6.751  10.282 -0.2526 -0.1746 -0.5787
   10MOL0     C 1247   9.061   6.819  10.392  0.8059 -0.3338  0.1082
   10MOL0     C 1248   9.055   6.958  10.385 -0.4257 -0.0663 -0.2879
   10MOL0     C 1249   8.999   7.033  10.282  1.0039 -1.0879  0.3366
   10MOL0     O 1250   8.988   7.173  10.276 -0.2725  0.3281 -0.3168
   10MOL0     C 1251   8.920   7.223  10.390 -0.5727 -0.5849 -0.6461
   10MOL0     C 1252   8.888   7.368  10.376  0.1282 -0.6877 -0.9284
   10MOL0     C 1253   8.841   7.415  10.233  0.0429 -0.2652  0.4646
   10MOL0     C 1254   8.795   7.566  10.210  0.5975 -0.4185  0.2541
   10MOL0     C 1255   8.734   7.594  10.070  0.2270 -0.0723  0.8720
   10MOL0     C 1256   8.676   7.733  10.084  0.7412 -0.4130 -0.8621
   10MOL0     C 1257   8.617   7.789   9.953  0.5793 -0.2277 -1.5321
   10MOL0     C 1258   8.500   7.699   9.917 -0.2383  0.0388  0.7132
   10MOL0     N 1259   8.438   7.745   9.795  0.2657 -0.4933  0.5377
   10MOL0     C 1260   8.481   7.723   9.661 -0.0454  0.5773 -0.2417
   10MOL0     C 1261   8.428   7.823   9.594  0.5431 -0.8015  0.1591
   10MOL0     C 1262   8.434   7.867   9.446 -0.1627  0.0460 -0.0961
   10MOL0     C 1263   8.454   7.745   9.354  0.5411 -0.9236  0.2204
   10MOL0     C 1264   8.427   7.789   9.206  0.3843 -0.0309 -0.5133
   10MOL0     C 1265   8.516   7.732   9.102  0.1908 -0.0347  0.1860
   10MOL0     O 1266   8.646   7.779   9.121 -0.0693 -0.4850  0.5520
   10MOL0     C 1267   8.686   7.881   9.035 -0.9420 -0.3842  0.4143
   10MOL0     C 1268   8.622   7.958   8.934  0.7001 -0.6288  0.6008
   10MOL0     C 1269   8.695   8.055   8.861 -0.5619  0.2628  0.2150
   10MOL0     C 1270   8.607   8.143   8.771 -0.2501 -0.0277  0.4189
   10MOL0     C 1271   8.827   8.078   8.890  0.2117 -0.0067  0.3019
   10MOL0     C 1272   8.900   8.173   8.809  0.5008  0.2265  0.2333
   10MOL0     O 1273   8.910   8.300   8.865 -0.1395 -0.2735 -0.2385
   10MOL0     C 1274   8.998   8.383   8.803  1.0446  0.8278 -0.7704
   10MOL0     C 1275   8.968   8.453   8.690  0.7227 -0.3661 -0.0289
   10MOL0     C 1276   9.065   8.506   8.598  0.8969  0.3268 -0.9366
   10MOL0     C 1277   9.198   8.496   8.642  0.9836  0.1427  0.3113
   10MOL0     O 1278   9.284   8.534   8.549  0.1902  1.5482 -0.2726
   10MOL0     C 1279   9.422   8.542   8.579 -0.7857 -0.5095  0.3754
   10MOL0     C 1280   9.490   8.621   8.462 -0.4826 -0.6592 -0.1173
   10MOL0     C 1281   9.646   8.634   8.472  0.0873 -0.0345 -0.4362
   10MOL0     C 1282   9.693   8.734   8.582 -0.8143  0.0921  0.4139
   10MOL0     C 1283   9.835   8.725   8.622  0.1485  0.0216  0.5888
   10MOL0     C 1284   9.853   8.590   8.696  0.6071 -1.4793 -0.6503
   10MOL0     C 1285  10.006   8.574   8.705 -1.0874 -0.2705  0.1732
   10MOL0     C 1286  10.076   8.443   8.769  0.6723 -0.1705 -0.4445
   10MOL0    Cl 1287   9.984   8.415   8.914  0.3718 -0.0149  0.0711
   10MOL0     C 1288   9.237   8.439   8.757  1.2309 -1.0352 -0.4867
   10MOL0     C 1289   9.132   8.384   8.835 -0.6483  0.4760  0.5828
   10MOL0     O 1290   8.930   8.138   8.700  0.9323  0.3653  0.2754
   10MOL0     C 1291   8.890   8.014   8.997  0.6573  0.0122  0.0278
   10MOL0     C 1292   8.813   7.920   9.069 -0.5187 -0.3684 -1.4324
   10MOL0     N 1293   8.367   7.913   9.679 -0.2159  0.5246 -0.1589
   10MOL0     N 1294   8.365   7.867   9.798  0.3878  0.8758 -0.5770
   10MOL0     C 1295   8.942   6.962  10.175  0.4136 -1.3089 -0.4404
   10MOL0     C 1296   8.948   6.823  10.176 -0.6531 -0.2828 -0.8036
   10MOL0     C 1297   8.940   6.397  10.371  0.0408 -1.1127 -0.1002
   10MOL0     C 1298   9.054   6.339  10.313 -0.5899 -0.5691  0.4738
   10MOL0     C 1299   9.074   6.204  10.309 -0.0097 -0.4839  0.1554
   10MOL0     C 1300   8.976   6.127  10.357  0.6595  0.1489  0.3776
   10MOL0     O 1301   8.992   5.989  10.345  0.0064  0.3256  0.2010
   10MOL0     C 1302   8.933   5.895  10.440 -0.0353  0.4516 -0.6691
   10MOL0     C 1303   9.027   5.782  10.485 -0.2792  0.2409  0.4726
   10MOL0     C 1304   9.032   5.679  10.371 -0.4098  0.5230  0.6270
   10MOL0     C 1305   9.125   5.569  10.402 -0.8837  0.5327 -0.7182
   10MOL0     C 1306   9.078   5.487  10.516 -0.2864 -0.7427 -0.2308
   10MOL0     C 1307   9.040   5.421  10.608  0.0066 -1.0972 -0.5437
   10MOL0     C 1308   8.862   6.171  10.413 -0.4664  0.0368  0.7461
   10MOL0     C 1309   8.836   6.307  10.425 -0.3919 -1.2698 -0.0326
   10MOL0     C 1310   8.714   6.355  10.486 -0.1884 -0.1801 -0.1871
   10MOL0     H 1311   9.116   6.766  10.469  0.9065 -0.0983  0.1978
   10MOL0     H 1312   9.085   7.018  10.470 -1.3230  1.5208 -1.0449
   10MOL0     H 1313   8.970   7.206  10.486 -2.4007  3.4324  1.2356
   10MOL0     H 1314   8.826   7.168  10.402 -1.3224  0.0963 -2.9680
   10MOL0     H 1315   8.807   7.387  10.447  0.6001  2.4945 -1.0949
   10MOL0     H 1316   8.969   7.434  10.410  0.1112 -2.1581  2.2813
   10MOL0     H 1317   8.917   7.388  10.160  0.1551 -2.2566  1.2522
   10MOL0     H 1318   8.754   7.352  10.211 -0.0677  0.0928 -0.1423
   10MOL0     H 1319   8.712   7.586  10.278  1.1330 -3.1430  1.8510
   10MOL0     H 1320   8.880   7.633  10.224  0.2015  0.2132 -0.3164
   10MOL0     H 1321   8.651   7.525  10.054  1.2761 -1.0088 -0.9287
   10MOL0     H 1322   8.807   7.582   9.989 -1.3633 -4.2898 -0.1921
   10MOL0     H 1323   8.598   7.736  10.160 -0.2287 -1.0327 -1.8110
   10MOL0     H 1324   8.745   7.811  10.117 -0.3964 -0.5168  2.1040
   10MOL0     H 1325   8.686   7.809   9.870  1.3223 -2.2450 -1.4415
   10MOL0     H 1326   8.574   7.889   9.966 -1.5091 -0.9670 -2.3268
   10MOL0     H 1327   8.535   7.596   9.907  1.3788  0.4405  1.7673
   10MOL0     H 1328   8.422   7.694   9.994 -2.4262  2.9686 -1.0709
   10MOL0     H 1329   8.542   7.634   9.646  0.4044  0.7456  0.5887
   10MOL0     H 1330   8.513   7.940   9.427 -0.8565  0.1878 -2.8680
   10MOL0     H 1331   8.347   7.926   9.416  1.4984  2.4720 -0.4499
   10MOL0     H 1332   8.549   7.694   9.370 -0.0299 -1.2224  3.2029
   10MOL0     H 1333   8.378   7.672   9.380  2.3741 -3.2943 -0.7308
   10MOL0     H 1334   8.327   7.757   9.176 -0.2376  0.9835  0.3968
   10MOL0     H 1335   8.436   7.898   9.194  0.9296 -0.0795 -0.5996
   10MOL0     H 1336   8.516   7.623   9.098 -3.0386 -0.2503  2.3006
   10MOL0     H 1337   8.478   7.756   9.002 -0.2770 -2.9244 -0.4180
   10MOL0     H 1338   8.514   7.960   8.922  0.9156  2.3415 -1.9476
   10MOL0     H 1339   8.567   8.219   8.838 -0.1213 -1.0088  1.6379
   10MOL0     H 1340   8.524   8.083   8.732 -0.9095  0.4110  1.1149
   10MOL0     H 1341   8.659   8.207   8.699 -0.9454  0.9323  0.7451
   10MOL0     H 1342   8.862   8.456   8.667  0.4390  1.7782  1.2066
   10MOL0     H 1343   9.054   8.558   8.503 -0.8048 -0.0653 -0.9866
   10MOL0     H 1344   9.437   8.602   8.669 -0.7385  0.1077 -0.0372
   10MOL0     H 1345   9.458   8.439   8.583 -0.0896 -0.4981 -2.8266
   10MOL0     H 1346   9.465   8.562   8.374 -0.5464 -0.1940 -0.4126
   10MOL0     H 1347   9.455   8.725   8.455 -2.0465 -1.0490  1.1958
   10MOL0     H 1348   9.686   8.661   8.373  1.8623 -0.3319  0.1594
   10MOL0     H 1349   9.683   8.533   8.492  1.1157  0.2638 -0.7644
   10MOL0     H 1350   9.628   8.734   8.670 -0.0028 -1.0244  1.0293
   10MOL0     H 1351   9.691   8.835   8.539  5.9309  0.6726  0.3868
   10MOL0     H 1352   9.889   8.724   8.527 -0.6667  0.3564  0.1092
   10MOL0     H 1353   9.864   8.810   8.684  2.0940 -0.3823  0.2845
   10MOL0     H 1354   9.807   8.517   8.629 -0.5377  0.3751 -2.0115
   10MOL0     H 1355   9.794   8.563   8.784 -1.1940 -1.9601 -1.9564
   10MOL0     H 1356  10.038   8.663   8.760  0.2035 -1.0692  0.7701
   10MOL0     H 1357  10.053   8.588   8.608  0.6048 -0.5703  0.9087
   10MOL0     H 1358  10.184   8.461   8.765  0.5293  0.5511 -1.7890
   10MOL0     H 1359  10.064   8.357   8.703 -1.8812 -0.4659  0.2991
   10MOL0     H 1360   9.341   8.436   8.786  1.2584  1.3720 -0.0599
   10MOL0     H 1361   9.162   8.330   8.924  1.4742  0.8626  0.1508
   10MOL0     H 1362   8.995   8.038   9.011  0.1702  1.3011  1.8103
   10MOL0     H 1363   8.863   7.866   9.149  0.8336  2.3556 -0.2901
   10MOL0     H 1364   8.907   7.002  10.080  4.0843 -2.9732 -2.7033
   10MOL0     H 1365   8.911   6.777  10.085  1.9518 -0.2548 -1.9727
   10MOL0     H 1366   9.126   6.398  10.258 -0.7463 -0.0857  0.7763
   10MOL0     H 1367   9.163   6.155  10.271 -0.4364 -0.1436 -1.3403
   10MOL0     H 1368   8.903   5.948  10.531 -0.6469 -1.9897  0.6562
   10MOL0     H 1369   8.839   5.853  10.403 -0.1872  1.0256 -0.9377
   10MOL0     H 1370   8.986   5.733  10.574 -1.0087 -0.9599 -0.5042
   10MOL0     H 1371   9.131   5.808  10.504 -0.0801 -2.1596  3.5594
   10MOL0     H 1372   8.930   5.641  10.361  0.4453 -1.5060 -0.8212
   10MOL0     H 1373   9.056   5.722  10.273  3.1632 -0.6114  0.8640
   10MOL0     H 1374   9.228   5.603  10.416 -0.2610 -1.1423 -0.9446
   10MOL0     H 1375   9.132   5.500  10.318 -1.8063  0.0478 -0.4163
   10MOL0     H 1376   9.011   5.361  10.692 -1.6661 -1.4401 -1.3151
   10MOL0     H 1377   8.778   6.104  10.432 -0.5455  0.0697  0.5091
   10MOL0     H 1378   8.644   6.271  10.492 -1.8913  1.0365 -1.8051
   10MOL0     H 1379   8.729   6.411  10.579 -1.0560  0.6505 -0.5332
   10MOL0     H 1380   8.671   6.426  10.415 -3.4386  1.3813  3.0690
   11MOL0     O 1381   3.828   5.841   1.507 -0.4252  0.0517  1.0540
   11MOL0     C 1382   3.741   5.759   1.504  0.4869  0.3671 -0.8228
   11MOL0     O 1383   3.628   5.768   1.574  0.0074  0.5477 -0.0504
   11MOL0     C 1384   3.588   5.884   1.619  0.5538 -0.3788 -0.5170
   11MOL0     C 1385   3.533   5.886   1.746  0.1876  0.9875  0.2243
   11MOL0     C 1386   3.492   6.004   1.798 -0.6510 -0.3621 -1.0524
   11MOL0     C 1387   3.510   6.132   1.747  0.0311 -0.5880 -1.0217
   11MOL0     O 1388   3.442   6.238   1.799  0.0966  0.4362  0.2064
   11MOL0     C 1389   3.506   6.366   1.808  0.2329 -1.1159  0.2479
   11MOL0     C 1390   3.603   6.380   1.921  0.8855  0.5777 -0.0031
   11MOL0     C 1391   3.691   6.506   1.910  0.1918 -0.5240 -0.3393
   11MOL0     C 1392   3.601   6.632   1.914  0.8846 -0.3165  1.0548
   11MOL0     C 1393   3.675   6.763   1.925  0.2405 -0.5892 -0.5139
   11MOL0     C 1394   3.567   6.866   1.923  0.1568 -0.1188 -0.2564
   11MOL0     C 1395   3.611   7.013   1.953 -0.7066 -0.5828  0.2706
   11MOL0     C 1396   3.692   7.016   2.085  0.1307 -0.8580  0.6366
   11MOL0     N 1397   3.711   7.156   2.130  0.0306 -0.4273  0.8502
   11MOL0     C 1398   3.636   7.217   2.226  1.0540  0.7962  0.9171
   11MOL0     C 1399   3.692   7.340   2.249 -0.5196 -1.2566 -0.5085
   11MOL0     C 1400   3.669   7.452   2.347  0.5818 -0.5581  0.2279
   11MOL0     C 1401   3.591   7.576   2.283 -0.7053  0.6917 -0.2153
   11MOL0     C 1402   3.683   7.700   2.261 -1.4134  0.5252  0.2029
   11MOL0     C 1403   3.614   7.803   2.170 -0.2378  0.8843  0.2930
   11MOL0     O 1404   3.619   7.742   2.042  0.1183 -0.3051 -0.2882
   11MOL0     C 1405   3.542   7.789   1.942  0.5341 -1.2387  0.3777
   11MOL0     C 1406   3.415   7.850   1.957  0.4918  0.1692  0.4838
   11MOL0     C 1407   3.342   7.910   1.850 -0.3416 -0.9550  0.2328
   11MOL0     C 1408   3.199   7.954   1.891  0.3891  0.1363 -1.0621
   11MOL0     C 1409   3.404   7.914   1.724 -1.2794 -0.3854 -0.7337
   11MOL0     C 1410   3.362   8.008   1.613 -0.1247 -0.3637 -0.1622
   11MOL0     O 1411   3.397   7.967   1.485  0.2040 -0.6779  0.2656
   11MOL0     C 1412   3.414   8.066   1.392  1.2269  0.1207  0.8007
   11MOL0     C 1413   3.440   8.198   1.420 -0.6222 -0.9161  0.3274
   11MOL0     C 1414   3.452   8.296   1.328  0.1409  0.1374 -0.0735
   11MOL0     C 1415   3.434   8.266   1.192 -0.7456  0.6123 -0.0676
   11MOL0     O 1416   3.442   8.371   1.105 -0.5808 -0.5916 -0.2458
   11MOL0     C 1417   3.399   8.338   0.972  0.1966 -1.1488 -0.9997
   11MOL0     C 1418   3.392   8.478   0.905 -0.1292 -1.0421  0.0277
   11MOL0     C 1419   3.332   8.472   0.767 -0.8026 -0.7177  0.0712
   11MOL0     C 1420   3.358   8.605   0.683  0.4938 -0.3360 -0.8912
   11MOL0     C 1421   3.315   8.586   0.544 -0.2640 -0.9145  0.8116
   11MOL0     C 1422   3.314   8.711   0.458  0.0716 -0.2277  0.1381
   11MOL0     C 1423   3.233   8.677   0.333 -1.0592 -0.1329 -0.0471
   11MOL0     C 1424   3.197   8.811   0.276  0.4552  0.5365 -1.0775
   11MOL0    Cl 1425   3.060   8.875   0.376 -0.1089  0.3401 -0.1319
   11MOL0     C 1426   3.416   8.125   1.159  0.3286 -0.0628  0.4369
   11MOL0     C 1427   3.412   8.035   1.255  1.0358 -0.1093 -0.4558
   11MOL0     O 1428   3.294   8.102   1.647 -0.3862 -0.4205  0.5693
   11MOL0     C 1429   3.532   7.858   1.711  0.0776  0.1073  0.3944
   11MOL0     C 1430   3.600   7.797   1.815  0.5047 -0.0207  0.4603
   11MOL0     N 1431   3.802   7.347   2.167  0.1441  0.1115 -1.1335
   11MOL0     N 1432   3.826   7.240   2.109  1.5048  0.9414 -0.0521
   11MOL0     C 1433   3.576   6.134   1.620 -0.1594  0.5666 -1.0562
   11MOL0     C 1434   3.612   6.012   1.558  0.2294 -0.8554 -0.7300
   11MOL0     C 1435   3.767   5.627   1.457  0.5562 -0.0277 -0.5525
   11MOL0     C 1436   3.776   5.520   1.548 -0.7209  0.4982 -0.2718
   11MOL0     C 1437   3.834   5.397   1.506  0.4425 -0.3108  0.7645
   11MOL0     C 1438   3.858   5.374   1.368 -1.0620 -0.7180  0.0391
   11MOL0     O 1439   3.894   5.247   1.327  0.6620 -1.3653  0.8336
   11MOL0     C 1440   3.935   5.228   1.189 -0.6683  0.4858 -0.9120
   11MOL0     C 1441   4.034   5.117   1.189  0.3540 -0.4354 -0.4937
   11MOL0     C 1442   3.996   5.007   1.291 -0.0294  0.3177 -0.3637
   11MOL0     C 1443   3.858   4.943   1.254  0.0499 -1.2070 -0.4584
   11MOL0     C 1444   3.846   4.800   1.280  1.1144 -0.8733  0.6892
   11MOL0     C 1445   3.855   4.682   1.311 -0.5371  0.0460  0.0849
   11MOL0     C 1446   3.826   5.479   1.280  0.0391 -0.3086  0.1135
   11MOL0     C 1447   3.792   5.607   1.323 -0.7592 -0.5631 -0.6753
   11MOL0     C 1448   3.800   5.716   1.222  0.7473 -1.0311 -0.2624
   11MOL0     H 1449   3.501   5.793   1.791  0.2020 -1.1496 -3.7043
   11MOL0     H 1450   3.421   6.002   1.880  2.1842  2.6219  1.7464
   11MOL0     H 1451   3.437   6.447   1.831  0.5447 -1.0590  1.0017
   11MOL0     H 1452   3.560   6.386   1.715 -1.6129  0.7148 -0.4924
   11MOL0     H 1453   3.550   6.372   2.016 -2.5923  1.4293 -1.7249
   11MOL0     H 1454   3.668   6.292   1.911  1.6662  0.9645  1.4309
   11MOL0     H 1455   3.759   6.505   1.996  1.4053 -2.1889 -1.2529
   11MOL0     H 1456   3.747   6.497   1.816  3.4226 -2.5692  1.5874
   11MOL0     H 1457   3.532   6.642   1.830  1.9110 -0.8154  0.1282
   11MOL0     H 1458   3.530   6.634   1.997  2.9372  3.6932  2.9762
   11MOL0     H 1459   3.732   6.794   1.837 -2.6115  2.1233 -1.5973
   11MOL0     H 1460   3.732   6.779   2.017 -1.5241  2.8274  0.1107
   11MOL0     H 1461   3.516   6.853   1.827  2.9915  1.1339 -2.0879
   11MOL0     H 1462   3.501   6.844   2.007  0.7805  0.9123  0.5262
   11MOL0     H 1463   3.533   7.089   1.949  1.0556  1.3696  1.2173
   11MOL0     H 1464   3.677   7.047   1.873 -0.8643  0.2568  0.4952
   11MOL0     H 1465   3.633   6.967   2.164 -0.7277 -2.4025 -0.9056
   11MOL0     H 1466   3.789   6.967   2.074  1.3492  1.7613 -1.5079
   11MOL0     H 1467   3.550   7.183   2.281  0.8423  1.4706  1.0165
   11MOL0     H 1468   3.766   7.495   2.372 -1.2557  4.0054  0.5360
   11MOL0     H 1469   3.624   7.398   2.431 -0.2520  1.1020  0.8920
   11MOL0     H 1470   3.542   7.545   2.191 -0.8458 -1.7168  0.6006
   11MOL0     H 1471   3.509   7.605   2.349 -2.9532 -2.3051 -1.4622
   11MOL0     H 1472   3.712   7.742   2.358 -0.2589 -0.4177  0.2900
   11MOL0     H 1473   3.777   7.673   2.213  0.3546  2.2984  2.4700
   11MOL0     H 1474   3.508   7.819   2.193 -0.4048  1.0159 -0.5328
   11MOL0     H 1475   3.658   7.904   2.173  0.6417  0.4862  1.3257
   11MOL0     H 1476   3.365   7.826   2.051 -0.6374  1.7535  0.3291
   11MOL0     H 1477   3.151   8.028   1.827 -2.4171  2.2957  3.0584
   11MOL0     H 1478   3.189   8.004   1.988  0.0570  0.6084 -1.3359
   11MOL0     H 1479   3.132   7.868   1.878 -0.7882  0.7895  0.3652
   11MOL0     H 1480   3.456   8.234   1.521  1.0121  1.9982 -0.8340
   11MOL0     H 1481   3.455   8.399   1.361 -2.2268  0.8093 -1.6804
   11MOL0     H 1482   3.478   8.281   0.923  1.1592  0.1097 -0.9284
   11MOL0     H 1483   3.300   8.290   0.970 -0.9751  0.9009  1.5882
   11MOL0     H 1484   3.339   8.556   0.961  0.6345 -0.4720 -0.0294
   11MOL0     H 1485   3.495   8.515   0.908  0.4307 -2.5535  1.8496
   11MOL0     H 1486   3.225   8.451   0.771 -1.1224  0.9062  0.8764
   11MOL0     H 1487   3.387   8.396   0.711  2.0904  0.8565  0.6019
   11MOL0     H 1488   3.465   8.629   0.689 -0.3916  4.1455  1.8726
   11MOL0     H 1489   3.308   8.691   0.728  2.5085  1.7030 -2.3133
   11MOL0     H 1490   3.381   8.518   0.491  0.0276 -1.5823  2.0101
   11MOL0     H 1491   3.217   8.537   0.543 -0.9284  0.3810 -0.3294
   11MOL0     H 1492   3.415   8.740   0.429 -0.5270  0.9529 -0.8553
   11MOL0     H 1493   3.263   8.793   0.511 -1.1338 -2.1574  2.1710
   11MOL0     H 1494   3.139   8.628   0.362 -0.8071 -0.3429  0.4180
   11MOL0     H 1495   3.291   8.618   0.262 -0.1587  0.3335  0.2944
   11MOL0     H 1496   3.166   8.791   0.173  0.3758  2.5001 -1.4818
   11MOL0     H 1497   3.287   8.873   0.280  2.4672 -2.1770 -1.2540
   11MOL0     H 1498   3.406   8.092   1.056  0.8558 -1.3801  0.7975
   11MOL0     H 1499   3.408   7.929   1.234  0.4348 -0.2795  0.4656
   11MOL0     H 1500   3.592   7.868   1.621  0.2048  2.1664  0.6745
   11MOL0     H 1501   3.699   7.755   1.802 -0.0932 -1.8247  1.4306
   11MOL0     H 1502   3.590   6.227   1.566  3.7811 -0.2602 -1.7573
   11MOL0     H 1503   3.656   6.018   1.460  1.5538 -0.4910 -0.1345
   11MOL0     H 1504   3.765   5.545   1.653 -0.9020  2.0628 -0.6352
   11MOL0     H 1505   3.862   5.316   1.572  3.3625 -1.0299 -1.1099
   11MOL0     H 1506   3.842   5.204   1.136 -2.2369  1.1171  1.4262
   11MOL0     H 1507   3.981   5.319   1.149  0.7216 -0.3104 -1.1842
   11MOL0     H 1508   4.129   5.164   1.214  1.0357 -0.5024 -2.7665
   11MOL0     H 1509   4.032   5.068   1.091 -2.2515 -1.8478  0.1708
   11MOL0     H 1510   4.073   4.929   1.303 -0.1437  0.5393  2.4789
   11MOL0     H 1511   3.978   5.039   1.394  2.3101  1.3424 -0.2034
   11MOL0     H 1512   3.845   4.964   1.147  1.0728  1.8732 -0.0609
   11MOL0     H 1513   3.779   4.993   1.310 -2.0074 -4.8907  0.2851
   11MOL0     H 1514   3.849   4.577   1.331 -1.2064  0.1911  0.6777
   11MOL0     H 1515   3.826   5.450   1.176 -2.4016  3.9324 -1.3192
   11MOL0     H 1516   3.756   5.682   1.128 -0.4946 -1.8011  0.5628
   11MOL0     H 1517   3.730   5.794   1.253  2.0479  0.1291 -0.1451
   11MOL0     H 1518   3.899   5.763   1.214 -0.1716  1.2492  0.8170
   12MOL0     O 1519   0.967   8.356   9.950 -0.3435  0.4230 -0.2954
   12MOL0     C 1520   0.869   8.312   9.888 -0.0654 -0.6710  0.4162
   12MOL0     O 1521   0.743   8.318   9.927  0.0585  0.3542 -0.3960
   12MOL0     C 1522   0.699   8.395  10.041 -0.3523 -0.1900 -0.0548
   12MOL0     C 1523   0.608   8.345  10.127  1.3991 -0.3553  0.9935
   12MOL0     C 1524   0.581   8.419  10.244  0.2909 -0.0108 -0.3757
   12MOL0     C 1525   0.630   8.549  10.269  1.1545  0.8080  0.6781
   12MOL0     O 1526   0.628   8.620  10.383 -0.0420 -0.0991 -0.5727
   12MOL0     C 1527   0.519   8.584  10.475 -0.4085 -0.1524 -0.2732
   12MOL0     C 1528   0.503   8.703  10.569 -0.2041 -0.1264 -0.5820
   12MOL0     C 1529   0.443   8.819  10.489  0.1453 -0.0851  0.3124
   12MOL0     C 1530   0.403   8.917  10.586 -0.0607 -0.1171 -1.1372
   12MOL0     C 1531   0.380   9.048  10.511  1.1889 -0.0253  0.3692
   12MOL0     C 1532   0.360   9.160  10.615 -0.3253 -0.4280 -0.7218
   12MOL0     C 1533   0.208   9.167  10.657  0.8691  0.4987  0.7252
   12MOL0     C 1534   0.192   9.233  10.799 -0.3337  0.9816  0.9638
   12MOL0     N 1535   0.057   9.277  10.815 -0.0191  0.3567 -0.1274
   12MOL0     C 1536  -0.019   9.368  10.736 -0.2883  0.0499  0.6926
   12MOL0     C 1537  -0.141   9.356  10.799  0.4312 -0.4360 -0.3366
   12MOL0     C 1538  -0.264   9.432  10.768  0.1516  0.4948 -0.2391
   12MOL0     C 1539  -0.364   9.441  10.886  0.1173  0.6557 -0.4247
   12MOL0     C 1540  -0.466   9.555  10.871 -0.2334 -0.1879 -0.3631
   12MOL0     C 1541  -0.545   9.590  10.999  0.3394 -0.5558 -0.7358
   12MOL0     O 1542  -0.606   9.459  11.042  0.2296 -0.5395 -0.3951
   12MOL0     C 1543  -0.672   9.444  11.165 -0.0100 -0.3123 -0.4821
   12MOL0     C 1544  -0.740   9.545  11.226  0.4767  0.0403 -1.0261
   12MOL0     C 1545  -0.813   9.527  11.351  0.4504 -0.4275 -0.3578
   12MOL0     C 1546  -0.889   9.643  11.402  0.6157  0.3435 -0.0602
   12MOL0     C 1547  -0.821   9.398  11.406  0.9280 -0.1290  0.1743
   12MOL0     C 1548  -0.901   9.361  11.528  0.2195 -0.2990  0.6695
   12MOL0     O 1549  -0.913   9.227  11.550 -0.5000  0.9789 -1.0774
   12MOL0     C 1550  -0.936   9.184  11.683 -0.1245  0.1351  0.1454
   12MOL0     C 1551  -1.067   9.175  11.726 -0.3343  0.2774  0.6895
   12MOL0     C 1552  -1.094   9.118  11.851 -0.2041 -1.0217  0.3873
   12MOL0     C 1553  -0.990   9.086  11.938 -0.7726  0.1343 -0.1490
   12MOL0     O 1554  -1.013   9.035  12.067 -0.1544  0.2666 -0.1543
   12MOL0     C 1555  -1.079   9.127  12.149  0.3654 -1.2142  0.0870
   12MOL0     C 1556  -1.010   9.126  12.282 -0.5046  0.4711  0.1951
   12MOL0     C 1557  -0.860   9.108  12.285 -1.0247  0.0866  0.4380
   12MOL0     C 1558  -0.802   9.135  12.427  0.1516 -0.0734 -0.0675
   12MOL0     C 1559  -0.800   8.998  12.502  0.4322  1.0207  0.1721
   12MOL0     C 1560  -0.792   9.012  12.650  0.0871  0.2587 -0.5654
   12MOL0     C 1561  -0.761   8.881  12.722  0.2503 -0.7626  0.3289
   12MOL0     C 1562  -0.742   8.902  12.872 -0.1641 -0.0538  0.3100
   12MOL0    Cl 1563  -0.697   8.757  12.967  0.3557 -0.0040 -0.4587
   12MOL0     C 1564  -0.858   9.098  11.897  0.7564 -0.0148 -0.4340
   12MOL0     C 1565  -0.834   9.133  11.763 -0.3732  1.6906 -0.1255
   12MOL0     O 1566  -0.955   9.440  11.604 -0.3031 -0.6873 -1.1901
   12MOL0     C 1567  -0.762   9.295  11.338  0.6149  0.0172 -0.1715
   12MOL0     C 1568  -0.689   9.310  11.221 -0.3436  0.2084 -0.3778
   12MOL0     N 1569  -0.147   9.247  10.886  0.5274 -0.9353 -0.2410
   12MOL0     N 1570  -0.033   9.197  10.891 -0.1383  0.6691  0.1388
   12MOL0     C 1571   0.713   8.602  10.170  0.1980 -0.5016  0.1451
   12MOL0     C 1572   0.750   8.520  10.064  0.2571  0.1001 -0.2831
   12MOL0     C 1573   0.895   8.271   9.745  0.5202 -0.5664 -0.6579
   12MOL0     C 1574   0.983   8.342   9.662  0.0280 -0.2094 -0.1559
   12MOL0     C 1575   0.998   8.301   9.532 -0.8761 -0.0307 -0.1058
   12MOL0     C 1576   0.959   8.176   9.481  0.9454 -0.1442 -0.0826
   12MOL0     O 1577   1.010   8.149   9.358 -0.0151  1.0245  0.3595
   12MOL0     C 1578   0.958   8.038   9.292 -0.4970  0.0672  0.0070
   12MOL0     C 1579   0.847   8.087   9.194 -0.3699  0.9489  0.2689
   12MOL0     C 1580   0.868   8.213   9.104  0.6733  0.3075  0.6583
   12MOL0     C 1581   0.763   8.222   8.987  0.0513 -0.5500  0.2558
   12MOL0     C 1582   0.806   8.155   8.867  0.2577 -0.6100  0.6543
   12MOL0     C 1583   0.845   8.098   8.767  0.1213 -0.4946 -0.3102
   12MOL0     C 1584   0.874   8.104   9.570  0.2239  0.2767 -0.3795
   12MOL0     C 1585   0.833   8.155   9.705 -0.3846  0.9317  0.9191
   12MOL0     C 1586   0.748   8.056   9.784  0.0705  0.2145  0.1486
   12MOL0     H 1587   0.561   8.250  10.106  0.2323  0.6271 -1.2455
   12MOL0     H 1588   0.526   8.362  10.318 -2.6225  3.8760  0.7468
   12MOL0     H 1589   0.545   8.499  10.540  0.2260  1.4180  1.6199
   12MOL0     H 1590   0.421   8.557  10.433 -2.2205 -1.1006  3.9798
   12MOL0     H 1591   0.435   8.674  10.650 -0.3543 -0.7379 -0.9217
   12MOL0     H 1592   0.602   8.727  10.609 -0.2749  1.7407 -1.4336
   12MOL0     H 1593   0.530   8.854  10.432 -0.1544 -0.8144 -0.6194
   12MOL0     H 1594   0.359   8.797  10.423  0.4847  0.5811 -0.3654
   12MOL0     H 1595   0.320   8.875  10.645  1.0622 -0.7500  0.0294
   12MOL0     H 1596   0.483   8.931  10.659  0.0233  2.3342 -1.6242
   12MOL0     H 1597   0.300   9.041  10.438  0.4618 -0.7316  1.2168
   12MOL0     H 1598   0.472   9.072  10.456  1.3067 -1.5276 -0.1274
   12MOL0     H 1599   0.407   9.140  10.711 -1.2513 -1.4875 -0.4679
   12MOL0     H 1600   0.399   9.254  10.573  1.4512 -0.4508  0.7197
   12MOL0     H 1601   0.170   9.064  10.661  0.4298  0.5907 -0.4704
   12MOL0     H 1602   0.148   9.232  10.593 -1.1037  0.6701  2.6279
   12MOL0     H 1603   0.219   9.167  10.882 -0.9296 -1.7301 -0.8766
   12MOL0     H 1604   0.259   9.320  10.801 -0.2318  1.0049 -1.2741
   12MOL0     H 1605   0.007   9.437  10.657 -1.9505 -1.7840 -1.5984
   12MOL0     H 1606  -0.306   9.379  10.683  1.1603  1.3365 -1.3059
   12MOL0     H 1607  -0.244   9.532  10.728 -2.5109  1.0298 -0.3526
   12MOL0     H 1608  -0.423   9.350  10.898  2.7128 -0.8026  2.6780
   12MOL0     H 1609  -0.311   9.447  10.981  3.6665  0.7343 -2.2275
   12MOL0     H 1610  -0.413   9.648  10.846 -0.0780 -0.3195 -0.5219
   12MOL0     H 1611  -0.527   9.534  10.783 -0.3331 -3.0484  0.3024
   12MOL0     H 1612  -0.474   9.621  11.076  0.9299 -0.3026 -1.3654
   12MOL0     H 1613  -0.623   9.665  10.984  0.2786 -0.9372 -2.5954
   12MOL0     H 1614  -0.733   9.640  11.174 -0.7417  1.1642  0.7606
   12MOL0     H 1615  -0.836   9.684  11.489 -0.9983 -0.1416  1.2036
   12MOL0     H 1616  -0.991   9.620  11.434  1.1011  1.0720  2.1980
   12MOL0     H 1617  -0.888   9.722  11.326  3.8871  0.6213  0.1040
   12MOL0     H 1618  -1.147   9.205  11.660 -1.1367 -0.1896  1.4177
   12MOL0     H 1619  -1.194   9.101  11.888  0.2917 -0.8478  1.8919
   12MOL0     H 1620  -1.077   9.230  12.112 -2.9239 -0.5330  1.3920
   12MOL0     H 1621  -1.184   9.107  12.173  0.6013 -2.5601  0.0469
   12MOL0     H 1622  -1.038   9.219  12.332  0.6929  0.4924  0.8617
   12MOL0     H 1623  -1.053   9.049  12.346 -2.9619 -0.4478 -2.3319
   12MOL0     H 1624  -0.809   9.172  12.212  0.6435 -2.2990 -0.5888
   12MOL0     H 1625  -0.844   9.002  12.266  0.1908  0.3659 -0.1540
   12MOL0     H 1626  -0.851   9.212  12.488 -1.7341 -1.9164  0.8489
   12MOL0     H 1627  -0.703   9.182  12.416 -0.6509  1.2815 -1.9570
   12MOL0     H 1628  -0.887   8.939  12.471 -0.7932  2.0441  1.4659
   12MOL0     H 1629  -0.712   8.944  12.468  0.4683  0.1195  1.6020
   12MOL0     H 1630  -0.882   9.062  12.687  1.0702  0.8561  1.1419
   12MOL0     H 1631  -0.708   9.075  12.681  0.1206 -0.5752  1.1097
   12MOL0     H 1632  -0.674   8.832  12.679  1.6139  0.0681  2.0231
   12MOL0     H 1633  -0.839   8.807  12.705 -2.3281  1.6211  0.9511
   12MOL0     H 1634  -0.837   8.930  12.918  1.4731  2.0225  2.6946
   12MOL0     H 1635  -0.663   8.978  12.882  1.0326 -1.0392 -1.1403
   12MOL0     H 1636  -0.771   9.078  11.958  0.8418  1.1484 -0.1517
   12MOL0     H 1637  -0.735   9.140  11.720 -0.0714  0.2808  0.2862
   12MOL0     H 1638  -0.769   9.194  11.376  1.7618  0.8717  2.6400
   12MOL0     H 1639  -0.644   9.218  11.187  2.6162  0.5784  2.0641
   12MOL0     H 1640   0.750   8.704  10.180  0.3976 -0.6316  0.7873
   12MOL0     H 1641   0.818   8.557   9.987 -1.1975  2.0929 -0.6851
   12MOL0     H 1642   1.023   8.435   9.701  0.6081  1.0129 -3.3691
   12MOL0     H 1643   1.063   8.363   9.471 -1.2138  0.9291  0.4896
   12MOL0     H 1644   1.035   7.998   9.226  0.2583 -0.3113  1.0877
   12MOL0     H 1645   0.929   7.957   9.359  1.4361 -1.9463 -1.4635
   12MOL0     H 1646   0.749   8.103   9.238 -0.8763  0.8376 -0.7903
   12MOL0     H 1647   0.825   8.003   9.127  0.1245 -0.9079  2.3469
   12MOL0     H 1648   0.844   8.296   9.171 -2.3733 -1.5162  2.0349
   12MOL0     H 1649   0.963   8.213   9.049 -0.3587  4.3548 -1.5657
   12MOL0     H 1650   0.753   8.329   8.969 -0.6129 -0.5043  0.8672
   12MOL0     H 1651   0.659   8.200   9.014  0.0530  1.4966  2.2630
   12MOL0     H 1652   0.848   8.056   8.669  0.1095 -0.7123 -0.2155
   12MOL0     H 1653   0.835   8.007   9.541  0.9083 -0.1420  0.0585
   12MOL0     H 1654   0.746   7.957   9.739 -0.9563  1.4964 -2.8996
   12MOL0     H 1655   0.781   8.058   9.889  0.4077  0.7869  0.0377
   12MOL0     H 1656   0.648   8.100   9.786  0.2371  0.5841  1.6626
   13MOL0     O 1657   0.217   6.141   1.342  0.7678  0.4576  0.2102
   13MOL0     C 1658   0.201   6.053   1.258  0.5923  0.1770 -0.5674
   13MOL0     O 1659   0.084   5.988   1.218 -0.0570  0.1420  0.1753
   13MOL0     C 1660  -0.030   6.051   1.226 -0.0181  0.5622 -0.1745
   13MOL0     C 1661  -0.101   6.111   1.122 -0.3519 -0.2627  0.8648
   13MOL0     C 1662  -0.229   6.168   1.145 -0.0135 -1.0507 -0.5141
   13MOL0     C 1663  -0.289   6.173   1.267  0.3406  0.0711 -0.2246
   13MOL0     O 1664  -0.409   6.238   1.286  0.1709 -0.5749 -0.0884
   13MOL0     C 1665  -0.444   6.297   1.416  0.5447 -0.0300  0.8540
   13MOL0     C 1666  -0.404   6.448   1.408  0.3725 -0.3265 -0.1337
   13MOL0     C 1667  -0.249   6.463   1.438 -0.8390  0.6214 -0.6941
   13MOL0     C 1668  -0.198   6.609   1.448  0.0404  0.4182  0.1576
   13MOL0     C 1669  -0.083   6.615   1.551 -0.0070 -0.4359 -0.4801
   13MOL0     C 1670   0.043   6.537   1.517 -1.1555 -0.0117  0.7269
   13MOL0     C 1671   0.132   6.599   1.415  0.7538 -0.2251 -0.1171
   13MOL0     C 1672   0.255   6.518   1.374 -0.4864  0.3047  0.0396
   13MOL0     N 1673   0.329   6.573   1.257  0.6277 -0.2530  0.8969
   13MOL0     C 1674   0.418   6.673   1.275  0.1613  0.3980 -0.3171
   13MOL0     C 1675   0.447   6.725   1.155  0.0922  0.7900 -0.1781
   13MOL0     C 1676   0.545   6.829   1.121 -0.1115 -0.9598 -1.5928
   13MOL0     C 1677   0.657   6.855   1.227  0.4380 -0.3458  1.4404
   13MOL0     C 1678   0.752   6.962   1.172 -0.0560 -0.4792 -0.2764
   13MOL0     C 1679   0.827   7.039   1.278  0.2641 -1.2539 -0.4373
   13MOL0     O 1680   0.877   6.955   1.379 -0.3441  0.9224  0.3600
   13MOL0     C 1681   0.948   7.015   1.480 -0.6330  0.4466  0.5514
   13MOL0     C 1682   0.980   7.148   1.494 -0.2342  0.6749 -0.2382
   13MOL0     C 1683   1.048   7.193   1.604 -0.2929 -0.3559 -0.7654
   13MOL0     C 1684   1.083   7.342   1.595  0.0665 -0.3270  0.1936
   13MOL0     C 1685   1.081   7.117   1.711 -0.4756 -0.3914  0.7032
   13MOL0     C 1686   1.150   7.158   1.833 -0.7214  0.8656 -0.8409
   13MOL0     O 1687   1.223   7.057   1.905  0.5143  0.0480 -0.0103
   13MOL0     C 1688   1.257   7.094   2.029 -0.1218 -0.0853 -0.1634
   13MOL0     C 1689   1.166   7.119   2.129 -0.0068 -0.5095 -0.5604
   13MOL0     C 1690   1.221   7.150   2.253 -0.0387 -1.1779 -0.4134
   13MOL0     C 1691   1.358   7.185   2.273  1.2884 -0.2999 -0.4884
   13MOL0     O 1692   1.395   7.237   2.393  0.1733  0.4420  0.6419
   13MOL0     C 1693   1.471   7.145   2.480 -0.2420 -0.5814 -0.5484
   13MOL0     C 1694   1.377   7.064   2.565  0.2534  0.6031  0.5884
   13MOL0     C 1695   1.323   7.134   2.689 -1.0225 -0.2588 -1.2864
   13MOL0     C 1696   1.212   7.060   2.752  0.6542  0.9337  0.8313
   13MOL0     C 1697   1.190   7.096   2.900 -0.1481 -0.7186 -0.3507
   13MOL0     C 1698   1.066   7.032   2.959 -0.6275  0.7159  0.2412
   13MOL0     C 1699   0.934   7.064   2.897 -0.4239 -0.0981 -0.1377
   13MOL0     C 1700   0.820   6.993   2.962  0.4026  0.4387 -0.5754
   13MOL0    Cl 1701   0.786   7.055   3.126  0.5439 -0.1066  0.2271
   13MOL0     C 1702   1.438   7.178   2.166 -0.0142  0.2428  0.2810
   13MOL0     C 1703   1.390   7.138   2.040  0.5942 -0.0329 -0.2054
   13MOL0     O 1704   1.165   7.276   1.861  0.2076  0.2397  0.2633
   13MOL0     C 1705   1.058   6.977   1.694  0.9182  1.0934  0.3951
   13MOL0     C 1706   0.976   6.929   1.587 -0.3005  0.8269 -0.2414
   13MOL0     N 1707   0.376   6.642   1.062  0.5172 -0.6562 -0.1625
   13MOL0     N 1708   0.305   6.557   1.123  1.0235  0.6214 -0.2332
   13MOL0     C 1709  -0.221   6.098   1.369  0.2759  0.6130 -0.7118
   13MOL0     C 1710  -0.099   6.030   1.344 -0.5978 -0.8462 -0.8591
   13MOL0     C 1711   0.326   6.000   1.196  0.1604  0.1168 -0.9211
   13MOL0     C 1712   0.360   5.866   1.216  0.1006  0.6232 -0.3238
   13MOL0     C 1713   0.484   5.816   1.172  0.1900 -0.3486  0.0322
   13MOL0     C 1714   0.571   5.903   1.104  0.0497  0.8352  0.5138
   13MOL0     O 1715   0.697   5.860   1.058 -0.8992  0.4523  0.1152
   13MOL0     C 1716   0.726   5.718   1.060 -0.1415  0.3331  0.1094
   13MOL0     C 1717   0.870   5.700   1.007 -1.1512  0.2318  0.4809
   13MOL0     C 1718   0.867   5.753   0.858 -0.1125 -1.1646 -0.0244
   13MOL0     C 1719   1.005   5.776   0.799  0.1311  1.0424  0.2146
   13MOL0     C 1720   0.996   5.764   0.658 -0.1098  0.8857  0.4416
   13MOL0     C 1721   0.964   5.754   0.535 -0.6690  0.7633 -0.6012
   13MOL0     C 1722   0.524   6.029   1.063  0.6315 -0.6523  0.0159
   13MOL0     C 1723   0.400   6.083   1.116 -0.1630  0.1114  0.7187
   13MOL0     C 1724   0.369   6.225   1.066  0.7803 -0.4847  0.6553
   13MOL0     H 1725  -0.076   6.115   1.016 -2.0075 -0.4901  0.4344
   13MOL0     H 1726  -0.284   6.218   1.066 -1.2132 -3.7693 -1.5196
   13MOL0     H 1727  -0.392   6.261   1.506 -3.7022 -4.3421  2.0168
   13MOL0     H 1728  -0.552   6.294   1.426  0.4568 -0.0665 -0.0286
   13MOL0     H 1729  -0.439   6.492   1.314 -0.7578  3.6348  1.9154
   13MOL0     H 1730  -0.467   6.502   1.479 -1.7971 -0.2897 -1.9434
   13MOL0     H 1731  -0.230   6.417   1.535 -3.1209  0.7357 -0.1591
   13MOL0     H 1732  -0.191   6.397   1.372 -1.0489  2.0267 -2.3498
   13MOL0     H 1733  -0.179   6.657   1.352 -1.9049  1.0217  0.0274
   13MOL0     H 1734  -0.274   6.678   1.487  0.8329  1.7050 -0.4998
   13MOL0     H 1735  -0.119   6.576   1.646  0.3281 -0.8706 -0.5235
   13MOL0     H 1736  -0.056   6.717   1.580 -0.2686 -0.6180  0.4375
   13MOL0     H 1737   0.112   6.541   1.602  0.3116 -0.3523 -0.4031
   13MOL0     H 1738   0.014   6.439   1.477 -2.2175  1.9752 -4.0053
   13MOL0     H 1739   0.157   6.699   1.451  0.9471 -1.0469  2.2241
   13MOL0     H 1740   0.077   6.601   1.321  2.0927 -2.6929 -1.0367
   13MOL0     H 1741   0.317   6.497   1.462  1.3812  2.2875 -0.7164
   13MOL0     H 1742   0.223   6.420   1.340 -0.4354  1.4852 -3.8781
   13MOL0     H 1743   0.473   6.696   1.366  1.0950  1.7498 -1.1869
   13MOL0     H 1744   0.483   6.917   1.100 -1.7989 -1.9835 -1.0815
   13MOL0     H 1745   0.586   6.797   1.025  1.2819  1.7890 -2.0233
   13MOL0     H 1746   0.607   6.913   1.305 -0.9985  3.4298 -1.9436
   13MOL0     H 1747   0.714   6.763   1.241  1.4159 -0.7867 -3.3830
   13MOL0     H 1748   0.831   6.903   1.126 -1.2099 -2.4773  0.1685
   13MOL0     H 1749   0.702   7.037   1.109 -2.5493 -0.8805  1.0716
   13MOL0     H 1750   0.901   7.093   1.219 -2.5006  1.3073 -1.8322
   13MOL0     H 1751   0.761   7.110   1.329 -1.4387 -2.7683 -0.4232
   13MOL0     H 1752   0.947   7.218   1.418 -3.9850  0.7538  1.2205
   13MOL0     H 1753   1.191   7.336   1.577  0.6319 -3.5310  3.4945
   13MOL0     H 1754   1.057   7.396   1.686  2.9419 -0.3406  1.1272
   13MOL0     H 1755   1.024   7.390   1.517 -3.1439 -2.7220  0.9320
   13MOL0     H 1756   1.062   7.091   2.126 -0.0678 -0.6657  1.5465
   13MOL0     H 1757   1.149   7.153   2.333 -1.1814 -0.8142 -1.4197
   13MOL0     H 1758   1.534   7.074   2.427 -2.8540 -2.8083 -0.9234
   13MOL0     H 1759   1.542   7.205   2.537 -2.0085  1.9665 -0.8546
   13MOL0     H 1760   1.290   7.034   2.506 -1.3105  3.2621  1.3712
   13MOL0     H 1761   1.445   6.982   2.591 -0.6948 -0.1738  0.6836
   13MOL0     H 1762   1.282   7.230   2.657 -2.7694 -1.1672 -1.8779
   13MOL0     H 1763   1.406   7.150   2.759 -0.4162 -2.5973 -1.3968
   13MOL0     H 1764   1.228   6.951   2.749 -2.9911  0.2787 -2.6831
   13MOL0     H 1765   1.123   7.079   2.693  1.2652  0.7650 -0.1747
   13MOL0     H 1766   1.273   7.065   2.963 -0.2438 -0.1330  0.0753
   13MOL0     H 1767   1.180   7.205   2.895  2.5234 -0.3897  0.0262
   13MOL0     H 1768   1.063   7.062   3.064  2.8740 -0.8181  0.9321
   13MOL0     H 1769   1.074   6.923   2.961 -0.7778  0.6493  3.6190
   13MOL0     H 1770   0.951   7.039   2.791  0.7931  2.1062 -0.5165
   13MOL0     H 1771   0.920   7.172   2.908  0.2763 -0.2343  2.9012
   13MOL0     H 1772   0.849   6.888   2.964  0.6856  0.4539 -2.3025
   13MOL0     H 1773   0.728   7.005   2.904  0.2677  1.6826 -0.1462
   13MOL0     H 1774   1.542   7.207   2.176 -0.3183  0.9016  1.9429
   13MOL0     H 1775   1.460   7.134   1.958  2.0013  1.3650  0.8883
   13MOL0     H 1776   1.066   6.906   1.776 -1.8694 -1.3568 -1.2367
   13MOL0     H 1777   0.930   6.831   1.575 -2.0927  1.7757 -1.5715
   13MOL0     H 1778  -0.270   6.094   1.466  1.7247  4.9911  0.4535
   13MOL0     H 1779  -0.050   5.971   1.421 -1.3317  0.7148  0.8751
   13MOL0     H 1780   0.295   5.805   1.278 -0.5878 -0.0146 -1.6167
   13MOL0     H 1781   0.518   5.716   1.195  0.7943  0.0039  0.7195
   13MOL0     H 1782   0.710   5.683   1.163  0.5513 -0.5950 -0.0759
   13MOL0     H 1783   0.655   5.670   0.992  0.3976 -1.2499  0.6054
   13MOL0     H 1784   0.905   5.597   1.022 -0.2315  0.5291  0.4413
   13MOL0     H 1785   0.932   5.770   1.064 -2.7163 -0.1561  2.7962
   13MOL0     H 1786   0.812   5.683   0.795 -0.3286  0.0394 -1.2357
   13MOL0     H 1787   0.815   5.850   0.853  0.9261 -0.5146  1.2794
   13MOL0     H 1788   1.073   5.698   0.837  0.4641  0.2403 -1.8592
   13MOL0     H 1789   1.051   5.873   0.821  0.5901  0.8305  0.2032
   13MOL0     H 1790   0.927   5.741   0.435 -1.0841  5.0734 -1.2001
   13MOL0     H 1791   0.590   6.089   1.002  1.5476 -1.5180  0.1366
   13MOL0     H 1792   0.262   6.227   1.041  0.5962 -0.2239  1.4422
   13MOL0     H 1793   0.389   6.306   1.136 -1.0764  0.7322 -0.1339
   13MOL0     H 1794   0.429   6.248   0.978 -0.5428 -0.2032 -0.2027
   14MOL0     O 1795   7.380   5.258   5.063  0.4353 -0.2857 -0.1233
   14MOL0     C 1796   7.495   5.287   5.038 -0.5064  0.5151  0.5774
   14MOL0     O 1797   7.546   5.350   4.920  0.0892  0.4465  0.6846
   14MOL0     C 1798   7.485   5.347   4.798  0.1045  0.2742  0.5897
   14MOL0     C 1799   7.429   5.231   4.748  0.4405  0.3070 -0.3297
   14MOL0     C 1800   7.388   5.215   4.616 -0.6587  0.9505  0.8069
   14MOL0     C 1801   7.393   5.325   4.523 -0.5838  0.3294  1.2213
   14MOL0     O 1802   7.366   5.325   4.382 -0.2869  0.6678  0.7253
   14MOL0     C 1803   7.259   5.241   4.331 -0.1002 -0.6487  0.5883
   14MOL0     C 1804   7.122   5.309   4.328 -0.2684 -0.8547 -0.4484
   14MOL0     C 1805   7.050   5.289   4.464 -1.3594 -0.5072 -0.3285
   14MOL0     C 1806   6.907   5.349   4.464 -0.3843 -0.7296  0.1301
   14MOL0     C 1807   6.831   5.313   4.596  1.2861 -0.3093 -0.0953
   14MOL0     C 1808   6.705   5.402   4.619 -0.0869 -0.6288  0.1548
   14MOL0     C 1809   6.662   5.428   4.762 -0.7019 -0.7010  0.0835
   14MOL0     C 1810   6.598   5.564   4.759  1.1810 -1.3571 -0.5284
   14MOL0     N 1811   6.521   5.592   4.886  0.2180  0.8005 -0.2386
   14MOL0     C 1812   6.442   5.511   4.965 -0.4428 -0.2097 -0.8603
   14MOL0     C 1813   6.438   5.567   5.094  0.4777 -0.7015 -1.0291
   14MOL0     C 1814   6.370   5.510   5.211 -0.2189  0.2520 -0.3957
   14MOL0     C 1815   6.453   5.528   5.338 -0.2111 -0.4463 -1.5029
   14MOL0     C 1816   6.588   5.445   5.348 -0.5183  0.5901  0.1225
   14MOL0     C 1817   6.548   5.298   5.346 -0.3156 -0.3213 -0.6296
   14MOL0     O 1818   6.669   5.221   5.346 -0.0630  0.3629 -0.7058
   14MOL0     C 1819   6.673   5.118   5.444 -0.4977 -0.1202  1.4405
   14MOL0     C 1820   6.785   5.125   5.522 -0.6055 -0.5053 -0.1662
   14MOL0     C 1821   6.817   5.022   5.610  0.3805  0.4295 -0.0490
   14MOL0     C 1822   6.946   5.050   5.687 -0.9105 -0.0434  0.3072
   14MOL0     C 1823   6.729   4.906   5.614 -0.2861 -0.4260  0.2210
   14MOL0     C 1824   6.758   4.787   5.699  0.5354  0.6728 -0.1921
   14MOL0     O 1825   6.658   4.692   5.690  0.4461  0.4977  0.0335
   14MOL0     C 1826   6.626   4.629   5.806  0.7363  0.5567  0.4351
   14MOL0     C 1827   6.655   4.495   5.834 -0.7740  0.2730  0.0962
   14MOL0     C 1828   6.607   4.436   5.946  0.6852 -0.0546  0.9511
   14MOL0     C 1829   6.518   4.497   6.034 -0.0768  0.5408 -0.2497
   14MOL0     O 1830   6.449   4.427   6.129  1.1973  0.7946 -0.4117
   14MOL0     C 1831   6.413   4.291   6.100 -0.5810  0.4821 -0.0312
   14MOL0     C 1832   6.309   4.293   5.988  0.5650  0.5276  1.0031
   14MOL0     C 1833   6.190   4.388   6.022  0.1994  0.2977 -0.5656
   14MOL0     C 1834   6.056   4.367   5.935 -0.4802  0.5255 -0.6476
   14MOL0     C 1835   5.965   4.490   5.946  0.3805  0.7383  0.1260
   14MOL0     C 1836   5.923   4.522   6.091 -0.0784 -0.2068 -1.1982
   14MOL0     C 1837   5.832   4.643   6.096  0.0851 -1.9020 -0.6696
   14MOL0     C 1838   5.888   4.778   6.034  0.8499 -0.3535  0.4980
   14MOL0    Cl 1839   6.055   4.829   6.085  0.1637  0.1386  0.3333
   14MOL0     C 1840   6.495   4.637   6.014  0.1014  0.1551  0.2582
   14MOL0     C 1841   6.553   4.704   5.904  0.1835  0.3056 -0.0277
   14MOL0     O 1842   6.855   4.764   5.769  0.0652  0.5587  0.5108
   14MOL0     C 1843   6.614   4.920   5.533 -0.3705  0.9959 -0.9334
   14MOL0     C 1844   6.577   5.025   5.453  0.2263  1.1282 -0.2361
   14MOL0     N 1845   6.518   5.680   5.091 -0.0369 -0.6208 -0.0290
   14MOL0     N 1846   6.557   5.697   4.965  0.7774 -0.2303  0.8628
   14MOL0     C 1847   7.447   5.445   4.578  0.3043  0.1893 -0.0296
   14MOL0     C 1848   7.493   5.457   4.709  0.5743  0.1366 -0.2178
   14MOL0     C 1849   7.603   5.255   5.151  0.7348  0.2742  0.3440
   14MOL0     C 1850   7.727   5.205   5.112 -0.8511  1.3273  0.5769
   14MOL0     C 1851   7.819   5.160   5.197 -0.0466  0.0694  0.4573
   14MOL0     C 1852   7.795   5.170   5.335  0.8185  0.4279  0.6951
   14MOL0     O 1853   7.887   5.149   5.438 -0.3106  0.1781 -0.2960
   14MOL0     C 1854   8.006   5.076   5.414 -0.5655  0.4153 -0.0589
   14MOL0     C 1855   8.142   5.161   5.390  0.2231  0.7273 -0.5127
   14MOL0     C 1856   8.260   5.060   5.369  1.3377 -0.3563  0.4017
   14MOL0     C 1857   8.380   5.141   5.383 -0.6834 -0.8052  0.7134
   14MOL0     C 1858   8.428   5.205   5.256  0.5347 -0.1443 -0.9251
   14MOL0     C 1859   8.533   5.279   5.105  0.5749 -0.3052 -0.7785
   14MOL0     C 1860   7.669   5.228   5.382 -1.0071  0.1473  0.2844
   14MOL0     C 1861   7.572   5.272   5.288 -0.9163 -0.2453 -1.1547
   14MOL0     C 1862   7.446   5.321   5.356 -0.5435  0.0748  0.5828
   14MOL0     H 1863   7.409   5.145   4.812 -0.6305  0.3356 -0.6118
   14MOL0     H 1864   7.344   5.121   4.584  0.0067  0.6574  0.7294
   14MOL0     H 1865   7.244   5.143   4.376 -2.7046 -1.1499 -1.1601
   14MOL0     H 1866   7.290   5.230   4.227 -0.2828  1.1566  0.3061
   14MOL0     H 1867   7.135   5.417   4.319 -0.0044 -0.8472 -0.0151
   14MOL0     H 1868   7.055   5.272   4.250  0.3452 -1.5788 -0.6435
   14MOL0     H 1869   7.038   5.183   4.488  1.8869 -0.8162  0.3832
   14MOL0     H 1870   7.114   5.332   4.541 -0.7723 -2.5587  0.3988
   14MOL0     H 1871   6.918   5.456   4.446  1.6464 -0.8819  0.1555
   14MOL0     H 1872   6.843   5.312   4.384 -1.0859  0.1288  0.2790
   14MOL0     H 1873   6.905   5.321   4.676  0.6906 -1.0969  0.5551
   14MOL0     H 1874   6.801   5.208   4.603  3.4010 -0.9747 -0.4207
   14MOL0     H 1875   6.710   5.495   4.560 -0.9200 -1.4623 -1.2925
   14MOL0     H 1876   6.627   5.352   4.561 -0.6646 -0.2115  0.5511
   14MOL0     H 1877   6.754   5.420   4.821  0.2122 -1.0487 -1.3322
   14MOL0     H 1878   6.590   5.353   4.795 -3.4370  1.1623 -1.2220
   14MOL0     H 1879   6.679   5.633   4.736  1.2773 -1.5831 -0.8751
   14MOL0     H 1880   6.522   5.562   4.680 -0.7731 -5.4122  1.1266
   14MOL0     H 1881   6.393   5.422   4.927  0.4615 -0.4290 -1.5565
   14MOL0     H 1882   6.337   5.408   5.190 -3.2504  1.2546 -1.0476
   14MOL0     H 1883   6.273   5.561   5.218 -0.5764 -0.1812 -1.7597
   14MOL0     H 1884   6.483   5.632   5.349  1.0693 -0.9367  0.0202
   14MOL0     H 1885   6.397   5.490   5.424 -0.0249 -1.2969 -1.7408
   14MOL0     H 1886   6.653   5.450   5.260  3.0642  0.5118  2.5288
   14MOL0     H 1887   6.638   5.460   5.444  0.3832  0.9755 -0.3919
   14MOL0     H 1888   6.488   5.288   5.437  1.6443 -1.7172  0.5722
   14MOL0     H 1889   6.493   5.260   5.260  1.1609  0.2933 -1.9001
   14MOL0     H 1890   6.851   5.210   5.506 -0.4999 -0.9462 -2.3342
   14MOL0     H 1891   7.022   5.098   5.625 -2.4278 -1.4612 -2.8660
   14MOL0     H 1892   6.989   4.958   5.728 -0.9141 -0.0139  0.3782
   14MOL0     H 1893   6.929   5.115   5.774  2.4638 -1.4097  2.1522
   14MOL0     H 1894   6.721   4.445   5.764  0.6879  3.5195 -1.0733
   14MOL0     H 1895   6.647   4.335   5.951 -0.2743 -0.5405 -0.5942
   14MOL0     H 1896   6.498   4.226   6.077 -1.4356  0.7343 -5.0608
   14MOL0     H 1897   6.367   4.261   6.194  0.4304  0.2722  0.4125
   14MOL0     H 1898   6.358   4.323   5.895 -2.0281 -2.4499 -1.5803
   14MOL0     H 1899   6.270   4.192   5.975 -0.9298  1.4389 -2.9042
   14MOL0     H 1900   6.221   4.493   6.021 -1.4344  0.8010 -0.7645
   14MOL0     H 1901   6.167   4.380   6.129 -0.7792  1.1669 -0.6991
   14MOL0     H 1902   6.000   4.289   5.989 -0.8163  0.9353 -0.3941
   14MOL0     H 1903   6.072   4.341   5.830  1.0485 -0.9079 -0.0934
   14MOL0     H 1904   6.017   4.581   5.913 -0.7138  0.5687 -2.3047
   14MOL0     H 1905   5.880   4.462   5.883 -1.0210 -0.6640  2.4999
   14MOL0     H 1906   6.012   4.541   6.152  0.0065  0.3929 -1.5034
   14MOL0     H 1907   5.873   4.431   6.125 -1.1165  1.2873  1.7155
   14MOL0     H 1908   5.817   4.661   6.203  0.5058 -0.4266 -0.8408
   14MOL0     H 1909   5.736   4.624   6.046 -2.2182 -0.2844  2.7435
   14MOL0     H 1910   5.814   4.855   6.060 -0.6261 -0.6744 -2.3365
   14MOL0     H 1911   5.886   4.769   5.925  1.9706 -0.0120  0.4392
   14MOL0     H 1912   6.424   4.686   6.080 -0.4318 -1.9870  1.3713
   14MOL0     H 1913   6.517   4.805   5.884 -3.1874 -1.5488 -5.2363
   14MOL0     H 1914   6.544   4.837   5.539 -1.3851  1.9303  1.8906
   14MOL0     H 1915   6.492   5.006   5.388  0.9700 -2.0172 -0.4413
   14MOL0     H 1916   7.452   5.532   4.515 -3.5994  0.8382  0.3120
   14MOL0     H 1917   7.532   5.552   4.747  1.9522 -1.0947  1.6709
   14MOL0     H 1918   7.759   5.193   5.009 -0.8848 -0.7437  0.7795
   14MOL0     H 1919   7.903   5.121   5.142 -0.6783  0.8036 -1.0866
   14MOL0     H 1920   8.009   5.000   5.492  1.1744  0.5073 -0.0094
   14MOL0     H 1921   7.995   5.019   5.321 -1.3521 -0.0120  0.2855
   14MOL0     H 1922   8.161   5.233   5.470  0.3443 -1.4386  1.5455
   14MOL0     H 1923   8.127   5.221   5.300  3.5045  1.5463 -0.6344
   14MOL0     H 1924   8.256   4.980   5.443 -0.8956  1.5250  2.4548
   14MOL0     H 1925   8.249   5.007   5.273 -0.3476  1.9691 -0.7986
   14MOL0     H 1926   8.453   5.067   5.417 -2.9857 -3.5211  0.1394
   14MOL0     H 1927   8.378   5.222   5.456 -1.1496 -0.0609 -0.1023
   14MOL0     H 1928   8.563   5.332   5.017 -1.1237 -1.0778 -1.8758
   14MOL0     H 1929   7.642   5.237   5.487  0.7417  0.8791  0.6995
   14MOL0     H 1930   7.383   5.237   5.389  0.3667 -0.8952 -0.0781
   14MOL0     H 1931   7.457   5.402   5.429 -1.1576  0.2795  0.4563
   14MOL0     H 1932   7.390   5.375   5.279 -0.2266 -1.0653 -0.4784
   15MOL0     O 1933   0.358   6.636   6.091  0.3926 -0.1426  0.2500
   15MOL0     C 1934   0.458   6.620   6.158  0.3894  0.6287  0.2728
   15MOL0     O 1935   0.453   6.579   6.284  0.8801  0.2512  0.4168
   15MOL0     C 1936   0.578   6.546   6.334  0.7730  0.4013 -0.5707
   15MOL0     C 1937   0.619   6.413   6.331  0.1664 -0.1813 -0.1807
   15MOL0     C 1938   0.729   6.376   6.397 -0.6546 -0.2063 -0.4484
   15MOL0     C 1939   0.804   6.469   6.479 -1.2109  0.0920 -0.2031
   15MOL0     O 1940   0.913   6.421   6.546  0.3447 -0.3264  0.0124
   15MOL0     C 1941   1.021   6.421   6.449 -0.1205  0.4587  0.8179
   15MOL0     C 1942   1.126   6.314   6.510 -0.3391 -0.6260 -0.8759
   15MOL0     C 1943   1.130   6.188   6.424  0.5984  0.1643 -0.0779
   15MOL0     C 1944   1.033   6.083   6.473 -0.6154  0.8191  0.8276
   15MOL0     C 1945   1.027   5.955   6.379 -0.7687 -0.3995 -0.3874
   15MOL0     C 1946   0.926   5.848   6.424 -0.4541 -0.2919  0.0635
   15MOL0     C 1947   0.909   5.720   6.345  0.1050 -0.7430 -0.2996
   15MOL0     C 1948   0.989   5.604   6.399 -0.3470 -0.8718  0.4976
   15MOL0     N 1949   0.928   5.478   6.386  0.6966  0.7341  0.3370
   15MOL0     C 1950   0.821   5.424   6.445  1.5521  0.6121 -0.9159
   15MOL0     C 1951   0.821   5.296   6.405 -0.6396 -0.4935  0.4842
   15MOL0     C 1952   0.714   5.202   6.430  0.2176 -1.0855  0.2846
   15MOL0     C 1953   0.747   5.059   6.460 -0.1786  0.3189  0.0540
   15MOL0     C 1954   0.778   4.964   6.339 -0.4303 -0.9617 -0.0770
   15MOL0     C 1955   0.660   4.907   6.274  0.1815  0.6573 -0.6504
   15MOL0     O 1956   0.540   4.991   6.262  0.3429 -0.1057  0.7505
   15MOL0     C 1957   0.510   5.070   6.140 -1.3642  1.1132  0.5222
   15MOL0     C 1958   0.375   5.083   6.101 -0.1090  0.4164  0.2638
   15MOL0     C 1959   0.343   5.149   5.977 -0.6775  0.8772  0.1112
   15MOL0     C 1960   0.195   5.148   5.949  0.7073 -0.6762  0.0076
   15MOL0     C 1961   0.444   5.204   5.895 -0.0169 -1.2203 -0.6642
   15MOL0     C 1962   0.414   5.274   5.765  0.4386  0.3252 -0.1392
   15MOL0     O 1963   0.521   5.330   5.706 -0.1745  0.0806 -0.7270
   15MOL0     C 1964   0.489   5.383   5.586  0.3409  1.4524 -0.0858
   15MOL0     C 1965   0.482   5.517   5.577  0.9700 -0.4647  0.5076
   15MOL0     C 1966   0.450   5.579   5.456  0.5179  0.3766 -0.3934
   15MOL0     C 1967   0.398   5.513   5.347 -0.0924 -0.4543  0.5410
   15MOL0     O 1968   0.352   5.589   5.240  0.1798 -0.9750 -1.0190
   15MOL0     C 1969   0.361   5.524   5.119 -0.1682  0.0671 -0.5053
   15MOL0     C 1970   0.326   5.624   5.013  0.3140  1.4875 -0.4270
   15MOL0     C 1971   0.409   5.609   4.886 -0.3472  0.4713  0.0678
   15MOL0     C 1972   0.347   5.686   4.769 -0.5613  0.2015  0.9983
   15MOL0     C 1973   0.447   5.707   4.651 -0.4018 -0.2232 -0.1546
   15MOL0     C 1974   0.494   5.576   4.574 -0.4384 -0.6242 -0.4020
   15MOL0     C 1975   0.379   5.475   4.543  0.0611 -1.8670  0.2623
   15MOL0     C 1976   0.446   5.350   4.490 -0.1286  0.5054  0.2312
   15MOL0    Cl 1977   0.561   5.380   4.350  0.3842  0.1629  0.2881
   15MOL0     C 1978   0.406   5.366   5.354 -0.1421 -0.0308  0.1860
   15MOL0     C 1979   0.456   5.300   5.467  1.0595 -0.0026 -0.1386
   15MOL0     O 1980   0.295   5.289   5.731 -0.8388  0.5074 -0.0587
   15MOL0     C 1981   0.579   5.184   5.944  0.0174  0.0667  0.4469
   15MOL0     C 1982   0.611   5.129   6.067  0.2791  0.2536  0.2560
   15MOL0     N 1983   0.934   5.267   6.335 -0.1261 -0.1494  0.8559
   15MOL0     N 1984   1.007   5.372   6.335  0.9507  0.1089 -0.4804
   15MOL0     C 1985   0.770   6.615   6.484 -0.0084  0.7649  0.3091
   15MOL0     C 1986   0.659   6.644   6.407 -0.4725 -0.3205 -0.6141
   15MOL0     C 1987   0.580   6.632   6.078 -0.4775 -0.0921  0.3559
   15MOL0     C 1988   0.684   6.720   6.122  1.0004 -0.1865 -0.3654
   15MOL0     C 1989   0.808   6.716   6.052 -1.0138  0.3477  0.4903
   15MOL0     C 1990   0.842   6.637   5.949 -0.2634 -0.0487  0.5619
   15MOL0     O 1991   0.958   6.653   5.890  1.1633 -0.0274 -0.0200
   15MOL0     C 1992   0.965   6.655   5.739  0.0121  0.7362  0.1715
   15MOL0     C 1993   0.917   6.776   5.663 -0.6931  0.2151  0.0366
   15MOL0     C 1994   0.980   6.802   5.525 -0.1216  0.2359  0.1376
   15MOL0     C 1995   0.955   6.687   5.436  0.4782  0.3211 -1.1610
   15MOL0     C 1996   0.999   6.714   5.301 -0.7193  0.4022  0.5174
   15MOL0     C 1997   1.035   6.743   5.191 -0.6202 -0.3669 -0.6435
   15MOL0     C 1998   0.735   6.557   5.903 -0.3823 -1.0384  0.1048
   15MOL0     C 1999   0.615   6.551   5.967 -0.0333  0.8541 -0.7483
   15MOL0     C 2000   0.509   6.454   5.913 -0.0927  0.1317 -0.2685
   15MOL0     H 2001   0.563   6.338   6.276  0.1300 -0.0148 -0.3727
   15MOL0     H 2002   0.762   6.273   6.394 -1.0885 -0.5569  3.0728
   15MOL0     H 2003   1.061   6.522   6.438  5.7350 -1.4587  1.0740
   15MOL0     H 2004   0.987   6.395   6.349  0.9168 -1.3850  0.9201
   15MOL0     H 2005   1.220   6.371   6.510 -1.0986  0.6537 -0.3959
   15MOL0     H 2006   1.104   6.299   6.616 -0.2004  1.8304 -0.4484
   15MOL0     H 2007   1.109   6.218   6.321 -1.8042 -2.0594 -0.3379
   15MOL0     H 2008   1.224   6.132   6.424 -0.4131 -1.6654  1.8474
   15MOL0     H 2009   1.057   6.047   6.573 -1.2488 -4.7522 -0.6932
   15MOL0     H 2010   0.938   6.137   6.484 -1.5987 -0.5865 -0.3227
   15MOL0     H 2011   1.129   5.914   6.373 -0.3806 -0.7264  4.2488
   15MOL0     H 2012   0.999   5.988   6.279 -0.9670  2.3578  0.5137
   15MOL0     H 2013   0.960   5.817   6.523 -1.8156 -1.6873  0.1285
   15MOL0     H 2014   0.822   5.882   6.428 -0.9267 -1.4282 -1.6017
   15MOL0     H 2015   0.951   5.739   6.246  2.0172 -1.2540  0.3485
   15MOL0     H 2016   0.802   5.701   6.336 -0.0152  0.1947 -0.9258
   15MOL0     H 2017   1.092   5.601   6.362 -1.1390 -0.7260 -1.8837
   15MOL0     H 2018   0.998   5.612   6.508 -0.7040  1.3762  0.4070
   15MOL0     H 2019   0.750   5.469   6.513  2.1758  0.7051 -0.3222
   15MOL0     H 2020   0.655   5.208   6.338  0.7163  0.1112  0.0304
   15MOL0     H 2021   0.648   5.236   6.510 -0.1848 -0.6687 -0.2127
   15MOL0     H 2022   0.834   5.055   6.527  2.8163 -1.7887 -3.5646
   15MOL0     H 2023   0.657   5.024   6.511  0.2300  1.9594  2.0354
   15MOL0     H 2024   0.830   5.027   6.266 -2.0622  0.2366 -0.2594
   15MOL0     H 2025   0.833   4.881   6.385 -2.5105 -1.0421  2.4746
   15MOL0     H 2026   0.689   4.870   6.175 -0.7883 -1.7308 -0.1210
   15MOL0     H 2027   0.636   4.812   6.322 -1.5511  0.2311 -2.2391
   15MOL0     H 2028   0.307   5.016   6.152 -1.8024 -0.4797 -2.8805
   15MOL0     H 2029   0.136   5.104   6.030 -0.8897 -0.0453 -0.7638
   15MOL0     H 2030   0.164   5.080   5.870  0.0572 -0.5486  0.1490
   15MOL0     H 2031   0.147   5.237   5.907 -1.6025 -1.2284  1.3051
   15MOL0     H 2032   0.505   5.577   5.665  0.6572 -1.3206  1.1790
   15MOL0     H 2033   0.451   5.688   5.447  1.0379  0.6719  2.4304
   15MOL0     H 2034   0.465   5.491   5.104  1.0174  2.7907  0.9940
   15MOL0     H 2035   0.292   5.440   5.110 -1.7483  1.2486  0.0842
   15MOL0     H 2036   0.218   5.618   4.994 -0.1219  1.4388  1.7981
   15MOL0     H 2037   0.351   5.723   5.051 -2.4300  2.1075 -0.0602
   15MOL0     H 2038   0.399   5.501   4.868  0.8939 -0.1929  2.7527
   15MOL0     H 2039   0.515   5.634   4.898  0.5807 -3.0877  0.5311
   15MOL0     H 2040   0.329   5.792   4.789  0.1264  0.3728  0.7596
   15MOL0     H 2041   0.253   5.643   4.735 -2.2696  3.9028  0.5635
   15MOL0     H 2042   0.410   5.776   4.576 -2.0339 -3.3560 -2.4618
   15MOL0     H 2043   0.529   5.751   4.708  0.7776 -2.7819  0.2717
   15MOL0     H 2044   0.568   5.521   4.633  0.6601 -0.3363 -1.4691
   15MOL0     H 2045   0.555   5.607   4.488  2.0778 -1.8799  0.8266
   15MOL0     H 2046   0.304   5.502   4.468 -0.9445  0.0197  1.8562
   15MOL0     H 2047   0.324   5.462   4.636  2.1695  2.2632  2.3705
   15MOL0     H 2048   0.368   5.281   4.457  0.1055  1.8897 -3.7508
   15MOL0     H 2049   0.511   5.303   4.565  2.3095  2.5163 -0.4751
   15MOL0     H 2050   0.370   5.308   5.270 -1.1082  0.2106  0.4145
   15MOL0     H 2051   0.450   5.191   5.465 -1.1125  0.0768 -1.0271
   15MOL0     H 2052   0.658   5.215   5.876  1.1234 -2.5604  0.4164
   15MOL0     H 2053   0.714   5.134   6.100 -0.2170  0.2001  1.9232
   15MOL0     H 2054   0.822   6.684   6.549  1.7742 -0.2787  0.0610
   15MOL0     H 2055   0.618   6.744   6.399 -1.8480 -0.9511 -1.8988
   15MOL0     H 2056   0.674   6.784   6.209 -0.2728 -0.2344 -0.4456
   15MOL0     H 2057   0.891   6.781   6.075  1.2090 -3.1908  3.7116
   15MOL0     H 2058   1.072   6.668   5.725 -0.0506  0.9728 -0.1016
   15MOL0     H 2059   0.937   6.562   5.690  1.7158 -1.4924  3.0843
   15MOL0     H 2060   0.934   6.862   5.728  1.2046  0.7913 -1.1302
   15MOL0     H 2061   0.808   6.766   5.659 -0.7086 -0.2989  1.2287
   15MOL0     H 2062   0.935   6.893   5.485  0.9496  1.2129  1.0695
   15MOL0     H 2063   1.084   6.830   5.541 -0.8801  4.2517 -0.7673
   15MOL0     H 2064   0.848   6.671   5.424  0.1406  1.5431  0.0215
   15MOL0     H 2065   0.998   6.594   5.476  1.6663  0.4743 -2.0182
   15MOL0     H 2066   1.077   6.775   5.097 -1.3484  1.3038 -0.4240
   15MOL0     H 2067   0.751   6.505   5.809  1.6999 -1.8102  0.8128
   15MOL0     H 2068   0.410   6.492   5.887 -0.5819 -1.7536 -1.3576
   15MOL0     H 2069   0.555   6.404   5.827  2.0296  1.4576 -0.0006
   15MOL0     H 2070   0.489   6.388   5.998 -4.2878  1.0935 -0.3301
   16MOL0     O 2071   1.459   7.002   0.637  0.1477 -0.8780  0.3319
   16MOL0     C 2072   1.478   7.077   0.540 -0.6425  1.1447  0.2408
   16MOL0     O 2073   1.541   7.039   0.419  0.0507  0.0191  0.1735
   16MOL0     C 2074   1.576   6.914   0.374  0.5754 -0.3057  0.3558
   16MOL0     C 2075   1.569   6.898   0.232  0.4750 -0.6260 -0.6621
   16MOL0     C 2076   1.607   6.777   0.167 -0.4069  0.1529 -0.3022
   16MOL0     C 2077   1.646   6.667   0.245  0.0355  0.4147 -0.4829
   16MOL0     O 2078   1.686   6.554   0.189 -0.6959  0.6427 -0.3624
   16MOL0     C 2079   1.602   6.478   0.098 -0.5796 -0.2095  0.0023
   16MOL0     C 2080   1.678   6.346   0.060 -0.8019 -0.2066 -0.0429
   16MOL0     C 2081   1.808   6.369  -0.017  0.4036 -0.9135  0.5382
   16MOL0     C 2082   1.787   6.385  -0.167 -0.1922  0.7794  1.3494
   16MOL0     C 2083   1.926   6.368  -0.238  0.0074 -0.2159 -0.7189
   16MOL0     C 2084   1.909   6.353  -0.383 -0.8318  0.1216 -0.1530
   16MOL0     C 2085   2.043   6.377  -0.444  0.0143  0.1927 -0.1326
   16MOL0     C 2086   2.139   6.254  -0.433  0.6581  0.0690 -0.2097
   16MOL0     N 2087   2.267   6.274  -0.489 -0.3380 -0.9653 -0.8080
   16MOL0     C 2088   2.295   6.341  -0.604 -0.3296  0.1995  0.2674
   16MOL0     C 2089   2.421   6.380  -0.591 -0.7670  0.4727 -1.3462
   16MOL0     C 2090   2.501   6.469  -0.681  1.1825 -0.5703  0.8316
   16MOL0     C 2091   2.610   6.391  -0.753  0.0487 -0.0297 -0.0787
   16MOL0     C 2092   2.559   6.287  -0.861  0.4391  0.2263 -0.2170
   16MOL0     C 2093   2.685   6.202  -0.899  0.0310 -0.6490 -0.1896
   16MOL0     O 2094   2.791   6.281  -0.969 -0.4049 -0.9998 -0.7628
   16MOL0     C 2095   2.904   6.215  -1.005 -0.5033 -0.7150 -0.0911
   16MOL0     C 2096   2.935   6.078  -1.004 -0.3243  0.1432  0.4852
   16MOL0     C 2097   3.065   6.030  -1.040 -0.4429 -0.3299 -0.1539
   16MOL0     C 2098   3.081   5.880  -1.060  0.0024 -0.5386 -0.0516
   16MOL0     C 2099   3.164   6.126  -1.074  0.2589  0.2847 -1.4951
   16MOL0     C 2100   3.309   6.098  -1.083 -0.3304  0.0685 -0.7630
   16MOL0     O 2101   3.352   5.970  -1.065  0.0855  0.1458 -0.1663
   16MOL0     C 2102   3.483   5.945  -1.038 -0.0251  1.1537 -0.0376
   16MOL0     C 2103   3.592   5.974  -1.130 -0.8332 -0.0783  0.1731
   16MOL0     C 2104   3.720   5.939  -1.103  0.3484 -1.0816 -0.1170
   16MOL0     C 2105   3.742   5.873  -0.976 -0.4355 -0.0034  0.0147
   16MOL0     O 2106   3.871   5.857  -0.940 -0.6383 -0.5579  0.2891
   16MOL0     C 2107   3.906   5.726  -0.913 -0.0631  0.2619 -0.1518
   16MOL0     C 2108   4.053   5.697  -0.946 -0.9580 -0.1972 -0.5941
   16MOL0     C 2109   4.156   5.721  -0.837 -1.0632  0.3610 -0.3063
   16MOL0     C 2110   4.158   5.613  -0.729  0.0243 -0.2430 -0.5941
   16MOL0     C 2111   4.251   5.636  -0.607 -1.0036 -0.2092 -0.6702
   16MOL0     C 2112   4.230   5.761  -0.518 -1.0466  0.4459  0.0899
   16MOL0     C 2113   4.361   5.810  -0.453  0.9926  0.5903 -0.6963
   16MOL0     C 2114   4.344   5.959  -0.408 -0.2970  0.5136 -0.8378
   16MOL0    Cl 2115   4.222   5.983  -0.284  0.0466 -0.6422 -0.1907
   16MOL0     C 2116   3.640   5.849  -0.885  1.0586 -0.5890 -0.1142
   16MOL0     C 2117   3.516   5.902  -0.904  0.6584  0.1319  1.0249
   16MOL0     O 2118   3.390   6.191  -1.104  0.6831 -0.5709 -0.4896
   16MOL0     C 2119   3.124   6.263  -1.069 -0.4754  0.1400 -0.7749
   16MOL0     C 2120   2.996   6.303  -1.043 -0.4884 -0.6038 -0.4326
   16MOL0     N 2121   2.475   6.310  -0.477 -0.6234 -0.6324  0.3629
   16MOL0     N 2122   2.378   6.245  -0.423 -0.8679  0.2056  0.7311
   16MOL0     C 2123   1.639   6.678   0.378  0.3939 -0.1786  0.2196
   16MOL0     C 2124   1.614   6.808   0.442  0.8914  1.2004  0.0720
   16MOL0     C 2125   1.473   7.222   0.558 -0.5157  0.4747  0.0067
   16MOL0     C 2126   1.511   7.308   0.451 -0.8212 -0.3559 -0.2902
   16MOL0     C 2127   1.501   7.445   0.464  0.0694  0.4541 -0.3921
   16MOL0     C 2128   1.460   7.514   0.582 -0.8588  0.2510 -0.3464
   16MOL0     O 2129   1.435   7.646   0.607  0.5365  0.5374  0.3608
   16MOL0     C 2130   1.394   7.730   0.494 -0.6028 -0.0474 -0.7324
   16MOL0     C 2131   1.376   7.872   0.551 -0.3108 -0.2656  0.1431
   16MOL0     C 2132   1.313   7.887   0.689  0.4286  1.1660 -0.5568
   16MOL0     C 2133   1.305   8.041   0.725 -0.1235  0.6703 -0.1996
   16MOL0     C 2134   1.217   8.108   0.625 -0.0190  1.4028 -0.1746
   16MOL0     C 2135   1.153   8.175   0.547 -0.0323 -0.1658 -0.1897
   16MOL0     C 2136   1.411   7.433   0.682  0.5578 -0.1200  0.2729
   16MOL0     C 2137   1.423   7.291   0.674  0.1789  0.8853 -0.7392
   16MOL0     C 2138   1.357   7.218   0.796 -0.6197  0.0142  0.2961
   16MOL0     H 2139   1.536   6.978   0.167  0.2500  1.5923  1.9940
   16MOL0     H 2140   1.595   6.769   0.060 -2.5659 -0.3546 -0.0859
   16MOL0     H 2141   1.585   6.538   0.008 -0.6344 -0.4915 -0.1768
   16MOL0     H 2142   1.500   6.461   0.132 -1.9433  2.7910 -2.0749
   16MOL0     H 2143   1.696   6.283   0.148 -0.1645 -0.5464 -0.4113
   16MOL0     H 2144   1.607   6.287   0.001  1.7255 -2.7272 -0.7931
   16MOL0     H 2145   1.860   6.458   0.020 -0.2565  0.3985 -1.5346
   16MOL0     H 2146   1.879   6.286  -0.008  2.7482  0.8848 -0.2616
   16MOL0     H 2147   1.717   6.311  -0.208  1.0339 -1.2415  2.7107
   16MOL0     H 2148   1.747   6.486  -0.176 -3.0231 -0.0076  3.3935
   16MOL0     H 2149   1.966   6.273  -0.201 -1.8337 -0.1235  1.7718
   16MOL0     H 2150   1.994   6.446  -0.203  1.0278 -2.3454  2.5351
   16MOL0     H 2151   1.869   6.259  -0.422 -0.2908  0.7186 -2.2435
   16MOL0     H 2152   1.837   6.428  -0.415 -1.4643  0.0476  1.0134
   16MOL0     H 2153   2.081   6.476  -0.417 -1.0190  1.2103 -2.2078
   16MOL0     H 2154   2.027   6.376  -0.552  0.5318 -2.0619 -0.2390
   16MOL0     H 2155   2.162   6.243  -0.326 -2.8930 -1.6477  0.5098
   16MOL0     H 2156   2.104   6.157  -0.471  1.4204 -0.6274  0.8001
   16MOL0     H 2157   2.228   6.372  -0.683 -0.1431  3.2220  1.1636
   16MOL0     H 2158   2.551   6.547  -0.623 -0.7015  0.7861  0.7330
   16MOL0     H 2159   2.433   6.526  -0.746 -1.2484 -2.4721  1.5420
   16MOL0     H 2160   2.673   6.468  -0.798 -2.9944  2.9679  0.4558
   16MOL0     H 2161   2.673   6.334  -0.683 -0.1196  2.1209  1.9446
   16MOL0     H 2162   2.479   6.223  -0.823  2.8439 -1.8951  1.5736
   16MOL0     H 2163   2.523   6.346  -0.947 -1.8148  0.4365  0.8007
   16MOL0     H 2164   2.707   6.148  -0.807  0.4248 -1.5380 -0.7890
   16MOL0     H 2165   2.660   6.136  -0.983 -1.3311 -2.9343  1.8924
   16MOL0     H 2166   2.856   6.004  -0.996  1.6975 -1.9484  1.9815
   16MOL0     H 2167   3.143   5.833  -0.983 -0.4906  1.2266  1.4887
   16MOL0     H 2168   3.115   5.867  -1.163 -3.0885  5.5002 -2.2847
   16MOL0     H 2169   2.985   5.830  -1.047 -1.5042  1.6397 -2.0804
   16MOL0     H 2170   3.583   6.022  -1.227  6.6819 -0.7944 -1.4899
   16MOL0     H 2171   3.802   5.973  -1.165  0.9404  0.3154  1.3612
   16MOL0     H 2172   3.896   5.721  -0.804  2.2742  0.5773  0.1380
   16MOL0     H 2173   3.838   5.651  -0.953 -2.2914  1.9390  0.3124
   16MOL0     H 2174   4.067   5.601  -0.996  2.7406 -0.9293  1.5190
   16MOL0     H 2175   4.072   5.778  -1.016 -1.5765  1.5865  1.1834
   16MOL0     H 2176   4.121   5.812  -0.788  0.9613 -0.1115  2.2077
   16MOL0     H 2177   4.256   5.731  -0.881 -1.8735  0.5724 -2.2070
   16MOL0     H 2178   4.187   5.515  -0.767 -2.1458 -1.9538  1.7887
   16MOL0     H 2179   4.064   5.598  -0.674  1.6633 -1.6912  1.9700
   16MOL0     H 2180   4.265   5.544  -0.549 -0.6841 -0.7471 -1.5758
   16MOL0     H 2181   4.356   5.648  -0.637 -0.4036 -0.7141  1.1130
   16MOL0     H 2182   4.170   5.727  -0.433 -0.0305 -0.6856  0.3781
   16MOL0     H 2183   4.184   5.846  -0.569 -1.0826  0.1120 -0.4450
   16MOL0     H 2184   4.437   5.811  -0.532  3.4919  0.7924  1.5842
   16MOL0     H 2185   4.386   5.747  -0.367 -1.2508 -0.1287 -0.5034
   16MOL0     H 2186   4.335   6.024  -0.496  4.5742 -0.1684 -2.1490
   16MOL0     H 2187   4.438   5.980  -0.356  2.2957 -7.0750 -1.3278
   16MOL0     H 2188   3.663   5.801  -0.791 -1.2864 -0.1148  0.7780
   16MOL0     H 2189   3.427   5.898  -0.841 -2.1147 -1.1320 -2.6420
   16MOL0     H 2190   3.207   6.333  -1.080  1.0087 -1.1307  1.5527
   16MOL0     H 2191   2.962   6.402  -1.069  0.0808  0.6165  2.9133
   16MOL0     H 2192   1.667   6.593   0.439  1.4676 -1.3047 -1.7359
   16MOL0     H 2193   1.632   6.811   0.549  0.9779 -0.0219  0.0980
   16MOL0     H 2194   1.540   7.263   0.357 -0.9070 -0.5912 -0.2045
   16MOL0     H 2195   1.524   7.505   0.377  0.1404 -1.2825 -1.6138
   16MOL0     H 2196   1.478   7.737   0.424  1.3838  0.4497  1.5404
   16MOL0     H 2197   1.301   7.690   0.454 -0.9772 -1.3412  1.2440
   16MOL0     H 2198   1.322   7.927   0.473  3.2476  3.3380 -0.1456
   16MOL0     H 2199   1.480   7.905   0.564 -0.8475  0.4946  3.2996
   16MOL0     H 2200   1.211   7.851   0.700  1.7782 -2.4374  2.4240
   16MOL0     H 2201   1.367   7.827   0.763 -2.1731 -0.9525 -0.2575
   16MOL0     H 2202   1.399   8.095   0.715 -0.6756  2.0970  1.8272
   16MOL0     H 2203   1.263   8.057   0.825 -2.6892  0.1922 -1.1059
   16MOL0     H 2204   1.087   8.217   0.473 -3.0129 -1.2233  1.6816
   16MOL0     H 2205   1.367   7.480   0.770  1.6613  3.2186 -0.7909
   16MOL0     H 2206   1.335   7.282   0.882 -3.0235 -2.9047  2.0455
   16MOL0     H 2207   1.264   7.171   0.765 -1.5214  0.0063  2.7719
   16MOL0     H 2208   1.423   7.140   0.836 -2.0951 -1.0625  0.6885
   17MOL0     O 2209   4.223   3.467  10.875  0.7210  0.5253 -0.0351
   17MOL0     C 2210   4.326   3.485  10.924  0.0918  0.9485 -0.0944
   17MOL0     O 2211   4.403   3.600  10.921 -0.2746 -0.7728 -0.0183
   17MOL0     C 2212   4.386   3.694  10.825 -1.1375 -0.3526  0.3985
   17MOL0     C 2213   4.297   3.694  10.712 -0.2172 -0.1240 -0.2297
   17MOL0     C 2214   4.292   3.789  10.609  0.5544 -0.3193  0.8588
   17MOL0     C 2215   4.361   3.911  10.625 -0.5029 -0.7557 -0.3305
   17MOL0     O 2216   4.354   4.031  10.559 -0.0838  0.4618  0.4215
   17MOL0     C 2217   4.253   4.076  10.464  0.4896 -0.0648 -1.1840
   17MOL0     C 2218   4.321   4.156  10.339  0.0525 -0.1723  0.0877
   17MOL0     C 2219   4.298   4.310  10.350 -0.3329 -0.2693 -0.0476
   17MOL0     C 2220   4.392   4.392  10.263 -0.3061 -0.8558  0.5874
   17MOL0     C 2221   4.340   4.527  10.274  0.1921 -0.8145 -0.0879
   17MOL0     C 2222   4.417   4.619  10.179  0.5578 -1.0009  0.5734
   17MOL0     C 2223   4.379   4.772  10.213 -0.1237 -0.5254 -0.4212
   17MOL0     C 2224   4.244   4.809  10.143 -0.9756  0.6356  0.4700
   17MOL0     N 2225   4.163   4.929  10.191 -0.3327 -0.2913 -0.3408
   17MOL0     C 2226   4.029   4.936  10.166  0.0344 -0.1125  0.3097
   17MOL0     C 2227   3.994   5.064  10.194 -0.2661  0.9303 -0.0774
   17MOL0     C 2228   3.858   5.133  10.201 -0.0894  0.6827 -0.5232
   17MOL0     C 2229   3.822   5.204  10.062 -0.2444 -0.8877 -0.4571
   17MOL0     C 2230   3.720   5.317  10.064 -0.5754  0.0710 -0.1492
   17MOL0     C 2231   3.684   5.352   9.919 -0.4920  0.6386  0.2664
   17MOL0     O 2232   3.794   5.359   9.836  0.7841 -1.0841 -0.0600
   17MOL0     C 2233   3.867   5.478   9.821 -0.6866 -0.1636  0.1883
   17MOL0     C 2234   3.976   5.466   9.722 -0.1167 -0.2341  0.0132
   17MOL0     C 2235   4.056   5.579   9.699  0.1274 -0.2856  0.1017
   17MOL0     C 2236   4.186   5.567   9.613 -0.2892  0.7184  0.4714
   17MOL0     C 2237   4.011   5.700   9.770 -0.1222  0.4890 -0.0012
   17MOL0     C 2238   4.077   5.826   9.739 -0.4162  0.1260 -1.2331
   17MOL0     O 2239   4.055   5.888   9.614  0.1695  0.3255 -0.9638
   17MOL0     C 2240   4.148   5.984   9.578 -0.9356 -0.5486  0.1803
   17MOL0     C 2241   4.271   5.961   9.499  0.8363 -0.3834  0.2972
   17MOL0     C 2242   4.346   6.061   9.443 -0.0490  0.6460 -0.2965
   17MOL0     C 2243   4.313   6.192   9.469 -0.9003 -0.7370 -0.0241
   17MOL0     O 2244   4.382   6.304   9.424 -0.1401 -1.5494 -0.3270
   17MOL0     C 2245   4.523   6.293   9.416 -0.0357 -0.7445  0.0455
   17MOL0     C 2246   4.593   6.424   9.424 -0.5024 -0.7142  0.1836
   17MOL0     C 2247   4.581   6.472   9.571 -0.8227  1.0063 -0.5742
   17MOL0     C 2248   4.458   6.566   9.591 -0.3878  0.5143  1.0340
   17MOL0     C 2249   4.443   6.622   9.723 -0.1177 -0.3379  0.1968
   17MOL0     C 2250   4.565   6.712   9.749 -0.4489 -0.8162  0.4732
   17MOL0     C 2251   4.540   6.816   9.851  1.0675  0.7170 -0.2257
   17MOL0     C 2252   4.672   6.836   9.927 -0.5435  0.1272 -1.1368
   17MOL0    Cl 2253   4.804   6.870   9.809 -0.5048  0.4094 -0.2841
   17MOL0     C 2254   4.207   6.220   9.550  0.0969 -0.0499  0.8899
   17MOL0     C 2255   4.121   6.120   9.592  1.4541 -0.6296  0.0440
   17MOL0     O 2256   4.146   5.866   9.832 -0.0807 -0.6072  0.0029
   17MOL0     C 2257   3.912   5.696   9.865 -0.4855 -0.6968 -0.8585
   17MOL0     C 2258   3.851   5.587   9.899 -0.1939  0.2339 -0.6042
   17MOL0     N 2259   4.098   5.121  10.255  0.6344 -0.4035 -0.6908
   17MOL0     N 2260   4.208   5.044  10.249  0.1955  0.2752  0.8166
   17MOL0     C 2261   4.456   3.914  10.729  0.0851 -0.2973 -0.4916
   17MOL0     C 2262   4.468   3.806  10.824 -0.9340 -0.3538 -0.2721
   17MOL0     C 2263   4.387   3.371  11.000 -0.3580 -0.1672  0.4270
   17MOL0     C 2264   4.529   3.362  11.027  0.6423 -0.4119  0.5070
   17MOL0     C 2265   4.590   3.269  11.110  0.4226 -0.0310 -0.5618
   17MOL0     C 2266   4.506   3.170  11.158 -0.8008 -0.4376 -0.8208
   17MOL0     O 2267   4.571   3.073  11.234 -0.2535 -0.1850  0.6496
   17MOL0     C 2268   4.508   2.986  11.323 -0.1139 -0.6060  0.4703
   17MOL0     C 2269   4.459   2.865  11.239 -0.1418  0.3598 -0.0679
   17MOL0     C 2270   4.331   2.813  11.295 -0.1724 -0.0139 -0.2560
   17MOL0     C 2271   4.264   2.736  11.183  0.4062 -0.3067  0.6649
   17MOL0     C 2272   4.174   2.809  11.092 -0.4361 -0.7394 -0.2646
   17MOL0     C 2273   4.114   2.878  11.007 -1.5859 -0.0645 -0.0226
   17MOL0     C 2274   4.362   3.180  11.147 -0.4161 -0.0688  0.0637
   17MOL0     C 2275   4.307   3.272  11.065  0.7141 -0.4984 -0.3219
   17MOL0     C 2276   4.155   3.258  11.055 -0.0876 -0.9591 -1.4799
   17MOL0     H 2277   4.242   3.600  10.700  0.3839 -0.6577  1.0266
   17MOL0     H 2278   4.221   3.779  10.527 -2.0135 -1.1072  3.0283
   17MOL0     H 2279   4.196   4.143  10.529  0.6016 -1.9889  1.0182
   17MOL0     H 2280   4.182   4.001  10.428 -0.8343 -0.3845  1.8452
   17MOL0     H 2281   4.428   4.134  10.333  0.2646  0.7810  0.2687
   17MOL0     H 2282   4.279   4.104  10.252 -1.5634 -2.0818  1.8876
   17MOL0     H 2283   4.193   4.322  10.320 -0.0657 -1.3909 -1.5163
   17MOL0     H 2284   4.289   4.338  10.456 -0.4114  0.4214 -0.2287
   17MOL0     H 2285   4.496   4.388  10.298 -0.0631  1.2629  0.2465
   17MOL0     H 2286   4.381   4.347  10.165 -1.1798 -3.4142  1.7801
   17MOL0     H 2287   4.357   4.566  10.375 -0.5501  3.3859 -1.3887
   17MOL0     H 2288   4.232   4.533  10.263  0.3182 -1.0230 -1.6168
   17MOL0     H 2289   4.524   4.596  10.176  0.1284 -3.1258 -2.3064
   17MOL0     H 2290   4.407   4.598  10.073 -0.0863  0.8583  0.2228
   17MOL0     H 2291   4.455   4.844  10.182 -0.3499 -0.6616 -1.3044
   17MOL0     H 2292   4.365   4.771  10.322  0.0311 -4.9114 -0.2793
   17MOL0     H 2293   4.263   4.840  10.040 -0.3690 -2.4710 -0.4598
   17MOL0     H 2294   4.166   4.733  10.147 -1.1082  0.6171 -1.6621
   17MOL0     H 2295   3.965   4.856  10.131  1.5750 -2.0798  1.7643
   17MOL0     H 2296   3.872   5.215  10.271  0.9142 -0.0276  0.1351
   17MOL0     H 2297   3.776   5.069  10.234 -0.2721 -0.3276 -2.7097
   17MOL0     H 2298   3.919   5.248  10.036  1.3178 -2.6748  1.9343
   17MOL0     H 2299   3.786   5.132   9.988  0.0313  0.1396 -1.6349
   17MOL0     H 2300   3.634   5.279  10.120 -0.8361 -2.8578 -2.2683
   17MOL0     H 2301   3.758   5.400  10.124  0.7577  0.0571 -0.9381
   17MOL0     H 2302   3.617   5.276   9.879  0.8313 -0.0254 -0.7339
   17MOL0     H 2303   3.615   5.437   9.925 -1.2881 -0.0774  1.9524
   17MOL0     H 2304   3.995   5.367   9.683 -1.4088  0.2442 -1.9552
   17MOL0     H 2305   4.150   5.542   9.513  0.2499 -2.6901  1.0263
   17MOL0     H 2306   4.253   5.484   9.637 -0.3762 -0.0122 -1.6496
   17MOL0     H 2307   4.245   5.659   9.615 -0.1332  0.6099  1.1578
   17MOL0     H 2308   4.294   5.861   9.462  1.8337  0.1782 -0.6717
   17MOL0     H 2309   4.436   6.021   9.398 -1.1475  0.2617 -2.2329
   17MOL0     H 2310   4.557   6.221   9.492  0.3305  0.1408  0.7431
   17MOL0     H 2311   4.556   6.251   9.321 -0.2477 -6.0930  1.9576
   17MOL0     H 2312   4.695   6.407   9.388 -1.2230  0.3325 -2.6260
   17MOL0     H 2313   4.554   6.489   9.345 -1.0556 -1.4421 -0.1483
   17MOL0     H 2314   4.678   6.514   9.600 -0.6750 -0.1130  0.6911
   17MOL0     H 2315   4.586   6.393   9.647  3.3833 -0.6137 -2.1864
   17MOL0     H 2316   4.368   6.510   9.565  1.4926 -1.9177 -0.8709
   17MOL0     H 2317   4.463   6.649   9.520  3.9768 -0.7560 -0.4957
   17MOL0     H 2318   4.348   6.671   9.700 -0.7460 -1.3492  0.5455
   17MOL0     H 2319   4.430   6.551   9.805  0.1642 -1.4757 -0.7186
   17MOL0     H 2320   4.595   6.757   9.654 -1.2888  0.7264  0.9161
   17MOL0     H 2321   4.648   6.652   9.788  1.0391  0.7108 -0.1841
   17MOL0     H 2322   4.458   6.781   9.914  1.8936 -0.5446  0.1977
   17MOL0     H 2323   4.514   6.901   9.788 -5.1189 -0.3552  0.2936
   17MOL0     H 2324   4.703   6.759   9.999  3.8683  3.1787  0.6965
   17MOL0     H 2325   4.660   6.921   9.995 -1.3854 -0.6340 -0.3043
   17MOL0     H 2326   4.184   6.322   9.578 -0.4550  0.0088  0.2409
   17MOL0     H 2327   4.028   6.145   9.641  1.4131 -0.9848  0.1482
   17MOL0     H 2328   3.878   5.789   9.909  1.5316 -1.0158  1.6147
   17MOL0     H 2329   3.787   5.590   9.986  1.3631 -0.5194  0.6024
   17MOL0     H 2330   4.529   3.990  10.754 -3.3269  2.8908  0.7070
   17MOL0     H 2331   4.542   3.818  10.903 -0.5135 -0.5853 -0.6301
   17MOL0     H 2332   4.589   3.441  10.983 -0.6506  2.2480  3.1715
   17MOL0     H 2333   4.697   3.253  11.116  0.4291  0.5075  1.5439
   17MOL0     H 2334   4.586   2.939  11.384  2.0467 -0.5560 -2.0602
   17MOL0     H 2335   4.427   3.019  11.388 -0.6284 -1.6823  0.3967
   17MOL0     H 2336   4.531   2.782  11.246 -1.8615 -1.1351  0.7952
   17MOL0     H 2337   4.440   2.905  11.139 -1.3472 -1.3160 -0.5679
   17MOL0     H 2338   4.348   2.755  11.385  0.5932  1.8078  0.8419
   17MOL0     H 2339   4.269   2.900  11.318 -0.2336 -0.5004  1.5568
   17MOL0     H 2340   4.197   2.662  11.228 -2.3420  0.8453 -1.2661
   17MOL0     H 2341   4.339   2.667  11.141 -1.2591 -3.2092  2.1210
   17MOL0     H 2342   4.084   2.945  10.928  3.6107  2.8127 -0.0048
   17MOL0     H 2343   4.302   3.107  11.200  0.9126 -1.4938 -0.3241
   17MOL0     H 2344   4.097   3.351  11.043  2.4890  0.5375 -3.4406
   17MOL0     H 2345   4.131   3.205  10.962 -3.2569  0.0687 -1.3825
   17MOL0     H 2346   4.109   3.206  11.139  0.1760 -0.8450 -1.2641
   18MOL0     O 2347   3.129  11.211   4.038 -0.0861  0.7772 -0.1680
   18MOL0     C 2348   3.149  11.325   4.010 -1.1212  0.9687  0.7654
   18MOL0     O 2349   3.226  11.366   3.902  0.2152 -0.4483 -0.4995
   18MOL0     C 2350   3.274  11.279   3.805  0.3465  0.8204  0.0341
   18MOL0     C 2351   3.231  11.144   3.791  0.0245 -0.1092  0.2024
   18MOL0     C 2352   3.279  11.064   3.688  0.8524 -0.6121  0.4796
   18MOL0     C 2353   3.369  11.120   3.602  0.0046 -0.5983  0.9424
   18MOL0     O 2354   3.421  11.045   3.499  1.0345  0.2161 -0.0757
   18MOL0     C 2355   3.495  11.100   3.390  0.6987 -0.1482 -0.1209
   18MOL0     C 2356   3.561  10.983   3.318 -0.1702  0.8786  0.1207
   18MOL0     C 2357   3.663  11.042   3.217 -0.6149 -0.1340  0.9766
   18MOL0     C 2358   3.723  10.924   3.137  0.3778 -0.0405  0.2163
   18MOL0     C 2359   3.847  10.869   3.211  0.0396 -0.0326  0.5858
   18MOL0     C 2360   3.909  10.753   3.130 -0.8817  0.8014  0.1778
   18MOL0     C 2361   3.964  10.815   2.997 -0.5626  1.2532  0.1868
   18MOL0     C 2362   4.075  10.719   2.941 -0.6507  0.4018  0.3233
   18MOL0     N 2363   4.135  10.792   2.824  0.0879 -0.1453  0.6781
   18MOL0     C 2364   4.276  10.794   2.814  0.0321  0.2659 -0.7410
   18MOL0     C 2365   4.298  10.862   2.699 -0.5365 -0.0383  0.3530
   18MOL0     C 2366   4.433  10.862   2.639  0.6026  0.1781  0.6098
   18MOL0     C 2367   4.485  10.724   2.604 -0.7563  0.8579  0.0809
   18MOL0     C 2368   4.386  10.643   2.524 -0.6182 -0.2936 -0.3127
   18MOL0     C 2369   4.443  10.505   2.527 -0.6203  0.9545  0.2318
   18MOL0     O 2370   4.357  10.422   2.448  0.1411 -0.0386  0.1790
   18MOL0     C 2371   4.286  10.346   2.532  1.6117 -0.5864  0.5873
   18MOL0     C 2372   4.162  10.383   2.575 -0.1997 -0.2719 -0.1147
   18MOL0     C 2373   4.104  10.344   2.698 -0.5535  0.2890 -0.4588
   18MOL0     C 2374   3.982  10.409   2.732  0.0312 -0.0200  0.2569
   18MOL0     C 2375   4.170  10.246   2.764  0.5648 -0.1573  0.8294
   18MOL0     C 2376   4.118  10.167   2.884 -0.1165 -1.3926  0.8003
   18MOL0     O 2377   4.190  10.065   2.928  0.0651 -0.3668  0.7234
   18MOL0     C 2378   4.139  10.015   3.049 -0.2718 -0.9977 -0.0314
   18MOL0     C 2379   4.030   9.926   3.067  0.9401 -0.6456  0.1625
   18MOL0     C 2380   3.993   9.884   3.195  0.2256 -0.5020  0.2005
   18MOL0     C 2381   4.061   9.921   3.310  0.9485 -0.4315 -0.0167
   18MOL0     O 2382   4.022   9.859   3.423  0.0731 -0.8036 -0.1903
   18MOL0     C 2383   4.127   9.853   3.522 -0.5401  0.8327 -0.6811
   18MOL0     C 2384   4.099   9.720   3.598  1.0914  0.0414 -0.5216
   18MOL0     C 2385   4.201   9.703   3.713 -0.0911 -0.1306  0.6864
   18MOL0     C 2386   4.200   9.564   3.785  0.4195  0.3072 -0.2678
   18MOL0     C 2387   4.235   9.458   3.673  0.2298 -0.3407  0.1745
   18MOL0     C 2388   4.301   9.339   3.745 -0.2779  0.5555 -0.4352
   18MOL0     C 2389   4.425   9.364   3.828 -0.7475  0.8283  0.7059
   18MOL0     C 2390   4.554   9.397   3.739 -0.3569  1.0273  0.1742
   18MOL0    Cl 2391   4.596   9.267   3.625  0.0463  0.1964 -0.5130
   18MOL0     C 2392   4.149  10.030   3.297 -0.8451 -0.0004  0.1908
   18MOL0     C 2393   4.195  10.076   3.172 -0.2600  0.8634  0.3731
   18MOL0     O 2394   4.018  10.222   2.935 -0.7422  0.1446  0.3382
   18MOL0     C 2395   4.287  10.186   2.705 -0.4742  0.5376  0.4237
   18MOL0     C 2396   4.348  10.244   2.597  0.6583 -0.1506  0.4219
   18MOL0     N 2397   4.181  10.898   2.644  0.1786 -1.1204 -0.4792
   18MOL0     N 2398   4.081  10.855   2.713  0.3708  0.7306 -0.1118
   18MOL0     C 2399   3.409  11.248   3.610 -0.9092  1.6433 -0.7344
   18MOL0     C 2400   3.362  11.333   3.713  0.5373 -0.4754 -0.3398
   18MOL0     C 2401   3.069  11.418   4.088  0.2905  0.2240 -0.0150
   18MOL0     C 2402   2.993  11.379   4.200  1.0323  0.6690  0.6446
   18MOL0     C 2403   2.932  11.468   4.288 -1.1078  0.0617 -1.2361
   18MOL0     C 2404   2.921  11.605   4.266 -0.9045  0.2107 -0.2648
   18MOL0     O 2405   2.855  11.698   4.346 -0.0213 -0.0831  0.4928
   18MOL0     C 2406   2.732  11.664   4.401  0.9473  0.2680  0.9427
   18MOL0     C 2407   2.650  11.642   4.277 -0.3412  0.0700  0.2767
   18MOL0     C 2408   2.499  11.621   4.310  0.5891  0.1472  0.9868
   18MOL0     C 2409   2.435  11.758   4.350  0.4032  0.1756  0.2651
   18MOL0     C 2410   2.287  11.758   4.337 -0.4258 -0.0138  0.2645
   18MOL0     C 2411   2.162  11.740   4.323 -0.4746 -0.0252 -0.1889
   18MOL0     C 2412   2.995  11.641   4.154  0.5737  0.7084 -0.7012
   18MOL0     C 2413   3.067  11.557   4.064 -0.7874 -0.1165  0.2345
   18MOL0     C 2414   3.141  11.624   3.950  0.2550  0.5353 -0.4488
   18MOL0     H 2415   3.148  11.099   3.843 -0.5063  1.3996  0.7245
   18MOL0     H 2416   3.246  10.962   3.674 -0.4374 -0.0484 -0.9457
   18MOL0     H 2417   3.577  11.153   3.440  1.5924 -1.8417  0.2966
   18MOL0     H 2418   3.432  11.168   3.333 -0.8180 -0.7071  0.8269
   18MOL0     H 2419   3.631  10.934   3.387  2.2733  0.6315 -2.3664
   18MOL0     H 2420   3.478  10.927   3.274  0.6865 -2.7413  2.6788
   18MOL0     H 2421   3.613  11.108   3.146  0.9357 -2.5120 -2.6372
   18MOL0     H 2422   3.739  11.106   3.263 -0.2248  2.3439 -2.6894
   18MOL0     H 2423   3.641  10.852   3.126  3.1168 -3.0424 -3.1213
   18MOL0     H 2424   3.750  10.961   3.038  2.6970  1.9172  1.4817
   18MOL0     H 2425   3.819  10.823   3.307  0.3517 -1.5009  0.0057
   18MOL0     H 2426   3.923  10.943   3.236 -0.4879 -0.1023  2.6225
   18MOL0     H 2427   3.988  10.718   3.197 -0.9265 -0.5497 -0.4611
   18MOL0     H 2428   3.848  10.664   3.115  1.1034 -0.9926  2.0253
   18MOL0     H 2429   4.005  10.916   3.005  0.8883  0.6982  0.0789
   18MOL0     H 2430   3.881  10.821   2.926 -0.9691 -0.5494  0.4446
   18MOL0     H 2431   4.157  10.702   3.011 -3.0932  1.7866  3.8219
   18MOL0     H 2432   4.024  10.632   2.898  1.1656 -1.7147  2.2174
   18MOL0     H 2433   4.335  10.738   2.885  1.0215  2.9974  0.6980
   18MOL0     H 2434   4.501  10.917   2.704  1.8663 -0.6913  0.0695
   18MOL0     H 2435   4.432  10.905   2.539  1.4018  2.6311  1.5764
   18MOL0     H 2436   4.576  10.734   2.544 -1.9606 -1.9376 -2.4459
   18MOL0     H 2437   4.511  10.669   2.695  3.2393 -0.5753 -1.6886
   18MOL0     H 2438   4.279  10.655   2.546 -0.7333  0.2543 -1.1160
   18MOL0     H 2439   4.395  10.680   2.421  1.2541  1.1276  0.2987
   18MOL0     H 2440   4.541  10.504   2.477 -2.4754 -0.5301 -3.8055
   18MOL0     H 2441   4.474  10.480   2.628  1.1008 -0.3252 -0.5535
   18MOL0     H 2442   4.112  10.464   2.524 -0.1373  1.4922  2.4339
   18MOL0     H 2443   3.978  10.446   2.835 -0.3042  1.4681 -0.2578
   18MOL0     H 2444   3.901  10.338   2.716  0.3368  0.2993 -3.5637
   18MOL0     H 2445   3.959  10.487   2.659  1.7364 -1.5176 -2.0219
   18MOL0     H 2446   3.982   9.906   2.972 -0.7887 -1.5515  1.1708
   18MOL0     H 2447   3.896   9.836   3.199 -1.6317  2.9473  1.4549
   18MOL0     H 2448   4.222   9.842   3.468 -2.1832 -2.8538 -3.2886
   18MOL0     H 2449   4.120   9.932   3.597  1.3380  0.3635  0.0609
   18MOL0     H 2450   4.000   9.727   3.645  1.5398 -0.7259  0.5877
   18MOL0     H 2451   4.096   9.636   3.527 -1.1683  0.0787 -0.5489
   18MOL0     H 2452   4.180   9.777   3.791 -0.7966  1.3629 -0.8589
   18MOL0     H 2453   4.302   9.712   3.673  0.0198 -1.0200  0.7420
   18MOL0     H 2454   4.109   9.532   3.837  2.0463 -1.8366  1.4281
   18MOL0     H 2455   4.271   9.583   3.866 -0.4535  1.4107  0.2728
   18MOL0     H 2456   4.142   9.423   3.628 -1.9703  1.5176  2.8686
   18MOL0     H 2457   4.302   9.496   3.595 -3.1771 -0.5055 -3.1275
   18MOL0     H 2458   4.313   9.263   3.666  0.5280  0.2052  0.0087
   18MOL0     H 2459   4.223   9.303   3.813  2.8880  1.4286  4.0793
   18MOL0     H 2460   4.452   9.269   3.876  1.1910  0.8313 -0.3119
   18MOL0     H 2461   4.429   9.442   3.905 -1.0011  1.4121  0.1366
   18MOL0     H 2462   4.643   9.419   3.799  1.2006 -3.1856 -0.3000
   18MOL0     H 2463   4.542   9.493   3.687  1.7499  0.3127 -1.7886
   18MOL0     H 2464   4.210  10.061   3.381  3.2682 -2.1042 -1.7112
   18MOL0     H 2465   4.270  10.154   3.166 -0.1488  0.8493  1.3585
   18MOL0     H 2466   4.328  10.092   2.741 -1.5817  0.0889  0.5591
   18MOL0     H 2467   4.442  10.211   2.554 -0.3373 -1.9680 -0.5007
   18MOL0     H 2468   3.475  11.304   3.543  0.9536 -0.4363 -0.7381
   18MOL0     H 2469   3.409  11.431   3.706 -2.3969  0.9520 -4.5303
   18MOL0     H 2470   2.985  11.272   4.215  1.8441  0.2304 -1.7283
   18MOL0     H 2471   2.889  11.419   4.374 -0.6766  2.8233  0.6729
   18MOL0     H 2472   2.741  11.576   4.464  4.8757  0.0816  0.3668
   18MOL0     H 2473   2.684  11.740   4.463 -1.0088 -0.3006  0.2043
   18MOL0     H 2474   2.686  11.556   4.221 -0.6346  2.0907 -3.3247
   18MOL0     H 2475   2.669  11.729   4.214  0.1558 -0.8986 -0.9373
   18MOL0     H 2476   2.451  11.581   4.221 -0.9419 -2.6388  2.9111
   18MOL0     H 2477   2.483  11.552   4.394 -1.9832 -1.2261 -0.5193
   18MOL0     H 2478   2.473  11.844   4.294 -2.1453  1.3650  0.2689
   18MOL0     H 2479   2.451  11.778   4.456  3.1947  1.7505 -0.3414
   18MOL0     H 2480   2.056  11.735   4.308 -0.8872  2.0479  1.5510
   18MOL0     H 2481   2.994  11.747   4.133  0.6917  1.4300  2.4333
   18MOL0     H 2482   3.086  11.716   3.924  0.2544  1.6439  2.9782
   18MOL0     H 2483   3.245  11.643   3.975  0.2450 -2.0933  2.0017
   18MOL0     H 2484   3.143  11.571   3.854  2.4186  0.7326 -0.5469
   19MOL0     O 2485  11.384   3.362   1.040 -0.5814  0.2213 -0.2698
   19MOL0     C 2486  11.442   3.259   0.992 -0.2613 -0.2515  0.1008
   19MOL0     O 2487  11.536   3.265   0.900  0.4517 -0.5688 -0.0655
   19MOL0     C 2488  11.585   3.379   0.834  0.3185  0.8901  0.3066
   19MOL0     C 2489  11.719   3.371   0.781  0.6133 -1.0342 -0.1966
   19MOL0     C 2490  11.769   3.483   0.711  0.1530  0.0742 -0.1367
   19MOL0     C 2491  11.694   3.601   0.696  0.4205 -0.0059  1.1627
   19MOL0     O 2492  11.751   3.712   0.636 -0.9220  0.6559  0.3987
   19MOL0     C 2493  11.744   3.839   0.704 -0.3379 -1.2098 -0.4161
   19MOL0     C 2494  11.845   3.933   0.636  0.3010  0.0594 -0.5600
   19MOL0     C 2495  11.791   3.965   0.492  0.0038 -0.0135 -0.6694
   19MOL0     C 2496  11.886   4.046   0.408 -0.8280  0.1643  0.3895
   19MOL0     C 2497  11.816   4.129   0.293  1.3247  1.3687  0.6734
   19MOL0     C 2498  11.698   4.053   0.225 -0.2479  0.0672 -0.4350
   19MOL0     C 2499  11.683   4.100   0.076  0.2078 -0.2782  0.3934
   19MOL0     C 2500  11.537   4.063   0.020 -0.5990 -0.2062  0.7487
   19MOL0     N 2501  11.518   4.149  -0.100  0.3087  0.4070 -0.1867
   19MOL0     C 2502  11.595   4.138  -0.209  0.1131 -0.6468 -0.0051
   19MOL0     C 2503  11.549   4.231  -0.291 -0.3866  0.1305  0.5967
   19MOL0     C 2504  11.576   4.235  -0.434 -0.4804  0.2758 -0.1186
   19MOL0     C 2505  11.462   4.293  -0.520  1.1070  0.4922 -0.4053
   19MOL0     C 2506  11.509   4.289  -0.668  0.0789 -0.1395  0.2196
   19MOL0     C 2507  11.399   4.306  -0.774  0.1482  0.2898  0.9584
   19MOL0     O 2508  11.329   4.430  -0.771 -0.2427  0.1474 -0.2861
   19MOL0     C 2509  11.346   4.531  -0.862  0.2329  0.1833  0.1088
   19MOL0     C 2510  11.247   4.627  -0.886  0.1405 -0.5484 -0.2582
   19MOL0     C 2511  11.269   4.736  -0.972 -0.1218 -0.2953 -1.0554
   19MOL0     C 2512  11.160   4.839  -0.969  0.4586 -0.7920 -0.2220
   19MOL0     C 2513  11.385   4.733  -1.052  0.6378 -0.3821  0.2384
   19MOL0     C 2514  11.410   4.846  -1.152 -0.0778  0.0524 -0.1742
   19MOL0     O 2515  11.350   4.967  -1.136 -0.5171 -0.2179  0.5738
   19MOL0     C 2516  11.388   5.066  -1.229  0.2725 -0.0187 -0.2050
   19MOL0     C 2517  11.364   5.039  -1.361 -0.5551 -1.4402 -0.3847
   19MOL0     C 2518  11.416   5.126  -1.461  0.3937 -0.5256  0.2302
   19MOL0     C 2519  11.477   5.245  -1.429 -0.4529  0.5609  0.3772
   19MOL0     O 2520  11.506   5.330  -1.536  0.0980  0.9561 -0.3243
   19MOL0     C 2521  11.388   5.416  -1.577 -0.8797  0.9358 -0.0558
   19MOL0     C 2522  11.384   5.546  -1.490 -1.1031 -0.6329 -0.1142
   19MOL0     C 2523  11.277   5.639  -1.548  0.6893  0.0655 -0.4852
   19MOL0     C 2524  11.137   5.588  -1.523 -0.6863 -0.0292 -0.8008
   19MOL0     C 2525  11.017   5.669  -1.556  0.7442  0.2514  0.0069
   19MOL0     C 2526  10.999   5.691  -1.703  1.4199  0.4005  0.5406
   19MOL0     C 2527  10.885   5.793  -1.746 -0.8604  0.2631 -1.1276
   19MOL0     C 2528  10.921   5.936  -1.724 -0.4365 -0.1994  0.2022
   19MOL0    Cl 2529  11.068   5.991  -1.816 -0.0640  0.5395  0.0918
   19MOL0     C 2530  11.500   5.273  -1.297  0.5763  0.5401  0.0028
   19MOL0     C 2531  11.453   5.187  -1.197  0.7520  0.7177 -0.6353
   19MOL0     O 2532  11.500   4.822  -1.237 -0.2487  0.2567  0.2009
   19MOL0     C 2533  11.488   4.639  -1.038 -0.2959  0.0861 -0.9755
   19MOL0     C 2534  11.475   4.542  -0.939 -0.6943  0.3065  0.0159
   19MOL0     N 2535  11.449   4.303  -0.226  0.2405  0.8139  0.1279
   19MOL0     N 2536  11.440   4.264  -0.102  1.0217  0.5737  0.4302
   19MOL0     C 2537  11.561   3.604   0.733 -0.3327  0.0927  0.0005
   19MOL0     C 2538  11.507   3.500   0.808  0.2541  0.5979  0.6596
   19MOL0     C 2539  11.386   3.131   1.021 -0.2494  0.1108  0.5076
   19MOL0     C 2540  11.435   3.024   0.941 -0.3115 -0.0435 -0.2829
   19MOL0     C 2541  11.386   2.900   0.960 -0.1088  0.7178  0.4521
   19MOL0     C 2542  11.287   2.871   1.057 -0.0622  0.9978  0.1920
   19MOL0     O 2543  11.245   2.745   1.092  0.5394  0.3208  0.7711
   19MOL0     C 2544  11.185   2.678   0.977 -0.2533  0.2167 -0.2814
   19MOL0     C 2545  11.085   2.575   1.038  1.0524 -0.0609  0.3698
   19MOL0     C 2546  11.026   2.490   0.924 -0.0551 -0.5630  0.1559
   19MOL0     C 2547  10.932   2.372   0.961 -0.7703 -0.5767  0.3421
   19MOL0     C 2548  11.003   2.242   1.007 -0.6167 -0.4476 -0.2975
   19MOL0     C 2549  11.056   2.148   1.059 -0.8672 -0.3167  0.2798
   19MOL0     C 2550  11.254   2.974   1.148  1.1350  0.2720  0.6486
   19MOL0     C 2551  11.301   3.102   1.135  0.1602 -0.0907  0.1611
   19MOL0     C 2552  11.253   3.205   1.240  0.7164  0.4888 -0.0986
   19MOL0     H 2553  11.785   3.285   0.791  3.6269  0.9428 -1.3660
   19MOL0     H 2554  11.872   3.477   0.677  0.1052 -2.4807 -0.0339
   19MOL0     H 2555  11.770   3.834   0.810  0.9269  0.0464 -0.6284
   19MOL0     H 2556  11.653   3.898   0.687  1.7117  1.8527 -1.7017
   19MOL0     H 2557  11.857   4.031   0.684  0.0922  0.3794 -1.1596
   19MOL0     H 2558  11.947   3.896   0.643  0.4402  0.5572  0.1301
   19MOL0     H 2559  11.757   3.877   0.437 -0.7078 -0.5633  0.5912
   19MOL0     H 2560  11.698   4.022   0.498 -0.0752  0.0939 -2.3520
   19MOL0     H 2561  11.939   4.106   0.482 -1.4418 -0.0642  1.0193
   19MOL0     H 2562  11.957   3.982   0.354 -1.9232  0.3371 -1.3232
   19MOL0     H 2563  11.889   4.160   0.218  0.1624 -3.1599 -2.7388
   19MOL0     H 2564  11.767   4.216   0.337 -0.4120  1.1470 -0.7358
   19MOL0     H 2565  11.727   3.948   0.221 -0.5675  0.0037 -1.3141
   19MOL0     H 2566  11.599   4.076   0.266 -1.2447 -0.9014 -2.2032
   19MOL0     H 2567  11.759   4.049   0.015  1.3335  0.6141  1.0209
   19MOL0     H 2568  11.699   4.208   0.073 -1.0698 -0.0818 -2.1449
   19MOL0     H 2569  11.524   3.959  -0.013 -0.6315  0.3778 -1.2263
   19MOL0     H 2570  11.463   4.079   0.099  1.0331 -3.8578  3.3169
   19MOL0     H 2571  11.656   4.052  -0.237  2.0548  0.0480  1.8339
   19MOL0     H 2572  11.606   4.140  -0.480  1.2574  0.0825  1.2866
   19MOL0     H 2573  11.666   4.295  -0.448  0.2061 -0.9961 -1.4931
   19MOL0     H 2574  11.372   4.234  -0.503  1.3928  0.3720  0.8403
   19MOL0     H 2575  11.430   4.395  -0.500  0.4228 -0.0892  1.8175
   19MOL0     H 2576  11.592   4.356  -0.689  0.6118 -1.2906 -1.6210
   19MOL0     H 2577  11.557   4.192  -0.687 -0.2618 -0.3041  0.1866
   19MOL0     H 2578  11.436   4.297  -0.877  0.5612  1.4081  0.9983
   19MOL0     H 2579  11.318   4.234  -0.755  0.7888 -0.6790  0.1118
   19MOL0     H 2580  11.157   4.608  -0.829  0.3338 -2.5146 -0.5400
   19MOL0     H 2581  11.119   4.846  -1.070 -0.4750  1.3225  0.2513
   19MOL0     H 2582  11.201   4.935  -0.935 -0.8468 -1.3482  3.2224
   19MOL0     H 2583  11.083   4.821  -0.893 -1.1364  0.6068 -1.4109
   19MOL0     H 2584  11.304   4.952  -1.387 -1.8667 -1.4995  2.4413
   19MOL0     H 2585  11.400   5.103  -1.566 -2.7815 -3.3120  1.1534
   19MOL0     H 2586  11.389   5.437  -1.685 -1.7985 -1.7641 -0.6614
   19MOL0     H 2587  11.299   5.354  -1.566 -0.7121 -0.0915 -3.3250
   19MOL0     H 2588  11.380   5.503  -1.389  1.5767 -2.3567 -0.6073
   19MOL0     H 2589  11.477   5.604  -1.486 -0.5024 -1.6310  1.0133
   19MOL0     H 2590  11.291   5.657  -1.656 -1.7986  0.4882 -0.7876
   19MOL0     H 2591  11.279   5.736  -1.496  4.1095 -0.6327  0.9772
   19MOL0     H 2592  11.129   5.569  -1.415 -1.0265  1.5946 -0.5056
   19MOL0     H 2593  11.119   5.493  -1.574  0.2577  0.0593 -1.2990
   19MOL0     H 2594  10.922   5.620  -1.536 -0.0611  0.3818 -2.9366
   19MOL0     H 2595  11.035   5.766  -1.509  1.2082  0.6334 -0.9174
   19MOL0     H 2596  10.967   5.592  -1.736 -1.8179  0.1860  3.7464
   19MOL0     H 2597  11.101   5.713  -1.738  1.0714 -0.4633 -1.1303
   19MOL0     H 2598  10.788   5.757  -1.711 -0.2819 -1.2679 -1.0017
   19MOL0     H 2599  10.877   5.788  -1.855 -2.6591 -3.0702 -0.9922
   19MOL0     H 2600  10.950   5.957  -1.620  1.0780 -1.3691  0.0418
   19MOL0     H 2601  10.842   6.003  -1.757 -0.1917  0.2623  0.5371
   19MOL0     H 2602  11.544   5.363  -1.256 -1.8346  0.9739  1.8376
   19MOL0     H 2603  11.488   5.190  -1.094 -1.9731  0.8247  0.3575
   19MOL0     H 2604  11.579   4.643  -1.097  0.5305 -0.0976  0.2468
   19MOL0     H 2605  11.564   4.483  -0.921 -0.6079  0.6591  0.7967
   19MOL0     H 2606  11.508   3.694   0.705  0.0655 -0.0560 -1.3046
   19MOL0     H 2607  11.405   3.507   0.843 -0.5599  2.4337 -1.8401
   19MOL0     H 2608  11.491   3.043   0.850 -0.5446  1.0711 -0.2111
   19MOL0     H 2609  11.433   2.825   0.896  1.9485  2.1531  0.1782
   19MOL0     H 2610  11.113   2.745   0.930 -2.8526  0.3145  3.4268
   19MOL0     H 2611  11.270   2.647   0.914  0.1662 -0.7342  0.7108
   19MOL0     H 2612  11.008   2.631   1.092  2.0198  0.7673  0.9300
   19MOL0     H 2613  11.153   2.517   1.101  4.2524  2.4932 -0.4265
   19MOL0     H 2614  10.965   2.553   0.858 -1.3003 -2.7976 -0.9352
   19MOL0     H 2615  11.113   2.461   0.865  0.9657  5.6253 -2.1135
   19MOL0     H 2616  10.890   2.335   0.867  2.1522  1.7581 -2.0779
   19MOL0     H 2617  10.861   2.401   1.039 -2.6252  2.2477 -2.1801
   19MOL0     H 2618  11.109   2.067   1.105  0.3100 -0.6371 -1.5686
   19MOL0     H 2619  11.194   2.950   1.235 -1.0878  3.5670  0.2059
   19MOL0     H 2620  11.193   3.149   1.312  1.7772  0.7979  1.0624
   19MOL0     H 2621  11.337   3.254   1.291 -0.3321  3.7112 -1.1979
   19MOL0     H 2622  11.194   3.282   1.189  0.5458 -0.8017 -1.9508
   20MOL0     O 2623   5.009   1.361  10.805 -0.3085 -0.8427 -0.3373
   20MOL0     C 2624   4.950   1.402  10.904 -0.1685  0.4685 -0.5508
   20MOL0     O 2625   4.858   1.493  10.915  0.0398 -0.1319 -0.7489
   20MOL0     C 2626   4.800   1.567  10.808 -0.0854 -0.0361 -0.7844
   20MOL0     C 2627   4.784   1.514  10.681 -0.9034  1.1423 -0.4643
   20MOL0     C 2628   4.737   1.584  10.582  0.3324  0.0987 -0.2111
   20MOL0     C 2629   4.676   1.710  10.595 -0.1883  1.8473 -0.3095
   20MOL0     O 2630   4.632   1.778  10.483  0.2224  0.7410 -0.3038
   20MOL0     C 2631   4.493   1.826  10.497 -0.3112 -0.0590 -0.4814
   20MOL0     C 2632   4.453   1.879  10.358  0.9978 -0.5069  0.0912
   20MOL0     C 2633   4.483   1.764  10.254 -0.0689 -0.1019  0.3760
   20MOL0     C 2634   4.462   1.822  10.111  0.8011  0.8782 -1.8174
   20MOL0     C 2635   4.311   1.855  10.091 -0.8879  0.0289 -0.5352
   20MOL0     C 2636   4.269   1.880   9.945 -0.0536  0.3008  0.5567
   20MOL0     C 2637   4.352   1.977   9.865  0.1686 -0.9781 -0.1304
   20MOL0     C 2638   4.284   1.999   9.733 -0.0919 -0.3933  0.3743
   20MOL0     N 2639   4.317   2.139   9.695 -0.1890 -0.2372  0.0685
   20MOL0     C 2640   4.442   2.183   9.665  0.8926  0.2487 -0.0142
   20MOL0     C 2641   4.426   2.310   9.610 -1.2703 -0.2263  0.1192
   20MOL0     C 2642   4.523   2.426   9.575 -0.2986  0.5011  0.1467
   20MOL0     C 2643   4.536   2.425   9.424  1.1953 -0.0092  1.3292
   20MOL0     C 2644   4.635   2.534   9.384 -0.3824  0.0362  0.0964
   20MOL0     C 2645   4.680   2.525   9.237 -0.5839 -0.5077  0.2004
   20MOL0     O 2646   4.564   2.506   9.146 -0.7187 -0.2663  0.2485
   20MOL0     C 2647   4.538   2.617   9.062  1.2090 -1.2263  0.2296
   20MOL0     C 2648   4.641   2.686   8.978 -0.3185  0.4624 -0.4540
   20MOL0     C 2649   4.597   2.787   8.893 -0.6173 -0.6381  0.8296
   20MOL0     C 2650   4.714   2.859   8.824 -0.4729 -0.2144 -0.2855
   20MOL0     C 2651   4.458   2.823   8.878  0.0012  0.3675  0.1247
   20MOL0     C 2652   4.403   2.920   8.780  0.0782 -0.0738  1.0125
   20MOL0     O 2653   4.282   2.974   8.795 -0.0874  0.4506  0.3471
   20MOL0     C 2654   4.225   3.050   8.703 -0.3618 -0.1831  0.5051
   20MOL0     C 2655   4.087   3.045   8.697 -0.0646 -0.1465 -0.0617
   20MOL0     C 2656   4.008   3.135   8.617 -0.5611 -0.5577  0.3494
   20MOL0     C 2657   4.080   3.236   8.548 -0.1881 -0.5049  0.3286
   20MOL0     O 2658   4.018   3.342   8.486 -0.7869  0.2443 -0.6698
   20MOL0     C 2659   3.872   3.358   8.467 -0.1798  0.4236 -0.0824
   20MOL0     C 2660   3.824   3.472   8.570 -0.1024 -0.2886  0.1092
   20MOL0     C 2661   3.674   3.463   8.578 -0.1111  0.8254 -1.5315
   20MOL0     C 2662   3.615   3.588   8.647 -0.0251  0.2470 -0.1707
   20MOL0     C 2663   3.633   3.594   8.800  0.0694 -0.6941 -1.0631
   20MOL0     C 2664   3.571   3.712   8.877 -0.3640  0.1822 -0.5780
   20MOL0     C 2665   3.617   3.710   9.023 -0.4569  0.0219 -0.3569
   20MOL0     C 2666   3.565   3.827   9.096 -0.0228  0.2725 -0.1726
   20MOL0    Cl 2667   3.527   3.786   9.264  0.0039 -0.2941 -0.1186
   20MOL0     C 2668   4.223   3.235   8.545 -0.2788 -0.6400 -0.3760
   20MOL0     C 2669   4.294   3.143   8.618 -0.4583 -0.5416  1.8013
   20MOL0     O 2670   4.464   2.915   8.671  0.2195 -0.2881  1.2155
   20MOL0     C 2671   4.363   2.759   8.957  0.4011 -0.6630 -1.0073
   20MOL0     C 2672   4.404   2.659   9.050  0.3536  0.1942 -0.7749
   20MOL0     N 2673   4.292   2.328   9.595 -0.1872  0.0195 -0.0455
   20MOL0     N 2674   4.227   2.232   9.650 -0.2883  0.4586  0.3662
   20MOL0     C 2675   4.687   1.768  10.719  0.5422 -1.0822  0.7348
   20MOL0     C 2676   4.745   1.699  10.829 -0.2765  0.2863  0.1434
   20MOL0     C 2677   4.977   1.320  11.028 -0.2250  0.0766  0.3289
   20MOL0     C 2678   4.913   1.363  11.149  0.8224 -0.2493  1.7605
   20MOL0     C 2679   4.951   1.315  11.280  0.3731 -0.2481 -0.1042
   20MOL0     C 2680   5.045   1.205  11.282 -0.4518  0.4258 -0.1333
   20MOL0     O 2681   5.100   1.153  11.394  0.2489  0.1563 -0.5116
   20MOL0     C 2682   5.106   1.226  11.516  0.2963 -0.2783 -0.6850
   20MOL0     C 2683   4.972   1.246  11.583 -0.2412  0.4805 -0.5666
   20MOL0     C 2684   4.970   1.150  11.699 -0.4855 -0.1778  0.3327
   20MOL0     C 2685   4.928   1.009  11.659  0.2812 -1.1329  0.7540
   20MOL0     C 2686   5.050   0.937  11.618 -0.4620  0.0678  0.5871
   20MOL0     C 2687   5.131   0.854  11.580 -0.9570  0.4041 -0.7609
   20MOL0     C 2688   5.096   1.153  11.163  0.3002  0.3191 -0.0701
   20MOL0     C 2689   5.057   1.199  11.033 -0.1769 -0.4771 -0.4761
   20MOL0     C 2690   5.106   1.123  10.908 -0.2111  1.0669  0.0681
   20MOL0     H 2691   4.822   1.414  10.666  1.2408  0.9461  4.4001
   20MOL0     H 2692   4.724   1.552  10.480 -0.0404  1.7210 -0.7014
   20MOL0     H 2693   4.486   1.907  10.571 -0.4589  0.1428 -0.7116
   20MOL0     H 2694   4.432   1.739  10.522 -1.6022  1.0481  0.4307
   20MOL0     H 2695   4.348   1.910  10.362  1.3279  0.7014 -0.1542
   20MOL0     H 2696   4.515   1.968  10.343  0.2824  0.2577  1.5560
   20MOL0     H 2697   4.592   1.753  10.256  0.1697  1.9968  0.8604
   20MOL0     H 2698   4.441   1.664  10.272  1.9659 -0.7674  1.7641
   20MOL0     H 2699   4.524   1.911  10.092  3.0734 -0.5696 -1.5422
   20MOL0     H 2700   4.483   1.742  10.039 -0.4861 -1.4977  0.2952
   20MOL0     H 2701   4.290   1.947  10.145 -1.7357 -1.0707  1.0769
   20MOL0     H 2702   4.255   1.775  10.142  2.9711 -2.0552  0.8130
   20MOL0     H 2703   4.262   1.783   9.895  2.8722  0.0655  0.4257
   20MOL0     H 2704   4.170   1.926   9.949 -0.3714 -0.1094 -1.5275
   20MOL0     H 2705   4.457   1.953   9.847  0.6202  0.2853  0.6804
   20MOL0     H 2706   4.354   2.080   9.900  0.6259  0.5230 -4.1087
   20MOL0     H 2707   4.307   1.916   9.665 -0.5893 -2.0878  2.1844
   20MOL0     H 2708   4.176   2.005   9.743 -0.1053 -0.9245  0.5901
   20MOL0     H 2709   4.529   2.132   9.703  0.4878  0.4675  1.2492
   20MOL0     H 2710   4.618   2.398   9.620  0.5271  0.6544 -1.4101
   20MOL0     H 2711   4.501   2.526   9.612 -0.4380  0.1087  1.1372
   20MOL0     H 2712   4.566   2.325   9.390 -1.9615 -0.4619 -0.4629
   20MOL0     H 2713   4.442   2.452   9.376  1.6708 -2.9401 -1.5740
   20MOL0     H 2714   4.592   2.633   9.398 -1.9110 -0.0393 -3.1808
   20MOL0     H 2715   4.726   2.521   9.443  1.3282  1.5474 -2.0766
   20MOL0     H 2716   4.724   2.623   9.220 -0.3604  0.2086  3.8961
   20MOL0     H 2717   4.764   2.456   9.221  0.5595 -0.3886  4.3105
   20MOL0     H 2718   4.742   2.647   8.983  0.4160  2.2632 -0.7089
   20MOL0     H 2719   4.698   2.968   8.829 -1.6687 -0.4197  0.8360
   20MOL0     H 2720   4.730   2.822   8.722  2.2242  0.5200 -0.1980
   20MOL0     H 2721   4.805   2.842   8.881 -0.6121 -0.0431 -0.0055
   20MOL0     H 2722   4.052   2.961   8.756  2.9837 -0.3506  1.6712
   20MOL0     H 2723   3.899   3.137   8.624 -0.4465  0.7312  2.9939
   20MOL0     H 2724   3.848   3.391   8.365  1.8157  4.9893  0.6551
   20MOL0     H 2725   3.824   3.262   8.489  0.6397  0.4472  2.0765
   20MOL0     H 2726   3.860   3.442   8.669 -0.5479  1.2809  0.7791
   20MOL0     H 2727   3.862   3.571   8.540  0.3906 -0.0178  1.5615
   20MOL0     H 2728   3.665   3.370   8.635  3.4869  0.9806 -0.5026
   20MOL0     H 2729   3.629   3.460   8.478  0.7690  3.4630 -2.0925
   20MOL0     H 2730   3.507   3.594   8.630 -0.3083  1.3649  1.7830
   20MOL0     H 2731   3.653   3.676   8.593 -1.3220  0.9823  0.0934
   20MOL0     H 2732   3.585   3.512   8.853 -1.2004  1.1174  0.7370
   20MOL0     H 2733   3.740   3.593   8.824  0.0198  0.9478 -0.6315
   20MOL0     H 2734   3.463   3.702   8.893 -0.1990 -2.1091 -0.5800
   20MOL0     H 2735   3.597   3.801   8.820  0.3042  0.4379  0.1267
   20MOL0     H 2736   3.726   3.704   9.030 -0.1119  3.0153 -1.7227
   20MOL0     H 2737   3.573   3.618   9.063 -0.5683  0.4151  0.4276
   20MOL0     H 2738   3.463   3.847   9.064 -1.8643 -1.7598  3.7342
   20MOL0     H 2739   3.635   3.910   9.086 -0.7000  0.9402  0.5694
   20MOL0     H 2740   4.274   3.309   8.484 -0.3127 -0.2961  0.0114
   20MOL0     H 2741   4.401   3.147   8.598 -0.9822  1.0847 -1.2847
   20MOL0     H 2742   4.257   2.780   8.962  0.7152  0.7099  2.7363
   20MOL0     H 2743   4.329   2.618   9.117  1.9877 -1.8504 -0.0748
   20MOL0     H 2744   4.649   1.869  10.728  1.7135 -0.7626  2.6267
   20MOL0     H 2745   4.750   1.734  10.931  0.9779 -2.9173  1.3223
   20MOL0     H 2746   4.846   1.446  11.127  2.3949 -0.1786 -5.0315
   20MOL0     H 2747   4.911   1.381  11.356 -2.0230  1.6756 -2.8217
   20MOL0     H 2748   5.166   1.159  11.579 -0.7482 -4.5414 -3.7100
   20MOL0     H 2749   5.148   1.326  11.511 -2.1486  0.8511 -0.2869
   20MOL0     H 2750   4.883   1.219  11.525  0.0787 -2.0067 -0.0071
   20MOL0     H 2751   4.960   1.348  11.620  1.4557 -0.2717  2.3461
   20MOL0     H 2752   5.059   1.147  11.762  0.0330 -0.7088 -0.4111
   20MOL0     H 2753   4.889   1.178  11.768 -2.0191  1.4689 -1.9776
   20MOL0     H 2754   4.863   0.999  11.572 -0.9507 -0.2950  1.5394
   20MOL0     H 2755   4.874   0.959  11.741  0.7121 -1.0815  1.0762
   20MOL0     H 2756   5.193   0.787  11.524  0.4618 -1.2845  2.5511
   20MOL0     H 2757   5.169   1.073  11.170  2.4212  2.2231  0.8037
   20MOL0     H 2758   5.020   1.084  10.854 -0.7890 -0.3199  1.8653
   20MOL0     H 2759   5.179   1.174  10.844  2.7628  1.0335  3.1215
   20MOL0     H 2760   5.168   1.040  10.944  0.6050  1.9763  0.8392
   21MOL0     O 2761   8.862   6.063   2.260 -0.2966 -0.2857  0.1991
   21MOL0     C 2762   8.815   6.091   2.365 -0.2397  0.1658 -0.0934
   21MOL0     O 2763   8.805   6.006   2.478  0.4376  0.1269 -0.1223
   21MOL0     C 2764   8.839   5.874   2.485 -0.6298 -0.8518  0.3312
   21MOL0     C 2765   8.921   5.811   2.397 -0.1917  0.1177 -0.1028
   21MOL0     C 2766   8.949   5.674   2.382  1.1428  0.5429 -0.2346
   21MOL0     C 2767   8.876   5.598   2.482 -0.4320 -1.0683 -0.6877
   21MOL0     O 2768   8.903   5.465   2.474 -0.7191 -0.0785 -0.1336
   21MOL0     C 2769   8.806   5.367   2.501 -0.2118 -0.5831 -0.0566
   21MOL0     C 2770   8.860   5.284   2.617  0.9813 -0.7452 -0.1929
   21MOL0     C 2771   8.986   5.202   2.598  0.8981 -0.4205  0.7843
   21MOL0     C 2772   9.028   5.113   2.713  1.0926 -0.0012  0.1018
   21MOL0     C 2773   9.138   5.006   2.684  0.5375 -0.5790 -0.1755
   21MOL0     C 2774   9.080   4.897   2.594  0.0159 -0.2215 -0.6834
   21MOL0     C 2775   9.157   4.768   2.601  0.3549  0.4349 -0.0755
   21MOL0     C 2776   9.094   4.660   2.519  0.6673  0.3386 -0.8080
   21MOL0     N 2777   8.959   4.616   2.567  0.5909  0.0573  0.7525
   21MOL0     C 2778   8.931   4.528   2.675 -0.1091 -0.5395  0.1819
   21MOL0     C 2779   8.801   4.521   2.684 -0.3625  0.3218 -0.8042
   21MOL0     C 2780   8.726   4.423   2.773 -0.4847 -0.0147  0.2203
   21MOL0     C 2781   8.599   4.483   2.840 -0.2353 -0.1800 -0.5197
   21MOL0     C 2782   8.637   4.586   2.950 -0.5353  0.4587  0.1383
   21MOL0     C 2783   8.726   4.540   3.066  0.1089  0.7989 -0.2258
   21MOL0     O 2784   8.727   4.613   3.188  0.2310 -0.6850 -0.3576
   21MOL0     C 2785   8.624   4.592   3.274  0.2446  1.1854 -0.0538
   21MOL0     C 2786   8.603   4.683   3.372 -0.0831 -1.3677  0.5180
   21MOL0     C 2787   8.494   4.701   3.455  0.7890  0.8804  1.4242
   21MOL0     C 2788   8.493   4.817   3.560 -0.7250 -0.2969  0.1495
   21MOL0     C 2789   8.402   4.597   3.445  1.3344 -0.3861 -0.5846
   21MOL0     C 2790   8.279   4.591   3.529 -0.0053 -1.0490 -0.0424
   21MOL0     O 2791   8.226   4.467   3.533 -0.8099 -0.3785  0.4070
   21MOL0     C 2792   8.116   4.439   3.612  0.0605  0.1023  0.5860
   21MOL0     C 2793   8.098   4.479   3.743  1.6124 -0.0448 -0.5963
   21MOL0     C 2794   7.973   4.454   3.790  0.8114  0.2403 -0.3964
   21MOL0     C 2795   7.882   4.368   3.730  0.2767  0.0580 -0.1164
   21MOL0     O 2796   7.758   4.357   3.795  0.6367  0.1582 -0.5205
   21MOL0     C 2797   7.640   4.311   3.723  1.1462 -0.4360  0.5157
   21MOL0     C 2798   7.501   4.346   3.807 -0.6930  0.3796  0.3271
   21MOL0     C 2799   7.487   4.486   3.870 -0.1598 -0.3390 -0.6664
   21MOL0     C 2800   7.476   4.603   3.778  0.5368  0.6722  0.6804
   21MOL0     C 2801   7.425   4.729   3.839  0.1898 -0.2730 -1.1009
   21MOL0     C 2802   7.396   4.834   3.732 -0.0943 -0.3535 -1.6490
   21MOL0     C 2803   7.342   4.972   3.782 -0.4528 -0.2996  0.8078
   21MOL0     C 2804   7.447   5.031   3.878 -0.4765  1.2282 -0.2094
   21MOL0    Cl 2805   7.434   4.988   4.046 -0.0671  0.2006 -0.0830
   21MOL0     C 2806   7.901   4.318   3.602 -0.7585 -0.0431  0.5861
   21MOL0     C 2807   8.022   4.361   3.540  0.7128  0.4794  0.2790
   21MOL0     O 2808   8.234   4.695   3.572 -0.4332 -0.8365  0.3767
   21MOL0     C 2809   8.421   4.501   3.340 -0.2792 -0.1448 -0.2774
   21MOL0     C 2810   8.535   4.480   3.257  0.6900  0.5140 -0.5255
   21MOL0     N 2811   8.742   4.603   2.589 -0.2705 -0.0383 -0.0034
   21MOL0     N 2812   8.833   4.659   2.515 -0.6401  0.7562 -0.2097
   21MOL0     C 2813   8.799   5.652   2.577  0.3612 -0.6466 -0.4034
   21MOL0     C 2814   8.783   5.792   2.578  0.1942  0.2595 -0.5774
   21MOL0     C 2815   8.778   6.237   2.386 -0.2410 -0.3093  0.4652
   21MOL0     C 2816   8.741   6.276   2.514 -0.0266  1.0658 -0.1959
   21MOL0     C 2817   8.718   6.412   2.547 -0.5705  0.8616  0.2455
   21MOL0     C 2818   8.736   6.507   2.450  0.1862 -0.1959 -0.8540
   21MOL0     O 2819   8.717   6.643   2.464  0.1736 -0.5025 -0.0615
   21MOL0     C 2820   8.842   6.723   2.474  0.7464 -0.7098 -0.7985
   21MOL0     C 2821   8.799   6.860   2.462  0.6890  0.1193 -0.0279
   21MOL0     C 2822   8.928   6.952   2.465 -0.0548  0.2811  0.2860
   21MOL0     C 2823   8.891   7.095   2.449  0.6466 -0.1142  0.0127
   21MOL0     C 2824   9.023   7.157   2.472  0.2693  0.3859  0.4392
   21MOL0     C 2825   9.128   7.209   2.486 -0.6275 -0.1979  0.0426
   21MOL0     C 2826   8.757   6.467   2.318 -0.0488 -0.2185  0.3495
   21MOL0     C 2827   8.773   6.330   2.282 -0.4136  0.9840  0.1918
   21MOL0     C 2828   8.780   6.305   2.131 -0.0366  0.4083 -0.9034
   21MOL0     H 2829   8.973   5.864   2.318 -1.8901 -0.1701 -1.4867
   21MOL0     H 2830   9.009   5.635   2.299  2.2825 -0.0540  0.8349
   21MOL0     H 2831   8.787   5.315   2.406 -0.3792 -0.5115 -0.0624
   21MOL0     H 2832   8.714   5.414   2.536  1.1744  1.6160  0.7976
   21MOL0     H 2833   8.877   5.352   2.701  0.0328 -1.1834  0.3622
   21MOL0     H 2834   8.768   5.231   2.642 -0.5290  2.6496  2.1892
   21MOL0     H 2835   8.981   5.140   2.509  1.7731  1.0928 -0.3777
   21MOL0     H 2836   9.074   5.265   2.578  0.3183 -0.2403 -1.4748
   21MOL0     H 2837   9.059   5.192   2.783  0.3321 -1.4268  2.1448
   21MOL0     H 2838   8.944   5.061   2.759  0.7513 -0.0294 -0.5482
   21MOL0     H 2839   9.165   4.969   2.783 -2.1384 -1.2711  0.3687
   21MOL0     H 2840   9.215   5.060   2.628  0.6736 -0.4468  0.1405
   21MOL0     H 2841   8.983   4.863   2.632 -0.6345  0.2777 -1.8552
   21MOL0     H 2842   9.064   4.931   2.491 -2.3220 -0.4245 -0.4423
   21MOL0     H 2843   9.186   4.738   2.702 -0.0757 -1.0041 -0.3535
   21MOL0     H 2844   9.253   4.788   2.552  0.8388  0.4304  0.8472
   21MOL0     H 2845   9.071   4.689   2.417  0.7644 -2.2703 -1.6552
   21MOL0     H 2846   9.162   4.574   2.514  1.4214  0.8459  0.2063
   21MOL0     H 2847   8.998   4.471   2.739  1.1853 -1.1647 -1.6302
   21MOL0     H 2848   8.790   4.393   2.856 -0.7680  3.5246  1.8943
   21MOL0     H 2849   8.703   4.334   2.715 -2.5154  0.6019 -0.0024
   21MOL0     H 2850   8.543   4.533   2.760  2.6563 -0.5410 -2.9530
   21MOL0     H 2851   8.538   4.403   2.883  0.5776 -1.3486 -1.4737
   21MOL0     H 2852   8.673   4.679   2.905 -1.1391  1.8046  2.2939
   21MOL0     H 2853   8.540   4.624   2.984  0.4602  2.7047  0.6248
   21MOL0     H 2854   8.727   4.432   3.088 -2.5877  1.0298  1.5242
   21MOL0     H 2855   8.826   4.557   3.025  0.9902  4.0853  2.7738
   21MOL0     H 2856   8.685   4.754   3.380 -1.1473 -0.2763  2.6188
   21MOL0     H 2857   8.596   4.835   3.592 -1.0095  1.1049  0.3239
   21MOL0     H 2858   8.440   4.801   3.655  2.6782 -0.3157  2.2097
   21MOL0     H 2859   8.456   4.912   3.521  1.2446  0.2674 -0.4755
   21MOL0     H 2860   8.168   4.539   3.801  1.0199  1.6800 -1.5899
   21MOL0     H 2861   7.937   4.508   3.878  0.5277  0.5894 -0.7236
   21MOL0     H 2862   7.632   4.369   3.631 -0.9724 -1.5939 -0.0962
   21MOL0     H 2863   7.651   4.203   3.708 -2.3795 -0.6471 -1.5891
   21MOL0     H 2864   7.419   4.323   3.738  1.2715  0.2374 -2.1432
   21MOL0     H 2865   7.506   4.268   3.883  2.3240  0.0622 -0.0584
   21MOL0     H 2866   7.579   4.499   3.927 -0.7436 -0.9852  0.4532
   21MOL0     H 2867   7.398   4.483   3.934 -1.0640  4.3795 -1.2988
   21MOL0     H 2868   7.400   4.584   3.701 -0.8571 -2.9173  2.6463
   21MOL0     H 2869   7.568   4.614   3.721 -0.7193 -1.6217 -2.0709
   21MOL0     H 2870   7.334   4.708   3.896  1.0494 -0.4957  0.2189
   21MOL0     H 2871   7.490   4.772   3.915 -1.9832 -0.7423  1.1433
   21MOL0     H 2872   7.321   4.789   3.667 -1.4345 -0.6210  0.0156
   21MOL0     H 2873   7.486   4.860   3.675 -0.0249  0.0078 -1.3809
   21MOL0     H 2874   7.250   4.965   3.840 -1.0015  1.8828  0.2599
   21MOL0     H 2875   7.316   5.028   3.692 -1.1142 -4.1046 -1.6358
   21MOL0     H 2876   7.441   5.139   3.860  3.2488  1.3730 -1.4575
   21MOL0     H 2877   7.546   4.998   3.846 -0.0266  0.6253  1.6888
   21MOL0     H 2878   7.832   4.243   3.563 -0.5470  0.5448 -0.9578
   21MOL0     H 2879   8.038   4.328   3.438 -2.4350  2.4023 -1.0119
   21MOL0     H 2880   8.355   4.425   3.299  0.3895  1.0885 -4.0321
   21MOL0     H 2881   8.537   4.396   3.189  0.3703 -0.7945  1.0212
   21MOL0     H 2882   8.743   5.585   2.640 -0.2377  1.1375  1.0565
   21MOL0     H 2883   8.713   5.831   2.650  0.4464 -1.5866  0.7636
   21MOL0     H 2884   8.724   6.208   2.596  1.5307 -2.5812 -2.6486
   21MOL0     H 2885   8.701   6.460   2.643  3.8600  1.9018  0.7510
   21MOL0     H 2886   8.894   6.718   2.570  0.7323  0.5300 -0.7180
   21MOL0     H 2887   8.913   6.696   2.395  3.3960 -2.1999  1.8833
   21MOL0     H 2888   8.734   6.877   2.548  1.0099 -1.4424  0.5479
   21MOL0     H 2889   8.742   6.870   2.369  0.8707  1.3633 -0.0244
   21MOL0     H 2890   8.964   6.942   2.568 -1.9830  1.2781  1.1068
   21MOL0     H 2891   9.009   6.918   2.400  1.2317 -1.5855  2.7281
   21MOL0     H 2892   8.824   7.123   2.530  0.1008  0.8857 -0.7544
   21MOL0     H 2893   8.847   7.111   2.350  0.7015  3.8881  0.4647
   21MOL0     H 2894   9.221   7.256   2.511 -1.0675 -0.7524  3.1633
   21MOL0     H 2895   8.764   6.546   2.243  0.1310  1.7313  2.3013
   21MOL0     H 2896   8.720   6.215   2.115 -0.2488 -0.2542  2.7684
   21MOL0     H 2897   8.723   6.382   2.077 -2.1218  0.1047  0.7606
   21MOL0     H 2898   8.884   6.293   2.098  0.5545  2.2387  0.1551
   22MOL0     O 2899   9.495   5.356  10.494 -0.5145  0.1732  0.5227
   22MOL0     C 2900   9.411   5.290  10.552  0.9569 -0.6730  0.5434
   22MOL0     O 2901   9.353   5.177  10.493 -0.2635 -0.1404 -0.7804
   22MOL0     C 2902   9.384   5.148  10.358 -0.2278  0.4468  0.5838
   22MOL0     C 2903   9.328   5.218  10.248  0.3659  1.0801  0.0159
   22MOL0     C 2904   9.356   5.171  10.118 -1.0587  0.7891  0.1853
   22MOL0     C 2905   9.421   5.045  10.098  0.2876  0.2010  0.4249
   22MOL0     O 2906   9.428   5.011   9.965 -0.7101  0.0040  0.1222
   22MOL0     C 2907   9.532   4.933   9.907 -0.8383 -0.3788 -0.3629
   22MOL0     C 2908   9.518   4.938   9.757  0.2715 -0.8691  0.1907
   22MOL0     C 2909   9.374   4.937   9.704 -0.9700 -0.4037 -0.1021
   22MOL0     C 2910   9.314   4.794   9.733 -0.5198 -0.7418 -0.3290
   22MOL0     C 2911   9.198   4.763   9.629 -0.1960 -0.0510 -0.4822
   22MOL0     C 2912   9.094   4.666   9.693 -0.0964 -0.4704  0.4541
   22MOL0     C 2913   8.954   4.663   9.623 -0.7283  0.5406 -0.0840
   22MOL0     C 2914   8.940   4.606   9.486 -0.2039 -0.3911  0.2955
   22MOL0     N 2915   8.972   4.467   9.478 -0.3779 -1.2255 -0.2513
   22MOL0     C 2916   9.096   4.420   9.446  0.2868 -0.3118  1.0312
   22MOL0     C 2917   9.097   4.285   9.480  1.0968  0.6154  0.2741
   22MOL0     C 2918   9.219   4.193   9.485 -0.1440  0.0061 -0.0544
   22MOL0     C 2919   9.176   4.049   9.461  0.3277  0.5616 -0.8293
   22MOL0     C 2920   9.284   3.968   9.389  1.0064  0.6827 -0.7362
   22MOL0     C 2921   9.283   3.815   9.411 -0.4905 -0.5569  0.8563
   22MOL0     O 2922   9.390   3.766   9.327 -0.3123 -0.2216  0.4600
   22MOL0     C 2923   9.519   3.772   9.365 -0.1517 -0.1149 -0.3048
   22MOL0     C 2924   9.604   3.695   9.296  0.0769 -0.2019  0.9297
   22MOL0     C 2925   9.742   3.692   9.332 -0.4807 -0.7074 -0.0347
   22MOL0     C 2926   9.830   3.602   9.246  0.8852 -0.2805  0.0335
   22MOL0     C 2927   9.788   3.772   9.443  0.8166 -1.2914 -0.3722
   22MOL0     C 2928   9.925   3.781   9.495  0.3800  0.2064  0.2387
   22MOL0     O 2929   9.937   3.879   9.591  0.2557 -0.0052 -0.4011
   22MOL0     C 2930  10.045   3.869   9.671  0.4632  0.5833 -0.3704
   22MOL0     C 2931  10.066   3.755   9.759 -0.9157 -0.4472 -0.0810
   22MOL0     C 2932  10.180   3.756   9.830 -0.9394 -0.6325  1.1242
   22MOL0     C 2933  10.278   3.854   9.821 -0.6016  0.0861  1.0224
   22MOL0     O 2934  10.396   3.844   9.881 -0.1125 -0.4146 -0.4533
   22MOL0     C 2935  10.515   3.884   9.795  0.4624 -0.6770  0.1696
   22MOL0     C 2936  10.643   3.847   9.865  0.1111  0.8341  0.3686
   22MOL0     C 2937  10.668   3.692   9.874 -0.3981  0.9040 -0.7155
   22MOL0     C 2938  10.815   3.668   9.915 -0.3379  0.3364 -0.2573
   22MOL0     C 2939  10.849   3.538   9.980 -0.3356  0.0410 -0.4624
   22MOL0     C 2940  10.994   3.531  10.025  0.1463 -0.4376 -0.1352
   22MOL0     C 2941  11.039   3.392  10.062  0.0420  0.8279 -0.6428
   22MOL0     C 2942  11.159   3.392  10.159 -0.0720 -0.0700  0.2603
   22MOL0    Cl 2943  11.170   3.218  10.215 -0.2877 -0.3410  0.4674
   22MOL0     C 2944  10.251   3.967   9.745  0.8451 -0.0622  0.9044
   22MOL0     C 2945  10.138   3.978   9.670 -0.2055 -0.4604  0.1945
   22MOL0     O 2946  10.017   3.717   9.442  0.0875  0.0740 -0.9586
   22MOL0     C 2947   9.688   3.842   9.523 -0.6936  0.3930 -0.1924
   22MOL0     C 2948   9.563   3.843   9.487  0.3177  0.4369  0.2998
   22MOL0     N 2949   8.973   4.259   9.548 -0.2010 -0.8453 -0.0225
   22MOL0     N 2950   8.896   4.363   9.532  0.0921 -0.1547 -0.1890
   22MOL0     C 2951   9.491   4.988  10.203 -0.0562 -0.2861  0.3266
   22MOL0     C 2952   9.462   5.037  10.331  0.1803  0.4343 -0.5506
   22MOL0     C 2953   9.371   5.343  10.683  0.5901  0.0064 -0.6475
   22MOL0     C 2954   9.425   5.463  10.739  0.1826 -0.1163 -0.8933
   22MOL0     C 2955   9.406   5.493  10.874 -0.3016  0.5025 -0.8114
   22MOL0     C 2956   9.339   5.405  10.957 -0.8276  0.8026 -0.3019
   22MOL0     O 2957   9.321   5.438  11.090  0.0685 -0.6499  1.1427
   22MOL0     C 2958   9.369   5.349  11.190 -0.7495  0.4200  0.6341
   22MOL0     C 2959   9.511   5.285  11.172  0.8117  0.3875 -0.3424
   22MOL0     C 2960   9.542   5.196  11.295 -1.2987  0.0653  0.4668
   22MOL0     C 2961   9.565   5.272  11.424 -0.3695  0.5250  0.5945
   22MOL0     C 2962   9.668   5.374  11.423 -0.0102  0.2401  0.1539
   22MOL0     C 2963   9.750   5.458  11.424 -0.5351 -0.4453  0.2816
   22MOL0     C 2964   9.283   5.282  10.905  0.2287  0.3364 -0.3604
   22MOL0     C 2965   9.289   5.252  10.770  0.1900 -0.2327  0.0243
   22MOL0     C 2966   9.218   5.123  10.725  0.2388 -0.3117  0.1480
   22MOL0     H 2967   9.265   5.305  10.264  2.8219  3.0797 -0.6445
   22MOL0     H 2968   9.324   5.224  10.029  1.5186  2.1029 -0.0688
   22MOL0     H 2969   9.505   4.831   9.937 -3.3364 -0.0494 -1.2637
   22MOL0     H 2970   9.633   4.964   9.934 -1.8985  2.2490  0.9100
   22MOL0     H 2971   9.577   5.022   9.719 -2.2695  0.4437 -1.1646
   22MOL0     H 2972   9.570   4.854   9.710  1.8271  1.3037 -2.2703
   22MOL0     H 2973   9.314   5.015   9.752 -1.1735 -3.1750  4.7162
   22MOL0     H 2974   9.382   4.945   9.595 -0.6129 -1.6032 -0.1779
   22MOL0     H 2975   9.393   4.721   9.710 -0.3778 -0.4403 -0.7871
   22MOL0     H 2976   9.298   4.786   9.841  3.9206 -1.4265  0.4979
   22MOL0     H 2977   9.232   4.713   9.539  2.6854  1.5522 -0.4118
   22MOL0     H 2978   9.145   4.854   9.599  0.7854 -0.1596 -2.7292
   22MOL0     H 2979   9.130   4.563   9.686  1.7687  0.1280  0.6455
   22MOL0     H 2980   9.080   4.674   9.801 -0.1811  1.3167  0.3395
   22MOL0     H 2981   8.909   4.762   9.637  0.0760  0.7975  0.8151
   22MOL0     H 2982   8.894   4.594   9.684  0.7570  1.4751  2.5927
   22MOL0     H 2983   8.838   4.629   9.453 -0.6788 -3.1148 -0.3275
   22MOL0     H 2984   9.014   4.657   9.424  3.2465 -2.9050  2.0741
   22MOL0     H 2985   9.171   4.478   9.394 -1.4451 -1.6379 -3.4289
   22MOL0     H 2986   9.281   4.219   9.571  1.0888 -1.9810 -0.2841
   22MOL0     H 2987   9.281   4.218   9.399  1.3883  1.0394  1.2918
   22MOL0     H 2988   9.149   3.996   9.553 -0.2812 -1.9758 -2.3712
   22MOL0     H 2989   9.084   4.063   9.404 -0.9373  3.1774  1.6105
   22MOL0     H 2990   9.281   3.977   9.280  1.0493  1.7071 -0.6618
   22MOL0     H 2991   9.385   4.001   9.414  0.7978  0.4733  0.4564
   22MOL0     H 2992   9.312   3.796   9.514  4.3161  1.0197  0.0483
   22MOL0     H 2993   9.194   3.765   9.372  0.4670 -1.5073 -0.2008
   22MOL0     H 2994   9.562   3.649   9.207  0.2068  0.7266  0.3705
   22MOL0     H 2995   9.899   3.539   9.302  1.3032 -2.5164 -2.7431
   22MOL0     H 2996   9.882   3.660   9.169 -1.1100 -1.0062 -1.9927
   22MOL0     H 2997   9.760   3.534   9.196 -0.7405  0.9408  0.5808
   22MOL0     H 2998   9.997   3.673   9.772 -2.8600  0.3979 -3.6573
   22MOL0     H 2999  10.202   3.660   9.877 -1.5738 -2.5690 -2.2432
   22MOL0     H 3000  10.507   3.842   9.694  1.1444 -0.9261  0.2193
   22MOL0     H 3001  10.524   3.993   9.794  1.2480 -0.6652  2.4469
   22MOL0     H 3002  10.730   3.895   9.819 -1.8486  2.9196 -1.3850
   22MOL0     H 3003  10.628   3.888   9.965 -1.6682  0.0470  0.4738
   22MOL0     H 3004  10.654   3.646   9.775 -2.0952 -2.0680  0.7572
   22MOL0     H 3005  10.593   3.642   9.936  0.3392 -0.2838 -0.7476
   22MOL0     H 3006  10.844   3.749   9.982 -2.5328 -0.3793  1.7104
   22MOL0     H 3007  10.854   3.673   9.812 -2.7445 -0.9219 -1.3148
   22MOL0     H 3008  10.780   3.520  10.063 -0.2928 -4.4110 -1.1750
   22MOL0     H 3009  10.832   3.457   9.908  1.2452  1.2831 -2.3596
   22MOL0     H 3010  11.001   3.603  10.107  2.4833 -1.1451  0.3647
   22MOL0     H 3011  11.063   3.561   9.946  1.6209 -1.5825  0.6710
   22MOL0     H 3012  11.049   3.330   9.973  2.8811 -0.5070  0.4770
   22MOL0     H 3013  10.955   3.342  10.111  0.8428  1.0670  1.0351
   22MOL0     H 3014  11.154   3.451  10.251 -2.0731  1.6496 -0.8608
   22MOL0     H 3015  11.249   3.423  10.105  2.1475 -1.1390  3.0890
   22MOL0     H 3016  10.320   4.051   9.749 -0.9731  1.5535  0.2412
   22MOL0     H 3017  10.119   4.067   9.612  0.2081  0.5369  1.5451
   22MOL0     H 3018   9.711   3.873   9.624  1.5207  0.4631 -0.6810
   22MOL0     H 3019   9.492   3.884   9.558 -0.4876 -0.0723 -0.1900
   22MOL0     H 3020   9.557   4.904  10.183  0.3780  0.4620 -1.6913
   22MOL0     H 3021   9.511   4.994  10.418  0.7256  0.6254 -0.7598
   22MOL0     H 3022   9.477   5.528  10.669 -0.9312  1.3280 -0.4214
   22MOL0     H 3023   9.441   5.580  10.927  0.3017  0.7715 -1.6208
   22MOL0     H 3024   9.358   5.416  11.276 -1.5822  1.5357 -0.2993
   22MOL0     H 3025   9.303   5.265  11.214 -1.5166  1.0142  0.6746
   22MOL0     H 3026   9.580   5.367  11.152 -0.1077  1.4373  0.6538
   22MOL0     H 3027   9.509   5.223  11.082  0.3311  0.8671 -0.6707
   22MOL0     H 3028   9.454   5.133  11.307 -0.7815 -0.6836  0.3565
   22MOL0     H 3029   9.632   5.136  11.279  3.7983  6.2086  1.5885
   22MOL0     H 3030   9.578   5.203  11.508  0.2987 -1.0892 -0.7839
   22MOL0     H 3031   9.470   5.321  11.448 -0.0650  1.4004  0.0711
   22MOL0     H 3032   9.827   5.532  11.432 -0.5280 -0.6246  2.4549
   22MOL0     H 3033   9.216   5.222  10.966 -1.7411  0.3630 -2.3608
   22MOL0     H 3034   9.164   5.153  10.635 -2.4524 -0.3090  1.6565
   22MOL0     H 3035   9.289   5.042  10.705  0.0362 -0.1969 -1.1179
   22MOL0     H 3036   9.150   5.088  10.803 -0.0759 -0.6903 -0.2876
   23MOL0     O 3037   8.750  11.404  10.942 -0.3130 -0.4451 -0.5228
   23MOL0     C 3038   8.693  11.472  10.860 -0.3761  1.0075 -0.2702
   23MOL0     O 3039   8.560  11.492  10.858  0.7400  0.3787  0.0225
   23MOL0     C 3040   8.474  11.418  10.944  0.6588 -0.1157 -0.1159
   23MOL0     C 3041   8.396  11.315  10.879 -0.8661 -0.5408 -0.4295
   23MOL0     C 3042   8.290  11.261  10.944  0.5255  0.0744  0.1295
   23MOL0     C 3043   8.264  11.296  11.081 -0.2969  0.1171  0.4397
   23MOL0     O 3044   8.149  11.228  11.126  0.0620 -0.3262 -0.0159
   23MOL0     C 3045   8.119  11.230  11.266  0.1622  0.1829 -0.3580
   23MOL0     C 3046   8.027  11.363  11.287 -0.0980  0.0921  0.2251
   23MOL0     C 3047   7.991  11.377  11.436  0.1619  0.9597 -0.8333
   23MOL0     C 3048   7.935  11.512  11.486  1.1015 -0.1514  0.5293
   23MOL0     C 3049   7.907  11.540  11.633  0.1122  0.0425 -0.7530
   23MOL0     C 3050   7.879  11.685  11.646  1.3518  0.2248 -0.4458
   23MOL0     C 3051   7.815  11.721  11.783  0.4634 -0.0433 -0.4705
   23MOL0     C 3052   7.907  11.665  11.894 -0.1080  0.1733 -0.0761
   23MOL0     N 3053   8.048  11.730  11.891 -0.3624  0.1459  1.2878
   23MOL0     C 3054   8.087  11.857  11.940 -0.4570  0.9754 -0.3531
   23MOL0     C 3055   8.218  11.853  11.941  0.0090 -0.1884  0.6134
   23MOL0     C 3056   8.305  11.933  12.035 -0.2403 -0.3418 -0.3467
   23MOL0     C 3057   8.395  12.028  11.953 -0.5275  0.6600  1.2902
   23MOL0     C 3058   8.508  12.093  12.022 -0.0645 -0.3239  0.1417
   23MOL0     C 3059   8.581  12.200  11.935 -1.1521  0.5245  0.0692
   23MOL0     O 3060   8.494  12.297  11.886 -0.3169 -1.0643  0.8390
   23MOL0     C 3061   8.493  12.416  11.954  0.8172  1.0312 -0.6147
   23MOL0     C 3062   8.436  12.431  12.082 -1.2015  0.2738 -0.1578
   23MOL0     C 3063   8.426  12.556  12.148  0.1997  0.3208 -0.7140
   23MOL0     C 3064   8.352  12.563  12.274 -0.4862 -0.7277 -0.5315
   23MOL0     C 3065   8.483  12.673  12.085 -0.7789  0.5013  0.7980
   23MOL0     C 3066   8.480  12.807  12.144  0.5788 -0.5054  0.0826
   23MOL0     O 3067   8.406  12.828  12.254 -0.7506 -0.5172 -0.4883
   23MOL0     C 3068   8.405  12.943  12.319 -0.1985 -0.1803  0.3276
   23MOL0     C 3069   8.318  13.046  12.302  0.9141  0.9011 -0.0806
   23MOL0     C 3070   8.318  13.156  12.374 -0.1429  0.7506 -0.5557
   23MOL0     C 3071   8.401  13.174  12.483 -1.0881  0.1230  0.2422
   23MOL0     O 3072   8.413  13.295  12.556 -0.1545  0.6172  0.5246
   23MOL0     C 3073   8.305  13.337  12.631  0.4616  0.4711 -0.2602
   23MOL0     C 3074   8.347  13.474  12.687  0.2432 -0.5736  1.4692
   23MOL0     C 3075   8.245  13.530  12.779 -0.0999 -0.2240 -0.2028
   23MOL0     C 3076   8.102  13.512  12.729  1.5541  1.0405  0.3840
   23MOL0     C 3077   8.004  13.580  12.835 -0.8130  0.8490  0.1995
   23MOL0     C 3078   7.862  13.569  12.787 -0.6396 -0.1150  0.2492
   23MOL0     C 3079   7.780  13.623  12.908 -0.3401 -0.6178 -0.4118
   23MOL0     C 3080   7.642  13.592  12.882 -0.6342 -0.1425 -0.3269
   23MOL0    Cl 3081   7.537  13.690  13.005 -0.3663  0.2972  0.2092
   23MOL0     C 3082   8.497  13.065  12.497  0.0373  0.0366 -0.2525
   23MOL0     C 3083   8.493  12.953  12.417 -0.3488 -1.2432  0.1151
   23MOL0     O 3084   8.526  12.900  12.073 -0.1490  0.3133 -0.5280
   23MOL0     C 3085   8.542  12.651  11.965 -0.1223 -0.0451  0.5541
   23MOL0     C 3086   8.546  12.532  11.898 -0.4530 -0.4997 -0.0214
   23MOL0     N 3087   8.265  11.751  11.853  0.0765  0.9797  0.1695
   23MOL0     N 3088   8.167  11.673  11.826 -0.4304 -0.8384  0.1933
   23MOL0     C 3089   8.337  11.401  11.148 -0.1620 -0.0278 -0.3905
   23MOL0     C 3090   8.441  11.456  11.076 -0.1606 -0.4291  0.0279
   23MOL0     C 3091   8.774  11.539  10.760 -0.4978 -0.6707 -1.4322
   23MOL0     C 3092   8.898  11.472  10.723  0.8370 -0.0106  0.2511
   23MOL0     C 3093   8.979  11.530  10.629 -0.0102 -0.3340  0.1855
   23MOL0     C 3094   8.945  11.644  10.554 -0.0582 -0.2359  0.3884
   23MOL0     O 3095   9.014  11.697  10.448  0.3565 -0.2514 -0.0244
   23MOL0     C 3096   9.128  11.617  10.397  0.2090 -0.5494  0.7367
   23MOL0     C 3097   9.159  11.662  10.256  0.4776 -0.4772 -0.3679
   23MOL0     C 3098   9.163  11.819  10.237  0.6309 -0.3945 -0.4451
   23MOL0     C 3099   9.030  11.881  10.208 -1.0825 -1.0791 -0.2102
   23MOL0     C 3100   9.005  11.880  10.069  0.0159  0.4991 -0.1574
   23MOL0     C 3101   8.995  11.874   9.947  0.0454  1.2242 -0.0289
   23MOL0     C 3102   8.817  11.702  10.581  0.5872  1.0900 -0.2166
   23MOL0     C 3103   8.737  11.662  10.694  0.5698 -0.1910  1.3273
   23MOL0     C 3104   8.614  11.736  10.722 -0.2728 -0.0550 -0.7633
   23MOL0     H 3105   8.439  11.285  10.784 -0.3362 -1.0187 -0.0363
   23MOL0     H 3106   8.233  11.187  10.889  0.4836  0.8717 -0.9595
   23MOL0     H 3107   8.208  11.246  11.327 -0.4033 -0.3849  0.6403
   23MOL0     H 3108   8.071  11.137  11.297 -1.4501  1.8082  2.4613
   23MOL0     H 3109   8.078  11.451  11.246 -0.1265 -1.2144 -2.9534
   23MOL0     H 3110   7.934  11.347  11.232  1.9675 -2.0406 -3.0569
   23MOL0     H 3111   7.932  11.286  11.452  2.0160 -0.1624  0.1438
   23MOL0     H 3112   8.078  11.346  11.495 -1.0073 -0.7225  0.0903
   23MOL0     H 3113   8.014  11.582  11.459  1.3501 -0.5317  0.2697
   23MOL0     H 3114   7.841  11.537  11.435  0.4603 -2.8446  0.2581
   23MOL0     H 3115   7.996  11.509  11.688 -0.9728  1.6930  2.1172
   23MOL0     H 3116   7.818  11.479  11.653  0.4138  0.2317  1.3263
   23MOL0     H 3117   7.981  11.722  11.659  1.2871  0.3237 -0.2240
   23MOL0     H 3118   7.827  11.731  11.561  1.6275  0.0493 -0.7104
   23MOL0     H 3119   7.718  11.671  11.786  0.1158  0.6556  1.9607
   23MOL0     H 3120   7.801  11.829  11.790 -0.9698 -0.0129 -2.8705
   23MOL0     H 3121   7.877  11.672  11.999 -1.1913  0.9716 -0.4137
   23MOL0     H 3122   7.908  11.557  11.880 -2.0919  0.3039 -1.8242
   23MOL0     H 3123   8.033  11.931  11.998  0.2031  0.0005  1.5989
   23MOL0     H 3124   8.348  11.873  12.116 -0.8684  0.0351  0.2784
   23MOL0     H 3125   8.246  12.000  12.099 -0.0503  0.2386 -0.7651
   23MOL0     H 3126   8.444  11.979  11.868  1.5060  0.3992  2.5554
   23MOL0     H 3127   8.319  12.096  11.912 -1.1984 -0.9315 -0.2539
   23MOL0     H 3128   8.486  12.132  12.122  5.2039  0.9685  1.1073
   23MOL0     H 3129   8.582  12.013  12.027 -2.4264 -2.6642 -0.4257
   23MOL0     H 3130   8.660  12.243  11.998 -0.6398 -0.0578 -0.1662
   23MOL0     H 3131   8.624  12.148  11.849 -2.1003 -2.0593  1.0265
   23MOL0     H 3132   8.410  12.343  12.140  1.7759 -1.4100 -1.1770
   23MOL0     H 3133   8.329  12.461  12.305 -2.4150 -0.0957  0.2130
   23MOL0     H 3134   8.258  12.618  12.273 -0.5874 -0.8848  0.1240
   23MOL0     H 3135   8.413  12.605  12.354 -0.8706  0.1007 -0.6669
   23MOL0     H 3136   8.234  13.032  12.234 -0.6810  1.6325  1.6576
   23MOL0     H 3137   8.255  13.241  12.350  0.0177  1.8453  2.4199
   23MOL0     H 3138   8.219  13.356  12.566 -1.3130 -1.8112  1.2778
   23MOL0     H 3139   8.286  13.267  12.712  4.1083 -0.7979 -0.2889
   23MOL0     H 3140   8.443  13.472  12.740  0.6811 -0.4216  0.7010
   23MOL0     H 3141   8.367  13.548  12.609 -1.1708 -2.3551 -0.7115
   23MOL0     H 3142   8.263  13.635  12.801 -1.0029 -0.6358  2.9999
   23MOL0     H 3143   8.250  13.480  12.876 -3.6178 -2.8616 -1.1428
   23MOL0     H 3144   8.085  13.408  12.699  1.6468  0.7172  1.4103
   23MOL0     H 3145   8.082  13.575  12.641  0.7335 -0.8178 -0.8204
   23MOL0     H 3146   8.012  13.525  12.929 -2.2599 -1.5694 -0.9885
   23MOL0     H 3147   8.033  13.684  12.855 -0.5760  0.1685  4.1475
   23MOL0     H 3148   7.855  13.460  12.776  0.6964 -0.3136  1.1053
   23MOL0     H 3149   7.831  13.607  12.690 -1.7289 -4.1983 -1.2183
   23MOL0     H 3150   7.792  13.727  12.940  1.0724 -1.5795  2.6106
   23MOL0     H 3151   7.812  13.568  12.997 -0.5771 -1.9968 -1.1555
   23MOL0     H 3152   7.604  13.490  12.896 -1.3173 -0.1078 -1.7851
   23MOL0     H 3153   7.619  13.630  12.782 -0.8177 -0.2538 -0.3257
   23MOL0     H 3154   8.584  13.069  12.561  0.0634 -1.6863 -0.1166
   23MOL0     H 3155   8.558  12.867  12.424 -1.2603 -2.2281 -2.4821
   23MOL0     H 3156   8.589  12.738  11.919 -2.7173  0.2800 -1.7662
   23MOL0     H 3157   8.575  12.516  11.795 -0.1650  2.1436 -0.4208
   23MOL0     H 3158   8.302  11.444  11.241 -4.6983  0.2920 -2.0128
   23MOL0     H 3159   8.497  11.535  11.124 -3.3157  0.4864  2.5794
   23MOL0     H 3160   8.929  11.378  10.768  0.8103 -0.3525 -0.4194
   23MOL0     H 3161   9.076  11.488  10.606  0.1624  1.4291 -2.8149
   23MOL0     H 3162   9.219  11.641  10.453  1.4160 -0.1656 -1.2904
   23MOL0     H 3163   9.113  11.508  10.403  1.1337 -0.9919 -2.8020
   23MOL0     H 3164   9.084  11.616  10.190 -0.7351  0.8805  0.0177
   23MOL0     H 3165   9.259  11.620  10.244  0.2499 -2.6642  3.6780
   23MOL0     H 3166   9.213  11.873  10.318 -1.3377  0.9134 -0.0136
   23MOL0     H 3167   9.220  11.836  10.146  0.7295 -0.2027 -0.3473
   23MOL0     H 3168   9.040  11.983  10.247  2.0660 -1.4480  0.1715
   23MOL0     H 3169   8.950  11.837  10.268 -1.1375  0.9975  1.3786
   23MOL0     H 3170   8.997  11.872   9.840  1.1092 -0.0120 -0.0132
   23MOL0     H 3171   8.784  11.798  10.543 -0.1702  0.1966 -1.9241
   23MOL0     H 3172   8.526  11.688  10.677 -0.9700 -0.7757  1.2497
   23MOL0     H 3173   8.585  11.741  10.828  2.1089  0.0731 -0.0515
   23MOL0     H 3174   8.623  11.839  10.688  2.1555 -0.3174 -1.0549
   24MOL0     O 3175  10.901   8.347   6.273  0.8762 -0.3145 -0.4550
   24MOL0     C 3176  11.006   8.279   6.276 -0.0217 -0.3988 -0.4418
   24MOL0     O 3177  11.115   8.310   6.196 -0.1029  0.4342 -0.7082
   24MOL0     C 3178  11.119   8.422   6.113  0.5754 -0.4394 -0.7359
   24MOL0     C 3179  11.245   8.470   6.068 -0.7988  0.2985  0.2821
   24MOL0     C 3180  11.260   8.570   5.968  0.0473  0.6846  0.4653
   24MOL0     C 3181  11.152   8.633   5.918  0.5757 -0.6313  0.1225
   24MOL0     O 3182  11.191   8.718   5.815  0.5959  0.8258  0.1929
   24MOL0     C 3183  11.092   8.795   5.749  0.3842 -0.3267  0.0603
   24MOL0     C 3184  11.135   8.840   5.608  0.5548  0.4685 -0.0893
   24MOL0     C 3185  11.270   8.912   5.589  0.1472  0.2943  0.0995
   24MOL0     C 3186  11.308   8.927   5.442  0.8744  0.2287  0.0602
   24MOL0     C 3187  11.374   9.054   5.392  0.2184 -0.5024 -0.1879
   24MOL0     C 3188  11.293   9.181   5.416  0.3711 -0.4848 -1.3858
   24MOL0     C 3189  11.166   9.199   5.320  0.2053 -0.4080 -0.1613
   24MOL0     C 3190  11.055   9.299   5.358 -1.1926  0.4407 -0.5146
   24MOL0     N 3191  10.999   9.268   5.489  0.3493  0.4724  1.2704
   24MOL0     C 3192  10.897   9.170   5.514 -0.1234  0.0428  0.7708
   24MOL0     C 3193  10.899   9.170   5.651  0.6430  0.7237  0.6026
   24MOL0     C 3194  10.822   9.067   5.735  0.3864 -0.3724  0.3151
   24MOL0     C 3195  10.791   9.126   5.872  0.1914  0.0108 -0.3628
   24MOL0     C 3196  10.887   9.069   5.975 -0.4448  0.0429 -1.0805
   24MOL0     C 3197  10.813   9.070   6.119  0.2194 -0.1624  0.5131
   24MOL0     O 3198  10.761   8.942   6.137  0.9966 -0.3827 -0.1010
   24MOL0     C 3199  10.752   8.882   6.260  0.0422  0.1188 -0.7902
   24MOL0     C 3200  10.708   8.750   6.272 -0.0566  0.4124  0.1258
   24MOL0     C 3201  10.673   8.691   6.401 -0.7488 -0.2892 -1.1570
   24MOL0     C 3202  10.600   8.554   6.386  0.9450 -1.7478  0.8585
   24MOL0     C 3203  10.701   8.758   6.520  0.2775  0.1195  0.0929
   24MOL0     C 3204  10.683   8.694   6.649  0.5017 -0.4840 -0.1899
   24MOL0     O 3205  10.704   8.788   6.755 -0.3592 -0.2973 -0.0099
   24MOL0     C 3206  10.661   8.745   6.882  0.5238 -0.4515 -0.5837
   24MOL0     C 3207  10.756   8.722   6.973  0.0362  0.2884  0.7069
   24MOL0     C 3208  10.733   8.654   7.090  0.2598 -0.4855 -0.0105
   24MOL0     C 3209  10.605   8.602   7.121  0.0960 -0.0034  0.2226
   24MOL0     O 3210  10.571   8.520   7.224  0.3766 -0.2915 -0.4107
   24MOL0     C 3211  10.618   8.565   7.347 -0.8026  0.4180  0.0134
   24MOL0     C 3212  10.591   8.452   7.443 -1.1442 -0.7601 -0.9755
   24MOL0     C 3213  10.618   8.514   7.579 -0.4459 -0.0466  0.9173
   24MOL0     C 3214  10.572   8.439   7.702  0.7846  1.2857 -0.1976
   24MOL0     C 3215  10.418   8.427   7.721  0.0232  0.6673  0.1374
   24MOL0     C 3216  10.354   8.562   7.739  0.4297 -0.5904  0.2921
   24MOL0     C 3217  10.214   8.551   7.805  0.5422 -0.0302  0.7450
   24MOL0     C 3218  10.213   8.491   7.940 -0.2129 -0.8165 -0.7702
   24MOL0    Cl 3219  10.329   8.580   8.053 -0.2117  0.3247  0.4728
   24MOL0     C 3220  10.496   8.633   7.040  0.2441  1.0287 -0.4048
   24MOL0     C 3221  10.530   8.697   6.920 -0.2195  1.0003 -0.0982
   24MOL0     O 3222  10.667   8.574   6.667  0.1083 -0.5167  0.6144
   24MOL0     C 3223  10.747   8.889   6.512 -0.1653  0.2088  0.3795
   24MOL0     C 3224  10.778   8.949   6.384 -0.5131 -0.0464 -0.5279
   24MOL0     N 3225  10.986   9.259   5.706 -0.0185 -0.4553  0.2901
   24MOL0     N 3226  11.043   9.320   5.609 -1.4230  0.1051 -0.3327
   24MOL0     C 3227  11.030   8.581   5.948  0.2366 -0.7235  0.4751
   24MOL0     C 3228  11.001   8.482   6.045 -0.6863  0.2669 -1.0795
   24MOL0     C 3229  11.021   8.169   6.379 -0.8142 -0.4166 -0.0491
   24MOL0     C 3230  11.146   8.099   6.381 -0.8143 -0.5386 -0.1798
   24MOL0     C 3231  11.162   7.978   6.455  0.3536  0.2390 -0.4725
   24MOL0     C 3232  11.057   7.931   6.531 -0.1035 -0.2936  0.4226
   24MOL0     O 3233  11.072   7.810   6.597  0.4340 -0.3365 -0.2723
   24MOL0     C 3234  10.955   7.724   6.609  0.2678 -0.5047  0.0253
   24MOL0     C 3235  10.994   7.580   6.597 -0.2156 -1.3788  0.6327
   24MOL0     C 3236  11.074   7.513   6.711  0.6592  0.1578  0.5702
   24MOL0     C 3237  11.093   7.360   6.691 -0.2915 -0.5111 -0.5102
   24MOL0     C 3238  11.184   7.328   6.580 -0.3328  0.8722 -0.6563
   24MOL0     C 3239  11.236   7.289   6.479 -0.1225  0.1184  0.6782
   24MOL0     C 3240  10.948   8.007   6.542  0.6522  0.3178  0.9324
   24MOL0     C 3241  10.923   8.128   6.468 -1.2494 -0.3976  0.7704
   24MOL0     C 3242  10.785   8.198   6.495  0.1751  0.1037  0.5399
   24MOL0     H 3243  11.338   8.420   6.095  1.8789  4.0692 -1.0521
   24MOL0     H 3244  11.354   8.590   5.919  1.2565 -1.9932  1.4773
   24MOL0     H 3245  11.070   8.887   5.805  0.2633  1.0726 -2.1614
   24MOL0     H 3246  10.999   8.738   5.739 -2.1607  3.0302  2.3828
   24MOL0     H 3247  11.130   8.745   5.554 -1.8066  0.1799  0.5348
   24MOL0     H 3248  11.057   8.896   5.556  1.5288 -0.4117 -2.6923
   24MOL0     H 3249  11.252   9.009   5.635 -2.2020 -0.4652  0.8999
   24MOL0     H 3250  11.351   8.871   5.651 -0.3477 -1.7259 -0.5226
   24MOL0     H 3251  11.378   8.847   5.416  0.2421 -0.4031  0.2738
   24MOL0     H 3252  11.212   8.924   5.389  1.4069  3.0576 -1.2497
   24MOL0     H 3253  11.402   9.063   5.287 -2.0473  1.1503 -0.7299
   24MOL0     H 3254  11.468   9.064   5.447 -0.2568  3.1720  0.2185
   24MOL0     H 3255  11.269   9.188   5.522  4.9936 -0.5130 -0.1021
   24MOL0     H 3256  11.351   9.271   5.396  1.4495 -0.7247  0.4048
   24MOL0     H 3257  11.114   9.104   5.304 -1.4669  0.4622 -0.1195
   24MOL0     H 3258  11.199   9.237   5.223 -0.3074  0.0862 -0.1514
   24MOL0     H 3259  11.113   9.392   5.365  0.2972 -0.5871  3.9229
   24MOL0     H 3260  10.980   9.297   5.278 -3.3032 -0.9498  1.3998
   24MOL0     H 3261  10.841   9.116   5.438  0.7608  1.5024 -0.9789
   24MOL0     H 3262  10.884   8.977   5.732 -0.5183 -1.1136  2.2332
   24MOL0     H 3263  10.730   9.030   5.689  0.0412 -2.7091  2.6620
   24MOL0     H 3264  10.808   9.232   5.892 -1.3728  1.0794 -3.9119
   24MOL0     H 3265  10.687   9.096   5.888 -0.0582 -1.0864 -3.4345
   24MOL0     H 3266  10.917   8.966   5.956 -3.8390 -1.5221  0.9715
   24MOL0     H 3267  10.977   9.131   5.976 -0.1408 -0.3287  2.0184
   24MOL0     H 3268  10.896   9.100   6.183  1.1855 -0.3531 -0.6152
   24MOL0     H 3269  10.732   9.143   6.118 -1.1927 -1.6708 -0.6944
   24MOL0     H 3270  10.682   8.705   6.177  1.7195  0.0945 -0.2405
   24MOL0     H 3271  10.540   8.546   6.294 -0.5393  0.5554  1.5407
   24MOL0     H 3272  10.524   8.547   6.463  0.6042  1.1293  0.9056
   24MOL0     H 3273  10.675   8.476   6.401  2.3857 -0.4466  0.6663
   24MOL0     H 3274  10.858   8.725   6.936 -0.8517  0.7586 -1.9676
   24MOL0     H 3275  10.812   8.629   7.160  1.6258  1.5459 -0.7434
   24MOL0     H 3276  10.721   8.602   7.342 -0.1278 -1.5831 -1.8313
   24MOL0     H 3277  10.564   8.657   7.374 -2.7443 -1.5741  3.7706
   24MOL0     H 3278  10.485   8.424   7.440 -1.2255 -0.7522  0.6381
   24MOL0     H 3279  10.642   8.356   7.440 -2.6719 -1.6374 -0.3030
   24MOL0     H 3280  10.582   8.617   7.591  3.7958  1.5576  1.9878
   24MOL0     H 3281  10.726   8.532   7.593  0.6100 -3.4371 -1.6300
   24MOL0     H 3282  10.610   8.485   7.793  1.7836 -0.9317  0.5803
   24MOL0     H 3283  10.602   8.335   7.715 -1.5887  0.9012  4.1347
   24MOL0     H 3284  10.369   8.382   7.634 -2.6832  6.9280 -2.1311
   24MOL0     H 3285  10.409   8.364   7.810  2.6126 -0.4807 -0.3195
   24MOL0     H 3286  10.337   8.618   7.646 -0.7736 -0.0214  0.8449
   24MOL0     H 3287  10.419   8.631   7.793 -1.0388 -0.4112  1.9175
   24MOL0     H 3288  10.147   8.487   7.746  0.9550  0.6183 -0.4746
   24MOL0     H 3289  10.175   8.653   7.815  4.2797  1.5847  0.3295
   24MOL0     H 3290  10.238   8.385   7.927 -4.2479 -1.8213 -1.8855
   24MOL0     H 3291  10.110   8.505   7.974  0.6206  1.6538  1.0007
   24MOL0     H 3292  10.392   8.609   7.056  0.3382  2.2329  2.6505
   24MOL0     H 3293  10.465   8.697   6.833  1.5205 -0.0489 -1.4499
   24MOL0     H 3294  10.761   8.942   6.606 -3.6799 -3.4279  3.2832
   24MOL0     H 3295  10.826   9.046   6.384 -0.9725  0.3360  2.9733
   24MOL0     H 3296  10.946   8.608   5.885  1.2314 -1.7116 -1.3456
   24MOL0     H 3297  10.902   8.438   6.051 -1.1261  1.4794  2.0058
   24MOL0     H 3298  11.236   8.135   6.333  0.6012 -3.2441  0.2592
   24MOL0     H 3299  11.253   7.919   6.446  0.1985 -0.3092  1.2373
   24MOL0     H 3300  10.910   7.728   6.709 -0.7445  2.3875 -0.4732
   24MOL0     H 3301  10.880   7.757   6.538  0.9883  3.1952  0.7572
   24MOL0     H 3302  11.049   7.580   6.502 -1.8709  0.5574 -0.3943
   24MOL0     H 3303  10.899   7.530   6.578 -1.4775  1.7739 -2.5462
   24MOL0     H 3304  11.170   7.563   6.719  2.0810 -1.7583 -2.5444
   24MOL0     H 3305  11.021   7.536   6.804  1.1317 -0.7113  1.0663
   24MOL0     H 3306  10.995   7.322   6.660 -0.4363  2.8689 -5.2533
   24MOL0     H 3307  11.136   7.307   6.776  1.4944 -0.8472 -1.5827
   24MOL0     H 3308  11.265   7.245   6.385  1.0853  3.6296 -0.7683
   24MOL0     H 3309  10.861   7.969   6.596 -0.5986  1.2853 -0.3109
   24MOL0     H 3310  10.741   8.229   6.399  1.3543  1.7054  0.4705
   24MOL0     H 3311  10.712   8.140   6.551  0.5537  1.8186  2.9806
   24MOL0     H 3312  10.803   8.292   6.549  1.2876  0.4729 -0.4193
   25MOL0     O 3313   5.167   7.905   9.073 -0.0838 -0.6316  0.4791
   25MOL0     C 3314   5.101   7.922   8.966 -0.7235  0.2047 -0.1588
   25MOL0     O 3315   5.138   8.009   8.859  0.6328  0.3313 -0.5007
   25MOL0     C 3316   5.254   8.065   8.857  0.9228  1.0238 -0.2652
   25MOL0     C 3317   5.267   8.206   8.847 -0.0287 -0.0635  0.2220
   25MOL0     C 3318   5.400   8.247   8.824 -0.8586 -0.0059 -0.0280
   25MOL0     C 3319   5.519   8.162   8.823 -0.1533 -0.5146 -0.7997
   25MOL0     O 3320   5.639   8.224   8.804 -0.1997  0.1879  0.6730
   25MOL0     C 3321   5.702   8.189   8.679  0.7489 -0.5980  0.3428
   25MOL0     C 3322   5.670   8.298   8.569  0.1607 -0.2380 -0.0109
   25MOL0     C 3323   5.716   8.437   8.632 -0.4607  0.1699 -0.2291
   25MOL0     C 3324   5.692   8.542   8.527 -1.0803 -0.4735 -0.7464
   25MOL0     C 3325   5.688   8.678   8.603  0.1486 -0.0842 -0.0086
   25MOL0     C 3326   5.829   8.723   8.662  0.6944 -0.5129 -0.1825
   25MOL0     C 3327   5.816   8.873   8.708  0.8652 -0.0153  0.1666
   25MOL0     C 3328   5.936   8.930   8.793 -0.1575  1.5443 -0.5171
   25MOL0     N 3329   6.023   9.014   8.706 -0.7127 -0.6002 -1.0321
   25MOL0     C 3330   6.119   8.958   8.634 -1.0047 -0.3642  0.2385
   25MOL0     C 3331   6.189   9.065   8.590 -0.3969 -0.4339 -0.0285
   25MOL0     C 3332   6.295   9.074   8.484  0.0765  0.2270 -0.5884
   25MOL0     C 3333   6.337   8.950   8.416 -0.1078  0.6285 -0.9709
   25MOL0     C 3334   6.406   8.849   8.519 -1.0270  0.2970  0.7475
   25MOL0     C 3335   6.536   8.907   8.586 -0.1866 -0.0107 -0.6275
   25MOL0     O 3336   6.640   8.932   8.486 -0.6015 -0.6198  0.6130
   25MOL0     C 3337   6.701   8.831   8.410 -0.8081  0.1268  0.3775
   25MOL0     C 3338   6.791   8.874   8.307 -0.2133 -0.2381 -0.7775
   25MOL0     C 3339   6.841   8.785   8.206  0.6125 -0.0047 -0.5253
   25MOL0     C 3340   6.927   8.836   8.092 -0.1480  0.4718 -0.2159
   25MOL0     C 3341   6.812   8.643   8.224  0.5213  0.5648  0.5980
   25MOL0     C 3342   6.867   8.545   8.145 -0.0368  0.8241  0.5762
   25MOL0     O 3343   6.881   8.414   8.187  0.7375  0.3569 -0.8501
   25MOL0     C 3344   6.904   8.315   8.102 -0.4685 -0.4189  0.4436
   25MOL0     C 3345   6.852   8.291   7.974  0.8402  0.3074  0.3431
   25MOL0     C 3346   6.879   8.185   7.899  0.1870  0.3515 -0.0144
   25MOL0     C 3347   6.979   8.096   7.944 -0.9167  0.6290  0.0095
   25MOL0     O 3348   7.019   7.991   7.861 -0.6608 -0.5846 -0.0829
   25MOL0     C 3349   6.966   7.864   7.907  0.2769 -0.3597 -0.2799
   25MOL0     C 3350   7.068   7.752   7.917 -0.8000 -0.2124 -0.2489
   25MOL0     C 3351   7.207   7.783   7.984  0.2322  0.1320 -0.4721
   25MOL0     C 3352   7.326   7.694   7.950 -0.0832 -0.7238  0.6481
   25MOL0     C 3353   7.333   7.654   7.800  0.2370 -0.1303 -1.1482
   25MOL0     C 3354   7.421   7.532   7.786  0.5690 -0.7136  0.4776
   25MOL0     C 3355   7.503   7.529   7.649 -0.1845 -0.7922 -0.8973
   25MOL0     C 3356   7.630   7.609   7.642 -0.1893  0.2152 -0.6248
   25MOL0    Cl 3357   7.716   7.585   7.798  0.4167  0.0284  0.0744
   25MOL0     C 3358   7.043   8.122   8.063  0.1502  0.6938 -0.4316
   25MOL0     C 3359   7.004   8.235   8.136 -0.6123  0.2861 -0.6699
   25MOL0     O 3360   6.880   8.577   8.025  0.0975  0.5283 -0.5625
   25MOL0     C 3361   6.732   8.601   8.334 -0.4815 -0.6509  0.2869
   25MOL0     C 3362   6.683   8.694   8.426 -0.6624 -0.6835 -0.1596
   25MOL0     N 3363   6.131   9.175   8.638 -0.3332  0.2568  0.2696
   25MOL0     N 3364   6.026   9.149   8.708  0.2057 -0.7279  0.1584
   25MOL0     C 3365   5.494   8.029   8.845 -0.0331 -0.1201  0.0895
   25MOL0     C 3366   5.361   7.980   8.853  0.0021  0.0280  0.1491
   25MOL0     C 3367   4.990   7.834   8.940  1.0464 -0.8184  1.3400
   25MOL0     C 3368   4.896   7.832   9.043 -0.2100  0.6158  0.5107
   25MOL0     C 3369   4.774   7.761   9.016 -0.1656 -0.9130 -1.1050
   25MOL0     C 3370   4.752   7.686   8.909  0.7738  0.3277  1.0728
   25MOL0     O 3371   4.641   7.608   8.871 -0.0091  0.0095 -0.3638
   25MOL0     C 3372   4.570   7.553   8.981  0.9430  0.1335  0.8606
   25MOL0     C 3373   4.643   7.432   9.039 -0.7208 -0.0545 -0.3207
   25MOL0     C 3374   4.687   7.326   8.936  0.0357  0.7290 -0.0074
   25MOL0     C 3375   4.802   7.226   8.977 -0.4630  0.0028 -0.3134
   25MOL0     C 3376   4.778   7.174   9.120 -0.7896 -0.7079  0.0800
   25MOL0     C 3377   4.755   7.148   9.236 -0.4202  0.4896  0.4347
   25MOL0     C 3378   4.837   7.704   8.801  0.5194 -0.1347 -0.5160
   25MOL0     C 3379   4.951   7.779   8.813  0.1921  0.2674  1.6773
   25MOL0     C 3380   5.019   7.813   8.690 -0.5459  0.9357 -0.3629
   25MOL0     H 3381   5.173   8.258   8.865 -0.1990 -0.3758  0.2627
   25MOL0     H 3382   5.423   8.353   8.816 -2.3314  0.3576  0.3129
   25MOL0     H 3383   5.680   8.086   8.651 -2.8505  0.1146  0.0238
   25MOL0     H 3384   5.810   8.189   8.692  0.8022 -0.8620 -0.0918
   25MOL0     H 3385   5.726   8.261   8.482 -2.0814 -2.8325 -0.4656
   25MOL0     H 3386   5.563   8.293   8.548  0.3982  1.1805 -1.8498
   25MOL0     H 3387   5.677   8.460   8.732  2.6937 -1.3971  1.5191
   25MOL0     H 3388   5.824   8.427   8.638 -0.3729  1.3638  0.3868
   25MOL0     H 3389   5.774   8.539   8.456  0.1041  0.2167  0.5405
   25MOL0     H 3390   5.598   8.519   8.476 -0.6290 -2.9047 -0.5913
   25MOL0     H 3391   5.609   8.676   8.679  0.3081 -1.1080  0.1476
   25MOL0     H 3392   5.661   8.758   8.534  0.1395 -1.5338 -1.7598
   25MOL0     H 3393   5.840   8.652   8.744 -0.6422 -0.0897  0.3827
   25MOL0     H 3394   5.905   8.712   8.583  1.8437 -0.3324  0.8698
   25MOL0     H 3395   5.724   8.895   8.764  2.1653 -0.0772  2.4447
   25MOL0     H 3396   5.805   8.954   8.634 -1.2209  0.2253  0.6706
   25MOL0     H 3397   5.892   8.987   8.875 -0.3616  0.0349  0.4659
   25MOL0     H 3398   5.998   8.850   8.834 -4.2107 -1.0809  1.1028
   25MOL0     H 3399   6.128   8.855   8.600 -1.0367 -0.3069  0.0534
   25MOL0     H 3400   6.387   9.120   8.521 -0.9388  0.3139  2.0355
   25MOL0     H 3401   6.265   9.146   8.407  0.1904  2.0418  1.0088
   25MOL0     H 3402   6.253   8.902   8.365  0.0223 -0.1402 -0.4890
   25MOL0     H 3403   6.411   8.972   8.339  5.2351 -2.4004  2.5941
   25MOL0     H 3404   6.336   8.811   8.593 -0.0192 -4.3120 -0.3456
   25MOL0     H 3405   6.433   8.761   8.459 -1.1102  0.9763 -0.3218
   25MOL0     H 3406   6.525   8.996   8.649 -0.0379 -0.6779  0.3663
   25MOL0     H 3407   6.576   8.836   8.659 -0.5574 -1.8421 -2.1387
   25MOL0     H 3408   6.802   8.979   8.283  2.4699 -0.1232  0.6131
   25MOL0     H 3409   7.018   8.777   8.085 -0.2057  0.4865 -1.2564
   25MOL0     H 3410   6.960   8.940   8.104  2.0158 -0.0830 -0.9295
   25MOL0     H 3411   6.867   8.828   8.001 -0.9704  0.4656  0.3173
   25MOL0     H 3412   6.772   8.356   7.940  0.0837 -0.2919  0.9134
   25MOL0     H 3413   6.843   8.168   7.798 -0.3527 -0.2577  0.2727
   25MOL0     H 3414   6.902   7.890   7.992 -1.4874  0.3856 -1.7466
   25MOL0     H 3415   6.890   7.838   7.832  0.1816  0.8668 -0.6294
   25MOL0     H 3416   7.014   7.688   7.987 -3.5853  0.8846 -1.2301
   25MOL0     H 3417   7.085   7.710   7.817  0.0109  3.1750 -1.6646
   25MOL0     H 3418   7.203   7.794   8.093  0.7571 -1.6706 -0.2336
   25MOL0     H 3419   7.228   7.886   7.954 -3.1091  1.5366  1.5022
   25MOL0     H 3420   7.314   7.607   8.015 -1.6029  1.8041  4.0478
   25MOL0     H 3421   7.414   7.755   7.972 -0.3449  0.7546 -1.9734
   25MOL0     H 3422   7.247   7.607   7.752 -0.6059 -2.2769  2.1473
   25MOL0     H 3423   7.374   7.734   7.737  1.8663  0.5119  0.6270
   25MOL0     H 3424   7.356   7.444   7.795 -0.5121  0.2740  3.3087
   25MOL0     H 3425   7.485   7.545   7.873  0.6207 -0.6513  0.4295
   25MOL0     H 3426   7.451   7.564   7.559  3.7753  2.4303 -2.2396
   25MOL0     H 3427   7.539   7.428   7.628  1.8017 -0.1135 -0.9255
   25MOL0     H 3428   7.606   7.715   7.629  0.6074  0.2827 -1.6906
   25MOL0     H 3429   7.695   7.576   7.561  1.1292  3.3023 -0.9483
   25MOL0     H 3430   7.124   8.056   8.091 -1.9877 -1.2700  1.6543
   25MOL0     H 3431   7.049   8.244   8.234  0.6685 -2.7071 -0.8739
   25MOL0     H 3432   6.707   8.496   8.350 -1.0820 -0.8022 -1.4394
   25MOL0     H 3433   6.633   8.653   8.513  0.0456 -1.0883  0.0693
   25MOL0     H 3434   5.573   7.954   8.850  4.0850  3.6618 -0.9756
   25MOL0     H 3435   5.349   7.874   8.872  1.3426 -0.2375 -0.3355
   25MOL0     H 3436   4.892   7.898   9.128 -0.7339  0.6551  0.4570
   25MOL0     H 3437   4.709   7.762   9.102  2.8727 -2.2267  1.4263
   25MOL0     H 3438   4.543   7.613   9.068  1.0434  0.1863  0.8557
   25MOL0     H 3439   4.477   7.527   8.929  0.2214  2.5675  0.7932
   25MOL0     H 3440   4.591   7.372   9.114  0.1947 -1.1058 -0.5128
   25MOL0     H 3441   4.730   7.481   9.084 -0.0838 -0.1283 -1.4385
   25MOL0     H 3442   4.603   7.260   8.911  1.2812 -0.8743 -0.1788
   25MOL0     H 3443   4.721   7.367   8.840  2.9649 -1.7895 -0.2236
   25MOL0     H 3444   4.899   7.277   8.980 -0.9027  0.9210 -1.1053
   25MOL0     H 3445   4.802   7.151   8.898 -0.1044 -0.5779  0.2313
   25MOL0     H 3446   4.728   7.108   9.332  1.1451  0.1806  0.7756
   25MOL0     H 3447   4.813   7.658   8.706 -3.0966 -0.8624  0.5883
   25MOL0     H 3448   4.986   7.748   8.608 -1.8233 -0.7068  1.3891
   25MOL0     H 3449   5.001   7.919   8.669 -1.5056  0.4301 -2.4039
   25MOL0     H 3450   5.124   7.792   8.713 -1.1450  0.0248  1.8082
   26MOL0     O 3451   9.501   9.414   9.177 -0.0459 -0.3788  0.2833
   26MOL0     C 3452   9.600   9.452   9.237  0.4352 -0.3602 -0.1402
   26MOL0     O 3453   9.726   9.468   9.187 -0.0785 -0.8896  0.0005
   26MOL0     C 3454   9.750   9.447   9.057  0.2612 -0.3195  0.1214
   26MOL0     C 3455   9.797   9.323   9.019  0.1141  0.1178 -0.9138
   26MOL0     C 3456   9.811   9.298   8.883  0.6229  0.5837  0.0735
   26MOL0     C 3457   9.776   9.393   8.783  0.0726  0.6006  0.4907
   26MOL0     O 3458   9.773   9.358   8.651 -0.9343  0.0971  0.1656
   26MOL0     C 3459   9.904   9.348   8.590  0.7426 -0.0919 -0.5974
   26MOL0     C 3460   9.879   9.339   8.443 -0.0765  0.4896 -0.5515
   26MOL0     C 3461  10.007   9.303   8.365  1.0395  0.3323  0.4970
   26MOL0     C 3462   9.979   9.307   8.211 -0.4346 -0.4097 -0.2403
   26MOL0     C 3463  10.109   9.249   8.141 -0.7977 -1.0512  0.1401
   26MOL0     C 3464  10.231   9.338   8.164 -0.0961 -0.6290 -0.8532
   26MOL0     C 3465  10.331   9.331   8.042 -0.4226  0.5016  0.0501
   26MOL0     C 3466  10.477   9.367   8.081 -0.0690 -0.5638  0.5256
   26MOL0     N 3467  10.560   9.363   7.958  0.2437  0.4320 -0.7128
   26MOL0     C 3468  10.692   9.379   7.960  0.2333  0.8226  1.1991
   26MOL0     C 3469  10.732   9.355   7.829  0.6130 -0.4794  0.5425
   26MOL0     C 3470  10.873   9.368   7.778 -1.2165  0.3810  0.1834
   26MOL0     C 3471  10.953   9.247   7.837 -1.2059 -0.2232 -0.1396
   26MOL0     C 3472  11.102   9.267   7.810  0.8804  0.1656  1.3264
   26MOL0     C 3473  11.195   9.173   7.876  0.5199 -0.3354  0.3472
   26MOL0     O 3474  11.320   9.246   7.864  0.2043  0.9324  0.9679
   26MOL0     C 3475  11.425   9.161   7.861 -0.8409  0.3671 -0.6643
   26MOL0     C 3476  11.443   9.080   7.747 -0.6704  0.2920  0.5298
   26MOL0     C 3477  11.544   8.980   7.753  0.2216  0.8795  0.4707
   26MOL0     C 3478  11.572   8.886   7.630  0.5488 -0.0977 -0.3302
   26MOL0     C 3479  11.626   8.965   7.867  1.3559  0.3780  0.5022
   26MOL0     C 3480  11.746   8.883   7.872  0.3290 -0.6047  0.7984
   26MOL0     O 3481  11.761   8.819   7.987  0.8135 -0.2947  0.2555
   26MOL0     C 3482  11.877   8.760   8.018 -0.5874  0.2724 -0.3507
   26MOL0     C 3483  11.933   8.651   7.946  0.5314  0.2424 -0.6001
   26MOL0     C 3484  12.055   8.592   7.977  0.1309  0.0755 -0.0699
   26MOL0     C 3485  12.134   8.643   8.076 -0.2550 -1.3193 -0.5780
   26MOL0     O 3486  12.255   8.607   8.125 -0.1814  0.3786  0.7435
   26MOL0     C 3487  12.340   8.567   8.013  0.2411  0.9650 -0.0639
   26MOL0     C 3488  12.486   8.560   8.077  0.4640  0.3409 -0.3948
   26MOL0     C 3489  12.570   8.691   8.044 -0.0459 -0.2586  0.9865
   26MOL0     C 3490  12.647   8.684   7.907 -0.0443  0.6278 -0.8420
   26MOL0     C 3491  12.769   8.783   7.897 -0.6034 -0.3775 -0.6155
   26MOL0     C 3492  12.847   8.748   7.769 -0.3685  0.3515  0.1896
   26MOL0     C 3493  12.970   8.843   7.735  0.5617 -0.3011 -0.5157
   26MOL0     C 3494  12.907   8.985   7.712 -1.0592  0.3719 -0.3947
   26MOL0    Cl 3495  13.002   9.069   7.596 -0.2303 -0.2420 -0.4290
   26MOL0     C 3496  12.073   8.739   8.156  0.7427  0.4186 -0.1324
   26MOL0     C 3497  11.945   8.803   8.133 -0.8801  0.2195  0.5527
   26MOL0     O 3498  11.838   8.904   7.790  0.0699 -0.7309 -0.1277
   26MOL0     C 3499  11.588   9.030   7.985 -0.9470  0.7210  0.1898
   26MOL0     C 3500  11.499   9.134   7.979  0.7990 -1.0108 -0.0270
   26MOL0     N 3501  10.626   9.305   7.761 -0.6181 -0.1455 -0.0001
   26MOL0     N 3502  10.521   9.321   7.835 -0.4286  0.0948 -0.6149
   26MOL0     C 3503   9.735   9.517   8.830 -0.7264  0.1615 -0.7345
   26MOL0     C 3504   9.726   9.546   8.968  0.0610 -0.0202 -0.7430
   26MOL0     C 3505   9.589   9.443   9.392  0.2304 -0.6125 -0.7403
   26MOL0     C 3506   9.456   9.436   9.451  0.7473 -0.4511 -0.8077
   26MOL0     C 3507   9.436   9.440   9.588  0.3959 -0.8759  0.6184
   26MOL0     C 3508   9.536   9.469   9.677 -0.5919  0.0100 -0.4574
   26MOL0     O 3509   9.510   9.496   9.813  0.8768  0.9714 -0.1587
   26MOL0     C 3510   9.616   9.499   9.914 -0.0697 -0.0870 -0.2163
   26MOL0     C 3511   9.552   9.503  10.061  0.2353 -0.6510  0.4222
   26MOL0     C 3512   9.466   9.644  10.077  0.5047  0.3911 -0.4138
   26MOL0     C 3513   9.435   9.652  10.231  0.8320  0.1196 -0.0230
   26MOL0     C 3514   9.293   9.605  10.251 -0.5797 -0.9260 -0.4990
   26MOL0     C 3515   9.186   9.562  10.260  0.8081 -0.0086 -0.0132
   26MOL0     C 3516   9.664   9.496   9.619  0.2705 -0.4750  0.3708
   26MOL0     C 3517   9.697   9.464   9.483  0.2264 -0.2585  0.3578
   26MOL0     C 3518   9.848   9.468   9.448 -0.1670  1.1075  0.1627
   26MOL0     H 3519   9.813   9.252   9.100  0.0954  0.8717 -0.2344
   26MOL0     H 3520   9.847   9.202   8.848 -0.4432  0.4824 -0.7789
   26MOL0     H 3521   9.937   9.250   8.627  1.9093 -0.1332 -1.6705
   26MOL0     H 3522   9.972   9.428   8.622 -1.5999  3.1875 -3.2214
   26MOL0     H 3523   9.817   9.250   8.428  3.4016 -3.1967  3.7982
   26MOL0     H 3524   9.840   9.435   8.408 -0.6425 -0.8461 -3.9459
   26MOL0     H 3525  10.084   9.377   8.386 -0.0621  1.4581  0.7272
   26MOL0     H 3526  10.056   9.206   8.373  0.8854 -0.0404 -2.1232
   26MOL0     H 3527   9.889   9.247   8.194 -1.9050  0.7665  2.6019
   26MOL0     H 3528   9.954   9.409   8.180  3.4727  0.8426  0.1441
   26MOL0     H 3529  10.101   9.240   8.032  1.1901  0.1412 -0.1640
   26MOL0     H 3530  10.138   9.147   8.167  1.6700 -0.2765  0.6977
   26MOL0     H 3531  10.199   9.442   8.174 -2.6222 -1.3227 -1.0438
   26MOL0     H 3532  10.283   9.302   8.253 -1.3358 -0.0231  0.1400
   26MOL0     H 3533  10.288   9.382   7.956 -2.9305  0.6429  1.3033
   26MOL0     H 3534  10.332   9.223   8.024 -1.3874  0.1407  1.9162
   26MOL0     H 3535  10.485   9.467   8.125 -0.5367 -1.0503  1.7568
   26MOL0     H 3536  10.503   9.291   8.155  0.2366  1.2929  2.3992
   26MOL0     H 3537  10.749   9.397   8.050  0.0048 -1.0226  1.7454
   26MOL0     H 3538  10.919   9.465   7.799 -0.2819  0.2946 -1.2894
   26MOL0     H 3539  10.869   9.364   7.669 -0.3465  1.1559  0.1088
   26MOL0     H 3540  10.936   9.239   7.944  2.1832  1.5231  0.6423
   26MOL0     H 3541  10.933   9.150   7.789  1.7795 -1.0355  0.0820
   26MOL0     H 3542  11.120   9.250   7.704 -2.3387  2.1555  0.3161
   26MOL0     H 3543  11.131   9.371   7.828  1.2171  0.1553  0.8722
   26MOL0     H 3544  11.173   9.172   7.983  1.2074  2.8199  0.6257
   26MOL0     H 3545  11.200   9.073   7.833  1.3429  0.0929 -0.5979
   26MOL0     H 3546  11.393   9.087   7.651  0.3280 -1.1449 -0.1275
   26MOL0     H 3547  11.473   8.845   7.606  0.0209 -0.9484  2.9094
   26MOL0     H 3548  11.640   8.804   7.653 -0.3824 -0.4244  1.3822
   26MOL0     H 3549  11.614   8.929   7.539  1.3907  1.1036  0.6003
   26MOL0     H 3550  11.876   8.631   7.856 -0.2896  3.1090 -0.8020
   26MOL0     H 3551  12.106   8.514   7.921 -2.2236 -1.7757  0.1847
   26MOL0     H 3552  12.311   8.471   7.969  2.0033 -0.2671  1.3214
   26MOL0     H 3553  12.327   8.636   7.930 -0.9860  0.2574 -0.4933
   26MOL0     H 3554  12.484   8.535   8.183  4.7241 -1.1791 -0.4782
   26MOL0     H 3555  12.531   8.471   8.031  1.2232  1.8349 -2.7109
   26MOL0     H 3556  12.643   8.714   8.123 -0.1618  1.4845  0.6319
   26MOL0     H 3557  12.502   8.776   8.031 -2.7414 -2.6687 -2.6624
   26MOL0     H 3558  12.573   8.697   7.827 -3.0931 -1.6485  1.3762
   26MOL0     H 3559  12.686   8.583   7.898 -2.0374 -0.3090  0.3980
   26MOL0     H 3560  12.746   8.889   7.906  0.4504 -0.2853  1.9948
   26MOL0     H 3561  12.830   8.760   7.985 -0.9394 -2.5203 -0.8708
   26MOL0     H 3562  12.779   8.745   7.684  1.3695 -1.8146 -1.2369
   26MOL0     H 3563  12.887   8.647   7.781 -0.2752  0.5798  2.2475
   26MOL0     H 3564  13.031   8.809   7.651 -0.6713 -1.3284 -1.0220
   26MOL0     H 3565  13.033   8.870   7.820 -2.6481  2.8869  1.1009
   26MOL0     H 3566  12.899   9.031   7.811  0.4451 -1.1655  0.5087
   26MOL0     H 3567  12.803   8.982   7.681 -1.4784  2.9914  0.5351
   26MOL0     H 3568  12.134   8.773   8.240  0.4664  0.9984 -0.1623
   26MOL0     H 3569  11.909   8.882   8.199  1.1726  2.1207 -0.5032
   26MOL0     H 3570  11.644   9.013   8.076  1.7792 -0.0326 -1.5235
   26MOL0     H 3571  11.477   9.204   8.059 -1.2773 -1.6088 -0.0204
   26MOL0     H 3572   9.710   9.597   8.761 -1.0327 -0.0970 -0.9253
   26MOL0     H 3573   9.706   9.643   9.011  0.2867 -1.7810  4.0089
   26MOL0     H 3574   9.362   9.432   9.398  0.5170  0.2781 -0.4641
   26MOL0     H 3575   9.337   9.423   9.630 -1.7813  0.9386 -3.2802
   26MOL0     H 3576   9.675   9.407   9.909  0.9044  0.5747 -1.8777
   26MOL0     H 3577   9.697   9.573   9.904  0.9948 -0.6508  3.0713
   26MOL0     H 3578   9.630   9.509  10.137 -1.0944  1.0264  1.7435
   26MOL0     H 3579   9.493   9.413  10.081  1.8564 -2.0719 -0.9402
   26MOL0     H 3580   9.524   9.732  10.045 -3.5893  2.7464 -2.1771
   26MOL0     H 3581   9.381   9.620  10.013 -0.2851 -0.5850  0.9574
   26MOL0     H 3582   9.431   9.758  10.256  0.3246  0.3754 -1.1394
   26MOL0     H 3583   9.500   9.592  10.296 -1.5743 -0.9665  1.5130
   26MOL0     H 3584   9.088   9.521  10.270  0.2104  0.5901 -2.6263
   26MOL0     H 3585   9.737   9.538   9.687 -2.0084  3.2998  0.8107
   26MOL0     H 3586   9.876   9.376   9.395  1.2569  1.9130 -0.5464
   26MOL0     H 3587   9.885   9.553   9.390 -0.4040  0.2536 -1.2801
   26MOL0     H 3588   9.906   9.453   9.539 -0.7122 -0.5476  0.2651
   27MOL0     O 3589  10.379   9.303   2.765  0.4549  0.7426 -0.2529
   27MOL0     C 3590  10.293   9.321   2.853  0.0733  0.8648  0.4338
   27MOL0     O 3591  10.312   9.370   2.979 -0.2009  0.0334 -0.1289
   27MOL0     C 3592  10.431   9.396   3.041 -0.4768  0.3260 -0.0103
   27MOL0     C 3593  10.444   9.513   3.120  0.1074  0.3147  0.1972
   27MOL0     C 3594  10.559   9.537   3.190 -0.6224  0.2929  0.5026
   27MOL0     C 3595  10.663   9.441   3.191  0.5409 -0.0137 -0.5534
   27MOL0     O 3596  10.768   9.454   3.276 -0.2112  0.3087 -0.1791
   27MOL0     C 3597  10.739   9.462   3.423 -0.3668  0.2908 -0.0819
   27MOL0     C 3598  10.766   9.328   3.498 -0.2647 -0.3492 -0.0448
   27MOL0     C 3599  10.685   9.212   3.458  0.3346 -0.3173 -0.5282
   27MOL0     C 3600  10.554   9.220   3.519  0.7325 -1.1046  0.1457
   27MOL0     C 3601  10.457   9.116   3.472 -0.6617 -0.4168  0.5954
   27MOL0     C 3602  10.334   9.124   3.558  0.4017 -0.4281  0.0266
   27MOL0     C 3603  10.213   9.052   3.492  1.6036 -0.5225 -0.7252
   27MOL0     C 3604  10.226   8.911   3.442 -0.5243 -0.7835  1.2131
   27MOL0     N 3605  10.099   8.888   3.393  0.1146 -0.4386  0.9956
   27MOL0     C 3606  10.003   8.837   3.473  0.7064  1.3240  0.6510
   27MOL0     C 3607   9.891   8.833   3.405 -0.7501  0.8154  0.3782
   27MOL0     C 3608   9.758   8.811   3.465  0.2656  1.0716  0.5875
   27MOL0     C 3609   9.668   8.735   3.366  0.3501  0.3466 -0.2830
   27MOL0     C 3610   9.525   8.720   3.418  0.4810  0.1565 -0.3030
   27MOL0     C 3611   9.441   8.634   3.316 -0.9065  0.2497 -0.3748
   27MOL0     O 3612   9.303   8.651   3.350  0.6655 -0.0934  1.0744
   27MOL0     C 3613   9.207   8.617   3.247 -0.6158  0.9850  0.0561
   27MOL0     C 3614   9.249   8.547   3.129  0.1742  0.2829 -1.6281
   27MOL0     C 3615   9.155   8.486   3.040 -0.5911  0.0542 -0.3443
   27MOL0     C 3616   9.217   8.418   2.925 -0.2839 -0.4256 -0.0878
   27MOL0     C 3617   9.020   8.495   3.062 -1.0779  0.4868  0.1591
   27MOL0     C 3618   8.925   8.433   2.978 -0.4306  0.8035  0.1100
   27MOL0     O 3619   8.881   8.315   3.019  0.1205  0.2595  0.4852
   27MOL0     C 3620   8.803   8.248   2.927 -0.4564  0.8681  0.2637
   27MOL0     C 3621   8.843   8.115   2.901 -0.6951 -0.3193 -0.6387
   27MOL0     C 3622   8.762   8.026   2.837  1.3415  0.0850 -0.1729
   27MOL0     C 3623   8.646   8.074   2.785 -0.7094  0.3173  0.1872
   27MOL0     O 3624   8.564   7.993   2.717 -0.4860 -0.0694 -0.8435
   27MOL0     C 3625   8.614   7.925   2.597  1.0314  0.9410  0.0132
   27MOL0     C 3626   8.573   7.778   2.608  0.7673  0.0386  0.5363
   27MOL0     C 3627   8.430   7.745   2.656  0.1715 -0.1525 -0.0316
   27MOL0     C 3628   8.330   7.746   2.549  0.1013  0.4987  0.9641
   27MOL0     C 3629   8.184   7.710   2.582  0.4344  0.6649  0.2277
   27MOL0     C 3630   8.106   7.834   2.583 -0.5321 -0.2837  1.0252
   27MOL0     C 3631   7.966   7.794   2.606  0.8446 -0.5778  0.2206
   27MOL0     C 3632   7.871   7.904   2.647  0.0900  0.3404 -0.5786
   27MOL0    Cl 3633   7.707   7.840   2.680 -0.3809  0.0741 -0.2014
   27MOL0     C 3634   8.594   8.208   2.810 -1.1522  0.6400  0.5399
   27MOL0     C 3635   8.679   8.295   2.879 -0.2872  0.2231  0.5463
   27MOL0     O 3636   8.877   8.501   2.898 -0.0494 -0.5176  0.0061
   27MOL0     C 3637   8.973   8.579   3.167 -0.4325 -0.4861 -0.2645
   27MOL0     C 3638   9.072   8.636   3.264  0.3902  0.3500  0.3456
   27MOL0     N 3639   9.923   8.863   3.277 -0.3193  0.1021  0.1029
   27MOL0     N 3640  10.049   8.898   3.266 -0.0445  0.1405  0.4954
   27MOL0     C 3641  10.661   9.337   3.100 -0.5270  0.1265 -0.1334
   27MOL0     C 3642  10.545   9.313   3.031 -0.9407 -0.0606 -0.0690
   27MOL0     C 3643  10.155   9.274   2.836  0.4084  0.4469 -0.5127
   27MOL0     C 3644  10.120   9.187   2.935  0.4103  0.5695  0.5366
   27MOL0     C 3645   9.995   9.125   2.939 -0.8656 -0.8859  0.0922
   27MOL0     C 3646   9.903   9.147   2.841  0.0500 -0.1634 -0.7450
   27MOL0     O 3647   9.787   9.073   2.831  0.5332 -0.1298 -0.5492
   27MOL0     C 3648   9.670   9.123   2.897 -0.3794  0.3361  0.0268
   27MOL0     C 3649   9.553   9.029   2.894  0.3560 -0.3701 -0.9586
   27MOL0     C 3650   9.557   8.902   2.977  0.1216 -0.3084 -1.0565
   27MOL0     C 3651   9.640   8.790   2.915 -0.2270  0.3027 -0.0629
   27MOL0     C 3652   9.564   8.710   2.818  0.1901 -1.0599 -0.1633
   27MOL0     C 3653   9.504   8.638   2.746  0.7664 -0.0601  0.4246
   27MOL0     C 3654   9.935   9.246   2.741 -0.7028  0.4348  0.1870
   27MOL0     C 3655  10.066   9.310   2.735  1.0909  0.2848  0.2546
   27MOL0     C 3656  10.099   9.407   2.630 -0.2541  0.3798 -0.1805
   27MOL0     H 3657  10.368   9.587   3.098  0.9020  0.5002 -2.1770
   27MOL0     H 3658  10.582   9.614   3.263  0.0721 -1.5626  2.3307
   27MOL0     H 3659  10.632   9.482   3.437 -1.2533 -3.5096 -0.2053
   27MOL0     H 3660  10.805   9.539   3.464 -0.4474 -0.6093  1.8733
   27MOL0     H 3661  10.872   9.323   3.470  0.5257  1.6564  2.2299
   27MOL0     H 3662  10.762   9.332   3.607 -0.1669 -1.6815  0.0200
   27MOL0     H 3663  10.681   9.227   3.349  0.5395  2.5238 -0.2211
   27MOL0     H 3664  10.738   9.118   3.477 -2.0542 -1.6266  0.0459
   27MOL0     H 3665  10.568   9.205   3.627  1.4697  2.0380  0.5903
   27MOL0     H 3666  10.509   9.316   3.490 -1.0026 -1.5752  1.1325
   27MOL0     H 3667  10.498   9.015   3.482 -0.8431 -0.6568 -0.8352
   27MOL0     H 3668  10.440   9.130   3.365  0.4847  2.5184  0.7110
   27MOL0     H 3669  10.349   9.068   3.651 -0.7477 -2.5534 -0.9975
   27MOL0     H 3670  10.300   9.227   3.570 -0.4331 -0.6246 -0.6104
   27MOL0     H 3671  10.191   9.116   3.406  2.7422 -1.4430 -1.7249
   27MOL0     H 3672  10.143   9.051   3.577  2.7571 -5.7411  0.5141
   27MOL0     H 3673  10.303   8.912   3.364  1.1638 -2.7568  2.7463
   27MOL0     H 3674  10.257   8.845   3.524  1.5247  0.4006  1.4706
   27MOL0     H 3675   9.998   8.826   3.581 -1.6502 -0.2789  0.4297
   27MOL0     H 3676   9.721   8.907   3.501  0.3255  1.7771 -1.1196
   27MOL0     H 3677   9.768   8.753   3.557 -3.5425 -0.2915  0.3265
   27MOL0     H 3678   9.669   8.802   3.279  4.0843  0.5799 -0.2494
   27MOL0     H 3679   9.720   8.640   3.350  0.0913  0.2661 -0.6655
   27MOL0     H 3680   9.519   8.662   3.511  1.2669 -0.8581 -0.8711
   27MOL0     H 3681   9.492   8.824   3.434 -1.3290 -0.3739 -0.4090
   27MOL0     H 3682   9.461   8.686   3.222 -3.3335  2.6983  0.3495
   27MOL0     H 3683   9.479   8.531   3.307  0.8793  1.0633 -4.1221
   27MOL0     H 3684   9.349   8.505   3.121  0.0624  0.1046 -2.1096
   27MOL0     H 3685   9.180   8.474   2.838 -0.1208  2.5371  1.6108
   27MOL0     H 3686   9.200   8.312   2.909  1.8047 -0.9200  0.6702
   27MOL0     H 3687   9.326   8.423   2.924 -0.1287 -2.2391 -2.8876
   27MOL0     H 3688   8.945   8.093   2.934  0.6627  4.1832 -1.1158
   27MOL0     H 3689   8.795   7.925   2.815  0.6544 -0.3139  0.5780
   27MOL0     H 3690   8.552   7.972   2.520  0.8701  2.8271  1.2514
   27MOL0     H 3691   8.721   7.935   2.577  1.3188 -0.4015  0.7401
   27MOL0     H 3692   8.612   7.730   2.518 -1.7796  1.6803 -1.5757
   27MOL0     H 3693   8.637   7.737   2.687  0.2256  0.4649  1.2136
   27MOL0     H 3694   8.399   7.819   2.730 -0.1017 -0.4938  0.1969
   27MOL0     H 3695   8.451   7.654   2.712  2.8640  1.4490  1.8103
   27MOL0     H 3696   8.376   7.680   2.474 -0.0960  2.0293 -0.5697
   27MOL0     H 3697   8.331   7.843   2.498  1.3097 -1.2571 -2.7559
   27MOL0     H 3698   8.142   7.640   2.508 -0.5001 -1.1467  2.3630
   27MOL0     H 3699   8.180   7.652   2.674  1.6233  0.3697  0.1163
   27MOL0     H 3700   8.113   7.872   2.481  2.3833 -3.1072  0.0371
   27MOL0     H 3701   8.147   7.909   2.652  1.3874 -0.1330 -0.2086
   27MOL0     H 3702   7.955   7.716   2.682 -0.9690 -1.9048 -1.3087
   27MOL0     H 3703   7.927   7.767   2.508  0.0971  1.0378  0.0197
   27MOL0     H 3704   7.869   7.983   2.572  0.5718  1.1084  0.1925
   27MOL0     H 3705   7.897   7.964   2.735 -2.7805  3.1715 -1.4427
   27MOL0     H 3706   8.503   8.225   2.755 -0.5011 -4.8799 -2.9735
   27MOL0     H 3707   8.668   8.402   2.895  3.3157  0.8739 -0.2424
   27MOL0     H 3708   8.869   8.608   3.175 -0.5406 -0.9000 -0.1486
   27MOL0     H 3709   9.033   8.707   3.336 -2.8109 -2.0978  1.3033
   27MOL0     H 3710  10.751   9.277   3.091 -0.4231  0.3470 -0.6017
   27MOL0     H 3711  10.543   9.236   2.954 -1.1190  0.4206 -0.5551
   27MOL0     H 3712  10.185   9.157   3.017 -0.5792  1.4228  1.6747
   27MOL0     H 3713   9.986   9.044   3.011 -0.2222 -0.4073  0.7266
   27MOL0     H 3714   9.692   9.140   3.003  2.4444  1.3028 -0.6340
   27MOL0     H 3715   9.637   9.215   2.847 -0.3377  0.7130  0.6820
   27MOL0     H 3716   9.525   9.012   2.790 -3.2576 -0.3178 -0.1079
   27MOL0     H 3717   9.472   9.082   2.944  2.7609  1.3381  1.4113
   27MOL0     H 3718   9.595   8.910   3.079 -3.1272 -2.7952  0.5224
   27MOL0     H 3719   9.452   8.876   2.993 -1.3373  5.3342  0.9454
   27MOL0     H 3720   9.643   8.722   3.000 -2.5081  0.4541  0.2207
   27MOL0     H 3721   9.738   8.818   2.876 -0.2512  1.2707  0.5364
   27MOL0     H 3722   9.447   8.576   2.679  0.4874 -0.1361  0.7331
   27MOL0     H 3723   9.872   9.241   2.653 -0.3110  0.8735 -0.1250
   27MOL0     H 3724  10.196   9.374   2.592 -0.0010  1.4430 -0.4741
   27MOL0     H 3725  10.025   9.406   2.550 -2.9060 -2.8759  2.0119
   27MOL0     H 3726  10.095   9.506   2.676  3.8814  1.2473 -1.2859
   28MOL0     O 3727   4.514   4.195  11.255  0.2660 -1.0768  0.3744
   28MOL0     C 3728   4.538   4.181  11.131 -0.7168  0.4710 -0.4937
   28MOL0     O 3729   4.584   4.056  11.083 -0.0242  0.0261  0.2221
   28MOL0     C 3730   4.583   3.955  11.172  1.2247 -0.8519 -0.1737
   28MOL0     C 3731   4.464   3.888  11.199 -0.6089 -0.0008 -0.2232
   28MOL0     C 3732   4.479   3.767  11.271 -0.4871  0.5589  0.1171
   28MOL0     C 3733   4.601   3.741  11.340 -0.8556 -0.7679 -0.9117
   28MOL0     O 3734   4.632   3.622  11.395  0.3824 -0.2980  0.1542
   28MOL0     C 3735   4.526   3.568  11.467 -0.8915 -0.1648 -1.0529
   28MOL0     C 3736   4.563   3.417  11.485 -0.6063 -0.6366 -0.7717
   28MOL0     C 3737   4.706   3.407  11.546 -0.9365  0.1308  0.0143
   28MOL0     C 3738   4.711   3.318  11.673 -0.8165  0.3541 -0.9521
   28MOL0     C 3739   4.666   3.178  11.650 -1.0436 -0.3015 -0.4843
   28MOL0     C 3740   4.661   3.101  11.783  0.5408  1.4730 -0.7412
   28MOL0     C 3741   4.557   2.978  11.773 -0.6975 -0.4470  0.0135
   28MOL0     C 3742   4.529   2.918  11.916  0.4182  0.7937  0.0072
   28MOL0     N 3743   4.464   3.002  12.020 -0.3382  0.1031 -0.3234
   28MOL0     C 3744   4.337   3.059  11.998  0.1149  0.6829  0.7659
   28MOL0     C 3745   4.295   3.114  12.115 -0.6129 -0.2406 -0.0757
   28MOL0     C 3746   4.170   3.180  12.161  0.1676 -0.3734  1.0920
   28MOL0     C 3747   4.142   3.143  12.310  0.6660  0.1837 -0.4004
   28MOL0     C 3748   3.999   3.154  12.353 -0.1286 -0.3913 -0.5404
   28MOL0     C 3749   3.949   3.298  12.370 -0.3245  0.7440 -0.2251
   28MOL0     O 3750   3.909   3.347  12.236 -0.5229 -0.3257 -0.3653
   28MOL0     C 3751   3.945   3.480  12.210  0.5484  1.1511 -0.1566
   28MOL0     C 3752   3.879   3.576  12.286  0.4713  0.0808 -0.5689
   28MOL0     C 3753   3.925   3.708  12.281 -0.1936  0.4108 -0.8790
   28MOL0     C 3754   3.854   3.810  12.365 -0.2115 -0.3071 -0.2451
   28MOL0     C 3755   4.032   3.749  12.203 -0.6132  0.2312  0.4060
   28MOL0     C 3756   4.087   3.894  12.185  0.9807  0.0095  0.2365
   28MOL0     O 3757   4.198   3.916  12.097  0.3005  0.2759  0.7692
   28MOL0     C 3758   4.196   4.025  12.012  0.4772  0.2887 -0.6447
   28MOL0     C 3759   4.097   4.125  11.984  0.3071  0.7739  0.0575
   28MOL0     C 3760   4.121   4.224  11.894  0.1530  0.0009 -0.4880
   28MOL0     C 3761   4.239   4.238  11.821 -0.2013 -0.1745  0.0486
   28MOL0     O 3762   4.242   4.351  11.739  0.2286  0.2443 -0.2096
   28MOL0     C 3763   4.363   4.408  11.699  0.4657 -0.4485 -0.2021
   28MOL0     C 3764   4.407   4.363  11.559  0.8958 -0.0988  0.0229
   28MOL0     C 3765   4.526   4.448  11.504  0.1129 -0.7227  1.1758
   28MOL0     C 3766   4.616   4.492  11.620 -0.2794  0.1839  1.2154
   28MOL0     C 3767   4.767   4.519  11.585 -0.3447  0.0005  0.5468
   28MOL0     C 3768   4.775   4.626  11.466 -0.3975 -0.0516 -0.4233
   28MOL0     C 3769   4.918   4.649  11.416 -0.1319  0.2571 -1.0416
   28MOL0     C 3770   5.017   4.661  11.541 -0.8669 -0.7603 -0.2928
   28MOL0    Cl 3771   5.169   4.713  11.453 -0.0957  0.0177 -0.5111
   28MOL0     C 3772   4.338   4.152  11.856 -0.2036 -0.2214 -0.2960
   28MOL0     C 3773   4.316   4.049  11.954  0.1166 -0.3333  0.1562
   28MOL0     O 3774   4.034   3.985  12.240 -0.8596  0.3340  0.2379
   28MOL0     C 3775   4.091   3.645  12.125 -0.0905 -0.5462  0.0974
   28MOL0     C 3776   4.047   3.510  12.129  0.7978  0.0724 -0.0484
   28MOL0     N 3777   4.407   3.100  12.200 -0.3787  0.0095 -0.6636
   28MOL0     N 3778   4.504   3.041  12.149  0.4538  1.2928 -0.6098
   28MOL0     C 3779   4.712   3.824  11.322  0.0184 -0.3206  0.4718
   28MOL0     C 3780   4.694   3.929  11.242 -0.4494 -0.3676  0.6258
   28MOL0     C 3781   4.534   4.292  11.036  0.7971 -0.7195 -0.5967
   28MOL0     C 3782   4.621   4.285  10.929  0.0774  0.0222  0.0448
   28MOL0     C 3783   4.614   4.395  10.833  0.4974  0.6220 -0.1447
   28MOL0     C 3784   4.533   4.505  10.840 -0.0891 -0.3100  0.4890
   28MOL0     O 3785   4.550   4.596  10.738  0.3895 -0.4548 -0.6625
   28MOL0     C 3786   4.451   4.696  10.727  0.5340 -0.0570  0.9041
   28MOL0     C 3787   4.476   4.779  10.588  0.8260  0.3011  0.1562
   28MOL0     C 3788   4.611   4.856  10.610 -0.1012 -0.5286 -0.1933
   28MOL0     C 3789   4.644   4.937  10.494  0.1166 -0.6042  0.3533
   28MOL0     C 3790   4.754   5.037  10.519  0.1133 -0.2768 -0.0674
   28MOL0     C 3791   4.831   5.123  10.555 -0.1216  0.0392 -0.6403
   28MOL0     C 3792   4.440   4.501  10.944  0.5733 -0.0524 -0.7440
   28MOL0     C 3793   4.433   4.396  11.045 -0.2775 -0.2309  0.4575
   28MOL0     C 3794   4.322   4.411  11.149  0.7010 -0.3870 -0.4595
   28MOL0     H 3795   4.377   3.923  11.144 -0.9657  0.2444  0.4834
   28MOL0     H 3796   4.395   3.700  11.263  1.3868 -1.9871  0.3542
   28MOL0     H 3797   4.425   3.572  11.426 -1.3064 -0.0157 -0.0509
   28MOL0     H 3798   4.524   3.631  11.557 -0.1193 -0.8360 -0.5452
   28MOL0     H 3799   4.484   3.377  11.549 -0.1457  0.9442  0.8768
   28MOL0     H 3800   4.557   3.359  11.393  0.1623  0.0144 -1.2487
   28MOL0     H 3801   4.762   3.353  11.468  0.7615 -0.5766  1.6524
   28MOL0     H 3802   4.743   3.506  11.571 -1.5839  1.0231 -2.3233
   28MOL0     H 3803   4.812   3.304  11.714 -0.9423  0.1127 -0.7246
   28MOL0     H 3804   4.661   3.375  11.751  1.1529  1.4494 -0.4181
   28MOL0     H 3805   4.725   3.126  11.573 -2.1363  0.7632 -2.1085
   28MOL0     H 3806   4.563   3.187  11.615  0.0301  2.2821 -3.5916
   28MOL0     H 3807   4.753   3.052  11.815 -0.3077  0.4017  0.1708
   28MOL0     H 3808   4.612   3.167  11.856 -1.0203 -0.6001  0.2114
   28MOL0     H 3809   4.601   2.908  11.701 -0.0293  1.4207 -1.4755
   28MOL0     H 3810   4.460   3.012  11.734 -0.8429 -1.0090 -0.1264
   28MOL0     H 3811   4.470   2.826  11.908  4.2281 -1.8828 -0.3841
   28MOL0     H 3812   4.625   2.887  11.957 -0.7674 -4.1646 -0.3305
   28MOL0     H 3813   4.271   3.041  11.914 -0.6013 -2.5893  1.8519
   28MOL0     H 3814   4.082   3.159  12.099  0.4881  0.9403  0.1456
   28MOL0     H 3815   4.195   3.287  12.161  2.0999 -0.7693 -0.7461
   28MOL0     H 3816   4.143   3.034  12.300 -3.7048 -0.1145  0.1505
   28MOL0     H 3817   4.208   3.177  12.390  0.2821  2.6502 -1.0496
   28MOL0     H 3818   3.926   3.119  12.279 -1.4102 -1.7651  1.2856
   28MOL0     H 3819   3.980   3.093  12.441  0.1310  0.7054  0.2868
   28MOL0     H 3820   3.867   3.293  12.441  2.1812 -3.4921  2.8370
   28MOL0     H 3821   4.023   3.368  12.409  0.5879  1.1743 -2.5570
   28MOL0     H 3822   3.804   3.535  12.353  0.8233 -0.4025 -0.4655
   28MOL0     H 3823   3.917   3.875  12.426  0.3523 -0.2620 -0.8625
   28MOL0     H 3824   3.789   3.761  12.438 -1.0851 -0.5563 -1.1598
   28MOL0     H 3825   3.783   3.873  12.311  1.6634  2.3487  0.2159
   28MOL0     H 3826   3.999   4.107  12.027 -2.2276  2.1582 -4.5405
   28MOL0     H 3827   4.038   4.291  11.874  1.3630  1.2207 -1.6355
   28MOL0     H 3828   4.344   4.515  11.707 -4.4817 -1.0988 -0.1905
   28MOL0     H 3829   4.443   4.381  11.768  1.1487  1.4064 -0.2039
   28MOL0     H 3830   4.453   4.264  11.570 -0.6239 -0.8528 -0.2077
   28MOL0     H 3831   4.322   4.354  11.490  1.2400  1.7582 -0.6969
   28MOL0     H 3832   4.484   4.534  11.450  0.7080 -1.8737 -1.2868
   28MOL0     H 3833   4.577   4.381  11.434  1.0763 -1.8943  2.9415
   28MOL0     H 3834   4.618   4.402  11.683 -1.6679 -1.4410 -0.9215
   28MOL0     H 3835   4.565   4.579  11.664  0.1140  0.5451  0.9650
   28MOL0     H 3836   4.821   4.553  11.673  0.4688  2.5396 -0.8210
   28MOL0     H 3837   4.824   4.438  11.540 -2.7203 -0.5279 -1.7656
   28MOL0     H 3838   4.737   4.719  11.509 -0.0680 -0.6806  1.2845
   28MOL0     H 3839   4.710   4.594  11.384 -0.6720 -1.4027  0.2985
   28MOL0     H 3840   4.930   4.742  11.359  3.6879 -1.6202 -3.7636
   28MOL0     H 3841   4.946   4.564  11.353  1.2788 -2.0362  2.3359
   28MOL0     H 3842   5.037   4.566  11.591 -3.1539 -0.0744  2.1867
   28MOL0     H 3843   4.976   4.738  11.608 -0.2878  1.0779 -1.9546
   28MOL0     H 3844   4.437   4.169  11.813  2.1445  0.6381  4.7541
   28MOL0     H 3845   4.398   3.986  11.986  1.0688 -1.0708 -3.3163
   28MOL0     H 3846   4.163   3.676  12.050 -0.4909  0.2664  0.0399
   28MOL0     H 3847   4.094   3.435  12.066 -2.1769  1.0800 -3.8640
   28MOL0     H 3848   4.803   3.802  11.377  0.7021  2.0817  0.4329
   28MOL0     H 3849   4.779   3.996  11.233 -1.6713  1.3189  1.1833
   28MOL0     H 3850   4.690   4.203  10.916  0.9869  0.5470  1.2780
   28MOL0     H 3851   4.693   4.379  10.760 -0.2459 -5.4327 -0.1433
   28MOL0     H 3852   4.353   4.649  10.732  0.3103  0.4991  4.9757
   28MOL0     H 3853   4.450   4.767  10.810 -0.7699 -2.1942  2.8478
   28MOL0     H 3854   4.388   4.839  10.565  1.3617  0.9873 -0.1258
   28MOL0     H 3855   4.475   4.706  10.506 -0.2148 -2.4860  2.4640
   28MOL0     H 3856   4.613   4.921  10.698  2.0731  0.5462 -0.9656
   28MOL0     H 3857   4.689   4.779  10.616  0.6562  0.2717  0.7670
   28MOL0     H 3858   4.558   5.002  10.477 -0.7029 -1.9091 -0.7489
   28MOL0     H 3859   4.666   4.871  10.410  2.7821  1.2298 -0.5020
   28MOL0     H 3860   4.899   5.203  10.576 -0.1791 -0.2390  0.6666
   28MOL0     H 3861   4.364   4.578  10.951  0.6323  0.0827 -1.4331
   28MOL0     H 3862   4.289   4.514  11.163  2.3410  0.0257  0.7097
   28MOL0     H 3863   4.233   4.352  11.126  0.4004 -0.1026 -0.0357
   28MOL0     H 3864   4.357   4.382  11.249  0.0018 -1.8695 -0.6179
   29MOL0     O 3865   3.632   6.960   4.730  0.1547  0.4318  0.1083
   29MOL0     C 3866   3.654   6.969   4.609 -0.6191  0.2133 -0.3037
   29MOL0     O 3867   3.746   6.884   4.541 -0.0620 -0.1546  0.5037
   29MOL0     C 3868   3.758   6.753   4.574  0.0369  1.1563  0.2904
   29MOL0     C 3869   3.885   6.697   4.593  0.0546 -0.1136 -0.1370
   29MOL0     C 3870   3.899   6.563   4.610  0.7318 -0.1845  1.0277
   29MOL0     C 3871   3.795   6.470   4.588  0.0652  0.1533 -0.3995
   29MOL0     O 3872   3.801   6.330   4.603 -0.2867  0.2345  0.7425
   29MOL0     C 3873   3.879   6.279   4.718  0.0560  0.7913  0.1409
   29MOL0     C 3874   3.796   6.170   4.788 -0.2624  0.6689 -0.7167
   29MOL0     C 3875   3.731   6.053   4.702  0.2940  0.3941 -0.4662
   29MOL0     C 3876   3.653   5.962   4.787  1.4121  0.8712 -0.4208
   29MOL0     C 3877   3.543   5.890   4.703  0.0978  0.2697 -0.4564
   29MOL0     C 3878   3.473   5.775   4.790 -0.2959  0.6547  0.2489
   29MOL0     C 3879   3.388   5.678   4.711 -0.7275 -0.4604 -0.0587
   29MOL0     C 3880   3.315   5.579   4.800 -0.0927  0.4487  0.1539
   29MOL0     N 3881   3.203   5.630   4.880 -0.3551 -0.5634 -0.3975
   29MOL0     C 3882   3.104   5.720   4.840  0.0417  0.2449  0.7124
   29MOL0     C 3883   3.017   5.738   4.941 -0.8139  0.6324 -1.2217
   29MOL0     C 3884   2.893   5.816   4.943 -0.5991 -0.4880 -0.2358
   29MOL0     C 3885   2.932   5.967   4.980  0.5073  0.6929 -0.6033
   29MOL0     C 3886   2.831   6.062   4.910  0.5410 -0.9086  0.0831
   29MOL0     C 3887   2.684   6.016   4.917 -0.2126 -0.0167 -0.4657
   29MOL0     O 3888   2.644   6.007   5.051  0.1693  0.1711  1.1440
   29MOL0     C 3889   2.519   5.956   5.082  0.5042  0.0832 -0.1987
   29MOL0     C 3890   2.502   5.922   5.218 -0.2597  0.0425  0.5226
   29MOL0     C 3891   2.374   5.892   5.263 -0.8343 -0.5622  0.5128
   29MOL0     C 3892   2.358   5.854   5.411  0.3039  0.4991  0.3750
   29MOL0     C 3893   2.259   5.885   5.182  0.3352 -0.1615  0.0712
   29MOL0     C 3894   2.123   5.854   5.225  0.4765  0.6715  0.2696
   29MOL0     O 3895   2.085   5.863   5.351 -0.6551  0.2953  0.3777
   29MOL0     C 3896   1.964   5.803   5.399 -0.0082  1.1153  0.4937
   29MOL0     C 3897   1.841   5.817   5.331  0.1468 -0.1747 -1.1360
   29MOL0     C 3898   1.725   5.764   5.390 -0.1452  0.4548 -0.4843
   29MOL0     C 3899   1.741   5.660   5.487  1.8667  1.0202 -0.7780
   29MOL0     O 3900   1.624   5.603   5.534  0.2581 -0.1127 -0.3350
   29MOL0     C 3901   1.617   5.466   5.512 -0.3206 -0.7101 -0.4079
   29MOL0     C 3902   1.478   5.410   5.537 -0.8436 -0.1256  0.2467
   29MOL0     C 3903   1.376   5.499   5.463  0.5430  0.6563 -0.6705
   29MOL0     C 3904   1.258   5.410   5.390  0.5265 -0.5079  0.3044
   29MOL0     C 3905   1.172   5.353   5.499  0.1275  0.0050  0.3984
   29MOL0     C 3906   1.078   5.246   5.435 -0.5275 -1.0937 -0.0187
   29MOL0     C 3907   0.933   5.240   5.506 -0.8478  0.1909 -1.6536
   29MOL0     C 3908   0.830   5.124   5.475  0.6684  0.2089  0.4108
   29MOL0    Cl 3909   0.923   4.962   5.464 -0.2307 -0.2569  0.1116
   29MOL0     C 3910   1.866   5.633   5.539  0.0703 -0.9405 -0.7243
   29MOL0     C 3911   1.977   5.717   5.507  0.9295 -0.6377 -0.0697
   29MOL0     O 3912   2.046   5.810   5.138  0.0455 -0.1815  0.2918
   29MOL0     C 3913   2.281   5.912   5.045 -0.2906 -0.4360  0.2813
   29MOL0     C 3914   2.410   5.946   4.996 -0.9218  0.3588  1.0512
   29MOL0     N 3915   3.067   5.663   5.044  0.0131 -1.0535  0.2727
   29MOL0     N 3916   3.172   5.600   5.005 -0.7159  0.4676  0.5364
   29MOL0     C 3917   3.664   6.525   4.587 -0.7687  0.0530  0.4363
   29MOL0     C 3918   3.648   6.661   4.584  0.6445  0.0471 -0.1023
   29MOL0     C 3919   3.578   7.066   4.531  0.5065  0.5878  0.0106
   29MOL0     C 3920   3.540   7.035   4.404  0.3576  0.9008  0.0722
   29MOL0     C 3921   3.472   7.120   4.323 -1.2430  0.1243  0.2408
   29MOL0     C 3922   3.438   7.247   4.373 -0.5939 -0.9806 -1.2943
   29MOL0     O 3923   3.358   7.346   4.313 -0.0054  0.1386 -0.6614
   29MOL0     C 3924   3.288   7.308   4.191 -0.6633  0.3386  0.8926
   29MOL0     C 3925   3.287   7.422   4.088 -0.3548  0.5811 -0.6286
   29MOL0     C 3926   3.237   7.381   3.950 -0.5791  0.2491  0.5591
   29MOL0     C 3927   3.194   7.512   3.870 -0.1781 -0.4030 -0.9099
   29MOL0     C 3928   3.143   7.458   3.747  1.6271  0.1297  0.4085
   29MOL0     C 3929   3.100   7.408   3.646  0.4370 -0.3232 -1.1435
   29MOL0     C 3930   3.493   7.285   4.501  0.5077  0.0584  1.3653
   29MOL0     C 3931   3.566   7.196   4.577  0.4442  0.0903  0.1545
   29MOL0     C 3932   3.631   7.242   4.700 -0.3646 -0.3960  0.4172
   29MOL0     H 3933   3.966   6.765   4.573 -0.6966  0.6629 -0.6224
   29MOL0     H 3934   4.001   6.527   4.622  0.2069 -2.5605 -0.8171
   29MOL0     H 3935   3.908   6.357   4.788 -2.2991  1.0563  0.8820
   29MOL0     H 3936   3.968   6.229   4.678 -1.6721 -1.4009 -1.2144
   29MOL0     H 3937   3.861   6.116   4.857 -0.1326 -1.2673 -2.2712
   29MOL0     H 3938   3.717   6.220   4.846  0.7934  0.4772  0.9610
   29MOL0     H 3939   3.677   6.104   4.621 -0.3466 -0.1912 -0.4184
   29MOL0     H 3940   3.804   5.988   4.652 -0.5013 -1.3070  0.4944
   29MOL0     H 3941   3.712   5.881   4.832  1.3922 -0.4691 -2.6750
   29MOL0     H 3942   3.596   6.008   4.869  1.0386 -0.2767 -0.0139
   29MOL0     H 3943   3.588   5.842   4.615  0.1651 -1.6359  0.5470
   29MOL0     H 3944   3.466   5.965   4.685  2.4987  3.2362  0.8641
   29MOL0     H 3945   3.546   5.711   4.841 -0.9812 -1.5271 -1.3777
   29MOL0     H 3946   3.414   5.822   4.870 -1.6747  0.7326 -0.7815
   29MOL0     H 3947   3.459   5.617   4.656 -0.5650  0.1968 -0.5981
   29MOL0     H 3948   3.323   5.732   4.641  1.2510 -0.4335 -1.9503
   29MOL0     H 3949   3.278   5.494   4.742 -2.1914 -1.1908  3.5745
   29MOL0     H 3950   3.387   5.543   4.874 -1.2978  2.4639  2.4527
   29MOL0     H 3951   3.080   5.767   4.745  1.1691  0.3362  0.4540
   29MOL0     H 3952   2.823   5.771   5.013  1.1304  1.0370  2.6802
   29MOL0     H 3953   2.850   5.819   4.843  1.3305  1.7608 -1.1044
   29MOL0     H 3954   2.928   5.985   5.088  1.9878 -5.5459  0.9459
   29MOL0     H 3955   3.035   5.986   4.949  2.1781 -2.4487  2.2791
   29MOL0     H 3956   2.845   6.156   4.964  2.0778 -0.4665 -1.0125
   29MOL0     H 3957   2.851   6.078   4.804 -0.8166 -1.6667 -0.3204
   29MOL0     H 3958   2.635   6.097   4.860  2.5943  1.0680 -1.5074
   29MOL0     H 3959   2.651   5.929   4.860  1.9954 -0.9768 -0.3450
   29MOL0     H 3960   2.590   5.930   5.281  0.4721 -1.8825 -0.1878
   29MOL0     H 3961   2.287   5.911   5.470  1.2996  0.7301  1.3928
   29MOL0     H 3962   2.455   5.863   5.461 -0.0910 -1.0398  1.4993
   29MOL0     H 3963   2.321   5.752   5.430  1.5423  0.3637  2.2919
   29MOL0     H 3964   1.824   5.895   5.258  1.1862  1.4872  0.3302
   29MOL0     H 3965   1.630   5.792   5.345 -0.4879 -0.1372 -0.1547
   29MOL0     H 3966   1.654   5.442   5.412 -1.9239 -1.5951 -0.8214
   29MOL0     H 3967   1.683   5.413   5.581  0.7059 -1.4804 -1.9212
   29MOL0     H 3968   1.473   5.305   5.507 -0.9827 -0.5054  1.5242
   29MOL0     H 3969   1.460   5.404   5.645 -0.7564 -0.2148  0.2557
   29MOL0     H 3970   1.432   5.566   5.398 -1.6179  1.3654 -1.9078
   29MOL0     H 3971   1.317   5.559   5.533 -2.1039 -2.1238 -0.2788
   29MOL0     H 3972   1.301   5.325   5.335  2.7568 -0.2254  1.5019
   29MOL0     H 3973   1.203   5.479   5.325 -1.6885 -3.5760 -1.3645
   29MOL0     H 3974   1.215   5.300   5.585  1.0145 -0.8570 -0.5422
   29MOL0     H 3975   1.109   5.435   5.535  1.1865  1.2529 -0.5323
   29MOL0     H 3976   1.128   5.149   5.430  0.0526 -0.8668  1.1058
   29MOL0     H 3977   1.056   5.280   5.333 -2.4139 -0.3919  0.5725
   29MOL0     H 3978   0.881   5.331   5.474 -3.2404 -1.2573 -2.1536
   29MOL0     H 3979   0.933   5.258   5.614 -0.5258  1.5624 -1.8579
   29MOL0     H 3980   0.784   5.141   5.377  2.1123 -1.9991 -0.7248
   29MOL0     H 3981   0.751   5.122   5.551  2.1862 -0.9027  2.0413
   29MOL0     H 3982   1.870   5.575   5.631  0.3579 -0.7477 -0.6129
   29MOL0     H 3983   2.080   5.707   5.538  0.3155  1.8400  3.2501
   29MOL0     H 3984   2.191   5.907   4.984 -0.1463 -4.5643  0.1288
   29MOL0     H 3985   2.421   5.969   4.891  3.6527 -1.0110  1.0180
   29MOL0     H 3986   3.587   6.449   4.600  1.8964 -2.7413  1.1865
   29MOL0     H 3987   3.554   6.715   4.596  0.6857 -0.4645  5.1644
   29MOL0     H 3988   3.571   6.938   4.367 -1.1668 -0.3161  1.8215
   29MOL0     H 3989   3.453   7.082   4.223 -1.0042  1.6712 -0.4203
   29MOL0     H 3990   3.325   7.217   4.142 -1.9309 -0.9071  2.1573
   29MOL0     H 3991   3.181   7.290   4.206 -1.0435 -0.6214 -2.1662
   29MOL0     H 3992   3.387   7.463   4.074  1.3597 -2.1079  2.3490
   29MOL0     H 3993   3.227   7.500   4.136 -1.1639 -1.9032  2.8178
   29MOL0     H 3994   3.307   7.330   3.884  0.5961  0.5094  1.5682
   29MOL0     H 3995   3.154   7.309   3.947 -1.6182  1.3999 -3.0912
   29MOL0     H 3996   3.274   7.582   3.846  1.1569 -2.6760 -3.6293
   29MOL0     H 3997   3.117   7.560   3.931 -0.9724  0.7604 -2.7497
   29MOL0     H 3998   3.046   7.371   3.561 -1.1345  3.3581 -1.9054
   29MOL0     H 3999   3.474   7.388   4.531 -1.5289 -0.5134  2.2102
   29MOL0     H 4000   3.667   7.345   4.712  2.7787 -1.4468  1.0156
   29MOL0     H 4001   3.580   7.222   4.795  2.1818 -2.2573  1.5388
   29MOL0     H 4002   3.729   7.195   4.713  1.1225  2.4006  0.0986
   30MOL0     O 4003  10.605   1.284   9.169  0.1448 -0.6974 -0.4241
   30MOL0     C 4004  10.512   1.213   9.207  0.5393 -0.4067  0.2425
   30MOL0     O 4005  10.511   1.130   9.321  0.0489 -0.9648 -0.1520
   30MOL0     C 4006  10.616   1.125   9.416 -0.3695 -0.7987 -0.4607
   30MOL0     C 4007  10.628   1.009   9.497 -0.3864  0.7538 -0.2305
   30MOL0     C 4008  10.717   1.006   9.606 -0.0694  0.5543  0.5889
   30MOL0     C 4009  10.785   1.122   9.647 -0.5172  0.5074  0.2125
   30MOL0     O 4010  10.851   1.115   9.760 -0.0872  0.5673 -0.1207
   30MOL0     C 4011  10.957   1.197   9.805  0.5826  0.7509  0.9330
   30MOL0     C 4012  10.889   1.329   9.863 -0.1071 -0.1592  0.6772
   30MOL0     C 4013  10.896   1.330  10.018  0.1569  0.1070  0.3218
   30MOL0     C 4014  10.781   1.405  10.084 -0.3232 -0.3664  0.1240
   30MOL0     C 4015  10.814   1.444  10.231  0.2492 -0.5265  0.3949
   30MOL0     C 4016  10.817   1.320  10.306  1.3312  0.3282 -0.7963
   30MOL0     C 4017  10.869   1.342  10.455 -0.0241  0.0785 -0.0574
   30MOL0     C 4018  10.926   1.214  10.502  0.0766  1.2582  0.4824
   30MOL0     N 4019  10.987   1.225  10.637 -0.7608  0.5030 -0.2452
   30MOL0     C 4020  10.918   1.225  10.753 -0.3526 -1.2646 -0.0486
   30MOL0     C 4021  11.020   1.236  10.838  0.4847 -0.9747 -0.0609
   30MOL0     C 4022  11.004   1.267  10.987 -0.5734  0.7788 -0.4763
   30MOL0     C 4023  11.128   1.237  11.077 -0.7444 -0.5161 -0.2052
   30MOL0     C 4024  11.139   1.327  11.199  0.1932  0.6124 -1.4349
   30MOL0     C 4025  11.282   1.309  11.262  0.0064 -0.0108 -0.0650
   30MOL0     O 4026  11.289   1.404  11.377  0.3340  0.1095  0.1758
   30MOL0     C 4027  11.383   1.400  11.468 -0.9653  0.0711  0.0521
   30MOL0     C 4028  11.500   1.326  11.445  1.1050 -0.5268  0.1314
   30MOL0     C 4029  11.612   1.342  11.536 -0.6613  0.3951 -0.7538
   30MOL0     C 4030  11.732   1.271  11.501 -0.2681  0.3485  0.5158
   30MOL0     C 4031  11.589   1.408  11.661 -0.8468  0.8081  1.1550
   30MOL0     C 4032  11.704   1.410  11.768  0.2953 -0.5250 -0.3438
   30MOL0     O 4033  11.831   1.401  11.719 -0.4642 -0.4431 -1.3583
   30MOL0     C 4034  11.935   1.407  11.813  0.5034  0.3572  0.1328
   30MOL0     C 4035  11.951   1.526  11.877 -0.2200 -1.3624 -1.0081
   30MOL0     C 4036  12.058   1.536  11.972 -0.8575  0.7235 -0.7913
   30MOL0     C 4037  12.147   1.433  12.001  1.4173  0.3117  0.1833
   30MOL0     O 4038  12.233   1.436  12.105  0.2031  0.4225 -0.1191
   30MOL0     C 4039  12.280   1.554  12.162 -0.3079  1.2061  0.9150
   30MOL0     C 4040  12.405   1.514  12.237  0.2006 -0.0020 -0.6565
   30MOL0     C 4041  12.383   1.486  12.390  0.1248  0.0453  0.5636
   30MOL0     C 4042  12.513   1.431  12.456  0.4745  0.4027 -0.9335
   30MOL0     C 4043  12.478   1.342  12.590 -0.1404 -0.4981  0.7865
   30MOL0     C 4044  12.425   1.423  12.703  0.7058 -0.4030  0.1995
   30MOL0     C 4045  12.373   1.371  12.825  0.7334  0.6602 -1.2319
   30MOL0     C 4046  12.326   1.486  12.921 -0.4297  0.1606  0.3616
   30MOL0    Cl 4047  12.300   1.416  13.082  0.1684  0.1067 -0.1116
   30MOL0     C 4048  12.122   1.311  11.933  0.3616 -0.6133  0.1090
   30MOL0     C 4049  12.018   1.303  11.839 -0.7373 -0.4787 -0.0879
   30MOL0     O 4050  11.678   1.423  11.890 -0.1444 -0.2202  0.4597
   30MOL0     C 4051  11.472   1.473  11.685  0.1261 -0.1118  0.3350
   30MOL0     C 4052  11.373   1.472  11.585 -1.0735  0.3259  0.6698
   30MOL0     N 4053  11.146   1.227  10.770 -0.5559 -0.2434  0.4479
   30MOL0     N 4054  11.116   1.236  10.651 -0.2776  0.1856 -0.1611
   30MOL0     C 4055  10.787   1.229   9.551 -0.0685 -1.8496  0.0888
   30MOL0     C 4056  10.703   1.235   9.441 -0.2720  0.1877  0.3889
   30MOL0     C 4057  10.382   1.202   9.134 -0.0071  0.5519  0.6735
   30MOL0     C 4058  10.265   1.241   9.198  0.4142 -0.3696 -0.6016
   30MOL0     C 4059  10.150   1.266   9.124  0.3760  0.0968  0.4294
   30MOL0     C 4060  10.136   1.220   8.992  0.2775  0.0867 -0.4004
   30MOL0     O 4061  10.015   1.242   8.927 -0.0442  0.3790  0.4162
   30MOL0     C 4062  10.005   1.198   8.784  0.5716  0.0943 -0.2047
   30MOL0     C 4063   9.870   1.232   8.743  0.4660 -0.3552  0.5731
   30MOL0     C 4064   9.835   1.385   8.729  0.0124 -0.1971  0.1004
   30MOL0     C 4065   9.911   1.457   8.621  0.0102 -0.5074 -0.0502
   30MOL0     C 4066   9.837   1.578   8.577 -1.2365  0.9980  1.0835
   30MOL0     C 4067   9.777   1.676   8.561  0.3028 -0.0213  0.3737
   30MOL0     C 4068  10.258   1.162   8.936  0.0232  0.4336 -0.5738
   30MOL0     C 4069  10.382   1.158   8.998 -0.1034 -0.6564 -0.1691
   30MOL0     C 4070  10.506   1.098   8.933  0.0927 -0.0855  0.3467
   30MOL0     H 4071  10.558   0.929   9.473 -1.3877  1.1738  1.2195
   30MOL0     H 4072  10.730   0.919   9.669  2.4281  0.0781 -0.4730
   30MOL0     H 4073  11.019   1.220   9.717 -0.2758  1.2392  0.4440
   30MOL0     H 4074  11.005   1.144   9.887  1.1820  1.7085  1.2152
   30MOL0     H 4075  10.942   1.418   9.829  0.7748 -1.0083 -0.2314
   30MOL0     H 4076  10.785   1.337   9.829 -0.4118  0.4467  1.6917
   30MOL0     H 4077  10.884   1.223  10.039 -0.5565 -1.0029 -4.5202
   30MOL0     H 4078  11.000   1.351  10.043  1.7978 -2.1794 -3.6260
   30MOL0     H 4079  10.789   1.495  10.022  2.9346  0.1857  1.1606
   30MOL0     H 4080  10.686   1.352  10.075 -0.0001 -0.6664 -2.5891
   30MOL0     H 4081  10.741   1.514  10.272  1.0359  1.9397 -2.0291
   30MOL0     H 4082  10.915   1.486  10.240  0.0268  0.8764 -2.5580
   30MOL0     H 4083  10.722   1.266  10.309 -0.6865  3.5755 -0.6781
   30MOL0     H 4084  10.884   1.247  10.260 -0.5280 -1.9124 -0.1289
   30MOL0     H 4085  10.797   1.392  10.520 -1.6288 -0.1912 -1.5722
   30MOL0     H 4086  10.957   1.408  10.448 -0.0020  0.1162  0.5209
   30MOL0     H 4087  10.844   1.144  10.521 -2.2921  4.2914  2.3548
   30MOL0     H 4088  10.996   1.180  10.425  0.8594  4.3687 -0.3156
   30MOL0     H 4089  10.812   1.236  10.773 -0.2537 -2.0472  0.9919
   30MOL0     H 4090  10.912   1.219  11.022 -0.9231  0.6119 -1.5700
   30MOL0     H 4091  10.987   1.374  11.001 -1.2336  0.7932 -1.2502
   30MOL0     H 4092  11.127   1.133  11.112  2.1584 -0.2603  0.8340
   30MOL0     H 4093  11.216   1.246  11.013  0.5857  1.1233  1.7456
   30MOL0     H 4094  11.110   1.430  11.177 -1.7505  0.0447 -1.7012
   30MOL0     H 4095  11.073   1.284  11.275  1.5683  0.5293 -0.2530
   30MOL0     H 4096  11.298   1.203  11.283  1.2091  0.0658 -0.5422
   30MOL0     H 4097  11.359   1.329  11.187  0.7965  4.7441  1.6260
   30MOL0     H 4098  11.521   1.283  11.348 -2.0626  0.1691 -0.9693
   30MOL0     H 4099  11.754   1.191  11.571  1.1269 -1.9046 -2.3004
   30MOL0     H 4100  11.820   1.333  11.483  1.1535 -2.3256 -2.9430
   30MOL0     H 4101  11.726   1.214  11.408  0.8361 -0.8713  1.1544
   30MOL0     H 4102  11.896   1.612  11.838  1.6933 -1.0426 -3.1906
   30MOL0     H 4103  12.076   1.630  12.024 -6.8519  0.8776  1.7683
   30MOL0     H 4104  12.325   1.622  12.088  1.5204  0.7702  1.5808
   30MOL0     H 4105  12.201   1.606  12.216 -0.3015  0.7656  1.3466
   30MOL0     H 4106  12.444   1.423  12.192  1.0183  1.9784 -4.2657
   30MOL0     H 4107  12.480   1.592  12.219  0.3047  0.2244  0.6286
   30MOL0     H 4108  12.310   1.407  12.407 -1.3420  1.1410 -0.3615
   30MOL0     H 4109  12.360   1.586  12.430  2.2374  0.7580  0.1542
   30MOL0     H 4110  12.585   1.507  12.490 -2.0565  2.1080  0.9715
   30MOL0     H 4111  12.565   1.369  12.382 -0.8074 -0.9023 -0.7875
   30MOL0     H 4112  12.410   1.262  12.560 -1.1277  1.3285 -2.4228
   30MOL0     H 4113  12.575   1.299  12.614  0.3530 -0.4893 -1.0040
   30MOL0     H 4114  12.348   1.487  12.660 -0.9273 -1.4956  1.3996
   30MOL0     H 4115  12.518   1.476  12.730  0.1900  1.5586 -1.6322
   30MOL0     H 4116  12.443   1.304  12.876 -3.0172 -3.3877 -0.7697
   30MOL0     H 4117  12.287   1.305  12.808  0.7942  0.3183 -0.2637
   30MOL0     H 4118  12.231   1.521  12.881  1.3073  2.9397 -1.7295
   30MOL0     H 4119  12.394   1.570  12.935 -2.4927  2.2645 -1.5876
   30MOL0     H 4120  12.192   1.230  11.950  1.2461  0.6243  3.0070
   30MOL0     H 4121  12.012   1.214  11.777  0.9106  0.8642 -2.3606
   30MOL0     H 4122  11.446   1.524  11.778 -2.1805  2.6044 -1.6361
   30MOL0     H 4123  11.291   1.540  11.604  0.1992  2.6227 -1.4672
   30MOL0     H 4124  10.839   1.321   9.574  0.8743 -1.3268 -3.6002
   30MOL0     H 4125  10.704   1.325   9.381 -0.3496 -0.8382 -1.2221
   30MOL0     H 4126  10.261   1.277   9.301 -2.7087 -0.9544 -0.4105
   30MOL0     H 4127  10.066   1.315   9.171  2.4511  1.9334  2.5288
   30MOL0     H 4128  10.085   1.243   8.724 -0.7073 -1.8429 -3.6232
   30MOL0     H 4129  10.022   1.091   8.774  0.0983  0.0403 -0.4505
   30MOL0     H 4130   9.802   1.179   8.810  3.1814 -2.2468  2.0365
   30MOL0     H 4131   9.860   1.195   8.640 -1.8751  1.2464  0.1471
   30MOL0     H 4132   9.730   1.384   8.700  0.2678 -1.0849 -0.8878
   30MOL0     H 4133   9.848   1.430   8.827  5.1465 -1.6120  0.3805
   30MOL0     H 4134   9.934   1.383   8.544  4.4863  1.2182 -0.7269
   30MOL0     H 4135  10.008   1.498   8.652 -0.1654 -0.0989 -0.0441
   30MOL0     H 4136   9.731   1.771   8.544  1.5419  0.4915 -0.2648
   30MOL0     H 4137  10.248   1.123   8.835  1.6806 -2.0294  0.1434
   30MOL0     H 4138  10.487   1.138   8.833 -4.7769 -0.4182  0.8765
   30MOL0     H 4139  10.604   1.116   8.978 -1.6598  0.3826  4.5072
   30MOL0     H 4140  10.509   0.989   8.929  0.1089 -0.1902  2.2730
   31MOL0     O 4141  11.498   6.301   5.099  0.6510  0.3151 -0.2838
   31MOL0     C 4142  11.591   6.287   5.021  0.0196 -0.9014  0.5393
   31MOL0     O 4143  11.700   6.368   5.017 -0.0739 -0.6976  0.1274
   31MOL0     C 4144  11.702   6.497   5.069  0.5790 -0.3420 -0.1841
   31MOL0     C 4145  11.593   6.576   5.051  0.3252 -0.7120 -0.8976
   31MOL0     C 4146  11.584   6.702   5.107  0.8717  1.5429 -0.0993
   31MOL0     C 4147  11.693   6.752   5.178  0.5493  0.2654 -0.0166
   31MOL0     O 4148  11.707   6.876   5.231  0.0567  0.4042  0.3056
   31MOL0     C 4149  11.748   6.891   5.377  0.0189 -0.7444 -0.6753
   31MOL0     C 4150  11.645   6.962   5.478  0.1592  0.0087 -0.1613
   31MOL0     C 4151  11.697   6.970   5.615 -0.7670 -1.1461 -0.9832
   31MOL0     C 4152  11.657   7.101   5.693 -0.4810 -0.6258  0.2512
   31MOL0     C 4153  11.710   7.094   5.837  0.4803  0.4728 -0.0161
   31MOL0     C 4154  11.861   7.090   5.857  0.3838  0.2013 -0.1196
   31MOL0     C 4155  11.895   7.108   6.010 -0.5759  0.0310  1.1003
   31MOL0     C 4156  11.876   6.980   6.092  0.0786 -0.3626  0.0452
   31MOL0     N 4157  11.969   6.987   6.203  0.0959  0.0354 -0.4104
   31MOL0     C 4158  11.921   6.972   6.331 -0.1087 -0.4162 -1.6876
   31MOL0     C 4159  12.028   6.978   6.414 -0.4422 -0.4278 -0.6487
   31MOL0     C 4160  12.023   6.996   6.569  0.7354 -0.0850 -0.9221
   31MOL0     C 4161  12.152   7.055   6.644  0.1993  0.5281  0.9005
   31MOL0     C 4162  12.161   7.028   6.796 -1.0421 -0.3297  0.0725
   31MOL0     C 4163  12.070   7.129   6.872 -0.7020  0.9565 -0.0835
   31MOL0     O 4164  12.144   7.255   6.890  0.5398 -0.4696  0.1395
   31MOL0     C 4165  12.063   7.358   6.916  1.1187  0.8893  0.4323
   31MOL0     C 4166  11.981   7.345   7.025 -0.4056 -0.5431  0.1525
   31MOL0     C 4167  11.875   7.438   7.047  0.5379 -1.1289  0.7863
   31MOL0     C 4168  11.778   7.401   7.158  0.4930 -0.2913  1.1718
   31MOL0     C 4169  11.852   7.545   6.950 -0.0572 -0.4712 -0.7815
   31MOL0     C 4170  11.754   7.652   6.959  1.4802 -0.1157  0.2957
   31MOL0     O 4171  11.691   7.699   6.846  0.4335  0.5464 -0.0701
   31MOL0     C 4172  11.583   7.781   6.867 -0.6841  0.2019  0.3307
   31MOL0     C 4173  11.455   7.728   6.841 -0.4845  0.1131  0.6900
   31MOL0     C 4174  11.345   7.805   6.880  0.1630  0.5268 -0.5090
   31MOL0     C 4175  11.362   7.929   6.946 -0.6557 -0.4854 -0.7056
   31MOL0     O 4176  11.258   8.011   6.971  0.2206 -0.6886  0.5282
   31MOL0     C 4177  11.141   8.006   6.889 -0.1557 -0.0048 -0.2660
   31MOL0     C 4178  11.046   8.111   6.943  0.4643 -0.0356 -0.0636
   31MOL0     C 4179  10.916   8.104   6.874  0.0718 -0.0105 -0.4785
   31MOL0     C 4180  10.810   8.163   6.959  0.4018  1.0062  0.2442
   31MOL0     C 4181  10.667   8.142   6.916  0.5086  0.4361  0.3933
   31MOL0     C 4182  10.572   8.223   7.003  0.7683 -0.1976  0.2432
   31MOL0     C 4183  10.420   8.208   6.971  0.4738  0.2404 -0.2602
   31MOL0     C 4184  10.379   8.282   6.845  0.0235 -0.1364  0.2901
   31MOL0    Cl 4185  10.384   8.171   6.701  0.1018 -0.1244 -0.2098
   31MOL0     C 4186  11.489   7.980   6.974  0.1240 -0.4471 -0.5510
   31MOL0     C 4187  11.602   7.903   6.935  0.4005 -0.1378 -0.3959
   31MOL0     O 4188  11.726   7.691   7.075  0.6622  0.0175  0.6094
   31MOL0     C 4189  11.947   7.561   6.841  0.0617  0.8049 -0.1067
   31MOL0     C 4190  12.054   7.467   6.821  0.0584  0.0604  1.2518
   31MOL0     N 4191  12.143   6.980   6.335 -0.7369 -1.0510 -0.6345
   31MOL0     N 4192  12.104   6.996   6.208  0.5541 -0.7984  0.4842
   31MOL0     C 4193  11.807   6.669   5.190  0.2261 -0.1771 -0.3930
   31MOL0     C 4194  11.811   6.537   5.139 -0.8924  0.3501 -0.3444
   31MOL0     C 4195  11.600   6.163   4.938 -0.3785 -0.0080  0.5176
   31MOL0     C 4196  11.603   6.190   4.798 -0.2525  0.9891  0.3375
   31MOL0     C 4197  11.607   6.088   4.699 -0.8508  0.6034 -0.5035
   31MOL0     C 4198  11.604   5.956   4.739 -0.8037 -0.4715  0.6831
   31MOL0     O 4199  11.631   5.860   4.644 -0.6376  0.0156  0.3050
   31MOL0     C 4200  11.641   5.889   4.501 -0.1017  0.4215  0.1997
   31MOL0     C 4201  11.603   5.762   4.424 -0.4586 -0.2654  0.7683
   31MOL0     C 4202  11.465   5.719   4.461 -0.2767  0.1474  0.4953
   31MOL0     C 4203  11.433   5.600   4.384 -0.0090 -0.5054  0.1225
   31MOL0     C 4204  11.319   5.533   4.432 -0.1675 -0.3950  0.3420
   31MOL0     C 4205  11.206   5.485   4.464 -0.2686 -0.0358  0.3678
   31MOL0     C 4206  11.586   5.935   4.873 -0.1740 -0.5073 -0.6926
   31MOL0     C 4207  11.578   6.032   4.976 -0.0052  0.4897  0.3097
   31MOL0     C 4208  11.551   5.993   5.122 -0.0148 -0.4198  0.2447
   31MOL0     H 4209  11.504   6.541   4.999  0.2518 -0.6364 -0.8235
   31MOL0     H 4210  11.494   6.761   5.092  0.3063  0.4330 -1.2860
   31MOL0     H 4211  11.843   6.945   5.380  0.7699 -2.0578  1.0028
   31MOL0     H 4212  11.754   6.789   5.416  0.4044 -1.6857 -3.0250
   31MOL0     H 4213  11.622   7.060   5.436  2.5482  0.3029 -0.8929
   31MOL0     H 4214  11.558   6.895   5.479 -0.2228  0.4799  1.2068
   31MOL0     H 4215  11.666   6.883   5.675  2.1207 -1.9903 -0.5519
   31MOL0     H 4216  11.806   6.971   5.609 -0.5675  3.3647  0.1806
   31MOL0     H 4217  11.686   7.187   5.632  5.2949 -0.7636  2.1795
   31MOL0     H 4218  11.548   7.107   5.697 -0.5254  1.0825 -1.7383
   31MOL0     H 4219  11.678   6.999   5.882 -0.1513  0.6152 -0.1595
   31MOL0     H 4220  11.662   7.184   5.877 -1.9087 -1.1739  1.0414
   31MOL0     H 4221  11.907   6.997   5.824 -0.1812 -0.5167  1.0456
   31MOL0     H 4222  11.899   7.174   5.798  1.3851 -0.2353 -0.1126
   31MOL0     H 4223  11.835   7.189   6.053 -1.3300  0.9733 -1.5275
   31MOL0     H 4224  11.996   7.146   6.029 -1.0468  1.0684  1.5843
   31MOL0     H 4225  11.769   6.986   6.114 -0.0702  5.7768 -0.7926
   31MOL0     H 4226  11.893   6.893   6.029  1.1703  1.5695 -2.4846
   31MOL0     H 4227  11.814   6.959   6.343 -0.5514  2.1242 -2.3075
   31MOL0     H 4228  12.007   6.899   6.616 -2.1607 -0.9199 -3.3208
   31MOL0     H 4229  11.937   7.061   6.586  0.5814 -0.3017 -0.8783
   31MOL0     H 4230  12.232   7.005   6.589 -0.1781  0.7184  0.1739
   31MOL0     H 4231  12.159   7.160   6.613 -0.0459  1.2922  3.1789
   31MOL0     H 4232  12.117   6.930   6.814 -2.7511 -0.0009 -1.8827
   31MOL0     H 4233  12.267   7.018   6.819 -0.8411 -1.7621 -1.3188
   31MOL0     H 4234  11.982   7.148   6.810 -0.4204  1.3308 -0.3798
   31MOL0     H 4235  12.044   7.081   6.966 -1.6234 -1.1657 -1.3430
   31MOL0     H 4236  12.010   7.268   7.096  3.3438 -0.8511 -1.4771
   31MOL0     H 4237  11.824   7.417   7.256 -0.0153  0.6803  1.2702
   31MOL0     H 4238  11.736   7.301   7.143  0.0872  0.0944 -0.3569
   31MOL0     H 4239  11.690   7.466   7.160 -0.2236 -0.8493 -3.1445
   31MOL0     H 4240  11.454   7.633   6.788 -1.4041  0.2374  0.4651
   31MOL0     H 4241  11.247   7.780   6.842  0.3946  3.8496 -3.8235
   31MOL0     H 4242  11.163   8.033   6.785 -1.7854  3.2048  0.0882
   31MOL0     H 4243  11.089   7.912   6.910 -0.3078  0.0158 -0.5422
   31MOL0     H 4244  11.037   8.092   7.051  2.0975 -1.7844 -0.1765
   31MOL0     H 4245  11.084   8.214   6.942  1.2444 -0.2602  1.8182
   31MOL0     H 4246  10.893   7.997   6.866  0.2222 -0.3755  2.7789
   31MOL0     H 4247  10.921   8.157   6.778 -1.5022  1.5905  0.2703
   31MOL0     H 4248  10.825   8.272   6.961 -0.6717  1.2222 -1.3304
   31MOL0     H 4249  10.808   8.117   7.058  0.8404 -1.8061 -0.9674
   31MOL0     H 4250  10.662   8.161   6.808 -1.0403 -1.3243  0.1101
   31MOL0     H 4251  10.647   8.037   6.936  2.9482  0.6144  5.1732
   31MOL0     H 4252  10.598   8.329   7.011 -1.0078  0.2409  0.7838
   31MOL0     H 4253  10.577   8.192   7.108  2.5326 -0.4130  0.1165
   31MOL0     H 4254  10.353   8.249   7.048 -2.7119 -0.7423 -2.3211
   31MOL0     H 4255  10.391   8.104   6.957  1.4457 -0.2439  1.1182
   31MOL0     H 4256  10.446   8.368   6.834  1.7422 -0.9980  3.0403
   31MOL0     H 4257  10.277   8.322   6.848  0.1331  0.0818  1.6491
   31MOL0     H 4258  11.493   8.078   7.019  0.7050  1.3845 -4.1826
   31MOL0     H 4259  11.694   7.946   6.974 -0.8448  0.6458  1.9249
   31MOL0     H 4260  11.935   7.634   6.762  2.9139  1.9507  0.4101
   31MOL0     H 4261  12.118   7.466   6.733  0.5711 -3.4071  1.4842
   31MOL0     H 4262  11.902   6.685   5.241  0.3349 -5.4159  1.7133
   31MOL0     H 4263  11.900   6.482   5.167  0.6404  1.4786 -2.6248
   31MOL0     H 4264  11.628   6.290   4.764  0.5092 -0.2373 -3.0665
   31MOL0     H 4265  11.633   6.128   4.601  1.2890  0.7527  0.0878
   31MOL0     H 4266  11.559   5.960   4.489  1.5179  2.2344 -0.4985
   31MOL0     H 4267  11.729   5.939   4.460 -1.1500  1.5958 -0.6693
   31MOL0     H 4268  11.678   5.684   4.442 -0.2902 -0.9807 -2.4280
   31MOL0     H 4269  11.592   5.772   4.315 -1.6055  1.6840  1.0269
   31MOL0     H 4270  11.459   5.704   4.569  0.2612 -1.6164  0.3199
   31MOL0     H 4271  11.394   5.796   4.428 -0.2827  0.5402  1.3947
   31MOL0     H 4272  11.520   5.537   4.407  0.9169  1.3754  2.2212
   31MOL0     H 4273  11.432   5.630   4.279  0.2846 -0.2912  0.1769
   31MOL0     H 4274  11.118   5.428   4.486  0.4278 -2.9182 -3.3093
   31MOL0     H 4275  11.580   5.833   4.908 -1.3657 -1.1020 -2.5072
   31MOL0     H 4276  11.624   5.928   5.171 -1.1525 -0.5715  1.8010
   31MOL0     H 4277  11.541   6.082   5.184 -0.3892 -0.7465  0.6606
   31MOL0     H 4278  11.461   5.931   5.132  1.2488 -1.9926  2.9365
   32MOL0     O 4279   2.515   2.840   1.211 -0.3081 -0.0488  0.4028
   32MOL0     C 4280   2.622   2.898   1.235  0.5760  0.2174  0.1756
   32MOL0     O 4281   2.748   2.848   1.225  0.1841  0.3674 -0.1302
   32MOL0     C 4282   2.750   2.730   1.147  0.4642  0.0421  0.2483
   32MOL0     C 4283   2.774   2.613   1.211 -0.9499  1.0972 -0.1602
   32MOL0     C 4284   2.778   2.499   1.131 -0.9381 -0.3207 -0.1808
   32MOL0     C 4285   2.739   2.494   0.998 -0.3238 -0.8591  1.4956
   32MOL0     O 4286   2.741   2.380   0.922  0.5245  0.0582 -0.1689
   32MOL0     C 4287   2.786   2.251   0.966 -0.1581  0.1945 -0.5963
   32MOL0     C 4288   2.653   2.191   1.017  0.2536 -1.1995  0.3558
   32MOL0     C 4289   2.662   2.057   1.088  0.6442 -0.5181 -0.5204
   32MOL0     C 4290   2.525   1.995   1.120  0.8267 -0.7231 -0.6032
   32MOL0     C 4291   2.534   1.853   1.188  0.3958 -0.2144 -0.4925
   32MOL0     C 4292   2.599   1.740   1.097 -0.5144 -0.7758  0.4046
   32MOL0     C 4293   2.601   1.601   1.159  0.2201  0.4826  0.1368
   32MOL0     C 4294   2.466   1.571   1.232 -0.4171 -0.0199  0.6142
   32MOL0     N 4295   2.467   1.440   1.293  0.4582 -0.7408 -0.7770
   32MOL0     C 4296   2.427   1.402   1.413 -0.3007  1.3968  0.3239
   32MOL0     C 4297   2.420   1.264   1.412  0.7980  0.1523 -0.2995
   32MOL0     C 4298   2.387   1.170   1.523 -0.4271  0.1644  0.5239
   32MOL0     C 4299   2.321   1.245   1.648 -0.3107 -0.0760 -0.0416
   32MOL0     C 4300   2.298   1.138   1.759 -0.5031 -0.4246  0.0513
   32MOL0     C 4301   2.253   1.212   1.890  0.4569 -0.1516  0.5543
   32MOL0     O 4302   2.217   1.110   1.991 -0.4948 -1.0134  0.6729
   32MOL0     C 4303   2.287   1.122   2.106  0.7809 -0.1781 -0.2539
   32MOL0     C 4304   2.357   1.011   2.135  0.3386  0.3799  0.0717
   32MOL0     C 4305   2.444   1.006   2.243 -0.4619 -0.3923 -0.2121
   32MOL0     C 4306   2.525   0.881   2.258 -0.8432  0.2055  0.3243
   32MOL0     C 4307   2.460   1.117   2.323 -0.6297 -0.5882  0.3684
   32MOL0     C 4308   2.553   1.127   2.436 -0.7705 -0.4430 -0.3360
   32MOL0     O 4309   2.518   1.207   2.540 -0.1397  0.6779  0.7306
   32MOL0     C 4310   2.606   1.219   2.642 -0.3445 -1.1496 -0.3523
   32MOL0     C 4311   2.622   1.349   2.677  0.5482 -0.0028  0.2335
   32MOL0     C 4312   2.722   1.390   2.759 -0.1155 -0.0020 -0.2567
   32MOL0     C 4313   2.800   1.301   2.831  0.0072 -0.7761  0.0107
   32MOL0     O 4314   2.900   1.352   2.919  0.2323 -0.4336  0.5865
   32MOL0     C 4315   2.961   1.261   3.010  0.0261 -1.1077 -0.1867
   32MOL0     C 4316   3.063   1.174   2.934  0.7818  0.3324 -0.6311
   32MOL0     C 4317   3.203   1.226   2.931 -0.3945 -0.7072  0.2088
   32MOL0     C 4318   3.216   1.369   2.876 -0.2797  0.2162 -0.2324
   32MOL0     C 4319   3.353   1.420   2.915  0.7508  0.7311 -0.1499
   32MOL0     C 4320   3.448   1.373   2.804  0.3814 -0.7955 -0.0959
   32MOL0     C 4321   3.593   1.396   2.837 -0.1982 -0.0504 -0.5773
   32MOL0     C 4322   3.638   1.544   2.835  0.2988  0.9647  1.0484
   32MOL0    Cl 4323   3.609   1.595   2.654  0.1172  0.5039 -0.5220
   32MOL0     C 4324   2.771   1.159   2.805 -0.4446  0.6476  0.3489
   32MOL0     C 4325   2.677   1.118   2.711  0.3580  0.0677  0.4596
   32MOL0     O 4326   2.651   1.058   2.432 -0.2281 -0.3884  0.0457
   32MOL0     C 4327   2.362   1.216   2.310  0.6089  0.4881  0.1585
   32MOL0     C 4328   2.288   1.226   2.198  0.5743  0.8510  0.2011
   32MOL0     N 4329   2.459   1.222   1.290 -0.3114 -0.7058 -0.1450
   32MOL0     N 4330   2.484   1.330   1.217 -0.7215  0.4247  0.2518
   32MOL0     C 4331   2.719   2.615   0.937 -0.2445 -0.1350  0.3169
   32MOL0     C 4332   2.727   2.731   1.010 -0.3976  0.3492  0.3535
   32MOL0     C 4333   2.603   3.022   1.310 -0.2275  0.9022  0.2547
   32MOL0     C 4334   2.539   3.001   1.428  0.0161  0.3719 -0.3884
   32MOL0     C 4335   2.517   3.105   1.513  0.4080  0.0696 -0.6831
   32MOL0     C 4336   2.565   3.236   1.489 -0.0037 -0.4144  0.4291
   32MOL0     O 4337   2.534   3.336   1.579 -0.2563  0.7505  0.7233
   32MOL0     C 4338   2.532   3.306   1.720 -0.2798 -0.9113  0.4873
   32MOL0     C 4339   2.464   3.421   1.802  0.9824 -0.1404 -0.0450
   32MOL0     C 4340   2.497   3.402   1.954  0.0043  0.8250 -0.8937
   32MOL0     C 4341   2.408   3.299   2.041 -0.1220 -0.6049  0.8336
   32MOL0     C 4342   2.266   3.318   2.014 -0.5476 -0.6002  0.5232
   32MOL0     C 4343   2.159   3.364   1.998 -0.0340 -1.3934 -0.3007
   32MOL0     C 4344   2.626   3.257   1.365  0.4217 -0.0820  0.3259
   32MOL0     C 4345   2.642   3.152   1.271 -0.2661  0.4927  0.1521
   32MOL0     C 4346   2.696   3.184   1.146 -0.6070  1.4624  0.0926
   32MOL0     H 4347   2.802   2.604   1.315  1.7535 -0.8735 -0.9293
   32MOL0     H 4348   2.809   2.411   1.187 -0.9170  0.3565  0.8977
   32MOL0     H 4349   2.871   2.264   1.034 -0.5063 -0.3247 -0.0490
   32MOL0     H 4350   2.808   2.188   0.879 -0.8890 -0.2992 -0.4334
   32MOL0     H 4351   2.620   2.268   1.087  1.7985  0.5528 -0.7378
   32MOL0     H 4352   2.587   2.179   0.931  3.0607  2.0727 -2.5878
   32MOL0     H 4353   2.732   1.995   1.033  0.4582 -1.0203 -0.1968
   32MOL0     H 4354   2.714   2.084   1.180  0.9883 -0.0633 -0.8427
   32MOL0     H 4355   2.465   2.061   1.183  0.0249 -1.9997  0.0275
   32MOL0     H 4356   2.465   1.983   1.030 -3.1653 -2.7839  1.9899
   32MOL0     H 4357   2.432   1.829   1.216 -1.7521  4.3439 -3.1399
   32MOL0     H 4358   2.602   1.871   1.271  2.7503  0.0034 -2.3357
   32MOL0     H 4359   2.570   1.733   0.992  1.7923  2.0033 -0.5519
   32MOL0     H 4360   2.705   1.766   1.101 -0.3364 -1.0944 -1.6209
   32MOL0     H 4361   2.691   1.592   1.221 -1.8765 -2.0187  3.1804
   32MOL0     H 4362   2.619   1.524   1.084  0.0068  1.2635 -0.7269
   32MOL0     H 4363   2.441   1.654   1.298  1.5391  3.9644 -3.1247
   32MOL0     H 4364   2.398   1.566   1.146 -0.7969 -4.4285  0.9184
   32MOL0     H 4365   2.412   1.456   1.506  0.6989  2.6792 -0.2375
   32MOL0     H 4366   2.478   1.121   1.561 -0.0997 -0.2147 -0.7232
   32MOL0     H 4367   2.317   1.097   1.484 -0.5112 -0.0413  1.0483
   32MOL0     H 4368   2.389   1.319   1.691  2.1377 -3.1274  1.7469
   32MOL0     H 4369   2.220   1.279   1.625 -0.0029  1.3286  0.5326
   32MOL0     H 4370   2.223   1.066   1.725 -2.9530  2.4936 -1.2262
   32MOL0     H 4371   2.396   1.091   1.765 -0.4011 -0.3666 -1.0301
   32MOL0     H 4372   2.320   1.294   1.921 -1.9902  0.9599  3.4692
   32MOL0     H 4373   2.171   1.280   1.864  2.6728  1.9117 -1.5193
   32MOL0     H 4374   2.345   0.930   2.063  3.2760 -3.4620  3.4485
   32MOL0     H 4375   2.501   0.811   2.177  0.9514 -0.6922  0.5248
   32MOL0     H 4376   2.530   0.841   2.360  0.7217  0.8141  0.5092
   32MOL0     H 4377   2.622   0.914   2.221 -2.7399  1.8736 -3.8392
   32MOL0     H 4378   2.563   1.426   2.629 -3.5439 -4.5047 -2.8210
   32MOL0     H 4379   2.747   1.493   2.781 -2.0099  0.9167 -2.0275
   32MOL0     H 4380   3.005   1.320   3.091 -1.1172 -0.4060 -0.0479
   32MOL0     H 4381   2.879   1.201   3.051 -2.2352  0.9150 -1.4361
   32MOL0     H 4382   3.069   1.077   2.984  0.7916  1.4910  1.7250
   32MOL0     H 4383   3.029   1.151   2.832 -2.1577 -0.2030  0.3657
   32MOL0     H 4384   3.266   1.164   2.865  2.4715 -0.0303  2.1105
   32MOL0     H 4385   3.260   1.225   3.025 -0.7147 -2.5880  0.4356
   32MOL0     H 4386   3.140   1.435   2.917  0.4635 -0.2005  1.9544
   32MOL0     H 4387   3.205   1.374   2.767 -0.2991 -0.7505 -0.2899
   32MOL0     H 4388   3.345   1.529   2.916 -0.2909  0.6691 -0.3622
   32MOL0     H 4389   3.384   1.384   3.013 -0.5279  1.9589  0.7466
   32MOL0     H 4390   3.422   1.427   2.713  0.2055 -1.0357 -0.1893
   32MOL0     H 4391   3.440   1.265   2.787 -0.3029 -0.9809  1.2688
   32MOL0     H 4392   3.643   1.344   2.754  1.4393  0.7402 -0.1270
   32MOL0     H 4393   3.617   1.352   2.934  2.7468 -1.2245 -1.7241
   32MOL0     H 4394   3.744   1.546   2.860  1.1034  0.0770 -1.9070
   32MOL0     H 4395   3.573   1.591   2.909 -2.2677  0.4677 -0.7436
   32MOL0     H 4396   2.826   1.076   2.849 -0.2438 -0.2842 -1.5467
   32MOL0     H 4397   2.644   1.017   2.688 -1.6831  1.0193 -1.1155
   32MOL0     H 4398   2.337   1.285   2.390  1.3769  2.8393 -1.5592
   32MOL0     H 4399   2.225   1.312   2.177 -0.8046 -0.1368  0.1446
   32MOL0     H 4400   2.689   2.608   0.833 -0.3253  1.3525  0.2205
   32MOL0     H 4401   2.716   2.820   0.949  0.4325 -1.0201 -1.8950
   32MOL0     H 4402   2.509   2.900   1.454  0.3045  0.6551  1.1294
   32MOL0     H 4403   2.473   3.083   1.610  0.3971 -0.3862 -0.7927
   32MOL0     H 4404   2.496   3.206   1.744 -0.0599 -1.7063 -2.1278
   32MOL0     H 4405   2.633   3.299   1.760  0.5835  0.4389 -1.3006
   32MOL0     H 4406   2.360   3.423   1.768  0.6787  0.4213  0.8675
   32MOL0     H 4407   2.493   3.518   1.762 -5.9421  0.8694 -4.2416
   32MOL0     H 4408   2.600   3.370   1.970 -0.3243 -0.1098 -0.6228
   32MOL0     H 4409   2.492   3.500   2.002  1.9999  0.3394  0.4357
   32MOL0     H 4410   2.423   3.312   2.148  3.1626 -0.1657  0.4262
   32MOL0     H 4411   2.440   3.197   2.018  3.1851  0.1711  1.5343
   32MOL0     H 4412   2.074   3.419   1.963  2.4711  3.7141  0.6110
   32MOL0     H 4413   2.647   3.363   1.353 -0.0669  0.1077  1.0832
   32MOL0     H 4414   2.772   3.110   1.119 -0.5874  1.3447  0.4623
   32MOL0     H 4415   2.616   3.189   1.072 -0.4911  0.3521 -0.1310
   32MOL0     H 4416   2.756   3.276   1.140  0.1456  0.8946 -2.2013
   33MOL0     O 4417   7.281   9.880   0.136  0.0826  0.0167 -1.0452
   33MOL0     C 4418   7.171   9.846   0.098 -0.4540  0.3306 -0.0984
   33MOL0     O 4419   7.055   9.853   0.170  0.0338  0.4540  0.4251
   33MOL0     C 4420   7.059   9.921   0.288 -0.9667  0.1921  0.0541
   33MOL0     C 4421   7.105  10.061   0.286  0.7640  0.3812 -0.0919
   33MOL0     C 4422   7.109  10.135   0.408  0.1442  0.4292  0.7620
   33MOL0     C 4423   7.087  10.075   0.532  0.1119  0.0945  0.1542
   33MOL0     O 4424   7.113  10.153   0.645 -0.2593 -0.4529 -0.6271
   33MOL0     C 4425   7.046  10.107   0.769 -0.0252  0.2715  0.2059
   33MOL0     C 4426   7.068  10.211   0.874  0.5141 -0.5967  0.5073
   33MOL0     C 4427   6.979  10.193   0.999 -0.8327 -0.5222  0.1918
   33MOL0     C 4428   6.952  10.325   1.065 -0.1001  0.2059 -0.1788
   33MOL0     C 4429   6.908  10.318   1.210  0.2416  1.2457 -0.4217
   33MOL0     C 4430   6.889  10.459   1.272  0.2627  0.1077  0.0402
   33MOL0     C 4431   6.877  10.461   1.427 -0.3144  0.5749  0.6932
   33MOL0     C 4432   6.880  10.605   1.481  1.2412  0.3474  0.3914
   33MOL0     N 4433   6.746  10.669   1.477 -0.4194 -0.7434  0.1842
   33MOL0     C 4434   6.664  10.689   1.585 -1.0568  0.0043  0.9461
   33MOL0     C 4435   6.557  10.752   1.534 -0.7426  0.2117  0.0841
   33MOL0     C 4436   6.434  10.793   1.609  0.6469  0.6534  0.6951
   33MOL0     C 4437   6.303  10.720   1.572 -0.6882  0.0816 -1.1595
   33MOL0     C 4438   6.197  10.767   1.680 -1.0950 -0.2280  0.0835
   33MOL0     C 4439   6.214  10.716   1.821 -0.1612  0.2550 -0.5171
   33MOL0     O 4440   6.098  10.749   1.900  0.4251  0.6875  0.0750
   33MOL0     C 4441   6.068  10.877   1.949 -0.2076 -0.0349  0.2842
   33MOL0     C 4442   6.153  10.983   1.943 -0.0377 -0.9235 -0.0133
   33MOL0     C 4443   6.115  11.113   1.991 -0.9854  0.3362  0.4845
   33MOL0     C 4444   6.226  11.215   1.988 -0.4246  0.7652 -0.1123
   33MOL0     C 4445   5.982  11.141   2.042 -0.1875  0.2431 -0.1649
   33MOL0     C 4446   5.946  11.263   2.124 -0.0743 -0.2874 -0.1424
   33MOL0     O 4447   6.039  11.348   2.181 -0.4758 -0.1303  0.3968
   33MOL0     C 4448   6.019  11.481   2.202  0.2270 -1.0368 -0.0904
   33MOL0     C 4449   6.117  11.535   2.284 -0.6164 -0.4992 -0.4296
   33MOL0     C 4450   6.111  11.669   2.327  0.3757 -1.4854 -0.7940
   33MOL0     C 4451   6.003  11.744   2.290  0.3266 -0.7116 -0.1963
   33MOL0     O 4452   5.974  11.872   2.346 -0.3577  0.4706  0.4242
   33MOL0     C 4453   6.064  11.921   2.445 -0.4915  0.6409  0.5274
   33MOL0     C 4454   6.019  12.060   2.497  0.9097 -0.4462  0.1232
   33MOL0     C 4455   5.879  12.065   2.561 -0.3513  0.4396  0.5143
   33MOL0     C 4456   5.876  11.978   2.681  0.7203 -0.8554  0.4305
   33MOL0     C 4457   5.737  11.966   2.738  0.1186  0.4379  0.8535
   33MOL0     C 4458   5.691  12.094   2.805 -0.3140  0.3674 -0.0845
   33MOL0     C 4459   5.551  12.077   2.867  0.1093  0.8076  0.8776
   33MOL0     C 4460   5.489  12.213   2.919  0.1256 -0.5392 -0.0602
   33MOL0    Cl 4461   5.611  12.293   3.017  0.0442 -0.1743 -0.5678
   33MOL0     C 4462   5.914  11.698   2.193  0.9810  0.1402 -0.8394
   33MOL0     C 4463   5.917  11.562   2.158  1.0076  0.1493 -0.3338
   33MOL0     O 4464   5.830  11.283   2.129 -0.3355  0.6575  0.3053
   33MOL0     C 4465   5.889  11.028   2.037  1.0550 -0.7603 -0.7711
   33MOL0     C 4466   5.930  10.905   1.989 -0.2846 -0.3566  0.4317
   33MOL0     N 4467   6.582  10.778   1.401 -1.0090  0.5217 -0.9808
   33MOL0     N 4468   6.691  10.731   1.368 -0.7124 -0.6553  0.1076
   33MOL0     C 4469   7.043   9.935   0.524  0.8660  0.0275 -0.5611
   33MOL0     C 4470   7.022   9.866   0.411 -1.0343 -0.3420 -0.0192
   33MOL0     C 4471   7.168   9.771  -0.030 -0.1178  0.1436  0.6281
   33MOL0     C 4472   7.120   9.639  -0.030  0.3273 -0.2855  0.1533
   33MOL0     C 4473   7.082   9.590  -0.150 -0.4628 -0.8195  0.5848
   33MOL0     C 4474   7.125   9.648  -0.270  0.1588 -0.2028  0.6149
   33MOL0     O 4475   7.116   9.589  -0.390 -0.4584 -0.4647 -0.5213
   33MOL0     C 4476   7.005   9.616  -0.474  0.5642  0.6633  0.5981
   33MOL0     C 4477   6.971   9.502  -0.571 -0.6532 -0.2320 -1.4800
   33MOL0     C 4478   6.919   9.379  -0.496  0.1678 -0.1397 -0.4070
   33MOL0     C 4479   6.895   9.255  -0.583  0.1500 -0.2677  0.5326
   33MOL0     C 4480   6.837   9.154  -0.493  0.5122 -0.1905  0.2109
   33MOL0     C 4481   6.774   9.068  -0.428 -0.7962 -0.1691  0.5451
   33MOL0     C 4482   7.197   9.770  -0.271 -0.8633 -0.6091  0.4218
   33MOL0     C 4483   7.218   9.831  -0.147 -0.1728 -0.9313  0.9523
   33MOL0     C 4484   7.289   9.966  -0.148  0.3868  0.3535  0.3533
   33MOL0     H 4485   7.149  10.125   0.211  2.4183  1.3011  1.5680
   33MOL0     H 4486   7.149  10.236   0.406 -2.4412  1.5370  0.2031
   33MOL0     H 4487   7.081  10.009   0.802 -0.0349 -0.3536 -1.5167
   33MOL0     H 4488   6.938  10.099   0.754 -0.0695  2.9400 -1.5822
   33MOL0     H 4489   7.177  10.213   0.882  0.4964 -0.1991  0.6797
   33MOL0     H 4490   7.039  10.306   0.828  4.0723  0.3663 -0.0407
   33MOL0     H 4491   6.880  10.157   0.970 -1.8954  0.1284  2.7250
   33MOL0     H 4492   7.029  10.123   1.067 -0.6640 -1.1666 -0.5847
   33MOL0     H 4493   7.047  10.380   1.065  0.8994 -1.3742 -2.2102
   33MOL0     H 4494   6.880  10.379   1.004  0.8889  0.9789 -0.7014
   33MOL0     H 4495   6.968  10.256   1.277 -1.7955  2.0649  2.2898
   33MOL0     H 4496   6.814  10.263   1.218  2.2350 -2.8597 -2.2119
   33MOL0     H 4497   6.980  10.510   1.239  1.4324 -3.2935 -2.6853
   33MOL0     H 4498   6.800  10.504   1.227  2.1420  2.4517 -1.5932
   33MOL0     H 4499   6.956  10.403   1.475 -0.5209  1.2920  1.9292
   33MOL0     H 4500   6.782  10.413   1.451  0.5833 -1.1728  0.8716
   33MOL0     H 4501   6.900  10.582   1.586 -0.5273 -1.7103  0.3294
   33MOL0     H 4502   6.951  10.673   1.432  0.1009  1.8284  0.7235
   33MOL0     H 4503   6.692  10.660   1.686  4.4830 -1.9300 -0.7291
   33MOL0     H 4504   6.426  10.902   1.612  1.0081  0.7293 -0.5485
   33MOL0     H 4505   6.453  10.788   1.717 -0.7477  0.4966  0.9558
   33MOL0     H 4506   6.269  10.743   1.470 -2.6503 -0.3411 -0.6427
   33MOL0     H 4507   6.330  10.614   1.569  2.3862  0.7537 -4.3081
   33MOL0     H 4508   6.214  10.875   1.686  0.6755 -0.4158 -1.0540
   33MOL0     H 4509   6.096  10.740   1.646  0.0146  0.4726 -4.3499
   33MOL0     H 4510   6.238  10.610   1.827 -0.9015  0.1350  0.7150
   33MOL0     H 4511   6.293  10.771   1.873 -2.5075  2.7244  0.7447
   33MOL0     H 4512   6.256  10.969   1.914  0.8064  1.8082  1.3599
   33MOL0     H 4513   6.299  11.214   1.907  0.6077 -0.7333  0.8063
   33MOL0     H 4514   6.271  11.229   2.087 -0.1810  1.4926 -0.3199
   33MOL0     H 4515   6.182  11.316   1.984 -2.2600 -0.0371 -1.5929
   33MOL0     H 4516   6.192  11.471   2.329 -2.8101 -2.4211  0.7158
   33MOL0     H 4517   6.190  11.713   2.387 -1.1196 -1.6354  1.3888
   33MOL0     H 4518   6.069  11.840   2.518 -0.2908 -1.2047 -1.3983
   33MOL0     H 4519   6.165  11.925   2.402 -1.4372 -2.1928 -2.4367
   33MOL0     H 4520   6.093  12.096   2.569  0.0065  1.9746 -0.0839
   33MOL0     H 4521   6.015  12.132   2.416 -1.3317 -1.6117 -0.8929
   33MOL0     H 4522   5.799  12.041   2.490  2.1105 -0.5976 -2.1017
   33MOL0     H 4523   5.863  12.169   2.593  2.2160  1.9493 -2.4731
   33MOL0     H 4524   5.948  12.010   2.757  0.5847  1.8741 -0.4922
   33MOL0     H 4525   5.922  11.881   2.660  3.5735  0.5934 -0.4782
   33MOL0     H 4526   5.671  11.941   2.655 -0.9035  1.3289  1.3640
   33MOL0     H 4527   5.734  11.877   2.801  2.5511  1.2609  2.2947
   33MOL0     H 4528   5.689  12.173   2.729  1.0725  0.5713  0.0689
   33MOL0     H 4529   5.770  12.122   2.875  1.6838 -2.3356 -1.0965
   33MOL0     H 4530   5.565  12.010   2.953 -0.3356  1.7626  1.7277
   33MOL0     H 4531   5.484  12.031   2.794  0.1714  0.8206  0.8128
   33MOL0     H 4532   5.401  12.182   2.977  0.4516  1.1303  1.4066
   33MOL0     H 4533   5.459  12.279   2.836  0.0192  0.8244  1.0391
   33MOL0     H 4534   5.828  11.754   2.157  0.6350  0.4800  0.4756
   33MOL0     H 4535   5.843  11.523   2.088 -0.5262  3.1679 -0.5810
   33MOL0     H 4536   5.785  11.034   2.066  1.5136 -2.2112  1.4247
   33MOL0     H 4537   5.864  10.819   1.986  2.1480 -2.3604  0.7601
   33MOL0     H 4538   7.020   9.887   0.619 -0.6765  0.1727 -0.8399
   33MOL0     H 4539   6.984   9.766   0.424  0.0752 -0.4252  4.2772
   33MOL0     H 4540   7.076   9.583   0.052 -2.1446 -0.0862 -0.9339
   33MOL0     H 4541   7.034   9.493  -0.147  1.6863 -1.9210  2.4427
   33MOL0     H 4542   6.920   9.653  -0.417 -1.7715 -1.7098 -1.1032
   33MOL0     H 4543   7.019   9.701  -0.541 -1.6016 -0.1960 -1.1026
   33MOL0     H 4544   7.060   9.477  -0.630  0.5447 -1.7558  0.8081
   33MOL0     H 4545   6.898   9.540  -0.643  1.0908 -0.8772 -3.6766
   33MOL0     H 4546   6.980   9.345  -0.412 -3.8670 -2.5372  1.8955
   33MOL0     H 4547   6.821   9.404  -0.453 -0.2354 -2.4748  0.2207
   33MOL0     H 4548   6.983   9.214  -0.632 -0.4555  0.2746 -1.0756
   33MOL0     H 4549   6.823   9.278  -0.662 -0.6869 -0.1211  1.3121
   33MOL0     H 4550   6.721   8.986  -0.384 -0.0498 -1.9765 -1.6777
   33MOL0     H 4551   7.236   9.813  -0.363 -0.2120  0.6394  1.2429
   33MOL0     H 4552   7.241  10.036  -0.080 -2.2355  0.7142 -1.7056
   33MOL0     H 4553   7.392   9.962  -0.111  0.8400  1.0596 -0.7772
   33MOL0     H 4554   7.292  10.015  -0.246  4.4504 -1.7679 -0.7981
   34MOL0     O 4555   6.306  10.956   5.328  0.2720 -0.1806 -0.8955
   34MOL0     C 4556   6.232  10.906   5.243  0.8129 -0.5548 -0.2743
   34MOL0     O 4557   6.211  10.773   5.231 -0.1869  0.3039  0.8806
   34MOL0     C 4558   6.254  10.709   5.338  0.0753 -0.7471 -0.2607
   34MOL0     C 4559   6.154  10.694   5.444 -0.1260  0.2923  0.2556
   34MOL0     C 4560   6.197  10.625   5.562 -1.2079  1.3385 -0.1294
   34MOL0     C 4561   6.311  10.552   5.563 -0.9370  0.4747 -0.2751
   34MOL0     O 4562   6.348  10.464   5.661  0.7965  0.1952  0.3338
   34MOL0     C 4563   6.332  10.518   5.791 -0.4830 -1.0311 -0.5896
   34MOL0     C 4564   6.394  10.415   5.885  0.9117  0.1828 -0.4624
   34MOL0     C 4565   6.427  10.467   6.025 -0.1316 -1.0456 -0.2310
   34MOL0     C 4566   6.442  10.339   6.113 -0.3721 -0.7786 -0.8728
   34MOL0     C 4567   6.529  10.384   6.240 -0.6368 -0.5942  0.7025
   34MOL0     C 4568   6.580  10.264   6.311  0.8034  0.4767 -0.7817
   34MOL0     C 4569   6.666  10.299   6.432 -0.3828  0.9018  0.2537
   34MOL0     C 4570   6.599  10.377   6.543 -0.9783 -0.0196  1.1797
   34MOL0     N 4571   6.467  10.332   6.571  0.1802 -0.1806 -0.7314
   34MOL0     C 4572   6.445  10.212   6.625  1.1035 -0.0376  0.5224
   34MOL0     C 4573   6.316  10.210   6.631  0.1087  0.0150  0.2313
   34MOL0     C 4574   6.243  10.093   6.700 -1.0564 -0.2457  0.8087
   34MOL0     C 4575   6.105  10.065   6.638  0.5994  0.3842 -0.1495
   34MOL0     C 4576   6.016   9.959   6.713 -0.2980 -0.1115  0.0139
   34MOL0     C 4577   6.067   9.815   6.709 -0.9990  0.0996  1.0902
   34MOL0     O 4578   6.064   9.764   6.574 -0.0704 -0.7946 -0.6295
   34MOL0     C 4579   5.934   9.729   6.538 -0.3949  0.8997 -0.7442
   34MOL0     C 4580   5.931   9.684   6.409  0.5353  0.4083 -0.2899
   34MOL0     C 4581   5.826   9.627   6.347  0.2238 -0.8262  0.5443
   34MOL0     C 4582   5.849   9.597   6.201  0.3727 -0.0723 -1.1642
   34MOL0     C 4583   5.702   9.604   6.420  0.4150 -0.9608 -0.7158
   34MOL0     C 4584   5.573   9.546   6.375 -0.4757 -0.9221 -0.2017
   34MOL0     O 4585   5.511   9.583   6.262 -0.7291 -0.0915 -0.3559
   34MOL0     C 4586   5.403   9.507   6.223  0.1044 -0.5263 -0.0633
   34MOL0     C 4587   5.281   9.524   6.298 -0.0876  0.6003 -0.3399
   34MOL0     C 4588   5.166   9.482   6.243  0.4240 -0.0852  0.5772
   34MOL0     C 4589   5.157   9.411   6.124 -0.6733  0.1522  0.2219
   34MOL0     O 4590   5.044   9.368   6.047  0.4427  0.2403 -0.3953
   34MOL0     C 4591   4.906   9.361   6.107 -0.2504 -0.1786  0.5255
   34MOL0     C 4592   4.811   9.299   6.004 -0.3372 -0.3360  1.2541
   34MOL0     C 4593   4.844   9.154   5.964  0.1113  0.1109 -0.1097
   34MOL0     C 4594   4.792   9.129   5.822  1.2623 -0.6207  0.0741
   34MOL0     C 4595   4.884   9.054   5.725  0.1691 -0.0030 -0.0607
   34MOL0     C 4596   4.834   8.990   5.600 -0.7821  1.0879  0.2754
   34MOL0     C 4597   4.730   9.062   5.510  0.2312  0.3550  0.5944
   34MOL0     C 4598   4.786   9.192   5.452  0.3782 -1.0349  0.5481
   34MOL0    Cl 4599   4.688   9.280   5.336 -0.7220 -0.8387  0.2644
   34MOL0     C 4600   5.274   9.384   6.047  0.2833 -0.0264  0.5557
   34MOL0     C 4601   5.398   9.442   6.100  0.0165 -1.5212 -0.0106
   34MOL0     O 4602   5.538   9.454   6.444 -0.1404  1.0720 -0.4162
   34MOL0     C 4603   5.700   9.658   6.553  0.1190  0.1441  0.4600
   34MOL0     C 4604   5.817   9.708   6.607 -0.2424 -0.4117 -0.3824
   34MOL0     N 4605   6.265  10.334   6.611 -0.7370  0.2351 -0.4883
   34MOL0     N 4606   6.355  10.418   6.577  1.2001  0.6723  0.3018
   34MOL0     C 4607   6.399  10.553   5.455  0.5030 -0.2678  0.3246
   34MOL0     C 4608   6.368  10.633   5.344 -0.5343  0.0989 -0.4806
   34MOL0     C 4609   6.191  10.989   5.138  0.4477 -1.0935 -0.1974
   34MOL0     C 4610   6.135  10.940   5.024  0.1089 -0.1087  0.2558
   34MOL0     C 4611   6.069  11.013   4.927  0.0707 -0.3031 -0.4832
   34MOL0     C 4612   6.092  11.149   4.928 -0.4424  0.2849 -0.2800
   34MOL0     O 4613   6.035  11.233   4.830  0.0608  0.3714 -0.3687
   34MOL0     C 4614   5.953  11.192   4.718  0.4511 -0.2900 -0.6291
   34MOL0     C 4615   5.812  11.247   4.726 -0.4207  0.5464 -0.0436
   34MOL0     C 4616   5.715  11.174   4.814  0.1879  0.0101 -0.0807
   34MOL0     C 4617   5.676  11.218   4.960  0.1490  0.7311 -0.2179
   34MOL0     C 4618   5.556  11.148   5.017 -0.3365  0.2829  0.7906
   34MOL0     C 4619   5.456  11.098   5.074 -0.8073 -0.5708 -0.5002
   34MOL0     C 4620   6.168  11.207   5.033 -0.0684  1.0443  0.4156
   34MOL0     C 4621   6.216  11.130   5.139 -0.0627  0.5496 -0.0948
   34MOL0     C 4622   6.307  11.215   5.236 -0.4301  0.7743  0.0380
   34MOL0     H 4623   6.061  10.748   5.429 -0.6013 -0.6002 -0.0736
   34MOL0     H 4624   6.135  10.598   5.647  0.8761  0.1617  1.1038
   34MOL0     H 4625   6.226  10.518   5.820 -1.5250 -3.4617 -3.8624
   34MOL0     H 4626   6.382  10.615   5.802  1.3488 -2.0099  0.0491
   34MOL0     H 4627   6.328  10.328   5.892  2.1728 -0.9303 -1.8113
   34MOL0     H 4628   6.482  10.377   5.831  0.8444 -0.0601 -0.4011
   34MOL0     H 4629   6.518  10.526   6.028  2.6145 -4.8956  0.2339
   34MOL0     H 4630   6.342  10.524   6.064 -0.3531 -2.1233  0.9336
   34MOL0     H 4631   6.344  10.302   6.143  0.4917 -0.3295  3.1420
   34MOL0     H 4632   6.510  10.264   6.073  2.0343 -0.8580  2.8161
   34MOL0     H 4633   6.473  10.444   6.313  2.6043 -1.4243  4.1829
   34MOL0     H 4634   6.613  10.448   6.212 -0.2341  0.4548  3.8707
   34MOL0     H 4635   6.488  10.209   6.332 -0.6072  2.4145 -1.5493
   34MOL0     H 4636   6.640  10.209   6.238  0.4731 -0.1591 -0.5745
   34MOL0     H 4637   6.766  10.331   6.404  0.0896 -1.9132 -1.7159
   34MOL0     H 4638   6.683  10.207   6.488 -1.1764 -0.1336 -1.1356
   34MOL0     H 4639   6.657  10.376   6.635 -0.1276  0.5069  0.6616
   34MOL0     H 4640   6.590  10.480   6.507 -0.7620 -0.3878  0.0145
   34MOL0     H 4641   6.520  10.141   6.659  1.6789  0.8826  1.2050
   34MOL0     H 4642   6.240  10.112   6.808  2.7028  0.2014  0.9634
   34MOL0     H 4643   6.301  10.002   6.685 -0.1512  0.8237 -3.7838
   34MOL0     H 4644   6.040  10.153   6.647 -0.4732  0.1682 -4.1620
   34MOL0     H 4645   6.112  10.033   6.534  0.9212  0.0217 -0.0152
   34MOL0     H 4646   6.019   9.985   6.819  2.5957  2.2143 -0.5194
   34MOL0     H 4647   5.921   9.956   6.658  0.3073 -0.1038 -1.0572
   34MOL0     H 4648   6.170   9.825   6.744 -1.1590  2.9059  0.9549
   34MOL0     H 4649   6.017   9.751   6.783  0.9888 -0.3170  2.1551
   34MOL0     H 4650   6.021   9.704   6.351 -0.3380 -0.3088 -1.9378
   34MOL0     H 4651   5.954   9.611   6.175  0.6229  2.3873  0.8199
   34MOL0     H 4652   5.782   9.662   6.143 -0.7425  0.3516  0.5325
   34MOL0     H 4653   5.813   9.499   6.169 -1.1126 -0.1424  0.5380
   34MOL0     H 4654   5.287   9.573   6.394  2.2302 -1.8748  0.9050
   34MOL0     H 4655   5.071   9.524   6.273  0.0074  2.0613 -3.1459
   34MOL0     H 4656   4.897   9.301   6.198 -0.9128  1.9954  1.9872
   34MOL0     H 4657   4.872   9.465   6.117 -0.1254  0.1977 -2.1630
   34MOL0     H 4658   4.707   9.298   6.038  0.0021 -2.1068  2.4100
   34MOL0     H 4659   4.809   9.368   5.919  1.3122  1.6564  2.7342
   34MOL0     H 4660   4.814   9.078   6.037  2.7542  0.3467  1.3601
   34MOL0     H 4661   4.949   9.140   5.939 -0.0609  2.0197 -2.1454
   34MOL0     H 4662   4.754   9.218   5.770 -0.0996  2.0099  4.9129
   34MOL0     H 4663   4.710   9.057   5.830 -1.3148  1.9436 -1.4619
   34MOL0     H 4664   4.973   9.114   5.706  1.2901 -1.3768  0.7125
   34MOL0     H 4665   4.928   8.971   5.780  2.1522  1.8998  1.3884
   34MOL0     H 4666   4.789   8.894   5.628 -1.6670  0.9651 -1.4134
   34MOL0     H 4667   4.910   8.965   5.526 -1.4115 -2.6625  0.7128
   34MOL0     H 4668   4.635   9.088   5.559 -0.1365 -0.8073  0.5300
   34MOL0     H 4669   4.703   9.002   5.423 -1.2067  3.8769 -1.6513
   34MOL0     H 4670   4.868   9.154   5.390  1.1081  1.4029 -0.1072
   34MOL0     H 4671   4.825   9.250   5.536  1.0710 -1.1877  0.3462
   34MOL0     H 4672   5.278   9.336   5.950 -0.4420  1.1113 -0.0540
   34MOL0     H 4673   5.492   9.446   6.046 -0.4680  0.7888 -0.7929
   34MOL0     H 4674   5.614   9.676   6.617 -1.8246 -3.0791 -0.9838
   34MOL0     H 4675   5.809   9.744   6.709  3.3073  1.5655 -0.6472
   34MOL0     H 4676   6.485  10.487   5.445  0.2073 -0.2534 -4.9812
   34MOL0     H 4677   6.440  10.634   5.264  1.6453 -3.9047  1.1253
   34MOL0     H 4678   6.134  10.833   5.003  0.3566 -0.5722  2.3956
   34MOL0     H 4679   6.025  10.951   4.849  0.4074 -1.7329  0.4396
   34MOL0     H 4680   6.011  11.202   4.626  1.5302 -3.3364 -0.4018
   34MOL0     H 4681   5.949  11.083   4.716 -0.8185 -0.2664 -3.7513
   34MOL0     H 4682   5.784  11.237   4.621  0.8540 -0.0087 -0.3543
   34MOL0     H 4683   5.809  11.353   4.755  2.3893  1.2001 -1.6895
   34MOL0     H 4684   5.623  11.164   4.756  0.2630  0.1755 -0.2294
   34MOL0     H 4685   5.757  11.073   4.822 -3.1679 -1.7607 -2.1936
   34MOL0     H 4686   5.664  11.327   4.965 -2.2884  0.4770  3.7343
   34MOL0     H 4687   5.749  11.183   5.033 -2.6236  2.1522  3.6167
   34MOL0     H 4688   5.371  11.062   5.128  0.6791 -1.3279  1.4516
   34MOL0     H 4689   6.172  11.315   5.028  0.7563  0.9999 -0.2172
   34MOL0     H 4690   6.316  11.186   5.341  1.7811 -3.8944 -1.1606
   34MOL0     H 4691   6.413  11.211   5.211  0.4359 -1.3124  3.4055
   34MOL0     H 4692   6.278  11.320   5.234 -3.2493  0.1261  1.2280
   35MOL0     O 4693   8.243   9.828  10.614  0.3665 -0.3234  0.3824
   35MOL0     C 4694   8.194   9.826  10.727  0.5368 -0.6247 -0.5436
   35MOL0     O 4695   8.158   9.934  10.797 -0.6355 -0.0882 -0.0964
   35MOL0     C 4696   8.134  10.049  10.731 -0.0479  0.1986  0.3800
   35MOL0     C 4697   8.014  10.113  10.749 -0.3460 -0.3002  0.2718
   35MOL0     C 4698   7.994  10.221  10.675  0.6950 -0.1344 -0.2894
   35MOL0     C 4699   8.075  10.264  10.570  0.4671  0.5263 -0.0284
   35MOL0     O 4700   8.023  10.370  10.500  0.5157  0.0429 -0.5299
   35MOL0     C 4701   8.109  10.467  10.448  0.1883  0.1376 -0.1619
   35MOL0     C 4702   8.159  10.574  10.551  0.2872 -0.2744  0.3032
   35MOL0     C 4703   8.184  10.717  10.485 -0.6328  0.5259 -0.5923
   35MOL0     C 4704   8.053  10.783  10.453 -0.2597 -0.8580  0.4453
   35MOL0     C 4705   8.068  10.929  10.446 -0.4310  0.1164 -0.1731
   35MOL0     C 4706   7.948  10.994  10.388  0.1404  0.5970 -0.2904
   35MOL0     C 4707   7.975  11.137  10.331 -0.9589 -0.3674 -1.2301
   35MOL0     C 4708   7.974  11.138  10.177  0.1135  0.0075  0.2403
   35MOL0     N 4709   8.080  11.035  10.132 -0.4460  0.0674 -0.9670
   35MOL0     C 4710   8.215  11.047  10.121  0.0228  1.1065  1.1172
   35MOL0     C 4711   8.249  10.945  10.039  1.0377 -0.4372  0.2030
   35MOL0     C 4712   8.394  10.925  10.004  0.0362 -0.3426 -0.3026
   35MOL0     C 4713   8.431  10.993   9.883  0.4620 -0.0194 -0.4599
   35MOL0     C 4714   8.365  10.956   9.749  0.1090  0.7351  0.1453
   35MOL0     C 4715   8.398  10.808   9.706 -0.1100  0.0631  0.1212
   35MOL0     O 4716   8.487  10.822   9.594  0.5791 -0.0973  0.3919
   35MOL0     C 4717   8.610  10.888   9.604 -0.3477  0.1247  0.9246
   35MOL0     C 4718   8.720  10.832   9.668  0.7127  0.5696  0.0520
   35MOL0     C 4719   8.844  10.905   9.676 -0.3904 -0.1130 -0.4535
   35MOL0     C 4720   8.948  10.843   9.768  0.2072  0.4164 -0.1203
   35MOL0     C 4721   8.854  11.034   9.607  1.5932 -0.1717  0.2459
   35MOL0     C 4722   8.979  11.121   9.600  1.2171  0.0138 -0.5583
   35MOL0     O 4723   9.008  11.175   9.472  0.3604  0.0396  0.3038
   35MOL0     C 4724   9.128  11.215   9.431  0.4561 -0.9378  0.3251
   35MOL0     C 4725   9.141  11.346   9.378  0.8530  0.0811 -0.3834
   35MOL0     C 4726   9.264  11.398   9.346  0.1980  0.2221 -0.1417
   35MOL0     C 4727   9.377  11.318   9.356 -0.0286  0.3388  0.9561
   35MOL0     O 4728   9.500  11.369   9.328 -0.0834 -0.1187 -0.3203
   35MOL0     C 4729   9.580  11.284   9.248  0.0642  1.0257  0.5640
   35MOL0     C 4730   9.531  11.241   9.115  0.1591 -0.4266 -0.5031
   35MOL0     C 4731   9.648  11.188   9.017 -0.4584  0.2362 -0.1962
   35MOL0     C 4732   9.614  11.058   8.934  1.1780 -0.6424 -0.4493
   35MOL0     C 4733   9.740  11.011   8.853 -0.8014  1.1160 -0.0264
   35MOL0     C 4734   9.718  10.880   8.797 -0.4125  0.8073  0.7179
   35MOL0     C 4735   9.843  10.830   8.707  0.5608  0.0056 -0.0626
   35MOL0     C 4736   9.783  10.736   8.595  0.1374 -0.1639 -0.3230
   35MOL0    Cl 4737   9.887  10.576   8.573  0.1590 -0.3560  0.3151
   35MOL0     C 4738   9.367  11.190   9.406  0.5870 -0.2467 -0.1987
   35MOL0     C 4739   9.245  11.146   9.441  0.8779  0.5285 -1.0528
   35MOL0     O 4740   9.056  11.109   9.691 -0.2979  0.1055 -0.1011
   35MOL0     C 4741   8.741  11.088   9.532 -0.1740  0.3291  0.9047
   35MOL0     C 4742   8.630  11.009   9.528 -0.8500 -0.6465  0.8639
   35MOL0     N 4743   8.140  10.875  10.004  0.4572 -0.3018 -0.3165
   35MOL0     N 4744   8.035  10.932  10.052  0.1902 -0.2064  0.3166
   35MOL0     C 4745   8.206  10.213  10.568 -0.5119 -0.7152 -0.3917
   35MOL0     C 4746   8.237  10.108  10.649 -0.6465 -0.4519 -0.3626
   35MOL0     C 4747   8.172   9.700  10.799  0.6681  0.9331 -0.0086
   35MOL0     C 4748   8.100   9.706  10.924  1.1216 -0.3557  0.0443
   35MOL0     C 4749   8.083   9.587  11.003  0.0477  1.1564  0.4093
   35MOL0     C 4750   8.116   9.460  10.945 -0.3595 -0.5514 -0.8190
   35MOL0     O 4751   8.084   9.338  11.005 -0.4092  0.8176  0.5175
   35MOL0     C 4752   8.017   9.338  11.130  0.1674 -0.7837  0.2827
   35MOL0     C 4753   8.023   9.201  11.199  0.7314  0.6737  0.0525
   35MOL0     C 4754   7.962   9.090  11.121  0.4269  0.7633 -1.1757
   35MOL0     C 4755   7.979   8.944  11.165 -0.0302 -0.0621  0.5644
   35MOL0     C 4756   7.985   8.926  11.308 -0.5763  0.4503  0.1039
   35MOL0     C 4757   7.990   8.919  11.431  0.2653  0.3589  0.7988
   35MOL0     C 4758   8.168   9.455  10.814 -0.5915  0.8017 -0.7053
   35MOL0     C 4759   8.209   9.567  10.740 -0.0670  0.0634  0.4684
   35MOL0     C 4760   8.290   9.539  10.614  0.5431  0.2327 -0.3986
   35MOL0     H 4761   7.947  10.088  10.831  0.2960  1.3224  1.3384
   35MOL0     H 4762   7.903  10.269  10.708  0.9251  0.9762 -1.2100
   35MOL0     H 4763   8.038  10.517  10.381  1.1308  1.6397 -0.0879
   35MOL0     H 4764   8.190  10.425  10.389  1.3999  0.3937  1.2578
   35MOL0     H 4765   8.094  10.581  10.639 -0.6798 -1.0863 -0.3201
   35MOL0     H 4766   8.257  10.543  10.588  0.1674 -0.6525  0.3120
   35MOL0     H 4767   8.231  10.785  10.557 -1.3679  1.0833 -0.6213
   35MOL0     H 4768   8.253  10.715  10.400 -3.0902  1.0969 -2.7673
   35MOL0     H 4769   8.015  10.735  10.362 -3.8005  2.4559 -0.1184
   35MOL0     H 4770   7.982  10.763  10.533 -1.5791  1.5518 -0.0231
   35MOL0     H 4771   8.152  10.951  10.379  0.6329  0.7006  1.2972
   35MOL0     H 4772   8.092  10.979  10.540  1.8568 -1.9147  0.4200
   35MOL0     H 4773   7.893  10.928  10.321 -0.1693 -0.6126  1.1233
   35MOL0     H 4774   7.875  10.998  10.469 -2.1413  0.5447 -2.2278
   35MOL0     H 4775   8.077  11.162  10.361 -1.8409  0.4633  1.4480
   35MOL0     H 4776   7.909  11.208  10.382 -1.1212 -1.9210  0.8477
   35MOL0     H 4777   7.869  11.117  10.151 -0.0796  0.6972  0.4369
   35MOL0     H 4778   7.994  11.235  10.131 -3.0526  0.1921 -1.0235
   35MOL0     H 4779   8.293  11.119  10.147  0.4783  2.2705 -2.8230
   35MOL0     H 4780   8.416  10.819   9.994 -0.4967 -0.5608  0.7151
   35MOL0     H 4781   8.435  10.973  10.093  0.5074 -3.0178  0.9967
   35MOL0     H 4782   8.410  11.098   9.905 -0.6126 -0.1747 -0.6769
   35MOL0     H 4783   8.539  10.988   9.864  0.0854 -3.6384 -2.5671
   35MOL0     H 4784   8.255  10.959   9.754  0.1361  0.2055  1.5043
   35MOL0     H 4785   8.368  11.026   9.665 -2.5054  0.1041 -0.5645
   35MOL0     H 4786   8.446  10.751   9.786  1.3998 -0.0457 -0.8211
   35MOL0     H 4787   8.303  10.773   9.665  0.3530 -0.4090 -0.5766
   35MOL0     H 4788   8.708  10.736   9.717  3.2593  1.1461  2.0126
   35MOL0     H 4789   8.954  10.733   9.766  1.7629  0.3883  2.0822
   35MOL0     H 4790   8.934  10.863   9.874  1.0167 -0.2850  0.1346
   35MOL0     H 4791   9.050  10.872   9.739  0.4290 -1.2901 -1.2262
   35MOL0     H 4792   9.052  11.391   9.336  0.0773  0.2512  1.3305
   35MOL0     H 4793   9.276  11.503   9.322 -0.4243  0.2620 -0.3041
   35MOL0     H 4794   9.669  11.337   9.213  0.9390 -1.5762 -1.5354
   35MOL0     H 4795   9.606  11.194   9.305 -1.8787 -0.5333 -0.8700
   35MOL0     H 4796   9.449  11.169   9.125  2.2370 -3.0274 -0.8942
   35MOL0     H 4797   9.495  11.333   9.068  1.9930  1.0544  0.8277
   35MOL0     H 4798   9.724  11.151   9.087  1.2258  2.9171 -0.4616
   35MOL0     H 4799   9.690  11.268   8.956  1.6619  1.7479  2.9724
   35MOL0     H 4800   9.533  11.082   8.864  1.0894  0.3457 -0.0339
   35MOL0     H 4801   9.576  10.982   9.003 -0.7731  2.1274  1.7793
   35MOL0     H 4802   9.756  11.080   8.770  1.5866 -2.9056 -3.3213
   35MOL0     H 4803   9.830  11.001   8.914  0.6263 -0.1913 -2.2309
   35MOL0     H 4804   9.627  10.879   8.736  1.5512  0.8664 -2.4632
   35MOL0     H 4805   9.704  10.806   8.876  1.1010  0.5554  0.7742
   35MOL0     H 4806   9.927  10.782   8.758 -0.4256 -0.9299  0.7537
   35MOL0     H 4807   9.884  10.920   8.661  1.1002  1.9165  3.8078
   35MOL0     H 4808   9.783  10.787   8.498  1.8508 -0.8505 -0.7140
   35MOL0     H 4809   9.678  10.710   8.616  0.1039  0.9028  0.9459
   35MOL0     H 4810   9.459  11.133   9.410  1.5903  1.3432  0.2350
   35MOL0     H 4811   9.232  11.041   9.468 -3.6540  1.0165 -0.5507
   35MOL0     H 4812   8.754  11.170   9.461 -1.7044 -2.5272 -3.0135
   35MOL0     H 4813   8.546  11.047   9.470 -0.6022  0.0808  0.9814
   35MOL0     H 4814   8.276  10.265  10.504 -1.1590  0.7448  0.0493
   35MOL0     H 4815   8.338  10.068  10.642  0.2592  1.6576 -0.0695
   35MOL0     H 4816   8.057   9.796  10.966 -0.5296 -2.3966  3.1958
   35MOL0     H 4817   8.045   9.590  11.104  3.7993 -0.2158  2.0674
   35MOL0     H 4818   8.069   9.406  11.198  0.9274  0.6401 -1.6390
   35MOL0     H 4819   7.911   9.363  11.119  0.5316  0.3339 -0.9561
   35MOL0     H 4820   7.976   9.213  11.297  1.6106  0.3213  0.5304
   35MOL0     H 4821   8.127   9.180  11.225 -0.2676 -1.0502  2.9967
   35MOL0     H 4822   7.855   9.104  11.142  0.6017  2.1353 -1.1615
   35MOL0     H 4823   7.967   9.103  11.012 -0.9338  0.3352 -1.3133
   35MOL0     H 4824   8.081   8.919  11.133 -0.0412 -0.5695  0.9047
   35MOL0     H 4825   7.914   8.874  11.112  1.3391  0.0297 -1.3744
   35MOL0     H 4826   7.996   8.911  11.538 -1.7849 -1.1823  0.8750
   35MOL0     H 4827   8.181   9.356  10.770  0.7779 -0.5595  2.4644
   35MOL0     H 4828   8.231   9.554  10.523  1.9679  2.9959 -0.9816
   35MOL0     H 4829   8.378   9.601  10.594 -0.3685  1.1410 -1.8141
   35MOL0     H 4830   8.335   9.440  10.621 -0.1996 -0.0334  0.9046
   36MOL0     O 4831  11.310   4.798   3.027 -0.7154 -0.9999  0.9723
   36MOL0     C 4832  11.394   4.707   3.034 -1.0898 -0.6160 -0.7907
   36MOL0     O 4833  11.522   4.730   3.080 -0.4166  1.3373 -0.4705
   36MOL0     C 4834  11.559   4.843   3.145 -0.3842 -0.1996  0.6802
   36MOL0     C 4835  11.678   4.898   3.095 -0.0890  0.5539 -0.5123
   36MOL0     C 4836  11.710   5.019   3.136 -0.2856 -1.1779 -0.1280
   36MOL0     C 4837  11.636   5.090   3.237 -0.2581 -0.6941  0.8563
   36MOL0     O 4838  11.695   5.205   3.289 -0.2508 -0.1874  0.4526
   36MOL0     C 4839  11.693   5.246   3.427  0.1513 -0.1042  1.7502
   36MOL0     C 4840  11.824   5.273   3.491 -0.2964  1.1522 -0.9934
   36MOL0     C 4841  11.885   5.409   3.446  1.1392  0.5592  0.4355
   36MOL0     C 4842  12.024   5.420   3.491 -0.8341 -0.1674 -0.2416
   36MOL0     C 4843  12.033   5.500   3.617  0.0385 -0.1913 -0.4019
   36MOL0     C 4844  12.163   5.483   3.691  0.4336  0.1577  0.1204
   36MOL0     C 4845  12.280   5.544   3.616 -0.0615 -0.5164 -0.4085
   36MOL0     C 4846  12.411   5.487   3.665  0.3943  0.4774  0.8856
   36MOL0     N 4847  12.449   5.519   3.810 -0.5135  0.3506  1.5066
   36MOL0     C 4848  12.512   5.627   3.854 -1.0721 -0.8952 -0.2498
   36MOL0     C 4849  12.535   5.595   3.988 -0.0263  0.3515 -0.4518
   36MOL0     C 4850  12.640   5.677   4.058 -0.4219  0.3454 -0.8239
   36MOL0     C 4851  12.591   5.827   4.074 -0.3210 -0.0828  0.2113
   36MOL0     C 4852  12.645   5.921   4.176 -0.6716  0.3972  0.3269
   36MOL0     C 4853  12.635   6.062   4.122 -0.2894 -0.4883 -0.6030
   36MOL0     O 4854  12.662   6.143   4.236  0.7814  0.7524 -0.8442
   36MOL0     C 4855  12.780   6.185   4.273 -0.0141 -0.1181 -0.4612
   36MOL0     C 4856  12.763   6.299   4.353 -0.1110 -0.9110 -0.5986
   36MOL0     C 4857  12.869   6.377   4.385  0.9421  0.8054  0.1660
   36MOL0     C 4858  12.837   6.502   4.468  0.7591 -0.3926 -0.2445
   36MOL0     C 4859  12.999   6.332   4.347  0.9414 -0.1210  1.2314
   36MOL0     C 4860  13.118   6.408   4.368 -0.9511  0.3025  0.6518
   36MOL0     O 4861  13.119   6.506   4.464  0.4019 -0.6858  0.8548
   36MOL0     C 4862  13.242   6.545   4.511  0.0714 -0.3890  0.5781
   36MOL0     C 4863  13.265   6.533   4.653  0.5137 -0.4224  0.1651
   36MOL0     C 4864  13.396   6.564   4.707  0.1146  0.4249 -0.2414
   36MOL0     C 4865  13.501   6.594   4.619 -0.0898  0.0091 -0.3023
   36MOL0     O 4866  13.623   6.616   4.685 -0.3719 -0.6914 -0.3892
   36MOL0     C 4867  13.736   6.643   4.607  0.6113 -1.0638  0.4686
   36MOL0     C 4868  13.862   6.696   4.692 -0.1019 -0.2310  0.2245
   36MOL0     C 4869  13.978   6.708   4.584  0.8597  0.2565 -0.2288
   36MOL0     C 4870  14.089   6.777   4.663  0.0556  0.6383 -0.0570
   36MOL0     C 4871  14.222   6.726   4.620 -0.5693 -0.3232  1.1556
   36MOL0     C 4872  14.247   6.788   4.474  0.6487  0.3732 -0.4820
   36MOL0     C 4873  14.399   6.818   4.455  0.0532  0.5541  0.3484
   36MOL0     C 4874  14.476   6.689   4.447 -0.0519 -0.4510 -0.4385
   36MOL0    Cl 4875  14.417   6.571   4.330 -0.0328 -0.0421  0.3125
   36MOL0     C 4876  13.479   6.621   4.481  0.1830  0.6355 -0.5156
   36MOL0     C 4877  13.346   6.595   4.425  0.1063 -0.1306  0.0488
   36MOL0     O 4878  13.218   6.377   4.298 -0.5257  0.4169 -0.4495
   36MOL0     C 4879  13.009   6.225   4.254  0.3051  0.4721 -0.0252
   36MOL0     C 4880  12.904   6.146   4.226 -0.0450  0.2192 -0.5401
   36MOL0     N 4881  12.497   5.462   4.014 -0.5392 -0.1598  0.6676
   36MOL0     N 4882  12.438   5.425   3.911  0.2053  0.2437 -0.7596
   36MOL0     C 4883  11.517   5.033   3.283 -0.7912  0.5193 -0.8443
   36MOL0     C 4884  11.479   4.911   3.234  0.0227  0.5099 -0.0705
   36MOL0     C 4885  11.352   4.572   2.980 -1.2688  0.0202 -0.1127
   36MOL0     C 4886  11.222   4.568   2.928 -0.7769  0.3078  0.8706
   36MOL0     C 4887  11.173   4.455   2.876  0.7692  0.2085 -0.8934
   36MOL0     C 4888  11.242   4.330   2.873 -0.5146 -0.0953  0.3449
   36MOL0     O 4889  11.196   4.211   2.834 -0.1133  0.5002 -0.9565
   36MOL0     C 4890  11.054   4.195   2.834  0.0681  0.4954 -0.1305
   36MOL0     C 4891  11.012   4.084   2.731 -0.2094  0.3114  0.2551
   36MOL0     C 4892  10.865   4.068   2.756  0.9046  0.0308 -0.1628
   36MOL0     C 4893  10.817   3.957   2.664  0.6081 -0.3767 -0.3417
   36MOL0     C 4894  10.804   3.842   2.746  0.1272  0.6408 -0.1634
   36MOL0     C 4895  10.792   3.735   2.797 -0.0958 -0.0889 -0.3425
   36MOL0     C 4896  11.377   4.329   2.921  1.1664 -0.0466 -0.5086
   36MOL0     C 4897  11.430   4.452   2.982  0.3070  0.4613  1.0726
   36MOL0     C 4898  11.557   4.437   3.049 -0.7562  0.1927 -0.3658
   36MOL0     H 4899  11.722   4.838   3.016  0.0638 -2.0499  1.3699
   36MOL0     H 4900  11.805   5.067   3.113 -2.1063  3.2573  0.5560
   36MOL0     H 4901  11.653   5.166   3.491  0.5368 -2.0085 -0.2706
   36MOL0     H 4902  11.635   5.338   3.438 -0.4459  0.3711 -3.1787
   36MOL0     H 4903  11.816   5.261   3.599  0.3759 -3.6270 -1.2624
   36MOL0     H 4904  11.880   5.181   3.473 -0.7599  0.5443  0.5464
   36MOL0     H 4905  11.889   5.414   3.337  2.7688 -1.8163  0.3088
   36MOL0     H 4906  11.828   5.490   3.493 -0.0444 -0.5032  0.8781
   36MOL0     H 4907  12.080   5.326   3.498  0.1002  0.2196 -1.8776
   36MOL0     H 4908  12.061   5.472   3.403 -3.3968  1.8213 -0.2439
   36MOL0     H 4909  11.955   5.476   3.690  0.8815  0.3323  0.6998
   36MOL0     H 4910  12.009   5.604   3.592 -1.4678 -0.2130  0.7548
   36MOL0     H 4911  12.148   5.528   3.790 -3.8567 -1.5500  0.4832
   36MOL0     H 4912  12.184   5.376   3.695  5.3390  0.7136 -3.0420
   36MOL0     H 4913  12.271   5.653   3.619  3.4722 -0.0774 -1.3463
   36MOL0     H 4914  12.260   5.514   3.513 -2.7576 -1.6574  0.3565
   36MOL0     H 4915  12.398   5.379   3.674  1.4037  0.4874  3.0576
   36MOL0     H 4916  12.497   5.510   3.601  1.4695 -1.5964  1.4908
   36MOL0     H 4917  12.551   5.720   3.815 -1.4600 -0.1520  1.0561
   36MOL0     H 4918  12.740   5.670   4.014 -1.0173  0.0988 -2.2028
   36MOL0     H 4919  12.642   5.642   4.162 -0.4711  0.9092 -0.6297
   36MOL0     H 4920  12.611   5.880   3.980 -2.4140  2.7025  1.1849
   36MOL0     H 4921  12.482   5.828   4.061 -0.2449 -0.1886 -0.4518
   36MOL0     H 4922  12.590   5.898   4.268 -0.4221 -0.2462  0.3159
   36MOL0     H 4923  12.747   5.899   4.209 -1.7082 -1.7552  2.4052
   36MOL0     H 4924  12.715   6.068   4.047 -0.2576  0.7960 -0.5028
   36MOL0     H 4925  12.543   6.079   4.067 -0.8253 -0.1860  0.3588
   36MOL0     H 4926  12.667   6.336   4.388 -0.0435 -1.7946  0.5744
   36MOL0     H 4927  12.867   6.583   4.401 -3.1148 -0.0974 -1.8820
   36MOL0     H 4928  12.892   6.515   4.562  0.2049  3.8448 -0.2997
   36MOL0     H 4929  12.731   6.520   4.487  0.3398 -2.5707 -0.2142
   36MOL0     H 4930  13.192   6.512   4.730  1.5003  0.3196  1.3466
   36MOL0     H 4931  13.415   6.549   4.812 -1.4956 -0.4858 -0.0457
   36MOL0     H 4932  13.756   6.550   4.553 -3.0721 -4.2589  4.0145
   36MOL0     H 4933  13.706   6.723   4.539  0.1549 -2.0155 -0.4765
   36MOL0     H 4934  13.831   6.783   4.750 -0.4197 -1.4227  1.9246
   36MOL0     H 4935  13.886   6.619   4.766  3.7156 -0.9844 -1.5386
   36MOL0     H 4936  13.949   6.759   4.492  0.8962 -0.1916 -0.4921
   36MOL0     H 4937  14.016   6.608   4.560  0.1548 -0.6989  2.2196
   36MOL0     H 4938  14.078   6.748   4.768 -0.2425 -2.4257 -0.8423
   36MOL0     H 4939  14.084   6.886   4.676 -3.3802  0.5764  0.1882
   36MOL0     H 4940  14.287   6.778   4.690  1.0407 -2.4995  1.3998
   36MOL0     H 4941  14.250   6.620   4.621  2.3815  0.0045 -4.3804
   36MOL0     H 4942  14.195   6.883   4.462 -2.6067 -1.3086 -0.8168
   36MOL0     H 4943  14.200   6.718   4.404 -2.2073  1.0506  0.6113
   36MOL0     H 4944  14.432   6.896   4.523 -2.9440  1.9714  0.3292
   36MOL0     H 4945  14.414   6.860   4.356  2.2169 -0.5430  0.1619
   36MOL0     H 4946  14.469   6.647   4.548 -4.2191 -0.8551 -0.7076
   36MOL0     H 4947  14.581   6.701   4.419  0.8206  1.3129  2.9828
   36MOL0     H 4948  13.554   6.639   4.404 -1.4088  1.9553 -1.8014
   36MOL0     H 4949  13.325   6.600   4.318  1.6739 -0.8466 -0.3190
   36MOL0     H 4950  13.105   6.195   4.214 -0.4762 -2.1744 -0.1685
   36MOL0     H 4951  12.904   6.059   4.161 -0.0510 -2.3983  2.7099
   36MOL0     H 4952  11.473   5.075   3.373  0.0809 -0.6596  0.1680
   36MOL0     H 4953  11.399   4.851   3.275  0.4405  1.7076  2.6908
   36MOL0     H 4954  11.154   4.652   2.919 -0.0083  1.2220  2.9100
   36MOL0     H 4955  11.072   4.465   2.837  1.2012  0.2591 -2.0288
   36MOL0     H 4956  11.032   4.169   2.938 -1.7320  0.0049 -0.5892
   36MOL0     H 4957  11.001   4.285   2.800  0.4701  1.1826  1.0159
   36MOL0     H 4958  11.055   3.985   2.747 -2.7745 -0.7882  0.8608
   36MOL0     H 4959  11.038   4.126   2.634  3.8331 -0.1094  0.9881
   36MOL0     H 4960  10.856   4.046   2.863 -3.5553  0.3761 -0.2751
   36MOL0     H 4961  10.820   4.165   2.734  0.3158 -0.2879 -0.3773
   36MOL0     H 4962  10.890   3.936   2.585  2.0720  1.1511  0.5380
   36MOL0     H 4963  10.717   3.977   2.625 -0.3917  1.1180  2.6690
   36MOL0     H 4964  10.773   3.643   2.850  2.8849  2.1124  5.5081
   36MOL0     H 4965  11.438   4.241   2.901  0.8523 -0.3183 -0.2692
   36MOL0     H 4966  11.614   4.350   3.014  2.6133  1.0793  2.2915
   36MOL0     H 4967  11.626   4.521   3.032 -1.5717  1.6596  2.8097
   36MOL0     H 4968  11.547   4.443   3.158 -0.7208  3.4431 -0.4383
   37MOL0     O 4969   6.454   1.475   5.741 -0.1107 -0.4648 -0.2753
   37MOL0     C 4970   6.525   1.401   5.676  0.0724  0.1108  0.1231
   37MOL0     O 4971   6.651   1.376   5.702  0.1669 -0.7718 -0.7719
   37MOL0     C 4972   6.737   1.484   5.736 -0.9137  1.0474 -0.1309
   37MOL0     C 4973   6.713   1.618   5.706  0.9628  0.5394 -0.7233
   37MOL0     C 4974   6.813   1.717   5.718 -0.5852  1.0433 -0.5147
   37MOL0     C 4975   6.944   1.673   5.768  0.9485 -0.1466  1.0265
   37MOL0     O 4976   7.048   1.760   5.780  0.4408 -1.2990 -0.1467
   37MOL0     C 4977   7.004   1.897   5.821 -1.2883 -0.4424  0.0075
   37MOL0     C 4978   7.134   1.961   5.891  0.0669 -0.8070  1.1721
   37MOL0     C 4979   7.135   1.918   6.039  0.5340  0.1693 -0.0533
   37MOL0     C 4980   7.066   2.020   6.128  0.4559  0.7159  0.3050
   37MOL0     C 4981   7.050   1.976   6.265  1.2948 -0.1494 -0.1059
   37MOL0     C 4982   7.171   1.915   6.344 -0.2880 -0.0734 -0.5415
   37MOL0     C 4983   7.276   2.024   6.380  0.2510  0.1879 -0.7897
   37MOL0     C 4984   7.386   1.974   6.474  1.1661 -0.2176  0.3822
   37MOL0     N 4985   7.490   2.071   6.503  0.0154  0.7562 -0.3987
   37MOL0     C 4986   7.495   2.146   6.613 -0.4566 -0.0820 -0.6343
   37MOL0     C 4987   7.585   2.240   6.596 -0.0077  0.2695 -0.3430
   37MOL0     C 4988   7.606   2.362   6.676  0.2942 -0.6096  0.0480
   37MOL0     C 4989   7.642   2.332   6.825  0.2176  0.4239  0.1673
   37MOL0     C 4990   7.599   2.442   6.929  0.2749 -0.3829  0.2342
   37MOL0     C 4991   7.651   2.583   6.894  0.5064 -0.7150 -0.4261
   37MOL0     O 4992   7.782   2.608   6.931  0.1527  0.1859 -0.3452
   37MOL0     C 4993   7.836   2.731   6.919  0.2342  0.0627  0.0286
   37MOL0     C 4994   7.970   2.733   6.962 -0.0558 -0.6912 -0.2003
   37MOL0     C 4995   8.042   2.853   6.958  0.0399  1.0209  0.1716
   37MOL0     C 4996   8.186   2.825   6.992 -0.5101 -0.5160  0.6708
   37MOL0     C 4997   7.986   2.972   6.913 -0.8928 -0.4416  0.1103
   37MOL0     C 4998   8.064   3.098   6.899  0.2399  0.1520 -0.0913
   37MOL0     O 4999   8.192   3.114   6.944  0.1556 -0.3020  0.5446
   37MOL0     C 5000   8.249   3.239   6.949  0.0587  0.8489 -0.3170
   37MOL0     C 5001   8.310   3.267   7.077 -0.1862  0.7568  0.1003
   37MOL0     C 5002   8.360   3.391   7.102  0.3428 -0.7110 -0.1497
   37MOL0     C 5003   8.360   3.487   7.000  0.1497  0.1013 -0.2142
   37MOL0     O 5004   8.405   3.613   7.030  0.2999  0.5604  0.1840
   37MOL0     C 5005   8.497   3.687   6.945 -0.1823 -0.3628 -0.3788
   37MOL0     C 5006   8.619   3.755   7.025 -0.5319 -0.5555  0.0514
   37MOL0     C 5007   8.748   3.667   7.045  0.6038 -0.7516  0.6447
   37MOL0     C 5008   8.715   3.535   7.125  0.1431  0.0450 -0.8042
   37MOL0     C 5009   8.842   3.434   7.137  0.5632 -0.6840  0.5476
   37MOL0     C 5010   8.908   3.407   7.004 -0.0016  0.5086  0.8117
   37MOL0     C 5011   8.815   3.340   6.894  0.0351  1.1466  0.1967
   37MOL0     C 5012   8.757   3.213   6.923 -0.8511 -0.2108 -0.1480
   37MOL0    Cl 5013   8.868   3.082   6.964 -0.3679 -0.5945  0.0623
   37MOL0     C 5014   8.321   3.458   6.872  0.9267  0.1375  0.1696
   37MOL0     C 5015   8.271   3.326   6.841 -0.1842  0.0658 -0.1871
   37MOL0     O 5016   7.989   3.188   6.857  0.1514  1.0528 -0.3840
   37MOL0     C 5017   7.850   2.963   6.881 -0.1578 -0.7512 -0.1521
   37MOL0     C 5018   7.777   2.841   6.880 -0.6053 -0.5073 -1.5573
   37MOL0     N 5019   7.653   2.222   6.474  0.3339  0.1974 -0.3727
   37MOL0     N 5020   7.591   2.120   6.422  0.1647 -0.0568  0.6822
   37MOL0     C 5021   6.957   1.534   5.813 -0.0097 -0.6725 -0.0972
   37MOL0     C 5022   6.855   1.441   5.793  0.2090  1.0234  0.0122
   37MOL0     C 5023   6.464   1.363   5.543 -0.0231 -1.3188 -0.5489
   37MOL0     C 5024   6.412   1.459   5.455 -0.7171  0.1841  0.0460
   37MOL0     C 5025   6.367   1.420   5.332  0.0692  0.2261 -0.4750
   37MOL0     C 5026   6.367   1.289   5.288  0.6960 -0.0301 -0.3429
   37MOL0     O 5027   6.333   1.268   5.161  0.8506 -0.1529  0.1393
   37MOL0     C 5028   6.427   1.204   5.073 -0.0862 -0.6647  0.4218
   37MOL0     C 5029   6.556   1.300   5.058  0.4594  0.1526  0.0074
   37MOL0     C 5030   6.673   1.237   4.989  0.1078 -0.8919  0.0803
   37MOL0     C 5031   6.646   1.236   4.836 -0.1187 -0.2814  0.2157
   37MOL0     C 5032   6.756   1.169   4.774  1.2571  0.2476 -0.3804
   37MOL0     C 5033   6.839   1.094   4.732 -0.7011  0.4401 -0.3619
   37MOL0     C 5034   6.405   1.193   5.379 -0.2243  1.7936  0.1640
   37MOL0     C 5035   6.459   1.221   5.506 -0.3661 -0.9191 -0.7614
   37MOL0     C 5036   6.502   1.104   5.588 -0.7679 -0.0542 -0.2257
   37MOL0     H 5037   6.610   1.637   5.677 -0.0706  0.3211  2.3839
   37MOL0     H 5038   6.794   1.817   5.679 -2.4688  1.0259  0.2326
   37MOL0     H 5039   6.906   1.907   5.868 -2.0698 -2.6179 -1.0402
   37MOL0     H 5040   6.993   1.953   5.728 -1.8660 -0.3638  0.1203
   37MOL0     H 5041   7.231   1.942   5.844  0.9405  1.6388  1.8391
   37MOL0     H 5042   7.121   2.070   5.895 -0.6041 -0.7833 -0.8607
   37MOL0     H 5043   7.101   1.816   6.058  0.8938 -0.3188 -1.7777
   37MOL0     H 5044   7.237   1.909   6.078 -0.0038  0.4385  1.4774
   37MOL0     H 5045   7.101   2.123   6.124  2.8814 -0.0847 -2.9985
   37MOL0     H 5046   6.966   2.028   6.083  1.0599  1.7045 -0.9514
   37MOL0     H 5047   6.973   1.900   6.284  1.8218 -0.4116  1.0700
   37MOL0     H 5048   7.003   2.056   6.322 -2.3637 -4.2379  3.3688
   37MOL0     H 5049   7.131   1.862   6.432 -1.2917  0.5036 -0.6369
   37MOL0     H 5050   7.210   1.831   6.285 -2.4919 -0.6616 -1.2931
   37MOL0     H 5051   7.234   2.120   6.414  0.1664  0.5244 -1.8099
   37MOL0     H 5052   7.330   2.056   6.291  1.3740  1.3361  0.2546
   37MOL0     H 5053   7.347   1.926   6.564  0.5363 -1.0783 -0.3311
   37MOL0     H 5054   7.436   1.890   6.424  0.8896  1.0927 -2.2561
   37MOL0     H 5055   7.432   2.135   6.701 -0.7010  1.6529 -0.5481
   37MOL0     H 5056   7.512   2.416   6.663  0.8547 -0.1359 -2.5307
   37MOL0     H 5057   7.678   2.428   6.627  1.4097 -1.5301  0.3972
   37MOL0     H 5058   7.600   2.233   6.842  3.1489 -0.7212  1.4084
   37MOL0     H 5059   7.749   2.311   6.833  0.8057  3.4110  1.5514
   37MOL0     H 5060   7.491   2.456   6.928  0.5274  2.0943  0.6087
   37MOL0     H 5061   7.623   2.404   7.029 -0.7384 -1.8018 -0.0225
   37MOL0     H 5062   7.632   2.605   6.788  1.6152 -0.5393 -0.5986
   37MOL0     H 5063   7.591   2.652   6.955  1.0981  0.3190 -0.9853
   37MOL0     H 5064   7.995   2.641   7.013  2.9521  0.3688  0.4480
   37MOL0     H 5065   8.202   2.720   7.018 -0.5256 -0.8753 -0.6510
   37MOL0     H 5066   8.235   2.897   7.057 -0.0805 -3.1617  3.5173
   37MOL0     H 5067   8.247   2.832   6.901  1.1603  2.2379  1.9113
   37MOL0     H 5068   8.315   3.176   7.136  1.6790 -1.5973 -3.3171
   37MOL0     H 5069   8.399   3.418   7.200 -0.2504  2.0913 -0.6037
   37MOL0     H 5070   8.544   3.628   6.865  1.1345 -0.1376  0.2165
   37MOL0     H 5071   8.419   3.760   6.923 -3.2442 -3.2024  0.1742
   37MOL0     H 5072   8.646   3.838   6.960 -1.7145 -1.8632 -2.2554
   37MOL0     H 5073   8.589   3.801   7.120  0.9207  2.5834 -0.8814
   37MOL0     H 5074   8.835   3.727   7.073  0.9676  0.1950 -2.1697
   37MOL0     H 5075   8.777   3.635   6.944  0.2417  1.3965 -0.1876
   37MOL0     H 5076   8.630   3.492   7.072 -1.3864  0.3213  1.2967
   37MOL0     H 5077   8.667   3.563   7.219 -1.6094  0.5451 -1.8027
   37MOL0     H 5078   8.910   3.472   7.213 -0.8316 -0.6014  1.7977
   37MOL0     H 5079   8.795   3.344   7.175 -1.2710  0.0420  0.0964
   37MOL0     H 5080   9.000   3.348   7.005 -0.6009 -0.8303 -3.2430
   37MOL0     H 5081   8.961   3.491   6.959  4.1054  0.2800  4.4976
   37MOL0     H 5082   8.860   3.321   6.796 -2.0796  3.3600 -1.3146
   37MOL0     H 5083   8.740   3.417   6.873 -1.2254  1.5932  5.2144
   37MOL0     H 5084   8.699   3.191   6.832 -1.9061 -0.4026  0.5501
   37MOL0     H 5085   8.697   3.221   7.014 -4.0318 -0.0482 -2.1051
   37MOL0     H 5086   8.315   3.538   6.798  0.1375  0.4475  0.5557
   37MOL0     H 5087   8.244   3.293   6.741  0.2013  0.4515 -0.4233
   37MOL0     H 5088   7.819   3.055   6.832  2.5678  0.4967  0.2460
   37MOL0     H 5089   7.687   2.830   6.819  1.4708  1.4450 -5.3193
   37MOL0     H 5090   7.052   1.503   5.857  0.0914  1.1929  1.1217
   37MOL0     H 5091   6.870   1.338   5.822  2.3591  1.3827  0.3814
   37MOL0     H 5092   6.405   1.563   5.486  0.0431  0.0614  0.6485
   37MOL0     H 5093   6.331   1.494   5.262  1.8610  0.0674 -1.6452
   37MOL0     H 5094   6.459   1.106   5.110  0.4799 -0.5206  0.3263
   37MOL0     H 5095   6.379   1.202   4.975 -1.5796  0.5749  1.0860
   37MOL0     H 5096   6.593   1.345   5.151  2.1165  2.2055 -1.5618
   37MOL0     H 5097   6.527   1.385   4.996  2.1656  1.1368  0.4937
   37MOL0     H 5098   6.768   1.290   5.003  0.0471 -0.8239  0.2392
   37MOL0     H 5099   6.692   1.133   5.020  1.9317 -0.3361  1.0102
   37MOL0     H 5100   6.622   1.336   4.798  2.6853 -0.3186 -2.0031
   37MOL0     H 5101   6.554   1.181   4.815  0.5592 -0.5155 -2.5510
   37MOL0     H 5102   6.920   1.031   4.701  0.2452 -0.1345  2.9416
   37MOL0     H 5103   6.391   1.092   5.342 -1.1755  2.1522 -0.4858
   37MOL0     H 5104   6.420   1.044   5.627 -0.0907 -1.4085 -0.8295
   37MOL0     H 5105   6.566   1.036   5.531 -1.9573 -1.7109  0.3503
   37MOL0     H 5106   6.560   1.128   5.677 -0.2146 -0.0912 -0.5721
   38MOL0     O 5107  10.218   8.184   0.415  0.5268  0.4071  0.3654
   38MOL0     C 5108  10.141   8.093   0.438 -0.0628 -1.2643 -0.4035
   38MOL0     O 5109  10.152   7.967   0.384  0.0255 -0.0550  0.3206
   38MOL0     C 5110  10.241   7.956   0.271 -0.1645  0.8462  0.9598
   38MOL0     C 5111  10.193   7.974   0.141 -1.3087  0.1198  0.6550
   38MOL0     C 5112  10.284   7.958   0.037 -0.6122  0.4177  0.6461
   38MOL0     C 5113  10.426   7.938   0.050  0.4617 -0.1798 -1.1827
   38MOL0     O 5114  10.504   7.915  -0.062 -0.0239 -0.3940  0.3929
   38MOL0     C 5115  10.482   7.993  -0.186  0.7103 -0.1814  0.0662
   38MOL0     C 5116  10.592   7.957  -0.291 -0.4006  0.7942 -0.6786
   38MOL0     C 5117  10.560   8.025  -0.422 -0.0278 -0.4132 -0.3436
   38MOL0     C 5118  10.646   7.974  -0.538 -0.2440 -0.0906 -0.7648
   38MOL0     C 5119  10.634   8.075  -0.661 -0.3123 -0.4357  0.6975
   38MOL0     C 5120  10.740   8.041  -0.766 -0.1055 -0.8439 -0.0691
   38MOL0     C 5121  10.725   8.126  -0.895  1.3407 -0.8467  0.0549
   38MOL0     C 5122  10.832   8.062  -0.987  0.0721 -0.2378 -1.1851
   38MOL0     N 5123  10.820   8.121  -1.128 -0.0345 -0.3498 -0.9892
   38MOL0     C 5124  10.713   8.119  -1.217  0.5430 -0.7448 -0.0537
   38MOL0     C 5125  10.763   8.180  -1.327 -0.1125 -0.5680  0.7465
   38MOL0     C 5126  10.691   8.181  -1.459 -1.0664 -0.8705 -0.3733
   38MOL0     C 5127  10.689   8.312  -1.548  0.8114 -0.0305 -0.6941
   38MOL0     C 5128  10.634   8.427  -1.466  0.2985 -0.6826  0.8829
   38MOL0     C 5129  10.646   8.566  -1.523 -0.3620  0.1144 -0.0864
   38MOL0     O 5130  10.782   8.595  -1.525 -0.7227  0.6080 -0.2947
   38MOL0     C 5131  10.827   8.727  -1.535  0.2885 -0.7886  0.4392
   38MOL0     C 5132  10.739   8.838  -1.536  0.2583 -0.3098 -0.6282
   38MOL0     C 5133  10.789   8.967  -1.558 -0.5646  0.2642  0.4583
   38MOL0     C 5134  10.688   9.073  -1.531  0.4003 -0.0032 -0.5546
   38MOL0     C 5135  10.931   8.984  -1.569  0.2652  1.4366  1.1109
   38MOL0     C 5136  10.982   9.119  -1.593  0.0678 -1.1847 -1.2358
   38MOL0     O 5137  11.119   9.130  -1.566 -0.3309  0.0237 -0.1600
   38MOL0     C 5138  11.177   9.246  -1.595  0.5456  0.8972 -0.2098
   38MOL0     C 5139  11.223   9.280  -1.725 -0.5848 -0.5110 -0.9087
   38MOL0     C 5140  11.295   9.407  -1.749  0.2996  0.2913  0.3923
   38MOL0     C 5141  11.315   9.492  -1.640 -0.5543  0.4054  0.3660
   38MOL0     O 5142  11.392   9.609  -1.671  0.9747  0.8445 -0.2853
   38MOL0     C 5143  11.353   9.682  -1.787  0.5089  0.3252  0.6435
   38MOL0     C 5144  11.381   9.835  -1.781 -0.7514  0.1096  0.0936
   38MOL0     C 5145  11.351   9.895  -1.921 -0.0432  1.4105 -1.7150
   38MOL0     C 5146  11.372  10.047  -1.929 -0.1411  0.8695  0.8197
   38MOL0     C 5147  11.355  10.116  -2.066  0.5314 -0.1256  0.1687
   38MOL0     C 5148  11.387  10.267  -2.066 -0.0099  0.7148  0.1336
   38MOL0     C 5149  11.265  10.346  -2.011  0.0145 -1.1791  0.0330
   38MOL0     C 5150  11.290  10.494  -2.015 -0.0272 -0.2815  0.0482
   38MOL0    Cl 5151  11.146  10.582  -1.955  0.3196 -0.1276 -0.3793
   38MOL0     C 5152  11.277   9.459  -1.506  0.1285 -0.1321 -0.4303
   38MOL0     C 5153  11.191   9.341  -1.490 -0.2739 -0.0548  0.3321
   38MOL0     O 5154  10.908   9.199  -1.662  0.1978  0.3544 -0.8970
   38MOL0     C 5155  11.016   8.870  -1.569  1.2915  0.9086  0.7039
   38MOL0     C 5156  10.970   8.738  -1.551 -0.8716 -0.8336 -0.2762
   38MOL0     N 5157  10.899   8.210  -1.312  0.4374 -0.4078  0.0428
   38MOL0     N 5158  10.932   8.166  -1.196  0.8390  0.1964  0.1921
   38MOL0     C 5159  10.475   7.921   0.183 -0.5762 -1.3263 -0.1536
   38MOL0     C 5160  10.378   7.926   0.291 -0.5472 -0.4624 -0.6174
   38MOL0     C 5161  10.012   8.126   0.518  0.3439  0.6757 -0.1736
   38MOL0     C 5162   9.904   8.035   0.504 -0.5498 -0.2718  0.4561
   38MOL0     C 5163   9.793   8.038   0.586 -0.0246  1.5873  0.4051
   38MOL0     C 5164   9.765   8.147   0.664 -0.7648 -0.0820 -0.6405
   38MOL0     O 5165   9.653   8.146   0.749  0.1687 -0.1865 -0.2437
   38MOL0     C 5166   9.582   8.267   0.784 -0.2093 -0.3945 -0.5123
   38MOL0     C 5167   9.427   8.242   0.764 -0.4229  0.6828  0.0459
   38MOL0     C 5168   9.350   8.366   0.813  0.1757 -0.8299  0.2992
   38MOL0     C 5169   9.202   8.338   0.795  0.4363 -1.2405 -0.9368
   38MOL0     C 5170   9.122   8.433   0.863  0.0889 -0.9993 -0.2872
   38MOL0     C 5171   9.057   8.496   0.949 -0.7053  0.2106  1.2956
   38MOL0     C 5172   9.871   8.248   0.678  0.0876  0.9221 -0.3235
   38MOL0     C 5173   9.991   8.233   0.605  0.8671  1.1065  0.5811
   38MOL0     C 5174  10.094   8.339   0.619  0.7244 -0.9017  0.3817
   38MOL0     H 5175  10.086   7.981   0.126 -1.1835 -0.2589 -0.5764
   38MOL0     H 5176  10.243   7.971  -0.063  0.5984 -0.4036  0.0212
   38MOL0     H 5177  10.489   8.102  -0.176  4.3783 -0.3504  0.7127
   38MOL0     H 5178  10.382   7.969  -0.222  1.0572 -3.5595  0.9912
   38MOL0     H 5179  10.692   7.982  -0.253 -1.3625 -0.2762  3.0257
   38MOL0     H 5180  10.600   7.849  -0.304  2.3950  0.7426  0.5719
   38MOL0     H 5181  10.457   8.014  -0.455 -0.0803 -0.0589 -0.3063
   38MOL0     H 5182  10.571   8.132  -0.405 -1.2262 -0.3286  0.0119
   38MOL0     H 5183  10.754   7.967  -0.519 -0.3246  2.0249  0.8795
   38MOL0     H 5184  10.608   7.874  -0.558 -1.4368  0.3096 -0.5625
   38MOL0     H 5185  10.661   8.177  -0.633 -0.4734  0.1974 -1.2715
   38MOL0     H 5186  10.531   8.073  -0.700  0.4108 -0.4159 -1.3452
   38MOL0     H 5187  10.840   8.035  -0.723 -1.3125  1.3564  3.4179
   38MOL0     H 5188  10.712   7.941  -0.802 -1.2993 -1.2801  1.9441
   38MOL0     H 5189  10.754   8.232  -0.894  0.4037 -0.5159 -2.0212
   38MOL0     H 5190  10.631   8.109  -0.949  2.8453 -0.5238 -2.8881
   38MOL0     H 5191  10.929   8.084  -0.940  0.3967 -1.0859 -1.4425
   38MOL0     H 5192  10.831   7.953  -0.993 -2.8118 -0.2341 -2.8284
   38MOL0     H 5193  10.608   8.097  -1.198 -0.2417 -1.3728 -4.1379
   38MOL0     H 5194  10.590   8.141  -1.448 -1.9032  1.3322  0.4722
   38MOL0     H 5195  10.741   8.108  -1.524  0.2402 -3.7989  3.5285
   38MOL0     H 5196  10.784   8.357  -1.578  1.4717  2.0867  3.7451
   38MOL0     H 5197  10.623   8.298  -1.635 -0.0928 -0.7314  0.0808
   38MOL0     H 5198  10.536   8.399  -1.426  1.5588 -0.8888  4.1435
   38MOL0     H 5199  10.700   8.434  -1.380  1.4151 -1.9396  0.1688
   38MOL0     H 5200  10.611   8.563  -1.626  3.5226 -0.0788 -1.5927
   38MOL0     H 5201  10.591   8.629  -1.453  0.1074 -1.2587  1.5936
   38MOL0     H 5202  10.632   8.818  -1.529 -0.4862  2.7130 -1.9039
   38MOL0     H 5203  10.709   9.129  -1.439 -1.8243  0.1087 -0.0734
   38MOL0     H 5204  10.586   9.036  -1.520  0.8325 -2.0838 -2.7215
   38MOL0     H 5205  10.677   9.149  -1.609  3.5999  1.8360  0.5746
   38MOL0     H 5206  11.209   9.207  -1.805  2.0171 -1.9536 -0.1890
   38MOL0     H 5207  11.336   9.411  -1.850  0.4078 -2.3109  0.2641
   38MOL0     H 5208  11.401   9.643  -1.877 -3.5669 -0.6185 -1.3848
   38MOL0     H 5209  11.247   9.672  -1.814  0.8650  0.8728 -1.0686
   38MOL0     H 5210  11.323   9.887  -1.705 -1.2242  0.1083 -0.2624
   38MOL0     H 5211  11.489   9.845  -1.763 -0.3150 -5.4517  2.9510
   38MOL0     H 5212  11.249   9.869  -1.953 -0.2805  1.0260 -0.6671
   38MOL0     H 5213  11.424   9.846  -1.986  1.3051 -1.2805  1.5579
   38MOL0     H 5214  11.475  10.071  -1.901 -0.4978  4.2713 -0.2603
   38MOL0     H 5215  11.299  10.087  -1.858  0.3154  1.3485  1.0219
   38MOL0     H 5216  11.408  10.061  -2.144 -2.1584 -1.8996 -0.5552
   38MOL0     H 5217  11.251  10.100  -2.097  0.9061 -1.4982 -0.4667
   38MOL0     H 5218  11.400  10.296  -2.171  0.9606 -1.0430 -0.2741
   38MOL0     H 5219  11.473  10.290  -2.002 -0.7644 -0.1037  1.4785
   38MOL0     H 5220  11.238  10.307  -1.912  0.0223 -0.7733  0.1994
   38MOL0     H 5221  11.181  10.329  -2.079 -1.1212 -1.9559  1.5530
   38MOL0     H 5222  11.309  10.536  -2.115 -2.0936  0.8020  0.0508
   38MOL0     H 5223  11.368  10.513  -1.941 -1.9638  2.0777  1.6399
   38MOL0     H 5224  11.295   9.520  -1.418 -0.8011  0.3190 -0.5396
   38MOL0     H 5225  11.153   9.315  -1.392 -1.1519 -1.2383 -0.2936
   38MOL0     H 5226  11.124   8.879  -1.564  1.6725 -2.7124  2.1174
   38MOL0     H 5227  11.033   8.652  -1.530 -3.8644 -2.5009  2.6457
   38MOL0     H 5228  10.580   7.909   0.210  1.0044  3.5845 -2.8180
   38MOL0     H 5229  10.412   7.908   0.392 -0.8767 -3.3782 -0.9374
   38MOL0     H 5230   9.907   7.960   0.425 -2.6017 -0.0199  0.0954
   38MOL0     H 5231   9.723   7.957   0.567 -0.6053  2.1003  0.3538
   38MOL0     H 5232   9.616   8.279   0.888 -1.8583 -1.8382  0.2341
   38MOL0     H 5233   9.621   8.353   0.728  3.1526 -1.9627 -0.8616
   38MOL0     H 5234   9.400   8.150   0.818  1.2788  0.4414  0.5468
   38MOL0     H 5235   9.406   8.231   0.658  0.0261 -0.4314  0.0617
   38MOL0     H 5236   9.375   8.398   0.914  1.7033  3.1336 -1.1068
   38MOL0     H 5237   9.374   8.456   0.755  0.5054 -2.4241 -2.2203
   38MOL0     H 5238   9.174   8.239   0.833  2.2530 -2.3044 -2.2124
   38MOL0     H 5239   9.182   8.332   0.687  1.0520 -3.1161 -0.9870
   38MOL0     H 5240   9.033   8.549   1.039  1.8669  1.4405  1.3366
   38MOL0     H 5241   9.872   8.338   0.739 -1.6973  1.2185 -0.6821
   38MOL0     H 5242  10.125   8.372   0.520  0.9588 -0.8049  0.4846
   38MOL0     H 5243  10.058   8.430   0.668 -1.5876 -2.5147  1.9137
   38MOL0     H 5244  10.182   8.302   0.673  0.3977 -1.4601  0.5361
   39MOL0     O 5245   7.327   4.453   7.457  0.7798  0.1568 -0.0871
   39MOL0     C 5246   7.402   4.546   7.476  0.1565  0.6527  0.6261
   39MOL0     O 5247   7.405   4.626   7.580 -0.2370  0.7016 -0.0013
   39MOL0     C 5248   7.306   4.627   7.680 -0.5775 -0.6473  0.1579
   39MOL0     C 5249   7.172   4.595   7.668  1.2860  0.7336 -0.0854
   39MOL0     C 5250   7.081   4.603   7.771  0.1911 -0.2952 -0.7716
   39MOL0     C 5251   7.116   4.654   7.892 -1.1431  0.1455  1.2549
   39MOL0     O 5252   7.017   4.660   7.988 -0.0201 -0.4115  0.0358
   39MOL0     C 5253   7.049   4.678   8.127 -0.7316  0.1120  0.1796
   39MOL0     C 5254   6.999   4.801   8.191 -0.1916  0.4149 -1.1797
   39MOL0     C 5255   7.022   4.792   8.339  0.3779  0.0500 -0.5772
   39MOL0     C 5256   6.958   4.918   8.407 -0.4283  0.0847 -0.2895
   39MOL0     C 5257   7.007   4.931   8.551 -0.0621  0.0156 -0.3399
   39MOL0     C 5258   6.959   5.065   8.609  0.2651  0.8659 -0.0686
   39MOL0     C 5259   7.038   5.188   8.559 -0.5386  0.3383 -0.3111
   39MOL0     C 5260   7.007   5.311   8.637  0.1149  0.4460 -0.7526
   39MOL0     N 5261   7.102   5.413   8.604  0.1598  0.8041 -0.4168
   39MOL0     C 5262   7.240   5.412   8.609  0.3189  0.7179  0.4846
   39MOL0     C 5263   7.273   5.528   8.560  0.9302 -1.4415  1.0383
   39MOL0     C 5264   7.411   5.584   8.554 -0.7202  1.1816  0.1671
   39MOL0     C 5265   7.430   5.735   8.601  0.0733 -0.5955  0.4350
   39MOL0     C 5266   7.562   5.758   8.678  0.7046  0.2510  0.1695
   39MOL0     C 5267   7.585   5.682   8.814  0.7055  0.1931  0.7920
   39MOL0     O 5268   7.493   5.745   8.894 -0.1050  0.6275  0.0815
   39MOL0     C 5269   7.491   5.716   9.029 -0.7504 -0.1228  0.2082
   39MOL0     C 5270   7.408   5.791   9.110  0.4716 -0.1136 -0.8263
   39MOL0     C 5271   7.399   5.781   9.254  0.8373  0.5259  0.0307
   39MOL0     C 5272   7.303   5.870   9.324 -0.8358  0.8354 -0.6932
   39MOL0     C 5273   7.486   5.691   9.315  0.4526 -0.1598 -0.7417
   39MOL0     C 5274   7.493   5.687   9.458 -0.5843 -0.6582 -0.4372
   39MOL0     O 5275   7.529   5.800   9.516 -0.2092  0.5838  0.1912
   39MOL0     C 5276   7.489   5.815   9.643  0.1353 -0.6583  0.6685
   39MOL0     C 5277   7.576   5.775   9.743  0.0268 -0.3441  0.3200
   39MOL0     C 5278   7.570   5.827   9.869 -0.9365  0.1178 -0.4470
   39MOL0     C 5279   7.451   5.895   9.907  0.0173 -0.3719 -0.1578
   39MOL0     O 5280   7.443   5.940  10.039 -0.4929  0.2432 -0.0246
   39MOL0     C 5281   7.538   6.038  10.077  0.6500  0.0229 -0.0189
   39MOL0     C 5282   7.630   6.004  10.182  0.2289 -0.4047 -0.5402
   39MOL0     C 5283   7.550   6.004  10.322 -0.0367 -0.2726  0.0135
   39MOL0     C 5284   7.653   6.007  10.434  0.0272 -0.2386  0.2660
   39MOL0     C 5285   7.584   5.981  10.564  0.5320  0.6351 -0.0998
   39MOL0     C 5286   7.665   5.884  10.652 -0.2948 -0.3133 -0.0150
   39MOL0     C 5287   7.808   5.937  10.708  1.0682 -0.2310  0.2567
   39MOL0     C 5288   7.809   6.038  10.814 -0.3957 -0.0322 -0.8827
   39MOL0    Cl 5289   7.937   6.001  10.938 -0.1689 -0.3508 -0.4410
   39MOL0     C 5290   7.356   5.932   9.810  0.0683  1.0003  0.4492
   39MOL0     C 5291   7.364   5.874   9.681 -0.3971 -0.7692 -0.2465
   39MOL0     O 5292   7.464   5.576   9.512 -0.3557 -0.4671  0.2955
   39MOL0     C 5293   7.560   5.606   9.233  0.1426  0.2887  1.3276
   39MOL0     C 5294   7.565   5.620   9.097  0.6579 -0.3778 -0.4963
   39MOL0     N 5295   7.160   5.591   8.500 -0.0058 -0.6970 -0.4675
   39MOL0     N 5296   7.057   5.523   8.532 -0.4103  0.5105  0.1318
   39MOL0     C 5297   7.252   4.695   7.906  0.8192  0.8200 -0.1817
   39MOL0     C 5298   7.340   4.689   7.800 -0.6966 -0.1153 -0.2603
   39MOL0     C 5299   7.512   4.577   7.367  0.6533  0.1612 -0.3393
   39MOL0     C 5300   7.625   4.647   7.406 -0.4792 -0.0815 -0.3407
   39MOL0     C 5301   7.730   4.686   7.317 -0.0302  1.1336 -0.1394
   39MOL0     C 5302   7.721   4.659   7.181  0.8466 -0.1820 -0.7769
   39MOL0     O 5303   7.793   4.712   7.079  0.4683 -0.4340  0.3688
   39MOL0     C 5304   7.895   4.793   7.124 -0.4153 -0.3392 -0.0474
   39MOL0     C 5305   7.977   4.851   7.006  0.6955 -0.2404  0.5773
   39MOL0     C 5306   7.969   4.761   6.879 -0.5103 -0.3007 -0.1432
   39MOL0     C 5307   8.083   4.780   6.773 -0.0470 -0.7384  0.0485
   39MOL0     C 5308   8.225   4.768   6.826  0.4135 -0.3977 -0.7213
   39MOL0     C 5309   8.341   4.785   6.861  0.3126  0.3109  1.1348
   39MOL0     C 5310   7.609   4.581   7.147  0.0222  0.7031  0.1624
   39MOL0     C 5311   7.509   4.532   7.235  0.6709  0.4879 -0.0769
   39MOL0     C 5312   7.392   4.458   7.180  0.0068 -0.1440  1.2142
   39MOL0     H 5313   7.131   4.554   7.576  0.6199 -2.8930  1.6568
   39MOL0     H 5314   6.980   4.564   7.761 -0.8256  0.7480  3.5248
   39MOL0     H 5315   7.156   4.664   8.143 -0.2132  1.7091 -1.5777
   39MOL0     H 5316   6.993   4.603   8.184 -0.6021  1.3898  2.0672
   39MOL0     H 5317   7.051   4.888   8.150 -2.2488  2.0164 -0.5164
   39MOL0     H 5318   6.896   4.833   8.176  0.2745  1.4994 -2.2243
   39MOL0     H 5319   6.984   4.705   8.392  0.5298  0.6530  0.5633
   39MOL0     H 5320   7.131   4.800   8.351  0.6311  0.9320 -2.9452
   39MOL0     H 5321   6.993   5.007   8.354  0.1195  2.2004  3.2852
   39MOL0     H 5322   6.849   4.909   8.408 -0.5371  1.2395  0.7146
   39MOL0     H 5323   7.113   4.930   8.578 -0.8473  3.1217  4.0521
   39MOL0     H 5324   6.973   4.845   8.610  1.7165 -0.8973 -0.5817
   39MOL0     H 5325   6.860   5.074   8.564  0.1363  0.6165  0.1592
   39MOL0     H 5326   6.951   5.052   8.717  0.6404 -1.9948 -0.2977
   39MOL0     H 5327   7.016   5.201   8.452  4.9793  1.9553 -1.5561
   39MOL0     H 5328   7.143   5.160   8.567 -0.8178 -0.4638  0.7152
   39MOL0     H 5329   6.902   5.339   8.625  0.5391  1.3414 -2.7877
   39MOL0     H 5330   7.026   5.287   8.742 -0.7275 -0.7289 -0.8381
   39MOL0     H 5331   7.308   5.337   8.646 -1.0478 -0.6019  0.4253
   39MOL0     H 5332   7.437   5.566   8.449 -1.1557 -1.7757  0.4793
   39MOL0     H 5333   7.472   5.515   8.613 -0.8115  2.0631  1.3295
   39MOL0     H 5334   7.420   5.804   8.517 -1.1107 -1.2193  0.0437
   39MOL0     H 5335   7.350   5.764   8.670 -0.3789 -2.5499  0.7930
   39MOL0     H 5336   7.644   5.730   8.611  1.3769  2.0677  0.2011
   39MOL0     H 5337   7.564   5.865   8.696 -1.7431  0.5175 -0.6860
   39MOL0     H 5338   7.577   5.573   8.811  1.0650  0.1675  0.6934
   39MOL0     H 5339   7.687   5.710   8.842  0.9560 -1.5434  1.6982
   39MOL0     H 5340   7.349   5.855   9.046 -1.4955 -1.2237 -0.2324
   39MOL0     H 5341   7.344   5.949   9.386 -1.9015 -0.3224  1.6242
   39MOL0     H 5342   7.232   5.801   9.371 -2.8697  1.9095 -2.0228
   39MOL0     H 5343   7.239   5.925   9.255 -3.0067  1.2800  1.5189
   39MOL0     H 5344   7.663   5.718   9.714  1.5035  2.8307 -2.1752
   39MOL0     H 5345   7.643   5.799   9.943 -1.9676  1.5411  1.1956
   39MOL0     H 5346   7.597   6.066   9.989  2.5346 -2.6374  0.2736
   39MOL0     H 5347   7.477   6.124  10.105 -2.3715 -1.3396 -1.8732
   39MOL0     H 5348   7.668   5.904  10.161 -3.6758 -1.9011 -1.3430
   39MOL0     H 5349   7.707   6.079  10.199 -0.7557  0.1974  1.5793
   39MOL0     H 5350   7.497   5.910  10.308  1.0271 -0.4686 -4.1560
   39MOL0     H 5351   7.475   6.083  10.332  1.8180  1.7390 -1.0579
   39MOL0     H 5352   7.702   6.104  10.448 -0.4151 -0.1437  1.2200
   39MOL0     H 5353   7.731   5.937  10.404 -0.2082 -0.8379  1.0188
   39MOL0     H 5354   7.552   6.075  10.609 -2.2891 -0.4151  0.3503
   39MOL0     H 5355   7.491   5.923  10.560 -0.3950  2.1359 -1.5054
   39MOL0     H 5356   7.682   5.793  10.595  1.0536  0.2678 -0.6007
   39MOL0     H 5357   7.606   5.852  10.738 -2.7055  0.0515 -1.4293
   39MOL0     H 5358   7.869   5.973  10.624 -0.7577  2.4459 -0.0349
   39MOL0     H 5359   7.849   5.845  10.751  0.3845 -0.0061  1.4297
   39MOL0     H 5360   7.713   6.026  10.865  1.2792 -1.7736  2.1332
   39MOL0     H 5361   7.818   6.142  10.780 -4.3824  0.4419 -0.9762
   39MOL0     H 5362   7.266   5.986   9.838 -3.4513 -4.6554  1.4341
   39MOL0     H 5363   7.292   5.904   9.605 -0.2736  1.0015  0.2862
   39MOL0     H 5364   7.614   5.522   9.276  2.2212  0.3943 -0.8811
   39MOL0     H 5365   7.617   5.541   9.043 -0.4043 -0.0685 -2.0401
   39MOL0     H 5366   7.283   4.730   8.004 -2.6958  2.0414  0.6653
   39MOL0     H 5367   7.429   4.750   7.801  0.2139 -1.0613  4.7840
   39MOL0     H 5368   7.650   4.676   7.508  2.2715  0.8409 -1.1735
   39MOL0     H 5369   7.804   4.751   7.364 -1.2543  1.7918  0.9529
   39MOL0     H 5370   7.861   4.870   7.194  0.3270  0.6796 -0.7867
   39MOL0     H 5371   7.960   4.725   7.181 -3.6014 -3.6693  0.0225
   39MOL0     H 5372   8.078   4.862   7.046  1.4919 -2.9676 -0.4664
   39MOL0     H 5373   7.934   4.948   6.981 -0.8694 -1.1366 -0.4246
   39MOL0     H 5374   7.981   4.657   6.911  1.2222  0.0806  0.6099
   39MOL0     H 5375   7.875   4.772   6.824  0.5927  1.8323 -1.7459
   39MOL0     H 5376   8.059   4.875   6.724 -1.2088 -1.8621 -1.6769
   39MOL0     H 5377   8.086   4.712   6.687  0.7039  1.1263 -1.4836
   39MOL0     H 5378   8.442   4.808   6.887  0.5748  0.0469  0.3808
   39MOL0     H 5379   7.588   4.574   7.041 -0.9712 -1.9940  0.4422
   39MOL0     H 5380   7.399   4.368   7.241  0.5284 -1.9422 -1.3442
   39MOL0     H 5381   7.298   4.514   7.190  1.3930  2.2286  1.9624
   39MOL0     H 5382   7.393   4.422   7.077 -0.8023  0.3251  1.0301
   40MOL0     O 5383   2.307   1.084   6.661 -0.5656 -0.7393 -0.0191
   40MOL0     C 5384   2.255   0.992   6.721 -0.0975 -0.4659  0.5128
   40MOL0     O 5385   2.315   0.884   6.755  0.6645  0.2063  0.3663
   40MOL0     C 5386   2.447   0.867   6.731  0.0737 -0.1603 -0.0469
   40MOL0     C 5387   2.484   0.767   6.642 -0.5625 -0.0525 -1.2516
   40MOL0     C 5388   2.622   0.749   6.614  0.6464 -0.6894  0.9235
   40MOL0     C 5389   2.718   0.833   6.683 -0.0319 -0.7579 -0.0660
   40MOL0     O 5390   2.854   0.814   6.683 -0.5551 -0.0302 -0.0448
   40MOL0     C 5391   2.924   0.752   6.796  0.6762 -0.6457 -0.3678
   40MOL0     C 5392   3.058   0.696   6.757  0.0551  0.0242 -0.3888
   40MOL0     C 5393   3.060   0.628   6.613 -0.3802  0.6289 -0.2642
   40MOL0     C 5394   3.197   0.596   6.560  0.1593  1.0943  0.7538
   40MOL0     C 5395   3.193   0.538   6.418 -0.0807  0.5711  0.2036
   40MOL0     C 5396   3.334   0.529   6.351  0.2515 -0.4765 -0.6449
   40MOL0     C 5397   3.333   0.495   6.207 -0.6939  0.3874 -0.0487
   40MOL0     C 5398   3.482   0.478   6.162 -0.5363 -1.0220  0.5030
   40MOL0     N 5399   3.560   0.604   6.179  0.0225  0.0513  0.3821
   40MOL0     C 5400   3.532   0.716   6.103  0.0270 -0.0782 -0.2950
   40MOL0     C 5401   3.601   0.816   6.162 -0.0623  0.0419 -0.5892
   40MOL0     C 5402   3.622   0.963   6.135  0.0980 -0.1768  0.4604
   40MOL0     C 5403   3.761   0.982   6.069 -0.3992  0.0369  0.3359
   40MOL0     C 5404   3.770   0.941   5.924 -0.3326 -0.0140 -0.7283
   40MOL0     C 5405   3.697   1.021   5.817 -0.3971  0.5903  0.0515
   40MOL0     O 5406   3.749   1.149   5.814  0.0168  0.2100  0.2475
   40MOL0     C 5407   3.660   1.245   5.768 -0.9091  0.5347 -0.3467
   40MOL0     C 5408   3.542   1.217   5.705 -0.0896  0.3284  0.4776
   40MOL0     C 5409   3.455   1.326   5.675 -0.3398 -0.4851 -0.7149
   40MOL0     C 5410   3.315   1.285   5.603 -0.7304 -0.3134  0.1208
   40MOL0     C 5411   3.494   1.463   5.697 -0.4006  0.4905  0.0122
   40MOL0     C 5412   3.410   1.578   5.682  0.3553  0.0738  0.0765
   40MOL0     O 5413   3.466   1.701   5.654 -0.5772  0.1168  0.0890
   40MOL0     C 5414   3.388   1.815   5.653 -0.1000  0.5056  0.1434
   40MOL0     C 5415   3.449   1.924   5.596  0.6522  0.1979  0.3524
   40MOL0     C 5416   3.397   2.052   5.601 -0.1364 -0.1787 -0.2626
   40MOL0     C 5417   3.261   2.072   5.627  0.5468  0.2056  0.6800
   40MOL0     O 5418   3.210   2.202   5.605 -0.0923 -0.3909 -1.1897
   40MOL0     C 5419   3.068   2.227   5.614 -0.1372  0.6249  0.8482
   40MOL0     C 5420   2.997   2.210   5.482  1.4591 -0.5517 -0.3658
   40MOL0     C 5421   3.076   2.273   5.369 -0.4634  1.0320  0.4305
   40MOL0     C 5422   3.018   2.237   5.227 -0.0547  1.3860 -0.1174
   40MOL0     C 5423   2.971   2.367   5.146  0.4017 -0.2933 -0.4384
   40MOL0     C 5424   2.913   2.344   5.004 -0.1195 -0.0958 -0.5321
   40MOL0     C 5425   2.976   2.226   4.916 -0.3072 -0.6931 -0.1208
   40MOL0     C 5426   2.921   2.238   4.777  0.6659 -0.1248  0.0659
   40MOL0    Cl 5427   3.005   2.352   4.657  0.7043  0.4850  0.1252
   40MOL0     C 5428   3.199   1.966   5.700  0.4725 -0.0471  0.4322
   40MOL0     C 5429   3.266   1.847   5.720 -0.8545  0.6507  0.5605
   40MOL0     O 5430   3.291   1.554   5.692  0.2119  0.6789 -0.4329
   40MOL0     C 5431   3.621   1.481   5.754  0.9790 -0.5056 -1.0107
   40MOL0     C 5432   3.700   1.372   5.781  0.2710 -1.1250  0.6573
   40MOL0     N 5433   3.678   0.757   6.261  0.7279  0.4409  0.6341
   40MOL0     N 5434   3.650   0.630   6.276  1.1725 -0.3189  0.1636
   40MOL0     C 5435   2.672   0.933   6.770 -0.8586  0.1863  0.7123
   40MOL0     C 5436   2.537   0.953   6.796 -0.1024 -1.1018  0.0307
   40MOL0     C 5437   2.107   1.001   6.746  0.4788 -0.7184  0.6729
   40MOL0     C 5438   2.040   1.108   6.681  0.7048 -0.3684 -0.5494
   40MOL0     C 5439   1.898   1.120   6.673 -0.4678 -1.3836 -0.0521
   40MOL0     C 5440   1.827   1.026   6.744  0.7795 -0.0233  0.6660
   40MOL0     O 5441   1.693   1.014   6.742 -0.0737 -0.2103  0.0669
   40MOL0     C 5442   1.626   1.099   6.652  0.7151  0.2929  0.2632
   40MOL0     C 5443   1.467   1.071   6.660 -0.3701 -0.3206 -0.0333
   40MOL0     C 5444   1.404   1.195   6.614  0.1544 -1.2367 -0.7625
   40MOL0     C 5445   1.283   1.174   6.514  0.2765  0.9846  0.1415
   40MOL0     C 5446   1.195   1.073   6.556  0.5673  1.1957 -0.3458
   40MOL0     C 5447   1.110   0.981   6.572  0.5772 -0.6865  0.0521
   40MOL0     C 5448   1.892   0.925   6.820 -0.3578 -0.1582 -0.2759
   40MOL0     C 5449   2.028   0.908   6.819 -0.7761  0.3868  0.6834
   40MOL0     C 5450   2.078   0.785   6.889  0.3968 -0.0862 -0.4491
   40MOL0     H 5451   2.418   0.692   6.600 -3.2876  1.3059  0.3604
   40MOL0     H 5452   2.644   0.659   6.558  1.0563  1.1518 -2.1367
   40MOL0     H 5453   2.854   0.671   6.820 -2.1203  1.7262  0.0533
   40MOL0     H 5454   2.928   0.810   6.888  1.3707 -0.5665 -0.4403
   40MOL0     H 5455   3.136   0.772   6.767 -0.5195  0.2909  4.5924
   40MOL0     H 5456   3.094   0.616   6.822  2.8667 -0.7013 -2.6402
   40MOL0     H 5457   3.002   0.537   6.622  1.6944 -0.7932 -0.4924
   40MOL0     H 5458   3.017   0.693   6.537  0.3821  0.6168 -0.7124
   40MOL0     H 5459   3.263   0.683   6.567  1.4373  0.1746  0.4320
   40MOL0     H 5460   3.247   0.525   6.626  1.4465 -0.7174 -1.9778
   40MOL0     H 5461   3.128   0.595   6.351  0.1151  2.3233  1.4395
   40MOL0     H 5462   3.155   0.437   6.435 -1.4584  0.2327 -3.7700
   40MOL0     H 5463   3.372   0.632   6.352 -0.2010 -0.2768 -1.8813
   40MOL0     H 5464   3.404   0.468   6.407  3.2277  0.9202 -2.5713
   40MOL0     H 5465   3.273   0.571   6.157  2.0628  1.4609 -1.9210
   40MOL0     H 5466   3.281   0.399   6.214 -3.8291  1.8896 -1.0173
   40MOL0     H 5467   3.525   0.403   6.229 -0.4747 -0.3813  1.1880
   40MOL0     H 5468   3.472   0.436   6.061 -0.7803  1.0086 -0.3620
   40MOL0     H 5469   3.468   0.728   6.016  1.7029 -1.1651 -1.7306
   40MOL0     H 5470   3.634   1.007   6.235  4.6410 -1.5031  0.7244
   40MOL0     H 5471   3.532   1.006   6.090 -0.2005  1.8632  2.7955
   40MOL0     H 5472   3.795   1.085   6.082  0.0016 -0.2723  2.0580
   40MOL0     H 5473   3.822   0.912   6.127 -0.6222 -1.1309 -0.8047
   40MOL0     H 5474   3.877   0.943   5.904 -0.7305  1.5825 -3.1356
   40MOL0     H 5475   3.738   0.838   5.912 -0.0378 -0.2052  0.0587
   40MOL0     H 5476   3.717   0.978   5.718  2.6786  1.4862  0.1548
   40MOL0     H 5477   3.592   1.016   5.845  0.2466 -1.8507  2.6280
   40MOL0     H 5478   3.504   1.119   5.680 -1.4111  0.1535  2.8492
   40MOL0     H 5479   3.292   1.178   5.605 -0.5185 -0.3996  3.7237
   40MOL0     H 5480   3.328   1.328   5.503  3.7703  2.8468  1.7422
   40MOL0     H 5481   3.218   1.322   5.639 -1.8657 -1.4422 -1.6206
   40MOL0     H 5482   3.546   1.912   5.549  0.3846 -1.0975  0.0836
   40MOL0     H 5483   3.451   2.139   5.566  1.1699 -0.1766  1.5984
   40MOL0     H 5484   3.033   2.161   5.694  1.4261 -2.2268 -0.6579
   40MOL0     H 5485   3.049   2.328   5.652 -1.8701  1.3173 -1.6604
   40MOL0     H 5486   2.977   2.105   5.458  2.3286 -1.0356  0.9218
   40MOL0     H 5487   2.898   2.256   5.489  0.2989 -3.1445  1.6694
   40MOL0     H 5488   3.179   2.236   5.373 -0.7911  0.0270 -0.0636
   40MOL0     H 5489   3.101   2.378   5.391  3.7824  0.6884 -1.7246
   40MOL0     H 5490   2.931   2.171   5.232  0.2801  0.9289 -0.1618
   40MOL0     H 5491   3.076   2.178   5.155 -5.5802 -1.5137 -2.8236
   40MOL0     H 5492   2.900   2.419   5.211 -0.0271 -2.6302  1.0857
   40MOL0     H 5493   3.053   2.434   5.119 -1.0515  1.3102 -1.0664
   40MOL0     H 5494   2.915   2.434   4.942 -1.7699  0.0472 -0.4222
   40MOL0     H 5495   2.810   2.310   5.015  0.0463 -0.9470 -1.4286
   40MOL0     H 5496   2.955   2.127   4.956 -1.0828 -0.7876 -0.7386
   40MOL0     H 5497   3.082   2.255   4.925 -1.3426  2.9711  6.1837
   40MOL0     H 5498   2.818   2.274   4.784  1.2708  1.5443  0.9566
   40MOL0     H 5499   2.916   2.139   4.732  0.8185  0.3661 -1.0639
   40MOL0     H 5500   3.106   1.984   5.752  0.6657  1.6000  0.2591
   40MOL0     H 5501   3.202   1.782   5.779  0.7999 -0.2570  1.4136
   40MOL0     H 5502   3.666   1.578   5.768  0.5925 -0.6158  1.6638
   40MOL0     H 5503   3.800   1.382   5.822 -0.1402 -1.9607  1.9390
   40MOL0     H 5504   2.738   1.003   6.823  2.4814 -2.5432  0.5122
   40MOL0     H 5505   2.502   1.041   6.849 -1.4271 -2.8305  2.1858
   40MOL0     H 5506   2.102   1.177   6.624  1.7656  0.0962  1.0920
   40MOL0     H 5507   1.861   1.209   6.623  3.7024  1.7772  1.7770
   40MOL0     H 5508   1.644   1.201   6.684 -2.5164  0.3904  2.2288
   40MOL0     H 5509   1.655   1.086   6.547  3.1291  1.3647  0.7288
   40MOL0     H 5510   1.447   1.032   6.760 -1.7802 -0.1671 -0.2326
   40MOL0     H 5511   1.431   0.984   6.605 -0.0502  0.6334 -1.8451
   40MOL0     H 5512   1.358   1.249   6.697  2.1250  2.1682 -1.6922
   40MOL0     H 5513   1.480   1.262   6.574 -1.8418  0.7102 -1.4972
   40MOL0     H 5514   1.321   1.139   6.418 -0.4054 -1.6136  0.7500
   40MOL0     H 5515   1.228   1.268   6.506 -1.5863 -0.1893 -1.9213
   40MOL0     H 5516   1.045   0.906   6.612  0.1249  0.9052  2.5565
   40MOL0     H 5517   1.837   0.845   6.869  3.4173 -2.1053  1.2448
   40MOL0     H 5518   2.005   0.706   6.908 -0.7433  0.5529 -1.9708
   40MOL0     H 5519   2.148   0.730   6.826 -1.2122 -1.1089 -1.3997
   40MOL0     H 5520   2.125   0.814   6.984 -1.8871  1.1007  0.3813
   41MOL0     O 5521   6.737  10.289  10.892  0.1453 -0.6732  0.2491
   41MOL0     C 5522   6.807  10.290  10.993  0.8903  0.5919 -0.2697
   41MOL0     O 5523   6.869  10.396  11.045 -0.0623 -0.7767 -1.0273
   41MOL0     C 5524   6.907  10.494  10.963 -0.2478  0.1099 -1.0972
   41MOL0     C 5525   6.819  10.591  10.907 -0.1520 -0.6224 -1.0793
   41MOL0     C 5526   6.867  10.690  10.822 -0.4826 -0.8028 -0.9801
   41MOL0     C 5527   7.011  10.706  10.807  0.0496 -0.3766 -0.9015
   41MOL0     O 5528   7.082  10.818  10.758 -0.3999  0.2519  1.3803
   41MOL0     C 5529   7.015  10.941  10.741 -0.4464 -0.1813  0.2603
   41MOL0     C 5530   6.954  11.006  10.872 -0.5342  0.3883  1.4067
   41MOL0     C 5531   7.073  11.047  10.971  0.7373  0.3345  0.0974
   41MOL0     C 5532   7.013  11.099  11.106  0.8324  0.0382 -1.3664
   41MOL0     C 5533   6.904  11.009  11.184 -0.6255 -0.3458 -1.2288
   41MOL0     C 5534   6.958  10.866  11.220  0.7693 -0.2428 -0.4463
   41MOL0     C 5535   6.836  10.775  11.264 -0.4093  0.0334 -0.5403
   41MOL0     C 5536   6.861  10.668  11.370  0.0705 -0.0746  0.0848
   41MOL0     N 5537   6.910  10.740  11.487  0.4076  0.2556  0.2086
   41MOL0     C 5538   6.840  10.768  11.603 -0.3256  0.7952  0.2355
   41MOL0     C 5539   6.930  10.797  11.696 -0.0758 -0.4107 -0.3504
   41MOL0     C 5540   6.900  10.833  11.837  0.3219  0.1177  0.1295
   41MOL0     C 5541   6.978  10.966  11.891  0.2010  0.1469  0.1746
   41MOL0     C 5542   6.985  10.993  12.039  0.1199  0.8589 -0.6101
   41MOL0     C 5543   7.051  11.116  12.088  0.7604 -0.4297 -0.3156
   41MOL0     O 5544   7.103  11.098  12.216  0.1671  1.6779  0.6560
   41MOL0     C 5545   7.140  11.216  12.283 -0.0910  0.3625  0.0295
   41MOL0     C 5546   7.163  11.340  12.218 -0.0459  0.7618  0.1978
   41MOL0     C 5547   7.196  11.451  12.299  1.0071 -0.0463  0.7521
   41MOL0     C 5548   7.208  11.590  12.240 -0.1739  0.3026  0.8392
   41MOL0     C 5549   7.192  11.448  12.444  0.5437 -0.5939 -0.8294
   41MOL0     C 5550   7.224  11.558  12.540  0.5399  0.4244  1.1267
   41MOL0     O 5551   7.327  11.531  12.622 -0.1320  0.4615  0.1405
   41MOL0     C 5552   7.353  11.600  12.739  0.1031  0.0365  0.5450
   41MOL0     C 5553   7.484  11.600  12.780 -0.1600  0.0995 -0.8558
   41MOL0     C 5554   7.529  11.647  12.897  0.1505 -0.2566  0.3538
   41MOL0     C 5555   7.439  11.697  12.989  0.7890  0.0379 -0.1233
   41MOL0     O 5556   7.454  11.741  13.121  0.2732  0.5138  0.1601
   41MOL0     C 5557   7.564  11.712  13.195 -0.7190  0.2871  0.7034
   41MOL0     C 5558   7.552  11.787  13.326  0.6933  0.0783 -0.4865
   41MOL0     C 5559   7.423  11.751  13.413 -0.3393 -0.4736 -0.0150
   41MOL0     C 5560   7.294  11.825  13.370  0.5216  0.3057 -0.7900
   41MOL0     C 5561   7.188  11.845  13.488 -0.6394  0.0185  0.1235
   41MOL0     C 5562   7.223  11.932  13.605  0.4656 -0.1158 -0.1649
   41MOL0     C 5563   7.288  12.074  13.566  0.2555  0.5014  0.4650
   41MOL0     C 5564   7.193  12.160  13.477  1.1248  0.1304 -0.2106
   41MOL0    Cl 5565   7.028  12.198  13.556 -0.2610 -0.3095  0.1910
   41MOL0     C 5566   7.309  11.707  12.953  0.0861 -0.3011 -0.5797
   41MOL0     C 5567   7.262  11.666  12.833  0.1701  1.2299 -0.3580
   41MOL0     O 5568   7.147  11.653  12.553 -0.3671 -0.9413 -0.8614
   41MOL0     C 5569   7.179  11.320  12.499  0.5499  0.5560 -0.2346
   41MOL0     C 5570   7.161  11.204  12.419  1.2570 -0.6227  0.4305
   41MOL0     N 5571   7.056  10.776  11.639  0.2913 -0.1322  0.5247
   41MOL0     N 5572   7.038  10.734  11.518  0.2769 -1.2803  0.2999
   41MOL0     C 5573   7.092  10.609  10.861  0.1145 -0.2417 -0.1678
   41MOL0     C 5574   7.039  10.508  10.939 -0.0005 -0.0296  0.9998
   41MOL0     C 5575   6.794  10.170  11.081 -0.9594 -1.0440 -0.1012
   41MOL0     C 5576   6.773  10.200  11.222  0.0586  0.9633 -0.2234
   41MOL0     C 5577   6.750  10.102  11.319  0.1534 -0.1456  0.2082
   41MOL0     C 5578   6.765   9.968  11.281  1.5430  0.1498 -0.6211
   41MOL0     O 5579   6.731   9.853  11.359 -0.3228 -0.6203  0.4974
   41MOL0     C 5580   6.664   9.878  11.487 -0.9032  0.7794  1.0370
   41MOL0     C 5581   6.638   9.743  11.556 -0.3057  0.1636  0.4122
   41MOL0     C 5582   6.597   9.627  11.461 -1.1141 -0.0908  0.0502
   41MOL0     C 5583   6.544   9.499  11.524  0.2538 -0.4545 -0.2025
   41MOL0     C 5584   6.538   9.399  11.420 -0.4880 -0.1907 -0.1889
   41MOL0     C 5585   6.543   9.306  11.340  0.5688  0.3304 -0.4454
   41MOL0     C 5586   6.782   9.944  11.143  0.0253  0.0210 -0.0478
   41MOL0     C 5587   6.800  10.035  11.037  0.8944 -0.1743 -0.0191
   41MOL0     C 5588   6.809   9.990  10.894 -0.3125  0.2243 -0.6902
   41MOL0     H 5589   6.711  10.583  10.919 -0.1398  0.9914  0.5775
   41MOL0     H 5590   6.794  10.754  10.773  0.2539  0.1137 -0.8925
   41MOL0     H 5591   6.933  10.937  10.668 -0.3576  0.1769  0.1386
   41MOL0     H 5592   7.096  11.005  10.705  1.6238 -0.4266  3.9959
   41MOL0     H 5593   6.896  11.091  10.834  1.1992  0.3629 -1.5603
   41MOL0     H 5594   6.887  10.937  10.925 -1.5385  0.8632  0.7949
   41MOL0     H 5595   7.148  10.968  10.975 -0.9469 -1.6556 -3.3455
   41MOL0     H 5596   7.122  11.135  10.929 -1.8155  1.1882 -1.3195
   41MOL0     H 5597   7.099  11.142  11.158 -0.0211  0.0071  0.1280
   41MOL0     H 5598   6.957  11.189  11.077 -0.6625 -1.4282 -3.3216
   41MOL0     H 5599   6.811  10.998  11.126 -1.3064  2.4138 -0.8232
   41MOL0     H 5600   6.879  11.061  11.277  3.6068 -0.7505  0.3420
   41MOL0     H 5601   7.001  10.824  11.128 -0.9485 -0.2737 -1.2830
   41MOL0     H 5602   7.029  10.886  11.300  1.0106 -1.2602 -0.4037
   41MOL0     H 5603   6.792  10.733  11.173  0.5294  0.3560 -1.1537
   41MOL0     H 5604   6.761  10.842  11.306 -1.8206 -0.5981 -1.9608
   41MOL0     H 5605   6.763  10.622  11.390  0.4810 -1.8551 -1.6831
   41MOL0     H 5606   6.918  10.579  11.342 -0.6512 -0.8616  1.0170
   41MOL0     H 5607   6.733  10.783  11.615 -1.0809  0.3005 -4.3162
   41MOL0     H 5608   6.924  10.752  11.907 -0.3814 -0.2973 -0.1023
   41MOL0     H 5609   6.792  10.847  11.846  0.1317 -1.8783  1.6331
   41MOL0     H 5610   7.080  10.961  11.851  0.5236 -0.5457  1.0420
   41MOL0     H 5611   6.924  11.047  11.841  0.4720  0.3364  0.1887
   41MOL0     H 5612   6.881  11.000  12.074  0.3775  2.4774 -0.0710
   41MOL0     H 5613   7.025  10.908  12.094  0.7260  0.7515 -1.2078
   41MOL0     H 5614   7.133  11.141  12.020  1.5647 -2.3306 -0.0913
   41MOL0     H 5615   6.978  11.198  12.090  0.1435 -0.9292 -1.5970
   41MOL0     H 5616   7.146  11.342  12.111 -0.7686 -0.9112  0.2607
   41MOL0     H 5617   7.117  11.648  12.259 -0.3066  0.9604 -1.4521
   41MOL0     H 5618   7.225  11.588  12.132 -3.4701  0.3554  0.2365
   41MOL0     H 5619   7.283  11.651  12.291 -0.5185  2.2712 -0.8480
   41MOL0     H 5620   7.556  11.547  12.718 -0.2978 -0.4887 -0.5150
   41MOL0     H 5621   7.636  11.647  12.913  0.5590  6.7689  0.5968
   41MOL0     H 5622   7.580  11.606  13.217  0.5916  0.0063 -1.3122
   41MOL0     H 5623   7.648  11.734  13.129  0.0148 -3.3346  0.2066
   41MOL0     H 5624   7.647  11.767  13.377 -0.3543 -2.2262  0.6527
   41MOL0     H 5625   7.550  11.896  13.315 -0.7215  0.0187 -0.9325
   41MOL0     H 5626   7.451  11.782  13.514 -0.5194  2.0584 -0.6799
   41MOL0     H 5627   7.406  11.643  13.401 -0.4891 -0.5711  0.9980
   41MOL0     H 5628   7.242  11.769  13.292 -0.9570  0.5510 -0.0343
   41MOL0     H 5629   7.315  11.923  13.327 -1.2652  0.6644 -0.9391
   41MOL0     H 5630   7.108  11.889  13.428  2.0801  2.8130 -1.7724
   41MOL0     H 5631   7.152  11.750  13.528 -4.1351  1.1514 -0.0027
   41MOL0     H 5632   7.289  11.878  13.673 -2.3850 -0.4607  2.5770
   41MOL0     H 5633   7.139  11.959  13.670 -0.1315  0.5798 -1.1781
   41MOL0     H 5634   7.368  12.055  13.494 -0.3151 -0.3939  0.0557
   41MOL0     H 5635   7.316  12.124  13.660  1.2024  1.1646 -0.1481
   41MOL0     H 5636   7.178  12.114  13.380  1.1882 -1.7999  0.6514
   41MOL0     H 5637   7.243  12.255  13.457  0.9162  0.6536  1.5580
   41MOL0     H 5638   7.238  11.733  13.031 -0.6227 -1.5984 -0.7651
   41MOL0     H 5639   7.157  11.674  12.810  0.0468  0.9593  0.0890
   41MOL0     H 5640   7.190  11.302  12.605  3.3559  2.9541  0.0131
   41MOL0     H 5641   7.156  11.111  12.474 -1.3322 -0.3064  0.8559
   41MOL0     H 5642   7.199  10.617  10.846  0.2234 -0.1721  0.6540
   41MOL0     H 5643   7.100  10.441  10.998 -2.1653 -0.7520  2.5263
   41MOL0     H 5644   6.770  10.302  11.258  0.8251  0.9893 -0.2196
   41MOL0     H 5645   6.718  10.116  11.422  0.8321 -5.5381  1.4373
   41MOL0     H 5646   6.741   9.932  11.543  0.9050  0.9830 -1.4674
   41MOL0     H 5647   6.582   9.951  11.480  0.9917  2.9960  0.6922
   41MOL0     H 5648   6.556   9.736  11.629 -1.1610 -0.6218 -0.5902
   41MOL0     H 5649   6.733   9.714  11.601  0.0327 -1.2418 -1.0985
   41MOL0     H 5650   6.526   9.667  11.388 -0.1693  0.2313 -0.7250
   41MOL0     H 5651   6.681   9.595  11.398 -0.2691  2.2291 -0.0919
   41MOL0     H 5652   6.443   9.519  11.562  0.4519 -0.8279  0.5307
   41MOL0     H 5653   6.603   9.470  11.612  0.2067 -1.2409 -0.4190
   41MOL0     H 5654   6.533   9.225  11.271 -2.8446 -1.0158  1.4046
   41MOL0     H 5655   6.772   9.837  11.127  0.3734  0.0828 -0.7206
   41MOL0     H 5656   6.902  10.020  10.844 -0.0638  0.9015  0.1429
   41MOL0     H 5657   6.805   9.882  10.874  1.9384  0.4022 -2.5937
   41MOL0     H 5658   6.719  10.035  10.852  0.7077  1.1650 -1.9328
   42MOL0     O 5659   4.405   1.741   1.626 -0.3392  0.5086 -0.3641
   42MOL0     C 5660   4.437   1.625   1.586 -0.6772 -0.4927 -1.0677
   42MOL0     O 5661   4.572   1.582   1.557  0.4202 -0.5153 -0.3430
   42MOL0     C 5662   4.671   1.673   1.556  0.6251  0.0994 -0.3739
   42MOL0     C 5663   4.792   1.622   1.603  0.9521 -0.1758  0.3742
   42MOL0     C 5664   4.904   1.707   1.592 -0.1594 -0.8095 -0.6479
   42MOL0     C 5665   4.890   1.842   1.554 -0.7180 -1.3766 -0.9491
   42MOL0     O 5666   4.993   1.943   1.559  0.4680  1.0280 -1.0286
   42MOL0     C 5667   5.106   1.898   1.640 -0.1117  0.0302  0.2540
   42MOL0     C 5668   5.208   2.012   1.659 -0.3593  0.0334  0.2807
   42MOL0     C 5669   5.248   2.080   1.529  0.5468  0.0420  0.4950
   42MOL0     C 5670   5.354   2.186   1.550  1.3603  0.7049  0.0348
   42MOL0     C 5671   5.324   2.290   1.652 -0.6603  0.5051 -0.0186
   42MOL0     C 5672   5.408   2.418   1.623 -0.5030 -0.2171  0.1735
   42MOL0     C 5673   5.557   2.401   1.608 -0.1251  0.5206  0.8109
   42MOL0     C 5674   5.618   2.537   1.574  0.0960  1.0627 -0.8428
   42MOL0     N 5675   5.585   2.571   1.437 -0.6383  0.3267 -0.2361
   42MOL0     C 5676   5.577   2.695   1.393 -0.1364 -0.0604  0.7143
   42MOL0     C 5677   5.568   2.686   1.254 -1.0387  0.2474 -0.3947
   42MOL0     C 5678   5.554   2.788   1.154  0.0855 -1.3180  0.7088
   42MOL0     C 5679   5.401   2.823   1.137  0.0897  0.1915  0.0113
   42MOL0     C 5680   5.363   2.950   1.215 -0.0695 -0.4929  0.5610
   42MOL0     C 5681   5.210   2.970   1.202  0.5478  0.1421  0.0741
   42MOL0     O 5682   5.158   3.063   1.298 -0.2396  0.2566  0.6622
   42MOL0     C 5683   5.017   3.074   1.324 -0.5722 -0.9756  0.6568
   42MOL0     C 5684   4.975   3.160   1.423  0.2535 -0.1990  0.5794
   42MOL0     C 5685   4.836   3.188   1.439 -0.3621  0.7188  0.0236
   42MOL0     C 5686   4.786   3.294   1.544 -0.1298 -0.3980 -1.0133
   42MOL0     C 5687   4.746   3.127   1.352 -0.3757  0.8043 -0.3626
   42MOL0     C 5688   4.599   3.157   1.359  0.2000  0.1354  0.0219
   42MOL0     O 5689   4.540   3.179   1.236 -0.5197  0.7806 -0.8956
   42MOL0     C 5690   4.410   3.224   1.215 -0.0791  0.8344 -0.1657
   42MOL0     C 5691   4.334   3.307   1.294 -0.5614 -0.0337 -1.0952
   42MOL0     C 5692   4.200   3.336   1.259  0.8862  0.3380  0.3084
   42MOL0     C 5693   4.144   3.306   1.137 -0.6188 -0.1945 -0.6104
   42MOL0     O 5694   4.010   3.323   1.103 -0.9509  0.0742  0.3466
   42MOL0     C 5695   3.946   3.447   1.149 -0.1439  0.3664 -0.4332
   42MOL0     C 5696   3.844   3.509   1.050 -0.3768  0.2927  0.3637
   42MOL0     C 5697   3.706   3.512   1.105  0.8953 -0.4347  0.0287
   42MOL0     C 5698   3.599   3.567   1.000 -0.6270 -0.4539 -0.7456
   42MOL0     C 5699   3.455   3.589   1.057  0.2798  0.4315 -0.8241
   42MOL0     C 5700   3.436   3.724   1.122 -0.1421 -0.2167 -0.0519
   42MOL0     C 5701   3.296   3.768   1.131 -0.0299 -0.4629  0.5176
   42MOL0     C 5702   3.285   3.903   1.198  0.2555  0.2286 -0.2513
   42MOL0    Cl 5703   3.112   3.962   1.184  0.4739 -1.0184  0.1281
   42MOL0     C 5704   4.221   3.217   1.064  0.3886  0.4841 -0.8482
   42MOL0     C 5705   4.355   3.179   1.096 -0.0635  1.0440 -0.1876
   42MOL0     O 5706   4.538   3.121   1.459 -0.4729  0.0036  0.3304
   42MOL0     C 5707   4.790   3.036   1.245  0.2579  0.0345 -0.3870
   42MOL0     C 5708   4.931   3.014   1.234  0.9530 -0.6365  0.0545
   42MOL0     N 5709   5.577   2.554   1.216 -0.8456  0.4721 -0.5627
   42MOL0     N 5710   5.594   2.486   1.327  0.0022  0.0094  0.3963
   42MOL0     C 5711   4.762   1.889   1.516  0.1087  0.5064  0.2006
   42MOL0     C 5712   4.654   1.801   1.516  0.7659  0.8053  0.4461
   42MOL0     C 5713   4.329   1.534   1.573 -0.0038 -0.2986  0.2713
   42MOL0     C 5714   4.361   1.397   1.555 -1.1690 -0.2070 -0.1510
   42MOL0     C 5715   4.272   1.297   1.540 -0.2325  0.0151 -0.1645
   42MOL0     C 5716   4.134   1.325   1.550  0.0084 -1.4419  0.2869
   42MOL0     O 5717   4.053   1.207   1.542 -0.0514 -0.0603  0.1230
   42MOL0     C 5718   3.913   1.218   1.527 -0.8787 -1.3222  0.1684
   42MOL0     C 5719   3.846   1.104   1.444  0.2638 -0.4453 -0.7006
   42MOL0     C 5720   3.855   0.972   1.501 -0.7501 -0.0335 -0.3938
   42MOL0     C 5721   3.822   0.965   1.649  0.3426 -1.0644  0.3229
   42MOL0     C 5722   3.785   0.830   1.701 -0.5809 -0.5177  0.4530
   42MOL0     C 5723   3.767   0.713   1.745  0.4980  0.0697 -0.1144
   42MOL0     C 5724   4.092   1.457   1.549  0.7960 -0.0817  0.3540
   42MOL0     C 5725   4.186   1.562   1.567 -0.1793  0.0306 -0.5987
   42MOL0     C 5726   4.123   1.704   1.585 -0.6313 -0.1871  1.5101
   42MOL0     H 5727   4.798   1.519   1.637 -0.1455 -1.3570 -2.7286
   42MOL0     H 5728   4.998   1.662   1.623 -0.7735 -3.1941 -1.9485
   42MOL0     H 5729   5.152   1.811   1.594 -1.6293 -1.4641  1.4263
   42MOL0     H 5730   5.071   1.849   1.731  2.4223 -0.7901  0.8665
   42MOL0     H 5731   5.162   2.089   1.722 -3.0960  0.7187 -2.2996
   42MOL0     H 5732   5.297   1.960   1.697 -2.8640 -2.6287  3.0442
   42MOL0     H 5733   5.270   2.004   1.452  1.5031 -0.3179  1.0997
   42MOL0     H 5734   5.161   2.139   1.502 -2.0745 -2.9284  1.7816
   42MOL0     H 5735   5.441   2.135   1.594  1.1772  2.3139  2.4857
   42MOL0     H 5736   5.369   2.227   1.450  2.2026 -1.2950 -0.7009
   42MOL0     H 5737   5.356   2.251   1.748  3.0327  1.0382 -0.8833
   42MOL0     H 5738   5.217   2.314   1.651 -1.0662 -1.0586  1.4366
   42MOL0     H 5739   5.367   2.470   1.536 -0.9016  3.0890  2.1571
   42MOL0     H 5740   5.389   2.495   1.698 -1.4888 -0.1037 -0.1745
   42MOL0     H 5741   5.588   2.322   1.539 -1.3536 -0.7177  1.6111
   42MOL0     H 5742   5.614   2.365   1.694  1.0997 -1.3602 -0.6827
   42MOL0     H 5743   5.599   2.621   1.641  0.9789  0.4887  0.1552
   42MOL0     H 5744   5.724   2.512   1.563 -0.9020 -3.1135 -3.1350
   42MOL0     H 5745   5.566   2.788   1.448 -0.9228  1.2956 -1.5690
   42MOL0     H 5746   5.586   2.740   1.060  2.1436 -1.9483  1.6886
   42MOL0     H 5747   5.618   2.876   1.166 -0.6871 -0.7762  0.9150
   42MOL0     H 5748   5.375   2.826   1.030 -1.0670 -0.6446  0.2575
   42MOL0     H 5749   5.350   2.733   1.172 -0.9532  0.2999 -1.1612
   42MOL0     H 5750   5.384   2.921   1.319 -0.9910 -2.5418  0.2266
   42MOL0     H 5751   5.421   3.036   1.182 -3.7264  0.5524 -4.1903
   42MOL0     H 5752   5.184   3.005   1.102 -2.4763 -2.1642 -0.0823
   42MOL0     H 5753   5.152   2.881   1.229 -1.5529  1.5327  0.4256
   42MOL0     H 5754   5.041   3.200   1.499 -0.4829 -1.2478  1.8174
   42MOL0     H 5755   4.750   3.233   1.627 -0.1882 -0.8716 -1.3859
   42MOL0     H 5756   4.701   3.359   1.522 -0.2062 -0.2472 -0.2858
   42MOL0     H 5757   4.877   3.345   1.577  0.9957 -3.8676  1.8390
   42MOL0     H 5758   4.375   3.340   1.388  1.4150 -1.9466 -1.2117
   42MOL0     H 5759   4.144   3.404   1.322 -2.4505  0.0975 -2.1376
   42MOL0     H 5760   3.899   3.431   1.247 -0.1958  2.7813  0.0195
   42MOL0     H 5761   4.028   3.519   1.160  0.4278 -0.1443 -1.2666
   42MOL0     H 5762   3.877   3.611   1.026  0.0672 -0.6429 -3.6624
   42MOL0     H 5763   3.865   3.460   0.955  1.2055  3.3600 -1.0179
   42MOL0     H 5764   3.709   3.584   1.187  4.3834  0.4438 -0.7250
   42MOL0     H 5765   3.670   3.414   1.139 -0.4845  0.4295  1.1961
   42MOL0     H 5766   3.589   3.502   0.912 -4.0765 -1.3703  0.1628
   42MOL0     H 5767   3.638   3.664   0.970  0.1831 -0.3724  0.4980
   42MOL0     H 5768   3.378   3.575   0.981 -1.1929 -0.4861  0.7590
   42MOL0     H 5769   3.434   3.517   1.137 -1.3503  0.5673 -1.1066
   42MOL0     H 5770   3.486   3.796   1.057  4.1579 -1.9474  1.0202
   42MOL0     H 5771   3.488   3.737   1.217 -0.0542 -1.2237  0.0425
   42MOL0     H 5772   3.233   3.696   1.185 -0.9881 -0.3497 -0.4121
   42MOL0     H 5773   3.255   3.783   1.031  1.3478 -0.5213 -0.0730
   42MOL0     H 5774   3.349   3.972   1.141  0.6343  0.2087  0.1481
   42MOL0     H 5775   3.319   3.896   1.301 -0.5565 -0.1568  0.0018
   42MOL0     H 5776   4.182   3.177   0.971 -1.7811 -0.5312  0.4259
   42MOL0     H 5777   4.414   3.123   1.024 -0.3357  1.8410 -1.0508
   42MOL0     H 5778   4.715   3.002   1.174 -1.6631 -0.5194  1.7694
   42MOL0     H 5779   4.968   2.945   1.158  2.6670 -0.0080  0.2763
   42MOL0     H 5780   4.752   1.994   1.492  2.1764  1.5574  3.2682
   42MOL0     H 5781   4.562   1.838   1.473 -0.6417 -2.6003  0.2249
   42MOL0     H 5782   4.465   1.369   1.567 -0.4123  3.0910  2.4839
   42MOL0     H 5783   4.310   1.196   1.529  0.9171  0.1846  1.7974
   42MOL0     H 5784   3.888   1.216   1.634  4.3074  0.2421  1.7026
   42MOL0     H 5785   3.887   1.315   1.485 -1.7446 -0.9553  1.4782
   42MOL0     H 5786   3.891   1.114   1.345  2.6346  0.3984  0.4010
   42MOL0     H 5787   3.740   1.127   1.428  0.2591 -2.5293 -5.9944
   42MOL0     H 5788   3.800   0.896   1.444  1.5373 -1.9394 -0.2438
   42MOL0     H 5789   3.962   0.945   1.500  0.2023  2.8851 -4.7718
   42MOL0     H 5790   3.733   1.023   1.673  0.0605 -1.5578  0.4958
   42MOL0     H 5791   3.904   0.998   1.712  0.7325  0.4590 -0.9158
   42MOL0     H 5792   3.754   0.613   1.781  1.4744 -0.0841 -0.1659
   42MOL0     H 5793   3.986   1.480   1.548  1.2948  2.4954 -0.4236
   42MOL0     H 5794   4.180   1.787   1.542  0.0969  0.1083  2.9728
   42MOL0     H 5795   4.018   1.701   1.556  0.5074 -3.5142 -3.4914
   42MOL0     H 5796   4.126   1.716   1.694  0.1829 -2.0075  1.7114
   43MOL0     O 5797   2.110   4.540   7.121  0.1363  0.3350 -0.4506
   43MOL0     C 5798   2.213   4.585   7.075 -0.4357 -0.2738  0.0183
   43MOL0     O 5799   2.311   4.520   7.015 -0.1460  0.4114  0.5443
   43MOL0     C 5800   2.317   4.383   7.003 -0.2153  0.2682 -0.4148
   43MOL0     C 5801   2.294   4.307   6.887 -0.0723  0.1535  0.1040
   43MOL0     C 5802   2.305   4.172   6.878 -0.7931  0.4174 -0.0971
   43MOL0     C 5803   2.326   4.090   6.996 -0.4088  0.0966  0.3246
   43MOL0     O 5804   2.323   3.954   7.000 -0.2204 -0.0712 -0.3178
   43MOL0     C 5805   2.229   3.891   6.910  0.0957 -0.3348 -0.4378
   43MOL0     C 5806   2.201   3.755   6.974 -0.1139 -0.1069 -0.0612
   43MOL0     C 5807   2.074   3.749   7.053 -0.9620 -0.1659 -0.1491
   43MOL0     C 5808   2.084   3.773   7.198 -0.3713 -0.0170  0.5099
   43MOL0     C 5809   1.965   3.708   7.277 -0.6657  0.5190 -0.3348
   43MOL0     C 5810   1.824   3.773   7.265  0.5202 -0.1027  0.2954
   43MOL0     C 5811   1.807   3.912   7.337 -1.3354 -0.7543 -0.1533
   43MOL0     C 5812   1.851   3.906   7.482  0.0068  1.1113 -0.2729
   43MOL0     N 5813   1.792   4.013   7.562 -0.5357  0.3571 -0.0787
   43MOL0     C 5814   1.669   4.017   7.627 -0.0036  0.8866 -0.4389
   43MOL0     C 5815   1.675   4.102   7.729 -0.2789 -0.3395 -0.7239
   43MOL0     C 5816   1.564   4.144   7.823 -0.6057  0.4813 -0.7709
   43MOL0     C 5817   1.477   4.232   7.741  0.7262 -0.5397  0.0051
   43MOL0     C 5818   1.529   4.378   7.706 -0.2631  0.9616  0.0406
   43MOL0     C 5819   1.624   4.434   7.804 -0.7378 -0.0540  0.3943
   43MOL0     O 5820   1.649   4.568   7.743  0.0854 -0.2084  0.7053
   43MOL0     C 5821   1.630   4.670   7.825  0.1914  0.0934 -1.0567
   43MOL0     C 5822   1.563   4.775   7.780 -0.3180 -0.2386  0.4786
   43MOL0     C 5823   1.532   4.882   7.865 -0.8809 -0.5717  1.2067
   43MOL0     C 5824   1.441   4.987   7.796  0.0381  0.5142  0.4228
   43MOL0     C 5825   1.577   4.879   7.996 -0.4698  0.6097 -0.3167
   43MOL0     C 5826   1.537   4.989   8.090 -1.1458  0.0536  0.3823
   43MOL0     O 5827   1.524   4.948   8.221 -0.5314 -0.1239 -0.4008
   43MOL0     C 5828   1.494   5.044   8.318 -0.3670 -0.6220 -0.1103
   43MOL0     C 5829   1.572   5.152   8.355 -0.6912  0.3417  0.5801
   43MOL0     C 5830   1.539   5.236   8.468  0.1248 -0.0421  0.3811
   43MOL0     C 5831   1.413   5.223   8.532 -0.9730  0.5950 -0.6694
   43MOL0     O 5832   1.385   5.290   8.643 -0.1604 -0.1305 -0.2510
   43MOL0     C 5833   1.493   5.366   8.707 -0.2359 -0.5909 -1.0064
   43MOL0     C 5834   1.424   5.447   8.820  0.3327 -0.6147  0.3028
   43MOL0     C 5835   1.433   5.382   8.952  1.0959 -0.5903 -0.3182
   43MOL0     C 5836   1.343   5.258   8.966  0.7143  0.0763  0.0019
   43MOL0     C 5837   1.374   5.154   9.077 -0.0678  0.6661  0.5013
   43MOL0     C 5838   1.377   5.217   9.215 -0.4039  0.6221  0.0370
   43MOL0     C 5839   1.240   5.270   9.255  0.3116  0.2472  0.5748
   43MOL0     C 5840   1.224   5.347   9.375  0.6990 -0.8938 -0.4987
   43MOL0    Cl 5841   1.053   5.377   9.419 -0.1976  0.3419  0.2300
   43MOL0     C 5842   1.331   5.118   8.480 -0.6101  0.3235 -0.6780
   43MOL0     C 5843   1.373   5.034   8.380 -0.9906 -0.4044 -0.1599
   43MOL0     O 5844   1.527   5.109   8.047 -0.5551  0.4041  0.4804
   43MOL0     C 5845   1.661   4.769   8.045  0.5054 -0.3805  0.3839
   43MOL0     C 5846   1.687   4.671   7.957 -0.1008  0.0545 -0.0408
   43MOL0     N 5847   1.804   4.155   7.726  0.1192  0.4419 -0.0087
   43MOL0     N 5848   1.871   4.089   7.641 -1.0876 -0.5624  0.6405
   43MOL0     C 5849   2.354   4.158   7.113  0.5014 -0.5897  0.6187
   43MOL0     C 5850   2.349   4.300   7.118 -0.3655 -0.4782 -0.1439
   43MOL0     C 5851   2.231   4.732   7.072 -0.6091  0.2426 -0.4032
   43MOL0     C 5852   2.357   4.787   7.097  0.2118  0.9375  0.6880
   43MOL0     C 5853   2.382   4.921   7.098  0.2808  0.3296 -1.0542
   43MOL0     C 5854   2.271   5.013   7.080 -0.3877  0.6653 -0.1659
   43MOL0     O 5855   2.295   5.149   7.103 -0.3947  0.3343 -0.1722
   43MOL0     C 5856   2.413   5.188   7.174 -0.7023  0.2949 -0.2532
   43MOL0     C 5857   2.419   5.343   7.187  0.0784 -0.4219  0.4695
   43MOL0     C 5858   2.332   5.399   7.304  0.6331  0.5759  0.3280
   43MOL0     C 5859   2.322   5.554   7.288 -0.7256 -0.1100  0.6459
   43MOL0     C 5860   2.251   5.605   7.175  0.7602 -0.3393  0.1589
   43MOL0     C 5861   2.188   5.661   7.090  0.1763  0.2005  0.6503
   43MOL0     C 5862   2.149   4.958   7.039 -0.5624  1.0966  1.0045
   43MOL0     C 5863   2.126   4.822   7.037 -0.5142 -0.1088  0.8995
   43MOL0     C 5864   1.988   4.769   7.001 -0.2029 -0.2889 -0.4401
   43MOL0     H 5865   2.276   4.365   6.797 -1.6831 -0.0630  0.2577
   43MOL0     H 5866   2.298   4.123   6.781  2.1294 -1.3230  0.4562
   43MOL0     H 5867   2.239   3.893   6.801  1.3919 -2.2533 -0.4057
   43MOL0     H 5868   2.140   3.953   6.922 -0.5316 -1.0593 -1.2343
   43MOL0     H 5869   2.184   3.690   6.887 -2.2443  1.0694 -0.5940
   43MOL0     H 5870   2.277   3.708   7.037 -2.3575 -0.9313  2.1830
   43MOL0     H 5871   1.995   3.811   7.010 -1.3640 -1.6261 -1.5789
   43MOL0     H 5872   2.034   3.648   7.054 -2.8875  0.5537  0.9006
   43MOL0     H 5873   2.171   3.718   7.235 -1.7508 -2.7143 -0.0266
   43MOL0     H 5874   2.094   3.881   7.210  3.0629  0.5343 -4.2898
   43MOL0     H 5875   1.998   3.702   7.381  2.7117 -0.8304 -1.3607
   43MOL0     H 5876   1.960   3.604   7.243  0.1156  0.0506  0.9228
   43MOL0     H 5877   1.791   3.767   7.161 -1.6532  1.0236  0.8653
   43MOL0     H 5878   1.749   3.703   7.303 -4.1112  2.5821 -2.7979
   43MOL0     H 5879   1.700   3.930   7.342 -1.6637 -1.8832 -1.9024
   43MOL0     H 5880   1.868   3.989   7.289 -1.2550 -1.2245 -0.8274
   43MOL0     H 5881   1.825   3.811   7.530  1.6017  1.2122  0.8944
   43MOL0     H 5882   1.960   3.921   7.485  0.0190  0.9021  0.7575
   43MOL0     H 5883   1.579   3.971   7.586 -0.9397 -0.7348  3.0708
   43MOL0     H 5884   1.609   4.185   7.913 -0.4064 -3.0666  0.9204
   43MOL0     H 5885   1.509   4.060   7.866  3.0984 -2.2856 -0.9209
   43MOL0     H 5886   1.438   4.171   7.659 -1.9856 -1.7899  2.0944
   43MOL0     H 5887   1.393   4.259   7.805  0.2891  1.8184 -1.4630
   43MOL0     H 5888   1.565   4.364   7.604 -0.3224  1.5261 -0.0571
   43MOL0     H 5889   1.442   4.443   7.711 -1.0998  0.1670 -2.6561
   43MOL0     H 5890   1.572   4.435   7.900 -2.9306 -1.5267 -0.7007
   43MOL0     H 5891   1.716   4.376   7.813 -0.5533  0.4552  1.9767
   43MOL0     H 5892   1.537   4.780   7.675  2.3278 -3.4501 -0.4789
   43MOL0     H 5893   1.366   4.941   7.732 -2.7445  2.9653  1.7283
   43MOL0     H 5894   1.495   5.071   7.750  1.2135 -0.0975  0.6549
   43MOL0     H 5895   1.387   5.041   7.874 -0.0229 -0.4151  1.0280
   43MOL0     H 5896   1.667   5.156   8.303 -2.0847  1.4914 -2.0179
   43MOL0     H 5897   1.611   5.311   8.499 -1.7500  1.9789  0.0882
   43MOL0     H 5898   1.577   5.306   8.741 -0.6255 -0.8224 -0.4438
   43MOL0     H 5899   1.524   5.445   8.638  0.1167 -1.2455 -1.6168
   43MOL0     H 5900   1.465   5.547   8.837  2.9611 -1.6989  0.7271
   43MOL0     H 5901   1.319   5.462   8.792 -0.7535 -0.4730  3.9205
   43MOL0     H 5902   1.397   5.459   9.021 -0.1420  1.0133 -2.6394
   43MOL0     H 5903   1.538   5.360   8.973  1.9560 -0.9216 -4.2589
   43MOL0     H 5904   1.337   5.207   8.869  1.7706  0.8594 -0.5038
   43MOL0     H 5905   1.244   5.301   8.980  1.5314  2.6038 -1.3917
   43MOL0     H 5906   1.322   5.058   9.074  0.6730  0.0982  3.1356
   43MOL0     H 5907   1.478   5.144   9.045 -0.3091  0.6135 -0.2887
   43MOL0     H 5908   1.457   5.292   9.211  2.8888 -2.6776 -2.2112
   43MOL0     H 5909   1.408   5.138   9.285  0.7196 -0.2363 -1.3924
   43MOL0     H 5910   1.178   5.183   9.277  3.4613 -1.5946  3.1394
   43MOL0     H 5911   1.205   5.344   9.183  0.2246  1.7278  2.0778
   43MOL0     H 5912   1.258   5.449   9.359  1.2579 -0.9538  0.2516
   43MOL0     H 5913   1.280   5.312   9.463  2.2994 -2.2752 -1.9893
   43MOL0     H 5914   1.229   5.104   8.514 -0.7333  1.7610 -0.4177
   43MOL0     H 5915   1.316   4.947   8.349  1.0510 -0.7666 -3.4309
   43MOL0     H 5916   1.699   4.760   8.146  0.4066 -3.6598  0.2276
   43MOL0     H 5917   1.750   4.590   7.991  0.0264  0.4137  0.5975
   43MOL0     H 5918   2.371   4.101   7.203  2.0195 -1.9993 -0.5051
   43MOL0     H 5919   2.382   4.360   7.202 -4.5037  1.2423  0.4812
   43MOL0     H 5920   2.444   4.725   7.118 -0.4354 -1.2970 -2.5608
   43MOL0     H 5921   2.481   4.959   7.122 -0.2838  1.3835 -0.2585
   43MOL0     H 5922   2.429   5.148   7.275  3.7075 -0.7029 -1.1243
   43MOL0     H 5923   2.503   5.175   7.114  1.3861  4.3272  1.5853
   43MOL0     H 5924   2.396   5.377   7.086 -2.5562 -2.0882  0.4190
   43MOL0     H 5925   2.524   5.361   7.209  1.0273 -0.5515 -3.2753
   43MOL0     H 5926   2.235   5.349   7.293  0.3872  1.2921 -0.9144
   43MOL0     H 5927   2.370   5.373   7.403  0.9627  1.2202  0.3764
   43MOL0     H 5928   2.425   5.592   7.286 -1.3478  1.7200  1.0592
   43MOL0     H 5929   2.268   5.597   7.373 -2.3270  0.2955 -0.5360
   43MOL0     H 5930   2.143   5.704   7.003 -0.0609  0.7486  1.0352
   43MOL0     H 5931   2.060   5.013   7.012 -1.6278 -1.5196 -1.3724
   43MOL0     H 5932   1.933   4.741   7.092 -0.2282 -0.9282 -0.6519
   43MOL0     H 5933   1.921   4.843   6.956  0.7608  0.4628 -0.6651
   43MOL0     H 5934   2.001   4.694   6.923  1.7770 -1.3584  0.8483
   44MOL0     O 5935   1.913   0.943   1.912  0.0252 -0.2964 -0.0436
   44MOL0     C 5936   1.804   0.898   1.956 -0.6893  0.9432 -0.4542
   44MOL0     O 5937   1.735   0.961   2.051 -1.3417  0.1300 -0.1848
   44MOL0     C 5938   1.622   0.907   2.095  0.3936  0.6272 -0.7323
   44MOL0     C 5939   1.503   0.938   2.046 -0.2023  1.3990  1.2293
   44MOL0     C 5940   1.383   0.913   2.111 -0.7900  0.4035 -0.3647
   44MOL0     C 5941   1.395   0.856   2.239  0.6603  0.3002 -0.4809
   44MOL0     O 5942   1.274   0.837   2.310  0.7651  1.2194  0.1010
   44MOL0     C 5943   1.261   0.713   2.373  0.0760  0.0199  0.7324
   44MOL0     C 5944   1.113   0.683   2.385  0.2506  0.0680 -0.5107
   44MOL0     C 5945   1.034   0.793   2.457  0.5774 -0.7207 -1.1649
   44MOL0     C 5946   0.898   0.787   2.406 -0.0664  1.0901 -0.2504
   44MOL0     C 5947   0.801   0.864   2.492 -0.2533 -0.0917 -0.1382
   44MOL0     C 5948   0.651   0.830   2.464 -0.1345 -0.2312  0.0473
   44MOL0     C 5949   0.566   0.839   2.588  0.4242 -0.7842  0.6375
   44MOL0     C 5950   0.560   0.978   2.649 -0.5459 -0.6584  0.1884
   44MOL0     N 5951   0.496   0.955   2.782  0.1578 -0.4412  1.2182
   44MOL0     C 5952   0.388   0.878   2.812  0.0413 -0.2519  1.1816
   44MOL0     C 5953   0.387   0.855   2.947  0.4857 -1.5805 -0.8353
   44MOL0     C 5954   0.278   0.822   3.042  0.2477  0.5349  0.2306
   44MOL0     C 5955   0.141   0.880   3.006 -0.0041  0.6878  0.0110
   44MOL0     C 5956   0.136   1.027   3.048  0.2316  0.4217  0.4017
   44MOL0     C 5957   0.220   1.124   2.959 -0.3348  0.6518  0.4923
   44MOL0     O 5958   0.175   1.252   2.976  0.2512 -0.6171 -0.2953
   44MOL0     C 5959   0.206   1.357   2.892  0.1973 -0.2057 -0.2872
   44MOL0     C 5960   0.282   1.347   2.780  0.0045 -0.4330 -0.2138
   44MOL0     C 5961   0.316   1.458   2.698 -0.2073  0.1333  0.1934
   44MOL0     C 5962   0.417   1.422   2.582 -0.3949  0.8692  0.1723
   44MOL0     C 5963   0.271   1.588   2.728  1.5904  0.6553  0.4066
   44MOL0     C 5964   0.295   1.711   2.644  0.6598  0.1570  0.2865
   44MOL0     O 5965   0.379   1.696   2.542  0.5053 -0.4601  0.8412
   44MOL0     C 5966   0.361   1.763   2.415  0.4823 -0.0589 -0.7115
   44MOL0     C 5967   0.326   1.900   2.420  0.1800  0.0343  0.1512
   44MOL0     C 5968   0.324   1.971   2.298  0.7942  0.6851  0.0052
   44MOL0     C 5969   0.327   1.898   2.170  0.0246 -0.9296  0.4559
   44MOL0     O 5970   0.316   1.953   2.044  0.3941 -0.0410  0.0899
   44MOL0     C 5971   0.275   2.092   2.035 -0.0736 -0.7865 -0.0640
   44MOL0     C 5972   0.399   2.182   2.033 -0.4992  0.5560 -0.1002
   44MOL0     C 5973   0.460   2.190   1.893 -0.1702  0.6601  0.6066
   44MOL0     C 5974   0.611   2.203   1.883  0.4398  0.2295 -0.4061
   44MOL0     C 5975   0.645   2.216   1.730 -0.1450 -0.3004  0.0629
   44MOL0     C 5976   0.793   2.182   1.688 -0.2719  0.9719 -0.0626
   44MOL0     C 5977   0.895   2.266   1.770  0.0397  1.1639  0.3000
   44MOL0     C 5978   1.038   2.229   1.748  0.5549  0.2492 -0.1684
   44MOL0    Cl 5979   1.134   2.294   1.890  0.1067 -0.3078 -0.0775
   44MOL0     C 5980   0.335   1.760   2.179  0.5901 -0.7309  0.4308
   44MOL0     C 5981   0.353   1.693   2.297 -0.1980 -0.6349 -0.5971
   44MOL0     O 5982   0.230   1.813   2.667 -1.0770 -0.1614  0.0777
   44MOL0     C 5983   0.199   1.595   2.849  0.3560  0.7560 -0.4676
   44MOL0     C 5984   0.170   1.483   2.933 -0.1077  0.2771 -0.6292
   44MOL0     N 5985   0.506   0.901   3.003  0.0687  0.5622 -0.8275
   44MOL0     N 5986   0.570   0.959   2.898 -0.3530 -0.3714  0.0780
   44MOL0     C 5987   1.515   0.813   2.292 -0.6813  0.1651 -0.3037
   44MOL0     C 5988   1.629   0.838   2.223 -0.0022 -1.0571 -0.3953
   44MOL0     C 5989   1.735   0.800   1.867  0.3220  0.2529 -0.4392
   44MOL0     C 5990   1.741   0.667   1.908  0.2645 -0.7803  0.8276
   44MOL0     C 5991   1.694   0.565   1.836  0.1784 -0.0450 -0.0361
   44MOL0     C 5992   1.626   0.593   1.714  0.6601 -0.3874 -0.8960
   44MOL0     O 5993   1.593   0.500   1.632 -0.3329  0.7826  1.2614
   44MOL0     C 5994   1.453   0.484   1.643 -0.6356  0.0464  0.7714
   44MOL0     C 5995   1.425   0.391   1.767 -0.1989 -0.1099  0.7372
   44MOL0     C 5996   1.502   0.261   1.775  0.0900  0.7620  0.0172
   44MOL0     C 5997   1.497   0.197   1.915 -0.6709  0.7973 -1.0519
   44MOL0     C 5998   1.595   0.235   2.012 -0.1766  0.6899 -0.7159
   44MOL0     C 5999   1.655   0.297   2.102 -0.0103  0.5840 -0.3545
   44MOL0     C 6000   1.619   0.729   1.673  0.9704  0.0015 -0.1585
   44MOL0     C 6001   1.665   0.837   1.749 -0.2537 -0.0742 -0.0666
   44MOL0     C 6002   1.662   0.972   1.688 -0.1007 -0.6518 -0.3273
   44MOL0     H 6003   1.499   1.005   1.961  1.4403 -2.4410 -2.2114
   44MOL0     H 6004   1.281   0.928   2.077 -0.2543 -0.4697 -2.4648
   44MOL0     H 6005   1.305   0.717   2.473 -1.0005  1.4335  1.1790
   44MOL0     H 6006   1.299   0.629   2.313  0.5159  1.5559 -1.2682
   44MOL0     H 6007   1.077   0.665   2.283 -4.5490  2.7763  0.4017
   44MOL0     H 6008   1.093   0.589   2.437  0.8026 -0.1854 -0.7506
   44MOL0     H 6009   1.037   0.767   2.563 -0.9339  2.8708 -0.0683
   44MOL0     H 6010   1.064   0.898   2.447  1.8610 -1.1010 -1.4166
   44MOL0     H 6011   0.889   0.817   2.302  1.1935  0.0169 -0.6825
   44MOL0     H 6012   0.874   0.680   2.418 -1.3893  1.4924  1.1183
   44MOL0     H 6013   0.816   0.971   2.477 -1.6526  0.5500  2.3823
   44MOL0     H 6014   0.825   0.831   2.594  0.1709 -0.0579 -0.2257
   44MOL0     H 6015   0.607   0.885   2.380 -4.5777 -0.2397  2.1064
   44MOL0     H 6016   0.648   0.723   2.443  2.7372 -0.5333  0.6848
   44MOL0     H 6017   0.615   0.774   2.662  1.9209 -0.9478 -0.4580
   44MOL0     H 6018   0.471   0.788   2.569 -0.7926  1.3075  0.8493
   44MOL0     H 6019   0.661   1.019   2.649  0.0610 -2.0891 -1.2709
   44MOL0     H 6020   0.497   1.044   2.588 -0.0268 -1.1798 -0.9295
   44MOL0     H 6021   0.308   0.875   2.739  1.2591 -0.6711 -0.1827
   44MOL0     H 6022   0.300   0.861   3.142  1.5421  1.6277 -0.4470
   44MOL0     H 6023   0.272   0.712   3.045 -3.3615  0.5290 -1.6712
   44MOL0     H 6024   0.117   0.850   2.903  2.6588 -0.2373 -0.4236
   44MOL0     H 6025   0.061   0.836   3.067  1.6101  0.4913  2.0767
   44MOL0     H 6026   0.035   1.066   3.064  0.1964  0.4443  0.1339
   44MOL0     H 6027   0.173   1.031   3.151  0.9477 -1.3547  0.2449
   44MOL0     H 6028   0.327   1.115   2.977 -0.0538  1.3763 -0.7384
   44MOL0     H 6029   0.212   1.099   2.853  2.1977 -2.4853  0.8823
   44MOL0     H 6030   0.330   1.252   2.758 -1.1742 -1.3032  0.8376
   44MOL0     H 6031   0.360   1.423   2.488  0.3906  0.3280 -0.3206
   44MOL0     H 6032   0.455   1.320   2.583 -3.0241 -0.3437 -3.2196
   44MOL0     H 6033   0.503   1.488   2.572  0.5014  0.1372  2.4029
   44MOL0     H 6034   0.318   1.949   2.517  0.7716  0.9859 -0.2674
   44MOL0     H 6035   0.322   2.079   2.300  0.7530  0.6882 -0.1808
   44MOL0     H 6036   0.207   2.104   1.951  0.5686 -2.5385 -0.8801
   44MOL0     H 6037   0.228   2.137   2.123  0.7332  1.0731 -0.5277
   44MOL0     H 6038   0.371   2.284   2.060 -0.4298 -0.1625  3.2197
   44MOL0     H 6039   0.475   2.158   2.108  0.2521 -2.8536 -1.7679
   44MOL0     H 6040   0.409   2.272   1.841 -0.1382  0.8472  0.8656
   44MOL0     H 6041   0.439   2.103   1.831 -1.1302  1.0925  0.2989
   44MOL0     H 6042   0.658   2.112   1.921 -0.1259  0.3338  0.5855
   44MOL0     H 6043   0.648   2.293   1.933  0.3259  0.4133 -0.6506
   44MOL0     H 6044   0.581   2.146   1.675  1.8884 -0.3745 -2.4060
   44MOL0     H 6045   0.622   2.316   1.691 -1.4103 -0.2143  0.9518
   44MOL0     H 6046   0.809   2.209   1.583 -1.0503 -0.4907 -0.5977
   44MOL0     H 6047   0.813   2.079   1.718 -2.1335  1.7324  4.6015
   44MOL0     H 6048   0.871   2.261   1.877  0.8017 -1.6257  0.4241
   44MOL0     H 6049   0.886   2.373   1.746 -2.4454  1.0168  0.3116
   44MOL0     H 6050   1.078   2.274   1.657  1.0725  0.5395  0.1965
   44MOL0     H 6051   1.031   2.120   1.752 -2.2210  0.3740  0.1053
   44MOL0     H 6052   0.329   1.711   2.083  1.3205 -4.1040  1.9640
   44MOL0     H 6053   0.360   1.584   2.292  1.6454 -0.6461  1.0163
   44MOL0     H 6054   0.161   1.692   2.881 -0.5372  1.5827 -3.6439
   44MOL0     H 6055   0.121   1.499   3.029  2.2563  1.2042  0.5249
   44MOL0     H 6056   1.528   0.778   2.394  4.0623  1.0859 -0.3660
   44MOL0     H 6057   1.730   0.832   2.264 -1.3700 -1.0504  3.3673
   44MOL0     H 6058   1.798   0.647   1.999  1.8621  1.8593  0.5266
   44MOL0     H 6059   1.719   0.462   1.857  2.0813 -0.2687 -2.8120
   44MOL0     H 6060   1.389   0.572   1.651 -2.7419 -1.2795 -0.5355
   44MOL0     H 6061   1.426   0.427   1.553  2.8792  0.6476 -0.8258
   44MOL0     H 6062   1.322   0.359   1.783  0.3861 -1.5011  2.0089
   44MOL0     H 6063   1.450   0.449   1.857 -3.0982 -0.0511  1.6071
   44MOL0     H 6064   1.457   0.187   1.708  2.4791  0.7088 -1.6570
   44MOL0     H 6065   1.606   0.271   1.743 -0.0486 -1.0581 -1.1951
   44MOL0     H 6066   1.509   0.090   1.899 -1.2547  0.1840  1.9841
   44MOL0     H 6067   1.398   0.203   1.961 -0.8871  1.1467 -1.5595
   44MOL0     H 6068   1.707   0.340   2.186 -2.0486  1.1950  0.6554
   44MOL0     H 6069   1.562   0.759   1.585 -0.0262 -1.6560 -0.1160
   44MOL0     H 6070   1.567   1.020   1.713  0.3975 -0.0343  0.4398
   44MOL0     H 6071   1.748   1.034   1.714  0.7124  0.4234 -4.7038
   44MOL0     H 6072   1.659   0.959   1.579 -3.8055 -0.5605 -0.3769
   45MOL0     O 6073   7.466   1.329   1.464  1.0491 -0.4525  0.3687
   45MOL0     C 6074   7.374   1.300   1.533  0.4349  1.0135 -0.1755
   45MOL0     O 6075   7.380   1.224   1.643  0.0457 -0.6813 -1.4321
   45MOL0     C 6076   7.512   1.200   1.690  0.7214 -0.1180 -0.8104
   45MOL0     C 6077   7.609   1.120   1.624  0.0441  0.8811  0.1443
   45MOL0     C 6078   7.735   1.095   1.684  1.4231 -0.1314  0.1497
   45MOL0     C 6079   7.769   1.155   1.808 -0.4520 -0.3282  0.1705
   45MOL0     O 6080   7.886   1.121   1.868 -0.1805 -0.0239  0.0219
   45MOL0     C 6081   7.874   1.012   1.966  0.0353 -0.4774  0.2536
   45MOL0     C 6082   7.976   1.060   2.090 -0.2670  0.0804  0.6074
   45MOL0     C 6083   7.919   1.187   2.151 -0.3949 -0.3627  0.5881
   45MOL0     C 6084   7.822   1.138   2.262  1.0906 -1.1274  1.1950
   45MOL0     C 6085   7.744   1.263   2.306  0.4425  0.4284 -0.2703
   45MOL0     C 6086   7.833   1.355   2.393  0.2002 -0.3709 -0.3006
   45MOL0     C 6087   7.754   1.469   2.457  0.5040  0.0335 -0.3527
   45MOL0     C 6088   7.654   1.424   2.559 -0.1665  0.0722 -0.3489
   45MOL0     N 6089   7.696   1.349   2.682  0.6198 -0.1262  0.7781
   45MOL0     C 6090   7.804   1.385   2.755  0.0839 -0.0143  0.3741
   45MOL0     C 6091   7.815   1.283   2.846 -0.5193 -0.3045  0.8482
   45MOL0     C 6092   7.920   1.270   2.951  0.9495  0.1678  0.5227
   45MOL0     C 6093   7.851   1.238   3.085  0.2746  0.3982 -0.6126
   45MOL0     C 6094   7.939   1.231   3.214 -0.7915  0.3672  0.6480
   45MOL0     C 6095   7.939   1.358   3.284  0.2363 -0.3849  0.9653
   45MOL0     O 6096   8.015   1.456   3.215 -0.0415 -0.6961  0.0151
   45MOL0     C 6097   8.148   1.467   3.243 -0.1807 -1.0065 -1.0528
   45MOL0     C 6098   8.216   1.576   3.188 -0.5371  1.0274  0.4178
   45MOL0     C 6099   8.354   1.601   3.222  0.0393 -0.7692  0.6467
   45MOL0     C 6100   8.420   1.718   3.156  0.6670 -0.7371 -0.8625
   45MOL0     C 6101   8.432   1.513   3.303  0.1564  0.3180 -0.5976
   45MOL0     C 6102   8.570   1.534   3.336  0.1193 -1.0757  0.8781
   45MOL0     O 6103   8.620   1.658   3.358  0.5114 -0.6597 -0.2781
   45MOL0     C 6104   8.751   1.666   3.365  0.7918  0.8815  1.0543
   45MOL0     C 6105   8.810   1.728   3.471  0.1446 -0.4978 -0.7410
   45MOL0     C 6106   8.948   1.752   3.476 -0.2576  0.8708  0.0613
   45MOL0     C 6107   9.031   1.702   3.368 -0.2101 -0.0213  0.8768
   45MOL0     O 6108   9.172   1.704   3.358  0.7181  0.7400  0.5021
   45MOL0     C 6109   9.244   1.668   3.475 -0.2302  0.3184 -0.6859
   45MOL0     C 6110   9.397   1.691   3.454  0.1097  0.2257  0.2272
   45MOL0     C 6111   9.474   1.686   3.580  0.5921 -0.2207 -0.9524
   45MOL0     C 6112   9.512   1.549   3.637  0.2753  0.0783  0.2570
   45MOL0     C 6113   9.616   1.489   3.540 -0.3028  0.6980  0.2796
   45MOL0     C 6114   9.654   1.348   3.571 -0.4946  0.1652 -0.9193
   45MOL0     C 6115   9.767   1.323   3.677 -0.2816  0.2812 -0.5248
   45MOL0     C 6116   9.785   1.178   3.704  0.4563 -0.0104  0.6101
   45MOL0    Cl 6117   9.956   1.157   3.735  0.0528  0.5630  0.3820
   45MOL0     C 6118   8.976   1.645   3.263  1.2291  1.2690 -0.2740
   45MOL0     C 6119   8.835   1.632   3.255  0.6392  0.5240 -0.0842
   45MOL0     O 6120   8.632   1.431   3.338  0.0112 -0.9270 -0.1092
   45MOL0     C 6121   8.364   1.398   3.351  0.0950 -0.4410 -1.2600
   45MOL0     C 6122   8.226   1.373   3.322  0.1012 -0.9580  1.1490
   45MOL0     N 6123   7.713   1.200   2.828 -0.1665  0.7245 -0.2580
   45MOL0     N 6124   7.643   1.232   2.730 -0.5206 -0.0324 -0.1560
   45MOL0     C 6125   7.680   1.241   1.869 -1.0371 -0.6186  0.2410
   45MOL0     C 6126   7.554   1.252   1.816  0.6900 -1.1202 -0.0105
   45MOL0     C 6127   7.240   1.354   1.499  0.3640  0.4787 -1.0100
   45MOL0     C 6128   7.142   1.256   1.522 -0.4512 -0.0215  0.4158
   45MOL0     C 6129   7.010   1.283   1.503 -0.7277  0.3201 -0.4828
   45MOL0     C 6130   6.966   1.415   1.470  0.3884  0.7946  0.0886
   45MOL0     O 6131   6.834   1.449   1.448  0.3174  0.5874 -1.0933
   45MOL0     C 6132   6.725   1.350   1.455 -0.5359  1.3696 -0.1986
   45MOL0     C 6133   6.696   1.309   1.313  0.5221 -0.1126 -0.2685
   45MOL0     C 6134   6.735   1.160   1.277 -0.9249 -0.4958 -0.3092
   45MOL0     C 6135   6.771   1.136   1.124  0.1421  0.2767 -0.8705
   45MOL0     C 6136   6.866   1.235   1.075 -0.9625 -0.1336  0.4357
   45MOL0     C 6137   6.958   1.310   1.035 -1.0963 -0.3942  0.3564
   45MOL0     C 6138   7.062   1.518   1.456  0.6178  0.4906  0.5018
   45MOL0     C 6139   7.198   1.486   1.459 -0.4580 -1.0799  0.0445
   45MOL0     C 6140   7.299   1.595   1.431  0.4868  0.0323 -0.3493
   45MOL0     H 6141   7.590   1.067   1.530 -0.8140  2.6494 -0.7315
   45MOL0     H 6142   7.794   1.009   1.654  1.1510 -0.1067 -0.4731
   45MOL0     H 6143   7.903   0.919   1.917 -0.2994  0.0688 -1.0405
   45MOL0     H 6144   7.771   0.987   1.992 -0.0217 -4.2179 -2.7421
   45MOL0     H 6145   7.981   0.968   2.148  0.5144 -0.2588  0.0133
   45MOL0     H 6146   8.080   1.073   2.059 -1.4604  1.1576 -3.6541
   45MOL0     H 6147   7.992   1.239   2.213  0.5575 -0.4141 -0.4644
   45MOL0     H 6148   7.857   1.247   2.085  2.0624  0.0520 -1.4668
   45MOL0     H 6149   7.753   1.071   2.211  1.3081  1.4942 -3.0108
   45MOL0     H 6150   7.861   1.099   2.356 -1.2216  1.0164  3.2065
   45MOL0     H 6151   7.666   1.214   2.365 -0.3898  1.3242 -0.5913
   45MOL0     H 6152   7.712   1.315   2.216  2.0055 -2.4493 -2.6609
   45MOL0     H 6153   7.897   1.311   2.469 -0.5472  1.6667  1.6061
   45MOL0     H 6154   7.900   1.398   2.318 -0.5199  0.9772 -0.1975
   45MOL0     H 6155   7.708   1.517   2.370  1.7972  1.0093 -0.5345
   45MOL0     H 6156   7.818   1.530   2.521 -2.2288  0.7645  1.9048
   45MOL0     H 6157   7.596   1.506   2.601 -2.9562 -1.3476 -1.1748
   45MOL0     H 6158   7.581   1.357   2.513 -0.4066  0.8269 -1.0973
   45MOL0     H 6159   7.867   1.472   2.742 -0.2413  0.5152  2.1467
   45MOL0     H 6160   7.982   1.358   2.934  2.3583 -0.9533 -0.3425
   45MOL0     H 6161   7.985   1.183   2.937 -2.0988 -2.1220 -0.6598
   45MOL0     H 6162   7.772   1.311   3.103  1.2182  1.0385  1.1748
   45MOL0     H 6163   7.817   1.136   3.066  0.0369  0.4251 -0.3341
   45MOL0     H 6164   7.897   1.163   3.288  0.5219  1.3332  2.3660
   45MOL0     H 6165   8.044   1.210   3.192 -0.4391  2.6485 -0.1261
   45MOL0     H 6166   7.836   1.395   3.295 -0.4350 -2.1294  0.8192
   45MOL0     H 6167   7.978   1.340   3.385  2.4860  2.9364  0.8296
   45MOL0     H 6168   8.163   1.640   3.118 -4.6237 -1.9983  0.3664
   45MOL0     H 6169   8.403   1.803   3.222 -1.3764 -1.6528 -0.1243
   45MOL0     H 6170   8.368   1.734   3.061  2.7184 -1.4350 -2.1736
   45MOL0     H 6171   8.526   1.694   3.140  1.0793 -1.1078  1.9512
   45MOL0     H 6172   8.743   1.782   3.538  2.7575  2.2789 -0.1579
   45MOL0     H 6173   8.985   1.801   3.564  0.7116  0.6429 -0.2117
   45MOL0     H 6174   9.205   1.724   3.561 -0.8920 -0.2982 -0.5779
   45MOL0     H 6175   9.237   1.562   3.497 -3.3749  0.4073 -0.7065
   45MOL0     H 6176   9.441   1.630   3.375  0.6844 -0.1081  0.8001
   45MOL0     H 6177   9.414   1.792   3.416  0.3401  0.6595  1.4411
   45MOL0     H 6178   9.416   1.736   3.657 -1.6959 -2.5114 -1.0422
   45MOL0     H 6179   9.563   1.748   3.566 -1.6515  2.6946 -3.3466
   45MOL0     H 6180   9.415   1.500   3.652 -0.6300  1.9520  0.7728
   45MOL0     H 6181   9.555   1.560   3.736 -0.9059  1.3398  0.6655
   45MOL0     H 6182   9.562   1.474   3.446 -2.3333  0.4394  1.4374
   45MOL0     H 6183   9.698   1.558   3.516 -0.1929  0.8756  1.1309
   45MOL0     H 6184   9.696   1.309   3.478 -2.9976  1.8550 -2.8686
   45MOL0     H 6185   9.572   1.284   3.603  1.6231 -1.5419  1.4955
   45MOL0     H 6186   9.738   1.362   3.774 -1.3782 -0.9197 -0.3455
   45MOL0     H 6187   9.861   1.369   3.645  0.2485 -0.6817 -0.4091
   45MOL0     H 6188   9.751   1.127   3.613 -0.5216  2.2988 -0.3917
   45MOL0     H 6189   9.726   1.138   3.788  1.0223  0.5329  1.2748
   45MOL0     H 6190   9.038   1.601   3.185  0.1667 -0.6108 -0.1100
   45MOL0     H 6191   8.795   1.586   3.165  3.0441  1.8757 -1.9770
   45MOL0     H 6192   8.429   1.338   3.413  1.4713  2.0531 -0.1212
   45MOL0     H 6193   8.181   1.284   3.365  1.6506 -1.9429  0.8073
   45MOL0     H 6194   7.717   1.310   1.945  1.8897  0.8774 -2.3168
   45MOL0     H 6195   7.478   1.318   1.856 -0.1818 -2.0083 -0.1483
   45MOL0     H 6196   7.162   1.150   1.535 -1.6574 -0.4903 -1.2991
   45MOL0     H 6197   6.950   1.193   1.509  2.5334 -1.9532  0.8098
   45MOL0     H 6198   6.744   1.269   1.526  0.2977  5.3533  4.7177
   45MOL0     H 6199   6.642   1.402   1.504  0.6708 -0.6099  4.5218
   45MOL0     H 6200   6.733   1.389   1.248  2.5607 -0.9379 -0.1985
   45MOL0     H 6201   6.589   1.325   1.300  0.1291  0.0365  2.5241
   45MOL0     H 6202   6.834   1.150   1.322  0.1030  2.4847 -1.6484
   45MOL0     H 6203   6.657   1.090   1.308 -0.0240 -1.5706 -0.3906
   45MOL0     H 6204   6.676   1.151   1.072 -0.5176  2.7894  0.8551
   45MOL0     H 6205   6.822   1.041   1.107  0.6093  0.3273  0.1960
   45MOL0     H 6206   7.039   1.371   1.001 -0.7681 -1.6691 -1.2693
   45MOL0     H 6207   7.037   1.617   1.418  2.3943 -0.2115 -2.9183
   45MOL0     H 6208   7.393   1.572   1.482  1.5431 -0.7189 -2.5047
   45MOL0     H 6209   7.319   1.609   1.325 -0.3250  1.0233 -0.3911
   45MOL0     H 6210   7.261   1.694   1.458  0.3016  0.2313 -1.3243
   46MOL0     O 6211   3.044  10.905   9.464  0.0141  0.4227 -0.0311
   46MOL0     C 6212   3.160  10.869   9.465 -1.1394 -0.3069 -0.2384
   46MOL0     O 6213   3.260  10.905   9.375 -0.4909 -0.7782  0.3818
   46MOL0     C 6214   3.233  11.007   9.296 -0.3410 -0.6942 -0.4944
   46MOL0     C 6215   3.275  11.010   9.165  0.6106  0.0331 -0.8290
   46MOL0     C 6216   3.276  11.125   9.084 -0.5968 -0.3034 -1.3350
   46MOL0     C 6217   3.228  11.247   9.137  0.2752  0.0384 -0.2225
   46MOL0     O 6218   3.246  11.367   9.071 -0.1385  0.8063  0.2867
   46MOL0     C 6219   3.138  11.459   9.043  0.7775 -0.3243 -0.5728
   46MOL0     C 6220   3.046  11.408   8.929  0.4833 -0.4020  0.6801
   46MOL0     C 6221   3.124  11.331   8.816 -1.3627 -0.5169  0.1311
   46MOL0     C 6222   3.028  11.305   8.701  0.5077 -0.0174  0.3955
   46MOL0     C 6223   3.078  11.228   8.587  0.2763  0.4190  0.1082
   46MOL0     C 6224   3.138  11.092   8.638 -0.2043  0.3812 -0.6193
   46MOL0     C 6225   3.133  10.994   8.524  0.0657 -0.1345 -0.5412
   46MOL0     C 6226   3.238  11.009   8.419 -0.7168 -0.6568 -0.1573
   46MOL0     N 6227   3.380  11.000   8.476  1.8412 -0.3430  0.5434
   46MOL0     C 6228   3.459  10.884   8.459  0.1876  0.0017 -0.3814
   46MOL0     C 6229   3.581  10.930   8.464 -0.5184 -0.3169 -0.2307
   46MOL0     C 6230   3.701  10.846   8.440 -0.3481 -0.2663  0.1238
   46MOL0     C 6231   3.761  10.823   8.308 -0.0653  0.3124 -0.0880
   46MOL0     C 6232   3.679  10.746   8.203 -0.1959  1.5173 -0.3150
   46MOL0     C 6233   3.653  10.603   8.254  0.2390  0.3352 -1.1616
   46MOL0     O 6234   3.607  10.527   8.134 -0.3269 -0.2527 -0.7952
   46MOL0     C 6235   3.477  10.515   8.099  1.1495 -0.2700  0.1753
   46MOL0     C 6236   3.443  10.433   7.988  0.3547 -0.2045  0.3497
   46MOL0     C 6237   3.310  10.410   7.942 -0.8739 -0.2853  0.6080
   46MOL0     C 6238   3.298  10.319   7.816 -0.3493  0.1241 -0.2797
   46MOL0     C 6239   3.205  10.455   8.024  0.6172 -0.5541 -0.1847
   46MOL0     C 6240   3.061  10.428   8.000  0.2737 -0.8999 -0.3897
   46MOL0     O 6241   3.022  10.342   7.893 -0.8341  0.1271 -0.2969
   46MOL0     C 6242   2.896  10.288   7.889 -0.9520 -0.2891 -0.2995
   46MOL0     C 6243   2.836  10.278   7.767  0.3373 -1.0219  0.4375
   46MOL0     C 6244   2.696  10.245   7.747 -0.1075 -0.4443 -0.6745
   46MOL0     C 6245   2.626  10.212   7.869 -0.0106 -0.5093  0.2363
   46MOL0     O 6246   2.492  10.185   7.874 -0.5464  0.1672 -1.0644
   46MOL0     C 6247   2.408  10.237   7.776 -0.5341  0.4179 -0.6015
   46MOL0     C 6248   2.262  10.236   7.821 -0.3950 -0.5936  0.1996
   46MOL0     C 6249   2.231  10.310   7.948 -1.2104  0.3264  0.5554
   46MOL0     C 6250   2.093  10.369   7.956  0.1423  0.0271 -0.8977
   46MOL0     C 6251   2.071  10.459   8.086 -0.1123 -0.4601 -0.2447
   46MOL0     C 6252   2.045  10.381   8.211 -0.0825  0.4609 -0.1227
   46MOL0     C 6253   2.033  10.472   8.330 -0.6119  0.5076  0.3111
   46MOL0     C 6254   1.895  10.534   8.331  0.4169 -0.7547 -0.2187
   46MOL0    Cl 6255   1.852  10.612   8.491  0.0513  0.2286  0.1416
   46MOL0     C 6256   2.697  10.207   7.990 -0.2879  0.3267  0.1357
   46MOL0     C 6257   2.827  10.233   7.999 -0.8414 -0.1884 -0.1534
   46MOL0     O 6258   2.983  10.467   8.087 -0.1756  0.4647  0.7335
   46MOL0     C 6259   3.237  10.533   8.138 -0.2704  0.2370  0.3217
   46MOL0     C 6260   3.369  10.558   8.181 -0.4759 -0.8339  0.0058
   46MOL0     N 6261   3.578  11.061   8.492 -0.1565 -0.7885 -1.2138
   46MOL0     N 6262   3.458  11.104   8.495  0.3354 -0.1356 -0.2761
   46MOL0     C 6263   3.177  11.247   9.269  0.0165 -0.6387 -0.1634
   46MOL0     C 6264   3.184  11.132   9.343  0.1671  0.0279  0.2970
   46MOL0     C 6265   3.195  10.768   9.568  0.3014 -0.0001 -0.5429
   46MOL0     C 6266   3.330  10.761   9.610  0.7220  0.4204 -0.4523
   46MOL0     C 6267   3.371  10.671   9.712 -0.6174  0.2510 -0.1833
   46MOL0     C 6268   3.285  10.588   9.787  0.5305 -0.7038 -0.0247
   46MOL0     O 6269   3.331  10.498   9.883  0.4834  0.5781  1.2359
   46MOL0     C 6270   3.457  10.468   9.918 -0.3150  0.2525  0.1510
   46MOL0     C 6271   3.490  10.580  10.024 -0.6578 -0.5630  0.1840
   46MOL0     C 6272   3.405  10.589  10.153  0.0653  0.5249 -0.4887
   46MOL0     C 6273   3.424  10.470  10.248  0.0133  0.5867  0.3149
   46MOL0     C 6274   3.348  10.483  10.371  0.5995  0.1513  0.5597
   46MOL0     C 6275   3.297  10.462  10.480 -0.3377  0.1608  0.6135
   46MOL0     C 6276   3.152  10.591   9.741 -0.0186  0.3874  0.7934
   46MOL0     C 6277   3.104  10.681   9.639  1.0276  0.5294  0.2939
   46MOL0     C 6278   2.963  10.655   9.594 -1.5426 -0.2849 -0.1252
   46MOL0     H 6279   3.310  10.921   9.115  1.2030 -0.3152  0.1748
   46MOL0     H 6280   3.315  11.138   8.984 -0.2104 -1.0620 -1.2895
   46MOL0     H 6281   3.166  11.561   9.016  2.4823 -1.0426 -1.6920
   46MOL0     H 6282   3.078  11.474   9.133  0.9571 -2.1116 -0.1145
   46MOL0     H 6283   2.969  11.339   8.964  1.2572 -1.3020  0.6774
   46MOL0     H 6284   3.002  11.492   8.876 -1.2968 -0.1926  2.3884
   46MOL0     H 6285   3.206  11.391   8.775 -2.5651  1.9099  1.1181
   46MOL0     H 6286   3.158  11.237   8.861  1.0517  2.3305  5.0594
   46MOL0     H 6287   2.925  11.275   8.725  0.3227 -0.3376 -0.7591
   46MOL0     H 6288   3.010  11.407   8.665 -3.2816  0.0143  1.8722
   46MOL0     H 6289   3.149  11.288   8.530 -1.1836  1.2699 -0.8835
   46MOL0     H 6290   2.997  11.207   8.517 -0.2405 -1.2205  1.1348
   46MOL0     H 6291   3.236  11.113   8.682 -0.8913  2.0767  0.1878
   46MOL0     H 6292   3.066  11.058   8.713 -1.6684  3.6196 -0.3796
   46MOL0     H 6293   3.029  11.007   8.492  0.0425 -0.7690 -0.7431
   46MOL0     H 6294   3.151  10.897   8.572  1.7807  0.1928 -0.4664
   46MOL0     H 6295   3.220  10.946   8.332  3.5363 -1.6962 -0.4955
   46MOL0     H 6296   3.215  11.108   8.381 -1.2622 -0.4919  0.5685
   46MOL0     H 6297   3.413  10.790   8.432 -1.5860  0.7420 -0.0846
   46MOL0     H 6298   3.681  10.746   8.481 -0.1186 -0.0777  0.7035
   46MOL0     H 6299   3.780  10.895   8.497  0.1416 -0.6209 -0.2411
   46MOL0     H 6300   3.775  10.925   8.269 -2.1717  0.8838  0.4950
   46MOL0     H 6301   3.857  10.772   8.321 -0.0081  0.7281  1.1877
   46MOL0     H 6302   3.591  10.797   8.165 -0.3239  0.4585 -1.4954
   46MOL0     H 6303   3.734  10.744   8.108 -2.8621  1.5153 -1.9373
   46MOL0     H 6304   3.753  10.564   8.277 -0.3803 -1.4844 -1.3986
   46MOL0     H 6305   3.585  10.595   8.339  0.6012  0.2816 -0.8730
   46MOL0     H 6306   3.525  10.389   7.932  0.2616  1.1341 -0.9274
   46MOL0     H 6307   3.245  10.382   7.744  2.7314  1.6351 -1.4024
   46MOL0     H 6308   3.238  10.229   7.828 -1.5645  0.7331 -1.5042
   46MOL0     H 6309   3.398  10.300   7.777  1.4886  5.2435  1.0812
   46MOL0     H 6310   2.883  10.307   7.674 -1.1443  1.6605  0.4024
   46MOL0     H 6311   2.650  10.257   7.649  1.3785  3.0604 -1.0853
   46MOL0     H 6312   2.427  10.342   7.752 -3.9633  0.4136 -4.6806
   46MOL0     H 6313   2.424  10.169   7.692 -2.1650  1.6239 -1.9539
   46MOL0     H 6314   2.207  10.277   7.736  1.4056 -0.3969 -0.9258
   46MOL0     H 6315   2.236  10.130   7.835  0.9329 -1.2662 -1.8867
   46MOL0     H 6316   2.294  10.399   7.941  0.6089 -0.9014  0.7659
   46MOL0     H 6317   2.263  10.273   8.046 -1.8910  1.7406  1.3376
   46MOL0     H 6318   2.014  10.295   7.941  0.2497 -0.4789  0.8206
   46MOL0     H 6319   2.091  10.430   7.865  0.2216  0.3458 -0.6862
   46MOL0     H 6320   2.155  10.523   8.111 -0.1393 -1.2443  2.1018
   46MOL0     H 6321   1.981  10.519   8.067 -1.6145 -1.5639  2.6723
   46MOL0     H 6322   2.123  10.304   8.215  0.9916  1.2641 -3.1096
   46MOL0     H 6323   1.959  10.320   8.182 -0.4276  0.6528  0.4735
   46MOL0     H 6324   2.107  10.552   8.323 -0.5910  0.3660 -2.4384
   46MOL0     H 6325   2.051  10.415   8.422 -2.5433  1.4043  1.3052
   46MOL0     H 6326   1.820  10.456   8.311 -0.6309  0.1076  0.2512
   46MOL0     H 6327   1.884  10.612   8.256 -2.7007 -1.2805 -0.4333
   46MOL0     H 6328   2.646  10.169   8.077 -0.0574  0.5770  0.3836
   46MOL0     H 6329   2.877  10.229   8.095 -1.9476 -1.0408  0.4095
   46MOL0     H 6330   3.153  10.570   8.196  0.7755 -1.6907  3.3206
   46MOL0     H 6331   3.395  10.610   8.272 -1.4901 -0.9404  0.3737
   46MOL0     H 6332   3.154  11.344   9.310  0.5496  0.3392 -2.0479
   46MOL0     H 6333   3.148  11.144   9.445 -1.4769 -3.4384  0.2543
   46MOL0     H 6334   3.398  10.837   9.573  0.3399  0.6351 -0.7208
   46MOL0     H 6335   3.475  10.669   9.741 -0.7538 -1.0512  0.2844
   46MOL0     H 6336   3.447  10.365   9.953  2.0012  0.6769  2.4098
   46MOL0     H 6337   3.533  10.472   9.839 -3.2432 -1.2754 -3.0164
   46MOL0     H 6338   3.478  10.678   9.977  4.3835  0.1982 -0.0941
   46MOL0     H 6339   3.596  10.567  10.051 -0.5042  1.1212  0.4999
   46MOL0     H 6340   3.439  10.675  10.212 -1.4794  1.6425 -1.1567
   46MOL0     H 6341   3.298  10.597  10.132 -0.6398 -3.8843  0.3094
   46MOL0     H 6342   3.531  10.463  10.271  0.3827  0.8776 -1.2248
   46MOL0     H 6343   3.390  10.376  10.204  0.3831  0.7018 -0.2163
   46MOL0     H 6344   3.244  10.450  10.572 -1.5287  0.4227 -0.0266
   46MOL0     H 6345   3.087  10.513   9.779 -0.4747  0.3898  0.0545
   46MOL0     H 6346   2.955  10.651   9.485  1.8692 -0.4078 -0.5002
   46MOL0     H 6347   2.940  10.553   9.627 -2.6449  0.7675  2.6177
   46MOL0     H 6348   2.900  10.729   9.643  1.5253  3.3642 -1.2444
   47MOL0     O 6349   8.189  10.076   3.740  0.5406  0.0484 -0.0695
   47MOL0     C 6350   8.069  10.086   3.694 -1.1615  0.3145  1.2112
   47MOL0     O 6351   8.013  10.192   3.638 -0.1299  0.5929 -0.0307
   47MOL0     C 6352   8.079  10.294   3.581  0.0719 -0.0053 -0.2875
   47MOL0     C 6353   8.120  10.282   3.442 -0.1717  0.5889 -0.2574
   47MOL0     C 6354   8.181  10.394   3.385  0.2777  0.1285 -0.1154
   47MOL0     C 6355   8.201  10.517   3.457 -1.0537  0.1606  0.0766
   47MOL0     O 6356   8.283  10.607   3.399 -0.1624  0.4571  0.1857
   47MOL0     C 6357   8.308  10.730   3.471 -1.1968 -0.5008 -0.8593
   47MOL0     C 6358   8.423  10.713   3.572 -0.1863 -0.7972 -0.3724
   47MOL0     C 6359   8.562  10.757   3.502 -1.0746 -0.3206 -0.5307
   47MOL0     C 6360   8.688  10.717   3.584 -0.2112  0.2304 -0.6467
   47MOL0     C 6361   8.671  10.599   3.689 -0.4776  0.3674 -0.6101
   47MOL0     C 6362   8.808  10.581   3.760 -1.1172 -0.4464 -0.0420
   47MOL0     C 6363   8.800  10.467   3.854 -0.0527 -0.1197 -0.7590
   47MOL0     C 6364   8.715  10.496   3.982 -0.4593  0.7012 -0.8911
   47MOL0     N 6365   8.794  10.468   4.104 -0.1667  0.2817 -0.2392
   47MOL0     C 6366   8.757  10.381   4.203  0.1868 -0.1954 -0.0992
   47MOL0     C 6367   8.865  10.366   4.280 -0.1144 -0.0725  0.0275
   47MOL0     C 6368   8.885  10.264   4.396 -1.2686 -0.6795  0.4995
   47MOL0     C 6369   9.025  10.234   4.447  0.7935  0.0323 -0.5324
   47MOL0     C 6370   9.106  10.139   4.364  0.4627 -0.0006  0.5863
   47MOL0     C 6371   9.143  10.198   4.225  0.4275  0.0768  0.2095
   47MOL0     O 6372   9.220  10.093   4.160 -0.5961  0.1592 -0.2756
   47MOL0     C 6373   9.268  10.116   4.039 -0.1683  0.3609  0.5145
   47MOL0     C 6374   9.229  10.225   3.952 -0.5815 -0.3192 -0.4347
   47MOL0     C 6375   9.301  10.250   3.841  0.7574  0.1959 -0.3590
   47MOL0     C 6376   9.273  10.390   3.773 -0.4559  0.7142 -0.1572
   47MOL0     C 6377   9.392  10.151   3.782 -0.6974  0.9195  0.0890
   47MOL0     C 6378   9.481  10.179   3.666 -0.9700 -0.6819  0.7168
   47MOL0     O 6379   9.512  10.313   3.632  0.3840  0.4082 -0.6820
   47MOL0     C 6380   9.592  10.338   3.525 -0.5865  0.4357  0.0572
   47MOL0     C 6381   9.562  10.299   3.390  0.4681  0.0768 -0.0074
   47MOL0     C 6382   9.647  10.334   3.287 -0.3549  0.2966  0.7857
   47MOL0     C 6383   9.770  10.397   3.308  0.1136  0.1538 -0.1953
   47MOL0     O 6384   9.859  10.423   3.209 -0.0477 -0.8310 -0.4392
   47MOL0     C 6385   9.853  10.368   3.076  1.0933 -0.5644 -0.4489
   47MOL0     C 6386   9.763  10.461   2.987  0.1638  0.7518  1.1956
   47MOL0     C 6387   9.788  10.610   2.977 -0.7138 -0.3528 -0.2044
   47MOL0     C 6388   9.670  10.694   2.905  0.8490 -0.3786 -0.3397
   47MOL0     C 6389   9.693  10.845   2.890  0.6927 -0.5459  0.1799
   47MOL0     C 6390   9.840  10.860   2.842 -0.1456 -1.0262  0.8418
   47MOL0     C 6391   9.860  11.004   2.794 -0.3178  0.9451  0.1555
   47MOL0     C 6392   9.991  11.035   2.717  0.1097 -0.0642  0.1974
   47MOL0    Cl 6393  10.139  11.061   2.826 -0.5609 -0.2109 -0.0114
   47MOL0     C 6394   9.800  10.431   3.437  1.3779  0.3324  0.0964
   47MOL0     C 6395   9.703  10.424   3.536 -0.4927 -0.1019 -1.0124
   47MOL0     O 6396   9.533  10.085   3.612  0.4930 -0.1342 -0.1512
   47MOL0     C 6397   9.397  10.030   3.852 -0.7788  0.1945 -0.4115
   47MOL0     C 6398   9.341  10.013   3.983 -0.3720  0.0318  0.2967
   47MOL0     N 6399   8.963  10.461   4.234  0.0587 -0.0409  0.0199
   47MOL0     N 6400   8.905  10.525   4.138  0.0914 -0.0302 -0.4241
   47MOL0     C 6401   8.180  10.513   3.602  0.1853 -0.5477  0.2871
   47MOL0     C 6402   8.117  10.404   3.661  0.9934 -1.0838  0.0216
   47MOL0     C 6403   7.978   9.972   3.699 -0.5851 -1.1207  0.3185
   47MOL0     C 6404   7.888   9.964   3.603 -0.5130 -0.5125  1.3254
   47MOL0     C 6405   7.803   9.854   3.593  0.0065 -0.2544  0.4970
   47MOL0     C 6406   7.824   9.743   3.684  0.8148  0.3068 -0.4183
   47MOL0     O 6407   7.742   9.625   3.686 -0.6293 -0.3356  0.1459
   47MOL0     C 6408   7.663   9.596   3.571 -1.1989 -0.5623  1.0787
   47MOL0     C 6409   7.572   9.482   3.599  0.3230 -0.4720 -0.3628
   47MOL0     C 6410   7.431   9.528   3.627  0.4240 -0.4710  0.4532
   47MOL0     C 6411   7.369   9.413   3.700 -0.0516 -0.5298 -0.3083
   47MOL0     C 6412   7.398   9.405   3.854  0.6578 -0.1960  0.8978
   47MOL0     C 6413   7.434   9.414   3.971  0.7640 -0.4008 -0.5682
   47MOL0     C 6414   7.912   9.753   3.796  0.7920  0.7784  1.2456
   47MOL0     C 6415   7.984   9.875   3.806 -0.4109 -0.3248 -0.1286
   47MOL0     C 6416   8.071   9.870   3.936  0.5806 -0.0256 -0.3959
   47MOL0     H 6417   8.130  10.187   3.391 -1.6172 -0.2824  0.9641
   47MOL0     H 6418   8.210  10.400   3.280  0.0582  0.6580 -0.1501
   47MOL0     H 6419   8.216  10.765   3.519  0.2824  2.6194 -0.0456
   47MOL0     H 6420   8.354  10.808   3.411 -0.2065 -0.4160 -0.0156
   47MOL0     H 6421   8.406  10.767   3.665  0.0047 -3.3912  1.2623
   47MOL0     H 6422   8.427  10.608   3.603  0.2071 -0.5808  0.3226
   47MOL0     H 6423   8.563  10.709   3.404  1.1109 -0.5002 -0.4561
   47MOL0     H 6424   8.576  10.865   3.493  0.1322 -0.1255  2.4736
   47MOL0     H 6425   8.768  10.693   3.514  2.5468  0.7340  2.1069
   47MOL0     H 6426   8.737  10.804   3.630 -1.0178  1.1061 -1.3834
   47MOL0     H 6427   8.641  10.514   3.625  1.9449 -1.5666  0.6337
   47MOL0     H 6428   8.586  10.614   3.755 -1.3847 -1.3813 -1.2917
   47MOL0     H 6429   8.889  10.572   3.687 -0.9737  2.4374 -0.3781
   47MOL0     H 6430   8.832  10.674   3.813  0.9884 -0.4718 -0.8718
   47MOL0     H 6431   8.905  10.452   3.883 -0.9772 -2.4415  1.8326
   47MOL0     H 6432   8.773  10.377   3.798  3.0326  0.5912 -3.8072
   47MOL0     H 6433   8.684  10.601   3.984  0.0372  0.8895  2.4946
   47MOL0     H 6434   8.625  10.434   3.985  1.9017 -3.0129 -0.1097
   47MOL0     H 6435   8.666  10.323   4.210 -0.1135 -0.0059 -1.9920
   47MOL0     H 6436   8.853  10.168   4.355 -2.2800 -1.8969  3.8813
   47MOL0     H 6437   8.818  10.284   4.479 -3.0350  6.4513 -1.8845
   47MOL0     H 6438   9.076  10.330   4.453  0.4647  0.4685 -3.2736
   47MOL0     H 6439   9.018  10.195   4.549  0.5440 -0.0526 -0.5821
   47MOL0     H 6440   9.194  10.114   4.423 -0.8234 -3.2527  1.3471
   47MOL0     H 6441   9.050  10.050   4.335 -0.6579  0.0528  2.4275
   47MOL0     H 6442   9.065  10.228   4.154  0.6653  2.2619  0.8105
   47MOL0     H 6443   9.207  10.285   4.241 -2.0788  1.5934  2.8719
   47MOL0     H 6444   9.160  10.302   3.984  1.2099  1.0198  0.4151
   47MOL0     H 6445   9.250  10.373   3.667  4.5239 -1.8936 -1.1300
   47MOL0     H 6446   9.355  10.462   3.787  0.8512 -0.8764  0.8279
   47MOL0     H 6447   9.176  10.423   3.810 -0.3612  0.2349  0.5272
   47MOL0     H 6448   9.475  10.236   3.376 -0.5599  1.3085  0.6575
   47MOL0     H 6449   9.624  10.300   3.187 -1.0123  1.6602  0.4595
   47MOL0     H 6450   9.956  10.379   3.040 -0.0313  0.9126 -3.4680
   47MOL0     H 6451   9.821  10.263   3.079  1.6306 -0.7888 -1.7790
   47MOL0     H 6452   9.794  10.423   2.889  1.7446  1.1629  1.5050
   47MOL0     H 6453   9.657  10.449   3.010  0.4852 -0.6723  2.0325
   47MOL0     H 6454   9.888  10.620   2.933  0.0674 -0.2701  1.5021
   47MOL0     H 6455   9.782  10.639   3.082 -1.5650 -2.0771  0.2718
   47MOL0     H 6456   9.567  10.677   2.940  0.8483 -0.2851 -0.2946
   47MOL0     H 6457   9.671  10.650   2.805  0.3935 -1.8741  0.2789
   47MOL0     H 6458   9.626  10.882   2.813  1.3369 -0.2825 -0.2687
   47MOL0     H 6459   9.683  10.908   2.979 -0.1924  0.6561 -0.7383
   47MOL0     H 6460   9.867  10.782   2.770 -0.6473 -1.2044  0.8438
   47MOL0     H 6461   9.907  10.842   2.926  0.6518 -0.1702  0.4160
   47MOL0     H 6462   9.853  11.062   2.887  1.8027  0.8120  0.4417
   47MOL0     H 6463   9.776  11.042   2.734  0.0975  4.4393  1.5230
   47MOL0     H 6464   9.970  11.132   2.671  0.6391  0.0064  0.0958
   47MOL0     H 6465  10.020  10.955   2.647  2.9430  1.3616 -0.4119
   47MOL0     H 6466   9.896  10.481   3.448  0.3264  2.7163 -0.8245
   47MOL0     H 6467   9.734  10.459   3.634  1.0221 -3.6318 -0.0617
   47MOL0     H 6468   9.463   9.954   3.812  0.0490  1.7866 -2.2165
   47MOL0     H 6469   9.349   9.925   4.045 -1.4084 -0.6875 -0.5385
   47MOL0     H 6470   8.212  10.581   3.680 -0.7947 -1.0915  1.1753
   47MOL0     H 6471   8.107  10.401   3.769 -1.7585 -2.3042 -0.1978
   47MOL0     H 6472   7.879  10.042   3.527  3.6613 -1.5404 -0.4891
   47MOL0     H 6473   7.726   9.844   3.518  0.3013 -1.2679  0.3104
   47MOL0     H 6474   7.601   9.678   3.536 -1.8102 -0.8306  1.5157
   47MOL0     H 6475   7.721   9.578   3.480 -3.4539  1.3038 -0.8576
   47MOL0     H 6476   7.612   9.433   3.688  0.9718  2.5154  1.1316
   47MOL0     H 6477   7.583   9.411   3.516  0.5801 -0.7254 -0.1124
   47MOL0     H 6478   7.444   9.614   3.694  0.8097 -0.6476  0.6077
   47MOL0     H 6479   7.380   9.543   3.531 -1.4048  1.3444  1.6175
   47MOL0     H 6480   7.412   9.322   3.658  2.0717 -0.1503  0.9217
   47MOL0     H 6481   7.261   9.413   3.683 -0.4198 -0.2561  1.8463
   47MOL0     H 6482   7.464   9.414   4.074  0.0427 -0.4523 -0.3525
   47MOL0     H 6483   7.916   9.672   3.868 -0.6954  1.2678  1.9152
   47MOL0     H 6484   8.016   9.833   4.023 -3.1660  3.7105 -0.8535
   47MOL0     H 6485   8.165   9.814   3.928  0.4318 -0.1861 -1.0886
   47MOL0     H 6486   8.091   9.971   3.973  1.7850 -1.3301  2.8930
   48MOL0     O 6487   8.601   2.725   6.637  0.0194 -0.0185 -0.5314
   48MOL0     C 6488   8.682   2.718   6.725 -0.4001 -0.2093 -0.0885
   48MOL0     O 6489   8.801   2.655   6.710 -0.6574 -0.0696 -0.2731
   48MOL0     C 6490   8.819   2.544   6.633 -1.1446  0.3900  0.6761
   48MOL0     C 6491   8.728   2.443   6.647  0.2483  0.7365  0.6257
   48MOL0     C 6492   8.748   2.311   6.602 -0.5346 -0.1657 -0.0963
   48MOL0     C 6493   8.859   2.296   6.513  0.1700  0.2219  0.3176
   48MOL0     O 6494   8.864   2.164   6.452 -0.6108  0.0997  0.1224
   48MOL0     C 6495   8.882   2.169   6.310 -0.2623  1.1852  0.4823
   48MOL0     C 6496   8.908   2.019   6.275  0.2513 -0.4091  0.1198
   48MOL0     C 6497   8.876   1.999   6.128 -0.3552  0.3943 -0.1074
   48MOL0     C 6498   8.994   2.063   6.053  0.1651 -0.4255  0.0970
   48MOL0     C 6499   9.016   2.003   5.914 -0.1924  0.2411  0.0134
   48MOL0     C 6500   9.152   2.006   5.860 -0.0479 -0.6240 -0.0817
   48MOL0     C 6501   9.156   1.923   5.730  0.3603 -0.3939  0.0087
   48MOL0     C 6502   9.295   1.912   5.667 -0.4882  0.2836 -0.2782
   48MOL0     N 6503   9.333   2.044   5.626  0.7705 -0.3267  0.1464
   48MOL0     C 6504   9.326   2.092   5.496  0.8674 -0.3683 -0.1752
   48MOL0     C 6505   9.383   2.216   5.509 -0.0183 -0.4455  0.9882
   48MOL0     C 6506   9.397   2.310   5.381  0.0500 -0.2770 -0.6039
   48MOL0     C 6507   9.269   2.341   5.307  0.7307  0.7088  0.0455
   48MOL0     C 6508   9.271   2.463   5.213 -0.2251 -0.3063  0.1635
   48MOL0     C 6509   9.243   2.597   5.288  0.4519 -0.6062  0.1573
   48MOL0     O 6510   9.107   2.592   5.343 -0.6410 -0.3916 -0.3892
   48MOL0     C 6511   9.057   2.696   5.416  0.5630 -0.2160 -0.2269
   48MOL0     C 6512   8.918   2.683   5.456 -0.1128  1.0168  0.8600
   48MOL0     C 6513   8.849   2.788   5.520  0.3225 -0.0808 -0.0360
   48MOL0     C 6514   8.704   2.769   5.555 -0.3783 -0.6488  0.9140
   48MOL0     C 6515   8.923   2.914   5.543  1.2435  0.0395  0.1398
   48MOL0     C 6516   8.854   3.043   5.593  0.9575 -0.3966  0.2962
   48MOL0     O 6517   8.721   3.061   5.566 -0.3570  0.5306  0.1848
   48MOL0     C 6518   8.666   3.188   5.574  0.2975  0.3117 -0.5569
   48MOL0     C 6519   8.688   3.277   5.686  0.3990  0.2907 -0.4791
   48MOL0     C 6520   8.615   3.392   5.688  0.0033 -0.6244 -0.1803
   48MOL0     C 6521   8.540   3.430   5.571 -0.2774 -0.8396  0.7855
   48MOL0     O 6522   8.495   3.558   5.576  0.5339 -0.0797 -0.0942
   48MOL0     C 6523   8.371   3.589   5.510  0.1366  0.4872  0.7226
   48MOL0     C 6524   8.324   3.728   5.559 -0.8213 -0.4058  0.1692
   48MOL0     C 6525   8.360   3.827   5.453  0.0837 -1.1150  0.4225
   48MOL0     C 6526   8.297   3.963   5.480  0.3135 -0.6816 -0.4671
   48MOL0     C 6527   8.337   4.058   5.363 -0.4281 -0.1552 -0.5980
   48MOL0     C 6528   8.265   4.201   5.354  0.0672 -0.1827 -0.5459
   48MOL0     C 6529   8.310   4.291   5.470  0.2667  0.1957  0.7056
   48MOL0     C 6530   8.191   4.394   5.488  0.0328  0.3558 -0.3060
   48MOL0    Cl 6531   8.047   4.327   5.559  0.1956 -0.4541 -0.4745
   48MOL0     C 6532   8.532   3.345   5.460 -0.0633  0.2323 -0.5847
   48MOL0     C 6533   8.598   3.222   5.466  0.6666  0.0345 -0.2057
   48MOL0     O 6534   8.926   3.133   5.644 -0.3376 -0.3655 -0.1622
   48MOL0     C 6535   9.056   2.916   5.506 -0.3914 -0.3683  0.2871
   48MOL0     C 6536   9.122   2.816   5.439 -0.0531 -0.0506  0.3917
   48MOL0     N 6537   9.441   2.237   5.632  0.4935  0.7009  0.6734
   48MOL0     N 6538   9.410   2.124   5.696  0.4912  1.1460 -0.5242
   48MOL0     C 6539   8.950   2.405   6.484 -0.2260 -0.4994  0.6547
   48MOL0     C 6540   8.932   2.528   6.548  0.4454 -0.3201 -0.0282
   48MOL0     C 6541   8.650   2.787   6.858 -0.7300  0.3835  0.3636
   48MOL0     C 6542   8.545   2.879   6.851  0.7248 -0.1203 -0.4415
   48MOL0     C 6543   8.504   2.944   6.964 -0.2797  0.5374  0.1911
   48MOL0     C 6544   8.578   2.922   7.087  0.9900 -0.3591 -0.3183
   48MOL0     O 6545   8.520   2.994   7.184  0.1533 -0.2962  0.4214
   48MOL0     C 6546   8.536   2.965   7.328  0.8801 -0.6967 -0.0625
   48MOL0     C 6547   8.632   3.085   7.373  0.3384 -0.0182  0.2516
   48MOL0     C 6548   8.685   3.066   7.514 -0.0931 -0.8630 -0.9250
   48MOL0     C 6549   8.813   2.982   7.514  0.0063  0.4796  0.1069
   48MOL0     C 6550   8.870   2.964   7.648  0.7653 -0.4538  0.9701
   48MOL0     C 6551   8.890   2.943   7.762  0.8840 -0.8628 -0.5338
   48MOL0     C 6552   8.683   2.847   7.092 -0.0646 -0.3296  0.0725
   48MOL0     C 6553   8.724   2.776   6.981 -0.0831  0.5031  0.6213
   48MOL0     C 6554   8.844   2.682   6.995 -1.4208 -0.2814 -0.3146
   48MOL0     H 6555   8.646   2.455   6.716 -0.9115 -2.5353 -0.0411
   48MOL0     H 6556   8.691   2.222   6.625  0.2732 -1.6501 -3.2544
   48MOL0     H 6557   8.973   2.223   6.282  1.4290 -2.7211 -2.5511
   48MOL0     H 6558   8.794   2.209   6.258 -1.9194 -2.0006  0.5972
   48MOL0     H 6559   9.005   1.975   6.301 -0.2956 -0.6699  1.8991
   48MOL0     H 6560   8.831   1.963   6.330  0.2031  0.3618  0.8543
   48MOL0     H 6561   8.885   1.891   6.111  2.3543  1.0630 -4.3142
   48MOL0     H 6562   8.775   2.033   6.105  0.0028  0.2458 -2.0723
   48MOL0     H 6563   8.979   2.171   6.041 -1.3593 -0.8269 -2.0432
   48MOL0     H 6564   9.085   2.047   6.113  0.1851  2.2108  0.9189
   48MOL0     H 6565   8.951   2.058   5.845  0.1214 -0.5071 -0.9111
   48MOL0     H 6566   8.991   1.898   5.931  0.3144  0.3168  1.2927
   48MOL0     H 6567   9.175   2.110   5.833 -1.4817  0.4517  2.5156
   48MOL0     H 6568   9.227   1.967   5.930 -0.0562 -1.4427 -0.5139
   48MOL0     H 6569   9.094   1.971   5.654  3.2392  0.8512 -1.7659
   48MOL0     H 6570   9.116   1.824   5.752 -3.4115  0.9386 -0.2065
   48MOL0     H 6571   9.370   1.865   5.731  0.1158 -1.1767 -1.9876
   48MOL0     H 6572   9.286   1.859   5.572 -1.9465 -0.3493  0.1868
   48MOL0     H 6573   9.292   2.041   5.406  1.5485  0.0961 -0.7010
   48MOL0     H 6574   9.478   2.273   5.318  0.8658  1.7748 -0.8264
   48MOL0     H 6575   9.423   2.407   5.424  0.1781 -0.3926 -0.4169
   48MOL0     H 6576   9.238   2.252   5.252 -4.7625  1.8979  0.6574
   48MOL0     H 6577   9.182   2.350   5.372 -0.8285 -1.4084 -1.6168
   48MOL0     H 6578   9.357   2.470   5.145 -2.3389 -1.1267 -2.8041
   48MOL0     H 6579   9.191   2.441   5.142 -0.5509  2.7683 -0.5698
   48MOL0     H 6580   9.320   2.603   5.366  0.7071 -1.7724  0.0139
   48MOL0     H 6581   9.236   2.682   5.221  2.8498  2.4552  3.3967
   48MOL0     H 6582   8.860   2.594   5.437 -0.2073  0.3471  3.7527
   48MOL0     H 6583   8.635   2.831   5.499 -0.0618 -3.1728 -2.5896
   48MOL0     H 6584   8.690   2.775   5.664 -1.7291 -0.7025  0.7623
   48MOL0     H 6585   8.673   2.664   5.545  3.0968 -1.7920  0.5090
   48MOL0     H 6586   8.732   3.225   5.770 -0.9624 -0.8225 -0.3970
   48MOL0     H 6587   8.630   3.462   5.770 -0.6621  1.5208 -1.7773
   48MOL0     H 6588   8.373   3.593   5.401  0.8335  2.5544  0.7582
   48MOL0     H 6589   8.297   3.521   5.552  0.4651  0.9939  2.1768
   48MOL0     H 6590   8.215   3.735   5.565 -1.0395  0.8666 -3.2073
   48MOL0     H 6591   8.370   3.747   5.657 -3.7570 -4.3193  2.6466
   48MOL0     H 6592   8.331   3.795   5.352  3.7383  1.6003 -1.7270
   48MOL0     H 6593   8.467   3.835   5.430 -0.1677  1.2723 -0.1936
   48MOL0     H 6594   8.340   4.016   5.565 -1.6446  1.6348 -0.7913
   48MOL0     H 6595   8.189   3.968   5.494 -0.0241 -1.6591 -2.3906
   48MOL0     H 6596   8.446   4.070   5.359 -0.4898  0.2139 -1.3720
   48MOL0     H 6597   8.315   4.008   5.269 -0.2911 -1.1767 -0.1046
   48MOL0     H 6598   8.157   4.183   5.353  0.5290 -3.8093 -2.1260
   48MOL0     H 6599   8.275   4.252   5.258 -0.1746  5.1282  1.8772
   48MOL0     H 6600   8.398   4.347   5.437 -1.9365  3.5332 -0.0963
   48MOL0     H 6601   8.326   4.234   5.562  0.7720  1.2337  1.2799
   48MOL0     H 6602   8.168   4.451   5.397 -2.1407  0.0978  0.0274
   48MOL0     H 6603   8.234   4.464   5.560  0.3989  1.2789 -1.3859
   48MOL0     H 6604   8.464   3.371   5.379 -0.8757  2.4059  0.7018
   48MOL0     H 6605   8.587   3.149   5.386 -1.9809 -0.5692  0.6240
   48MOL0     H 6606   9.113   3.004   5.537  2.3925 -1.3143 -1.7177
   48MOL0     H 6607   9.223   2.831   5.404  0.6113 -0.6227  1.9776
   48MOL0     H 6608   9.027   2.390   6.410 -0.1525  1.6639  0.2371
   48MOL0     H 6609   9.006   2.605   6.532 -1.1613  1.5329  1.0088
   48MOL0     H 6610   8.480   2.903   6.767 -2.0755 -3.3211  0.6042
   48MOL0     H 6611   8.438   3.030   6.956  1.2797  1.6584 -1.3685
   48MOL0     H 6612   8.439   2.967   7.376 -0.4702  2.0613 -2.5949
   48MOL0     H 6613   8.579   2.866   7.346  2.6468  0.0167 -0.1362
   48MOL0     H 6614   8.571   3.175   7.363  0.0681 -0.3484 -1.4048
   48MOL0     H 6615   8.716   3.099   7.305  0.8964  0.5936  1.0461
   48MOL0     H 6616   8.694   3.162   7.566  1.8331 -0.9869 -0.9645
   48MOL0     H 6617   8.618   3.011   7.581  1.0437  2.2117  3.2045
   48MOL0     H 6618   8.882   3.032   7.445 -1.8823  1.0855 -1.4386
   48MOL0     H 6619   8.792   2.879   7.483 -1.7060 -0.3415  3.5189
   48MOL0     H 6620   8.903   2.922   7.866  1.1358 -3.2132 -0.9716
   48MOL0     H 6621   8.746   2.842   7.180  0.7779  2.3159 -0.3210
   48MOL0     H 6622   8.823   2.578   6.969  0.4170 -0.6282 -0.5310
   48MOL0     H 6623   8.918   2.718   6.922 -1.0715 -0.8122 -0.2215
   48MOL0     H 6624   8.881   2.694   7.097  0.9654 -0.1530 -1.1163
   49MOL0     O 6625   5.547  10.423   9.810 -0.0637  0.4993  0.1511
   49MOL0     C 6626   5.597  10.429   9.922  0.5839  0.3734  1.1987
   49MOL0     O 6627   5.649  10.541   9.976 -0.7054  0.1995  0.3025
   49MOL0     C 6628   5.648  10.673   9.913 -0.2582 -0.2210 -0.0290
   49MOL0     C 6629   5.629  10.701   9.776  0.1967 -0.8387 -0.0301
   49MOL0     C 6630   5.631  10.839   9.743  0.1594  0.8850  0.9053
   49MOL0     C 6631   5.686  10.939   9.821  0.0908  0.0893  0.5233
   49MOL0     O 6632   5.686  11.064   9.762 -0.1738  0.5288  1.2748
   49MOL0     C 6633   5.671  11.175   9.839 -0.2860 -0.0713 -0.2363
   49MOL0     C 6634   5.703  11.316   9.771  0.0495  0.4710 -0.9678
   49MOL0     C 6635   5.661  11.426   9.865 -0.5180 -0.1114 -0.7565
   49MOL0     C 6636   5.664  11.559   9.789 -0.0842  0.7229  0.0654
   49MOL0     C 6637   5.633  11.678   9.872 -0.7974 -0.3955 -0.5021
   49MOL0     C 6638   5.711  11.796   9.816 -0.5066 -0.2748 -0.0905
   49MOL0     C 6639   5.669  11.933   9.874 -0.3186 -0.2239 -0.5432
   49MOL0     C 6640   5.732  11.960  10.007  0.7843 -0.5480 -0.9890
   49MOL0     N 6641   5.643  12.061  10.061 -1.2958  0.3001 -0.3714
   49MOL0     C 6642   5.581  12.064  10.179  0.0143 -1.1406  0.4282
   49MOL0     C 6643   5.551  12.192  10.214  0.6158  0.3611 -0.3696
   49MOL0     C 6644   5.494  12.241  10.354 -0.1899  0.2835  0.3731
   49MOL0     C 6645   5.376  12.340  10.339 -1.1981  0.3859 -0.6261
   49MOL0     C 6646   5.342  12.389  10.477  0.4973 -0.3303 -0.3800
   49MOL0     C 6647   5.289  12.286  10.568  0.3697 -1.3263 -0.3384
   49MOL0     O 6648   5.383  12.191  10.619  1.2307 -0.1063  0.1273
   49MOL0     C 6649   5.362  12.062  10.672  1.0186 -0.5804 -0.1981
   49MOL0     C 6650   5.242  12.008  10.730  0.4892 -0.6408 -0.5048
   49MOL0     C 6651   5.220  11.877  10.775 -0.0028 -0.6604 -0.0824
   49MOL0     C 6652   5.086  11.849  10.837  1.4966 -0.3935  0.4674
   49MOL0     C 6653   5.329  11.795  10.758 -0.0143  0.2173 -0.4304
   49MOL0     C 6654   5.319  11.645  10.779 -0.6202 -0.0443 -0.3936
   49MOL0     O 6655   5.414  11.572  10.719 -0.6173  0.6464  0.5720
   49MOL0     C 6656   5.405  11.435  10.741  0.0071 -1.1104 -0.2913
   49MOL0     C 6657   5.525  11.376  10.761 -0.4305 -0.0845 -0.6082
   49MOL0     C 6658   5.548  11.245  10.792  0.5081 -0.0257  1.2701
   49MOL0     C 6659   5.429  11.161  10.805 -1.0125  0.3320  0.4250
   49MOL0     O 6660   5.461  11.035  10.842  0.0614  1.3875 -0.8270
   49MOL0     C 6661   5.357  10.936  10.796 -0.4709  0.3217  0.1969
   49MOL0     C 6662   5.424  10.793  10.836 -0.9437  0.4583 -0.5438
   49MOL0     C 6663   5.336  10.665  10.796 -0.4124 -0.4072 -0.5608
   49MOL0     C 6664   5.364  10.542  10.897  0.4860 -0.5885  0.1991
   49MOL0     C 6665   5.286  10.416  10.849  0.1785  1.0062  0.5275
   49MOL0     C 6666   5.265  10.309  10.954  0.5496  0.5190 -0.0876
   49MOL0     C 6667   5.384  10.242  11.022 -0.5925  0.7110 -0.5927
   49MOL0     C 6668   5.343  10.128  11.109  0.2718 -0.7337 -0.9382
   49MOL0    Cl 6669   5.222  10.185  11.235  0.1314  0.1020  0.0469
   49MOL0     C 6670   5.304  11.222  10.779  0.7572 -0.1102  0.2233
   49MOL0     C 6671   5.294  11.356  10.743 -0.0614  0.6109  1.2415
   49MOL0     O 6672   5.247  11.617  10.874 -0.1245 -1.1729 -0.1104
   49MOL0     C 6673   5.451  11.847  10.706 -1.1747 -0.2395 -0.9518
   49MOL0     C 6674   5.470  11.983  10.680  0.1955  0.1666  0.8325
   49MOL0     N 6675   5.579  12.273  10.106  0.2615 -0.8660 -0.3477
   49MOL0     N 6676   5.639  12.189  10.019 -0.3110 -0.8975 -0.1998
   49MOL0     C 6677   5.700  10.911   9.954 -0.4893 -0.3348  0.3171
   49MOL0     C 6678   5.687  10.776  10.002  0.2428 -0.0803 -0.1148
   49MOL0     C 6679   5.604  10.309  10.017 -0.2614 -0.2081 -1.0658
   49MOL0     C 6680   5.596  10.337  10.155  0.5494 -0.0227  0.0935
   49MOL0     C 6681   5.604  10.234  10.247 -0.3784 -0.0468 -1.0089
   49MOL0     C 6682   5.604  10.103  10.200  0.3174  0.1644  0.5753
   49MOL0     O 6683   5.603   9.999  10.294  0.2924  0.0999 -0.1985
   49MOL0     C 6684   5.498   9.909  10.264 -0.8479  1.3889 -0.7605
   49MOL0     C 6685   5.505   9.790  10.367 -0.6680 -0.6414 -0.8436
   49MOL0     C 6686   5.441   9.659  10.318  0.4563  0.1334  0.4191
   49MOL0     C 6687   5.464   9.627  10.166  0.1457 -0.6655  0.5521
   49MOL0     C 6688   5.610   9.647  10.127  0.5440 -0.0966 -0.7801
   49MOL0     C 6689   5.724   9.657  10.083 -0.1886  0.5315  0.0802
   49MOL0     C 6690   5.618  10.080  10.061  0.3612  0.0631 -0.1622
   49MOL0     C 6691   5.606  10.181   9.969 -0.2579 -0.1466  0.5899
   49MOL0     C 6692   5.606  10.145   9.821  0.3853 -0.2743 -0.1744
   49MOL0     H 6693   5.597  10.623   9.707  0.4015 -0.9635  0.0154
   49MOL0     H 6694   5.590  10.875   9.650 -1.3097 -1.3492  0.6122
   49MOL0     H 6695   5.745  11.154   9.916  0.9313 -1.5380 -1.7508
   49MOL0     H 6696   5.574  11.176   9.891  0.3433  2.8600  1.0823
   49MOL0     H 6697   5.804  11.326   9.732  0.5073 -2.0751 -0.6051
   49MOL0     H 6698   5.639  11.330   9.683  2.6203  1.0742 -2.8639
   49MOL0     H 6699   5.557  11.414   9.896  0.2229  1.9193  3.1483
   49MOL0     H 6700   5.734  11.437   9.946 -3.3375 -3.5074  2.5814
   49MOL0     H 6701   5.759  11.563   9.735 -1.8943 -2.0835 -3.8091
   49MOL0     H 6702   5.594  11.565   9.705 -0.3349 -0.5386  0.1655
   49MOL0     H 6703   5.661  11.657   9.976 -2.8474 -0.9323 -0.0165
   49MOL0     H 6704   5.526  11.698   9.870 -0.6184  0.8954  1.0898
   49MOL0     H 6705   5.820  11.797   9.830 -0.3853  3.7222 -0.2435
   49MOL0     H 6706   5.686  11.801   9.709 -4.3127  1.5084  0.7409
   49MOL0     H 6707   5.560  11.940   9.877 -0.6881 -0.7369 -5.2393
   49MOL0     H 6708   5.700  12.015   9.808  2.2083 -0.4607  0.2539
   49MOL0     H 6709   5.733  11.865  10.062 -0.6129 -0.4421 -0.7442
   49MOL0     H 6710   5.835  11.998  10.005  0.4878  0.2729 -0.9067
   49MOL0     H 6711   5.561  11.979  10.244 -2.7359 -2.8302 -2.3617
   49MOL0     H 6712   5.575  12.274  10.420 -1.3205  2.0440  0.9538
   49MOL0     H 6713   5.467  12.147  10.403 -1.7573  0.2269 -0.5334
   49MOL0     H 6714   5.416  12.420  10.276 -1.7670 -1.5972 -3.6886
   49MOL0     H 6715   5.290  12.294  10.290 -2.0004  2.4968 -1.3260
   49MOL0     H 6716   5.429  12.443  10.515  0.4111 -0.9489  0.7203
   49MOL0     H 6717   5.257  12.456  10.463  0.6978  0.0110  0.0374
   49MOL0     H 6718   5.239  12.345  10.645  2.8724  1.1034 -0.4436
   49MOL0     H 6719   5.214  12.228  10.513 -0.2219  1.7502 -3.1438
   49MOL0     H 6720   5.155  12.071  10.744  0.2514 -1.1783  0.5208
   49MOL0     H 6721   5.022  11.937  10.848  0.4663 -1.3694  3.0845
   49MOL0     H 6722   5.090  11.808  10.939  2.7020  0.1727  0.6605
   49MOL0     H 6723   5.039  11.771  10.775  1.0233 -0.2614  0.6533
   49MOL0     H 6724   5.606  11.448  10.775 -1.4672  0.6352  2.6435
   49MOL0     H 6725   5.646  11.205  10.818 -0.3186 -0.6969  3.5996
   49MOL0     H 6726   5.269  10.963  10.855 -0.4384 -1.4254  1.1180
   49MOL0     H 6727   5.345  10.940  10.687  0.9658 -2.5199 -0.1656
   49MOL0     H 6728   5.514  10.788  10.774 -1.4269 -1.6650 -1.1400
   49MOL0     H 6729   5.447  10.814  10.941 -0.2446  0.0353 -0.6083
   49MOL0     H 6730   5.362  10.621  10.700 -0.5318 -1.1602 -0.2518
   49MOL0     H 6731   5.229  10.688  10.798 -0.0232  1.8226 -1.5839
   49MOL0     H 6732   5.322  10.575  10.992 -1.7136 -2.5981  0.0173
   49MOL0     H 6733   5.469  10.517  10.914  0.3160 -2.6682 -1.4101
   49MOL0     H 6734   5.192  10.442  10.799  0.7460  1.4191 -0.3503
   49MOL0     H 6735   5.343  10.373  10.766  0.4793 -1.3473  1.8704
   49MOL0     H 6736   5.209  10.237  10.894  1.1585 -1.9118  2.0466
   49MOL0     H 6737   5.196  10.346  11.030 -3.9382 -2.3364 -2.3421
   49MOL0     H 6738   5.453  10.298  11.086 -0.7005 -1.8032  1.9409
   49MOL0     H 6739   5.448  10.207  10.940 -1.7745  0.9457 -1.6347
   49MOL0     H 6740   5.431  10.087  11.159 -1.2353 -0.8295  1.8366
   49MOL0     H 6741   5.309  10.046  11.044 -2.2995 -0.7597  0.3426
   49MOL0     H 6742   5.215  11.161  10.795  0.0483  0.8062 -0.1097
   49MOL0     H 6743   5.193  11.393  10.725 -1.3855 -2.7271  0.9570
   49MOL0     H 6744   5.541  11.788  10.690  1.6040  3.4716 -0.3935
   49MOL0     H 6745   5.575  12.005  10.670  0.5738 -1.6760  0.2565
   49MOL0     H 6746   5.728  10.981  10.032  1.3994 -0.6291 -0.0497
   49MOL0     H 6747   5.724  10.755  10.102  2.2072  0.8161 -0.6147
   49MOL0     H 6748   5.593  10.441  10.185  0.8225  0.5188 -1.6099
   49MOL0     H 6749   5.608  10.269  10.350  1.4203  1.5832 -1.5724
   49MOL0     H 6750   5.402   9.960  10.276 -0.9015  1.5570 -1.8442
   49MOL0     H 6751   5.504   9.877  10.160  0.6713  2.4337 -1.0151
   49MOL0     H 6752   5.450   9.817  10.457  2.1287 -1.1798  1.1868
   49MOL0     H 6753   5.614   9.780  10.378 -0.0159  1.4782 -3.9761
   49MOL0     H 6754   5.483   9.575  10.375 -3.1863  0.9548  4.8792
   49MOL0     H 6755   5.340   9.641  10.354  0.9588 -1.5637  1.0973
   49MOL0     H 6756   5.392   9.690  10.113 -2.5069 -3.9935 -0.1682
   49MOL0     H 6757   5.435   9.524  10.146 -0.0601 -0.6805  0.9186
   49MOL0     H 6758   5.823   9.663  10.041 -0.5935 -0.7131 -1.1057
   49MOL0     H 6759   5.644   9.982  10.023  2.8970 -0.3897  2.3211
   49MOL0     H 6760   5.688  10.202   9.775 -1.5285 -0.4115 -4.1840
   49MOL0     H 6761   5.629  10.040   9.803 -0.7622 -0.2204 -2.1459
   49MOL0     H 6762   5.512  10.174   9.774  0.1148  3.9838  2.4253
   50MOL0     O 6763   6.819   1.321   7.616 -0.0516 -0.4723  0.0577
   50MOL0     C 6764   6.794   1.286   7.728  0.7784 -0.1992  0.1289
   50MOL0     O 6765   6.875   1.291   7.838 -0.7300 -0.1996  0.2678
   50MOL0     C 6766   6.976   1.388   7.824 -0.9998  0.2821  0.8850
   50MOL0     C 6767   6.970   1.502   7.891 -0.3327 -0.3243  0.0228
   50MOL0     C 6768   7.052   1.611   7.869 -0.3366 -0.3089 -0.3473
   50MOL0     C 6769   7.153   1.598   7.769  0.0567  1.1331 -0.0420
   50MOL0     O 6770   7.226   1.709   7.726  0.2593  0.2321 -0.2298
   50MOL0     C 6771   7.343   1.745   7.798 -0.1773  0.2908  0.9913
   50MOL0     C 6772   7.333   1.824   7.933  0.4429  0.3916  0.4941
   50MOL0     C 6773   7.303   1.972   7.949 -0.1432  0.9660  0.4412
   50MOL0     C 6774   7.157   1.987   7.963 -0.9428 -0.3537 -0.6857
   50MOL0     C 6775   7.124   2.135   8.010  0.2964  0.9473  0.0048
   50MOL0     C 6776   6.988   2.172   7.951  0.7931  0.3427 -0.1887
   50MOL0     C 6777   6.957   2.324   7.982  0.2365  0.4601  0.8254
   50MOL0     C 6778   6.813   2.363   7.968  0.7435 -0.3946 -0.2015
   50MOL0     N 6779   6.726   2.319   8.076  0.4464 -0.0050 -0.4762
   50MOL0     C 6780   6.613   2.240   8.066 -0.3169 -0.8520  1.1622
   50MOL0     C 6781   6.567   2.221   8.190 -0.4220  0.0446  0.8677
   50MOL0     C 6782   6.434   2.169   8.242  0.0508 -0.5911 -0.7336
   50MOL0     C 6783   6.356   2.277   8.328 -0.7721  0.5562  0.3379
   50MOL0     C 6784   6.214   2.249   8.360  0.0059 -0.8284 -1.3198
   50MOL0     C 6785   6.161   2.360   8.456  0.3652  0.7191 -0.1376
   50MOL0     O 6786   6.129   2.471   8.362 -0.5400 -0.8564 -0.3238
   50MOL0     C 6787   6.048   2.567   8.401 -0.1770  0.2537 -0.9976
   50MOL0     C 6788   5.988   2.654   8.310 -0.2066 -0.0385  0.1595
   50MOL0     C 6789   5.916   2.769   8.337  0.6841  0.3753  0.6857
   50MOL0     C 6790   5.854   2.850   8.231 -0.2473  0.1624  0.0529
   50MOL0     C 6791   5.898   2.796   8.476  0.1306 -0.5274 -0.5107
   50MOL0     C 6792   5.835   2.925   8.529 -0.0190  0.5536 -0.2522
   50MOL0     O 6793   5.819   3.028   8.442  0.2635  0.2827 -0.4746
   50MOL0     C 6794   5.722   3.129   8.456  0.6478  0.4237 -0.4746
   50MOL0     C 6795   5.632   3.157   8.352 -0.0018 -0.3805  0.0158
   50MOL0     C 6796   5.542   3.262   8.356 -0.2216  0.2723 -0.5478
   50MOL0     C 6797   5.553   3.344   8.469 -0.1974  0.8588  0.1353
   50MOL0     O 6798   5.479   3.456   8.483 -0.2456  0.3338 -0.7382
   50MOL0     C 6799   5.352   3.461   8.412  0.4055 -0.8805 -0.5804
   50MOL0     C 6800   5.282   3.583   8.464  0.1246  0.3749  0.6034
   50MOL0     C 6801   5.208   3.559   8.607 -0.6372  0.5466  0.2993
   50MOL0     C 6802   5.280   3.627   8.727 -0.2155 -0.5282 -0.0272
   50MOL0     C 6803   5.219   3.560   8.850  0.4534  0.4003  0.3388
   50MOL0     C 6804   5.259   3.642   8.971  0.3745  0.6545 -0.6410
   50MOL0     C 6805   5.170   3.622   9.105  0.0776 -0.0481 -0.6554
   50MOL0     C 6806   5.072   3.729   9.112 -0.3424 -0.5629 -0.4097
   50MOL0    Cl 6807   4.955   3.757   8.968 -0.0113  0.0665 -0.8712
   50MOL0     C 6808   5.654   3.334   8.557  0.0030  0.2405  0.2419
   50MOL0     C 6809   5.739   3.226   8.554 -0.7334  0.0286  0.1693
   50MOL0     O 6810   5.797   2.924   8.647 -0.1615  0.5729 -0.8892
   50MOL0     C 6811   5.946   2.708   8.573 -0.5698  0.2309  0.1374
   50MOL0     C 6812   6.037   2.610   8.535 -0.1788  1.0907 -0.5863
   50MOL0     N 6813   6.643   2.289   8.279 -0.2268 -0.4852  0.2331
   50MOL0     N 6814   6.734   2.346   8.205  0.2040  0.1985 -0.2505
   50MOL0     C 6815   7.175   1.472   7.707 -0.5377 -0.9780 -0.4585
   50MOL0     C 6816   7.082   1.366   7.738  0.0066 -0.8003 -0.0748
   50MOL0     C 6817   6.663   1.211   7.741  0.1166 -0.4867  0.2495
   50MOL0     C 6818   6.606   1.127   7.638  0.8108 -0.5529 -0.3789
   50MOL0     C 6819   6.503   1.030   7.658  0.8334  0.0234 -0.7980
   50MOL0     C 6820   6.452   1.010   7.787 -0.2041  0.6429 -1.0096
   50MOL0     O 6821   6.376   0.897   7.813  0.6182 -0.4474 -0.0514
   50MOL0     C 6822   6.299   0.897   7.934 -0.0139 -0.7040  0.2640
   50MOL0     C 6823   6.153   0.950   7.930  0.3745  0.0084  0.3162
   50MOL0     C 6824   6.063   0.846   7.854 -0.5122 -0.1208  0.2881
   50MOL0     C 6825   5.924   0.903   7.832 -0.2106  0.1864  0.0591
   50MOL0     C 6826   5.945   0.998   7.718 -0.8582 -0.0072 -0.9018
   50MOL0     C 6827   5.955   1.084   7.636 -0.2778  0.0720  0.4382
   50MOL0     C 6828   6.485   1.113   7.879 -0.0530  0.9024  1.3506
   50MOL0     C 6829   6.579   1.205   7.853 -0.5467  0.5082 -0.2552
   50MOL0     C 6830   6.599   1.304   7.960 -0.5057 -0.0922 -0.4875
   50MOL0     H 6831   6.883   1.519   7.954 -0.7555  1.9924 -1.0626
   50MOL0     H 6832   7.030   1.707   7.914  1.2735 -1.0138  2.1894
   50MOL0     H 6833   7.408   1.798   7.728  3.4324 -5.6824 -0.9186
   50MOL0     H 6834   7.399   1.652   7.813 -1.0396 -0.5288 -0.6087
   50MOL0     H 6835   7.258   1.773   7.994  0.4469  0.0041  0.1756
   50MOL0     H 6836   7.426   1.801   7.987  0.0424  2.9569  2.4899
   50MOL0     H 6837   7.353   2.030   8.027  1.2743  1.1132 -0.5465
   50MOL0     H 6838   7.335   2.029   7.861  0.5504 -0.6246 -0.3656
   50MOL0     H 6839   7.119   1.953   7.866 -0.3803  0.9014 -1.3779
   50MOL0     H 6840   7.123   1.932   8.050  2.7672  2.8843  3.2735
   50MOL0     H 6841   7.197   2.212   7.981 -0.3250  1.1599 -1.0167
   50MOL0     H 6842   7.111   2.132   8.119 -2.2479  3.9397 -0.0772
   50MOL0     H 6843   6.999   2.163   7.843  0.6259  3.4996 -0.5587
   50MOL0     H 6844   6.911   2.100   7.980  0.6813  0.4815 -0.1382
   50MOL0     H 6845   7.008   2.384   7.906 -2.2649  1.3215 -0.3077
   50MOL0     H 6846   6.999   2.350   8.080 -2.2074 -1.2526  2.4741
   50MOL0     H 6847   6.810   2.472   7.969  1.1873 -0.3676  1.3472
   50MOL0     H 6848   6.772   2.345   7.869 -2.1260  0.6842  0.7058
   50MOL0     H 6849   6.564   2.216   7.973 -0.6403  1.3066  0.7334
   50MOL0     H 6850   6.457   2.073   8.290 -0.0819 -0.4670 -0.4198
   50MOL0     H 6851   6.366   2.143   8.160 -0.7968  0.8289 -0.5045
   50MOL0     H 6852   6.409   2.278   8.423 -2.2917 -0.1510  1.2284
   50MOL0     H 6853   6.374   2.367   8.269 -1.3034  2.2794  2.6761
   50MOL0     H 6854   6.138   2.231   8.283 -1.1036 -1.1768 -0.1742
   50MOL0     H 6855   6.215   2.153   8.412  2.3007 -0.0809  0.1492
   50MOL0     H 6856   6.066   2.332   8.503  1.2522  0.4911  1.6154
   50MOL0     H 6857   6.222   2.380   8.545 -2.3042 -1.4122  2.3755
   50MOL0     H 6858   6.007   2.619   8.209 -3.2208  1.8631 -1.2068
   50MOL0     H 6859   5.911   2.942   8.216 -0.0246  0.2616  1.4499
   50MOL0     H 6860   5.755   2.881   8.264  0.6013  0.8404  2.0854
   50MOL0     H 6861   5.848   2.793   8.137  1.3180  2.1707 -1.3690
   50MOL0     H 6862   5.632   3.101   8.260  2.5665  0.5768 -0.6507
   50MOL0     H 6863   5.470   3.270   8.276 -0.4649  2.4263 -0.1780
   50MOL0     H 6864   5.378   3.472   8.306  0.3369 -0.3516 -0.5462
   50MOL0     H 6865   5.301   3.372   8.447  0.8911  0.5025  4.3432
   50MOL0     H 6866   5.356   3.663   8.465  0.7115 -0.1574  1.0787
   50MOL0     H 6867   5.199   3.617   8.402 -1.1038  0.7524  2.3557
   50MOL0     H 6868   5.207   3.452   8.628 -1.9729  0.6339  0.7772
   50MOL0     H 6869   5.104   3.591   8.597 -0.9217  0.4746  2.5242
   50MOL0     H 6870   5.264   3.736   8.725  1.4809 -0.2438  0.8079
   50MOL0     H 6871   5.386   3.603   8.736 -0.5929 -2.3281 -0.1147
   50MOL0     H 6872   5.110   3.559   8.852  0.4080 -0.3536  4.2065
   50MOL0     H 6873   5.254   3.457   8.861 -0.0874  0.2166  0.3352
   50MOL0     H 6874   5.257   3.747   8.938 -0.2728  0.5724 -0.8759
   50MOL0     H 6875   5.359   3.611   9.002  0.0293 -1.2238 -1.2805
   50MOL0     H 6876   5.234   3.614   9.194 -0.1623 -0.7884 -0.5450
   50MOL0     H 6877   5.121   3.525   9.105 -0.5808  0.2748 -0.9502
   50MOL0     H 6878   5.116   3.826   9.135 -0.8374 -0.8717  2.1303
   50MOL0     H 6879   5.006   3.707   9.197  0.0169  1.9921  0.6312
   50MOL0     H 6880   5.660   3.423   8.619 -0.0731  0.7600 -0.4850
   50MOL0     H 6881   5.824   3.226   8.623  1.8568  0.5198 -2.8161
   50MOL0     H 6882   5.941   2.727   8.679 -0.6213 -2.5741  0.7171
   50MOL0     H 6883   6.088   2.557   8.615 -3.5811  1.2008  1.8541
   50MOL0     H 6884   7.248   1.458   7.627 -0.6611  0.0203 -0.7573
   50MOL0     H 6885   7.076   1.271   7.686 -1.5045 -1.2099  0.7653
   50MOL0     H 6886   6.638   1.132   7.535  1.8013  1.1733 -0.0183
   50MOL0     H 6887   6.454   0.967   7.584 -0.5985 -0.7218  0.7066
   50MOL0     H 6888   6.305   0.789   7.953 -0.0639 -1.8317 -4.7500
   50MOL0     H 6889   6.349   0.937   8.023 -2.1795  1.8409  0.4674
   50MOL0     H 6890   6.158   1.050   7.887 -2.8713 -0.1824 -0.7670
   50MOL0     H 6891   6.107   0.967   8.027  1.4997  0.9782  0.7119
   50MOL0     H 6892   6.104   0.812   7.758  0.6090 -0.5063  0.8767
   50MOL0     H 6893   6.047   0.760   7.920  0.7184  0.4641  1.4112
   50MOL0     H 6894   5.886   0.963   7.915  2.5999  1.0293  0.8466
   50MOL0     H 6895   5.847   0.830   7.805  0.7665 -1.2376  1.0001
   50MOL0     H 6896   5.965   1.165   7.567  1.4646 -0.4213  0.0695
   50MOL0     H 6897   6.449   1.100   7.980 -1.9638 -0.3647  0.5770
   50MOL0     H 6898   6.622   1.401   7.916 -0.9482  0.3111  0.1567
   50MOL0     H 6899   6.512   1.314   8.026 -0.4284 -3.6423  0.3733
   50MOL0     H 6900   6.680   1.262   8.020 -0.2335  2.0610  0.7652
   51MOL0     O 6901   3.679   7.792   5.731  0.3387 -0.1707 -1.2181
   51MOL0     C 6902   3.705   7.913   5.733 -0.1671  0.5827 -0.2285
   51MOL0     O 6903   3.643   8.014   5.795  0.3500 -0.5800 -0.2243
   51MOL0     C 6904   3.506   8.010   5.800 -0.7700  0.4463  0.2811
   51MOL0     C 6905   3.422   7.927   5.719  0.6263 -0.1711  0.0721
   51MOL0     C 6906   3.284   7.925   5.732  0.7449  0.0365 -0.1181
   51MOL0     C 6907   3.223   8.038   5.796 -0.2379 -0.2942  0.7899
   51MOL0     O 6908   3.090   8.050   5.787  0.4704 -0.3524 -0.3337
   51MOL0     C 6909   3.023   8.174   5.813  0.2925 -0.2127  0.2463
   51MOL0     C 6910   2.886   8.178   5.754  0.5831 -0.2103 -0.5224
   51MOL0     C 6911   2.769   8.124   5.845 -0.9083  0.0793 -0.1493
   51MOL0     C 6912   2.781   7.970   5.845 -0.3608  0.2828 -0.0487
   51MOL0     C 6913   2.649   7.903   5.853  0.9133 -0.1305 -0.3749
   51MOL0     C 6914   2.560   7.928   5.975  0.5946  0.2626  0.3943
   51MOL0     C 6915   2.617   7.843   6.087  0.0854  0.3645 -0.4091
   51MOL0     C 6916   2.521   7.830   6.204  0.0404  0.6354  0.4078
   51MOL0     N 6917   2.592   7.790   6.327 -0.5923 -0.5446  0.1281
   51MOL0     C 6918   2.559   7.682   6.403  0.3982 -0.0427  0.1591
   51MOL0     C 6919   2.656   7.672   6.493 -0.5502 -0.1616  0.1115
   51MOL0     C 6920   2.652   7.580   6.615 -0.6255  0.0087  0.4269
   51MOL0     C 6921   2.687   7.434   6.571  0.5993 -0.8251 -0.2491
   51MOL0     C 6922   2.691   7.329   6.685 -0.4680 -0.4014 -0.1665
   51MOL0     C 6923   2.828   7.256   6.709 -0.3103  1.1007  1.7164
   51MOL0     O 6924   2.906   7.312   6.813 -0.2289  0.6444 -0.3349
   51MOL0     C 6925   2.866   7.299   6.948  0.3883  0.6067  1.6405
   51MOL0     C 6926   2.747   7.245   6.987 -0.5295  0.5088 -1.1487
   51MOL0     C 6927   2.720   7.243   7.132  1.0625 -0.6520  0.4300
   51MOL0     C 6928   2.572   7.201   7.160 -0.6515 -0.6509  0.2391
   51MOL0     C 6929   2.820   7.266   7.229 -0.0150 -0.5597  0.7194
   51MOL0     C 6930   2.792   7.252   7.377  0.3714 -0.9555  0.2648
   51MOL0     O 6931   2.884   7.310   7.459  0.3619 -0.0047 -0.4074
   51MOL0     C 6932   2.856   7.322   7.595 -0.3864  0.1814  0.5125
   51MOL0     C 6933   2.828   7.452   7.640 -0.5172  0.6268 -0.3301
   51MOL0     C 6934   2.790   7.497   7.767  0.4142 -0.2182  0.3897
   51MOL0     C 6935   2.783   7.399   7.869 -0.5602  0.5872 -0.4372
   51MOL0     O 6936   2.730   7.401   7.991 -0.1205 -0.2354  0.1624
   51MOL0     C 6937   2.648   7.514   8.020 -0.0291 -0.2050  0.0905
   51MOL0     C 6938   2.682   7.571   8.157 -0.2265  0.1101  0.0731
   51MOL0     C 6939   2.643   7.709   8.176 -0.2251 -0.5314 -0.5560
   51MOL0     C 6940   2.501   7.746   8.166  0.3438  0.5272 -0.1366
   51MOL0     C 6941   2.467   7.899   8.152 -0.8741  0.7804  0.2817
   51MOL0     C 6942   2.328   7.936   8.186  0.0795  0.1131 -0.3307
   51MOL0     C 6943   2.282   8.082   8.181 -0.4264  0.6266 -0.7353
   51MOL0     C 6944   2.268   8.134   8.047  0.5119  0.0663  0.4060
   51MOL0    Cl 6945   2.154   8.035   7.952  0.2239  0.0820 -0.1341
   51MOL0     C 6946   2.815   7.265   7.834  0.3026  0.2553 -0.8428
   51MOL0     C 6947   2.850   7.218   7.700 -0.0272 -0.4319 -0.8200
   51MOL0     O 6948   2.694   7.200   7.411  0.1422 -0.6427 -0.0503
   51MOL0     C 6949   2.936   7.320   7.174 -0.1718 -0.1474  0.9008
   51MOL0     C 6950   2.956   7.345   7.037  0.4119  1.1887  0.8236
   51MOL0     N 6951   2.753   7.767   6.465 -0.0340  0.6029 -0.2926
   51MOL0     N 6952   2.717   7.827   6.354 -0.2890  0.7943  0.3618
   51MOL0     C 6953   3.303   8.129   5.871 -0.1344 -0.0129 -0.2148
   51MOL0     C 6954   3.447   8.115   5.871 -0.0798 -0.0066 -0.4930
   51MOL0     C 6955   3.831   7.949   5.661  0.9496 -0.1326  0.4516
   51MOL0     C 6956   3.816   8.032   5.552 -0.6379  0.4558 -0.2165
   51MOL0     C 6957   3.921   8.093   5.495 -0.3098  0.7491 -0.0112
   51MOL0     C 6958   4.055   8.067   5.525 -0.1777 -0.4174  0.5334
   51MOL0     O 6959   4.155   8.128   5.456  0.2727  0.0589 -0.1395
   51MOL0     C 6960   4.285   8.093   5.480 -0.4296  0.3130  0.7210
   51MOL0     C 6961   4.365   8.113   5.349  0.5544 -0.0107 -0.4703
   51MOL0     C 6962   4.507   8.142   5.385 -0.7953  0.2012 -0.2851
   51MOL0     C 6963   4.602   8.050   5.309  1.2608  0.2331 -0.1875
   51MOL0     C 6964   4.731   8.089   5.351 -0.8539  0.5128  0.3435
   51MOL0     C 6965   4.838   8.137   5.396 -0.0932  0.1730  0.6299
   51MOL0     C 6966   4.072   7.976   5.637 -0.4183 -0.2031  0.1627
   51MOL0     C 6967   3.962   7.920   5.710  0.8984 -0.8025 -0.2170
   51MOL0     C 6968   3.979   7.830   5.842  0.3655 -0.8251  0.2660
   51MOL0     H 6969   3.459   7.842   5.663  0.8242 -0.2367  0.3001
   51MOL0     H 6970   3.224   7.852   5.678 -0.4126  0.2583  0.8315
   51MOL0     H 6971   3.076   8.257   5.766  1.4400 -1.8370 -1.4409
   51MOL0     H 6972   3.020   8.194   5.920  2.2359 -1.0853  0.4910
   51MOL0     H 6973   2.861   8.283   5.738 -0.7062 -0.5291 -0.7336
   51MOL0     H 6974   2.887   8.127   5.657  0.7451  1.9549 -1.7075
   51MOL0     H 6975   2.775   8.162   5.948 -1.0679  0.4710 -0.2816
   51MOL0     H 6976   2.674   8.160   5.805 -2.5077 -1.9740  1.5797
   51MOL0     H 6977   2.807   7.925   5.748  0.3314 -0.7049  0.5801
   51MOL0     H 6978   2.853   7.931   5.917 -0.3260  1.2345  0.4332
   51MOL0     H 6979   2.665   7.794   5.848  0.2853 -0.5459  3.2847
   51MOL0     H 6980   2.592   7.943   5.769  0.4115  1.5045  0.7043
   51MOL0     H 6981   2.572   8.034   6.000 -2.7925  1.1691 -1.1242
   51MOL0     H 6982   2.453   7.907   5.972  0.6457  0.0203  0.2511
   51MOL0     H 6983   2.713   7.885   6.121  1.1779  0.0095 -2.8617
   51MOL0     H 6984   2.633   7.738   6.063  0.1206 -0.5126  2.9738
   51MOL0     H 6985   2.465   7.924   6.208 -0.1933  0.7856 -3.2740
   51MOL0     H 6986   2.448   7.752   6.180  2.5765 -1.1872 -2.0195
   51MOL0     H 6987   2.464   7.631   6.395  1.9013 -3.0732  0.3319
   51MOL0     H 6988   2.556   7.584   6.666 -1.5283 -3.0131 -0.7942
   51MOL0     H 6989   2.733   7.614   6.681 -1.8508  1.7618  1.0851
   51MOL0     H 6990   2.610   7.401   6.500 -2.3837 -2.4903  3.3960
   51MOL0     H 6991   2.786   7.425   6.526  0.4642 -0.5238 -0.6128
   51MOL0     H 6992   2.647   7.361   6.780 -1.0702 -1.4836 -0.0755
   51MOL0     H 6993   2.626   7.245   6.662  1.1941 -1.3505 -1.6577
   51MOL0     H 6994   2.823   7.149   6.728  0.8846  1.0657  1.8723
   51MOL0     H 6995   2.890   7.256   6.619 -2.0211  2.4872  0.4630
   51MOL0     H 6996   2.673   7.216   6.914 -1.6274  3.3098 -1.2907
   51MOL0     H 6997   2.503   7.183   7.077 -1.4879  0.0326  0.7619
   51MOL0     H 6998   2.525   7.273   7.229 -0.8240 -0.2207 -0.3164
   51MOL0     H 6999   2.582   7.107   7.215  3.7713 -0.4582  0.0917
   51MOL0     H 7000   2.846   7.526   7.562  4.8376  2.8309  2.4531
   51MOL0     H 7001   2.764   7.601   7.788 -2.7426 -0.8828  0.2745
   51MOL0     H 7002   2.662   7.598   7.950 -2.2870 -0.3314 -0.5913
   51MOL0     H 7003   2.544   7.479   8.019 -0.4070  0.8781  0.1592
   51MOL0     H 7004   2.654   7.501   8.237  3.1826 -0.8285  0.5860
   51MOL0     H 7005   2.790   7.564   8.170 -0.1117  1.1409 -0.2992
   51MOL0     H 7006   2.696   7.765   8.098  0.8554  0.4051  0.7951
   51MOL0     H 7007   2.670   7.764   8.267 -2.6306  0.8166 -0.5701
   51MOL0     H 7008   2.453   7.708   8.256  2.2805 -0.8141  0.3789
   51MOL0     H 7009   2.449   7.701   8.081 -1.9156  1.8206  0.4753
   51MOL0     H 7010   2.535   7.942   8.227  1.9629 -2.1714 -0.3284
   51MOL0     H 7011   2.481   7.935   8.050 -0.0199 -0.1639  0.0483
   51MOL0     H 7012   2.331   7.901   8.289 -0.8320 -2.0810 -0.9939
   51MOL0     H 7013   2.254   7.875   8.132  0.7650  0.0827 -1.2804
   51MOL0     H 7014   2.353   8.144   8.236  0.4477 -0.4172 -0.6308
   51MOL0     H 7015   2.190   8.088   8.239 -0.7396 -2.3968 -0.7663
   51MOL0     H 7016   2.364   8.129   7.994  0.1345 -1.6299 -0.1919
   51MOL0     H 7017   2.242   8.240   8.048 -1.3830 -0.3607 -0.1301
   51MOL0     H 7018   2.790   7.191   7.909  1.0049  0.8070 -0.0570
   51MOL0     H 7019   2.877   7.113   7.691  0.9620 -0.1990 -0.7190
   51MOL0     H 7020   3.015   7.347   7.243  2.0528 -1.5552 -0.9480
   51MOL0     H 7021   3.046   7.382   6.988  1.1015 -1.9894 -0.5962
   51MOL0     H 7022   3.272   8.216   5.929 -0.4798  0.2539 -0.7877
   51MOL0     H 7023   3.512   8.177   5.932 -1.6393  0.2159  1.0173
   51MOL0     H 7024   3.715   8.044   5.513  0.0156  3.2806 -1.2274
   51MOL0     H 7025   3.912   8.170   5.418 -1.7990  0.3549 -0.2532
   51MOL0     H 7026   4.334   8.137   5.567 -1.1737  1.5070  0.5581
   51MOL0     H 7027   4.292   7.985   5.497 -0.9063  0.5493  2.5960
   51MOL0     H 7028   4.342   8.200   5.287  0.1001 -1.1131 -1.9402
   51MOL0     H 7029   4.356   8.019   5.293 -1.8228  1.8441 -3.5353
   51MOL0     H 7030   4.530   8.247   5.365  0.3445 -0.3287 -1.9465
   51MOL0     H 7031   4.527   8.128   5.492 -0.8491  1.7527 -0.0489
   51MOL0     H 7032   4.585   8.051   5.201  1.2254 -2.2784 -0.2726
   51MOL0     H 7033   4.596   7.947   5.345 -0.5150  1.6133  4.0331
   51MOL0     H 7034   4.927   8.189   5.425 -0.8762  1.1627  1.3200
   51MOL0     H 7035   4.175   7.963   5.670 -0.3265  0.8527  0.3285
   51MOL0     H 7036   4.000   7.730   5.803  1.4018  0.6115 -3.1849
   51MOL0     H 7037   4.063   7.858   5.907  1.1891  1.7328 -1.7226
   51MOL0     H 7038   3.887   7.840   5.901  1.0603 -1.6335  1.5404
   52MOL0     O 7039  10.305   5.474   1.828  0.7325 -0.0365  0.3292
   52MOL0     C 7040  10.292   5.358   1.857  1.0932  0.0016  0.3658
   52MOL0     O 7041  10.381   5.265   1.829 -0.1707  0.9801 -0.4936
   52MOL0     C 7042  10.512   5.293   1.792 -0.1895  0.3100 -0.7840
   52MOL0     C 7043  10.604   5.368   1.861 -0.0841  0.2002 -0.5391
   52MOL0     C 7044  10.735   5.380   1.806 -0.5313 -0.4949  0.4149
   52MOL0     C 7045  10.766   5.323   1.678 -0.2477 -0.8324 -0.4180
   52MOL0     O 7046  10.897   5.339   1.624  0.0394 -0.3071  0.0952
   52MOL0     C 7047  10.984   5.438   1.687  0.6991 -0.5009  0.0881
   52MOL0     C 7048  11.071   5.485   1.573 -0.2944  0.2071  0.0291
   52MOL0     C 7049  11.149   5.370   1.524  0.6654 -0.6592  0.1207
   52MOL0     C 7050  11.241   5.409   1.410 -0.3058  0.2620  0.1981
   52MOL0     C 7051  11.184   5.476   1.288 -0.5150 -0.1685 -0.4702
   52MOL0     C 7052  11.302   5.507   1.194 -0.4158  0.7755  0.7051
   52MOL0     C 7053  11.257   5.610   1.082 -0.3429  0.0825 -0.5612
   52MOL0     C 7054  11.384   5.664   0.999 -0.5871 -0.0964  0.2378
   52MOL0     N 7055  11.486   5.560   0.979 -0.2151 -0.3341  0.5140
   52MOL0     C 7056  11.479   5.457   0.890 -0.2452 -0.2288  0.2662
   52MOL0     C 7057  11.544   5.353   0.943 -0.3832  0.6405 -0.0272
   52MOL0     C 7058  11.566   5.214   0.889 -0.4973 -0.0255 -0.0227
   52MOL0     C 7059  11.453   5.122   0.943  0.4765 -0.3919 -0.3465
   52MOL0     C 7060  11.319   5.159   0.873 -0.0751  0.2359 -0.5157
   52MOL0     C 7061  11.197   5.071   0.925  0.8877  0.0606  0.1127
   52MOL0     O 7062  11.073   5.121   0.874 -0.1681 -0.0852  0.3228
   52MOL0     C 7063  11.018   5.224   0.943 -0.0971 -0.1698 -0.1483
   52MOL0     C 7064  10.946   5.194   1.062 -0.4685 -0.8208 -0.5498
   52MOL0     C 7065  10.887   5.301   1.125  0.2133  0.7076 -0.2104
   52MOL0     C 7066  10.829   5.264   1.264 -0.6377  0.3972 -0.0198
   52MOL0     C 7067  10.875   5.433   1.075 -1.1612  0.6270  0.6231
   52MOL0     C 7068  10.816   5.554   1.142 -0.3714  0.2304 -0.9444
   52MOL0     O 7069  10.708   5.537   1.236  0.6689  0.1960 -1.0790
   52MOL0     C 7070  10.671   5.634   1.335  1.0651  0.4282  0.1265
   52MOL0     C 7071  10.642   5.575   1.459 -0.1339  0.4868  0.1955
   52MOL0     C 7072  10.613   5.649   1.571 -0.1953  0.1406 -0.5667
   52MOL0     C 7073  10.615   5.786   1.555 -0.2870 -0.9697  0.7100
   52MOL0     O 7074  10.602   5.874   1.664  0.4559  0.3455 -0.0672
   52MOL0     C 7075  10.596   5.825   1.806 -0.4656 -0.2814  1.4624
   52MOL0     C 7076  10.457   5.764   1.839 -1.1817  0.1405 -0.1198
   52MOL0     C 7077  10.339   5.858   1.826 -0.1163 -0.0545  0.4677
   52MOL0     C 7078  10.344   5.978   1.918 -0.1721  0.3213 -0.8126
   52MOL0     C 7079  10.213   6.053   1.904 -0.7101  0.3826 -0.0266
   52MOL0     C 7080  10.222   6.193   1.833 -0.3087 -0.6919  0.4744
   52MOL0     C 7081  10.079   6.275   1.836 -0.5103  0.2649  0.3924
   52MOL0     C 7082  10.087   6.424   1.815  0.7776 -0.5391  0.3813
   52MOL0    Cl 7083  10.161   6.493   1.963  0.2083  0.4119 -0.2012
   52MOL0     C 7084  10.642   5.851   1.436 -0.3016  0.8266  1.0592
   52MOL0     C 7085  10.681   5.772   1.323  0.2048 -0.8598  0.0630
   52MOL0     O 7086  10.881   5.655   1.124  0.7905 -0.4007 -0.0650
   52MOL0     C 7087  10.955   5.457   0.956  1.3680  0.0213 -0.6506
   52MOL0     C 7088  11.024   5.355   0.894  0.0633 -0.3016  0.5808
   52MOL0     N 7089  11.612   5.393   1.061  0.4774 -0.1623 -0.4179
   52MOL0     N 7090  11.586   5.518   1.075  1.1962  0.2434  1.1018
   52MOL0     C 7091  10.670   5.254   1.612  0.7564 -0.3227 -0.4456
   52MOL0     C 7092  10.547   5.243   1.677 -0.3285  1.3599  1.2086
   52MOL0     C 7093  10.173   5.306   1.933  0.0208 -0.1878 -0.5771
   52MOL0     C 7094  10.172   5.174   1.971  0.0424 -0.8529 -0.6022
   52MOL0     C 7095  10.062   5.128   2.056 -1.1830  0.7961  0.0067
   52MOL0     C 7096   9.955   5.215   2.091 -0.2706 -0.3473 -0.2056
   52MOL0     O 7097   9.854   5.162   2.179 -0.2448 -0.4138 -0.3154
   52MOL0     C 7098   9.724   5.221   2.205  0.2752  0.1191 -0.3225
   52MOL0     C 7099   9.609   5.118   2.201 -0.2051 -0.3089  0.7971
   52MOL0     C 7100   9.499   5.152   2.293  0.1917 -1.1644  1.1723
   52MOL0     C 7101   9.430   5.288   2.277 -0.1752 -0.7231  0.5992
   52MOL0     C 7102   9.397   5.318   2.136 -0.6271  0.0657  0.5696
   52MOL0     C 7103   9.367   5.344   2.021 -0.1972 -0.1844  0.0406
   52MOL0     C 7104   9.958   5.345   2.052  1.0994 -0.5849  0.7307
   52MOL0     C 7105  10.059   5.385   1.965 -0.1009  0.5371 -0.1411
   52MOL0     C 7106  10.050   5.534   1.922  0.6645  0.4035  1.0390
   52MOL0     H 7107  10.588   5.396   1.964 -0.5510 -1.8970 -0.0013
   52MOL0     H 7108  10.820   5.413   1.864  1.9416 -1.8387 -2.2305
   52MOL0     H 7109  11.035   5.375   1.760  0.8667 -2.0185 -1.2853
   52MOL0     H 7110  10.933   5.528   1.724 -0.1671 -0.8387 -0.2651
   52MOL0     H 7111  11.013   5.527   1.491  0.3269 -1.4012 -1.2881
   52MOL0     H 7112  11.143   5.562   1.605  1.9465 -1.8054  0.1485
   52MOL0     H 7113  11.213   5.324   1.600 -1.8201 -0.0466  2.7546
   52MOL0     H 7114  11.081   5.289   1.495 -0.9244  0.6049  0.1405
   52MOL0     H 7115  11.322   5.465   1.455  0.7683 -0.9226 -0.1918
   52MOL0     H 7116  11.282   5.313   1.377 -2.3211 -0.7544  0.4995
   52MOL0     H 7117  11.145   5.568   1.333  2.3417  0.2369  1.4259
   52MOL0     H 7118  11.101   5.416   1.250 -0.8659 -2.0737  2.9272
   52MOL0     H 7119  11.386   5.559   1.241 -0.3880  0.9687  0.4432
   52MOL0     H 7120  11.352   5.422   1.146  2.3622  2.6944 -0.0322
   52MOL0     H 7121  11.209   5.697   1.129  0.0193  0.6178 -1.1573
   52MOL0     H 7122  11.183   5.571   1.013  0.2342  0.3449 -1.3429
   52MOL0     H 7123  11.354   5.699   0.900 -1.5793 -2.3937 -0.3370
   52MOL0     H 7124  11.420   5.752   1.053 -1.2918  1.6010 -1.8862
   52MOL0     H 7125  11.428   5.466   0.795 -2.0868  1.3836  1.3348
   52MOL0     H 7126  11.656   5.171   0.933 -0.5135 -0.7982 -0.7339
   52MOL0     H 7127  11.584   5.224   0.782  0.3109  2.8822  0.2856
   52MOL0     H 7128  11.491   5.022   0.918  3.0500  0.2084  0.8799
   52MOL0     H 7129  11.448   5.130   1.052  2.6837 -0.0769 -0.2230
   52MOL0     H 7130  11.288   5.261   0.895  1.9045  1.1349 -1.6956
   52MOL0     H 7131  11.308   5.152   0.764 -0.5692  1.1124 -0.5297
   52MOL0     H 7132  11.220   4.969   0.892 -2.9970 -0.7152 -0.7765
   52MOL0     H 7133  11.188   5.073   1.034 -0.9232  4.0624  0.0407
   52MOL0     H 7134  10.946   5.092   1.097 -1.7929 -0.4621  0.5927
   52MOL0     H 7135  10.905   5.305   1.331 -1.3069  1.8962 -0.1288
   52MOL0     H 7136  10.808   5.158   1.277  0.4227 -0.0981 -1.9578
   52MOL0     H 7137  10.734   5.316   1.281 -0.1941  0.6310  1.8815
   52MOL0     H 7138  10.627   5.468   1.450 -2.8727  0.7519  0.5811
   52MOL0     H 7139  10.593   5.599   1.665  1.0285 -0.5310 -0.6520
   52MOL0     H 7140  10.679   5.755   1.818 -1.6755 -2.9494 -3.3335
   52MOL0     H 7141  10.614   5.910   1.873  1.5548 -0.3333  1.0312
   52MOL0     H 7142  10.446   5.685   1.764 -0.1659 -2.0115  1.8849
   52MOL0     H 7143  10.453   5.712   1.935  0.7573 -0.1634 -0.1646
   52MOL0     H 7144  10.248   5.800   1.841 -0.5709 -0.1834 -2.3242
   52MOL0     H 7145  10.336   5.891   1.721  0.9174 -0.4843  0.2902
   52MOL0     H 7146  10.431   6.044   1.912 -1.2982  1.9192 -0.2552
   52MOL0     H 7147  10.338   5.947   2.023 -1.8333 -0.9294 -1.2447
   52MOL0     H 7148  10.131   5.994   1.861 -1.9486  0.7960  1.6559
   52MOL0     H 7149  10.176   6.069   2.006 -2.9640 -0.6243 -0.6226
   52MOL0     H 7150  10.244   6.174   1.728  2.0806  2.0614  0.3796
   52MOL0     H 7151  10.300   6.253   1.882 -0.7897  1.7236 -1.5182
   52MOL0     H 7152  10.036   6.264   1.936  3.2171  1.2160  2.2804
   52MOL0     H 7153   9.995   6.236   1.779 -1.4255  0.3028  1.6659
   52MOL0     H 7154   9.985   6.460   1.799  0.0840 -2.3991  0.3794
   52MOL0     H 7155  10.150   6.443   1.727 -0.6832  0.6997 -0.4581
   52MOL0     H 7156  10.649   5.959   1.430  1.0743  0.8379  2.2384
   52MOL0     H 7157  10.690   5.823   1.228  0.3459 -2.8185 -1.0257
   52MOL0     H 7158  10.949   5.554   0.908  1.6618  0.8908  0.9758
   52MOL0     H 7159  11.054   5.375   0.792 -1.0886  0.1405  0.3153
   52MOL0     H 7160  10.686   5.221   1.510  3.5343 -0.1525 -0.1371
   52MOL0     H 7161  10.471   5.175   1.640 -1.0367  0.4129  4.0909
   52MOL0     H 7162  10.249   5.098   1.964  1.5782  0.4367  1.3645
   52MOL0     H 7163  10.062   5.031   2.106  2.9891  1.4354  1.6637
   52MOL0     H 7164   9.739   5.255   2.308  1.1406 -2.4801  0.4810
   52MOL0     H 7165   9.703   5.305   2.137  2.8723 -2.7820 -5.2896
   52MOL0     H 7166   9.651   5.021   2.231  0.7568 -0.6331 -1.3848
   52MOL0     H 7167   9.569   5.106   2.100  3.2124 -2.2741 -0.5181
   52MOL0     H 7168   9.426   5.073   2.274 -1.3922  0.5865 -0.4122
   52MOL0     H 7169   9.534   5.146   2.397  3.4632  2.9505  0.5892
   52MOL0     H 7170   9.486   5.369   2.323 -0.0009 -0.7086  0.3570
   52MOL0     H 7171   9.338   5.272   2.335 -0.0501  0.4471  1.1363
   52MOL0     H 7172   9.338   5.384   1.925 -1.5553 -0.0842  0.4699
   52MOL0     H 7173   9.884   5.416   2.087  2.1178  1.3813 -0.8745
   52MOL0     H 7174   9.968   5.585   1.974  2.0692  0.6261  3.1350
   52MOL0     H 7175  10.138   5.597   1.931 -0.1616  1.6430  0.6628
   52MOL0     H 7176  10.028   5.521   1.816 -2.3847  0.0586  1.6191
   53MOL0     O 7177   8.359   9.617   2.868  0.1466  0.0714 -0.9033
   53MOL0     C 7178   8.335   9.546   2.775  0.5128 -0.1532  0.3245
   53MOL0     O 7179   8.412   9.526   2.666 -0.1193 -0.0555 -0.4393
   53MOL0     C 7180   8.533   9.593   2.664 -0.3857 -0.2399  0.0438
   53MOL0     C 7181   8.649   9.545   2.721  0.8022 -0.4899 -0.4287
   53MOL0     C 7182   8.758   9.619   2.745  0.0663 -0.3273  0.1461
   53MOL0     C 7183   8.772   9.749   2.688  0.7372  0.0099  0.7754
   53MOL0     O 7184   8.884   9.829   2.684 -0.6170 -0.6088 -0.9000
   53MOL0     C 7185   8.988   9.785   2.775 -0.7373  0.2569  0.6922
   53MOL0     C 7186   9.097   9.898   2.792 -0.6220  0.3123  0.4772
   53MOL0     C 7187   9.171   9.931   2.660 -0.2954  0.1036 -0.4836
   53MOL0     C 7188   9.320   9.916   2.672  0.0225  0.5517 -0.5247
   53MOL0     C 7189   9.358   9.779   2.605  0.7281 -0.1291 -0.5415
   53MOL0     C 7190   9.495   9.744   2.623  0.7958  0.6971 -0.6390
   53MOL0     C 7191   9.527   9.598   2.584 -0.2453 -0.6997 -0.5959
   53MOL0     C 7192   9.673   9.589   2.562  0.5747  0.4793  0.1237
   53MOL0     N 7193   9.703   9.461   2.493  0.1734  0.0727  0.1827
   53MOL0     C 7194   9.636   9.340   2.514 -0.1959  0.1223 -0.0896
   53MOL0     C 7195   9.716   9.252   2.445  0.6563  0.8309 -0.3131
   53MOL0     C 7196   9.692   9.105   2.457 -0.0955  0.1583  0.1603
   53MOL0     C 7197   9.706   9.034   2.317 -0.6095 -0.3519 -0.8109
   53MOL0     C 7198   9.696   8.883   2.300  0.3568  0.5870  0.2512
   53MOL0     C 7199   9.601   8.820   2.407 -1.0045 -0.2581  0.0440
   53MOL0     O 7200   9.578   8.675   2.392 -0.3528  0.0161 -0.1158
   53MOL0     C 7201   9.490   8.620   2.307 -0.1423 -0.5108  0.0252
   53MOL0     C 7202   9.493   8.481   2.289 -0.4320 -0.5163  0.8087
   53MOL0     C 7203   9.402   8.405   2.210  0.6364 -0.4785  0.1133
   53MOL0     C 7204   9.424   8.254   2.206  0.4337 -0.1242 -0.3904
   53MOL0     C 7205   9.290   8.469   2.142 -0.0554  0.1685  0.2870
   53MOL0     C 7206   9.190   8.390   2.055 -0.0305 -0.7718 -0.2207
   53MOL0     O 7207   9.141   8.446   1.935 -1.1466  0.4870 -0.3564
   53MOL0     C 7208   9.054   8.383   1.848 -0.5517 -0.3552 -0.9770
   53MOL0     C 7209   8.922   8.355   1.887  0.4239 -0.3707  0.2508
   53MOL0     C 7210   8.841   8.321   1.789  0.1452  0.4089  0.8600
   53MOL0     C 7211   8.873   8.334   1.654 -0.1348  0.3566 -0.4101
   53MOL0     O 7212   8.789   8.303   1.552 -0.3652  0.0284 -0.3307
   53MOL0     C 7213   8.703   8.188   1.570  0.0248  0.0612  0.4750
   53MOL0     C 7214   8.718   8.089   1.450  0.9101  0.4325  1.4015
   53MOL0     C 7215   8.612   7.980   1.466 -0.7431 -0.0624  0.1879
   53MOL0     C 7216   8.593   7.886   1.349  0.4140 -0.0338 -0.2715
   53MOL0     C 7217   8.695   7.792   1.353 -0.8779  0.1075 -1.0499
   53MOL0     C 7218   8.686   7.710   1.226 -0.0636 -0.0780  0.2917
   53MOL0     C 7219   8.795   7.609   1.219  0.0825  0.0258  0.4668
   53MOL0     C 7220   8.782   7.489   1.325  0.4092 -0.4298  0.6395
   53MOL0    Cl 7221   8.921   7.387   1.303  0.1349 -0.3970 -0.0946
   53MOL0     C 7222   8.998   8.371   1.613  0.2694  0.2979 -0.5682
   53MOL0     C 7223   9.095   8.399   1.717 -0.2921  0.2847  0.2996
   53MOL0     O 7224   9.155   8.279   2.101 -0.7858 -0.6839 -0.2952
   53MOL0     C 7225   9.296   8.615   2.157  0.2987 -0.2914 -0.9275
   53MOL0     C 7226   9.386   8.687   2.235 -0.2529  1.1049 -0.3034
   53MOL0     N 7227   9.818   9.310   2.376  0.1227 -0.3336 -1.2584
   53MOL0     N 7228   9.806   9.441   2.403  0.4960 -0.0311  0.5744
   53MOL0     C 7229   8.663   9.806   2.620 -0.7671 -0.2052  0.6105
   53MOL0     C 7230   8.547   9.724   2.604 -0.5707  0.2269 -0.7898
   53MOL0     C 7231   8.222   9.449   2.791 -0.7779  0.2273  0.5036
   53MOL0     C 7232   8.244   9.310   2.770 -0.7856 -0.0310  0.5380
   53MOL0     C 7233   8.150   9.212   2.792  0.1388  0.4354  0.3039
   53MOL0     C 7234   8.019   9.243   2.834  1.0898  0.2649  0.1646
   53MOL0     O 7235   7.920   9.159   2.880  0.0023 -0.5201  0.4722
   53MOL0     C 7236   7.954   9.015   2.888  1.0809 -1.0220 -0.2142
   53MOL0     C 7237   7.955   8.937   2.757  0.2441  0.4960 -0.2231
   53MOL0     C 7238   8.059   8.818   2.762 -0.5416 -0.1194 -0.9064
   53MOL0     C 7239   8.094   8.777   2.622 -0.4235  0.5730  0.5021
   53MOL0     C 7240   8.179   8.656   2.628  0.0019  0.8117 -0.8280
   53MOL0     C 7241   8.236   8.548   2.649 -0.0250 -0.8280  0.5955
   53MOL0     C 7242   7.988   9.381   2.848 -0.5534  0.1512  0.6158
   53MOL0     C 7243   8.093   9.481   2.827  0.8031 -0.8659 -0.6122
   53MOL0     C 7244   8.059   9.622   2.872 -0.2713  0.4699 -0.4760
   53MOL0     H 7245   8.642   9.443   2.759  0.5970 -0.4607 -0.3852
   53MOL0     H 7246   8.840   9.578   2.804 -1.0552 -3.2827 -0.2256
   53MOL0     H 7247   9.039   9.699   2.731 -0.5427  0.2800  0.8705
   53MOL0     H 7248   8.945   9.760   2.872 -2.0583 -1.8700 -0.3618
   53MOL0     H 7249   9.043   9.987   2.826  2.4193  1.3986  3.0078
   53MOL0     H 7250   9.166   9.878   2.874  1.1763  2.5349 -0.4016
   53MOL0     H 7251   9.137   9.862   2.583  1.6889 -1.2563 -0.1929
   53MOL0     H 7252   9.152  10.036   2.635 -1.0529  0.8049  2.5383
   53MOL0     H 7253   9.370   9.994   2.613  1.6834 -0.1521 -0.1086
   53MOL0     H 7254   9.362   9.928   2.772  3.4792 -0.9087 -1.6147
   53MOL0     H 7255   9.334   9.778   2.499  3.5157 -0.1737 -1.2328
   53MOL0     H 7256   9.299   9.698   2.650 -0.5164  0.7177 -0.5775
   53MOL0     H 7257   9.547   9.823   2.567 -1.0590  0.7897 -2.3573
   53MOL0     H 7258   9.515   9.766   2.728 -0.0898 -0.5211 -0.2003
   53MOL0     H 7259   9.477   9.568   2.491  4.5483 -2.5510 -2.9087
   53MOL0     H 7260   9.512   9.524   2.664  2.1905 -0.9231 -0.2734
   53MOL0     H 7261   9.705   9.675   2.501  2.0852  0.0251  0.2247
   53MOL0     H 7262   9.723   9.603   2.658 -1.1058  2.2593  0.7921
   53MOL0     H 7263   9.558   9.322   2.587  0.7699  1.2317  1.2504
   53MOL0     H 7264   9.591   9.089   2.497  0.4402  0.2830  1.6096
   53MOL0     H 7265   9.759   9.046   2.519 -2.7222 -1.6925  1.4434
   53MOL0     H 7266   9.632   9.078   2.250 -1.8851  0.3076  0.9598
   53MOL0     H 7267   9.808   9.047   2.281 -0.9456 -2.3698 -2.7118
   53MOL0     H 7268   9.662   8.864   2.198 -0.1784  3.0596 -0.1109
   53MOL0     H 7269   9.795   8.838   2.310  1.3743  1.9975 -2.5421
   53MOL0     H 7270   9.660   8.836   2.498  0.0785  2.4223 -0.9933
   53MOL0     H 7271   9.512   8.882   2.418 -0.0259  0.8549  2.2949
   53MOL0     H 7272   9.570   8.440   2.354  0.4176  1.3243  1.0139
   53MOL0     H 7273   9.522   8.208   2.225  0.0166 -1.8764 -2.1516
   53MOL0     H 7274   9.402   8.210   2.108 -1.0515 -0.9006  0.2723
   53MOL0     H 7275   9.359   8.213   2.283  0.4372  0.3409 -0.1382
   53MOL0     H 7276   8.889   8.339   1.989 -1.7096 -1.8916 -0.6150
   53MOL0     H 7277   8.738   8.291   1.806  0.0851 -0.1946 -0.4332
   53MOL0     H 7278   8.718   8.137   1.665 -1.3241 -0.5841  0.3676
   53MOL0     H 7279   8.606   8.238   1.571 -0.1737 -0.2724 -0.5170
   53MOL0     H 7280   8.699   8.133   1.352 -1.6485  0.6357  1.9064
   53MOL0     H 7281   8.817   8.044   1.444  0.6063 -0.0554 -1.6919
   53MOL0     H 7282   8.512   8.024   1.474  0.0124  1.3785  3.0370
   53MOL0     H 7283   8.625   7.927   1.560  1.4011  1.9491  1.1143
   53MOL0     H 7284   8.590   7.942   1.255 -0.3700  1.5933  0.6949
   53MOL0     H 7285   8.499   7.831   1.356  1.2726 -1.7318 -1.2283
   53MOL0     H 7286   8.786   7.852   1.360 -0.5198 -0.5143 -0.2103
   53MOL0     H 7287   8.674   7.722   1.434 -1.1000  1.6989  0.3099
   53MOL0     H 7288   8.686   7.777   1.140  0.4479  0.5268  0.7512
   53MOL0     H 7289   8.596   7.651   1.206  0.8889 -0.4673 -3.9221
   53MOL0     H 7290   8.896   7.648   1.236  0.4731 -0.9942  0.5480
   53MOL0     H 7291   8.811   7.555   1.126 -0.3945  0.9130 -0.1467
   53MOL0     H 7292   8.684   7.442   1.312 -0.5671  0.9836  2.3893
   53MOL0     H 7293   8.789   7.536   1.423  2.7230  0.9541 -0.1298
   53MOL0     H 7294   9.027   8.384   1.509  0.0041 -0.9532 -0.8110
   53MOL0     H 7295   9.191   8.439   1.687  1.5976 -1.0364  3.9767
   53MOL0     H 7296   9.239   8.681   2.093 -0.1377  1.4704  1.1751
   53MOL0     H 7297   9.362   8.792   2.239 -1.8130  0.7297  1.3396
   53MOL0     H 7298   8.662   9.905   2.577  0.6197 -0.8898 -1.1456
   53MOL0     H 7299   8.461   9.765   2.553 -0.7290  2.2726  0.9889
   53MOL0     H 7300   8.344   9.274   2.744 -1.6347  0.2818 -3.8607
   53MOL0     H 7301   8.177   9.107   2.784 -1.3960 -0.0565  1.2225
   53MOL0     H 7302   8.045   8.995   2.945  0.8984  0.3313  0.5947
   53MOL0     H 7303   7.872   8.984   2.954 -0.9624 -0.2381 -2.2369
   53MOL0     H 7304   7.980   9.004   2.674 -0.5267  2.4646  1.0615
   53MOL0     H 7305   7.859   8.893   2.728  0.1269  1.8153 -1.9467
   53MOL0     H 7306   8.154   8.840   2.811 -0.1076 -0.7183 -1.4728
   53MOL0     H 7307   8.011   8.730   2.808 -2.3251  0.5907 -1.3110
   53MOL0     H 7308   8.151   8.864   2.586  1.8415 -1.7077 -1.9323
   53MOL0     H 7309   8.000   8.761   2.569  0.1672  2.5345 -1.2720
   53MOL0     H 7310   8.286   8.458   2.677  4.0173  1.3250  1.0168
   53MOL0     H 7311   7.888   9.404   2.885 -1.8524 -1.2433 -1.7507
   53MOL0     H 7312   7.950   9.630   2.878 -0.4708 -1.9557  0.2614
   53MOL0     H 7313   8.112   9.660   2.960 -1.3804  2.2421 -0.5131
   53MOL0     H 7314   8.092   9.671   2.780 -2.2659 -2.9562 -3.2820
   54MOL0     O 7315   8.281   5.596   1.461 -0.5575  0.5453  0.0067
   54MOL0     C 7316   8.232   5.487   1.489  0.8611  0.1137  0.2250
   54MOL0     O 7317   8.284   5.361   1.456  0.0815  0.2657 -0.0924
   54MOL0     C 7318   8.393   5.364   1.375  0.4451  0.1684  0.0189
   54MOL0     C 7319   8.524   5.324   1.430  0.6641  0.5563 -0.4691
   54MOL0     C 7320   8.647   5.332   1.364 -0.0976 -0.4548  0.0770
   54MOL0     C 7321   8.644   5.372   1.223  0.0054 -0.3283 -0.1265
   54MOL0     O 7322   8.764   5.409   1.173 -0.1509  0.5053  0.4433
   54MOL0     C 7323   8.779   5.382   1.035  0.2857  0.0589 -0.1240
   54MOL0     C 7324   8.797   5.516   0.970  0.5087  0.1668  0.8060
   54MOL0     C 7325   8.870   5.500   0.839 -0.0068 -0.1079  0.8330
   54MOL0     C 7326   8.814   5.395   0.742 -0.1172  0.3114 -0.6966
   54MOL0     C 7327   8.890   5.403   0.609  0.9478 -0.1842 -1.2157
   54MOL0     C 7328   8.802   5.319   0.509 -0.5140  0.4291  1.0249
   54MOL0     C 7329   8.882   5.281   0.378  0.4172 -0.2189  0.1316
   54MOL0     C 7330   8.990   5.379   0.328  0.6378  0.0919  0.0079
   54MOL0     N 7331   9.063   5.324   0.217  1.6244  1.2854  0.0933
   54MOL0     C 7332   9.127   5.203   0.212 -0.2265 -0.3799  1.7958
   54MOL0     C 7333   9.214   5.209   0.106  0.1558 -0.3515  0.7366
   54MOL0     C 7334   9.299   5.093   0.064  0.0600  0.0260  0.2238
   54MOL0     C 7335   9.208   4.995  -0.014  0.1176 -1.0057 -0.1607
   54MOL0     C 7336   9.294   4.878  -0.056 -0.4777  0.6083 -0.0143
   54MOL0     C 7337   9.329   4.769   0.048  0.9341  0.9112  0.3430
   54MOL0     O 7338   9.203   4.728   0.110  0.5499 -0.0488 -0.0665
   54MOL0     C 7339   9.127   4.633   0.060 -0.5459  0.5793 -0.8442
   54MOL0     C 7340   9.173   4.533  -0.027  0.2379 -0.2006  0.2166
   54MOL0     C 7341   9.090   4.428  -0.077  0.1766  0.0394 -0.0379
   54MOL0     C 7342   9.145   4.320  -0.175 -0.2466  0.5416  0.4152
   54MOL0     C 7343   8.955   4.421  -0.032 -0.1938 -0.5403  0.2486
   54MOL0     C 7344   8.861   4.321  -0.067  0.3478  1.8363 -0.0729
   54MOL0     O 7345   8.784   4.288   0.038  0.1589  0.8296 -0.1814
   54MOL0     C 7346   8.723   4.166   0.058 -0.0179 -0.3203 -0.2758
   54MOL0     C 7347   8.783   4.049   0.011  0.6539  0.9340  0.6437
   54MOL0     C 7348   8.712   3.929   0.022 -0.2953 -0.4692 -0.3211
   54MOL0     C 7349   8.591   3.922   0.094  0.7102 -0.1285  0.9051
   54MOL0     O 7350   8.504   3.808   0.113 -0.1724  0.0771 -0.5448
   54MOL0     C 7351   8.553   3.676   0.081  0.7169  0.0899  0.1261
   54MOL0     C 7352   8.456   3.549   0.094  0.1416  0.3470  0.3278
   54MOL0     C 7353   8.484   3.415   0.029  0.3318 -0.5142 -0.0291
   54MOL0     C 7354   8.432   3.414  -0.110 -0.4634  0.4057  0.3650
   54MOL0     C 7355   8.530   3.347  -0.213  1.2060  0.4597 -0.0878
   54MOL0     C 7356   8.534   3.195  -0.186  0.3979 -0.1413  0.7029
   54MOL0     C 7357   8.619   3.130  -0.298  0.3223  0.0655  0.0680
   54MOL0     C 7358   8.617   2.976  -0.271 -0.8722 -0.0944 -0.0147
   54MOL0    Cl 7359   8.697   2.875  -0.397  0.0563  0.2068  0.2485
   54MOL0     C 7360   8.537   4.040   0.142  0.2484  0.0072 -0.7264
   54MOL0     C 7361   8.600   4.167   0.127  0.2122  0.1461 -0.9665
   54MOL0     O 7362   8.860   4.257  -0.171 -0.1745  0.9292  0.7671
   54MOL0     C 7363   8.913   4.527   0.060 -0.2225  0.6376  0.4919
   54MOL0     C 7364   8.995   4.632   0.099 -1.1215 -0.4114 -1.2189
   54MOL0     N 7365   9.197   5.328   0.045  0.0774  0.3236 -0.0874
   54MOL0     N 7366   9.103   5.392   0.103  0.3078 -0.0665 -1.1045
   54MOL0     C 7367   8.517   5.417   1.169  0.3287  0.0230 -0.7509
   54MOL0     C 7368   8.401   5.409   1.246 -0.3759 -0.4439  0.1612
   54MOL0     C 7369   8.100   5.489   1.556 -0.0661 -0.2991 -0.6534
   54MOL0     C 7370   8.029   5.611   1.546 -0.7585  0.2131  1.2116
   54MOL0     C 7371   7.918   5.634   1.619  1.2870  0.1238 -0.3060
   54MOL0     C 7372   7.867   5.543   1.712  0.8321  0.8110  0.0810
   54MOL0     O 7373   7.757   5.559   1.798 -1.2827  0.3270  0.1143
   54MOL0     C 7374   7.756   5.682   1.884 -0.4562  1.4200 -0.0104
   54MOL0     C 7375   7.612   5.730   1.900 -0.5082  0.4158 -0.1863
   54MOL0     C 7376   7.507   5.620   1.932  0.5179 -1.1431 -0.3667
   54MOL0     C 7377   7.521   5.559   2.064 -0.3778  0.4491  0.4759
   54MOL0     C 7378   7.528   5.646   2.173  0.8283 -0.8702 -0.8076
   54MOL0     C 7379   7.541   5.725   2.269  1.1829  0.5349  0.7382
   54MOL0     C 7380   7.934   5.420   1.724  0.0178 -0.6291  0.8643
   54MOL0     C 7381   8.056   5.388   1.648  0.9988 -0.4990 -0.0087
   54MOL0     C 7382   8.116   5.252   1.661  0.2054 -0.7036  0.2749
   54MOL0     H 7383   8.517   5.284   1.531  0.7506 -0.4525 -0.8475
   54MOL0     H 7384   8.734   5.296   1.418 -0.4112  0.1604  1.0189
   54MOL0     H 7385   8.689   5.335   0.994 -0.9413  1.4670  0.8196
   54MOL0     H 7386   8.871   5.324   1.033  1.8837  2.4415 -0.3955
   54MOL0     H 7387   8.708   5.579   0.960  0.3743  0.0980  1.5683
   54MOL0     H 7388   8.857   5.580   1.036  1.3977  2.0544 -1.6577
   54MOL0     H 7389   8.864   5.600   0.794  0.8984  0.9485  2.9022
   54MOL0     H 7390   8.975   5.477   0.860  0.4842  0.7548 -0.5140
   54MOL0     H 7391   8.833   5.304   0.800  2.0383  2.2908  2.0502
   54MOL0     H 7392   8.707   5.415   0.741 -0.8035 -1.7541  3.6972
   54MOL0     H 7393   8.989   5.358   0.620  0.7201 -1.3828 -3.4257
   54MOL0     H 7394   8.910   5.508   0.584  3.0381 -0.4505 -0.8153
   54MOL0     H 7395   8.768   5.235   0.570  1.7935  1.0157  3.2585
   54MOL0     H 7396   8.709   5.372   0.486  0.5839  2.2936  0.6682
   54MOL0     H 7397   8.801   5.276   0.304 -1.2835  1.4977  1.7803
   54MOL0     H 7398   8.920   5.178   0.382  0.0806 -0.3325  0.4734
   54MOL0     H 7399   8.936   5.472   0.306 -1.0619 -1.3267 -2.1693
   54MOL0     H 7400   9.065   5.404   0.404  1.1409 -0.4142 -0.3251
   54MOL0     H 7401   9.103   5.115   0.271  0.8720 -3.1079 -1.4913
   54MOL0     H 7402   9.361   5.049   0.142 -0.6841 -1.2736  0.1268
   54MOL0     H 7403   9.369   5.141  -0.004  0.8845 -1.3646  0.0438
   54MOL0     H 7404   9.120   4.971   0.046  2.1432 -2.4326  2.4591
   54MOL0     H 7405   9.167   5.039  -0.105  1.7189  4.0163  1.2325
   54MOL0     H 7406   9.238   4.826  -0.134  1.9106 -2.4753  0.0906
   54MOL0     H 7407   9.387   4.918  -0.097 -1.3490  1.5881 -1.0809
   54MOL0     H 7408   9.390   4.691   0.003  1.4864  0.7724  1.2902
   54MOL0     H 7409   9.378   4.806   0.138  0.5315  0.1477  0.8866
   54MOL0     H 7410   9.265   4.546  -0.084  0.4791  1.3944  0.9130
   54MOL0     H 7411   9.254   4.323  -0.166 -0.3364 -0.6261  2.5416
   54MOL0     H 7412   9.115   4.330  -0.280  1.2189 -0.9603 -0.1995
   54MOL0     H 7413   9.126   4.225  -0.125 -1.1287  0.4555 -0.0797
   54MOL0     H 7414   8.882   4.035  -0.031 -0.1767  1.3634 -1.5664
   54MOL0     H 7415   8.761   3.838  -0.010 -0.5136 -0.9918  0.7561
   54MOL0     H 7416   8.579   3.670  -0.025 -0.3617  2.1729 -0.3024
   54MOL0     H 7417   8.631   3.658   0.155 -0.4240  0.7397  1.5308
   54MOL0     H 7418   8.452   3.540   0.203  1.1010  3.6923  0.7583
   54MOL0     H 7419   8.358   3.584   0.060 -0.9457 -2.6749  0.0602
   54MOL0     H 7420   8.430   3.335   0.081  1.0921  0.6690  2.7488
   54MOL0     H 7421   8.592   3.401   0.037  1.2861  4.7767 -0.1212
   54MOL0     H 7422   8.428   3.516  -0.148  1.1615  0.7051  0.8989
   54MOL0     H 7423   8.333   3.370  -0.122 -0.0770 -0.4934  0.3631
   54MOL0     H 7424   8.502   3.362  -0.318 -1.7441 -1.4762  0.3090
   54MOL0     H 7425   8.629   3.393  -0.204  1.0687  0.9284 -0.8852
   54MOL0     H 7426   8.441   3.138  -0.197  0.5070  0.2079 -3.9581
   54MOL0     H 7427   8.579   3.179  -0.087  1.3551 -3.4507 -0.1287
   54MOL0     H 7428   8.723   3.166  -0.295  0.1848  1.0116 -2.9353
   54MOL0     H 7429   8.577   3.163  -0.394  1.1221 -0.7873 -0.5923
   54MOL0     H 7430   8.511   2.950  -0.269 -0.4907 -1.8799  2.4892
   54MOL0     H 7431   8.640   2.956  -0.166 -0.8417 -2.7735 -0.4607
   54MOL0     H 7432   8.440   4.034   0.189 -0.9254  1.1924 -2.8072
   54MOL0     H 7433   8.562   4.267   0.146  0.7579  0.2483 -0.3837
   54MOL0     H 7434   8.808   4.525   0.085  0.2386 -1.8082  2.7380
   54MOL0     H 7435   8.958   4.714   0.160  0.9101  0.1562 -0.6776
   54MOL0     H 7436   8.506   5.444   1.065 -2.0582 -2.0941 -1.1605
   54MOL0     H 7437   8.311   5.448   1.199  1.6800  1.6398 -2.3957
   54MOL0     H 7438   8.074   5.685   1.481  2.3205 -0.3808  2.4761
   54MOL0     H 7439   7.879   5.734   1.598 -0.4816 -0.2597  0.9181
   54MOL0     H 7440   7.803   5.652   1.978  0.4492 -0.5690 -1.0435
   54MOL0     H 7441   7.815   5.763   1.839  0.4069  1.7478  1.6281
   54MOL0     H 7442   7.592   5.782   1.806  0.5011  3.9506  1.3617
   54MOL0     H 7443   7.596   5.819   1.962 -0.2219 -1.4188  2.6924
   54MOL0     H 7444   7.417   5.681   1.927  3.3591  3.6073  0.0041
   54MOL0     H 7445   7.514   5.530   1.870  5.5134 -1.2315 -0.1008
   54MOL0     H 7446   7.619   5.510   2.065 -0.5991 -0.0243  0.0113
   54MOL0     H 7447   7.454   5.475   2.084  2.0991 -1.4109  1.5205
   54MOL0     H 7448   7.552   5.799   2.345  1.9993 -0.1096  1.2584
   54MOL0     H 7449   7.902   5.342   1.793  2.2276 -2.6979 -0.2475
   54MOL0     H 7450   8.053   5.191   1.726 -0.8938 -1.5211 -1.4709
   54MOL0     H 7451   8.102   5.208   1.562 -1.5244  1.8001 -0.6864
   54MOL0     H 7452   8.219   5.270   1.694  1.2232  1.5206 -3.4931
   55MOL0     O 7453   0.102  10.196   4.872 -0.4097 -0.4298 -0.8795
   55MOL0     C 7454   0.047  10.154   4.972  0.8151  0.5332  0.5633
   55MOL0     O 7455   0.081  10.187   5.095  0.7555 -0.5386 -0.1214
   55MOL0     C 7456   0.148  10.312   5.110  0.5989  1.0862  0.1345
   55MOL0     C 7457   0.268  10.348   5.047  0.5130 -0.0414 -0.1603
   55MOL0     C 7458   0.309  10.480   5.046 -0.1224 -0.8200 -0.3310
   55MOL0     C 7459   0.245  10.576   5.124 -0.1205 -0.0439  0.1433
   55MOL0     O 7460   0.284  10.709   5.127  0.4800  0.7500  0.0665
   55MOL0     C 7461   0.420  10.718   5.192  0.6232  0.6756 -0.0136
   55MOL0     C 7462   0.415  10.678   5.343 -0.3360  0.3644 -0.6927
   55MOL0     C 7463   0.498  10.554   5.364 -0.4438  0.2597 -0.2583
   55MOL0     C 7464   0.646  10.572   5.379  0.2551  0.6043 -0.5035
   55MOL0     C 7465   0.721  10.452   5.431 -0.5711 -0.5099  0.1035
   55MOL0     C 7466   0.736  10.339   5.322 -0.4263 -0.3507  0.3475
   55MOL0     C 7467   0.829  10.219   5.372  0.4941  0.3506  0.2395
   55MOL0     C 7468   0.736  10.105   5.416  0.9386 -0.5254  0.4033
   55MOL0     N 7469   0.818   9.978   5.423  0.3045 -0.6235 -0.4667
   55MOL0     C 7470   0.794   9.863   5.359 -0.5934 -0.1427  0.7323
   55MOL0     C 7471   0.872   9.778   5.424 -1.1752  0.1296 -0.4245
   55MOL0     C 7472   0.898   9.636   5.385 -0.3240 -0.4055 -0.4011
   55MOL0     C 7473   0.906   9.562   5.515  0.9958  0.2707  0.1958
   55MOL0     C 7474   0.841   9.414   5.513 -0.1617 -0.4448  0.2471
   55MOL0     C 7475   0.880   9.323   5.389 -0.2151 -0.4628 -0.2441
   55MOL0     O 7476   1.021   9.305   5.385  0.2357 -0.2857  1.0446
   55MOL0     C 7477   1.072   9.209   5.300 -0.1868  0.6704 -0.1994
   55MOL0     C 7478   1.021   9.083   5.272 -0.4699  0.3653 -0.0447
   55MOL0     C 7479   1.099   8.993   5.202  0.8768 -0.2348  0.1770
   55MOL0     C 7480   1.051   8.844   5.190 -0.1021 -0.6705  0.4177
   55MOL0     C 7481   1.232   9.027   5.154  0.1703 -0.0406  0.5868
   55MOL0     C 7482   1.307   8.942   5.052 -1.2747 -0.4902  0.4007
   55MOL0     O 7483   1.269   8.815   5.026  0.1477 -0.4364  0.4998
   55MOL0     C 7484   1.331   8.739   4.937  0.1961  0.1319  0.1393
   55MOL0     C 7485   1.247   8.673   4.845  0.4371  0.3252  0.5594
   55MOL0     C 7486   1.313   8.592   4.746  0.1552 -0.3412 -0.1794
   55MOL0     C 7487   1.450   8.581   4.734 -0.0602 -0.8647  0.4675
   55MOL0     O 7488   1.505   8.513   4.629  0.2031  0.0069 -0.3285
   55MOL0     C 7489   1.585   8.590   4.538  0.8598 -0.3451 -0.9658
   55MOL0     C 7490   1.573   8.544   4.389  0.1740 -0.4057  0.0270
   55MOL0     C 7491   1.461   8.624   4.318 -0.0975  0.8298  0.6249
   55MOL0     C 7492   1.439   8.569   4.177 -0.6344 -0.1200  0.1715
   55MOL0     C 7493   1.330   8.645   4.097 -0.9686  0.6272 -0.5663
   55MOL0     C 7494   1.233   8.552   4.023  1.1400  0.1952 -0.2775
   55MOL0     C 7495   1.101   8.631   3.989  0.5824  0.3919  1.1992
   55MOL0     C 7496   1.125   8.755   3.920 -0.1687 -0.9434  1.1393
   55MOL0    Cl 7497   1.185   8.717   3.755 -0.3561  0.4576 -0.3334
   55MOL0     C 7498   1.528   8.644   4.831 -0.5565 -0.3124  0.0354
   55MOL0     C 7499   1.467   8.715   4.933  0.1672 -1.3766 -0.7865
   55MOL0     O 7500   1.406   9.003   5.008 -0.1286 -0.1436  0.9190
   55MOL0     C 7501   1.271   9.166   5.170 -0.5377 -0.0723  0.7356
   55MOL0     C 7502   1.197   9.247   5.255  0.0432 -0.2484  0.3718
   55MOL0     N 7503   0.927   9.837   5.533  0.0099 -0.6240 -0.1870
   55MOL0     N 7504   0.897   9.960   5.532  0.0319  0.2512  0.5832
   55MOL0     C 7505   0.133  10.542   5.193  0.1065  0.9140 -0.7322
   55MOL0     C 7506   0.082  10.415   5.184 -0.4930 -0.1001  0.0377
   55MOL0     C 7507  -0.063  10.050   4.961  0.3855 -0.7806  0.3151
   55MOL0     C 7508  -0.096   9.993   4.836 -0.3112  0.6695 -0.2834
   55MOL0     C 7509  -0.190   9.895   4.825  0.0707  0.6052 -0.0182
   55MOL0     C 7510  -0.254   9.833   4.938  0.0355  0.5250 -0.4176
   55MOL0     O 7511  -0.352   9.746   4.938 -0.9110  0.6965  0.1668
   55MOL0     C 7512  -0.369   9.666   4.828 -0.6097 -0.2951 -0.0069
   55MOL0     C 7513  -0.491   9.578   4.813  0.7363  0.6366 -0.0496
   55MOL0     C 7514  -0.463   9.453   4.727  0.0243 -0.0437  0.1324
   55MOL0     C 7515  -0.477   9.469   4.577  1.3854  0.2013 -0.0551
   55MOL0     C 7516  -0.609   9.505   4.532 -0.2832  0.1224 -0.4487
   55MOL0     C 7517  -0.708   9.537   4.466 -0.3737 -1.0801  0.5558
   55MOL0     C 7518  -0.212   9.872   5.065 -0.2049 -0.3914 -0.7310
   55MOL0     C 7519  -0.127   9.987   5.076 -0.0951 -0.0945  0.0538
   55MOL0     C 7520  -0.131  10.033   5.218 -0.4541 -0.0252 -0.5769
   55MOL0     H 7521   0.316  10.269   4.988 -0.0644 -1.5722  1.3411
   55MOL0     H 7522   0.408  10.498   5.005  1.5847 -0.5068  3.5480
   55MOL0     H 7523   0.449  10.824   5.187  0.8883  0.5229 -3.4561
   55MOL0     H 7524   0.496  10.665   5.135 -0.5215  0.3792 -1.3190
   55MOL0     H 7525   0.456  10.752   5.412 -0.5995  0.6715 -0.8668
   55MOL0     H 7526   0.310  10.666   5.372  0.1678  2.2014  2.3692
   55MOL0     H 7527   0.459  10.513   5.458 -3.6123  4.6023  0.6211
   55MOL0     H 7528   0.478  10.505   5.268 -1.7993  3.8525 -2.0150
   55MOL0     H 7529   0.681  10.600   5.279  0.3839 -1.4348 -1.0643
   55MOL0     H 7530   0.667  10.654   5.448 -0.2024  0.0434  0.3137
   55MOL0     H 7531   0.665  10.411   5.516 -0.0611  3.7202  2.8104
   55MOL0     H 7532   0.821  10.475   5.467 -1.0422 -1.0753  1.8870
   55MOL0     H 7533   0.640  10.297   5.293  0.6422 -2.4141 -0.4103
   55MOL0     H 7534   0.788  10.380   5.234  0.9151 -1.6617  0.4960
   55MOL0     H 7535   0.890  10.233   5.461  1.1649 -0.5668 -0.0563
   55MOL0     H 7536   0.900  10.170   5.304  0.7527  1.3150 -0.1984
   55MOL0     H 7537   0.691  10.138   5.510  1.7497  0.2998  0.5100
   55MOL0     H 7538   0.657  10.092   5.341  0.0080 -1.3770  1.5002
   55MOL0     H 7539   0.724   9.849   5.277 -1.2554  2.1161  0.8436
   55MOL0     H 7540   0.982   9.616   5.317 -1.1869  1.7356 -2.2280
   55MOL0     H 7541   0.810   9.609   5.326 -2.0525  1.8764  0.9778
   55MOL0     H 7542   1.011   9.549   5.542  1.0026 -2.7698 -0.8686
   55MOL0     H 7543   0.845   9.613   5.590 -0.9636 -0.4845 -0.8069
   55MOL0     H 7544   0.887   9.375   5.604  3.7125 -2.9357 -2.4427
   55MOL0     H 7545   0.734   9.425   5.529 -0.2740 -0.8338 -0.2370
   55MOL0     H 7546   0.826   9.229   5.405 -2.3335  0.5010 -1.3647
   55MOL0     H 7547   0.849   9.378   5.300  0.1114  2.1343  1.1512
   55MOL0     H 7548   0.926   9.057   5.319 -1.5325 -0.6794 -2.5787
   55MOL0     H 7549   1.014   8.817   5.091 -0.7587  0.4418  0.3486
   55MOL0     H 7550   0.987   8.816   5.275 -0.4559  0.5536  0.5674
   55MOL0     H 7551   1.140   8.782   5.207  1.6144  1.4614 -0.3487
   55MOL0     H 7552   1.139   8.675   4.845  0.2023 -3.6122 -1.5911
   55MOL0     H 7553   1.257   8.549   4.664  1.2782  0.2353 -1.2872
   55MOL0     H 7554   1.571   8.697   4.550  1.5358 -0.2215 -1.2559
   55MOL0     H 7555   1.687   8.571   4.573  0.9214  1.8186  0.1522
   55MOL0     H 7556   1.665   8.571   4.336 -1.0214  2.0838 -0.9589
   55MOL0     H 7557   1.562   8.436   4.381  0.9703 -0.7675  2.8081
   55MOL0     H 7558   1.482   8.731   4.322 -0.4733  0.9144  0.4210
   55MOL0     H 7559   1.367   8.623   4.374 -1.1492  1.6532 -1.0175
   55MOL0     H 7560   1.421   8.461   4.175  1.1042 -0.4694 -2.9515
   55MOL0     H 7561   1.530   8.597   4.122 -0.5489  2.3520  1.4200
   55MOL0     H 7562   1.274   8.718   4.156 -1.7523  1.1377 -1.8790
   55MOL0     H 7563   1.389   8.700   4.022  1.5302 -2.4342 -1.0403
   55MOL0     H 7564   1.204   8.463   4.080  0.6407  0.3778 -0.2406
   55MOL0     H 7565   1.285   8.501   3.942  1.5267 -2.0302  1.2555
   55MOL0     H 7566   1.046   8.655   4.081 -0.2402 -1.6502  1.3005
   55MOL0     H 7567   1.022   8.569   3.945 -0.0577 -0.0550  2.8769
   55MOL0     H 7568   1.188   8.825   3.976  0.2494 -0.4207  0.0360
   55MOL0     H 7569   1.028   8.802   3.899  0.8259  0.3357 -0.9623
   55MOL0     H 7570   1.634   8.627   4.844 -1.1317 -3.7844  1.3069
   55MOL0     H 7571   1.533   8.748   5.013  0.0774  0.1219 -1.2954
   55MOL0     H 7572   1.358   9.197   5.113 -0.9355  0.1015  0.2142
   55MOL0     H 7573   1.237   9.346   5.278  2.0684 -1.2041  1.2679
   55MOL0     H 7574   0.078  10.605   5.261  1.4875  2.5826 -1.0885
   55MOL0     H 7575  -0.006  10.391   5.243  1.0088 -1.3821  1.8858
   55MOL0     H 7576  -0.035  10.006   4.747  3.4817 -1.1387  1.8129
   55MOL0     H 7577  -0.215   9.862   4.725  2.9011  0.4100 -0.7375
   55MOL0     H 7578  -0.376   9.726   4.736  1.4138 -1.0479 -0.7048
   55MOL0     H 7579  -0.274   9.616   4.810 -1.1573 -0.6554 -2.3309
   55MOL0     H 7580  -0.580   9.635   4.786  0.0929  0.4938  1.6017
   55MOL0     H 7581  -0.520   9.538   4.911  1.1207  0.5148  0.0158
   55MOL0     H 7582  -0.365   9.407   4.740  0.3766  0.6417 -0.0634
   55MOL0     H 7583  -0.533   9.381   4.771  0.6960  1.0486  3.1988
   55MOL0     H 7584  -0.443   9.379   4.524 -3.3009 -1.9302  0.1078
   55MOL0     H 7585  -0.404   9.545   4.544  2.4442 -0.2853  1.1154
   55MOL0     H 7586  -0.798   9.566   4.415  0.1444  1.8494  1.0858
   55MOL0     H 7587  -0.256   9.829   5.154  2.0101  1.3656  1.3551
   55MOL0     H 7588  -0.122  10.142   5.217  3.6272 -0.2327 -1.3740
   55MOL0     H 7589  -0.228  10.004   5.260 -0.1188  1.7204  1.5689
   55MOL0     H 7590  -0.045   9.994   5.272  0.0897 -0.0386 -1.4329
   56MOL0     O 7591  10.893   3.085   8.182  0.4826  0.6550  0.7423
   56MOL0     C 7592  10.912   3.007   8.091 -0.3703 -0.3431  0.6814
   56MOL0     O 7593  10.888   2.879   8.095 -0.3288  0.0265  0.3466
   56MOL0     C 7594  10.811   2.806   8.183  0.7982 -0.3666 -0.8148
   56MOL0     C 7595  10.844   2.814   8.322  0.2146 -0.1088  0.4714
   56MOL0     C 7596  10.762   2.740   8.411 -0.1784 -1.0196 -0.6400
   56MOL0     C 7597  10.651   2.665   8.379 -0.2100  0.1711 -0.0555
   56MOL0     O 7598  10.589   2.580   8.464 -0.0298 -0.4653  0.1488
   56MOL0     C 7599  10.597   2.616   8.609  0.5665  0.5905  0.4521
   56MOL0     C 7600  10.460   2.588   8.675 -0.4056 -0.6672  0.1130
   56MOL0     C 7601  10.467   2.564   8.824 -0.4089  0.0278  0.9407
   56MOL0     C 7602  10.329   2.533   8.883  0.0228 -0.4268  0.5687
   56MOL0     C 7603  10.348   2.441   9.011 -0.1856  0.9339 -0.2419
   56MOL0     C 7604  10.226   2.362   9.061  0.9733 -0.3871  0.2512
   56MOL0     C 7605  10.272   2.255   9.156 -0.4683  0.0979 -0.9611
   56MOL0     C 7606  10.308   2.310   9.301 -0.7373 -0.6056 -0.7429
   56MOL0     N 7607  10.345   2.199   9.396 -0.6393 -0.6233  0.1317
   56MOL0     C 7608  10.347   2.219   9.531  0.1874 -0.3534  0.0630
   56MOL0     C 7609  10.380   2.099   9.578  0.2311 -0.8760  0.5106
   56MOL0     C 7610  10.400   2.070   9.727 -0.1801  0.0258  0.7560
   56MOL0     C 7611  10.425   1.913   9.754 -0.7171  0.8033 -1.0780
   56MOL0     C 7612  10.438   1.885   9.900 -0.6650  0.0361  0.8819
   56MOL0     C 7613  10.587   1.887   9.947 -0.3834 -0.7557 -0.0260
   56MOL0     O 7614  10.641   2.021   9.942  0.5106  0.2524  0.9344
   56MOL0     C 7615  10.753   2.029  10.014 -0.0330  0.1993  1.0782
   56MOL0     C 7616  10.832   1.926  10.077  0.3884  0.4210  0.0537
   56MOL0     C 7617  10.930   1.958  10.180 -1.3141 -0.2390 -0.4790
   56MOL0     C 7618  10.986   1.834  10.254 -0.9551 -0.5192  0.3604
   56MOL0     C 7619  10.964   2.096  10.194  0.6152  0.4280  0.3695
   56MOL0     C 7620  11.065   2.133  10.297  0.2311  1.2478 -0.2983
   56MOL0     O 7621  11.118   2.259  10.284  0.0665 -0.1793  0.3740
   56MOL0     C 7622  11.145   2.334  10.396 -1.5664 -0.0135  0.0635
   56MOL0     C 7623  11.230   2.440  10.392 -0.5772  0.0269 -0.0084
   56MOL0     C 7624  11.270   2.526  10.499  0.4069 -0.0312  0.2231
   56MOL0     C 7625  11.203   2.508  10.613  0.5132 -0.4382  0.0705
   56MOL0     O 7626  11.244   2.601  10.715 -0.6699  0.2167  0.1019
   56MOL0     C 7627  11.224   2.566  10.855 -0.6558 -0.0798  0.3424
   56MOL0     C 7628  11.337   2.476  10.907  0.5554 -0.7411 -2.0429
   56MOL0     C 7629  11.330   2.336  10.855  0.0806 -0.5163  0.2673
   56MOL0     C 7630  11.450   2.257  10.908 -1.2449 -0.4481  0.3079
   56MOL0     C 7631  11.435   2.105  10.884  0.1337 -0.0200  0.1443
   56MOL0     C 7632  11.402   2.086  10.739 -0.2019  0.0594 -0.2662
   56MOL0     C 7633  11.415   1.937  10.708 -0.2285  1.0863  0.3911
   56MOL0     C 7634  11.538   1.856  10.746 -0.3800  0.6113  0.3460
   56MOL0    Cl 7635  11.690   1.915  10.667  0.2043 -0.1388 -0.1678
   56MOL0     C 7636  11.108   2.398  10.629 -0.1763  0.6269  1.0003
   56MOL0     C 7637  11.090   2.302  10.519  0.7457 -0.8297 -0.8816
   56MOL0     O 7638  11.082   2.052  10.393 -0.6368  0.4039  0.0188
   56MOL0     C 7639  10.889   2.192  10.123 -0.1473 -0.4239  1.2404
   56MOL0     C 7640  10.793   2.161  10.032  0.4752  0.4103  0.2253
   56MOL0     N 7641  10.384   2.009   9.472 -0.5078 -0.2229 -0.2825
   56MOL0     N 7642  10.385   2.074   9.358 -0.6485 -0.0709 -0.1246
   56MOL0     C 7643  10.618   2.665   8.245  0.5276  0.1677  0.3850
   56MOL0     C 7644  10.701   2.724   8.148  0.7964  0.3602 -0.1479
   56MOL0     C 7645  10.985   3.056   7.972  0.3111 -0.1244  0.7631
   56MOL0     C 7646  11.019   2.957   7.871 -0.7616  0.0957 -0.8734
   56MOL0     C 7647  11.082   3.002   7.753  0.9681  0.3900  0.2406
   56MOL0     C 7648  11.128   3.125   7.736  0.2224  0.6637 -1.1293
   56MOL0     O 7649  11.209   3.167   7.637  0.1629 -0.6556  0.8153
   56MOL0     C 7650  11.345   3.116   7.650 -0.6087  0.4912  0.1199
   56MOL0     C 7651  11.431   3.215   7.723 -1.0393  0.2439 -0.1576
   56MOL0     C 7652  11.573   3.208   7.657 -0.4151  0.9117  0.5043
   56MOL0     C 7653  11.666   3.316   7.715 -0.1860 -0.5449  0.4900
   56MOL0     C 7654  11.803   3.295   7.682 -1.2930 -0.6068 -0.3232
   56MOL0     C 7655  11.918   3.272   7.662 -0.8309  0.9640 -0.0355
   56MOL0     C 7656  11.104   3.221   7.828  0.4372 -0.1706 -0.6928
   56MOL0     C 7657  11.025   3.189   7.940 -0.5201 -0.7145  1.5206
   56MOL0     C 7658  11.003   3.304   8.041 -0.2074  0.7219  0.0287
   56MOL0     H 7659  10.920   2.882   8.360 -0.7549 -0.0752  2.4823
   56MOL0     H 7660  10.798   2.764   8.510  4.7844 -2.1500 -1.8755
   56MOL0     H 7661  10.621   2.719   8.637 -1.2766  1.4198 -0.7779
   56MOL0     H 7662  10.666   2.551   8.663  2.3224  2.2894  0.3584
   56MOL0     H 7663  10.396   2.675   8.658 -1.0466 -1.1974 -0.2416
   56MOL0     H 7664  10.433   2.495   8.624 -0.1048 -0.0898 -1.1444
   56MOL0     H 7665  10.549   2.493   8.840 -1.5959 -1.6165  0.0638
   56MOL0     H 7666  10.504   2.657   8.868 -0.1252  1.2431 -1.6326
   56MOL0     H 7667  10.265   2.617   8.911  0.4432 -0.9271  3.2904
   56MOL0     H 7668  10.279   2.474   8.805  0.0414  1.5534 -1.0568
   56MOL0     H 7669  10.386   2.495   9.098  3.2690  0.1638 -1.1576
   56MOL0     H 7670  10.434   2.377   8.993 -0.2056  0.4491  1.3032
   56MOL0     H 7671  10.155   2.434   9.105  0.4167 -0.7491 -0.0404
   56MOL0     H 7672  10.170   2.315   8.980 -1.0432  0.4794  1.0717
   56MOL0     H 7673  10.365   2.217   9.113 -0.9000  0.4074 -2.1855
   56MOL0     H 7674  10.194   2.179   9.167  0.4093 -1.0858 -2.5742
   56MOL0     H 7675  10.386   2.387   9.299  1.0177 -2.2882 -0.1361
   56MOL0     H 7676  10.215   2.351   9.344 -0.8688 -1.2775 -0.3773
   56MOL0     H 7677  10.336   2.311   9.589  1.1317  0.0663 -0.3884
   56MOL0     H 7678  10.323   2.117   9.788 -1.9532 -1.3670 -0.3103
   56MOL0     H 7679  10.493   2.120   9.755  0.2744 -0.4839  0.1755
   56MOL0     H 7680  10.331   1.867   9.723 -1.5599  1.7887 -0.0530
   56MOL0     H 7681  10.506   1.867   9.696 -1.9266 -1.7105 -0.9169
   56MOL0     H 7682  10.386   1.969   9.949  0.1349  2.3846 -1.9919
   56MOL0     H 7683  10.395   1.789   9.930 -4.1909  0.9007 -0.8513
   56MOL0     H 7684  10.584   1.852  10.050 -0.6783 -1.2857 -0.2152
   56MOL0     H 7685  10.648   1.821   9.885  1.7074  0.9456  0.0706
   56MOL0     H 7686  10.809   1.824  10.048 -1.4181  0.0009  2.6117
   56MOL0     H 7687  10.962   1.829  10.361 -0.7245 -2.3241  0.3567
   56MOL0     H 7688  11.095   1.834  10.250 -0.9112  0.6177  0.9732
   56MOL0     H 7689  10.947   1.740  10.215  1.3121 -1.7518  0.9301
   56MOL0     H 7690  11.281   2.465  10.299 -0.3976  2.6999  0.7412
   56MOL0     H 7691  11.342   2.606  10.493 -2.4216  2.5503 -2.1930
   56MOL0     H 7692  11.237   2.668  10.890 -0.8559  1.4660 -3.6207
   56MOL0     H 7693  11.128   2.516  10.870  0.8514 -2.5328  2.8053
   56MOL0     H 7694  11.435   2.520  10.888  0.6864 -0.2783 -0.4420
   56MOL0     H 7695  11.312   2.468  11.014 -2.2362 -0.6053 -2.6110
   56MOL0     H 7696  11.326   2.337  10.746  0.0597 -2.5925  0.2124
   56MOL0     H 7697  11.240   2.289  10.895  1.0984 -0.7373  2.4520
   56MOL0     H 7698  11.465   2.286  11.013 -1.1000  0.4901  0.0428
   56MOL0     H 7699  11.538   2.283  10.849 -1.1115 -2.3282 -0.3788
   56MOL0     H 7700  11.528   2.059  10.919 -0.7141 -0.3317  2.1180
   56MOL0     H 7701  11.361   2.045  10.937  3.5072 -4.1462  0.7429
   56MOL0     H 7702  11.475   2.139  10.678  1.2712 -1.6895 -0.1012
   56MOL0     H 7703  11.303   2.124  10.712  0.0289 -1.3187 -3.5059
   56MOL0     H 7704  11.408   1.932  10.599  0.1372  1.9100  0.3241
   56MOL0     H 7705  11.332   1.881  10.753  0.7255 -1.4329 -0.8225
   56MOL0     H 7706  11.515   1.750  10.732  0.2597  0.5781 -0.5505
   56MOL0     H 7707  11.547   1.872  10.854 -3.4654 -0.0558  0.7841
   56MOL0     H 7708  11.063   2.377  10.726 -3.1195  1.9645  0.0209
   56MOL0     H 7709  11.023   2.220  10.542 -1.0279  0.8545  0.3116
   56MOL0     H 7710  10.918   2.293  10.147  2.8333 -1.7336  3.8348
   56MOL0     H 7711  10.743   2.243   9.981 -2.0823 -1.1967  0.0261
   56MOL0     H 7712  10.527   2.613   8.217 -0.0921  1.6351 -0.4153
   56MOL0     H 7713  10.677   2.708   8.043  1.1669 -1.8326  0.0566
   56MOL0     H 7714  10.977   2.858   7.880 -0.6428  0.2619  3.5724
   56MOL0     H 7715  11.104   2.923   7.682 -0.3258 -1.7078  2.0636
   56MOL0     H 7716  11.345   3.018   7.697 -1.4224 -0.1486 -1.1659
   56MOL0     H 7717  11.394   3.092   7.555  0.0534  0.3043  0.5055
   56MOL0     H 7718  11.448   3.177   7.824 -0.5714 -1.2260 -0.7588
   56MOL0     H 7719  11.388   3.316   7.726 -3.8585 -0.6349 -3.6735
   56MOL0     H 7720  11.611   3.105   7.662 -2.5163  0.0463 -0.2270
   56MOL0     H 7721  11.560   3.239   7.553 -1.2479  1.6736  0.8216
   56MOL0     H 7722  11.676   3.320   7.824 -1.5341 -0.9737  0.6478
   56MOL0     H 7723  11.633   3.413   7.675  0.0741 -0.9626 -0.7768
   56MOL0     H 7724  12.009   3.217   7.656 -0.8836  0.3780  3.0107
   56MOL0     H 7725  11.131   3.323   7.800 -0.7428  1.1132  2.4627
   56MOL0     H 7726  11.035   3.390   7.981  3.3602 -2.1763 -2.6233
   56MOL0     H 7727  10.902   3.334   8.072 -0.2842  0.0796  0.4225
   56MOL0     H 7728  11.077   3.288   8.120  2.3020 -0.9284 -2.4924
   57MOL0     O 7729   9.277   4.795   7.202 -0.4916 -0.1269  0.7787
   57MOL0     C 7730   9.155   4.811   7.198 -0.5075 -0.3478 -0.2415
   57MOL0     O 7731   9.077   4.756   7.095 -0.4655  0.3892 -0.4003
   57MOL0     C 7732   9.141   4.680   6.996  1.3255  0.3476  0.3996
   57MOL0     C 7733   9.195   4.765   6.893  0.9107  0.2252 -1.0976
   57MOL0     C 7734   9.254   4.697   6.794 -0.7770 -0.5916 -1.0001
   57MOL0     C 7735   9.294   4.560   6.808 -0.0808  0.5441 -0.6183
   57MOL0     O 7736   9.365   4.510   6.710  0.3350 -0.0152  0.2801
   57MOL0     C 7737   9.442   4.591   6.611  0.1669 -0.1207  0.1827
   57MOL0     C 7738   9.547   4.503   6.539  0.2730  0.0220  0.3237
   57MOL0     C 7739   9.637   4.572   6.430 -0.7321 -0.1469  0.6672
   57MOL0     C 7740   9.562   4.675   6.341  0.4177 -0.0858  0.5069
   57MOL0     C 7741   9.657   4.746   6.240 -0.2844 -0.5593  0.8596
   57MOL0     C 7742   9.741   4.853   6.303  0.0807  0.0793  0.5961
   57MOL0     C 7743   9.835   4.940   6.209 -0.0868 -0.0832 -0.3494
   57MOL0     C 7744   9.927   4.857   6.124  0.1481 -0.0900 -0.1012
   57MOL0     N 7745  10.018   4.766   6.198  0.4402  0.0505  0.4481
   57MOL0     C 7746  10.018   4.624   6.201  0.2251  0.1986  0.2946
   57MOL0     C 7747  10.101   4.596   6.304  0.3884  0.7233 -0.7669
   57MOL0     C 7748  10.123   4.454   6.335 -0.7726 -0.1536 -0.6143
   57MOL0     C 7749  10.272   4.416   6.380  0.3931 -0.1540 -0.0422
   57MOL0     C 7750  10.283   4.269   6.401  0.7035 -0.0537  0.2953
   57MOL0     C 7751  10.419   4.253   6.484  0.8140  0.3805  0.8034
   57MOL0     O 7752  10.536   4.246   6.408  0.3062  0.3107 -0.9899
   57MOL0     C 7753  10.552   4.114   6.352  0.2049 -0.6268  1.1876
   57MOL0     C 7754  10.636   4.111   6.242  0.1546  0.4082  0.2285
   57MOL0     C 7755  10.671   3.996   6.168 -0.8400  0.5711 -0.1689
   57MOL0     C 7756  10.769   3.998   6.047  0.4767  0.8035 -0.1001
   57MOL0     C 7757  10.614   3.876   6.210 -1.0159 -0.0550  1.2349
   57MOL0     C 7758  10.656   3.752   6.147  0.2829  0.2028  0.4153
   57MOL0     O 7759  10.554   3.664   6.118  0.1579  0.0409  0.0171
   57MOL0     C 7760  10.569   3.570   6.016 -0.3292 -0.1496 -0.1828
   57MOL0     C 7761  10.671   3.561   5.912  0.3498  0.0146 -0.7506
   57MOL0     C 7762  10.661   3.451   5.817 -0.9063 -0.1245 -1.0864
   57MOL0     C 7763  10.569   3.352   5.832 -0.4703  0.6120 -1.2115
   57MOL0     O 7764  10.551   3.246   5.741 -0.4442 -0.3923 -0.0739
   57MOL0     C 7765  10.655   3.207   5.653  0.7424 -0.0773 -0.8297
   57MOL0     C 7766  10.613   3.089   5.557  0.3215  0.7418  0.5433
   57MOL0     C 7767  10.700   3.085   5.436 -0.3807 -0.2412  0.1495
   57MOL0     C 7768  10.844   3.139   5.450 -0.1033 -0.2187  0.2878
   57MOL0     C 7769  10.940   3.044   5.528 -0.0486 -1.1186  0.1048
   57MOL0     C 7770  11.063   3.123   5.597  0.6837 -0.2451  0.0777
   57MOL0     C 7771  11.161   3.023   5.674 -0.1284 -0.3444  0.5622
   57MOL0     C 7772  11.291   3.095   5.708 -0.6950  0.5310 -0.4715
   57MOL0    Cl 7773  11.421   2.977   5.711 -0.1034  0.1973  0.1726
   57MOL0     C 7774  10.473   3.361   5.931  0.3156 -0.3181  0.1136
   57MOL0     C 7775  10.462   3.471   6.019  0.3911  0.7770  0.2157
   57MOL0     O 7776  10.774   3.719   6.136 -0.2601  0.1162 -0.5545
   57MOL0     C 7777  10.526   3.879   6.321 -1.3746  0.3781  0.0532
   57MOL0     C 7778  10.495   3.995   6.386 -0.0552  0.6088  0.0273
   57MOL0     N 7779  10.160   4.717   6.349  1.1133 -0.3869 -0.6862
   57MOL0     N 7780  10.109   4.811   6.285  0.4329 -0.2838  0.0720
   57MOL0     C 7781   9.229   4.480   6.897 -0.5408  0.3719  0.7471
   57MOL0     C 7782   9.135   4.534   6.993 -0.1554  0.2752 -0.5526
   57MOL0     C 7783   9.098   4.905   7.300  0.0862 -0.0211 -0.1477
   57MOL0     C 7784   8.961   4.894   7.304 -0.3335 -0.2086 -0.2782
   57MOL0     C 7785   8.883   4.960   7.404 -0.5403  0.3460 -1.3404
   57MOL0     C 7786   8.945   5.048   7.495 -0.2038 -0.1129  0.5203
   57MOL0     O 7787   8.870   5.090   7.601 -0.7010  0.1947  0.1892
   57MOL0     C 7788   8.943   5.166   7.706 -0.0674 -0.3675  1.1967
   57MOL0     C 7789   8.868   5.204   7.834 -0.9352  0.0097 -0.5241
   57MOL0     C 7790   8.773   5.324   7.816  0.3406  0.2972 -0.3483
   57MOL0     C 7791   8.714   5.379   7.953 -0.4805  0.5936 -0.6827
   57MOL0     C 7792   8.636   5.280   8.030 -0.3696  0.3503 -0.2509
   57MOL0     C 7793   8.569   5.201   8.093 -0.2572 -0.6650 -0.2423
   57MOL0     C 7794   9.086   5.066   7.479 -0.2319 -0.5919  0.5970
   57MOL0     C 7795   9.158   4.996   7.387 -0.6031  0.1728  0.2140
   57MOL0     C 7796   9.301   5.016   7.391 -0.2738 -0.7475 -0.1984
   57MOL0     H 7797   9.182   4.873   6.896  0.4903  0.1764  1.8368
   57MOL0     H 7798   9.281   4.757   6.708  3.2390  0.9012  0.9960
   57MOL0     H 7799   9.483   4.667   6.677  0.8472 -1.2535  1.1129
   57MOL0     H 7800   9.369   4.638   6.545 -3.8117 -1.1240  3.4410
   57MOL0     H 7801   9.618   4.466   6.613  2.0227  0.6337 -0.9734
   57MOL0     H 7802   9.498   4.414   6.496  1.3098  0.4046 -1.8188
   57MOL0     H 7803   9.731   4.605   6.474  0.9052 -3.0599 -0.3640
   57MOL0     H 7804   9.666   4.496   6.358  0.6705 -1.7677  2.8180
   57MOL0     H 7805   9.493   4.619   6.278  1.7684 -2.0098  0.6475
   57MOL0     H 7806   9.505   4.747   6.401  2.2335  2.3065 -0.4593
   57MOL0     H 7807   9.594   4.778   6.157  1.7008  3.2887  0.6682
   57MOL0     H 7808   9.708   4.660   6.194  1.7016  1.6308 -1.2946
   57MOL0     H 7809   9.685   4.934   6.350 -0.1478  0.4779 -0.3488
   57MOL0     H 7810   9.800   4.817   6.388  1.2161  4.0646  1.7037
   57MOL0     H 7811   9.891   5.007   6.275  1.3699  3.4847 -4.7510
   57MOL0     H 7812   9.783   5.010   6.143 -2.2841 -0.3721  0.9625
   57MOL0     H 7813   9.857   4.808   6.055 -1.9302 -0.0069  1.8204
   57MOL0     H 7814   9.985   4.930   6.067 -0.6519  1.1438  0.6223
   57MOL0     H 7815   9.967   4.562   6.128  1.0671 -1.6700  1.2133
   57MOL0     H 7816  10.087   4.395   6.250 -3.8375 -2.2238  1.8528
   57MOL0     H 7817  10.054   4.427   6.416  0.3047 -2.3587 -0.3491
   57MOL0     H 7818  10.338   4.443   6.297 -0.7618  2.4988 -0.2147
   57MOL0     H 7819  10.295   4.487   6.460 -3.1390  6.5597 -3.9818
   57MOL0     H 7820  10.208   4.217   6.461  1.1910 -0.3720  0.6404
   57MOL0     H 7821  10.293   4.225   6.301  2.2420 -0.9503  0.8026
   57MOL0     H 7822  10.442   4.334   6.554  2.2121  1.4995 -0.8587
   57MOL0     H 7823  10.415   4.166   6.551  4.1916  0.3186  1.1009
   57MOL0     H 7824  10.688   4.204   6.218 -2.0631  1.9963  1.2061
   57MOL0     H 7825  10.751   4.094   5.999 -1.2123  0.3287 -0.4923
   57MOL0     H 7826  10.747   3.921   5.972  0.0690 -2.2128  2.8480
   57MOL0     H 7827  10.874   3.998   6.076  0.4315 -2.6602  0.5852
   57MOL0     H 7828  10.748   3.636   5.906  0.3358  0.3793  2.1706
   57MOL0     H 7829  10.734   3.445   5.737  2.0384 -1.3659  1.4792
   57MOL0     H 7830  10.671   3.292   5.586 -3.6269  0.2812 -1.6950
   57MOL0     H 7831  10.739   3.181   5.717  0.7074  1.8610  0.0855
   57MOL0     H 7832  10.623   2.992   5.607 -0.8436  2.1747  3.8560
   57MOL0     H 7833  10.509   3.099   5.525  0.6973 -1.5669 -1.7028
   57MOL0     H 7834  10.651   3.135   5.352  1.2563  0.8860 -0.1730
   57MOL0     H 7835  10.701   2.977   5.419  0.9450 -0.1140 -0.7264
   57MOL0     H 7836  10.848   3.230   5.511  3.5489 -0.0235 -0.0024
   57MOL0     H 7837  10.891   3.180   5.360  0.3867  1.2639  1.1859
   57MOL0     H 7838  10.895   2.988   5.611  1.0423 -0.9612  0.8255
   57MOL0     H 7839  10.986   2.979   5.453  2.4521  0.9713 -0.3526
   57MOL0     H 7840  11.011   3.185   5.670  2.0315  0.5488  0.3789
   57MOL0     H 7841  11.116   3.182   5.521  0.4897  1.6419  1.3619
   57MOL0     H 7842  11.175   2.933   5.613 -1.1410  1.9772 -3.4586
   57MOL0     H 7843  11.101   3.004   5.764 -0.4210 -3.8727 -0.2443
   57MOL0     H 7844  11.291   3.148   5.803 -0.8961 -0.4477  0.0867
   57MOL0     H 7845  11.331   3.166   5.635  1.8900  1.3428  1.5891
   57MOL0     H 7846  10.394   3.289   5.910 -0.8039  1.1822 -1.0303
   57MOL0     H 7847  10.382   3.470   6.093  0.6027 -0.1264  0.4451
   57MOL0     H 7848  10.484   3.786   6.360  1.9726 -1.2726  0.0736
   57MOL0     H 7849  10.417   3.984   6.461  0.7704  1.0332  0.9798
   57MOL0     H 7850   9.236   4.372   6.884  2.3602  0.2779  2.3054
   57MOL0     H 7851   9.102   4.480   7.081  1.0272 -0.0218 -0.2628
   57MOL0     H 7852   8.906   4.834   7.233  0.5631 -3.4921  1.5797
   57MOL0     H 7853   8.777   4.937   7.410 -1.2639  3.3388 -1.0768
   57MOL0     H 7854   9.028   5.103   7.732  2.2568  1.1541 -1.9705
   57MOL0     H 7855   8.979   5.254   7.652 -0.7812  0.3044  1.7771
   57MOL0     H 7856   8.939   5.248   7.905  0.6505 -0.9853 -1.4393
   57MOL0     H 7857   8.829   5.112   7.878  1.1173 -0.8102 -0.3510
   57MOL0     H 7858   8.825   5.412   7.778 -5.6629  3.2484 -3.0421
   57MOL0     H 7859   8.687   5.296   7.754 -0.4015 -0.4185  0.9636
   57MOL0     H 7860   8.660   5.470   7.928  2.2037  2.2902 -0.6252
   57MOL0     H 7861   8.790   5.418   8.021 -2.1210 -0.0962  1.6720
   57MOL0     H 7862   8.509   5.133   8.150  0.2230 -2.0062 -1.2503
   57MOL0     H 7863   9.123   5.135   7.554  0.4756 -0.4355  0.1171
   57MOL0     H 7864   9.324   5.071   7.299  2.2550 -2.3488 -0.6054
   57MOL0     H 7865   9.335   5.081   7.472 -4.6009  1.3300  0.2463
   57MOL0     H 7866   9.347   4.917   7.397 -0.6454 -0.8624  5.5840
   58MOL0     O 7867   8.010   9.089   7.255 -0.2678  0.5118 -0.4026
   58MOL0     C 7868   7.941   9.187   7.279  0.1335  0.2666  0.3049
   58MOL0     O 7869   7.805   9.206   7.241  0.7427  0.1903 -0.6445
   58MOL0     C 7870   7.751   9.107   7.162 -0.2503  0.1740  0.6442
   58MOL0     C 7871   7.690   9.141   7.044 -0.2735 -0.0140  0.2088
   58MOL0     C 7872   7.648   9.043   6.951 -1.0033 -0.9227 -0.0349
   58MOL0     C 7873   7.666   8.913   6.981 -0.9553  0.7281 -0.5221
   58MOL0     O 7874   7.632   8.821   6.884  0.4181 -0.0014  0.6707
   58MOL0     C 7875   7.622   8.684   6.922 -0.1289 -0.5369  0.0825
   58MOL0     C 7876   7.553   8.602   6.822  0.4923 -0.5246  0.0172
   58MOL0     C 7877   7.651   8.553   6.720 -0.8254 -0.0806 -0.0230
   58MOL0     C 7878   7.583   8.520   6.584  0.3984  0.3312  0.5121
   58MOL0     C 7879   7.657   8.461   6.477  0.2899 -0.2171 -0.1341
   58MOL0     C 7880   7.590   8.480   6.332  0.0334  0.0152  0.4093
   58MOL0     C 7881   7.682   8.405   6.233  0.1633 -0.4761  0.3949
   58MOL0     C 7882   7.636   8.466   6.093 -0.4161  0.7025  0.0300
   58MOL0     N 7883   7.496   8.442   6.058  0.4319 -0.0810  1.4519
   58MOL0     C 7884   7.425   8.323   6.055 -0.3722 -0.7898  0.2277
   58MOL0     C 7885   7.312   8.358   5.990  0.3633  0.3854  0.4636
   58MOL0     C 7886   7.206   8.265   5.948 -0.5662 -0.0086  0.2782
   58MOL0     C 7887   7.217   8.143   6.041 -0.0564  0.3694 -0.2909
   58MOL0     C 7888   7.299   8.039   5.970 -0.5559  0.0288 -0.2307
   58MOL0     C 7889   7.336   7.928   6.070 -0.5808 -0.0306  0.0044
   58MOL0     O 7890   7.419   7.969   6.173  0.0635  0.1128 -0.1165
   58MOL0     C 7891   7.430   7.882   6.278 -0.3325  0.7818  0.2618
   58MOL0     C 7892   7.480   7.938   6.394  0.5220  0.7588 -0.8602
   58MOL0     C 7893   7.489   7.857   6.512  0.6369 -0.7752  0.1529
   58MOL0     C 7894   7.568   7.912   6.640  0.3003  0.4119 -0.5222
   58MOL0     C 7895   7.446   7.718   6.498 -0.2369  0.9577 -1.0958
   58MOL0     C 7896   7.457   7.620   6.621 -0.5427  0.0128  0.9349
   58MOL0     O 7897   7.403   7.497   6.596 -0.6866  0.4580 -0.1962
   58MOL0     C 7898   7.464   7.380   6.614 -0.9461  0.5227  0.6304
   58MOL0     C 7899   7.403   7.252   6.609  0.3603 -0.3876  1.4359
   58MOL0     C 7900   7.465   7.129   6.644 -0.0271  0.4177 -0.9355
   58MOL0     C 7901   7.601   7.125   6.683  0.5045 -0.0899  0.9188
   58MOL0     O 7902   7.672   7.017   6.729 -0.2670 -0.6816  0.6577
   58MOL0     C 7903   7.604   6.949   6.833  0.3387 -0.0076  0.4458
   58MOL0     C 7904   7.701   6.920   6.948 -0.6752  0.7773 -0.0379
   58MOL0     C 7905   7.773   7.041   7.002 -0.4726 -0.0720  0.4672
   58MOL0     C 7906   7.847   6.997   7.120 -0.1790  0.1815 -0.5116
   58MOL0     C 7907   7.949   7.102   7.157  0.6917 -0.1172 -0.7509
   58MOL0     C 7908   8.026   7.048   7.276  0.5897  0.4154  0.3621
   58MOL0     C 7909   8.161   6.986   7.229 -0.4715 -0.3926  0.0539
   58MOL0     C 7910   8.156   6.886   7.126  0.6294  0.5834  0.3829
   58MOL0    Cl 7911   8.071   6.743   7.190  0.3129  0.2692 -0.1539
   58MOL0     C 7912   7.677   7.248   6.669  0.7647  0.4247 -0.4741
   58MOL0     C 7913   7.608   7.367   6.634  0.7601 -0.2113  0.6172
   58MOL0     O 7914   7.520   7.655   6.726 -0.0914  0.0015  0.5041
   58MOL0     C 7915   7.392   7.670   6.380 -0.7077 -0.5464 -0.3884
   58MOL0     C 7916   7.387   7.748   6.265  0.0535 -0.5495  0.4081
   58MOL0     N 7917   7.307   8.496   5.971  1.6315 -0.1027 -0.2679
   58MOL0     N 7918   7.422   8.551   6.008  1.3967 -0.5740  0.3981
   58MOL0     C 7919   7.717   8.872   7.105 -0.2365  0.4427  0.2737
   58MOL0     C 7920   7.775   8.972   7.180  0.8022 -0.2539  0.0232
   58MOL0     C 7921   7.985   9.286   7.374 -0.5092  0.3905  0.0443
   58MOL0     C 7922   7.897   9.370   7.442  0.1034 -0.9392  0.4434
   58MOL0     C 7923   7.931   9.452   7.551 -1.2567 -0.5207 -1.3492
   58MOL0     C 7924   8.064   9.445   7.601 -0.7418  0.0958  0.3529
   58MOL0     O 7925   8.107   9.523   7.704 -0.2557 -0.7728  0.6803
   58MOL0     C 7926   8.053   9.499   7.834  0.0260  0.4664  0.9727
   58MOL0     C 7927   8.101   9.598   7.937 -0.6586 -0.0758  0.1664
   58MOL0     C 7928   8.084   9.751   7.913 -0.3259  0.9321  0.1205
   58MOL0     C 7929   7.948   9.797   7.959  1.1046 -0.8536 -0.3797
   58MOL0     C 7930   7.946   9.947   7.952 -0.4418 -0.3553  0.3348
   58MOL0     C 7931   7.968  10.071   7.957  0.0048 -0.3279 -0.2749
   58MOL0     C 7932   8.150   9.364   7.524 -1.0063 -0.7167 -0.5343
   58MOL0     C 7933   8.122   9.285   7.415 -0.3721 -0.2339  0.4012
   58MOL0     C 7934   8.238   9.208   7.346 -0.3679 -0.5421 -0.3718
   58MOL0     H 7935   7.674   9.246   7.018  3.7255  0.3218 -1.7406
   58MOL0     H 7936   7.611   9.058   6.851  0.3904  4.2078 -0.0510
   58MOL0     H 7937   7.571   8.687   7.019 -0.8644  0.4856 -0.3198
   58MOL0     H 7938   7.721   8.643   6.943  0.3578  1.0644  1.0592
   58MOL0     H 7939   7.517   8.509   6.868 -0.6577  0.2844  0.8025
   58MOL0     H 7940   7.467   8.651   6.775  1.5000  2.1165  0.7125
   58MOL0     H 7941   7.718   8.639   6.707  0.9200 -1.3644 -0.0102
   58MOL0     H 7942   7.716   8.472   6.758  0.2629 -0.6298 -2.8193
   58MOL0     H 7943   7.492   8.461   6.597  0.8110 -0.2558  0.7931
   58MOL0     H 7944   7.550   8.616   6.541  0.2132  0.3332  0.6601
   58MOL0     H 7945   7.660   8.354   6.499 -1.6560 -0.8205 -2.4216
   58MOL0     H 7946   7.761   8.495   6.472  0.7863 -1.4817  0.9126
   58MOL0     H 7947   7.485   8.455   6.313 -1.3016  3.6100  2.1096
   58MOL0     H 7948   7.589   8.588   6.315 -1.4963  0.0526  0.5540
   58MOL0     H 7949   7.674   8.297   6.247  2.5578 -0.8842 -0.9083
   58MOL0     H 7950   7.787   8.422   6.259  0.6101 -0.3614 -1.3443
   58MOL0     H 7951   7.652   8.575   6.090 -3.0907  1.2793  2.3392
   58MOL0     H 7952   7.698   8.420   6.016 -2.0552  3.6462 -3.3717
   58MOL0     H 7953   7.459   8.227   6.092  1.3967 -0.6073 -0.8130
   58MOL0     H 7954   7.219   8.246   5.841  0.0216 -0.7791  0.4719
   58MOL0     H 7955   7.107   8.308   5.964 -0.9857 -0.8717  0.0892
   58MOL0     H 7956   7.259   8.170   6.138 -0.0955  0.7105 -0.3660
   58MOL0     H 7957   7.118   8.102   6.061  1.0080 -1.8662  0.7717
   58MOL0     H 7958   7.247   7.988   5.888 -1.3808 -1.2649  1.0553
   58MOL0     H 7959   7.392   8.081   5.930  0.9533 -2.6890  0.1290
   58MOL0     H 7960   7.240   7.886   6.101 -0.2410  1.1147  2.9666
   58MOL0     H 7961   7.387   7.855   6.006  0.0044  0.3917 -0.0143
   58MOL0     H 7962   7.507   8.043   6.401 -0.6470  1.0267 -0.1312
   58MOL0     H 7963   7.590   8.017   6.621  2.6381  0.1665  0.6108
   58MOL0     H 7964   7.664   7.861   6.642 -0.2366 -0.6290  1.7115
   58MOL0     H 7965   7.504   7.922   6.728  0.0166  1.3838 -0.8242
   58MOL0     H 7966   7.298   7.249   6.582  1.2177 -2.2150 -2.4638
   58MOL0     H 7967   7.393   7.053   6.671 -0.0024  0.4964 -0.6435
   58MOL0     H 7968   7.516   6.999   6.873 -0.4525 -2.0147  1.3208
   58MOL0     H 7969   7.571   6.852   6.795  1.1816  0.3701 -1.3505
   58MOL0     H 7970   7.643   6.864   7.022  0.1679 -1.5712 -1.0634
   58MOL0     H 7971   7.771   6.841   6.918 -2.1804 -0.1687 -1.2169
   58MOL0     H 7972   7.691   7.105   7.035 -1.9770 -2.2287  1.0966
   58MOL0     H 7973   7.840   7.099   6.938 -0.4706 -0.0906  0.4518
   58MOL0     H 7974   7.903   6.905   7.099  0.0937 -0.0139  0.9588
   58MOL0     H 7975   7.771   6.987   7.198  0.2069  3.3453  0.4092
   58MOL0     H 7976   8.015   7.116   7.071  1.1702  3.0790  0.0055
   58MOL0     H 7977   7.925   7.205   7.185 -1.7037 -0.9892  0.7207
   58MOL0     H 7978   7.980   6.965   7.331  1.2281  0.1060  0.4423
   58MOL0     H 7979   8.047   7.127   7.349  3.1319  0.6071 -0.4934
   58MOL0     H 7980   8.200   6.942   7.321 -0.2237 -2.2271 -0.8814
   58MOL0     H 7981   8.238   7.060   7.206  2.5431 -2.7239  1.9204
   58MOL0     H 7982   8.257   6.857   7.095  0.8373  0.3644  1.2421
   58MOL0     H 7983   8.105   6.932   7.041 -4.1000  0.2697  2.7273
   58MOL0     H 7984   7.784   7.251   6.685  0.9893 -1.1176 -1.4572
   58MOL0     H 7985   7.687   7.439   6.615  0.9237 -0.6301 -0.3105
   58MOL0     H 7986   7.353   7.569   6.375  3.7120 -2.4959  0.3301
   58MOL0     H 7987   7.366   7.703   6.168 -0.3432 -0.2900  0.3727
   58MOL0     H 7988   7.735   8.767   7.126 -1.2274  0.2094  0.0041
   58MOL0     H 7989   7.835   8.942   7.266  1.5976  0.0377 -0.4175
   58MOL0     H 7990   7.792   9.370   7.416 -0.0788  0.7876  1.0738
   58MOL0     H 7991   7.851   9.505   7.601 -0.4085 -0.5644  0.0913
   58MOL0     H 7992   7.945   9.511   7.823  0.2144  0.0056 -2.3522
   58MOL0     H 7993   8.078   9.395   7.859  0.8335  0.4458  0.1299
   58MOL0     H 7994   8.209   9.583   7.929 -1.0605 -2.9250 -1.2853
   58MOL0     H 7995   8.064   9.572   8.037  4.1206 -1.9723  1.7447
   58MOL0     H 7996   8.170   9.804   7.954  1.0363  2.6839 -4.4062
   58MOL0     H 7997   8.104   9.766   7.807 -0.7694 -1.6663 -0.4114
   58MOL0     H 7998   7.937   9.771   8.065  1.0084  1.7483  0.3243
   58MOL0     H 7999   7.872   9.765   7.888 -0.6848 -0.7173  1.3960
   58MOL0     H 8000   7.964  10.177   7.973 -0.1584 -0.5953  1.6969
   58MOL0     H 8001   8.252   9.372   7.559 -1.6673 -0.8006  1.5723
   58MOL0     H 8002   8.230   9.198   7.238  1.4317 -2.3237 -0.4069
   58MOL0     H 8003   8.334   9.261   7.354  0.2539 -1.2361 -2.5813
   58MOL0     H 8004   8.233   9.107   7.389 -1.5157  0.2764  1.5285
   59MOL0     O 8005   9.765   3.147   6.534  0.1700  0.7516  0.7851
   59MOL0     C 8006   9.835   3.247   6.563 -0.1608 -0.8197 -0.0878
   59MOL0     O 8007   9.963   3.266   6.515  0.4176 -0.2826  0.0589
   59MOL0     C 8008  10.009   3.236   6.383  1.1852  1.0934 -0.6566
   59MOL0     C 8009   9.916   3.197   6.282  0.6153 -0.0507  0.7795
   59MOL0     C 8010   9.959   3.177   6.146  0.5270 -0.4716 -0.6897
   59MOL0     C 8011  10.094   3.202   6.112  0.3877 -1.7016  1.2115
   59MOL0     O 8012  10.144   3.180   5.992  0.1436  0.2290 -0.2552
   59MOL0     C 8013  10.061   3.107   5.898 -0.0779  0.8482 -0.3731
   59MOL0     C 8014  10.127   3.086   5.760  1.0043 -1.0977  0.7972
   59MOL0     C 8015  10.272   3.044   5.752  0.2995  0.3565 -0.8770
   59MOL0     C 8016  10.289   2.897   5.721  0.3281  0.1724  0.1498
   59MOL0     C 8017  10.241   2.796   5.824  0.8317  0.5136  0.1580
   59MOL0     C 8018  10.289   2.650   5.790 -0.2630  0.3382  0.5018
   59MOL0     C 8019  10.234   2.534   5.874  1.0938  0.6142 -0.4207
   59MOL0     C 8020  10.078   2.550   5.893  0.1284  0.2603 -0.4811
   59MOL0     N 8021  10.038   2.422   5.963  0.5025 -0.0942 -0.0120
   59MOL0     C 8022  10.051   2.406   6.089  0.3082 -0.6656 -0.2941
   59MOL0     C 8023   9.966   2.315   6.131 -0.4456  0.5000  0.0310
   59MOL0     C 8024   9.969   2.259   6.275  1.5662  0.5275 -0.3356
   59MOL0     C 8025   9.833   2.202   6.320 -0.5278 -0.2392 -0.5289
   59MOL0     C 8026   9.846   2.134   6.455 -0.0580 -0.5752  0.0294
   59MOL0     C 8027   9.726   2.065   6.506  0.2631 -0.0866  0.1255
   59MOL0     O 8028   9.710   1.916   6.501 -0.7402 -0.1432  0.2460
   59MOL0     C 8029   9.801   1.842   6.420  0.6827 -0.4780 -0.6922
   59MOL0     C 8030   9.766   1.796   6.296 -0.4693  1.4340 -0.1439
   59MOL0     C 8031   9.855   1.721   6.220 -0.8455  0.0954  0.6918
   59MOL0     C 8032   9.805   1.649   6.095 -0.0311  0.6286 -0.0734
   59MOL0     C 8033   9.987   1.704   6.268  0.2365 -0.2350 -0.4319
   59MOL0     C 8034  10.087   1.630   6.191  0.2942  0.3987 -0.4605
   59MOL0     O 8035  10.210   1.674   6.169 -0.2919  0.4364 -0.2541
   59MOL0     C 8036  10.232   1.803   6.175 -0.0619  0.0909  0.7480
   59MOL0     C 8037  10.335   1.846   6.245 -0.1801 -0.0519 -0.0372
   59MOL0     C 8038  10.372   1.980   6.250  0.5244  1.2199 -0.2982
   59MOL0     C 8039  10.299   2.076   6.182  0.5251 -0.3234 -0.5974
   59MOL0     O 8040  10.337   2.207   6.184  0.1654  0.3769  0.9584
   59MOL0     C 8041  10.477   2.234   6.180 -0.6318  0.5378 -0.2013
   59MOL0     C 8042  10.512   2.378   6.172  0.1169  1.1837  0.1420
   59MOL0     C 8043  10.608   2.392   6.050 -0.8704  0.3730  0.2941
   59MOL0     C 8044  10.636   2.539   6.024  0.6672  0.4835  0.0407
   59MOL0     C 8045  10.744   2.567   5.913 -0.3835  0.0473 -1.0401
   59MOL0     C 8046  10.812   2.705   5.930  0.2170  0.4794  0.0312
   59MOL0     C 8047  10.735   2.815   5.864  0.1622 -0.2227 -0.3033
   59MOL0     C 8048  10.670   2.922   5.958  0.4230  0.3239  0.1402
   59MOL0    Cl 8049  10.582   2.857   6.089  0.0405  0.5151  0.1952
   59MOL0     C 8050  10.187   2.040   6.111 -0.7925 -0.0421 -0.3776
   59MOL0     C 8051  10.160   1.903   6.096  0.8815 -0.5426 -1.3462
   59MOL0     O 8052  10.059   1.517   6.144  0.5645  0.6154 -0.4443
   59MOL0     C 8053  10.020   1.762   6.391  0.0500  0.5576 -0.3760
   59MOL0     C 8054   9.930   1.836   6.460  0.7521 -0.4322 -0.4158
   59MOL0     N 8055   9.888   2.277   6.026 -0.0192 -0.3844  0.6425
   59MOL0     N 8056   9.924   2.352   5.934 -0.3110 -0.1677  0.0100
   59MOL0     C 8057  10.182   3.256   6.207 -0.0216 -0.2001 -1.0221
   59MOL0     C 8058  10.138   3.265   6.346  0.7218  0.0371 -0.0581
   59MOL0     C 8059   9.776   3.364   6.642 -0.8712 -0.1039 -0.1813
   59MOL0     C 8060   9.863   3.474   6.670  0.1747 -0.0004  0.1111
   59MOL0     C 8061   9.807   3.582   6.744 -0.1775 -0.5690 -0.0728
   59MOL0     C 8062   9.682   3.585   6.816 -0.5364 -0.1335 -0.2802
   59MOL0     O 8063   9.631   3.678   6.907  0.1718  0.6158 -0.0393
   59MOL0     C 8064   9.700   3.785   6.939 -1.2220 -0.2765 -0.3772
   59MOL0     C 8065   9.702   3.892   6.824 -0.3215  0.3024  0.1662
   59MOL0     C 8066   9.797   4.003   6.849  0.2821 -0.0122 -0.2231
   59MOL0     C 8067   9.762   4.093   6.961  0.4436  0.7806  0.8996
   59MOL0     C 8068   9.659   4.187   6.913 -1.2397 -0.0360 -0.5088
   59MOL0     C 8069   9.576   4.241   6.844 -0.3091  0.1520  0.0417
   59MOL0     C 8070   9.608   3.481   6.776 -0.8324  0.1017 -0.2325
   59MOL0     C 8071   9.652   3.369   6.708 -0.2176  0.4745 -0.2271
   59MOL0     C 8072   9.558   3.256   6.703 -0.3300  0.8665 -0.0165
   59MOL0     H 8073   9.810   3.175   6.297  0.5014 -0.1998 -0.1842
   59MOL0     H 8074   9.889   3.126   6.081  0.0769 -3.6466  1.9457
   59MOL0     H 8075   9.978   3.174   5.872 -0.7228 -0.4757 -1.8683
   59MOL0     H 8076  10.030   3.010   5.939 -2.3449  1.8214  0.3867
   59MOL0     H 8077  10.067   3.019   5.697  0.7976 -0.9321  0.8139
   59MOL0     H 8078  10.126   3.181   5.704 -0.8478 -2.2591 -1.3324
   59MOL0     H 8079  10.325   3.092   5.669 -0.2042 -0.4346 -1.6673
   59MOL0     H 8080  10.310   3.075   5.850 -2.0533  1.6087 -0.2777
   59MOL0     H 8081  10.238   2.875   5.626 -3.9060  2.7705  1.5431
   59MOL0     H 8082  10.396   2.881   5.710  0.1324 -4.2276  2.4213
   59MOL0     H 8083  10.135   2.805   5.798  0.6633 -2.1166 -0.2565
   59MOL0     H 8084  10.273   2.818   5.926  1.6174 -2.0279  0.5088
   59MOL0     H 8085  10.276   2.630   5.683  0.8904 -0.0334  0.4205
   59MOL0     H 8086  10.397   2.647   5.805 -0.1502 -0.2909 -0.3718
   59MOL0     H 8087  10.287   2.527   5.969  0.5165  0.6147 -0.0922
   59MOL0     H 8088  10.247   2.434   5.833 -1.0359 -0.2122  0.7501
   59MOL0     H 8089  10.055   2.635   5.958  2.8908 -0.8211  2.1297
   59MOL0     H 8090  10.025   2.550   5.797 -1.4946 -2.2203  0.3259
   59MOL0     H 8091  10.103   2.480   6.148 -2.6374 -0.2974  2.0878
   59MOL0     H 8092   9.987   2.339   6.348 -0.1657  1.0539 -0.4353
   59MOL0     H 8093  10.034   2.172   6.286 -3.3634 -3.6581 -0.9260
   59MOL0     H 8094   9.755   2.278   6.314 -1.3530 -1.1323 -1.5786
   59MOL0     H 8095   9.801   2.124   6.250  1.8851  0.2405 -2.2791
   59MOL0     H 8096   9.936   2.072   6.458 -2.5111 -4.4530 -0.2964
   59MOL0     H 8097   9.850   2.223   6.518 -0.7588  0.4020 -1.2473
   59MOL0     H 8098   9.724   2.093   6.611 -0.2386  2.6691 -0.5490
   59MOL0     H 8099   9.641   2.117   6.460 -0.1155  0.2576  1.1960
   59MOL0     H 8100   9.661   1.807   6.268  0.0329  1.6981 -2.0570
   59MOL0     H 8101   9.877   1.666   6.014  1.5338  1.3742  1.4098
   59MOL0     H 8102   9.706   1.692   6.077  1.1817  3.2434 -1.0043
   59MOL0     H 8103   9.796   1.541   6.107 -0.0319  0.3833 -1.9219
   59MOL0     H 8104  10.399   1.780   6.303 -0.3336  0.2299  0.4595
   59MOL0     H 8105  10.457   2.011   6.310 -0.9971  2.2346  1.4570
   59MOL0     H 8106  10.519   2.203   6.276  0.1509  2.2483  0.0527
   59MOL0     H 8107  10.501   2.171   6.094  0.5056  0.2444  0.3131
   59MOL0     H 8108  10.420   2.435   6.156 -0.9082 -0.2757  0.5986
   59MOL0     H 8109  10.557   2.409   6.267 -0.0613 -2.5430  1.6098
   59MOL0     H 8110  10.553   2.346   5.967 -2.8059  3.0379 -0.0282
   59MOL0     H 8111  10.704   2.339   6.049 -0.6672  0.7432 -0.4477
   59MOL0     H 8112  10.678   2.573   6.120  0.5117  3.1122 -0.7414
   59MOL0     H 8113  10.543   2.591   6.001 -1.4216 -3.4822 -1.4065
   59MOL0     H 8114  10.819   2.490   5.935  0.6527  0.8165 -1.7943
   59MOL0     H 8115  10.705   2.546   5.813  0.9890  0.2376 -1.6301
   59MOL0     H 8116  10.908   2.723   5.882 -0.7538  4.3947 -0.8156
   59MOL0     H 8117  10.843   2.724   6.033  1.4191  2.8748 -0.7042
   59MOL0     H 8118  10.665   2.766   5.795  2.4528  0.1766 -3.1195
   59MOL0     H 8119  10.807   2.873   5.805  0.6407  1.6884  2.0312
   59MOL0     H 8120  10.603   2.990   5.905 -1.8903 -1.0236  1.2081
   59MOL0     H 8121  10.748   2.985   6.001 -0.0382  2.0389 -1.4001
   59MOL0     H 8122  10.137   2.117   6.053 -0.8328 -0.1843 -0.5300
   59MOL0     H 8123  10.081   1.877   6.026  0.8709 -0.4350 -1.3749
   59MOL0     H 8124  10.116   1.750   6.440 -0.6957  1.1700  1.3081
   59MOL0     H 8125   9.958   1.881   6.555  0.1935  1.3442 -1.0545
   59MOL0     H 8126  10.286   3.284   6.196  0.1929  0.4458  1.8302
   59MOL0     H 8127  10.215   3.294   6.417  0.3796 -3.6628  2.1197
   59MOL0     H 8128   9.955   3.488   6.615 -0.4938  2.0570 -0.5948
   59MOL0     H 8129   9.863   3.675   6.736  1.7558 -1.6575  0.5200
   59MOL0     H 8130   9.646   3.828   7.024 -5.6175 -1.1359 -2.4008
   59MOL0     H 8131   9.802   3.750   6.957  0.5972  2.5231 -3.9194
   59MOL0     H 8132   9.601   3.930   6.806 -0.9265 -1.6872 -0.9126
   59MOL0     H 8133   9.735   3.840   6.733 -2.8835 -0.4526 -0.4020
   59MOL0     H 8134   9.896   3.968   6.879  1.3013  3.6129  1.2371
   59MOL0     H 8135   9.811   4.052   6.751 -0.9652 -0.0232 -0.4307
   59MOL0     H 8136   9.851   4.139   7.006  1.2115  1.6470 -1.3777
   59MOL0     H 8137   9.717   4.032   7.040 -2.8689  0.4304 -1.0916
   59MOL0     H 8138   9.504   4.289   6.781  3.4469  3.5961 -2.0880
   59MOL0     H 8139   9.507   3.472   6.813 -0.4017 -1.6765  0.5909
   59MOL0     H 8140   9.587   3.175   6.770 -0.4672  1.7147  1.0890
   59MOL0     H 8141   9.460   3.284   6.742 -1.3455 -2.8514  0.4722
   59MOL0     H 8142   9.534   3.234   6.598  0.2784 -4.9531  0.7388
   60MOL0     O 8143   6.604   4.761   6.450  0.1012 -0.0920 -0.5944
   60MOL0     C 8144   6.623   4.689   6.553  0.1501  0.6360  0.2771
   60MOL0     O 8145   6.729   4.698   6.635 -0.1781  0.0644 -0.5113
   60MOL0     C 8146   6.822   4.795   6.617  0.1721 -0.7201  0.2230
   60MOL0     C 8147   6.824   4.905   6.704 -0.0378 -0.4017 -0.9939
   60MOL0     C 8148   6.913   5.007   6.692 -0.0660 -0.0640  0.1310
   60MOL0     C 8149   7.004   4.997   6.588  0.6994 -0.3755 -1.1421
   60MOL0     O 8150   7.091   5.102   6.577 -0.2372 -0.4376  0.1680
   60MOL0     C 8151   7.221   5.080   6.526 -0.1013  0.6848  1.0164
   60MOL0     C 8152   7.260   5.220   6.470  0.6790 -0.1284  0.1988
   60MOL0     C 8153   7.297   5.330   6.575  0.2794  0.1958 -0.4210
   60MOL0     C 8154   7.411   5.286   6.670  0.6131 -0.5983  0.8102
   60MOL0     C 8155   7.466   5.393   6.761  0.0182  0.1390 -0.3027
   60MOL0     C 8156   7.381   5.423   6.888  0.2033  0.2947 -0.3981
   60MOL0     C 8157   7.442   5.552   6.952  0.4022  0.2705 -0.7875
   60MOL0     C 8158   7.334   5.615   7.045  0.2812 -0.1092  0.5385
   60MOL0     N 8159   7.363   5.599   7.192  0.1387 -0.7304  0.8928
   60MOL0     C 8160   7.422   5.493   7.260  0.2783  0.2007  1.1870
   60MOL0     C 8161   7.419   5.533   7.392 -0.0678  1.2827 -0.4806
   60MOL0     C 8162   7.450   5.437   7.516  0.6199 -0.0434 -0.5521
   60MOL0     C 8163   7.454   5.516   7.644  0.4108 -0.9340 -0.3837
   60MOL0     C 8164   7.466   5.422   7.776  0.1731  0.9251  0.7460
   60MOL0     C 8165   7.595   5.341   7.784  0.7111 -0.3579 -0.0928
   60MOL0     O 8166   7.711   5.424   7.812  0.3078 -0.3739 -0.0388
   60MOL0     C 8167   7.733   5.439   7.944 -0.6678 -0.3342  0.6980
   60MOL0     C 8168   7.681   5.556   8.004 -0.2316  0.9152 -0.1310
   60MOL0     C 8169   7.724   5.588   8.135  0.4833  0.2366 -0.1561
   60MOL0     C 8170   7.702   5.727   8.180 -0.2562 -0.0064 -0.1630
   60MOL0     C 8171   7.778   5.484   8.211  1.1256 -0.1426 -0.6076
   60MOL0     C 8172   7.803   5.505   8.358 -0.2775 -0.0939  0.2755
   60MOL0     O 8173   7.923   5.451   8.398  1.1316 -0.1352  0.3096
   60MOL0     C 8174   7.937   5.454   8.530  0.3046 -0.5509 -0.2352
   60MOL0     C 8175   7.948   5.344   8.612 -0.6653 -0.5328  0.9496
   60MOL0     C 8176   7.982   5.350   8.747  0.1884 -0.3226 -0.3861
   60MOL0     C 8177   7.978   5.468   8.813  1.3567  0.0542  0.2122
   60MOL0     O 8178   7.987   5.462   8.954  0.4057  0.3801 -0.1172
   60MOL0     C 8179   7.936   5.579   9.026 -0.9434  0.0112 -0.1194
   60MOL0     C 8180   7.923   5.557   9.175 -0.4285  0.6551 -0.6043
   60MOL0     C 8181   8.048   5.539   9.267 -0.0728 -0.0757 -0.2554
   60MOL0     C 8182   8.085   5.680   9.316 -0.0752  0.7631 -0.6219
   60MOL0     C 8183   8.233   5.679   9.361 -0.0142 -0.4839 -0.2964
   60MOL0     C 8184   8.264   5.619   9.500 -0.3996  0.5769  0.1426
   60MOL0     C 8185   8.194   5.694   9.609  0.2806 -0.4716  0.5740
   60MOL0     C 8186   8.231   5.627   9.736  0.3412 -0.4355  0.7645
   60MOL0    Cl 8187   8.169   5.726   9.874  0.1632  0.3737  0.0139
   60MOL0     C 8188   7.966   5.581   8.737  0.2870  0.3101  0.6580
   60MOL0     C 8189   7.936   5.580   8.596 -0.7030 -0.0867  0.1432
   60MOL0     O 8190   7.713   5.557   8.423  0.0461  0.1259  0.2300
   60MOL0     C 8191   7.833   5.366   8.150 -0.1139 -0.1357  0.2846
   60MOL0     C 8192   7.821   5.357   8.011 -0.0298 -0.4146  0.4749
   60MOL0     N 8193   7.384   5.667   7.398  0.9230  0.1065 -0.0105
   60MOL0     N 8194   7.349   5.708   7.278  0.0339  0.3547 -0.6098
   60MOL0     C 8195   7.012   4.887   6.497 -0.2588 -0.2387  0.2350
   60MOL0     C 8196   6.925   4.779   6.524 -0.0759 -0.2983 -0.3273
   60MOL0     C 8197   6.526   4.582   6.576 -0.1027  0.3561  0.4317
   60MOL0     C 8198   6.431   4.562   6.474  0.7647  0.3984 -0.2271
   60MOL0     C 8199   6.347   4.449   6.482  0.4435 -0.4466 -0.0954
   60MOL0     C 8200   6.336   4.382   6.600  0.0008 -0.2113 -0.2922
   60MOL0     O 8201   6.263   4.273   6.590 -0.9173 -0.1824  0.0407
   60MOL0     C 8202   6.208   4.207   6.703 -1.0478  1.5335 -0.6844
   60MOL0     C 8203   6.111   4.286   6.783  0.3805  1.1086 -0.2196
   60MOL0     C 8204   6.072   4.197   6.902  0.3612 -0.2798 -0.1010
   60MOL0     C 8205   5.965   4.252   6.999  0.0490 -0.1869  0.1391
   60MOL0     C 8206   5.966   4.200   7.136 -0.1415  0.0026  0.6715
   60MOL0     C 8207   5.974   4.150   7.246  0.7363 -0.1081  0.1382
   60MOL0     C 8208   6.411   4.423   6.716 -0.8483  0.5257  0.7824
   60MOL0     C 8209   6.508   4.518   6.712 -0.0202  0.4989 -0.1398
   60MOL0     C 8210   6.587   4.540   6.841  0.6684  0.2878  1.1339
   60MOL0     H 8211   6.771   4.894   6.798  4.3362 -1.3356  1.6955
   60MOL0     H 8212   6.920   5.082   6.770 -1.3457  0.4773 -0.2381
   60MOL0     H 8213   7.227   5.002   6.450  1.1986 -2.0051  3.6250
   60MOL0     H 8214   7.285   5.053   6.611  2.1665 -0.1033 -0.8642
   60MOL0     H 8215   7.348   5.204   6.407  1.1712 -2.6692  1.4023
   60MOL0     H 8216   7.170   5.256   6.419  1.1995 -0.4982 -1.0049
   60MOL0     H 8217   7.324   5.424   6.527  1.1952  0.5482  0.7444
   60MOL0     H 8218   7.212   5.351   6.641  2.2512  0.2495  2.2725
   60MOL0     H 8219   7.365   5.207   6.730 -1.3807 -0.7274 -0.7651
   60MOL0     H 8220   7.496   5.243   6.615  0.2369  0.1846 -0.4295
   60MOL0     H 8221   7.475   5.481   6.697  4.5351 -0.3691 -0.6632
   60MOL0     H 8222   7.569   5.366   6.788 -0.8709 -0.9563  2.3427
   60MOL0     H 8223   7.277   5.446   6.861  0.5174  1.6845 -0.5076
   60MOL0     H 8224   7.358   5.341   6.957 -3.2805  0.7343 -0.8406
   60MOL0     H 8225   7.456   5.629   6.876  3.8352 -0.1663 -0.7249
   60MOL0     H 8226   7.535   5.527   7.003  0.0477 -0.0820 -0.2943
   60MOL0     H 8227   7.322   5.717   7.008 -1.1814 -1.1226 -2.0541
   60MOL0     H 8228   7.240   5.567   7.015 -0.1835  1.7760 -1.2435
   60MOL0     H 8229   7.452   5.395   7.224 -2.2719 -0.0500 -0.5016
   60MOL0     H 8230   7.550   5.396   7.499 -1.0660 -4.1179 -1.8031
   60MOL0     H 8231   7.378   5.358   7.538  2.2456 -1.2943  0.5407
   60MOL0     H 8232   7.538   5.586   7.638 -0.7003  0.4315 -0.2330
   60MOL0     H 8233   7.362   5.573   7.656 -0.0007 -2.0684  2.8263
   60MOL0     H 8234   7.450   5.480   7.867  0.5509  0.9674  0.7843
   60MOL0     H 8235   7.390   5.343   7.773  1.2073 -0.1637  2.0575
   60MOL0     H 8236   7.581   5.265   7.861 -0.5928  0.8287  0.9057
   60MOL0     H 8237   7.597   5.293   7.686 -1.1489 -0.3211 -0.1844
   60MOL0     H 8238   7.611   5.618   7.949  1.1431  1.2625 -1.5856
   60MOL0     H 8239   7.792   5.759   8.232  0.6975  1.8211 -2.7504
   60MOL0     H 8240   7.613   5.753   8.238  0.8159  1.7111  0.7798
   60MOL0     H 8241   7.681   5.792   8.094 -1.4517  1.6715  1.3166
   60MOL0     H 8242   7.923   5.246   8.571 -2.8477  0.5376 -0.3989
   60MOL0     H 8243   7.991   5.255   8.799 -1.7835 -3.5286 -5.0810
   60MOL0     H 8244   8.000   5.663   8.998 -0.2908 -0.2300  0.6309
   60MOL0     H 8245   7.841   5.602   8.977 -1.0306  1.0164  0.4793
   60MOL0     H 8246   7.864   5.635   9.224  0.2314 -0.5413  2.3577
   60MOL0     H 8247   7.873   5.460   9.180  0.8467  0.0286  0.8112
   60MOL0     H 8248   8.128   5.497   9.206  2.8261  1.0791  2.4594
   60MOL0     H 8249   8.029   5.463   9.343 -3.1291 -1.4533 -2.2023
   60MOL0     H 8250   8.016   5.704   9.398  1.3988  2.5559  0.1979
   60MOL0     H 8251   8.073   5.748   9.232 -2.8669 -0.2820 -1.1658
   60MOL0     H 8252   8.286   5.644   9.272  1.3217  2.3041 -0.7246
   60MOL0     H 8253   8.266   5.783   9.374 -0.3645  0.1080 -3.3472
   60MOL0     H 8254   8.374   5.621   9.494 -0.4773  0.8712 -1.8184
   60MOL0     H 8255   8.225   5.517   9.501 -3.1323  1.5487  1.1969
   60MOL0     H 8256   8.085   5.699   9.609  0.2880 -0.2104 -0.0478
   60MOL0     H 8257   8.239   5.794   9.610  0.6176 -0.6211  1.0162
   60MOL0     H 8258   8.341   5.628   9.739  1.0926  6.5360 -3.7566
   60MOL0     H 8259   8.196   5.523   9.734  2.2483 -1.1080 -0.5729
   60MOL0     H 8260   7.995   5.678   8.776  0.7681  0.4047  0.0993
   60MOL0     H 8261   7.943   5.670   8.536  1.6124 -0.4231 -0.1846
   60MOL0     H 8262   7.893   5.293   8.204 -1.8069 -0.3013  2.0366
   60MOL0     H 8263   7.864   5.278   7.950 -1.3224  0.0470 -1.1056
   60MOL0     H 8264   7.087   4.877   6.419  1.9901 -0.2569  2.2929
   60MOL0     H 8265   6.923   4.697   6.453  2.3354 -1.3968  0.7552
   60MOL0     H 8266   6.433   4.605   6.375  1.7314 -0.4060 -0.5793
   60MOL0     H 8267   6.291   4.428   6.391 -0.2374 -0.2657  0.2721
   60MOL0     H 8268   6.166   4.111   6.669  4.4595 -2.5193  2.3890
   60MOL0     H 8269   6.285   4.168   6.770 -0.9883 -0.6820 -1.9537
   60MOL0     H 8270   6.025   4.323   6.727 -0.0239  1.7753  0.8048
   60MOL0     H 8271   6.150   4.375   6.834 -1.2534  1.3833  0.6414
   60MOL0     H 8272   6.038   4.098   6.871  2.8074 -0.1604 -3.7728
   60MOL0     H 8273   6.166   4.188   6.958 -0.3441 -5.5184  0.7305
   60MOL0     H 8274   5.866   4.246   6.953 -0.0404 -0.7566  0.3986
   60MOL0     H 8275   5.977   4.361   6.996 -0.0643 -0.1804 -2.3683
   60MOL0     H 8276   5.995   4.106   7.341 -1.6256 -1.8655 -0.0594
   60MOL0     H 8277   6.400   4.374   6.812  0.3927  2.5443  2.0319
   60MOL0     H 8278   6.534   4.517   6.933  3.7538  2.4074  3.6486
   60MOL0     H 8279   6.660   4.459   6.849 -0.3745 -1.2386 -2.6409
   60MOL0     H 8280   6.617   4.640   6.872 -2.8764  0.9959  2.7596
   61MOL0     O 8281   9.006  11.380   3.282  0.5517  0.4145 -1.0602
   61MOL0     C 8282   9.091  11.457   3.237  0.1255 -0.5217  0.1605
   61MOL0     O 8283   9.164  11.539   3.309 -0.2497  0.0912 -0.2761
   61MOL0     C 8284   9.159  11.519   3.446  0.3296  0.3544 -0.0729
   61MOL0     C 8285   9.265  11.456   3.520  0.5897  0.3667  0.8501
   61MOL0     C 8286   9.253  11.428   3.661 -0.2585  0.1300  0.5116
   61MOL0     C 8287   9.130  11.464   3.722 -0.5170  0.3879 -0.1652
   61MOL0     O 8288   9.104  11.430   3.854 -0.2603  0.1722 -0.0655
   61MOL0     C 8289   9.210  11.422   3.948  0.4949 -0.1323 -0.3956
   61MOL0     C 8290   9.137  11.352   4.069  0.0159 -0.5270 -0.2319
   61MOL0     C 8291   9.220  11.329   4.192  0.3023  0.3343 -0.1359
   61MOL0     C 8292   9.147  11.245   4.298  0.5478  0.4380  0.2495
   61MOL0     C 8293   9.213  11.144   4.384  0.0518  0.4532 -1.5917
   61MOL0     C 8294   9.139  11.153   4.526  0.3564 -0.2924  0.0582
   61MOL0     C 8295   8.998  11.104   4.539  0.0953 -0.1119 -0.4678
   61MOL0     C 8296   8.959  10.967   4.474 -1.2278 -0.0714  0.1853
   61MOL0     N 8297   9.000  10.860   4.571 -0.8550 -0.3955 -0.7015
   61MOL0     C 8298   9.102  10.759   4.553  0.1600  0.1350 -0.4211
   61MOL0     C 8299   9.096  10.698   4.680 -0.8324 -0.9702  0.9697
   61MOL0     C 8300   9.175  10.570   4.710  0.7531 -0.0590 -0.8081
   61MOL0     C 8301   9.094  10.455   4.767  0.4351 -0.0215  0.4909
   61MOL0     C 8302   9.168  10.320   4.795  1.0401 -1.1915  0.2555
   61MOL0     C 8303   9.073  10.231   4.876  0.1996 -1.2053 -0.4764
   61MOL0     O 8304   8.951  10.203   4.811 -0.7236 -0.1774  0.3071
   61MOL0     C 8305   8.841  10.159   4.879  0.9914  0.3877  1.1851
   61MOL0     C 8306   8.842  10.118   5.015  0.7478 -1.2134  1.3288
   61MOL0     C 8307   8.724  10.078   5.078 -0.2183 -0.1552  0.0009
   61MOL0     C 8308   8.739  10.047   5.224  0.0369 -0.3732  0.0094
   61MOL0     C 8309   8.599  10.094   5.007 -0.0534 -0.8849  0.5492
   61MOL0     C 8310   8.467  10.073   5.068 -0.1283 -0.1037  0.3855
   61MOL0     O 8311   8.440   9.947   5.096  0.1134 -0.0806  1.0560
   61MOL0     C 8312   8.315   9.903   5.121  0.0643 -0.8613  0.5967
   61MOL0     C 8313   8.303   9.816   5.223 -0.8635  1.2838  0.0103
   61MOL0     C 8314   8.173   9.780   5.267 -0.2491  0.5874 -1.8947
   61MOL0     C 8315   8.064   9.834   5.205 -0.2051  1.0420  0.2489
   61MOL0     O 8316   7.939   9.814   5.250 -0.1575 -0.3168 -0.1611
   61MOL0     C 8317   7.892   9.688   5.290  0.0633  0.4259 -0.2307
   61MOL0     C 8318   7.756   9.718   5.346 -0.2574 -0.2923  0.1259
   61MOL0     C 8319   7.665   9.590   5.361 -0.0763 -0.3058  0.2692
   61MOL0     C 8320   7.740   9.458   5.388 -0.1047 -0.2653 -0.3864
   61MOL0     C 8321   7.628   9.348   5.381  0.1419  0.2753 -1.3849
   61MOL0     C 8322   7.681   9.213   5.339  0.0508  0.3870  0.0168
   61MOL0     C 8323   7.760   9.125   5.457 -0.0741 -0.7184  0.5783
   61MOL0     C 8324   7.779   8.984   5.417  0.0256 -0.5452  0.0008
   61MOL0    Cl 8325   7.624   8.918   5.450 -0.2860 -0.0026  0.2799
   61MOL0     C 8326   8.083   9.891   5.080 -0.3286 -0.0576  0.5429
   61MOL0     C 8327   8.205   9.938   5.046 -0.4568  0.3417  1.5889
   61MOL0     O 8328   8.385  10.165   5.092  0.7497 -1.0881  0.3726
   61MOL0     C 8329   8.595  10.143   4.872  0.0928  0.3007  0.1151
   61MOL0     C 8330   8.718  10.163   4.811  0.4892 -0.2477  0.1556
   61MOL0     N 8331   9.008  10.762   4.763  1.1869 -0.2278 -0.3613
   61MOL0     N 8332   8.948  10.852   4.693  0.2312  0.0965  0.2542
   61MOL0     C 8333   9.021  11.518   3.643 -0.4897  0.8291 -1.6312
   61MOL0     C 8334   9.039  11.554   3.508 -0.8411 -1.0823  0.0420
   61MOL0     C 8335   9.113  11.464   3.093 -0.6863 -0.2278  0.4480
   61MOL0     C 8336   9.096  11.598   3.029  1.4996  0.8516 -0.4261
   61MOL0     C 8337   9.122  11.608   2.903 -0.3779  0.2425 -0.1694
   61MOL0     C 8338   9.169  11.505   2.824 -0.5363  0.4663 -0.1913
   61MOL0     O 8339   9.183  11.538   2.688  0.2536  0.7034  0.1839
   61MOL0     C 8340   9.260  11.449   2.610 -0.5448  0.3114  0.6439
   61MOL0     C 8341   9.360  11.522   2.522  0.0399  0.0913  0.3753
   61MOL0     C 8342   9.437  11.623   2.606 -0.1455 -0.5470  0.2562
   61MOL0     C 8343   9.535  11.700   2.516 -0.3253  0.2813 -0.0423
   61MOL0     C 8344   9.460  11.780   2.414 -0.3996 -0.7496  0.2714
   61MOL0     C 8345   9.393  11.851   2.337  0.2054 -0.7994 -0.6722
   61MOL0     C 8346   9.175  11.374   2.881 -1.0340 -0.5897  0.8733
   61MOL0     C 8347   9.154  11.356   3.020 -0.2937  1.1168  0.6690
   61MOL0     C 8348   9.186  11.216   3.065 -0.9365  0.4263 -0.7324
   61MOL0     H 8349   9.357  11.434   3.466  0.1529 -1.5831  0.8164
   61MOL0     H 8350   9.343  11.397   3.713  2.7441  4.5247 -1.5371
   61MOL0     H 8351   9.250  11.520   3.976  0.4723 -0.5736  1.2671
   61MOL0     H 8352   9.290  11.359   3.908 -0.2063 -0.4356 -1.3754
   61MOL0     H 8353   9.054  11.415   4.102  1.9507  2.7136 -1.0658
   61MOL0     H 8354   9.096  11.257   4.034  0.4694 -1.2778  1.1992
   61MOL0     H 8355   9.306  11.276   4.150 -1.1183 -1.1861 -1.2934
   61MOL0     H 8356   9.242  11.430   4.228 -1.5845  2.2194 -3.8102
   61MOL0     H 8357   9.095  11.325   4.352  0.0429  1.6970 -1.9861
   61MOL0     H 8358   9.064  11.193   4.248  0.0815  0.8840  0.5477
   61MOL0     H 8359   9.316  11.179   4.394  0.1874 -0.4739  1.5089
   61MOL0     H 8360   9.215  11.046   4.337  1.0568  0.3350 -1.3205
   61MOL0     H 8361   9.199  11.095   4.597 -0.0069 -1.1642 -0.3319
   61MOL0     H 8362   9.134  11.254   4.568 -3.9138 -0.1482 -0.2954
   61MOL0     H 8363   8.937  11.173   4.480 -4.0174 -0.9710  2.3373
   61MOL0     H 8364   8.965  11.107   4.643  0.0554 -0.7628 -0.4579
   61MOL0     H 8365   8.850  10.966   4.462 -1.3456 -0.5224  1.2265
   61MOL0     H 8366   9.004  10.967   4.374  1.4468  0.4547  1.3113
   61MOL0     H 8367   9.169  10.743   4.470  0.1271  1.3597 -0.6969
   61MOL0     H 8368   9.252  10.593   4.785 -0.4581  0.1339  0.4017
   61MOL0     H 8369   9.219  10.541   4.614  0.1017  1.0835 -1.4763
   61MOL0     H 8370   9.061  10.484   4.867 -1.6717  0.9497 -0.4242
   61MOL0     H 8371   9.008  10.449   4.700  2.1822  1.6285 -2.0503
   61MOL0     H 8372   9.179  10.278   4.695 -2.9958 -1.5658 -0.1928
   61MOL0     H 8373   9.266  10.343   4.838  3.7568  0.8312 -5.9280
   61MOL0     H 8374   9.133  10.143   4.904  2.3073  0.9793  2.4616
   61MOL0     H 8375   9.048  10.284   4.968 -2.6495 -1.9557 -0.7404
   61MOL0     H 8376   8.943  10.112   5.056  1.5146 -2.9306 -0.5993
   61MOL0     H 8377   8.719   9.942   5.247  0.2491 -0.0572  1.7944
   61MOL0     H 8378   8.676  10.109   5.288 -1.6958 -2.4443  0.4080
   61MOL0     H 8379   8.839  10.070   5.263  0.5130  0.4098 -1.5699
   61MOL0     H 8380   8.392   9.777   5.273 -2.7596 -1.1556  1.7324
   61MOL0     H 8381   8.161   9.716   5.355  0.4689  3.5184  0.5116
   61MOL0     H 8382   7.880   9.627   5.200  0.5151  2.7733 -2.0094
   61MOL0     H 8383   7.968   9.646   5.356 -0.7496  1.5304  1.4972
   61MOL0     H 8384   7.764   9.785   5.431  1.7547 -0.0346 -0.1986
   61MOL0     H 8385   7.703   9.787   5.280  0.8981  0.0402 -0.4865
   61MOL0     H 8386   7.600   9.577   5.274 -2.0124  0.3837  1.5185
   61MOL0     H 8387   7.591   9.614   5.438 -0.3024  0.9346 -0.3104
   61MOL0     H 8388   7.792   9.450   5.484 -2.8234 -2.2713  1.0422
   61MOL0     H 8389   7.812   9.448   5.306 -1.3190 -0.8858 -1.4082
   61MOL0     H 8390   7.569   9.348   5.473  0.8522  0.4915 -0.9174
   61MOL0     H 8391   7.555   9.370   5.303 -0.2300 -0.9628 -1.4079
   61MOL0     H 8392   7.734   9.220   5.244  1.0856  0.0163  0.5435
   61MOL0     H 8393   7.593   9.152   5.319  0.1181 -0.4349  1.9706
   61MOL0     H 8394   7.718   9.140   5.557 -0.7898  2.5240 -0.1189
   61MOL0     H 8395   7.856   9.176   5.470  0.9927 -2.2547 -0.7526
   61MOL0     H 8396   7.853   8.939   5.483  2.1175  0.3592 -1.6254
   61MOL0     H 8397   7.813   8.978   5.313  3.1916  2.7625  0.6358
   61MOL0     H 8398   7.997   9.915   5.018  2.0718 -0.4360 -3.2804
   61MOL0     H 8399   8.216   9.987   4.949  1.4421  1.5722  2.3747
   61MOL0     H 8400   8.499  10.163   4.824 -0.5967  0.2884  1.4487
   61MOL0     H 8401   8.722  10.195   4.707 -1.3382 -0.1035  0.1021
   61MOL0     H 8402   8.923  11.546   3.681 -1.1417 -0.1568 -2.5031
   61MOL0     H 8403   8.954  11.609   3.469  1.6015  3.4188  0.4064
   61MOL0     H 8404   9.061  11.678   3.094 -1.8664  1.4700 -2.7462
   61MOL0     H 8405   9.124  11.705   2.855  0.8384  0.2058 -0.2403
   61MOL0     H 8406   9.322  11.376   2.662  1.4234  1.5220  0.0801
   61MOL0     H 8407   9.185  11.393   2.552 -0.3131  0.1051  0.5426
   61MOL0     H 8408   9.297  11.563   2.442  0.0023  1.0465  0.8754
   61MOL0     H 8409   9.435  11.454   2.481  0.7710  0.2162  1.4630
   61MOL0     H 8410   9.374  11.694   2.659 -0.5554 -2.5441  2.5936
   61MOL0     H 8411   9.489  11.560   2.679  2.4303  2.1227  0.9013
   61MOL0     H 8412   9.601  11.634   2.460 -0.8435  1.8719 -2.7428
   61MOL0     H 8413   9.597  11.761   2.582 -0.3198 -1.5118  1.6973
   61MOL0     H 8414   9.329  11.914   2.279 -1.1519 -2.2800 -0.8519
   61MOL0     H 8415   9.197  11.291   2.814 -0.5462  0.0419  0.2373
   61MOL0     H 8416   9.274  11.176   3.014 -0.4296  1.2098 -0.4835
   61MOL0     H 8417   9.207  11.207   3.172 -3.3948  0.3766 -0.1927
   61MOL0     H 8418   9.116  11.134   3.043  0.1601 -0.6778 -0.2532
   62MOL0     O 8419   7.370   8.945   0.091  0.4666  0.2014  0.7586
   62MOL0     C 8420   7.425   8.873   0.001  0.5348  0.1583 -0.7808
   62MOL0     O 8421   7.512   8.920  -0.086 -1.0325  0.2124  0.3188
   62MOL0     C 8422   7.535   9.048  -0.094  0.5046  0.5311 -1.3506
   62MOL0     C 8423   7.435   9.112  -0.156  0.3069 -0.2609  0.3230
   62MOL0     C 8424   7.426   9.251  -0.154  0.4995  0.3453 -0.7550
   62MOL0     C 8425   7.544   9.323  -0.121  0.5930 -0.4244 -0.2524
   62MOL0     O 8426   7.553   9.458  -0.126 -0.6772 -0.6083  0.2109
   62MOL0     C 8427   7.498   9.517  -0.011  0.1877 -0.5299 -0.7307
   62MOL0     C 8428   7.593   9.611   0.047  0.8278  0.2322  0.0678
   62MOL0     C 8429   7.541   9.645   0.192 -0.3085 -0.0975  0.2067
   62MOL0     C 8430   7.594   9.545   0.298 -0.1030 -0.4020 -0.5339
   62MOL0     C 8431   7.516   9.557   0.435 -0.8184  0.3407 -0.2223
   62MOL0     C 8432   7.563   9.472   0.544 -0.5913  0.1983 -0.0845
   62MOL0     C 8433   7.711   9.471   0.572 -0.1181  0.0199 -0.2926
   62MOL0     C 8434   7.763   9.607   0.632  0.7200 -0.5364  0.1971
   62MOL0     N 8435   7.740   9.601   0.774 -0.0678  0.0643 -0.5068
   62MOL0     C 8436   7.648   9.675   0.836  1.1019  0.8030  0.2454
   62MOL0     C 8437   7.652   9.638   0.971 -0.6708  0.1235  0.3532
   62MOL0     C 8438   7.571   9.705   1.080 -0.1646  0.3223  1.3714
   62MOL0     C 8439   7.650   9.783   1.175 -0.4526 -0.0846  1.2450
   62MOL0     C 8440   7.766   9.870   1.116  0.1541 -0.0307 -0.0331
   62MOL0     C 8441   7.831   9.945   1.240 -0.0097  0.2592 -0.0395
   62MOL0     O 8442   7.912   9.848   1.316 -0.2527  0.3163  0.9255
   62MOL0     C 8443   7.930   9.854   1.452  0.3102  0.4525  0.4046
   62MOL0     C 8444   7.965   9.734   1.515 -0.1290  0.4813  0.2833
   62MOL0     C 8445   7.978   9.721   1.657 -1.0448 -0.1496  0.0899
   62MOL0     C 8446   8.047   9.598   1.710  0.3739  0.3131  0.4871
   62MOL0     C 8447   7.936   9.827   1.735 -0.4844 -0.1062  0.7227
   62MOL0     C 8448   7.964   9.851   1.877 -0.4658 -0.3541  0.1623
   62MOL0     O 8449   7.907   9.941   1.954 -0.1135  0.7893  0.6968
   62MOL0     C 8450   7.920   9.925   2.091 -0.8557  0.2786  0.2458
   62MOL0     C 8451   7.890  10.041   2.168 -0.0867 -0.0551  0.2812
   62MOL0     C 8452   7.867  10.028   2.306  0.5711 -0.6159 -0.4083
   62MOL0     C 8453   7.916   9.910   2.383 -0.7700  0.2888  0.1332
   62MOL0     O 8454   7.931   9.898   2.517 -0.0763  1.0372  0.3778
   62MOL0     C 8455   7.948  10.028   2.576  0.0076 -0.2113 -1.0471
   62MOL0     C 8456   8.023  10.015   2.706  0.2558  0.1800  0.4179
   62MOL0     C 8457   8.173  10.007   2.687 -0.1544 -0.7788 -0.4854
   62MOL0     C 8458   8.232  10.145   2.677 -0.3439  0.3516  0.6782
   62MOL0     C 8459   8.387  10.122   2.667 -0.3598  0.5300 -0.5268
   62MOL0     C 8460   8.455  10.254   2.679 -0.1158  0.9484 -0.4572
   62MOL0     C 8461   8.605  10.228   2.695  0.2033 -0.2988 -0.6907
   62MOL0     C 8462   8.669  10.353   2.758 -0.7500 -1.3929 -0.6761
   62MOL0    Cl 8463   8.840  10.345   2.804  0.0403  0.5312 -0.4790
   62MOL0     C 8464   7.954   9.799   2.303 -0.4670 -0.0097  1.2372
   62MOL0     C 8465   7.945   9.803   2.160  0.0761 -0.4148  0.3990
   62MOL0     O 8466   8.055   9.776   1.915 -0.1153 -0.1724 -0.0629
   62MOL0     C 8467   7.884   9.940   1.670 -0.4840 -0.7909 -0.1190
   62MOL0     C 8468   7.873   9.949   1.533  0.6789 -0.5201 -0.5159
   62MOL0     N 8469   7.748   9.537   0.979  0.0086  0.0977  0.6204
   62MOL0     N 8470   7.804   9.519   0.860 -0.1117  0.4309 -0.0269
   62MOL0     C 8471   7.649   9.252  -0.075  0.1858  0.2789 -0.3125
   62MOL0     C 8472   7.656   9.113  -0.061 -0.1343 -0.2421  0.0409
   62MOL0     C 8473   7.380   8.732  -0.000  0.5272  0.2867  0.9594
   62MOL0     C 8474   7.474   8.634  -0.053  1.0957  0.1905 -0.7435
   62MOL0     C 8475   7.442   8.506  -0.070  0.1742 -1.2425 -0.6788
   62MOL0     C 8476   7.309   8.469  -0.046  0.4589 -0.5825  0.1121
   62MOL0     O 8477   7.274   8.339  -0.066 -0.4918  0.6835 -0.2142
   62MOL0     C 8478   7.356   8.237   0.003 -0.6400 -0.5405 -0.2319
   62MOL0     C 8479   7.393   8.254   0.156 -1.1402 -0.5077  0.3714
   62MOL0     C 8480   7.480   8.130   0.195 -0.0336 -0.8229  0.6132
   62MOL0     C 8481   7.538   8.156   0.335 -1.1516  1.5135  1.4353
   62MOL0     C 8482   7.436   8.144   0.439 -0.7524 -0.5740  0.4858
   62MOL0     C 8483   7.340   8.121   0.515  0.0628 -0.8505 -0.0459
   62MOL0     C 8484   7.205   8.557  -0.014  0.0882 -0.2162  0.0565
   62MOL0     C 8485   7.250   8.689   0.016 -0.0526  0.0242 -0.4253
   62MOL0     C 8486   7.144   8.790   0.054  0.1644 -0.2003  0.2106
   62MOL0     H 8487   7.358   9.049  -0.200  2.2114 -2.5821  0.0775
   62MOL0     H 8488   7.344   9.314  -0.184  0.5030 -1.0219 -3.9605
   62MOL0     H 8489   7.471   9.439   0.061  1.5598 -4.7875 -4.3541
   62MOL0     H 8490   7.406   9.569  -0.038  0.6956  0.0702 -1.3434
   62MOL0     H 8491   7.688   9.557   0.051  1.2575  0.9227 -0.5327
   62MOL0     H 8492   7.597   9.693  -0.024 -3.7287 -1.4026 -2.5285
   62MOL0     H 8493   7.567   9.747   0.223  0.3289 -0.4403  0.8061
   62MOL0     H 8494   7.432   9.637   0.200 -0.2727 -1.5607 -0.4881
   62MOL0     H 8495   7.574   9.442   0.269  0.9705 -0.5357 -0.8699
   62MOL0     H 8496   7.699   9.575   0.308 -0.9229  2.4179  0.6347
   62MOL0     H 8497   7.408   9.544   0.420 -1.5936  3.6716  1.5169
   62MOL0     H 8498   7.533   9.660   0.468 -0.2572  0.6021 -1.2605
   62MOL0     H 8499   7.517   9.496   0.641 -0.2303  1.1305 -0.1350
   62MOL0     H 8500   7.530   9.371   0.516 -1.9398  1.1820 -2.2863
   62MOL0     H 8501   7.751   9.463   0.470 -2.9346 -2.6127 -1.3484
   62MOL0     H 8502   7.743   9.384   0.630 -1.5633  0.5604  1.3910
   62MOL0     H 8503   7.865   9.614   0.595 -0.4278 -4.1526 -4.6037
   62MOL0     H 8504   7.707   9.694   0.593 -0.7357 -0.5450  2.1196
   62MOL0     H 8505   7.595   9.763   0.801  0.8078  0.8457  0.7862
   62MOL0     H 8506   7.521   9.626   1.136  0.0745 -0.2148  0.8405
   62MOL0     H 8507   7.497   9.774   1.037  0.2999  0.4775  0.8087
   62MOL0     H 8508   7.575   9.840   1.231 -1.0032 -0.7640  1.2071
   62MOL0     H 8509   7.695   9.704   1.234 -1.0419 -0.6124  1.0010
   62MOL0     H 8510   7.838   9.808   1.062  1.3857  0.6653  0.7670
   62MOL0     H 8511   7.723   9.944   1.048 -1.3724 -1.7274 -1.0019
   62MOL0     H 8512   7.885  10.031   1.199 -0.2206  0.0736 -0.7088
   62MOL0     H 8513   7.750   9.973   1.308 -0.7158  0.0492 -0.7841
   62MOL0     H 8514   7.995   9.657   1.446 -1.4434 -1.3806  1.6892
   62MOL0     H 8515   8.007   9.570   1.808  0.2281  0.4391  0.4656
   62MOL0     H 8516   8.146   9.635   1.736 -0.0504  1.5662  0.3880
   62MOL0     H 8517   8.053   9.516   1.638 -0.6881 -0.6904  1.4986
   62MOL0     H 8518   7.862  10.127   2.108  3.4488 -0.1542 -1.8067
   62MOL0     H 8519   7.847  10.126   2.347 -2.2888  0.8653 -4.6360
   62MOL0     H 8520   8.006  10.093   2.511 -0.6716  0.7373 -0.7248
   62MOL0     H 8521   7.848  10.067   2.598 -0.7095 -2.1915 -0.5121
   62MOL0     H 8522   7.994  10.104   2.762 -2.4487  0.4436 -1.2128
   62MOL0     H 8523   7.982   9.927   2.757 -1.2873 -0.9712 -2.5529
   62MOL0     H 8524   8.193   9.948   2.597  1.2489 -1.2583  0.1258
   62MOL0     H 8525   8.217   9.956   2.773  0.4124 -2.2792 -1.6130
   62MOL0     H 8526   8.194  10.212   2.754 -0.8184  0.9714 -0.0872
   62MOL0     H 8527   8.201  10.177   2.577  2.2307  0.3869 -0.1804
   62MOL0     H 8528   8.413  10.064   2.756 -3.1808  1.1742  0.8205
   62MOL0     H 8529   8.428  10.071   2.579  0.3755 -0.3701  0.3148
   62MOL0     H 8530   8.416  10.319   2.758 -0.1642 -0.6171  0.8758
   62MOL0     H 8531   8.440  10.312   2.588  2.8713 -0.4641 -2.0107
   62MOL0     H 8532   8.637  10.194   2.596  1.7546 -0.2978 -0.2271
   62MOL0     H 8533   8.633  10.148   2.764  3.2926  1.4169  0.2253
   62MOL0     H 8534   8.620  10.380   2.852  1.1206  1.5373 -0.3793
   62MOL0     H 8535   8.660  10.434   2.685  2.8047 -0.3021 -0.1010
   62MOL0     H 8536   7.992   9.710   2.354  3.5053  1.8392  1.9174
   62MOL0     H 8537   7.957   9.711   2.103 -0.2477 -0.5398  0.5316
   62MOL0     H 8538   7.845  10.024   1.727  1.9784 -1.1172  2.1853
   62MOL0     H 8539   7.822  10.035   1.490  1.8948 -0.0861 -1.1502
   62MOL0     H 8540   7.736   9.306  -0.037  2.1686 -2.1472 -1.0804
   62MOL0     H 8541   7.739   9.051  -0.028  0.6321  0.5537 -0.3699
   62MOL0     H 8542   7.575   8.663  -0.080  0.5199 -0.7529 -4.4603
   62MOL0     H 8543   7.522   8.440  -0.101  0.3271 -1.1041 -0.5776
   62MOL0     H 8544   7.312   8.137  -0.000  1.8023 -1.6448 -1.6266
   62MOL0     H 8545   7.448   8.245  -0.056 -0.7005  1.4456 -0.1447
   62MOL0     H 8546   7.302   8.266   0.216 -1.3952 -1.0384  0.1014
   62MOL0     H 8547   7.447   8.348   0.172 -2.8840  0.4384  0.9414
   62MOL0     H 8548   7.423   8.036   0.189  1.6681 -1.8340 -0.9380
   62MOL0     H 8549   7.556   8.114   0.118 -0.4587 -0.4214  0.0932
   62MOL0     H 8550   7.590   8.252   0.342  0.2092  1.2095 -2.3166
   62MOL0     H 8551   7.611   8.078   0.361 -2.0994  0.4298  0.9325
   62MOL0     H 8552   7.262   8.111   0.587  1.5514  0.4913  1.8590
   62MOL0     H 8553   7.108   8.510  -0.001  0.2940 -1.4557 -2.3282
   62MOL0     H 8554   7.155   8.878  -0.011  3.5351 -1.5545 -1.2985
   62MOL0     H 8555   7.050   8.736   0.039  0.8873 -1.7655  1.1359
   62MOL0     H 8556   7.163   8.816   0.159  0.0193 -0.0275  0.1958
   63MOL0     O 8557   4.882   6.228   9.450 -0.1513  0.9826 -0.7923
   63MOL0     C 8558   4.830   6.174   9.554 -0.2608 -1.1877  0.3872
   63MOL0     O 8559   4.789   6.048   9.564  0.1783  0.3254  0.5817
   63MOL0     C 8560   4.834   5.963   9.467 -0.8494 -0.4148  0.5802
   63MOL0     C 8561   4.755   5.922   9.351 -0.7132 -0.1695 -0.0028
   63MOL0     C 8562   4.815   5.823   9.266 -0.3691  0.2864  0.2228
   63MOL0     C 8563   4.936   5.764   9.294 -0.0727  2.1579  0.2876
   63MOL0     O 8564   4.987   5.666   9.198 -0.2114 -0.1862 -1.0572
   63MOL0     C 8565   5.126   5.698   9.148  0.3830  0.2753 -0.4409
   63MOL0     C 8566   5.140   5.583   9.043 -0.4688  0.2084 -0.2134
   63MOL0     C 8567   5.149   5.440   9.111  0.8160 -0.2450  0.7739
   63MOL0     C 8568   5.046   5.342   9.041 -0.3935 -0.2534  0.3259
   63MOL0     C 8569   4.922   5.309   9.132  0.4776 -0.1623 -0.4171
   63MOL0     C 8570   4.903   5.159   9.171  0.0101  0.0462  0.5499
   63MOL0     C 8571   4.809   5.132   9.291 -0.6518 -0.7610 -0.1210
   63MOL0     C 8572   4.884   5.161   9.428 -0.0123 -0.0619  0.0252
   63MOL0     N 8573   4.823   5.270   9.508 -0.6402 -0.4700  0.0434
   63MOL0     C 8574   4.792   5.397   9.463 -0.8117  0.7888 -1.0988
   63MOL0     C 8575   4.754   5.465   9.570 -0.3068 -0.4893  0.2645
   63MOL0     C 8576   4.710   5.609   9.559  0.9224 -0.0518 -0.1952
   63MOL0     C 8577   4.671   5.666   9.693 -0.6072 -0.2996  0.3574
   63MOL0     C 8578   4.521   5.678   9.697  0.0594 -0.6550 -0.1959
   63MOL0     C 8579   4.476   5.739   9.824  0.3924  0.1703 -0.1945
   63MOL0     O 8580   4.538   5.862   9.862 -0.5381  0.4900 -0.5930
   63MOL0     C 8581   4.473   5.942   9.959  0.2981 -0.9492 -0.0593
   63MOL0     C 8582   4.426   6.069   9.928 -0.5801  0.4500  0.6264
   63MOL0     C 8583   4.353   6.154  10.010  0.9356  0.0175  0.5376
   63MOL0     C 8584   4.319   6.284   9.943  0.2829  0.0677  0.2548
   63MOL0     C 8585   4.317   6.108  10.149  0.0438 -0.8830  0.1035
   63MOL0     C 8586   4.240   6.182  10.251  0.6290 -0.5217  0.7307
   63MOL0     O 8587   4.202   6.105  10.359  0.2733  0.2315  0.5272
   63MOL0     C 8588   4.166   6.163  10.475  0.0476 -0.5020 -0.3319
   63MOL0     C 8589   4.043   6.114  10.522 -0.5849  0.2883 -0.2455
   63MOL0     C 8590   3.982   6.163  10.634 -0.3771  0.6209  0.4169
   63MOL0     C 8591   4.054   6.262  10.708  0.4319  0.1654 -0.8186
   63MOL0     O 8592   3.987   6.318  10.820 -0.1649 -0.3171 -0.3392
   63MOL0     C 8593   4.045   6.280  10.948  0.2130 -0.8113  0.4363
   63MOL0     C 8594   4.034   6.131  10.983  0.6142 -0.2620  0.6285
   63MOL0     C 8595   3.889   6.097  11.035 -0.1985 -0.8215 -0.3429
   63MOL0     C 8596   3.882   5.962  11.101 -0.3407  0.7257 -0.2700
   63MOL0     C 8597   3.743   5.916  11.142  1.2198 -1.0496  1.2546
   63MOL0     C 8598   3.741   5.767  11.164  0.4171  0.1378  0.2966
   63MOL0     C 8599   3.596   5.714  11.179  0.0947 -0.7770  0.3662
   63MOL0     C 8600   3.579   5.561  11.175 -1.1879 -0.5963 -1.3597
   63MOL0    Cl 8601   3.610   5.499  11.023  0.2500 -0.0341  0.1538
   63MOL0     C 8602   4.177   6.303  10.672 -0.2382 -0.3819  0.8276
   63MOL0     C 8603   4.233   6.259  10.556 -0.1366  0.9482 -0.0069
   63MOL0     O 8604   4.206   6.295  10.230  0.4729  0.3237 -0.4045
   63MOL0     C 8605   4.361   5.972  10.175  0.0225 -1.3055 -0.1131
   63MOL0     C 8606   4.431   5.894  10.082  0.0233  0.8596 -0.3056
   63MOL0     N 8607   4.746   5.371   9.670 -0.0473  0.1622 -0.6522
   63MOL0     N 8608   4.801   5.264   9.641  0.2322  0.2233  0.2474
   63MOL0     C 8609   5.006   5.801   9.399  0.9848 -0.0055 -0.9857
   63MOL0     C 8610   4.961   5.903   9.491  0.4371 -0.3183  0.1795
   63MOL0     C 8611   4.837   6.260   9.676  0.4781  0.7256  0.5738
   63MOL0     C 8612   4.766   6.200   9.785  0.2199  0.1923 -0.9463
   63MOL0     C 8613   4.720   6.276   9.898 -1.7029 -0.1089  0.4567
   63MOL0     C 8614   4.769   6.412   9.910  0.2653 -0.2927 -0.7320
   63MOL0     O 8615   4.738   6.496  10.015 -0.1256 -0.2137  0.3534
   63MOL0     C 8616   4.627   6.460  10.101 -0.0712  0.9934 -0.5371
   63MOL0     C 8617   4.607   6.551  10.216 -0.2753 -0.1680 -0.6047
   63MOL0     C 8618   4.496   6.520  10.314  0.3479  0.3729 -0.1849
   63MOL0     C 8619   4.480   6.615  10.423  0.6447  0.2096  0.2390
   63MOL0     C 8620   4.563   6.584  10.537 -0.5046 -0.0175  0.0275
   63MOL0     C 8621   4.602   6.551  10.647  0.1214  0.3852 -0.4047
   63MOL0     C 8622   4.864   6.450   9.822 -0.0239 -0.9062 -0.8015
   63MOL0     C 8623   4.898   6.385   9.703 -0.0133 -0.7184 -0.4175
   63MOL0     C 8624   4.983   6.463   9.598  1.0468  0.4949 -0.6938
   63MOL0     H 8625   4.658   5.960   9.323 -0.1547  0.1417 -1.5932
   63MOL0     H 8626   4.758   5.808   9.174  0.6857 -2.7959 -0.0371
   63MOL0     H 8627   5.203   5.711   9.224  0.5614  3.3725 -1.0169
   63MOL0     H 8628   5.123   5.797   9.103 -2.7708  0.3575 -0.2955
   63MOL0     H 8629   5.049   5.576   8.983 -2.2657 -0.7586  2.4409
   63MOL0     H 8630   5.230   5.609   8.987  0.9546 -0.3265  1.7101
   63MOL0     H 8631   5.250   5.397   9.117  0.7785 -0.2831  1.1909
   63MOL0     H 8632   5.122   5.447   9.217  0.5090 -0.2394  0.6939
   63MOL0     H 8633   5.034   5.375   8.937  1.9226  0.8004  0.3226
   63MOL0     H 8634   5.094   5.244   9.034  1.9494  0.7323  1.5544
   63MOL0     H 8635   4.829   5.340   9.082 -0.0494 -2.1661 -0.7573
   63MOL0     H 8636   4.939   5.355   9.230 -3.0961  2.0819 -0.6635
   63MOL0     H 8637   4.858   5.116   9.081 -0.0272 -2.1944  1.5710
   63MOL0     H 8638   4.999   5.109   9.183  0.8423  1.9028  2.1116
   63MOL0     H 8639   4.786   5.026   9.283  0.2049 -0.8166 -3.6297
   63MOL0     H 8640   4.715   5.187   9.281 -0.7222 -0.5372  1.5542
   63MOL0     H 8641   4.886   5.079   9.502  1.1733  1.8184  2.1989
   63MOL0     H 8642   4.989   5.185   9.411  0.4703 -0.3595  2.2965
   63MOL0     H 8643   4.790   5.433   9.360  0.5546  3.9989 -0.1494
   63MOL0     H 8644   4.627   5.624   9.489 -1.3659 -2.7501  1.7115
   63MOL0     H 8645   4.788   5.667   9.510  1.6237 -2.0888 -1.6023
   63MOL0     H 8646   4.712   5.603   9.773 -1.3491 -1.6623 -0.2837
   63MOL0     H 8647   4.718   5.764   9.699  1.6648 -0.6975 -5.1288
   63MOL0     H 8648   4.487   5.753   9.624  4.2762 -0.6377 -2.4873
   63MOL0     H 8649   4.483   5.578   9.677  1.5284 -1.2512 -0.1648
   63MOL0     H 8650   4.369   5.758   9.814  0.2346  0.3548  1.5875
   63MOL0     H 8651   4.483   5.672   9.910 -4.0978  0.0692  0.3545
   63MOL0     H 8652   4.450   6.092   9.825 -0.4191  0.5245  0.6824
   63MOL0     H 8653   4.397   6.312   9.872 -1.5503 -1.1292 -2.3844
   63MOL0     H 8654   4.308   6.362  10.019 -2.2131  1.1635 -1.0872
   63MOL0     H 8655   4.231   6.273   9.879  0.2088  0.4005  0.2993
   63MOL0     H 8656   4.016   6.026  10.464  0.4132 -0.4364  0.3515
   63MOL0     H 8657   3.901   6.101  10.672  0.6748 -2.3738 -1.8388
   63MOL0     H 8658   4.151   6.306  10.948  0.1887 -0.5124 -1.7526
   63MOL0     H 8659   3.996   6.352  11.015  1.8089  2.4787 -1.6355
   63MOL0     H 8660   4.070   6.072  10.898  0.1691  0.3458  0.0040
   63MOL0     H 8661   4.100   6.112  11.068 -0.1675 -0.3192  1.2292
   63MOL0     H 8662   3.824   6.109  10.948  0.1740  2.1000 -0.3446
   63MOL0     H 8663   3.853   6.174  11.104 -1.6195 -0.4924 -1.4138
   63MOL0     H 8664   3.949   5.951  11.187 -1.7445  0.3684  0.8196
   63MOL0     H 8665   3.906   5.884  11.029 -2.3631 -1.4620  1.2916
   63MOL0     H 8666   3.696   5.946  11.236 -1.6787 -0.0593 -0.4020
   63MOL0     H 8667   3.668   5.946  11.069 -0.2340  0.2991  3.2285
   63MOL0     H 8668   3.795   5.743  11.256 -1.8590  2.3796  2.3628
   63MOL0     H 8669   3.776   5.710  11.077 -1.0238  0.1037 -0.2931
   63MOL0     H 8670   3.531   5.756  11.102  1.1624 -0.3780 -0.3527
   63MOL0     H 8671   3.562   5.757  11.273  1.6241  1.6160 -0.0895
   63MOL0     H 8672   3.476   5.544  11.209  0.0631 -3.1601  1.6996
   63MOL0     H 8673   3.654   5.519  11.243  1.0091  0.5652 -2.9338
   63MOL0     H 8674   4.232   6.383  10.720  1.1756  1.1788 -2.9699
   63MOL0     H 8675   4.328   6.288  10.511  0.2250  1.1383  0.8584
   63MOL0     H 8676   4.333   5.929  10.270 -0.2638  2.1001  1.4928
   63MOL0     H 8677   4.465   5.792  10.098  1.9533  1.5159 -0.0590
   63MOL0     H 8678   5.109   5.767   9.408  1.6054  1.4384 -2.2053
   63MOL0     H 8679   5.026   5.936   9.572  0.5367  4.3092 -1.4490
   63MOL0     H 8680   4.723   6.100   9.784 -0.2627  0.3461  0.8300
   63MOL0     H 8681   4.678   6.230   9.987 -0.0303 -0.0103  1.3214
   63MOL0     H 8682   4.543   6.444  10.033 -0.0393 -2.3174  0.0078
   63MOL0     H 8683   4.651   6.362  10.144 -1.3932 -0.2102 -2.3505
   63MOL0     H 8684   4.581   6.644  10.165  3.6298  0.7439 -1.3187
   63MOL0     H 8685   4.708   6.567  10.255  2.2805 -2.4915 -5.3310
   63MOL0     H 8686   4.404   6.511  10.255  1.5136 -1.4115 -1.8451
   63MOL0     H 8687   4.513   6.421  10.356 -2.5983 -0.7492 -1.3354
   63MOL0     H 8688   4.374   6.619  10.446  0.1831  0.4379 -1.7143
   63MOL0     H 8689   4.507   6.715  10.387  2.8265 -0.0692  0.9354
   63MOL0     H 8690   4.640   6.519  10.742  2.1232 -0.4878 -1.4269
   63MOL0     H 8691   4.903   6.550   9.840  1.2204 -1.9207  3.0882
   63MOL0     H 8692   5.024   6.390   9.526 -0.0970 -2.8899  1.8238
   63MOL0     H 8693   4.924   6.532   9.538 -2.6278 -1.8040 -0.0347
   63MOL0     H 8694   5.063   6.518   9.649  1.3964  0.5955 -1.3311
   64MOL0     O 8695   3.663   8.741   9.144  0.4385 -0.4594  0.5748
   64MOL0     C 8696   3.582   8.705   9.059 -0.0946 -0.2898  0.2251
   64MOL0     O 8697   3.612   8.668   8.919 -0.9033 -0.5795 -0.5895
   64MOL0     C 8698   3.740   8.657   8.878 -0.8659  0.1738  0.8884
   64MOL0     C 8699   3.837   8.755   8.907  0.1076  0.2260  0.3184
   64MOL0     C 8700   3.974   8.727   8.890  0.0842 -0.7331 -0.2796
   64MOL0     C 8701   4.014   8.612   8.810  0.1883 -0.1315 -1.0426
   64MOL0     O 8702   4.143   8.600   8.778 -0.6809  0.5207  0.4190
   64MOL0     C 8703   4.179   8.663   8.653  0.5999  0.6102  0.0925
   64MOL0     C 8704   4.325   8.696   8.637  0.3558 -0.9006 -0.3311
   64MOL0     C 8705   4.362   8.822   8.706  0.1295  0.1546  0.3270
   64MOL0     C 8706   4.514   8.852   8.689  0.0788  0.2056  0.4717
   64MOL0     C 8707   4.547   8.991   8.738 -0.2154  0.0419  0.2134
   64MOL0     C 8708   4.688   9.023   8.712 -0.9114 -0.8010 -0.3080
   64MOL0     C 8709   4.734   9.160   8.767  0.3617 -0.3255 -0.6767
   64MOL0     C 8710   4.882   9.189   8.780  0.0515  0.7258 -0.5632
   64MOL0     N 8711   4.907   9.316   8.853  0.5638  0.0416  1.1154
   64MOL0     C 8712   5.030   9.370   8.866  1.0290 -0.0279 -1.1612
   64MOL0     C 8713   4.999   9.482   8.939  0.8904  0.2179 -1.2032
   64MOL0     C 8714   5.096   9.580   9.003 -0.1039  0.0286 -0.0421
   64MOL0     C 8715   5.132   9.527   9.142 -0.0149  0.7709 -0.4915
   64MOL0     C 8716   5.271   9.567   9.195  1.0287 -0.1370 -0.5688
   64MOL0     C 8717   5.324   9.490   9.319 -0.0379  0.3433 -0.8572
   64MOL0     O 8718   5.301   9.354   9.301 -0.3346 -0.1439  0.3458
   64MOL0     C 8719   5.320   9.256   9.398  0.4767  0.1861  0.0975
   64MOL0     C 8720   5.390   9.269   9.519  0.1964  1.1809 -1.0560
   64MOL0     C 8721   5.391   9.161   9.609  0.1628 -0.0946 -0.2268
   64MOL0     C 8722   5.462   9.195   9.739  0.2614 -0.5102 -0.6569
   64MOL0     C 8723   5.353   9.028   9.569 -0.3497  0.2026  0.4557
   64MOL0     C 8724   5.383   8.896   9.641 -0.0682 -0.4314  0.3679
   64MOL0     O 8725   5.446   8.912   9.768  0.1362 -0.1106  0.2585
   64MOL0     C 8726   5.427   8.814   9.862  0.1737 -0.3990 -0.0891
   64MOL0     C 8727   5.524   8.804   9.969 -0.2102  0.0119  0.1615
   64MOL0     C 8728   5.494   8.718  10.076  0.4060  0.1734 -0.6814
   64MOL0     C 8729   5.379   8.645  10.079  0.1190 -0.0961  0.2139
   64MOL0     O 8730   5.349   8.582  10.199  0.8024 -0.8583  0.2146
   64MOL0     C 8731   5.297   8.668  10.302  0.0075 -0.2716  0.1252
   64MOL0     C 8732   5.325   8.611  10.434 -0.5457  0.0169 -0.4812
   64MOL0     C 8733   5.478   8.620  10.480 -1.0384  0.0241 -0.5918
   64MOL0     C 8734   5.505   8.753  10.560  0.2876 -0.4957  0.0817
   64MOL0     C 8735   5.643   8.792  10.586 -1.1372  1.1550 -0.6256
   64MOL0     C 8736   5.650   8.917  10.678 -0.2115 -0.0089  0.3874
   64MOL0     C 8737   5.787   8.960  10.720  0.6488  0.0735  0.0246
   64MOL0     C 8738   5.833   8.921  10.854 -0.5401  0.5494 -0.0927
   64MOL0    Cl 8739   5.720   8.996  10.965  0.4002 -0.2327  0.0199
   64MOL0     C 8740   5.289   8.648   9.974 -1.2081 -0.1154  0.7596
   64MOL0     C 8741   5.312   8.735   9.860 -0.1869  0.6589 -0.7726
   64MOL0     O 8742   5.364   8.789   9.579 -0.3939  0.1091 -0.2037
   64MOL0     C 8743   5.287   9.023   9.439 -0.8592  0.3266 -1.2639
   64MOL0     C 8744   5.271   9.134   9.365 -0.5754  1.2207  1.2295
   64MOL0     N 8745   4.861   9.505   8.949 -0.3246 -0.1366  0.7349
   64MOL0     N 8746   4.806   9.401   8.894 -0.5301  0.2550  0.4199
   64MOL0     C 8747   3.912   8.533   8.751  0.2300  0.3040  0.4422
   64MOL0     C 8748   3.769   8.550   8.787 -0.1440 -0.4936 -0.3780
   64MOL0     C 8749   3.433   8.693   9.094  0.8003 -0.9372  0.2049
   64MOL0     C 8750   3.339   8.636   9.003  0.1950  0.5394 -0.4654
   64MOL0     C 8751   3.212   8.614   9.032 -0.0104  1.3569  0.1362
   64MOL0     C 8752   3.163   8.648   9.155  0.0358 -0.8693 -0.2867
   64MOL0     O 8753   3.027   8.621   9.196  0.4722  0.3045  0.9250
   64MOL0     C 8754   2.985   8.479   9.218 -0.4021  0.6486  0.2947
   64MOL0     C 8755   3.075   8.406   9.323 -0.1255  0.0654  0.3918
   64MOL0     C 8756   3.069   8.253   9.307 -0.2557  0.5128  0.4196
   64MOL0     C 8757   3.174   8.186   9.396  0.3961  0.4989  0.8670
   64MOL0     C 8758   3.106   8.103   9.496 -0.3294  1.5011 -0.5767
   64MOL0     C 8759   3.057   8.031   9.585 -0.1933  0.3700  0.8597
   64MOL0     C 8760   3.241   8.719   9.246  0.1082  0.7595  0.2574
   64MOL0     C 8761   3.375   8.743   9.218 -0.2218  0.4776  1.1178
   64MOL0     C 8762   3.457   8.818   9.316  0.5503 -0.1206  0.8754
   64MOL0     H 8763   3.811   8.844   8.963 -1.7266  0.3826 -0.7042
   64MOL0     H 8764   4.048   8.801   8.918  0.5393 -0.9649 -0.8319
   64MOL0     H 8765   4.107   8.740   8.626  0.6768  1.0024  0.9535
   64MOL0     H 8766   4.176   8.581   8.581  0.8108  0.9785 -0.3354
   64MOL0     H 8767   4.384   8.613   8.677 -0.4599 -0.7186  1.3302
   64MOL0     H 8768   4.342   8.709   8.530 -2.9089  1.1726 -0.7411
   64MOL0     H 8769   4.305   8.904   8.662 -3.7052 -1.6337  1.6031
   64MOL0     H 8770   4.343   8.796   8.811  3.3971  1.2908  1.3351
   64MOL0     H 8771   4.562   8.769   8.741 -1.0915 -0.7077  0.1239
   64MOL0     H 8772   4.539   8.831   8.585 -1.7996 -0.5855  0.1395
   64MOL0     H 8773   4.507   9.009   8.838  2.7251  3.1560  1.0146
   64MOL0     H 8774   4.492   9.065   8.679  2.4025  0.8640 -1.3754
   64MOL0     H 8775   4.746   8.944   8.761  0.4038 -0.9635 -2.0145
   64MOL0     H 8776   4.721   9.030   8.608  0.6514  3.3399  0.2604
   64MOL0     H 8777   4.684   9.157   8.864  0.9259  0.8735 -0.3326
   64MOL0     H 8778   4.686   9.240   8.710  0.8884 -0.0468 -0.7365
   64MOL0     H 8779   4.933   9.112   8.839  0.4294 -0.7995 -2.7714
   64MOL0     H 8780   4.914   9.189   8.676  3.0374 -1.5949  0.2155
   64MOL0     H 8781   5.130   9.332   8.848  1.8027  0.7220  1.1612
   64MOL0     H 8782   5.058   9.683   9.002  3.0875  1.3834 -2.9481
   64MOL0     H 8783   5.183   9.588   8.936  1.3266  0.6183  1.8079
   64MOL0     H 8784   5.061   9.544   9.223  1.2248 -0.6548  0.9756
   64MOL0     H 8785   5.129   9.418   9.143 -0.2204  0.7779  0.9496
   64MOL0     H 8786   5.355   9.558   9.125  0.8611  2.4930 -1.2466
   64MOL0     H 8787   5.286   9.675   9.204  3.1897 -0.3249 -1.2225
   64MOL0     H 8788   5.432   9.507   9.331  0.3392 -1.9841 -0.5807
   64MOL0     H 8789   5.281   9.517   9.416  0.2460  0.0866 -0.6604
   64MOL0     H 8790   5.423   9.367   9.552 -3.7034  1.6519  2.1434
   64MOL0     H 8791   5.539   9.128   9.779  0.0446 -1.5406 -1.9174
   64MOL0     H 8792   5.380   9.200   9.812 -0.0380  0.0170 -1.0207
   64MOL0     H 8793   5.509   9.294   9.732 -0.2521 -0.1964  0.1330
   64MOL0     H 8794   5.611   8.866   9.953  0.6041 -1.0378  0.4436
   64MOL0     H 8795   5.554   8.726  10.166 -0.3542 -0.5145 -0.0951
   64MOL0     H 8796   5.326   8.772  10.284  1.2817 -0.1993  2.2843
   64MOL0     H 8797   5.188   8.662  10.291  0.2618 -1.3780 -2.3827
   64MOL0     H 8798   5.267   8.653  10.517 -2.3134 -3.4231  0.2158
   64MOL0     H 8799   5.297   8.506  10.421  1.1641 -0.3894 -1.0589
   64MOL0     H 8800   5.549   8.618  10.397 -1.5291 -2.2500 -1.0213
   64MOL0     H 8801   5.497   8.533  10.544 -0.0083  0.4247 -0.3351
   64MOL0     H 8802   5.441   8.746  10.649  2.5554 -0.6656  1.7820
   64MOL0     H 8803   5.451   8.826  10.499  0.7606  0.6975  1.0607
   64MOL0     H 8804   5.696   8.711  10.637  0.5064  2.7615  0.2993
   64MOL0     H 8805   5.692   8.816  10.491 -2.1591  2.3981 -0.8595
   64MOL0     H 8806   5.602   8.895  10.774 -1.6545 -0.0150 -0.2996
   64MOL0     H 8807   5.598   9.005  10.640  1.0628  0.3998 -0.4550
   64MOL0     H 8808   5.803   9.068  10.718 -2.4615  0.7486  2.4291
   64MOL0     H 8809   5.859   8.913  10.653 -0.3699 -0.4301 -0.7386
   64MOL0     H 8810   5.932   8.961  10.878 -1.3132  1.2207  2.1889
   64MOL0     H 8811   5.834   8.812  10.845  2.4185  0.6394 -3.5097
   64MOL0     H 8812   5.200   8.586   9.976 -0.3470 -1.4155  0.1744
   64MOL0     H 8813   5.240   8.755   9.782  0.3295  1.6665 -1.0017
   64MOL0     H 8814   5.249   8.930   9.397  0.4920  0.1091 -2.0545
   64MOL0     H 8815   5.222   9.129   9.268  0.3917 -3.3453  0.7325
   64MOL0     H 8816   3.937   8.447   8.690 -2.5533 -0.1814 -0.1915
   64MOL0     H 8817   3.697   8.500   8.723  1.2276  0.2664 -2.6531
   64MOL0     H 8818   3.368   8.598   8.906 -3.1445  1.1140 -1.8113
   64MOL0     H 8819   3.127   8.562   8.990  0.0674 -1.7416  3.2833
   64MOL0     H 8820   2.878   8.464   9.233 -0.5353 -4.5390 -3.1084
   64MOL0     H 8821   2.997   8.434   9.119  0.7539  2.6538 -0.5339
   64MOL0     H 8822   3.039   8.446   9.418 -0.9515  1.9427 -0.6577
   64MOL0     H 8823   3.179   8.442   9.322 -0.6584  1.7166  0.6489
   64MOL0     H 8824   2.975   8.204   9.335 -0.5033 -0.1206 -1.3429
   64MOL0     H 8825   3.091   8.218   9.205 -1.6452 -2.5440  1.0553
   64MOL0     H 8826   3.236   8.260   9.447 -0.3279  1.8542 -0.1356
   64MOL0     H 8827   3.248   8.130   9.338 -2.6700 -2.6151 -0.3458
   64MOL0     H 8828   3.015   7.955   9.648 -0.8322 -0.7837 -0.8853
   64MOL0     H 8829   3.185   8.764   9.327 -0.0063 -2.1599  1.9393
   64MOL0     H 8830   3.520   8.750   9.374  0.6851 -0.5647  0.2110
   64MOL0     H 8831   3.521   8.889   9.264  3.8237 -5.1849 -2.9248
   64MOL0     H 8832   3.398   8.876   9.388 -1.9712 -0.5287 -0.7336
   65MOL0     O 8833   3.009   3.485   0.905 -0.7538 -0.2427  0.7552
   65MOL0     C 8834   2.965   3.405   0.995 -0.3646  0.1352  0.5698
   65MOL0     O 8835   2.922   3.273   0.977 -0.1829 -0.3080 -0.8483
   65MOL0     C 8836   2.869   3.236   0.855 -1.0697 -0.7972 -0.6380
   65MOL0     C 8837   2.910   3.110   0.820 -0.0451 -0.2299  0.7937
   65MOL0     C 8838   2.871   3.070   0.689 -0.1779  0.7032 -0.0553
   65MOL0     C 8839   2.793   3.152   0.597 -0.1106  0.0936 -0.6141
   65MOL0     O 8840   2.749   3.112   0.471  0.8226  0.5819  0.2919
   65MOL0     C 8841   2.787   3.182   0.346  0.6310  0.0717  0.2796
   65MOL0     C 8842   2.678   3.156   0.241 -0.2606 -0.4142  0.4104
   65MOL0     C 8843   2.625   3.014   0.248 -0.0639 -0.1347 -0.1989
   65MOL0     C 8844   2.743   2.920   0.207  0.6092  0.3777 -0.7040
   65MOL0     C 8845   2.686   2.777   0.211  0.7421 -0.3469 -0.7948
   65MOL0     C 8846   2.790   2.666   0.217 -0.8129  0.2746  0.1301
   65MOL0     C 8847   2.727   2.530   0.209  0.1910  0.9854  0.2484
   65MOL0     C 8848   2.642   2.501   0.082  0.4657  0.6473  0.4772
   65MOL0     N 8849   2.643   2.363   0.039  0.7323  0.1248  0.3259
   65MOL0     C 8850   2.566   2.259   0.097  0.7048 -0.3371  0.1976
   65MOL0     C 8851   2.574   2.160   0.011 -0.5884  1.1666  0.4941
   65MOL0     C 8852   2.496   2.026   0.005  0.5767 -0.2259  0.1306
   65MOL0     C 8853   2.553   1.920  -0.099  0.4312  0.3327  0.6361
   65MOL0     C 8854   2.515   1.774  -0.067 -0.6094 -0.9559 -0.3135
   65MOL0     C 8855   2.604   1.663  -0.138 -0.0344  0.4772  0.3847
   65MOL0     O 8856   2.540   1.537  -0.148 -0.5227  0.0072 -0.1554
   65MOL0     C 8857   2.552   1.446  -0.042 -0.0178 -0.2291  1.2784
   65MOL0     C 8858   2.632   1.475   0.071  0.3381  0.2218  0.3217
   65MOL0     C 8859   2.645   1.382   0.174 -0.4115  0.2170  0.1491
   65MOL0     C 8860   2.730   1.414   0.297  0.7267 -0.5126 -0.2988
   65MOL0     C 8861   2.578   1.254   0.146  0.4617 -0.0398 -0.2444
   65MOL0     C 8862   2.602   1.147   0.236  0.9755 -0.2049  0.2542
   65MOL0     O 8863   2.729   1.144   0.283  0.1124 -0.1969  0.6364
   65MOL0     C 8864   2.785   1.029   0.342  0.7942  0.8756 -0.6813
   65MOL0     C 8865   2.706   0.926   0.415 -0.8029 -1.4886  0.2637
   65MOL0     C 8866   2.762   0.812   0.472  0.2151  0.2277 -0.2712
   65MOL0     C 8867   2.893   0.783   0.444 -0.9338 -0.3124 -0.0082
   65MOL0     O 8868   2.941   0.663   0.484  0.6397  0.4223 -0.5865
   65MOL0     C 8869   3.071   0.615   0.451  0.8668 -0.5786  0.1615
   65MOL0     C 8870   3.179   0.645   0.555 -0.5304  0.2939 -0.1547
   65MOL0     C 8871   3.311   0.700   0.495 -0.5381  0.9461 -0.1782
   65MOL0     C 8872   3.394   0.723   0.615  1.0425 -1.1779  0.5405
   65MOL0     C 8873   3.536   0.758   0.568  0.3251 -0.0712 -0.7086
   65MOL0     C 8874   3.623   0.797   0.685 -0.6903 -0.7453 -1.0710
   65MOL0     C 8875   3.780   0.806   0.633  0.3666 -0.3724  0.0824
   65MOL0     C 8876   3.889   0.828   0.740 -0.1357 -0.4598  0.2236
   65MOL0    Cl 8877   4.047   0.847   0.689 -0.4866 -0.1928 -0.4501
   65MOL0     C 8878   2.974   0.878   0.378  0.9110  0.0441  0.8518
   65MOL0     C 8879   2.920   1.000   0.335  0.7569  0.1081  0.3147
   65MOL0     O 8880   2.516   1.052   0.243  0.2115 -0.3546 -0.3012
   65MOL0     C 8881   2.482   1.235   0.041 -1.0291  0.4598  1.5084
   65MOL0     C 8882   2.469   1.341  -0.052 -0.5404  0.1814 -0.0628
   65MOL0     N 8883   2.671   2.185  -0.085 -0.0862  0.1023  0.3232
   65MOL0     N 8884   2.714   2.307  -0.064  0.6011  0.3093 -0.8825
   65MOL0     C 8885   2.763   3.283   0.641 -0.8900  0.3482  0.1159
   65MOL0     C 8886   2.792   3.321   0.771 -0.8038 -0.0276 -0.1498
   65MOL0     C 8887   2.973   3.457   1.134  0.9904  0.2897 -0.0540
   65MOL0     C 8888   3.009   3.369   1.241  0.2008  0.5928  0.0672
   65MOL0     C 8889   3.012   3.421   1.370  0.0160  0.3193 -0.0533
   65MOL0     C 8890   2.983   3.550   1.400 -0.2417 -0.2236 -0.1791
   65MOL0     O 8891   3.003   3.606   1.520  0.7380 -0.6480 -0.4352
   65MOL0     C 8892   2.874   3.621   1.588  1.1752  0.0219 -0.2038
   65MOL0     C 8893   2.825   3.490   1.658  0.1770 -0.2392  0.3395
   65MOL0     C 8894   2.923   3.439   1.760  0.0072 -0.4989  0.7640
   65MOL0     C 8895   2.912   3.514   1.890  0.3002 -0.5045 -0.5008
   65MOL0     C 8896   3.016   3.467   1.978  0.7392  0.5285 -0.0737
   65MOL0     C 8897   3.107   3.417   2.047 -0.3422 -0.5623 -0.6593
   65MOL0     C 8898   2.953   3.639   1.294 -0.1491  0.3742 -0.0436
   65MOL0     C 8899   2.952   3.593   1.161 -0.1104  0.5673 -0.1411
   65MOL0     C 8900   2.902   3.686   1.062 -1.0874 -0.3825  0.1911
   65MOL0     H 8901   2.968   3.052   0.891 -0.3887 -2.4714 -0.6669
   65MOL0     H 8902   2.894   2.971   0.651 -1.7438  0.8835 -1.5399
   65MOL0     H 8903   2.883   3.141   0.312  0.2485 -2.0569  1.6034
   65MOL0     H 8904   2.789   3.290   0.361 -0.1460 -0.0687  1.4854
   65MOL0     H 8905   2.598   3.226   0.265  0.1561 -0.3684  1.7266
   65MOL0     H 8906   2.719   3.171   0.141 -1.2188  1.8546  0.3171
   65MOL0     H 8907   2.595   2.982   0.348 -0.2699 -2.3910 -0.9322
   65MOL0     H 8908   2.546   2.993   0.175  0.0671 -1.8691  0.1301
   65MOL0     H 8909   2.775   2.943   0.105 -0.0964  0.6019 -0.8786
   65MOL0     H 8910   2.836   2.935   0.263 -0.7792 -2.7739  2.8498
   65MOL0     H 8911   2.632   2.774   0.116 -3.2771  0.3688  1.2365
   65MOL0     H 8912   2.614   2.782   0.294  1.6412  3.5018 -0.0569
   65MOL0     H 8913   2.851   2.679   0.128 -0.0012 -0.5467  0.5617
   65MOL0     H 8914   2.856   2.684   0.302  1.3089  1.7852 -1.7339
   65MOL0     H 8915   2.667   2.502   0.297 -3.2766 -0.7717 -2.4058
   65MOL0     H 8916   2.808   2.457   0.221  0.1613  0.8214 -0.5193
   65MOL0     H 8917   2.546   2.553   0.089 -0.2217 -0.8060  4.3163
   65MOL0     H 8918   2.686   2.550  -0.005  1.3589 -1.2363 -0.2034
   65MOL0     H 8919   2.501   2.261   0.183 -1.5583 -1.8823 -1.3516
   65MOL0     H 8920   2.393   2.045  -0.030  1.3323  1.2830 -1.4710
   65MOL0     H 8921   2.493   1.969   0.098  1.0708 -2.9062 -1.3906
   65MOL0     H 8922   2.510   1.939  -0.198 -1.2798  2.7592  1.7235
   65MOL0     H 8923   2.662   1.919  -0.102  0.5173 -2.4211  1.7852
   65MOL0     H 8924   2.530   1.761   0.040  2.2562 -2.7431 -0.8113
   65MOL0     H 8925   2.408   1.759  -0.085 -1.7543  4.2985  0.4541
   65MOL0     H 8926   2.618   1.698  -0.241  0.0637 -0.8570 -0.0765
   65MOL0     H 8927   2.704   1.646  -0.095 -0.1415 -1.5609 -0.0782
   65MOL0     H 8928   2.676   1.574   0.072  0.1505  0.4555 -2.8172
   65MOL0     H 8929   2.822   1.356   0.305  1.6685  0.7785 -1.3754
   65MOL0     H 8930   2.673   1.381   0.385 -0.6463 -1.7144 -1.5641
   65MOL0     H 8931   2.746   1.522   0.299 -0.1191 -0.1157 -4.5843
   65MOL0     H 8932   2.597   0.934   0.418 -0.7634 -0.1203 -0.9981
   65MOL0     H 8933   2.712   0.745   0.542  1.6812 -0.9994 -0.3447
   65MOL0     H 8934   3.059   0.506   0.451  1.5311 -0.6753  2.1495
   65MOL0     H 8935   3.103   0.648   0.351 -1.6326  1.1344 -0.1709
   65MOL0     H 8936   3.134   0.738   0.593 -1.1176  1.2638 -2.9714
   65MOL0     H 8937   3.199   0.567   0.629  0.4280  2.4052  1.9247
   65MOL0     H 8938   3.298   0.786   0.429  2.3369  0.9513 -0.8435
   65MOL0     H 8939   3.351   0.619   0.433 -2.1622 -0.6020  0.6876
   65MOL0     H 8940   3.391   0.648   0.695  0.4644 -0.6682  1.0057
   65MOL0     H 8941   3.350   0.809   0.666  2.6522 -0.6368  1.0850
   65MOL0     H 8942   3.586   0.677   0.514  1.4524 -0.0946  0.3372
   65MOL0     H 8943   3.517   0.843   0.502  0.3058  0.8922  0.5010
   65MOL0     H 8944   3.623   0.731   0.772 -3.2542  2.9761  2.1046
   65MOL0     H 8945   3.587   0.889   0.731  1.5312  1.4266 -3.3562
   65MOL0     H 8946   3.788   0.883   0.555  0.0453  0.9488  1.3147
   65MOL0     H 8947   3.807   0.716   0.576 -0.3637 -1.0360  0.7591
   65MOL0     H 8948   3.876   0.754   0.820 -0.2173  1.6686  2.2847
   65MOL0     H 8949   3.863   0.928   0.776 -0.5780  0.2099 -1.7939
   65MOL0     H 8950   3.076   0.853   0.349  0.3785  0.5423 -1.6822
   65MOL0     H 8951   2.985   1.072   0.286 -1.1956  2.7665  1.3339
   65MOL0     H 8952   2.425   1.143   0.046  3.3126 -2.5848  0.7434
   65MOL0     H 8953   2.405   1.328  -0.138 -0.8524 -0.7265  0.2899
   65MOL0     H 8954   2.699   3.332   0.568 -0.4986 -2.9664 -2.7291
   65MOL0     H 8955   2.748   3.408   0.818  2.6047  1.0456  1.3607
   65MOL0     H 8956   3.026   3.262   1.232 -1.5814  0.4714 -3.9258
   65MOL0     H 8957   3.030   3.367   1.463  2.0111  1.0304  0.0311
   65MOL0     H 8958   2.879   3.696   1.667  1.3896  0.6949 -0.8564
   65MOL0     H 8959   2.800   3.640   1.510  1.3165 -0.9949 -0.6014
   65MOL0     H 8960   2.797   3.412   1.587 -1.7802  0.3562  0.4130
   65MOL0     H 8961   2.728   3.508   1.704 -0.7181  2.9559 -2.4152
   65MOL0     H 8962   2.903   3.332   1.765  2.0068 -0.9231  0.7454
   65MOL0     H 8963   3.026   3.454   1.724 -0.2921 -1.2153 -0.4474
   65MOL0     H 8964   2.819   3.490   1.942  0.2306 -3.8365 -1.9359
   65MOL0     H 8965   2.927   3.622   1.879  4.3326 -0.9637 -1.0074
   65MOL0     H 8966   3.187   3.372   2.103 -0.5534 -1.9542 -1.4519
   65MOL0     H 8967   2.926   3.741   1.319  1.4382  0.2555  2.4633
   65MOL0     H 8968   2.973   3.710   0.982 -0.9209  1.7405  0.8989
   65MOL0     H 8969   2.816   3.636   1.016 -0.4482  1.3673 -3.2791
   65MOL0     H 8970   2.875   3.776   1.119 -0.5275  0.4175 -0.7729
   66MOL0     O 8971   4.790   3.570   8.082 -0.3002  0.3294  1.0253
   66MOL0     C 8972   4.902   3.547   8.134 -0.6217 -0.3883  0.5815
   66MOL0     O 8973   4.981   3.643   8.207  0.2501  0.5316  0.5320
   66MOL0     C 8974   4.930   3.770   8.221  1.4546  0.9482 -0.1344
   66MOL0     C 8975   4.849   3.843   8.127 -0.2929 -0.2007  0.7185
   66MOL0     C 8976   4.791   3.967   8.146 -0.0981  0.1753 -0.3637
   66MOL0     C 8977   4.812   4.028   8.278 -0.1899  0.9489 -0.1190
   66MOL0     O 8978   4.774   4.152   8.300  0.4005 -0.4646 -0.4744
   66MOL0     C 8979   4.740   4.195   8.435  0.2126 -0.2934  0.5328
   66MOL0     C 8980   4.606   4.170   8.478  0.4950 -0.8824 -0.5437
   66MOL0     C 8981   4.495   4.262   8.419  0.5688 -0.1659  0.0840
   66MOL0     C 8982   4.490   4.271   8.268  1.0705  0.0997 -0.7197
   66MOL0     C 8983   4.346   4.296   8.224  0.4935  0.3292  0.5455
   66MOL0     C 8984   4.304   4.437   8.287  0.1167 -0.1321  0.7125
   66MOL0     C 8985   4.411   4.548   8.268 -0.3427  0.5901 -0.9961
   66MOL0     C 8986   4.359   4.681   8.309 -0.7368 -0.1961  0.2351
   66MOL0     N 8987   4.300   4.684   8.439  0.1989  0.4529 -0.3515
   66MOL0     C 8988   4.361   4.649   8.563  0.6743 -0.4103 -0.6003
   66MOL0     C 8989   4.262   4.670   8.658 -0.4103  0.0049 -0.1323
   66MOL0     C 8990   4.272   4.639   8.808  0.1655  0.7068 -1.3056
   66MOL0     C 8991   4.292   4.782   8.883  0.8671  0.0730 -0.2609
   66MOL0     C 8992   4.156   4.856   8.903 -0.7530  0.4088  0.1814
   66MOL0     C 8993   4.184   5.003   8.961  1.1773  0.5909  0.6356
   66MOL0     O 8994   4.224   5.086   8.851  0.0668 -0.7351  0.0884
   66MOL0     C 8995   4.128   5.118   8.760 -0.3374  0.4084  0.1764
   66MOL0     C 8996   4.144   5.072   8.625  0.4791 -0.2266  0.3468
   66MOL0     C 8997   4.059   5.118   8.522 -0.7574 -1.6962 -0.0064
   66MOL0     C 8998   4.078   5.069   8.384 -1.0903  0.3579 -0.1725
   66MOL0     C 8999   3.951   5.200   8.560 -0.1977 -2.4974  0.3348
   66MOL0     C 9000   3.842   5.249   8.474  0.8506 -0.2188  0.6933
   66MOL0     O 9001   3.796   5.375   8.504 -0.7211 -0.6378  0.2494
   66MOL0     C 9002   3.671   5.423   8.461 -0.2621  1.0124 -0.4061
   66MOL0     C 9003   3.646   5.459   8.323  0.0709 -0.0966 -0.9241
   66MOL0     C 9004   3.523   5.513   8.275 -0.6069 -0.2266 -0.5170
   66MOL0     C 9005   3.425   5.521   8.366  0.4554 -0.5605 -0.4983
   66MOL0     O 9006   3.292   5.519   8.326 -0.2916 -0.2858  0.9102
   66MOL0     C 9007   3.257   5.568   8.194 -0.2790 -0.1885  0.2549
   66MOL0     C 9008   3.114   5.603   8.174 -0.0034  0.5354 -1.1640
   66MOL0     C 9009   3.064   5.688   8.292  0.5002  0.3455 -0.0139
   66MOL0     C 9010   2.907   5.679   8.299  0.0693  0.0032 -0.3241
   66MOL0     C 9011   2.838   5.772   8.396 -0.1689 -0.0353 -0.6059
   66MOL0     C 9012   2.684   5.746   8.422 -0.2894  0.1519  0.0115
   66MOL0     C 9013   2.614   5.847   8.511  0.0559  0.4923 -1.2049
   66MOL0     C 9014   2.701   5.908   8.613  0.4068  0.8186 -0.5257
   66MOL0    Cl 9015   2.789   6.058   8.574  0.2808  0.5411 -0.4684
   66MOL0     C 9016   3.442   5.480   8.499 -0.1018  0.2832  0.2670
   66MOL0     C 9017   3.563   5.439   8.555 -0.1916  0.4287  0.0073
   66MOL0     O 9018   3.780   5.175   8.399  0.8442  0.3212 -0.6386
   66MOL0     C 9019   3.933   5.239   8.691  0.2984  0.4659 -0.0765
   66MOL0     C 9020   4.010   5.187   8.787  0.4097  0.1499 -0.3154
   66MOL0     N 9021   4.151   4.720   8.594  0.1421 -1.2297 -0.1466
   66MOL0     N 9022   4.173   4.733   8.469 -0.3579  1.3756 -0.3367
   66MOL0     C 9023   4.887   3.950   8.365 -0.2180 -0.1835 -0.4883
   66MOL0     C 9024   4.951   3.828   8.339  0.7754  0.1155 -0.9259
   66MOL0     C 9025   4.973   3.425   8.093 -1.3136  0.3952 -0.0214
   66MOL0     C 9026   5.106   3.429   8.065 -0.3183 -0.8450 -0.3237
   66MOL0     C 9027   5.174   3.319   7.998  0.0010 -1.2386  0.3444
   66MOL0     C 9028   5.108   3.206   7.967 -0.0763 -0.1905 -0.3996
   66MOL0     O 9029   5.160   3.088   7.914 -0.6310  0.1459 -0.5422
   66MOL0     C 9030   5.305   3.092   7.887 -0.0468  0.6704 -0.2935
   66MOL0     C 9031   5.345   2.961   7.849 -0.4552  0.1228  0.6533
   66MOL0     C 9032   5.497   2.953   7.833 -0.3131  1.5659 -0.0140
   66MOL0     C 9033   5.567   2.927   7.965  1.0328 -0.2042 -0.2256
   66MOL0     C 9034   5.708   2.939   7.940 -1.0486 -0.2219  0.4892
   66MOL0     C 9035   5.827   2.946   7.906  0.5185 -0.5059  0.4313
   66MOL0     C 9036   4.977   3.206   8.004  0.1252  1.3800  0.1804
   66MOL0     C 9037   4.910   3.303   8.066 -0.1141  0.3586 -0.1670
   66MOL0     C 9038   4.761   3.281   8.084 -0.1217 -0.0178  0.5468
   66MOL0     H 9039   4.820   3.796   8.033 -0.4745  2.3667 -0.5876
   66MOL0     H 9040   4.734   4.000   8.060 -3.0817 -2.0075  0.6337
   66MOL0     H 9041   4.749   4.304   8.435 -1.0117 -0.1826  1.0906
   66MOL0     H 9042   4.805   4.151   8.512 -1.7548 -2.2244  1.1845
   66MOL0     H 9043   4.575   4.068   8.454  1.4340 -0.9174 -1.6762
   66MOL0     H 9044   4.610   4.188   8.586  2.2845 -0.9355 -0.5713
   66MOL0     H 9045   4.401   4.224   8.462  0.1067 -0.7363 -1.3600
   66MOL0     H 9046   4.519   4.360   8.461  0.2121  0.0438 -0.1999
   66MOL0     H 9047   4.547   4.352   8.222 -1.6839  1.9387 -1.1714
   66MOL0     H 9048   4.530   4.177   8.227  0.4273  0.1358 -1.4689
   66MOL0     H 9049   4.290   4.212   8.265  1.8746 -0.6241  0.5587
   66MOL0     H 9050   4.350   4.290   8.115 -2.6763 -2.3875  0.4326
   66MOL0     H 9051   4.212   4.467   8.235 -0.4814 -2.3044  0.3983
   66MOL0     H 9052   4.283   4.430   8.394  3.9372 -0.1962  1.6144
   66MOL0     H 9053   4.438   4.565   8.163 -1.3804  2.5912 -0.9858
   66MOL0     H 9054   4.499   4.519   8.326  0.1853 -4.7811 -3.8148
   66MOL0     H 9055   4.425   4.766   8.292  0.4138 -0.3593  3.3388
   66MOL0     H 9056   4.274   4.704   8.243 -0.0516 -1.1559 -1.0440
   66MOL0     H 9057   4.453   4.594   8.578  1.8770  1.2850 -1.3683
   66MOL0     H 9058   4.355   4.570   8.822 -1.5242 -0.8129  2.8636
   66MOL0     H 9059   4.182   4.583   8.837  0.0198 -0.8793 -4.4164
   66MOL0     H 9060   4.344   4.762   8.977  0.8665 -0.9086 -0.4593
   66MOL0     H 9061   4.357   4.842   8.819  0.3691 -3.2474 -4.2887
   66MOL0     H 9062   4.104   4.870   8.807  0.0631  1.8020 -0.0819
   66MOL0     H 9063   4.090   4.800   8.970 -0.7233 -1.2253 -1.0599
   66MOL0     H 9064   4.095   5.047   9.007 -0.4104  1.1900 -2.6649
   66MOL0     H 9065   4.264   4.995   9.034  0.1084 -2.5885  1.6383
   66MOL0     H 9066   4.226   5.004   8.609  2.1517  1.3139  1.9005
   66MOL0     H 9067   4.024   4.974   8.377  0.5945 -0.6439 -0.1672
   66MOL0     H 9068   4.184   5.057   8.361 -1.4987  1.0043 -2.6330
   66MOL0     H 9069   4.034   5.136   8.309 -3.7232 -1.0500 -0.0046
   66MOL0     H 9070   3.730   5.460   8.255  0.9588  0.7554  0.1524
   66MOL0     H 9071   3.510   5.532   8.169 -3.5643  2.1144  0.1291
   66MOL0     H 9072   3.321   5.655   8.173  2.1755 -1.6472  1.1775
   66MOL0     H 9073   3.273   5.494   8.115 -1.0032  0.4224 -0.4757
   66MOL0     H 9074   3.117   5.660   8.081  4.0947  3.7690  0.6346
   66MOL0     H 9075   3.057   5.512   8.156 -1.3140  0.4139  2.6380
   66MOL0     H 9076   3.089   5.791   8.267 -1.5393  0.3594 -2.4805
   66MOL0     H 9077   3.104   5.664   8.391 -1.1775 -0.4288  0.5296
   66MOL0     H 9078   2.886   5.574   8.320  2.4991 -0.8674 -1.8433
   66MOL0     H 9079   2.875   5.699   8.196 -0.7498  0.2320 -0.0379
   66MOL0     H 9080   2.890   5.779   8.491  2.8636  0.7673 -2.1946
   66MOL0     H 9081   2.866   5.873   8.366  0.6073  1.0815  3.3125
   66MOL0     H 9082   2.684   5.654   8.483  1.7222 -0.1382 -0.3481
   66MOL0     H 9083   2.636   5.731   8.326 -1.6761  2.2750  0.3051
   66MOL0     H 9084   2.534   5.788   8.557  0.7417  0.2486 -0.2939
   66MOL0     H 9085   2.569   5.921   8.445 -0.5618 -2.0450 -3.8388
   66MOL0     H 9086   2.764   5.829   8.655 -1.7068 -0.1201  1.0681
   66MOL0     H 9087   2.638   5.927   8.700  0.0060 -0.1923 -0.5737
   66MOL0     H 9088   3.360   5.470   8.569  1.5827 -0.7261  2.1853
   66MOL0     H 9089   3.581   5.415   8.660  1.5641 -0.6549 -0.4917
   66MOL0     H 9090   3.856   5.308   8.727 -0.3148 -1.5547  2.8578
   66MOL0     H 9091   3.976   5.210   8.888  2.7013  1.3144  0.2695
   66MOL0     H 9092   4.894   3.984   8.468 -1.3048 -0.6088 -0.2564
   66MOL0     H 9093   5.004   3.775   8.418 -0.9917 -1.2426 -0.5811
   66MOL0     H 9094   5.157   3.519   8.098 -1.6953  0.0001 -0.4257
   66MOL0     H 9095   5.274   3.337   7.958 -1.7907  3.1999 -2.9588
   66MOL0     H 9096   5.340   3.167   7.815  2.8349 -1.6685 -1.5713
   66MOL0     H 9097   5.350   3.116   7.984 -1.3740  0.4032  0.4028
   66MOL0     H 9098   5.296   2.940   7.754 -3.2562 -0.4866  2.1233
   66MOL0     H 9099   5.309   2.885   7.919  2.2990 -0.4574  1.5576
   66MOL0     H 9100   5.514   2.865   7.769 -1.1838  1.5848 -0.2934
   66MOL0     H 9101   5.537   3.040   7.780 -1.8927  1.3381 -1.7187
   66MOL0     H 9102   5.540   2.827   8.001 -1.8462  0.3058 -0.7308
   66MOL0     H 9103   5.534   2.985   8.053  0.5496 -0.7544 -0.0316
   66MOL0     H 9104   5.921   2.932   7.856 -0.9048 -2.7216 -1.8125
   66MOL0     H 9105   4.920   3.120   7.972  0.9380  0.7126  0.4983
   66MOL0     H 9106   4.708   3.303   7.991 -0.5047 -0.6784  0.6001
   66MOL0     H 9107   4.760   3.174   8.107  3.3072  0.2678  2.8081
   66MOL0     H 9108   4.713   3.348   8.156  0.7532  1.9960 -0.6891
   67MOL0     O 9109   9.671   1.383   7.205  0.5479 -0.1306  0.0435
   67MOL0     C 9110   9.573   1.438   7.259 -0.4344  0.1381 -0.5607
   67MOL0     O 9111   9.453   1.373   7.280 -0.8228 -0.6076 -0.3135
   67MOL0     C 9112   9.449   1.235   7.279 -0.1664  0.9290  0.0275
   67MOL0     C 9113   9.394   1.168   7.176  0.3355 -0.3056  0.3720
   67MOL0     C 9114   9.400   1.028   7.171 -0.3465 -1.1875 -0.2932
   67MOL0     C 9115   9.468   0.962   7.276  0.4001 -0.0242  1.3614
   67MOL0     O 9116   9.472   0.818   7.276  0.1313 -0.1882 -0.3578
   67MOL0     C 9117   9.434   0.748   7.396  0.0534 -0.5323  0.0952
   67MOL0     C 9118   9.428   0.591   7.365  0.5320 -0.1583 -0.1213
   67MOL0     C 9119   9.415   0.527   7.495 -0.0438 -0.2137 -0.8120
   67MOL0     C 9120   9.421   0.374   7.503  0.4355  0.0096 -0.4043
   67MOL0     C 9121   9.270   0.317   7.482  0.5158  0.1636  0.5296
   67MOL0     C 9122   9.285   0.164   7.507  0.6698 -0.0319 -0.3660
   67MOL0     C 9123   9.179   0.081   7.431 -0.0521  0.4523 -0.1428
   67MOL0     C 9124   9.030   0.130   7.442  0.4502  0.5097 -0.2453
   67MOL0     N 9125   8.984   0.110   7.581  0.2242 -0.5653 -0.7432
   67MOL0     C 9126   8.969  -0.017   7.640 -0.3004  0.5621 -1.0943
   67MOL0     C 9127   8.907   0.007   7.760 -0.1518 -0.2840  0.1185
   67MOL0     C 9128   8.870  -0.101   7.863  0.2505 -1.5079 -0.4549
   67MOL0     C 9129   8.991  -0.190   7.910  0.5932 -0.9516  0.8012
   67MOL0     C 9130   8.927  -0.308   7.981  0.1802  0.0555 -0.9343
   67MOL0     C 9131   8.902  -0.440   7.909 -0.0786  0.4114 -0.1326
   67MOL0     O 9132   8.853  -0.533   7.996 -0.9421  0.5030  0.1240
   67MOL0     C 9133   8.876  -0.668   7.971 -0.6209 -0.1219  0.3217
   67MOL0     C 9134   8.988  -0.742   8.030  0.1901  0.6931  1.1276
   67MOL0     C 9135   9.010  -0.875   7.996 -1.1650 -0.1866  0.3711
   67MOL0     C 9136   9.137  -0.941   8.054  0.2417  0.5497 -0.4548
   67MOL0     C 9137   8.911  -0.936   7.910  0.3775 -0.2051  0.1420
   67MOL0     C 9138   8.906  -1.085   7.867  0.2107  0.3583  0.4455
   67MOL0     O 9139   8.892  -1.103   7.732  0.0377  0.4265 -0.1698
   67MOL0     C 9140   8.862  -1.221   7.675 -0.3280 -0.1210  0.4292
   67MOL0     C 9141   8.931  -1.335   7.695 -1.1405 -0.3352  0.5440
   67MOL0     C 9142   8.892  -1.449   7.625  0.1960  0.2026  0.6838
   67MOL0     C 9143   8.776  -1.452   7.541 -0.2940 -0.1720 -0.0503
   67MOL0     O 9144   8.747  -1.558   7.460 -0.3879  0.0955 -0.3998
   67MOL0     C 9145   8.811  -1.546   7.330 -0.1378 -0.6006 -0.3416
   67MOL0     C 9146   8.725  -1.498   7.214 -1.1960  0.0211 -0.4292
   67MOL0     C 9147   8.814  -1.504   7.087  0.2950  0.0216 -1.1827
   67MOL0     C 9148   8.764  -1.410   6.975 -0.8143 -0.4955  0.5826
   67MOL0     C 9149   8.858  -1.382   6.851  0.0100 -0.3916 -0.9105
   67MOL0     C 9150   8.931  -1.507   6.801 -0.1845 -0.2531 -0.4874
   67MOL0     C 9151   9.044  -1.488   6.701 -0.0168  0.4770  0.6378
   67MOL0     C 9152   9.005  -1.517   6.556  0.1162 -0.5593 -0.1067
   67MOL0    Cl 9153   8.980  -1.692   6.533  0.2127  0.0305 -0.1608
   67MOL0     C 9154   8.707  -1.333   7.528  0.1265  0.1359 -0.4935
   67MOL0     C 9155   8.744  -1.223   7.593  0.0356 -0.5660 -0.1683
   67MOL0     O 9156   8.922  -1.177   7.940 -0.0425 -0.7772  0.3860
   67MOL0     C 9157   8.803  -0.868   7.868 -0.7432 -0.5089 -0.8018
   67MOL0     C 9158   8.796  -0.727   7.879  1.3359 -0.5158  0.4141
   67MOL0     N 9159   8.862   0.142   7.757 -1.0629  0.2927  0.0579
   67MOL0     N 9160   8.927   0.202   7.661 -0.0734 -0.7696  0.0833
   67MOL0     C 9161   9.530   1.039   7.376 -1.1788 -0.0693 -0.0686
   67MOL0     C 9162   9.524   1.182   7.378 -0.6978 -0.3293 -0.5735
   67MOL0     C 9163   9.592   1.571   7.332 -0.5191  0.4101  0.0070
   67MOL0     C 9164   9.502   1.602   7.439  0.2270 -0.0968  0.1583
   67MOL0     C 9165   9.514   1.723   7.507  1.1476  0.0135 -0.9390
   67MOL0     C 9166   9.611   1.811   7.483 -0.4088 -0.7317  0.5072
   67MOL0     O 9167   9.616   1.931   7.546 -0.2433 -0.7099 -1.2952
   67MOL0     C 9168   9.714   2.028   7.510  0.1199  0.2465  0.4325
   67MOL0     C 9169   9.685   2.168   7.566 -0.1098  0.2894  0.2854
   67MOL0     C 9170   9.749   2.195   7.696  0.5265  0.4740 -0.3963
   67MOL0     C 9171   9.729   2.087   7.801  0.1879  0.3033  0.0966
   67MOL0     C 9172   9.804   2.102   7.925 -0.6742  0.9342  0.4866
   67MOL0     C 9173   9.872   2.111   8.027 -0.0550 -0.8944  0.4026
   67MOL0     C 9174   9.709   1.774   7.390  0.1133  0.2144  0.4477
   67MOL0     C 9175   9.693   1.661   7.318  0.1593  0.3631  0.3772
   67MOL0     C 9176   9.789   1.655   7.208  0.6455 -0.3028 -0.3345
   67MOL0     H 9177   9.340   1.235   7.110  1.4559  0.2985  0.0408
   67MOL0     H 9178   9.345   0.967   7.101  0.3984 -2.0900 -0.1069
   67MOL0     H 9179   9.333   0.779   7.424 -0.4046 -1.6092 -0.2920
   67MOL0     H 9180   9.500   0.779   7.477 -1.2733  0.9900  0.6276
   67MOL0     H 9181   9.348   0.568   7.293  0.4200 -1.7348  0.4898
   67MOL0     H 9182   9.524   0.557   7.324 -1.4008 -2.2472 -3.4310
   67MOL0     H 9183   9.509   0.552   7.547  0.5108 -0.8007 -1.5071
   67MOL0     H 9184   9.330   0.568   7.550  0.3785  0.3219 -0.5489
   67MOL0     H 9185   9.497   0.344   7.430  1.5180  0.1460  0.6292
   67MOL0     H 9186   9.464   0.357   7.602 -0.9621 -1.5403 -0.0292
   67MOL0     H 9187   9.225   0.346   7.387  1.6801  2.2428  0.5432
   67MOL0     H 9188   9.202   0.364   7.554  0.9326  1.0026  0.3909
   67MOL0     H 9189   9.382   0.130   7.469  1.5105 -0.8764  2.3131
   67MOL0     H 9190   9.275   0.146   7.614  1.4981  0.8032 -0.1301
   67MOL0     H 9191   9.194  -0.021   7.468  1.2718  0.6776 -0.0091
   67MOL0     H 9192   9.204   0.086   7.325 -0.8009  0.0476 -0.3451
   67MOL0     H 9193   9.016   0.233   7.409 -1.7879  0.5690  0.7607
   67MOL0     H 9194   8.966   0.071   7.375  2.2041 -1.3235 -0.4402
   67MOL0     H 9195   9.012  -0.107   7.598 -1.6349 -0.5791 -0.0919
   67MOL0     H 9196   8.783  -0.158   7.828 -0.3442 -0.5090 -0.6329
   67MOL0     H 9197   8.826  -0.034   7.937 -2.0863 -2.7418 -0.6302
   67MOL0     H 9198   9.060  -0.227   7.833  0.8156 -2.9000  1.8800
   67MOL0     H 9199   9.050  -0.127   7.978  1.0759  3.1802 -2.9769
   67MOL0     H 9200   8.983  -0.313   8.075  3.3575  2.2198 -2.5046
   67MOL0     H 9201   8.825  -0.291   8.015 -0.6782  0.3572 -3.4728
   67MOL0     H 9202   8.832  -0.431   7.827 -1.9461  1.7317  1.5109
   67MOL0     H 9203   8.999  -0.471   7.868  1.8641 -1.2136  4.8883
   67MOL0     H 9204   9.060  -0.688   8.092  1.2732  3.2626 -2.0972
   67MOL0     H 9205   9.193  -0.859   8.099 -1.8761  1.0683  1.4467
   67MOL0     H 9206   9.198  -0.984   7.974  3.4280 -1.7135  2.8955
   67MOL0     H 9207   9.111  -1.026   8.117  2.2711 -0.0945 -0.4364
   67MOL0     H 9208   9.017  -1.337   7.761 -1.9793  3.1536  1.9634
   67MOL0     H 9209   8.951  -1.537   7.648 -0.6024 -0.6696 -0.5121
   67MOL0     H 9210   8.906  -1.492   7.332  0.8413 -2.0263 -3.2084
   67MOL0     H 9211   8.839  -1.648   7.305  2.1622 -0.2277  0.5591
   67MOL0     H 9212   8.633  -1.556   7.197 -0.4003 -1.5817  0.5021
   67MOL0     H 9213   8.684  -1.397   7.217 -0.2825  0.3848  0.0664
   67MOL0     H 9214   8.822  -1.605   7.044  1.6579  0.1806 -1.3147
   67MOL0     H 9215   8.915  -1.473   7.113  0.4998  0.7263 -2.6903
   67MOL0     H 9216   8.743  -1.316   7.026 -1.9447 -0.4168 -0.0042
   67MOL0     H 9217   8.677  -1.460   6.930  0.0931 -0.4701 -1.3017
   67MOL0     H 9218   8.793  -1.341   6.772 -0.1345  1.1829 -0.0264
   67MOL0     H 9219   8.940  -1.313   6.872  0.4778 -0.9406 -0.9258
   67MOL0     H 9220   8.861  -1.583   6.766  0.4199 -0.8308 -0.4590
   67MOL0     H 9221   8.982  -1.552   6.887  1.6927 -0.6721 -1.7641
   67MOL0     H 9222   9.127  -1.559   6.714 -0.1339  0.2617  0.2157
   67MOL0     H 9223   9.090  -1.390   6.717 -2.6387  1.6650  1.3721
   67MOL0     H 9224   9.080  -1.491   6.480 -1.8046  0.0128 -1.9157
   67MOL0     H 9225   8.924  -1.449   6.526 -0.1190 -1.3349 -1.3147
   67MOL0     H 9226   8.612  -1.323   7.476  0.8801 -1.5194 -2.3092
   67MOL0     H 9227   8.682  -1.133   7.589  0.1142 -0.5345 -3.2003
   67MOL0     H 9228   8.726  -0.910   7.804 -1.6164 -1.1331  0.6314
   67MOL0     H 9229   8.718  -0.675   7.823 -0.0808 -2.4226  0.5336
   67MOL0     H 9230   9.581   0.994   7.461  2.6232  2.7699 -0.5637
   67MOL0     H 9231   9.557   1.249   7.457  0.3107  2.1560 -2.9515
   67MOL0     H 9232   9.425   1.532   7.471  1.5976 -1.6908  0.0728
   67MOL0     H 9233   9.441   1.754   7.582  3.4109 -0.8449  1.8063
   67MOL0     H 9234   9.812   1.986   7.533 -0.6982 -3.8471 -2.4997
   67MOL0     H 9235   9.721   2.044   7.402 -0.2161  3.5638  0.7808
   67MOL0     H 9236   9.578   2.183   7.580  0.3316  1.4818  2.9885
   67MOL0     H 9237   9.718   2.243   7.493  3.0632 -1.2083 -0.0222
   67MOL0     H 9238   9.852   2.232   7.690  1.5624 -1.5195  2.4637
   67MOL0     H 9239   9.685   2.277   7.730  0.4896  1.4687 -2.6597
   67MOL0     H 9240   9.745   1.990   7.752 -1.7419 -0.9992  1.8897
   67MOL0     H 9241   9.622   2.077   7.824 -0.4808  3.5664 -0.9674
   67MOL0     H 9242   9.933   2.116   8.114  2.0617 -0.5696 -1.0097
   67MOL0     H 9243   9.792   1.836   7.358 -0.2027 -0.7300 -2.5465
   67MOL0     H 9244   9.831   1.555   7.191 -1.7962 -1.2727 -1.1919
   67MOL0     H 9245   9.747   1.704   7.120  4.9878  1.4410 -1.6999
   67MOL0     H 9246   9.882   1.703   7.240  1.5564 -1.9007 -0.4914
   68MOL0     O 9247   6.150   3.831  10.769  0.2466  0.1982  0.5536
   68MOL0     C 9248   6.219   3.783  10.861 -0.4940  0.2060  0.0234
   68MOL0     O 9249   6.325   3.848  10.925  0.1857 -0.1148  0.4683
   68MOL0     C 9250   6.313   3.981  10.922 -0.9553 -0.8959 -0.0226
   68MOL0     C 9251   6.426   4.052  10.942 -0.3442 -0.1641 -0.2585
   68MOL0     C 9252   6.426   4.184  10.976  0.1524 -0.0526 -0.7173
   68MOL0     C 9253   6.309   4.259  10.980 -0.2514 -0.1382 -0.4094
   68MOL0     O 9254   6.333   4.394  11.010  0.4268  0.3503  0.3700
   68MOL0     C 9255   6.242   4.493  10.962 -0.1231  0.5424 -0.5655
   68MOL0     C 9256   6.313   4.629  10.988 -0.2848 -0.4330 -0.6305
   68MOL0     C 9257   6.303   4.664  11.138 -0.1542 -0.0470  0.3676
   68MOL0     C 9258   6.414   4.754  11.181 -0.7338 -1.0731  0.1358
   68MOL0     C 9259   6.372   4.833  11.308 -0.1272  0.3174 -0.2209
   68MOL0     C 9260   6.483   4.895  11.382 -0.9725 -0.0143  0.3210
   68MOL0     C 9261   6.457   5.031  11.459 -0.8888  0.3286  0.7608
   68MOL0     C 9262   6.336   5.027  11.570  0.2218  0.9456 -0.5043
   68MOL0     N 9263   6.371   4.952  11.685 -0.0436 -0.2084  0.1164
   68MOL0     C 9264   6.358   4.816  11.686 -0.7894 -0.1481 -0.0516
   68MOL0     C 9265   6.346   4.783  11.818  0.0005 -0.0637  0.3129
   68MOL0     C 9266   6.341   4.631  11.870 -0.3092 -0.1452  0.7696
   68MOL0     C 9267   6.467   4.596  11.945  0.5756  0.1941  0.0355
   68MOL0     C 9268   6.450   4.473  12.020 -0.5032  0.0867 -0.4084
   68MOL0     C 9269   6.533   4.353  11.960  0.6130  0.6480 -0.5409
   68MOL0     O 9270   6.656   4.360  12.029  0.6150 -0.6554 -0.0932
   68MOL0     C 9271   6.744   4.264  12.017 -0.2902  0.0537 -0.8064
   68MOL0     C 9272   6.867   4.290  12.075  0.4833 -0.2949 -0.5260
   68MOL0     C 9273   6.980   4.206  12.065  1.1407  0.6879  0.1293
   68MOL0     C 9274   7.111   4.251  12.102  0.5049 -0.2890  0.2151
   68MOL0     C 9275   6.953   4.079  12.001  0.6900  0.2955  0.0635
   68MOL0     C 9276   7.068   3.981  11.961 -0.4581 -0.0574  0.4290
   68MOL0     O 9277   7.191   4.032  11.942  0.2730 -0.1921  0.3771
   68MOL0     C 9278   7.286   3.955  11.891 -0.0864  0.0154  0.4681
   68MOL0     C 9279   7.340   4.001  11.768 -0.4576  0.8967 -0.0334
   68MOL0     C 9280   7.453   3.953  11.716  0.1263 -0.1334  0.2667
   68MOL0     C 9281   7.503   3.831  11.769  0.0540 -0.0331  0.0743
   68MOL0     O 9282   7.596   3.767  11.695  0.2236 -0.3415  0.2410
   68MOL0     C 9283   7.727   3.821  11.660  0.0472  0.1058 -0.7010
   68MOL0     C 9284   7.794   3.692  11.604 -0.3669 -0.9867 -0.6739
   68MOL0     C 9285   7.904   3.726  11.515 -0.1506 -0.5937 -0.0093
   68MOL0     C 9286   7.857   3.782  11.379  0.7969 -0.0721  0.0082
   68MOL0     C 9287   7.962   3.780  11.259  0.3137  0.6767 -0.6312
   68MOL0     C 9288   8.079   3.878  11.281 -0.7951  0.1530 -0.5637
   68MOL0     C 9289   8.052   4.027  11.296 -0.6865  0.0087  0.1182
   68MOL0     C 9290   7.960   4.062  11.176 -0.2815  0.3741  0.0869
   68MOL0    Cl 9291   7.922   4.228  11.197 -0.3066  0.1171 -0.1173
   68MOL0     C 9292   7.451   3.776  11.880 -0.3262 -0.3545 -0.4884
   68MOL0     C 9293   7.342   3.840  11.941  0.2392 -0.1934 -0.3038
   68MOL0     O 9294   7.046   3.860  11.968  0.5171  0.0991  0.7611
   68MOL0     C 9295   6.823   4.044  11.966 -0.5776 -0.1017  0.0866
   68MOL0     C 9296   6.718   4.138  11.965  0.1195  0.9020  0.5942
   68MOL0     N 9297   6.338   4.893  11.894 -0.3981  0.7049 -0.6638
   68MOL0     N 9298   6.342   4.992  11.810 -0.7842  0.0728 -0.7274
   68MOL0     C 9299   6.193   4.192  10.977 -0.7694 -0.1314  0.1471
   68MOL0     C 9300   6.195   4.053  10.941  0.4195 -0.2087 -0.4303
   68MOL0     C 9301   6.166   3.666  10.937  0.3005  0.4141 -0.0876
   68MOL0     C 9302   6.180   3.665  11.072 -0.6981 -0.2778  0.3446
   68MOL0     C 9303   6.138   3.556  11.142 -0.0228  0.3555 -0.1129
   68MOL0     C 9304   6.106   3.431  11.083 -0.1099 -1.6408 -0.6876
   68MOL0     O 9305   6.072   3.315  11.153 -0.4325 -1.2076  0.2381
   68MOL0     C 9306   6.014   3.337  11.279 -0.6359  0.5162 -0.0740
   68MOL0     C 9307   5.968   3.201  11.329  0.6493  0.0903  0.4712
   68MOL0     C 9308   6.074   3.087  11.308  0.0915  0.2340 -0.1715
   68MOL0     C 9309   6.036   2.944  11.357 -0.0478 -0.7872 -0.4473
   68MOL0     C 9310   5.904   2.884  11.337  0.8924  0.0281 -0.2266
   68MOL0     C 9311   5.792   2.841  11.321  0.4510  0.0044  0.2685
   68MOL0     C 9312   6.108   3.423  10.942  0.3848  0.5815 -0.5400
   68MOL0     C 9313   6.124   3.543  10.872  0.6213  0.5476  0.1435
   68MOL0     C 9314   6.112   3.526  10.725 -0.0582  1.3881  0.4851
   68MOL0     H 9315   6.520   4.001  10.927 -1.2504 -1.9296 -0.2137
   68MOL0     H 9316   6.524   4.219  11.008 -0.8053 -0.2231  2.7213
   68MOL0     H 9317   6.151   4.469  11.016  0.0639 -2.2105 -1.3553
   68MOL0     H 9318   6.231   4.492  10.853  1.4282  1.3537 -0.7625
   68MOL0     H 9319   6.411   4.618  10.942 -1.7813  2.0446 -4.9947
   68MOL0     H 9320   6.263   4.703  10.926  1.6091  1.6272  0.1884
   68MOL0     H 9321   6.211   4.708  11.176  1.2095  0.8570  2.8511
   68MOL0     H 9322   6.321   4.571  11.192  0.4176 -0.7964 -1.0543
   68MOL0     H 9323   6.499   4.687  11.199  0.3790 -0.5594 -2.7121
   68MOL0     H 9324   6.449   4.820  11.102  2.7239 -1.4602  1.1809
   68MOL0     H 9325   6.312   4.767  11.372 -0.1870  1.5482  1.0408
   68MOL0     H 9326   6.302   4.912  11.280  0.3322 -0.4316 -4.0104
   68MOL0     H 9327   6.516   4.824  11.459 -3.1249 -0.2934  1.0700
   68MOL0     H 9328   6.578   4.908  11.331 -1.5879 -1.0338 -1.1680
   68MOL0     H 9329   6.433   5.100  11.378 -1.3230  1.7022  2.0056
   68MOL0     H 9330   6.551   5.071  11.499 -0.6667  1.2325 -0.5885
   68MOL0     H 9331   6.326   5.130  11.605  2.2658  1.6452 -1.7878
   68MOL0     H 9332   6.245   4.999  11.516  0.3441  1.4287 -0.9701
   68MOL0     H 9333   6.367   4.750  11.600  0.2281 -0.2450  0.1102
   68MOL0     H 9334   6.322   4.566  11.783  0.6136 -0.3245  0.6919
   68MOL0     H 9335   6.255   4.610  11.934 -0.4007  0.0436  0.7084
   68MOL0     H 9336   6.550   4.587  11.875  1.5808  1.2341  1.0516
   68MOL0     H 9337   6.478   4.676  12.019 -2.2166  1.2445 -0.5564
   68MOL0     H 9338   6.470   4.485  12.127 -1.9985  0.5493 -0.1526
   68MOL0     H 9339   6.347   4.438  12.022 -0.4050 -0.7412 -3.8806
   68MOL0     H 9340   6.477   4.265  11.994 -1.6548  2.6512  1.2402
   68MOL0     H 9341   6.542   4.359  11.851 -0.0332  1.5125 -0.5561
   68MOL0     H 9342   6.876   4.389  12.119  0.1869 -1.5954  2.7638
   68MOL0     H 9343   7.181   4.265  12.018  0.2294 -0.0304  0.0292
   68MOL0     H 9344   7.151   4.167  12.160 -0.1882  0.6981  2.2036
   68MOL0     H 9345   7.099   4.341  12.163 -0.0256  0.0217 -0.3411
   68MOL0     H 9346   7.295   4.089  11.724 -1.6086  0.5354  0.3841
   68MOL0     H 9347   7.510   4.004  11.640 -0.0779 -0.7714 -0.3206
   68MOL0     H 9348   7.730   3.895  11.580  1.3213 -2.0409 -2.7611
   68MOL0     H 9349   7.777   3.866  11.746  2.4208 -0.7952 -1.5466
   68MOL0     H 9350   7.836   3.637  11.689  0.9568  1.4801  0.3533
   68MOL0     H 9351   7.725   3.615  11.566  0.0237 -1.9981  0.5810
   68MOL0     H 9352   7.975   3.643  11.504  0.4295 -0.1954  0.6244
   68MOL0     H 9353   7.968   3.802  11.562 -0.8061  1.1725 -1.8279
   68MOL0     H 9354   7.824   3.886  11.388 -0.2368 -0.3789 -0.1728
   68MOL0     H 9355   7.777   3.723  11.335  0.5463  0.2812 -0.0173
   68MOL0     H 9356   8.005   3.683  11.232 -0.4896  0.2204 -0.3078
   68MOL0     H 9357   7.898   3.805  11.174 -1.0522 -0.3071  0.0732
   68MOL0     H 9358   8.158   3.870  11.205 -0.2548  2.2437 -0.2965
   68MOL0     H 9359   8.123   3.844  11.375  0.2160 -0.2842 -1.1734
   68MOL0     H 9360   8.139   4.089  11.276 -0.7255 -0.7973 -3.0061
   68MOL0     H 9361   8.008   4.060  11.391  1.1956  0.6356  0.8156
   68MOL0     H 9362   7.869   4.001  11.174 -0.8949  1.0974  2.6721
   68MOL0     H 9363   8.010   4.060  11.079 -0.4404  1.2201 -0.0237
   68MOL0     H 9364   7.508   3.686  11.901  0.7827  0.0660 -1.6185
   68MOL0     H 9365   7.298   3.803  12.033 -3.8294  2.3450 -0.9722
   68MOL0     H 9366   6.817   3.950  11.912 -0.9712 -0.5792  0.9239
   68MOL0     H 9367   6.622   4.108  11.924  1.4413 -2.0176 -0.6146
   68MOL0     H 9368   6.094   4.236  10.974 -0.8252 -0.2984 -1.7382
   68MOL0     H 9369   6.097   4.007  10.946  0.9576 -1.2623  2.1577
   68MOL0     H 9370   6.219   3.751  11.127  3.7803  1.1008 -4.2569
   68MOL0     H 9371   6.150   3.562  11.250  1.7457  3.6849 -0.3517
   68MOL0     H 9372   6.086   3.386  11.345 -2.4781  2.3741  0.6687
   68MOL0     H 9373   5.932   3.409  11.283 -0.4609  1.6630 -6.3344
   68MOL0     H 9374   5.887   3.175  11.260  1.0898 -2.4017  0.7870
   68MOL0     H 9375   5.943   3.204  11.435  1.4484 -1.3949  0.7401
   68MOL0     H 9376   6.104   3.068  11.204  0.1983 -0.1600 -0.0716
   68MOL0     H 9377   6.162   3.116  11.365  1.7204 -2.9997 -0.7798
   68MOL0     H 9378   6.029   2.944  11.466  3.1816 -2.0880 -0.1305
   68MOL0     H 9379   6.106   2.865  11.327 -1.8015 -1.1932 -4.0235
   68MOL0     H 9380   5.693   2.803  11.309  0.2450 -0.4902  2.9565
   68MOL0     H 9381   6.094   3.324  10.898 -0.5144 -1.1449  3.2004
   68MOL0     H 9382   6.156   3.599  10.657 -0.2458  1.5828  0.5709
   68MOL0     H 9383   6.167   3.436  10.696 -0.8060 -0.3349  3.8750
   68MOL0     H 9384   6.009   3.505  10.696 -0.3610 -0.2457  2.5195
   69MOL0     O 9385   8.291   6.472   2.460 -0.5680  0.2648 -0.5310
   69MOL0     C 9386   8.335   6.365   2.428 -0.1735  0.1928 -0.1105
   69MOL0     O 9387   8.327   6.314   2.303 -0.2532  0.2130 -0.5101
   69MOL0     C 9388   8.254   6.377   2.207 -0.1126  0.2363  0.2359
   69MOL0     C 9389   8.309   6.383   2.080 -0.1814 -1.1399  0.0479
   69MOL0     C 9390   8.223   6.422   1.978 -0.1720  0.4078  0.3714
   69MOL0     C 9391   8.091   6.471   1.998  0.1829 -0.7284 -0.1509
   69MOL0     O 9392   8.012   6.523   1.902  0.2843 -0.1180  0.6472
   69MOL0     C 9393   8.070   6.582   1.780 -0.0722 -0.7470  0.1581
   69MOL0     C 9394   8.149   6.709   1.821  0.1133 -1.1241 -0.5687
   69MOL0     C 9395   8.082   6.822   1.910  0.4313  0.7324  0.7754
   69MOL0     C 9396   8.165   6.951   1.928  0.2592 -0.6563 -0.5297
   69MOL0     C 9397   8.158   7.004   2.075  0.2239 -0.6253  0.7012
   69MOL0     C 9398   8.210   6.919   2.187 -0.4528  0.1385 -1.1835
   69MOL0     C 9399   8.356   6.900   2.182  0.0655 -0.0628 -0.2136
   69MOL0     C 9400   8.424   6.817   2.299  0.0705 -0.3016  0.6346
   69MOL0     N 9401   8.400   6.860   2.432  0.1540  1.2722 -0.1421
   69MOL0     C 9402   8.336   6.794   2.532 -0.0960  0.5764 -1.0641
   69MOL0     C 9403   8.360   6.863   2.644 -0.0456 -0.1698 -0.7435
   69MOL0     C 9404   8.301   6.844   2.780 -0.3763  0.3339 -0.7075
   69MOL0     C 9405   8.150   6.852   2.778 -0.8181  0.0633 -0.3150
   69MOL0     C 9406   8.087   6.804   2.911  0.1951 -0.0102  0.6663
   69MOL0     C 9407   7.935   6.752   2.921 -0.2077  0.0309 -0.6321
   69MOL0     O 9408   7.914   6.624   2.871  0.4562  0.5718 -0.5057
   69MOL0     C 9409   7.989   6.524   2.927  0.8631 -0.6593  0.5861
   69MOL0     C 9410   7.990   6.399   2.862 -0.6961  0.4965  1.0462
   69MOL0     C 9411   8.083   6.299   2.907  0.7886  0.4220  0.7735
   69MOL0     C 9412   8.099   6.180   2.805  0.3670 -0.1826 -0.0487
   69MOL0     C 9413   8.149   6.309   3.028 -0.3974  0.6793 -1.0613
   69MOL0     C 9414   8.244   6.199   3.073  0.5142 -0.3824 -0.0395
   69MOL0     O 9415   8.194   6.077   3.087 -0.0478 -0.2048 -0.7453
   69MOL0     C 9416   8.269   5.984   3.160  0.1137  0.1105  0.8845
   69MOL0     C 9417   8.407   5.976   3.169 -0.5920 -0.7225 -0.3487
   69MOL0     C 9418   8.472   5.889   3.264  0.6184 -0.9781 -0.4238
   69MOL0     C 9419   8.407   5.821   3.359 -0.0809  0.1517  0.4396
   69MOL0     O 9420   8.482   5.741   3.443 -0.3474 -0.2338  0.6358
   69MOL0     C 9421   8.422   5.624   3.491 -0.0824 -0.1608  0.0301
   69MOL0     C 9422   8.513   5.536   3.569 -0.6194  0.1622 -1.3032
   69MOL0     C 9423   8.615   5.471   3.486 -0.7904 -0.8413  0.3956
   69MOL0     C 9424   8.708   5.384   3.571  0.1412  0.3313 -0.0422
   69MOL0     C 9425   8.796   5.289   3.485  0.0552 -1.5047  0.3877
   69MOL0     C 9426   8.914   5.376   3.424  0.5146 -0.6708 -0.3798
   69MOL0     C 9427   9.000   5.295   3.341 -0.5571 -0.2346  0.6746
   69MOL0     C 9428   9.120   5.392   3.305 -0.0924 -0.7411  0.5356
   69MOL0    Cl 9429   9.241   5.307   3.210  0.5564 -0.0975  0.2346
   69MOL0     C 9430   8.270   5.819   3.346  0.7605 -0.8416  0.7382
   69MOL0     C 9431   8.201   5.897   3.245 -1.3037 -1.3726 -0.7413
   69MOL0     O 9432   8.354   6.242   3.101 -0.0231  0.1840  0.7329
   69MOL0     C 9433   8.133   6.433   3.099  0.1368  0.7598  0.9806
   69MOL0     C 9434   8.054   6.533   3.048  0.8794 -0.0756 -0.1774
   69MOL0     N 9435   8.454   6.961   2.607  0.0527 -0.3616 -0.7983
   69MOL0     N 9436   8.467   6.965   2.487  0.8493  0.7018  0.1517
   69MOL0     C 9437   8.049   6.479   2.126 -0.6998 -0.9484 -0.0190
   69MOL0     C 9438   8.121   6.428   2.225 -0.7583  0.0905 -0.7734
   69MOL0     C 9439   8.382   6.277   2.531 -0.6262  0.8256 -0.1235
   69MOL0     C 9440   8.419   6.144   2.491 -0.8083 -0.2847  0.7675
   69MOL0     C 9441   8.461   6.054   2.581  0.1144  0.8645 -1.1875
   69MOL0     C 9442   8.456   6.089   2.719 -0.3154 -0.3812  0.2048
   69MOL0     O 9443   8.490   5.996   2.812  1.0715  0.3049  0.6159
   69MOL0     C 9444   8.392   5.882   2.809  0.9596  0.5493  0.6371
   69MOL0     C 9445   8.446   5.770   2.889 -0.4537 -0.0767  0.4558
   69MOL0     C 9446   8.350   5.657   2.910 -0.3055 -0.4108  0.3784
   69MOL0     C 9447   8.388   5.527   2.975 -1.6378  0.3972  0.1461
   69MOL0     C 9448   8.468   5.441   2.885 -0.1702 -0.1946 -0.4769
   69MOL0     C 9449   8.527   5.350   2.832  0.9607  1.3168  0.5080
   69MOL0     C 9450   8.422   6.214   2.760 -0.4409 -0.1235  0.7800
   69MOL0     C 9451   8.399   6.315   2.664  0.3373  0.6039 -0.0319
   69MOL0     C 9452   8.391   6.454   2.726  0.4281  1.1716 -0.7812
   69MOL0     H 9453   8.410   6.357   2.050  1.9895  4.2845  1.4071
   69MOL0     H 9454   8.260   6.412   1.876  0.7664  1.3626  0.6073
   69MOL0     H 9455   7.994   6.613   1.709 -1.8243 -2.1932  1.3218
   69MOL0     H 9456   8.131   6.511   1.724 -0.6671  0.0971 -1.6336
   69MOL0     H 9457   8.238   6.678   1.877  1.1298  0.4264 -1.2355
   69MOL0     H 9458   8.178   6.768   1.733 -1.6715  0.6000 -0.0808
   69MOL0     H 9459   7.984   6.839   1.865 -0.3579 -0.3107  2.0222
   69MOL0     H 9460   8.055   6.787   2.010 -1.0153 -1.2714 -0.2274
   69MOL0     H 9461   8.269   6.919   1.916  0.8337 -0.2724  2.5317
   69MOL0     H 9462   8.145   7.018   1.844  1.0572  0.8068  0.4145
   69MOL0     H 9463   8.051   7.024   2.084 -0.0272 -0.6103 -1.6531
   69MOL0     H 9464   8.219   7.096   2.078  1.5089 -1.3843 -0.6451
   69MOL0     H 9465   8.192   6.972   2.281 -1.2393 -2.0077 -0.0585
   69MOL0     H 9466   8.152   6.827   2.199  1.6162 -1.0315  0.6644
   69MOL0     H 9467   8.408   6.997   2.182  2.0358 -1.0773 -0.1991
   69MOL0     H 9468   8.372   6.846   2.088 -0.7573 -2.1359  0.7793
   69MOL0     H 9469   8.382   6.717   2.284  0.5943 -0.3713 -0.4352
   69MOL0     H 9470   8.531   6.801   2.286  0.0540 -1.4333  1.7038
   69MOL0     H 9471   8.272   6.706   2.538 -0.8971  1.2449  2.8020
   69MOL0     H 9472   8.348   6.919   2.844  1.7574 -0.2407 -1.5068
   69MOL0     H 9473   8.336   6.750   2.823  0.4042  0.7677 -0.3638
   69MOL0     H 9474   8.122   6.952   2.743  1.2148  0.2847 -1.5033
   69MOL0     H 9475   8.124   6.777   2.701  2.0629  1.1721 -2.5566
   69MOL0     H 9476   8.153   6.730   2.956 -0.5937 -0.4188  1.1678
   69MOL0     H 9477   8.092   6.893   2.974 -3.1639  1.2338 -0.5620
   69MOL0     H 9478   7.901   6.764   3.024 -0.7320 -0.4829 -0.7386
   69MOL0     H 9479   7.874   6.825   2.866 -1.2452 -0.8132 -0.6426
   69MOL0     H 9480   7.929   6.367   2.779  0.8726 -2.5236  0.9206
   69MOL0     H 9481   8.150   6.217   2.716 -2.3087 -1.0837 -2.0699
   69MOL0     H 9482   8.006   6.145   2.760 -0.8833 -0.4571  2.5746
   69MOL0     H 9483   8.147   6.095   2.856  0.4672  0.9143  1.7837
   69MOL0     H 9484   8.472   6.041   3.111 -0.7427  0.2415  0.5277
   69MOL0     H 9485   8.580   5.887   3.275  0.6863 -1.6019 -1.1169
   69MOL0     H 9486   8.339   5.660   3.552  0.6091  2.2890 -0.4000
   69MOL0     H 9487   8.373   5.568   3.411 -0.2213 -0.0385  0.0299
   69MOL0     H 9488   8.557   5.599   3.648  2.6069 -2.0107 -1.1635
   69MOL0     H 9489   8.450   5.466   3.625 -1.6789  3.0188  1.4153
   69MOL0     H 9490   8.665   5.545   3.423 -0.9651 -2.0006 -1.1619
   69MOL0     H 9491   8.557   5.415   3.411  1.0599  2.0040 -3.4806
   69MOL0     H 9492   8.651   5.321   3.640  2.3850  0.3604  1.9630
   69MOL0     H 9493   8.770   5.447   3.635  1.9202  1.4646 -2.7036
   69MOL0     H 9494   8.833   5.205   3.545  1.2518 -1.2296  0.0598
   69MOL0     H 9495   8.751   5.242   3.398  3.3286 -2.5169 -0.9070
   69MOL0     H 9496   8.968   5.417   3.510 -0.5875  1.6268 -0.6859
   69MOL0     H 9497   8.865   5.455   3.366  1.1943  1.0370  1.2315
   69MOL0     H 9498   8.956   5.266   3.245 -0.0546  0.1070  0.3349
   69MOL0     H 9499   9.030   5.196   3.378  1.9196 -0.7301 -2.1572
   69MOL0     H 9500   9.171   5.416   3.399 -0.7727 -0.2297  0.7827
   69MOL0     H 9501   9.090   5.488   3.261 -0.6083 -1.3415 -0.4775
   69MOL0     H 9502   8.198   5.767   3.408 -0.9763  0.2738 -0.2516
   69MOL0     H 9503   8.093   5.907   3.256 -1.0463  1.6022 -0.0731
   69MOL0     H 9504   8.149   6.441   3.206  0.2242  0.4067  0.9951
   69MOL0     H 9505   8.040   6.626   3.103 -1.4199 -0.0849 -0.6508
   69MOL0     H 9506   7.952   6.524   2.149 -0.1289  0.2642  0.0982
   69MOL0     H 9507   8.075   6.421   2.323  2.8668 -2.1695  0.9916
   69MOL0     H 9508   8.405   6.112   2.388 -2.2219 -4.1854  1.9756
   69MOL0     H 9509   8.495   5.961   2.536 -2.9999  0.3148 -2.7201
   69MOL0     H 9510   8.295   5.913   2.850 -0.1098 -2.8475  1.0091
   69MOL0     H 9511   8.366   5.832   2.715 -4.4999 -0.5089  2.3268
   69MOL0     H 9512   8.466   5.802   2.992 -0.0292  0.1531  0.3027
   69MOL0     H 9513   8.528   5.721   2.835 -1.5799  0.8097 -2.2036
   69MOL0     H 9514   8.265   5.700   2.963  2.6438  1.2126  4.3537
   69MOL0     H 9515   8.300   5.632   2.816  0.4812 -1.9535  0.3458
   69MOL0     H 9516   8.299   5.471   3.006 -2.2328  0.8338 -0.7445
   69MOL0     H 9517   8.453   5.544   3.061  2.8751 -1.2730 -2.5301
   69MOL0     H 9518   8.565   5.263   2.783  0.4420  2.7441 -2.6836
   69MOL0     H 9519   8.428   6.232   2.867 -2.3829 -0.5643  0.9863
   69MOL0     H 9520   8.285   6.476   2.742 -0.1980 -2.6096  1.7054
   69MOL0     H 9521   8.429   6.462   2.828 -1.9258 -1.2630  0.3966
   69MOL0     H 9522   8.440   6.533   2.668  3.4531 -0.0749 -0.1024
   70MOL0     O 9523   1.714   9.104   0.515 -0.0802  0.1411 -0.3906
   70MOL0     C 9524   1.604   9.114   0.570 -0.8118  0.5824  0.5070
   70MOL0     O 9525   1.584   9.114   0.700 -0.6994 -0.5850 -0.9087
   70MOL0     C 9526   1.696   9.137   0.776  0.3532  0.2784 -0.2777
   70MOL0     C 9527   1.681   9.256   0.845  0.1875 -0.9878 -0.9891
   70MOL0     C 9528   1.782   9.299   0.939  0.2436 -0.7347  0.5242
   70MOL0     C 9529   1.915   9.240   0.933 -0.0096 -0.6752  0.5784
   70MOL0     O 9530   2.010   9.302   1.014  0.5622 -0.3666 -0.6364
   70MOL0     C 9531   2.146   9.260   0.980 -0.3618 -0.1413 -0.8538
   70MOL0     C 9532   2.248   9.355   1.042 -0.5164  0.2278  0.3526
   70MOL0     C 9533   2.230   9.493   0.964 -1.3113  0.5587  0.1195
   70MOL0     C 9534   2.364   9.568   0.968 -1.1045 -0.5719 -0.2496
   70MOL0     C 9535   2.433   9.596   1.107  0.0213 -1.1868 -0.6039
   70MOL0     C 9536   2.572   9.531   1.119  0.7012  0.8202 -0.9103
   70MOL0     C 9537   2.623   9.490   1.256 -0.9994 -0.9918  0.0607
   70MOL0     C 9538   2.656   9.620   1.339  1.2478 -0.2612 -0.4708
   70MOL0     N 9539   2.735   9.592   1.456 -1.1326  0.0414 -0.8724
   70MOL0     C 9540   2.868   9.549   1.435  0.4007 -0.3621  0.7645
   70MOL0     C 9541   2.928   9.553   1.559 -0.8047  0.2879  1.0522
   70MOL0     C 9542   3.076   9.540   1.581 -0.3415  0.2634 -0.5111
   70MOL0     C 9543   3.149   9.673   1.549 -0.3441 -0.4420 -0.1340
   70MOL0     C 9544   3.128   9.779   1.659 -0.0863  0.5959  0.2801
   70MOL0     C 9545   3.203   9.909   1.620  0.3555  0.0605 -0.3568
   70MOL0     O 9546   3.240   9.980   1.748  0.3942 -0.1384  0.4578
   70MOL0     C 9547   3.269  10.109   1.766 -0.1257 -0.0425  0.6052
   70MOL0     C 9548   3.361  10.152   1.854 -0.3258  0.4706 -1.0703
   70MOL0     C 9549   3.391  10.287   1.872  0.1792  0.0664 -0.8829
   70MOL0     C 9550   3.491  10.307   1.990 -0.1351 -0.1739  1.2338
   70MOL0     C 9551   3.340  10.392   1.792  0.2175 -0.0503 -0.8379
   70MOL0     C 9552   3.380  10.536   1.798 -1.0451  0.5050 -0.4956
   70MOL0     O 9553   3.274  10.626   1.766  0.0568 -0.3822  0.1379
   70MOL0     C 9554   3.301  10.768   1.758 -0.7153  1.0805 -0.6575
   70MOL0     C 9555   3.369  10.830   1.654 -0.5191  0.2806  0.0750
   70MOL0     C 9556   3.389  10.969   1.645 -1.0544  0.6052  0.6846
   70MOL0     C 9557   3.343  11.049   1.751  0.6715  0.2389 -0.8327
   70MOL0     O 9558   3.361  11.179   1.771 -0.2792  0.2704 -0.1427
   70MOL0     C 9559   3.384  11.265   1.658 -0.4933  0.1755 -0.4396
   70MOL0     C 9560   3.418  11.402   1.729  1.2561 -0.1582 -0.0302
   70MOL0     C 9561   3.302  11.491   1.764  0.3480 -0.6078  0.1674
   70MOL0     C 9562   3.190  11.487   1.658  0.6565  0.3455  1.5069
   70MOL0     C 9563   3.100  11.610   1.680 -0.5169  1.3986 -0.0080
   70MOL0     C 9564   2.980  11.613   1.588  0.2846 -0.1898  0.6795
   70MOL0     C 9565   2.933  11.756   1.571 -0.1076  0.1213  0.5688
   70MOL0     C 9566   2.798  11.764   1.510  0.6156  0.2678 -0.5727
   70MOL0    Cl 9567   2.714  11.918   1.548  0.2161 -0.0933 -0.7031
   70MOL0     C 9568   3.272  10.988   1.858  0.3866  0.9149  0.1658
   70MOL0     C 9569   3.248  10.850   1.854 -0.1076 -0.6725 -1.0033
   70MOL0     O 9570   3.496  10.560   1.817 -0.0264 -0.6334  0.2658
   70MOL0     C 9571   3.239  10.350   1.705 -0.3138 -0.1256  0.7177
   70MOL0     C 9572   3.208  10.209   1.694 -1.0634  0.8413 -0.7808
   70MOL0     N 9573   2.833   9.571   1.649  0.1462  0.1502 -0.0646
   70MOL0     N 9574   2.715   9.592   1.591  0.1303 -0.3292  0.0317
   70MOL0     C 9575   1.929   9.124   0.862 -0.2715  0.1630 -0.1316
   70MOL0     C 9576   1.822   9.071   0.790 -0.0815 -0.4155  0.7981
   70MOL0     C 9577   1.491   9.101   0.479  0.7687  0.2371 -1.0847
   70MOL0     C 9578   1.508   9.081   0.347  0.8585  0.3393  1.0248
   70MOL0     C 9579   1.402   9.052   0.261 -0.6522  0.0298 -0.9973
   70MOL0     C 9580   1.269   9.060   0.303  0.5027 -0.3373 -0.4316
   70MOL0     O 9581   1.178   9.049   0.188 -0.3043  0.1458  0.8870
   70MOL0     C 9582   1.047   9.015   0.207  0.2928  1.2974 -0.9841
   70MOL0     C 9583   0.955   9.122   0.281  0.9655  0.1000 -0.1024
   70MOL0     C 9584   0.814   9.109   0.219  1.4067 -0.6550 -0.6852
   70MOL0     C 9585   0.724   9.213   0.294 -0.5777  1.0042 -0.0408
   70MOL0     C 9586   0.751   9.342   0.235  0.0592 -0.2121 -0.2889
   70MOL0     C 9587   0.756   9.448   0.185  0.0939  0.3194 -0.0706
   70MOL0     C 9588   1.242   9.066   0.442 -0.0914 -0.0105  0.6166
   70MOL0     C 9589   1.354   9.085   0.530  0.4802  0.5850  0.4982
   70MOL0     C 9590   1.314   9.093   0.675  0.0476  0.1828  1.0964
   70MOL0     H 9591   1.588   9.312   0.841  0.7784  0.8383  3.6069
   70MOL0     H 9592   1.753   9.378   1.007 -0.0458  1.2096 -1.7416
   70MOL0     H 9593   2.159   9.272   0.872  0.5426  1.4107 -0.6072
   70MOL0     H 9594   2.169   9.156   1.007  1.6040  0.7925  1.4758
   70MOL0     H 9595   2.226   9.372   1.148 -2.7881  1.5679 -0.2579
   70MOL0     H 9596   2.349   9.314   1.038 -0.2286  0.7930  1.5294
   70MOL0     H 9597   2.199   9.472   0.861  0.3769 -0.7124 -0.1896
   70MOL0     H 9598   2.154   9.547   1.020 -4.6686 -4.4047  1.0438
   70MOL0     H 9599   2.438   9.517   0.906  1.0594  1.8239  0.1835
   70MOL0     H 9600   2.336   9.665   0.927 -1.9118  0.6909  2.9572
   70MOL0     H 9601   2.354   9.560   1.173 -1.2146  0.8923 -0.8474
   70MOL0     H 9602   2.439   9.704   1.126  0.4911 -1.5946  1.8414
   70MOL0     H 9603   2.557   9.425   1.099  3.7359  0.3549 -1.2744
   70MOL0     H 9604   2.651   9.584   1.066  1.2347 -0.8006 -1.7971
   70MOL0     H 9605   2.709   9.423   1.247  1.4351  1.7262  1.4667
   70MOL0     H 9606   2.546   9.441   1.315 -2.8918  0.8459 -0.7203
   70MOL0     H 9607   2.715   9.692   1.283  1.5619  0.4611  0.7470
   70MOL0     H 9608   2.562   9.668   1.368  2.5852  0.8749  2.3619
   70MOL0     H 9609   2.907   9.538   1.335 -0.2129 -0.7687  0.5626
   70MOL0     H 9610   3.128   9.460   1.528 -0.3571 -0.5653  0.6840
   70MOL0     H 9611   3.085   9.519   1.688 -2.7850  0.2675 -0.2431
   70MOL0     H 9612   3.255   9.650   1.539 -0.0762  1.2545 -1.9435
   70MOL0     H 9613   3.109   9.716   1.456 -2.4649 -3.0583 -0.5779
   70MOL0     H 9614   3.021   9.798   1.666  0.4338  4.2341  0.0182
   70MOL0     H 9615   3.177   9.740   1.749  3.3895 -0.9511 -2.0427
   70MOL0     H 9616   3.302   9.889   1.578  1.0087  0.6611  0.8461
   70MOL0     H 9617   3.145   9.975   1.556 -1.9638 -0.3982  1.1408
   70MOL0     H 9618   3.406  10.084   1.926  0.5794  3.6071  1.5732
   70MOL0     H 9619   3.588  10.261   1.969  0.7657  2.2358 -0.3013
   70MOL0     H 9620   3.449  10.247   2.071 -1.6723 -0.7921  0.0241
   70MOL0     H 9621   3.498  10.413   2.020  0.0933 -0.2309  1.3936
   70MOL0     H 9622   3.407  10.768   1.573 -0.8115 -5.4959  3.8342
   70MOL0     H 9623   3.441  11.004   1.557  1.5110 -4.1677 -0.0440
   70MOL0     H 9624   3.478  11.226   1.616 -0.0246  1.0227 -0.1842
   70MOL0     H 9625   3.310  11.270   1.578 -0.0968 -0.3097 -0.8447
   70MOL0     H 9626   3.486  11.383   1.812  1.5287 -3.3034 -0.8331
   70MOL0     H 9627   3.484  11.453   1.658  0.3414  0.9676 -0.1022
   70MOL0     H 9628   3.340  11.592   1.782 -2.0774  0.0686  2.1933
   70MOL0     H 9629   3.257  11.458   1.859  0.9119  0.7004  0.9101
   70MOL0     H 9630   3.123  11.401   1.666 -1.6203  1.0267 -4.7026
   70MOL0     H 9631   3.235  11.486   1.558  3.2792 -2.7628  2.5807
   70MOL0     H 9632   3.068  11.606   1.784 -1.2244 -3.7616 -0.1811
   70MOL0     H 9633   3.158  11.702   1.665 -0.0053  0.6279 -3.8807
   70MOL0     H 9634   2.900  11.551   1.627 -0.9697 -0.4932 -2.1078
   70MOL0     H 9635   3.018  11.560   1.500 -0.2160  1.0692 -0.3197
   70MOL0     H 9636   2.986  11.818   1.498 -0.0642 -0.4249  0.1258
   70MOL0     H 9637   2.931  11.810   1.666  1.1697  0.1151  0.6113
   70MOL0     H 9638   2.726  11.689   1.543  0.7846 -1.2839 -3.4116
   70MOL0     H 9639   2.807  11.768   1.401  1.8931  1.6485 -0.4591
   70MOL0     H 9640   3.224  11.049   1.933 -3.2231 -1.9132  0.4419
   70MOL0     H 9641   3.183  10.798   1.923  0.3943 -3.9699 -2.8175
   70MOL0     H 9642   3.185  10.428   1.652 -0.1577  1.7232  3.1276
   70MOL0     H 9643   3.127  10.180   1.627 -1.1976 -1.4673  0.2683
   70MOL0     H 9644   2.027   9.078   0.866 -1.1442 -1.7244  1.5798
   70MOL0     H 9645   1.834   8.978   0.736 -1.2029  1.8095 -3.8141
   70MOL0     H 9646   1.605   9.072   0.297 -0.1497 -2.2064 -0.7073
   70MOL0     H 9647   1.415   9.025   0.157 -1.0519 -3.5495 -0.2345
   70MOL0     H 9648   1.009   8.976   0.113  1.2253 -0.8088 -0.5463
   70MOL0     H 9649   1.039   8.928   0.273  0.5250 -0.2637 -2.9298
   70MOL0     H 9650   0.985   9.227   0.284  0.7002  0.1676  0.1924
   70MOL0     H 9651   0.952   9.096   0.387 -0.5442 -1.3549 -0.4622
   70MOL0     H 9652   0.807   9.125   0.111  1.4857  3.4075 -0.2084
   70MOL0     H 9653   0.774   9.009   0.240 -0.0393 -0.3477 -1.8018
   70MOL0     H 9654   0.744   9.202   0.401 -1.7414  1.0601  0.1887
   70MOL0     H 9655   0.618   9.189   0.283 -0.9481  2.6586 -0.2166
   70MOL0     H 9656   0.747   9.544   0.138 -2.1059 -0.4597 -1.4002
   70MOL0     H 9657   1.137   9.072   0.466 -1.1261 -0.8231 -3.0013
   70MOL0     H 9658   1.366   9.167   0.736  0.8995 -0.1983  0.8541
   70MOL0     H 9659   1.207   9.115   0.681 -0.2942 -1.0578 -0.0036
   70MOL0     H 9660   1.326   8.991   0.714 -0.8819 -0.4171 -0.1381
   71MOL0     O 9661   9.376   8.203   5.754  0.1058  0.1256 -0.3586
   71MOL0     C 9662   9.295   8.144   5.686 -0.3729  0.6649 -0.1358
   71MOL0     O 9663   9.211   8.044   5.732  0.6839 -0.6730 -0.3399
   71MOL0     C 9664   9.195   7.999   5.854  0.0982 -0.3586 -0.1664
   71MOL0     C 9665   9.066   7.974   5.904 -0.3088 -0.3187 -0.2625
   71MOL0     C 9666   9.053   7.929   6.037 -0.2794  0.1811 -0.0190
   71MOL0     C 9667   9.172   7.911   6.117 -0.0451  0.0754  0.1034
   71MOL0     O 9668   9.168   7.897   6.249  0.2857  0.1286  1.0642
   71MOL0     C 9669   9.040   7.887   6.307  0.4703  0.5209 -0.2802
   71MOL0     C 9670   9.044   7.851   6.456  0.0931  0.8640  0.0305
   71MOL0     C 9671   9.122   7.957   6.528  0.2313 -0.2210 -0.1241
   71MOL0     C 9672   9.111   7.951   6.686 -0.9616  0.0531 -0.3491
   71MOL0     C 9673   9.200   8.053   6.753  0.5090 -0.2994  0.2304
   71MOL0     C 9674   9.213   7.999   6.900 -0.5154 -0.3401 -0.3214
   71MOL0     C 9675   9.261   8.107   6.997 -0.8219 -0.0001  0.6412
   71MOL0     C 9676   9.387   8.198   6.941 -0.2583 -0.3769  0.2469
   71MOL0     N 9677   9.453   8.240   7.071 -0.0346  1.1400  0.0624
   71MOL0     C 9678   9.447   8.365   7.123  1.0778  0.5996 -0.0872
   71MOL0     C 9679   9.537   8.361   7.221  0.5484  0.4039 -0.4276
   71MOL0     C 9680   9.564   8.482   7.318 -0.8315  0.9905 -0.0481
   71MOL0     C 9681   9.710   8.506   7.333 -0.3278  0.2513  1.2730
   71MOL0     C 9682   9.754   8.606   7.445  0.2936  0.2165  0.3316
   71MOL0     C 9683   9.899   8.597   7.485  0.1357 -0.2878  0.5609
   71MOL0     O 9684   9.932   8.719   7.556 -0.1833  0.0388 -0.1289
   71MOL0     C 9685   9.913   8.719   7.693 -0.9224  0.1326 -0.0273
   71MOL0     C 9686   9.929   8.836   7.751 -0.0077 -0.4792 -0.1318
   71MOL0     C 9687   9.910   8.861   7.895  0.5487 -0.6723  0.2687
   71MOL0     C 9688   9.950   8.996   7.947  0.4713 -0.6562  0.4551
   71MOL0     C 9689   9.888   8.748   7.980 -0.2363  0.8924  0.0612
   71MOL0     C 9690   9.896   8.751   8.120  0.0582 -0.0069 -0.6470
   71MOL0     O 9691   9.961   8.859   8.182 -0.1260 -0.0249 -0.2343
   71MOL0     C 9692  10.041   8.825   8.290  0.2846 -0.0202  0.5553
   71MOL0     C 9693  10.025   8.900   8.410 -0.3501 -0.0612 -0.0200
   71MOL0     C 9694  10.109   8.866   8.514 -0.8096  0.6617 -0.2052
   71MOL0     C 9695  10.208   8.763   8.507 -0.3034 -0.5801 -0.1173
   71MOL0     O 9696  10.275   8.734   8.622  0.1494 -0.6387 -0.0069
   71MOL0     C 9697  10.358   8.618   8.609  0.4364  0.7788 -0.2108
   71MOL0     C 9698  10.460   8.609   8.727  0.6719 -0.3298  0.5759
   71MOL0     C 9699  10.533   8.482   8.744  0.6157  0.4320  1.2309
   71MOL0     C 9700  10.598   8.425   8.618 -0.1272  0.4251 -0.1637
   71MOL0     C 9701  10.733   8.511   8.598 -0.1062 -0.1436 -0.2954
   71MOL0     C 9702  10.819   8.439   8.493  0.9137  0.0132 -0.0935
   71MOL0     C 9703  10.970   8.474   8.504  0.2586 -0.7563  0.0337
   71MOL0     C 9704  10.997   8.623   8.472 -0.4117 -0.1660 -0.7471
   71MOL0    Cl 9705  10.993   8.713   8.641 -0.4935  0.2301  0.0990
   71MOL0     C 9706  10.198   8.680   8.396  0.1205  0.0474  0.2466
   71MOL0     C 9707  10.123   8.713   8.292  1.0164 -0.7490  0.1898
   71MOL0     O 9708   9.842   8.658   8.179  0.1044 -0.2596 -0.6634
   71MOL0     C 9709   9.881   8.618   7.922 -0.0034  0.5258 -0.0164
   71MOL0     C 9710   9.882   8.605   7.778  1.0100 -0.6454  0.3394
   71MOL0     N 9711   9.588   8.227   7.233  0.4087  0.0574  0.3039
   71MOL0     N 9712   9.528   8.155   7.147  0.3868  0.1311 -1.0414
   71MOL0     C 9713   9.297   7.937   6.068 -0.5460  0.7180  0.8033
   71MOL0     C 9714   9.309   7.981   5.936  0.0804 -0.2480  0.6271
   71MOL0     C 9715   9.283   8.175   5.543 -0.2341 -0.8425  0.9063
   71MOL0     C 9716   9.160   8.141   5.479 -0.6072  0.2304 -0.4505
   71MOL0     C 9717   9.125   8.160   5.344  0.6506 -0.1071  0.9869
   71MOL0     C 9718   9.218   8.225   5.268 -0.2094 -0.0124  0.4491
   71MOL0     O 9719   9.184   8.244   5.136 -0.2396  0.4027 -0.2280
   71MOL0     C 9720   9.253   8.360   5.068 -0.1732 -0.3674  0.4542
   71MOL0     C 9721   9.174   8.427   4.951 -0.2907  0.3591 -0.1833
   71MOL0     C 9722   9.158   8.321   4.837  0.0481  0.4981 -0.0950
   71MOL0     C 9723   9.086   8.366   4.709  0.1520  0.1788 -0.9953
   71MOL0     C 9724   8.940   8.401   4.740 -0.0054 -0.4272 -0.4173
   71MOL0     C 9725   8.826   8.414   4.770  0.1716  0.9086 -0.4911
   71MOL0     C 9726   9.346   8.254   5.323 -0.5424  0.1335 -0.3206
   71MOL0     C 9727   9.384   8.222   5.455  0.2757 -0.5986  0.5640
   71MOL0     C 9728   9.516   8.256   5.507 -0.0336  0.0203  0.5571
   71MOL0     H 9729   8.971   7.982   5.853 -0.4149  0.6649  0.0737
   71MOL0     H 9730   8.952   7.932   6.074  0.1092  0.0489  1.0899
   71MOL0     H 9731   8.968   7.819   6.262  1.9943 -1.5298  0.2440
   71MOL0     H 9732   9.003   7.990   6.304  1.3961  1.2127  4.6171
   71MOL0     H 9733   8.940   7.857   6.489 -0.7709  1.2194 -2.5394
   71MOL0     H 9734   9.082   7.749   6.463  0.5667  0.9786 -0.7884
   71MOL0     H 9735   9.226   7.965   6.498 -0.2927 -0.6685 -2.1991
   71MOL0     H 9736   9.082   8.054   6.496  0.2634 -0.2542 -0.2635
   71MOL0     H 9737   9.003   7.962   6.703 -1.5872 -0.1159 -3.5851
   71MOL0     H 9738   9.151   7.853   6.716  2.3761  0.9343 -1.5615
   71MOL0     H 9739   9.144   8.146   6.741  1.8859  0.2187 -3.8454
   71MOL0     H 9740   9.295   8.085   6.710 -0.7187  0.3379 -2.1559
   71MOL0     H 9741   9.119   7.955   6.935 -0.4189  0.0667  0.4673
   71MOL0     H 9742   9.285   7.916   6.898  0.6330  0.6074  0.0289
   71MOL0     H 9743   9.288   8.041   7.080 -2.1178  0.6050  1.5802
   71MOL0     H 9744   9.173   8.166   7.025 -0.2994  1.5292 -0.7869
   71MOL0     H 9745   9.460   8.137   6.888  2.7985  0.1493  3.4514
   71MOL0     H 9746   9.360   8.290   6.889  2.3928 -1.4960 -3.4360
   71MOL0     H 9747   9.373   8.441   7.102 -0.3553 -1.2000 -1.8730
   71MOL0     H 9748   9.527   8.459   7.418  1.6808  1.4696  1.0885
   71MOL0     H 9749   9.513   8.569   7.275  1.2038  1.6642 -1.2614
   71MOL0     H 9750   9.747   8.403   7.344 -1.4554 -0.3614 -0.2460
   71MOL0     H 9751   9.741   8.542   7.234  1.0284  2.2539  2.3714
   71MOL0     H 9752   9.740   8.710   7.416  0.6689  0.0758 -0.3893
   71MOL0     H 9753   9.700   8.577   7.535  1.2752 -1.4914  0.4335
   71MOL0     H 9754   9.917   8.505   7.540 -3.5438 -0.1883  2.2288
   71MOL0     H 9755   9.962   8.590   7.395 -3.2986 -0.9388 -2.0263
   71MOL0     H 9756   9.978   8.913   7.693  2.8605  0.1326  2.8038
   71MOL0     H 9757   9.945   9.067   7.863  0.4113 -1.6989 -0.4496
   71MOL0     H 9758  10.049   9.003   7.992  0.0471  1.9409  1.1421
   71MOL0     H 9759   9.876   9.020   8.024  0.8344  0.1907  0.5541
   71MOL0     H 9760   9.961   8.987   8.411  0.4041  0.5209 -0.6601
   71MOL0     H 9761  10.093   8.921   8.606 -0.0274  0.4943  0.0454
   71MOL0     H 9762  10.300   8.526   8.623  1.3971  0.4382  1.8126
   71MOL0     H 9763  10.418   8.627   8.518 -1.2475 -2.3491 -1.8122
   71MOL0     H 9764  10.536   8.681   8.697 -1.8372  1.5947 -1.6930
   71MOL0     H 9765  10.424   8.646   8.824  1.6939  3.4261 -0.3054
   71MOL0     H 9766  10.468   8.400   8.777 -0.8393 -1.8584 -5.7620
   71MOL0     H 9767  10.609   8.495   8.822  1.6941  1.2918  0.0636
   71MOL0     H 9768  10.536   8.425   8.528 -2.2601  3.5957  1.1255
   71MOL0     H 9769  10.616   8.318   8.621  0.4710  0.3723 -2.7879
   71MOL0     H 9770  10.708   8.615   8.572 -3.8819 -1.3153 -1.9871
   71MOL0     H 9771  10.787   8.500   8.693 -0.3626 -0.4738 -0.1892
   71MOL0     H 9772  10.783   8.468   8.394 -0.5504 -0.0458  0.4025
   71MOL0     H 9773  10.812   8.331   8.511 -0.2826  0.2238  0.8922
   71MOL0     H 9774  11.019   8.413   8.428  1.5035 -2.6205  2.2224
   71MOL0     H 9775  11.011   8.445   8.601 -1.2534  0.9002  1.2657
   71MOL0     H 9776  10.922   8.667   8.406  1.1716 -1.5454 -3.7184
   71MOL0     H 9777  11.095   8.634   8.423 -0.0880 -1.8413 -0.5413
   71MOL0     H 9778  10.257   8.590   8.383  0.0464  0.1869 -1.1993
   71MOL0     H 9779  10.118   8.640   8.212 -2.2701 -1.8751  1.2372
   71MOL0     H 9780   9.877   8.529   7.984  2.0743  0.3077 -0.1225
   71MOL0     H 9781   9.877   8.503   7.742 -1.8100 -1.2037  2.0791
   71MOL0     H 9782   9.378   7.925   6.139 -2.1989  0.1182  2.6725
   71MOL0     H 9783   9.406   8.013   5.901  0.0877  1.5545  2.1444
   71MOL0     H 9784   9.079   8.112   5.545  0.4069  0.9804  1.1746
   71MOL0     H 9785   9.027   8.153   5.298  0.4598  3.3120  0.6035
   71MOL0     H 9786   9.269   8.439   5.142  0.2831 -0.6178  0.6313
   71MOL0     H 9787   9.348   8.333   5.020 -0.8962 -0.7495 -0.7878
   71MOL0     H 9788   9.237   8.509   4.912  2.5543 -0.4082  2.4099
   71MOL0     H 9789   9.076   8.464   4.980 -0.0621 -0.3374  1.5555
   71MOL0     H 9790   9.254   8.282   4.801 -0.9248 -1.1387 -1.0043
   71MOL0     H 9791   9.103   8.241   4.888  2.3492 -0.5030  0.9784
   71MOL0     H 9792   9.081   8.285   4.636 -0.4419 -0.1848 -0.5612
   71MOL0     H 9793   9.141   8.453   4.674  0.6574  1.0864  1.8088
   71MOL0     H 9794   8.728   8.419   4.812  0.5015  0.3908  0.3739
   71MOL0     H 9795   9.420   8.301   5.260  0.0796 -1.3928 -0.7834
   71MOL0     H 9796   9.575   8.297   5.425 -0.2088  0.3289  0.5808
   71MOL0     H 9797   9.524   8.335   5.584 -1.2770 -0.5869  1.3482
   71MOL0     H 9798   9.566   8.165   5.540 -2.5229 -1.3047  0.9232
   72MOL0     O 9799   9.637   6.031   5.159  0.4701  0.3738 -0.3519
   72MOL0     C 9800   9.537   5.999   5.103  0.3015 -0.5851 -0.1724
   72MOL0     O 9801   9.425   6.079   5.095  0.3823 -0.1696 -0.4535
   72MOL0     C 9802   9.418   6.208   5.130 -0.1496 -0.2449 -0.2963
   72MOL0     C 9803   9.373   6.302   5.041 -0.9958  1.1504 -1.2035
   72MOL0     C 9804   9.405   6.438   5.059  0.0718  0.0331  0.6511
   72MOL0     C 9805   9.451   6.488   5.182  0.4743 -1.1456 -0.3030
   72MOL0     O 9806   9.487   6.621   5.192  0.5149 -0.2892  0.0949
   72MOL0     C 9807   9.433   6.686   5.308  0.6374  0.3486 -0.4210
   72MOL0     C 9808   9.343   6.793   5.260  0.5592 -0.2456  0.3140
   72MOL0     C 9809   9.228   6.741   5.185  0.2827 -0.9265 -0.1085
   72MOL0     C 9810   9.131   6.837   5.143 -0.4037  0.1747  0.0009
   72MOL0     C 9811   8.998   6.817   5.201  0.4162 -0.6461 -0.1014
   72MOL0     C 9812   8.894   6.918   5.146 -0.1476 -0.3418  0.1227
   72MOL0     C 9813   8.754   6.890   5.194 -0.7903 -0.2315  0.7421
   72MOL0     C 9814   8.658   6.984   5.140 -0.3841 -0.9366  1.0180
   72MOL0     N 9815   8.642   7.098   5.234 -0.1706  0.1604  0.1463
   72MOL0     C 9816   8.533   7.106   5.317 -0.4264 -0.5058 -0.1476
   72MOL0     C 9817   8.572   7.200   5.411 -0.1188 -0.8894 -0.6559
   72MOL0     C 9818   8.495   7.261   5.527 -0.4124  0.1538 -0.6224
   72MOL0     C 9819   8.524   7.194   5.658 -0.0520 -0.1341 -0.7911
   72MOL0     C 9820   8.481   7.272   5.779  0.2725 -0.3809 -0.5519
   72MOL0     C 9821   8.488   7.195   5.916  0.3154 -0.1815 -0.1488
   72MOL0     O 9822   8.616   7.138   5.935  0.5277  0.2538 -0.0790
   72MOL0     C 9823   8.642   7.044   6.033  0.5777 -0.9464  0.0425
   72MOL0     C 9824   8.535   6.989   6.111  0.1582  0.1690 -0.3579
   72MOL0     C 9825   8.543   6.891   6.209  1.0061  0.0221  0.7472
   72MOL0     C 9826   8.419   6.843   6.281 -1.0900  0.4229  0.9299
   72MOL0     C 9827   8.666   6.845   6.238 -0.3393  0.0504 -0.1391
   72MOL0     C 9828   8.703   6.755   6.352  0.7294  0.6219  0.2413
   72MOL0     O 9829   8.829   6.725   6.361 -0.6990  0.7979 -0.7572
   72MOL0     C 9830   8.874   6.668   6.472  0.6669  1.2997 -0.0708
   72MOL0     C 9831   8.923   6.749   6.578 -0.0561  0.0035 -0.6129
   72MOL0     C 9832   8.959   6.694   6.696 -1.1261  0.2325 -0.6632
   72MOL0     C 9833   8.965   6.553   6.711 -0.2937  0.0268  0.2704
   72MOL0     O 9834   9.021   6.490   6.820 -0.1760 -0.0705  0.0348
   72MOL0     C 9835   9.141   6.540   6.865  0.1048  0.4278 -0.7840
   72MOL0     C 9836   9.257   6.470   6.784 -0.6422  0.6660 -0.3453
   72MOL0     C 9837   9.398   6.511   6.822 -0.5116 -0.1258 -0.4645
   72MOL0     C 9838   9.426   6.659   6.803  0.5528 -0.5738 -0.1081
   72MOL0     C 9839   9.578   6.696   6.784  0.3910 -0.5563 -0.1057
   72MOL0     C 9840   9.601   6.844   6.742 -1.0185  0.5309  0.5056
   72MOL0     C 9841   9.747   6.862   6.732 -0.0914  0.5110  0.3014
   72MOL0     C 9842   9.805   7.004   6.689 -0.1988 -0.8000  0.7369
   72MOL0    Cl 9843   9.811   7.097   6.836  0.1541 -0.0293  0.2113
   72MOL0     C 9844   8.932   6.474   6.605  0.7567  0.1618 -0.0217
   72MOL0     C 9845   8.870   6.528   6.490 -0.0492 -1.0148  0.4258
   72MOL0     O 9846   8.619   6.704   6.422 -0.0701  0.1053 -0.8589
   72MOL0     C 9847   8.785   6.896   6.165  0.0888  1.1884  0.0188
   72MOL0     C 9848   8.766   6.991   6.065 -0.2168  0.4385  1.8586
   72MOL0     N 9849   8.704   7.237   5.381  0.2139  0.6199  0.6981
   72MOL0     N 9850   8.736   7.188   5.268  0.5579  0.0671 -0.4921
   72MOL0     C 9851   9.465   6.394   5.286 -0.2630 -0.1189  0.3659
   72MOL0     C 9852   9.464   6.260   5.257  1.1416  0.3774 -1.2726
   72MOL0     C 9853   9.533   5.852   5.049  0.6513 -0.2967 -0.4870
   72MOL0     C 9854   9.413   5.810   4.996  0.1795 -1.0494 -0.6765
   72MOL0     C 9855   9.391   5.677   4.952  0.3973 -0.3205  0.0286
   72MOL0     C 9856   9.489   5.581   4.958 -0.3921 -0.0602 -0.2019
   72MOL0     O 9857   9.477   5.455   4.900  0.4406  0.3824  0.3046
   72MOL0     C 9858   9.556   5.341   4.920  0.0941 -0.0778 -0.3848
   72MOL0     C 9859   9.473   5.221   4.893  0.1697 -0.9247  0.2123
   72MOL0     C 9860   9.448   5.171   4.751  0.2778  0.7442  0.2814
   72MOL0     C 9861   9.328   5.063   4.740  0.1761 -0.4968 -0.5091
   72MOL0     C 9862   9.310   4.996   4.613 -1.0180  0.9622  0.7448
   72MOL0     C 9863   9.296   4.933   4.505  0.2557 -0.5585 -0.3327
   72MOL0     C 9864   9.615   5.609   5.018 -0.3779  0.4517 -0.0010
   72MOL0     C 9865   9.635   5.747   5.058  0.3679 -0.4738 -0.2892
   72MOL0     C 9866   9.779   5.776   5.100 -0.5232 -0.5409 -0.2703
   72MOL0     H 9867   9.336   6.260   4.948 -0.3924 -1.0854 -0.5072
   72MOL0     H 9868   9.411   6.513   4.980 -5.2853 -2.1983 -2.4727
   72MOL0     H 9869   9.506   6.739   5.370  0.7832 -0.0611 -0.2371
   72MOL0     H 9870   9.382   6.613   5.370  1.5123 -1.4011 -1.6754
   72MOL0     H 9871   9.302   6.838   5.351 -1.7710  0.9334 -1.2522
   72MOL0     H 9872   9.409   6.868   5.215 -0.6816 -0.2629 -1.6084
   72MOL0     H 9873   9.258   6.702   5.088  2.2583  0.4017 -0.1008
   72MOL0     H 9874   9.187   6.651   5.232  3.7393 -1.9375  1.2664
   72MOL0     H 9875   9.163   6.941   5.149  3.1249 -0.8857  2.3875
   72MOL0     H 9876   9.133   6.829   5.034  1.0376  0.7178 -0.0258
   72MOL0     H 9877   8.993   6.830   5.310 -2.3559  1.6905 -0.3956
   72MOL0     H 9878   8.972   6.711   5.189  2.2752 -1.0482 -0.9914
   72MOL0     H 9879   8.932   7.019   5.164 -0.3902 -0.8143  4.0947
   72MOL0     H 9880   8.897   6.907   5.037  3.0425  1.1758 -0.0702
   72MOL0     H 9881   8.741   6.896   5.302 -2.3032  0.0959  0.5516
   72MOL0     H 9882   8.729   6.788   5.164  0.9079 -0.7344  0.8776
   72MOL0     H 9883   8.686   7.017   5.039 -0.1751 -3.3083  0.2393
   72MOL0     H 9884   8.568   6.927   5.115 -1.9306  1.7402  0.0438
   72MOL0     H 9885   8.439   7.052   5.307 -1.5791  1.1507  1.0701
   72MOL0     H 9886   8.391   7.251   5.493 -0.2991  0.6866 -1.1456
   72MOL0     H 9887   8.518   7.366   5.548 -1.1600 -0.1992  2.3827
   72MOL0     H 9888   8.461   7.105   5.645 -3.1560  1.4811  1.8285
   72MOL0     H 9889   8.623   7.156   5.683 -0.0450  0.2330 -0.2678
   72MOL0     H 9890   8.531   7.368   5.796 -2.5821  1.3564 -1.2279
   72MOL0     H 9891   8.374   7.289   5.763  0.0870 -0.5639  0.4240
   72MOL0     H 9892   8.462   7.273   5.988 -0.3787 -0.0530 -0.5285
   72MOL0     H 9893   8.416   7.113   5.911  1.5904 -1.3746  0.4878
   72MOL0     H 9894   8.431   7.015   6.096 -0.1136  0.5348  1.8434
   72MOL0     H 9895   8.434   6.876   6.385  2.5866 -0.4980  0.8049
   72MOL0     H 9896   8.410   6.734   6.274 -1.6388  0.5207  0.0848
   72MOL0     H 9897   8.334   6.898   6.241 -0.4275  1.3345  0.7430
   72MOL0     H 9898   8.927   6.855   6.557 -2.6294  0.3489  0.3533
   72MOL0     H 9899   8.981   6.759   6.781  1.7253 -2.3666  0.7944
   72MOL0     H 9900   9.143   6.649   6.853  0.5955  0.5897  0.5413
   72MOL0     H 9901   9.156   6.511   6.970  0.5572 -3.7522 -1.8397
   72MOL0     H 9902   9.252   6.364   6.813 -0.7571  1.0515  1.1114
   72MOL0     H 9903   9.244   6.486   6.677 -1.1733 -1.6729 -0.7011
   72MOL0     H 9904   9.469   6.456   6.759 -3.7725 -0.8292 -3.8368
   72MOL0     H 9905   9.412   6.487   6.928  1.8715 -2.3615 -1.1942
   72MOL0     H 9906   9.382   6.716   6.886 -3.5311 -2.7426 -0.5023
   72MOL0     H 9907   9.388   6.677   6.702  0.5403 -2.4140 -0.4643
   72MOL0     H 9908   9.616   6.662   6.880 -0.5164 -2.2815 -0.3230
   72MOL0     H 9909   9.616   6.628   6.707 -1.2582 -0.6470 -0.8937
   72MOL0     H 9910   9.553   6.914   6.810 -1.8162  2.9655 -2.3507
   72MOL0     H 9911   9.554   6.868   6.646 -1.3033 -0.5013  0.3703
   72MOL0     H 9912   9.792   6.798   6.655 -0.3109  0.8709 -0.1358
   72MOL0     H 9913   9.789   6.825   6.825  0.2827 -0.5684 -0.2815
   72MOL0     H 9914   9.732   7.043   6.617 -0.4959 -2.9094 -0.1731
   72MOL0     H 9915   9.900   7.000   6.636  0.3276  0.9631  1.4914
   72MOL0     H 9916   8.921   6.366   6.608 -1.6184  0.2206  5.3221
   72MOL0     H 9917   8.825   6.462   6.416 -2.2928 -1.5037  2.1221
   72MOL0     H 9918   8.883   6.850   6.172  0.3804  1.6860 -0.7119
   72MOL0     H 9919   8.852   7.032   6.015 -0.0017  0.7119  2.4503
   72MOL0     H 9920   9.497   6.425   5.385  0.6647  0.9613 -0.2426
   72MOL0     H 9921   9.495   6.198   5.341  0.6344  1.4704 -0.2361
   72MOL0     H 9922   9.325   5.874   4.994 -0.8114 -2.3825 -1.9046
   72MOL0     H 9923   9.302   5.647   4.898  0.0724  0.0743  0.3352
   72MOL0     H 9924   9.639   5.365   4.854  1.0458  1.0010  1.1251
   72MOL0     H 9925   9.593   5.332   5.023  1.4346 -1.2525 -0.9323
   72MOL0     H 9926   9.374   5.241   4.936 -0.0914 -1.0288 -0.3266
   72MOL0     H 9927   9.521   5.140   4.948  2.1150  1.9111  3.0212
   72MOL0     H 9928   9.420   5.259   4.693 -5.1475  0.7522  2.3031
   72MOL0     H 9929   9.540   5.120   4.721 -1.6480 -2.1683 -1.2097
   72MOL0     H 9930   9.235   5.116   4.763  1.1137  2.1182 -2.3267
   72MOL0     H 9931   9.331   4.987   4.819  0.2174 -2.2971 -2.1565
   72MOL0     H 9932   9.279   4.884   4.411  1.1236  1.8009 -1.8221
   72MOL0     H 9933   9.690   5.530   5.018  1.4496  2.0605  1.4559
   72MOL0     H 9934   9.818   5.868   5.054  0.9706 -2.1920 -2.5331
   72MOL0     H 9935   9.795   5.781   5.208 -1.5834 -2.4144  0.0141
   72MOL0     H 9936   9.836   5.692   5.061  0.9144 -0.3269  1.2762
   73MOL0     O 9937  10.747   4.496   9.048 -0.9984 -0.5323  0.5460
   73MOL0     C 9938  10.799   4.388   9.011  0.0938  0.3084  0.4813
   73MOL0     O 9939  10.802   4.336   8.887  0.0547 -1.3109  0.4393
   73MOL0     C 9940  10.739   4.407   8.792  0.1475 -1.0564 -0.0128
   73MOL0     C 9941  10.810   4.488   8.705  0.0542 -0.2522 -0.2130
   73MOL0     C 9942  10.751   4.549   8.596 -0.6550 -0.4146 -0.7042
   73MOL0     C 9943  10.622   4.538   8.567  0.3207  1.2772  0.1167
   73MOL0     O 9944  10.585   4.601   8.450 -0.1491 -0.4947  0.6484
   73MOL0     C 9945  10.450   4.604   8.405  0.2275 -0.0218 -0.2634
   73MOL0     C 9946  10.432   4.486   8.306  0.6929  0.5565 -0.6055
   73MOL0     C 9947  10.360   4.537   8.178 -0.4726 -0.7443 -1.3334
   73MOL0     C 9948  10.450   4.628   8.087 -0.1238 -0.9122 -0.0145
   73MOL0     C 9949  10.380   4.699   7.963 -0.4002  0.2361 -0.9498
   73MOL0     C 9950  10.272   4.794   8.024 -0.3536 -0.1216  0.3052
   73MOL0     C 9951  10.222   4.903   7.929 -0.0770  0.6752  0.7511
   73MOL0     C 9952  10.075   4.955   7.948 -0.9679  0.8195  0.5255
   73MOL0     N 9953  10.045   4.986   8.085 -0.0040 -0.2657  0.8493
   73MOL0     C 9954  10.108   5.080   8.163  0.1310 -0.1242 -0.9382
   73MOL0     C 9955  10.037   5.066   8.280 -1.5576 -0.8209  0.1892
   73MOL0     C 9956  10.068   5.150   8.399 -0.3582  0.2399  0.0469
   73MOL0     C 9957  10.218   5.157   8.446 -0.9583 -0.4350  0.0691
   73MOL0     C 9958  10.271   5.019   8.490  0.7020  0.2279 -0.8684
   73MOL0     C 9959  10.423   5.016   8.454 -0.0210 -0.0428 -0.1644
   73MOL0     O 9960  10.474   5.077   8.563  0.1249 -0.7366  0.0998
   73MOL0     C 9961  10.608   5.060   8.573  0.0948 -0.0346  0.8970
   73MOL0     C 9962  10.700   5.124   8.491 -0.7030  0.2753 -0.2251
   73MOL0     C 9963  10.836   5.108   8.518 -0.5901  0.0516  0.7014
   73MOL0     C 9964  10.935   5.176   8.422 -1.4119  0.1846  0.3503
   73MOL0     C 9965  10.880   5.031   8.625 -0.1287  0.2802  0.4752
   73MOL0     C 9966  11.021   5.021   8.659 -0.0988  0.5361 -0.1222
   73MOL0     O 9967  11.069   4.893   8.678  0.1664  0.9108  0.9330
   73MOL0     C 9968  11.188   4.878   8.733 -0.0387  0.2246  0.1874
   73MOL0     C 9969  11.258   4.764   8.681  0.7135 -0.0706  0.4496
   73MOL0     C 9970  11.383   4.726   8.727 -0.0813 -0.1077 -0.0628
   73MOL0     C 9971  11.448   4.804   8.823 -0.0456 -0.0264  0.2368
   73MOL0     O 9972  11.570   4.775   8.881 -0.0956 -0.0854  0.1635
   73MOL0     C 9973  11.642   4.675   8.813  0.9828 -0.4251  0.1981
   73MOL0     C 9974  11.761   4.633   8.903 -0.0709  0.8449 -0.2519
   73MOL0     C 9975  11.880   4.601   8.812  0.2039 -0.3857  0.3054
   73MOL0     C 9976  11.980   4.502   8.879 -0.5241  0.0914 -1.3683
   73MOL0     C 9977  12.117   4.505   8.805  0.4097  1.0371 -0.3017
   73MOL0     C 9978  12.213   4.400   8.877  0.4132  0.2933 -0.0389
   73MOL0     C 9979  12.337   4.393   8.789 -0.3149  0.6268 -0.4449
   73MOL0     C 9980  12.430   4.513   8.793  0.4194 -0.9416 -1.2361
   73MOL0    Cl 9981  12.484   4.546   8.964 -0.2791  0.5335 -0.2696
   73MOL0     C 9982  11.380   4.914   8.878  0.2284  0.5406 -0.3509
   73MOL0     C 9983  11.252   4.952   8.826 -0.1416  0.6660  0.0828
   73MOL0     O 9984  11.088   5.124   8.654 -0.3495  0.1148 -0.6383
   73MOL0     C 9985  10.783   4.948   8.696 -0.1626 -0.2587 -0.6623
   73MOL0     C 9986  10.647   4.965   8.662  0.5773  0.3818  0.4802
   73MOL0     N 9987   9.938   4.983   8.264  1.0762 -0.0607 -0.6241
   73MOL0     N 9988   9.942   4.934   8.149  1.2648  1.7773  0.3203
   73MOL0     C 9989  10.535   4.450   8.651  0.3916  0.2499  0.2605
   73MOL0     C 9990  10.605   4.377   8.756 -0.0259  0.7095 -0.7408
   73MOL0     C 9991  10.868   4.323   9.127  0.4559  0.3775  0.2869
   73MOL0     C 9992  10.934   4.411   9.216 -0.8089 -0.0681 -0.3927
   73MOL0     C 9993  11.009   4.365   9.317  0.9556 -0.0064 -0.9906
   73MOL0     C 9994  11.016   4.219   9.334  0.1267 -0.9938  0.0792
   73MOL0     O 9995  11.084   4.168   9.430 -0.5282  0.0102 -0.8483
   73MOL0     C 9996  11.061   4.048   9.502 -0.3473  0.0635  0.6682
   73MOL0     C 9997  11.165   4.025   9.601 -0.3987 -0.0509 -0.4406
   73MOL0     C 9998  11.130   4.102   9.725  0.0394 -0.0388  0.4863
   73MOL0     C 9999  11.218   4.063   9.837 -0.6376  0.1253  0.6061
   73MOL0     C10000  11.220   3.919   9.890 -0.9890 -0.7452 -0.6770
   73MOL0     C10001  11.192   3.804   9.921  1.0364  0.7687 -0.0502
   73MOL0     C10002  10.955   4.130   9.243  0.3207  0.2628 -0.1181
   73MOL0     C10003  10.882   4.179   9.142  0.7485  0.3754 -0.6788
   73MOL0     C10004  10.816   4.079   9.050  0.3601 -0.1397 -0.6547
   73MOL0     H10005  10.918   4.500   8.712  0.1722 -1.0272 -0.6028
   73MOL0     H10006  10.820   4.605   8.533  2.3464 -0.8145  1.9280
   73MOL0     H10007  10.440   4.706   8.367 -2.6591 -0.6135 -1.3889
   73MOL0     H10008  10.381   4.604   8.490  0.5271  0.0852 -0.0161
   73MOL0     H10009  10.527   4.438   8.282  1.2910  0.0088  2.4521
   73MOL0     H10010  10.363   4.415   8.354  0.8380 -0.0685 -1.3074
   73MOL0     H10011  10.332   4.451   8.116 -1.2999 -1.6328  0.2077
   73MOL0     H10012  10.263   4.577   8.209 -0.4408 -3.1124  2.4973
   73MOL0     H10013  10.500   4.711   8.137 -0.3947 -0.8697  0.1874
   73MOL0     H10014  10.540   4.572   8.057  0.3587  0.9674 -2.3274
   73MOL0     H10015  10.338   4.629   7.891  1.3438 -1.8756 -0.0332
   73MOL0     H10016  10.455   4.766   7.918 -0.8504  2.2129  1.0770
   73MOL0     H10017  10.184   4.737   8.057 -0.9792  0.2660 -0.6279
   73MOL0     H10018  10.312   4.857   8.104  0.7510 -0.1841 -0.1865
   73MOL0     H10019  10.234   4.860   7.829  1.1403  1.2410  0.6279
   73MOL0     H10020  10.289   4.990   7.936 -1.4248  2.0638 -1.7941
   73MOL0     H10021  10.072   5.047   7.888  0.9982  1.6097  1.5395
   73MOL0     H10022   9.995   4.889   7.914 -0.9760  2.0780 -2.1781
   73MOL0     H10023  10.193   5.146   8.147 -0.6731  1.8181  1.9907
   73MOL0     H10024  10.005   5.116   8.481 -2.3233  0.6558 -1.2077
   73MOL0     H10025  10.034   5.250   8.372  3.1606  1.8925  1.1400
   73MOL0     H10026  10.276   5.209   8.369 -0.7506  0.0213  0.5338
   73MOL0     H10027  10.228   5.230   8.526  1.0943  1.2106 -1.5581
   73MOL0     H10028  10.260   5.012   8.599 -0.5145 -1.3365 -1.0594
   73MOL0     H10029  10.205   4.942   8.451 -0.8268  0.1950  1.5940
   73MOL0     H10030  10.452   4.911   8.467  0.7723  0.4349  2.6077
   73MOL0     H10031  10.451   5.055   8.356  1.5678 -1.5090 -0.3544
   73MOL0     H10032  10.671   5.185   8.406 -3.2303 -0.5713 -0.0593
   73MOL0     H10033  11.024   5.113   8.413 -1.6232 -0.2717  1.2829
   73MOL0     H10034  10.965   5.271   8.467 -3.2382  0.3215  1.3529
   73MOL0     H10035  10.892   5.189   8.322 -0.5002  2.4251  0.2061
   73MOL0     H10036  11.212   4.696   8.611  3.3964 -1.1029 -0.4091
   73MOL0     H10037  11.423   4.637   8.679  0.0487 -1.8000  2.9348
   73MOL0     H10038  11.592   4.580   8.791 -0.0422  0.5941 -2.2511
   73MOL0     H10039  11.678   4.715   8.718 -4.9838  1.3400 -1.7580
   73MOL0     H10040  11.786   4.709   8.978  0.9132 -1.2770  1.6737
   73MOL0     H10041  11.740   4.544   8.963  4.0888  0.2316  0.5908
   73MOL0     H10042  11.928   4.697   8.791  0.0348 -0.8073 -2.4118
   73MOL0     H10043  11.850   4.558   8.716 -0.0550 -2.7231  1.3514
   73MOL0     H10044  11.938   4.401   8.884 -2.9611  1.0924  0.8045
   73MOL0     H10045  11.986   4.537   8.983 -1.4877  2.8299 -2.1465
   73MOL0     H10046  12.099   4.477   8.701  1.9623 -2.9552  0.2934
   73MOL0     H10047  12.168   4.601   8.813  2.2378  0.2393 -1.6173
   73MOL0     H10048  12.189   4.293   8.876 -0.9203  0.5867 -0.0568
   73MOL0     H10049  12.225   4.430   8.982 -3.7269  2.5354 -0.0108
   73MOL0     H10050  12.313   4.377   8.683 -4.4002  1.2767  0.1952
   73MOL0     H10051  12.389   4.307   8.832 -0.5648 -1.2636 -3.6350
   73MOL0     H10052  12.378   4.604   8.761 -2.3138 -1.9709 -0.0091
   73MOL0     H10053  12.522   4.496   8.737 -0.4865 -1.5409 -2.5733
   73MOL0     H10054  11.438   4.981   8.941  0.2789  0.3316 -0.1741
   73MOL0     H10055  11.195   5.036   8.864 -1.3199  0.8503 -1.9725
   73MOL0     H10056  10.804   4.870   8.769  1.1741  0.4824 -0.2268
   73MOL0     H10057  10.581   4.886   8.698 -0.2232  0.4164 -0.8386
   73MOL0     H10058  10.433   4.424   8.624  0.9055 -0.1183 -1.4017
   73MOL0     H10059  10.549   4.299   8.807 -2.2203  0.8626 -2.7346
   73MOL0     H10060  10.921   4.519   9.211 -1.7820 -0.2328 -2.8899
   73MOL0     H10061  11.061   4.432   9.385 -1.0145 -1.2381  1.9233
   73MOL0     H10062  10.961   4.064   9.545  0.3353  0.3848  2.1962
   73MOL0     H10063  11.073   3.958   9.442 -0.1605  1.7850 -2.0673
   73MOL0     H10064  11.266   4.049   9.565 -0.6297  2.2646  0.2769
   73MOL0     H10065  11.164   3.920   9.632  0.2027 -0.3201 -1.2799
   73MOL0     H10066  11.145   4.208   9.703  2.0675 -1.0718 -4.4464
   73MOL0     H10067  11.025   4.077   9.746 -0.8396 -0.7219 -3.7753
   73MOL0     H10068  11.200   4.126   9.924  0.0982 -0.4631  1.1990
   73MOL0     H10069  11.324   4.087   9.820  0.6265 -3.2184  2.7536
   73MOL0     H10070  11.200   3.707   9.966  5.5006  1.7508  1.8598
   73MOL0     H10071  10.972   4.024   9.259  3.1820  0.6750  0.1109
   73MOL0     H10072  10.883   4.043   8.970  1.4677  0.0696  0.1579
   73MOL0     H10073  10.781   3.990   9.104  1.3954  0.6509  1.4118
   73MOL0     H10074  10.725   4.131   9.020 -0.2995 -0.1870  1.1983
   74MOL0     O10075   3.492   3.215   1.285  0.1383 -0.0458  0.4248
   74MOL0     C10076   3.576   3.264   1.359 -0.3341  0.4263  1.2618
   74MOL0     O10077   3.706   3.224   1.363  0.2147 -0.0825 -0.3211
   74MOL0     C10078   3.761   3.121   1.279 -0.0778  0.0443  0.1243
   74MOL0     C10079   3.696   3.062   1.167 -0.3745 -0.4942  0.4276
   74MOL0     C10080   3.749   2.974   1.082 -1.0945  0.1894  0.6183
   74MOL0     C10081   3.880   2.929   1.103 -0.7246  0.2503 -0.3506
   74MOL0     O10082   3.940   2.840   1.022  0.2825  0.0933 -0.7763
   74MOL0     C10083   3.864   2.717   0.996  0.1993  0.4404  0.1376
   74MOL0     C10084   3.796   2.720   0.855 -0.0885 -0.1387 -0.5437
   74MOL0     C10085   3.886   2.758   0.736  0.8580  0.2148 -0.4893
   74MOL0     C10086   4.025   2.682   0.703  0.6085  0.4708  0.6363
   74MOL0     C10087   4.097   2.744   0.589  1.0369  0.3264  0.7540
   74MOL0     C10088   4.015   2.757   0.453 -0.8419 -0.4543  0.1122
   74MOL0     C10089   3.970   2.614   0.396 -0.3855  0.3765  0.8567
   74MOL0     C10090   3.965   2.640   0.245  0.3921 -0.2197  0.0907
   74MOL0     N10091   4.094   2.647   0.181  1.1172 -0.3288 -0.6195
   74MOL0     C10092   4.207   2.569   0.192  0.1746  0.5814 -0.8521
   74MOL0     C10093   4.303   2.630   0.113 -0.1663  0.3715 -0.1620
   74MOL0     C10094   4.448   2.591   0.098 -0.6001  1.0467  0.6479
   74MOL0     C10095   4.459   2.456   0.163 -1.3386 -0.5815  0.1821
   74MOL0     C10096   4.595   2.395   0.139  1.0134  0.6161 -0.4733
   74MOL0     C10097   4.578   2.238   0.139  0.0317 -0.8141 -0.8238
   74MOL0     O10098   4.712   2.192   0.135  0.0523 -0.0252 -0.2307
   74MOL0     C10099   4.736   2.070   0.079  0.5744  0.2335  0.2151
   74MOL0     C10100   4.645   1.960   0.101 -0.1602  0.7244 -0.2086
   74MOL0     C10101   4.665   1.830   0.031  0.5350 -0.0159 -0.6185
   74MOL0     C10102   4.574   1.703   0.053  0.4140 -0.0143 -0.1653
   74MOL0     C10103   4.779   1.815  -0.060 -0.3616  0.5190  0.2478
   74MOL0     C10104   4.808   1.702  -0.142  0.8377  1.1133  0.1022
   74MOL0     O10105   4.866   1.739  -0.266  0.2429  0.3811 -0.8295
   74MOL0     C10106   4.981   1.684  -0.308  0.0717 -0.4054 -0.5013
   74MOL0     C10107   5.082   1.626  -0.228 -0.4815  0.5183 -1.0816
   74MOL0     C10108   5.194   1.565  -0.283 -0.0623  0.1908 -0.5878
   74MOL0     C10109   5.207   1.551  -0.422  0.1572 -0.4601  0.2799
   74MOL0     O10110   5.295   1.482  -0.501 -0.4012 -0.2757  0.0638
   74MOL0     C10111   5.411   1.428  -0.432 -0.3245  0.9838  0.8550
   74MOL0     C10112   5.528   1.410  -0.528 -0.6758  0.1943 -0.5728
   74MOL0     C10113   5.519   1.287  -0.622 -0.1407  0.5938  0.5210
   74MOL0     C10114   5.531   1.145  -0.557  0.1864 -0.6263 -0.0600
   74MOL0     C10115   5.479   1.031  -0.647  1.1044  0.8839 -0.2426
   74MOL0     C10116   5.511   0.902  -0.561 -0.4658 -1.3084 -1.0951
   74MOL0     C10117   5.464   0.764  -0.614 -0.2160 -0.0376 -0.5760
   74MOL0     C10118   5.309   0.747  -0.640 -0.5764 -0.0541 -0.0088
   74MOL0    Cl10119   5.206   0.747  -0.508  0.2180  0.6565 -0.6077
   74MOL0     C10120   5.106   1.615  -0.501 -0.0641  0.4537 -0.3596
   74MOL0     C10121   4.999   1.675  -0.446 -0.0323  0.4509 -0.0867
   74MOL0     O10122   4.796   1.591  -0.094  0.5950 -0.1841  0.6674
   74MOL0     C10123   4.865   1.926  -0.063 -0.0092  0.2881 -1.1093
   74MOL0     C10124   4.847   2.047  -0.003 -0.1032 -0.2500  0.4414
   74MOL0     N10125   4.249   2.748   0.072  0.1321 -0.0438  0.7418
   74MOL0     N10126   4.128   2.746   0.101  0.4797 -0.3261  0.0566
   74MOL0     C10127   3.952   2.980   1.216  0.4221  0.8721  0.2188
   74MOL0     C10128   3.891   3.067   1.303 -1.4502 -0.4154  0.3625
   74MOL0     C10129   3.527   3.373   1.442  0.4075  1.1201  0.6359
   74MOL0     C10130   3.407   3.433   1.410  0.4594 -0.1602  0.4689
   74MOL0     C10131   3.359   3.543   1.484 -0.4342 -0.0321  0.2489
   74MOL0     C10132   3.441   3.596   1.589 -1.2535 -0.2815  0.2478
   74MOL0     O10133   3.408   3.704   1.674  0.2868  0.9487  0.4883
   74MOL0     C10134   3.279   3.761   1.663 -0.2951 -0.3376 -0.0678
   74MOL0     C10135   3.266   3.877   1.756 -0.4202  0.2240  0.3522
   74MOL0     C10136   3.113   3.905   1.782 -0.2898  0.0956  0.1219
   74MOL0     C10137   3.103   4.038   1.867  0.1900 -0.2551 -0.7834
   74MOL0     C10138   3.142   4.016   2.008  0.0601 -0.4504 -0.2301
   74MOL0     C10139   3.171   4.001   2.121  1.1840 -0.3826 -0.3118
   74MOL0     C10140   3.551   3.524   1.631  0.0595 -0.5056 -0.1115
   74MOL0     C10141   3.603   3.422   1.548 -1.3092  0.1639  0.2480
   74MOL0     C10142   3.751   3.392   1.584 -0.6648  0.0950 -0.1342
   74MOL0     H10143   3.605   3.096   1.119  0.9757  0.5148 -1.5237
   74MOL0     H10144   3.681   2.952   1.000  2.0950 -0.0243 -2.1765
   74MOL0     H10145   3.796   2.681   1.074  0.0794 -0.6809 -0.4501
   74MOL0     H10146   3.931   2.630   0.987 -1.9797 -1.1834 -1.9974
   74MOL0     H10147   3.753   2.622   0.835  0.1851  0.3538 -4.3365
   74MOL0     H10148   3.710   2.786   0.870 -0.5885 -1.0296  0.7185
   74MOL0     H10149   3.818   2.733   0.654  2.2284  0.2443 -1.6678
   74MOL0     H10150   3.903   2.866   0.743  0.9064  0.2308 -0.8365
   74MOL0     H10151   4.094   2.678   0.788  2.1440  1.5632 -0.5127
   74MOL0     H10152   3.997   2.577   0.688 -1.5591  1.5154 -5.9907
   74MOL0     H10153   4.184   2.680   0.571 -0.0362 -0.8933 -0.2814
   74MOL0     H10154   4.124   2.843   0.629 -0.6248  1.2537 -0.2877
   74MOL0     H10155   3.928   2.821   0.467 -0.6268  0.1839 -1.3590
   74MOL0     H10156   4.081   2.813   0.386 -0.7560  0.0036  0.5720
   74MOL0     H10157   3.876   2.580   0.439  0.8782 -1.2908  2.4614
   74MOL0     H10158   4.043   2.538   0.428 -2.7478 -2.1689  0.5386
   74MOL0     H10159   3.914   2.552   0.204  1.3637 -0.3538 -0.8743
   74MOL0     H10160   3.902   2.727   0.227 -0.4837 -0.4567  1.8383
   74MOL0     H10161   4.222   2.484   0.257  0.0029  2.7846  2.2644
   74MOL0     H10162   4.521   2.663   0.137  0.2722 -1.1202  3.2611
   74MOL0     H10163   4.479   2.593  -0.007  1.5379 -0.4999  1.1861
   74MOL0     H10164   4.434   2.454   0.269  0.2680  0.7568  0.6227
   74MOL0     H10165   4.391   2.382   0.119 -0.3878 -1.2242 -0.2511
   74MOL0     H10166   4.619   2.418   0.035  1.1937  0.2958 -0.5030
   74MOL0     H10167   4.665   2.444   0.208 -0.4558  0.9969  0.7855
   74MOL0     H10168   4.515   2.196   0.218 -0.3790 -0.5014 -0.9866
   74MOL0     H10169   4.518   2.202   0.055  0.2710 -2.1590 -0.4447
   74MOL0     H10170   4.568   1.977   0.176 -0.3312 -0.7564 -0.0164
   74MOL0     H10171   4.513   1.675  -0.034 -1.1928  1.3307  0.4879
   74MOL0     H10172   4.498   1.720   0.130  0.5418  0.3087 -0.1098
   74MOL0     H10173   4.640   1.628   0.097 -0.0238 -0.3678 -0.0986
   74MOL0     H10174   5.059   1.627  -0.122 -1.5574  2.4030 -1.2862
   74MOL0     H10175   5.267   1.510  -0.225  2.0031 -1.0707 -4.0767
   74MOL0     H10176   5.441   1.492  -0.348  3.7887  1.4163 -0.7206
   74MOL0     H10177   5.381   1.326  -0.404 -1.1294  0.6268 -1.1842
   74MOL0     H10178   5.533   1.487  -0.605 -0.6575 -1.3174 -2.1535
   74MOL0     H10179   5.623   1.399  -0.475 -1.8585 -0.6004  1.5073
   74MOL0     H10180   5.593   1.281  -0.702 -3.2854 -0.5088 -2.5173
   74MOL0     H10181   5.415   1.274  -0.653 -0.0711 -0.2009  0.6187
   74MOL0     H10182   5.467   1.146  -0.468  0.4240  0.2810  0.1120
   74MOL0     H10183   5.628   1.125  -0.509 -0.7363 -0.1894  2.0856
   74MOL0     H10184   5.371   1.044  -0.656  1.0182 -0.7586 -2.1679
   74MOL0     H10185   5.525   1.032  -0.746  0.9961  0.3270 -0.3052
   74MOL0     H10186   5.468   0.919  -0.461  0.1710  1.5084 -1.2324
   74MOL0     H10187   5.619   0.900  -0.549 -0.6881 -4.2514  2.0193
   74MOL0     H10188   5.497   0.691  -0.540 -1.1710 -1.2616 -1.3170
   74MOL0     H10189   5.511   0.736  -0.709 -0.2579 -1.8491 -0.1095
   74MOL0     H10190   5.307   0.650  -0.692 -0.5727 -0.9884  1.6739
   74MOL0     H10191   5.278   0.827  -0.707 -0.6468  0.2066  0.3362
   74MOL0     H10192   5.102   1.617  -0.610 -1.6502  3.2073 -0.3366
   74MOL0     H10193   4.929   1.705  -0.523  0.9509  0.2820 -1.0571
   74MOL0     H10194   4.951   1.920  -0.129  1.4851  0.4296  0.7567
   74MOL0     H10195   4.922   2.122  -0.024 -0.5349 -0.1368 -0.7709
   74MOL0     H10196   4.047   2.927   1.220  0.2205  0.0816 -2.9371
   74MOL0     H10197   3.942   3.101   1.393 -0.2784 -2.8075  0.6880
   74MOL0     H10198   3.344   3.394   1.331  1.1818  3.3424 -2.1032
   74MOL0     H10199   3.262   3.583   1.458  1.2237  5.0537  0.7434
   74MOL0     H10200   3.263   3.795   1.561  2.7054 -0.9936 -0.8599
   74MOL0     H10201   3.199   3.690   1.687  2.3436 -4.2575 -1.8460
   74MOL0     H10202   3.312   3.959   1.702 -0.7409  0.0445 -0.1983
   74MOL0     H10203   3.320   3.871   1.851  0.2450  2.4950  0.1592
   74MOL0     H10204   3.063   3.926   1.687 -2.6689  0.3066  1.3361
   74MOL0     H10205   3.057   3.820   1.824 -2.4693  0.7862 -1.2350
   74MOL0     H10206   3.012   4.097   1.856  0.8349  0.2900 -4.1256
   74MOL0     H10207   3.177   4.103   1.819  0.0188 -0.2146 -0.9920
   74MOL0     H10208   3.193   4.002   2.226  2.4638 -0.7838 -0.5497
   74MOL0     H10209   3.605   3.584   1.703 -1.3170  1.7920 -0.8707
   74MOL0     H10210   3.784   3.472   1.651 -4.8405  0.8039  1.3566
   74MOL0     H10211   3.753   3.291   1.625  0.4250 -2.4996 -5.6579
   74MOL0     H10212   3.817   3.397   1.496 -0.6613  0.4748 -0.1114
   75MOL0     O10213   4.840   1.140   4.470 -0.3637 -0.2955 -0.0785
   75MOL0     C10214   4.950   1.153   4.420 -0.5960  0.2872  0.0484
   75MOL0     O10215   5.058   1.153   4.502 -1.0509 -0.1031  0.8138
   75MOL0     C10216   5.043   1.198   4.630  0.2972 -0.3190 -0.0657
   75MOL0     C10217   4.973   1.311   4.647  0.5736  0.3038 -0.5611
   75MOL0     C10218   4.975   1.376   4.770 -0.0284  0.3482  0.5358
   75MOL0     C10219   5.054   1.324   4.875 -0.9438 -0.8480 -0.4530
   75MOL0     O10220   5.069   1.400   4.986  0.7593  0.2924 -0.3206
   75MOL0     C10221   4.999   1.357   5.109 -0.8733  1.2707  0.6165
   75MOL0     C10222   5.005   1.482   5.203 -0.4752  0.2784  0.7127
   75MOL0     C10223   4.939   1.608   5.143  0.4042 -0.0849  0.1394
   75MOL0     C10224   4.795   1.586   5.083 -1.4174  0.5396  0.1068
   75MOL0     C10225   4.769   1.721   5.023 -1.0044 -1.0941 -0.1967
   75MOL0     C10226   4.625   1.727   4.972 -0.8419 -0.2142 -0.4233
   75MOL0     C10227   4.576   1.876   4.943 -0.3904  0.6246 -0.7068
   75MOL0     C10228   4.535   1.953   5.070  0.1888 -1.1662 -0.5017
   75MOL0     N10229   4.394   1.923   5.115  0.5328  0.0475 -0.9040
   75MOL0     C10230   4.322   2.011   5.192 -0.1969 -0.2559 -0.1697
   75MOL0     C10231   4.216   1.950   5.233  0.2849 -0.4910  0.1141
   75MOL0     C10232   4.099   2.019   5.283  0.3138 -0.6692  0.7531
   75MOL0     C10233   3.984   2.015   5.193  0.1362 -0.2973  0.0309
   75MOL0     C10234   3.860   2.077   5.276  0.7718  0.1329  0.4593
   75MOL0     C10235   3.742   2.114   5.185 -0.0468  0.3107 -0.4412
   75MOL0     O10236   3.795   2.209   5.090 -0.3357 -0.3004  0.0380
   75MOL0     C10237   3.779   2.161   4.960 -0.1434  0.1225  0.5804
   75MOL0     C10238   3.762   2.256   4.869  0.2175 -0.1513  0.0340
   75MOL0     C10239   3.752   2.240   4.728  0.2686 -0.3328  0.3300
   75MOL0     C10240   3.724   2.361   4.633  0.2859 -0.3422 -0.2685
   75MOL0     C10241   3.765   2.108   4.677  0.3583  0.5414  0.7645
   75MOL0     C10242   3.769   2.076   4.532  0.3620  0.3345  0.7321
   75MOL0     O10243   3.732   1.951   4.503 -0.1625  0.0877 -0.7574
   75MOL0     C10244   3.746   1.908   4.376 -0.3602 -1.1862 -0.2304
   75MOL0     C10245   3.877   1.892   4.320 -0.4761  0.1791  0.8171
   75MOL0     C10246   3.883   1.843   4.184  0.5351  0.4985  0.5560
   75MOL0     C10247   3.770   1.806   4.112 -1.9361  0.6484  0.0205
   75MOL0     O10248   3.790   1.719   4.007  0.7881 -0.0856  0.6277
   75MOL0     C10249   3.669   1.678   3.950 -0.6782  0.0002  0.8691
   75MOL0     C10250   3.733   1.583   3.850  0.6154  0.0873  0.5508
   75MOL0     C10251   3.615   1.497   3.785 -0.7717  0.1310  0.2043
   75MOL0     C10252   3.680   1.411   3.673  1.0106  0.5812  0.5037
   75MOL0     C10253   3.568   1.336   3.595  1.1033 -0.1786 -0.6655
   75MOL0     C10254   3.608   1.311   3.451  0.1274 -1.0257  0.0329
   75MOL0     C10255   3.497   1.241   3.368  0.2451 -0.4193 -0.5093
   75MOL0     C10256   3.521   1.272   3.227 -0.8711  1.0771 -0.1576
   75MOL0    Cl10257   3.651   1.173   3.171  0.1339  0.1512  0.5540
   75MOL0     C10258   3.642   1.840   4.177 -0.3227  0.1787 -0.3640
   75MOL0     C10259   3.636   1.882   4.303  0.3359 -1.3954  1.0067
   75MOL0     O10260   3.813   2.151   4.447 -0.7214 -0.7406 -0.9222
   75MOL0     C10261   3.773   2.009   4.773  0.5408 -0.2109 -0.7192
   75MOL0     C10262   3.784   2.032   4.907 -0.4222  0.0551  1.0112
   75MOL0     N10263   4.217   1.818   5.190 -1.2744 -0.5303 -0.0113
   75MOL0     N10264   4.323   1.806   5.119 -0.6360  0.8667 -0.4847
   75MOL0     C10265   5.123   1.199   4.856  0.1173 -0.5331  0.0123
   75MOL0     C10266   5.111   1.141   4.737 -0.4668 -0.6327  0.0301
   75MOL0     C10267   4.968   1.140   4.273 -1.0778  0.8332 -0.3775
   75MOL0     C10268   5.087   1.197   4.219  1.4514  0.6894  0.2398
   75MOL0     C10269   5.114   1.167   4.080  0.0294 -0.1468 -0.2632
   75MOL0     C10270   5.029   1.083   4.006  0.7303 -0.6393 -0.1289
   75MOL0     O10271   5.055   1.054   3.880 -0.4558 -0.2841  0.2182
   75MOL0     C10272   4.985   1.120   3.773 -0.9042 -0.5394 -0.3978
   75MOL0     C10273   4.985   1.008   3.659 -0.2977 -0.9124  0.2876
   75MOL0     C10274   4.883   0.899   3.698 -0.0157 -0.3695  0.4305
   75MOL0     C10275   4.876   0.789   3.592  0.1716 -0.5173 -0.2342
   75MOL0     C10276   4.767   0.700   3.628  0.1682 -0.2605  0.3082
   75MOL0     C10277   4.672   0.622   3.629  0.6935 -0.3317 -0.2350
   75MOL0     C10278   4.905   1.042   4.062 -0.8303 -0.5186  0.4625
   75MOL0     C10279   4.873   1.069   4.193 -0.6825  0.3772 -0.1770
   75MOL0     C10280   4.742   0.997   4.245 -0.5151 -0.7800 -0.6089
   75MOL0     H10281   4.914   1.367   4.575  0.5059  0.2416 -0.5536
   75MOL0     H10282   4.901   1.455   4.779 -3.8671 -2.5597 -2.2657
   75MOL0     H10283   5.046   1.268   5.151 -0.5790  0.9437 -0.3665
   75MOL0     H10284   4.893   1.342   5.083 -1.1358  2.8327  0.7192
   75MOL0     H10285   4.940   1.463   5.289 -0.7543 -1.6175  0.1296
   75MOL0     H10286   5.110   1.498   5.230 -1.6629  2.7881  4.5920
   75MOL0     H10287   4.929   1.690   5.214 -2.5163  2.1571 -2.5111
   75MOL0     H10288   5.000   1.650   5.063  0.7775 -1.2150 -0.1887
   75MOL0     H10289   4.801   1.503   5.012 -3.2070  0.6217 -0.1745
   75MOL0     H10290   4.716   1.567   5.155 -2.3346  1.6057 -0.5782
   75MOL0     H10291   4.831   1.727   4.933  0.8784 -2.6074  0.9235
   75MOL0     H10292   4.784   1.803   5.094 -3.2999 -2.1084  1.5846
   75MOL0     H10293   4.613   1.660   4.885  0.7965  1.0570 -1.6922
   75MOL0     H10294   4.563   1.682   5.050  0.0315  0.8998  0.9524
   75MOL0     H10295   4.505   1.879   4.860 -0.6422  0.4308 -0.5005
   75MOL0     H10296   4.660   1.934   4.903  0.4241  0.1348  0.2438
   75MOL0     H10297   4.591   1.916   5.156  0.0477  0.8862  0.5209
   75MOL0     H10298   4.557   2.060   5.075 -2.1790 -0.7007  2.3698
   75MOL0     H10299   4.339   2.118   5.192 -0.6755 -0.1773 -0.1456
   75MOL0     H10300   4.112   2.123   5.313  0.2388 -0.9818  1.9047
   75MOL0     H10301   4.097   1.962   5.377  0.2479 -0.5958  0.7959
   75MOL0     H10302   3.997   2.083   5.107 -1.5428  2.7580  2.0058
   75MOL0     H10303   3.965   1.912   5.163  3.2198 -2.5786  4.7957
   75MOL0     H10304   3.838   2.008   5.358  2.6508 -1.3333 -0.1845
   75MOL0     H10305   3.896   2.172   5.316  1.0570  0.1862  0.0810
   75MOL0     H10306   3.686   2.029   5.143 -0.8000  1.4144 -1.7950
   75MOL0     H10307   3.666   2.163   5.247 -0.6392 -0.3127 -0.6573
   75MOL0     H10308   3.746   2.357   4.906  0.1162  1.1666 -3.2159
   75MOL0     H10309   3.737   2.457   4.683  1.0663  0.9623 -2.8133
   75MOL0     H10310   3.619   2.356   4.602  1.1271 -0.5465 -3.4337
   75MOL0     H10311   3.794   2.359   4.549  0.4153  0.2140 -0.1763
   75MOL0     H10312   3.962   1.907   4.386  0.8072 -3.2433  0.1577
   75MOL0     H10313   3.983   1.823   4.146  1.7549  0.6050  3.4586
   75MOL0     H10314   3.610   1.626   4.026  0.2965 -1.4556  0.6714
   75MOL0     H10315   3.615   1.763   3.907 -1.7439 -2.3426 -2.9197
   75MOL0     H10316   3.785   1.620   3.761 -1.8700 -3.3382 -2.6549
   75MOL0     H10317   3.801   1.515   3.901  1.0449 -1.4785 -1.9092
   75MOL0     H10318   3.534   1.554   3.739  0.5610  2.9484  1.0524
   75MOL0     H10319   3.578   1.431   3.864 -2.2955 -2.1756 -2.2566
   75MOL0     H10320   3.758   1.340   3.701  0.1098  0.0679  1.8225
   75MOL0     H10321   3.727   1.479   3.601  1.5418 -1.6777 -1.3911
   75MOL0     H10322   3.547   1.241   3.645 -0.9496 -0.2548 -1.5844
   75MOL0     H10323   3.476   1.394   3.594  1.7320  0.8693 -2.1316
   75MOL0     H10324   3.702   1.256   3.462  0.2342 -0.3267  3.5294
   75MOL0     H10325   3.639   1.405   3.404  1.5605 -1.8298 -0.7012
   75MOL0     H10326   3.395   1.265   3.400 -0.2359 -1.5250 -1.1620
   75MOL0     H10327   3.511   1.133   3.374 -3.9086 -1.2583 -2.6817
   75MOL0     H10328   3.545   1.378   3.212 -0.7763  1.4565  2.3143
   75MOL0     H10329   3.431   1.248   3.171  0.5154  1.7928 -2.8785
   75MOL0     H10330   3.543   1.802   4.155 -1.1996  1.2731  1.4417
   75MOL0     H10331   3.541   1.872   4.356  1.2879  0.4232  3.2067
   75MOL0     H10332   3.774   1.904   4.745 -1.1992 -1.7693  4.0491
   75MOL0     H10333   3.800   1.952   4.979  1.0314 -0.0826  0.5759
   75MOL0     H10334   5.198   1.151   4.920 -0.5070 -1.9818 -0.3006
   75MOL0     H10335   5.155   1.043   4.726  1.2156  0.1926 -0.9929
   75MOL0     H10336   5.164   1.247   4.278  1.4054  1.0678 -0.0194
   75MOL0     H10337   5.183   1.234   4.031 -0.9212  1.5998  0.6985
   75MOL0     H10338   4.883   1.149   3.797 -0.6529 -0.7048  0.8981
   75MOL0     H10339   5.048   1.207   3.753  2.1605 -1.2379  4.5233
   75MOL0     H10340   5.087   0.971   3.653  1.9187  3.5356  4.5329
   75MOL0     H10341   4.949   1.060   3.569 -2.4159 -0.1348  1.5117
   75MOL0     H10342   4.894   0.846   3.793 -3.1782 -0.6028  0.7673
   75MOL0     H10343   4.784   0.946   3.702 -0.2162 -0.6630 -0.8017
   75MOL0     H10344   4.968   0.729   3.596 -1.3074 -2.8785  0.5367
   75MOL0     H10345   4.859   0.835   3.495  1.8227 -0.0661 -0.3413
   75MOL0     H10346   4.588   0.557   3.615 -2.8005  3.5572  0.4872
   75MOL0     H10347   4.833   0.980   4.009  1.5633 -3.8413  0.7787
   75MOL0     H10348   4.663   1.068   4.271 -1.0622 -1.7701  0.5052
   75MOL0     H10349   4.714   0.933   4.161  0.1711 -1.1951 -0.5239
   75MOL0     H10350   4.761   0.939   4.335  1.3487  1.5647  0.6337
   76MOL0     O10351   3.593   5.648   2.041 -0.6612  0.6898  0.0370
   76MOL0     C10352   3.549   5.666   2.152  0.1018  1.1053 -0.1598
   76MOL0     O10353   3.540   5.571   2.249  0.0985 -0.0083  0.3984
   76MOL0     C10354   3.610   5.459   2.232 -0.3477  1.1106 -0.0497
   76MOL0     C10355   3.553   5.340   2.203  0.1320  0.0118 -0.1640
   76MOL0     C10356   3.625   5.223   2.212  0.0175 -0.3381  0.7441
   76MOL0     C10357   3.765   5.224   2.223 -0.2074  0.0491  0.1286
   76MOL0     O10358   3.846   5.122   2.201 -0.7254 -0.1105 -0.0658
   76MOL0     C10359   3.784   4.999   2.181  0.2935  0.1219  0.1368
   76MOL0     C10360   3.900   4.898   2.194  0.2555 -0.2303  0.7557
   76MOL0     C10361   3.974   4.886   2.323  0.4478 -0.3819 -0.1405
   76MOL0     C10362   3.891   4.852   2.444  0.8434  0.0865  0.2884
   76MOL0     C10363   3.980   4.840   2.557  0.0188 -0.4620 -0.4631
   76MOL0     C10364   3.910   4.766   2.666 -0.3921  0.2539 -0.4332
   76MOL0     C10365   4.021   4.745   2.770 -0.4615  0.1377  0.4201
   76MOL0     C10366   4.069   4.867   2.850  0.4950  0.4214  0.5675
   76MOL0     N10367   4.165   4.829   2.958 -0.5270 -0.8106 -0.5761
   76MOL0     C10368   4.131   4.826   3.087  0.3028  0.2531 -0.2685
   76MOL0     C10369   4.243   4.780   3.157 -0.0296 -0.5364  0.3556
   76MOL0     C10370   4.235   4.751   3.302  0.1207  0.2131  0.3559
   76MOL0     C10371   4.146   4.624   3.310  1.0749 -0.3403  0.2367
   76MOL0     C10372   4.124   4.582   3.459 -0.0679  0.6980  0.1446
   76MOL0     C10373   4.270   4.531   3.514  1.1322 -0.8425  0.2411
   76MOL0     O10374   4.336   4.649   3.584 -0.2933 -0.6260  0.7624
   76MOL0     C10375   4.416   4.638   3.694  0.0445  0.3785 -0.7240
   76MOL0     C10376   4.396   4.730   3.803 -1.6052  0.1286 -0.5451
   76MOL0     C10377   4.465   4.714   3.930  0.6261 -0.2397  0.2451
   76MOL0     C10378   4.427   4.811   4.045 -0.1230  1.3890 -0.1895
   76MOL0     C10379   4.546   4.604   3.952 -0.1899  0.6761  0.3051
   76MOL0     C10380   4.615   4.571   4.079 -0.9938  0.5368 -0.2161
   76MOL0     O10381   4.635   4.434   4.109  0.4755  0.4646 -0.0508
   76MOL0     C10382   4.725   4.405   4.206  0.2553 -0.3586 -1.5318
   76MOL0     C10383   4.692   4.416   4.343  0.7003 -0.3514 -0.4516
   76MOL0     C10384   4.778   4.365   4.436 -0.2372 -0.3415  0.2744
   76MOL0     C10385   4.898   4.305   4.404 -0.2391 -1.3396  0.2141
   76MOL0     O10386   4.967   4.272   4.518 -0.9702  0.4841  0.5572
   76MOL0     C10387   5.102   4.214   4.515  0.1387 -0.5191  0.1303
   76MOL0     C10388   5.116   4.067   4.492 -0.1959  0.7651  0.1215
   76MOL0     C10389   5.238   4.011   4.543 -1.7066 -0.1050  0.0555
   76MOL0     C10390   5.367   4.101   4.514  0.0451  0.3933 -0.0615
   76MOL0     C10391   5.492   4.012   4.484  0.5647  0.9793 -0.6516
   76MOL0     C10392   5.549   3.938   4.606 -0.2598  1.1869 -1.0371
   76MOL0     C10393   5.620   4.040   4.709 -0.6772 -0.2478 -0.2441
   76MOL0     C10394   5.689   3.948   4.812 -0.1804 -0.2697 -0.3144
   76MOL0    Cl10395   5.735   4.032   4.962 -0.7663  0.0729 -0.4271
   76MOL0     C10396   4.943   4.310   4.272 -0.3099 -1.1766 -1.3691
   76MOL0     C10397   4.852   4.357   4.176 -1.3705 -0.1225  0.4511
   76MOL0     O10398   4.663   4.669   4.139 -0.0827  0.0203 -0.3354
   76MOL0     C10399   4.563   4.512   3.843 -0.5164 -0.1595 -0.6735
   76MOL0     C10400   4.500   4.531   3.717 -0.0556  0.0736  0.5824
   76MOL0     N10401   4.348   4.767   3.065 -0.3025 -0.2645  0.2908
   76MOL0     N10402   4.301   4.814   2.952 -0.0240 -0.1930 -0.5247
   76MOL0     C10403   3.827   5.346   2.250 -1.1685  0.5256 -1.1627
   76MOL0     C10404   3.749   5.462   2.255  0.3900  0.4729 -0.1783
   76MOL0     C10405   3.501   5.799   2.196  0.9287 -0.1711  0.1258
   76MOL0     C10406   3.390   5.800   2.291  0.3393  0.5443 -0.4924
   76MOL0     C10407   3.328   5.920   2.317 -0.6409 -0.8282  1.1988
   76MOL0     C10408   3.367   6.050   2.262 -0.1601 -0.5065 -0.2792
   76MOL0     O10409   3.309   6.172   2.294 -0.5720 -0.1765  0.2398
   76MOL0     C10410   3.190   6.185   2.357 -0.2818 -0.0280  0.4950
   76MOL0     C10411   3.078   6.149   2.259 -0.2279 -0.5802  0.0668
   76MOL0     C10412   2.945   6.219   2.321 -0.0204 -0.3005  0.2804
   76MOL0     C10413   2.830   6.143   2.254  1.0242 -0.7145  0.2510
   76MOL0     C10414   2.702   6.218   2.274 -0.3704  0.5209  0.4393
   76MOL0     C10415   2.613   6.300   2.290  0.4194 -0.2871 -0.3603
   76MOL0     C10416   3.486   6.042   2.197 -0.1635 -0.2395  0.1452
   76MOL0     C10417   3.552   5.926   2.151 -0.3281 -0.6718  0.1854
   76MOL0     C10418   3.672   5.939   2.072 -0.9135  0.4924 -0.0923
   76MOL0     H10419   3.449   5.342   2.169  0.5027 -0.2805 -1.3553
   76MOL0     H10420   3.564   5.141   2.176 -1.9270  1.1953  0.3563
   76MOL0     H10421   3.733   4.985   2.085  0.5206 -5.5451  0.5549
   76MOL0     H10422   3.701   4.981   2.250  1.9139 -0.4361  2.0216
   76MOL0     H10423   3.875   4.804   2.144 -0.4727 -0.1010  0.8595
   76MOL0     H10424   3.964   4.928   2.111 -0.0518  2.3292  1.3774
   76MOL0     H10425   4.044   4.803   2.314  1.3033 -0.0388  2.5205
   76MOL0     H10426   4.030   4.980   2.329 -0.0974 -0.0661  0.1004
   76MOL0     H10427   3.815   4.930   2.459 -1.2403 -1.6287 -0.7764
   76MOL0     H10428   3.836   4.758   2.427 -2.9268  2.2113 -0.4166
   76MOL0     H10429   4.013   4.935   2.599 -0.1631 -2.1508  4.1158
   76MOL0     H10430   4.067   4.780   2.525  0.7945 -1.8439  3.6324
   76MOL0     H10431   3.837   4.829   2.717  0.8199  0.2714  1.3378
   76MOL0     H10432   3.880   4.664   2.638  0.7354 -0.4621  0.8707
   76MOL0     H10433   4.104   4.690   2.724 -1.3847 -2.2165  1.3831
   76MOL0     H10434   3.977   4.675   2.842  2.1137 -1.3648  0.6527
   76MOL0     H10435   4.113   4.946   2.789 -0.5751  1.4089  1.0441
   76MOL0     H10436   3.976   4.894   2.901 -0.4681 -1.7000  0.0571
   76MOL0     H10437   4.029   4.844   3.121 -0.5539 -0.1715 -2.4377
   76MOL0     H10438   4.194   4.838   3.353  1.5132  0.3959  1.2017
   76MOL0     H10439   4.334   4.734   3.344  0.8022  0.4446 -1.0953
   76MOL0     H10440   4.054   4.646   3.253 -0.7764 -1.3432  2.6630
   76MOL0     H10441   4.180   4.535   3.256 -2.5171 -1.2191 -0.9046
   76MOL0     H10442   4.080   4.668   3.509  0.0278  2.0091 -1.9118
   76MOL0     H10443   4.054   4.497   3.462  0.9861 -0.1682  1.1811
   76MOL0     H10444   4.266   4.439   3.574  2.1027 -1.4832 -0.6402
   76MOL0     H10445   4.337   4.488   3.439  1.1605  1.4790 -1.1394
   76MOL0     H10446   4.324   4.811   3.796  1.9402  3.9584  2.0808
   76MOL0     H10447   4.363   4.891   4.008 -3.4531  0.0493  2.1682
   76MOL0     H10448   4.517   4.863   4.080 -0.2179  3.3488 -2.6352
   76MOL0     H10449   4.371   4.767   4.129 -2.6361  0.6103 -2.1479
   76MOL0     H10450   4.603   4.466   4.380  1.1003 -0.5314  0.8040
   76MOL0     H10451   4.741   4.359   4.538  0.2456  1.1238  0.5578
   76MOL0     H10452   5.143   4.287   4.445 -2.1615  1.2530  0.5011
   76MOL0     H10453   5.155   4.244   4.606 -1.5328 -0.2058  1.0446
   76MOL0     H10454   5.032   4.019   4.544  0.2834 -1.8039 -1.3072
   76MOL0     H10455   5.111   4.054   4.384  1.0157 -1.0078  0.2484
   76MOL0     H10456   5.235   3.907   4.510 -1.4207  0.2832 -1.2266
   76MOL0     H10457   5.233   3.998   4.652 -0.4041  0.3097  0.1844
   76MOL0     H10458   5.399   4.165   4.596  0.0091 -3.0019  2.8903
   76MOL0     H10459   5.348   4.166   4.428  2.2045  1.1703 -0.0240
   76MOL0     H10460   5.467   3.930   4.416  1.8964 -2.1670  2.3239
   76MOL0     H10461   5.567   4.082   4.447  0.5537  0.9990 -0.6358
   76MOL0     H10462   5.619   3.856   4.584 -2.3068 -0.6684 -0.9925
   76MOL0     H10463   5.468   3.885   4.657  0.6672 -0.4906 -1.2299
   76MOL0     H10464   5.548   4.106   4.760 -0.1145  1.2129 -1.2635
   76MOL0     H10465   5.701   4.104   4.673 -1.9018  2.2924  1.2222
   76MOL0     H10466   5.777   3.896   4.772 -0.4251 -0.9347  0.0026
   76MOL0     H10467   5.612   3.877   4.841  0.2313 -0.8205 -0.5572
   76MOL0     H10468   5.044   4.290   4.238 -0.0213  2.4178 -3.1494
   76MOL0     H10469   4.886   4.348   4.074 -3.9399  6.0960 -1.4301
   76MOL0     H10470   4.627   4.426   3.855  0.5467  0.8576  1.7477
   76MOL0     H10471   4.523   4.469   3.631  0.4120  1.8358 -0.6153
   76MOL0     H10472   3.931   5.351   2.280 -1.2539 -0.5494 -0.6302
   76MOL0     H10473   3.789   5.558   2.283  2.5457  0.0678 -1.6021
   76MOL0     H10474   3.352   5.709   2.336 -0.1233  0.3033 -1.3473
   76MOL0     H10475   3.243   5.906   2.383 -2.0841  2.5641  0.2654
   76MOL0     H10476   3.181   6.141   2.457  1.0030  1.4432  1.2987
   76MOL0     H10477   3.183   6.293   2.369  0.5269  0.3424 -1.8934
   76MOL0     H10478   3.075   6.040   2.251  3.6908 -0.8698  0.6483
   76MOL0     H10479   3.080   6.198   2.161 -2.4870 -1.7491 -0.6305
   76MOL0     H10480   2.944   6.193   2.428 -1.3473 -2.5965 -0.2277
   76MOL0     H10481   2.927   6.327   2.318  1.4565  0.2003  3.9079
   76MOL0     H10482   2.820   6.049   2.309  4.1314 -0.6669  1.0486
   76MOL0     H10483   2.838   6.122   2.147 -1.4403  2.4401 -0.7072
   76MOL0     H10484   2.539   6.375   2.311 -1.0589 -1.2573 -1.8053
   76MOL0     H10485   3.545   6.131   2.176  1.3128 -1.1305  0.3758
   76MOL0     H10486   3.679   5.859   1.998 -0.9922  2.1561 -1.9770
   76MOL0     H10487   3.695   6.028   2.013  2.5489  2.7550  4.0283
   76MOL0     H10488   3.757   5.921   2.139 -1.2896  0.0743  0.2813
   77MOL0     O10489  10.753   4.616   5.448  0.1736 -0.2645  0.6230
   77MOL0     C10490  10.645   4.565   5.413  0.3919 -0.5075  0.1547
   77MOL0     O10491  10.634   4.449   5.339 -0.4280 -0.0984 -0.0586
   77MOL0     C10492  10.744   4.377   5.296  1.6957  0.2787  0.0808
   77MOL0     C10493  10.839   4.336   5.384  0.2216 -0.0022  0.2646
   77MOL0     C10494  10.948   4.248   5.354 -0.2357 -0.4164 -0.7703
   77MOL0     C10495  10.943   4.192   5.222 -0.5523  1.5823  0.7849
   77MOL0     O10496  11.047   4.101   5.187 -0.0155 -0.0901  0.7675
   77MOL0     C10497  11.148   4.153   5.103 -0.2062 -0.2270 -0.0627
   77MOL0     C10498  11.239   4.231   5.192 -0.1048 -0.2574  0.9562
   77MOL0     C10499  11.382   4.249   5.132 -0.0998 -0.3017 -0.5551
   77MOL0     C10500  11.387   4.356   5.027  1.1631 -0.0265  0.8700
   77MOL0     C10501  11.528   4.372   4.963 -0.2573  0.2468 -0.8436
   77MOL0     C10502  11.650   4.400   5.059  0.2740  0.0788 -0.4955
   77MOL0     C10503  11.778   4.398   4.993 -0.4105  0.8749  0.3248
   77MOL0     C10504  11.890   4.480   5.059  0.5995 -1.1684  0.3399
   77MOL0     N10505  11.998   4.522   4.964 -0.8487 -0.5725 -0.0816
   77MOL0     C10506  12.051   4.647   4.963  0.7982 -0.0328 -0.2594
   77MOL0     C10507  12.153   4.649   4.873  0.1832 -1.7621 -0.3881
   77MOL0     C10508  12.262   4.763   4.863 -0.4989  0.0665  0.6563
   77MOL0     C10509  12.329   4.801   4.996  0.0823 -0.7847  0.8868
   77MOL0     C10510  12.231   4.889   5.077 -0.6087 -0.1421  0.2863
   77MOL0     C10511  12.302   5.020   5.121 -0.1833 -0.8387 -0.7461
   77MOL0     O10512  12.322   5.117   5.020  0.3734 -0.1492  0.8573
   77MOL0     C10513  12.373   5.243   5.036  0.6884 -0.3673 -0.9673
   77MOL0     C10514  12.339   5.333   5.139  0.2361  1.1559  0.4151
   77MOL0     C10515  12.394   5.462   5.153  0.1765  1.0876 -0.6769
   77MOL0     C10516  12.354   5.543   5.282 -0.3159 -1.0129  0.1346
   77MOL0     C10517  12.491   5.507   5.060  0.6400 -0.0129 -0.3242
   77MOL0     C10518  12.535   5.646   5.066  0.5711 -0.6666 -0.5965
   77MOL0     O10519  12.671   5.657   5.061  0.4367 -0.7746 -0.1127
   77MOL0     C10520  12.709   5.784   5.069 -0.8353  0.8585  0.7156
   77MOL0     C10521  12.745   5.860   4.960 -0.6450 -1.1771  0.1065
   77MOL0     C10522  12.778   5.993   4.975  0.1107 -0.3897  0.1509
   77MOL0     C10523  12.776   6.040   5.105  0.6815 -0.1295 -1.4692
   77MOL0     O10524  12.783   6.172   5.127 -0.1673  0.3446  0.4037
   77MOL0     C10525  12.898   6.241   5.090 -0.8230 -0.7974  0.0418
   77MOL0     C10526  12.888   6.381   5.155  0.3243  0.3011 -0.3131
   77MOL0     C10527  13.010   6.459   5.141  0.0342 -1.4502  0.0929
   77MOL0     C10528  13.048   6.505   4.996 -0.1399 -0.0702 -0.2930
   77MOL0     C10529  13.145   6.625   5.023 -0.5221  0.0292  0.2392
   77MOL0     C10530  13.059   6.757   5.028 -0.1253  0.5020  0.6924
   77MOL0     C10531  13.144   6.883   5.036  0.2563  0.1914 -1.7388
   77MOL0     C10532  13.060   7.005   5.011  0.2583 -0.0020  0.4803
   77MOL0    Cl10533  12.903   7.014   5.097 -0.1026  0.2161 -0.1085
   77MOL0     C10534  12.746   5.963   5.219  0.5900  0.5449  0.4693
   77MOL0     C10535  12.715   5.831   5.201  0.2757 -0.0072 -0.1278
   77MOL0     O10536  12.457   5.741   5.071  0.2100  0.1136 -0.5681
   77MOL0     C10537  12.536   5.410   4.972  0.3146 -0.0978 -0.1549
   77MOL0     C10538  12.476   5.281   4.959  0.4753  0.3823  0.0735
   77MOL0     N10539  12.167   4.525   4.828 -0.8499  0.0884 -0.5050
   77MOL0     N10540  12.080   4.445   4.886 -0.0449 -0.7210  0.1195
   77MOL0     C10541  10.845   4.233   5.126 -0.8080  0.4768 -0.3897
   77MOL0     C10542  10.749   4.333   5.166 -0.4087 -0.2843  1.0679
   77MOL0     C10543  10.514   4.643   5.447  0.8925  0.2346 -0.6778
   77MOL0     C10544  10.530   4.751   5.539 -0.1095  0.7293 -0.3149
   77MOL0     C10545  10.419   4.824   5.576 -0.3173  0.6820 -0.4571
   77MOL0     C10546  10.291   4.792   5.527  0.7323 -0.4716 -0.3628
   77MOL0     O10547  10.172   4.847   5.582  0.4270 -0.0936  1.0191
   77MOL0     C10548  10.186   4.935   5.695  0.2457  0.6072 -0.0168
   77MOL0     C10549  10.038   4.969   5.728  0.0783  0.7121  0.4547
   77MOL0     C10550  10.010   5.124   5.749  1.0801 -0.3085 -0.2272
   77MOL0     C10551   9.871   5.154   5.810  0.1814  1.3690  0.6995
   77MOL0     C10552   9.879   5.287   5.853 -0.5597  0.3771  0.0116
   77MOL0     C10553   9.878   5.402   5.888  0.7133 -0.9296  0.8065
   77MOL0     C10554  10.278   4.698   5.431 -0.0816 -0.1617 -0.4690
   77MOL0     C10555  10.386   4.619   5.387 -0.5010 -0.8145 -0.3213
   77MOL0     C10556  10.344   4.506   5.290  0.6200 -0.2011 -0.5888
   77MOL0     H10557  10.831   4.380   5.483 -0.5757  2.2111 -0.7062
   77MOL0     H10558  11.030   4.230   5.421  0.2340  2.1820 -0.5272
   77MOL0     H10559  11.103   4.216   5.026  1.5640 -1.6330 -2.3909
   77MOL0     H10560  11.203   4.069   5.059 -0.3687  0.1511 -1.0246
   77MOL0     H10561  11.192   4.325   5.220 -0.8046 -0.4451  0.4158
   77MOL0     H10562  11.256   4.181   5.288 -0.1093  1.4311  1.8742
   77MOL0     H10563  11.443   4.271   5.221 -0.5744 -3.4646  0.7012
   77MOL0     H10564  11.407   4.153   5.086 -0.4813  1.0149 -3.7433
   77MOL0     H10565  11.311   4.330   4.952  0.6551  0.1225  1.3230
   77MOL0     H10566  11.354   4.452   5.068  1.1246  0.2421  0.2319
   77MOL0     H10567  11.525   4.456   4.892 -3.7031  0.3218 -0.7713
   77MOL0     H10568  11.543   4.281   4.904 -1.5584 -1.6291  1.5401
   77MOL0     H10569  11.636   4.494   5.114  4.4084 -0.9214  2.8818
   77MOL0     H10570  11.657   4.328   5.141  0.3775  1.2909  0.6060
   77MOL0     H10571  11.775   4.414   4.885  2.4574 -2.3425 -0.3966
   77MOL0     H10572  11.825   4.301   5.008  0.9880  1.7974  2.5531
   77MOL0     H10573  11.832   4.567   5.087  1.8634 -0.3799  0.6056
   77MOL0     H10574  11.939   4.445   5.151  0.7540 -3.5537 -0.5731
   77MOL0     H10575  12.032   4.723   5.039  1.7018 -1.8680  1.9029
   77MOL0     H10576  12.226   4.857   4.820  4.9254  1.8389 -0.8057
   77MOL0     H10577  12.344   4.729   4.799  0.2117  1.5778  0.7305
   77MOL0     H10578  12.374   4.717   5.050  0.1168 -1.9141 -0.8237
   77MOL0     H10579  12.420   4.852   4.963 -1.5199  0.9250 -1.2668
   77MOL0     H10580  12.146   4.917   5.015 -0.2761  0.8759  0.2691
   77MOL0     H10581  12.193   4.831   5.161 -0.7138  0.3622  0.5908
   77MOL0     H10582  12.234   5.066   5.193 -1.3934  0.1863 -2.4830
   77MOL0     H10583  12.399   4.997   5.165  0.8677  1.1150 -1.9232
   77MOL0     H10584  12.263   5.301   5.210  0.1268  1.9887  0.6874
   77MOL0     H10585  12.426   5.512   5.358 -0.9530  0.8776  1.5810
   77MOL0     H10586  12.257   5.501   5.312  0.0047 -0.0282  2.8064
   77MOL0     H10587  12.344   5.651   5.270 -0.8391 -1.2601 -2.2412
   77MOL0     H10588  12.758   5.815   4.863  1.5212 -0.6494  0.0987
   77MOL0     H10589  12.806   6.068   4.902  1.5533 -1.1218 -0.0865
   77MOL0     H10590  12.982   6.184   5.130 -0.5697 -0.7873 -0.4661
   77MOL0     H10591  12.908   6.252   4.982  1.4155  2.9432  0.4427
   77MOL0     H10592  12.806   6.436   5.108 -0.1074 -1.1848 -1.3545
   77MOL0     H10593  12.867   6.364   5.261 -2.2388 -0.5382 -0.8749
   77MOL0     H10594  13.089   6.409   5.198  2.4740  2.4249  0.5427
   77MOL0     H10595  12.985   6.550   5.197  2.2693 -0.3764 -0.5465
   77MOL0     H10596  12.961   6.540   4.940  0.9369  1.2891 -1.1953
   77MOL0     H10597  13.105   6.425   4.947  0.0432 -0.6940  0.9045
   77MOL0     H10598  13.211   6.618   5.110  1.3766 -0.2020 -1.1633
   77MOL0     H10599  13.212   6.634   4.937 -0.5066  0.8429  0.3204
   77MOL0     H10600  12.987   6.756   5.110  0.2842  2.1543  1.1052
   77MOL0     H10601  13.001   6.747   4.936 -1.2475 -3.0510  1.6147
   77MOL0     H10602  13.221   6.863   4.962 -0.7416 -2.4160 -2.1617
   77MOL0     H10603  13.186   6.893   5.137 -2.6963  2.1669 -0.5531
   77MOL0     H10604  13.037   7.006   4.905 -2.2046  3.1425  0.9089
   77MOL0     H10605  13.123   7.094   5.023 -0.1961  0.5371 -0.9759
   77MOL0     H10606  12.726   6.008   5.315  2.8067 -1.7287  2.1560
   77MOL0     H10607  12.708   5.754   5.277  1.0780 -1.4534 -1.4662
   77MOL0     H10608  12.631   5.403   4.921  1.3655 -4.2922  1.8929
   77MOL0     H10609  12.506   5.198   4.896  2.3457  0.2234  1.0983
   77MOL0     H10610  10.835   4.173   5.036  0.1397  0.5506 -0.5477
   77MOL0     H10611  10.676   4.387   5.107  2.5337  2.0132 -0.7020
   77MOL0     H10612  10.627   4.764   5.585  0.9585 -2.8545 -1.2087
   77MOL0     H10613  10.441   4.897   5.653  0.7979 -0.9305  0.8025
   77MOL0     H10614  10.248   4.905   5.780  1.9278  1.6074 -0.8472
   77MOL0     H10615  10.232   5.030   5.667  0.1038  1.0963  1.3324
   77MOL0     H10616  10.007   4.909   5.814 -0.3693  0.5849  0.2095
   77MOL0     H10617   9.976   4.929   5.647 -0.0654 -1.6019  1.6315
   77MOL0     H10618  10.089   5.167   5.811  1.9180  1.9646 -2.6936
   77MOL0     H10619  10.012   5.180   5.656  2.1419 -2.3575 -1.5084
   77MOL0     H10620   9.856   5.083   5.892  0.4172  2.0582  1.3557
   77MOL0     H10621   9.802   5.146   5.726  3.9898 -1.1389 -2.5970
   77MOL0     H10622   9.868   5.496   5.939 -2.1792 -0.8686  0.3272
   77MOL0     H10623  10.180   4.661   5.403 -1.0345  0.5301  1.7531
   77MOL0     H10624  10.368   4.404   5.322  0.9280  0.2775  0.7906
   77MOL0     H10625  10.237   4.508   5.268  1.1622  1.9810 -3.6316
   77MOL0     H10626  10.398   4.514   5.195 -2.1903  3.6021 -2.1388
   78MOL0     O10627  10.169   0.999   6.711  0.3829  0.6553 -1.4719
   78MOL0     C10628  10.189   0.990   6.593 -0.1111 -1.2280  0.8846
   78MOL0     O10629  10.095   0.937   6.503 -0.1539  1.1299 -0.2763
   78MOL0     C10630   9.980   0.904   6.554  0.8968  0.0335 -0.0314
   78MOL0     C10631   9.957   0.774   6.603  0.2188 -0.3774 -0.1287
   78MOL0     C10632   9.829   0.736   6.631  0.2251 -0.6249 -1.2985
   78MOL0     C10633   9.731   0.828   6.637  1.2748 -0.8173 -0.4076
   78MOL0     O10634   9.614   0.779   6.698 -0.3843 -0.3088  0.3279
   78MOL0     C10635   9.494   0.847   6.715  0.1275  0.3236  1.0313
   78MOL0     C10636   9.419   0.780   6.830  0.6192  0.0408  0.2309
   78MOL0     C10637   9.402   0.631   6.809  0.0626 -0.4836 -0.9605
   78MOL0     C10638   9.311   0.576   6.922  0.1556 -0.0507 -0.2079
   78MOL0     C10639   9.291   0.429   6.904  0.3191 -0.4063 -0.2477
   78MOL0     C10640   9.204   0.374   7.013 -0.4138 -0.2394  0.6664
   78MOL0     C10641   9.162   0.227   6.976 -0.4047 -0.2231 -1.0329
   78MOL0     C10642   9.075   0.207   6.838 -0.2724 -0.1770 -0.7697
   78MOL0     N10643   8.979   0.310   6.821 -0.3642  0.0652  0.2306
   78MOL0     C10644   8.856   0.302   6.871  0.8817 -0.0480  0.1736
   78MOL0     C10645   8.795   0.418   6.852  0.1195  0.0185 -0.6666
   78MOL0     C10646   8.660   0.456   6.897  0.4641 -0.2669  1.4673
   78MOL0     C10647   8.568   0.343   6.918  1.1828 -0.3089  0.2821
   78MOL0     C10648   8.519   0.256   6.788  0.5603  0.0037  1.0387
   78MOL0     C10649   8.390   0.184   6.806 -0.7689  0.8165  0.7749
   78MOL0     O10650   8.293   0.289   6.814  0.0225 -0.8074 -0.3506
   78MOL0     C10651   8.165   0.263   6.843 -0.2379  0.6441 -0.5916
   78MOL0     C10652   8.116   0.132   6.848  0.7404  0.1987 -1.5655
   78MOL0     C10653   7.980   0.102   6.868  1.3605 -1.3125 -0.1032
   78MOL0     C10654   7.939  -0.036   6.840  1.1456 -0.1663  0.2877
   78MOL0     C10655   7.889   0.218   6.894  0.1301  1.1741 -0.8721
   78MOL0     C10656   7.744   0.211   6.906 -0.4455  0.6789  0.1506
   78MOL0     O10657   7.685   0.317   6.964  0.4979 -0.5551 -0.1935
   78MOL0     C10658   7.556   0.316   6.978  0.5515 -0.1652  0.4050
   78MOL0     C10659   7.511   0.252   7.100 -0.5303 -0.0712  0.8869
   78MOL0     C10660   7.372   0.239   7.120 -0.5298 -0.1012 -0.3149
   78MOL0     C10661   7.278   0.289   7.027  0.2414  1.0144 -0.8252
   78MOL0     O10662   7.142   0.301   7.058  0.2884 -0.1699 -0.0564
   78MOL0     C10663   7.047   0.253   6.967  0.9245  1.0983  1.2693
   78MOL0     C10664   6.911   0.230   7.039 -0.3317  0.1718 -0.0703
   78MOL0     C10665   6.878   0.354   7.126  0.0809  0.3456 -0.4779
   78MOL0     C10666   6.745   0.340   7.185  0.6552 -0.2051  0.9250
   78MOL0     C10667   6.699   0.465   7.241 -0.1172 -0.1384 -0.2377
   78MOL0     C10668   6.640   0.566   7.152 -0.9796  1.0678  0.9313
   78MOL0     C10669   6.549   0.522   7.032  1.2657  0.2948 -0.1859
   78MOL0     C10670   6.427   0.439   7.075  0.2457 -0.2525 -1.4911
   78MOL0    Cl10671   6.315   0.528   7.178 -0.3419  0.0052 -0.4098
   78MOL0     C10672   7.335   0.344   6.903  0.4934 -0.5553 -1.5782
   78MOL0     C10673   7.467   0.352   6.881  0.1447  0.0392 -0.5259
   78MOL0     O10674   7.689   0.112   6.855  0.1998 -0.1035 -0.0318
   78MOL0     C10675   7.950   0.346   6.906  1.4079 -0.2167  0.5192
   78MOL0     C10676   8.081   0.375   6.880 -0.8458 -0.1018  0.3105
   78MOL0     N10677   8.871   0.494   6.772 -0.2992 -0.7462  0.8327
   78MOL0     N10678   8.984   0.424   6.750  0.0702 -0.0857  0.3988
   78MOL0     C10679   9.747   0.963   6.600  0.0200  0.1448 -0.0720
   78MOL0     C10680   9.872   1.002   6.556 -0.5720  0.1181  0.6497
   78MOL0     C10681  10.312   1.048   6.534  0.8143 -0.5960 -0.4640
   78MOL0     C10682  10.309   1.068   6.396 -0.0262  0.2249 -0.2909
   78MOL0     C10683  10.419   1.107   6.325 -0.3948  0.2118 -0.6263
   78MOL0     C10684  10.537   1.154   6.389  0.8612 -0.5521 -0.4440
   78MOL0     O10685  10.635   1.224   6.331 -0.5082  0.1526  0.0622
   78MOL0     C10686  10.674   1.198   6.193 -0.1889  0.2331  0.2044
   78MOL0     C10687  10.783   1.284   6.138 -0.0700 -0.1797 -0.1127
   78MOL0     C10688  10.874   1.348   6.243  0.3428  0.5255 -0.2534
   78MOL0     C10689  10.943   1.227   6.318 -0.0155 -0.7398 -0.6646
   78MOL0     C10690  11.046   1.273   6.414  0.6349 -0.3108  0.6304
   78MOL0     C10691  11.127   1.300   6.498 -0.0016 -0.1717  0.7825
   78MOL0     C10692  10.534   1.143   6.530 -0.4917  0.4797 -0.3971
   78MOL0     C10693  10.432   1.078   6.604  0.1037 -0.0656 -0.1785
   78MOL0     C10694  10.462   1.041   6.749 -0.2877 -0.5952  0.9807
   78MOL0     H10695  10.043   0.708   6.607  2.5156  2.3363 -0.8306
   78MOL0     H10696   9.826   0.631   6.656 -2.3974 -0.6765 -1.5441
   78MOL0     H10697   9.431   0.822   6.630 -0.3482  0.8986  1.2090
   78MOL0     H10698   9.514   0.954   6.731 -0.2607  0.3528  1.3274
   78MOL0     H10699   9.471   0.791   6.925  1.4546  1.9249 -0.3919
   78MOL0     H10700   9.316   0.814   6.842  0.1988 -1.3828  0.9503
   78MOL0     H10701   9.359   0.612   6.711  1.0579  0.3016 -1.5652
   78MOL0     H10702   9.487   0.563   6.815  0.2084 -0.4800  6.3821
   78MOL0     H10703   9.360   0.585   7.019 -0.9352  0.5493  0.3030
   78MOL0     H10704   9.211   0.616   6.937 -0.5970 -0.3267 -3.5610
   78MOL0     H10705   9.385   0.374   6.902 -1.1919 -3.1437 -1.7712
   78MOL0     H10706   9.243   0.403   6.809 -0.0463 -2.5118  0.4717
   78MOL0     H10707   9.255   0.383   7.109 -0.9141  0.4843  0.8748
   78MOL0     H10708   9.109   0.428   7.021  0.5630  1.6239  0.1767
   78MOL0     H10709   9.101   0.194   7.061 -0.3546 -0.1838 -0.9809
   78MOL0     H10710   9.255   0.171   6.961  1.1107  1.9439 -0.3441
   78MOL0     H10711   9.149   0.210   6.757  0.8027  1.7633  0.2094
   78MOL0     H10712   9.028   0.109   6.826 -0.4276  0.1877 -3.7901
   78MOL0     H10713   8.818   0.204   6.895 -1.1112 -0.1777 -2.9719
   78MOL0     H10714   8.616   0.523   6.823  3.2633 -0.2060 -0.2664
   78MOL0     H10715   8.671   0.507   6.994  0.3868 -0.5196  1.6100
   78MOL0     H10716   8.618   0.275   6.989 -2.3943 -2.0908  1.3168
   78MOL0     H10717   8.484   0.391   6.969  0.2322  1.2369 -2.5639
   78MOL0     H10718   8.508   0.323   6.702 -3.7130 -1.7104 -0.0140
   78MOL0     H10719   8.602   0.188   6.767  1.9430  1.9973 -0.2900
   78MOL0     H10720   8.378   0.113   6.723  3.7414  2.3282 -1.5158
   78MOL0     H10721   8.398   0.136   6.904  0.6661 -0.1920  0.2003
   78MOL0     H10722   8.183   0.049   6.827  1.6548  1.2053 -2.8132
   78MOL0     H10723   8.027  -0.101   6.844  3.1309  2.2910 -0.9037
   78MOL0     H10724   7.888  -0.042   6.743  0.4946 -1.1322  0.6691
   78MOL0     H10725   7.859  -0.067   6.907 -0.7700 -1.6553 -2.4513
   78MOL0     H10726   7.579   0.194   7.163 -1.4913 -0.7020  1.3609
   78MOL0     H10727   7.334   0.186   7.206 -2.0074 -1.4035 -1.7023
   78MOL0     H10728   7.037   0.307   6.872  1.3478 -0.0322  0.5510
   78MOL0     H10729   7.093   0.159   6.934  0.1240  1.0526  0.2510
   78MOL0     H10730   6.836   0.214   6.962  0.6213  0.1770 -1.0230
   78MOL0     H10731   6.918   0.137   7.096  0.0883 -0.4701 -1.1458
   78MOL0     H10732   6.883   0.446   7.068 -0.8847  1.1179  0.6187
   78MOL0     H10733   6.943   0.348   7.214 -3.1469  0.9895  2.1560
   78MOL0     H10734   6.745   0.260   7.260 -3.2156 -1.2735 -0.0013
   78MOL0     H10735   6.666   0.311   7.115 -0.9303  0.3755  2.3858
   78MOL0     H10736   6.620   0.440   7.313 -0.3342 -0.0890 -0.4584
   78MOL0     H10737   6.782   0.513   7.293 -3.5139  1.4221  4.3315
   78MOL0     H10738   6.729   0.615   7.111 -1.1986  0.1334 -0.7752
   78MOL0     H10739   6.586   0.642   7.208 -0.4416  1.3244  1.1112
   78MOL0     H10740   6.607   0.459   6.963  1.2993 -1.0126  0.9817
   78MOL0     H10741   6.522   0.616   6.983 -0.6672 -0.4131 -0.5649
   78MOL0     H10742   6.459   0.357   7.140  0.6241  1.8258  1.1153
   78MOL0     H10743   6.372   0.411   6.984 -4.9941  0.3034  1.1444
   78MOL0     H10744   7.268   0.404   6.842 -2.4243 -0.7296  1.2156
   78MOL0     H10745   7.487   0.394   6.783  1.7469 -1.2259 -0.7911
   78MOL0     H10746   7.890   0.433   6.930 -1.5548 -2.0452  0.1933
   78MOL0     H10747   8.121   0.476   6.877 -0.3530 -0.3140 -1.5844
   78MOL0     H10748   9.666   1.035   6.599 -0.8873 -0.8171  1.3421
   78MOL0     H10749   9.876   1.099   6.508 -0.9240  0.1091  0.5987
   78MOL0     H10750  10.224   1.043   6.334  2.2721 -3.7585 -2.2769
   78MOL0     H10751  10.405   1.101   6.217  0.7952 -0.8129 -0.7372
   78MOL0     H10752  10.713   1.096   6.188  1.0617  0.7256 -0.7191
   78MOL0     H10753  10.591   1.204   6.123 -2.2314  0.9563  2.5582
   78MOL0     H10754  10.732   1.358   6.075 -2.2101 -1.4717  0.0063
   78MOL0     H10755  10.842   1.229   6.063  3.0416 -0.9077  2.6368
   78MOL0     H10756  10.955   1.400   6.191  2.2311 -2.3456 -0.4591
   78MOL0     H10757  10.821   1.410   6.316  0.0034  1.6238 -1.3893
   78MOL0     H10758  10.994   1.174   6.237 -0.4634  1.3894 -2.4527
   78MOL0     H10759  10.870   1.164   6.369 -0.3444  1.6346  1.9848
   78MOL0     H10760  11.195   1.309   6.580 -0.2958  0.9427  0.9215
   78MOL0     H10761  10.631   1.169   6.571 -2.8100  2.5836  4.7129
   78MOL0     H10762  10.550   1.091   6.791 -0.9649  0.8469  0.7518
   78MOL0     H10763  10.376   1.073   6.808 -1.4299  0.5138 -1.1849
   78MOL0     H10764  10.469   0.933   6.768  2.4950 -0.3432  1.8871
   79MOL0     O10765   7.570  10.501  10.840  0.6477 -0.0943  0.4637
   79MOL0     C10766   7.519  10.607  10.819  0.5992 -0.6929  0.3206
   79MOL0     O10767   7.433  10.679  10.900 -0.1260 -0.2139  0.3951
   79MOL0     C10768   7.442  10.697  11.038 -0.8721  0.1571 -0.1218
   79MOL0     C10769   7.552  10.649  11.103  0.6604 -0.9329 -0.0109
   79MOL0     C10770   7.553  10.651  11.246 -0.1961  0.0228 -0.2327
   79MOL0     C10771   7.457  10.703  11.328 -0.0449  0.5595 -0.2937
   79MOL0     O10772   7.476  10.703  11.466  0.1709 -0.5299 -0.3772
   79MOL0     C10773   7.372  10.758  11.543 -0.3934 -0.3961  0.0708
   79MOL0     C10774   7.402  10.731  11.687  0.3500  0.0567  0.0095
   79MOL0     C10775   7.527  10.781  11.754 -0.7217  0.0257 -0.1402
   79MOL0     C10776   7.558  10.709  11.884  0.0397 -1.1131 -0.6978
   79MOL0     C10777   7.688  10.750  11.948  0.4139 -0.1836 -0.2782
   79MOL0     C10778   7.729  10.673  12.071 -0.5435  0.3399  0.4817
   79MOL0     C10779   7.784  10.530  12.024  0.1902 -0.5425 -0.0861
   79MOL0     C10780   7.840  10.457  12.144  0.7227 -0.7585  0.0190
   79MOL0     N10781   7.938  10.516  12.239  0.4719 -0.1751  0.6921
   79MOL0     C10782   8.059  10.559  12.192 -0.7034 -0.1739  0.6338
   79MOL0     C10783   8.113  10.621  12.299  0.7971  0.5366  0.0841
   79MOL0     C10784   8.248  10.672  12.314  0.4493  0.5658  0.0862
   79MOL0     C10785   8.331  10.550  12.358  0.4227 -0.0867 -0.3100
   79MOL0     C10786   8.477  10.598  12.381 -0.7462  0.3010 -0.2066
   79MOL0     C10787   8.593  10.503  12.370 -0.4589 -0.5716 -0.1271
   79MOL0     O10788   8.570  10.390  12.453 -0.4909  0.4479  0.1983
   79MOL0     C10789   8.609  10.272  12.394 -0.3760 -0.4073  0.4042
   79MOL0     C10790   8.506  10.187  12.349 -0.7551  0.0505  0.8575
   79MOL0     C10791   8.550  10.069  12.297 -0.4176  0.7734  0.3652
   79MOL0     C10792   8.436   9.973  12.263  0.0169  0.7675 -0.8252
   79MOL0     C10793   8.685  10.028  12.298  0.0534  0.1591 -0.3867
   79MOL0     C10794   8.740   9.904  12.245  0.4172 -0.4451  0.1465
   79MOL0     O10795   8.873   9.878  12.249 -0.1475  0.4930 -0.0289
   79MOL0     C10796   8.919   9.774  12.179  0.3961  1.2046  0.3712
   79MOL0     C10797   8.986   9.669  12.250  0.6138 -0.0844 -0.3855
   79MOL0     C10798   9.021   9.553  12.179 -1.0535 -0.1795 -0.5112
   79MOL0     C10799   8.974   9.538  12.049  0.8585  0.5562  0.7537
   79MOL0     O10800   8.980   9.412  11.998  0.0263  0.0281 -0.3603
   79MOL0     C10801   9.110   9.365  11.973  0.1148  0.5100  0.4267
   79MOL0     C10802   9.140   9.369  11.818 -0.1581 -0.4204 -0.2053
   79MOL0     C10803   9.165   9.514  11.766  0.0368 -0.1837 -0.1878
   79MOL0     C10804   9.192   9.520  11.618  0.6134  0.1012  0.1036
   79MOL0     C10805   9.069   9.517  11.522 -0.0805 -0.1052 -1.3080
   79MOL0     C10806   8.990   9.646  11.511  0.4564 -0.2156  0.3256
   79MOL0     C10807   9.073   9.773  11.488 -1.0133  0.4567 -0.3170
   79MOL0     C10808   8.989   9.907  11.467  0.6988  1.1138 -0.8671
   79MOL0    Cl10809   9.125  10.039  11.457  0.2004 -0.7255 -0.3475
   79MOL0     C10810   8.919   9.638  11.976 -0.1110  0.6782 -0.6340
   79MOL0     C10811   8.886   9.762  12.043  0.8044 -0.3682  1.0685
   79MOL0     O10812   8.657   9.820  12.204  0.2695  0.2869 -0.8422
   79MOL0     C10813   8.782  10.124  12.331  0.0782  0.5916 -0.0758
   79MOL0     C10814   8.743  10.243  12.375 -0.1361  0.9460 -0.2790
   79MOL0     N10815   8.026  10.608  12.412 -0.4219  0.4649 -0.3930
   79MOL0     N10816   7.923  10.553  12.369 -0.5133 -0.1053  0.8377
   79MOL0     C10817   7.348  10.766  11.265  0.4222  0.1694 -0.9101
   79MOL0     C10818   7.341  10.758  11.121 -0.7334  0.5613  0.8802
   79MOL0     C10819   7.529  10.653  10.690  0.0281 -1.2385  0.2582
   79MOL0     C10820   7.427  10.725  10.627 -0.0159 -1.2389 -0.4859
   79MOL0     C10821   7.434  10.771  10.503  0.3225  0.0444  0.3648
   79MOL0     C10822   7.540  10.735  10.420  0.4479  0.6222  0.4944
   79MOL0     O10823   7.550  10.764  10.282 -0.1272  0.4766 -0.8622
   79MOL0     C10824   7.455  10.839  10.206  0.4846 -0.6887  0.5717
   79MOL0     C10825   7.485  10.992  10.195 -0.1079  0.6012 -0.2902
   79MOL0     C10826   7.507  11.061  10.331 -0.5491 -0.7880 -0.5287
   79MOL0     C10827   7.502  11.218  10.296  0.1433  0.1697  0.0967
   79MOL0     C10828   7.552  11.281  10.413  0.3625 -0.5207  0.2366
   79MOL0     C10829   7.576  11.315  10.528  0.4111  0.1269  0.0018
   79MOL0     C10830   7.641  10.667  10.475  0.2507  0.0185 -0.1247
   79MOL0     C10831   7.642  10.630  10.610  0.1766  0.3235  0.6571
   79MOL0     C10832   7.771  10.548  10.659 -0.0579  0.2265 -0.1862
   79MOL0     H10833   7.641  10.623  11.047 -0.5328 -1.6770 -1.6530
   79MOL0     H10834   7.638  10.606  11.297  1.1672  3.6619  1.0484
   79MOL0     H10835   7.273  10.720  11.514 -1.6930  1.4818  1.7571
   79MOL0     H10836   7.371  10.866  11.526  0.8290 -0.5737 -1.3365
   79MOL0     H10837   7.323  10.761  11.756 -0.4664 -0.8446 -0.5080
   79MOL0     H10838   7.404  10.622  11.689  0.0088  0.0488  2.0065
   79MOL0     H10839   7.605  10.778  11.678 -1.5481  0.2574 -1.0238
   79MOL0     H10840   7.527  10.888  11.777  1.6649  0.4015 -1.5467
   79MOL0     H10841   7.482  10.731  11.959 -0.7223  0.7042 -1.9293
   79MOL0     H10842   7.557  10.602  11.863 -0.3655 -1.4365  0.8475
   79MOL0     H10843   7.686  10.856  11.972 -1.0078 -0.1148 -0.6342
   79MOL0     H10844   7.764  10.738  11.870  0.8092 -1.4196  0.2564
   79MOL0     H10845   7.806  10.729  12.125 -2.0325  4.2571 -1.1042
   79MOL0     H10846   7.641  10.649  12.131 -0.3283 -0.3345  0.5452
   79MOL0     H10847   7.864  10.553  11.953 -1.6967  2.5614 -1.4570
   79MOL0     H10848   7.713  10.481  11.956  1.3791 -0.1616 -1.6579
   79MOL0     H10849   7.756  10.426  12.207  1.8721 -2.3782  0.8266
   79MOL0     H10850   7.883  10.372  12.091  0.9520 -0.9371  0.4861
   79MOL0     H10851   8.101  10.550  12.092 -0.1340  0.9374  0.7595
   79MOL0     H10852   8.237  10.745  12.395  1.2495 -0.2164  0.9242
   79MOL0     H10853   8.288  10.721  12.225  4.4729 -1.7714  0.3574
   79MOL0     H10854   8.281  10.511  12.447 -0.1413  1.9479  0.3071
   79MOL0     H10855   8.319  10.474  12.279 -2.4232 -2.4538  2.1584
   79MOL0     H10856   8.495  10.677  12.308  1.2767  0.6462  0.6113
   79MOL0     H10857   8.481  10.641  12.481 -3.3627 -2.4511  1.2489
   79MOL0     H10858   8.606  10.476  12.265  1.9485 -0.2458  0.0265
   79MOL0     H10859   8.683  10.558  12.398 -1.8915  3.8638 -3.2027
   79MOL0     H10860   8.402  10.216  12.352 -1.1774 -0.9705 -1.6250
   79MOL0     H10861   8.449   9.948  12.158 -1.8942  0.3761 -1.0003
   79MOL0     H10862   8.342  10.025  12.286  0.9269  2.5258 -0.8726
   79MOL0     H10863   8.442   9.879  12.318 -0.3692  2.3945  2.2487
   79MOL0     H10864   9.010   9.680  12.356  3.0405  1.0115 -0.9862
   79MOL0     H10865   9.078   9.478  12.233  0.2506  0.7584 -0.5266
   79MOL0     H10866   9.183   9.427  12.027 -0.6079  0.4552  1.5029
   79MOL0     H10867   9.123   9.263  12.009  3.7251  0.3046 -1.0646
   79MOL0     H10868   9.209   9.294  11.780  0.1345 -0.4903  0.4464
   79MOL0     H10869   9.046   9.347  11.767 -2.0385  2.4394  1.6853
   79MOL0     H10870   9.255   9.546  11.820  0.7068 -5.0106  2.1285
   79MOL0     H10871   9.089   9.588  11.792 -0.1622 -0.0652 -1.0719
   79MOL0     H10872   9.248   9.428  11.597 -1.8758 -1.5726  0.3415
   79MOL0     H10873   9.249   9.612  11.600 -1.9417  2.0232  1.2127
   79MOL0     H10874   9.131   9.499  11.433  0.5139  0.3680 -1.0004
   79MOL0     H10875   9.001   9.435  11.546  1.7118 -0.5486  3.2256
   79MOL0     H10876   8.933   9.655  11.604  0.6518 -0.0908  0.4335
   79MOL0     H10877   8.926   9.637  11.422 -1.3281 -0.1642  1.5566
   79MOL0     H10878   9.131   9.750  11.398 -2.2581 -3.2640 -0.3636
   79MOL0     H10879   9.136   9.799  11.573 -0.7784  1.5410 -0.8099
   79MOL0     H10880   8.919   9.937  11.546  1.1145 -1.7805  0.7347
   79MOL0     H10881   8.933   9.894  11.374  0.2094  2.0244 -0.7143
   79MOL0     H10882   8.886   9.615  11.875 -1.7446 -0.3693  0.0899
   79MOL0     H10883   8.826   9.837  11.993 -0.2353 -1.1038  1.1738
   79MOL0     H10884   8.886  10.092  12.324 -0.5802 -1.4443 -1.4756
   79MOL0     H10885   8.820  10.302  12.424  2.3464 -2.4154  0.1893
   79MOL0     H10886   7.272  10.805  11.331  1.6007 -0.8126  1.1482
   79MOL0     H10887   7.253  10.806  11.080 -0.3330  3.5193  3.1109
   79MOL0     H10888   7.340  10.750  10.687  0.3700 -1.5980  0.2386
   79MOL0     H10889   7.354  10.833  10.465  0.8883  0.0157 -0.9218
   79MOL0     H10890   7.468  10.796  10.106  0.8037 -0.8179  0.6644
   79MOL0     H10891   7.351  10.817  10.231 -0.1104  1.6769  0.3858
   79MOL0     H10892   7.408  11.052  10.145 -0.7123  0.5416  0.5459
   79MOL0     H10893   7.577  10.995  10.135  0.3723  1.8667  0.4643
   79MOL0     H10894   7.422  11.049  10.399 -0.0343 -1.4382  0.0060
   79MOL0     H10895   7.602  11.031  10.377 -1.0818 -2.9824 -0.7529
   79MOL0     H10896   7.402  11.250  10.266  0.5614  0.0435 -1.5227
   79MOL0     H10897   7.566  11.232  10.208 -0.9598  2.5272 -0.3879
   79MOL0     H10898   7.589  11.344  10.631 -0.1937 -2.1273  0.7613
   79MOL0     H10899   7.720  10.659  10.402 -0.2265 -1.8959 -0.5000
   79MOL0     H10900   7.803  10.596  10.752 -4.0920 -0.7602  1.9498
   79MOL0     H10901   7.740  10.444  10.670 -3.4663  0.9817 -1.2634
   79MOL0     H10902   7.852  10.555  10.586  2.5330 -0.7909  2.4073
   80MOL0     O10903   9.077   5.923   6.107  0.6973 -0.3661  0.3223
   80MOL0     C10904   8.974   5.939   6.043 -0.0259 -0.7732  0.2046
   80MOL0     O10905   8.899   5.837   5.987  0.6775 -0.8329 -0.3770
   80MOL0     C10906   8.965   5.713   5.966  0.0026 -0.1358 -0.4148
   80MOL0     C10907   8.979   5.635   6.073 -0.5842  0.4305  0.2468
   80MOL0     C10908   9.058   5.513   6.076  0.0090 -0.9968 -0.2658
   80MOL0     C10909   9.115   5.471   5.953 -0.6592  0.4445 -0.3289
   80MOL0     O10910   9.204   5.354   5.937  0.3312 -0.5091  0.4301
   80MOL0     C10911   9.217   5.278   6.049  0.0958  1.0612 -0.2530
   80MOL0     C10912   9.356   5.202   6.053 -0.1167  0.3901  0.0151
   80MOL0     C10913   9.346   5.085   5.958 -0.6543 -0.1893  0.0695
   80MOL0     C10914   9.473   5.010   5.943  0.1830 -1.1199 -0.3252
   80MOL0     C10915   9.452   4.894   5.845 -0.3794  0.8308 -0.2700
   80MOL0     C10916   9.583   4.834   5.779  0.4384 -1.1558  0.2440
   80MOL0     C10917   9.593   4.693   5.825  0.0322 -0.3308  0.2971
   80MOL0     C10918   9.678   4.610   5.738  0.4432 -0.2339  0.7511
   80MOL0     N10919   9.812   4.579   5.792  0.8114  0.0919  1.2433
   80MOL0     C10920   9.929   4.594   5.723 -0.6876  0.0646  0.1350
   80MOL0     C10921  10.020   4.544   5.813  0.5321  0.9136 -0.0171
   80MOL0     C10922  10.167   4.571   5.801  0.1954 -0.3869  0.6865
   80MOL0     C10923  10.267   4.509   5.906 -0.2053 -0.0699 -0.1156
   80MOL0     C10924  10.259   4.353   5.920 -0.5975 -0.4443 -0.8331
   80MOL0     C10925  10.394   4.296   5.968  0.9153  0.0178 -0.1124
   80MOL0     O10926  10.491   4.301   5.857 -0.0716 -0.0760  0.1355
   80MOL0     C10927  10.531   4.188   5.795 -0.2957 -0.9612  0.8329
   80MOL0     C10928  10.456   4.072   5.801  0.0987  0.3299 -0.4327
   80MOL0     C10929  10.489   3.960   5.729 -0.7319 -0.0463  0.0601
   80MOL0     C10930  10.406   3.831   5.752 -0.3337  0.0655  0.3212
   80MOL0     C10931  10.612   3.951   5.646 -0.5412 -0.7625 -0.0150
   80MOL0     C10932  10.667   3.836   5.566 -1.1774  0.7941  0.1033
   80MOL0     O10933  10.803   3.827   5.563 -0.0981 -0.2603  0.3391
   80MOL0     C10934  10.867   3.732   5.486  0.7546  0.6448  0.1210
   80MOL0     C10935  10.895   3.605   5.533 -0.8595  0.0268  0.1359
   80MOL0     C10936  10.958   3.514   5.452  0.6521 -0.6889 -0.1803
   80MOL0     C10937  10.984   3.534   5.316  1.9064 -0.3215 -0.1747
   80MOL0     O10938  11.050   3.439   5.239  0.5432 -0.9144  0.1998
   80MOL0     C10939  10.977   3.397   5.124 -0.0830  0.0193 -0.3320
   80MOL0     C10940  11.062   3.315   5.027 -0.5845 -0.4768  0.4394
   80MOL0     C10941  11.119   3.191   5.094 -0.3823 -0.9216 -0.0577
   80MOL0     C10942  11.072   3.063   5.022 -0.1797 -0.3428 -0.0156
   80MOL0     C10943  11.113   2.937   5.101  0.2633 -0.4583  0.4574
   80MOL0     C10944  11.072   2.807   5.030  0.1780 -0.5603 -1.2829
   80MOL0     C10945  11.068   2.690   5.124 -0.2150  1.2120 -0.2449
   80MOL0     C10946  11.197   2.632   5.182  0.0458 -0.8087 -0.2683
   80MOL0    Cl10947  11.293   2.561   5.056 -0.0869 -0.2558  0.0012
   80MOL0     C10948  10.956   3.661   5.275  0.6908  0.1576  0.3584
   80MOL0     C10949  10.887   3.756   5.349 -0.3008 -1.1332  0.4746
   80MOL0     O10950  10.588   3.791   5.484 -0.7114  0.5043  0.8320
   80MOL0     C10951  10.676   4.078   5.633  0.3680 -0.0976  0.0769
   80MOL0     C10952  10.644   4.191   5.702  0.7903 -0.1655 -0.8798
   80MOL0     N10953   9.956   4.467   5.906  0.6590  0.5977  0.5264
   80MOL0     N10954   9.828   4.492   5.892  0.1167 -0.4320 -0.0503
   80MOL0     C10955   9.096   5.549   5.833 -0.5616 -0.6664 -0.5359
   80MOL0     C10956   9.018   5.667   5.846  0.7315  0.5767 -0.0637
   80MOL0     C10957   8.920   6.078   6.048  0.7367  0.1062 -0.2948
   80MOL0     C10958   8.951   6.177   5.945  0.2431  0.3834  0.6256
   80MOL0     C10959   8.900   6.301   5.951 -0.4822 -1.1026 -0.6364
   80MOL0     C10960   8.810   6.333   6.054  0.7897  0.0659  0.4037
   80MOL0     O10961   8.733   6.451   6.069 -0.5920  0.1597  0.3277
   80MOL0     C10962   8.744   6.551   5.958  0.0587  0.8165 -0.5864
   80MOL0     C10963   8.622   6.644   5.978  0.3480 -0.2028 -0.0310
   80MOL0     C10964   8.492   6.568   5.951 -0.3113  0.2744 -0.6771
   80MOL0     C10965   8.372   6.655   5.959  0.0388  0.3350  0.5621
   80MOL0     C10966   8.360   6.765   5.861  0.0605  0.9476 -1.3313
   80MOL0     C10967   8.338   6.860   5.783 -0.2426 -0.1791  0.0164
   80MOL0     C10968   8.784   6.237   6.153  0.3134 -1.0239  0.4243
   80MOL0     C10969   8.841   6.109   6.164  0.3799 -1.1438  0.3675
   80MOL0     C10970   8.794   6.015   6.270 -0.4464  0.4301  0.6490
   80MOL0     H10971   8.948   5.678   6.168  2.5149  0.0071  1.5693
   80MOL0     H10972   9.069   5.468   6.174 -1.5660 -1.9222 -0.4828
   80MOL0     H10973   9.126   5.223   6.072  0.4162  1.6628  3.0735
   80MOL0     H10974   9.225   5.342   6.138 -2.4599  1.0549  0.0650
   80MOL0     H10975   9.447   5.258   6.034  1.7169 -0.5701  4.5016
   80MOL0     H10976   9.362   5.157   6.153  0.3726  1.5935  0.5407
   80MOL0     H10977   9.270   5.016   5.995  0.8827 -0.9166  2.0508
   80MOL0     H10978   9.322   5.123   5.858  1.3634  1.4833  0.1564
   80MOL0     H10979   9.542   5.071   5.884 -1.2110  0.7265 -0.1217
   80MOL0     H10980   9.515   4.979   6.040  1.3166  0.8187 -0.1360
   80MOL0     H10981   9.410   4.936   5.753  1.5119  1.9720 -0.6698
   80MOL0     H10982   9.387   4.821   5.894  0.4591 -0.7907 -1.4501
   80MOL0     H10983   9.574   4.855   5.672 -2.1104 -0.9401  0.4371
   80MOL0     H10984   9.674   4.887   5.808 -0.3469 -0.7742  2.1147
   80MOL0     H10985   9.492   4.653   5.815 -0.3224  0.2112  1.4949
   80MOL0     H10986   9.631   4.697   5.928  1.1539 -2.0840 -0.0050
   80MOL0     H10987   9.624   4.514   5.731  0.9326 -0.6167  1.9604
   80MOL0     H10988   9.688   4.627   5.631  0.7599 -0.6277  0.7173
   80MOL0     H10989   9.952   4.662   5.642  4.6269 -3.3578 -1.7704
   80MOL0     H10990  10.175   4.679   5.791 -1.1957 -0.1222  2.0397
   80MOL0     H10991  10.204   4.528   5.708 -1.5990 -1.4419  0.4066
   80MOL0     H10992  10.369   4.541   5.882  2.5458 -4.8494  3.4981
   80MOL0     H10993  10.250   4.552   6.005 -2.6568  1.4532 -1.1069
   80MOL0     H10994  10.191   4.345   6.005 -0.6203  2.9890 -0.3659
   80MOL0     H10995  10.213   4.307   5.833 -0.8944 -2.2307  0.2161
   80MOL0     H10996  10.444   4.347   6.051  0.5190 -1.9255  1.4125
   80MOL0     H10997  10.383   4.198   6.016 -2.1852 -1.8820 -4.1345
   80MOL0     H10998  10.381   4.056   5.878 -1.3757  1.1060 -1.6375
   80MOL0     H10999  10.326   3.822   5.678  0.1243  2.5881 -0.5693
   80MOL0     H11000  10.359   3.814   5.850 -2.3802 -2.1690 -0.9332
   80MOL0     H11001  10.462   3.741   5.727 -2.1457 -0.4218 -2.4639
   80MOL0     H11002  10.873   3.601   5.640  2.2637  0.2691  0.8983
   80MOL0     H11003  10.965   3.419   5.503  1.5506  0.0278  1.0668
   80MOL0     H11004  10.890   3.339   5.158 -0.9461  1.2491 -0.3519
   80MOL0     H11005  10.942   3.490   5.077 -0.2240  2.3156  3.7587
   80MOL0     H11006  11.005   3.295   4.936  0.3545  1.5384 -0.6810
   80MOL0     H11007  11.138   3.381   4.982  1.3527 -1.8540  1.5475
   80MOL0     H11008  11.091   3.188   5.199  0.4435 -0.6298  0.1811
   80MOL0     H11009  11.228   3.201   5.093 -0.5520  1.6289 -0.3240
   80MOL0     H11010  11.118   3.052   4.923  1.6232  2.2787  0.4257
   80MOL0     H11011  10.965   3.058   5.004  0.1461 -1.6328 -1.9274
   80MOL0     H11012  11.222   2.936   5.118  0.8190 -0.2511 -2.6139
   80MOL0     H11013  11.062   2.942   5.198  0.5670  0.2676  0.5895
   80MOL0     H11014  11.144   2.789   4.949 -0.2736 -1.8327 -1.4205
   80MOL0     H11015  10.970   2.816   4.990 -1.0278  2.3750  1.9158
   80MOL0     H11016  11.031   2.604   5.069  3.4024  1.2618 -3.1467
   80MOL0     H11017  10.993   2.698   5.203  2.0519 -0.0143  2.1461
   80MOL0     H11018  11.167   2.561   5.259  3.7215 -2.7031 -0.3810
   80MOL0     H11019  11.253   2.720   5.216  2.1922 -0.0687 -4.9358
   80MOL0     H11020  10.987   3.693   5.176  0.0755 -0.3575 -0.0040
   80MOL0     H11021  10.864   3.855   5.309 -2.8753 -2.4973 -1.7928
   80MOL0     H11022  10.764   4.089   5.571  0.1721  1.8819  0.0919
   80MOL0     H11023  10.708   4.279   5.702 -1.2864  1.4901  1.4555
   80MOL0     H11024   9.135   5.535   5.732  0.5107 -0.4975 -0.1520
   80MOL0     H11025   9.001   5.713   5.749  2.3066  0.4337 -0.4456
   80MOL0     H11026   9.020   6.147   5.867  2.2159  1.3894  1.9125
   80MOL0     H11027   8.935   6.366   5.872 -2.5197  1.7216  0.6035
   80MOL0     H11028   8.845   6.593   5.957 -1.0839  3.9793  1.3865
   80MOL0     H11029   8.729   6.500   5.862 -3.2524  1.8421 -0.7402
   80MOL0     H11030   8.644   6.729   5.913  0.3723 -0.4951 -0.4054
   80MOL0     H11031   8.625   6.680   6.082 -2.1156  4.4002 -1.2899
   80MOL0     H11032   8.493   6.509   5.859 -1.9793 -1.5382  0.3692
   80MOL0     H11033   8.482   6.492   6.030 -1.8655  0.8055 -0.3339
   80MOL0     H11034   8.369   6.689   6.063 -4.2372  1.3038  0.3223
   80MOL0     H11035   8.286   6.588   5.954  1.0072 -0.9202  0.3074
   80MOL0     H11036   8.305   6.934   5.713  1.1810 -1.7032 -2.4352
   80MOL0     H11037   8.713   6.263   6.231  0.8719 -0.4640  0.7506
   80MOL0     H11038   8.875   5.941   6.271  4.5027  5.0831 -2.6343
   80MOL0     H11039   8.778   6.064   6.367  1.4622  0.5896  0.9236
   80MOL0     H11040   8.705   5.962   6.234  2.1147 -2.9156 -1.3276
   81MOL0     O11041   8.314   8.517   0.865 -0.4596  0.5740 -0.3556
   81MOL0     C11042   8.252   8.611   0.819  0.0331 -0.4413 -0.0124
   81MOL0     O11043   8.265   8.658   0.694 -0.6081  0.3484  0.2094
   81MOL0     C11044   8.242   8.572   0.586  0.0157  1.0221  0.4006
   81MOL0     C11045   8.212   8.437   0.590  0.2106 -0.1218 -0.5261
   81MOL0     C11046   8.188   8.368   0.466 -0.2674 -0.7296 -0.9507
   81MOL0     C11047   8.199   8.430   0.340  0.0530  0.6801 -0.2430
   81MOL0     O11048   8.167   8.347   0.233  0.0013  0.2565  0.3736
   81MOL0     C11049   8.080   8.392   0.132  0.0054 -0.7083 -0.5864
   81MOL0     C11050   8.172   8.394   0.002 -0.0403 -0.5517  0.5551
   81MOL0     C11051   8.214   8.255  -0.043 -0.6709  0.0187 -0.5352
   81MOL0     C11052   8.290   8.239  -0.175  0.2259  0.1679  0.0177
   81MOL0     C11053   8.438   8.265  -0.171 -0.1897 -1.0910  0.5523
   81MOL0     C11054   8.525   8.146  -0.136  0.3931  0.1913  0.1272
   81MOL0     C11055   8.672   8.167  -0.156  0.3525  0.5201  0.0136
   81MOL0     C11056   8.749   8.065  -0.058 -0.7120  0.5584  1.7811
   81MOL0     N11057   8.900   8.052  -0.062  0.4042  0.3357 -0.9295
   81MOL0     C11058   8.982   8.089  -0.160 -0.0606  0.1343 -0.3192
   81MOL0     C11059   9.106   8.075  -0.122 -0.4259 -0.0409 -0.6168
   81MOL0     C11060   9.230   8.121  -0.201  0.2790  0.7112  0.0056
   81MOL0     C11061   9.226   8.044  -0.341  1.1531  0.5929 -0.2766
   81MOL0     C11062   9.296   8.126  -0.444 -0.6256  0.0082 -0.7158
   81MOL0     C11063   9.320   8.064  -0.578  1.0834  0.9596  0.0245
   81MOL0     O11064   9.416   7.966  -0.556 -0.7658 -0.2196  0.2536
   81MOL0     C11065   9.496   7.933  -0.672 -0.0204  0.5596 -0.2256
   81MOL0     C11066   9.458   7.842  -0.762  0.7399 -0.5399 -0.2348
   81MOL0     C11067   9.524   7.810  -0.873  0.4980 -1.1765  0.5609
   81MOL0     C11068   9.461   7.703  -0.953  0.1785  0.2551  0.8291
   81MOL0     C11069   9.657   7.860  -0.889  0.6988  0.1767  0.5209
   81MOL0     C11070   9.736   7.818  -1.007  0.2874 -1.1931  0.7419
   81MOL0     O11071   9.854   7.880  -1.003 -0.3171  0.5000  0.0023
   81MOL0     C11072   9.957   7.883  -1.096  0.1716  0.6843 -1.1760
   81MOL0     C11073  10.047   7.997  -1.093  0.2369  0.2467  0.3647
   81MOL0     C11074  10.149   8.001  -1.189  0.0890  0.0360  0.2272
   81MOL0     C11075  10.168   7.904  -1.288  0.3383  0.3758  0.0839
   81MOL0     O11076  10.268   7.933  -1.376 -0.3946  0.4293 -1.2568
   81MOL0     C11077  10.320   7.834  -1.469  1.0166  1.1273  0.0433
   81MOL0     C11078  10.456   7.884  -1.507  0.7060  0.5103 -0.5964
   81MOL0     C11079  10.507   7.807  -1.628 -0.4321 -0.2057 -0.4268
   81MOL0     C11080  10.647   7.862  -1.669  0.2287 -0.4129  0.1342
   81MOL0     C11081  10.716   7.752  -1.761  0.6185 -1.2904  0.0884
   81MOL0     C11082  10.839   7.815  -1.829 -0.5516  0.3304  0.3034
   81MOL0     C11083  10.938   7.707  -1.888 -0.1934 -0.7606 -0.5208
   81MOL0     C11084  11.045   7.783  -1.979 -1.6662 -0.4045 -0.3117
   81MOL0    Cl11085  11.163   7.873  -1.885  0.0249 -0.0946 -0.8589
   81MOL0     C11086  10.076   7.799  -1.296  0.5428  0.0914 -0.2391
   81MOL0     C11087   9.979   7.777  -1.196  0.4601 -0.5448 -0.2348
   81MOL0     O11088   9.683   7.777  -1.112 -0.5819 -1.0633 -0.5286
   81MOL0     C11089   9.705   7.951  -0.788 -0.7111  0.2056  0.2556
   81MOL0     C11090   9.628   7.983  -0.676  0.1384  0.1327  1.7177
   81MOL0     N11091   9.097   8.032   0.016 -1.0336  0.3282 -0.1528
   81MOL0     N11092   8.976   8.016   0.048  0.3256 -0.2545  0.4861
   81MOL0     C11093   8.226   8.570   0.344 -0.1738  0.7402  0.5568
   81MOL0     C11094   8.254   8.628   0.460  0.2537  0.4119  1.1609
   81MOL0     C11095   8.180   8.688   0.919 -0.0417  0.2311 -1.2123
   81MOL0     C11096   8.239   8.810   0.975 -1.0572 -0.1868 -0.0598
   81MOL0     C11097   8.164   8.897   1.052  0.2449 -0.5062  0.4279
   81MOL0     C11098   8.039   8.856   1.097  0.1125 -0.4229 -0.6759
   81MOL0     O11099   7.949   8.938   1.159  0.4924 -0.6645  0.1505
   81MOL0     C11100   8.000   9.056   1.226 -0.3301  0.6105 -0.2373
   81MOL0     C11101   7.893   9.124   1.321  0.1333 -0.3324  0.2160
   81MOL0     C11102   7.962   9.215   1.420 -1.0919 -1.3331  0.5841
   81MOL0     C11103   7.879   9.249   1.540 -0.1703 -0.0023  1.1686
   81MOL0     C11104   7.766   9.330   1.501 -0.3551 -0.0959  0.4229
   81MOL0     C11105   7.668   9.395   1.464 -1.0892  0.0312 -0.5020
   81MOL0     C11106   7.990   8.731   1.050 -0.8863 -0.5136  0.6893
   81MOL0     C11107   8.054   8.649   0.969  0.0783 -0.7813  0.6787
   81MOL0     C11108   7.975   8.523   0.919 -0.2423 -0.3456 -0.1980
   81MOL0     H11109   8.209   8.377   0.681  2.4284  2.6911  1.6003
   81MOL0     H11110   8.151   8.267   0.473 -3.2144  0.3724  2.6909
   81MOL0     H11111   8.044   8.491   0.162 -0.5710 -0.3423 -2.3644
   81MOL0     H11112   8.007   8.311   0.116  2.2413 -2.4164 -2.8867
   81MOL0     H11113   8.118   8.450  -0.076  2.5604 -0.9766 -1.7032
   81MOL0     H11114   8.263   8.443   0.036  0.2101  0.2716 -1.1817
   81MOL0     H11115   8.267   8.211   0.042  0.0117  0.5671 -0.6745
   81MOL0     H11116   8.124   8.193  -0.033 -0.8463 -0.1732 -2.7173
   81MOL0     H11117   8.273   8.137  -0.209  0.2813  0.1274  0.1136
   81MOL0     H11118   8.237   8.309  -0.241  0.0478 -1.8030 -2.0637
   81MOL0     H11119   8.460   8.356  -0.115 -5.3607 -1.4447  3.8508
   81MOL0     H11120   8.463   8.294  -0.274  0.8995  2.5973  1.7092
   81MOL0     H11121   8.492   8.112  -0.038 -4.4694  1.8363 -0.6580
   81MOL0     H11122   8.497   8.065  -0.204  1.6632 -0.4813  0.3919
   81MOL0     H11123   8.697   8.269  -0.126 -1.6479  0.8787  0.6443
   81MOL0     H11124   8.703   8.142  -0.258 -2.5719  1.0659 -1.1223
   81MOL0     H11125   8.714   8.073   0.045  2.0949 -2.2168  3.1028
   81MOL0     H11126   8.723   7.968  -0.101  2.8509  0.6220 -1.0157
   81MOL0     H11127   8.950   8.131  -0.255 -2.4545 -0.9802 -0.0797
   81MOL0     H11128   9.332   8.097  -0.167  0.8756 -0.6348 -2.4535
   81MOL0     H11129   9.232   8.230  -0.207  1.9894  0.7251  0.0507
   81MOL0     H11130   9.274   7.948  -0.321 -0.6401 -0.3325 -0.2174
   81MOL0     H11131   9.121   8.023  -0.364  0.8849 -1.9093  2.5842
   81MOL0     H11132   9.225   8.207  -0.464 -5.3929 -1.4228  6.3887
   81MOL0     H11133   9.393   8.167  -0.414  0.0312  0.2389 -2.9988
   81MOL0     H11134   9.222   8.018  -0.597 -1.9225  5.8006  1.8299
   81MOL0     H11135   9.346   8.122  -0.667  0.6729 -0.3994 -1.0254
   81MOL0     H11136   9.367   7.789  -0.734 -0.1229  0.4766 -1.0313
   81MOL0     H11137   9.436   7.748  -1.050  0.3731  1.7844  1.4545
   81MOL0     H11138   9.370   7.680  -0.898  0.5455 -0.0585  1.3083
   81MOL0     H11139   9.526   7.617  -0.967 -1.2055 -0.5552 -1.0633
   81MOL0     H11140  10.031   8.062  -1.008 -4.1768  0.0806 -0.1193
   81MOL0     H11141  10.221   8.082  -1.189  1.2107 -0.9226  1.6374
   81MOL0     H11142  10.329   7.730  -1.438  1.3774  1.8135  2.4588
   81MOL0     H11143  10.250   7.840  -1.553  0.1243 -0.6398  0.6258
   81MOL0     H11144  10.451   7.992  -1.523  0.2573  0.6419  0.3309
   81MOL0     H11145  10.512   7.870  -1.414 -2.0031 -0.8238  0.9672
   81MOL0     H11146  10.441   7.812  -1.715 -0.1105 -0.5733 -0.6953
   81MOL0     H11147  10.517   7.705  -1.591  1.2789  0.4897  1.2072
   81MOL0     H11148  10.717   7.888  -1.589  1.6005  2.9206 -1.8985
   81MOL0     H11149  10.624   7.954  -1.723 -0.0915 -0.1768  0.6632
   81MOL0     H11150  10.741   7.665  -1.700  0.2183 -1.1638  0.4430
   81MOL0     H11151  10.645   7.714  -1.835 -0.6396  1.9181 -0.5435
   81MOL0     H11152  10.898   7.877  -1.761 -0.1653  0.3429 -0.0392
   81MOL0     H11153  10.813   7.885  -1.910  1.9689  0.4862 -0.4483
   81MOL0     H11154  10.881   7.645  -1.958 -0.5394  0.6131 -1.5068
   81MOL0     H11155  11.000   7.658  -1.812 -1.0683  0.6578  1.1951
   81MOL0     H11156  10.992   7.849  -2.048 -0.5092 -0.8818 -1.7185
   81MOL0     H11157  11.100   7.708  -2.037  1.5325  3.8489 -3.4360
   81MOL0     H11158  10.087   7.730  -1.378 -3.9018  0.2424 -1.2024
   81MOL0     H11159   9.919   7.687  -1.200  3.0098 -2.3479 -3.6530
   81MOL0     H11160   9.809   7.980  -0.799 -1.0696  2.3818  1.9338
   81MOL0     H11161   9.666   8.055  -0.604  3.5730  0.2095  0.0648
   81MOL0     H11162   8.241   8.620   0.249  1.6246  1.8895  1.3670
   81MOL0     H11163   8.282   8.732   0.449 -2.2691  1.1425  1.2408
   81MOL0     H11164   8.335   8.844   0.938 -1.4493  0.1372 -0.7940
   81MOL0     H11165   8.222   8.985   1.078  1.4286 -1.2424  0.3079
   81MOL0     H11166   8.082   9.033   1.294 -0.2202 -0.0703 -0.5937
   81MOL0     H11167   8.042   9.134   1.161  2.7129 -0.4092  0.3324
   81MOL0     H11168   7.841   9.043   1.374  0.7496 -0.3909  0.7494
   81MOL0     H11169   7.813   9.178   1.271 -3.1816 -0.1722  5.0793
   81MOL0     H11170   8.052   9.167   1.459  1.3975  1.2404 -1.5028
   81MOL0     H11171   8.003   9.306   1.376  2.0523 -2.0856  1.7192
   81MOL0     H11172   7.946   9.306   1.606  0.6691 -0.6729  0.9130
   81MOL0     H11173   7.855   9.156   1.593 -0.0453  0.1841  1.5606
   81MOL0     H11174   7.593   9.456   1.418 -0.4038  1.3905  0.1208
   81MOL0     H11175   7.891   8.691   1.069 -1.2264  0.0185  0.0913
   81MOL0     H11176   7.920   8.554   0.830 -1.2686 -1.2451  0.1034
   81MOL0     H11177   8.054   8.452   0.894  2.6261  1.6025  2.5161
   81MOL0     H11178   7.909   8.475   0.991  1.6187 -3.4424 -0.3709
   82MOL0     O11179  11.586   6.741   4.374  0.1314  0.1216 -0.2478
   82MOL0     C11180  11.624   6.681   4.476 -0.6886  0.2846  0.0080
   82MOL0     O11181  11.565   6.561   4.520 -0.4813 -0.8690 -0.7586
   82MOL0     C11182  11.459   6.510   4.449  0.3154  0.2032 -0.6002
   82MOL0     C11183  11.449   6.375   4.441  0.9146  0.2578  0.0264
   82MOL0     C11184  11.321   6.319   4.416 -0.5828  0.2246  0.7502
   82MOL0     C11185  11.210   6.397   4.378  0.0449 -0.3113  0.1474
   82MOL0     O11186  11.091   6.334   4.342  0.7428  0.2042  0.3127
   82MOL0     C11187  11.005   6.404   4.242  0.8049 -0.7333 -0.3605
   82MOL0     C11188  10.932   6.296   4.155 -0.8382 -0.6865 -0.0564
   82MOL0     C11189  10.853   6.204   4.248  0.2247 -0.7751  0.0453
   82MOL0     C11190  10.733   6.139   4.183 -0.0732 -0.0218  0.2012
   82MOL0     C11191  10.611   6.241   4.174  0.2588 -0.0408 -0.7327
   82MOL0     C11192  10.572   6.305   4.314 -1.0765  0.6413 -0.2856
   82MOL0     C11193  10.442   6.374   4.312 -0.3821  0.7723 -0.7309
   82MOL0     C11194  10.442   6.483   4.417  0.0088  0.0126 -0.5016
   82MOL0     N11195  10.315   6.555   4.399 -0.3971 -0.6854  0.6118
   82MOL0     C11196  10.212   6.527   4.485 -0.1537 -0.3948  0.7489
   82MOL0     C11197  10.102   6.592   4.439  0.6692 -0.1592 -0.3906
   82MOL0     C11198   9.974   6.630   4.510  0.1592  0.4693  0.0318
   82MOL0     C11199   9.974   6.573   4.654  0.4139  0.1247 -0.0215
   82MOL0     C11200   9.835   6.572   4.730  0.2819 -0.4494  0.3788
   82MOL0     C11201   9.741   6.685   4.709 -0.6879 -0.9120  0.2757
   82MOL0     O11202   9.630   6.669   4.807 -0.4278 -0.3717  0.3513
   82MOL0     C11203   9.533   6.770   4.806 -0.6732  0.3214  0.7809
   82MOL0     C11204   9.513   6.849   4.917 -0.5926 -1.0196  0.6259
   82MOL0     C11205   9.417   6.946   4.927  0.6870 -0.3399 -0.1204
   82MOL0     C11206   9.433   7.054   5.033 -0.3717 -0.4674 -0.3377
   82MOL0     C11207   9.318   6.950   4.829  0.0289 -1.5287 -0.4898
   82MOL0     C11208   9.206   7.050   4.818  0.8126  0.3579  0.9092
   82MOL0     O11209   9.088   6.991   4.770 -0.5943 -0.2190 -0.4325
   82MOL0     C11210   8.970   7.055   4.778 -0.4356 -0.3538 -0.4025
   82MOL0     C11211   8.864   7.017   4.697 -0.4207  0.3236  0.3532
   82MOL0     C11212   8.738   7.072   4.700 -1.0728  0.6990 -0.2908
   82MOL0     C11213   8.714   7.179   4.782  0.1945  0.1843  0.9803
   82MOL0     O11214   8.594   7.238   4.798  0.1235  0.5873 -0.0608
   82MOL0     C11215   8.480   7.218   4.714  1.0302 -0.2456 -0.0544
   82MOL0     C11216   8.506   7.296   4.581  0.1447  0.2367  0.6767
   82MOL0     C11217   8.535   7.444   4.603 -0.4684 -0.6723  0.2665
   82MOL0     C11218   8.397   7.525   4.604  0.2133 -0.1397  0.3228
   82MOL0     C11219   8.425   7.675   4.609  0.2487  0.6989  0.2446
   82MOL0     C11220   8.491   7.721   4.476 -0.5684 -0.4155  0.2458
   82MOL0     C11221   8.514   7.873   4.494  0.1400 -0.7095 -0.5019
   82MOL0     C11222   8.534   7.946   4.366  0.3634  0.4739  0.0091
   82MOL0    Cl11223   8.691   7.917   4.292  0.2706 -0.3208 -0.3884
   82MOL0     C11224   8.821   7.224   4.866  0.2946 -0.2849  0.2886
   82MOL0     C11225   8.944   7.163   4.866 -0.3734 -0.2723  0.6258
   82MOL0     O11226   9.236   7.162   4.823 -0.2763  0.2556 -0.2287
   82MOL0     C11227   9.323   6.864   4.722 -0.1852  0.1203  0.1516
   82MOL0     C11228   9.429   6.775   4.709 -1.3109 -0.4408 -0.0111
   82MOL0     N11229  10.138   6.646   4.317  0.6767  0.0322  0.2239
   82MOL0     N11230  10.263   6.647   4.310 -0.1460  1.4054  0.3940
   82MOL0     C11231  11.223   6.536   4.389 -0.6343  0.3226  0.2970
   82MOL0     C11232  11.343   6.590   4.414 -0.9434  0.0857  0.2613
   82MOL0     C11233  11.714   6.756   4.567 -0.6291  0.4359  0.4165
   82MOL0     C11234  11.716   6.718   4.699 -0.0546 -0.1968 -0.6030
   82MOL0     C11235  11.811   6.774   4.789 -0.4779  0.3666 -0.2492
   82MOL0     C11236  11.907   6.871   4.749  0.0620  0.1930  0.9361
   82MOL0     O11237  12.007   6.925   4.827  0.2204  0.2069  0.1672
   82MOL0     C11238  12.094   6.818   4.879 -0.6995  0.0022 -0.4759
   82MOL0     C11239  12.213   6.884   4.954 -0.7915 -0.5668  0.4034
   82MOL0     C11240  12.319   6.782   5.000  0.3332  0.4924  0.2110
   82MOL0     C11241  12.272   6.696   5.121  0.7822 -0.3583  0.3653
   82MOL0     C11242  12.274   6.781   5.239  0.2399  0.3615 -0.5883
   82MOL0     C11243  12.287   6.860   5.328 -0.4508 -0.1732  0.3806
   82MOL0     C11244  11.902   6.909   4.619  0.8524 -0.0063 -0.5304
   82MOL0     C11245  11.806   6.859   4.525  0.5677  0.4944 -0.0397
   82MOL0     C11246  11.819   6.905   4.383  0.4798  0.6766 -0.2016
   82MOL0     H11247  11.526   6.305   4.471  0.3990  0.3495  1.6473
   82MOL0     H11248  11.319   6.210   4.417  2.2520 -0.0181 -1.8796
   82MOL0     H11249  11.059   6.475   4.179 -0.6129  0.3654 -0.3783
   82MOL0     H11250  10.930   6.459   4.298  0.3723 -0.4729 -1.1872
   82MOL0     H11251  10.876   6.350   4.077 -1.2435 -2.9119 -1.3897
   82MOL0     H11252  11.003   6.241   4.093 -2.8309 -3.3663 -0.1292
   82MOL0     H11253  10.916   6.115   4.260  0.5295 -1.1008 -3.0591
   82MOL0     H11254  10.843   6.244   4.349 -0.8759 -1.5633  0.2744
   82MOL0     H11255  10.755   6.110   4.080  0.8887  0.2770  0.3172
   82MOL0     H11256  10.694   6.053   4.238  0.7657 -1.4785 -1.3908
   82MOL0     H11257  10.521   6.201   4.126  0.2800  0.2505 -1.0273
   82MOL0     H11258  10.634   6.324   4.106  2.7673 -1.1092 -1.3434
   82MOL0     H11259  10.575   6.230   4.394  2.3756 -1.5243 -2.1717
   82MOL0     H11260  10.652   6.373   4.344 -0.3218 -1.0414  1.7423
   82MOL0     H11261  10.362   6.304   4.338 -0.2369  0.9376  0.1838
   82MOL0     H11262  10.428   6.412   4.210  4.6068  2.5527 -1.0453
   82MOL0     H11263  10.458   6.446   4.519  1.6046  3.5169  0.6698
   82MOL0     H11264  10.527   6.544   4.387  0.9875 -0.4262  1.2392
   82MOL0     H11265  10.204   6.454   4.566 -1.7371 -1.5373 -0.3762
   82MOL0     H11266   9.896   6.591   4.443  1.2145  0.5170 -1.2641
   82MOL0     H11267   9.953   6.737   4.507 -3.0910 -0.0824 -0.3925
   82MOL0     H11268  10.004   6.469   4.642  2.8218  0.9134 -1.5271
   82MOL0     H11269  10.049   6.620   4.718  1.0029  0.5022 -0.9696
   82MOL0     H11270   9.781   6.483   4.699  0.8602 -1.5425  2.3670
   82MOL0     H11271   9.856   6.586   4.836 -1.1525  2.1181  0.4102
   82MOL0     H11272   9.787   6.782   4.729 -1.7117 -0.1507 -0.9077
   82MOL0     H11273   9.708   6.681   4.604 -0.5141  0.5917  0.1441
   82MOL0     H11274   9.596   6.843   4.986 -1.3873  0.0745  1.7110
   82MOL0     H11275   9.532   7.054   5.079 -0.7807 -2.2397  0.6022
   82MOL0     H11276   9.354   7.037   5.106  0.4641 -2.5840  0.1345
   82MOL0     H11277   9.445   7.155   4.993 -0.2640 -1.0160 -1.7461
   82MOL0     H11278   8.880   6.931   4.633  0.5575  0.3774  0.5208
   82MOL0     H11279   8.673   7.023   4.628  0.5531 -0.6054 -0.9468
   82MOL0     H11280   8.464   7.110   4.705  1.0732 -0.3433  0.8676
   82MOL0     H11281   8.390   7.257   4.762  1.4057 -0.9566  1.2850
   82MOL0     H11282   8.587   7.247   4.527 -2.4126 -1.3356 -1.9776
   82MOL0     H11283   8.416   7.287   4.520  0.2429 -2.1771  0.7896
   82MOL0     H11284   8.594   7.476   4.516  0.1621  0.4820  1.0909
   82MOL0     H11285   8.605   7.462   4.685  2.3711 -1.3196 -1.8451
   82MOL0     H11286   8.353   7.491   4.698 -2.4547 -2.7083 -1.6446
   82MOL0     H11287   8.329   7.499   4.521  1.8263 -1.6613 -0.6102
   82MOL0     H11288   8.333   7.726   4.641  1.2471  0.5438  3.7379
   82MOL0     H11289   8.496   7.693   4.690 -0.1385 -1.5166  1.1660
   82MOL0     H11290   8.421   7.698   4.395 -0.6334  2.7665 -0.7114
   82MOL0     H11291   8.584   7.668   4.451  1.3727  2.7184  0.3716
   82MOL0     H11292   8.610   7.886   4.546  1.2323 -2.2655 -2.0066
   82MOL0     H11293   8.434   7.913   4.557 -0.1094 -4.4446  1.8550
   82MOL0     H11294   8.524   8.052   4.391 -2.0436 -0.0146  1.3992
   82MOL0     H11295   8.455   7.918   4.296  0.1403 -1.4115  0.9529
   82MOL0     H11296   8.800   7.292   4.948 -1.0701  0.5403 -0.6980
   82MOL0     H11297   9.006   7.186   4.951 -1.0410  0.9011  0.8164
   82MOL0     H11298   9.254   6.863   4.637  1.7890 -0.6492 -1.5335
   82MOL0     H11299   9.431   6.706   4.625 -1.9662 -3.6666  2.4045
   82MOL0     H11300  11.133   6.595   4.372  0.0231  0.7646 -1.8928
   82MOL0     H11301  11.349   6.698   4.426  3.0480  0.1586 -0.6871
   82MOL0     H11302  11.647   6.643   4.734 -1.7889  1.4163 -0.4234
   82MOL0     H11303  11.812   6.745   4.894  0.0770  1.1406 -0.0272
   82MOL0     H11304  12.046   6.752   4.952  1.8376  0.0171  1.3617
   82MOL0     H11305  12.138   6.758   4.799  1.6860  1.4236 -0.3575
   82MOL0     H11306  12.169   6.931   5.041 -2.8461 -3.0707  0.8520
   82MOL0     H11307  12.267   6.953   4.888  0.7264 -1.9409  0.1329
   82MOL0     H11308  12.345   6.728   4.908 -1.8724 -2.0675  0.9799
   82MOL0     H11309  12.409   6.837   5.031  1.6073 -0.4064 -1.7257
   82MOL0     H11310  12.334   6.611   5.150 -0.6236 -0.3796  3.7758
   82MOL0     H11311  12.172   6.657   5.101 -0.5798  2.3053  1.4258
   82MOL0     H11312  12.311   6.942   5.392 -1.0023  0.7008 -0.5130
   82MOL0     H11313  11.989   6.969   4.594  0.8908  0.3983  0.4914
   82MOL0     H11314  11.737   6.973   4.360 -0.2027  2.5448  5.8276
   82MOL0     H11315  11.913   6.951   4.352  0.5955 -1.5861 -3.7269
   82MOL0     H11316  11.815   6.816   4.319 -0.3845  1.9262 -1.9662
   83MOL0     O11317   0.793   3.990  11.280 -0.2883 -0.2952  0.5134
   83MOL0     C11318   0.767   4.100  11.339  0.0689  0.3445  0.2486
   83MOL0     O11319   0.657   4.181  11.308  0.5421 -0.2863  0.3736
   83MOL0     C11320   0.579   4.152  11.204 -0.9415 -0.0706  0.2197
   83MOL0     C11321   0.630   4.152  11.077 -0.3777 -0.5938 -0.3497
   83MOL0     C11322   0.546   4.123  10.965  0.2011 -0.4386  0.2233
   83MOL0     C11323   0.412   4.068  10.989 -0.1666 -0.1485  0.8589
   83MOL0     O11324   0.349   4.015  10.881  0.3395  0.1118 -0.5710
   83MOL0     C11325   0.230   3.938  10.906  0.0648 -0.8981 -0.3684
   83MOL0     C11326   0.159   3.893  10.782 -0.6304  0.1273  0.0169
   83MOL0     C11327   0.105   4.004  10.707  0.6196 -0.1184 -0.0073
   83MOL0     C11328   0.059   3.976  10.567  0.5455  0.3549 -0.2144
   83MOL0     C11329  -0.074   4.048  10.527  0.0551  0.1046  0.2340
   83MOL0     C11330  -0.087   4.042  10.383  0.5072  0.2328 -0.4482
   83MOL0     C11331  -0.213   4.098  10.333 -0.3654  0.0728  0.7798
   83MOL0     C11332  -0.246   4.059  10.189 -0.4379  1.2388 -0.0561
   83MOL0     N11333  -0.142   4.094  10.088 -0.1691  0.2709 -0.2448
   83MOL0     C11334  -0.153   4.209  10.017  0.2826 -1.2732 -0.0916
   83MOL0     C11335  -0.047   4.221   9.942 -0.1505  0.0960  0.1724
   83MOL0     C11336  -0.016   4.311   9.829 -1.0030 -0.4661 -0.9506
   83MOL0     C11337  -0.133   4.318   9.730  0.3093 -0.8288 -0.7987
   83MOL0     C11338  -0.111   4.397   9.602 -0.0020 -0.8506  0.6445
   83MOL0     C11339  -0.233   4.425   9.512 -0.4817 -0.3554 -0.0259
   83MOL0     O11340  -0.325   4.510   9.581 -0.1988  0.2838 -0.1354
   83MOL0     C11341  -0.331   4.644   9.562 -0.8864 -0.2479  0.2860
   83MOL0     C11342  -0.268   4.746   9.636 -0.5340 -0.6985 -0.4761
   83MOL0     C11343  -0.291   4.889   9.623 -0.1127  0.3762  1.3745
   83MOL0     C11344  -0.221   4.978   9.721  0.7218 -0.5716 -0.0120
   83MOL0     C11345  -0.390   4.939   9.525  0.3564  1.5076  0.0218
   83MOL0     C11346  -0.419   5.076   9.511 -0.6435 -0.3695 -0.6464
   83MOL0     O11347  -0.372   5.173   9.601 -0.0219  0.4426  0.3619
   83MOL0     C11348  -0.427   5.292   9.590  0.3393 -0.2472 -0.1637
   83MOL0     C11349  -0.571   5.333   9.591 -0.3936  0.0686 -0.2513
   83MOL0     C11350  -0.609   5.474   9.599  0.2959  0.0581  0.0679
   83MOL0     C11351  -0.507   5.574   9.600  0.5484  0.3383 -0.1973
   83MOL0     O11352  -0.540   5.701   9.622  0.4093  0.2805  0.1615
   83MOL0     C11353  -0.479   5.801   9.539  0.0925  0.0982 -0.0252
   83MOL0     C11354  -0.605   5.869   9.479  0.0394 -0.0394 -0.4790
   83MOL0     C11355  -0.691   5.788   9.383 -0.0839  0.6366  0.4861
   83MOL0     C11356  -0.614   5.713   9.270 -0.0368 -0.1807  0.0336
   83MOL0     C11357  -0.548   5.795   9.157  1.6822 -0.6581 -0.2682
   83MOL0     C11358  -0.640   5.910   9.096 -0.1265  0.4866 -0.5755
   83MOL0     C11359  -0.587   5.957   8.965 -0.4543  0.9658  0.3298
   83MOL0     C11360  -0.681   6.051   8.902 -0.3750 -0.3709  0.4233
   83MOL0    Cl11361  -0.801   5.952   8.816 -0.0248  0.1571 -0.6275
   83MOL0     C11362  -0.375   5.535   9.584  0.9241  0.5758  1.0819
   83MOL0     C11363  -0.338   5.397   9.577 -0.3913 -0.7428 -0.6619
   83MOL0     O11364  -0.484   5.102   9.412 -0.6415 -0.2275 -0.4029
   83MOL0     C11365  -0.454   4.835   9.452 -0.5818 -0.0506  0.1295
   83MOL0     C11366  -0.433   4.699   9.472  0.4678 -0.3817  0.0282
   83MOL0     N11367   0.030   4.112   9.978  0.2831 -0.4634  0.0978
   83MOL0     N11368  -0.024   4.038  10.063 -0.1871  0.0243 -0.4874
   83MOL0     C11369   0.368   4.060  11.121 -0.3377 -0.6168  1.0207
   83MOL0     C11370   0.445   4.114  11.228 -0.0228 -0.3728 -0.2049
   83MOL0     C11371   0.839   4.148  11.472  0.0509  0.2709  0.2251
   83MOL0     C11372   0.911   4.054  11.548 -0.0765 -1.1050 -1.6126
   83MOL0     C11373   0.964   4.092  11.673  1.1690  0.4654 -0.0788
   83MOL0     C11374   0.962   4.225  11.719  0.8811  0.6511  0.1930
   83MOL0     O11375   1.021   4.271  11.833  1.0158  0.2702  0.5178
   83MOL0     C11376   0.944   4.239  11.953 -0.1664  0.0539  0.3148
   83MOL0     C11377   1.044   4.271  12.064 -0.2587  0.7659  0.2072
   83MOL0     C11378   1.064   4.431  12.063 -0.2297  0.1288  0.6469
   83MOL0     C11379   1.044   4.489  12.209 -0.5644  1.2791 -1.2492
   83MOL0     C11380   0.923   4.431  12.270  0.4617 -0.1438 -0.3395
   83MOL0     C11381   0.812   4.386  12.311  0.5222  0.1653 -0.3071
   83MOL0     C11382   0.908   4.322  11.640 -0.5784  0.1459 -0.0576
   83MOL0     C11383   0.845   4.288  11.520 -0.6036  0.2039  0.8030
   83MOL0     C11384   0.794   4.416  11.441 -0.6059  0.4616  0.6859
   83MOL0     H11385   0.733   4.184  11.070 -1.1293  1.8000 -2.1628
   83MOL0     H11386   0.578   4.126  10.861  0.9965 -0.3084  0.4626
   83MOL0     H11387   0.157   3.983  10.974  1.9629 -0.6494  1.6186
   83MOL0     H11388   0.269   3.846  10.951 -2.4743 -1.4883  0.8136
   83MOL0     H11389   0.228   3.831  10.724 -1.5839 -1.5226  0.5807
   83MOL0     H11390   0.076   3.828  10.809 -1.1818  0.7675 -0.1099
   83MOL0     H11391   0.008   4.034  10.746  0.3725 -0.5742 -0.2502
   83MOL0     H11392   0.165   4.089  10.739 -1.7062 -0.3864  6.6019
   83MOL0     H11393   0.143   3.994  10.500  2.6462  0.6624  2.3059
   83MOL0     H11394   0.027   3.872  10.559 -3.1288  1.2257  0.9310
   83MOL0     H11395  -0.071   4.154  10.554  0.6752 -1.0769  6.1463
   83MOL0     H11396  -0.153   4.011  10.594 -0.6361  2.7492  1.0221
   83MOL0     H11397   0.003   4.082  10.336  0.8066  0.1103  0.0150
   83MOL0     H11398  -0.088   3.934  10.364 -0.5688 -1.0758  5.2762
   83MOL0     H11399  -0.207   4.207  10.341  1.8092  0.0832 -0.3547
   83MOL0     H11400  -0.292   4.057  10.396 -0.3060 -2.0044 -0.4362
   83MOL0     H11401  -0.287   3.957  10.187  0.1486  0.9655  1.0673
   83MOL0     H11402  -0.332   4.124  10.172  0.2785  2.5597  1.1480
   83MOL0     H11403  -0.242   4.272  10.021  0.8654 -0.2689 -1.8137
   83MOL0     H11404   0.077   4.277   9.781  1.3571  2.2942  1.3199
   83MOL0     H11405   0.017   4.411   9.858  1.1987 -1.3939 -0.0053
   83MOL0     H11406  -0.155   4.212   9.715  0.5526 -1.3701  1.9937
   83MOL0     H11407  -0.219   4.359   9.783  3.5309 -0.1338  4.7227
   83MOL0     H11408  -0.068   4.492   9.637 -1.0434  0.3700 -1.1982
   83MOL0     H11409  -0.029   4.345   9.552 -0.3576 -1.0263  0.2390
   83MOL0     H11410  -0.204   4.480   9.422 -0.5012 -3.6446 -2.2009
   83MOL0     H11411  -0.292   4.340   9.477  0.8226 -0.9520 -0.8746
   83MOL0     H11412  -0.191   4.710   9.703  4.0647  0.6163 -4.5118
   83MOL0     H11413  -0.297   5.015   9.790  0.2307  1.2719 -1.4641
   83MOL0     H11414  -0.175   5.062   9.668 -1.3887  1.6917  1.5207
   83MOL0     H11415  -0.146   4.920   9.775 -0.6904 -1.1237  1.4240
   83MOL0     H11416  -0.652   5.262   9.582 -0.4652 -0.2007  1.9125
   83MOL0     H11417  -0.714   5.501   9.611  0.8830  1.7309  1.9670
   83MOL0     H11418  -0.410   5.863   9.597  0.5401 -0.2763 -0.1515
   83MOL0     H11419  -0.415   5.766   9.458 -2.3384 -3.5006 -0.6472
   83MOL0     H11420  -0.665   5.916   9.556  1.4950  0.5402  0.3499
   83MOL0     H11421  -0.563   5.953   9.422  0.6433  0.7203  1.0343
   83MOL0     H11422  -0.765   5.855   9.340 -1.1377 -0.4832  0.4999
   83MOL0     H11423  -0.751   5.717   9.441 -0.4821 -0.9559 -1.7570
   83MOL0     H11424  -0.682   5.638   9.228 -1.1503  1.5834 -1.4657
   83MOL0     H11425  -0.534   5.646   9.301 -1.3919 -2.5073 -1.2172
   83MOL0     H11426  -0.462   5.842   9.206  0.1734  0.0434  1.8904
   83MOL0     H11427  -0.501   5.728   9.085  3.3047 -0.8170  0.8662
   83MOL0     H11428  -0.652   5.994   9.165 -0.7425  2.7968 -3.3243
   83MOL0     H11429  -0.739   5.867   9.078 -0.2556  0.6001 -0.1679
   83MOL0     H11430  -0.565   5.879   8.892 -2.5460  0.7659 -0.1422
   83MOL0     H11431  -0.492   6.006   8.988  0.9936 -1.0861 -0.9701
   83MOL0     H11432  -0.643   6.127   8.833 -1.9667  0.0066 -0.0848
   83MOL0     H11433  -0.722   6.114   8.981 -0.0255  2.6508 -1.6147
   83MOL0     H11434  -0.294   5.608   9.585  1.6926 -0.1108  4.7341
   83MOL0     H11435  -0.236   5.365   9.556 -0.8208 -2.3004 -0.5088
   83MOL0     H11436  -0.520   4.860   9.369 -0.6966  0.5996  0.4141
   83MOL0     H11437  -0.491   4.620   9.427  1.1941 -0.2909 -1.0979
   83MOL0     H11438   0.265   4.032  11.138 -0.7319  0.1834  0.0839
   83MOL0     H11439   0.396   4.117  11.324 -0.3658  0.3186 -0.3924
   83MOL0     H11440   0.928   3.955  11.508  1.2002 -2.0097  0.9863
   83MOL0     H11441   1.009   4.017  11.737 -2.4994 -1.1755  0.8146
   83MOL0     H11442   0.846   4.286  11.965 -0.0108 -0.2066  3.2670
   83MOL0     H11443   0.915   4.134  11.954 -0.6647  0.1212 -1.8720
   83MOL0     H11444   1.135   4.213  12.046  0.0623  1.2905  0.1141
   83MOL0     H11445   1.001   4.230  12.156 -0.3706 -2.5054 -1.1631
   83MOL0     H11446   1.166   4.464  12.039  0.0597 -2.2222 -1.7989
   83MOL0     H11447   0.994   4.483  11.998  0.5102  0.7828  0.3449
   83MOL0     H11448   1.035   4.598  12.203  0.4076  1.4587  0.1006
   83MOL0     H11449   1.126   4.465  12.278 -1.0638 -0.1546 -1.1254
   83MOL0     H11450   0.724   4.337  12.347 -0.6190  1.4777 -1.2254
   83MOL0     H11451   0.927   4.425  11.668  2.0880 -0.3417  0.1698
   83MOL0     H11452   0.744   4.386  11.349 -1.1521 -1.2850  1.5060
   83MOL0     H11453   0.717   4.463  11.502 -0.4658  2.2834 -0.4698
   83MOL0     H11454   0.877   4.483  11.417 -0.8746 -0.1400 -2.2850
   84MOL0     O11455   6.043   3.208   2.736 -0.7947 -0.3704 -0.5870
   84MOL0     C11456   6.137   3.243   2.672  0.6751 -0.3625 -0.4164
   84MOL0     O11457   6.205   3.367   2.688 -0.8399  0.5920  0.0219
   84MOL0     C11458   6.140   3.470   2.759  0.5032 -0.2904  0.4085
   84MOL0     C11459   6.133   3.481   2.898  0.2832  0.1298 -0.0179
   84MOL0     C11460   6.104   3.606   2.965  0.2372  0.3593 -0.3292
   84MOL0     C11461   6.082   3.724   2.892 -0.2432  0.1101  0.4010
   84MOL0     O11462   6.055   3.852   2.938 -0.1390 -0.6521 -0.1225
   84MOL0     C11463   6.049   3.871   3.078  0.1305  0.3639 -0.9763
   84MOL0     C11464   5.935   3.795   3.151  0.2882  0.2120  0.0371
   84MOL0     C11465   5.788   3.853   3.140  0.1148  0.6039  0.1585
   84MOL0     C11466   5.694   3.737   3.172 -0.1012  0.1915  0.4483
   84MOL0     C11467   5.550   3.786   3.192 -0.6030 -0.5261  0.0732
   84MOL0     C11468   5.453   3.662   3.192  1.0831 -0.1828 -1.2344
   84MOL0     C11469   5.471   3.551   3.309 -0.5122  1.3572  0.5003
   84MOL0     C11470   5.493   3.620   3.442  0.2711 -0.7525  0.4164
   84MOL0     N11471   5.518   3.542   3.563 -0.5188 -0.1578 -0.8246
   84MOL0     C11472   5.592   3.436   3.571 -0.0097  0.1681  1.0299
   84MOL0     C11473   5.623   3.414   3.697 -0.5095 -0.1049  0.4421
   84MOL0     C11474   5.705   3.303   3.757  0.1597 -0.5680 -0.5299
   84MOL0     C11475   5.763   3.203   3.646 -0.1488 -0.4452  0.5961
   84MOL0     C11476   5.798   3.059   3.703 -0.6014  0.0219  0.6118
   84MOL0     C11477   5.894   2.993   3.603  1.1633 -0.7682 -0.2812
   84MOL0     O11478   5.960   2.884   3.662 -0.0282 -0.3023  0.2765
   84MOL0     C11479   6.044   2.807   3.584 -0.2313 -0.5065 -0.1014
   84MOL0     C11480   6.087   2.836   3.453  0.0800 -0.4276 -0.1991
   84MOL0     C11481   6.171   2.739   3.390  0.7907 -0.0343 -0.6995
   84MOL0     C11482   6.202   2.766   3.246 -0.3065  0.5520 -0.2248
   84MOL0     C11483   6.220   2.624   3.456 -0.1058  0.0521 -0.3230
   84MOL0     C11484   6.309   2.520   3.404  0.0643  0.4953 -0.0819
   84MOL0     O11485   6.381   2.466   3.499  0.3546 -0.1301 -0.2720
   84MOL0     C11486   6.438   2.344   3.494  0.1124 -1.0231  0.1348
   84MOL0     C11487   6.377   2.244   3.567 -0.0681  0.4329 -1.1756
   84MOL0     C11488   6.442   2.115   3.570  0.7046  0.2854 -0.1403
   84MOL0     C11489   6.544   2.082   3.476 -0.8858 -1.4842  0.7256
   84MOL0     O11490   6.605   1.959   3.462 -0.2183  0.0919  0.5286
   84MOL0     C11491   6.558   1.848   3.543  0.2714  0.2337 -0.1551
   84MOL0     C11492   6.587   1.716   3.475  0.5836  0.0696  0.5223
   84MOL0     C11493   6.508   1.606   3.529  1.5886  0.3349  0.2990
   84MOL0     C11494   6.364   1.609   3.474 -0.2662  0.4838  0.2547
   84MOL0     C11495   6.285   1.480   3.512 -0.2043 -0.6742  0.7309
   84MOL0     C11496   6.151   1.472   3.429  0.3201  0.6022  0.8205
   84MOL0     C11497   6.076   1.346   3.467 -0.4430  0.2237  0.6151
   84MOL0     C11498   5.962   1.329   3.363  0.4210 -0.2534 -0.6115
   84MOL0    Cl11499   5.827   1.453   3.368 -0.0451 -0.1246  0.5252
   84MOL0     C11500   6.591   2.182   3.394 -0.0392 -0.3164  0.3959
   84MOL0     C11501   6.545   2.310   3.407  0.1320 -0.8786 -0.1811
   84MOL0     O11502   6.312   2.486   3.288 -0.1236  0.0337  0.3981
   84MOL0     C11503   6.172   2.598   3.585  0.4156  1.1129  0.0457
   84MOL0     C11504   6.085   2.687   3.649 -0.1156 -0.0444  0.6004
   84MOL0     N11505   5.542   3.498   3.770 -0.2407 -0.3059 -0.4182
   84MOL0     N11506   5.489   3.576   3.687 -0.2313 -0.4539 -0.3801
   84MOL0     C11507   6.091   3.719   2.753  0.2582  0.1029  0.0360
   84MOL0     C11508   6.110   3.594   2.682  0.6214 -0.0529 -0.0836
   84MOL0     C11509   6.166   3.163   2.548 -0.6762  0.9525  0.1007
   84MOL0     C11510   6.211   3.236   2.432  0.0535 -0.4041  0.0984
   84MOL0     C11511   6.235   3.172   2.311 -0.4885 -0.3430  1.1395
   84MOL0     C11512   6.200   3.034   2.300 -0.2891  0.2292 -0.1885
   84MOL0     O11513   6.225   2.957   2.188 -0.7513  0.4909  0.7036
   84MOL0     C11514   6.298   3.011   2.077  0.2684 -0.3788  0.3725
   84MOL0     C11515   6.210   3.098   1.981  0.1474  0.2512 -0.3330
   84MOL0     C11516   6.110   3.017   1.895  0.1309  0.4833  0.1768
   84MOL0     C11517   6.024   3.110   1.805 -0.3724  0.2543 -0.4960
   84MOL0     C11518   5.910   3.032   1.741 -0.1204  0.6677  0.8284
   84MOL0     C11519   5.824   2.961   1.686  0.7402  0.2514 -0.6533
   84MOL0     C11520   6.157   2.960   2.409 -0.2489 -0.2587  0.5827
   84MOL0     C11521   6.139   3.024   2.528  0.4681 -0.2317  0.0022
   84MOL0     C11522   6.092   2.929   2.649 -0.5491  0.6300  0.6538
   84MOL0     H11523   6.163   3.395   2.958  0.3038  0.9590  1.1874
   84MOL0     H11524   6.111   3.603   3.073 -0.5922 -1.2082 -0.2883
   84MOL0     H11525   6.036   3.976   3.105  0.3651  0.2053 -0.2383
   84MOL0     H11526   6.139   3.839   3.130 -0.0315  0.3215 -0.7202
   84MOL0     H11527   5.940   3.689   3.122  2.9654  0.0286  0.9012
   84MOL0     H11528   5.953   3.810   3.258  1.3635  2.9544 -0.4428
   84MOL0     H11529   5.775   3.940   3.206 -0.5082  0.6957 -0.0750
   84MOL0     H11530   5.760   3.891   3.041 -2.5470  0.0719  0.6251
   84MOL0     H11531   5.699   3.648   3.108 -2.0281 -1.0575  1.9306
   84MOL0     H11532   5.732   3.707   3.271  1.2783  0.4873  0.0282
   84MOL0     H11533   5.535   3.851   3.106  4.4868 -1.0638 -1.5703
   84MOL0     H11534   5.556   3.854   3.277 -1.3732  0.0704 -0.3348
   84MOL0     H11535   5.346   3.683   3.201  1.2080 -0.3222  1.1032
   84MOL0     H11536   5.460   3.607   3.098 -3.0089 -3.5818  0.1490
   84MOL0     H11537   5.559   3.486   3.303 -1.6033 -0.0583 -2.0562
   84MOL0     H11538   5.380   3.491   3.307 -0.8228  1.7872 -2.2520
   84MOL0     H11539   5.566   3.701   3.436  0.4662 -1.0113 -1.0045
   84MOL0     H11540   5.397   3.673   3.451 -1.4401 -2.6207 -3.9242
   84MOL0     H11541   5.633   3.396   3.479 -1.2556  2.3315 -0.5585
   84MOL0     H11542   5.653   3.253   3.839 -1.1394 -0.5353 -1.3087
   84MOL0     H11543   5.779   3.365   3.809  0.1967  0.6457 -1.9737
   84MOL0     H11544   5.685   3.198   3.570 -0.8273 -0.4024  1.2838
   84MOL0     H11545   5.850   3.247   3.596 -1.6623 -0.5145 -2.3271
   84MOL0     H11546   5.850   3.084   3.797  0.5048  2.4257 -0.5624
   84MOL0     H11547   5.714   2.996   3.734  1.5828 -2.0158  2.8659
   84MOL0     H11548   5.839   2.966   3.512  2.3644 -0.8750 -0.9890
   84MOL0     H11549   5.983   3.051   3.579  2.3725 -2.2595  0.4561
   84MOL0     H11550   6.066   2.927   3.397  0.8465 -2.1451 -3.4993
   84MOL0     H11551   6.135   2.846   3.215 -2.0483  0.0533  2.0208
   84MOL0     H11552   6.179   2.678   3.186 -1.3256  1.4558 -1.2055
   84MOL0     H11553   6.310   2.787   3.256 -0.0907 -1.3404  2.2941
   84MOL0     H11554   6.297   2.272   3.634 -1.6534  0.9287 -3.1668
   84MOL0     H11555   6.404   2.049   3.647  3.6763 -3.3504 -1.4809
   84MOL0     H11556   6.604   1.850   3.642 -2.6502 -1.1627  1.3788
   84MOL0     H11557   6.449   1.858   3.551  0.0976 -1.1348 -0.4992
   84MOL0     H11558   6.579   1.723   3.366  0.0883  1.5038  0.6307
   84MOL0     H11559   6.691   1.687   3.494  0.7058 -1.8141 -2.3105
   84MOL0     H11560   6.501   1.617   3.638 -2.4010  0.1619  0.2227
   84MOL0     H11561   6.551   1.514   3.488  0.9759 -1.0645  2.5651
   84MOL0     H11562   6.358   1.611   3.365  0.9857  1.7365  0.1775
   84MOL0     H11563   6.316   1.691   3.528  0.5030 -0.0296  1.8046
   84MOL0     H11564   6.348   1.394   3.484  2.3459  0.0163  3.7836
   84MOL0     H11565   6.262   1.488   3.618  1.5794  1.7376  1.0179
   84MOL0     H11566   6.165   1.465   3.321 -1.5527 -4.2216  0.6372
   84MOL0     H11567   6.096   1.563   3.457  1.0408  1.8984 -1.6673
   84MOL0     H11568   6.028   1.339   3.566 -1.6562 -2.0010 -0.0515
   84MOL0     H11569   6.142   1.259   3.461  0.0738  0.4350  2.5015
   84MOL0     H11570   5.910   1.233   3.370 -0.1916 -0.0068 -1.5974
   84MOL0     H11571   6.008   1.336   3.264 -0.2199 -0.0642 -0.8968
   84MOL0     H11572   6.662   2.152   3.318  0.5261 -2.2327  1.6032
   84MOL0     H11573   6.582   2.380   3.333  1.0690  2.2918  3.0008
   84MOL0     H11574   6.182   2.498   3.629  1.1457  1.9731  1.9709
   84MOL0     H11575   6.041   2.665   3.746 -1.5259 -1.1294 -0.2461
   84MOL0     H11576   6.070   3.811   2.700 -0.8102 -0.0026  0.2589
   84MOL0     H11577   6.127   3.587   2.575 -4.3460  0.1633 -1.0932
   84MOL0     H11578   6.223   3.344   2.439 -3.4360  0.1504 -0.7646
   84MOL0     H11579   6.268   3.222   2.221 -1.6022  1.1259  1.5091
   84MOL0     H11580   6.391   3.055   2.115  0.3397 -0.0862 -0.1262
   84MOL0     H11581   6.348   2.924   2.035  1.0266 -1.4730  3.3129
   84MOL0     H11582   6.281   3.150   1.916 -0.2071 -0.2806 -1.1562
   84MOL0     H11583   6.148   3.170   2.036  1.6286  1.5586 -0.2813
   84MOL0     H11584   6.155   2.937   1.836 -3.0621 -1.1146 -0.3603
   84MOL0     H11585   6.033   2.976   1.962  0.2516 -2.4311 -1.2843
   84MOL0     H11586   6.090   3.158   1.731 -1.7865  0.2439 -1.8154
   84MOL0     H11587   5.983   3.196   1.857 -0.9584 -0.7057  0.6781
   84MOL0     H11588   5.746   2.908   1.635 -0.0675  0.9349 -0.1440
   84MOL0     H11589   6.133   2.855   2.395 -0.6610 -0.3592  1.9162
   84MOL0     H11590   6.129   2.969   2.744  1.5371  0.9702 -0.2463
   84MOL0     H11591   5.983   2.931   2.649 -0.5471  2.5304  0.0853
   84MOL0     H11592   6.125   2.828   2.623  0.2362  1.4534 -1.8797
   85MOL0     O11593   2.745   1.016   8.109 -0.6455  0.0266 -0.3568
   85MOL0     C11594   2.674   1.116   8.092 -0.7278 -0.3112 -0.7978
   85MOL0     O11595   2.535   1.112   8.091 -0.9973  0.1330  0.7805
   85MOL0     C11596   2.487   0.991   8.128 -0.3616  0.2906 -0.9092
   85MOL0     C11597   2.462   0.899   8.028 -0.8657 -0.0753 -0.3287
   85MOL0     C11598   2.419   0.766   8.062  0.2492  0.6490  0.1503
   85MOL0     C11599   2.393   0.725   8.199 -0.0987  0.7904 -0.1368
   85MOL0     O11600   2.350   0.594   8.241  0.2228  0.1001 -0.3899
   85MOL0     C11601   2.309   0.497   8.137 -0.4164 -0.5081 -0.0361
   85MOL0     C11602   2.164   0.530   8.110 -0.0045 -0.9894 -0.2093
   85MOL0     C11603   2.107   0.468   7.987 -0.5468  0.9293  0.2221
   85MOL0     C11604   1.965   0.408   7.999 -0.6915  0.9148  0.6894
   85MOL0     C11605   1.890   0.417   7.869  0.3758 -0.3883 -0.2206
   85MOL0     C11606   1.742   0.356   7.895 -1.0278 -0.3490 -0.0823
   85MOL0     C11607   1.663   0.388   7.768  1.0354 -0.6481  0.0825
   85MOL0     C11608   1.529   0.320   7.777  0.5967 -0.3179 -0.1968
   85MOL0     N11609   1.532   0.176   7.787 -0.6962 -0.3764 -0.2632
   85MOL0     C11610   1.488   0.099   7.683  1.0392  0.7237  0.2054
   85MOL0     C11611   1.493  -0.027   7.710 -1.0758  0.0070 -1.2377
   85MOL0     C11612   1.451  -0.135   7.634 -0.4594 -0.3360 -0.5088
   85MOL0     C11613   1.572  -0.210   7.595  0.5442 -0.3944  0.4378
   85MOL0     C11614   1.528  -0.311   7.485  0.6621  0.1913  1.1674
   85MOL0     C11615   1.654  -0.395   7.441  0.7164  1.0595  0.4519
   85MOL0     O11616   1.631  -0.521   7.372 -0.2594 -1.1111 -0.0343
   85MOL0     C11617   1.547  -0.501   7.258 -0.5685 -0.2396  0.9492
   85MOL0     C11618   1.570  -0.411   7.153 -0.3306 -0.0410  0.0054
   85MOL0     C11619   1.486  -0.415   7.038  0.2574 -0.7331  0.6182
   85MOL0     C11620   1.516  -0.313   6.936  0.7530  0.6882  0.9584
   85MOL0     C11621   1.387  -0.511   7.017  0.7733 -0.0889 -0.3199
   85MOL0     C11622   1.299  -0.526   6.901  0.2205 -0.1341 -0.1783
   85MOL0     O11623   1.208  -0.630   6.913  0.6796  0.1626  0.3398
   85MOL0     C11624   1.136  -0.661   6.801  0.5045  0.7591 -0.0760
   85MOL0     C11625   1.009  -0.623   6.802  0.1131  0.8326  0.2259
   85MOL0     C11626   0.925  -0.652   6.693 -0.0754 -0.3037  0.9676
   85MOL0     C11627   0.973  -0.719   6.574 -0.1322  0.6619  0.3502
   85MOL0     O11628   0.876  -0.738   6.469 -0.4800 -1.4216  0.6940
   85MOL0     C11629   0.905  -0.821   6.360 -0.2338  0.2809 -0.4253
   85MOL0     C11630   0.987  -0.751   6.255 -1.1866 -0.7579  1.0063
   85MOL0     C11631   1.079  -0.838   6.162  0.8307  0.2905 -0.9626
   85MOL0     C11632   0.990  -0.952   6.108 -0.3316  0.0115  0.1841
   85MOL0     C11633   0.893  -0.894   6.006 -0.2409 -0.0658  0.0247
   85MOL0     C11634   0.782  -0.986   5.963 -0.9190  0.4146 -0.4332
   85MOL0     C11635   0.815  -1.088   5.857  0.3991  0.8579  0.0279
   85MOL0     C11636   0.705  -1.191   5.855  0.4579  0.3211  0.2552
   85MOL0    Cl11637   0.766  -1.334   5.759 -0.0921 -0.2590 -0.4525
   85MOL0     C11638   1.111  -0.745   6.568 -0.3769 -1.1834  0.1267
   85MOL0     C11639   1.190  -0.717   6.681 -0.3583 -1.3746  0.5158
   85MOL0     O11640   1.326  -0.468   6.797  0.2800 -0.4493  0.0258
   85MOL0     C11641   1.357  -0.595   7.130 -0.3537 -0.1157  0.4951
   85MOL0     C11642   1.441  -0.596   7.239 -0.3560 -0.2973 -1.2001
   85MOL0     N11643   1.536  -0.023   7.842  0.0618  0.1727  0.6505
   85MOL0     N11644   1.549   0.095   7.893 -0.2276 -0.9788 -0.4334
   85MOL0     C11645   2.392   0.822   8.295  0.1329 -0.2841  0.6618
   85MOL0     C11646   2.446   0.952   8.264  1.0102  0.1977  0.2992
   85MOL0     C11647   2.734   1.238   8.029  0.3391  0.1394  0.2947
   85MOL0     C11648   2.638   1.317   7.971  0.0070 -0.3468  1.2168
   85MOL0     C11649   2.674   1.438   7.908 -0.0266 -0.7635  0.6833
   85MOL0     C11650   2.804   1.491   7.908 -0.1379  1.7258  0.0693
   85MOL0     O11651   2.825   1.601   7.842 -0.3485 -0.5137 -0.1444
   85MOL0     C11652   2.902   1.709   7.915  0.3805  0.4030 -0.1052
   85MOL0     C11653   2.812   1.830   7.920 -0.1465 -0.3106  0.2922
   85MOL0     C11654   2.774   1.870   7.777  0.2504 -0.2893  0.2074
   85MOL0     C11655   2.741   2.020   7.755  0.9040  1.0005  0.1119
   85MOL0     C11656   2.798   2.057   7.626 -1.0452 -0.1185 -0.2131
   85MOL0     C11657   2.830   2.117   7.519 -0.3906  0.7366 -1.3698
   85MOL0     C11658   2.899   1.399   7.955 -0.4484  0.1685  0.6226
   85MOL0     C11659   2.868   1.277   8.029  0.5803 -0.0280  0.0731
   85MOL0     C11660   2.977   1.193   8.085  0.2914 -0.8770  0.4867
   85MOL0     H11661   2.486   0.946   7.933 -2.1893  0.0807 -0.5966
   85MOL0     H11662   2.405   0.698   7.978 -0.0880  3.0312 -1.8317
   85MOL0     H11663   2.300   0.395   8.176 -0.3282  0.1580  1.7984
   85MOL0     H11664   2.376   0.508   8.052  1.8481 -0.0785  1.7228
   85MOL0     H11665   2.113   0.487   8.197  1.9910 -2.6724  0.2244
   85MOL0     H11666   2.153   0.638   8.102 -0.5090 -1.0058  0.2039
   85MOL0     H11667   2.101   0.540   7.904 -1.7756 -3.0103 -3.4687
   85MOL0     H11668   2.172   0.396   7.937 -1.9838  0.9356 -1.7795
   85MOL0     H11669   1.971   0.301   8.023 -0.0218  0.4808 -1.1896
   85MOL0     H11670   1.907   0.459   8.075 -0.2595  2.5543 -0.0418
   85MOL0     H11671   1.932   0.364   7.783  2.6842  2.0233 -0.7012
   85MOL0     H11672   1.868   0.523   7.850  0.3185 -0.8741 -3.4627
   85MOL0     H11673   1.758   0.249   7.907 -0.5538 -0.8070 -3.6812
   85MOL0     H11674   1.698   0.406   7.982  0.1819  4.3463 -1.8762
   85MOL0     H11675   1.719   0.369   7.676 -2.4388  1.6498 -2.7503
   85MOL0     H11676   1.658   0.497   7.763  1.2124 -0.6721 -0.6775
   85MOL0     H11677   1.466   0.356   7.859  0.7018 -2.6750  0.9862
   85MOL0     H11678   1.477   0.339   7.682  0.6591  3.3702  0.3461
   85MOL0     H11679   1.434   0.134   7.595 -1.3073  1.7634  1.9308
   85MOL0     H11680   1.414  -0.095   7.539  1.0356  0.7105 -0.6938
   85MOL0     H11681   1.385  -0.188   7.702  0.8091  2.0585  2.8811
   85MOL0     H11682   1.648  -0.144   7.551  1.3347 -0.8753  1.0353
   85MOL0     H11683   1.619  -0.261   7.680  3.6578 -0.9667 -1.4600
   85MOL0     H11684   1.464  -0.389   7.529  2.5132 -0.5755  2.6472
   85MOL0     H11685   1.494  -0.257   7.397  0.2287 -1.2282  0.4279
   85MOL0     H11686   1.716  -0.325   7.384  2.5092  0.2872  1.3915
   85MOL0     H11687   1.716  -0.407   7.530 -0.0085 -1.3052  0.7200
   85MOL0     H11688   1.650  -0.338   7.149 -0.7519  0.4408  0.3066
   85MOL0     H11689   1.435  -0.265   6.880  1.5262 -0.3043 -1.1108
   85MOL0     H11690   1.586  -0.358   6.865 -1.3291 -2.1005  0.4878
   85MOL0     H11691   1.578  -0.239   6.987  0.4943  0.3434  1.7972
   85MOL0     H11692   0.973  -0.579   6.895 -1.7403  0.0147 -0.0449
   85MOL0     H11693   0.827  -0.605   6.692  1.2539  2.7299 -0.2319
   85MOL0     H11694   0.954  -0.915   6.387 -2.3236 -1.2650 -1.5958
   85MOL0     H11695   0.813  -0.858   6.312 -0.0392 -1.5478  0.4965
   85MOL0     H11696   0.921  -0.687   6.195 -1.0263 -1.8219 -0.3508
   85MOL0     H11697   1.048  -0.673   6.302 -2.5069  0.2784  1.0574
   85MOL0     H11698   1.154  -0.893   6.220 -1.2224 -1.8759 -0.2179
   85MOL0     H11699   1.130  -0.791   6.077  0.6030  0.0678 -1.2211
   85MOL0     H11700   0.925  -0.990   6.188 -2.8657  3.0181 -0.2525
   85MOL0     H11701   1.057  -1.020   6.055  1.2782  0.5623  1.4284
   85MOL0     H11702   0.844  -0.807   6.051 -1.1209  0.3878 -1.7194
   85MOL0     H11703   0.950  -0.863   5.918  0.4113  0.4225  0.6052
   85MOL0     H11704   0.697  -0.931   5.922 -3.0261 -3.1490 -1.2969
   85MOL0     H11705   0.747  -1.035   6.054 -2.3510  0.0862 -1.1327
   85MOL0     H11706   0.910  -1.138   5.873  1.9263  2.5082 -3.0931
   85MOL0     H11707   0.831  -1.046   5.757  0.6971 -2.3212 -1.3600
   85MOL0     H11708   0.616  -1.154   5.803  2.3481  0.4376 -3.1685
   85MOL0     H11709   0.691  -1.229   5.957  0.5848  1.2478  0.6250
   85MOL0     H11710   1.151  -0.787   6.476 -1.9668  0.8522 -1.5883
   85MOL0     H11711   1.294  -0.745   6.680 -0.4042 -1.5410  0.3301
   85MOL0     H11712   1.278  -0.670   7.138 -2.3960  1.5901 -1.9036
   85MOL0     H11713   1.409  -0.655   7.324  0.8284  0.5048 -0.1633
   85MOL0     H11714   2.356   0.805   8.397  0.7460 -1.6846  0.6710
   85MOL0     H11715   2.457   1.029   8.339 -1.0040 -2.0960  3.1801
   85MOL0     H11716   2.531   1.299   7.965  0.1982 -1.1966 -0.0742
   85MOL0     H11717   2.605   1.487   7.841  1.2821 -1.5424 -1.3467
   85MOL0     H11718   2.917   1.687   8.021 -0.2571  1.4683  0.2262
   85MOL0     H11719   2.996   1.738   7.868  0.8866 -0.2116  0.4996
   85MOL0     H11720   2.864   1.915   7.967 -1.9193  0.5443  0.7977
   85MOL0     H11721   2.726   1.811   7.985  0.5129  2.8266  2.3411
   85MOL0     H11722   2.850   1.831   7.708 -0.3606 -1.6880  0.2879
   85MOL0     H11723   2.678   1.821   7.756 -3.1526  4.7809  2.1112
   85MOL0     H11724   2.782   2.086   7.832  4.1526 -0.3916 -0.2792
   85MOL0     H11725   2.635   2.035   7.734  1.0552  1.0621 -0.6097
   85MOL0     H11726   2.854   2.167   7.428  4.1847  1.6235  0.0513
   85MOL0     H11727   3.004   1.407   7.929 -1.0895 -0.8145 -2.6922
   85MOL0     H11728   2.959   1.208   8.192 -1.4308  0.6877  0.0345
   85MOL0     H11729   2.968   1.090   8.050  1.0847 -0.3808 -1.3074
   85MOL0     H11730   3.080   1.221   8.060 -0.6367  1.3420 -1.2275
   86MOL0     O11731   1.838   8.923   7.507  0.0196 -0.4955  1.1547
   86MOL0     C11732   1.910   8.951   7.598  0.3035 -0.3028 -0.4898
   86MOL0     O11733   1.927   8.882   7.720  0.1174  0.7862  0.3508
   86MOL0     C11734   1.871   8.761   7.760  0.4640 -0.0658 -0.6427
   86MOL0     C11735   1.856   8.739   7.902 -1.0663 -0.0946 -0.5657
   86MOL0     C11736   1.827   8.612   7.948 -0.0846  0.5958  0.8607
   86MOL0     C11737   1.775   8.513   7.862  0.3211  0.6420  0.1266
   86MOL0     O11738   1.715   8.404   7.919  0.3971 -0.2964 -0.5614
   86MOL0     C11739   1.656   8.304   7.834  0.4108  0.4438 -0.6508
   86MOL0     C11740   1.566   8.216   7.910  0.1388 -0.2327  0.6481
   86MOL0     C11741   1.453   8.298   7.978  0.1577  0.3432  1.1578
   86MOL0     C11742   1.376   8.219   8.081 -0.3540 -0.6014 -1.0397
   86MOL0     C11743   1.464   8.207   8.203  0.0672 -0.1896  0.5886
   86MOL0     C11744   1.381   8.126   8.317 -0.6072  0.6842 -1.0632
   86MOL0     C11745   1.281   8.216   8.400 -0.7535 -0.0038 -0.3543
   86MOL0     C11746   1.366   8.302   8.497 -0.7629  0.0533 -0.3433
   86MOL0     N11747   1.378   8.232   8.630 -0.5074  0.0821  1.3400
   86MOL0     C11748   1.282   8.193   8.717  0.2376  0.5649  0.0871
   86MOL0     C11749   1.349   8.128   8.822 -0.8591 -0.1356  1.1024
   86MOL0     C11750   1.290   8.085   8.950 -0.0209 -0.1435  1.0570
   86MOL0     C11751   1.311   8.179   9.069 -0.2988  0.0713 -0.1648
   86MOL0     C11752   1.271   8.324   9.029  0.0381  0.9781 -0.2959
   86MOL0     C11753   1.281   8.415   9.148  0.4904  0.0336 -0.0506
   86MOL0     O11754   1.406   8.405   9.214 -0.6802  0.0376  0.4134
   86MOL0     C11755   1.483   8.511   9.239  0.3722  0.9392  1.0190
   86MOL0     C11756   1.548   8.520   9.352  0.4128  0.0030  0.3700
   86MOL0     C11757   1.645   8.610   9.379 -0.4013  0.0700 -0.6502
   86MOL0     C11758   1.707   8.585   9.513 -0.5787 -0.2313 -0.6118
   86MOL0     C11759   1.675   8.714   9.282  0.3925  0.3310 -0.0764
   86MOL0     C11760   1.771   8.815   9.312 -1.3986 -0.6189 -0.6843
   86MOL0     O11761   1.907   8.809   9.311  0.0386  0.0206  0.0701
   86MOL0     C11762   1.971   8.690   9.266  0.0774 -1.1522 -0.3233
   86MOL0     C11763   1.936   8.652   9.134 -0.2219 -0.4393 -0.0157
   86MOL0     C11764   1.976   8.527   9.092  1.1593 -0.8187 -0.7245
   86MOL0     C11765   2.049   8.444   9.174  0.6224 -0.7598 -0.3000
   86MOL0     O11766   2.077   8.334   9.110 -0.7492  0.0176 -0.4905
   86MOL0     C11767   2.172   8.244   9.178  0.2670 -0.1853  0.0433
   86MOL0     C11768   2.228   8.150   9.067 -0.4438  0.4441  0.6191
   86MOL0     C11769   2.300   8.036   9.141 -0.3334  0.0531 -0.0902
   86MOL0     C11770   2.373   7.936   9.056  0.5871  0.3039 -0.5313
   86MOL0     C11771   2.279   7.843   8.974 -0.3611  1.4759  1.0986
   86MOL0     C11772   2.376   7.761   8.876  0.7440 -0.0944 -0.3637
   86MOL0     C11773   2.397   7.841   8.755  0.1757 -0.2765  0.4348
   86MOL0     C11774   2.458   7.754   8.634  0.4100  0.3057 -0.6465
   86MOL0    Cl11775   2.474   7.886   8.503  0.2941  0.0600  0.1125
   86MOL0     C11776   2.083   8.488   9.305 -0.0289 -0.2261 -0.0017
   86MOL0     C11777   2.046   8.606   9.354 -0.5761 -0.2633  0.2065
   86MOL0     O11778   1.712   8.923   9.344 -1.0539  0.4217 -0.5765
   86MOL0     C11779   1.606   8.698   9.149 -1.0128 -0.5660 -1.4353
   86MOL0     C11780   1.512   8.601   9.134 -1.3413  0.4909 -0.3641
   86MOL0     N11781   1.480   8.117   8.788  0.1283  0.4055  0.1955
   86MOL0     N11782   1.500   8.192   8.679 -1.3332  0.1823  0.4071
   86MOL0     C11783   1.775   8.542   7.720 -0.5253  0.6225  0.5831
   86MOL0     C11784   1.836   8.654   7.673 -0.0147  0.1944 -0.1490
   86MOL0     C11785   1.997   9.073   7.579  0.4927  0.1313  0.2697
   86MOL0     C11786   2.058   9.087   7.448 -0.0183 -0.1608  0.1119
   86MOL0     C11787   2.169   9.167   7.435  0.7659  0.3115  0.1431
   86MOL0     C11788   2.217   9.256   7.535  0.0885 -0.1771 -0.6546
   86MOL0     O11789   2.321   9.339   7.494 -0.6176  0.6110  0.5911
   86MOL0     C11790   2.422   9.358   7.592 -0.1851 -0.0794  0.4634
   86MOL0     C11791   2.544   9.416   7.529 -0.2477  0.4597  0.5017
   86MOL0     C11792   2.667   9.407   7.622  0.4662 -0.6231  0.2587
   86MOL0     C11793   2.800   9.469   7.576 -0.2521  0.9609  0.2207
   86MOL0     C11794   2.901   9.452   7.686  1.0286 -0.1584  0.7292
   86MOL0     C11795   2.984   9.453   7.773  0.0297  0.1163  0.0893
   86MOL0     C11796   2.151   9.252   7.658 -0.3984 -0.3114 -0.7984
   86MOL0     C11797   2.051   9.158   7.682  0.1838  0.1296  0.1132
   86MOL0     C11798   2.003   9.146   7.814  0.8642  0.4048  0.2638
   86MOL0     H11799   1.886   8.810   7.979 -0.4254 -1.4112  0.4435
   86MOL0     H11800   1.836   8.583   8.053  1.0954  2.0889  1.1965
   86MOL0     H11801   1.741   8.246   7.797 -2.0390 -2.4556 -2.2111
   86MOL0     H11802   1.598   8.346   7.750 -1.0326 -0.4530 -0.1389
   86MOL0     H11803   1.519   8.151   7.836  2.5247  0.4356 -1.6016
   86MOL0     H11804   1.628   8.153   7.975 -0.2237 -2.1002 -0.7272
   86MOL0     H11805   1.495   8.393   8.014  1.9105  0.7974 -1.7659
   86MOL0     H11806   1.384   8.325   7.897  1.2945 -0.2706 -0.0621
   86MOL0     H11807   1.290   8.282   8.107 -0.0114 -0.4100 -0.3343
   86MOL0     H11808   1.345   8.117   8.054 -0.9247 -1.3784  2.1393
   86MOL0     H11809   1.504   8.303   8.239 -1.5519  0.6644  0.1988
   86MOL0     H11810   1.559   8.154   8.192  0.3853  0.1121  1.7272
   86MOL0     H11811   1.311   8.045   8.294  0.3239 -0.7471  0.9106
   86MOL0     H11812   1.442   8.077   8.393 -4.1232  1.2405  2.4788
   86MOL0     H11813   1.211   8.158   8.460 -0.8568  1.0717  0.6046
   86MOL0     H11814   1.233   8.287   8.331  0.2667  0.2168 -0.8639
   86MOL0     H11815   1.460   8.335   8.452  1.1351 -0.6273  2.7984
   86MOL0     H11816   1.320   8.401   8.501  2.8849  1.9708 -1.7356
   86MOL0     H11817   1.178   8.220   8.704  0.1668  0.4523  0.4181
   86MOL0     H11818   1.302   7.980   8.978 -3.9475 -1.3576 -1.0903
   86MOL0     H11819   1.184   8.092   8.923  0.6072 -0.2362 -1.7457
   86MOL0     H11820   1.250   8.147   9.154  0.5008 -0.0120  0.3913
   86MOL0     H11821   1.417   8.181   9.096  0.5112 -0.3293 -2.9777
   86MOL0     H11822   1.333   8.357   8.945 -0.4844 -1.5866 -1.7843
   86MOL0     H11823   1.164   8.332   9.005 -1.5789  0.9497  5.4302
   86MOL0     H11824   1.264   8.518   9.113 -1.8796 -0.0152  0.7580
   86MOL0     H11825   1.202   8.375   9.212 -0.2679 -1.2334 -1.6900
   86MOL0     H11826   1.530   8.440   9.424 -5.3158  4.2959  4.7281
   86MOL0     H11827   1.644   8.628   9.591 -0.3858  1.2002 -1.2009
   86MOL0     H11828   1.812   8.617   9.507 -0.2102 -1.3518 -0.4392
   86MOL0     H11829   1.712   8.476   9.522  0.4766 -0.0608  1.6081
   86MOL0     H11830   1.858   8.710   9.087  0.2689  1.1229  1.0060
   86MOL0     H11831   1.939   8.502   8.993  0.6503  1.2938 -1.1224
   86MOL0     H11832   2.261   8.288   9.224  0.5073  0.1406 -0.7172
   86MOL0     H11833   2.119   8.186   9.254 -0.3577 -2.7077 -2.1406
   86MOL0     H11834   2.144   8.114   9.007  0.3375  1.6453 -1.3123
   86MOL0     H11835   2.284   8.205   8.990 -1.3186  1.0001  0.3712
   86MOL0     H11836   2.237   7.975   9.207  0.8702 -3.1284 -1.6930
   86MOL0     H11837   2.372   8.084   9.209 -0.3427 -1.7402  1.2544
   86MOL0     H11838   2.423   7.867   9.125 -1.6299  1.7069  2.6992
   86MOL0     H11839   2.446   8.001   9.006  0.2295  0.3089 -1.0492
   86MOL0     H11840   2.221   7.772   9.033  2.2265 -0.3833  1.5643
   86MOL0     H11841   2.210   7.892   8.905  2.3483  0.5477 -2.6183
   86MOL0     H11842   2.318   7.671   8.853 -0.1387  0.1784  0.7231
   86MOL0     H11843   2.476   7.732   8.910  0.6855  0.8558  0.6746
   86MOL0     H11844   2.469   7.921   8.773 -1.6828  1.5989 -0.1430
   86MOL0     H11845   2.308   7.892   8.717  2.0754  2.1302 -1.0647
   86MOL0     H11846   2.381   7.680   8.612 -0.1506  1.5287 -3.2359
   86MOL0     H11847   2.554   7.715   8.668  2.1870  2.6626 -2.6371
   86MOL0     H11848   2.135   8.422   9.373 -1.9886 -0.8666  0.9502
   86MOL0     H11849   2.071   8.635   9.455  0.7657 -0.6678  0.0120
   86MOL0     H11850   1.626   8.770   9.070 -2.9035  0.4689 -1.0119
   86MOL0     H11851   1.482   8.599   9.029  2.8871  1.4354 -1.7950
   86MOL0     H11852   1.747   8.467   7.646 -0.3912  2.5727 -1.5361
   86MOL0     H11853   1.853   8.676   7.568  0.5533 -1.1926 -0.3646
   86MOL0     H11854   2.036   9.016   7.369  0.9882 -1.5837  1.0636
   86MOL0     H11855   2.222   9.174   7.340 -0.6073 -1.9698 -0.8782
   86MOL0     H11856   2.377   9.427   7.665 -4.0868 -1.6772 -0.1599
   86MOL0     H11857   2.454   9.264   7.638 -1.0812 -1.5426 -1.7443
   86MOL0     H11858   2.529   9.516   7.489  0.7879  0.4281  0.0114
   86MOL0     H11859   2.561   9.352   7.442 -1.2527  3.0417 -1.7263
   86MOL0     H11860   2.632   9.453   7.715  0.2633 -1.1990  0.4664
   86MOL0     H11861   2.690   9.302   7.637 -1.2074 -1.6905 -3.4119
   86MOL0     H11862   2.778   9.575   7.557 -0.1729  1.2006  1.3808
   86MOL0     H11863   2.836   9.415   7.489 -0.5795 -2.0245  1.8112
   86MOL0     H11864   3.064   9.483   7.838  0.7178  0.7193 -1.0206
   86MOL0     H11865   2.175   9.325   7.734 -1.4963 -0.8449  0.0857
   86MOL0     H11866   1.896   9.126   7.805  1.2086 -0.6545 -2.2720
   86MOL0     H11867   2.056   9.061   7.857  1.4871  0.7756  0.2460
   86MOL0     H11868   2.013   9.229   7.884 -1.3782  0.8643  0.1140
   87MOL0     O11869   4.620   2.174   5.963 -0.9625 -0.9402 -0.1410
   87MOL0     C11870   4.584   2.244   6.056 -0.3591  0.1682 -0.3011
   87MOL0     O11871   4.668   2.316   6.129  0.0445  0.1485 -0.7080
   87MOL0     C11872   4.809   2.311   6.112 -0.3754 -0.1563  0.4319
   87MOL0     C11873   4.894   2.259   6.217 -0.4224  0.5977 -0.0548
   87MOL0     C11874   5.039   2.269   6.207  1.0331 -0.2564  0.4611
   87MOL0     C11875   5.091   2.319   6.088 -0.4910 -0.5343  0.5202
   87MOL0     O11876   5.221   2.341   6.057 -0.1367 -0.0178 -0.8646
   87MOL0     C11877   5.326   2.336   6.148  0.3183 -0.1860 -0.9221
   87MOL0     C11878   5.432   2.447   6.122  0.5444  0.1360  0.4001
   87MOL0     C11879   5.367   2.578   6.081 -0.5852 -1.0062  0.0258
   87MOL0     C11880   5.458   2.698   6.112 -0.5340  0.5222  0.5673
   87MOL0     C11881   5.599   2.683   6.049  0.4093 -1.1118 -0.8397
   87MOL0     C11882   5.654   2.820   6.048 -0.7789  0.9034 -0.4740
   87MOL0     C11883   5.783   2.824   5.959  0.3544 -0.4624  0.2456
   87MOL0     C11884   5.872   2.950   5.990 -0.0177  0.1092 -0.1552
   87MOL0     N11885   6.019   2.930   5.963  0.5263  0.5606  0.5544
   87MOL0     C11886   6.108   3.025   5.919  0.3165  0.0072 -0.3023
   87MOL0     C11887   6.226   2.964   5.893  1.6870  0.1055  0.1219
   87MOL0     C11888   6.360   3.002   5.829 -0.8643  0.1202 -1.1899
   87MOL0     C11889   6.335   3.023   5.684 -0.5889 -0.2890  0.4445
   87MOL0     C11890   6.305   2.894   5.597 -0.4072  0.2127  0.4678
   87MOL0     C11891   6.243   2.933   5.463  0.4290 -0.5486  0.9799
   87MOL0     O11892   6.339   3.004   5.396  0.0222 -0.4393 -1.0018
   87MOL0     C11893   6.303   3.050   5.267  0.8803  0.7173 -0.4053
   87MOL0     C11894   6.185   3.036   5.194 -0.7423  0.6772 -0.7771
   87MOL0     C11895   6.153   3.113   5.085  0.6899  0.6056  0.9579
   87MOL0     C11896   6.021   3.093   5.018 -0.1166 -0.5439 -0.3023
   87MOL0     C11897   6.253   3.202   5.033  0.4453 -0.7705  0.5377
   87MOL0     C11898   6.221   3.283   4.910 -0.6109  0.2592 -1.0046
   87MOL0     O11899   6.324   3.283   4.817  0.1679 -0.5955  0.0870
   87MOL0     C11900   6.294   3.340   4.696 -1.2098  0.1995  0.0709
   87MOL0     C11901   6.356   3.468   4.662  0.3063 -0.8788 -0.8531
   87MOL0     C11902   6.335   3.531   4.540 -0.2846  0.2828 -0.3733
   87MOL0     C11903   6.243   3.472   4.454  0.2526 -0.2754  0.6039
   87MOL0     O11904   6.207   3.525   4.331  0.6025  0.1398  0.1274
   87MOL0     C11905   6.186   3.663   4.324  0.3776  0.1377  0.5816
   87MOL0     C11906   6.124   3.704   4.190  0.2351 -0.7885 -0.4965
   87MOL0     C11907   6.077   3.859   4.198  0.1133  0.1348  0.1693
   87MOL0     C11908   5.972   3.898   4.095 -0.3016  0.4349 -0.0313
   87MOL0     C11909   5.971   4.052   4.074 -0.8832  0.5035  0.4595
   87MOL0     C11910   5.841   4.100   3.998  0.2311 -0.3242 -0.6968
   87MOL0     C11911   5.827   4.256   4.024  0.0140  0.7715  0.3891
   87MOL0     C11912   5.699   4.299   3.964  0.0816 -0.5407 -0.8935
   87MOL0    Cl11913   5.740   4.344   3.793  0.2533  0.3183 -0.0971
   87MOL0     C11914   6.178   3.352   4.480 -0.3345 -0.4632  0.5789
   87MOL0     C11915   6.204   3.285   4.601  0.3357 -0.1077  0.4454
   87MOL0     O11916   6.129   3.365   4.914  0.8085  0.3997 -0.3495
   87MOL0     C11917   6.377   3.206   5.092  0.0078  0.3939 -0.1293
   87MOL0     C11918   6.398   3.130   5.211  0.1682  0.3211 -0.2334
   87MOL0     N11919   6.201   2.825   5.909  0.2361  0.3206 -0.0235
   87MOL0     N11920   6.083   2.810   5.952  0.2050  0.3644  0.1724
   87MOL0     C11921   5.001   2.358   5.986  0.3834 -0.2810  0.3693
   87MOL0     C11922   4.861   2.351   5.995 -0.4713  0.0369  0.8982
   87MOL0     C11923   4.446   2.273   6.091 -0.1371  0.1746  0.4244
   87MOL0     C11924   4.404   2.405   6.088 -0.2074 -0.0485  0.5848
   87MOL0     C11925   4.269   2.443   6.126  0.1320 -0.3701 -0.1407
   87MOL0     C11926   4.176   2.341   6.165  0.0448  0.3204  0.2116
   87MOL0     O11927   4.050   2.372   6.203  0.1624 -0.2135  0.2781
   87MOL0     C11928   3.987   2.493   6.161 -0.1144  0.2247  0.0805
   87MOL0     C11929   3.841   2.464   6.138  0.0717  0.5745  0.3297
   87MOL0     C11930   3.752   2.433   6.268 -0.4968 -0.1490  0.1238
   87MOL0     C11931   3.609   2.396   6.234  0.7175  0.5165  0.4542
   87MOL0     C11932   3.554   2.342   6.358  0.0081  0.3311  0.1699
   87MOL0     C11933   3.495   2.302   6.455 -0.4783  0.4608 -0.0854
   87MOL0     C11934   4.219   2.213   6.167 -0.9492 -0.6037 -0.1880
   87MOL0     C11935   4.350   2.179   6.129 -0.9206  0.2054 -0.5648
   87MOL0     C11936   4.395   2.032   6.150  0.0876  0.1467 -0.1001
   87MOL0     H11937   4.850   2.217   6.307 -1.7170  1.5445 -0.2171
   87MOL0     H11938   5.112   2.243   6.282  2.8234  2.3835 -0.2127
   87MOL0     H11939   5.369   2.238   6.128 -0.4861 -0.3634 -1.8216
   87MOL0     H11940   5.290   2.349   6.250  1.3996  1.9091 -0.7293
   87MOL0     H11941   5.486   2.448   6.217 -2.4205  0.0803  2.2453
   87MOL0     H11942   5.494   2.417   6.037  0.0791 -1.9486  0.7215
   87MOL0     H11943   5.333   2.572   5.977  1.1250  3.4601 -1.0254
   87MOL0     H11944   5.272   2.588   6.135  0.0908 -4.2628  2.1388
   87MOL0     H11945   5.405   2.786   6.075 -0.4257  0.3048 -0.1375
   87MOL0     H11946   5.459   2.715   6.220 -3.0346 -0.1200  0.7400
   87MOL0     H11947   5.605   2.647   5.946 -0.9167  1.8092 -2.0232
   87MOL0     H11948   5.652   2.615   6.117 -2.3709 -1.0999  1.5395
   87MOL0     H11949   5.576   2.889   6.015 -0.9106  1.9078  1.7435
   87MOL0     H11950   5.682   2.847   6.150  0.6416  1.1636 -0.9124
   87MOL0     H11951   5.747   2.840   5.857  1.7147  1.0681 -0.0313
   87MOL0     H11952   5.847   2.735   5.947  1.8672  0.8635 -2.4965
   87MOL0     H11953   5.841   3.038   5.934 -3.4920 -0.4166  0.7186
   87MOL0     H11954   5.855   2.966   6.097  0.7019  1.4886 -0.2182
   87MOL0     H11955   6.088   3.129   5.892  0.8767  0.2157  0.0546
   87MOL0     H11956   6.433   2.921   5.840 -3.9821 -2.9011 -0.8021
   87MOL0     H11957   6.411   3.093   5.861 -1.2470 -0.1223  0.1535
   87MOL0     H11958   6.248   3.088   5.671  1.7779  3.4923  1.8091
   87MOL0     H11959   6.425   3.076   5.651 -2.0925  2.9696  1.1049
   87MOL0     H11960   6.395   2.834   5.580 -0.5727 -0.4551  1.7753
   87MOL0     H11961   6.236   2.826   5.648 -2.0322  2.3152  1.2141
   87MOL0     H11962   6.211   2.851   5.397  0.1442 -2.3499  3.2274
   87MOL0     H11963   6.158   2.997   5.488  2.3045  2.9524 -0.9218
   87MOL0     H11964   6.113   2.972   5.245  1.9664 -1.8139  0.1539
   87MOL0     H11965   5.970   3.188   5.038  0.2623 -0.7423  1.8154
   87MOL0     H11966   5.961   3.024   5.077  1.2004  0.5148  2.4452
   87MOL0     H11967   6.037   3.070   4.912 -0.9601 -1.3841 -0.2575
   87MOL0     H11968   6.426   3.511   4.733 -0.0376  1.7989 -2.0402
   87MOL0     H11969   6.394   3.620   4.523 -2.3271  1.6268 -0.7227
   87MOL0     H11970   6.120   3.696   4.405 -1.0297  0.1087 -0.4988
   87MOL0     H11971   6.282   3.714   4.324  1.2785 -1.4968 -0.0975
   87MOL0     H11972   6.200   3.696   4.112  2.4864 -1.1002  1.6080
   87MOL0     H11973   6.042   3.637   4.164 -1.0580  0.0721  1.1581
   87MOL0     H11974   6.170   3.916   4.196 -1.0164  2.0561 -1.4160
   87MOL0     H11975   6.038   3.882   4.298  0.1660  0.1031  0.1973
   87MOL0     H11976   5.874   3.852   4.110  0.8183 -2.3918 -0.8736
   87MOL0     H11977   6.005   3.855   4.000 -2.5871 -2.2017  0.2538
   87MOL0     H11978   5.999   4.092   4.171  0.1814 -0.7767  0.7114
   87MOL0     H11979   6.054   4.078   4.007  0.3051  0.7328  1.9867
   87MOL0     H11980   5.754   4.037   4.020 -1.6726  2.5505  0.4973
   87MOL0     H11981   5.860   4.097   3.890 -0.2960 -1.0028 -0.7796
   87MOL0     H11982   5.918   4.311   3.998  1.9866 -1.8688  1.2297
   87MOL0     H11983   5.815   4.262   4.133  1.3766 -0.9100  0.6755
   87MOL0     H11984   5.661   4.392   4.007 -1.9439  1.2463 -5.8380
   87MOL0     H11985   5.611   4.235   3.968 -0.8956  0.7800 -0.7280
   87MOL0     H11986   6.122   3.309   4.397 -0.9832 -0.6267  1.0940
   87MOL0     H11987   6.157   3.187   4.607  0.8247 -0.5080 -1.6054
   87MOL0     H11988   6.464   3.258   5.054  0.3928 -0.3657 -0.3208
   87MOL0     H11989   6.493   3.135   5.263 -0.8991 -0.0956  1.8123
   87MOL0     H11990   5.043   2.399   5.895 -0.9924 -0.9820 -0.6257
   87MOL0     H11991   4.811   2.387   5.905  0.8596 -1.3130 -0.4253
   87MOL0     H11992   4.483   2.474   6.058 -0.9661 -0.1802 -1.8752
   87MOL0     H11993   4.244   2.548   6.115 -5.4453 -1.5637 -2.4891
   87MOL0     H11994   3.998   2.567   6.241  2.0862 -1.9157  1.8964
   87MOL0     H11995   4.023   2.530   6.064 -2.0834 -1.2261 -1.2942
   87MOL0     H11996   3.828   2.386   6.062 -2.5222  0.4347  0.8107
   87MOL0     H11997   3.799   2.562   6.111  0.3551  0.7124  0.3890
   87MOL0     H11998   3.807   2.351   6.315 -2.2743 -0.8860  1.0100
   87MOL0     H11999   3.755   2.518   6.336  0.5332  0.6013 -0.8231
   87MOL0     H12000   3.609   2.322   6.154  1.2998  0.4114  0.5464
   87MOL0     H12001   3.547   2.478   6.196 -0.8947  0.2885  2.4354
   87MOL0     H12002   3.446   2.263   6.542  0.2235 -2.7138 -0.9719
   87MOL0     H12003   4.161   2.124   6.193 -1.5592  0.3651  2.0321
   87MOL0     H12004   4.502   2.019   6.132  0.6589  5.1757 -1.7632
   87MOL0     H12005   4.399   1.996   6.254  3.4763 -1.2651 -0.6101
   87MOL0     H12006   4.335   1.954   6.102  0.9007  0.2907 -1.3760
   88MOL0     O12007  11.507   4.266   8.258  0.7132 -0.1410  0.3498
   88MOL0     C12008  11.559   4.152   8.242 -0.6217 -0.0395 -0.0797
   88MOL0     O12009  11.638   4.104   8.140  0.1489  0.0090  0.6954
   88MOL0     C12010  11.678   4.188   8.032 -0.4912 -0.7691  0.1592
   88MOL0     C12011  11.714   4.324   8.065  0.0514 -0.0466  0.0893
   88MOL0     C12012  11.752   4.400   7.954 -0.4971 -0.8610 -0.1228
   88MOL0     C12013  11.761   4.360   7.823 -1.8040 -0.6074 -0.2945
   88MOL0     O12014  11.793   4.448   7.724  0.3801  0.4193  0.6649
   88MOL0     C12015  11.701   4.466   7.613 -0.5352  1.4283 -0.9586
   88MOL0     C12016  11.619   4.591   7.631 -0.7934 -1.1683  0.0228
   88MOL0     C12017  11.512   4.585   7.734  0.1768  0.5260  0.1979
   88MOL0     C12018  11.372   4.535   7.682  0.3955 -0.3546 -0.2653
   88MOL0     C12019  11.323   4.415   7.767  0.2895  0.2760 -0.0055
   88MOL0     C12020  11.310   4.428   7.915  0.8129  0.5753 -1.1255
   88MOL0     C12021  11.234   4.302   7.980 -0.7494  0.4359 -0.0445
   88MOL0     C12022  11.217   4.357   8.128 -0.5101 -0.1866 -0.6343
   88MOL0     N12023  11.162   4.260   8.219 -0.5535 -0.1610  0.2758
   88MOL0     C12024  11.104   4.297   8.332 -0.5359 -0.5476 -0.1852
   88MOL0     C12025  11.021   4.207   8.388  0.0554 -0.5834  0.3780
   88MOL0     C12026  10.926   4.210   8.512  0.7002  0.1047  0.0021
   88MOL0     C12027  10.970   4.130   8.625 -1.0221  0.1342  0.2045
   88MOL0     C12028  11.112   4.155   8.666  0.7408 -0.0820  0.3303
   88MOL0     C12029  11.148   4.119   8.818 -0.0101 -0.5383 -0.0112
   88MOL0     O12030  11.113   3.983   8.844  0.2638 -0.4118  0.8202
   88MOL0     C12031  11.180   3.919   8.940 -0.2008 -0.1507 -0.6062
   88MOL0     C12032  11.213   3.982   9.064 -0.1755 -0.2885  0.2222
   88MOL0     C12033  11.298   3.910   9.149 -0.5217  0.6396  0.5418
   88MOL0     C12034  11.358   3.972   9.270 -0.4357  1.2748 -0.2010
   88MOL0     C12035  11.331   3.773   9.115 -0.4515 -0.0384  0.7408
   88MOL0     C12036  11.390   3.684   9.202  0.3790  0.3430  0.1012
   88MOL0     O12037  11.467   3.580   9.154  0.6381  0.6797  0.3592
   88MOL0     C12038  11.536   3.522   9.256  0.6443  0.1572  0.6046
   88MOL0     C12039  11.658   3.564   9.302  0.2547  0.0904 -0.5623
   88MOL0     C12040  11.725   3.503   9.408  0.1498  0.2508 -0.7504
   88MOL0     C12041  11.673   3.379   9.464 -0.9814 -0.2610 -0.5705
   88MOL0     O12042  11.734   3.317   9.570  0.3607 -0.3494 -0.2138
   88MOL0     C12043  11.664   3.341   9.700 -0.7664 -0.6821 -0.4713
   88MOL0     C12044  11.734   3.254   9.798 -1.0695  0.2416 -0.5931
   88MOL0     C12045  11.879   3.289   9.811 -0.3258  0.1420  1.0319
   88MOL0     C12046  11.953   3.193   9.903  0.3007  0.3029 -1.2046
   88MOL0     C12047  12.112   3.229   9.929 -0.0276  0.0119 -0.3345
   88MOL0     C12048  12.174   3.132  10.036 -0.7835  0.4883 -0.5348
   88MOL0     C12049  12.310   3.171  10.074 -0.2950  1.0262 -0.6403
   88MOL0     C12050  12.350   3.085  10.195  0.4380  0.5495 -0.5416
   88MOL0    Cl12051  12.506   3.159  10.255  0.0837 -0.3535  0.0951
   88MOL0     C12052  11.551   3.333   9.410  0.4270 -0.1636  0.9228
   88MOL0     C12053  11.490   3.399   9.302 -0.2341  0.1475  1.0677
   88MOL0     O12054  11.356   3.688   9.317  0.8618  0.2069 -0.3541
   88MOL0     C12055  11.299   3.717   8.990  0.7619 -0.2083 -0.5837
   88MOL0     C12056  11.231   3.796   8.897  0.5474  0.0773 -0.7793
   88MOL0     N12057  11.030   4.113   8.291 -0.4168  0.2409 -0.5463
   88MOL0     N12058  11.099   4.144   8.190 -0.8954 -0.4416 -0.4014
   88MOL0     C12059  11.734   4.223   7.798  0.7804  0.3208 -0.4111
   88MOL0     C12060  11.681   4.145   7.905  1.0571  1.0436  0.6791
   88MOL0     C12061  11.527   4.046   8.344  0.3577  0.4403  0.9912
   88MOL0     C12062  11.532   4.082   8.483  0.3625 -0.0807  0.1054
   88MOL0     C12063  11.516   3.987   8.588 -0.2866 -0.8771 -0.8958
   88MOL0     C12064  11.494   3.858   8.554  0.6643 -0.5990 -0.6055
   88MOL0     O12065  11.479   3.773   8.657 -0.5837  0.3090 -0.5888
   88MOL0     C12066  11.603   3.737   8.721  0.1444 -0.0558 -0.2961
   88MOL0     C12067  11.730   3.732   8.636  0.1644  0.2606 -0.6714
   88MOL0     C12068  11.844   3.662   8.709  0.1603  0.4518 -0.1397
   88MOL0     C12069  11.966   3.678   8.630  1.0921 -0.5262  0.6593
   88MOL0     C12070  12.086   3.629   8.710  1.0849  0.0456  0.1193
   88MOL0     C12071  12.160   3.576   8.787  0.4990  0.3789  0.0410
   88MOL0     C12072  11.484   3.820   8.421 -0.1217 -0.1200  0.9152
   88MOL0     C12073  11.492   3.914   8.315 -1.0977  0.3072  1.5319
   88MOL0     C12074  11.481   3.863   8.169  0.1726 -0.8193 -0.4820
   88MOL0     H12075  11.723   4.373   8.162  0.6705  1.0765 -0.5196
   88MOL0     H12076  11.776   4.504   7.973 -1.8981 -0.4123 -0.7001
   88MOL0     H12077  11.623   4.389   7.613  1.0410 -0.2660  0.5529
   88MOL0     H12078  11.751   4.459   7.516 -1.0388  4.2682 -1.5224
   88MOL0     H12079  11.680   4.678   7.655  1.2463 -1.8876 -2.1557
   88MOL0     H12080  11.571   4.607   7.533 -2.8129 -2.0311  0.8114
   88MOL0     H12081  11.544   4.507   7.804 -1.6936  0.9650  1.6270
   88MOL0     H12082  11.496   4.671   7.801  2.4012  1.9218 -0.9551
   88MOL0     H12083  11.302   4.618   7.697 -0.5099 -1.3403  1.2418
   88MOL0     H12084  11.384   4.519   7.575  2.6827 -0.6645 -0.0282
   88MOL0     H12085  11.388   4.333   7.738 -2.3121 -1.5457 -1.0418
   88MOL0     H12086  11.223   4.383   7.737  0.6174 -2.0867  1.1689
   88MOL0     H12087  11.405   4.450   7.963 -0.4814  2.9165  0.5697
   88MOL0     H12088  11.263   4.525   7.933  1.6917  0.5431  1.9649
   88MOL0     H12089  11.297   4.213   7.976 -2.8882 -1.1218 -0.4456
   88MOL0     H12090  11.137   4.281   7.933 -0.4983  0.7227 -0.7131
   88MOL0     H12091  11.318   4.388   8.156 -0.2054  1.5205 -3.2596
   88MOL0     H12092  11.152   4.444   8.120 -0.4927 -0.2239 -1.2358
   88MOL0     H12093  11.130   4.388   8.384 -4.1111 -0.0554  1.0594
   88MOL0     H12094  10.835   4.161   8.478  2.4806 -1.5709 -2.7121
   88MOL0     H12095  10.902   4.313   8.539  0.5105 -0.0656  0.4994
   88MOL0     H12096  10.903   4.160   8.706 -2.2698 -0.0443 -0.7210
   88MOL0     H12097  10.956   4.022   8.613 -0.1261  0.0246  0.0627
   88MOL0     H12098  11.175   4.100   8.595  1.4847  0.8865  0.2068
   88MOL0     H12099  11.134   4.259   8.641  4.1673 -0.7302  0.0683
   88MOL0     H12100  11.256   4.136   8.824  0.1420  0.3967 -3.3197
   88MOL0     H12101  11.101   4.181   8.895 -1.2665 -1.3278 -0.1332
   88MOL0     H12102  11.181   4.082   9.090  0.3966 -0.4428  1.6172
   88MOL0     H12103  11.460   3.937   9.286 -2.1363 -3.8395  1.3273
   88MOL0     H12104  11.316   3.927   9.361 -0.9763  3.2172  0.5612
   88MOL0     H12105  11.328   4.077   9.276 -1.4952  1.2281 -2.9176
   88MOL0     H12106  11.700   3.658   9.267 -2.3244  1.9106  0.8703
   88MOL0     H12107  11.824   3.542   9.428  0.3503 -1.4917  2.3008
   88MOL0     H12108  11.657   3.442   9.741  0.9057 -0.8847  0.3793
   88MOL0     H12109  11.560   3.305   9.701 -0.5984 -1.1660  0.0431
   88MOL0     H12110  11.695   3.273   9.898 -0.7683 -4.0140  0.5316
   88MOL0     H12111  11.721   3.148   9.772  1.7931  0.6610 -4.7381
   88MOL0     H12112  11.894   3.393   9.843 -2.1162  1.0460 -0.7958
   88MOL0     H12113  11.927   3.285   9.713 -2.2089  2.8104 -0.1294
   88MOL0     H12114  11.956   3.093   9.858 -0.4350 -0.6135  0.7058
   88MOL0     H12115  11.903   3.191  10.000  0.7290 -5.0118 -0.7603
   88MOL0     H12116  12.171   3.228   9.837 -0.5326 -1.0095 -0.6607
   88MOL0     H12117  12.123   3.335   9.956 -2.5510  0.7049 -1.7573
   88MOL0     H12118  12.176   3.031   9.995  0.8985  1.0088 -1.8214
   88MOL0     H12119  12.106   3.132  10.122 -0.0976 -0.1025  0.0167
   88MOL0     H12120  12.311   3.279  10.090  1.9483  0.6130  2.9170
   88MOL0     H12121  12.369   3.134   9.990  0.6753  0.9608  0.0582
   88MOL0     H12122  12.365   2.978  10.178  0.9083  0.1737  1.8175
   88MOL0     H12123  12.278   3.098  10.277  3.2870  0.9186  2.1026
   88MOL0     H12124  11.496   3.251   9.454 -0.2698  0.6219  1.5360
   88MOL0     H12125  11.405   3.348   9.259  0.7673 -2.4544  1.9892
   88MOL0     H12126  11.337   3.621   8.958 -0.4241 -1.6968  2.1773
   88MOL0     H12127  11.214   3.770   8.793  1.9044  0.6542 -1.1594
   88MOL0     H12128  11.738   4.182   7.698  1.8390  1.9383 -1.0718
   88MOL0     H12129  11.646   4.045   7.884 -0.7867  2.1714 -2.4099
   88MOL0     H12130  11.554   4.185   8.508  2.3618 -1.0400  2.8008
   88MOL0     H12131  11.520   4.011   8.693  1.4825 -0.0227 -1.1220
   88MOL0     H12132  11.629   3.804   8.804 -0.9060 -0.4041  0.3298
   88MOL0     H12133  11.583   3.647   8.781  2.4140 -0.3890  0.0532
   88MOL0     H12134  11.763   3.832   8.609  2.6234 -0.4934 -0.7370
   88MOL0     H12135  11.699   3.678   8.547 -0.9227  0.1356 -0.2277
   88MOL0     H12136  11.849   3.711   8.807 -0.1631 -1.3410  0.7974
   88MOL0     H12137  11.829   3.555   8.725 -0.5422  0.6102  0.2881
   88MOL0     H12138  11.972   3.787   8.619 -2.1691 -0.1811  1.4359
   88MOL0     H12139  11.962   3.614   8.541 -1.6391 -2.3222  1.9524
   88MOL0     H12140  12.224   3.537   8.864 -1.8758 -4.5822 -0.1314
   88MOL0     H12141  11.483   3.715   8.395 -0.0829  0.2936 -0.9116
   88MOL0     H12142  11.576   3.830   8.125  0.0731 -2.4954  0.4989
   88MOL0     H12143  11.414   3.778   8.154 -0.3538 -0.2079 -1.7159
   88MOL0     H12144  11.441   3.945   8.108  0.5870 -1.4575 -1.6552
   89MOL0     O12145   2.837   9.102   7.966 -0.7625  0.0216 -0.9473
   89MOL0     C12146   2.926   9.017   7.977 -0.3922 -0.2565 -0.0814
   89MOL0     O12147   2.944   8.909   7.887  0.1415  0.2217 -0.3152
   89MOL0     C12148   2.863   8.907   7.780 -0.3196 -0.1123 -0.1193
   89MOL0     C12149   2.798   8.790   7.757 -0.0102 -0.2560 -0.0290
   89MOL0     C12150   2.728   8.772   7.629 -0.0114 -0.1747  0.2770
   89MOL0     C12151   2.705   8.880   7.541  0.3440 -0.6238  0.0891
   89MOL0     O12152   2.621   8.866   7.436  0.0265  0.4460  0.4253
   89MOL0     C12153   2.624   8.947   7.315 -0.6378  0.7014 -1.6763
   89MOL0     C12154   2.530   8.877   7.228 -0.9145 -0.5072  0.3368
   89MOL0     C12155   2.383   8.898   7.256  0.1813  1.0094  0.2365
   89MOL0     C12156   2.320   8.819   7.141 -0.1629 -0.7058 -0.9718
   89MOL0     C12157   2.169   8.813   7.142  0.1473  0.2946  0.2034
   89MOL0     C12158   2.118   8.696   7.060 -0.0359  0.4042  0.0040
   89MOL0     C12159   1.965   8.714   7.025 -0.0108 -0.9293  0.0853
   89MOL0     C12160   1.894   8.573   6.981 -0.5845 -0.7513 -0.3847
   89MOL0     N12161   1.777   8.593   6.891  0.1916 -0.0859  0.2479
   89MOL0     C12162   1.644   8.574   6.925 -0.9977 -0.3441 -0.5969
   89MOL0     C12163   1.580   8.604   6.807  0.5366  0.7676 -0.0773
   89MOL0     C12164   1.428   8.587   6.800  0.0921  0.2731  1.0152
   89MOL0     C12165   1.358   8.703   6.724 -0.5693  0.5387 -0.6413
   89MOL0     C12166   1.375   8.842   6.794  0.9656 -0.2229  0.6925
   89MOL0     C12167   1.286   8.866   6.920  0.1335 -0.0882  1.1797
   89MOL0     O12168   1.297   9.001   6.960  0.7014 -0.0539  0.2528
   89MOL0     C12169   1.173   9.051   6.996  0.5862  0.5107 -0.0592
   89MOL0     C12170   1.140   9.060   7.131  0.5475 -1.2772  0.1784
   89MOL0     C12171   1.022   9.137   7.161  0.7350  0.6162 -1.0138
   89MOL0     C12172   1.004   9.156   7.316  1.4576 -0.4715  0.7198
   89MOL0     C12173   0.934   9.181   7.059 -0.3126  0.0869  0.2526
   89MOL0     C12174   0.807   9.254   7.084  0.3025  0.9375 -0.5655
   89MOL0     O12175   0.743   9.244   7.207  0.5034 -0.8377 -0.3312
   89MOL0     C12176   0.612   9.282   7.227 -0.2138 -1.4391 -0.1376
   89MOL0     C12177   0.501   9.269   7.138  0.1923  0.5460 -0.4098
   89MOL0     C12178   0.384   9.353   7.159  0.3126  0.0017 -0.3811
   89MOL0     C12179   0.375   9.436   7.274 -0.8072  0.2084  0.2544
   89MOL0     O12180   0.263   9.504   7.283 -0.2658  0.1863 -0.6574
   89MOL0     C12181   0.239   9.564   7.414 -0.2710  0.6126 -0.3315
   89MOL0     C12182   0.098   9.616   7.429 -0.0987  0.0371  0.1727
   89MOL0     C12183   0.070   9.633   7.585  0.5270 -0.4280 -0.3793
   89MOL0     C12184  -0.078   9.675   7.597 -1.2710 -0.5241 -0.0888
   89MOL0     C12185  -0.117   9.707   7.739 -0.4032  0.5141  0.2372
   89MOL0     C12186  -0.264   9.763   7.730 -0.7131 -0.4233  0.2716
   89MOL0     C12187  -0.313   9.822   7.863 -0.5018  0.1935  0.1207
   89MOL0     C12188  -0.453   9.856   7.855  0.5571  0.3147  0.2681
   89MOL0    Cl12189  -0.541   9.768   7.981  0.3486 -0.2876  0.1366
   89MOL0     C12190   0.479   9.416   7.362  0.7901  0.5351  0.1820
   89MOL0     C12191   0.590   9.344   7.346 -0.6266  0.0148 -1.1207
   89MOL0     O12192   0.758   9.318   6.994  0.3367 -0.9728 -0.1449
   89MOL0     C12193   0.973   9.172   6.931  0.1651  0.4136 -0.0092
   89MOL0     C12194   1.093   9.112   6.896  0.5633  0.1142 -1.2837
   89MOL0     N12195   1.671   8.644   6.714 -0.0753 -0.3828 -0.0312
   89MOL0     N12196   1.790   8.644   6.767 -0.1308 -0.2270 -0.3219
   89MOL0     C12197   2.756   9.003   7.577 -0.5282  0.6600 -0.1552
   89MOL0     C12198   2.853   9.013   7.682  0.4456  0.2359  0.3514
   89MOL0     C12199   3.010   9.031   8.096 -0.3357  0.0731 -0.7770
   89MOL0     C12200   3.082   8.917   8.138  0.1577  0.2390 -0.3376
   89MOL0     C12201   3.159   8.927   8.259  0.6425 -0.8760  0.1587
   89MOL0     C12202   3.170   9.045   8.337 -0.1959  1.2556  0.6562
   89MOL0     O12203   3.265   9.028   8.438  0.1519  0.0454 -0.5351
   89MOL0     C12204   3.305   9.140   8.516 -1.0499 -0.5269 -0.3216
   89MOL0     C12205   3.398   9.234   8.444 -1.0135 -0.3959  0.2773
   89MOL0     C12206   3.452   9.353   8.536 -0.5104 -1.4143  0.1598
   89MOL0     C12207   3.539   9.447   8.443  0.7225  1.1427  1.0203
   89MOL0     C12208   3.665   9.381   8.407 -0.4150 -0.3916 -0.7858
   89MOL0     C12209   3.773   9.334   8.386 -1.0709  0.1741  0.2741
   89MOL0     C12210   3.075   9.143   8.312 -0.3406 -0.0159 -0.7070
   89MOL0     C12211   2.995   9.144   8.194 -0.0709  0.2737 -0.2794
   89MOL0     C12212   2.908   9.270   8.177  0.3511 -0.0471 -0.4248
   89MOL0     H12213   2.797   8.703   7.822  2.7731 -1.1921 -1.0709
   89MOL0     H12214   2.658   8.690   7.624 -2.9182  2.1717 -0.0292
   89MOL0     H12215   2.728   8.947   7.280  0.2855  0.0212  0.8314
   89MOL0     H12216   2.600   9.052   7.334  1.1238  0.7352  0.9507
   89MOL0     H12217   2.556   8.912   7.128  1.2259  0.7240  1.2586
   89MOL0     H12218   2.547   8.769   7.233  2.5028 -0.1484 -0.4460
   89MOL0     H12219   2.353   8.856   7.352  1.7199 -1.0012 -0.0980
   89MOL0     H12220   2.341   8.997   7.234  1.8191  1.4206 -1.2920
   89MOL0     H12221   2.362   8.854   7.046  0.9039 -1.2062 -0.7012
   89MOL0     H12222   2.358   8.716   7.146  1.3455 -0.1133  2.5732
   89MOL0     H12223   2.140   8.909   7.097  0.1964 -0.1576 -0.8151
   89MOL0     H12224   2.130   8.803   7.244 -0.3145 -1.6115 -0.1200
   89MOL0     H12225   2.177   8.692   6.968 -0.5265  0.2615 -0.3075
   89MOL0     H12226   2.125   8.602   7.114  0.2360  0.7236  0.5299
   89MOL0     H12227   1.959   8.796   6.953  0.0498 -0.4621  0.5994
   89MOL0     H12228   1.918   8.744   7.119 -1.1040  3.1046 -1.5567
   89MOL0     H12229   1.966   8.503   6.935  1.0476  1.2655 -1.0304
   89MOL0     H12230   1.864   8.538   7.080  1.0467 -0.9763  0.0661
   89MOL0     H12231   1.599   8.563   7.024  0.3917 -2.4843 -0.1226
   89MOL0     H12232   1.385   8.577   6.900 -2.0732  0.6404  0.1793
   89MOL0     H12233   1.403   8.490   6.755  2.4604  0.3612 -0.6340
   89MOL0     H12234   1.400   8.714   6.623 -1.1937  0.0016 -0.9629
   89MOL0     H12235   1.253   8.676   6.711 -0.2020 -1.8664  0.8009
   89MOL0     H12236   1.479   8.858   6.824  0.8216 -0.2336  1.2048
   89MOL0     H12237   1.346   8.915   6.719 -1.0343 -2.7921 -1.2351
   89MOL0     H12238   1.184   8.844   6.889  0.3707  2.8107 -2.1780
   89MOL0     H12239   1.314   8.796   7.000  1.2047 -0.9967  0.0521
   89MOL0     H12240   1.218   9.032   7.202 -1.2045  1.2123  3.3057
   89MOL0     H12241   0.940   9.239   7.348 -0.1026 -2.7706  4.1748
   89MOL0     H12242   1.104   9.172   7.359  0.4313  1.1992  2.6616
   89MOL0     H12243   0.958   9.067   7.359  1.6159 -0.8933  0.0323
   89MOL0     H12244   0.523   9.210   7.050 -1.1253  0.7193 -0.8786
   89MOL0     H12245   0.306   9.344   7.085 -0.7865  0.4533  0.6800
   89MOL0     H12246   0.238   9.474   7.477 -0.5394  0.6776 -0.2451
   89MOL0     H12247   0.328   9.625   7.435 -0.3406  0.3254  0.8328
   89MOL0     H12248   0.103   9.714   7.381  0.3824  0.7039  1.5183
   89MOL0     H12249   0.020   9.560   7.377 -1.4106  2.5099 -0.6353
   89MOL0     H12250   0.144   9.705   7.621 -0.4298  0.6976 -0.6013
   89MOL0     H12251   0.085   9.535   7.630 -0.6415 -0.3005  0.3412
   89MOL0     H12252  -0.143   9.595   7.558  0.4269 -2.5605  1.0353
   89MOL0     H12253  -0.096   9.768   7.543 -0.1412 -2.1836 -3.6548
   89MOL0     H12254  -0.108   9.614   7.796 -1.3900  0.7743  0.8459
   89MOL0     H12255  -0.043   9.775   7.783  1.3121  0.1306 -1.8956
   89MOL0     H12256  -0.328   9.683   7.692 -1.7915  0.4633  0.1569
   89MOL0     H12257  -0.266   9.849   7.662 -2.7719 -2.7763 -2.9389
   89MOL0     H12258  -0.248   9.905   7.894  0.3808  0.0020 -1.1220
   89MOL0     H12259  -0.301   9.751   7.946 -0.9652  1.5918  1.4252
   89MOL0     H12260  -0.504   9.841   7.759  1.3475  3.9385 -0.9011
   89MOL0     H12261  -0.469   9.963   7.873 -0.7511  0.1171  0.3450
   89MOL0     H12262   0.478   9.478   7.451  1.4102  0.2825  0.3681
   89MOL0     H12263   0.673   9.355   7.416  0.3634 -0.0940 -2.2486
   89MOL0     H12264   0.921   9.208   6.843  2.5419 -2.9017 -2.9983
   89MOL0     H12265   1.123   9.108   6.792  1.6306  0.6274 -1.0064
   89MOL0     H12266   2.733   9.089   7.515  1.8580 -0.0511 -2.1566
   89MOL0     H12267   2.901   9.109   7.700 -0.4096  0.8188 -0.3794
   89MOL0     H12268   3.091   8.828   8.078  0.1636 -0.3169  0.4760
   89MOL0     H12269   3.207   8.842   8.308  1.4908 -1.0735 -0.9852
   89MOL0     H12270   3.219   9.197   8.554 -1.3783 -1.3931  0.2541
   89MOL0     H12271   3.367   9.101   8.597 -0.0554  0.7314 -0.4343
   89MOL0     H12272   3.340   9.264   8.357 -3.0846  0.0240  1.7366
   89MOL0     H12273   3.480   9.176   8.401  0.3844  0.6104  1.4998
   89MOL0     H12274   3.370   9.416   8.573 -1.1516 -1.8325 -0.5361
   89MOL0     H12275   3.495   9.314   8.629 -2.0407  0.9792  2.0032
   89MOL0     H12276   3.554   9.545   8.488 -0.1682  1.9356 -0.3498
   89MOL0     H12277   3.477   9.451   8.354 -1.5732 -3.9489  2.0231
   89MOL0     H12278   3.872   9.299   8.362 -0.3371  0.4902  2.6116
   89MOL0     H12279   3.078   9.231   8.375  2.5050 -0.5331  0.0188
   89MOL0     H12280   2.896   9.322   8.082 -0.8813 -2.1828 -1.5287
   89MOL0     H12281   2.806   9.246   8.211 -0.0337  1.0964 -0.7438
   89MOL0     H12282   2.954   9.348   8.238 -0.5472  0.9321 -0.9762
   90MOL0     O12283   2.530   6.029   4.625  0.1220  0.9249 -0.0601
   90MOL0     C12284   2.460   6.127   4.606  0.0929 -0.4808 -0.0002
   90MOL0     O12285   2.501   6.252   4.613  0.6302 -0.1085 -0.0916
   90MOL0     C12286   2.632   6.290   4.636  0.5452  0.1433 -0.4401
   90MOL0     C12287   2.734   6.288   4.536  1.0670 -0.4487 -0.4554
   90MOL0     C12288   2.868   6.324   4.569 -0.4795 -0.9519  0.2780
   90MOL0     C12289   2.905   6.373   4.691  0.5624  0.5485 -0.0383
   90MOL0     O12290   3.033   6.421   4.716  0.1963 -1.5267  0.0013
   90MOL0     C12291   3.143   6.416   4.618  0.2312  0.9951  0.0256
   90MOL0     C12292   3.267   6.459   4.689  0.2686 -0.0207  0.0037
   90MOL0     C12293   3.255   6.593   4.764  0.4612  0.0791 -1.1955
   90MOL0     C12294   3.242   6.714   4.671 -0.5270 -0.3019 -0.9248
   90MOL0     C12295   3.247   6.851   4.743  0.1613 -0.2761 -0.5359
   90MOL0     C12296   3.207   6.967   4.653 -0.4734 -0.1202  0.2878
   90MOL0     C12297   3.176   7.096   4.749 -0.6071  1.4698  0.5849
   90MOL0     C12298   3.140   7.229   4.665 -0.6058  0.8818 -0.1169
   90MOL0     N12299   3.029   7.201   4.570 -0.4735 -0.0190 -1.0734
   90MOL0     C12300   2.906   7.175   4.618 -0.5906  0.3039  0.8590
   90MOL0     C12301   2.834   7.173   4.500 -0.0121 -0.5514 -0.8631
   90MOL0     C12302   2.688   7.150   4.477 -0.2095  1.0552  0.0868
   90MOL0     C12303   2.619   7.279   4.462  0.5686 -0.2009 -0.0767
   90MOL0     C12304   2.466   7.283   4.435  0.2727 -0.1910  0.1211
   90MOL0     C12305   2.369   7.265   4.555  0.5682 -0.3324  0.2470
   90MOL0     O12306   2.369   7.130   4.598  0.0293 -0.6723  0.0060
   90MOL0     C12307   2.242   7.095   4.627 -0.1854 -0.2828 -0.4165
   90MOL0     C12308   2.191   7.143   4.751  0.8686 -0.4251  0.3032
   90MOL0     C12309   2.052   7.128   4.789 -0.1658 -1.1547  0.4408
   90MOL0     C12310   2.007   7.173   4.922 -0.6364  0.7747 -0.0889
   90MOL0     C12311   1.972   7.071   4.688 -0.2164  0.2637 -0.1135
   90MOL0     C12312   1.828   7.049   4.690  1.1386  0.1123 -0.0424
   90MOL0     O12313   1.753   7.046   4.571 -0.2402 -0.1252  0.8908
   90MOL0     C12314   1.638   6.980   4.562  0.2745  0.0877 -0.5525
   90MOL0     C12315   1.588   6.893   4.664  0.1400 -0.3188  0.4222
   90MOL0     C12316   1.464   6.847   4.657  0.2636  0.1929  0.7091
   90MOL0     C12317   1.370   6.891   4.568 -0.1761 -0.5565 -0.3958
   90MOL0     O12318   1.236   6.854   4.557  0.9626 -0.5620 -0.8459
   90MOL0     C12319   1.154   6.801   4.666 -0.0506  0.1842  0.0921
   90MOL0     C12320   1.025   6.869   4.682 -0.2820 -0.1755 -0.2886
   90MOL0     C12321   0.936   6.838   4.564  0.3350 -0.4474 -0.3820
   90MOL0     C12322   0.792   6.895   4.594 -0.6351  0.2455 -0.0545
   90MOL0     C12323   0.695   6.872   4.478 -0.7904 -0.0518  0.1720
   90MOL0     C12324   0.721   6.740   4.386 -0.2655 -0.6599 -0.6267
   90MOL0     C12325   0.621   6.718   4.280  0.5145 -0.3601 -0.0016
   90MOL0     C12326   0.616   6.819   4.169  0.6387 -0.3193 -0.4806
   90MOL0    Cl12327   0.502   6.952   4.195  0.3924  0.3060 -0.2528
   90MOL0     C12328   1.417   6.976   4.473  0.5748 -0.1455  0.2289
   90MOL0     C12329   1.550   7.009   4.461  0.7639 -0.5254  0.6461
   90MOL0     O12330   1.781   7.049   4.800  0.5105  0.7238  0.2416
   90MOL0     C12331   2.031   7.016   4.575  0.5118 -0.5418  0.2756
   90MOL0     C12332   2.160   7.014   4.544  0.2901  0.1274 -0.9695
   90MOL0     N12333   2.917   7.211   4.391 -1.4420  0.3538  0.1731
   90MOL0     N12334   3.039   7.222   4.440 -0.7221 -0.3196 -0.5323
   90MOL0     C12335   2.796   6.372   4.785  0.3421 -0.0759 -0.5023
   90MOL0     C12336   2.667   6.328   4.760  0.9010  0.5564  0.1745
   90MOL0     C12337   2.306   6.114   4.604  1.0530  0.7320  0.1757
   90MOL0     C12338   2.223   6.229   4.634 -0.3726 -1.0875  0.3145
   90MOL0     C12339   2.085   6.226   4.623  0.2104 -0.3457 -0.6227
   90MOL0     C12340   2.016   6.110   4.583 -0.2106 -0.3750 -0.7037
   90MOL0     O12341   1.883   6.102   4.565 -0.6120  0.1197  0.2571
   90MOL0     C12342   1.800   6.199   4.608  0.7033 -0.6028 -0.0491
   90MOL0     C12343   1.648   6.148   4.609 -0.5944  0.0527 -0.5345
   90MOL0     C12344   1.609   6.090   4.737 -0.7298 -0.8562 -0.1787
   90MOL0     C12345   1.466   6.036   4.733  0.2209 -0.2671 -0.9081
   90MOL0     C12346   1.366   6.146   4.725 -0.6007 -0.9351  0.6009
   90MOL0     C12347   1.278   6.231   4.715  0.5601  0.3987 -0.0506
   90MOL0     C12348   2.096   5.999   4.556 -0.7408 -0.2313 -0.5463
   90MOL0     C12349   2.237   6.000   4.569  0.4020 -0.2468 -0.7171
   90MOL0     C12350   2.321   5.882   4.528  0.7012  0.6788  0.6949
   90MOL0     H12351   2.690   6.250   4.444 -2.9942 -0.6084  1.3410
   90MOL0     H12352   2.937   6.325   4.485  1.2015  1.6275  1.5813
   90MOL0     H12353   3.112   6.486   4.540 -1.4959 -0.7348 -0.9323
   90MOL0     H12354   3.167   6.312   4.594 -0.4160  0.9265 -0.3318
   90MOL0     H12355   3.281   6.390   4.773 -0.8403 -1.1152 -0.6534
   90MOL0     H12356   3.352   6.456   4.621  1.5365 -1.1219  1.5489
   90MOL0     H12357   3.168   6.581   4.829  1.2126 -0.9818 -0.3675
   90MOL0     H12358   3.339   6.600   4.833 -2.1790 -3.1538  2.8069
   90MOL0     H12359   3.330   6.699   4.607  0.3894 -0.4041  0.3061
   90MOL0     H12360   3.150   6.718   4.613  0.1482 -0.2941 -2.0196
   90MOL0     H12361   3.347   6.859   4.787 -1.3769  1.2796  3.0902
   90MOL0     H12362   3.173   6.834   4.822  3.5198 -1.9441  2.5567
   90MOL0     H12363   3.284   6.993   4.580 -1.2964  1.4288 -0.0789
   90MOL0     H12364   3.109   6.952   4.607 -0.8173  2.4123  0.0756
   90MOL0     H12365   3.270   7.114   4.802  1.6443 -2.0868 -1.7313
   90MOL0     H12366   3.092   7.070   4.814  0.1035 -1.0913  0.6092
   90MOL0     H12367   3.110   7.311   4.731 -0.2780 -0.4538  1.7791
   90MOL0     H12368   3.222   7.260   4.599 -1.3657 -1.1132 -2.1358
   90MOL0     H12369   2.880   7.156   4.722  0.0281  1.7707  1.3099
   90MOL0     H12370   2.631   7.099   4.555 -0.9703  1.4800 -0.1825
   90MOL0     H12371   2.676   7.086   4.389 -0.9704 -1.5115  1.9492
   90MOL0     H12372   2.648   7.320   4.559 -1.9766 -0.8163  1.0100
   90MOL0     H12373   2.671   7.329   4.380  1.5047 -2.0035 -0.6335
   90MOL0     H12374   2.433   7.376   4.388  0.5167  1.0228  2.2239
   90MOL0     H12375   2.452   7.209   4.355 -0.7719  2.2640 -2.0991
   90MOL0     H12376   2.388   7.340   4.632 -0.8838  0.9314 -0.5674
   90MOL0     H12377   2.273   7.295   4.511  1.3268  1.6811 -0.1065
   90MOL0     H12378   2.261   7.197   4.815 -0.9967  0.6975  1.4617
   90MOL0     H12379   1.978   7.087   4.984 -1.6369  0.7998 -0.5023
   90MOL0     H12380   1.913   7.221   4.893 -0.2213  1.4125 -0.3933
   90MOL0     H12381   2.071   7.249   4.967 -2.7195  1.9473  1.0388
   90MOL0     H12382   1.656   6.863   4.742  2.4672 -1.4167 -1.8994
   90MOL0     H12383   1.427   6.777   4.731 -2.9663 -0.0235 -0.9092
   90MOL0     H12384   1.138   6.694   4.648 -2.6373  0.5328 -0.0754
   90MOL0     H12385   1.219   6.819   4.752  2.4970  3.2553 -2.2018
   90MOL0     H12386   0.984   6.840   4.780  2.5827  0.0151  1.0778
   90MOL0     H12387   1.049   6.976   4.682  0.8449 -0.3906  1.3783
   90MOL0     H12388   0.928   6.729   4.560  2.5627 -0.6711  0.1246
   90MOL0     H12389   0.981   6.877   4.472  1.5860  0.8922  0.7417
   90MOL0     H12390   0.797   7.000   4.622  1.7738 -0.4492  2.5738
   90MOL0     H12391   0.732   6.858   4.677 -0.2113  1.0117  0.6018
   90MOL0     H12392   0.591   6.888   4.508 -0.1346  0.6876  2.2349
   90MOL0     H12393   0.706   6.952   4.404 -1.6472 -0.5178 -0.4729
   90MOL0     H12394   0.734   6.654   4.453 -2.2829  0.5870  1.5238
   90MOL0     H12395   0.811   6.753   4.327  0.3693  1.1502  0.6506
   90MOL0     H12396   0.518   6.702   4.312  0.3260 -0.3115 -0.5702
   90MOL0     H12397   0.653   6.624   4.235  1.2347  0.9795 -2.5017
   90MOL0     H12398   0.577   6.774   4.077 -0.6200 -1.4589  0.5539
   90MOL0     H12399   0.719   6.851   4.154  0.6558  1.9607  3.2557
   90MOL0     H12400   1.347   7.000   4.394 -1.1443 -0.7243  1.5174
   90MOL0     H12401   1.579   7.084   4.387  0.9266 -2.3099 -1.1819
   90MOL0     H12402   1.970   6.958   4.507  3.9361 -1.0982 -2.6368
   90MOL0     H12403   2.203   6.955   4.464  4.0972 -3.3193  3.0879
   90MOL0     H12404   2.820   6.408   4.885 -1.6820 -0.5196  0.2175
   90MOL0     H12405   2.593   6.316   4.838 -1.0597 -0.3009 -1.7198
   90MOL0     H12406   2.264   6.327   4.658 -1.6176  0.0092 -1.7171
   90MOL0     H12407   2.038   6.322   4.639  0.2150  0.1360 -3.0867
   90MOL0     H12408   1.831   6.236   4.706  1.9737  2.9547 -1.6019
   90MOL0     H12409   1.808   6.279   4.533  1.5067  0.6427  1.3190
   90MOL0     H12410   1.651   6.074   4.528  0.0249 -0.5742  0.0461
   90MOL0     H12411   1.587   6.236   4.587 -1.0111 -0.2125 -0.4467
   90MOL0     H12412   1.679   6.012   4.768  1.5371  0.9343 -0.5699
   90MOL0     H12413   1.613   6.174   4.807  0.2428 -0.0046 -1.2154
   90MOL0     H12414   1.442   5.979   4.823  2.7441  2.6367  1.8520
   90MOL0     H12415   1.459   5.979   4.640 -2.2470  1.4877 -1.8970
   90MOL0     H12416   1.193   6.295   4.708  0.4288  0.1989 -0.2698
   90MOL0     H12417   2.052   5.905   4.522  0.2096 -0.1793 -2.0143
   90MOL0     H12418   2.404   5.908   4.462  0.7960  0.8529  0.8818
   90MOL0     H12419   2.368   5.826   4.610  2.2878 -0.2418 -0.7742
   90MOL0     H12420   2.262   5.808   4.474 -1.3174  1.9574  1.0636
   91MOL0     O12421   2.574   6.749  11.127  0.6021  0.6265  0.1908
   91MOL0     C12422   2.583   6.809  11.234 -0.2735 -0.4936  0.2887
   91MOL0     O12423   2.648   6.925  11.254 -1.3728  0.0809  0.2013
   91MOL0     C12424   2.756   6.976  11.184  0.1444 -0.4454  0.3992
   91MOL0     C12425   2.829   6.909  11.073 -1.1518 -0.6109 -0.1710
   91MOL0     C12426   2.930   6.979  11.013 -0.7934 -1.1101  0.3081
   91MOL0     C12427   2.971   7.116  11.044  0.8299  0.2435  0.3830
   91MOL0     O12428   3.081   7.178  10.986  0.1151 -0.2037 -0.0235
   91MOL0     C12429   3.153   7.084  10.900 -0.0129 -0.0856 -0.5732
   91MOL0     C12430   3.262   7.166  10.835  0.3135 -0.3175 -0.9796
   91MOL0     C12431   3.380   7.067  10.799 -0.5068 -0.1755 -0.2336
   91MOL0     C12432   3.475   7.127  10.701  0.8070 -0.8598  1.0003
   91MOL0     C12433   3.403   7.122  10.561 -0.2626  0.4621  1.5011
   91MOL0     C12434   3.442   7.222  10.460  1.0609 -0.1895 -0.0605
   91MOL0     C12435   3.355   7.204  10.327  0.2913  0.2833 -0.8590
   91MOL0     C12436   3.209   7.217  10.350  0.0192 -0.6426  0.2583
   91MOL0     N12437   3.164   7.320  10.444  0.5451  0.6586 -0.4198
   91MOL0     C12438   3.065   7.306  10.547  0.8095 -1.0976  0.7561
   91MOL0     C12439   3.069   7.430  10.611  0.2796  0.7263  0.0680
   91MOL0     C12440   2.988   7.467  10.730 -0.9346 -0.0050  0.6352
   91MOL0     C12441   3.052   7.580  10.812  1.4932 -0.4460 -0.0119
   91MOL0     C12442   3.073   7.722  10.752  0.5631 -0.6839  0.5236
   91MOL0     C12443   2.944   7.782  10.682 -0.2447 -0.0401  0.0979
   91MOL0     O12444   2.946   7.921  10.651  1.2529 -0.0390 -1.2003
   91MOL0     C12445   2.998   7.965  10.533  0.7061  0.7721 -0.8614
   91MOL0     C12446   2.970   8.098  10.491  1.0445  0.3864 -0.8559
   91MOL0     C12447   3.009   8.152  10.370  0.1940  0.4035  0.5426
   91MOL0     C12448   2.952   8.295  10.330  0.9450  0.8336  0.1474
   91MOL0     C12449   3.102   8.080  10.284  0.3606 -0.8047  0.0755
   91MOL0     C12450   3.148   8.112  10.145  0.7097  0.3876  0.2943
   91MOL0     O12451   3.231   8.028  10.091 -0.4404  0.0815  0.1986
   91MOL0     C12452   3.303   8.058   9.983  0.8355  0.8136  0.1767
   91MOL0     C12453   3.280   8.161   9.888 -0.7292  0.3477 -0.1606
   91MOL0     C12454   3.351   8.171   9.770 -1.1530  0.8100 -0.2032
   91MOL0     C12455   3.441   8.076   9.738 -0.3569 -0.4418  0.2324
   91MOL0     O12456   3.490   8.061   9.607 -0.2188  0.0274  0.8249
   91MOL0     C12457   3.503   7.929   9.545 -0.6749  0.9773  0.7843
   91MOL0     C12458   3.546   7.945   9.404 -0.4079 -0.9541  0.1527
   91MOL0     C12459   3.666   8.034   9.394  0.0802  0.7608  0.4309
   91MOL0     C12460   3.725   8.029   9.250 -0.4081 -0.3780 -0.0408
   91MOL0     C12461   3.849   8.118   9.239  0.6451  0.7383  0.2717
   91MOL0     C12462   3.900   8.115   9.090  0.1931 -0.4606 -0.4377
   91MOL0     C12463   3.801   8.178   8.986  0.7903  0.1821 -0.7103
   91MOL0     C12464   3.876   8.205   8.853  1.5678  0.2879  0.4294
   91MOL0    Cl12465   3.969   8.054   8.808  0.2774  0.5206  0.1095
   91MOL0     C12466   3.473   7.979   9.828 -0.0709 -0.2379 -0.2590
   91MOL0     C12467   3.412   7.977   9.949  0.0077  0.3826 -0.0537
   91MOL0     O12468   3.094   8.203  10.084  0.0719 -0.2286  0.0500
   91MOL0     C12469   3.132   7.945  10.332 -0.6740 -0.1026  0.4206
   91MOL0     C12470   3.084   7.892  10.453 -0.6995 -0.0220  0.0643
   91MOL0     N12471   3.149   7.507  10.535  0.0517 -0.5980  0.4518
   91MOL0     N12472   3.203   7.449  10.437  0.0930  0.8201  0.4419
   91MOL0     C12473   2.904   7.172  11.153  0.9643 -0.5809  0.9464
   91MOL0     C12474   2.803   7.108  11.225 -0.1602 -0.0436 -0.1747
   91MOL0     C12475   2.500   6.746  11.337  1.6252 -0.4957 -0.3387
   91MOL0     C12476   2.498   6.605  11.340  0.7761 -0.4852 -0.1809
   91MOL0     C12477   2.427   6.532  11.433  0.5386 -0.5446 -0.6752
   91MOL0     C12478   2.366   6.600  11.539  0.3028 -0.0171  0.2220
   91MOL0     O12479   2.313   6.517  11.636  1.1963 -0.2211 -0.1692
   91MOL0     C12480   2.179   6.533  11.663 -0.4070  0.3408  0.7978
   91MOL0     C12481   2.121   6.410  11.725  0.2148 -0.9290 -0.4942
   91MOL0     C12482   2.206   6.337  11.838 -0.8061 -0.1079 -0.0023
   91MOL0     C12483   2.149   6.360  11.979  1.1809 -1.0944 -0.4131
   91MOL0     C12484   2.169   6.235  12.055  0.8430 -0.5276 -0.0667
   91MOL0     C12485   2.188   6.136  12.128 -0.7112 -0.2398  0.0396
   91MOL0     C12486   2.373   6.742  11.549  0.8539 -0.6532 -0.0108
   91MOL0     C12487   2.434   6.816  11.439 -0.1289  0.1208  0.1657
   91MOL0     C12488   2.437   6.967  11.442 -0.9629 -0.6666 -0.6479
   91MOL0     H12489   2.804   6.811  11.034  2.5709 -1.9346  0.3266
   91MOL0     H12490   2.984   6.919  10.940 -0.7192  0.5362 -1.0473
   91MOL0     H12491   3.092   7.056  10.814  2.1624  1.1350 -2.5998
   91MOL0     H12492   3.191   6.997  10.954 -0.7793  1.0762  2.0356
   91MOL0     H12493   3.226   7.203  10.739 -2.2114 -0.2201 -0.0703
   91MOL0     H12494   3.293   7.251  10.897  1.0576 -0.7258 -0.7722
   91MOL0     H12495   3.447   7.042  10.882  3.2518 -0.6993 -3.1439
   91MOL0     H12496   3.340   6.974  10.756  0.6480  1.0048 -4.2891
   91MOL0     H12497   3.502   7.232  10.718  1.4664 -0.8656  0.0761
   91MOL0     H12498   3.562   7.061  10.697 -0.1408 -2.0556 -0.4014
   91MOL0     H12499   3.294   7.122  10.570 -0.1129  0.4457  4.4258
   91MOL0     H12500   3.420   7.021  10.525  0.1800  0.1350  2.5922
   91MOL0     H12501   3.421   7.316  10.512 -1.1601  0.0963 -1.3534
   91MOL0     H12502   3.551   7.212  10.451  1.1681 -2.9905  2.6552
   91MOL0     H12503   3.383   7.113  10.274 -1.4434 -2.7471  2.9627
   91MOL0     H12504   3.377   7.288  10.260  4.0937  0.2475  0.0884
   91MOL0     H12505   3.165   7.254  10.256  1.1293  0.1481  0.0282
   91MOL0     H12506   3.169   7.121  10.383 -1.6795 -0.0647 -0.0165
   91MOL0     H12507   3.007   7.228  10.594 -1.3780 -0.7034 -1.0846
   91MOL0     H12508   2.983   7.385  10.802  3.2735 -0.7242  0.4136
   91MOL0     H12509   2.890   7.490  10.688  0.4789  1.6832 -2.0228
   91MOL0     H12510   2.989   7.588  10.901 -0.4441  0.6480 -1.4009
   91MOL0     H12511   3.150   7.554  10.853  0.8622  0.8003  2.5046
   91MOL0     H12512   3.104   7.780  10.839 -1.7473 -0.0551  1.0026
   91MOL0     H12513   3.159   7.722  10.684  0.8234 -0.5176  0.8537
   91MOL0     H12514   2.921   7.719  10.595 -0.9614 -0.1463  0.3568
   91MOL0     H12515   2.870   7.787  10.762  2.4931  1.9297  2.7357
   91MOL0     H12516   2.899   8.151  10.554 -0.0588 -2.2595  0.2778
   91MOL0     H12517   2.875   8.281  10.254  0.4370 -2.6375  1.1217
   91MOL0     H12518   3.032   8.352  10.282 -0.8455  3.0257 -0.3754
   91MOL0     H12519   2.922   8.353  10.417  3.8346  4.5476 -1.0812
   91MOL0     H12520   3.223   8.253   9.895  1.8896  2.3915 -2.7238
   91MOL0     H12521   3.326   8.236   9.688  0.5485  1.1674 -0.4771
   91MOL0     H12522   3.571   7.865   9.602 -0.4940  3.4522  3.5792
   91MOL0     H12523   3.403   7.884   9.543 -0.8521  1.2834 -2.5931
   91MOL0     H12524   3.543   7.850   9.350 -5.1929 -0.7044 -0.3990
   91MOL0     H12525   3.462   8.000   9.360 -0.3693 -0.4382  0.7210
   91MOL0     H12526   3.742   8.004   9.467 -1.0235 -0.1756  1.2328
   91MOL0     H12527   3.660   8.137   9.430  2.8895  2.0099 -2.1840
   91MOL0     H12528   3.656   8.067   9.175 -0.8424 -4.8329 -2.2225
   91MOL0     H12529   3.750   7.927   9.219 -3.3356 -1.3784  0.5887
   91MOL0     H12530   3.819   8.221   9.262  2.7577  1.3561  0.3956
   91MOL0     H12531   3.927   8.078   9.304  0.8644 -4.7265 -2.7261
   91MOL0     H12532   3.915   8.009   9.070  3.2055 -0.0708 -0.6701
   91MOL0     H12533   3.996   8.166   9.073 -0.2260  1.0370  1.3421
   91MOL0     H12534   3.760   8.275   9.013  1.2946  0.5791 -1.3341
   91MOL0     H12535   3.719   8.106   8.976  2.3332 -1.9848  1.1366
   91MOL0     H12536   3.934   8.296   8.870 -0.3902  1.8230 -0.7440
   91MOL0     H12537   3.797   8.225   8.780  3.3943  1.6715 -1.2709
   91MOL0     H12538   3.550   7.907   9.800 -0.8830 -0.5302 -1.8916
   91MOL0     H12539   3.445   7.908  10.026  3.0420 -0.7109 -2.1477
   91MOL0     H12540   3.199   7.887  10.270 -2.8187 -0.6863 -1.4615
   91MOL0     H12541   3.093   7.790  10.488 -2.5849 -0.8456 -1.6822
   91MOL0     H12542   2.930   7.272  11.185  2.7264 -0.0683 -1.7465
   91MOL0     H12543   2.744   7.165  11.295  1.3674  4.2645 -2.0101
   91MOL0     H12544   2.544   6.538  11.268  0.3225 -0.5417 -0.4160
   91MOL0     H12545   2.417   6.426  11.412  1.2298 -0.6052 -0.7271
   91MOL0     H12546   2.172   6.616  11.733 -1.3293  0.1120  0.9928
   91MOL0     H12547   2.120   6.549  11.573 -2.9492  1.8898  2.6025
   91MOL0     H12548   2.098   6.343  11.642  0.4907 -0.2921 -1.1049
   91MOL0     H12549   2.025   6.430  11.773  0.8765 -2.5214  1.6817
   91MOL0     H12550   2.212   6.229  11.819  0.8723 -0.2842  1.2622
   91MOL0     H12551   2.310   6.372  11.834 -1.7909  3.0424 -2.6003
   91MOL0     H12552   2.041   6.376  11.977  1.5085  1.9699  0.6085
   91MOL0     H12553   2.198   6.439  12.037  0.3644 -0.9398  0.0900
   91MOL0     H12554   2.221   6.054  12.189 -0.2701 -1.9187 -2.3073
   91MOL0     H12555   2.325   6.800  11.626 -0.1918 -2.5805  0.8717
   91MOL0     H12556   2.535   7.005  11.472 -1.4654 -1.0417  1.6096
   91MOL0     H12557   2.403   7.007  11.345 -1.2178  0.4209 -0.1309
   91MOL0     H12558   2.361   7.005  11.510 -0.2228 -0.5118  0.1035
   92MOL0     O12559   1.452   7.954   4.367 -0.4094  0.5905  0.2684
   92MOL0     C12560   1.434   8.069   4.402  0.2969  0.8549  0.8356
   92MOL0     O12561   1.476   8.188   4.332 -0.4594 -0.0487 -0.0308
   92MOL0     C12562   1.484   8.188   4.198  0.1695  0.1523  1.4873
   92MOL0     C12563   1.407   8.118   4.102  0.7938 -0.8598 -0.2416
   92MOL0     C12564   1.440   8.101   3.967 -0.0706  0.4306 -0.4621
   92MOL0     C12565   1.558   8.147   3.914  1.0663 -0.6604  0.4722
   92MOL0     O12566   1.588   8.148   3.781 -0.4419 -0.4220  0.3088
   92MOL0     C12567   1.512   8.080   3.688 -0.4620 -0.0897 -0.2955
   92MOL0     C12568   1.598   8.049   3.568 -0.5916  0.7596 -0.6338
   92MOL0     C12569   1.604   8.178   3.476 -0.1276 -0.4526  1.3480
   92MOL0     C12570   1.749   8.187   3.420  0.0950 -0.1590  0.9765
   92MOL0     C12571   1.854   8.230   3.521 -0.3659  0.1623  1.0834
   92MOL0     C12572   1.998   8.175   3.487  0.4387  0.2738 -0.8193
   92MOL0     C12573   2.055   8.200   3.348 -0.5993 -0.1764 -0.8489
   92MOL0     C12574   2.077   8.346   3.333  0.7169 -0.2163 -0.0822
   92MOL0     N12575   2.097   8.384   3.197 -0.2705  0.2503  0.0604
   92MOL0     C12576   2.208   8.412   3.129 -0.0588 -0.1930 -0.3377
   92MOL0     C12577   2.176   8.418   2.999  0.0905  0.0054  0.4485
   92MOL0     C12578   2.261   8.450   2.873 -0.0574 -0.0102  0.2511
   92MOL0     C12579   2.310   8.327   2.806 -0.7863  0.4488 -0.2982
   92MOL0     C12580   2.219   8.267   2.711  0.3277  0.3647  0.5849
   92MOL0     C12581   2.283   8.149   2.633 -0.0268 -0.9613  0.3287
   92MOL0     O12582   2.402   8.195   2.565  0.3612 -0.3721 -0.8797
   92MOL0     C12583   2.392   8.234   2.443  0.4270 -0.1263  0.6119
   92MOL0     C12584   2.307   8.179   2.342  0.0548  0.0051  0.2780
   92MOL0     C12585   2.314   8.231   2.209  0.0376 -0.2799 -0.6128
   92MOL0     C12586   2.243   8.142   2.108 -0.1239  0.6126  0.5787
   92MOL0     C12587   2.401   8.337   2.168 -0.4631  0.1984 -1.0802
   92MOL0     C12588   2.428   8.380   2.026  0.2007 -0.8963  0.5683
   92MOL0     O12589   2.333   8.343   1.929  0.2994  0.3057 -1.8188
   92MOL0     C12590   2.350   8.343   1.783  0.1741  0.0659  0.0782
   92MOL0     C12591   2.480   8.341   1.727 -0.5803 -0.1909  0.3273
   92MOL0     C12592   2.487   8.347   1.583 -0.3759  0.8197 -0.2626
   92MOL0     C12593   2.381   8.338   1.500  0.3598 -1.0541  0.6776
   92MOL0     O12594   2.403   8.332   1.359  0.2750 -0.7293 -0.5249
   92MOL0     C12595   2.404   8.467   1.291  0.0540  0.4888  0.6729
   92MOL0     C12596   2.434   8.455   1.135 -0.3195 -0.4934 -0.4405
   92MOL0     C12597   2.376   8.567   1.051 -0.5648 -0.4490  1.1874
   92MOL0     C12598   2.471   8.693   1.064  0.4938 -0.0674  1.5744
   92MOL0     C12599   2.447   8.816   0.958 -0.0579  0.7153  0.1100
   92MOL0     C12600   2.545   8.927   0.980 -0.3984  0.8485  0.1553
   92MOL0     C12601   2.499   9.066   0.918  0.9957 -0.0490 -0.2248
   92MOL0     C12602   2.603   9.184   0.930  0.7274  0.8293  0.7128
   92MOL0    Cl12603   2.669   9.177   1.095  0.4767 -0.4041 -0.2485
   92MOL0     C12604   2.256   8.323   1.562 -0.2376 -0.4868  1.1565
   92MOL0     C12605   2.243   8.329   1.700  0.6834 -0.6922 -0.5052
   92MOL0     O12606   2.535   8.435   2.008 -0.2488 -0.4316  0.3533
   92MOL0     C12607   2.487   8.380   2.274 -0.9600 -0.4739  0.6903
   92MOL0     C12608   2.485   8.329   2.402  1.0867  0.0354  0.3167
   92MOL0     N12609   2.039   8.427   2.993 -0.3659 -0.3117  0.3417
   92MOL0     N12610   1.988   8.389   3.113 -0.1630  0.4249 -0.3164
   92MOL0     C12611   1.638   8.224   4.003 -0.7829  0.1467  0.0985
   92MOL0     C12612   1.600   8.248   4.139  0.7213  0.5813  0.2352
   92MOL0     C12613   1.406   8.092   4.550 -1.6943  0.1141 -0.0077
   92MOL0     C12614   1.473   8.198   4.622  0.1321 -0.6004  0.6989
   92MOL0     C12615   1.465   8.207   4.756  0.1022 -0.7011 -0.1846
   92MOL0     C12616   1.365   8.147   4.826 -0.2832  0.0447  0.0842
   92MOL0     O12617   1.349   8.169   4.957 -0.3257  0.2151 -0.5861
   92MOL0     C12618   1.322   8.310   4.990 -0.4089 -0.6244  0.0377
   92MOL0     C12619   1.297   8.343   5.140  0.1414  0.3596 -0.6904
   92MOL0     C12620   1.211   8.233   5.206  0.0467 -0.4695 -0.1777
   92MOL0     C12621   1.058   8.242   5.186  0.0378  0.1358 -0.3296
   92MOL0     C12622   1.010   8.243   5.047  0.3613  0.3279  0.9720
   92MOL0     C12623   0.973   8.248   4.936  0.6579  0.1678  0.0304
   92MOL0     C12624   1.298   8.048   4.761 -0.2375  0.5178  0.4326
   92MOL0     C12625   1.320   8.016   4.628 -0.3213  0.3730  0.1860
   92MOL0     C12626   1.231   7.908   4.573  0.5387 -0.2642 -0.0773
   92MOL0     H12627   1.318   8.074   4.146  0.0522  1.9977  1.3525
   92MOL0     H12628   1.367   8.053   3.902 -3.6804  1.0812  2.7054
   92MOL0     H12629   1.428   8.143   3.659 -0.3535  0.3789  0.3854
   92MOL0     H12630   1.476   7.985   3.728  1.7526 -1.1262 -0.6085
   92MOL0     H12631   1.690   7.996   3.593  0.4593  3.3048  1.3433
   92MOL0     H12632   1.537   7.968   3.528  0.9762 -1.5678  1.3853
   92MOL0     H12633   1.526   8.176   3.399  2.1999  2.2584 -1.3103
   92MOL0     H12634   1.593   8.276   3.524 -0.9917 -0.2215  0.7012
   92MOL0     H12635   1.771   8.086   3.384 -0.5229  0.1385 -0.3175
   92MOL0     H12636   1.763   8.255   3.335  1.5005 -0.6607  0.7818
   92MOL0     H12637   1.819   8.197   3.619 -1.7336  0.0745  0.5907
   92MOL0     H12638   1.848   8.340   3.522 -0.2088  0.3033 -2.2761
   92MOL0     H12639   2.076   8.204   3.558  2.4401 -0.6538 -2.5002
   92MOL0     H12640   1.996   8.066   3.496 -3.4275  0.1748 -1.3300
   92MOL0     H12641   1.995   8.157   3.268 -1.9340  0.6189 -0.3042
   92MOL0     H12642   2.148   8.142   3.352 -2.2195 -2.8068  1.8797
   92MOL0     H12643   1.995   8.407   3.373 -0.8179  0.1238 -3.3863
   92MOL0     H12644   2.158   8.378   3.399 -0.2480 -0.2791  1.1709
   92MOL0     H12645   2.310   8.416   3.166 -0.5819  0.0410  1.1462
   92MOL0     H12646   2.343   8.509   2.914  0.6148 -2.0193  1.9922
   92MOL0     H12647   2.221   8.527   2.806  1.2961 -0.4457 -1.1102
   92MOL0     H12648   2.407   8.352   2.763  0.4216 -1.5972  1.1085
   92MOL0     H12649   2.326   8.249   2.881 -2.0223 -0.8111 -1.3100
   92MOL0     H12650   2.128   8.232   2.761 -0.1739 -1.7709 -1.6477
   92MOL0     H12651   2.185   8.340   2.637 -1.3681 -2.0360 -1.2036
   92MOL0     H12652   2.326   8.080   2.706 -1.1657 -1.6739  0.3379
   92MOL0     H12653   2.206   8.094   2.578 -3.2498  3.1749  0.1930
   92MOL0     H12654   2.240   8.097   2.369  0.1410  0.5681  2.3621
   92MOL0     H12655   2.309   8.098   2.032 -1.8857 -1.8005  0.3321
   92MOL0     H12656   2.166   8.202   2.059  0.9283  0.5966 -1.2134
   92MOL0     H12657   2.190   8.065   2.164  0.2623  0.3376  0.5672
   92MOL0     H12658   2.567   8.354   1.790  0.6358  2.4574 -1.7015
   92MOL0     H12659   2.588   8.335   1.544 -0.3587  1.7161 -0.5222
   92MOL0     H12660   2.308   8.517   1.306 -0.4058  0.2151 -1.1422
   92MOL0     H12661   2.475   8.536   1.338 -0.5962 -0.5532  3.4022
   92MOL0     H12662   2.543   8.453   1.128 -0.3019  0.6403 -0.5683
   92MOL0     H12663   2.395   8.362   1.091 -0.4785 -1.1410  0.9897
   92MOL0     H12664   2.269   8.588   1.061 -0.2495  1.9120  0.4075
   92MOL0     H12665   2.383   8.540   0.945 -0.9557 -0.2493  1.1083
   92MOL0     H12666   2.575   8.663   1.044  0.4752  0.2394  0.9885
   92MOL0     H12667   2.465   8.721   1.169  0.3296 -2.4607  2.2575
   92MOL0     H12668   2.460   8.780   0.856 -1.7760 -3.4458  1.1400
   92MOL0     H12669   2.344   8.850   0.969 -0.6923 -1.1289  0.2621
   92MOL0     H12670   2.645   8.901   0.945 -0.6267  3.5639 -2.9313
   92MOL0     H12671   2.552   8.932   1.089  1.3316 -3.9619  0.4935
   92MOL0     H12672   2.394   9.090   0.935  0.1775 -3.2857 -0.0318
   92MOL0     H12673   2.496   9.038   0.812 -0.0877 -1.3104  0.1172
   92MOL0     H12674   2.555   9.281   0.919  1.4463  1.2893  1.5186
   92MOL0     H12675   2.684   9.182   0.857 -1.2875 -0.6297 -1.6549
   92MOL0     H12676   2.170   8.324   1.496  0.4909 -1.7892  0.1297
   92MOL0     H12677   2.145   8.327   1.747  2.2008 -0.6476  2.9793
   92MOL0     H12678   2.561   8.459   2.265  1.2236 -1.7822  4.8466
   92MOL0     H12679   2.544   8.364   2.486 -1.2975  3.1087  0.9069
   92MOL0     H12680   1.739   8.258   3.984  1.0457 -2.3469  4.1834
   92MOL0     H12681   1.662   8.303   4.209  0.0617  2.0018 -0.2643
   92MOL0     H12682   1.534   8.254   4.552 -2.1193  0.2810 -0.6872
   92MOL0     H12683   1.525   8.287   4.800 -0.1195  0.1438 -1.3721
   92MOL0     H12684   1.406   8.366   4.948 -0.6062 -2.7680 -3.5766
   92MOL0     H12685   1.231   8.329   4.933  0.7102  0.8954 -1.3449
   92MOL0     H12686   1.244   8.438   5.148 -2.5138 -1.1762  2.6357
   92MOL0     H12687   1.387   8.353   5.201 -1.4634 -1.0866  2.1174
   92MOL0     H12688   1.254   8.136   5.178  2.1779  0.5229 -0.5549
   92MOL0     H12689   1.242   8.259   5.308  0.0395 -0.2242 -0.2380
   92MOL0     H12690   1.002   8.318   5.242  1.2902 -0.7525  2.3155
   92MOL0     H12691   1.028   8.155   5.246  2.2987  1.5210  3.1450
   92MOL0     H12692   0.922   8.253   4.842 -1.4587  0.7648  1.1315
   92MOL0     H12693   1.219   7.994   4.812 -0.4369  0.2167 -0.1809
   92MOL0     H12694   1.150   7.947   4.512 -0.5766 -1.9450  0.2726
   92MOL0     H12695   1.283   7.837   4.508 -2.2226 -0.5691 -2.1139
   92MOL0     H12696   1.192   7.845   4.654  1.9922  0.0015  0.8728
   93MOL0     O12697   0.946   9.770   1.956 -0.3293  0.0239 -0.2993
   93MOL0     C12698   0.837   9.814   1.972 -0.3111  0.7903  0.2203
   93MOL0     O12699   0.756   9.766   2.069 -0.0360 -0.5043 -0.9227
   93MOL0     C12700   0.807   9.716   2.187 -0.4342 -0.1382 -0.8638
   93MOL0     C12701   0.876   9.798   2.279 -0.1212  0.5699  1.1517
   93MOL0     C12702   0.944   9.751   2.390 -1.0493 -0.1274 -0.1837
   93MOL0     C12703   0.917   9.622   2.433  0.2809 -1.0294 -0.0178
   93MOL0     O12704   0.967   9.579   2.559 -0.7019  0.3307 -0.4102
   93MOL0     C12705   0.948   9.446   2.600 -0.2634 -0.1464 -0.0121
   93MOL0     C12706   1.028   9.448   2.734 -0.3617  0.0881 -0.2193
   93MOL0     C12707   1.181   9.483   2.712 -0.0259  0.9472 -0.3691
   93MOL0     C12708   1.269   9.473   2.840  0.5052 -0.3113  0.1278
   93MOL0     C12709   1.412   9.543   2.827  1.0943 -0.4452 -0.8156
   93MOL0     C12710   1.498   9.486   2.716 -0.6549  0.0204 -1.0945
   93MOL0     C12711   1.651   9.532   2.721  0.2449 -0.3027 -0.0420
   93MOL0     C12712   1.653   9.687   2.726 -0.4227  0.6591 -0.5283
   93MOL0     N12713   1.764   9.748   2.653 -0.3893 -0.5065 -0.3422
   93MOL0     C12714   1.842   9.857   2.698  0.2223  0.0145  1.1300
   93MOL0     C12715   1.946   9.862   2.617 -0.0394 -0.3119 -0.0850
   93MOL0     C12716   2.044   9.961   2.629  0.3875 -0.4532 -0.7184
   93MOL0     C12717   2.043  10.071   2.519 -0.0353 -0.1872  0.1965
   93MOL0     C12718   2.113  10.203   2.559 -0.2082 -0.6606 -0.5780
   93MOL0     C12719   2.263  10.187   2.558  0.1719  0.1398 -0.2399
   93MOL0     O12720   2.315  10.288   2.646 -0.2745 -0.3352 -0.5192
   93MOL0     C12721   2.435  10.337   2.625  0.0865 -0.3373  0.7002
   93MOL0     C12722   2.461  10.470   2.678  0.1832  0.9076  0.2203
   93MOL0     C12723   2.586  10.536   2.662  0.7977 -0.2886  0.3461
   93MOL0     C12724   2.610  10.672   2.728 -0.3932 -0.5482  0.3198
   93MOL0     C12725   2.693  10.464   2.603 -0.0708  0.4208 -0.3879
   93MOL0     C12726   2.830  10.510   2.579  0.0904  0.8704  0.0442
   93MOL0     O12727   2.885  10.476   2.462 -0.6410 -0.5342  0.2093
   93MOL0     C12728   3.014  10.519   2.445  0.6914 -0.1772 -0.5614
   93MOL0     C12729   3.034  10.641   2.379 -0.1212  0.6115 -0.5930
   93MOL0     C12730   3.165  10.678   2.328  0.3934 -0.6352 -0.0869
   93MOL0     C12731   3.278  10.600   2.365  1.0658 -0.9177  0.6806
   93MOL0     O12732   3.402  10.625   2.321 -0.3642 -0.0006  0.5086
   93MOL0     C12733   3.454  10.758   2.295  0.2728  0.8891  0.2688
   93MOL0     C12734   3.607  10.758   2.308 -0.2541 -0.7486  0.1155
   93MOL0     C12735   3.650  10.713   2.457 -0.3800 -0.8735 -0.1271
   93MOL0     C12736   3.621  10.816   2.562 -0.2206 -0.2017  0.5267
   93MOL0     C12737   3.732  10.923   2.561 -0.1212 -0.8962  1.0294
   93MOL0     C12738   3.719  11.044   2.660  0.1411 -0.5018 -0.3097
   93MOL0     C12739   3.844  11.136   2.640  0.7378  0.0643 -0.4069
   93MOL0     C12740   3.861  11.253   2.736  0.3609  0.5171 -0.0285
   93MOL0    Cl12741   3.809  11.213   2.908 -0.1140  0.3730 -0.6175
   93MOL0     C12742   3.250  10.481   2.437 -0.8573  0.0994 -0.1897
   93MOL0     C12743   3.121  10.442   2.471  1.8842 -0.3955  0.7502
   93MOL0     O12744   2.891  10.560   2.671 -0.0108 -0.2018  0.5850
   93MOL0     C12745   2.676  10.325   2.568 -0.8401 -0.1483  0.2750
   93MOL0     C12746   2.544  10.261   2.576 -0.1818 -0.7506  0.4279
   93MOL0     N12747   1.948   9.753   2.535 -0.0053 -0.5288  0.1558
   93MOL0     N12748   1.828   9.701   2.543  0.0900 -0.3427 -0.7194
   93MOL0     C12749   0.829   9.537   2.357 -1.0338 -0.2039  0.9444
   93MOL0     C12750   0.784   9.590   2.232 -1.1469  0.0942 -0.6629
   93MOL0     C12751   0.782   9.927   1.888  0.7763  0.7059  0.2358
   93MOL0     C12752   0.643   9.930   1.853  0.3450  0.1377 -0.7938
   93MOL0     C12753   0.597  10.031   1.774 -0.2656 -0.1526  1.1639
   93MOL0     C12754   0.687  10.129   1.722 -0.2784 -0.2074 -0.6821
   93MOL0     O12755   0.631  10.251   1.684 -0.2514  0.1095  0.4840
   93MOL0     C12756   0.522  10.252   1.586  0.5083  0.4802 -0.6401
   93MOL0     C12757   0.524  10.383   1.507  0.1681  1.0155  0.5944
   93MOL0     C12758   0.502  10.504   1.597 -0.3919  1.2315  0.3047
   93MOL0     C12759   0.508  10.645   1.530  0.5928 -0.0309  0.4174
   93MOL0     C12760   0.649  10.657   1.486 -0.2322 -0.8333  0.9131
   93MOL0     C12761   0.751  10.683   1.433 -0.6241  0.4769 -0.1411
   93MOL0     C12762   0.819  10.131   1.763  0.4689 -0.0200 -0.3197
   93MOL0     C12763   0.875  10.035   1.846 -0.8371 -0.3727  0.4676
   93MOL0     C12764   1.022  10.045   1.876  0.5348 -0.2983  0.4251
   93MOL0     H12765   0.901   9.902   2.261 -0.9483  0.8915  1.7829
   93MOL0     H12766   0.999   9.807   2.465 -1.2877 -1.0874  0.7364
   93MOL0     H12767   0.986   9.373   2.528 -2.8390  0.2059 -1.8759
   93MOL0     H12768   0.841   9.423   2.610  0.4424 -4.0184  0.2125
   93MOL0     H12769   0.988   9.509   2.815  0.1086  0.1914 -0.0664
   93MOL0     H12770   1.016   9.348   2.777 -0.3780  0.3676  0.4277
   93MOL0     H12771   1.230   9.422   2.635  2.1711 -0.2290  1.7954
   93MOL0     H12772   1.189   9.582   2.667 -1.4261  0.6150 -1.3964
   93MOL0     H12773   1.215   9.510   2.927 -2.2807  1.4993 -2.1851
   93MOL0     H12774   1.277   9.365   2.856 -3.2091 -0.3288  2.9992
   93MOL0     H12775   1.446   9.520   2.928  4.7352  0.1460 -1.7620
   93MOL0     H12776   1.392   9.650   2.819 -3.9367 -1.0940  0.0420
   93MOL0     H12777   1.505   9.377   2.720  0.6659  0.0464  3.4654
   93MOL0     H12778   1.453   9.521   2.623 -0.6857  1.3527 -0.6028
   93MOL0     H12779   1.700   9.505   2.627  0.8838  0.8081 -0.0447
   93MOL0     H12780   1.702   9.497   2.810  0.4272  0.8740  0.3377
   93MOL0     H12781   1.558   9.729   2.692 -0.7117 -0.1934 -0.7874
   93MOL0     H12782   1.671   9.724   2.827  1.9856 -1.7492  0.0401
   93MOL0     H12783   1.812   9.926   2.776 -0.2227  5.1697 -3.0523
   93MOL0     H12784   2.144   9.917   2.633  1.3331  1.5730 -0.2965
   93MOL0     H12785   2.033  10.000   2.731 -0.6053 -0.1974 -0.9187
   93MOL0     H12786   2.096  10.027   2.434 -0.1554  1.4420 -0.7611
   93MOL0     H12787   1.939  10.079   2.485  0.3676 -1.4188 -1.5092
   93MOL0     H12788   2.094  10.287   2.491 -2.2304  1.0492  1.8735
   93MOL0     H12789   2.070  10.230   2.656 -3.8652 -2.1538 -1.6073
   93MOL0     H12790   2.286  10.090   2.605  0.7483 -0.9402 -2.5871
   93MOL0     H12791   2.316  10.182   2.462 -0.1043 -2.4938 -0.3407
   93MOL0     H12792   2.371  10.508   2.724 -1.1976 -0.8859 -0.8812
   93MOL0     H12793   2.677  10.731   2.665 -0.6750 -0.7615 -0.1763
   93MOL0     H12794   2.671  10.666   2.819  0.9302  0.8947 -0.4310
   93MOL0     H12795   2.516  10.725   2.747  1.4774  3.1304  0.3612
   93MOL0     H12796   2.953  10.713   2.364  0.9687  2.3591  1.3094
   93MOL0     H12797   3.186  10.773   2.280  0.5614 -0.1465  0.9236
   93MOL0     H12798   3.432  10.790   2.193 -3.0300  1.5986  1.0886
   93MOL0     H12799   3.409  10.831   2.363 -0.9332  0.4701 -0.0663
   93MOL0     H12800   3.658  10.682   2.248 -1.7999 -1.6334 -0.1233
   93MOL0     H12801   3.636  10.862   2.287  0.4687 -0.9832 -0.0799
   93MOL0     H12802   3.757  10.688   2.460 -0.3273 -0.6248  0.1330
   93MOL0     H12803   3.593  10.626   2.489  0.5738 -0.5104  2.8215
   93MOL0     H12804   3.625  10.760   2.655 -1.7672 -3.5391 -1.2609
   93MOL0     H12805   3.525  10.868   2.555 -0.4589 -0.7721 -0.7246
   93MOL0     H12806   3.832  10.881   2.574 -0.2922 -1.8506 -0.5172
   93MOL0     H12807   3.726  10.971   2.463 -4.0334 -1.1279  1.0017
   93MOL0     H12808   3.736  10.997   2.757  2.5519 -0.9011 -0.8592
   93MOL0     H12809   3.627  11.103   2.666  0.6419  0.5483 -2.0664
   93MOL0     H12810   3.834  11.162   2.534  0.1851  0.4106 -0.2691
   93MOL0     H12811   3.938  11.082   2.657 -0.4831 -2.3504 -0.8395
   93MOL0     H12812   3.790  11.330   2.702 -1.3558 -0.0488  2.0217
   93MOL0     H12813   3.962  11.293   2.736  0.9594 -0.7513  3.0401
   93MOL0     H12814   3.331  10.412   2.460 -0.7331  0.8584  1.9277
   93MOL0     H12815   3.095  10.342   2.507 -1.2948 -0.1707 -0.5971
   93MOL0     H12816   2.757  10.270   2.521 -0.9424 -1.2190  1.3217
   93MOL0     H12817   2.527  10.156   2.552 -0.1015 -0.9126  1.0674
   93MOL0     H12818   0.802   9.435   2.381  0.0629 -0.8432 -0.3585
   93MOL0     H12819   0.721   9.538   2.161 -2.9052  1.7778 -0.4315
   93MOL0     H12820   0.566   9.864   1.893 -1.0616  1.4034 -1.3440
   93MOL0     H12821   0.494  10.045   1.743  0.2788  0.3669 -0.4973
   93MOL0     H12822   0.519  10.161   1.525 -2.5933 -0.3601  0.5779
   93MOL0     H12823   0.432  10.229   1.644  0.5961  0.2442 -0.5958
   93MOL0     H12824   0.444  10.382   1.433 -0.8789 -0.4508  1.6976
   93MOL0     H12825   0.621  10.384   1.456 -0.1033 -4.2959 -0.5871
   93MOL0     H12826   0.403  10.480   1.638  0.0262 -2.5146 -0.4607
   93MOL0     H12827   0.581  10.503   1.673  1.1777 -0.2698 -1.2566
   93MOL0     H12828   0.486  10.725   1.600  1.1071 -1.0995  1.8562
   93MOL0     H12829   0.449  10.651   1.438  3.3646 -0.7275 -1.5779
   93MOL0     H12830   0.838  10.706   1.375  0.1917 -3.8207 -0.9354
   93MOL0     H12831   0.889  10.204   1.723 -0.6151  0.5113 -1.2871
   93MOL0     H12832   1.088   9.977   1.822 -0.1815 -1.9615  1.5529
   93MOL0     H12833   1.051  10.149   1.858 -0.8751  0.1844  0.8038
   93MOL0     H12834   1.036  10.029   1.984  2.3860  0.0104  0.2755
   94MOL0     O12835   0.453  10.102   6.641 -0.1584  0.2947  0.3357
   94MOL0     C12836   0.405  10.154   6.742  0.4912  0.0119  0.6424
   94MOL0     O12837   0.268  10.156   6.772  0.2411 -0.0781 -0.7541
   94MOL0     C12838   0.179  10.063   6.719 -0.1822  0.8459 -0.5085
   94MOL0     C12839   0.205   9.970   6.628  0.4462  0.2103  0.2528
   94MOL0     C12840   0.109   9.886   6.569  0.2284 -0.2531 -0.1428
   94MOL0     C12841  -0.027   9.911   6.607  0.5663  0.4018  0.9856
   94MOL0     O12842  -0.116   9.816   6.544  0.0786  0.3302  0.2412
   94MOL0     C12843  -0.242   9.803   6.607 -0.1931  1.8961  0.0379
   94MOL0     C12844  -0.320   9.693   6.540 -0.3977  0.9774 -0.3075
   94MOL0     C12845  -0.239   9.559   6.542 -0.5705 -0.1279 -0.1428
   94MOL0     C12846  -0.328   9.445   6.501 -0.5992  0.4377  0.3448
   94MOL0     C12847  -0.237   9.329   6.466  0.4550  1.0644 -0.0047
   94MOL0     C12848  -0.159   9.252   6.583  0.3563 -0.8105 -0.2840
   94MOL0     C12849  -0.110   9.115   6.529  0.3473 -0.0896 -0.1290
   94MOL0     C12850  -0.063   9.024   6.643  0.0358  0.4021 -0.3900
   94MOL0     N12851  -0.169   8.975   6.735 -0.2648  0.2843  0.3224
   94MOL0     C12852  -0.299   9.001   6.728  0.1369  0.0941 -0.0452
   94MOL0     C12853  -0.360   8.942   6.838 -0.7782 -0.2894  0.3516
   94MOL0     C12854  -0.513   8.939   6.863 -0.3377 -0.3822  0.0227
   94MOL0     C12855  -0.549   8.990   7.002 -0.0433 -0.1826 -0.6194
   94MOL0     C12856  -0.492   9.130   7.036  0.4796  0.5604  0.2860
   94MOL0     C12857  -0.563   9.196   7.165 -1.2677  0.0384  0.2869
   94MOL0     O12858  -0.550   9.335   7.166 -0.8628  0.1634 -0.0736
   94MOL0     C12859  -0.603   9.400   7.261 -0.3346  0.1422 -0.7660
   94MOL0     C12860  -0.559   9.530   7.280 -0.7375  1.1862  0.0974
   94MOL0     C12861  -0.614   9.615   7.371 -0.2850  0.6643 -0.1491
   94MOL0     C12862  -0.549   9.753   7.372 -0.0847  0.3810 -0.1764
   94MOL0     C12863  -0.729   9.573   7.443 -0.2090 -1.0849  0.1713
   94MOL0     C12864  -0.810   9.662   7.543  0.2329  0.9165 -0.0907
   94MOL0     O12865  -0.946   9.633   7.562  1.3357 -0.2139  0.2698
   94MOL0     C12866  -1.015   9.718   7.647 -1.0946 -0.2059 -0.1229
   94MOL0     C12867  -0.996   9.707   7.782 -0.3197  0.7881 -0.9964
   94MOL0     C12868  -1.069   9.785   7.872  0.3016  0.2867 -0.8251
   94MOL0     C12869  -1.185   9.859   7.831 -0.0286  0.1948 -1.2232
   94MOL0     O12870  -1.283   9.912   7.911 -0.6607  0.5803  1.2795
   94MOL0     C12871  -1.362   9.818   7.980  0.3505  1.4408 -0.9452
   94MOL0     C12872  -1.471   9.886   8.078 -1.0734  0.9616 -0.1614
   94MOL0     C12873  -1.405   9.979   8.177 -0.6669  0.0898  0.2747
   94MOL0     C12874  -1.503  10.020   8.283 -0.3580 -0.6680  0.7780
   94MOL0     C12875  -1.461  10.136   8.368  0.0096  0.6608 -0.3657
   94MOL0     C12876  -1.545  10.159   8.496 -0.6120  0.1295  1.2637
   94MOL0     C12877  -1.687  10.183   8.465  0.3371 -0.7482 -0.8404
   94MOL0     C12878  -1.776  10.209   8.587  0.6638  0.3834 -0.4674
   94MOL0    Cl12879  -1.949  10.217   8.535 -0.0546 -0.4170  0.3983
   94MOL0     C12880  -1.197   9.884   7.697 -0.1741  0.1357  0.1428
   94MOL0     C12881  -1.114   9.807   7.604 -0.3343  0.8043  0.4163
   94MOL0     O12882  -0.740   9.740   7.601 -0.9183 -0.0982 -0.4584
   94MOL0     C12883  -0.781   9.445   7.426 -0.5003  0.0399  0.0069
   94MOL0     C12884  -0.700   9.355   7.345  0.4686  0.0712 -0.5207
   94MOL0     N12885  -0.261   8.885   6.909  0.6093 -2.0979 -0.1641
   94MOL0     N12886  -0.148   8.889   6.841 -0.4182 -0.4555 -0.1713
   94MOL0     C12887  -0.058  10.010   6.692 -0.4846  0.3515  0.0308
   94MOL0     C12888   0.042  10.082   6.760 -0.0525  0.1951  0.2721
   94MOL0     C12889   0.503  10.234   6.821  0.4627  0.1035  0.0769
   94MOL0     C12890   0.442  10.336   6.904 -0.4232 -0.4423 -0.0613
   94MOL0     C12891   0.530  10.403   6.989 -1.1154 -0.4364 -0.2583
   94MOL0     C12892   0.664  10.386   7.002 -1.1379  0.2029 -0.1426
   94MOL0     O12893   0.744  10.443   7.095  0.0576 -0.2147 -0.4148
   94MOL0     C12894   0.759  10.371   7.220  0.2259  0.8288  0.6521
   94MOL0     C12895   0.834  10.460   7.310 -1.2598  0.4250  0.3021
   94MOL0     C12896   0.839  10.400   7.450  0.2899  0.1351  0.2775
   94MOL0     C12897   0.939  10.285   7.454 -0.4625  0.3592  0.2322
   94MOL0     C12898   0.963  10.228   7.586  0.0379  0.4729  0.2905
   94MOL0     C12899   1.008  10.155   7.675  0.1145  0.0405  0.3532
   94MOL0     C12900   0.726  10.291   6.919  0.2052 -1.6794 -0.4889
   94MOL0     C12901   0.648  10.216   6.823  0.7053 -0.6001 -0.6809
   94MOL0     C12902   0.724  10.107   6.739 -0.4518 -0.5770 -0.9367
   94MOL0     H12903   0.306   9.954   6.591  0.4331  2.2691 -0.8098
   94MOL0     H12904   0.133   9.812   6.493 -0.4116 -0.0836 -0.5141
   94MOL0     H12905  -0.304   9.893   6.608 -0.1297  1.9784  2.4310
   94MOL0     H12906  -0.235   9.780   6.714 -0.3160  1.5093 -0.0334
   94MOL0     H12907  -0.415   9.670   6.589 -1.0356  2.0518 -0.9841
   94MOL0     H12908  -0.347   9.723   6.438  1.4664  0.9374 -0.8526
   94MOL0     H12909  -0.155   9.561   6.473  1.0432 -2.0169  1.6273
   94MOL0     H12910  -0.191   9.539   6.638 -1.3753  0.8045  0.4833
   94MOL0     H12911  -0.400   9.420   6.580  2.1488 -2.1754  2.2753
   94MOL0     H12912  -0.385   9.472   6.413  0.1223  0.2797 -0.1804
   94MOL0     H12913  -0.163   9.351   6.388  0.8627  2.0747  0.6545
   94MOL0     H12914  -0.304   9.260   6.414  0.6913 -0.2476  1.3646
   94MOL0     H12915  -0.086   9.320   6.627  0.9831 -1.9145  0.4360
   94MOL0     H12916  -0.233   9.243   6.664  0.2951  0.0657 -0.2392
   94MOL0     H12917  -0.029   9.143   6.461  0.6146  0.6306  0.4750
   94MOL0     H12918  -0.190   9.070   6.470 -1.4665  1.8948  0.6699
   94MOL0     H12919  -0.002   8.941   6.606 -0.6416  0.2035 -1.1009
   94MOL0     H12920   0.011   9.083   6.697  0.8787  1.1407 -2.3036
   94MOL0     H12921  -0.340   9.060   6.646  0.5227 -0.1714 -0.4357
   94MOL0     H12922  -0.536   8.834   6.845  2.0952 -0.7232 -1.6515
   94MOL0     H12923  -0.562   9.005   6.791 -2.5014 -2.6064 -0.6759
   94MOL0     H12924  -0.657   9.007   7.002 -0.1150 -0.2440 -3.5696
   94MOL0     H12925  -0.523   8.917   7.079 -0.8935  2.2717  2.2356
   94MOL0     H12926  -0.385   9.115   7.051 -0.1011 -2.1353  2.7782
   94MOL0     H12927  -0.519   9.185   6.946 -1.7413 -1.6246 -0.5149
   94MOL0     H12928  -0.670   9.173   7.155 -1.6847  1.1403  1.8052
   94MOL0     H12929  -0.509   9.152   7.250  0.1664  1.1264 -0.0315
   94MOL0     H12930  -0.478   9.576   7.223 -1.7197  0.9185 -1.5869
   94MOL0     H12931  -0.469   9.758   7.447 -1.5800  0.0056  1.5189
   94MOL0     H12932  -0.625   9.829   7.396 -0.1791  0.2887 -0.1802
   94MOL0     H12933  -0.503   9.781   7.277  0.2326  0.9954  0.1510
   94MOL0     H12934  -0.917   9.644   7.821 -2.0037  0.4785  2.2967
   94MOL0     H12935  -1.073   9.771   7.979 -0.9155 -3.5488 -1.2322
   94MOL0     H12936  -1.412   9.744   7.918  0.4090 -1.0005  1.7136
   94MOL0     H12937  -1.293   9.759   8.040  1.0383  1.2304 -1.9099
   94MOL0     H12938  -1.545   9.937   8.017 -1.3142 -0.7312 -1.3407
   94MOL0     H12939  -1.523   9.809   8.136 -2.1925  1.8867  0.0952
   94MOL0     H12940  -1.361  10.058   8.115 -0.6610 -0.0845  0.0568
   94MOL0     H12941  -1.320   9.928   8.224 -2.5689 -3.6146  0.1324
   94MOL0     H12942  -1.512   9.926   8.340  0.5666  0.2658  2.5516
   94MOL0     H12943  -1.598  10.052   8.240  0.9303  0.8025 -1.1092
   94MOL0     H12944  -1.354  10.124   8.387 -0.0634 -0.4244 -0.5347
   94MOL0     H12945  -1.465  10.224   8.304  2.1772  1.1425  0.0870
   94MOL0     H12946  -1.505  10.240   8.558  1.1150 -0.5889  1.1338
   94MOL0     H12947  -1.530  10.075   8.565  1.4591 -1.8854 -1.4262
   94MOL0     H12948  -1.735  10.094   8.422 -1.3376 -0.1737 -0.2633
   94MOL0     H12949  -1.698  10.264   8.392  1.7726 -2.4118 -3.0376
   94MOL0     H12950  -1.756  10.298   8.648 -0.3562  0.8373 -0.7747
   94MOL0     H12951  -1.762  10.133   8.665 -2.5189  1.8892  1.7644
   94MOL0     H12952  -1.274   9.950   7.659  1.1287  2.2445  1.0223
   94MOL0     H12953  -1.127   9.827   7.498  3.3336 -1.8022 -0.7391
   94MOL0     H12954  -0.874   9.418   7.475  0.5839 -2.1482  1.0148
   94MOL0     H12955  -0.738   9.253   7.352 -0.2315  0.3733  0.1690
   94MOL0     H12956  -0.158  10.035   6.727 -0.2251  1.1276  0.2555
   94MOL0     H12957   0.003  10.148   6.836 -3.1042  0.4941 -1.4059
   94MOL0     H12958   0.335  10.351   6.898 -0.4333 -1.0050 -1.5669
   94MOL0     H12959   0.483  10.472   7.058 -4.0659 -2.2934 -0.2554
   94MOL0     H12960   0.664  10.348   7.267 -0.7377 -1.0989 -2.0054
   94MOL0     H12961   0.795  10.271   7.193  2.6441  1.6956  0.4313
   94MOL0     H12962   0.770  10.549   7.305 -1.9027 -0.0581 -0.1657
   94MOL0     H12963   0.936  10.484   7.279  0.1145  0.2827  4.1642
   94MOL0     H12964   0.881  10.481   7.510  0.1270  0.2811  0.1927
   94MOL0     H12965   0.742  10.362   7.484  1.5344 -0.8468  3.0571
   94MOL0     H12966   1.028  10.321   7.401 -1.7708  1.0150 -1.6339
   94MOL0     H12967   0.900  10.199   7.399 -1.5585  1.3462 -0.5834
   94MOL0     H12968   1.054  10.098   7.754  0.0013 -1.0496 -0.3485
   94MOL0     H12969   0.833  10.277   6.918  0.2651 -2.4801  2.9102
   94MOL0     H12970   0.684  10.089   6.639  2.5184 -2.3193 -1.9459
   94MOL0     H12971   0.832  10.123   6.732 -0.4300 -0.7372 -0.9604
   94MOL0     H12972   0.721  10.014   6.797 -0.2537 -0.4710 -0.7556
   95MOL0     O12973   7.085   9.175   1.756  0.8325  0.5814 -0.5987
   95MOL0     C12974   7.199   9.215   1.733 -0.6466 -0.8468  0.2998
   95MOL0     O12975   7.284   9.268   1.826  0.1324  0.1312  0.4175
   95MOL0     C12976   7.231   9.315   1.950  0.0625 -0.2697  0.1587
   95MOL0     C12977   7.104   9.366   1.977  0.0244 -0.1310  0.5671
   95MOL0     C12978   7.061   9.401   2.097 -0.5835 -0.3222 -1.2181
   95MOL0     C12979   7.136   9.379   2.209  0.2616  0.4655 -0.0105
   95MOL0     O12980   7.066   9.407   2.331  0.3086 -0.5118  0.7502
   95MOL0     C12981   7.122   9.366   2.460 -0.0554 -0.4883 -1.3117
   95MOL0     C12982   7.017   9.387   2.578 -0.4617  0.8490  0.4623
   95MOL0     C12983   6.984   9.528   2.626  0.4296 -0.0089 -0.4361
   95MOL0     C12984   7.029   9.546   2.776 -0.7604 -0.7563 -1.1867
   95MOL0     C12985   7.180   9.544   2.817  0.3290 -0.5073  0.8123
   95MOL0     C12986   7.247   9.665   2.742  0.1751  0.1188 -0.2654
   95MOL0     C12987   7.395   9.653   2.764 -1.2200  0.0078 -0.0641
   95MOL0     C12988   7.464   9.750   2.677 -0.7618  0.0653 -0.4073
   95MOL0     N12989   7.436   9.891   2.716 -0.0095 -0.2663 -0.0258
   95MOL0     C12990   7.518   9.959   2.803 -0.5499 -0.1309  0.2241
   95MOL0     C12991   7.472  10.079   2.808 -0.3102  0.0784 -0.4729
   95MOL0     C12992   7.529  10.187   2.891 -0.2522 -0.0214 -0.0837
   95MOL0     C12993   7.677  10.235   2.870 -0.3493  0.7057  0.1305
   95MOL0     C12994   7.684  10.372   2.807 -0.9895 -0.4664 -0.7105
   95MOL0     C12995   7.822  10.407   2.749 -0.4383  0.4454  0.1373
   95MOL0     O12996   7.919  10.427   2.862  0.1069 -0.2829  0.6933
   95MOL0     C12997   8.046  10.474   2.848  0.0114 -1.0005 -0.5155
   95MOL0     C12998   8.141  10.453   2.952  0.3864  0.3241  0.8421
   95MOL0     C12999   8.273  10.492   2.931  0.0820  0.1905  0.4004
   95MOL0     C13000   8.367  10.454   3.046  0.0615  0.0131  0.2851
   95MOL0     C13001   8.306  10.572   2.820  1.0133  0.4538 -0.4273
   95MOL0     C13002   8.441  10.643   2.805  0.3250 -0.6007 -1.0539
   95MOL0     O13003   8.485  10.658   2.678 -0.1888 -0.0614  0.5706
   95MOL0     C13004   8.595  10.732   2.659 -0.2414  0.5404  0.5401
   95MOL0     C13005   8.687  10.683   2.570 -0.5743 -0.2864 -0.3781
   95MOL0     C13006   8.800  10.754   2.531 -0.1570  0.2722 -0.2105
   95MOL0     C13007   8.845  10.869   2.591  0.2073  0.0887  0.0519
   95MOL0     O13008   8.961  10.927   2.544 -0.9136 -0.2433  0.1442
   95MOL0     C13009   9.036  11.033   2.612  0.4827  0.8944  0.3144
   95MOL0     C13010   9.192  11.028   2.570 -0.2571 -0.0622  1.0025
   95MOL0     C13011   9.280  10.936   2.661 -1.1867  0.2042  1.0171
   95MOL0     C13012   9.218  10.800   2.693  0.5942  0.6527 -0.9564
   95MOL0     C13013   9.293  10.702   2.779 -0.0256  0.6624 -0.4853
   95MOL0     C13014   9.235  10.562   2.758  0.7153 -1.0123  0.4947
   95MOL0     C13015   9.305  10.461   2.845 -0.5216  0.0804 -0.6563
   95MOL0     C13016   9.219  10.341   2.850  0.0203 -0.0110 -0.1449
   95MOL0    Cl13017   9.325  10.208   2.917 -0.4732 -0.0300  0.4288
   95MOL0     C13018   8.756  10.912   2.691 -0.1350  0.3681  0.0864
   95MOL0     C13019   8.630  10.853   2.719 -0.1477 -0.5763 -0.0737
   95MOL0     O13020   8.502  10.667   2.910 -0.2273  0.0509 -0.1699
   95MOL0     C13021   8.217  10.589   2.717  0.1316  0.2524  0.5776
   95MOL0     C13022   8.091  10.535   2.728  0.3850 -0.1591 -0.1543
   95MOL0     N13023   7.367  10.083   2.711  0.4560 -0.0787  0.5966
   95MOL0     N13024   7.336   9.965   2.664 -0.3291  1.1527 -0.1110
   95MOL0     C13025   7.267   9.328   2.194 -0.7347 -0.4211 -0.1329
   95MOL0     C13026   7.308   9.285   2.067  0.3590 -0.1325  0.5720
   95MOL0     C13027   7.251   9.217   1.592 -0.0765 -0.2786 -0.1788
   95MOL0     C13028   7.165   9.255   1.483 -0.4871  0.4703 -1.1574
   95MOL0     C13029   7.200   9.252   1.349  0.9296 -0.8206  0.5721
   95MOL0     C13030   7.327   9.204   1.323  0.3546  0.2278  0.6925
   95MOL0     O13031   7.352   9.177   1.193  0.1605 -0.4032  0.2587
   95MOL0     C13032   7.475   9.154   1.133 -0.2155  1.0287 -0.4899
   95MOL0     C13033   7.473   9.004   1.105 -0.2218 -0.8966 -0.4225
   95MOL0     C13034   7.605   8.955   1.049 -0.0676  0.7216  0.4484
   95MOL0     C13035   7.614   8.945   0.899  1.1115 -0.2577  0.4564
   95MOL0     C13036   7.598   9.081   0.839 -0.3171  0.0046  0.3448
   95MOL0     C13037   7.590   9.203   0.802  0.6428 -0.3905 -0.0979
   95MOL0     C13038   7.417   9.164   1.424  0.3245 -0.5904 -0.5064
   95MOL0     C13039   7.380   9.174   1.556  0.8717  0.9193 -0.9230
   95MOL0     C13040   7.485   9.145   1.666 -0.2060  0.3358  0.4753
   95MOL0     H13041   7.051   9.396   1.887  2.6277  1.3342 -0.5748
   95MOL0     H13042   6.972   9.458   2.121  1.9997  2.7395  2.2909
   95MOL0     H13043   7.206   9.435   2.470 -0.4046 -0.2240 -0.0229
   95MOL0     H13044   7.165   9.266   2.463 -1.9758 -1.3373  0.8230
   95MOL0     H13045   6.925   9.331   2.560 -0.0212  0.5302 -0.8620
   95MOL0     H13046   7.058   9.329   2.662  4.9730  4.1852  0.6155
   95MOL0     H13047   7.037   9.595   2.558  1.3628 -2.3478 -2.1209
   95MOL0     H13048   6.877   9.535   2.606 -0.1647 -1.0936  1.9322
   95MOL0     H13049   6.981   9.631   2.826  0.6964 -0.2013 -0.7073
   95MOL0     H13050   6.983   9.457   2.820 -3.8600  1.5709  0.6893
   95MOL0     H13051   7.222   9.447   2.792  2.0191 -0.6599  3.8038
   95MOL0     H13052   7.199   9.559   2.924 -0.8705 -0.5911  1.0551
   95MOL0     H13053   7.217   9.653   2.637  1.2523 -0.5787 -0.5183
   95MOL0     H13054   7.208   9.755   2.789  1.0173 -1.1073  3.0428
   95MOL0     H13055   7.440   9.557   2.733 -1.0271  1.0596 -3.4578
   95MOL0     H13056   7.432   9.671   2.865 -0.7299  0.8552 -0.3845
   95MOL0     H13057   7.571   9.730   2.692 -0.3547 -0.7067 -3.5967
   95MOL0     H13058   7.446   9.724   2.572  0.7147 -0.2135 -0.6160
   95MOL0     H13059   7.598   9.918   2.864  0.7526 -3.7812 -3.5028
   95MOL0     H13060   7.506  10.158   2.994  0.1008 -3.2446 -0.7935
   95MOL0     H13061   7.460  10.267   2.864 -1.4411 -1.1713 -0.6094
   95MOL0     H13062   7.737  10.239   2.962  2.4196  1.4401 -1.5810
   95MOL0     H13063   7.721  10.163   2.801 -0.1132  2.7446 -1.9552
   95MOL0     H13064   7.612  10.370   2.726 -1.6321 -1.9924 -0.1191
   95MOL0     H13065   7.666  10.449   2.883  1.8138 -0.5387  0.1563
   95MOL0     H13066   7.857  10.331   2.679 -2.2209 -2.0217  1.7700
   95MOL0     H13067   7.806  10.500   2.693 -1.6527 -0.3852 -0.9528
   95MOL0     H13068   8.123  10.398   3.043 -3.8155  2.2236  1.4166
   95MOL0     H13069   8.370  10.542   3.111 -1.4846 -0.1627  0.6335
   95MOL0     H13070   8.468  10.421   3.020  0.8760  1.6741  1.1649
   95MOL0     H13071   8.334  10.366   3.102  6.0726 -3.1453 -0.2641
   95MOL0     H13072   8.674  10.583   2.530 -1.3365  0.0874 -1.0772
   95MOL0     H13073   8.873  10.711   2.463  1.8826  2.1663  0.6469
   95MOL0     H13074   9.003  11.133   2.583 -1.3786  0.7721  1.7664
   95MOL0     H13075   9.029  11.021   2.721  3.6918 -1.2122  0.4227
   95MOL0     H13076   9.196  10.987   2.469 -1.1344 -2.9095  2.0146
   95MOL0     H13077   9.233  11.129   2.574 -1.9747  0.6986  0.6055
   95MOL0     H13078   9.305  11.000   2.746 -1.3915 -0.5672  1.6642
   95MOL0     H13079   9.369  10.909   2.604 -0.9381  0.7796  1.1307
   95MOL0     H13080   9.206  10.744   2.600  3.1109 -3.4516  0.9342
   95MOL0     H13081   9.116  10.813   2.730 -0.6870 -0.3274 -3.8425
   95MOL0     H13082   9.400  10.719   2.762  0.6461  0.1317  2.6039
   95MOL0     H13083   9.284  10.716   2.887  0.3802 -4.2366  0.3766
   95MOL0     H13084   9.247  10.531   2.653 -0.7883 -3.8022  1.0594
   95MOL0     H13085   9.128  10.566   2.776  0.3049 -0.0083 -1.8204
   95MOL0     H13086   9.332  10.494   2.946  2.3285 -4.0687  0.1790
   95MOL0     H13087   9.403  10.445   2.800  0.4990 -0.0052  1.4592
   95MOL0     H13088   9.182  10.320   2.749 -1.4873 -0.7258  0.5164
   95MOL0     H13089   9.130  10.349   2.913  0.5154  1.6680  0.4125
   95MOL0     H13090   8.778  10.998   2.753  0.1683  0.2955  0.0827
   95MOL0     H13091   8.565  10.891   2.798  1.1298  2.5613 -0.4050
   95MOL0     H13092   8.246  10.634   2.622  1.7952  0.6150  1.2266
   95MOL0     H13093   8.025  10.537   2.642 -0.2872  2.3229  0.3246
   95MOL0     H13094   7.329   9.308   2.281 -1.5242  0.1859  0.5886
   95MOL0     H13095   7.398   9.227   2.053  1.0665  0.6296  1.7670
   95MOL0     H13096   7.075   9.308   1.512 -1.4668 -2.3712  1.5206
   95MOL0     H13097   7.126   9.281   1.276  2.2871 -0.2082 -0.6193
   95MOL0     H13098   7.490   9.213   1.042  1.4868  1.8001  0.2490
   95MOL0     H13099   7.560   9.192   1.190 -0.5408  1.2482 -0.1427
   95MOL0     H13100   7.387   8.975   1.044 -0.4881 -1.6001  0.2684
   95MOL0     H13101   7.460   8.944   1.195  1.4577  0.3347  0.6963
   95MOL0     H13102   7.689   9.018   1.079 -0.0110  1.3149 -0.8756
   95MOL0     H13103   7.623   8.856   1.092 -1.0170  0.3495  0.0073
   95MOL0     H13104   7.542   8.883   0.846  0.0391  2.3411 -1.2971
   95MOL0     H13105   7.713   8.903   0.875  1.2444  0.4653 -0.3086
   95MOL0     H13106   7.607   9.304   0.772 -0.2189 -0.3292 -0.4121
   95MOL0     H13107   7.512   9.116   1.400  1.4852  1.9543 -1.3600
   95MOL0     H13108   7.458   9.058   1.726 -2.8679  0.7166 -0.0282
   95MOL0     H13109   7.583   9.136   1.618  0.7883  2.0590  2.0234
   95MOL0     H13110   7.503   9.220   1.743 -1.5351  2.6689 -1.3566
   96MOL0     O13111  10.767   2.051   8.303 -0.3800 -0.1002  0.4271
   96MOL0     C13112  10.865   2.120   8.262  0.2734 -0.0238  1.2071
   96MOL0     O13113  10.983   2.137   8.315  0.7334 -0.2222 -0.0517
   96MOL0     C13114  11.026   2.084   8.432 -0.1746 -0.2465 -0.1756
   96MOL0     C13115  11.164   2.083   8.467 -0.5001  0.4270  1.0275
   96MOL0     C13116  11.214   2.029   8.587 -0.5768  0.0965  0.2584
   96MOL0     C13117  11.128   1.988   8.689  0.0706 -0.0144 -0.6943
   96MOL0     O13118  11.183   1.960   8.811  0.0928 -0.0274  0.4234
   96MOL0     C13119  11.119   1.958   8.937 -0.6214 -0.7282 -0.3471
   96MOL0     C13120  11.215   1.908   9.050  0.0163  0.1110 -0.0399
   96MOL0     C13121  11.149   1.911   9.185 -0.3873  0.3408  0.3112
   96MOL0     C13122  11.081   2.047   9.230  0.6631 -0.0987 -0.0358
   96MOL0     C13123  11.062   2.044   9.391  0.0394 -0.1580  0.4650
   96MOL0     C13124  10.984   2.173   9.434 -0.5739  0.6551  0.2432
   96MOL0     C13125  10.993   2.212   9.576  0.4516  0.1595 -0.1714
   96MOL0     C13126  10.875   2.176   9.665 -0.0961  0.6392  0.4075
   96MOL0     N13127  10.900   2.035   9.703 -0.1136 -0.4477 -0.4528
   96MOL0     C13128  11.014   1.984   9.769 -0.2296  0.0799 -1.0039
   96MOL0     C13129  10.999   1.851   9.781  0.6592 -0.6471  0.8353
   96MOL0     C13130  11.090   1.754   9.854  0.6050  0.1558 -0.6645
   96MOL0     C13131  11.150   1.673   9.738  0.9910 -0.2980  0.3204
   96MOL0     C13132  11.247   1.573   9.786  1.0292  0.5617  0.9305
   96MOL0     C13133  11.384   1.601   9.733  0.0742 -0.8642  0.8243
   96MOL0     O13134  11.440   1.708   9.811  0.9985 -0.0815  0.6924
   96MOL0     C13135  11.455   1.826   9.755  0.4147 -0.6824  0.4618
   96MOL0     C13136  11.431   1.942   9.830  0.5354  0.0645 -0.1558
   96MOL0     C13137  11.429   2.072   9.777 -0.2070 -0.6233 -0.4068
   96MOL0     C13138  11.385   2.202   9.859 -0.2030  0.1237  0.4396
   96MOL0     C13139  11.483   2.084   9.642 -0.6867  0.2225  0.8467
   96MOL0     C13140  11.494   2.224   9.578  0.8362 -0.0163 -0.5210
   96MOL0     O13141  11.505   2.333   9.650  0.4388  0.8695 -0.7094
   96MOL0     C13142  11.424   2.432   9.625  0.8353 -0.0278  1.2321
   96MOL0     C13143  11.497   2.550   9.610 -0.4336 -0.6200  0.8750
   96MOL0     C13144  11.429   2.668   9.582 -0.1602 -0.8765  0.0467
   96MOL0     C13145  11.297   2.660   9.551  0.8050  0.7116 -0.7237
   96MOL0     O13146  11.218   2.764   9.532  0.8497  0.5000  0.8649
   96MOL0     C13147  11.242   2.898   9.574 -0.4204 -0.5125 -0.4090
   96MOL0     C13148  11.101   2.961   9.588  0.2248  0.9166  0.4767
   96MOL0     C13149  11.013   2.884   9.689 -0.3035  0.0355 -0.7289
   96MOL0     C13150  11.056   2.874   9.839  0.8304 -0.3174 -0.3537
   96MOL0     C13151  10.940   2.806   9.911  0.0379  0.2589  0.2093
   96MOL0     C13152  10.986   2.786  10.060  0.6780  0.0958 -0.2983
   96MOL0     C13153  10.879   2.727  10.149  0.5269  0.1258 -0.1927
   96MOL0     C13154  10.803   2.598  10.096  0.8105  1.0624 -0.2832
   96MOL0    Cl13155  10.753   2.490  10.230 -0.6828  0.4750 -0.3379
   96MOL0     C13156  11.226   2.538   9.554  0.3489 -0.4483  0.2563
   96MOL0     C13157  11.290   2.425   9.591  0.3500 -0.0024 -0.2425
   96MOL0     O13158  11.489   2.227   9.460 -0.3670 -0.0603 -0.2576
   96MOL0     C13159  11.501   1.967   9.568 -0.3857  0.3901 -0.2737
   96MOL0     C13160  11.491   1.837   9.622  0.8860 -0.3355  0.0705
   96MOL0     N13161  10.869   1.827   9.733  0.9292 -0.3970  0.2349
   96MOL0     N13162  10.820   1.927   9.673  0.0901 -0.7441  0.0522
   96MOL0     C13163  10.998   1.980   8.655 -0.3916 -0.1740  0.0183
   96MOL0     C13164  10.945   2.032   8.533  0.0956 -0.9498  0.5308
   96MOL0     C13165  10.849   2.187   8.133  0.2663 -0.1827 -0.1569
   96MOL0     C13166  10.957   2.180   8.048  0.4543 -0.6193  0.9321
   96MOL0     C13167  10.962   2.257   7.924  0.0153 -0.0443 -0.5101
   96MOL0     C13168  10.844   2.326   7.888 -0.5659  0.6135  0.8758
   96MOL0     O13169  10.856   2.391   7.766  0.2304  1.0103  0.2106
   96MOL0     C13170  10.723   2.416   7.693 -0.4809 -0.4454  0.2220
   96MOL0     C13171  10.758   2.487   7.560  0.4079  0.4176 -0.4724
   96MOL0     C13172  10.649   2.478   7.454  0.2530 -0.7026  1.0902
   96MOL0     C13173  10.679   2.547   7.318  0.0122  0.0842 -0.0921
   96MOL0     C13174  10.794   2.480   7.265  0.3648  0.8436  0.1655
   96MOL0     C13175  10.894   2.414   7.235  0.5589  0.5636 -0.4869
   96MOL0     C13176  10.729   2.320   7.968  0.2360  0.8445  0.3655
   96MOL0     C13177  10.730   2.262   8.093 -0.0182  0.0137 -0.0092
   96MOL0     C13178  10.609   2.278   8.179  0.4202  0.7329 -0.1513
   96MOL0     H13179  11.237   2.124   8.398 -1.3372 -0.5962 -0.5344
   96MOL0     H13180  11.321   2.036   8.605 -0.9011 -0.8044  3.0530
   96MOL0     H13181  11.029   1.895   8.933 -0.4222 -0.9869 -0.7853
   96MOL0     H13182  11.097   2.062   8.961  1.5697  0.6089 -3.5029
   96MOL0     H13183  11.249   1.805   9.036 -0.0904  0.2308 -1.3043
   96MOL0     H13184  11.305   1.970   9.049  0.2215 -0.1574  0.8328
   96MOL0     H13185  11.077   1.828   9.184 -0.9672  0.8376 -0.4446
   96MOL0     H13186  11.230   1.885   9.253 -1.0929  1.7013  1.7492
   96MOL0     H13187  11.138   2.133   9.196 -1.0378  0.9964 -0.2323
   96MOL0     H13188  10.979   2.053   9.190  0.2220  0.5567  1.1419
   96MOL0     H13189  11.163   2.048   9.433  0.6672 -1.5754 -0.8177
   96MOL0     H13190  10.993   1.968   9.431 -0.0251 -1.2321 -1.5628
   96MOL0     H13191  11.003   2.260   9.370 -1.7602  1.3167  0.7685
   96MOL0     H13192  10.882   2.145   9.404  0.3756 -2.4436 -0.4746
   96MOL0     H13193  10.988   2.321   9.582 -1.5975  0.1326 -0.8952
   96MOL0     H13194  11.087   2.173   9.618  0.0034 -1.9683 -1.0449
   96MOL0     H13195  10.868   2.241   9.753 -0.6987 -1.3764  1.9378
   96MOL0     H13196  10.787   2.173   9.600 -1.1687  0.5847  1.7970
   96MOL0     H13197  11.105   2.035   9.799 -1.6322  1.8558  0.4933
   96MOL0     H13198  11.032   1.688   9.918  2.6097  0.4388  1.5734
   96MOL0     H13199  11.163   1.805   9.917  2.1705 -0.4532 -1.9246
   96MOL0     H13200  11.060   1.629   9.694  0.5629 -0.5121  1.3823
   96MOL0     H13201  11.192   1.737   9.660  0.5017  1.5826  1.5522
   96MOL0     H13202  11.245   1.564   9.895 -1.8019 -2.3181  0.8055
   96MOL0     H13203  11.209   1.476   9.752 -1.1970  1.5249  0.4664
   96MOL0     H13204  11.457   1.519   9.732  0.2302 -0.7714 -1.3942
   96MOL0     H13205  11.367   1.620   9.627 -1.5701 -0.5701  1.1198
   96MOL0     H13206  11.396   1.940   9.932 -2.6408 -2.2985 -1.1092
   96MOL0     H13207  11.463   2.272   9.891  0.3607 -0.0472 -0.5376
   96MOL0     H13208  11.347   2.166   9.955 -1.6967  1.4153  0.3846
   96MOL0     H13209  11.298   2.259   9.824 -0.1112  0.9397  1.5067
   96MOL0     H13210  11.602   2.558   9.637 -1.4116  5.7941  4.9235
   96MOL0     H13211  11.480   2.762   9.600 -0.9513 -0.3073 -0.6529
   96MOL0     H13212  11.297   2.896   9.668  0.2198  0.7356 -0.7310
   96MOL0     H13213  11.302   2.935   9.491 -0.2865 -3.8100 -1.9315
   96MOL0     H13214  11.101   3.063   9.629  1.2944 -0.3297  3.8746
   96MOL0     H13215  11.036   2.977   9.501  0.8136  1.9312  0.2071
   96MOL0     H13216  10.979   2.791   9.644 -2.5690  1.1270 -1.4265
   96MOL0     H13217  10.928   2.951   9.706  2.1885  3.1195  0.5774
   96MOL0     H13218  11.084   2.969   9.886  2.8097 -1.7583  1.6247
   96MOL0     H13219  11.145   2.811   9.846  1.3956  0.5162  0.0853
   96MOL0     H13220  10.858   2.877   9.903  0.5175  0.9889  1.4651
   96MOL0     H13221  10.921   2.708   9.866 -0.5032 -0.6313  2.2472
   96MOL0     H13222  11.024   2.881  10.099  1.7683 -0.4309 -0.0508
   96MOL0     H13223  11.068   2.714  10.067 -1.0243 -1.8492  0.8784
   96MOL0     H13224  10.806   2.807  10.163 -1.4112 -1.4874 -0.4860
   96MOL0     H13225  10.936   2.698  10.238  0.5424 -0.8470 -0.5016
   96MOL0     H13226  10.876   2.540  10.038  0.7001  3.0065 -2.5412
   96MOL0     H13227  10.716   2.623  10.034 -0.1044  0.2518  0.6427
   96MOL0     H13228  11.121   2.529   9.530  1.1328 -0.9337 -3.7233
   96MOL0     H13229  11.234   2.333   9.605  0.9105 -0.6237 -1.8152
   96MOL0     H13230  11.514   1.958   9.461 -1.2866  2.8690 -0.6461
   96MOL0     H13231  11.503   1.748   9.561 -0.0754 -2.0726  2.2605
   96MOL0     H13232  10.926   1.935   8.723 -2.5284 -4.4297 -4.4556
   96MOL0     H13233  10.837   2.045   8.529  0.3316  2.0945  1.2998
   96MOL0     H13234  11.043   2.122   8.079 -0.0079 -1.9730 -0.2214
   96MOL0     H13235  11.054   2.261   7.867 -0.0044 -0.2426 -0.5542
   96MOL0     H13236  10.673   2.320   7.679  0.7195 -1.3262  1.6657
   96MOL0     H13237  10.651   2.475   7.751  2.0793  2.3809  0.7998
   96MOL0     H13238  10.842   2.424   7.530 -0.5294 -1.7535  1.1851
   96MOL0     H13239  10.803   2.584   7.584  4.1221 -1.0655 -0.6272
   96MOL0     H13240  10.639   2.370   7.439 -0.2471 -1.0288  3.3463
   96MOL0     H13241  10.553   2.521   7.485 -1.3281 -1.5420 -2.2168
   96MOL0     H13242  10.681   2.656   7.330 -1.3310  0.2088 -0.7459
   96MOL0     H13243  10.595   2.518   7.254  3.2901 -2.3587 -3.7289
   96MOL0     H13244  10.976   2.348   7.216  0.0541 -0.1045 -0.3715
   96MOL0     H13245  10.637   2.373   7.943 -0.1163  1.6241  2.9585
   96MOL0     H13246  10.534   2.202   8.156  2.4227 -0.7993 -2.1245
   96MOL0     H13247  10.639   2.263   8.283  1.0974  0.6059 -0.3603
   96MOL0     H13248  10.562   2.375   8.159 -2.9765 -0.8534 -0.6375
   97MOL0     O13249   5.232   1.226   3.566 -0.3544  0.4099 -0.4813
   97MOL0     C13250   5.319   1.303   3.529 -0.3556  0.2055  0.0548
   97MOL0     O13251   5.444   1.312   3.575 -0.8599  0.5296 -0.2088
   97MOL0     C13252   5.488   1.270   3.700 -0.2331  0.8499 -0.1665
   97MOL0     C13253   5.407   1.226   3.812  0.8873  0.1391  0.6154
   97MOL0     C13254   5.475   1.175   3.920 -0.6037  0.0996 -0.1138
   97MOL0     C13255   5.611   1.184   3.938 -0.9142 -0.4102  0.1796
   97MOL0     O13256   5.665   1.143   4.063 -0.1138  0.0315 -0.2737
   97MOL0     C13257   5.796   1.092   4.072  0.8648  1.0202  0.1745
   97MOL0     C13258   5.875   1.203   4.146  0.1920  0.4153 -0.1711
   97MOL0     C13259   5.822   1.217   4.283 -0.4432 -0.1922  0.1557
   97MOL0     C13260   5.866   1.339   4.354 -0.8554 -0.3203 -0.2740
   97MOL0     C13261   5.816   1.317   4.499 -0.0748 -0.0603 -0.5548
   97MOL0     C13262   5.853   1.432   4.591  0.0436  0.4317 -0.5862
   97MOL0     C13263   5.791   1.414   4.735  0.5519  0.1084  0.0870
   97MOL0     C13264   5.894   1.476   4.833 -0.4089  0.1576 -0.0721
   97MOL0     N13265   5.850   1.461   4.969  0.6419 -0.3116 -0.2030
   97MOL0     C13266   5.923   1.417   5.080 -0.4851  1.2835 -0.1042
   97MOL0     C13267   5.860   1.449   5.190 -0.1831  0.2860 -1.1960
   97MOL0     C13268   5.915   1.435   5.328  0.1185  0.8971 -0.0156
   97MOL0     C13269   6.035   1.524   5.342  0.0224 -0.6234 -0.0171
   97MOL0     C13270   5.993   1.684   5.352  0.2284 -0.5212 -0.0688
   97MOL0     C13271   6.098   1.766   5.432  0.6831 -0.9762 -0.6304
   97MOL0     O13272   6.118   1.698   5.556 -0.9791  0.0451  0.2563
   97MOL0     C13273   6.083   1.766   5.671  0.0082  0.1122 -0.3001
   97MOL0     C13274   6.132   1.892   5.696 -0.7763 -0.6680  0.3594
   97MOL0     C13275   6.125   1.955   5.828 -1.0733  0.1106 -0.1013
   97MOL0     C13276   6.171   2.095   5.842 -0.6872  1.1143  0.1392
   97MOL0     C13277   6.073   1.881   5.932  0.5188 -0.3791 -0.0651
   97MOL0     C13278   6.088   1.915   6.073 -0.5555 -0.7614 -0.0150
   97MOL0     O13279   6.208   1.970   6.112 -0.8795  0.3930 -0.2143
   97MOL0     C13280   6.221   1.989   6.240  0.4049 -0.6395  0.8267
   97MOL0     C13281   6.166   2.109   6.288  0.2192  0.1590 -0.2222
   97MOL0     C13282   6.167   2.140   6.423 -0.3856  0.5442  0.8399
   97MOL0     C13283   6.219   2.047   6.514  0.4931  0.3231  0.0493
   97MOL0     O13284   6.206   2.081   6.645  0.1447  0.2357  0.4791
   97MOL0     C13285   6.187   1.981   6.746  0.4741 -0.5096  0.2831
   97MOL0     C13286   6.309   1.953   6.836 -0.0313 -0.1772  0.2444
   97MOL0     C13287   6.269   1.896   6.970 -0.7706  0.4883 -0.5891
   97MOL0     C13288   6.394   1.869   7.051 -0.4105 -0.1871  1.1326
   97MOL0     C13289   6.364   1.804   7.185 -1.2746 -0.6359  0.5573
   97MOL0     C13290   6.305   1.906   7.286 -1.5024  0.9919 -0.2671
   97MOL0     C13291   6.225   1.842   7.392  0.2279 -0.5552 -0.2012
   97MOL0     C13292   6.156   1.955   7.468 -0.5384 -0.1793 -0.7389
   97MOL0    Cl13293   6.008   1.998   7.378 -0.2728  0.1242 -0.4753
   97MOL0     C13294   6.270   1.927   6.460  0.3180 -0.0976  0.0493
   97MOL0     C13295   6.271   1.898   6.320  1.2391  0.1563  0.6602
   97MOL0     O13296   5.991   1.882   6.145 -0.0085  0.2034  0.6063
   97MOL0     C13297   6.035   1.747   5.899  0.2387 -0.0456  0.2631
   97MOL0     C13298   6.030   1.696   5.777 -0.5938  0.6416  0.3131
   97MOL0     N13299   5.755   1.535   5.158 -1.2666  0.6105  0.7725
   97MOL0     N13300   5.746   1.531   5.027  0.9777  1.7902 -0.1165
   97MOL0     C13301   5.694   1.234   3.828  0.6400  0.3778  1.2646
   97MOL0     C13302   5.623   1.267   3.711 -0.9758  1.0526 -0.4892
   97MOL0     C13303   5.274   1.391   3.412 -0.6903  0.0579  0.2665
   97MOL0     C13304   5.349   1.504   3.390  0.3316 -0.5881 -0.1516
   97MOL0     C13305   5.310   1.599   3.295  1.4929 -0.7183 -1.5679
   97MOL0     C13306   5.184   1.599   3.229  1.2072 -0.9579  0.3238
   97MOL0     O13307   5.120   1.707   3.158 -0.3454  0.2493 -0.5087
   97MOL0     C13308   5.079   1.684   3.022 -0.9105  0.7321  0.1345
   97MOL0     C13309   5.197   1.683   2.928  0.1919  0.5276 -0.5079
   97MOL0     C13310   5.291   1.797   2.945  0.2171 -0.4252  0.1512
   97MOL0     C13311   5.224   1.936   2.940  0.4370 -0.1735 -0.5493
   97MOL0     C13312   5.318   2.042   2.893  0.0848 -0.4017 -0.2662
   97MOL0     C13313   5.381   2.136   2.856 -2.0028 -0.0805 -0.4698
   97MOL0     C13314   5.120   1.475   3.229  0.5222  0.3022 -0.2711
   97MOL0     C13315   5.167   1.374   3.322  0.4545 -0.7611  0.3597
   97MOL0     C13316   5.090   1.247   3.312 -0.5147  0.4381  0.3254
   97MOL0     H13317   5.300   1.215   3.801  1.1507 -2.4776 -0.1625
   97MOL0     H13318   5.416   1.131   3.999 -1.3400  2.0383  0.4835
   97MOL0     H13319   5.842   1.065   3.976  1.4112  0.9312  0.4591
   97MOL0     H13320   5.810   1.002   4.131  2.0843  1.0446 -0.0538
   97MOL0     H13321   5.980   1.176   4.158 -0.1939 -1.1671 -0.1045
   97MOL0     H13322   5.861   1.296   4.090  2.2015  4.3302  5.0163
   97MOL0     H13323   5.713   1.226   4.278 -0.4320 -0.1917 -0.1097
   97MOL0     H13324   5.863   1.134   4.341  0.9104  1.4590  1.6778
   97MOL0     H13325   5.974   1.349   4.344 -0.4816 -3.9329 -1.2254
   97MOL0     H13326   5.837   1.433   4.306  1.5689  0.1555 -0.9142
   97MOL0     H13327   5.854   1.217   4.522  3.8055  1.9260  3.1387
   97MOL0     H13328   5.708   1.328   4.506 -0.1521  1.2864 -2.7520
   97MOL0     H13329   5.963   1.432   4.593  0.0364  0.4769  0.8720
   97MOL0     H13330   5.823   1.532   4.559 -2.9124  0.5336  2.0155
   97MOL0     H13331   5.788   1.308   4.763  2.5060  0.3579  1.4419
   97MOL0     H13332   5.689   1.452   4.745 -0.1526 -2.0717  2.3327
   97MOL0     H13333   5.992   1.427   4.829 -0.8847 -1.3305  3.1312
   97MOL0     H13334   5.904   1.584   4.816  1.0302 -0.2134 -1.8780
   97MOL0     H13335   6.025   1.381   5.071 -1.6909 -3.2371  1.9665
   97MOL0     H13336   5.962   1.336   5.332  0.4278  0.8864 -2.4537
   97MOL0     H13337   5.835   1.442   5.402  0.6416  0.2698  0.6238
   97MOL0     H13338   6.076   1.483   5.435 -0.0847  1.6247  1.0902
   97MOL0     H13339   6.104   1.507   5.259  1.8589  0.5332  1.1971
   97MOL0     H13340   5.983   1.732   5.254  0.0056  1.6169  0.9485
   97MOL0     H13341   5.895   1.696   5.399  0.1215  2.4127 -0.8243
   97MOL0     H13342   6.192   1.763   5.376  0.8057  3.4022 -0.9473
   97MOL0     H13343   6.060   1.868   5.442  2.2548  0.1218 -4.3006
   97MOL0     H13344   6.182   1.947   5.617 -0.0269 -4.1671 -1.7654
   97MOL0     H13345   6.082   2.138   5.888 -1.8905 -2.4042  1.3938
   97MOL0     H13346   6.199   2.145   5.749  1.6379  2.1868  1.3237
   97MOL0     H13347   6.264   2.108   5.899 -0.4658 -0.3019  0.1297
   97MOL0     H13348   6.128   2.184   6.220  1.0229  0.7381 -0.0507
   97MOL0     H13349   6.139   2.232   6.473  1.8248  2.6692 -1.5478
   97MOL0     H13350   6.113   2.014   6.820 -1.7759 -2.4439 -0.9354
   97MOL0     H13351   6.135   1.897   6.698  0.1383 -1.1526  1.7357
   97MOL0     H13352   6.368   1.879   6.782 -1.7300 -1.1558 -0.3288
   97MOL0     H13353   6.364   2.047   6.849 -0.1268  0.4333 -3.0590
   97MOL0     H13354   6.214   1.803   6.956  0.4104 -0.0006 -2.3179
   97MOL0     H13355   6.204   1.963   7.028 -1.6756 -0.1644 -0.8167
   97MOL0     H13356   6.450   1.959   7.075  0.9207 -0.7205  0.1527
   97MOL0     H13357   6.464   1.807   6.995  0.8165  2.5520 -0.5716
   97MOL0     H13358   6.279   1.739   7.160 -3.8539  2.5960  0.1557
   97MOL0     H13359   6.455   1.763   7.230 -0.2304  0.5790 -0.3666
   97MOL0     H13360   6.245   1.977   7.228 -1.1501 -0.2196 -2.2096
   97MOL0     H13361   6.387   1.963   7.332  0.4253 -2.5958  1.1767
   97MOL0     H13362   6.281   1.778   7.462 -0.3223 -1.6562 -0.7383
   97MOL0     H13363   6.141   1.786   7.349 -1.7375 -0.9392  3.6869
   97MOL0     H13364   6.222   2.041   7.481 -0.1391 -0.4327 -1.0584
   97MOL0     H13365   6.140   1.927   7.572  1.5410 -1.5696 -0.7204
   97MOL0     H13366   6.311   1.858   6.533 -2.7859 -3.2541 -0.8854
   97MOL0     H13367   6.311   1.807   6.278 -0.5393  0.2341 -1.3332
   97MOL0     H13368   5.995   1.677   5.971 -0.7468 -1.3864 -1.5237
   97MOL0     H13369   5.990   1.597   5.760 -0.7870  0.6575  0.6540
   97MOL0     H13370   5.802   1.230   3.835  0.7093  2.3526  1.9201
   97MOL0     H13371   5.672   1.280   3.615  1.9862 -0.2144  0.7118
   97MOL0     H13372   5.441   1.518   3.447 -0.0477  0.2463  0.2698
   97MOL0     H13373   5.371   1.689   3.292 -0.7584  1.1316  1.7369
   97MOL0     H13374   5.018   1.594   3.021 -0.9304  0.6079  3.1829
   97MOL0     H13375   5.012   1.765   2.991 -2.4870  0.0715  1.6319
   97MOL0     H13376   5.163   1.694   2.825 -1.9435 -1.1909 -0.0645
   97MOL0     H13377   5.247   1.588   2.948 -1.8866  0.2483  5.1105
   97MOL0     H13378   5.334   1.776   3.043  0.5625  1.0210  0.3343
   97MOL0     H13379   5.364   1.791   2.864 -0.8135  0.5892 -0.8960
   97MOL0     H13380   5.190   1.964   3.040  0.5409  0.0430 -0.5747
   97MOL0     H13381   5.133   1.937   2.879 -0.6480 -1.0248  0.9857
   97MOL0     H13382   5.445   2.217   2.827  3.2098 -4.1410 -1.9615
   97MOL0     H13383   5.029   1.450   3.176  1.0281 -1.1614 -0.4881
   97MOL0     H13384   5.154   1.160   3.294 -1.7615 -0.4347 -0.0385
   97MOL0     H13385   5.024   1.239   3.400 -1.7795 -4.6234 -0.7181
   97MOL0     H13386   5.033   1.240   3.219 -1.7067 -4.2349  1.1357
   98MOL0     O13387   8.011   1.538   0.864  0.4824  0.3549  0.0336
   98MOL0     C13388   7.933   1.512   0.957 -0.4783 -0.7397 -0.2311
   98MOL0     O13389   7.963   1.421   1.055 -0.2866 -0.0998 -0.3396
   98MOL0     C13390   8.085   1.360   1.055 -0.4865  0.7699  0.1189
   98MOL0     C13391   8.112   1.280   0.942 -0.3772 -0.1548 -1.0611
   98MOL0     C13392   8.228   1.207   0.939 -0.1081  0.4212  0.4050
   98MOL0     C13393   8.318   1.202   1.041 -0.3052 -0.8943 -1.5782
   98MOL0     O13394   8.431   1.120   1.013  0.9891 -0.4322 -0.3091
   98MOL0     C13395   8.514   1.082   1.127  0.1258  0.4731  0.0319
   98MOL0     C13396   8.613   0.968   1.095  0.2961 -0.6250  0.5634
   98MOL0     C13397   8.753   1.002   1.175 -0.4390 -1.0055 -0.5783
   98MOL0     C13398   8.865   0.913   1.126 -0.2952 -0.3695 -0.3362
   98MOL0     C13399   9.002   0.917   1.213 -0.0186 -0.5848  0.3661
   98MOL0     C13400   9.002   0.883   1.368 -0.5601 -0.2142  0.2366
   98MOL0     C13401   9.145   0.901   1.426 -0.4618 -0.3038  0.6076
   98MOL0     C13402   9.183   1.043   1.459 -0.7831 -0.0986 -0.6888
   98MOL0     N13403   9.294   1.057   1.548  0.0501  0.7724 -0.8755
   98MOL0     C13404   9.294   1.064   1.685 -1.3830 -0.0444  0.4243
   98MOL0     C13405   9.419   1.057   1.720 -0.0425  0.2247  0.1977
   98MOL0     C13406   9.474   1.100   1.853  0.4170  0.4799 -0.3789
   98MOL0     C13407   9.597   1.012   1.904  0.0195 -0.2097  0.7607
   98MOL0     C13408   9.664   1.057   2.036  0.2647 -0.8857  0.0568
   98MOL0     C13409   9.561   1.090   2.145 -0.1026  0.4545 -0.5293
   98MOL0     O13410   9.474   0.981   2.162 -0.9263 -0.3597  0.2035
   98MOL0     C13411   9.419   0.946   2.287  0.1107  0.6196 -0.7565
   98MOL0     C13412   9.360   0.820   2.298 -0.0506  0.4726 -0.2107
   98MOL0     C13413   9.318   0.760   2.416 -0.1111 -0.1837 -0.0094
   98MOL0     C13414   9.275   0.617   2.405  0.0149 -0.5045 -0.0535
   98MOL0     C13415   9.308   0.840   2.538 -0.2162  1.4872  0.4904
   98MOL0     C13416   9.256   0.795   2.665  1.1486  0.6403  0.9276
   98MOL0     O13417   9.266   0.883   2.763  0.8114  0.2360 -0.5650
   98MOL0     C13418   9.242   0.848   2.891 -0.5050 -0.2745 -1.5799
   98MOL0     C13419   9.347   0.821   2.977  1.4706  1.1336  0.8115
   98MOL0     C13420   9.317   0.790   3.107  0.0927  0.2084 -0.7902
   98MOL0     C13421   9.180   0.774   3.146 -0.3422 -0.0002  0.8788
   98MOL0     O13422   9.161   0.722   3.270 -0.6498  0.1950  0.1007
   98MOL0     C13423   9.136   0.580   3.285 -0.2143 -0.8917 -0.0088
   98MOL0     C13424   9.215   0.530   3.399  0.9967 -0.2124 -0.4550
   98MOL0     C13425   9.187   0.379   3.402  0.1811 -0.1427 -0.3870
   98MOL0     C13426   9.288   0.288   3.487  0.2326 -1.1321  0.9942
   98MOL0     C13427   9.230   0.275   3.630  0.1650 -0.2676 -0.0653
   98MOL0     C13428   9.335   0.187   3.714  0.1365  0.4258 -0.4546
   98MOL0     C13429   9.304   0.170   3.862  0.0427  0.2926 -0.0907
   98MOL0     C13430   9.292   0.296   3.944 -0.3713  0.5523  0.1997
   98MOL0    Cl13431   9.410   0.409   3.900 -0.2067 -0.2015 -0.0744
   98MOL0     C13432   9.077   0.818   3.068  0.0576  0.5696 -1.4479
   98MOL0     C13433   9.107   0.870   2.948 -0.2045 -0.9306 -0.4987
   98MOL0     O13434   9.206   0.683   2.679  0.3899  0.3375  0.2034
   98MOL0     C13435   9.356   0.978   2.525  0.3597 -0.3025 -0.5600
   98MOL0     C13436   9.406   1.019   2.405 -0.0872 -0.3957  0.6151
   98MOL0     N13437   9.494   1.014   1.616 -0.0892  0.3179  0.7939
   98MOL0     N13438   9.419   1.009   1.511  0.1766 -0.2996  0.7341
   98MOL0     C13439   8.292   1.284   1.160 -0.2150 -0.1088 -0.4561
   98MOL0     C13440   8.175   1.361   1.153  1.0076  0.0719 -0.1967
   98MOL0     C13441   7.802   1.575   0.973  0.5263 -0.0707 -0.2711
   98MOL0     C13442   7.717   1.531   1.077  0.7390 -0.7330  0.6381
   98MOL0     C13443   7.602   1.601   1.108 -0.6229  0.2471 -0.3495
   98MOL0     C13444   7.554   1.722   1.041 -1.6405  0.1229  0.4248
   98MOL0     O13445   7.439   1.778   1.097 -1.7260 -0.4931 -0.1480
   98MOL0     C13446   7.333   1.826   1.013 -0.5712  0.4077 -0.4669
   98MOL0     C13447   7.338   1.974   1.024 -0.6807  0.2036 -0.0711
   98MOL0     C13448   7.277   2.040   1.149  0.3410  0.5988 -0.4147
   98MOL0     C13449   7.128   2.025   1.155  0.1704  0.5825  1.0806
   98MOL0     C13450   7.067   2.063   1.279 -1.0609 -1.0041  0.0463
   98MOL0     C13451   7.019   2.092   1.388  0.4632 -0.1177  0.7985
   98MOL0     C13452   7.640   1.769   0.934  1.0888 -0.5408 -1.0309
   98MOL0     C13453   7.760   1.706   0.904  0.3986 -0.4574  0.2087
   98MOL0     C13454   7.857   1.785   0.806  0.1803 -0.2893  0.5581
   98MOL0     H13455   8.051   1.269   0.853  0.1753 -1.6837 -1.2680
   98MOL0     H13456   8.257   1.158   0.847  2.2572  0.3241  1.1188
   98MOL0     H13457   8.444   1.048   1.203  2.3480 -1.4230  1.3448
   98MOL0     H13458   8.566   1.171   1.163 -2.5789  1.9866  0.4585
   98MOL0     H13459   8.554   0.878   1.115 -0.2240 -1.1318 -2.6242
   98MOL0     H13460   8.634   0.975   0.987  4.1230 -0.2241  1.1932
   98MOL0     H13461   8.775   1.109   1.167  1.1722 -1.1408  1.2995
   98MOL0     H13462   8.724   0.978   1.277  1.7497  1.3594  0.7429
   98MOL0     H13463   8.835   0.808   1.123  3.4202 -1.6481  1.1653
   98MOL0     H13464   8.876   0.945   1.022  1.8099 -1.6353 -0.5653
   98MOL0     H13465   9.038   1.021   1.211 -0.9688 -0.2394  0.4219
   98MOL0     H13466   9.065   0.852   1.153 -0.2430  0.8243 -1.4891
   98MOL0     H13467   8.926   0.928   1.432 -1.3125 -1.7799  0.4916
   98MOL0     H13468   8.982   0.775   1.368 -1.6091 -0.0205  0.0405
   98MOL0     H13469   9.216   0.866   1.351 -0.5719 -0.5846  0.6359
   98MOL0     H13470   9.153   0.845   1.520  2.3525 -1.6620 -0.3522
   98MOL0     H13471   9.207   1.104   1.371  0.5731 -0.4331 -0.5658
   98MOL0     H13472   9.092   1.096   1.491  0.1680  2.4896 -1.9142
   98MOL0     H13473   9.204   1.109   1.727 -0.9112  2.1589 -0.7446
   98MOL0     H13474   9.396   1.099   1.930  2.2413  3.3930  1.7265
   98MOL0     H13475   9.497   1.206   1.835 -0.5015  0.2818 -3.1017
   98MOL0     H13476   9.562   0.909   1.908 -0.2557 -0.3324 -2.3445
   98MOL0     H13477   9.665   1.017   1.818 -0.9440 -0.2959 -0.0251
   98MOL0     H13478   9.742   0.989   2.072 -1.6279 -3.0720  0.2641
   98MOL0     H13479   9.722   1.148   2.018 -2.0728  0.3549 -1.8187
   98MOL0     H13480   9.629   1.104   2.230 -1.1070  0.5551  0.2819
   98MOL0     H13481   9.501   1.181   2.140 -1.3757 -0.0300  2.9979
   98MOL0     H13482   9.378   0.748   2.219 -1.3977 -1.0423  0.7890
   98MOL0     H13483   9.332   0.556   2.476  0.0550  0.7720  1.0668
   98MOL0     H13484   9.279   0.584   2.301 -0.1526  2.7088 -1.1927
   98MOL0     H13485   9.172   0.609   2.444  0.6573 -0.9039  1.6638
   98MOL0     H13486   9.445   0.801   2.935  1.1835 -1.0358  1.0264
   98MOL0     H13487   9.394   0.762   3.178 -0.3328 -1.4448 -0.9540
   98MOL0     H13488   9.036   0.566   3.329 -1.2432  1.9285 -1.2402
   98MOL0     H13489   9.162   0.524   3.195  3.7863 -0.8949  0.9414
   98MOL0     H13490   9.317   0.535   3.361  1.3164 -2.4386 -0.0497
   98MOL0     H13491   9.211   0.585   3.493  0.7826 -3.4455  1.5987
   98MOL0     H13492   9.182   0.348   3.297 -2.2453  0.5230 -0.5284
   98MOL0     H13493   9.086   0.355   3.439  0.3599 -2.2337 -1.1301
   98MOL0     H13494   9.395   0.311   3.489  0.1809 -0.9196  2.3939
   98MOL0     H13495   9.287   0.187   3.446 -0.2082 -0.7361 -0.0103
   98MOL0     H13496   9.226   0.373   3.679 -1.1640 -0.6242  0.5828
   98MOL0     H13497   9.130   0.231   3.632  1.3419 -3.2716 -1.2388
   98MOL0     H13498   9.436   0.227   3.710 -0.3595  1.7610 -0.3134
   98MOL0     H13499   9.333   0.089   3.665 -2.6265  0.2537 -0.1932
   98MOL0     H13500   9.386   0.116   3.911 -1.1898  0.5145  2.3483
   98MOL0     H13501   9.216   0.107   3.879  2.1962 -2.2198  3.3194
   98MOL0     H13502   9.313   0.291   4.051 -1.4775  0.3519  0.4246
   98MOL0     H13503   9.190   0.334   3.927  0.7103  3.3618 -0.5922
   98MOL0     H13504   8.984   0.804   3.120  0.9185 -1.2027 -0.3026
   98MOL0     H13505   9.028   0.914   2.889 -0.3386 -2.1439 -1.2779
   98MOL0     H13506   9.355   1.057   2.599  0.3118  0.3911 -1.2860
   98MOL0     H13507   9.438   1.122   2.397 -0.5087 -0.1983  1.3796
   98MOL0     H13508   8.348   1.266   1.251 -1.7310  1.6994  0.9151
   98MOL0     H13509   8.152   1.431   1.233  1.8294 -2.3479  2.3364
   98MOL0     H13510   7.745   1.436   1.122  0.7229 -1.0710 -0.0523
   98MOL0     H13511   7.538   1.555   1.183  2.2516 -1.4967  1.2239
   98MOL0     H13512   7.340   1.794   0.909 -2.0611 -0.5446 -0.2969
   98MOL0     H13513   7.235   1.791   1.048  0.3850 -0.3369  1.6650
   98MOL0     H13514   7.292   2.017   0.934 -0.7644 -2.8429 -1.6172
   98MOL0     H13515   7.440   2.012   1.023 -0.8946  0.8520  0.9922
   98MOL0     H13516   7.320   2.000   1.241  0.8182  2.0020 -0.0132
   98MOL0     H13517   7.305   2.145   1.153 -0.7398  0.9048  3.7232
   98MOL0     H13518   7.099   1.922   1.131  1.1091  0.5640 -0.0420
   98MOL0     H13519   7.091   2.090   1.076 -0.5410 -1.7373 -0.5861
   98MOL0     H13520   6.970   2.136   1.472  0.4168  2.3395 -0.4496
   98MOL0     H13521   7.612   1.863   0.889  1.0862  0.3144  0.7062
   98MOL0     H13522   7.879   1.725   0.717 -3.4008  0.7930 -1.2526
   98MOL0     H13523   7.808   1.873   0.763  0.0618 -0.6675 -0.0816
   98MOL0     H13524   7.948   1.814   0.860  0.7581  0.1520 -0.6269
   99MOL0     O13525   4.059   1.762   1.091  0.2732  0.3668  0.3757
   99MOL0     C13526   4.032   1.750   0.972  0.7544 -0.2369  0.0340
   99MOL0     O13527   3.988   1.852   0.891  0.8285 -0.2803 -0.5095
   99MOL0     C13528   3.994   1.982   0.937  0.0009  0.8592 -0.2755
   99MOL0     C13529   4.106   2.041   0.991 -0.0566  0.4031 -0.1787
   99MOL0     C13530   4.125   2.164   1.039  0.2447 -0.9222  0.6153
   99MOL0     C13531   4.018   2.255   1.016 -0.0339  0.3529 -0.3408
   99MOL0     O13532   4.017   2.387   1.058  0.1151  0.2230  1.0119
   99MOL0     C13533   4.085   2.425   1.178 -0.4726 -0.0085 -1.0028
   99MOL0     C13534   4.235   2.469   1.169 -0.7005 -0.3399 -0.1427
   99MOL0     C13535   4.241   2.603   1.083 -0.9356 -0.2635 -0.0182
   99MOL0     C13536   4.377   2.666   1.135  0.1211 -0.0281 -0.4247
   99MOL0     C13537   4.413   2.807   1.101  0.6231 -0.0193  0.7386
   99MOL0     C13538   4.413   2.836   0.950 -0.1265  0.6373  0.2081
   99MOL0     C13539   4.527   2.753   0.884  0.6402  0.1665 -1.4190
   99MOL0     C13540   4.504   2.732   0.736 -0.5150 -0.6056  0.9459
   99MOL0     N13541   4.618   2.656   0.677 -0.2070  0.7646  0.1378
   99MOL0     C13542   4.734   2.718   0.649 -0.7741  0.2798  0.2598
   99MOL0     C13543   4.796   2.632   0.564  0.4504  0.4130 -0.2713
   99MOL0     C13544   4.926   2.649   0.502 -1.3691  0.1243  0.5102
   99MOL0     C13545   4.935   2.785   0.430  0.2308  0.4166  0.1729
   99MOL0     C13546   5.067   2.805   0.342 -0.2844  0.3800 -0.2919
   99MOL0     C13547   5.065   2.931   0.250 -0.0507 -0.0448  0.6092
   99MOL0     O13548   4.997   2.919   0.128  0.6864 -0.1684  0.8071
   99MOL0     C13549   5.005   3.026   0.040  0.3992  0.4435  0.2290
   99MOL0     C13550   5.039   3.153   0.070  0.0971  0.6163  0.5550
   99MOL0     C13551   5.033   3.250  -0.032 -0.2044  0.7641  0.8078
   99MOL0     C13552   5.095   3.384   0.018 -0.0618  0.5109  0.0459
   99MOL0     C13553   5.004   3.230  -0.165  0.2372 -0.1889 -0.3661
   99MOL0     C13554   5.003   3.326  -0.275  0.2793 -0.7813 -0.4435
   99MOL0     O13555   4.978   3.277  -0.406  0.4415 -0.3658 -0.4280
   99MOL0     C13556   4.950   3.363  -0.512 -0.4736 -0.1204 -0.0351
   99MOL0     C13557   5.011   3.337  -0.632 -0.9326  0.0633  0.6897
   99MOL0     C13558   4.982   3.410  -0.754  0.1026  1.1674 -0.6620
   99MOL0     C13559   4.893   3.525  -0.749 -0.5854  0.1007 -0.3114
   99MOL0     O13560   4.881   3.606  -0.857 -0.3243 -0.5033  0.7372
   99MOL0     C13561   4.744   3.615  -0.899 -0.7371 -0.2139  0.1106
   99MOL0     C13562   4.677   3.480  -0.929  0.8863 -0.0050 -0.0847
   99MOL0     C13563   4.764   3.401  -1.025 -0.6573 -0.0322 -0.1116
   99MOL0     C13564   4.707   3.366  -1.164 -0.0546 -0.5258  0.6883
   99MOL0     C13565   4.797   3.284  -1.256 -0.3367 -0.1543 -0.4151
   99MOL0     C13566   4.739   3.235  -1.394  0.3807  0.2946 -1.1251
   99MOL0     C13567   4.717   3.350  -1.497  0.1069 -0.5850  0.1859
   99MOL0     C13568   4.631   3.313  -1.617  0.4737 -0.1394  0.0271
   99MOL0    Cl13569   4.491   3.213  -1.568  0.0562  0.2548 -0.4631
   99MOL0     C13570   4.841   3.559  -0.625  0.2688 -0.0166  0.7009
   99MOL0     C13571   4.857   3.467  -0.517  0.4503 -0.4670 -0.3901
   99MOL0     O13572   5.018   3.443  -0.242  0.6089 -0.1885 -0.0730
   99MOL0     C13573   4.949   3.101  -0.192  0.0490  0.7317 -0.3935
   99MOL0     C13574   4.952   3.000  -0.087 -1.4282 -0.1729  0.4948
   99MOL0     N13575   4.712   2.526   0.525  0.5243 -0.0914  0.4140
   99MOL0     N13576   4.609   2.538   0.610  0.3716  0.4615  0.0742
   99MOL0     C13577   3.908   2.210   0.936  0.0278  0.2585  0.0786
   99MOL0     C13578   3.886   2.071   0.910  0.7437  0.0677  0.1287
   99MOL0     C13579   4.040   1.614   0.908 -0.3780  0.2749  0.2099
   99MOL0     C13580   4.132   1.597   0.801  0.0958 -0.1659  0.2579
   99MOL0     C13581   4.138   1.468   0.738 -0.5551 -0.5464  0.5665
   99MOL0     C13582   4.071   1.356   0.793 -0.0031 -0.0831  0.9555
   99MOL0     O13583   4.080   1.218   0.742  0.7502 -0.4156 -0.2495
   99MOL0     C13584   4.184   1.195   0.653  0.2207 -1.3648  0.5654
   99MOL0     C13585   4.116   1.196   0.516 -0.6656 -0.5416 -0.6311
   99MOL0     C13586   4.022   1.088   0.480  0.6326 -0.0983  0.3706
   99MOL0     C13587   3.967   1.098   0.335  0.0581  0.8482 -0.2245
   99MOL0     C13588   3.915   1.231   0.304 -0.2620  0.3788 -0.6076
   99MOL0     C13589   3.866   1.336   0.262 -0.4398 -0.0287 -0.6796
   99MOL0     C13590   3.987   1.383   0.899  0.9538 -0.0703 -0.0562
   99MOL0     C13591   3.973   1.506   0.964  1.4969 -0.6405  1.0132
   99MOL0     C13592   3.880   1.511   1.083  0.2559  0.6944  0.5021
   99MOL0     H13593   4.187   1.976   1.022  0.5554  2.1221  2.0542
   99MOL0     H13594   4.211   2.191   1.098 -1.5640  1.9443  2.1703
   99MOL0     H13595   4.086   2.339   1.246 -0.1349  1.7297  1.3103
   99MOL0     H13596   4.031   2.502   1.233  1.6089  0.6264  0.2882
   99MOL0     H13597   4.253   2.497   1.273 -0.1069  2.2735 -0.8545
   99MOL0     H13598   4.300   2.384   1.147 -1.8823 -2.0775  2.5156
   99MOL0     H13599   4.237   2.591   0.975  1.0152 -1.4139 -0.0118
   99MOL0     H13600   4.157   2.664   1.116 -0.9342 -0.1774 -0.1743
   99MOL0     H13601   4.375   2.668   1.245 -1.6394 -2.4422 -0.3433
   99MOL0     H13602   4.463   2.601   1.116  0.0787  0.4006 -2.2855
   99MOL0     H13603   4.508   2.833   1.149  1.4421 -1.4308 -0.0249
   99MOL0     H13604   4.346   2.880   1.145  1.8373  0.7273  1.4099
   99MOL0     H13605   4.317   2.803   0.911  0.2872  0.3799 -0.6245
   99MOL0     H13606   4.425   2.941   0.921  0.0228  0.6468  0.3057
   99MOL0     H13607   4.540   2.660   0.940  2.7557 -0.0668 -2.2242
   99MOL0     H13608   4.625   2.793   0.910 -0.1534 -0.1151  2.5559
   99MOL0     H13609   4.414   2.671   0.741 -0.2129 -1.0284  1.4154
   99MOL0     H13610   4.478   2.823   0.682 -1.1562 -1.3856 -0.0980
   99MOL0     H13611   4.776   2.811   0.685  2.6064 -0.3910 -1.5694
   99MOL0     H13612   4.953   2.570   0.432  0.6420  0.0272  1.3163
   99MOL0     H13613   4.992   2.647   0.589 -2.6850  1.5134  1.6098
   99MOL0     H13614   4.856   2.776   0.355  2.8177 -5.1125 -2.4504
   99MOL0     H13615   4.937   2.877   0.490  0.7753  0.2583  0.4044
   99MOL0     H13616   5.151   2.790   0.410 -0.4643  1.1572  0.1092
   99MOL0     H13617   5.075   2.717   0.278  2.6021 -0.4271  1.0382
   99MOL0     H13618   5.015   3.007   0.310 -2.8939 -1.4458  0.2033
   99MOL0     H13619   5.170   2.955   0.232 -0.1232  4.1206  4.1779
   99MOL0     H13620   5.056   3.178   0.174  1.9616 -2.4262  1.1151
   99MOL0     H13621   5.028   3.467  -0.008  1.1707  0.7229 -2.8565
   99MOL0     H13622   5.185   3.414  -0.037  0.6335  2.2356  1.9787
   99MOL0     H13623   5.119   3.382   0.125 -0.8032  1.5009  0.2421
   99MOL0     H13624   5.076   3.251  -0.640 -3.1976 -1.5678 -3.3713
   99MOL0     H13625   5.041   3.400  -0.845 -1.1819  0.3174 -1.4398
   99MOL0     H13626   4.678   3.665  -0.827  1.6667 -0.3877  2.5989
   99MOL0     H13627   4.746   3.668  -0.995  1.6355 -4.5760 -2.5561
   99MOL0     H13628   4.664   3.421  -0.837  1.4898  0.6913  0.4629
   99MOL0     H13629   4.577   3.501  -0.967  2.2465  0.9174 -3.4129
   99MOL0     H13630   4.788   3.305  -0.979  1.6207  1.8003  2.8664
   99MOL0     H13631   4.866   3.441  -1.031 -0.7667  0.4870  1.1330
   99MOL0     H13632   4.661   3.456  -1.207 -1.5608  0.4057  3.9228
   99MOL0     H13633   4.615   3.312  -1.140 -0.3276 -0.3512  0.0560
   99MOL0     H13634   4.889   3.339  -1.279  0.6363 -0.7324  1.7513
   99MOL0     H13635   4.828   3.198  -1.195  0.3565 -0.1770 -0.7848
   99MOL0     H13636   4.651   3.178  -1.363 -2.2849  3.9681 -1.3118
   99MOL0     H13637   4.814   3.168  -1.437  1.6137  0.0666  1.2008
   99MOL0     H13638   4.810   3.398  -1.530 -0.1784 -1.9855 -3.0073
   99MOL0     H13639   4.659   3.426  -1.443  0.0464  1.2894 -2.3065
   99MOL0     H13640   4.685   3.261  -1.697 -3.0996 -1.0076 -2.0954
   99MOL0     H13641   4.606   3.411  -1.658  0.4962 -0.5123 -0.9051
   99MOL0     H13642   4.779   3.646  -0.604  1.2707  0.2822  2.5867
   99MOL0     H13643   4.798   3.495  -0.431  1.0940  0.7203 -0.3012
   99MOL0     H13644   4.904   3.075  -0.287  3.1012  0.3068 -1.8437
   99MOL0     H13645   4.923   2.895  -0.096 -2.5544 -0.1613  2.9980
   99MOL0     H13646   3.849   2.296   0.905  0.3404  0.5591  0.3228
   99MOL0     H13647   3.799   2.034   0.858  0.4688  3.2481 -1.9200
   99MOL0     H13648   4.170   1.682   0.744 -0.5940 -2.0871 -3.3908
   99MOL0     H13649   4.208   1.456   0.655 -0.4578  0.3667  0.5088
   99MOL0     H13650   4.260   1.273   0.645 -0.0844 -1.2342 -1.5998
   99MOL0     H13651   4.232   1.103   0.689 -0.7447 -2.0447  0.1728
   99MOL0     H13652   4.195   1.200   0.440 -0.0971 -0.7329 -0.0557
   99MOL0     H13653   4.069   1.295   0.516  1.3654  0.5475  1.9631
   99MOL0     H13654   4.070   0.991   0.500  2.2960  0.8112  1.0563
   99MOL0     H13655   3.932   1.105   0.540 -2.8253 -0.1220 -4.2568
   99MOL0     H13656   3.879   1.033   0.337  0.7026 -0.0202  1.5112
   99MOL0     H13657   4.036   1.055   0.261 -0.2844  2.8218 -1.8056
   99MOL0     H13658   3.842   1.435   0.230 -3.7799 -1.0070 -1.5911
   99MOL0     H13659   3.918   1.304   0.927 -1.0852  0.0471 -4.0474
   99MOL0     H13660   3.938   1.521   1.175 -1.1190 -0.5730  1.5650
   99MOL0     H13661   3.804   1.588   1.069 -1.1694 -1.0811 -2.4771
   99MOL0     H13662   3.811   1.426   1.087  0.6742 -0.0293 -3.5549
  100MOL0     O13663   0.544   6.842   3.822  0.5786  0.1673 -0.1090
  100MOL0     C13664   0.477   6.835   3.715  1.0079  0.7070  0.4293
  100MOL0     O13665   0.530   6.789   3.596  0.0903  0.9136 -0.7078
  100MOL0     C13666   0.667   6.782   3.573 -0.3258 -0.7500 -0.7439
  100MOL0     C13667   0.723   6.658   3.604  0.2042 -0.0865  0.3107
  100MOL0     C13668   0.872   6.643   3.596  0.7547  0.4473  0.5763
  100MOL0     C13669   0.941   6.744   3.541 -0.4770 -0.5482 -0.0522
  100MOL0     O13670   1.078   6.747   3.527 -0.6716  0.6292  0.2487
  100MOL0     C13671   1.155   6.788   3.640 -0.0269 -1.2219 -0.6877
  100MOL0     C13672   1.280   6.695   3.682  0.1017  0.5212  0.8329
  100MOL0     C13673   1.399   6.747   3.602 -0.7655 -0.3692  0.5440
  100MOL0     C13674   1.537   6.687   3.639  0.1411 -0.1299 -0.1112
  100MOL0     C13675   1.656   6.778   3.603  0.5946 -0.4011 -1.5878
  100MOL0     C13676   1.800   6.720   3.618  0.1103 -0.0294  0.0080
  100MOL0     C13677   1.905   6.767   3.499  1.2366  0.7211 -1.1955
  100MOL0     C13678   1.911   6.927   3.507 -0.2238  0.9569  0.4254
  100MOL0     N13679   1.990   7.000   3.405 -0.1845 -0.7120  1.0934
  100MOL0     C13680   2.138   6.983   3.395  0.5700 -0.8022 -0.2884
  100MOL0     C13681   2.173   7.065   3.292 -0.3620 -0.3561 -0.2565
  100MOL0     C13682   2.313   7.079   3.262 -0.4342 -0.2928 -0.2525
  100MOL0     C13683   2.370   7.210   3.317 -0.2988  0.2535 -0.3277
  100MOL0     C13684   2.520   7.220   3.288 -0.0040  1.0053  0.1813
  100MOL0     C13685   2.573   7.334   3.367  0.1910  0.1614 -0.0372
  100MOL0     O13686   2.709   7.369   3.333 -0.7451 -0.0689 -0.0825
  100MOL0     C13687   2.817   7.292   3.381  0.3463 -0.9119  0.5417
  100MOL0     C13688   2.818   7.231   3.506 -0.2854  0.4688 -0.0134
  100MOL0     C13689   2.918   7.135   3.546  0.3101 -0.4918 -0.0160
  100MOL0     C13690   2.896   7.059   3.675 -0.5626  0.7618 -0.0217
  100MOL0     C13691   3.026   7.115   3.443 -0.2589 -0.2613  0.1776
  100MOL0     C13692   3.130   7.017   3.482 -0.6513 -0.2263  1.1528
  100MOL0     O13693   3.174   7.030   3.610  0.0368  0.5825 -0.4143
  100MOL0     C13694   3.251   6.933   3.663  0.2088  0.7094  1.1455
  100MOL0     C13695   3.387   6.947   3.709  0.0113  0.7483 -0.1328
  100MOL0     C13696   3.466   6.840   3.743 -0.4593 -0.6179  0.1789
  100MOL0     C13697   3.429   6.710   3.724  0.9483 -0.7816 -0.4778
  100MOL0     O13698   3.513   6.609   3.744 -1.1571 -0.0031  0.3794
  100MOL0     C13699   3.471   6.492   3.822 -0.1856  0.7081 -0.7506
  100MOL0     C13700   3.583   6.397   3.862  0.1806 -0.2743 -0.0007
  100MOL0     C13701   3.695   6.358   3.763  0.6040 -0.5661  0.0823
  100MOL0     C13702   3.623   6.318   3.632 -1.2749 -1.0115 -0.7802
  100MOL0     C13703   3.731   6.255   3.539 -0.7518 -0.9602 -0.8757
  100MOL0     C13704   3.668   6.162   3.431  0.6694 -0.3768 -0.3065
  100MOL0     C13705   3.754   6.050   3.362  0.7643 -0.0813  0.2361
  100MOL0     C13706   3.827   6.108   3.238  0.8374  0.0644  0.0480
  100MOL0    Cl13707   3.722   6.078   3.103 -0.6020  0.0615  0.3928
  100MOL0     C13708   3.308   6.689   3.659 -0.4402  0.5431  0.3151
  100MOL0     C13709   3.226   6.802   3.624  0.1042 -0.3801 -0.4477
  100MOL0     O13710   3.174   6.954   3.384  0.4355  0.5834 -0.0654
  100MOL0     C13711   3.028   7.185   3.323  0.1036 -0.1623  1.0414
  100MOL0     C13712   2.925   7.285   3.290 -0.3511  0.0375  0.3687
  100MOL0     N13713   2.055   7.123   3.249 -0.4608 -1.0444 -0.6204
  100MOL0     N13714   1.947   7.093   3.311 -0.4950  0.3539  0.9089
  100MOL0     C13715   0.885   6.871   3.506 -0.1687 -0.3861 -0.5931
  100MOL0     C13716   0.750   6.888   3.517  0.1206  0.5705  0.6081
  100MOL0     C13717   0.327   6.861   3.732 -0.2764  0.1786 -0.3974
  100MOL0     C13718   0.278   6.902   3.856  0.0115  0.7400 -0.0483
  100MOL0     C13719   0.142   6.880   3.898 -0.2044  0.1323  0.2161
  100MOL0     C13720   0.051   6.829   3.811  0.1649 -0.1391  0.2842
  100MOL0     O13721  -0.073   6.779   3.833 -0.0726 -0.2260  0.5600
  100MOL0     C13722  -0.133   6.815   3.960 -0.3525 -0.8106  0.4336
  100MOL0     C13723  -0.285   6.777   3.976  0.3465 -0.1459  0.7317
  100MOL0     C13724  -0.367   6.864   3.882  0.5898  0.6087  0.6731
  100MOL0     C13725  -0.520   6.823   3.875 -0.4416 -0.4777  0.1572
  100MOL0     C13726  -0.556   6.714   3.783  0.1699 -0.4992  0.2874
  100MOL0     C13727  -0.597   6.630   3.708  0.6675 -0.5539  0.2038
  100MOL0     C13728   0.091   6.813   3.678  0.1793 -0.5011 -0.5480
  100MOL0     C13729   0.224   6.808   3.643 -0.2149  0.3263  0.0096
  100MOL0     C13730   0.270   6.760   3.508  0.6106 -0.2602  0.0979
  100MOL0     H13731   0.676   6.569   3.646 -0.5383  0.2198  0.1401
  100MOL0     H13732   0.924   6.553   3.628  0.8499 -0.4290 -1.8729
  100MOL0     H13733   1.082   6.799   3.720 -2.6049 -1.4594 -2.8555
  100MOL0     H13734   1.189   6.889   3.615 -1.1815 -0.0538  2.0678
  100MOL0     H13735   1.302   6.704   3.789 -0.9667 -1.1275  1.2284
  100MOL0     H13736   1.253   6.592   3.658 -1.8990  0.9682  1.0227
  100MOL0     H13737   1.382   6.744   3.494 -3.5298 -0.5514  0.9062
  100MOL0     H13738   1.402   6.851   3.634 -0.8183  0.2364 -1.2754
  100MOL0     H13739   1.537   6.662   3.746 -0.1391  2.0997  0.4619
  100MOL0     H13740   1.548   6.592   3.586  1.1937  0.3795 -0.8383
  100MOL0     H13741   1.662   6.876   3.650  1.8489 -1.1547 -0.0971
  100MOL0     H13742   1.634   6.786   3.496  0.1172  0.0317 -1.4595
  100MOL0     H13743   1.848   6.756   3.709 -2.0709 -0.9430  1.6146
  100MOL0     H13744   1.797   6.610   3.626 -0.3498 -0.1067 -1.0784
  100MOL0     H13745   1.875   6.705   3.414 -2.7018 -3.4122  2.7151
  100MOL0     H13746   2.003   6.732   3.533  0.8318 -0.6050 -1.3481
  100MOL0     H13747   1.812   6.974   3.499 -1.4715 -1.4707  0.6644
  100MOL0     H13748   1.944   6.945   3.610 -1.2755 -3.2252  1.7034
  100MOL0     H13749   2.199   6.928   3.466 -0.9920 -3.1833 -0.6856
  100MOL0     H13750   2.335   7.076   3.155  0.6129 -3.3276 -0.0556
  100MOL0     H13751   2.368   7.001   3.315 -1.8656 -1.5007 -0.4894
  100MOL0     H13752   2.333   7.297   3.263  0.7835  1.6261  1.0653
  100MOL0     H13753   2.351   7.210   3.425 -0.4685 -0.5715 -0.3515
  100MOL0     H13754   2.561   7.128   3.330 -0.0417  0.4694 -0.9351
  100MOL0     H13755   2.547   7.241   3.184 -0.0529  2.2769  0.4138
  100MOL0     H13756   2.513   7.425   3.355  1.4007  1.2750  1.7769
  100MOL0     H13757   2.570   7.313   3.474 -3.7444  1.3346  0.2382
  100MOL0     H13758   2.733   7.248   3.571 -0.7741  0.8367 -0.7324
  100MOL0     H13759   2.921   6.953   3.670 -2.1792 -0.0253  4.2741
  100MOL0     H13760   2.803   7.088   3.725  0.9593 -0.1333  3.6525
  100MOL0     H13761   2.973   7.093   3.745 -1.5613  2.1455  0.4574
  100MOL0     H13762   3.433   7.044   3.725 -0.5270  0.8837  0.6706
  100MOL0     H13763   3.562   6.851   3.793 -0.7541  3.6130  0.1875
  100MOL0     H13764   3.405   6.524   3.903 -1.8870  1.9994 -2.5665
  100MOL0     H13765   3.407   6.429   3.761  0.2297 -0.7039  0.2234
  100MOL0     H13766   3.627   6.436   3.955 -0.1076 -3.1250  1.4247
  100MOL0     H13767   3.541   6.299   3.886 -1.1012  0.1751 -0.3314
  100MOL0     H13768   3.752   6.271   3.797  2.5308 -0.8190 -3.3209
  100MOL0     H13769   3.764   6.442   3.747  0.5314 -0.4860  0.1888
  100MOL0     H13770   3.574   6.403   3.585  1.0686 -0.3444 -2.2153
  100MOL0     H13771   3.550   6.249   3.676 -3.7025  4.4396  5.3087
  100MOL0     H13772   3.777   6.339   3.487 -1.2847  0.4491  0.8167
  100MOL0     H13773   3.806   6.199   3.596  0.0952  0.9604 -0.0355
  100MOL0     H13774   3.626   6.227   3.353  3.7314 -1.1265 -2.8094
  100MOL0     H13775   3.582   6.114   3.477  0.2689  2.5570  2.3728
  100MOL0     H13776   3.691   5.970   3.321 -2.3964  2.7064 -0.7900
  100MOL0     H13777   3.825   6.004   3.431  1.1765 -2.9411 -1.8842
  100MOL0     H13778   3.919   6.051   3.223  0.9171 -0.3334  1.8219
  100MOL0     H13779   3.861   6.211   3.248  0.1687  0.1144  2.8406
  100MOL0     H13780   3.266   6.592   3.635 -0.3446  0.6386 -0.2566
  100MOL0     H13781   3.147   6.770   3.558 -1.2035  3.4426 -0.9676
  100MOL0     H13782   3.110   7.174   3.252 -1.2461 -0.2036 -0.5767
  100MOL0     H13783   2.917   7.344   3.200  1.0073 -0.0320  0.1823
  100MOL0     H13784   0.957   6.949   3.484 -0.1513 -0.5515 -1.1458
  100MOL0     H13785   0.707   6.981   3.481  2.1474  1.5916  0.7127
  100MOL0     H13786   0.352   6.933   3.929 -0.7440  2.1113  0.1863
  100MOL0     H13787   0.119   6.886   4.004 -0.1539  1.1697  0.1763
  100MOL0     H13788  -0.074   6.786   4.047 -2.3167  0.6108  2.3447
  100MOL0     H13789  -0.130   6.924   3.965 -0.4014 -0.7551 -0.4817
  100MOL0     H13790  -0.326   6.791   4.076  2.7778 -0.4305  1.8385
  100MOL0     H13791  -0.299   6.673   3.946 -1.6685  0.2982 -0.0572
  100MOL0     H13792  -0.362   6.973   3.886  3.0397  0.6119 -0.2539
  100MOL0     H13793  -0.329   6.842   3.782 -1.5504 -1.0190  0.1464
  100MOL0     H13794  -0.572   6.911   3.836  2.8372  3.4774  3.6659
  100MOL0     H13795  -0.559   6.811   3.977  1.9905 -1.3784  1.0313
  100MOL0     H13796  -0.626   6.542   3.654  1.8361 -1.7085  1.3743
  100MOL0     H13797   0.015   6.787   3.606  0.6951 -1.5062 -0.7492
  100MOL0     H13798   0.180   6.737   3.451  1.0932 -2.1977  0.0524
  100MOL0     H13799   0.322   6.833   3.446  1.3753 -0.4986  0.4490
  100MOL0     H13800   0.321   6.663   3.508 -1.3658 -1.3501  0.0374
  101MOL0     O13801   7.291   3.260   8.033  0.0333  1.1117 -0.2653
  101MOL0     C13802   7.394   3.272   8.102  0.0614  0.1744 -0.3841
  101MOL0     O13803   7.468   3.380   8.128  0.0199 -0.0925 -0.0031
  101MOL0     C13804   7.429   3.507   8.083  0.1346  0.2728  0.8661
  101MOL0     C13805   7.527   3.573   8.005 -0.0694 -0.0333  0.8670
  101MOL0     C13806   7.512   3.688   7.934  0.3594 -0.2274  0.2049
  101MOL0     C13807   7.384   3.749   7.943  0.1919  0.6150  0.0224
  101MOL0     O13808   7.379   3.868   7.874 -0.1787 -0.4516 -0.4241
  101MOL0     C13809   7.254   3.945   7.882 -0.2967 -1.1526 -0.2506
  101MOL0     C13810   7.247   4.072   7.784  0.6086  0.1190  0.3041
  101MOL0     C13811   7.158   4.187   7.830  0.0557  0.6728 -0.5915
  101MOL0     C13812   7.012   4.149   7.802  0.5120 -0.6524  0.5406
  101MOL0     C13813   6.928   4.258   7.761  0.4091 -0.2168 -0.0951
  101MOL0     C13814   6.785   4.227   7.775  0.4469  0.4231 -0.2237
  101MOL0     C13815   6.700   4.340   7.702 -0.8698 -0.9804  0.3070
  101MOL0     C13816   6.557   4.297   7.699 -0.0176 -0.0764 -0.1108
  101MOL0     N13817   6.473   4.414   7.701 -0.6551 -0.1777  0.0948
  101MOL0     C13818   6.473   4.503   7.597  0.7365 -0.7326  0.2354
  101MOL0     C13819   6.372   4.594   7.632 -0.0955 -0.1726  0.6553
  101MOL0     C13820   6.326   4.729   7.571 -0.2416  0.5763  0.1081
  101MOL0     C13821   6.189   4.723   7.504  0.3749 -0.1649  0.4083
  101MOL0     C13822   6.121   4.857   7.501 -1.0436  0.0984  0.0759
  101MOL0     C13823   6.166   4.935   7.377 -0.1355  0.3787 -0.3193
  101MOL0     O13824   6.113   5.068   7.386  0.5940  0.3272 -0.5662
  101MOL0     C13825   6.183   5.161   7.320  1.1310 -0.5506 -0.4646
  101MOL0     C13826   6.174   5.288   7.370  0.1001 -0.3202 -0.1445
  101MOL0     C13827   6.247   5.389   7.305 -0.2148  0.8284 -0.8808
  101MOL0     C13828   6.243   5.525   7.358 -0.9241  0.2257  1.0015
  101MOL0     C13829   6.327   5.368   7.189  0.6036 -0.7056 -0.8876
  101MOL0     C13830   6.395   5.465   7.110 -1.4604 -0.0603 -0.4482
  101MOL0     O13831   6.411   5.438   6.973 -0.1708 -0.3258  0.4684
  101MOL0     C13832   6.453   5.532   6.889 -0.3227  0.6629 -0.3349
  101MOL0     C13833   6.582   5.592   6.886 -0.6547  0.0153 -0.6509
  101MOL0     C13834   6.628   5.670   6.783 -0.9241  0.3139 -0.3708
  101MOL0     C13835   6.539   5.703   6.682  0.0752  0.1094 -0.1023
  101MOL0     O13836   6.605   5.784   6.587  0.4875 -0.3828  0.0745
  101MOL0     C13837   6.594   5.751   6.447 -0.1003  0.4222  0.0484
  101MOL0     C13838   6.578   5.864   6.352  0.9176 -0.0207  0.2389
  101MOL0     C13839   6.442   5.937   6.357 -0.3627 -0.3644 -0.3166
  101MOL0     C13840   6.432   6.027   6.237  0.3011 -0.9862 -0.4696
  101MOL0     C13841   6.323   6.137   6.244  0.2830 -0.8302  0.6405
  101MOL0     C13842   6.181   6.093   6.288  0.2310  0.3577  0.2659
  101MOL0     C13843   6.077   6.205   6.317 -0.4165  0.5874 -0.1661
  101MOL0     C13844   6.042   6.291   6.202  1.3715  0.3830 -0.3764
  101MOL0    Cl13845   5.889   6.355   6.263  0.0477 -0.0479  0.5298
  101MOL0     C13846   6.411   5.643   6.680  0.3039  0.2537 -0.8187
  101MOL0     C13847   6.370   5.555   6.778 -0.5375  0.7542  0.0897
  101MOL0     O13848   6.446   5.562   7.167 -0.2249 -0.2047  0.5637
  101MOL0     C13849   6.305   5.242   7.129  0.8954  0.4496 -0.4644
  101MOL0     C13850   6.248   5.138   7.194 -0.3722 -0.6266 -0.0994
  101MOL0     N13851   6.306   4.547   7.746  0.1440  0.0391 -0.1452
  101MOL0     N13852   6.375   4.450   7.785 -0.1041  0.8027  0.3650
  101MOL0     C13853   7.287   3.690   8.027 -0.2965 -0.9132 -0.4941
  101MOL0     C13854   7.311   3.578   8.097 -0.1252  0.5359 -0.1839
  101MOL0     C13855   7.438   3.154   8.174 -0.2820 -0.0119 -0.4533
  101MOL0     C13856   7.574   3.125   8.177  0.9104 -0.1152  0.4734
  101MOL0     C13857   7.620   3.011   8.227  0.3965  1.4309 -0.6035
  101MOL0     C13858   7.536   2.913   8.283 -0.9785 -0.0263  0.6144
  101MOL0     O13859   7.594   2.795   8.341 -0.6149 -0.4757 -0.1877
  101MOL0     C13860   7.543   2.777   8.475 -1.4683  0.0674  0.1072
  101MOL0     C13861   7.661   2.718   8.548 -0.1527 -0.7857  0.3651
  101MOL0     C13862   7.612   2.693   8.692 -0.7748  1.3444  0.9138
  101MOL0     C13863   7.727   2.622   8.765 -0.4218  0.9185 -1.6358
  101MOL0     C13864   7.849   2.706   8.803  0.6988  0.2701 -1.0346
  101MOL0     C13865   7.952   2.755   8.827 -0.6919 -0.3229 -0.1510
  101MOL0     C13866   7.403   2.947   8.290  1.1838  0.5524  0.4116
  101MOL0     C13867   7.349   3.062   8.238  1.3958  0.1875  0.3828
  101MOL0     C13868   7.200   3.070   8.227  0.4459  0.5609 -0.1079
  101MOL0     H13869   7.614   3.512   7.985 -0.4385 -1.0523  2.2496
  101MOL0     H13870   7.587   3.728   7.867  0.7589 -2.8519 -1.0620
  101MOL0     H13871   7.225   3.975   7.983 -2.6637 -1.8833 -0.6354
  101MOL0     H13872   7.184   3.874   7.836  2.5351 -0.6960 -6.2282
  101MOL0     H13873   7.352   4.096   7.764  0.5620  0.2812  0.2602
  101MOL0     H13874   7.209   4.041   7.686 -1.1898  0.5158  0.8356
  101MOL0     H13875   7.173   4.209   7.936  3.0466 -2.9776 -0.0460
  101MOL0     H13876   7.188   4.271   7.765  0.1940 -0.1740 -1.6494
  101MOL0     H13877   7.004   4.070   7.727 -0.4056  1.4988 -1.7602
  101MOL0     H13878   6.983   4.091   7.890  1.8389  0.0218  1.4634
  101MOL0     H13879   6.956   4.294   7.661 -2.4686  0.1692 -0.8793
  101MOL0     H13880   6.953   4.334   7.835  2.0423 -1.2330  0.4409
  101MOL0     H13881   6.757   4.129   7.735 -1.9031  0.1534  1.7815
  101MOL0     H13882   6.761   4.230   7.882 -0.4607  1.4265 -0.4419
  101MOL0     H13883   6.735   4.350   7.599 -0.2105  1.9747  0.7426
  101MOL0     H13884   6.716   4.436   7.751  1.4948 -1.1118 -0.0615
  101MOL0     H13885   6.535   4.231   7.614 -3.0715  0.6542  0.0014
  101MOL0     H13886   6.527   4.236   7.785 -2.7445 -0.2739 -1.0759
  101MOL0     H13887   6.542   4.503   7.514  2.0325 -2.7611  1.2469
  101MOL0     H13888   6.386   4.769   7.489 -1.4883 -2.9772 -2.8484
  101MOL0     H13889   6.333   4.805   7.649 -1.8595  0.8742 -0.0021
  101MOL0     H13890   6.203   4.684   7.403 -0.4960  1.7540 -0.5067
  101MOL0     H13891   6.116   4.656   7.550 -1.0936  0.5479 -0.7788
  101MOL0     H13892   6.012   4.868   7.504 -1.2231 -1.5557  0.3540
  101MOL0     H13893   6.154   4.919   7.586  0.8158  0.3525 -0.7829
  101MOL0     H13894   6.272   4.926   7.352  0.0342 -2.6768  1.1145
  101MOL0     H13895   6.126   4.892   7.284  1.7061  1.0504 -1.4825
  101MOL0     H13896   6.119   5.326   7.456  3.1017  3.2114  0.4862
  101MOL0     H13897   6.174   5.541   7.442 -0.1758 -0.3885  1.7544
  101MOL0     H13898   6.203   5.593   7.282  0.1547  2.1429  2.0776
  101MOL0     H13899   6.343   5.553   7.393  0.4581 -2.3362 -0.5610
  101MOL0     H13900   6.662   5.576   6.958  1.5701  0.0342 -2.9740
  101MOL0     H13901   6.722   5.724   6.786 -0.8801  0.2351 -0.3448
  101MOL0     H13902   6.685   5.696   6.422  1.0133  1.0215  2.5250
  101MOL0     H13903   6.513   5.678   6.439  3.3239 -3.5731 -2.6056
  101MOL0     H13904   6.660   5.934   6.371  0.6196 -0.0469  1.6966
  101MOL0     H13905   6.593   5.821   6.252  0.7090  0.0409  0.1818
  101MOL0     H13906   6.430   5.991   6.452 -3.2289 -0.1398 -0.7473
  101MOL0     H13907   6.361   5.865   6.350  0.7388 -1.5391 -1.4275
  101MOL0     H13908   6.417   5.965   6.148 -2.0895 -2.5379  0.8829
  101MOL0     H13909   6.521   6.091   6.235  1.5562 -2.6672 -2.0914
  101MOL0     H13910   6.353   6.212   6.317  0.4346 -2.1719  1.9907
  101MOL0     H13911   6.320   6.194   6.150  0.4832  1.8723  2.1650
  101MOL0     H13912   6.183   6.042   6.384  1.1433 -0.7536 -0.3122
  101MOL0     H13913   6.149   6.017   6.216 -0.6008  1.0224 -0.0866
  101MOL0     H13914   6.102   6.264   6.406 -0.2772 -1.1546  1.0158
  101MOL0     H13915   5.985   6.154   6.348  0.8430 -0.8650  1.3579
  101MOL0     H13916   6.028   6.238   6.107  1.7888  0.1772 -0.3223
  101MOL0     H13917   6.115   6.371   6.189  3.0880 -0.9083  0.8487
  101MOL0     H13918   6.358   5.638   6.586  0.5288 -6.8185 -1.1470
  101MOL0     H13919   6.283   5.492   6.766  0.5164 -0.3269 -2.5828
  101MOL0     H13920   6.353   5.231   7.032  2.3830  1.6984  0.0998
  101MOL0     H13921   6.243   5.037   7.154  0.3303 -0.4974 -0.5363
  101MOL0     H13922   7.188   3.733   8.036 -0.1973  0.0886 -3.3528
  101MOL0     H13923   7.231   3.533   8.154  0.7054 -0.5042  0.1910
  101MOL0     H13924   7.642   3.196   8.131  1.2177  1.4535  3.1755
  101MOL0     H13925   7.728   2.999   8.235  0.4576  2.7580  1.0958
  101MOL0     H13926   7.513   2.868   8.529 -2.4206 -0.5690  0.6833
  101MOL0     H13927   7.455   2.713   8.467 -3.2221  2.2513  0.7560
  101MOL0     H13928   7.751   2.780   8.553  0.7711 -2.1652  3.3548
  101MOL0     H13929   7.678   2.615   8.516 -1.8949 -0.8256 -0.5332
  101MOL0     H13930   7.587   2.787   8.742 -1.4322  1.9831 -0.5389
  101MOL0     H13931   7.533   2.617   8.688 -0.0828  0.5513  1.9969
  101MOL0     H13932   7.762   2.544   8.697  0.2869  0.8134 -1.1671
  101MOL0     H13933   7.689   2.571   8.854  0.5408  0.5211 -1.4392
  101MOL0     H13934   8.053   2.786   8.847 -0.8573 -0.9551  1.8350
  101MOL0     H13935   7.329   2.880   8.333 -2.3840  3.4577 -0.6100
  101MOL0     H13936   7.154   2.983   8.276 -0.3624  0.4367 -1.0377
  101MOL0     H13937   7.163   3.149   8.293  1.1859  1.2002 -0.4411
  101MOL0     H13938   7.155   3.077   8.127  0.9615  0.7294 -0.3329
  102MOL0     O13939   4.501   8.710   2.504 -0.3030  0.0956 -0.4231
  102MOL0     C13940   4.421   8.620   2.473 -0.0474  0.5704 -0.1818
  102MOL0     O13941   4.440   8.488   2.473 -0.1646  0.4997 -0.0680
  102MOL0     C13942   4.564   8.425   2.471  0.2640 -0.4600 -0.3533
  102MOL0     C13943   4.678   8.481   2.538  0.2732 -0.1040 -0.1236
  102MOL0     C13944   4.795   8.415   2.527 -0.8351 -0.1924 -0.0490
  102MOL0     C13945   4.807   8.292   2.468 -0.9011  0.1927  0.3632
  102MOL0     O13946   4.929   8.236   2.461  0.1936 -0.5906 -0.2765
  102MOL0     C13947   4.976   8.182   2.587  0.3874 -0.4384 -0.2220
  102MOL0     C13948   4.957   8.038   2.622  0.4408 -0.1281  0.4837
  102MOL0     C13949   5.024   7.998   2.756 -1.1422  0.5002 -0.6191
  102MOL0     C13950   4.923   8.015   2.868 -0.3259 -0.2763 -0.0375
  102MOL0     C13951   4.821   7.912   2.871  1.2338 -0.1850  0.2634
  102MOL0     C13952   4.821   7.810   2.988  0.5547 -0.1510  0.0607
  102MOL0     C13953   4.722   7.840   3.095  0.0619 -0.9944 -0.9841
  102MOL0     C13954   4.738   7.760   3.222  0.6669  0.6226 -0.0401
  102MOL0     N13955   4.627   7.658   3.238  0.0160 -0.3595 -0.1528
  102MOL0     C13956   4.600   7.551   3.154  0.2807  0.2499 -0.7623
  102MOL0     C13957   4.501   7.483   3.213 -0.0545  0.4977 -0.4137
  102MOL0     C13958   4.444   7.353   3.181 -0.3245  0.4933  0.0560
  102MOL0     C13959   4.287   7.342   3.155 -0.6559  0.4898 -0.6896
  102MOL0     C13960   4.247   7.396   3.017  0.7543  0.0151 -1.0619
  102MOL0     C13961   4.107   7.364   2.981 -0.6975 -0.6316  0.0045
  102MOL0     O13962   4.063   7.441   2.871 -0.5553 -0.4950  0.2860
  102MOL0     C13963   3.970   7.377   2.790 -0.7151  1.1035 -0.9433
  102MOL0     C13964   3.999   7.330   2.658  0.1145  0.1958  0.7042
  102MOL0     C13965   3.901   7.236   2.602 -0.2518 -0.7477 -0.8745
  102MOL0     C13966   3.925   7.178   2.471 -0.4315  0.6766  0.5951
  102MOL0     C13967   3.775   7.209   2.670 -1.0411  0.2000  0.0283
  102MOL0     C13968   3.673   7.113   2.613  1.1638  0.0825 -0.3533
  102MOL0     O13969   3.711   7.003   2.537 -0.4549 -1.3925  0.2482
  102MOL0     C13970   3.635   6.907   2.479  0.2495 -0.1881 -0.1072
  102MOL0     C13971   3.497   6.916   2.450  0.1130  0.2167  0.5762
  102MOL0     C13972   3.426   6.821   2.376  0.0618 -0.4509  1.1262
  102MOL0     C13973   3.501   6.710   2.313  0.0756  0.1385 -0.5095
  102MOL0     O13974   3.447   6.606   2.237  0.0776  0.0819 -0.5870
  102MOL0     C13975   3.314   6.631   2.200  0.0452 -0.0015 -0.4214
  102MOL0     C13976   3.268   6.521   2.112  0.2136  1.2672 -0.0380
  102MOL0     C13977   3.141   6.565   2.033  0.2095 -0.3068  0.6407
  102MOL0     C13978   3.089   6.461   1.938 -0.0957 -0.2630  0.7450
  102MOL0     C13979   3.096   6.494   1.787 -0.0770 -0.6412 -0.9875
  102MOL0     C13980   3.040   6.383   1.699  0.7901  0.2633  0.1539
  102MOL0     C13981   3.073   6.417   1.553  0.2198  0.0889 -1.1351
  102MOL0     C13982   2.964   6.416   1.449  0.1981  0.2637  0.6808
  102MOL0    Cl13983   2.852   6.555   1.453 -0.0369  0.0086  0.3867
  102MOL0     C13984   3.635   6.717   2.322  0.2228 -0.2752  0.2571
  102MOL0     C13985   3.704   6.809   2.402 -0.0794 -0.9457 -0.8725
  102MOL0     O13986   3.554   7.130   2.656 -0.0868  0.2744 -0.4826
  102MOL0     C13987   3.751   7.275   2.789  1.1531  0.9314 -0.0377
  102MOL0     C13988   3.855   7.347   2.848 -0.4649  0.6170 -0.3192
  102MOL0     N13989   4.465   7.552   3.327  0.3350 -0.1594  0.0406
  102MOL0     N13990   4.543   7.656   3.340  0.1321 -0.2554 -0.6702
  102MOL0     C13991   4.694   8.239   2.402 -0.1934  0.3505  0.2578
  102MOL0     C13992   4.570   8.308   2.401  0.3181  0.3842  0.0188
  102MOL0     C13993   4.287   8.661   2.429  0.1287 -0.4854 -0.4249
  102MOL0     C13994   4.223   8.594   2.326  0.6390 -0.4844  0.1258
  102MOL0     C13995   4.105   8.632   2.277  0.3571 -0.5868  0.1739
  102MOL0     C13996   4.035   8.733   2.339  0.0250 -0.7651 -1.2837
  102MOL0     O13997   3.914   8.756   2.292 -0.0520 -0.6061  0.4539
  102MOL0     C13998   3.882   8.890   2.258 -0.3999 -0.0563  0.5047
  102MOL0     C13999   3.762   8.940   2.328  0.2778 -0.5266  0.3980
  102MOL0     C14000   3.636   8.898   2.249 -0.3341  1.0306 -0.7454
  102MOL0     C14001   3.613   8.746   2.257 -0.6062 -0.9371  0.5330
  102MOL0     C14002   3.480   8.709   2.240  0.0178 -0.0653  0.0525
  102MOL0     C14003   3.364   8.676   2.243 -0.0380 -0.3245  0.5902
  102MOL0     C14004   4.087   8.793   2.449 -1.0282 -0.9780  0.9670
  102MOL0     C14005   4.215   8.770   2.494  0.2814  0.1454 -0.2621
  102MOL0     C14006   4.276   8.824   2.624  0.1834 -1.3733  0.3164
  102MOL0     H14007   4.665   8.570   2.600 -3.8100 -0.3462 -0.3897
  102MOL0     H14008   4.890   8.438   2.574  0.5600 -0.3428 -2.6012
  102MOL0     H14009   4.939   8.237   2.674 -3.1765  0.8763 -2.3399
  102MOL0     H14010   5.083   8.206   2.581  0.4697 -0.3247  1.3540
  102MOL0     H14011   4.850   8.019   2.609  0.6951 -0.1432 -2.3313
  102MOL0     H14012   5.008   7.982   2.543 -0.7723 -0.1695 -0.3095
  102MOL0     H14013   5.050   7.892   2.752  3.4243  1.4395 -1.4268
  102MOL0     H14014   5.117   8.053   2.770 -0.4104 -0.5862 -1.0934
  102MOL0     H14015   4.977   8.012   2.964 -0.1260 -3.0717 -0.1525
  102MOL0     H14016   4.876   8.113   2.864  0.0444 -0.0729  0.4376
  102MOL0     H14017   4.820   7.851   2.780 -0.4243  1.2193 -0.7286
  102MOL0     H14018   4.724   7.962   2.869  0.7140 -1.1664  0.1959
  102MOL0     H14019   4.804   7.706   2.958 -0.5988 -0.3854  1.4030
  102MOL0     H14020   4.917   7.809   3.040  0.5872  1.3080  0.0883
  102MOL0     H14021   4.621   7.829   3.054  0.4329  0.2632 -2.3404
  102MOL0     H14022   4.732   7.945   3.121 -1.9473 -1.0230  0.0593
  102MOL0     H14023   4.841   7.729   3.239  0.7485  1.2657  0.6876
  102MOL0     H14024   4.727   7.830   3.306  1.7566 -1.0716  1.5753
  102MOL0     H14025   4.649   7.537   3.058 -2.3976  3.4606 -2.8239
  102MOL0     H14026   4.463   7.279   3.259  0.1953  1.2277  0.6393
  102MOL0     H14027   4.495   7.321   3.089 -1.9664  2.9286 -1.8495
  102MOL0     H14028   4.262   7.236   3.161 -2.0129  0.8338  0.5217
  102MOL0     H14029   4.240   7.397   3.237  0.4249 -0.6811  0.7565
  102MOL0     H14030   4.266   7.503   3.026  1.0234  0.0623 -2.0990
  102MOL0     H14031   4.310   7.369   2.932 -0.5044  0.5507 -2.1950
  102MOL0     H14032   4.100   7.258   2.955  3.5870 -0.7559 -1.4108
  102MOL0     H14033   4.036   7.371   3.064  2.1662  0.8961  2.5541
  102MOL0     H14034   4.083   7.373   2.605 -1.4149  1.0821 -1.1199
  102MOL0     H14035   4.001   7.233   2.415 -1.2100  1.1061 -0.0662
  102MOL0     H14036   3.839   7.176   2.403  0.4128  1.5284 -0.5431
  102MOL0     H14037   3.969   7.078   2.481  0.2284  0.3371 -3.8103
  102MOL0     H14038   3.450   7.012   2.467 -1.0053 -0.4857  1.6181
  102MOL0     H14039   3.320   6.831   2.359  0.2077 -2.2551 -1.2547
  102MOL0     H14040   3.244   6.621   2.283 -2.9875 -2.0795 -2.9661
  102MOL0     H14041   3.301   6.732   2.160 -3.6004 -1.2114 -2.8435
  102MOL0     H14042   3.344   6.494   2.037 -0.3313  0.0473 -0.1803
  102MOL0     H14043   3.269   6.433   2.176  0.2355  0.9239 -0.5007
  102MOL0     H14044   3.151   6.663   1.985  2.1973 -1.7231 -2.0844
  102MOL0     H14045   3.057   6.585   2.101 -2.9231  0.1197 -3.0276
  102MOL0     H14046   2.985   6.447   1.968 -0.1793 -0.4619  0.3805
  102MOL0     H14047   3.156   6.375   1.954 -0.1199 -0.8557 -1.8718
  102MOL0     H14048   3.044   6.585   1.755 -2.4284 -2.1680 -1.7548
  102MOL0     H14049   3.203   6.502   1.766  0.4129 -0.2315  1.4338
  102MOL0     H14050   2.932   6.369   1.700  0.9296 -2.2361 -2.7468
  102MOL0     H14051   3.087   6.286   1.719  2.3571  0.8985 -0.2708
  102MOL0     H14052   3.163   6.361   1.527  2.3221  2.0565  1.3836
  102MOL0     H14053   3.101   6.523   1.554 -1.6656  0.7633  3.5170
  102MOL0     H14054   2.903   6.326   1.461 -2.2951  1.7353 -0.2099
  102MOL0     H14055   3.008   6.418   1.349 -0.9047 -1.6096  0.0953
  102MOL0     H14056   3.678   6.631   2.273  1.2561 -0.4358  1.3901
  102MOL0     H14057   3.812   6.799   2.408 -0.1677 -1.3867  0.1407
  102MOL0     H14058   3.656   7.267   2.841  0.1657  0.4479 -1.8214
  102MOL0     H14059   3.834   7.373   2.952 -0.6194 -1.8799  0.3417
  102MOL0     H14060   4.702   8.154   2.334 -0.1439  0.3083  0.3167
  102MOL0     H14061   4.478   8.274   2.356  1.8191 -2.7083 -0.9811
  102MOL0     H14062   4.249   8.497   2.285 -3.3634 -0.6577 -2.6577
  102MOL0     H14063   4.064   8.593   2.184  1.5346 -0.2365 -0.5167
  102MOL0     H14064   3.965   8.954   2.292  0.5734 -1.7030  1.3430
  102MOL0     H14065   3.873   8.897   2.149  3.4297  0.1138  0.0507
  102MOL0     H14066   3.774   9.049   2.331 -1.1865 -0.3422  0.2158
  102MOL0     H14067   3.762   8.902   2.430  1.5345  0.4117  0.7763
  102MOL0     H14068   3.549   8.934   2.305 -1.2551 -2.7719  0.6110
  102MOL0     H14069   3.632   8.942   2.149  2.2355  0.1894 -1.2714
  102MOL0     H14070   3.647   8.708   2.353 -0.1675 -0.0795  0.7238
  102MOL0     H14071   3.674   8.697   2.180 -0.6899 -2.3309  1.3318
  102MOL0     H14072   3.261   8.651   2.229  0.3417 -1.7126  0.0152
  102MOL0     H14073   4.028   8.857   2.514 -0.1744  0.8803 -0.0098
  102MOL0     H14074   4.334   8.748   2.678  1.1691  0.0903  1.4081
  102MOL0     H14075   4.338   8.906   2.587 -0.1501 -0.9527  0.6734
  102MOL0     H14076   4.195   8.853   2.692 -0.1903 -1.1979 -0.1987
  103MOL0     O14077  10.354   3.393   4.691 -0.3288 -0.3274  0.5605
  103MOL0     C14078  10.253   3.427   4.633  0.6241 -0.1646 -0.0013
  103MOL0     O14079  10.236   3.436   4.499 -0.3948 -0.0714 -0.8204
  103MOL0     C14080  10.340   3.380   4.427  0.0906  0.0109  0.0028
  103MOL0     C14081  10.459   3.449   4.403  0.3172  0.2669  1.1920
  103MOL0     C14082  10.561   3.374   4.335 -0.1346 -0.1756  0.3605
  103MOL0     C14083  10.544   3.245   4.295  0.3449  0.5874  0.0161
  103MOL0     O14084  10.642   3.164   4.232  0.5641 -0.4475 -0.4118
  103MOL0     C14085  10.747   3.225   4.156 -0.5214  1.1809  0.1270
  103MOL0     C14086  10.824   3.127   4.063  0.2185 -0.2291 -0.1158
  103MOL0     C14087  10.887   3.215   3.953  0.1680 -0.7386  0.1774
  103MOL0     C14088  10.945   3.120   3.843  0.5789  0.3963  0.4047
  103MOL0     C14089  10.994   3.204   3.717 -1.4696  0.4227 -0.8425
  103MOL0     C14090  11.131   3.263   3.753 -0.2370  0.5353 -0.7011
  103MOL0     C14091  11.195   3.336   3.633  0.5149 -0.6892  0.0401
  103MOL0     C14092  11.142   3.487   3.642  0.0457 -0.4444 -0.7639
  103MOL0     N14093  11.007   3.488   3.613  0.2238  0.5373  0.1123
  103MOL0     C14094  10.897   3.532   3.693 -0.4354 -0.6863 -0.1139
  103MOL0     C14095  10.790   3.521   3.620 -0.4078 -0.4029  0.8893
  103MOL0     C14096  10.646   3.555   3.648  0.3958  0.5766  0.7573
  103MOL0     C14097  10.594   3.458   3.765 -0.8180  0.2130  0.3212
  103MOL0     C14098  10.574   3.308   3.711 -0.9861 -0.1251  0.6540
  103MOL0     C14099  10.426   3.290   3.690  0.7022  0.3792  0.6191
  103MOL0     O14100  10.371   3.262   3.818  0.4116  0.7463 -0.0253
  103MOL0     C14101  10.235   3.262   3.824 -0.4617  0.4968 -0.0973
  103MOL0     C14102  10.180   3.266   3.961  0.1700 -0.3888  0.0576
  103MOL0     C14103  10.040   3.266   3.985 -0.7798  0.4927 -0.1916
  103MOL0     C14104   9.990   3.258   4.124  0.9206 -0.6327  1.5471
  103MOL0     C14105   9.950   3.277   3.872 -0.0792  0.2654 -0.0475
  103MOL0     C14106   9.805   3.276   3.883  0.3012  0.1382  0.2654
  103MOL0     O14107   9.718   3.164   3.857  0.2278  0.1838  0.8790
  103MOL0     C14108   9.778   3.051   3.821  0.0456  0.6717  0.9776
  103MOL0     C14109   9.770   2.996   3.697  0.1689  0.6964 -0.3197
  103MOL0     C14110   9.827   2.876   3.660  0.1499 -0.1979  0.1773
  103MOL0     C14111   9.892   2.802   3.761 -0.9588  0.2029 -0.9578
  103MOL0     O14112   9.950   2.676   3.746  0.0091 -0.6745 -0.5416
  103MOL0     C14113   9.881   2.568   3.673 -0.3280  0.3650  0.8459
  103MOL0     C14114   9.981   2.451   3.648  1.1895  0.0594 -0.2926
  103MOL0     C14115   9.985   2.351   3.764  1.2700 -0.0243 -0.4932
  103MOL0     C14116  10.042   2.217   3.718  0.9804 -0.3702  0.4831
  103MOL0     C14117  10.004   2.106   3.817  0.6169  0.5516  0.3362
  103MOL0     C14118  10.074   1.976   3.760  0.1371 -0.5182  0.2758
  103MOL0     C14119  10.093   1.874   3.873  0.6362  1.5491  0.4065
  103MOL0     C14120  10.109   1.724   3.815  0.4676 -0.8556  0.6599
  103MOL0    Cl14121  10.248   1.726   3.713  0.1704 -0.3704  0.0456
  103MOL0     C14122   9.890   2.848   3.891  0.4363 -0.1451  0.2797
  103MOL0     C14123   9.843   2.975   3.916  0.8814  1.0164 -0.1125
  103MOL0     O14124   9.758   3.380   3.933 -0.5064 -0.7259  0.1923
  103MOL0     C14125  10.007   3.264   3.740 -0.6936  0.9185  0.0674
  103MOL0     C14126  10.141   3.246   3.725  1.4085  0.2649 -0.5173
  103MOL0     N14127  10.831   3.490   3.489  0.3261  0.3168 -0.1909
  103MOL0     N14128  10.952   3.464   3.493 -0.0109  0.1114 -0.7272
  103MOL0     C14129  10.428   3.182   4.322  0.1621  0.6763 -0.2828
  103MOL0     C14130  10.322   3.249   4.385  0.7047 -0.0756  0.8747
  103MOL0     C14131  10.123   3.448   4.704  0.1593 -0.4426 -0.2392
  103MOL0     C14132  10.014   3.434   4.625  0.0869 -0.2787 -0.4878
  103MOL0     C14133   9.882   3.466   4.674  0.0877  0.6868 -0.4408
  103MOL0     C14134   9.866   3.492   4.814 -0.4585  0.3490 -0.0845
  103MOL0     O14135   9.742   3.524   4.849  0.6587  0.0871 -0.0832
  103MOL0     C14136   9.704   3.543   4.986 -0.6335 -0.7960 -0.1918
  103MOL0     C14137   9.552   3.574   4.999  0.6507 -0.2973  0.5964
  103MOL0     C14138   9.505   3.571   5.145  0.3913 -0.6372 -0.0859
  103MOL0     C14139   9.472   3.432   5.186  0.3642 -0.7828  0.5497
  103MOL0     C14140   9.347   3.380   5.134  0.2421 -0.0791  1.0102
  103MOL0     C14141   9.238   3.362   5.072 -0.0008 -0.1445 -0.5905
  103MOL0     C14142   9.980   3.492   4.894  0.8879  0.0974  0.2147
  103MOL0     C14143  10.109   3.463   4.849  0.5870 -0.5949  1.4549
  103MOL0     C14144  10.224   3.460   4.946  0.7622 -0.2422  0.9679
  103MOL0     H14145  10.473   3.555   4.419  0.5922  0.9648 -2.7306
  103MOL0     H14146  10.651   3.433   4.320 -0.4662  0.1434 -0.4591
  103MOL0     H14147  10.824   3.280   4.212 -1.3156  2.5829 -0.1166
  103MOL0     H14148  10.706   3.303   4.092  3.5998  0.8425 -3.3779
  103MOL0     H14149  10.907   3.083   4.119 -0.8822  2.7511  4.4327
  103MOL0     H14150  10.764   3.048   4.017  1.5640 -1.9408  0.9639
  103MOL0     H14151  10.813   3.277   3.903  2.2754  2.7934  1.0362
  103MOL0     H14152  10.973   3.272   3.989  0.3861  0.7293 -2.4344
  103MOL0     H14153  11.023   3.062   3.894  1.3507  3.6544  3.2812
  103MOL0     H14154  10.865   3.059   3.800 -0.1235 -0.5988  2.9286
  103MOL0     H14155  10.903   3.263   3.704 -3.9997 -2.6697  1.0312
  103MOL0     H14156  11.019   3.145   3.629 -0.1156 -0.8196  0.3138
  103MOL0     H14157  11.124   3.330   3.840 -1.7640 -1.2238  0.6171
  103MOL0     H14158  11.208   3.188   3.775  0.1600  0.8081 -1.1348
  103MOL0     H14159  11.184   3.288   3.535 -2.1325  0.7110 -0.4810
  103MOL0     H14160  11.303   3.350   3.643  0.1663  3.8950 -0.4686
  103MOL0     H14161  11.151   3.535   3.740 -1.5158 -0.6418 -0.5029
  103MOL0     H14162  11.195   3.542   3.564 -0.3312 -0.0404 -0.7361
  103MOL0     H14163  10.912   3.556   3.798 -0.9799 -1.3445  0.1225
  103MOL0     H14164  10.583   3.543   3.559  1.4668 -0.9141  0.1532
  103MOL0     H14165  10.638   3.653   3.697  1.7994  0.8205  0.5325
  103MOL0     H14166  10.673   3.465   3.841  0.3490  0.6031 -0.8802
  103MOL0     H14167  10.506   3.505   3.810 -1.9371 -1.4891 -0.0150
  103MOL0     H14168  10.625   3.292   3.616  0.5712 -0.3748  1.4939
  103MOL0     H14169  10.602   3.237   3.789  0.9113 -1.2206 -0.9501
  103MOL0     H14170  10.381   3.382   3.652 -1.3709 -1.1670 -0.8806
  103MOL0     H14171  10.409   3.201   3.629  0.9209  1.3219 -0.8637
  103MOL0     H14172  10.259   3.252   4.034  0.6953  1.2411 -0.1613
  103MOL0     H14173   9.881   3.254   4.128  0.7876  1.8751  2.0890
  103MOL0     H14174  10.030   3.339   4.186 -0.9968  0.2891  1.6519
  103MOL0     H14175  10.025   3.162   4.165  1.9107 -0.5442  0.9503
  103MOL0     H14176   9.708   3.035   3.617 -0.8915 -1.8361 -0.8368
  103MOL0     H14177   9.825   2.849   3.555 -0.1019 -0.1120  0.1615
  103MOL0     H14178   9.797   2.530   3.731  0.5407 -0.4307  1.6156
  103MOL0     H14179   9.854   2.605   3.574  0.7430 -3.3828 -1.0363
  103MOL0     H14180   9.947   2.404   3.556  0.5798 -0.7990  0.3477
  103MOL0     H14181  10.082   2.487   3.630  1.8920 -1.7540 -0.1110
  103MOL0     H14182   9.889   2.346   3.815  1.4052  1.3429 -0.0656
  103MOL0     H14183  10.055   2.401   3.833  0.4803  3.3893 -1.9492
  103MOL0     H14184  10.151   2.218   3.710  0.8593 -1.1038 -2.2461
  103MOL0     H14185  10.004   2.198   3.617  0.3855 -0.9906  0.8129
  103MOL0     H14186  10.044   2.140   3.914  1.2673  1.6462 -0.2877
  103MOL0     H14187   9.898   2.081   3.812  1.4790 -3.5351 -0.6096
  103MOL0     H14188  10.175   1.999   3.723  0.5747 -1.4951  0.8446
  103MOL0     H14189  10.008   1.936   3.682 -1.2165 -0.3282  1.3016
  103MOL0     H14190  10.016   1.872   3.951 -2.3217 -1.9218 -2.2779
  103MOL0     H14191  10.189   1.905   3.914  0.0632  2.5504  1.0493
  103MOL0     H14192  10.023   1.704   3.751  0.1563 -0.6137  0.9955
  103MOL0     H14193  10.121   1.650   3.894 -3.0010 -2.3577 -0.0759
  103MOL0     H14194   9.927   2.783   3.970  0.2357 -2.1661 -1.2144
  103MOL0     H14195   9.837   3.022   4.014  0.2601  3.9123 -1.4258
  103MOL0     H14196   9.950   3.245   3.649 -0.0752 -2.1503  0.2011
  103MOL0     H14197  10.151   3.234   3.618  0.4032 -2.5326 -0.3767
  103MOL0     H14198  10.412   3.089   4.269 -1.0827  2.4435 -3.2145
  103MOL0     H14199  10.222   3.207   4.390  1.0452 -1.6958 -2.5700
  103MOL0     H14200  10.013   3.402   4.522 -0.0401 -0.0133 -0.5709
  103MOL0     H14201   9.796   3.475   4.609  0.4173  0.3972 -0.9291
  103MOL0     H14202   9.736   3.459   5.049 -1.8807 -0.2282  1.2651
  103MOL0     H14203   9.767   3.627   5.018  0.7079 -0.7201 -2.7354
  103MOL0     H14204   9.491   3.502   4.943 -0.8699  1.2235  0.2018
  103MOL0     H14205   9.524   3.672   4.960  0.6849  0.4878  2.4032
  103MOL0     H14206   9.592   3.612   5.197  1.2604  0.9869 -2.6109
  103MOL0     H14207   9.415   3.634   5.140 -2.2235 -4.0752 -0.2594
  103MOL0     H14208   9.454   3.436   5.294  0.3443 -1.6210  0.5877
  103MOL0     H14209   9.557   3.368   5.159  2.0179  2.6101 -3.1901
  103MOL0     H14210   9.147   3.322   5.031  1.4482 -4.8314  0.2293
  103MOL0     H14211   9.960   3.511   4.999 -1.9016  1.3432 -0.4695
  103MOL0     H14212  10.305   3.396   4.910  1.6013  2.8533 -3.3169
  103MOL0     H14213  10.262   3.561   4.959  3.8985 -0.4333 -4.1250
  103MOL0     H14214  10.191   3.422   5.044  0.5110 -0.5780  0.7535
  104MOL0     O14215   1.155   0.058  11.586 -0.6695 -0.2269  0.1166
  104MOL0     C14216   1.155   0.139  11.494  0.2207 -0.4597  0.4564
  104MOL0     O14217   1.059   0.163  11.412  0.1834 -0.1755 -0.2627
  104MOL0     C14218   0.932   0.139  11.448  0.2564 -0.4762 -0.3876
  104MOL0     C14219   0.877   0.159  11.575 -1.1850 -0.8304 -0.0282
  104MOL0     C14220   0.736   0.140  11.596 -0.0095 -0.6130  0.5648
  104MOL0     C14221   0.653   0.106  11.486  0.2657  0.7393  0.0341
  104MOL0     O14222   0.514   0.092  11.487  0.2133  0.2969 -0.4563
  104MOL0     C14223   0.451   0.079  11.612 -0.0806 -0.0591 -0.2287
  104MOL0     C14224   0.320   0.005  11.585 -0.1683 -0.1794  0.3289
  104MOL0     C14225   0.286  -0.091  11.701  1.0855 -0.6707 -1.0025
  104MOL0     C14226   0.282  -0.015  11.837  0.5985  0.4675 -0.6878
  104MOL0     C14227   0.239  -0.096  11.962  1.7587  0.9100  0.4608
  104MOL0     C14228   0.299  -0.234  11.979 -0.3626 -0.2291 -0.2435
  104MOL0     C14229   0.265  -0.270  12.122  0.6070 -0.0708  0.8242
  104MOL0     C14230   0.239  -0.426  12.123 -0.9359  0.5180  0.1844
  104MOL0     N14231   0.367  -0.499  12.134  0.4987 -0.1178 -0.9146
  104MOL0     C14232   0.443  -0.551  12.022  0.0103 -0.9605 -0.2206
  104MOL0     C14233   0.544  -0.619  12.082 -0.1752 -0.3894 -0.6977
  104MOL0     C14234   0.663  -0.697  12.028 -0.2224  0.3392 -1.1298
  104MOL0     C14235   0.626  -0.844  12.003  0.2485  0.2675  0.6470
  104MOL0     C14236   0.736  -0.915  11.919  0.5903  0.1060  0.5070
  104MOL0     C14237   0.677  -1.049  11.875  0.1081  0.0611 -0.4277
  104MOL0     O14238   0.661  -1.132  11.996  0.7483  0.8798 -0.0523
  104MOL0     C14239   0.552  -1.217  11.980 -0.1263 -0.6729 -0.6349
  104MOL0     C14240   0.512  -1.294  11.864  0.1422 -0.7100 -0.6411
  104MOL0     C14241   0.391  -1.370  11.863  0.1085  0.3773  0.4331
  104MOL0     C14242   0.350  -1.406  11.720  0.2556 -0.8406  0.2061
  104MOL0     C14243   0.296  -1.378  11.966  0.3413  0.3658 -0.4327
  104MOL0     C14244   0.179  -1.469  11.968  0.9220  0.0923 -0.0179
  104MOL0     O14245   0.101  -1.454  12.082  0.0136  0.3918  0.0835
  104MOL0     C14246   0.003  -1.551  12.111 -0.0024 -0.9924 -0.5347
  104MOL0     C14247   0.014  -1.636  12.218  0.3402 -0.3679  0.6496
  104MOL0     C14248  -0.099  -1.722  12.244  0.0239 -0.3100  0.7586
  104MOL0     C14249  -0.200  -1.738  12.145  1.0001 -0.8972 -0.1119
  104MOL0     O14250  -0.298  -1.830  12.134 -0.0438  0.3137 -0.3560
  104MOL0     C14251  -0.310  -1.933  12.233  0.3897  0.4792  0.6433
  104MOL0     C14252  -0.440  -2.021  12.228 -0.8892  0.0415  0.0612
  104MOL0     C14253  -0.399  -2.160  12.280 -1.2272 -0.1776  0.3324
  104MOL0     C14254  -0.501  -2.266  12.241  0.8518 -0.4374 -0.0046
  104MOL0     C14255  -0.455  -2.410  12.243  0.0563 -0.2594 -0.0003
  104MOL0     C14256  -0.385  -2.459  12.373  0.5828  0.4693 -0.7389
  104MOL0     C14257  -0.376  -2.611  12.385  0.4237  0.0609 -0.0247
  104MOL0     C14258  -0.299  -2.657  12.510  0.5135 -0.1541  0.2463
  104MOL0    Cl14259  -0.405  -2.651  12.648  0.4018 -0.5385 -0.1023
  104MOL0     C14260  -0.202  -1.642  12.036 -0.7516 -0.5016 -0.4090
  104MOL0     C14261  -0.099  -1.554  12.020  0.9512 -0.3746  0.6352
  104MOL0     O14262   0.166  -1.558  11.882  0.1885 -0.1459 -0.0724
  104MOL0     C14263   0.332  -1.298  12.083 -0.1625 -1.1817  0.5983
  104MOL0     C14264   0.454  -1.225  12.090 -0.7906  0.0134  0.5777
  104MOL0     N14265   0.535  -0.605  12.221 -1.0359  0.6525 -0.7646
  104MOL0     N14266   0.428  -0.538  12.252  0.4680 -0.3600 -0.9182
  104MOL0     C14267   0.709   0.096  11.359  0.7656 -0.5846  0.0118
  104MOL0     C14268   0.846   0.108  11.341  0.5357  0.4571 -0.8307
  104MOL0     C14269   1.284   0.209  11.482  0.2213 -0.2272  0.2757
  104MOL0     C14270   1.286   0.323  11.392  0.2008  0.7555 -0.8792
  104MOL0     C14271   1.406   0.390  11.357  0.2192  0.1086  0.6818
  104MOL0     C14272   1.529   0.343  11.413  0.3724 -0.0234 -0.8202
  104MOL0     O14273   1.645   0.407  11.365  0.4953 -0.5565 -0.7655
  104MOL0     C14274   1.776   0.376  11.420 -0.0273  0.5176 -1.0321
  104MOL0     C14275   1.885   0.434  11.332  0.2040  0.1006 -0.3395
  104MOL0     C14276   1.863   0.578  11.289  0.6695 -0.1171  0.0581
  104MOL0     C14277   1.980   0.628  11.201 -0.4712 -0.3198  0.0963
  104MOL0     C14278   1.950   0.609  11.056 -0.3847 -0.0180 -0.3997
  104MOL0     C14279   1.900   0.580  10.954  0.8078 -0.5822 -1.1820
  104MOL0     C14280   1.518   0.233  11.509  0.5417  0.7278  0.0596
  104MOL0     C14281   1.402   0.163  11.547 -0.5147  0.0406  0.4090
  104MOL0     C14282   1.420   0.066  11.661 -0.3368  0.6624 -0.4376
  104MOL0     H14283   0.931   0.192  11.662 -3.3126 -1.1001  1.4858
  104MOL0     H14284   0.690   0.173  11.689 -1.7558 -3.7317  0.9581
  104MOL0     H14285   0.429   0.176  11.658 -0.2052  1.3950 -3.0716
  104MOL0     H14286   0.517   0.022  11.678 -0.3282 -1.4050 -1.1099
  104MOL0     H14287   0.243   0.081  11.566  1.7367  1.6084 -0.6938
  104MOL0     H14288   0.323  -0.061  11.498 -2.2902  1.2984 -0.9680
  104MOL0     H14289   0.186  -0.134  11.686 -0.0604  1.8284 -0.9705
  104MOL0     H14290   0.358  -0.174  11.707  1.0762 -0.6062  0.5591
  104MOL0     H14291   0.385   0.017  11.853 -0.3407  2.8522  1.2871
  104MOL0     H14292   0.209   0.066  11.830 -0.0043 -0.1156 -1.2394
  104MOL0     H14293   0.130  -0.110  11.961  1.8290  0.3483  0.7171
  104MOL0     H14294   0.265  -0.042  12.053 -1.1548 -0.5519  2.3204
  104MOL0     H14295   0.269  -0.309  11.904 -1.2755  1.6883 -1.9098
  104MOL0     H14296   0.407  -0.220  11.978 -0.1124 -0.5036  4.1937
  104MOL0     H14297   0.173  -0.224  12.158 -0.4032  0.5539 -2.2691
  104MOL0     H14298   0.344  -0.258  12.196  0.5917 -0.7820  0.9639
  104MOL0     H14299   0.184  -0.431  12.217  1.0896  1.2460  1.4712
  104MOL0     H14300   0.187  -0.463  12.034  3.4848 -2.1063 -1.5994
  104MOL0     H14301   0.416  -0.537  11.918  1.0187 -2.9325 -0.7840
  104MOL0     H14302   0.739  -0.688  12.105 -0.8254 -0.1837 -0.4639
  104MOL0     H14303   0.706  -0.663  11.933  2.7607 -1.7730 -0.6616
  104MOL0     H14304   0.611  -0.902  12.095 -1.3255 -2.5201 -1.1939
  104MOL0     H14305   0.534  -0.832  11.945 -0.1260  4.1774  1.8127
  104MOL0     H14306   0.761  -0.861  11.828 -1.4007  0.0809 -0.1071
  104MOL0     H14307   0.830  -0.921  11.974  0.9933  2.0467  0.0920
  104MOL0     H14308   0.585  -1.040  11.816 -0.7073  0.1290  0.8139
  104MOL0     H14309   0.747  -1.093  11.804 -0.1445 -0.5761 -0.2873
  104MOL0     H14310   0.580  -1.306  11.780  0.1184  2.8120 -1.3368
  104MOL0     H14311   0.418  -1.380  11.638 -3.2361 -3.1193 -3.8207
  104MOL0     H14312   0.253  -1.357  11.703  1.0893  0.1482 -2.0137
  104MOL0     H14313   0.325  -1.510  11.700  0.8959 -0.5106 -2.6997
  104MOL0     H14314   0.094  -1.642  12.292 -0.9891  1.6070  2.3629
  104MOL0     H14315  -0.089  -1.789  12.329 -2.2493  0.8327  2.0364
  104MOL0     H14316  -0.227  -2.000  12.209 -2.0305 -3.2128  1.7223
  104MOL0     H14317  -0.302  -1.890  12.333 -1.6689  0.5761  0.8109
  104MOL0     H14318  -0.517  -1.989  12.298  0.7235  0.4640  1.7217
  104MOL0     H14319  -0.495  -2.026  12.134 -2.6440  3.5723  0.7274
  104MOL0     H14320  -0.390  -2.161  12.389 -2.8322 -0.9162  0.4895
  104MOL0     H14321  -0.304  -2.195  12.239  0.0073 -0.4351  3.1885
  104MOL0     H14322  -0.544  -2.238  12.144 -1.4220  1.0925  1.3488
  104MOL0     H14323  -0.591  -2.250  12.302  0.9822 -0.7061  0.2665
  104MOL0     H14324  -0.541  -2.471  12.213 -0.1390  0.0844 -0.1401
  104MOL0     H14325  -0.385  -2.403  12.159 -2.5817  1.2495 -2.2764
  104MOL0     H14326  -0.423  -2.431  12.472  3.7863 -3.1478  1.8229
  104MOL0     H14327  -0.282  -2.421  12.375  1.4290 -1.6790 -1.2299
  104MOL0     H14328  -0.315  -2.656  12.306 -0.4329  1.7151 -1.7127
  104MOL0     H14329  -0.468  -2.668  12.366  1.1982 -1.0090 -0.6484
  104MOL0     H14330  -0.205  -2.603  12.524  0.3238  0.3329 -0.3196
  104MOL0     H14331  -0.271  -2.762  12.498 -2.2570 -1.0463  0.7783
  104MOL0     H14332  -0.278  -1.658  11.961  0.3648 -3.4813 -1.0443
  104MOL0     H14333  -0.078  -1.483  11.940 -0.1506 -1.4835 -0.7041
  104MOL0     H14334   0.276  -1.283  12.174  0.3132  2.6287  0.4198
  104MOL0     H14335   0.461  -1.170  12.184 -1.9806 -1.2433  1.4359
  104MOL0     H14336   0.643   0.092  11.273 -1.1918  0.4394  1.3999
  104MOL0     H14337   0.906   0.104  11.251  1.7425  0.9235 -0.0751
  104MOL0     H14338   1.189   0.362  11.361 -1.2196 -0.5019  1.6094
  104MOL0     H14339   1.403   0.479  11.296  2.0644 -0.3515 -0.1392
  104MOL0     H14340   1.780   0.411  11.524 -2.9012 -4.7445  1.2566
  104MOL0     H14341   1.790   0.267  11.424 -0.3663  0.4973  1.0385
  104MOL0     H14342   1.896   0.363  11.250  0.3902 -2.6109  1.8718
  104MOL0     H14343   1.980   0.434  11.386  0.0774 -1.0980 -0.0758
  104MOL0     H14344   1.767   0.564  11.238 -1.0378  1.7180  2.5726
  104MOL0     H14345   1.853   0.637  11.380 -0.6928 -0.6630  0.2895
  104MOL0     H14346   2.066   0.566  11.226 -0.6792 -1.0275 -0.8809
  104MOL0     H14347   2.008   0.733  11.212 -0.2346 -0.5734  2.2159
  104MOL0     H14348   1.868   0.554  10.855 -0.0175 -0.7105 -0.8900
  104MOL0     H14349   1.606   0.212  11.569  2.0772  2.0363 -1.6210
  104MOL0     H14350   1.350  -0.018  11.666  0.8304 -0.2947  0.1151
  104MOL0     H14351   1.519   0.021  11.656 -2.2612 -4.5744  1.9192
  104MOL0     H14352   1.426   0.126  11.753  0.1247  2.3438 -1.5058
  105MOL0     O14353   4.349   1.275   3.620 -0.1039 -0.4472 -0.3275
  105MOL0     C14354   4.341   1.326   3.509  0.0831 -0.0509 -0.1313
  105MOL0     O14355   4.389   1.452   3.479  0.9879  0.0400 -0.2368
  105MOL0     C14356   4.469   1.508   3.577  0.5046 -0.5074 -0.2190
  105MOL0     C14357   4.440   1.646   3.620 -0.1663  0.4745  1.2552
  105MOL0     C14358   4.542   1.714   3.687 -0.8425  0.5589  0.0808
  105MOL0     C14359   4.658   1.644   3.732 -0.2959 -0.7131 -0.2259
  105MOL0     O14360   4.742   1.726   3.812 -0.2817  0.8737  0.2045
  105MOL0     C14361   4.868   1.676   3.849 -0.8007  0.6028 -0.4766
  105MOL0     C14362   4.970   1.672   3.733 -0.5201 -0.2493  1.3217
  105MOL0     C14363   5.009   1.814   3.691 -0.7175 -0.7827 -0.4460
  105MOL0     C14364   5.120   1.796   3.588 -0.3407  0.5876 -0.4105
  105MOL0     C14365   5.160   1.927   3.516 -0.1266 -0.1885  0.3128
  105MOL0     C14366   5.062   1.942   3.403  0.2996 -0.4096 -0.4041
  105MOL0     C14367   5.083   2.084   3.336 -1.0954 -0.3685 -1.0834
  105MOL0     C14368   4.959   2.124   3.263  0.0129  0.3526 -0.1126
  105MOL0     N14369   4.965   2.250   3.181  0.3948 -0.4250  0.6006
  105MOL0     C14370   5.051   2.275   3.072  0.3539  0.1307 -0.2736
  105MOL0     C14371   4.985   2.365   2.991 -1.3599 -0.5282 -0.2755
  105MOL0     C14372   5.013   2.407   2.848 -0.5050 -0.5664  0.1987
  105MOL0     C14373   4.884   2.397   2.769  0.2742  0.4585 -0.4594
  105MOL0     C14374   4.829   2.252   2.748 -0.3400  0.2388  0.2493
  105MOL0     C14375   4.930   2.151   2.687  0.2305 -0.6950 -0.9549
  105MOL0     O14376   4.942   2.192   2.555 -0.3447  0.4727  1.3904
  105MOL0     C14377   5.042   2.135   2.481 -0.2935 -0.3370  1.0792
  105MOL0     C14378   5.180   2.120   2.503 -0.4779 -1.1187 -0.2723
  105MOL0     C14379   5.263   2.051   2.422 -0.2388 -0.4435  0.3860
  105MOL0     C14380   5.412   2.045   2.466 -0.4457  1.0019 -0.3641
  105MOL0     C14381   5.203   1.981   2.310 -0.7539 -0.3104 -0.1805
  105MOL0     C14382   5.277   1.894   2.218 -0.4246 -0.4918  0.0052
  105MOL0     O14383   5.240   1.881   2.088 -0.0356 -0.1015 -0.0680
  105MOL0     C14384   5.334   1.832   2.002 -0.7522 -0.1262 -0.4095
  105MOL0     C14385   5.456   1.881   1.976  0.1615  0.3549 -1.1147
  105MOL0     C14386   5.534   1.832   1.874 -1.0423 -0.1773 -0.2005
  105MOL0     C14387   5.488   1.725   1.795 -0.6306  0.5548 -0.3187
  105MOL0     O14388   5.565   1.661   1.704  0.5072 -0.4557  0.8476
  105MOL0     C14389   5.660   1.729   1.613 -0.8567 -0.2199 -0.7671
  105MOL0     C14390   5.583   1.806   1.510 -0.6386  0.3884 -0.4150
  105MOL0     C14391   5.670   1.918   1.435  0.2987  1.2025 -0.5020
  105MOL0     C14392   5.599   2.014   1.343 -0.1024  0.7082  0.5462
  105MOL0     C14393   5.665   2.147   1.301 -0.1938 -0.2466  0.0204
  105MOL0     C14394   5.782   2.129   1.210  0.1066  0.0618  0.4097
  105MOL0     C14395   5.899   2.228   1.227  0.8299  0.4205 -0.6862
  105MOL0     C14396   5.999   2.207   1.341  0.5717 -0.2858 -0.1689
  105MOL0    Cl14397   6.110   2.078   1.283 -0.2678 -0.2013  0.0092
  105MOL0     C14398   5.368   1.660   1.838 -0.0184 -0.9297  1.0992
  105MOL0     C14399   5.288   1.721   1.935 -0.6564  0.2512  0.5228
  105MOL0     O14400   5.373   1.830   2.263  0.0577  0.1636 -0.0799
  105MOL0     C14401   5.064   1.988   2.297 -0.3302 -0.2365  0.5797
  105MOL0     C14402   4.990   2.072   2.369 -0.5163  0.3726  0.5942
  105MOL0     N14403   4.874   2.400   3.066  0.1190 -0.2861  0.6285
  105MOL0     N14404   4.858   2.329   3.178  0.4878 -0.5946  0.9667
  105MOL0     C14405   4.680   1.510   3.699 -0.6739  0.4880 -0.4893
  105MOL0     C14406   4.591   1.449   3.607  0.3192 -1.3051 -0.3870
  105MOL0     C14407   4.269   1.267   3.398 -0.1914  0.7243  0.2646
  105MOL0     C14408   4.122   1.264   3.392  0.2293  1.3324  0.4427
  105MOL0     C14409   4.060   1.221   3.278  0.1150 -0.1145 -0.1748
  105MOL0     C14410   4.132   1.191   3.160  0.3998  1.0088  0.5720
  105MOL0     O14411   4.086   1.156   3.036  0.3287  0.3122  0.4397
  105MOL0     C14412   3.952   1.155   3.006 -0.2860 -0.2405  0.4837
  105MOL0     C14413   3.937   1.187   2.858  0.5297  0.1684 -0.0593
  105MOL0     C14414   4.000   1.316   2.813  0.7999  0.3692 -0.8700
  105MOL0     C14415   3.973   1.349   2.668 -1.3030 -0.1450  0.3006
  105MOL0     C14416   4.061   1.291   2.562  0.1154  0.2535 -0.3467
  105MOL0     C14417   4.148   1.258   2.484 -0.5784 -0.2631 -0.6292
  105MOL0     C14418   4.270   1.189   3.162  0.4074  0.0791  0.3855
  105MOL0     C14419   4.335   1.229   3.277 -0.4331 -0.2000  0.0020
  105MOL0     C14420   4.492   1.216   3.274 -0.3977 -0.0118  0.0819
  105MOL0     H14421   4.346   1.695   3.599 -1.0206 -1.1625  1.0540
  105MOL0     H14422   4.526   1.821   3.697 -0.2708  0.9994 -2.8523
  105MOL0     H14423   4.858   1.574   3.889 -1.8433  0.0812 -1.9487
  105MOL0     H14424   4.909   1.743   3.925  0.2618 -0.3315 -0.1753
  105MOL0     H14425   5.068   1.631   3.756  0.9657  0.2224 -3.1813
  105MOL0     H14426   4.932   1.601   3.659  2.3242 -3.0063  2.3163
  105MOL0     H14427   4.926   1.866   3.643 -0.6982  1.0542  1.4011
  105MOL0     H14428   5.045   1.859   3.784 -4.8568 -2.0434  2.0520
  105MOL0     H14429   5.207   1.750   3.635 -1.5503 -0.9454  0.4027
  105MOL0     H14430   5.080   1.735   3.507 -0.1575  0.1385 -0.1636
  105MOL0     H14431   5.259   1.925   3.469 -0.6061  2.5092 -1.0391
  105MOL0     H14432   5.169   2.021   3.572  3.7555 -0.0991 -0.1604
  105MOL0     H14433   5.073   1.864   3.328 -2.1003  0.2766 -1.5733
  105MOL0     H14434   4.959   1.938   3.440  0.0854  1.1141 -0.7708
  105MOL0     H14435   5.171   2.077   3.271 -1.1306 -3.0424 -0.9283
  105MOL0     H14436   5.119   2.152   3.414 -2.1254 -1.1015  0.0450
  105MOL0     H14437   4.921   2.044   3.199 -0.1883  0.4379 -0.1000
  105MOL0     H14438   4.880   2.144   3.336 -0.7509 -2.1941 -0.1742
  105MOL0     H14439   5.139   2.222   3.036  0.8390  1.3069 -0.8857
  105MOL0     H14440   5.099   2.353   2.807 -0.7236 -1.4271  0.8497
  105MOL0     H14441   5.051   2.510   2.855 -0.0050 -0.6629 -0.9031
  105MOL0     H14442   4.806   2.467   2.802 -0.3201  0.2143 -1.2943
  105MOL0     H14443   4.909   2.440   2.671 -1.7597 -1.8721 -2.1182
  105MOL0     H14444   4.791   2.212   2.843 -2.0864  1.4349  0.1017
  105MOL0     H14445   4.742   2.251   2.681 -0.1035 -0.6751 -0.0524
  105MOL0     H14446   5.019   2.153   2.750  1.6633  0.1711 -2.8912
  105MOL0     H14447   4.881   2.053   2.683 -1.8894  0.0696  2.3531
  105MOL0     H14448   5.223   2.177   2.585 -1.4284 -1.4317  0.4630
  105MOL0     H14449   5.464   2.071   2.373  0.4974  3.5823  0.7910
  105MOL0     H14450   5.454   1.946   2.484  0.0754  1.4168  0.7675
  105MOL0     H14451   5.437   2.108   2.552 -0.3191  0.5408 -0.0592
  105MOL0     H14452   5.488   1.965   2.037 -3.6757  0.8997  0.4442
  105MOL0     H14453   5.633   1.874   1.860 -1.3570  0.1996 -1.3692
  105MOL0     H14454   5.727   1.798   1.668 -4.6298  2.9647  0.3016
  105MOL0     H14455   5.722   1.651   1.568 -0.6233 -1.0448  0.8825
  105MOL0     H14456   5.530   1.732   1.449 -3.0927  2.2623 -0.7319
  105MOL0     H14457   5.509   1.864   1.566 -0.6309 -1.5704  1.7574
  105MOL0     H14458   5.747   1.871   1.373  1.2038 -1.2623  2.2568
  105MOL0     H14459   5.724   1.986   1.502 -2.5976  3.5314 -0.3234
  105MOL0     H14460   5.499   2.029   1.384 -1.1267 -0.4218 -1.4015
  105MOL0     H14461   5.580   1.967   1.246 -2.7942 -1.0560  1.8235
  105MOL0     H14462   5.597   2.208   1.241  1.2313 -0.9224 -2.4430
  105MOL0     H14463   5.690   2.197   1.395 -1.3124 -1.1714  0.8400
  105MOL0     H14464   5.735   2.145   1.112  0.2188 -1.8081  0.0198
  105MOL0     H14465   5.816   2.025   1.215  1.0916  0.4323  2.7287
  105MOL0     H14466   5.857   2.329   1.239 -2.0403 -0.7623  0.0265
  105MOL0     H14467   5.952   2.231   1.132 -3.3371 -2.1773 -3.3845
  105MOL0     H14468   5.951   2.177   1.435  0.1863  2.1060  0.4725
  105MOL0     H14469   6.053   2.300   1.364  0.2020  0.1694 -1.0740
  105MOL0     H14470   5.336   1.573   1.782  0.4447  1.7487 -3.9428
  105MOL0     H14471   5.194   1.677   1.966 -1.1469  1.4977  0.8816
  105MOL0     H14472   5.020   1.945   2.207 -0.6358 -0.7529  0.9644
  105MOL0     H14473   4.882   2.077   2.353 -0.4044  0.7280 -0.0786
  105MOL0     H14474   4.768   1.455   3.732  1.6518  2.7182 -2.6026
  105MOL0     H14475   4.617   1.349   3.575  0.7332 -0.7612 -1.8390
  105MOL0     H14476   4.051   1.291   3.470  0.1243 -4.0592  2.6010
  105MOL0     H14477   3.952   1.212   3.291  0.2249 -1.1718  0.1046
  105MOL0     H14478   3.906   1.063   3.041  3.0427 -0.8657  3.8438
  105MOL0     H14479   3.902   1.239   3.055 -0.3293 -0.0634  0.1417
  105MOL0     H14480   3.831   1.179   2.830  1.0197 -2.0711 -1.5668
  105MOL0     H14481   3.992   1.108   2.807  1.4952  0.3903  0.6025
  105MOL0     H14482   3.945   1.383   2.879  2.2669 -0.8429  1.7145
  105MOL0     H14483   4.106   1.316   2.839  0.4637 -2.6410  0.9852
  105MOL0     H14484   3.990   1.457   2.666 -1.0690 -0.1586  0.9801
  105MOL0     H14485   3.875   1.311   2.640 -0.4932 -3.2055  1.2177
  105MOL0     H14486   4.230   1.243   2.417  2.6801  1.6445  2.6052
  105MOL0     H14487   4.337   1.156   3.082  0.6797 -1.7671  1.3168
  105MOL0     H14488   4.518   1.126   3.218 -4.4254 -1.2397 -0.1297
  105MOL0     H14489   4.543   1.310   3.249  0.7542 -0.9308 -1.1943
  105MOL0     H14490   4.512   1.191   3.378  0.0575 -0.7297 -0.1701
  106MOL0     O14491   7.021   5.732   9.669 -0.3572 -0.2937 -0.4930
  106MOL0     C14492   6.921   5.666   9.689  0.6450  1.1774 -0.5007
  106MOL0     O14493   6.885   5.629   9.806 -0.1546 -0.1997  0.7785
  106MOL0     C14494   6.975   5.623   9.914 -0.8866  0.2194 -0.3289
  106MOL0     C14495   7.103   5.691   9.927 -1.1195 -0.1763 -0.2019
  106MOL0     C14496   7.182   5.685  10.042 -0.3825 -0.3398 -0.7439
  106MOL0     C14497   7.136   5.599  10.144  0.3985  0.1746  0.0347
  106MOL0     O14498   7.199   5.567  10.258 -0.2840 -0.6561 -1.1340
  106MOL0     C14499   7.263   5.673  10.325  0.7828 -0.5242 -0.0607
  106MOL0     C14500   7.265   5.649  10.482 -0.6963  0.0470  0.4495
  106MOL0     C14501   7.119   5.630  10.524 -0.6739  0.4124  0.1412
  106MOL0     C14502   7.119   5.578  10.677  0.4559 -0.3040  0.3749
  106MOL0     C14503   6.997   5.608  10.767 -1.2960 -0.3156 -0.1770
  106MOL0     C14504   6.867   5.529  10.745  0.4843 -0.4557  0.2120
  106MOL0     C14505   6.789   5.599  10.635 -1.1920 -0.4642  0.9920
  106MOL0     C14506   6.636   5.604  10.667 -0.1481 -0.6222  0.1198
  106MOL0     N14507   6.572   5.478  10.644  0.0542 -0.9637  0.0976
  106MOL0     C14508   6.610   5.375  10.573  0.6875  0.2054 -0.4433
  106MOL0     C14509   6.533   5.273  10.617 -0.4574 -0.1762 -0.1834
  106MOL0     C14510   6.540   5.128  10.586 -0.0087 -0.8158 -0.1006
  106MOL0     C14511   6.687   5.089  10.611  0.7745 -0.2694  0.0459
  106MOL0     C14512   6.705   4.943  10.571  0.4607 -0.4036 -0.0272
  106MOL0     C14513   6.702   4.924  10.423  0.6169 -0.6207 -0.5333
  106MOL0     O14514   6.782   5.025  10.358 -0.1683  0.3243  0.0610
  106MOL0     C14515   6.785   5.032  10.223 -1.0423 -0.9055  1.3037
  106MOL0     C14516   6.721   4.935  10.147 -0.6279 -0.2054  0.2479
  106MOL0     C14517   6.726   4.946  10.006 -0.3273 -0.5096  0.2060
  106MOL0     C14518   6.671   4.824   9.929 -0.4616 -1.4058  0.0818
  106MOL0     C14519   6.771   5.063   9.943  0.1716 -0.3916 -0.6284
  106MOL0     C14520   6.772   5.078   9.795  0.6447 -0.8988 -0.5319
  106MOL0     O14521   6.891   5.105   9.731 -0.4753 -0.7151  0.2550
  106MOL0     C14522   6.895   5.140   9.598  0.9787  0.3938 -1.0078
  106MOL0     C14523   6.858   5.265   9.550 -0.4645 -0.8178 -0.3166
  106MOL0     C14524   6.848   5.297   9.412  0.1525  1.0750  0.8473
  106MOL0     C14525   6.869   5.200   9.317  0.2495  0.4141 -0.3823
  106MOL0     O14526   6.860   5.214   9.181  0.2775 -0.4670  0.2345
  106MOL0     C14527   6.748   5.165   9.121  0.0028  0.6793 -0.7691
  106MOL0     C14528   6.767   5.172   8.976 -0.8776  1.0048  0.4190
  106MOL0     C14529   6.673   5.077   8.898  0.3707 -0.0882 -0.2993
  106MOL0     C14530   6.523   5.124   8.923  0.3699 -0.8778 -0.2927
  106MOL0     C14531   6.437   5.057   8.815  0.0981  0.6732  1.1773
  106MOL0     C14532   6.289   5.099   8.840 -0.0960  0.8556  0.2706
  106MOL0     C14533   6.240   5.236   8.824  0.4917 -1.0094 -0.0529
  106MOL0     C14534   6.089   5.252   8.843  0.2062  0.0672 -0.2772
  106MOL0    Cl14535   6.026   5.162   8.988  0.0539  0.5052 -0.1167
  106MOL0     C14536   6.906   5.072   9.369  0.1265  0.2321 -0.1275
  106MOL0     C14537   6.921   5.040   9.508  0.5927 -0.5198  0.0577
  106MOL0     O14538   6.661   5.085   9.740  0.3360  0.4354  0.5088
  106MOL0     C14539   6.830   5.158  10.023 -0.3497  0.0780  0.1678
  106MOL0     C14540   6.828   5.145  10.159  0.3746  0.0426 -0.0845
  106MOL0     N14541   6.443   5.324  10.704  0.1742 -0.7837  0.0783
  106MOL0     N14542   6.470   5.444  10.728  0.4563 -0.0217 -0.0159
  106MOL0     C14543   7.014   5.539  10.130  0.1118  0.8043 -1.0044
  106MOL0     C14544   6.927   5.546  10.024 -0.2018  0.4235  0.4137
  106MOL0     C14545   6.819   5.651   9.581  0.1431  0.3746  0.0074
  106MOL0     C14546   6.717   5.551   9.604  0.5496  0.0029  0.2583
  106MOL0     C14547   6.626   5.520   9.501 -0.1540 -0.5213 -0.2921
  106MOL0     C14548   6.633   5.589   9.383 -0.8330  0.0942  0.3894
  106MOL0     O14549   6.523   5.560   9.301 -0.7510 -0.0948 -0.1876
  106MOL0     C14550   6.522   5.605   9.167 -0.7102 -0.4589  0.6227
  106MOL0     C14551   6.452   5.740   9.149 -0.7724 -0.6001 -0.3381
  106MOL0     C14552   6.305   5.738   9.204  1.3367 -0.0235  0.6022
  106MOL0     C14553   6.203   5.685   9.103 -0.6323  0.1952  0.1921
  106MOL0     C14554   6.197   5.536   9.108 -0.8835 -0.2765 -0.2370
  106MOL0     C14555   6.202   5.416   9.117 -0.2322  0.7151 -0.7716
  106MOL0     C14556   6.734   5.678   9.351 -1.5260  0.4901  0.0057
  106MOL0     C14557   6.840   5.705   9.446  0.7662 -0.3656  0.7198
  106MOL0     C14558   6.949   5.797   9.404 -1.3985  0.0548  0.3321
  106MOL0     H14559   7.162   5.760   9.867  0.0916 -1.0979 -0.1342
  106MOL0     H14560   7.278   5.735  10.034 -1.6629  2.0490 -2.7566
  106MOL0     H14561   7.187   5.749  10.303  0.4295 -0.9339 -0.2776
  106MOL0     H14562   7.361   5.702  10.287  0.5525  2.5287  1.3647
  106MOL0     H14563   7.328   5.562  10.500 -1.6176 -1.2169 -2.0179
  106MOL0     H14564   7.297   5.730  10.549  0.0478  1.3686 -1.4361
  106MOL0     H14565   7.071   5.728  10.515 -1.0074  0.2561  0.2013
  106MOL0     H14566   7.050   5.564  10.470 -0.9807  0.5100  0.4151
  106MOL0     H14567   7.157   5.476  10.680 -0.0040 -0.4503  2.3496
  106MOL0     H14568   7.197   5.635  10.728  1.7919 -0.8701 -0.9555
  106MOL0     H14569   6.976   5.715  10.771 -2.0678 -0.3911 -1.4899
  106MOL0     H14570   7.056   5.591  10.857  2.3941 -0.2952 -2.3611
  106MOL0     H14571   6.890   5.424  10.725  0.7044 -0.3503 -0.0894
  106MOL0     H14572   6.804   5.546  10.833 -1.8019  2.0201 -1.7418
  106MOL0     H14573   6.796   5.548  10.538  2.1092  0.5385  0.5897
  106MOL0     H14574   6.835   5.698  10.633  2.0528 -1.8611  0.2800
  106MOL0     H14575   6.611   5.635  10.769 -0.3059  1.5286 -0.5246
  106MOL0     H14576   6.585   5.674  10.599  0.4026 -1.5358 -1.2802
  106MOL0     H14577   6.696   5.371  10.506  0.6239 -1.1098 -0.4744
  106MOL0     H14578   6.506   5.123  10.482 -1.1214  1.7720  0.0457
  106MOL0     H14579   6.466   5.078  10.649 -1.4472  0.8594 -0.3793
  106MOL0     H14580   6.754   5.159  10.559  0.0854 -1.4621 -2.6081
  106MOL0     H14581   6.712   5.097  10.717 -1.5136  0.7522  0.5723
  106MOL0     H14582   6.800   4.901  10.604 -1.3245 -3.3257  1.7141
  106MOL0     H14583   6.634   4.881  10.626  1.5386  1.0970  3.3180
  106MOL0     H14584   6.754   4.830  10.401  1.1635 -1.8096  4.5159
  106MOL0     H14585   6.597   4.934  10.392 -0.5067  1.9771  3.3527
  106MOL0     H14586   6.674   4.847  10.188  1.2433 -1.0869  0.5729
  106MOL0     H14587   6.703   4.832   9.825  0.3065  0.9588  0.4312
  106MOL0     H14588   6.561   4.825   9.929 -0.4744 -0.1636 -0.6484
  106MOL0     H14589   6.710   4.736   9.980 -1.6759 -1.7209  0.5185
  106MOL0     H14590   6.843   5.345   9.622  0.8706 -0.4427 -0.4290
  106MOL0     H14591   6.794   5.383   9.372 -3.6538 -0.8879  1.2915
  106MOL0     H14592   6.715   5.069   9.162  0.5601  0.3843 -1.0042
  106MOL0     H14593   6.658   5.219   9.154 -0.1765  0.1512 -0.3783
  106MOL0     H14594   6.768   5.270   8.929  0.5825 -0.2494 -2.3843
  106MOL0     H14595   6.870   5.138   8.959 -1.5331 -0.4214 -0.8864
  106MOL0     H14596   6.691   4.974   8.929 -1.8632  0.0896  1.9145
  106MOL0     H14597   6.689   5.073   8.789 -2.7681 -5.6383 -0.9424
  106MOL0     H14598   6.517   5.233   8.933  0.4450 -0.6632 -2.1527
  106MOL0     H14599   6.499   5.075   9.018 -1.4090 -2.4535 -1.4775
  106MOL0     H14600   6.456   5.085   8.711  0.4749 -1.4706  0.6107
  106MOL0     H14601   6.443   4.948   8.824 -0.5973  0.2489 -2.2240
  106MOL0     H14602   6.281   5.059   8.942  1.0363 -1.5278 -0.5069
  106MOL0     H14603   6.217   5.034   8.789 -0.8468  1.6877  0.2475
  106MOL0     H14604   6.261   5.266   8.721 -1.7827  0.0746 -0.2420
  106MOL0     H14605   6.293   5.301   8.894  0.5488 -1.6774  0.5352
  106MOL0     H14606   6.030   5.220   8.756 -3.7231  1.2966  1.6914
  106MOL0     H14607   6.077   5.360   8.860 -0.9358 -0.2220  0.9314
  106MOL0     H14608   6.915   4.986   9.303  1.7565 -1.9702  2.7294
  106MOL0     H14609   6.957   4.941   9.538  2.0317 -1.0607 -3.1091
  106MOL0     H14610   6.857   5.247   9.968 -4.0798  1.1399 -0.2226
  106MOL0     H14611   6.868   5.217  10.229 -3.1235  0.0338  2.1714
  106MOL0     H14612   7.002   5.484  10.223 -2.0907  3.4399  0.4426
  106MOL0     H14613   6.828   5.500  10.030 -1.9918  3.8228 -0.6086
  106MOL0     H14614   6.705   5.510   9.704  1.4924 -1.3983 -0.1625
  106MOL0     H14615   6.551   5.444   9.521  1.0332 -0.5670  5.9095
  106MOL0     H14616   6.624   5.619   9.129  1.2296  0.7968  5.5078
  106MOL0     H14617   6.470   5.533   9.104 -1.9050  1.2793 -0.4822
  106MOL0     H14618   6.446   5.772   9.045 -2.7631 -0.2002 -0.1475
  106MOL0     H14619   6.511   5.804   9.216  0.4101 -4.3958  2.6010
  106MOL0     H14620   6.304   5.670   9.289 -1.5620  1.2850  1.7518
  106MOL0     H14621   6.266   5.837   9.229 -2.0553 -1.2996  0.8946
  106MOL0     H14622   6.236   5.718   9.004 -1.8460 -1.3916 -0.7833
  106MOL0     H14623   6.103   5.724   9.126 -1.1065  0.7799 -2.5576
  106MOL0     H14624   6.211   5.310   9.131  1.7372  1.1314  2.1366
  106MOL0     H14625   6.727   5.732   9.256 -2.7184  2.2504  1.0219
  106MOL0     H14626   6.961   5.875   9.480  0.5007 -1.1001  1.2839
  106MOL0     H14627   7.042   5.740   9.405 -0.0730  2.0794 -0.5004
  106MOL0     H14628   6.938   5.833   9.301 -2.0454 -2.9596 -0.7368
  107MOL0     O14629   7.709   1.499   5.324 -0.4191  0.0567  0.0174
  107MOL0     C14630   7.706   1.417   5.420  0.8768 -0.2846  0.5270
  107MOL0     O14631   7.802   1.402   5.520 -0.5307 -0.5943 -0.1089
  107MOL0     C14632   7.891   1.499   5.561 -0.1574 -0.7805  1.0119
  107MOL0     C14633   7.953   1.483   5.685  0.0604  1.0642  0.1787
  107MOL0     C14634   8.027   1.589   5.742  0.2267 -0.3817  0.9812
  107MOL0     C14635   8.047   1.702   5.665 -0.3992 -0.0387 -1.0983
  107MOL0     O14636   8.111   1.804   5.721  0.0871 -0.1357  0.5183
  107MOL0     C14637   8.039   1.918   5.772 -0.0541 -0.2326 -0.1102
  107MOL0     C14638   8.099   1.966   5.903 -0.5375 -0.7761  0.1861
  107MOL0     C14639   8.048   1.890   6.025  0.2830 -0.8788  0.1690
  107MOL0     C14640   8.087   1.955   6.161 -0.8661 -0.4270 -1.4058
  107MOL0     C14641   7.976   1.937   6.270  0.6013 -0.6104 -0.0431
  107MOL0     C14642   7.992   2.039   6.387 -0.1109 -0.2046 -0.7063
  107MOL0     C14643   8.061   1.982   6.505 -0.1046  0.5408 -0.7739
  107MOL0     C14644   8.081   2.064   6.632  0.3920 -0.6264 -0.3945
  107MOL0     N14645   8.037   1.990   6.750  0.7099 -0.4367  0.2311
  107MOL0     C14646   7.906   1.942   6.778 -0.2278  0.1277 -0.2728
  107MOL0     C14647   7.915   1.857   6.879  0.0592 -0.0520 -0.1398
  107MOL0     C14648   7.798   1.775   6.937 -0.0015  0.4182  0.0555
  107MOL0     C14649   7.685   1.864   6.976  0.6474  0.4663 -0.4090
  107MOL0     C14650   7.579   1.791   7.070  0.2118  0.2118  0.7291
  107MOL0     C14651   7.451   1.875   7.080 -0.5506 -0.0415 -0.2596
  107MOL0     O14652   7.378   1.889   6.954  0.1507 -0.7989 -0.4929
  107MOL0     C14653   7.303   2.000   6.919 -0.0774 -0.1997 -0.4741
  107MOL0     C14654   7.285   2.124   6.976 -1.0179  0.5390 -0.1958
  107MOL0     C14655   7.194   2.217   6.921  0.0767  0.1548  0.4306
  107MOL0     C14656   7.170   2.345   6.996 -0.3254  0.0304 -0.6296
  107MOL0     C14657   7.131   2.191   6.797  0.4258 -0.3018 -0.7713
  107MOL0     C14658   7.044   2.288   6.732  0.0752 -0.1139  0.2900
  107MOL0     O14659   7.052   2.294   6.598  1.2330 -0.3878  0.6835
  107MOL0     C14660   6.990   2.398   6.531 -0.4235  0.0865 -0.2496
  107MOL0     C14661   6.982   2.527   6.583 -0.5121  0.0482 -0.1205
  107MOL0     C14662   6.918   2.628   6.514 -0.7108 -0.4644 -0.5226
  107MOL0     C14663   6.858   2.603   6.393  0.9531  0.1582  0.0671
  107MOL0     O14664   6.780   2.697   6.326  0.1242  0.0729 -0.2381
  107MOL0     C14665   6.765   2.829   6.379  0.3677 -0.5478 -0.3103
  107MOL0     C14666   6.659   2.895   6.290  0.4104  0.4032  0.4964
  107MOL0     C14667   6.521   2.854   6.333  1.0000  0.9582  0.9783
  107MOL0     C14668   6.494   2.710   6.290 -0.4005 -0.5588  0.8270
  107MOL0     C14669   6.343   2.695   6.298 -0.0038  0.4885 -0.4249
  107MOL0     C14670   6.313   2.553   6.271  0.5832 -0.4522 -0.5600
  107MOL0     C14671   6.160   2.523   6.275 -1.1217 -0.3638  0.7383
  107MOL0     C14672   6.072   2.595   6.188  0.0101 -0.2712 -0.7542
  107MOL0    Cl14673   5.895   2.536   6.191  0.2986  0.2934  0.6128
  107MOL0     C14674   6.873   2.474   6.337  0.5569  0.3330 -0.0022
  107MOL0     C14675   6.946   2.376   6.404  0.5331  0.3778  1.2408
  107MOL0     O14676   6.958   2.331   6.807  0.1025 -0.0013  0.7071
  107MOL0     C14677   7.146   2.066   6.750  0.6494  0.6418  0.0487
  107MOL0     C14678   7.237   1.983   6.801 -0.1106  0.3345 -0.6182
  107MOL0     N14679   8.046   1.842   6.910  0.5571 -0.1221 -0.2143
  107MOL0     N14680   8.118   1.919   6.836  0.9583  0.0565  0.2045
  107MOL0     C14681   7.999   1.709   5.534  0.2229 -0.1422 -0.0391
  107MOL0     C14682   7.933   1.606   5.479  0.0125 -0.1918  0.0181
  107MOL0     C14683   7.595   1.318   5.428 -0.7213  1.1716  0.0312
  107MOL0     C14684   7.550   1.259   5.554  0.5102  0.6688 -0.5312
  107MOL0     C14685   7.431   1.184   5.558 -0.4976 -0.4313  0.2577
  107MOL0     C14686   7.360   1.147   5.441 -0.8879  0.2733  0.7329
  107MOL0     O14687   7.247   1.069   5.439  0.5359 -0.5578  0.0992
  107MOL0     C14688   7.128   1.141   5.474 -0.2683  0.1873 -0.1267
  107MOL0     C14689   7.017   1.051   5.409 -0.2234  0.3900  1.2548
  107MOL0     C14690   6.873   1.080   5.447 -0.4991 -0.3564 -0.5649
  107MOL0     C14691   6.809   1.143   5.328 -0.9872 -0.2260  0.1538
  107MOL0     C14692   6.835   1.290   5.311 -0.4572  0.5362 -0.3772
  107MOL0     C14693   6.867   1.408   5.307  0.3544  0.6711  0.7179
  107MOL0     C14694   7.413   1.182   5.314 -0.2681  0.3882 -0.3926
  107MOL0     C14695   7.539   1.259   5.310 -0.0517 -1.1567 -0.5111
  107MOL0     C14696   7.599   1.273   5.173 -0.3084 -0.0573 -0.0926
  107MOL0     H14697   7.925   1.394   5.740 -0.9219  0.7437 -0.8095
  107MOL0     H14698   8.040   1.590   5.849  2.7819 -1.1100  0.7621
  107MOL0     H14699   7.934   1.895   5.790 -1.4016  2.9154 -2.9040
  107MOL0     H14700   8.048   2.012   5.716 -2.5405  0.5278  0.6438
  107MOL0     H14701   8.208   1.954   5.898  0.0148  2.3119  2.2752
  107MOL0     H14702   8.082   2.073   5.913  0.6602 -0.6589  1.3115
  107MOL0     H14703   7.939   1.885   6.028  0.0753  1.1691 -1.4629
  107MOL0     H14704   8.073   1.784   6.014  1.7956 -0.5190 -0.1222
  107MOL0     H14705   8.179   1.919   6.207 -1.0715  2.3659  1.5513
  107MOL0     H14706   8.100   2.062   6.144 -1.4636 -0.1886 -0.4514
  107MOL0     H14707   7.957   1.836   6.306 -0.5568 -1.3376 -2.4610
  107MOL0     H14708   7.897   1.976   6.206  2.4701  2.0311 -0.9369
  107MOL0     H14709   8.033   2.138   6.366 -0.7421  0.7233  2.0738
  107MOL0     H14710   7.887   2.059   6.409 -0.3829 -0.9758 -1.2697
  107MOL0     H14711   8.157   1.939   6.473 -0.5177 -1.5668  0.5590
  107MOL0     H14712   8.010   1.894   6.547 -3.2465  3.6808  2.8728
  107MOL0     H14713   8.181   2.104   6.650  0.1805 -1.3602  3.1831
  107MOL0     H14714   8.009   2.146   6.622  0.6913 -0.1438  1.1411
  107MOL0     H14715   7.815   1.964   6.725 -0.8863  0.3864  0.9239
  107MOL0     H14716   7.830   1.708   7.018 -1.6672  1.4820  1.6588
  107MOL0     H14717   7.770   1.710   6.854  1.1658  3.4548 -2.9536
  107MOL0     H14718   7.718   1.947   7.039  0.1393 -1.1250  2.0853
  107MOL0     H14719   7.656   1.906   6.879  1.0488 -0.2653 -0.8502
  107MOL0     H14720   7.539   1.699   7.027  1.8260  1.3367 -3.7528
  107MOL0     H14721   7.618   1.781   7.172  2.0300  0.6082  0.1169
  107MOL0     H14722   7.406   1.817   7.162  1.5789 -1.2807  0.0847
  107MOL0     H14723   7.481   1.974   7.116  0.0466 -0.0589 -0.7065
  107MOL0     H14724   7.345   2.136   7.066  4.7147  4.6386 -3.9012
  107MOL0     H14725   7.270   2.358   7.039 -1.3133 -1.7957  2.5667
  107MOL0     H14726   7.096   2.339   7.076  1.4055  1.9578  1.2501
  107MOL0     H14727   7.145   2.430   6.932 -0.5502  2.7685  2.8091
  107MOL0     H14728   7.014   2.543   6.685 -0.9135  2.1654 -0.2670
  107MOL0     H14729   6.922   2.717   6.576  2.2119 -0.8859  0.0494
  107MOL0     H14730   6.745   2.820   6.487  0.8245  0.8801 -0.0835
  107MOL0     H14731   6.858   2.886   6.367 -0.5966  1.6863  1.8079
  107MOL0     H14732   6.670   3.004   6.289 -2.1149  0.7628  2.4079
  107MOL0     H14733   6.679   2.866   6.186 -1.7945  3.6461 -1.0164
  107MOL0     H14734   6.439   2.916   6.294 -1.4996 -0.7996  3.0574
  107MOL0     H14735   6.511   2.862   6.441  0.0724  2.8146  0.8046
  107MOL0     H14736   6.547   2.655   6.367  0.1374  0.1191  0.9504
  107MOL0     H14737   6.528   2.699   6.187  0.5333  3.0532  0.6115
  107MOL0     H14738   6.306   2.731   6.395  2.0935  4.7296 -0.9922
  107MOL0     H14739   6.288   2.758   6.227  4.0176  1.0984 -3.3191
  107MOL0     H14740   6.351   2.478   6.341 -0.5440 -1.5972 -1.1161
  107MOL0     H14741   6.343   2.520   6.172  0.8930 -1.9620  0.0118
  107MOL0     H14742   6.130   2.533   6.379  3.0083  1.0204  2.0013
  107MOL0     H14743   6.142   2.422   6.239 -0.6885 -0.7397  1.5518
  107MOL0     H14744   6.107   2.593   6.084  0.5821  2.0500 -0.6500
  107MOL0     H14745   6.073   2.699   6.222  0.5613 -0.6521  0.4409
  107MOL0     H14746   6.818   2.452   6.246  1.1716  0.4304 -0.4016
  107MOL0     H14747   6.979   2.287   6.350  1.8442 -0.1459  2.8273
  107MOL0     H14748   7.091   2.028   6.664  0.5182 -0.6941  0.6938
  107MOL0     H14749   7.233   1.880   6.766 -1.9868 -1.2745  3.6002
  107MOL0     H14750   8.026   1.797   5.476  2.1015 -0.2328  0.6490
  107MOL0     H14751   7.906   1.619   5.375  0.9719  1.9899 -0.0157
  107MOL0     H14752   7.604   1.277   5.646  1.3429 -1.1617 -0.6193
  107MOL0     H14753   7.399   1.161   5.660  0.8069 -1.5862  0.4400
  107MOL0     H14754   7.137   1.153   5.583 -1.2991 -1.7462  0.2202
  107MOL0     H14755   7.133   1.236   5.421 -2.3807  2.1308  2.8358
  107MOL0     H14756   7.030   0.945   5.434  0.4233 -0.1151 -1.0477
  107MOL0     H14757   7.041   1.057   5.303 -1.4643  0.3059  0.9516
  107MOL0     H14758   6.813   0.991   5.467  2.7112 -2.6993 -0.4992
  107MOL0     H14759   6.876   1.148   5.532  0.6919  0.2043 -1.0250
  107MOL0     H14760   6.702   1.131   5.347 -0.4812 -3.2392  1.8131
  107MOL0     H14761   6.833   1.081   5.241 -0.1815  0.1582  0.0873
  107MOL0     H14762   6.889   1.511   5.289 -3.5580  1.1368 -3.4647
  107MOL0     H14763   7.368   1.156   5.218 -2.2004  2.5117 -0.1612
  107MOL0     H14764   7.585   1.377   5.141  3.3777  0.7995  0.6404
  107MOL0     H14765   7.707   1.259   5.179 -0.4594 -1.8920 -1.1129
  107MOL0     H14766   7.556   1.198   5.106 -3.7313 -1.5761  3.3733
  108MOL0     O14767   4.288  11.608   4.990 -0.6165  0.3528  0.6135
  108MOL0     C14768   4.280  11.723   5.037  1.2013  0.0693  0.4004
  108MOL0     O14769   4.377  11.826   5.026  0.0091 -0.0283 -0.2738
  108MOL0     C14770   4.504  11.804   4.991 -1.1100  0.0976  0.4005
  108MOL0     C14771   4.558  11.880   4.889  0.1974 -0.9821 -0.3502
  108MOL0     C14772   4.676  11.859   4.839 -0.0274 -0.7636 -0.2792
  108MOL0     C14773   4.758  11.773   4.899  0.3009 -0.0043 -0.1717
  108MOL0     O14774   4.890  11.754   4.866 -0.0802 -0.3606 -0.0391
  108MOL0     C14775   4.937  11.811   4.739  0.1530 -0.4421  0.0029
  108MOL0     C14776   5.089  11.800   4.719 -0.9592  1.2187 -0.2923
  108MOL0     C14777   5.113  11.658   4.667 -0.0259  0.2993  0.9905
  108MOL0     C14778   5.150  11.552   4.768 -0.4916  0.1191 -1.2932
  108MOL0     C14779   5.193  11.420   4.690  0.3854  0.1602 -0.3848
  108MOL0     C14780   5.269  11.318   4.781  0.1449  0.7666  0.0430
  108MOL0     C14781   5.281  11.178   4.732 -0.4199 -0.3657  0.3767
  108MOL0     C14782   5.145  11.101   4.728  0.7178  0.1580  0.3397
  108MOL0     N14783   5.168  10.965   4.675 -0.6731 -0.1528  0.4866
  108MOL0     C14784   5.079  10.898   4.596 -0.3134  0.3803  0.1631
  108MOL0     C14785   5.143  10.788   4.559  0.3850 -0.1685  0.6890
  108MOL0     C14786   5.101  10.663   4.479 -1.0598 -0.0382 -0.7790
  108MOL0     C14787   5.126  10.693   4.336  0.3485  0.9254  0.3607
  108MOL0     C14788   5.105  10.575   4.243  0.1722  0.6197  0.1997
  108MOL0     C14789   4.978  10.493   4.287 -0.4060  0.1364 -0.4472
  108MOL0     O14790   4.918  10.404   4.189 -0.2756 -0.0826  0.3612
  108MOL0     C14791   4.957  10.273   4.178 -0.5733 -0.1159 -0.2065
  108MOL0     C14792   4.873  10.191   4.102  0.3635 -0.7147  0.8887
  108MOL0     C14793   4.909  10.061   4.051  0.3603 -0.6791 -0.7527
  108MOL0     C14794   4.822   9.986   3.960  0.3812 -0.5764  0.1403
  108MOL0     C14795   5.042  10.024   4.086 -0.6618  1.1208 -0.0310
  108MOL0     C14796   5.130   9.929   4.010 -1.1157  1.0194 -0.0505
  108MOL0     O14797   5.261   9.960   4.007  0.2580  0.7528 -0.1466
  108MOL0     C14798   5.330   9.923   3.902  0.5873 -0.6154  0.1125
  108MOL0     C14799   5.356   9.797   3.854  0.1463  0.3029  0.5530
  108MOL0     C14800   5.402   9.765   3.724  0.9618  0.2361 -0.6661
  108MOL0     C14801   5.445   9.876   3.641 -0.0630 -0.4164  0.9671
  108MOL0     O14802   5.512   9.863   3.520 -0.2954 -0.1387 -0.0688
  108MOL0     C14803   5.610   9.751   3.512 -0.7177 -0.4116  0.1710
  108MOL0     C14804   5.624   9.708   3.373  0.1398  0.0169 -0.7442
  108MOL0     C14805   5.490   9.663   3.303 -0.2467  0.0324  0.0774
  108MOL0     C14806   5.445   9.521   3.361  0.1361 -1.0042 -0.1955
  108MOL0     C14807   5.343   9.448   3.274 -0.1589 -0.2861  0.5965
  108MOL0     C14808   5.223   9.553   3.257 -0.2140 -0.6623 -0.9430
  108MOL0     C14809   5.117   9.505   3.155 -0.1103 -0.0591  0.2630
  108MOL0     C14810   4.993   9.599   3.149 -0.2607 -0.1520 -0.3148
  108MOL0    Cl14811   4.870   9.524   3.266  0.8266 -0.5143 -0.2317
  108MOL0     C14812   5.425  10.005   3.689 -0.5516  0.2614 -0.5300
  108MOL0     C14813   5.375  10.026   3.817 -0.9382 -0.1168 -0.1730
  108MOL0     O14814   5.082   9.828   3.964  0.1784 -0.2383 -0.0088
  108MOL0     C14815   5.123  10.105   4.167  0.1150  0.9531 -0.4293
  108MOL0     C14816   5.086  10.227   4.210 -0.1309  0.5676 -0.4902
  108MOL0     N14817   5.270  10.791   4.623  0.9754 -0.3233  0.0336
  108MOL0     N14818   5.281  10.901   4.692  0.2544  0.9424  0.8444
  108MOL0     C14819   4.705  11.690   5.001  0.4530  1.1034  0.8425
  108MOL0     C14820   4.573  11.695   5.044  0.3735 -0.0338  0.4139
  108MOL0     C14821   4.148  11.762   5.075  0.2518  0.4039 -1.0042
  108MOL0     C14822   4.112  11.900   5.066 -0.1913  1.0517 -0.8623
  108MOL0     C14823   3.995  11.951   5.116 -0.4215  0.4348 -0.9958
  108MOL0     C14824   3.902  11.874   5.175 -0.1939 -0.0168  0.1880
  108MOL0     O14825   3.786  11.945   5.196  0.0406 -0.0236  0.0040
  108MOL0     C14826   3.685  11.877   5.275  0.4004  0.3834  0.4336
  108MOL0     C14827   3.587  11.777   5.206  0.3974 -0.3486  0.6009
  108MOL0     C14828   3.555  11.819   5.067 -0.3741  0.8963 -0.2776
  108MOL0     C14829   3.465  11.714   5.001 -0.2458  0.2257 -0.1295
  108MOL0     C14830   3.322  11.711   5.054 -0.6964  0.3730 -0.2937
  108MOL0     C14831   3.225  11.681   5.110 -0.3223 -0.1312 -0.7525
  108MOL0     C14832   3.936  11.740   5.199 -0.5640 -0.2130  0.7373
  108MOL0     C14833   4.057  11.682   5.154  0.4620 -0.3500  0.1351
  108MOL0     C14834   4.097  11.545   5.221 -0.1635 -0.5436  0.7133
  108MOL0     H14835   4.501  11.968   4.862  2.2479  0.5108 -0.0844
  108MOL0     H14836   4.703  11.916   4.751 -0.6209  0.7250  0.4568
  108MOL0     H14837   4.924  11.920   4.745  1.6623 -0.2161 -0.5405
  108MOL0     H14838   4.867  11.777   4.662 -2.5448  1.4936  1.4129
  108MOL0     H14839   5.128  11.876   4.651  3.0126 -0.4369 -0.1040
  108MOL0     H14840   5.142  11.816   4.813  0.7076 -3.7963 -0.0822
  108MOL0     H14841   5.020  11.618   4.625  0.6144 -1.9277  1.5141
  108MOL0     H14842   5.183  11.657   4.583  1.2943 -0.0940  2.0469
  108MOL0     H14843   5.236  11.599   4.817  2.2859 -3.6470 -2.1794
  108MOL0     H14844   5.078  11.529   4.847  1.3293  0.2814  0.4972
  108MOL0     H14845   5.258  11.450   4.607  1.0667  0.6698  0.3191
  108MOL0     H14846   5.096  11.380   4.658 -0.7778  1.5985  1.1621
  108MOL0     H14847   5.369  11.353   4.807  0.6582 -2.2329  2.7981
  108MOL0     H14848   5.218  11.311   4.877  0.0447 -0.9033 -0.0927
  108MOL0     H14849   5.357  11.121   4.787  3.1488  2.9550 -0.6007
  108MOL0     H14850   5.329  11.182   4.633 -0.0367  1.9286  0.6026
  108MOL0     H14851   5.116  11.105   4.833 -0.0976  1.1163  0.0831
  108MOL0     H14852   5.075  11.155   4.664 -0.1223 -1.3855 -0.1017
  108MOL0     H14853   4.980  10.941   4.586 -0.2953  1.4254  3.3693
  108MOL0     H14854   5.001  10.628   4.509 -0.1363 -1.4695  0.8104
  108MOL0     H14855   5.170  10.582   4.507  0.0867  1.4992  1.0156
  108MOL0     H14856   5.068  10.777   4.297  2.8009  1.9155 -1.4243
  108MOL0     H14857   5.230  10.723   4.324 -0.1559  2.7039  0.0628
  108MOL0     H14858   5.093  10.621   4.144 -2.0656  2.6860  1.3009
  108MOL0     H14859   5.193  10.512   4.233 -0.5007 -0.3145 -0.0208
  108MOL0     H14860   5.008  10.434   4.374  1.5753 -0.4415 -1.4651
  108MOL0     H14861   4.896  10.558   4.320 -1.1478 -0.2312 -1.4992
  108MOL0     H14862   4.776  10.224   4.066  2.0378  1.0936 -2.4578
  108MOL0     H14863   4.821   9.877   3.970 -0.0817 -0.6200 -0.3788
  108MOL0     H14864   4.852  10.013   3.859  2.2094 -2.4013  0.1344
  108MOL0     H14865   4.722  10.027   3.973  2.1974  4.0981  1.4108
  108MOL0     H14866   5.332   9.712   3.918 -0.4085  1.5061  1.9889
  108MOL0     H14867   5.406   9.661   3.695  0.4126 -0.1069  0.4508
  108MOL0     H14868   5.706   9.796   3.539  1.8304 -4.2743 -1.5615
  108MOL0     H14869   5.594   9.678   3.591  2.4159  0.0090  1.3480
  108MOL0     H14870   5.668   9.786   3.311  1.3745 -0.9631 -1.1390
  108MOL0     H14871   5.695   9.625   3.381  1.1096  0.9669  1.3006
  108MOL0     H14872   5.502   9.678   3.196 -2.1111 -0.9765 -0.3215
  108MOL0     H14873   5.403   9.724   3.328 -1.5217 -0.4049 -2.9712
  108MOL0     H14874   5.410   9.534   3.464  1.2396  2.5285 -0.1169
  108MOL0     H14875   5.528   9.451   3.365  0.9665 -0.1758 -1.7820
  108MOL0     H14876   5.389   9.423   3.178 -0.7508  0.9066 -0.0244
  108MOL0     H14877   5.332   9.349   3.319  3.3289  0.4165  3.4400
  108MOL0     H14878   5.243   9.657   3.228  0.6353 -0.2799  0.8184
  108MOL0     H14879   5.178   9.571   3.355  1.1943  1.7748 -0.6544
  108MOL0     H14880   5.084   9.401   3.163 -1.5498  0.4086  0.5717
  108MOL0     H14881   5.167   9.516   3.058  1.1599  0.4034  0.9499
  108MOL0     H14882   4.957   9.596   3.046  1.1658 -0.7980 -0.8095
  108MOL0     H14883   5.007   9.706   3.167 -0.8590 -0.2298  0.7643
  108MOL0     H14884   5.448  10.089   3.625 -1.9841 -0.7235 -2.4428
  108MOL0     H14885   5.369  10.129   3.850  0.6548  0.4274 -1.4505
  108MOL0     H14886   5.219  10.074   4.205  0.6764  1.5331 -1.3590
  108MOL0     H14887   5.153  10.283   4.275 -0.3387  0.0073  0.2253
  108MOL0     H14888   4.773  11.624   5.055  0.0555  1.1798  1.4425
  108MOL0     H14889   4.519  11.637   5.118  2.4461  0.6939  2.6592
  108MOL0     H14890   4.175  11.962   5.003  3.1073 -1.9341 -0.8415
  108MOL0     H14891   3.959  12.050   5.090  1.8844  1.6537  0.1686
  108MOL0     H14892   3.742  11.819   5.348  0.9889 -1.9176 -1.7188
  108MOL0     H14893   3.629  11.945   5.339 -0.6057 -0.9113  0.9859
  108MOL0     H14894   3.499  11.768   5.271 -1.4283 -0.7415 -1.7977
  108MOL0     H14895   3.642  11.683   5.201  0.8755 -0.0132 -0.8090
  108MOL0     H14896   3.489  11.905   5.062 -1.1983  0.5226  2.4602
  108MOL0     H14897   3.639  11.839   5.001 -1.7108  2.8735 -1.4814
  108MOL0     H14898   3.506  11.615   4.979  0.1595  0.3553  0.0394
  108MOL0     H14899   3.464  11.737   4.894  1.1380 -2.9124 -0.9248
  108MOL0     H14900   3.130  11.654   5.152 -1.2716  2.1879 -1.2246
  108MOL0     H14901   3.876  11.666   5.251 -2.4447  2.5018  2.7453
  108MOL0     H14902   4.104  11.467   5.144 -2.0376 -2.4131  2.3216
  108MOL0     H14903   4.197  11.570   5.259  1.1469  0.4776 -2.9908
  108MOL0     H14904   4.017  11.512   5.288 -3.4045  2.3570 -1.3604
  109MOL0     O14905   8.067   7.755  10.960  0.9511 -0.9941  0.2559
  109MOL0     C14906   8.082   7.867  10.914  0.0132 -0.1581  0.3749
  109MOL0     O14907   8.007   7.928  10.816 -0.0679  0.3298 -0.2852
  109MOL0     C14908   7.911   7.855  10.743  0.6476 -0.2169  0.2430
  109MOL0     C14909   7.804   7.787  10.793 -0.6626  0.2532 -0.6759
  109MOL0     C14910   7.713   7.715  10.715  0.6368  0.1882 -0.3171
  109MOL0     C14911   7.708   7.729  10.579 -0.5670  0.1613 -0.7482
  109MOL0     O14912   7.603   7.678  10.505 -0.0937  0.4309 -0.4123
  109MOL0     C14913   7.606   7.700  10.363 -0.2681  0.8611 -0.2471
  109MOL0     C14914   7.552   7.575  10.283 -0.3686  0.3300  0.1549
  109MOL0     C14915   7.613   7.434  10.321  0.7930 -0.8941  0.4520
  109MOL0     C14916   7.765   7.430  10.353  0.8380 -0.3457 -0.2159
  109MOL0     C14917   7.815   7.290  10.342 -0.7521 -0.4275 -0.0440
  109MOL0     C14918   7.974   7.284  10.360  0.7234 -0.1671 -0.3272
  109MOL0     C14919   8.047   7.330  10.229 -0.3289 -0.2025 -0.3117
  109MOL0     C14920   8.199   7.309  10.230  0.4246  0.2126 -1.0885
  109MOL0     N14921   8.272   7.434  10.273  0.0423  0.0337  0.0189
  109MOL0     C14922   8.268   7.497  10.396 -0.9542  1.5123  0.7858
  109MOL0     C14923   8.355   7.598  10.369  0.7450 -0.6217 -1.0862
  109MOL0     C14924   8.377   7.719  10.463 -0.3212  0.6851  0.3582
  109MOL0     C14925   8.301   7.839  10.414  1.4024  0.1272 -0.8466
  109MOL0     C14926   8.304   7.959  10.519  0.8431 -0.0585  0.7814
  109MOL0     C14927   8.261   8.083  10.455  0.5181  0.2138 -0.1079
  109MOL0     O14928   8.143   8.071  10.381  0.3968 -0.2390  0.2037
  109MOL0     C14929   8.095   8.180  10.309 -0.2633  1.0514 -0.3680
  109MOL0     C14930   8.137   8.317  10.323 -0.0939 -0.2130 -0.0762
  109MOL0     C14931   8.051   8.420  10.284 -0.6462 -1.2458 -0.7627
  109MOL0     C14932   8.092   8.561  10.332  0.4336  1.2084 -0.0244
  109MOL0     C14933   7.927   8.394  10.222 -0.8215  0.0663 -0.1570
  109MOL0     C14934   7.832   8.491  10.178 -0.2979 -1.0108  0.4185
  109MOL0     O14935   7.715   8.442  10.124  0.8940 -0.3316  0.6208
  109MOL0     C14936   7.608   8.518  10.118 -0.1779 -0.4249 -0.2740
  109MOL0     C14937   7.578   8.579   9.997  0.2846  0.0690 -0.9057
  109MOL0     C14938   7.472   8.668   9.987  0.5850  0.5681  0.2794
  109MOL0     C14939   7.386   8.685  10.097 -0.8814  0.3444  0.3718
  109MOL0     O14940   7.272   8.753  10.071 -1.0107  0.0339  0.2826
  109MOL0     C14941   7.273   8.893  10.106  0.1934  0.1256  0.8463
  109MOL0     C14942   7.125   8.934  10.135 -0.3599 -0.1127  0.6706
  109MOL0     C14943   7.062   8.892  10.271  0.0449  0.2987 -0.2809
  109MOL0     C14944   6.920   8.954  10.279 -0.4861  0.5985 -0.1937
  109MOL0     C14945   6.816   8.877  10.203  0.8192 -0.3952  0.0537
  109MOL0     C14946   6.671   8.923  10.235 -0.2911 -0.5094  1.3381
  109MOL0     C14947   6.567   8.820  10.185  0.5963 -0.2533  0.0714
  109MOL0     C14948   6.497   8.858  10.046  0.0366 -0.1209 -1.4459
  109MOL0    Cl14949   6.385   8.995  10.108 -0.1209  0.7646  0.3504
  109MOL0     C14950   7.412   8.631  10.223 -0.7444  0.4615  0.5494
  109MOL0     C14951   7.530   8.545  10.231  1.0331 -0.1290 -1.1438
  109MOL0     O14952   7.840   8.604  10.233  0.3866 -0.9358 -0.5832
  109MOL0     C14953   7.890   8.263  10.213  0.2933  0.0448 -0.0656
  109MOL0     C14954   7.964   8.157  10.252 -1.4338  0.6420 -1.3799
  109MOL0     N14955   8.400   7.598  10.247 -0.7619 -0.5185  0.5281
  109MOL0     N14956   8.350   7.497  10.180 -0.2649 -0.1218  0.1780
  109MOL0     C14957   7.812   7.811  10.526 -0.2803  0.0967 -0.7094
  109MOL0     C14958   7.911   7.869  10.603 -0.2061  0.5490  0.9749
  109MOL0     C14959   8.189   7.954  10.960 -0.7312  0.0416 -1.0333
  109MOL0     C14960   8.243   8.053  10.883 -0.5248 -0.0690  0.1648
  109MOL0     C14961   8.347   8.129  10.927  0.7475 -1.3921  0.6173
  109MOL0     C14962   8.403   8.118  11.047 -0.4411  0.0827 -0.8510
  109MOL0     O14963   8.499   8.200  11.095  0.0371 -0.0924  0.0990
  109MOL0     C14964   8.556   8.309  11.024  0.7895  0.4999 -0.5782
  109MOL0     C14965   8.705   8.334  11.085 -0.2961 -0.6865 -0.2893
  109MOL0     C14966   8.791   8.208  11.072  0.0289 -0.0966 -0.3248
  109MOL0     C14967   8.935   8.256  11.086  0.2971  0.4850 -0.7513
  109MOL0     C14968   8.959   8.338  11.204 -0.0168 -0.3245  0.0100
  109MOL0     C14969   8.968   8.403  11.304  0.5305  0.6576  0.3902
  109MOL0     C14970   8.351   8.020  11.134 -1.2217  0.9459  0.6432
  109MOL0     C14971   8.250   7.927  11.090 -0.0778 -0.2681 -0.8182
  109MOL0     C14972   8.196   7.841  11.211  0.2327 -0.5016 -0.1288
  109MOL0     H14973   7.799   7.780  10.902 -1.3576  0.2569 -0.7020
  109MOL0     H14974   7.637   7.651  10.757 -1.5893  1.8677 -1.5712
  109MOL0     H14975   7.712   7.711  10.338 -0.4892  2.1604 -0.6442
  109MOL0     H14976   7.562   7.797  10.339 -0.9282  1.1693  1.9648
  109MOL0     H14977   7.442   7.576  10.282 -0.3941  1.8855 -2.4800
  109MOL0     H14978   7.581   7.606  10.183  3.9089 -0.1467  1.0665
  109MOL0     H14979   7.555   7.402  10.409  1.4765  0.0147  1.2537
  109MOL0     H14980   7.597   7.368  10.235  1.7695 -1.5328  0.7455
  109MOL0     H14981   7.818   7.501  10.289 -0.3972 -1.4091 -2.5481
  109MOL0     H14982   7.768   7.463  10.457 -1.3546  1.1782 -0.5709
  109MOL0     H14983   7.777   7.245  10.250 -4.1248 -1.2714  1.5843
  109MOL0     H14984   7.771   7.226  10.420  1.0143 -1.5623  0.0830
  109MOL0     H14985   8.016   7.347  10.440  1.7985 -1.4409  0.1485
  109MOL0     H14986   7.998   7.181  10.388 -2.2235  0.0583  3.9487
  109MOL0     H14987   8.028   7.434  10.202  1.2356  0.1429 -0.1940
  109MOL0     H14988   7.997   7.270  10.153 -0.8113 -3.9453  2.6688
  109MOL0     H14989   8.215   7.230  10.304  0.8551 -0.5894 -2.0144
  109MOL0     H14990   8.224   7.267  10.132 -2.8251  0.4781 -2.1401
  109MOL0     H14991   8.207   7.459  10.476  0.0535 -0.6775  0.5853
  109MOL0     H14992   8.482   7.746  10.471 -0.9379  2.7971  3.3893
  109MOL0     H14993   8.358   7.696  10.569 -0.2121  1.4915  0.5639
  109MOL0     H14994   8.337   7.874  10.316  1.0121  2.3804 -0.2434
  109MOL0     H14995   8.196   7.811  10.400  1.3972  0.7052 -2.1171
  109MOL0     H14996   8.248   7.918  10.604  1.5373 -2.9619 -0.0462
  109MOL0     H14997   8.403   7.988  10.556  1.2242  0.0092 -0.2438
  109MOL0     H14998   8.244   8.161  10.530  2.0689 -0.2514  0.7882
  109MOL0     H14999   8.339   8.133  10.396 -1.0006  2.8021 -0.0899
  109MOL0     H15000   8.230   8.348  10.370 -1.3382  0.6760  1.9614
  109MOL0     H15001   8.190   8.553  10.380  0.9773  1.0371 -1.1345
  109MOL0     H15002   8.025   8.611  10.403  2.0188  1.5058  1.3230
  109MOL0     H15003   8.119   8.627  10.249  3.4324  1.6775  1.2143
  109MOL0     H15004   7.632   8.551   9.907 -1.7855 -0.4129 -2.0631
  109MOL0     H15005   7.448   8.713   9.891  1.1904 -1.0515 -0.6672
  109MOL0     H15006   7.341   8.921  10.187  1.9102 -3.0086  0.6224
  109MOL0     H15007   7.310   8.956  10.024 -2.6686  1.0648  0.1641
  109MOL0     H15008   7.148   9.041  10.140 -0.9677  0.0871 -0.4071
  109MOL0     H15009   7.055   8.911  10.054  0.3539 -1.6572  0.4666
  109MOL0     H15010   7.118   8.916  10.362 -0.8459  2.5558 -0.2682
  109MOL0     H15011   7.045   8.784  10.265  0.9523  0.0873  0.7071
  109MOL0     H15012   6.920   9.056  10.241 -1.2085  1.0687  0.9748
  109MOL0     H15013   6.890   8.961  10.384 -3.3689  2.8312 -1.0327
  109MOL0     H15014   6.843   8.903  10.100  2.0827  2.1680  0.9450
  109MOL0     H15015   6.833   8.772  10.230  0.8700 -0.3376  0.2437
  109MOL0     H15016   6.655   9.022  10.191 -1.8727  0.5216  3.9601
  109MOL0     H15017   6.656   8.940  10.342  2.9804  1.5404  1.6411
  109MOL0     H15018   6.484   8.815  10.255  0.5452  0.0830  0.0365
  109MOL0     H15019   6.616   8.722  10.182  0.1933 -0.4425 -0.7956
  109MOL0     H15020   6.445   8.773  10.001  0.6461 -0.0873 -2.2309
  109MOL0     H15021   6.569   8.886   9.968  2.1889 -1.7610 -0.1694
  109MOL0     H15022   7.339   8.640  10.302 -3.5890 -1.2947 -1.7066
  109MOL0     H15023   7.558   8.490  10.320  2.4632  0.6978 -1.0636
  109MOL0     H15024   7.792   8.240  10.174  0.8519 -1.3804 -0.7182
  109MOL0     H15025   7.935   8.054  10.238 -4.3467  1.3593 -1.1486
  109MOL0     H15026   7.808   7.844  10.423 -2.4755 -0.0488 -0.7165
  109MOL0     H15027   7.994   7.932  10.572  0.2180 -0.6710 -0.4496
  109MOL0     H15028   8.191   8.090  10.795 -0.1547  0.6580  0.2432
  109MOL0     H15029   8.398   8.201  10.864 -0.3827 -2.1129 -1.1722
  109MOL0     H15030   8.580   8.280  10.922 -0.8453 -1.1101 -0.5503
  109MOL0     H15031   8.494   8.399  11.021  1.0116  0.6631 -0.3972
  109MOL0     H15032   8.698   8.382  11.183 -1.2652  0.9879 -1.1262
  109MOL0     H15033   8.744   8.415  11.022  2.4822 -0.0721  2.0350
  109MOL0     H15034   8.759   8.138  11.150  1.2679  0.1450  0.4289
  109MOL0     H15035   8.778   8.164  10.973 -0.1130  1.6042 -1.0987
  109MOL0     H15036   8.968   8.302  10.993 -2.8457  1.3899 -1.5577
  109MOL0     H15037   8.995   8.164  11.091 -0.3043  0.0754 -0.8779
  109MOL0     H15038   8.965   8.469  11.388 -1.6147  1.4814 -0.2434
  109MOL0     H15039   8.412   8.016  11.224  2.8285 -1.0441 -1.8992
  109MOL0     H15040   8.211   7.733  11.203  1.2318 -0.4928  1.2404
  109MOL0     H15041   8.232   7.891  11.302 -1.0631  2.3576 -1.0686
  109MOL0     H15042   8.089   7.864  11.210  0.6199  1.6095 -2.2684
  110MOL0     O15043   6.975   6.179   0.575  0.1827  0.0852  0.4418
  110MOL0     C15044   6.963   6.256   0.669 -0.3516  0.2693 -0.1640
  110MOL0     O15045   6.850   6.318   0.707 -0.0448 -0.7756 -0.3697
  110MOL0     C15046   6.741   6.310   0.616 -0.1341 -0.4014 -0.7202
  110MOL0     C15047   6.704   6.435   0.556  0.6915  0.4459 -0.1594
  110MOL0     C15048   6.583   6.450   0.476 -0.9855  0.1975 -0.3386
  110MOL0     C15049   6.513   6.330   0.461 -0.7975  0.3192  0.3671
  110MOL0     O15050   6.389   6.345   0.396 -0.0764 -0.0827  0.0127
  110MOL0     C15051   6.350   6.238   0.298 -0.8099  0.3642  0.1789
  110MOL0     C15052   6.432   6.263   0.162 -1.3107  0.1338 -0.0179
  110MOL0     C15053   6.416   6.403   0.097 -0.1936 -0.3164 -0.2070
  110MOL0     C15054   6.487   6.395  -0.036 -0.1485  0.1750 -0.5812
  110MOL0     C15055   6.484   6.528  -0.117  0.4684  0.1800  0.1326
  110MOL0     C15056   6.341   6.572  -0.120  0.3733  0.0546  0.2755
  110MOL0     C15057   6.312   6.672  -0.232  0.9795  0.0916 -0.4159
  110MOL0     C15058   6.189   6.648  -0.321  1.0590 -0.7500 -0.0897
  110MOL0     N15059   6.125   6.758  -0.391  0.4921  0.3804 -0.0901
  110MOL0     C15060   6.167   6.796  -0.519  0.0899 -0.9927  0.5833
  110MOL0     C15061   6.072   6.889  -0.557  0.0855 -0.9528  0.8963
  110MOL0     C15062   6.064   6.981  -0.676  0.1018  0.6365  0.1837
  110MOL0     C15063   6.106   6.889  -0.797  0.2382 -0.0241 -0.1432
  110MOL0     C15064   6.111   6.970  -0.919 -0.2515  0.1674  0.8759
  110MOL0     C15065   5.975   7.020  -0.969  0.1056 -0.2757  0.7662
  110MOL0     O15066   5.933   7.142  -0.909 -0.4433  0.1332  0.5302
  110MOL0     C15067   5.813   7.195  -0.954  0.2171 -0.1548  0.1038
  110MOL0     C15068   5.755   7.290  -0.864  0.0462  0.3186  0.1391
  110MOL0     C15069   5.642   7.368  -0.893 -0.2408  0.6180  1.4258
  110MOL0     C15070   5.593   7.472  -0.804  0.4218  0.1693 -0.8592
  110MOL0     C15071   5.577   7.345  -1.021 -0.2261 -0.1545 -0.5352
  110MOL0     C15072   5.454   7.417  -1.071 -0.8297 -0.6935 -0.3136
  110MOL0     O15073   5.390   7.362  -1.175 -0.0343 -0.7794 -0.1116
  110MOL0     C15074   5.291   7.432  -1.237  0.5546  0.5100  0.2837
  110MOL0     C15075   5.201   7.516  -1.176 -0.4897  0.7591 -0.0890
  110MOL0     C15076   5.104   7.581  -1.252  0.0516  0.5744 -0.3811
  110MOL0     C15077   5.095   7.563  -1.395  0.2293 -0.3741 -1.5211
  110MOL0     O15078   5.018   7.645  -1.474  0.1610 -0.5129 -0.3139
  110MOL0     C15079   5.002   7.785  -1.446  0.7013  0.9418 -0.8066
  110MOL0     C15080   5.112   7.880  -1.484  0.0175 -0.0632 -0.2723
  110MOL0     C15081   5.166   7.844  -1.622  0.3417 -0.4996 -0.0740
  110MOL0     C15082   5.274   7.942  -1.681 -0.3796  0.5561 -0.0526
  110MOL0     C15083   5.361   7.891  -1.793 -0.4556  0.5336  0.1447
  110MOL0     C15084   5.511   7.905  -1.772  0.3637  0.9428  0.7128
  110MOL0     C15085   5.576   7.834  -1.892 -0.8569  0.7156 -0.0901
  110MOL0     C15086   5.707   7.745  -1.879  0.8423 -1.0015 -0.6737
  110MOL0    Cl15087   5.727   7.633  -2.014  0.1408 -0.2049  0.1779
  110MOL0     C15088   5.182   7.472  -1.454 -0.8898  0.3965 -0.3197
  110MOL0     C15089   5.276   7.403  -1.371  0.5571 -0.2624  0.3887
  110MOL0     O15090   5.436   7.530  -1.036  0.1129  0.3584  0.5684
  110MOL0     C15091   5.633   7.238  -1.103 -1.2022  0.4173 -0.0703
  110MOL0     C15092   5.754   7.166  -1.077  1.0058 -0.1707  0.3275
  110MOL0     N15093   5.981   6.905  -0.451 -0.1320 -0.1324  0.8526
  110MOL0     N15094   6.012   6.824  -0.356 -0.6340  0.6088  0.1118
  110MOL0     C15095   6.548   6.205   0.528 -0.1158 -0.7870 -1.2961
  110MOL0     C15096   6.658   6.199   0.612 -0.3149  0.1490  0.4444
  110MOL0     C15097   7.068   6.270   0.766 -0.4436  0.9085 -0.1775
  110MOL0     C15098   7.050   6.332   0.892  0.6731 -0.3680 -0.3353
  110MOL0     C15099   7.152   6.367   0.968  0.8670 -0.0056 -0.0046
  110MOL0     C15100   7.274   6.313   0.948  0.4127  0.0922  0.6793
  110MOL0     O15101   7.374   6.355   1.033  0.0032  0.5455 -0.1594
  110MOL0     C15102   7.492   6.413   0.972 -1.0628 -0.9286  0.1226
  110MOL0     C15103   7.508   6.562   1.021  0.4380 -0.0300 -0.6779
  110MOL0     C15104   7.438   6.658   0.931 -0.3733 -0.7339 -0.0839
  110MOL0     C15105   7.518   6.693   0.794  0.3795  0.0528 -0.4674
  110MOL0     C15106   7.637   6.771   0.806  0.6038 -0.0133 -0.2886
  110MOL0     C15107   7.744   6.820   0.802 -0.5556 -1.1373 -0.0747
  110MOL0     C15108   7.301   6.247   0.835 -0.1856  0.5965 -1.3344
  110MOL0     C15109   7.199   6.227   0.743  0.0829 -0.0596 -0.0795
  110MOL0     C15110   7.257   6.184   0.612  0.3184 -0.3090 -0.1753
  110MOL0     H15111   6.759   6.523   0.589  1.2546 -0.9441  2.8699
  110MOL0     H15112   6.537   6.542   0.441 -0.6439  0.9034  1.0141
  110MOL0     H15113   6.243   6.241   0.276 -0.5218  0.2120 -1.3742
  110MOL0     H15114   6.356   6.136   0.336 -3.7845  0.5161  1.3420
  110MOL0     H15115   6.540   6.245   0.164 -0.7268  3.0349 -1.0683
  110MOL0     H15116   6.403   6.186   0.090 -0.9415 -0.1222  0.1049
  110MOL0     H15117   6.308   6.418   0.082 -0.3393 -1.7980 -0.8554
  110MOL0     H15118   6.447   6.477   0.171 -0.4563 -0.6227  0.2162
  110MOL0     H15119   6.592   6.368  -0.022  0.0530 -0.2478 -2.6940
  110MOL0     H15120   6.434   6.317  -0.091  2.2633 -0.6547 -1.8405
  110MOL0     H15121   6.519   6.516  -0.220  0.0532  1.7935 -0.2204
  110MOL0     H15122   6.543   6.603  -0.064 -0.5580 -1.0392  3.2712
  110MOL0     H15123   6.280   6.483  -0.138 -0.1899  0.1579  1.5379
  110MOL0     H15124   6.303   6.626  -0.033 -1.5911 -0.7135 -0.0496
  110MOL0     H15125   6.388   6.686  -0.310  0.5960  2.0588 -0.4805
  110MOL0     H15126   6.303   6.772  -0.189 -4.8040  1.1840 -3.1978
  110MOL0     H15127   6.188   6.554  -0.378 -0.9732 -0.9272  0.1315
  110MOL0     H15128   6.115   6.626  -0.243  0.2672  0.8791 -0.3415
  110MOL0     H15129   6.246   6.749  -0.575 -0.0359 -1.3706  0.7204
  110MOL0     H15130   6.120   7.075  -0.669  0.5745  0.3605  0.1180
  110MOL0     H15131   5.961   7.017  -0.679 -0.6592 -1.4001  0.5335
  110MOL0     H15132   6.203   6.839  -0.791  0.7308  0.1565 -4.1418
  110MOL0     H15133   6.036   6.805  -0.789 -2.3692  2.0589  0.4595
  110MOL0     H15134   6.170   7.061  -0.902 -0.1133  0.1285  0.6199
  110MOL0     H15135   6.158   6.911  -0.999 -0.9201  0.6823  0.0772
  110MOL0     H15136   5.969   7.015  -1.079  0.0472 -0.5118  0.7801
  110MOL0     H15137   5.912   6.947  -0.919 -0.5170  2.2608  3.9706
  110MOL0     H15138   5.804   7.308  -0.769  3.2212 -0.9650 -1.0920
  110MOL0     H15139   5.486   7.463  -0.784  0.3848  1.4334 -0.4089
  110MOL0     H15140   5.614   7.574  -0.837  2.4031  0.4572  1.0742
  110MOL0     H15141   5.651   7.458  -0.712 -1.1027  0.3433  0.1586
  110MOL0     H15142   5.195   7.523  -1.068  0.6731  0.8229 -0.0180
  110MOL0     H15143   5.039   7.650  -1.200 -0.5929 -0.6847  0.5422
  110MOL0     H15144   4.909   7.818  -1.493  0.4415  0.9603 -0.2869
  110MOL0     H15145   4.977   7.794  -1.340  0.8415 -3.6513 -0.1695
  110MOL0     H15146   5.074   7.983  -1.487 -0.2537 -0.1805 -0.9755
  110MOL0     H15147   5.185   7.880  -1.403  0.3379 -1.5432 -0.5263
  110MOL0     H15148   5.086   7.825  -1.694 -0.8619 -0.1602  1.1424
  110MOL0     H15149   5.222   7.750  -1.619  3.7045  1.2644 -1.0983
  110MOL0     H15150   5.340   7.971  -1.599  1.8745 -2.3619 -0.6767
  110MOL0     H15151   5.221   8.033  -1.711  1.3632  1.1231 -1.5336
  110MOL0     H15152   5.336   7.789  -1.821  1.1068  0.4298 -0.9858
  110MOL0     H15153   5.343   7.955  -1.880  2.5719  0.3484 -0.7328
  110MOL0     H15154   5.551   7.857  -1.682  0.6635  1.6772  0.9710
  110MOL0     H15155   5.540   8.010  -1.776 -3.5965  2.1768 -2.1919
  110MOL0     H15156   5.613   7.917  -1.953  4.4537  0.1349  1.8735
  110MOL0     H15157   5.499   7.788  -1.955 -2.5429  3.7720 -0.5051
  110MOL0     H15158   5.698   7.693  -1.783  2.5468  1.3373  0.8952
  110MOL0     H15159   5.792   7.815  -1.876 -0.7125  0.9765 -0.4346
  110MOL0     H15160   5.185   7.451  -1.560  0.4311 -1.2973 -0.0101
  110MOL0     H15161   5.347   7.334  -1.415 -0.9173 -2.3641  1.1690
  110MOL0     H15162   5.584   7.231  -1.199  1.7110  2.5299 -1.8865
  110MOL0     H15163   5.791   7.086  -1.140 -0.9806 -0.6211 -0.3235
  110MOL0     H15164   6.479   6.122   0.524 -0.9018 -0.6616  3.7385
  110MOL0     H15165   6.681   6.099   0.648  2.0409  1.2000  2.2001
  110MOL0     H15166   6.957   6.367   0.935  1.0118 -0.7272  0.7419
  110MOL0     H15167   7.148   6.438   1.050  1.7584 -2.3201  2.1871
  110MOL0     H15168   7.577   6.351   1.001 -1.7757 -2.7215 -1.4343
  110MOL0     H15169   7.488   6.409   0.863 -0.5486 -1.7113  0.1229
  110MOL0     H15170   7.615   6.583   1.029  0.5584 -0.1662 -1.8566
  110MOL0     H15171   7.474   6.564   1.125 -1.7413 -0.4458 -1.3168
  110MOL0     H15172   7.341   6.617   0.900  0.9543 -1.7275 -3.3255
  110MOL0     H15173   7.418   6.750   0.986  1.3035  0.1579 -0.8940
  110MOL0     H15174   7.455   6.740   0.717 -0.2141  3.4334  1.8304
  110MOL0     H15175   7.549   6.595   0.759  1.6388 -1.3811  4.0114
  110MOL0     H15176   7.831   6.883   0.802 -1.4362  0.1044 -0.7029
  110MOL0     H15177   7.400   6.206   0.817  0.0506  0.2708  0.4787
  110MOL0     H15178   7.213   6.087   0.587 -0.7280  0.1163 -0.0481
  110MOL0     H15179   7.241   6.263   0.539  0.9743  1.0433  1.0984
  110MOL0     H15180   7.365   6.169   0.618  0.0763 -2.5205 -0.2962
  111MOL0     O15181   7.983   2.516   9.329 -1.0330  0.0062  0.5491
  111MOL0     C15182   8.027   2.527   9.213  1.7970 -0.6166  0.3071
  111MOL0     O15183   7.966   2.466   9.109  0.4397  0.2716  0.2895
  111MOL0     C15184   7.849   2.392   9.129  0.1288 -1.1423 -0.4876
  111MOL0     C15185   7.730   2.466   9.129 -0.1041  0.3451  0.0726
  111MOL0     C15186   7.605   2.404   9.129  0.3496  0.1642  0.2542
  111MOL0     C15187   7.607   2.269   9.098 -0.5198  0.8879  0.7076
  111MOL0     O15188   7.484   2.204   9.090 -0.8207 -0.5799  0.0901
  111MOL0     C15189   7.460   2.139   9.220  0.2209 -0.3648 -0.6165
  111MOL0     C15190   7.353   2.034   9.187  0.1422 -1.1053 -0.7033
  111MOL0     C15191   7.228   2.103   9.133  0.3709 -1.0842 -0.9000
  111MOL0     C15192   7.121   2.119   9.239  0.0659 -0.6314  0.2828
  111MOL0     C15193   6.984   2.152   9.181  0.9251 -0.0976  0.4718
  111MOL0     C15194   6.918   2.037   9.115 -1.3986 -1.0422 -0.2662
  111MOL0     C15195   6.847   1.938   9.215  0.2298  1.0893 -0.2656
  111MOL0     C15196   6.762   1.832   9.158 -0.0338  0.2318  0.1053
  111MOL0     N15197   6.646   1.901   9.107  1.3442  0.5317 -0.3325
  111MOL0     C15198   6.613   1.907   8.973  0.9513  0.3257 -0.9096
  111MOL0     C15199   6.487   1.970   8.981  0.4486 -0.1703  0.1093
  111MOL0     C15200   6.367   1.984   8.882  0.7823  0.5044  0.8286
  111MOL0     C15201   6.390   2.112   8.795  0.7398  0.1278  1.0225
  111MOL0     C15202   6.344   2.235   8.852  0.3266  0.2033 -0.4475
  111MOL0     C15203   6.204   2.266   8.831  0.2342 -0.4073  0.5355
  111MOL0     O15204   6.159   2.380   8.906 -0.7109  0.0393 -0.7060
  111MOL0     C15205   6.032   2.416   8.889  0.6217 -0.4841 -0.2042
  111MOL0     C15206   5.986   2.542   8.942 -0.9040  1.0769 -0.8767
  111MOL0     C15207   5.848   2.588   8.934 -0.3683  0.4615  0.4309
  111MOL0     C15208   5.814   2.726   8.998  1.1312 -0.9508  0.0530
  111MOL0     C15209   5.754   2.505   8.858 -1.2387 -0.0452  0.3411
  111MOL0     C15210   5.606   2.529   8.843 -0.2789 -0.4862  0.1907
  111MOL0     O15211   5.558   2.637   8.915  0.2343  0.3315 -0.2641
  111MOL0     C15212   5.427   2.683   8.900  0.4996 -0.3356  0.8559
  111MOL0     C15213   5.369   2.718   8.775 -0.4590  0.7133  0.2348
  111MOL0     C15214   5.249   2.794   8.758 -0.9543  1.1699  1.0870
  111MOL0     C15215   5.176   2.810   8.876  0.2611  0.2441 -0.1537
  111MOL0     O15216   5.062   2.890   8.869  0.2404  0.1558 -0.4151
  111MOL0     C15217   5.066   3.016   8.797  0.1298  0.9568 -1.0307
  111MOL0     C15218   5.173   3.109   8.854  0.1282 -0.5116  0.3949
  111MOL0     C15219   5.187   3.105   9.011 -0.3883  0.8349 -0.9599
  111MOL0     C15220   5.247   3.235   9.071 -0.2602  0.3335  0.5739
  111MOL0     C15221   5.400   3.260   9.040  0.7217  0.4135 -0.1677
  111MOL0     C15222   5.500   3.149   9.067  0.4535 -0.6695  0.6564
  111MOL0     C15223   5.635   3.195   9.009  0.3598  1.3016 -0.5181
  111MOL0     C15224   5.742   3.084   9.022 -0.6968 -0.2406 -0.0607
  111MOL0    Cl15225   5.771   3.008   9.184  0.2744  0.4786 -0.1673
  111MOL0     C15226   5.219   2.759   9.006  0.2575  0.2184 -0.2362
  111MOL0     C15227   5.345   2.694   9.010 -0.5924 -0.2427 -0.0838
  111MOL0     O15228   5.532   2.458   8.777 -0.1588 -0.3722 -1.2702
  111MOL0     C15229   5.795   2.386   8.803  0.1436  0.4982  0.0882
  111MOL0     C15230   5.928   2.342   8.822 -0.3148 -0.5806  0.1578
  111MOL0     N15231   6.467   2.010   9.110 -0.4036  0.3098  0.4528
  111MOL0     N15232   6.556   1.966   9.185 -1.0819  0.2666 -0.1457
  111MOL0     C15233   7.720   2.192   9.097  0.6832  0.3140 -0.1930
  111MOL0     C15234   7.839   2.259   9.118 -0.3011  0.2386 -0.3264
  111MOL0     C15235   8.131   2.623   9.169  0.0468  0.5345 -0.7381
  111MOL0     C15236   8.118   2.752   9.219  0.6637 -0.7935 -0.0726
  111MOL0     C15237   8.199   2.857   9.167 -0.5951 -0.6019  0.0636
  111MOL0     C15238   8.288   2.838   9.063  0.6990  0.9234  0.3550
  111MOL0     O15239   8.345   2.942   8.998  1.0810 -0.0812 -0.3105
  111MOL0     C15240   8.432   3.028   9.077  0.7638 -0.0047  0.2704
  111MOL0     C15241   8.572   2.973   9.079 -0.4417  0.1061  0.1583
  111MOL0     C15242   8.655   3.001   8.952  0.1435  0.5619 -0.1675
  111MOL0     C15243   8.801   2.956   8.972 -0.5839  1.1809  0.6847
  111MOL0     C15244   8.859   2.951   8.837 -0.8075 -0.4239 -0.0247
  111MOL0     C15245   8.915   2.963   8.736 -1.2845 -0.0561 -0.2555
  111MOL0     C15246   8.313   2.699   9.026 -0.1993  0.4370 -0.2165
  111MOL0     C15247   8.235   2.590   9.069  1.1560 -0.4971 -0.2830
  111MOL0     C15248   8.248   2.456   9.001  0.1836 -0.1998  0.6711
  111MOL0     H15249   7.727   2.575   9.132 -2.7543  0.3325  1.0726
  111MOL0     H15250   7.513   2.460   9.132 -0.7136 -1.5639  1.1065
  111MOL0     H15251   7.415   2.215   9.284  0.1509 -0.5364 -0.4624
  111MOL0     H15252   7.544   2.087   9.265  0.8632  0.7353 -0.4909
  111MOL0     H15253   7.371   1.965   9.105 -4.4749 -0.5280 -2.5259
  111MOL0     H15254   7.325   1.981   9.278 -2.7239  0.3882 -0.5927
  111MOL0     H15255   7.252   2.193   9.075  1.6222 -0.7800  0.0272
  111MOL0     H15256   7.191   2.034   9.057 -0.9615  1.0472 -2.3065
  111MOL0     H15257   7.119   2.023   9.291 -1.3369 -0.0365  1.3984
  111MOL0     H15258   7.154   2.200   9.305  0.8379 -0.3779 -0.3817
  111MOL0     H15259   6.992   2.231   9.106 -1.3283 -1.5303 -1.3988
  111MOL0     H15260   6.919   2.186   9.262 -1.2626  0.4596 -1.4136
  111MOL0     H15261   6.841   2.071   9.045 -0.7729  0.2854 -0.3448
  111MOL0     H15262   6.995   1.981   9.060  0.0597  1.3883 -0.8455
  111MOL0     H15263   6.790   1.996   9.290  1.9471 -0.7838  2.6679
  111MOL0     H15264   6.925   1.886   9.271 -0.6633  0.7107  0.6554
  111MOL0     H15265   6.822   1.787   9.078  0.6874  3.3205 -1.2304
  111MOL0     H15266   6.741   1.756   9.235  4.6208 -0.3312  1.0929
  111MOL0     H15267   6.670   1.867   8.890  0.8766 -0.1655 -0.7304
  111MOL0     H15268   6.290   2.002   8.957  2.5025  0.1334  2.7739
  111MOL0     H15269   6.344   1.898   8.818  2.4354  0.2192  0.5583
  111MOL0     H15270   6.492   2.142   8.767  0.3473  2.9321  2.2453
  111MOL0     H15271   6.330   2.091   8.707  0.1482  0.7716  1.2673
  111MOL0     H15272   6.350   2.224   8.960  0.7302 -0.7590 -0.5610
  111MOL0     H15273   6.401   2.320   8.813  0.5787  1.3773  2.2429
  111MOL0     H15274   6.176   2.286   8.727 -0.4379 -0.6086  0.6742
  111MOL0     H15275   6.150   2.178   8.868 -1.0410  1.0302  2.2562
  111MOL0     H15276   6.068   2.598   8.985  0.5740  2.1715 -4.7380
  111MOL0     H15277   5.756   2.793   8.934  4.9957  1.4288 -1.3145
  111MOL0     H15278   5.901   2.783   9.031 -0.4933  0.8673  1.4137
  111MOL0     H15279   5.755   2.703   9.087 -2.5410 -3.6609 -2.7318
  111MOL0     H15280   5.424   2.690   8.686 -1.8130 -0.4784 -0.2525
  111MOL0     H15281   5.216   2.822   8.658  0.8731 -1.4592 -0.3626
  111MOL0     H15282   5.081   2.995   8.690 -1.6506  2.0924 -1.5439
  111MOL0     H15283   4.971   3.069   8.803 -0.6182 -0.3895 -0.5888
  111MOL0     H15284   5.270   3.092   8.807 -0.8276  0.7826 -2.2473
  111MOL0     H15285   5.134   3.209   8.833 -0.6126 -0.3250  2.4100
  111MOL0     H15286   5.244   3.018   9.046 -0.5461  1.3821  0.7679
  111MOL0     H15287   5.091   3.081   9.057  1.4043 -0.7166  2.3503
  111MOL0     H15288   5.252   3.228   9.180 -0.6092  2.0681  0.7287
  111MOL0     H15289   5.183   3.317   9.037 -1.1654 -0.7667 -0.4510
  111MOL0     H15290   5.406   3.296   8.937 -4.5393 -3.0052 -2.1270
  111MOL0     H15291   5.424   3.333   9.117 -0.5668  0.1730  0.4809
  111MOL0     H15292   5.468   3.061   9.010  1.2300  0.0507 -0.9578
  111MOL0     H15293   5.493   3.145   9.176 -0.3830  3.3688  0.8952
  111MOL0     H15294   5.669   3.282   9.065  1.1631  1.3603 -1.0837
  111MOL0     H15295   5.621   3.230   8.906 -2.7069 -1.3804 -1.1929
  111MOL0     H15296   5.836   3.134   8.996 -0.3810  0.2293  1.8372
  111MOL0     H15297   5.712   3.003   8.954 -1.1425 -2.2228  2.3590
  111MOL0     H15298   5.155   2.792   9.088  0.1280  0.2072 -0.3324
  111MOL0     H15299   5.403   2.677   9.101  0.5095  2.3424 -0.2255
  111MOL0     H15300   5.727   2.324   8.745  0.3424  1.3470 -1.1027
  111MOL0     H15301   5.957   2.244   8.786  0.7128  0.5432 -2.2142
  111MOL0     H15302   7.716   2.084   9.095  2.4894 -0.0058  4.0734
  111MOL0     H15303   7.928   2.198   9.108  1.2461  2.3171  0.2604
  111MOL0     H15304   8.045   2.782   9.294  0.3460  3.3543 -1.7071
  111MOL0     H15305   8.187   2.958   9.205  2.4313  0.6413 -1.9044
  111MOL0     H15306   8.418   3.127   9.034 -1.8188  0.0220  1.0401
  111MOL0     H15307   8.401   3.041   9.181  2.5661 -0.8025  0.9608
  111MOL0     H15308   8.580   2.865   9.100 -0.2686 -0.6298 -3.1529
  111MOL0     H15309   8.607   3.034   9.162  1.2250  0.5689 -0.8545
  111MOL0     H15310   8.609   2.959   8.862  0.3873 -0.4685  0.1692
  111MOL0     H15311   8.663   3.110   8.949  2.1162  0.5063  1.0087
  111MOL0     H15312   8.800   2.849   8.992  0.7215  0.9685 -0.2269
  111MOL0     H15313   8.852   3.016   9.048  2.9625  0.7976 -1.1577
  111MOL0     H15314   8.976   2.961   8.648 -2.2491 -0.3653 -0.9343
  111MOL0     H15315   8.378   2.680   8.942  0.1960 -2.7088  0.6701
  111MOL0     H15316   8.201   2.446   8.903 -3.1435 -1.8978  2.2476
  111MOL0     H15317   8.357   2.452   8.996  0.3012  1.6993  1.0296
  111MOL0     H15318   8.195   2.378   9.058  0.8669 -1.0374  0.1800
  112MOL0     O15319   2.973  10.326   1.059  0.4105 -0.4541  0.8608
  112MOL0     C15320   2.959  10.427   0.996 -0.4794  0.0331  0.0750
  112MOL0     O15321   2.935  10.553   1.046  0.1837  0.3274  0.6804
  112MOL0     C15322   2.880  10.576   1.168  0.0224 -0.8647  0.5527
  112MOL0     C15323   2.897  10.702   1.219  1.0806 -0.3231  0.6282
  112MOL0     C15324   2.819  10.765   1.324  0.5621  0.6526  0.0389
  112MOL0     C15325   2.733  10.676   1.398  0.7337  0.8701 -0.8536
  112MOL0     O15326   2.656  10.716   1.510 -0.3039 -0.1884 -0.3839
  112MOL0     C15327   2.646  10.864   1.518 -0.3335 -1.3315  0.3613
  112MOL0     C15328   2.518  10.903   1.603 -0.2586 -0.0074  0.7676
  112MOL0     C15329   2.382  10.833   1.569 -0.3560 -0.0208 -0.0691
  112MOL0     C15330   2.280  10.872   1.682  0.4939  0.6534  0.2544
  112MOL0     C15331   2.179  10.763   1.709 -0.3864 -0.3536 -0.3879
  112MOL0     C15332   2.089  10.807   1.826 -0.2138  0.5087 -0.1886
  112MOL0     C15333   2.124  10.748   1.959 -1.1157  0.5237 -0.0153
  112MOL0     C15334   2.092  10.593   1.969 -0.0121  1.0189 -0.0942
  112MOL0     N15335   2.201  10.506   1.931  0.9180  0.3009  0.7547
  112MOL0     C15336   2.334  10.525   1.952 -0.2538  0.0788  0.4772
  112MOL0     C15337   2.391  10.418   1.886 -0.5288 -0.3468  1.0440
  112MOL0     C15338   2.545  10.399   1.844  1.1239  0.1453  0.3202
  112MOL0     C15339   2.579  10.263   1.808 -1.0144 -0.2439  0.5029
  112MOL0     C15340   2.718  10.241   1.762  0.0363  0.0475 -0.7135
  112MOL0     C15341   2.750  10.101   1.726  0.1123 -1.3522 -0.1192
  112MOL0     O15342   2.646  10.035   1.658  0.3863  0.6902 -0.1102
  112MOL0     C15343   2.658  10.001   1.524 -0.3510  0.3012  0.0449
  112MOL0     C15344   2.773   9.960   1.451  0.4415  0.2874 -0.0354
  112MOL0     C15345   2.778   9.949   1.315  0.2620 -0.2487  0.4688
  112MOL0     C15346   2.914   9.913   1.248  0.2382 -0.0326  0.5194
  112MOL0     C15347   2.657   9.976   1.249 -0.1951  0.7255 -0.4512
  112MOL0     C15348   2.660   9.955   1.104 -0.2489 -0.2403  0.5719
  112MOL0     O15349   2.586  10.045   1.042  0.3263 -0.3624 -0.1308
  112MOL0     C15350   2.564  10.047   0.904  0.7170 -0.5089  0.3086
  112MOL0     C15351   2.442  10.011   0.845 -0.0852 -0.3544 -0.9378
  112MOL0     C15352   2.433  10.035   0.704  0.8068 -0.1002 -1.6202
  112MOL0     C15353   2.535  10.088   0.626  0.5784 -0.4533  0.7376
  112MOL0     O15354   2.510  10.104   0.488  0.7230 -0.3259  0.5875
  112MOL0     C15355   2.610  10.150   0.397  0.8550 -0.1110  0.2911
  112MOL0     C15356   2.546  10.166   0.250  0.2401  0.3000 -0.1565
  112MOL0     C15357   2.437  10.275   0.219 -0.0417  0.5225  0.2999
  112MOL0     C15358   2.488  10.374   0.119  0.2613  0.3995  0.5716
  112MOL0     C15359   2.582  10.492   0.186 -0.1189  0.5349  0.5271
  112MOL0     C15360   2.609  10.595   0.070  0.4293 -0.0089 -0.1150
  112MOL0     C15361   2.719  10.547  -0.030 -0.1893 -0.0115  0.5683
  112MOL0     C15362   2.756  10.661  -0.135  0.2317  0.1321 -0.0304
  112MOL0    Cl15363   2.727  10.823  -0.082  0.1159 -0.0410  0.3037
  112MOL0     C15364   2.652  10.118   0.687 -1.2495 -0.2325  0.1298
  112MOL0     C15365   2.674  10.094   0.823 -0.0424 -0.2372 -0.6450
  112MOL0     O15366   2.719   9.872   1.047  0.0263  0.2397 -0.5554
  112MOL0     C15367   2.542  10.023   1.315 -0.5495 -0.2357 -0.3360
  112MOL0     C15368   2.543  10.028   1.456 -0.8122 -0.1622  0.6845
  112MOL0     N15369   2.291  10.332   1.857  0.4625  0.0083  0.3095
  112MOL0     N15370   2.171  10.383   1.875  0.9101  0.1062  0.2003
  112MOL0     C15371   2.721  10.542   1.350 -0.6429 -0.9678 -0.0699
  112MOL0     C15372   2.781  10.498   1.231  0.0545 -0.5331 -0.3862
  112MOL0     C15373   2.960  10.407   0.851 -0.5690 -0.6990  0.0114
  112MOL0     C15374   2.903  10.513   0.773 -0.6297 -0.1088 -0.1916
  112MOL0     C15375   2.878  10.486   0.632  0.6458 -0.2233 -0.6021
  112MOL0     C15376   2.916  10.375   0.566 -0.5986  0.5544  0.3111
  112MOL0     O15377   2.893  10.368   0.431  0.1496  0.0491 -0.0948
  112MOL0     C15378   2.985  10.291   0.362 -0.1028 -0.3882  1.3221
  112MOL0     C15379   2.990  10.344   0.213  0.0980 -0.3736 -0.2710
  112MOL0     C15380   3.061  10.248   0.122  0.6794  0.4016  0.1295
  112MOL0     C15381   3.108  10.329   0.004  0.4963  0.1032 -1.2337
  112MOL0     C15382   3.216  10.419   0.034 -0.3501  0.7289 -0.0140
  112MOL0     C15383   3.314  10.491   0.057 -0.9390  0.2150  0.6266
  112MOL0     C15384   2.988  10.280   0.636  0.0482 -0.7365 -0.3565
  112MOL0     C15385   3.015  10.299   0.776  0.3273 -0.7720 -0.1691
  112MOL0     C15386   3.101  10.191   0.836  1.0648  0.5165  0.2570
  112MOL0     H15387   2.955  10.770   1.157 -1.6846  2.8574  1.2216
  112MOL0     H15388   2.832  10.873   1.334  2.0818  0.5374 -0.3556
  112MOL0     H15389   2.633  10.912   1.421  0.8663  0.0814  0.8635
  112MOL0     H15390   2.725  10.911   1.577  1.0044  0.1276 -2.4159
  112MOL0     H15391   2.550  10.874   1.704  0.3959 -0.1311  0.5312
  112MOL0     H15392   2.504  11.011   1.600 -0.1176 -0.0040  0.1325
  112MOL0     H15393   2.333  10.869   1.478 -0.3213 -1.7005 -0.7882
  112MOL0     H15394   2.403  10.725   1.574  0.8942  0.2119 -0.0256
  112MOL0     H15395   2.340  10.885   1.773  1.9671 -0.9432 -0.4317
  112MOL0     H15396   2.228  10.966   1.659 -3.1229 -1.3662 -0.6320
  112MOL0     H15397   2.227  10.667   1.731 -0.1679 -0.1180  0.1802
  112MOL0     H15398   2.123  10.748   1.617  1.2515 -1.7163 -1.2315
  112MOL0     H15399   2.098  10.914   1.844 -1.0090  0.2201  2.3549
  112MOL0     H15400   1.984  10.788   1.802 -0.8398  1.5728  1.4802
  112MOL0     H15401   2.051  10.792   2.027  0.5546  1.4247  1.2682
  112MOL0     H15402   2.222  10.775   1.999 -0.4017  1.1169 -2.0125
  112MOL0     H15403   2.071  10.561   2.072  1.7474 -0.7753 -0.2175
  112MOL0     H15404   2.002  10.569   1.912  1.5320 -1.8764 -1.5154
  112MOL0     H15405   2.372  10.621   1.987 -2.6753  1.8068 -1.3178
  112MOL0     H15406   2.604  10.429   1.931  1.6718 -0.7416  0.2653
  112MOL0     H15407   2.568  10.459   1.755 -1.9030 -2.0504 -2.1843
  112MOL0     H15408   2.558  10.185   1.881 -4.1416 -1.4319 -1.4897
  112MOL0     H15409   2.529  10.233   1.715  2.4629  0.6792 -1.9144
  112MOL0     H15410   2.751  10.314   1.688  1.9827 -0.3160 -0.2631
  112MOL0     H15411   2.785  10.249   1.849  0.1556  2.3030 -0.9759
  112MOL0     H15412   2.836  10.112   1.659 -0.3701  0.4459 -0.4876
  112MOL0     H15413   2.772  10.048   1.819 -2.2880  0.5410  1.6536
  112MOL0     H15414   2.865   9.924   1.497 -0.5825 -2.0340  0.3268
  112MOL0     H15415   2.948   9.975   1.164  0.7775 -0.4856  0.4009
  112MOL0     H15416   2.912   9.808   1.219  0.3677 -0.5524  2.2896
  112MOL0     H15417   3.001   9.914   1.314 -0.0366 -3.6047  1.1132
  112MOL0     H15418   2.367   9.966   0.909 -0.6656  1.7593 -0.0386
  112MOL0     H15419   2.344  10.005   0.649 -2.6087  0.3763  2.9630
  112MOL0     H15420   2.651  10.244   0.434 -1.6955  0.3208  2.3539
  112MOL0     H15421   2.698  10.086   0.389  0.5637 -0.5802  0.7820
  112MOL0     H15422   2.628  10.172   0.178 -0.0931  2.4831 -0.4410
  112MOL0     H15423   2.499  10.070   0.231 -0.3465  0.7048 -0.8056
  112MOL0     H15424   2.399  10.325   0.309  0.5227  0.6321  0.4816
  112MOL0     H15425   2.345  10.228   0.184  0.3145 -0.8902  1.2016
  112MOL0     H15426   2.407  10.417   0.059 -1.3219  0.2634  2.5353
  112MOL0     H15427   2.546  10.323   0.041  1.6483  2.0229  0.5033
  112MOL0     H15428   2.510  10.527   0.261 -2.2810 -3.3073  0.5429
  112MOL0     H15429   2.672  10.453   0.235  0.8590  2.2574  0.1854
  112MOL0     H15430   2.634  10.682   0.131 -3.4710  1.2732 -0.0304
  112MOL0     H15431   2.513  10.606   0.018  0.9209 -0.4740 -1.1571
  112MOL0     H15432   2.683  10.455  -0.077 -0.7303  0.4929 -0.0234
  112MOL0     H15433   2.811  10.523   0.023  0.1557  1.3264  0.6029
  112MOL0     H15434   2.696  10.644  -0.225  2.5558  1.5157 -1.9586
  112MOL0     H15435   2.858  10.646  -0.170  0.6214  0.4194  0.9561
  112MOL0     H15436   2.734  10.159   0.628  0.2065 -0.5564  1.8257
  112MOL0     H15437   2.765  10.123   0.874 -0.7003  2.5989 -0.8690
  112MOL0     H15438   2.456  10.050   1.255 -1.8445 -1.7290  0.7584
  112MOL0     H15439   2.468  10.072   1.520 -1.0080 -1.9949  1.7877
  112MOL0     H15440   2.659  10.472   1.406 -1.0464  0.7470  1.7501
  112MOL0     H15441   2.755  10.401   1.189  2.0123 -1.5845  0.7064
  112MOL0     H15442   2.875  10.613   0.806 -1.6954  0.6826 -3.1688
  112MOL0     H15443   2.827  10.567   0.580  3.7161  1.2807 -1.5350
  112MOL0     H15444   3.088  10.296   0.400  0.7578  3.4129 -1.0449
  112MOL0     H15445   2.949  10.187   0.359  1.0566 -0.8519  2.3748
  112MOL0     H15446   3.036  10.441   0.233  1.7859 -1.3957  1.1864
  112MOL0     H15447   2.888  10.359   0.178 -0.0993  1.2281  0.8565
  112MOL0     H15448   3.147  10.197   0.167 -0.3190 -1.1163  0.4160
  112MOL0     H15449   3.000  10.163   0.090  0.4374  0.2791  0.8951
  112MOL0     H15450   3.025  10.391  -0.030  0.4676  0.1511 -1.0758
  112MOL0     H15451   3.143  10.257  -0.071  1.1041  0.0890 -0.9469
  112MOL0     H15452   3.402  10.552   0.053 -1.7833  1.3959 -2.2721
  112MOL0     H15453   3.036  10.201   0.580 -1.1541  0.9503 -4.0818
  112MOL0     H15454   3.144  10.127   0.759 -1.9482 -1.8256  0.3416
  112MOL0     H15455   3.175  10.250   0.892 -1.7611  2.8498  1.8171
  112MOL0     H15456   3.035  10.137   0.905 -0.9186 -0.4383 -2.2427
  113MOL0     O15457   5.699   4.719  10.791 -0.3718  0.7710 -0.0034
  113MOL0     C15458   5.758   4.722  10.680 -0.5632  0.0177 -0.7855
  113MOL0     O15459   5.760   4.836  10.594  0.0330 -0.4980  0.1069
  113MOL0     C15460   5.690   4.942  10.647  1.2055  0.7628 -0.0977
  113MOL0     C15461   5.555   4.964  10.613 -0.7168 -0.5032  0.7145
  113MOL0     C15462   5.481   5.057  10.682 -0.1069 -0.0528  0.2711
  113MOL0     C15463   5.538   5.128  10.786 -0.7135 -0.0210 -0.0792
  113MOL0     O15464   5.462   5.207  10.859  0.3728 -0.9833  0.6686
  113MOL0     C15465   5.524   5.321  10.923  0.7931  0.8023  0.1184
  113MOL0     C15466   5.416   5.428  10.943  1.1643  0.0206  0.1968
  113MOL0     C15467   5.344   5.477  10.818  0.1184 -0.8926  0.0876
  113MOL0     C15468   5.244   5.375  10.758 -0.2744 -1.2132  0.0179
  113MOL0     C15469   5.149   5.447  10.660 -0.8124 -0.3669  0.7227
  113MOL0     C15470   5.234   5.527  10.551  0.2360  0.6244 -0.3765
  113MOL0     C15471   5.137   5.620  10.469 -0.2186 -0.9947  0.9489
  113MOL0     C15472   5.210   5.745  10.413  0.2394 -0.2633  0.7473
  113MOL0     N15473   5.256   5.843  10.522 -0.2400 -0.1830 -0.5412
  113MOL0     C15474   5.241   5.842  10.665  0.6409 -0.0422 -0.7565
  113MOL0     C15475   5.327   5.938  10.705 -0.4299  0.0076 -0.1980
  113MOL0     C15476   5.330   5.982  10.852  0.5709 -0.1389  1.2972
  113MOL0     C15477   5.386   5.881  10.937 -0.0255 -0.0070 -0.3626
  113MOL0     C15478   5.396   5.934  11.089  0.3718 -0.7381  0.6744
  113MOL0     C15479   5.411   5.821  11.179  0.2762  0.0478 -0.5704
  113MOL0     O15480   5.276   5.765  11.183 -0.0505  0.2424  0.1404
  113MOL0     C15481   5.269   5.639  11.242 -0.3261 -0.5689  1.1007
  113MOL0     C15482   5.185   5.550  11.191  0.3482 -0.1325  0.3965
  113MOL0     C15483   5.180   5.420  11.244  0.6444  0.1152  0.2121
  113MOL0     C15484   5.066   5.333  11.194 -0.0759  0.5197 -0.0778
  113MOL0     C15485   5.270   5.365  11.348 -0.4795  0.0612 -0.1172
  113MOL0     C15486   5.280   5.232  11.413 -0.0763  0.0812 -0.9135
  113MOL0     O15487   5.376   5.221  11.518  1.0398  0.1330 -0.2241
  113MOL0     C15488   5.391   5.104  11.584  0.0377 -0.1214 -0.2049
  113MOL0     C15489   5.284   5.030  11.645 -0.5804 -0.3936 -0.1395
  113MOL0     C15490   5.320   4.908  11.700 -0.2712  0.0603  0.1868
  113MOL0     C15491   5.446   4.858  11.702 -1.0993  0.0614  0.5113
  113MOL0     O15492   5.462   4.733  11.758  0.8088  0.0459 -0.1040
  113MOL0     C15493   5.568   4.720  11.854  0.0460 -0.1900 -0.8702
  113MOL0     C15494   5.677   4.659  11.782 -0.5304 -0.3934 -0.6710
  113MOL0     C15495   5.790   4.603  11.885  0.5005  0.5446 -0.4118
  113MOL0     C15496   5.784   4.448  11.895  0.1414 -0.2606 -0.0565
  113MOL0     C15497   5.893   4.394  11.985 -0.2564  0.3576  0.0994
  113MOL0     C15498   5.887   4.236  11.968  0.5161 -0.2175  0.9715
  113MOL0     C15499   5.989   4.170  12.071  0.5064 -0.0322 -0.5383
  113MOL0     C15500   5.975   4.013  12.062 -0.8242 -1.1492 -0.8808
  113MOL0    Cl15501   5.812   3.964  12.128  0.1118  0.1029  0.1836
  113MOL0     C15502   5.539   4.933  11.638 -0.4552 -0.2304 -0.2176
  113MOL0     C15503   5.517   5.057  11.587 -0.0982  0.8395  0.1963
  113MOL0     O15504   5.200   5.144  11.391 -0.3428 -0.0978  0.2228
  113MOL0     C15505   5.332   5.478  11.418 -0.3903 -0.4958 -0.4273
  113MOL0     C15506   5.334   5.603  11.364  0.0753 -0.1599  0.2735
  113MOL0     N15507   5.377   6.006  10.592 -0.3630  0.4444  0.1814
  113MOL0     N15508   5.338   5.948  10.483  0.2601  0.2473 -0.7986
  113MOL0     C15509   5.679   5.104  10.824 -1.5016  0.1448  0.0260
  113MOL0     C15510   5.750   5.012  10.752 -0.2757  0.3825 -0.4586
  113MOL0     C15511   5.826   4.599  10.635 -0.5731 -0.0527 -0.5898
  113MOL0     C15512   5.848   4.593  10.496  0.7739  0.9835 -0.0395
  113MOL0     C15513   5.939   4.488  10.455 -0.3533 -0.1418 -0.1962
  113MOL0     C15514   5.987   4.391  10.535 -0.0867 -0.2643 -0.9196
  113MOL0     O15515   6.055   4.292  10.478  0.1058  0.0043  0.0253
  113MOL0     C15516   6.114   4.181  10.558 -0.1499 -0.7564  0.8913
  113MOL0     C15517   6.219   4.095  10.473  0.0297 -0.5182  1.1293
  113MOL0     C15518   6.147   4.030  10.358  0.0195 -0.1698 -0.1016
  113MOL0     C15519   6.201   3.882  10.349  0.9130 -0.6652  0.3034
  113MOL0     C15520   6.339   3.888  10.303 -0.5154  0.0454  0.2233
  113MOL0     C15521   6.455   3.892  10.263  0.8598  0.7208  0.3580
  113MOL0     C15522   5.956   4.395  10.668 -0.4387 -0.5513  0.2674
  113MOL0     C15523   5.883   4.501  10.715 -0.5433 -0.2940  0.3147
  113MOL0     C15524   5.869   4.506  10.862 -0.4713 -0.0059 -0.2934
  113MOL0     H15525   5.516   4.908  10.529 -2.7558 -0.1075  1.3340
  113MOL0     H15526   5.380   5.064  10.642 -0.3462 -0.7526  0.7410
  113MOL0     H15527   5.603   5.368  10.863 -0.9366  1.6398 -1.6123
  113MOL0     H15528   5.551   5.295  11.026 -3.3548  0.9422  1.3832
  113MOL0     H15529   5.355   5.380  11.020 -0.8498  2.5221  0.3107
  113MOL0     H15530   5.462   5.521  10.980  0.9389  1.4500 -2.7788
  113MOL0     H15531   5.313   5.578  10.844 -0.4157 -1.5354  2.1331
  113MOL0     H15532   5.427   5.504  10.752  0.2508  3.8997  1.8397
  113MOL0     H15533   5.294   5.288  10.714 -0.6445 -1.4264  0.0058
  113MOL0     H15534   5.185   5.332  10.840 -0.3197  1.6603  1.6081
  113MOL0     H15535   5.079   5.516  10.709  0.5727  1.2328  0.5405
  113MOL0     H15536   5.089   5.387  10.592 -2.1393  2.4566 -0.7960
  113MOL0     H15537   5.309   5.596  10.590  0.3429  1.8677 -2.5941
  113MOL0     H15538   5.285   5.456  10.486 -2.5152 -2.1604  0.2541
  113MOL0     H15539   5.055   5.651  10.534 -0.2506 -0.3684  0.6184
  113MOL0     H15540   5.096   5.568  10.381  0.6210 -2.1617  1.2142
  113MOL0     H15541   5.293   5.704  10.353 -0.6478 -1.0871  0.0506
  113MOL0     H15542   5.141   5.794  10.343 -0.5469 -2.5489 -0.1800
  113MOL0     H15543   5.176   5.775  10.720  1.0482  0.0960 -0.1031
  113MOL0     H15544   5.227   6.002  10.884 -0.4105 -3.0934  0.2713
  113MOL0     H15545   5.389   6.074  10.855 -1.3723  1.3524 -1.4384
  113MOL0     H15546   5.313   5.800  10.943 -0.4336  0.3478 -0.5162
  113MOL0     H15547   5.485   5.856  10.896  1.1067  2.4653  0.6260
  113MOL0     H15548   5.478   6.006  11.092  0.7126 -1.1343  1.0448
  113MOL0     H15549   5.304   5.989  11.112 -0.2888 -2.1380  1.4866
  113MOL0     H15550   5.488   5.750  11.147  1.8594 -1.4497  5.2876
  113MOL0     H15551   5.447   5.859  11.275 -2.5589  1.7122 -0.0482
  113MOL0     H15552   5.119   5.568  11.106 -1.5312 -0.4359  1.7241
  113MOL0     H15553   5.034   5.261  11.270  0.2559  1.1321  0.6604
  113MOL0     H15554   5.101   5.278  11.106 -3.4992  1.2254 -2.0558
  113MOL0     H15555   4.981   5.396  11.164 -2.6895 -2.5330  0.3904
  113MOL0     H15556   5.181   5.063  11.655 -0.4771 -0.0366 -0.2139
  113MOL0     H15557   5.239   4.850  11.743  1.5585 -1.0694  2.2852
  113MOL0     H15558   5.582   4.823  11.887 -0.4053  0.1713 -1.7793
  113MOL0     H15559   5.538   4.657  11.939 -1.5973  3.7101  1.7273
  113MOL0     H15560   5.638   4.583  11.714  0.4005 -1.5498  0.0340
  113MOL0     H15561   5.719   4.734  11.715 -3.0005  2.4469  0.7324
  113MOL0     H15562   5.774   4.650  11.982  0.8429  1.5805 -0.8457
  113MOL0     H15563   5.882   4.644  11.842 -0.4430  0.9798 -2.1196
  113MOL0     H15564   5.804   4.415  11.793  0.7045  0.7957 -0.3104
  113MOL0     H15565   5.686   4.414  11.930 -0.1622  2.1287  1.6758
  113MOL0     H15566   5.990   4.432  11.951  0.1045 -1.6369 -1.3064
  113MOL0     H15567   5.886   4.438  12.085 -0.4252  1.4475 -0.3851
  113MOL0     H15568   5.912   4.213  11.864 -2.4373  0.9059 -0.0889
  113MOL0     H15569   5.781   4.209  11.973  0.3930 -2.2975 -5.0292
  113MOL0     H15570   5.967   4.218  12.167 -0.1284  0.7558 -1.0641
  113MOL0     H15571   6.090   4.203  12.048 -0.1369  1.1397 -1.8151
  113MOL0     H15572   6.058   3.977  12.124  0.7310 -0.3548 -2.4078
  113MOL0     H15573   5.983   3.968  11.962  0.2826 -2.1423 -0.3724
  113MOL0     H15574   5.640   4.893  11.631 -1.1354 -2.0439 -0.3618
  113MOL0     H15575   5.593   5.111  11.531  0.3212 -0.4462 -0.5217
  113MOL0     H15576   5.390   5.447  11.505 -4.3087 -0.3946  2.5324
  113MOL0     H15577   5.400   5.676  11.409 -0.9640  0.4431  0.8529
  113MOL0     H15578   5.717   5.160  10.909 -1.8064 -0.0929  0.3226
  113MOL0     H15579   5.854   4.989  10.771 -0.8361 -0.1667  2.5167
  113MOL0     H15580   5.818   4.664  10.420  1.8561  0.6350 -0.8167
  113MOL0     H15581   5.974   4.478  10.353  1.0124  1.7758  0.0299
  113MOL0     H15582   6.174   4.211  10.645  1.3550 -1.1485  0.0348
  113MOL0     H15583   6.035   4.113  10.588 -0.3231 -2.5044 -2.9326
  113MOL0     H15584   6.261   4.015  10.534  0.3530 -4.0232 -3.1427
  113MOL0     H15585   6.308   4.152  10.445  1.3105 -1.0671  3.7590
  113MOL0     H15586   6.039   4.041  10.372  0.2721  0.0977  2.1559
  113MOL0     H15587   6.167   4.089  10.269  2.1026  0.4180  0.6855
  113MOL0     H15588   6.144   3.833  10.269  0.2182  1.9930 -0.9142
  113MOL0     H15589   6.200   3.830  10.446 -0.2574 -1.2754 -0.0099
  113MOL0     H15590   6.556   3.899  10.227  0.0439  2.3320 -1.8172
  113MOL0     H15591   5.980   4.314  10.736 -2.8689  0.9005  3.0839
  113MOL0     H15592   5.777   4.459  10.899 -0.8930 -0.2430 -1.6039
  113MOL0     H15593   5.950   4.444  10.901  2.7038  3.4114 -0.9219
  113MOL0     H15594   5.884   4.604  10.908 -1.8639  0.3881 -0.6342
  114MOL0     O15595   0.944  10.583   7.937  0.4698  0.2989 -0.1046
  114MOL0     C15596   0.940  10.548   8.051  0.1675  0.1830 -0.2055
  114MOL0     O15597   0.847  10.467   8.101  0.0184 -0.8959  0.1498
  114MOL0     C15598   0.762  10.401   8.022  0.4660  0.5742  0.5449
  114MOL0     C15599   0.784  10.360   7.886 -0.4138 -0.1958 -0.3693
  114MOL0     C15600   0.677  10.290   7.820 -0.1887  0.1136  0.2799
  114MOL0     C15601   0.560  10.256   7.885 -0.0053  0.1062 -0.7743
  114MOL0     O15602   0.462  10.188   7.809 -0.4282 -0.9180  0.1807
  114MOL0     C15603   0.345  10.152   7.890 -0.0650 -0.7720  0.2747
  114MOL0     C15604   0.237  10.080   7.808  0.2986 -0.2237  0.6868
  114MOL0     C15605   0.203  10.128   7.665 -0.3670 -0.5190  1.3093
  114MOL0     C15606   0.103  10.026   7.592 -0.0504 -0.0490 -0.4729
  114MOL0     C15607   0.072  10.079   7.455  0.1802 -0.1465  1.1854
  114MOL0     C15608  -0.064  10.034   7.390 -0.0907  0.6530  0.0802
  114MOL0     C15609  -0.193  10.048   7.465 -0.2896  0.7224  0.0367
  114MOL0     C15610  -0.247  10.190   7.446 -0.0109 -0.1371 -0.1849
  114MOL0     N15611  -0.378  10.220   7.515 -0.6280 -0.4602  0.2126
  114MOL0     C15612  -0.496  10.177   7.466 -0.0266  0.5357  0.3999
  114MOL0     C15613  -0.595  10.234   7.536  0.3180 -0.2270 -0.2922
  114MOL0     C15614  -0.748  10.230   7.520 -1.4676 -0.5111  0.6852
  114MOL0     C15615  -0.826  10.196   7.649 -0.5784 -0.8871  0.0744
  114MOL0     C15616  -0.802  10.047   7.711  0.2401  0.5166  0.0987
  114MOL0     C15617  -0.869  10.033   7.851  0.3749  0.9299  0.3426
  114MOL0     O15618  -0.793  10.132   7.920  0.2234  0.8452  0.8856
  114MOL0     C15619  -0.837  10.160   8.043  0.1750  1.1669  0.9044
  114MOL0     C15620  -0.750  10.174   8.142 -0.8406 -0.7832  0.3667
  114MOL0     C15621  -0.789  10.215   8.268  0.2617  0.5066  0.0458
  114MOL0     C15622  -0.686  10.226   8.373  0.4675  0.7282 -0.1732
  114MOL0     C15623  -0.924  10.245   8.296 -0.7156  0.6383  0.0624
  114MOL0     C15624  -0.977  10.278   8.430 -1.0369 -0.6968 -0.5079
  114MOL0     O15625  -1.069  10.367   8.443 -0.6409  0.0370 -1.0981
  114MOL0     C15626  -1.136  10.401   8.560 -0.5522 -0.4187 -0.1326
  114MOL0     C15627  -1.269  10.455   8.548 -0.8661  0.3829 -0.3599
  114MOL0     C15628  -1.334  10.499   8.664 -0.1607 -0.6720 -0.0353
  114MOL0     C15629  -1.278  10.489   8.791 -1.1012  0.1882 -0.1125
  114MOL0     O15630  -1.338  10.495   8.914 -0.2342 -0.1665  0.3453
  114MOL0     C15631  -1.449  10.584   8.917  0.2972 -0.5899 -0.8961
  114MOL0     C15632  -1.484  10.626   9.058  0.2854  0.0710  0.1204
  114MOL0     C15633  -1.603  10.718   9.062 -0.3488  0.3498 -0.4227
  114MOL0     C15634  -1.616  10.752   9.215 -0.5882 -0.7067  0.2822
  114MOL0     C15635  -1.736  10.833   9.246 -0.0656 -0.2493 -0.0496
  114MOL0     C15636  -1.857  10.746   9.284 -1.0242 -0.0558  0.5478
  114MOL0     C15637  -1.956  10.851   9.329 -0.1031  0.2606 -0.1984
  114MOL0     C15638  -2.097  10.795   9.347 -0.8192  0.6739 -0.7782
  114MOL0    Cl15639  -2.153  10.718   9.206 -0.0302  0.5185 -0.5479
  114MOL0     C15640  -1.141  10.449   8.806 -0.4999 -0.6462 -0.2922
  114MOL0     C15641  -1.082  10.408   8.691  0.8374  1.2123 -0.5422
  114MOL0     O15642  -0.938  10.202   8.518  0.7112  0.2762 -0.4586
  114MOL0     C15643  -1.009  10.248   8.187  1.0402 -0.3744  0.9472
  114MOL0     C15644  -0.970  10.211   8.058  0.6373 -0.0127 -1.1275
  114MOL0     N15645  -0.542  10.323   7.634 -0.4660 -0.3805 -0.6676
  114MOL0     N15646  -0.410  10.304   7.619 -0.8675 -0.0371  0.4856
  114MOL0     C15647   0.546  10.294   8.025  0.8104  0.3896 -0.4458
  114MOL0     C15648   0.645  10.361   8.089 -0.5936 -0.1122 -0.8720
  114MOL0     C15649   1.028  10.625   8.158  0.4162 -0.2334 -0.1032
  114MOL0     C15650   0.973  10.627   8.286 -0.4465  0.1968 -0.5022
  114MOL0     C15651   1.029  10.706   8.378 -1.2665  0.4594 -0.0810
  114MOL0     C15652   1.134  10.795   8.340 -0.4913 -0.0898 -0.5344
  114MOL0     O15653   1.184  10.889   8.436  0.1157 -0.2092 -0.0780
  114MOL0     C15654   1.129  10.913   8.564  0.9070 -0.2771 -0.9456
  114MOL0     C15655   1.216  11.025   8.639  0.6989  0.2427  0.7019
  114MOL0     C15656   1.126  11.087   8.747 -0.0658 -0.5402  0.4466
  114MOL0     C15657   1.073  11.006   8.871  0.2969 -0.1408 -0.2068
  114MOL0     C15658   1.136  11.037   8.999 -0.2898  0.6612  0.7893
  114MOL0     C15659   1.179  11.040   9.105 -0.1572 -0.5838 -0.9251
  114MOL0     C15660   1.193  10.785   8.219  0.4355  0.1424 -0.0094
  114MOL0     C15661   1.147  10.698   8.132 -1.0858  0.2895  0.2122
  114MOL0     C15662   1.225  10.675   7.999 -0.0724 -0.0523  0.0406
  114MOL0     H15663   0.885  10.364   7.846 -1.1487 -0.6606 -2.3664
  114MOL0     H15664   0.690  10.258   7.717 -2.3864  1.7393 -0.5870
  114MOL0     H15665   0.307  10.245   7.932  0.1656 -0.4823 -0.1440
  114MOL0     H15666   0.379  10.087   7.971 -1.0766 -0.0957  1.2695
  114MOL0     H15667   0.260   9.973   7.799  1.5518  0.1944 -1.6474
  114MOL0     H15668   0.152  10.093   7.876 -1.1973 -2.3283 -0.6265
  114MOL0     H15669   0.163  10.230   7.671  3.5718  1.1340  2.2992
  114MOL0     H15670   0.303  10.139   7.624 -0.0239 -2.9333  1.3451
  114MOL0     H15671   0.143   9.924   7.585  1.1289  0.4895 -1.9300
  114MOL0     H15672   0.011  10.024   7.652  0.4616  2.3763  0.4955
  114MOL0     H15673   0.152  10.044   7.389 -0.2440  0.8808  0.1140
  114MOL0     H15674   0.054  10.186   7.459  0.7772 -0.0139  0.4618
  114MOL0     H15675  -0.071  10.096   7.300  2.8484  1.0165  0.0258
  114MOL0     H15676  -0.056   9.934   7.346  4.8915  0.8117  0.1494
  114MOL0     H15677  -0.192  10.023   7.572  0.2203  1.3553  0.1894
  114MOL0     H15678  -0.259   9.977   7.415 -0.7188  2.1318 -1.5005
  114MOL0     H15679  -0.188  10.266   7.497  0.9486  0.1858 -1.7195
  114MOL0     H15680  -0.249  10.222   7.341  1.9801  0.1281 -0.1716
  114MOL0     H15681  -0.502  10.110   7.381  2.1564 -0.8549  1.2357
  114MOL0     H15682  -0.792  10.175   7.436 -1.0427  2.6378 -1.8368
  114MOL0     H15683  -0.779  10.329   7.485 -0.7165  0.1852  1.9106
  114MOL0     H15684  -0.802  10.278   7.717  4.3868 -0.9165 -1.2839
  114MOL0     H15685  -0.935  10.201   7.642 -0.5524 -0.7244 -0.2132
  114MOL0     H15686  -0.832   9.968   7.641  0.6746  0.0889  0.3877
  114MOL0     H15687  -0.699  10.029   7.742 -0.0967  3.0153  3.2309
  114MOL0     H15688  -0.975  10.058   7.858  0.1572 -0.2949  2.0415
  114MOL0     H15689  -0.864   9.929   7.886  3.4799  0.6383 -0.6947
  114MOL0     H15690  -0.645  10.155   8.127 -0.7224  0.8873 -1.2160
  114MOL0     H15691  -0.711  10.251   8.477  3.4627  0.6881  0.6611
  114MOL0     H15692  -0.619  10.308   8.347  1.4705 -0.6018 -2.0140
  114MOL0     H15693  -0.625  10.135   8.373  0.8485  0.7550 -4.7788
  114MOL0     H15694  -1.315  10.454   8.449  1.0942  2.0012 -1.3540
  114MOL0     H15695  -1.436  10.526   8.639  0.4964  0.8933 -1.2073
  114MOL0     H15696  -1.422  10.670   8.855  2.3398  0.0807  0.7998
  114MOL0     H15697  -1.538  10.530   8.883  0.3229 -0.3790 -1.3059
  114MOL0     H15698  -1.512  10.533   9.107 -0.9337  0.5859  0.4465
  114MOL0     H15699  -1.396  10.664   9.109  1.7543 -2.6261 -0.2218
  114MOL0     H15700  -1.689  10.668   9.018 -0.4012  2.1582 -2.5874
  114MOL0     H15701  -1.589  10.813   9.008  3.8419  2.4650  3.6492
  114MOL0     H15702  -1.531  10.817   9.239 -0.9492 -1.0371  2.7162
  114MOL0     H15703  -1.615  10.667   9.284  0.4491 -0.9554 -0.0095
  114MOL0     H15704  -1.719  10.895   9.334  0.8099  0.1982 -0.5178
  114MOL0     H15705  -1.762  10.892   9.158 -1.8966  0.2751  0.8121
  114MOL0     H15706  -1.832  10.667   9.356 -0.0697  0.5148  0.8681
  114MOL0     H15707  -1.888  10.699   9.191 -0.3981 -0.8673  0.7296
  114MOL0     H15708  -1.966  10.931   9.255 -2.2988 -1.2584 -1.6619
  114MOL0     H15709  -1.922  10.898   9.422 -0.8359 -0.2424  0.3367
  114MOL0     H15710  -2.175  10.867   9.376 -0.4629  0.7835 -0.0570
  114MOL0     H15711  -2.094  10.724   9.430  1.4429  1.0491 -0.4711
  114MOL0     H15712  -1.087  10.449   8.900  2.7065 -0.8881 -2.0217
  114MOL0     H15713  -0.976  10.386   8.687  0.8707  0.7664 -6.4497
  114MOL0     H15714  -1.111  10.284   8.192  0.9846  0.3049 -2.3716
  114MOL0     H15715  -1.050  10.196   7.986 -1.1245  0.5025  0.6508
  114MOL0     H15716   0.464  10.261   8.087 -1.2788 -1.4540 -3.8280
  114MOL0     H15717   0.627  10.382   8.194 -0.9250  1.0803 -1.1426
  114MOL0     H15718   0.891  10.561   8.312  0.4962  0.2974  3.4236
  114MOL0     H15719   0.993  10.719   8.479  3.6083  2.4511  1.7048
  114MOL0     H15720   1.027  10.945   8.539  1.4764 -0.8731 -4.5672
  114MOL0     H15721   1.133  10.827   8.630  1.3058  0.2699 -0.2466
  114MOL0     H15722   1.257  11.090   8.561  2.3357  0.6495  1.8482
  114MOL0     H15723   1.308  10.979   8.676  1.0660 -3.7648 -4.0726
  114MOL0     H15724   1.168  11.180   8.787 -2.0939  0.7097 -0.1776
  114MOL0     H15725   1.044  11.129   8.688  2.7168  1.5030 -2.3647
  114MOL0     H15726   1.081  10.899   8.853  2.2698 -0.1069  0.2096
  114MOL0     H15727   0.974  11.045   8.896  0.9912  0.4735  1.8065
  114MOL0     H15728   1.213  11.031   9.207  0.0494  0.6637 -0.8663
  114MOL0     H15729   1.282  10.844   8.198  1.0580 -0.6962  0.2334
  114MOL0     H15730   1.169  10.703   7.910  0.1267  1.5455  0.3781
  114MOL0     H15731   1.314  10.737   8.013 -2.5886  3.2776  3.8004
  114MOL0     H15732   1.250  10.570   7.985 -2.3844 -0.3609 -2.5022
  115MOL0     O15733   9.612  10.632   0.101  0.5262  0.3305 -0.1910
  115MOL0     C15734   9.675  10.527   0.114  0.9090  0.3869 -0.0619
  115MOL0     O15735   9.752  10.472   0.017  0.5611  0.0733 -0.0999
  115MOL0     C15736   9.777  10.549  -0.095 -0.1921 -0.6020  0.1193
  115MOL0     C15737   9.828  10.459  -0.200 -0.9893 -0.2447 -0.8455
  115MOL0     C15738   9.841  10.506  -0.323  0.7486 -0.0786 -0.2469
  115MOL0     C15739   9.832  10.645  -0.350 -0.3111 -0.3842 -0.0766
  115MOL0     O15740   9.857  10.689  -0.479 -0.1493  0.0722 -0.5558
  115MOL0     C15741   9.997  10.679  -0.507 -0.6237  0.6210  0.2893
  115MOL0     C15742  10.024  10.634  -0.644 -0.4538  0.2423 -0.3467
  115MOL0     C15743   9.961  10.499  -0.686  0.0839  0.0984 -0.2176
  115MOL0     C15744   9.913  10.497  -0.837 -0.0964  0.3257  0.1417
  115MOL0     C15745  10.048  10.487  -0.914  0.5884  0.2779 -0.0480
  115MOL0     C15746  10.045  10.541  -1.057 -0.4478 -0.6242 -0.2695
  115MOL0     C15747  10.145  10.480  -1.163  0.1801 -0.4195 -0.5905
  115MOL0     C15748  10.303  10.497  -1.146 -0.3085 -0.1838  0.0961
  115MOL0     N15749  10.338  10.634  -1.182 -0.5124  0.6022  0.1761
  115MOL0     C15750  10.318  10.747  -1.101 -0.3209  0.5435 -0.0761
  115MOL0     C15751  10.369  10.839  -1.182  0.3049 -1.2555 -0.2674
  115MOL0     C15752  10.394  10.980  -1.133  0.0737  0.8766  0.3937
  115MOL0     C15753  10.521  10.997  -1.074 -0.2868  0.2637  0.2382
  115MOL0     C15754  10.527  10.910  -0.945  1.6283 -0.9998  0.8607
  115MOL0     C15755  10.645  10.965  -0.866  0.0137  0.8536 -0.1335
  115MOL0     O15756  10.667  10.884  -0.745 -0.2083  0.0941 -0.2353
  115MOL0     C15757  10.739  10.928  -0.637 -1.2508  0.6369 -0.9437
  115MOL0     C15758  10.748  10.834  -0.532 -1.0541  0.6727  0.1463
  115MOL0     C15759  10.821  10.866  -0.421 -0.6924 -0.2612 -0.0181
  115MOL0     C15760  10.832  10.762  -0.316 -0.1194 -0.4387 -0.0167
  115MOL0     C15761  10.876  11.001  -0.402 -0.2648  0.0713  0.2724
  115MOL0     C15762  10.924  11.062  -0.269  0.3651 -0.6039 -0.5119
  115MOL0     O15763  10.937  11.199  -0.267 -0.4252  0.9162  0.5605
  115MOL0     C15764  10.960  11.264  -0.147  0.3757  0.3904  0.4846
  115MOL0     C15765  10.871  11.268  -0.037  0.4122  0.6060  0.0745
  115MOL0     C15766  10.880  11.369   0.072 -0.7107  0.6912  0.4001
  115MOL0     C15767  10.988  11.453   0.066  0.0891 -0.0576 -0.1342
  115MOL0     O15768  11.001  11.541   0.170 -1.3890  0.2805 -0.0051
  115MOL0     C15769  11.110  11.633   0.188  0.1350  0.2019  0.1107
  115MOL0     C15770  11.209  11.566   0.276 -1.0861  0.6883 -0.1313
  115MOL0     C15771  11.329  11.660   0.300 -0.3794  0.3352  0.5871
  115MOL0     C15772  11.300  11.750   0.428  0.1862  0.5142  0.4421
  115MOL0     C15773  11.346  11.679   0.554 -0.0814 -0.5945 -0.0109
  115MOL0     C15774  11.494  11.703   0.582  0.8467  0.5071 -0.0598
  115MOL0     C15775  11.527  11.849   0.625 -0.4578 -0.7260 -1.2159
  115MOL0     C15776  11.670  11.848   0.696 -0.4979  0.7314  1.2374
  115MOL0    Cl15777  11.779  11.736   0.613  0.1896 -0.0347  0.0822
  115MOL0     C15778  11.082  11.443  -0.038 -0.7740 -0.3094 -0.2013
  115MOL0     C15779  11.067  11.345  -0.149 -0.1451 -0.2111 -0.0211
  115MOL0     O15780  10.955  10.989  -0.173 -0.4975  0.1933 -0.5281
  115MOL0     C15781  10.856  11.091  -0.510  0.2239 -0.5243 -0.8990
  115MOL0     C15782  10.788  11.055  -0.627  0.1044  1.3006  0.0257
  115MOL0     N15783  10.396  10.796  -1.308 -0.4528  0.1733  0.2427
  115MOL0     N15784  10.372  10.673  -1.309 -0.9844  0.5273 -1.5353
  115MOL0     C15785   9.788  10.734  -0.255  1.5677 -0.3171 -0.9171
  115MOL0     C15786   9.763  10.693  -0.126  0.0971 -0.1583  0.7980
  115MOL0     C15787   9.640  10.450   0.249 -0.7313 -0.3773  0.6605
  115MOL0     C15788   9.592  10.518   0.363  0.3491 -0.0390  0.7292
  115MOL0     C15789   9.584  10.449   0.485 -0.2606  0.7626 -0.4329
  115MOL0     C15790   9.601  10.314   0.497 -0.0108 -0.1135 -0.1354
  115MOL0     O15791   9.606  10.237   0.614 -0.1830  0.5994  0.5555
  115MOL0     C15792   9.562  10.290   0.741  1.0757  0.6491 -0.4282
  115MOL0     C15793   9.580  10.196   0.858 -0.1710  0.4494  0.2753
  115MOL0     C15794   9.722  10.198   0.916  0.3375  0.6277 -0.0677
  115MOL0     C15795   9.724  10.315   1.015  0.0898  0.7966  0.5196
  115MOL0     C15796   9.851  10.299   1.083  0.7928 -0.0421  0.6793
  115MOL0     C15797   9.946  10.284   1.146  1.2042  0.0949 -0.1535
  115MOL0     C15798   9.628  10.246   0.379  0.2154  0.2130  0.1854
  115MOL0     C15799   9.657  10.314   0.261  0.0532  0.3140 -0.5932
  115MOL0     C15800   9.672  10.225   0.144 -0.5651  0.1096  0.7078
  115MOL0     H15801   9.840  10.351  -0.195 -2.5991 -0.4050  1.2273
  115MOL0     H15802   9.872  10.433  -0.396  1.1045 -0.1352 -0.0421
  115MOL0     H15803  10.041  10.611  -0.433 -1.0709 -0.5005 -0.4390
  115MOL0     H15804  10.039  10.778  -0.488 -0.8354  0.3394  2.4277
  115MOL0     H15805   9.975  10.713  -0.700 -1.1277 -1.3759 -2.1344
  115MOL0     H15806  10.129  10.631  -0.675 -0.8672  0.6409 -1.8258
  115MOL0     H15807  10.024  10.414  -0.658  2.5267  0.6127 -3.5533
  115MOL0     H15808   9.865  10.485  -0.635  0.1090 -0.3034 -0.2783
  115MOL0     H15809   9.848  10.413  -0.860 -0.1394  0.6934 -1.1750
  115MOL0     H15810   9.859  10.587  -0.868  3.4820  1.9159 -2.1547
  115MOL0     H15811  10.086  10.385  -0.915 -2.3941 -0.9390 -0.3324
  115MOL0     H15812  10.132  10.532  -0.860  2.5808 -0.6037 -2.2602
  115MOL0     H15813   9.946  10.516  -1.098 -1.4614 -0.8386  2.1396
  115MOL0     H15814  10.062  10.649  -1.059  0.3880 -0.7502 -0.5204
  115MOL0     H15815  10.122  10.513  -1.264  0.6654 -1.1586 -0.9512
  115MOL0     H15816  10.127  10.372  -1.166  1.5123 -0.6510 -2.2680
  115MOL0     H15817  10.330  10.476  -1.043  0.6926 -2.3587 -0.5484
  115MOL0     H15818  10.354  10.420  -1.206 -0.8059  0.0741 -0.6747
  115MOL0     H15819  10.286  10.747  -0.997 -2.8952  0.5375 -0.7933
  115MOL0     H15820  10.329  10.992  -1.046 -2.1899 -3.1498 -0.4960
  115MOL0     H15821  10.361  11.043  -1.217 -2.8062 -2.9093 -1.6337
  115MOL0     H15822  10.600  10.963  -1.143  0.4257 -2.2881  2.1508
  115MOL0     H15823  10.545  11.103  -1.061  1.7511  0.0252 -0.9958
  115MOL0     H15824  10.435  10.926  -0.887  1.4687  1.3037  0.0633
  115MOL0     H15825  10.549  10.803  -0.956 -1.6483 -1.8923  1.8166
  115MOL0     H15826  10.738  10.983  -0.921 -1.8284  1.7099 -3.1846
  115MOL0     H15827  10.626  11.069  -0.838 -1.3440  0.5146  0.2433
  115MOL0     H15828  10.707  10.735  -0.548 -0.8605  0.8390 -1.5784
  115MOL0     H15829  10.786  10.797  -0.223  2.5252 -1.4825  1.7755
  115MOL0     H15830  10.938  10.752  -0.293  0.1533  1.9406 -0.0695
  115MOL0     H15831  10.791  10.663  -0.338 -4.3195  0.8283  1.1792
  115MOL0     H15832  10.781  11.209  -0.042  0.1857  0.8748  0.8211
  115MOL0     H15833  10.796  11.366   0.140 -1.3744  0.1072 -0.4315
  115MOL0     H15834  11.142  11.661   0.087  0.6344  1.8833  0.7079
  115MOL0     H15835  11.078  11.724   0.239 -0.5885  1.0263 -1.6951
  115MOL0     H15836  11.159  11.546   0.371 -1.9494  1.0300 -0.5077
  115MOL0     H15837  11.237  11.471   0.228  0.3032  1.5993 -1.2118
  115MOL0     H15838  11.347  11.718   0.209  2.1346 -1.1060  0.0781
  115MOL0     H15839  11.422  11.604   0.311  0.5343  1.7277  0.2723
  115MOL0     H15840  11.194  11.780   0.430  0.5708  1.9285  1.0094
  115MOL0     H15841  11.363  11.836   0.406  4.5478 -2.7260 -0.9868
  115MOL0     H15842  11.299  11.702   0.650 -0.8391 -1.5025 -0.1511
  115MOL0     H15843  11.327  11.573   0.536 -0.5658 -0.6359  0.6910
  115MOL0     H15844  11.549  11.681   0.490  1.3421 -0.1763  0.3885
  115MOL0     H15845  11.510  11.617   0.648 -0.2026 -0.9619 -1.6791
  115MOL0     H15846  11.454  11.872   0.703 -0.3810  4.2235 -2.2754
  115MOL0     H15847  11.497  11.922   0.549  0.0025 -0.5640 -1.2470
  115MOL0     H15848  11.660  11.804   0.796 -0.2630  0.7548  1.2715
  115MOL0     H15849  11.715  11.947   0.703  1.8580 -0.0605 -0.8612
  115MOL0     H15850  11.173  11.503  -0.037 -1.2704  0.5023 -1.9417
  115MOL0     H15851  11.138  11.346  -0.231  0.9481 -2.1950  0.8341
  115MOL0     H15852  10.909  11.183  -0.486  3.7379 -2.9882  1.8208
  115MOL0     H15853  10.779  11.134  -0.701 -3.4377  1.1655  0.1399
  115MOL0     H15854   9.781  10.840  -0.278 -1.6953  0.1619  1.5993
  115MOL0     H15855   9.724  10.771  -0.061 -0.4358 -0.8998  1.3817
  115MOL0     H15856   9.581  10.626   0.370  2.3440  0.3445 -0.7721
  115MOL0     H15857   9.570  10.507   0.575  1.1503  3.0212 -1.5820
  115MOL0     H15858   9.624  10.377   0.761  0.9333  0.6388  0.0710
  115MOL0     H15859   9.457  10.319   0.734  0.5508 -0.1551  2.6841
  115MOL0     H15860   9.576  10.094   0.817  2.6047 -0.3113  1.6308
  115MOL0     H15861   9.514  10.215   0.943  4.2760 -0.5159  4.3834
  115MOL0     H15862   9.755  10.110   0.971 -1.7672 -1.2184 -1.6236
  115MOL0     H15863   9.793  10.209   0.833  0.8191 -0.1498  0.2255
  115MOL0     H15864   9.647  10.311   1.092  0.9886  2.2855  1.5542
  115MOL0     H15865   9.718  10.410   0.960  0.4030  1.3653  1.4496
  115MOL0     H15866  10.023  10.259   1.216  0.4048 -1.4623  0.2226
  115MOL0     H15867   9.630  10.137   0.381  1.7717  0.2063 -0.0513
  115MOL0     H15868   9.587  10.243   0.077 -0.2193  2.5651  0.8580
  115MOL0     H15869   9.766  10.239   0.090  0.9672 -2.9906  2.3210
  115MOL0     H15870   9.674  10.124   0.186 -3.3236 -1.0605 -1.5924
  116MOL0     O15871   3.812   0.922   6.518 -0.0477 -0.7499  0.0921
  116MOL0     C15872   3.853   0.828   6.583  0.3898  0.9736  0.3866
  116MOL0     O15873   3.968   0.753   6.552 -0.0377  0.4377  0.1549
  116MOL0     C15874   4.033   0.783   6.435 -0.2753  0.0764  0.1106
  116MOL0     C15875   3.992   0.715   6.325 -0.6745 -0.4385 -0.0446
  116MOL0     C15876   4.049   0.736   6.194 -0.5106 -0.0678  0.5483
  116MOL0     C15877   4.163   0.809   6.180 -0.5591 -0.3776  0.9965
  116MOL0     O15878   4.226   0.849   6.063  0.1788 -0.4177 -0.3352
  116MOL0     C15879   4.185   0.803   5.936 -1.1986 -0.1093  1.4457
  116MOL0     C15880   4.240   0.895   5.841  0.0849  0.0098  0.9402
  116MOL0     C15881   4.188   0.850   5.701 -1.0360  0.3562  0.8901
  116MOL0     C15882   4.270   0.903   5.582 -0.3258  0.1668 -0.5568
  116MOL0     C15883   4.217   0.867   5.442  0.4081 -0.7473  0.1351
  116MOL0     C15884   4.336   0.890   5.340 -0.5398 -1.1593  0.0102
  116MOL0     C15885   4.290   0.863   5.194 -0.4143  0.3657 -0.5766
  116MOL0     C15886   4.238   0.725   5.173  0.0032  0.4025 -0.0197
  116MOL0     N15887   4.205   0.704   5.034  0.6479 -0.3104 -0.6948
  116MOL0     C15888   4.196   0.799   4.926  0.6736 -0.0748  0.3255
  116MOL0     C15889   4.134   0.738   4.834  1.0540  0.1228  0.4522
  116MOL0     C15890   4.084   0.814   4.718 -0.0197  0.7150 -0.0070
  116MOL0     C15891   3.936   0.855   4.741  1.2383 -0.1278  0.1001
  116MOL0     C15892   3.906   0.958   4.627 -0.6549 -0.2744  0.6791
  116MOL0     C15893   3.759   0.986   4.620 -0.7977  0.3657  0.5252
  116MOL0     O15894   3.709   0.986   4.750 -0.0964  0.2267 -0.4277
  116MOL0     C15895   3.589   1.051   4.772 -0.7202  0.6887 -0.1905
  116MOL0     C15896   3.473   0.975   4.767 -0.0825  0.5717  0.3613
  116MOL0     C15897   3.351   1.025   4.773 -0.5547  0.6373 -0.7803
  116MOL0     C15898   3.239   0.919   4.764  0.1979  1.0552 -0.4774
  116MOL0     C15899   3.341   1.167   4.790 -0.8521 -0.2563  0.1665
  116MOL0     C15900   3.214   1.242   4.805 -0.1354 -0.2773  0.1088
  116MOL0     O15901   3.201   1.365   4.862 -0.0639  0.2915 -0.1211
  116MOL0     C15902   3.070   1.403   4.890 -0.7706 -0.3013  0.1481
  116MOL0     C15903   2.965   1.323   4.938  0.2868  0.0096  0.4043
  116MOL0     C15904   2.834   1.377   4.953 -0.1917  0.3695 -0.0785
  116MOL0     C15905   2.804   1.511   4.935 -0.3296  0.2257 -0.3777
  116MOL0     O15906   2.681   1.575   4.957 -0.0058 -0.1074  0.7475
  116MOL0     C15907   2.581   1.497   5.030  0.7636  0.1539 -0.3213
  116MOL0     C15908   2.446   1.569   5.023 -0.2361 -0.5962  0.3954
  116MOL0     C15909   2.340   1.475   5.091 -0.1162 -0.2139  0.3005
  116MOL0     C15910   2.224   1.567   5.151 -0.6906  0.7162 -0.2914
  116MOL0     C15911   2.147   1.480   5.248  0.3031  1.1355 -0.4532
  116MOL0     C15912   2.050   1.561   5.340 -0.5201  0.7330 -0.3642
  116MOL0     C15913   1.921   1.626   5.285 -0.4608 -0.1108  0.1713
  116MOL0     C15914   1.938   1.780   5.259  0.2280 -0.3526  0.3501
  116MOL0    Cl15915   1.771   1.833   5.217 -0.0764  0.0878 -0.1628
  116MOL0     C15916   2.905   1.596   4.892 -1.4268 -0.0851  0.3997
  116MOL0     C15917   3.035   1.539   4.872  0.2020  0.1096 -0.3576
  116MOL0     O15918   3.121   1.181   4.742 -0.3735  1.4608 -0.2945
  116MOL0     C15919   3.460   1.241   4.808 -0.2222 -0.0091  0.9146
  116MOL0     C15920   3.587   1.186   4.806  0.3830  0.1200  0.9997
  116MOL0     N15921   4.114   0.603   4.868 -0.3616 -0.6298  0.1039
  116MOL0     N15922   4.157   0.585   4.991 -0.8427  0.0830  0.5016
  116MOL0     C15923   4.211   0.867   6.303  0.5345 -1.0522  0.3129
  116MOL0     C15924   4.153   0.855   6.430  0.4759  0.7038 -0.1449
  116MOL0     C15925   3.769   0.799   6.701  0.5067  0.6678 -0.0159
  116MOL0     C15926   3.841   0.749   6.816  0.4220 -0.3828  0.8042
  116MOL0     C15927   3.780   0.743   6.935  0.5213  0.0270  0.5502
  116MOL0     C15928   3.633   0.756   6.940  0.1625  0.7291  0.2169
  116MOL0     O15929   3.555   0.754   7.052 -0.0260  1.1942 -0.2924
  116MOL0     C15930   3.629   0.772   7.181  0.5930  0.4088 -0.4698
  116MOL0     C15931   3.541   0.818   7.301 -0.0179  0.8154 -0.4792
  116MOL0     C15932   3.418   0.729   7.318  0.2114  0.4449 -0.0964
  116MOL0     C15933   3.342   0.756   7.448  1.0950  0.3095 -0.8456
  116MOL0     C15934   3.299   0.897   7.481 -0.3809 -0.1802  0.3054
  116MOL0     C15935   3.269   1.016   7.516  0.9165  0.7067 -0.5938
  116MOL0     C15936   3.554   0.768   6.827 -0.0485  0.3366 -0.1607
  116MOL0     C15937   3.626   0.796   6.708  0.2253 -0.6704  0.4682
  116MOL0     C15938   3.541   0.804   6.580  0.3108 -0.4587 -0.8050
  116MOL0     H15939   3.903   0.654   6.335 -0.3837 -0.9919 -0.7268
  116MOL0     H15940   3.973   0.707   6.123 -1.8441 -4.9782  3.5001
  116MOL0     H15941   4.076   0.802   5.928 -1.3974  3.1967  2.2155
  116MOL0     H15942   4.238   0.708   5.925  0.0175  0.6605  0.3631
  116MOL0     H15943   4.213   1.000   5.855  3.5393  1.3640 -1.1655
  116MOL0     H15944   4.349   0.886   5.848  0.4803  1.4509 -1.7860
  116MOL0     H15945   4.186   0.740   5.696 -2.1024  0.4104 -0.4422
  116MOL0     H15946   4.083   0.878   5.691 -0.5703  1.6753 -0.5699
  116MOL0     H15947   4.274   1.012   5.590 -0.6825  0.0949  0.9638
  116MOL0     H15948   4.373   0.883   5.613 -0.6358  1.8964  1.8581
  116MOL0     H15949   4.135   0.933   5.412  0.8173  0.1625  0.9604
  116MOL0     H15950   4.187   0.762   5.451 -0.6274 -0.4195  0.7898
  116MOL0     H15951   4.375   0.992   5.345 -2.9534 -0.1498 -0.0869
  116MOL0     H15952   4.407   0.814   5.374 -0.7361 -1.3858 -0.0783
  116MOL0     H15953   4.378   0.880   5.131 -1.5051 -1.6420 -2.7675
  116MOL0     H15954   4.214   0.938   5.171 -0.8713  0.5502  1.3201
  116MOL0     H15955   4.306   0.645   5.202 -0.6320  0.0353  0.4840
  116MOL0     H15956   4.143   0.705   5.224 -1.6885  0.2687 -3.0033
  116MOL0     H15957   4.221   0.905   4.932  1.6804 -0.2900  0.1779
  116MOL0     H15958   4.088   0.755   4.626  1.4751 -2.8408  2.1305
  116MOL0     H15959   4.153   0.893   4.687 -0.3740  0.9300 -0.2610
  116MOL0     H15960   3.872   0.767   4.733  2.2605 -0.9450  0.7563
  116MOL0     H15961   3.919   0.905   4.837 -1.5769  0.1442 -0.4459
  116MOL0     H15962   3.972   1.045   4.640  0.1057  0.0206 -3.5505
  116MOL0     H15963   3.934   0.909   4.533 -1.5964 -0.0380  0.2633
  116MOL0     H15964   3.735   1.074   4.560  2.1868  0.4898 -0.6786
  116MOL0     H15965   3.705   0.902   4.576 -2.1912  0.3805  2.1081
  116MOL0     H15966   3.495   0.870   4.751  3.4786  1.1247  0.6935
  116MOL0     H15967   3.202   0.904   4.662 -0.4647  3.0341 -0.5762
  116MOL0     H15968   3.148   0.936   4.822 -0.0758 -3.6364  0.8402
  116MOL0     H15969   3.283   0.825   4.798 -1.8773  1.3487  3.6756
  116MOL0     H15970   2.969   1.218   4.965  1.4383 -0.0234  0.1459
  116MOL0     H15971   2.758   1.312   4.996 -0.3210  1.4012  1.2959
  116MOL0     H15972   2.578   1.399   4.980  0.4705  0.2191 -0.4298
  116MOL0     H15973   2.614   1.475   5.131 -1.1961  0.7543  0.4885
  116MOL0     H15974   2.448   1.669   5.068 -0.5466 -0.0214 -0.8216
  116MOL0     H15975   2.428   1.581   4.916  2.2827 -5.8940 -0.9128
  116MOL0     H15976   2.383   1.417   5.173 -0.3267  0.0719  0.6156
  116MOL0     H15977   2.289   1.410   5.019  0.0007  0.9346 -0.8523
  116MOL0     H15978   2.160   1.620   5.080 -1.4847 -0.8147 -0.7606
  116MOL0     H15979   2.275   1.652   5.197 -1.3681  1.1313 -0.3034
  116MOL0     H15980   2.086   1.400   5.204  0.9398 -0.2847  1.1470
  116MOL0     H15981   2.222   1.425   5.304 -1.1394 -0.7228 -0.2395
  116MOL0     H15982   2.101   1.636   5.401 -0.6012 -1.2788  2.3897
  116MOL0     H15983   2.017   1.478   5.403  0.0730 -0.1474 -1.1682
  116MOL0     H15984   1.840   1.604   5.355  1.4813  3.5938  4.0217
  116MOL0     H15985   1.897   1.570   5.194 -1.9157  2.0204 -0.8366
  116MOL0     H15986   2.003   1.799   5.173 -0.2353  0.0238  0.0820
  116MOL0     H15987   1.984   1.836   5.341 -0.2354  3.1419 -1.5902
  116MOL0     H15988   2.900   1.704   4.879 -1.8455 -0.4125 -2.8008
  116MOL0     H15989   3.110   1.613   4.845 -1.6562  2.7690  1.3208
  116MOL0     H15990   3.462   1.350   4.807  2.2859  0.0214  1.2522
  116MOL0     H15991   3.678   1.244   4.820 -1.4711  3.1103  1.5697
  116MOL0     H15992   4.291   0.940   6.312 -0.2010 -0.5069  4.3960
  116MOL0     H15993   4.199   0.902   6.516  1.3180 -3.0869  1.6788
  116MOL0     H15994   3.949   0.743   6.812  0.7108  2.9632 -3.4625
  116MOL0     H15995   3.838   0.733   7.026  0.0859  0.6268  0.8973
  116MOL0     H15996   3.670   0.673   7.201  3.7445  0.9939 -3.0743
  116MOL0     H15997   3.708   0.845   7.163  0.4166  1.1572  1.5721
  116MOL0     H15998   3.520   0.925   7.288 -0.4221  0.6338 -1.3724
  116MOL0     H15999   3.606   0.818   7.389 -1.2856  3.8039  0.6025
  116MOL0     H16000   3.357   0.752   7.230 -3.1475 -4.5157  0.5732
  116MOL0     H16001   3.433   0.621   7.320 -1.1274  0.2459  0.1469
  116MOL0     H16002   3.386   0.713   7.539 -1.8533 -1.1616  0.0404
  116MOL0     H16003   3.252   0.695   7.434  0.8281 -0.3225  2.7024
  116MOL0     H16004   3.234   1.109   7.555 -3.2267 -0.2205 -1.5988
  116MOL0     H16005   3.446   0.768   6.837  0.0412 -0.3992  1.0007
  116MOL0     H16006   3.534   0.900   6.528 -0.6824  0.2355  0.5591
  116MOL0     H16007   3.575   0.723   6.514 -0.9264 -1.8055  0.1402
  116MOL0     H16008   3.435   0.786   6.599 -0.1342  2.6115  0.2119
  117MOL0     O16009   4.393   8.334   8.511  0.0161 -0.3486  0.0578
  117MOL0     C16010   4.421   8.215   8.503  0.3776  0.3621 -0.7739
  117MOL0     O16011   4.450   8.145   8.394  0.3038 -0.0486  0.6746
  117MOL0     C16012   4.447   8.210   8.269  0.4007  0.0951  0.2230
  117MOL0     C16013   4.437   8.120   8.160  0.2297  0.2983 -1.3614
  117MOL0     C16014   4.421   8.164   8.030 -0.3560  1.0740  1.0266
  117MOL0     C16015   4.447   8.294   8.004  0.4754 -0.0557 -0.3197
  117MOL0     O16016   4.421   8.335   7.877 -0.4645 -0.3003  0.1785
  117MOL0     C16017   4.430   8.473   7.848 -1.0786 -0.6094 -0.5482
  117MOL0     C16018   4.414   8.491   7.697 -0.2396  0.6972  0.9307
  117MOL0     C16019   4.413   8.630   7.649  0.2030  0.5189  0.7185
  117MOL0     C16020   4.370   8.656   7.500  0.0889 -0.1378  0.8076
  117MOL0     C16021   4.472   8.597   7.401  0.0676 -0.0598  0.7682
  117MOL0     C16022   4.610   8.669   7.408 -0.3860  0.6637 -0.4401
  117MOL0     C16023   4.706   8.590   7.311 -0.2290 -0.9523 -0.4781
  117MOL0     C16024   4.773   8.454   7.352 -0.9898  0.1144  0.8074
  117MOL0     N16025   4.678   8.345   7.337  0.0758  0.4981  0.2766
  117MOL0     C16026   4.652   8.255   7.434 -0.4007  0.3167 -0.2113
  117MOL0     C16027   4.550   8.182   7.392 -1.1052  0.9014  0.3999
  117MOL0     C16028   4.496   8.061   7.464 -0.1852  0.1693  0.4582
  117MOL0     C16029   4.385   8.115   7.547 -0.4020 -0.7714  0.6167
  117MOL0     C16030   4.261   8.144   7.464 -1.3070  0.4878  1.5256
  117MOL0     C16031   4.138   8.203   7.546  0.3941  0.2329 -0.0372
  117MOL0     O16032   4.038   8.098   7.585 -0.4524  0.6537 -0.1051
  117MOL0     C16033   4.025   8.065   7.723  1.1666 -0.3407 -0.0211
  117MOL0     C16034   3.898   8.032   7.774 -0.3503  0.2716  0.7298
  117MOL0     C16035   3.868   8.001   7.909 -0.2835  0.2657 -1.1167
  117MOL0     C16036   3.728   7.990   7.941  0.7267 -0.3105 -0.0471
  117MOL0     C16037   3.976   8.000   8.001  0.6878  0.2538  0.1126
  117MOL0     C16038   3.960   7.960   8.148 -0.3391  1.1693 -0.9148
  117MOL0     O16039   4.078   7.932   8.218 -0.6509  0.1161 -0.6236
  117MOL0     C16040   4.073   7.861   8.328 -0.0748  0.8986  0.5203
  117MOL0     C16041   4.079   7.931   8.449 -0.8213 -0.3339 -0.3708
  117MOL0     C16042   4.092   7.853   8.566  0.4562 -0.2185  0.8687
  117MOL0     C16043   4.078   7.715   8.564  0.4524  0.6062 -0.2443
  117MOL0     O16044   4.096   7.636   8.669  0.1344  0.7592 -1.1768
  117MOL0     C16045   4.092   7.694   8.807  0.0933  0.8486 -0.1021
  117MOL0     C16046   4.071   7.576   8.904  0.0513 -0.2198  0.0428
  117MOL0     C16047   4.038   7.603   9.036 -0.9348 -0.1201  0.3271
  117MOL0     C16048   4.001   7.472   9.110  0.5986 -0.3744 -0.9331
  117MOL0     C16049   3.906   7.503   9.235 -0.2595  0.6693  0.2757
  117MOL0     C16050   3.998   7.538   9.355 -0.8009 -0.0801  0.1481
  117MOL0     C16051   3.939   7.501   9.487  0.8732 -0.4456 -0.1824
  117MOL0     C16052   3.788   7.554   9.501 -0.2105  0.3392 -0.2193
  117MOL0    Cl16053   3.753   7.551   9.675  0.4638 -0.2397 -0.3841
  117MOL0     C16054   4.050   7.654   8.442  0.8965 -0.4244  0.3546
  117MOL0     C16055   4.045   7.727   8.322 -0.0961 -0.5157  0.7216
  117MOL0     O16056   3.848   7.922   8.192 -0.0859 -0.5250 -0.0683
  117MOL0     C16057   4.111   8.036   7.945  0.6765  1.1832 -0.9960
  117MOL0     C16058   4.127   8.068   7.816 -0.3213 -0.5045  0.5499
  117MOL0     N16059   4.507   8.224   7.261  0.2629  0.8888  0.2421
  117MOL0     N16060   4.602   8.316   7.225  0.7079  0.0725  0.0444
  117MOL0     C16061   4.482   8.385   8.106  0.9250  0.5343 -0.7700
  117MOL0     C16062   4.479   8.341   8.238  0.2287  0.0333 -0.0115
  117MOL0     C16063   4.409   8.129   8.628  0.2622 -0.1776  0.6533
  117MOL0     C16064   4.389   8.192   8.758  0.6352  0.2261  0.4162
  117MOL0     C16065   4.390   8.119   8.877 -0.3504 -1.0709 -0.3096
  117MOL0     C16066   4.411   7.978   8.870  0.2784  0.6447 -0.4914
  117MOL0     O16067   4.436   7.896   8.977 -0.1994  0.6085 -0.7646
  117MOL0     C16068   4.404   7.946   9.109 -1.1564 -0.1441 -0.8220
  117MOL0     C16069   4.257   7.943   9.151 -0.8178  0.4780  0.0006
  117MOL0     C16070   4.239   7.958   9.301 -0.2840  0.4454  0.6577
  117MOL0     C16071   4.280   7.840   9.390 -0.4521 -0.8288 -0.0967
  117MOL0     C16072   4.193   7.857   9.510 -0.7096  0.5888 -0.3731
  117MOL0     C16073   4.096   7.875   9.581  0.8073 -0.5757  0.3839
  117MOL0     C16074   4.428   7.910   8.745  0.4405 -0.1380 -0.9354
  117MOL0     C16075   4.415   7.984   8.631 -0.4747  0.8240  0.7018
  117MOL0     C16076   4.429   7.897   8.513 -1.1038  0.0256  0.8652
  117MOL0     H16077   4.432   8.015   8.186  1.9976  0.9179  2.0107
  117MOL0     H16078   4.388   8.094   7.953 -3.3837  4.2662 -0.8910
  117MOL0     H16079   4.524   8.515   7.884 -1.2271 -1.2272  0.6263
  117MOL0     H16080   4.354   8.537   7.895  1.2330  2.7892 -1.0329
  117MOL0     H16081   4.491   8.428   7.651 -2.2793 -1.6973  0.5864
  117MOL0     H16082   4.317   8.446   7.675  1.2821 -1.3392 -2.3413
  117MOL0     H16083   4.345   8.684   7.715 -1.3797 -1.0436  0.4386
  117MOL0     H16084   4.508   8.679   7.673 -0.2021  2.3239 -1.0647
  117MOL0     H16085   4.271   8.613   7.485 -0.0985  0.7676 -0.7426
  117MOL0     H16086   4.358   8.764   7.490 -0.0197 -0.1084  1.2454
  117MOL0     H16087   4.433   8.594   7.299  0.4985 -2.6688  0.5898
  117MOL0     H16088   4.494   8.493   7.427  1.5042 -0.3939 -1.4837
  117MOL0     H16089   4.593   8.774   7.380  1.8888  1.1690 -0.1012
  117MOL0     H16090   4.643   8.666   7.512  1.9768 -0.9682 -1.1667
  117MOL0     H16091   4.788   8.655   7.281  0.0821 -1.3169 -0.4237
  117MOL0     H16092   4.648   8.590   7.218 -1.1695  0.0586  0.0768
  117MOL0     H16093   4.862   8.449   7.289 -0.9224 -2.1737  1.0039
  117MOL0     H16094   4.804   8.451   7.457  1.6331 -3.4655  0.1202
  117MOL0     H16095   4.700   8.262   7.531  2.4596 -0.7307 -1.4294
  117MOL0     H16096   4.582   8.019   7.518 -1.1506 -4.6576 -1.2800
  117MOL0     H16097   4.459   7.990   7.391  0.3174  0.3853 -0.0127
  117MOL0     H16098   4.347   8.043   7.620 -4.0011  0.8054  0.5000
  117MOL0     H16099   4.416   8.202   7.606  0.9791  0.0547 -1.2283
  117MOL0     H16100   4.286   8.203   7.376 -1.0318 -0.2102  1.1289
  117MOL0     H16101   4.229   8.047   7.425  4.2051 -1.2088  0.4304
  117MOL0     H16102   4.174   8.256   7.635  1.5625 -1.3551  0.4772
  117MOL0     H16103   4.091   8.277   7.481  3.3134  3.1449  0.9097
  117MOL0     H16104   3.831   8.015   7.691  1.5811 -1.2270 -0.6183
  117MOL0     H16105   3.708   8.068   8.015 -1.9918  2.1838 -3.0961
  117MOL0     H16106   3.700   7.891   7.979 -0.1904 -0.3784 -0.8580
  117MOL0     H16107   3.660   8.016   7.860  0.6126  3.2511  1.0150
  117MOL0     H16108   4.103   8.036   8.464 -3.2616 -0.0123  1.8740
  117MOL0     H16109   4.134   7.901   8.654  0.3114 -0.2787  0.9701
  117MOL0     H16110   4.180   7.755   8.832 -0.1287  1.3000 -0.4010
  117MOL0     H16111   4.002   7.755   8.819 -0.4838  0.0858 -0.4248
  117MOL0     H16112   3.984   7.522   8.864 -1.3375 -0.0907  2.6568
  117MOL0     H16113   4.152   7.502   8.906 -1.0511 -1.4604  1.3972
  117MOL0     H16114   3.954   7.673   9.037 -2.6674 -2.0653  2.5483
  117MOL0     H16115   4.131   7.641   9.080 -2.1340  3.1946  0.2948
  117MOL0     H16116   4.091   7.421   9.147 -0.3817  0.2319  2.6912
  117MOL0     H16117   3.963   7.397   9.041  1.9190 -0.7955 -1.2417
  117MOL0     H16118   3.840   7.586   9.207 -0.2734  0.8010  0.6901
  117MOL0     H16119   3.849   7.413   9.261 -1.2147  0.3485 -2.5475
  117MOL0     H16120   4.038   7.640   9.348 -0.6988 -0.1452 -0.2570
  117MOL0     H16121   4.084   7.471   9.345  1.7669  2.9618  0.1520
  117MOL0     H16122   4.007   7.530   9.569  0.3988  0.2474 -0.0212
  117MOL0     H16123   3.932   7.392   9.483  1.4253 -0.4460 -1.2879
  117MOL0     H16124   3.716   7.490   9.451 -1.0469  0.9934  0.1280
  117MOL0     H16125   3.782   7.658   9.468 -2.7526 -0.5467 -2.9720
  117MOL0     H16126   4.025   7.549   8.432  0.2014 -0.1769 -0.6663
  117MOL0     H16127   4.014   7.679   8.230 -2.0519  1.1246  0.4422
  117MOL0     H16128   4.192   8.033   8.016  0.8618  1.2464 -1.2046
  117MOL0     H16129   4.226   8.090   7.777  1.1307 -1.4376  3.4240
  117MOL0     H16130   4.511   8.486   8.078 -2.0127  0.9758 -2.6135
  117MOL0     H16131   4.501   8.412   8.318 -2.1227 -0.4302  1.1318
  117MOL0     H16132   4.376   8.299   8.766 -0.9344  0.1395 -0.5421
  117MOL0     H16133   4.390   8.174   8.970  0.6304  2.3303 -2.1507
  117MOL0     H16134   4.452   7.879   9.181  0.1641  2.1766  0.6298
  117MOL0     H16135   4.454   8.042   9.126 -0.1441 -1.0025  1.6136
  117MOL0     H16136   4.229   7.842   9.120  0.0798  0.5434 -1.1178
  117MOL0     H16137   4.211   8.022   9.091  1.4511 -0.0685 -2.6866
  117MOL0     H16138   4.294   8.050   9.320  3.4109 -1.2330 -0.9427
  117MOL0     H16139   4.132   7.976   9.314 -0.3288  2.7014 -1.8755
  117MOL0     H16140   4.385   7.822   9.416  0.0432 -2.4788 -2.7905
  117MOL0     H16141   4.236   7.753   9.340 -0.4253 -1.2452  0.5770
  117MOL0     H16142   4.030   7.905   9.660 -0.0866 -1.2931 -0.0760
  117MOL0     H16143   4.432   7.801   8.746  0.0823 -0.1530 -0.7608
  117MOL0     H16144   4.383   7.937   8.422  1.3142  0.7640 -0.0983
  117MOL0     H16145   4.537   7.897   8.498 -0.9272  4.7165  0.7019
  117MOL0     H16146   4.396   7.795   8.533 -0.4140  0.0535  2.2250
  118MOL0     O16147   8.404   0.521   3.837 -0.3137 -0.6718 -0.5168
  118MOL0     C16148   8.428   0.555   3.722  0.5078  0.1104 -0.4691
  118MOL0     O16149   8.488   0.672   3.695  1.4010 -0.2865  0.3621
  118MOL0     C16150   8.559   0.746   3.781  1.0354 -0.8231  0.1349
  118MOL0     C16151   8.687   0.711   3.829  0.7301  0.9532  0.0193
  118MOL0     C16152   8.756   0.797   3.913  0.5329  0.0650  0.7558
  118MOL0     C16153   8.714   0.932   3.940  0.1841 -0.8572  0.5602
  118MOL0     O16154   8.787   1.028   3.998 -0.0332 -0.2627  0.3155
  118MOL0     C16155   8.933   1.028   3.984  0.7746 -0.0366 -0.6604
  118MOL0     C16156   8.990   1.116   4.097 -0.8461 -0.5402  0.1592
  118MOL0     C16157   8.955   1.259   4.084 -0.6884  0.7986  0.5994
  118MOL0     C16158   8.966   1.327   4.221  0.5475 -0.1445 -1.4340
  118MOL0     C16159   8.895   1.467   4.212  0.2425  0.0839 -0.9150
  118MOL0     C16160   8.873   1.538   4.351 -0.9036  0.4789 -0.1604
  118MOL0     C16161   8.763   1.646   4.328  0.5672  0.4990  0.2699
  118MOL0     C16162   8.818   1.785   4.325 -0.1529  0.4819 -0.2435
  118MOL0     N16163   8.742   1.892   4.386  0.0405  0.3538  0.4434
  118MOL0     C16164   8.631   1.951   4.326  0.0756  0.0911  0.3851
  118MOL0     C16165   8.601   2.051   4.411  0.3352 -0.4849 -0.9374
  118MOL0     C16166   8.499   2.151   4.389 -0.9280  0.3438  1.1081
  118MOL0     C16167   8.588   2.278   4.337  0.1493  0.6390 -1.0122
  118MOL0     C16168   8.627   2.264   4.191  0.5175 -0.3150  0.7222
  118MOL0     C16169   8.714   2.381   4.148  0.6741  0.5239 -0.3260
  118MOL0     O16170   8.849   2.363   4.182 -0.1865 -0.6784 -0.0441
  118MOL0     C16171   8.918   2.473   4.229 -0.2403  0.0244  0.5634
  118MOL0     C16172   8.887   2.610   4.238  0.3014 -0.6939 -0.0634
  118MOL0     C16173   8.972   2.712   4.286 -0.6209 -0.6667  0.9760
  118MOL0     C16174   8.914   2.853   4.298  0.3247  0.6672 -0.6454
  118MOL0     C16175   9.100   2.675   4.328 -0.3998  0.7240 -0.1951
  118MOL0     C16176   9.192   2.772   4.373  0.9840  0.0117 -0.2638
  118MOL0     O16177   9.148   2.876   4.448  0.2293  1.0400  0.8166
  118MOL0     C16178   9.231   2.955   4.527  0.0198 -0.0037 -0.7050
  118MOL0     C16179   9.181   2.993   4.656 -0.5765  0.1677  1.1944
  118MOL0     C16180   9.249   3.072   4.748 -0.1498  1.0246 -0.2396
  118MOL0     C16181   9.370   3.124   4.711  0.4197 -0.7151 -0.2661
  118MOL0     O16182   9.422   3.219   4.793 -0.1408 -0.0990  0.1753
  118MOL0     C16183   9.566   3.210   4.822 -0.0153  0.1465 -0.3786
  118MOL0     C16184   9.597   3.084   4.903 -0.1796 -0.3101 -0.9990
  118MOL0     C16185   9.754   3.051   4.914 -0.2879 -0.3710 -0.9302
  118MOL0     C16186   9.825   3.147   5.010 -0.2028  0.2792  0.1411
  118MOL0     C16187   9.963   3.110   5.062  0.7605 -0.5894  0.5423
  118MOL0     C16188  10.056   3.069   4.952 -0.0227 -0.3265 -0.7402
  118MOL0     C16189  10.207   3.051   4.996  0.7032 -0.1376 -1.0130
  118MOL0     C16190  10.301   3.034   4.883  0.4051  0.2017  0.0842
  118MOL0    Cl16191  10.459   2.963   4.940  0.3937  0.5546 -0.6381
  118MOL0     C16192   9.422   3.098   4.579 -0.5975  0.5278 -0.4797
  118MOL0     C16193   9.359   3.003   4.498  0.6773 -0.0159  1.1818
  118MOL0     O16194   9.311   2.738   4.372 -0.3036  0.2529 -0.7944
  118MOL0     C16195   9.140   2.540   4.308  0.6137 -0.9263 -0.1921
  118MOL0     C16196   9.049   2.448   4.260  0.2116  0.0592 -0.1365
  118MOL0     N16197   8.687   2.057   4.523 -0.3531  0.1610  0.5724
  118MOL0     N16198   8.781   1.966   4.494  0.1007  0.0465  0.3135
  118MOL0     C16199   8.591   0.971   3.889  0.3975 -0.8292  0.4540
  118MOL0     C16200   8.510   0.878   3.810 -0.3002  0.1128  0.5588
  118MOL0     C16201   8.366   0.482   3.610 -0.8307 -1.1318 -0.5993
  118MOL0     C16202   8.281   0.366   3.645  0.1593  0.3324  0.3699
  118MOL0     C16203   8.205   0.302   3.543 -0.4443  0.0609  0.9914
  118MOL0     C16204   8.219   0.335   3.410 -0.4734  0.4513 -0.6437
  118MOL0     O16205   8.168   0.259   3.311 -0.3701 -0.8901  0.4107
  118MOL0     C16206   8.097   0.140   3.339 -0.0631  0.0454 -0.3930
  118MOL0     C16207   8.036   0.104   3.205 -0.1084  0.5815 -0.0695
  118MOL0     C16208   8.129   0.016   3.109  0.1816 -0.2373  0.3159
  118MOL0     C16209   8.112   0.039   2.966 -1.2994 -0.0850 -0.2377
  118MOL0     C16210   7.975  -0.002   2.919 -0.6091 -0.2768 -0.8377
  118MOL0     C16211   7.867  -0.042   2.887 -0.5427  1.2246  0.4677
  118MOL0     C16212   8.307   0.440   3.374 -0.1213  0.0777 -0.0705
  118MOL0     C16213   8.369   0.526   3.468  1.0383  0.8397  0.5081
  118MOL0     C16214   8.445   0.645   3.410  1.0680  0.1187  0.2386
  118MOL0     H16215   8.714   0.609   3.803 -1.0586  0.3578  0.3777
  118MOL0     H16216   8.848   0.748   3.945  0.3225 -0.0249  1.2346
  118MOL0     H16217   8.962   1.060   3.883  1.2073  0.9731 -0.2248
  118MOL0     H16218   8.971   0.928   4.007  1.4887  0.7875  2.1643
  118MOL0     H16219   8.949   1.083   4.194  1.2908 -1.7200  0.7210
  118MOL0     H16220   9.099   1.116   4.093 -0.8566  1.2081 -0.8365
  118MOL0     H16221   9.018   1.309   4.010  0.6381 -1.1282  0.3608
  118MOL0     H16222   8.856   1.266   4.037  0.5471 -1.3761 -2.6549
  118MOL0     H16223   8.915   1.276   4.304 -0.0906  2.6205  0.0152
  118MOL0     H16224   9.069   1.342   4.257  0.4906  0.7425 -1.6053
  118MOL0     H16225   8.800   1.442   4.164  0.7318 -2.7079 -0.6193
  118MOL0     H16226   8.943   1.528   4.136 -0.0132  1.1296 -0.2661
  118MOL0     H16227   8.835   1.461   4.419  1.0137  1.8435  2.6489
  118MOL0     H16228   8.967   1.575   4.393  0.6902 -1.1652 -2.0079
  118MOL0     H16229   8.698   1.624   4.414 -1.9565  2.0918 -1.1002
  118MOL0     H16230   8.703   1.634   4.238  1.9393  1.4192 -0.7942
  118MOL0     H16231   8.914   1.787   4.378 -0.9454  3.1756  1.3231
  118MOL0     H16232   8.845   1.812   4.222  4.3434 -1.0697  0.2861
  118MOL0     H16233   8.595   1.934   4.225  0.6154  1.3872 -0.0437
  118MOL0     H16234   8.450   2.189   4.480  0.5325  0.8574  1.7054
  118MOL0     H16235   8.437   2.107   4.310  1.1687 -1.4489  0.3737
  118MOL0     H16236   8.521   2.364   4.350 -2.7319 -1.7118  1.3887
  118MOL0     H16237   8.675   2.302   4.398  0.1737  0.9661 -1.1679
  118MOL0     H16238   8.701   2.183   4.191  0.4065 -0.6399 -3.4015
  118MOL0     H16239   8.540   2.247   4.128  1.4681  2.5349 -1.5875
  118MOL0     H16240   8.710   2.369   4.039 -0.5856 -2.4361 -0.0400
  118MOL0     H16241   8.672   2.477   4.181  1.0002 -0.4954  3.4466
  118MOL0     H16242   8.792   2.652   4.206  0.8416  0.3304 -0.3736
  118MOL0     H16243   8.985   2.922   4.252  1.4370 -0.2321 -0.3106
  118MOL0     H16244   8.899   2.881   4.402  1.0803  3.7105 -1.2572
  118MOL0     H16245   8.818   2.868   4.247 -0.7328  0.8951  1.3446
  118MOL0     H16246   9.074   2.980   4.669 -0.9967 -0.7395 -2.0486
  118MOL0     H16247   9.200   3.099   4.841  3.2050  0.7388  1.7742
  118MOL0     H16248   9.618   3.215   4.725  0.7195 -0.5419 -0.0252
  118MOL0     H16249   9.584   3.294   4.890 -0.7329  0.8352 -1.0093
  118MOL0     H16250   9.564   3.094   5.007  2.3243 -1.2453 -0.0476
  118MOL0     H16251   9.537   3.004   4.860  2.8173 -1.3520 -3.6267
  118MOL0     H16252   9.793   3.067   4.812 -2.4290 -0.1332 -1.7629
  118MOL0     H16253   9.768   2.947   4.945 -2.4654  0.3370  2.9668
  118MOL0     H16254   9.752   3.162   5.090 -0.6916 -0.0433 -0.2399
  118MOL0     H16255   9.841   3.239   4.952  1.8549  0.4512  0.8894
  118MOL0     H16256   9.995   3.201   5.115 -0.5263  0.2642 -0.0959
  118MOL0     H16257   9.953   3.024   5.128 -0.2726 -1.6249 -0.9181
  118MOL0     H16258  10.052   3.160   4.891  0.8686  1.6386  1.8979
  118MOL0     H16259  10.019   2.982   4.899 -1.1156 -1.0865  1.1629
  118MOL0     H16260  10.213   2.965   5.064 -0.6757 -0.0137 -0.6985
  118MOL0     H16261  10.237   3.144   5.046  2.9620 -1.0609 -0.5568
  118MOL0     H16262  10.316   3.134   4.841  1.1886 -0.8607 -2.3170
  118MOL0     H16263  10.248   2.973   4.809  2.2614 -2.5776  0.9054
  118MOL0     H16264   9.516   3.150   4.563 -0.6843  1.7560  2.2931
  118MOL0     H16265   9.403   2.969   4.405 -2.8298  1.9057 -1.4155
  118MOL0     H16266   9.243   2.510   4.321  1.2138 -0.1405 -2.7064
  118MOL0     H16267   9.085   2.346   4.254 -3.4390 -1.4430  0.5778
  118MOL0     H16268   8.547   1.068   3.912 -2.2402 -1.9406  0.4327
  118MOL0     H16269   8.407   0.905   3.788 -0.2832  0.8496  1.3184
  118MOL0     H16270   8.265   0.334   3.748 -0.3762  0.5018  0.3401
  118MOL0     H16271   8.129   0.234   3.581  2.2962 -2.0507  3.1959
  118MOL0     H16272   8.161   0.054   3.360  1.4658  1.1802 -0.2447
  118MOL0     H16273   8.011   0.146   3.407 -0.0773  0.5468 -0.4520
  118MOL0     H16274   7.993   0.189   3.152 -1.0737 -0.2693 -0.6862
  118MOL0     H16275   7.950   0.042   3.230 -0.2025  0.8050  0.1671
  118MOL0     H16276   8.233   0.038   3.135  0.2487 -0.1044 -0.0540
  118MOL0     H16277   8.118  -0.092   3.123 -0.7235 -0.1674  0.2128
  118MOL0     H16278   8.176  -0.027   2.907 -0.6142  0.0347  0.3526
  118MOL0     H16279   8.144   0.141   2.945 -4.9466  1.3803  0.6341
  118MOL0     H16280   7.774  -0.079   2.847 -0.0624  1.1235 -0.5751
  118MOL0     H16281   8.305   0.468   3.269  0.0986  3.6118  0.7367
  118MOL0     H16282   8.548   0.619   3.383  0.9941 -0.0240  0.0928
  118MOL0     H16283   8.408   0.675   3.312  0.9135 -6.0480 -1.9800
  118MOL0     H16284   8.451   0.732   3.477  1.9458  0.3625 -0.1354
  119MOL0     O16285   0.983  11.450   5.947 -0.1881  0.2903  0.0430
  119MOL0     C16286   0.865  11.434   5.923  0.8792  0.6049  0.2499
  119MOL0     O16287   0.815  11.441   5.791 -0.0435  0.0262  0.4821
  119MOL0     C16288   0.903  11.410   5.684 -0.1459 -0.0284 -0.1530
  119MOL0     C16289   0.876  11.287   5.606 -0.1605 -0.1055 -0.3970
  119MOL0     C16290   0.967  11.242   5.509  0.5073 -0.6792  0.4005
  119MOL0     C16291   1.076  11.316   5.469  0.1450 -0.4413 -0.7913
  119MOL0     O16292   1.170  11.283   5.379 -0.5281  0.2922  0.4588
  119MOL0     C16293   1.145  11.161   5.311  0.0550  0.7296 -0.5664
  119MOL0     C16294   1.239  11.132   5.192 -1.2444  0.4814  0.1351
  119MOL0     C16295   1.220  11.225   5.075  0.0367  0.1500 -0.4238
  119MOL0     C16296   1.340  11.236   4.980  0.4980  0.7615  0.2770
  119MOL0     C16297   1.361  11.373   4.909  0.5741  0.8538  0.3155
  119MOL0     C16298   1.476  11.374   4.803  0.1751  0.2394 -0.5529
  119MOL0     C16299   1.435  11.302   4.678 -0.6415  1.1392  0.6972
  119MOL0     C16300   1.535  11.336   4.561  0.0395 -0.3265 -0.2336
  119MOL0     N16301   1.499  11.467   4.516  1.2793  0.2154 -0.1963
  119MOL0     C16302   1.376  11.514   4.492 -0.0107 -2.0013  0.6243
  119MOL0     C16303   1.395  11.647   4.438 -0.0735 -0.6746 -0.0980
  119MOL0     C16304   1.285  11.747   4.380 -1.0466  0.0632  0.3335
  119MOL0     C16305   1.293  11.876   4.451 -0.0536 -0.2388 -1.0089
  119MOL0     C16306   1.174  11.970   4.424 -0.0256  0.7990 -0.7571
  119MOL0     C16307   1.074  11.973   4.544 -0.2856 -0.1433  0.3727
  119MOL0     O16308   1.145  12.006   4.672  0.3639  0.5095  0.8409
  119MOL0     C16309   1.064  12.051   4.772 -0.6982 -0.2669  0.4611
  119MOL0     C16310   0.925  12.021   4.786 -0.7995 -0.3103  0.5166
  119MOL0     C16311   0.852  12.088   4.890 -0.1172 -0.7052 -0.3282
  119MOL0     C16312   0.714  12.030   4.919 -0.3528 -0.0730 -1.2112
  119MOL0     C16313   0.910  12.192   4.972 -0.3024 -0.6195  0.7533
  119MOL0     C16314   0.842  12.260   5.081  0.5637  0.2536 -0.4354
  119MOL0     O16315   0.922  12.295   5.192  0.1542 -0.1882  0.8627
  119MOL0     C16316   0.866  12.348   5.307 -0.7640  0.7017 -0.6295
  119MOL0     C16317   0.801  12.269   5.406 -0.7063  0.5073  0.9627
  119MOL0     C16318   0.767  12.321   5.529 -0.1243 -1.1351  0.1471
  119MOL0     C16319   0.803  12.451   5.570 -0.2445  0.2035 -0.2188
  119MOL0     O16320   0.763  12.482   5.698 -0.1263 -0.2556  0.6387
  119MOL0     C16321   0.809  12.608   5.756 -0.8889  0.1192  0.0618
  119MOL0     C16322   0.779  12.604   5.909 -0.9781 -1.1316  0.2663
  119MOL0     C16323   0.874  12.701   5.986  0.0915 -0.8304  0.3401
  119MOL0     C16324   0.862  12.676   6.145  0.5709  0.2184  0.6677
  119MOL0     C16325   0.993  12.699   6.223  1.0567 -0.2174 -0.0013
  119MOL0     C16326   1.054  12.842   6.208  0.2660  0.6928  0.4737
  119MOL0     C16327   0.961  12.953   6.270 -0.4333  0.5345  0.0000
  119MOL0     C16328   1.035  13.088   6.286  0.7626  0.0603  0.0067
  119MOL0    Cl16329   1.055  13.179   6.127  0.7047  0.1759  0.0287
  119MOL0     C16330   0.869  12.531   5.471 -0.0351 -0.9800  0.0853
  119MOL0     C16331   0.901  12.478   5.341  0.8318  0.4792 -0.0413
  119MOL0     O16332   0.728  12.300   5.062  0.0694 -0.1781  0.1655
  119MOL0     C16333   1.044  12.221   4.943 -0.2393  0.4116  0.3749
  119MOL0     C16334   1.115  12.142   4.851 -0.5184  0.0140  0.1859
  119MOL0     N16335   1.533  11.662   4.443  0.6062 -0.2370  0.1276
  119MOL0     N16336   1.585  11.566   4.498 -0.0484  0.1569  0.6898
  119MOL0     C16337   1.099  11.435   5.536  0.4068  0.3676 -0.8571
  119MOL0     C16338   1.023  11.476   5.653  0.3835 -0.5021  0.8756
  119MOL0     C16339   0.763  11.418   6.033 -0.8353 -0.3560  0.0288
  119MOL0     C16340   0.653  11.506   6.024 -0.1971  0.9717 -0.2275
  119MOL0     C16341   0.540  11.476   6.098 -0.5623 -0.7365 -1.0472
  119MOL0     C16342   0.530  11.372   6.192 -0.9768 -0.0760  0.5319
  119MOL0     O16343   0.421  11.330   6.252 -0.2164 -0.6684 -0.1499
  119MOL0     C16344   0.332  11.430   6.308  0.0967  0.9352  0.2254
  119MOL0     C16345   0.402  11.490   6.434  1.0825  0.0086  0.7952
  119MOL0     C16346   0.324  11.604   6.497  0.2711  0.1294 -0.7381
  119MOL0     C16347   0.394  11.743   6.495  0.2501  0.4555  0.4712
  119MOL0     C16348   0.319  11.815   6.595 -0.0779 -0.3590  0.2490
  119MOL0     C16349   0.241  11.870   6.669 -0.5469  0.9391  0.6823
  119MOL0     C16350   0.640  11.291   6.215 -0.0077 -0.4667  1.2699
  119MOL0     C16351   0.759  11.324   6.144  0.6803 -0.3362  0.3226
  119MOL0     C16352   0.878  11.230   6.169  0.3654  0.4392  0.5069
  119MOL0     H16353   0.780  11.240   5.628  0.4202 -1.8134 -1.3305
  119MOL0     H16354   0.940  11.151   5.457 -0.3656  0.5599 -1.4086
  119MOL0     H16355   1.043  11.164   5.272 -0.7226  3.5703  1.3515
  119MOL0     H16356   1.164  11.087   5.390  0.2289  0.2115 -1.0866
  119MOL0     H16357   1.344  11.126   5.223 -1.5460  0.3559  1.1756
  119MOL0     H16358   1.230  11.028   5.161  1.6522 -0.2345  1.3376
  119MOL0     H16359   1.127  11.198   5.025  0.3059 -1.4415 -0.0951
  119MOL0     H16360   1.206  11.330   5.103  2.1072  0.5466 -0.7354
  119MOL0     H16361   1.438  11.200   5.015  1.6797  1.4921 -2.0815
  119MOL0     H16362   1.312  11.159   4.907 -0.4877 -1.7945  3.1287
  119MOL0     H16363   1.378  11.451   4.984  1.6431 -0.4449  1.4843
  119MOL0     H16364   1.266  11.388   4.858 -0.4709  2.1901  2.5217
  119MOL0     H16365   1.494  11.479   4.780  4.9477 -0.8553 -2.9924
  119MOL0     H16366   1.563  11.325   4.846 -1.0784 -0.6563  1.1070
  119MOL0     H16367   1.331  11.313   4.646 -0.3251 -1.4638 -1.7162
  119MOL0     H16368   1.452  11.194   4.689 -2.9568  0.3822 -1.8050
  119MOL0     H16369   1.641  11.323   4.586  0.7100 -2.3548 -3.4830
  119MOL0     H16370   1.518  11.267   4.478  2.5408 -0.1396 -0.9961
  119MOL0     H16371   1.280  11.462   4.498 -0.6844 -0.6333  3.1559
  119MOL0     H16372   1.185  11.702   4.382  0.0864 -2.7836 -1.4682
  119MOL0     H16373   1.315  11.768   4.277  2.1652 -1.5440  0.8275
  119MOL0     H16374   1.319  11.868   4.557 -1.6219 -0.4046 -0.6042
  119MOL0     H16375   1.385  11.923   4.415  1.2168 -0.3970  1.7268
  119MOL0     H16376   1.218  12.070   4.417 -1.4043  1.7862  2.7227
  119MOL0     H16377   1.117  11.949   4.333 -1.6819  3.0031 -0.3140
  119MOL0     H16378   0.994  12.045   4.524 -1.0971 -0.9988  0.4817
  119MOL0     H16379   1.028  11.875   4.555  2.5134 -1.8305 -1.5873
  119MOL0     H16380   0.887  11.944   4.720  3.4215 -1.6337 -0.7151
  119MOL0     H16381   0.728  11.937   4.976 -2.2165  0.7670  0.7764
  119MOL0     H16382   0.665  11.991   4.830 -0.5282  1.6745 -1.9267
  119MOL0     H16383   0.652  12.097   4.979 -0.0954 -0.0563 -0.9567
  119MOL0     H16384   0.783  12.167   5.373  0.1083  1.2522 -2.0001
  119MOL0     H16385   0.719  12.265   5.609 -0.3264  1.8420  2.2715
  119MOL0     H16386   0.915  12.633   5.741 -0.6362 -0.1347  1.3017
  119MOL0     H16387   0.755  12.689   5.707 -1.6485 -1.2699 -1.5155
  119MOL0     H16388   0.674  12.629   5.930 -0.8521  3.0483 -2.6281
  119MOL0     H16389   0.800  12.504   5.946 -1.5636 -1.6104 -0.6417
  119MOL0     H16390   0.854  12.807   5.965  0.3023 -1.0346 -0.9278
  119MOL0     H16391   0.971  12.677   5.941  0.1049  0.4823 -0.4096
  119MOL0     H16392   0.823  12.575   6.161 -0.1369  0.0889 -1.5688
  119MOL0     H16393   0.798  12.752   6.191  1.9131  0.4133  2.2838
  119MOL0     H16394   0.977  12.692   6.331  3.6923 -2.1701  0.3661
  119MOL0     H16395   1.062  12.616   6.207  2.3792  0.3627  2.2004
  119MOL0     H16396   1.090  12.862   6.106  1.8955 -2.2404  0.3586
  119MOL0     H16397   1.148  12.835   6.263  0.3869  1.5573  0.3911
  119MOL0     H16398   0.937  12.925   6.373 -2.6144  1.7716 -0.1171
  119MOL0     H16399   0.868  12.965   6.214  0.1255 -1.8592 -1.5859
  119MOL0     H16400   1.126  13.052   6.333  0.1235 -3.4404 -1.1938
  119MOL0     H16401   0.974  13.142   6.360  0.3494 -0.2911 -0.0767
  119MOL0     H16402   0.889  12.636   5.489 -0.6160  0.0989 -4.2825
  119MOL0     H16403   0.968  12.529   5.273 -0.6782 -1.2408 -3.0521
  119MOL0     H16404   1.099  12.295   5.000  1.5028 -1.3329  1.0576
  119MOL0     H16405   1.219  12.158   4.824 -0.3827 -0.5775  0.3528
  119MOL0     H16406   1.194  11.488   5.524 -1.2266  4.9520  3.2854
  119MOL0     H16407   1.055  11.568   5.701  2.7058 -1.4499  1.2634
  119MOL0     H16408   0.644  11.590   5.956 -2.7242  0.4340 -0.6681
  119MOL0     H16409   0.462  11.546   6.071  1.4470  0.7060 -3.6545
  119MOL0     H16410   0.327  11.517   6.241 -0.2993  0.8490  0.1407
  119MOL0     H16411   0.232  11.397   6.336 -1.3885  1.1561 -4.0026
  119MOL0     H16412   0.498  11.531   6.402  1.2665 -0.9341  0.0754
  119MOL0     H16413   0.428  11.412   6.507  1.4475 -1.7163 -1.0727
  119MOL0     H16414   0.236  11.619   6.433  0.7452  0.5881 -1.2949
  119MOL0     H16415   0.289  11.575   6.596  0.3758 -1.5547 -1.1606
  119MOL0     H16416   0.377  11.788   6.396  1.6575 -2.1207 -1.0630
  119MOL0     H16417   0.499  11.750   6.526 -0.1831  0.6380  1.9616
  119MOL0     H16418   0.171  11.906   6.742  0.6703  1.4675  1.6235
  119MOL0     H16419   0.638  11.212   6.290 -3.3252 -2.1047 -0.3260
  119MOL0     H16420   0.846  11.170   6.255 -0.9325  2.1527  1.2925
  119MOL0     H16421   0.905  11.167   6.084 -0.5547 -1.7870  1.7833
  119MOL0     H16422   0.967  11.291   6.188 -1.2978  2.6224  1.7879
  120MOL0     O16423   9.400   1.120   5.209 -0.0196  0.8000 -0.6006
  120MOL0     C16424   9.521   1.132   5.207 -0.4814  0.0701  0.0031
  120MOL0     O16425   9.602   1.161   5.094 -0.0514 -0.1535  0.1429
  120MOL0     C16426   9.538   1.172   4.976  0.2611  0.2923 -0.2771
  120MOL0     C16427   9.511   1.298   4.915  0.4149  0.0668 -0.7573
  120MOL0     C16428   9.436   1.313   4.799  1.2289  0.9161 -0.6415
  120MOL0     C16429   9.381   1.197   4.750 -0.5391 -0.2169  0.7024
  120MOL0     O16430   9.298   1.203   4.640  0.2131 -0.5870 -0.1236
  120MOL0     C16431   9.180   1.116   4.642  0.2283 -1.1048  0.6281
  120MOL0     C16432   9.072   1.183   4.726  0.0501 -0.1690 -0.0541
  120MOL0     C16433   8.991   1.263   4.634  0.1036 -1.5514  0.2036
  120MOL0     C16434   8.910   1.370   4.708 -0.0877 -0.1920 -0.3122
  120MOL0     C16435   9.000   1.488   4.730 -0.2183 -0.7594 -0.3188
  120MOL0     C16436   8.925   1.594   4.805 -1.1099  0.5227 -0.5182
  120MOL0     C16437   9.015   1.725   4.806 -0.8321 -0.2534  0.6543
  120MOL0     C16438   9.133   1.719   4.912 -0.0450 -0.0403  0.0072
  120MOL0     N16439   9.192   1.853   4.931 -0.0051  0.3938 -0.2879
  120MOL0     C16440   9.307   1.891   4.860 -0.2159  1.3437  0.1633
  120MOL0     C16441   9.344   2.015   4.895 -0.1549  0.0557 -0.2132
  120MOL0     C16442   9.444   2.117   4.837  0.3761 -0.0307 -0.0179
  120MOL0     C16443   9.586   2.121   4.902 -0.6466 -0.8124  0.1463
  120MOL0     C16444   9.687   2.220   4.822  0.1451  1.1172  0.9549
  120MOL0     C16445   9.825   2.234   4.891 -0.2905 -0.0387  1.0500
  120MOL0     O16446   9.932   2.308   4.817  1.0870  0.6330  0.8303
  120MOL0     C16447  10.031   2.361   4.888  0.4903 -0.3369  0.6569
  120MOL0     C16448  10.076   2.490   4.862  1.0720  0.1727 -0.5807
  120MOL0     C16449  10.185   2.556   4.929 -0.9213 -0.3107  0.6246
  120MOL0     C16450  10.216   2.705   4.900 -0.0108 -0.6597  0.4078
  120MOL0     C16451  10.254   2.464   5.012 -0.1533  0.7944 -0.7923
  120MOL0     C16452  10.377   2.508   5.088 -0.3164  1.2068 -0.0876
  120MOL0     O16453  10.423   2.429   5.191  0.3643  0.2032  0.1343
  120MOL0     C16454  10.541   2.465   5.252 -0.0152 -0.5557  0.2861
  120MOL0     C16455  10.662   2.454   5.175 -0.7612  0.3127  0.1020
  120MOL0     C16456  10.785   2.485   5.237  0.5210 -0.1473  0.4872
  120MOL0     C16457  10.795   2.505   5.373  0.1415  1.0292  0.6405
  120MOL0     O16458  10.920   2.521   5.417 -0.2064  0.6907 -0.7207
  120MOL0     C16459  10.950   2.568   5.550 -0.3139 -0.6405  0.2322
  120MOL0     C16460  11.098   2.563   5.577 -0.2686 -0.0166  0.4420
  120MOL0     C16461  11.126   2.606   5.724  0.1305 -0.2346 -0.2542
  120MOL0     C16462  11.282   2.613   5.755  0.1880 -0.4139 -0.3780
  120MOL0     C16463  11.334   2.634   5.895 -0.4344  0.0606  1.0821
  120MOL0     C16464  11.250   2.734   5.973  0.5384  0.2262  1.0608
  120MOL0     C16465  11.336   2.793   6.083 -0.5968  0.6515  0.3074
  120MOL0     C16466  11.241   2.886   6.157 -0.0652 -0.8635 -0.4523
  120MOL0    Cl16467  11.173   3.007   6.044 -0.1765 -0.2636  0.2433
  120MOL0     C16468  10.680   2.516   5.458 -0.0890  0.6446  0.0151
  120MOL0     C16469  10.557   2.487   5.387 -0.0223  0.0311  0.1022
  120MOL0     O16470  10.435   2.613   5.050 -0.1590  0.5656  0.1864
  120MOL0     C16471  10.218   2.331   5.029  0.2327  0.2204 -0.1940
  120MOL0     C16472  10.103   2.277   4.963 -0.6601 -0.6184 -0.9186
  120MOL0     N16473   9.261   2.043   5.002 -0.5689  0.1334  0.6081
  120MOL0     N16474   9.168   1.956   5.022  0.1370  0.2883 -0.1532
  120MOL0     C16475   9.426   1.071   4.795  0.4928 -0.6869  0.1958
  120MOL0     C16476   9.504   1.056   4.912 -0.4308  1.2429  0.8052
  120MOL0     C16477   9.603   1.137   5.333  0.3962  0.1663  0.2052
  120MOL0     C16478   9.596   1.019   5.415 -0.1347  0.4237  0.0879
  120MOL0     C16479   9.664   1.012   5.533 -0.0856  0.2648  1.0220
  120MOL0     C16480   9.731   1.123   5.575  0.1193 -0.9269 -0.3743
  120MOL0     O16481   9.799   1.119   5.692  0.6200 -0.6199  0.2542
  120MOL0     C16482   9.862   1.227   5.761 -0.2816 -0.0101  0.0521
  120MOL0     C16483   9.926   1.174   5.886  0.7186  1.3500 -1.2472
  120MOL0     C16484  10.075   1.128   5.879  0.0531  0.3395  0.6495
  120MOL0     C16485  10.137   1.112   6.026 -0.1236  0.9887  0.3201
  120MOL0     C16486  10.082   0.992   6.079 -0.6668  0.8026 -1.0493
  120MOL0     C16487  10.026   0.897   6.135  0.0911  0.2615 -0.5907
  120MOL0     C16488   9.745   1.235   5.496 -0.5372  0.3773  0.3422
  120MOL0     C16489   9.693   1.240   5.368  1.4000  0.1041 -0.8331
  120MOL0     C16490   9.698   1.363   5.283  0.5573  0.0897 -0.1353
  120MOL0     H16491   9.529   1.390   4.970 -1.7950 -1.2907  2.5628
  120MOL0     H16492   9.399   1.408   4.761  0.0397  0.0305 -1.7546
  120MOL0     H16493   9.206   1.017   4.680  3.1374 -0.6755  0.0235
  120MOL0     H16494   9.139   1.090   4.544  0.4238 -2.4693  0.8918
  120MOL0     H16495   9.020   1.100   4.774  2.2273 -2.3551 -1.2987
  120MOL0     H16496   9.121   1.251   4.797 -0.4040  0.2642 -0.1559
  120MOL0     H16497   9.042   1.314   4.552 -4.7738  2.7850 -0.6553
  120MOL0     H16498   8.926   1.189   4.585  0.5800 -0.1404 -2.7551
  120MOL0     H16499   8.816   1.397   4.658 -1.7823 -1.5543  1.9208
  120MOL0     H16500   8.875   1.340   4.808 -0.5947  0.1459 -0.3891
  120MOL0     H16501   9.021   1.532   4.633  1.2006  0.4613  0.4961
  120MOL0     H16502   9.096   1.467   4.779  0.1240 -0.2588 -0.7697
  120MOL0     H16503   8.825   1.602   4.761 -0.8023  0.2133 -1.2709
  120MOL0     H16504   8.913   1.564   4.910  2.4634  0.8183  0.1019
  120MOL0     H16505   8.972   1.819   4.842  4.3519  1.8947  2.2234
  120MOL0     H16506   9.044   1.748   4.703 -2.1457  1.8348  0.6867
  120MOL0     H16507   9.090   1.671   5.000  1.3607  0.0354  0.7670
  120MOL0     H16508   9.215   1.652   4.883  0.0595 -0.9458  2.2000
  120MOL0     H16509   9.338   1.832   4.775 -1.7157 -2.3092  1.8945
  120MOL0     H16510   9.400   2.216   4.845  1.0467  0.4326 -1.6381
  120MOL0     H16511   9.465   2.094   4.731  1.2380 -3.8245  0.8015
  120MOL0     H16512   9.574   2.162   5.003 -0.6245 -1.1671  0.2923
  120MOL0     H16513   9.635   2.024   4.917  1.2453  0.0462 -0.1754
  120MOL0     H16514   9.708   2.178   4.723  2.3354  0.5921  1.5716
  120MOL0     H16515   9.654   2.323   4.807  0.5328  1.3914  1.9268
  120MOL0     H16516   9.807   2.262   4.995 -1.0966 -2.0973  1.5236
  120MOL0     H16517   9.869   2.136   4.910  0.3969 -0.9140 -3.7531
  120MOL0     H16518  10.011   2.540   4.791  0.4636 -1.7591 -1.4497
  120MOL0     H16519  10.214   2.759   4.995 -0.5746  1.3304 -0.6704
  120MOL0     H16520  10.141   2.749   4.833  0.6939 -2.1670 -1.4476
  120MOL0     H16521  10.308   2.709   4.842 -1.5963 -1.6872 -2.3779
  120MOL0     H16522  10.659   2.431   5.069 -2.4133  2.4508 -0.3929
  120MOL0     H16523  10.877   2.475   5.181 -0.3969 -1.1184 -0.9176
  120MOL0     H16524  10.904   2.666   5.560 -1.0270 -1.0496  1.1500
  120MOL0     H16525  10.898   2.496   5.615  2.2136 -0.3745  2.7315
  120MOL0     H16526  11.147   2.466   5.559 -1.1087  0.0256 -2.6973
  120MOL0     H16527  11.134   2.636   5.503 -1.1620  1.4777  1.4319
  120MOL0     H16528  11.066   2.550   5.796  0.7858 -1.7415 -0.8392
  120MOL0     H16529  11.093   2.710   5.731 -2.4636 -0.8387 -1.9868
  120MOL0     H16530  11.316   2.699   5.697 -1.6943  0.5321 -0.1632
  120MOL0     H16531  11.322   2.517   5.722  6.0270  1.5406 -0.1100
  120MOL0     H16532  11.323   2.543   5.955 -3.8991  0.9647  2.0924
  120MOL0     H16533  11.440   2.660   5.901  0.2099 -1.4697 -1.8113
  120MOL0     H16534  11.153   2.692   6.002 -0.3627  3.3580  3.1813
  120MOL0     H16535  11.230   2.804   5.891  1.4635 -2.1144 -1.3290
  120MOL0     H16536  11.419   2.846   6.036 -0.4999  0.8663  0.7145
  120MOL0     H16537  11.371   2.709   6.143  1.4222 -0.1399 -1.8107
  120MOL0     H16538  11.303   2.933   6.234  2.5230 -4.9671  0.2553
  120MOL0     H16539  11.165   2.825   6.207  1.5611 -0.9882  2.0853
  120MOL0     H16540  10.677   2.545   5.562 -1.6151  1.1944 -0.1570
  120MOL0     H16541  10.470   2.489   5.452  1.0144  2.3294  1.5679
  120MOL0     H16542  10.284   2.261   5.080  0.2049  2.0317  2.5209
  120MOL0     H16543  10.073   2.174   4.979 -1.7766 -0.1927 -0.1547
  120MOL0     H16544   9.410   0.974   4.749  1.3769 -0.2836 -0.9988
  120MOL0     H16545   9.524   0.957   4.952 -2.0182  0.7065  0.3496
  120MOL0     H16546   9.536   0.932   5.387 -2.1681  1.4299  1.0539
  120MOL0     H16547   9.666   0.932   5.607 -3.4341 -1.9819 -1.0445
  120MOL0     H16548   9.946   1.264   5.702 -0.7633  4.2873  1.7022
  120MOL0     H16549   9.791   1.308   5.778  0.0875  0.1882  0.6584
  120MOL0     H16550   9.873   1.083   5.914 -0.4766  1.6094 -2.5366
  120MOL0     H16551   9.917   1.248   5.965 -3.3943 -0.1005 -0.1327
  120MOL0     H16552  10.086   1.033   5.827  0.0660 -0.6890  2.4721
  120MOL0     H16553  10.140   1.202   5.831  1.7185 -1.8208 -0.5908
  120MOL0     H16554  10.124   1.199   6.090  1.1467  1.0889  0.4687
  120MOL0     H16555  10.246   1.111   6.019  0.0271 -1.0672  1.9181
  120MOL0     H16556   9.972   0.831   6.199 -1.4192  1.6107 -0.4097
  120MOL0     H16557   9.795   1.321   5.538  0.1651  0.0827  0.1204
  120MOL0     H16558   9.783   1.346   5.217  1.3058 -0.1779  0.8692
  120MOL0     H16559   9.607   1.398   5.233 -0.8755  1.0867  2.8955
  120MOL0     H16560   9.737   1.451   5.336  1.3638  0.0973 -0.7212
  121MOL0     O16561   0.398   0.226   3.768  0.4254  0.8145  0.1409
  121MOL0     C16562   0.478   0.316   3.784  0.9055  0.2988  0.5456
  121MOL0     O16563   0.610   0.307   3.749 -0.3015  0.3870  0.3299
  121MOL0     C16564   0.672   0.189   3.730 -0.2817  0.5829 -0.8111
  121MOL0     C16565   0.733   0.155   3.620 -0.0638 -0.5041 -0.3921
  121MOL0     C16566   0.808   0.033   3.605 -0.4562  1.0028  0.0504
  121MOL0     C16567   0.811  -0.052   3.720 -0.3715 -0.1668 -0.6887
  121MOL0     O16568   0.881  -0.169   3.723 -0.0078  1.3544  0.4811
  121MOL0     C16569   0.926  -0.214   3.587  0.1332 -0.1236 -0.5330
  121MOL0     C16570   0.988  -0.347   3.628  0.1046  0.7081 -0.5927
  121MOL0     C16571   1.049  -0.413   3.509 -0.2209  0.0018 -0.5378
  121MOL0     C16572   1.076  -0.564   3.527  0.2732  0.0965  0.3891
  121MOL0     C16573   1.181  -0.628   3.435 -0.8554 -1.0972  0.3956
  121MOL0     C16574   1.165  -0.616   3.280  0.4715 -0.0416  0.2901
  121MOL0     C16575   1.272  -0.650   3.183 -0.3337  0.1884 -0.6096
  121MOL0     C16576   1.378  -0.534   3.180 -0.0088  0.0836 -0.3287
  121MOL0     N16577   1.468  -0.542   3.300 -0.4077 -0.0631 -0.7215
  121MOL0     C16578   1.547  -0.651   3.320 -0.3202 -0.1334 -0.6765
  121MOL0     C16579   1.629  -0.610   3.428 -0.7127 -0.3313  0.8141
  121MOL0     C16580   1.745  -0.685   3.493 -0.3414  0.0652 -0.7399
  121MOL0     C16581   1.787  -0.813   3.414 -0.0611 -0.1562 -0.3925
  121MOL0     C16582   1.889  -0.900   3.481 -0.2965  0.5794  0.7919
  121MOL0     C16583   1.901  -1.044   3.420  0.5602  0.0422 -0.5347
  121MOL0     O16584   2.027  -1.103   3.445 -0.3063 -0.8969 -0.0773
  121MOL0     C16585   2.142  -1.046   3.392  0.2817  0.4033 -0.9353
  121MOL0     C16586   2.145  -0.991   3.263  0.2807  0.0204  0.2951
  121MOL0     C16587   2.268  -0.966   3.198 -0.1286 -0.5456 -0.1161
  121MOL0     C16588   2.275  -0.922   3.050  0.4525 -0.6088 -0.4342
  121MOL0     C16589   2.388  -0.990   3.271 -0.4248 -0.2649 -0.7477
  121MOL0     C16590   2.527  -0.964   3.219 -0.7422 -0.0932 -0.8960
  121MOL0     O16591   2.633  -0.999   3.306 -1.0830  1.2735  0.0290
  121MOL0     C16592   2.771  -0.994   3.283  0.0027  0.8668  0.2651
  121MOL0     C16593   2.851  -1.064   3.376  0.1788  0.6949  0.3328
  121MOL0     C16594   2.993  -1.056   3.366  0.4686  0.3062 -0.8289
  121MOL0     C16595   3.053  -0.971   3.277  0.3113  1.2012 -0.6411
  121MOL0     O16596   3.187  -0.944   3.289  0.4193 -0.3861 -0.9571
  121MOL0     C16597   3.228  -0.867   3.401 -0.4775  0.2592  0.4407
  121MOL0     C16598   3.346  -0.954   3.462 -0.2652  0.4082  1.3052
  121MOL0     C16599   3.432  -0.891   3.557 -0.8485  0.2595 -0.0433
  121MOL0     C16600   3.521  -1.001   3.632  0.3436  0.0123  0.1011
  121MOL0     C16601   3.604  -0.954   3.745 -0.8070 -0.3683 -0.5627
  121MOL0     C16602   3.704  -0.836   3.723 -0.6005 -0.4560 -0.5674
  121MOL0     C16603   3.818  -0.870   3.620 -0.2573  0.1214  0.3819
  121MOL0     C16604   3.941  -0.777   3.647  0.1467  0.0872 -0.2436
  121MOL0    Cl16605   4.066  -0.820   3.530 -0.2085  0.6305  0.2253
  121MOL0     C16606   2.972  -0.910   3.187 -0.3247  0.0140 -0.3840
  121MOL0     C16607   2.832  -0.926   3.177 -0.4480 -0.0006 -0.1009
  121MOL0     O16608   2.544  -0.936   3.102 -0.6054 -0.3522 -0.3638
  121MOL0     C16609   2.382  -1.042   3.405 -0.1301  0.1247  1.0623
  121MOL0     C16610   2.264  -1.062   3.460  0.3701 -0.4325  0.6936
  121MOL0     N16611   1.589  -0.484   3.469  0.4371 -0.2337 -1.1380
  121MOL0     N16612   1.499  -0.436   3.384  0.0856 -0.2907  0.1227
  121MOL0     C16613   0.747  -0.019   3.842  0.0208 -0.0233  0.7688
  121MOL0     C16614   0.684   0.107   3.844 -0.2207  0.0937  0.4658
  121MOL0     C16615   0.454   0.438   3.845  0.2387 -0.4081  0.5252
  121MOL0     C16616   0.557   0.501   3.925  0.6252 -0.2337  0.6834
  121MOL0     C16617   0.543   0.633   3.970 -0.5020  1.0726  0.9054
  121MOL0     C16618   0.425   0.705   3.962  0.2231  0.7162  0.1451
  121MOL0     O16619   0.411   0.813   4.038 -0.9974 -0.4733 -0.0149
  121MOL0     C16620   0.364   0.781   4.168  0.1270  0.6882  0.3324
  121MOL0     C16621   0.204   0.746   4.166 -0.1146  0.1578 -0.0579
  121MOL0     C16622   0.164   0.709   4.312 -0.7028 -0.5557 -0.2164
  121MOL0     C16623   0.005   0.685   4.325 -0.5833  0.0747 -0.6685
  121MOL0     C16624  -0.079   0.790   4.270 -1.0267 -0.8439 -0.6231
  121MOL0     C16625  -0.154   0.879   4.246 -0.2883  0.5303  0.3728
  121MOL0     C16626   0.313   0.646   3.891 -0.7350 -0.0736 -0.9913
  121MOL0     C16627   0.330   0.516   3.826 -0.4297 -0.5464 -0.8390
  121MOL0     C16628   0.206   0.467   3.753 -0.2152  0.7939 -0.0299
  121MOL0     H16629   0.709   0.216   3.533 -0.2970 -1.8319 -1.2932
  121MOL0     H16630   0.846  -0.001   3.509 -1.2846 -1.4608  0.5053
  121MOL0     H16631   1.006  -0.150   3.549 -3.3626  2.9183 -3.5999
  121MOL0     H16632   0.847  -0.217   3.512 -0.8730  1.2790  0.4160
  121MOL0     H16633   1.069  -0.327   3.699 -1.3637  3.8490  0.3798
  121MOL0     H16634   0.917  -0.416   3.675  2.6946  0.0634  2.7961
  121MOL0     H16635   0.973  -0.397   3.432 -1.8466  1.3926  1.2496
  121MOL0     H16636   1.143  -0.368   3.479  1.6657 -4.7490 -2.7172
  121MOL0     H16637   1.110  -0.582   3.629  0.0598  1.0881  0.6435
  121MOL0     H16638   0.974  -0.598   3.504  1.0555 -0.8930 -1.8125
  121MOL0     H16639   1.178  -0.734   3.463  1.4340 -1.3777 -0.2032
  121MOL0     H16640   1.278  -0.591   3.470 -0.7130 -1.3429  0.2685
  121MOL0     H16641   1.083  -0.677   3.241 -0.5089  1.8296 -0.7647
  121MOL0     H16642   1.142  -0.510   3.262  0.5765 -0.0146  0.3178
  121MOL0     H16643   1.229  -0.660   3.083 -2.4622  0.4607  0.2340
  121MOL0     H16644   1.318  -0.744   3.215 -0.0983  0.9566  1.4838
  121MOL0     H16645   1.432  -0.544   3.085  1.3632 -0.6693  0.5047
  121MOL0     H16646   1.333  -0.436   3.162 -0.6926 -0.3802 -1.2462
  121MOL0     H16647   1.539  -0.748   3.273 -0.4037  1.3018 -3.9001
  121MOL0     H16648   1.737  -0.724   3.595  5.2941  2.3070  0.9924
  121MOL0     H16649   1.831  -0.618   3.500 -0.2152 -0.0157 -1.4808
  121MOL0     H16650   1.693  -0.859   3.385 -0.8829  1.2673 -0.0637
  121MOL0     H16651   1.835  -0.792   3.318  0.0155 -1.7764 -0.7514
  121MOL0     H16652   1.986  -0.851   3.463 -0.5280  0.2363 -1.6398
  121MOL0     H16653   1.863  -0.912   3.587  1.5775 -1.9594  1.0395
  121MOL0     H16654   1.811  -1.094   3.457  1.0743 -0.4449  0.0702
  121MOL0     H16655   1.879  -1.038   3.313 -2.3943 -0.0688 -0.0220
  121MOL0     H16656   2.051  -0.968   3.215  1.0389 -1.9060 -2.2961
  121MOL0     H16657   2.334  -0.834   3.025 -0.2761  0.3086  0.9230
  121MOL0     H16658   2.173  -0.905   3.017 -0.5762 -2.9417  1.2503
  121MOL0     H16659   2.316  -1.008   2.997  0.8294 -0.6196 -0.1396
  121MOL0     H16660   2.812  -1.136   3.447  1.9339  0.2342  0.8550
  121MOL0     H16661   3.063  -1.116   3.423  1.8996  1.2357 -1.5530
  121MOL0     H16662   3.269  -0.779   3.352  0.1430 -0.5150 -0.4685
  121MOL0     H16663   3.164  -0.831   3.482 -1.6091  4.9461 -2.1693
  121MOL0     H16664   3.303  -1.050   3.492 -0.4674  0.3379  0.8019
  121MOL0     H16665   3.412  -0.993   3.384  0.4585 -0.3516  2.2809
  121MOL0     H16666   3.363  -0.840   3.625 -2.2950  2.1138 -2.6781
  121MOL0     H16667   3.499  -0.811   3.525  1.5490 -1.2006  1.0291
  121MOL0     H16668   3.583  -1.055   3.560 -1.9249 -0.2235 -1.8027
  121MOL0     H16669   3.450  -1.071   3.678 -0.4692  1.1306  0.6072
  121MOL0     H16670   3.539  -0.912   3.823 -2.8469  0.4701 -2.6003
  121MOL0     H16671   3.650  -1.043   3.788  0.6030  0.7590  0.3797
  121MOL0     H16672   3.751  -0.802   3.816  2.7527 -0.4747 -2.1229
  121MOL0     H16673   3.642  -0.756   3.681  0.6158 -0.3071 -2.1808
  121MOL0     H16674   3.783  -0.859   3.517  0.1745  2.7286  0.4614
  121MOL0     H16675   3.863  -0.969   3.635 -0.7866 -0.3374 -0.8841
  121MOL0     H16676   3.984  -0.795   3.747 -1.9721 -1.0509  0.5226
  121MOL0     H16677   3.913  -0.672   3.643  1.8305  0.7329  2.2625
  121MOL0     H16678   3.021  -0.851   3.111 -1.9873  0.6680 -1.0134
  121MOL0     H16679   2.768  -0.869   3.111 -2.5601  0.3308  2.0677
  121MOL0     H16680   2.466  -1.037   3.473  0.4954  1.9353  0.2009
  121MOL0     H16681   2.261  -1.104   3.560  1.7641 -2.2461  0.0294
  121MOL0     H16682   0.742  -0.079   3.932  0.7932 -0.4037  0.5766
  121MOL0     H16683   0.659   0.155   3.938 -1.3603 -0.4651  0.4617
  121MOL0     H16684   0.653   0.455   3.945  0.0444 -2.2844 -0.9616
  121MOL0     H16685   0.628   0.685   4.013 -0.1893  3.6885 -2.4133
  121MOL0     H16686   0.416   0.699   4.220  0.1391  1.7252  2.0233
  121MOL0     H16687   0.384   0.869   4.230  2.3803  0.9536 -0.6786
  121MOL0     H16688   0.170   0.678   4.088  3.2509  0.8467 -2.3727
  121MOL0     H16689   0.158   0.843   4.147 -1.1139 -0.4050 -0.5703
  121MOL0     H16690   0.204   0.609   4.335  1.2014 -0.2206 -1.7569
  121MOL0     H16691   0.205   0.783   4.380 -1.5404  1.0552 -1.4020
  121MOL0     H16692  -0.008   0.671   4.432  4.4435  0.0920  0.2191
  121MOL0     H16693  -0.022   0.592   4.274 -0.5037 -2.3191  3.2465
  121MOL0     H16694  -0.204   0.968   4.211  0.9707  0.8871 -0.6352
  121MOL0     H16695   0.220   0.700   3.882 -0.5026  1.0533  2.1793
  121MOL0     H16696   0.201   0.464   3.644 -2.3844 -3.4615 -0.0366
  121MOL0     H16697   0.194   0.360   3.771 -0.4557  0.8496  0.1445
  121MOL0     H16698   0.116   0.517   3.789 -1.5755 -1.2587 -0.4167
  122MOL0     O16699   2.316   9.159   2.161  0.5390  0.1337  0.6895
  122MOL0     C16700   2.327   9.235   2.065 -0.6285 -0.1280 -0.4313
  122MOL0     O16701   2.243   9.328   2.028  0.6368 -0.1019 -0.8016
  122MOL0     C16702   2.116   9.338   2.082  0.6804 -0.8950 -0.3526
  122MOL0     C16703   2.034   9.227   2.077 -1.3698  0.3024 -0.9080
  122MOL0     C16704   1.902   9.232   2.120  1.3447 -0.1752 -0.2970
  122MOL0     C16705   1.848   9.348   2.167 -0.1012 -0.4608 -0.3057
  122MOL0     O16706   1.720   9.378   2.212 -0.2240  0.1977  0.7978
  122MOL0     C16707   1.620   9.277   2.208  0.2933 -0.9577  0.8398
  122MOL0     C16708   1.510   9.318   2.289  0.2242 -0.1392  0.6824
  122MOL0     C16709   1.424   9.421   2.236  0.3674 -0.1268  0.3469
  122MOL0     C16710   1.460   9.565   2.282  1.1171  0.5493 -0.5858
  122MOL0     C16711   1.356   9.666   2.236  0.1943  0.0921  0.4454
  122MOL0     C16712   1.403   9.811   2.207  0.8229  0.3543 -0.1353
  122MOL0     C16713   1.291   9.897   2.132  0.0571 -0.5207 -0.2483
  122MOL0     C16714   1.348  10.030   2.077 -0.0314 -0.7487 -0.1654
  122MOL0     N16715   1.472  10.021   1.996  0.5770 -0.1782 -0.4639
  122MOL0     C16716   1.599  10.054   2.042  0.5545  0.7448 -0.1124
  122MOL0     C16717   1.665  10.065   1.929 -0.4615  0.2059 -0.3000
  122MOL0     C16718   1.816  10.094   1.928 -0.0386 -0.7025 -0.0787
  122MOL0     C16719   1.881  10.089   1.785  0.2338  0.1158 -0.2320
  122MOL0     C16720   1.888   9.947   1.732 -0.3391  0.8597  0.9381
  122MOL0     C16721   1.969   9.932   1.602  1.1018 -0.5925  0.5102
  122MOL0     O16722   1.976   9.795   1.560  0.8543  0.0842 -0.1542
  122MOL0     C16723   1.969   9.782   1.416  0.4393 -0.0667 -0.0531
  122MOL0     C16724   1.855   9.726   1.355 -0.1588 -0.2836  0.4633
  122MOL0     C16725   1.854   9.717   1.209  0.1258  0.2761  0.0491
  122MOL0     C16726   1.725   9.674   1.135 -0.8924  0.6718  0.5963
  122MOL0     C16727   1.964   9.759   1.137  0.5655  0.0355  0.7935
  122MOL0     C16728   1.971   9.777   0.990  0.0986  0.5548  0.3357
  122MOL0     O16729   1.951   9.659   0.912  0.4680  0.6135  0.1777
  122MOL0     C16730   1.928   9.652   0.777  0.0863 -0.5217 -0.5045
  122MOL0     C16731   1.896   9.743   0.676  0.2061 -1.2337 -0.9058
  122MOL0     C16732   1.855   9.705   0.553  0.5758  0.0465 -0.1557
  122MOL0     C16733   1.864   9.571   0.513 -0.3759  0.0376  1.2804
  122MOL0     O16734   1.848   9.522   0.387  0.1379 -0.8078  0.7789
  122MOL0     C16735   1.834   9.622   0.290 -0.9338 -0.8519 -0.5750
  122MOL0     C16736   1.814   9.578   0.150 -0.6099  0.4408 -0.6796
  122MOL0     C16737   1.720   9.463   0.126  0.9846 -0.3529  0.0398
  122MOL0     C16738   1.665   9.442  -0.015  0.0873 -0.7236 -0.2759
  122MOL0     C16739   1.601   9.305  -0.019  0.6601 -0.5837 -0.8199
  122MOL0     C16740   1.484   9.280  -0.117 -0.4401 -0.3037  0.4578
  122MOL0     C16741   1.376   9.398  -0.110  0.3591  0.2429  0.0026
  122MOL0     C16742   1.252   9.364  -0.196 -0.6266  0.2497 -0.8374
  122MOL0    Cl16743   1.189   9.519  -0.271 -0.9852  0.3404 -0.0304
  122MOL0     C16744   1.901   9.481   0.607  0.6384  0.6537 -0.3731
  122MOL0     C16745   1.926   9.519   0.732 -0.3926  0.0632 -0.7771
  122MOL0     O16746   2.009   9.884   0.940 -0.3763 -0.3918  0.0730
  122MOL0     C16747   2.074   9.803   1.206  0.8690 -0.6186  0.3389
  122MOL0     C16748   2.071   9.809   1.341  0.4671 -0.6160 -0.2873
  122MOL0     N16749   1.586  10.034   1.815 -0.3834  0.3743 -0.2807
  122MOL0     N16750   1.471  10.025   1.864 -0.0369  1.0864  0.0939
  122MOL0     C16751   1.941   9.454   2.196 -0.1978 -0.3066 -0.7442
  122MOL0     C16752   2.068   9.449   2.147 -0.0592 -0.0040  0.0877
  122MOL0     C16753   2.443   9.216   1.982  0.2749  0.2043  0.9031
  122MOL0     C16754   2.507   9.328   1.930  1.1692 -0.1107  0.7085
  122MOL0     C16755   2.627   9.319   1.856 -0.1942  0.8715  0.9146
  122MOL0     C16756   2.698   9.196   1.838  0.3725  0.3215 -0.8333
  122MOL0     O16757   2.819   9.186   1.779  0.8415  0.0423 -0.0865
  122MOL0     C16758   2.855   9.075   1.703 -1.4958  0.5334 -0.4510
  122MOL0     C16759   2.995   9.036   1.745 -0.6093 -0.0686 -0.8595
  122MOL0     C16760   3.086   9.156   1.705  0.1876  0.3629 -0.1723
  122MOL0     C16761   3.218   9.127   1.773  0.5724  0.2973  0.7922
  122MOL0     C16762   3.313   9.241   1.758  0.1471 -0.0829 -0.7036
  122MOL0     C16763   3.375   9.351   1.763  0.3128  0.5905 -0.2127
  122MOL0     C16764   2.636   9.086   1.901 -0.8109  0.0289 -0.1628
  122MOL0     C16765   2.504   9.092   1.953  0.7487  0.2534  0.5489
  122MOL0     C16766   2.435   8.958   1.967 -0.1113 -0.4582  0.3735
  122MOL0     H16767   2.078   9.131   2.054  3.3893  1.9911  0.1121
  122MOL0     H16768   1.839   9.151   2.085 -1.2027  2.5955 -2.6348
  122MOL0     H16769   1.655   9.178   2.239 -1.8972 -2.5684 -1.4247
  122MOL0     H16770   1.580   9.257   2.108 -1.4992  0.1179  1.3033
  122MOL0     H16771   1.444   9.231   2.296 -0.0872 -0.1399 -1.5352
  122MOL0     H16772   1.551   9.351   2.385 -1.6670  0.2098  1.4222
  122MOL0     H16773   1.422   9.406   2.128  2.4618 -2.4441  0.5418
  122MOL0     H16774   1.321   9.403   2.269 -0.2481 -0.9668 -1.8376
  122MOL0     H16775   1.461   9.576   2.390 -1.1209 -2.1852 -0.1744
  122MOL0     H16776   1.556   9.578   2.232  0.0698 -1.4577 -3.4241
  122MOL0     H16777   1.288   9.679   2.321  1.4524  3.7233  1.0406
  122MOL0     H16778   1.304   9.633   2.146 -2.3428 -0.0283  1.8331
  122MOL0     H16779   1.441   9.859   2.297  1.0683  0.2596 -0.1879
  122MOL0     H16780   1.493   9.793   2.147  0.1832 -2.8154 -0.2930
  122MOL0     H16781   1.214   9.918   2.207 -1.9069  1.1064 -2.5377
  122MOL0     H16782   1.244   9.835   2.055 -0.2083 -0.5152 -0.0932
  122MOL0     H16783   1.262  10.078   2.029 -0.7038  0.1991  1.8933
  122MOL0     H16784   1.377  10.095   2.159 -0.7772  0.6739 -0.9953
  122MOL0     H16785   1.632  10.074   2.143 -0.1272 -1.0517  0.4974
  122MOL0     H16786   1.861  10.017   1.991  2.5889 -0.4346 -1.4755
  122MOL0     H16787   1.832  10.192   1.975 -0.2687 -0.9938  0.6175
  122MOL0     H16788   1.825  10.156   1.718  0.4172  0.7194  0.2050
  122MOL0     H16789   1.978  10.141   1.782 -0.3484  1.4634  2.0238
  122MOL0     H16790   1.936   9.883   1.807  2.7117  0.4189 -1.2142
  122MOL0     H16791   1.796   9.895   1.703 -0.5451  2.2908 -1.2011
  122MOL0     H16792   1.924   9.999   1.528  1.8531 -1.6552 -0.9485
  122MOL0     H16793   2.073   9.964   1.616  0.6394  2.6840 -2.2609
  122MOL0     H16794   1.764   9.695   1.404 -0.2428 -0.4832  0.1817
  122MOL0     H16795   1.655   9.616   1.197 -0.7993  0.6115  0.6453
  122MOL0     H16796   1.752   9.603   1.055  0.4646 -1.0465  2.4761
  122MOL0     H16797   1.659   9.753   1.097 -2.8868 -1.4509 -0.6777
  122MOL0     H16798   1.876   9.849   0.689 -1.4883 -1.1831 -3.2276
  122MOL0     H16799   1.808   9.774   0.483  1.1841  1.8117  1.0929
  122MOL0     H16800   1.749   9.687   0.313  0.9762  1.9392 -0.9911
  122MOL0     H16801   1.920   9.689   0.286 -0.4386 -1.3048  1.3449
  122MOL0     H16802   1.785   9.659   0.082  0.4937 -0.6071 -2.4939
  122MOL0     H16803   1.913   9.546   0.113 -1.1012 -2.0352 -0.0635
  122MOL0     H16804   1.633   9.475   0.191 -0.2331  1.7305 -1.8414
  122MOL0     H16805   1.775   9.374   0.159  2.2187 -0.6894 -2.6008
  122MOL0     H16806   1.749   9.432  -0.084  1.0685  0.6436  0.6861
  122MOL0     H16807   1.601   9.528  -0.036  2.9066  1.9313  1.2582
  122MOL0     H16808   1.680   9.229  -0.020  3.3100  1.9938 -2.3187
  122MOL0     H16809   1.551   9.302   0.078 -0.0319  1.1608 -1.0960
  122MOL0     H16810   1.439   9.183  -0.094 -1.2059 -0.2368 -0.7111
  122MOL0     H16811   1.535   9.273  -0.213  1.2191  3.9250  0.8003
  122MOL0     H16812   1.414   9.483  -0.168 -0.1164  0.9468  0.7042
  122MOL0     H16813   1.357   9.425  -0.006  1.7165  2.0772 -0.1649
  122MOL0     H16814   1.183   9.315  -0.127 -0.9345  3.9534  1.7319
  122MOL0     H16815   1.278   9.299  -0.280  0.0324 -1.2104  0.4436
  122MOL0     H16816   1.898   9.377   0.578 -1.1917  0.7293 -0.5722
  122MOL0     H16817   1.951   9.440   0.801  4.0806 -0.5241 -2.7351
  122MOL0     H16818   2.160   9.826   1.144 -0.4050 -0.6756 -1.5165
  122MOL0     H16819   2.160   9.852   1.387 -1.1596  0.7108  1.7872
  122MOL0     H16820   1.903   9.534   2.259 -1.1771 -1.7282  0.5532
  122MOL0     H16821   2.137   9.532   2.153 -2.1800  1.7990  0.8116
  122MOL0     H16822   2.468   9.424   1.962  1.7334  0.0135  1.0232
  122MOL0     H16823   2.662   9.407   1.802 -1.6375  0.6541 -0.4630
  122MOL0     H16824   2.785   8.991   1.699 -1.3195  0.4044 -3.6133
  122MOL0     H16825   2.862   9.104   1.597 -0.5711 -1.6996 -1.0590
  122MOL0     H16826   3.013   8.938   1.700 -0.3695 -1.1047  1.3679
  122MOL0     H16827   2.996   9.029   1.854  1.4738 -0.2068 -0.8549
  122MOL0     H16828   3.094   9.172   1.597 -0.6708  2.7041  0.0634
  122MOL0     H16829   3.054   9.254   1.742  3.6945  2.2898 -1.7361
  122MOL0     H16830   3.260   9.043   1.716  2.5360  0.4731  1.9002
  122MOL0     H16831   3.210   9.113   1.881  2.3504 -0.0459  0.9069
  122MOL0     H16832   3.429   9.442   1.778 -1.9497  2.0361 -0.3444
  122MOL0     H16833   2.682   8.988   1.912  0.8071  1.0771  4.3048
  122MOL0     H16834   2.442   8.914   1.868 -0.1107  0.1603  0.0957
  122MOL0     H16835   2.482   8.888   2.037 -3.9009 -1.4981  2.1246
  122MOL0     H16836   2.331   8.959   1.999 -0.5287 -0.4989 -0.9611
  123MOL0     O16837   6.300   8.696   8.228  0.3509 -0.8821 -0.2492
  123MOL0     C16838   6.397   8.667   8.165 -0.0489 -0.0271  1.1794
  123MOL0     O16839   6.468   8.743   8.073  1.2379 -1.0078  0.3826
  123MOL0     C16840   6.417   8.862   8.048 -0.2261 -0.8379 -0.5028
  123MOL0     C16841   6.497   8.970   8.072 -0.6528  0.2749 -0.2013
  123MOL0     C16842   6.455   9.104   8.045 -0.4991 -0.0898 -0.3077
  123MOL0     C16843   6.328   9.129   8.006 -0.1719  0.0378  0.4594
  123MOL0     O16844   6.312   9.269   8.001  0.0635  0.0530  0.4117
  123MOL0     C16845   6.184   9.306   8.042 -0.3391  1.0041  0.6720
  123MOL0     C16846   6.097   9.323   7.921  0.1125 -0.4929  0.6158
  123MOL0     C16847   5.952   9.375   7.956  0.5786 -0.0470  1.1736
  123MOL0     C16848   5.862   9.248   7.952  1.2270 -0.3501  0.3268
  123MOL0     C16849   5.709   9.282   7.982 -1.2289  1.2450 -0.1450
  123MOL0     C16850   5.625   9.320   7.877 -0.4666 -0.1016  0.7009
  123MOL0     C16851   5.476   9.324   7.901  0.6402  0.0562  0.5531
  123MOL0     C16852   5.397   9.416   7.799 -0.2306  0.0701 -0.0116
  123MOL0     N16853   5.267   9.457   7.857  0.1761  0.2674 -0.0989
  123MOL0     C16854   5.265   9.544   7.970 -0.3544 -0.2769  0.5870
  123MOL0     C16855   5.134   9.550   8.005  0.4556 -0.2174 -0.5684
  123MOL0     C16856   5.080   9.645   8.108  0.3984  0.8310  0.4226
  123MOL0     C16857   4.943   9.705   8.075  0.0669  0.0636  0.0903
  123MOL0     C16858   4.944   9.797   7.946 -0.2162  0.2860 -0.1777
  123MOL0     C16859   4.831   9.895   7.944  0.6652 -0.5891  0.3871
  123MOL0     O16860   4.698   9.845   7.932 -0.1735 -0.3366  0.0235
  123MOL0     C16861   4.657   9.794   7.811  0.9841 -0.7509 -0.1255
  123MOL0     C16862   4.692   9.664   7.765 -0.0665  0.2556  0.5637
  123MOL0     C16863   4.659   9.620   7.637 -0.1231  0.2951 -0.3275
  123MOL0     C16864   4.688   9.471   7.601 -0.9666  0.0401 -0.4038
  123MOL0     C16865   4.584   9.701   7.553  0.5644  0.5833  0.0084
  123MOL0     C16866   4.531   9.672   7.421  0.0928  0.2425  0.2487
  123MOL0     O16867   4.606   9.720   7.322 -0.0650 -0.5281 -0.5169
  123MOL0     C16868   4.551   9.713   7.200 -0.3703  0.1945 -0.5096
  123MOL0     C16869   4.538   9.590   7.134 -0.5010 -0.0400 -0.5213
  123MOL0     C16870   4.483   9.584   7.007 -0.2619 -0.3103  0.5558
  123MOL0     C16871   4.457   9.701   6.936  0.4087 -0.0317 -0.6250
  123MOL0     O16872   4.396   9.675   6.819 -0.3944  0.4726 -0.5088
  123MOL0     C16873   4.294   9.771   6.780 -0.6027 -0.5192 -0.3118
  123MOL0     C16874   4.349   9.866   6.670 -0.7541  0.5733 -0.3239
  123MOL0     C16875   4.269   9.994   6.640 -0.1158  0.4857 -0.4167
  123MOL0     C16876   4.252  10.090   6.757 -0.1799 -0.0313 -0.1648
  123MOL0     C16877   4.369  10.189   6.777 -0.6593  0.2506 -0.8003
  123MOL0     C16878   4.330  10.276   6.889 -0.9825  0.1106 -0.1662
  123MOL0     C16879   4.307  10.211   7.029 -0.3049 -1.5545  0.2020
  123MOL0     C16880   4.294  10.328   7.133  0.8410  0.1831 -0.0859
  123MOL0    Cl16881   4.174  10.453   7.087 -0.6046  0.3038 -0.4850
  123MOL0     C16882   4.483   9.830   7.005 -0.0905 -0.2412  0.4504
  123MOL0     C16883   4.526   9.834   7.132 -0.4973  0.2316 -0.6285
  123MOL0     O16884   4.423   9.608   7.419  0.5407  0.3921  0.1090
  123MOL0     C16885   4.549   9.830   7.598  1.5244  1.0561 -0.5053
  123MOL0     C16886   4.584   9.874   7.723  0.5822  0.3456  0.8513
  123MOL0     N16887   5.071   9.463   7.921 -0.1766  0.1776  0.0664
  123MOL0     N16888   5.143   9.414   7.823 -0.4397 -0.4963 -0.5111
  123MOL0     C16889   6.243   9.024   7.994 -0.6799  1.0088  0.1649
  123MOL0     C16890   6.278   8.889   8.007  0.9409  0.7021  0.6114
  123MOL0     C16891   6.424   8.523   8.142 -0.5179 -0.4723 -0.1531
  123MOL0     C16892   6.482   8.477   8.018  0.2619  0.4011  0.3459
  123MOL0     C16893   6.521   8.351   7.995 -0.0398 -0.2000 -0.2325
  123MOL0     C16894   6.516   8.254   8.095  0.6719  0.3330  0.7558
  123MOL0     O16895   6.561   8.124   8.076 -0.3227 -0.3436 -0.0319
  123MOL0     C16896   6.532   8.052   7.950 -0.0176  0.7455 -1.0067
  123MOL0     C16897   6.381   8.046   7.944 -0.4785  0.3170 -0.4366
  123MOL0     C16898   6.343   7.923   7.865 -0.4886 -0.7562  0.1592
  123MOL0     C16899   6.184   7.908   7.852  0.1436  0.3902 -0.8957
  123MOL0     C16900   6.120   8.028   7.804 -0.0115  0.3448 -0.5849
  123MOL0     C16901   6.069   8.098   7.718  0.2004 -0.3381 -0.2929
  123MOL0     C16902   6.462   8.297   8.222  1.1480  0.4343 -0.0115
  123MOL0     C16903   6.412   8.424   8.251  0.1937 -0.4527  0.9436
  123MOL0     C16904   6.373   8.457   8.383  0.3995 -0.0756 -0.1634
  123MOL0     H16905   6.598   8.962   8.112 -0.6398 -0.1645 -0.3138
  123MOL0     H16906   6.516   9.193   8.056 -0.5122 -0.2808  1.8167
  123MOL0     H16907   6.202   9.404   8.088  3.3351 -0.3115  2.4588
  123MOL0     H16908   6.148   9.246   8.126  0.9033  1.5630  1.6439
  123MOL0     H16909   6.153   9.400   7.867  1.6254 -1.6981  0.4060
  123MOL0     H16910   6.098   9.240   7.850  2.2701 -0.0929  0.1121
  123MOL0     H16911   5.945   9.427   8.053 -4.2774  0.9427  0.5426
  123MOL0     H16912   5.927   9.444   7.875 -0.7055  0.4394  1.9521
  123MOL0     H16913   5.869   9.194   7.858  1.2081 -2.5228  1.5009
  123MOL0     H16914   5.905   9.185   8.030  3.4644  0.9799  0.2392
  123MOL0     H16915   5.708   9.338   8.077  1.2876  3.0594 -1.0790
  123MOL0     H16916   5.687   9.177   8.002  5.4927 -0.8027 -1.1122
  123MOL0     H16917   5.653   9.423   7.850  0.3021 -1.3787 -4.2527
  123MOL0     H16918   5.651   9.269   7.784 -0.4437  2.3894 -0.7487
  123MOL0     H16919   5.466   9.376   7.997 -0.5771 -0.0112  0.4747
  123MOL0     H16920   5.433   9.224   7.890 -0.2922  0.7095 -2.6465
  123MOL0     H16921   5.460   9.505   7.791 -2.7785  1.8204 -2.9316
  123MOL0     H16922   5.388   9.366   7.702  2.2630 -0.5201 -0.0182
  123MOL0     H16923   5.347   9.599   8.015 -0.9944  0.5363  0.7864
  123MOL0     H16924   5.160   9.716   8.128 -1.8536  3.1859  1.7179
  123MOL0     H16925   5.067   9.586   8.199 -1.3924  2.0522  1.0203
  123MOL0     H16926   4.867   9.628   8.056 -0.0594 -0.4302  2.3493
  123MOL0     H16927   4.900   9.751   8.164 -0.1764 -0.9771  0.5270
  123MOL0     H16928   5.039   9.851   7.945  0.6219 -1.0628 -2.5692
  123MOL0     H16929   4.947   9.740   7.853 -0.0838 -2.0071  1.1288
  123MOL0     H16930   4.844   9.974   8.018  3.6159  0.9950 -1.6060
  123MOL0     H16931   4.853   9.947   7.850  4.5473 -3.7506 -0.7779
  123MOL0     H16932   4.747   9.596   7.831  2.7115  1.0824 -0.7478
  123MOL0     H16933   4.769   9.479   7.528 -0.0647 -0.3157  0.5391
  123MOL0     H16934   4.605   9.421   7.550 -1.0515 -0.2092 -0.0276
  123MOL0     H16935   4.724   9.420   7.690 -0.4709  3.2372  1.3905
  123MOL0     H16936   4.560   9.498   7.187 -1.4618 -1.1652 -1.9837
  123MOL0     H16937   4.448   9.487   6.973 -0.4210 -0.5235  1.2978
  123MOL0     H16938   4.203   9.718   6.749  0.8397 -1.9373 -2.3637
  123MOL0     H16939   4.280   9.827   6.873 -0.2898  1.5326 -1.4468
  123MOL0     H16940   4.443   9.901   6.715 -2.1563  3.0588  0.8289
  123MOL0     H16941   4.361   9.809   6.577 -4.7259  0.1730 -0.7441
  123MOL0     H16942   4.178   9.951   6.597 -0.4324 -1.7218  2.1806
  123MOL0     H16943   4.312  10.048   6.554 -2.4431  0.4581 -1.6740
  123MOL0     H16944   4.226  10.055   6.857  2.0186  1.5397  1.0277
  123MOL0     H16945   4.169  10.158   6.734 -1.3292 -1.1312  0.5852
  123MOL0     H16946   4.461  10.140   6.809 -1.1873 -0.6456 -0.5972
  123MOL0     H16947   4.389  10.246   6.686  2.2930  0.1058 -0.3447
  123MOL0     H16948   4.237  10.327   6.864 -1.1893  1.8571  3.5129
  123MOL0     H16949   4.408  10.352   6.894 -1.0878  0.2857 -0.9847
  123MOL0     H16950   4.393  10.149   7.056  2.1280  0.6402 -1.9309
  123MOL0     H16951   4.211  10.158   7.025 -1.4146 -0.2358  4.3918
  123MOL0     H16952   4.392  10.375   7.138  0.5257  0.7002  1.8965
  123MOL0     H16953   4.281  10.285   7.232  3.3181  1.4707  0.8649
  123MOL0     H16954   4.469   9.926   6.957 -1.4367 -0.8647 -0.4895
  123MOL0     H16955   4.540   9.931   7.180 -1.7165 -0.9913  2.5141
  123MOL0     H16956   4.505   9.904   7.533  0.6399  1.4908  0.5575
  123MOL0     H16957   4.554   9.976   7.745 -1.7819  0.2584 -1.4373
  123MOL0     H16958   6.145   9.043   7.952 -0.7320  0.4564  0.0276
  123MOL0     H16959   6.210   8.806   7.985 -0.2473  0.8048  3.4526
  123MOL0     H16960   6.500   8.536   7.929  0.8160  0.3363  0.4171
  123MOL0     H16961   6.554   8.329   7.893 -1.3150  0.0011 -0.7111
  123MOL0     H16962   6.573   8.102   7.862 -1.0790 -0.6274 -2.3250
  123MOL0     H16963   6.569   7.949   7.956 -0.8192  0.5190  0.7845
  123MOL0     H16964   6.342   8.136   7.895  3.5573  0.8854 -3.0525
  123MOL0     H16965   6.334   8.043   8.042 -0.9019  1.7773 -0.5675
  123MOL0     H16966   6.381   7.925   7.762 -0.8950  0.1973  0.0245
  123MOL0     H16967   6.382   7.831   7.911 -1.3847 -1.3619 -0.2515
  123MOL0     H16968   6.137   7.878   7.947  0.8710 -3.1166 -1.4861
  123MOL0     H16969   6.184   7.817   7.791  1.1884 -0.7913  0.7750
  123MOL0     H16970   6.024   8.150   7.636 -0.0676  0.7794  0.5276
  123MOL0     H16971   6.451   8.235   8.310 -0.5113 -0.3917 -0.7451
  123MOL0     H16972   6.402   8.380   8.456  1.5886  1.0876  0.6497
  123MOL0     H16973   6.421   8.547   8.423 -0.7927  0.4967  0.0318
  123MOL0     H16974   6.266   8.479   8.389  0.7236  1.3848  0.6158
  124MOL0     O16975   9.410   3.192   7.477  0.1800  0.5006  0.1626
  124MOL0     C16976   9.433   3.315   7.484 -0.5591 -0.8451  0.4459
  124MOL0     O16977   9.538   3.378   7.425 -0.5317  0.1427 -0.0521
  124MOL0     C16978   9.622   3.304   7.348  0.2438  0.4972  0.0838
  124MOL0     C16979   9.687   3.190   7.399 -0.0268 -0.1950  0.5821
  124MOL0     C16980   9.781   3.122   7.322  0.1639  0.2455  0.2778
  124MOL0     C16981   9.815   3.151   7.188  1.7782 -0.1047 -0.3193
  124MOL0     O16982   9.910   3.074   7.125 -0.0839  0.2503  0.0211
  124MOL0     C16983   9.908   3.088   6.980 -0.2474  0.4925  0.5563
  124MOL0     C16984   9.777   3.034   6.917 -0.4463  1.0662 -0.1548
  124MOL0     C16985   9.743   2.887   6.971  0.4440 -0.3780 -0.0855
  124MOL0     C16986   9.857   2.792   6.965 -0.7604 -0.3810  0.0470
  124MOL0     C16987   9.835   2.651   7.030 -0.0248  0.2696  1.1498
  124MOL0     C16988   9.857   2.647   7.184  0.4024  0.3293 -1.1694
  124MOL0     C16989   9.715   2.658   7.246 -0.0145 -0.0227 -0.9749
  124MOL0     C16990   9.748   2.637   7.399  0.0442  1.0521  0.4073
  124MOL0     N16991   9.629   2.643   7.479  0.4107  0.2485  0.3873
  124MOL0     C16992   9.561   2.765   7.483  1.3961  0.4569 -0.0403
  124MOL0     C16993   9.442   2.728   7.539 -0.7720  0.5797 -0.8792
  124MOL0     C16994   9.345   2.836   7.569  0.2954 -0.5199 -0.6251
  124MOL0     C16995   9.275   2.896   7.445 -0.6230 -0.5955  0.9130
  124MOL0     C16996   9.141   2.838   7.410 -0.1179  0.3275  0.4376
  124MOL0     C16997   9.152   2.695   7.348 -0.2960  1.0603  0.0697
  124MOL0     O16998   9.038   2.607   7.368  0.8236  0.1922  0.2835
  124MOL0     C16999   9.019   2.499   7.284  0.4983  0.4931 -0.1106
  124MOL0     C17000   9.112   2.442   7.198 -0.0652  0.5306  0.3005
  124MOL0     C17001   9.080   2.329   7.119 -1.2544 -0.5546  0.2590
  124MOL0     C17002   9.203   2.283   7.038 -0.1601 -0.3432 -0.9412
  124MOL0     C17003   8.959   2.267   7.113  0.4247  0.0172 -0.0180
  124MOL0     C17004   8.931   2.139   7.038  0.0203  0.8563  0.7571
  124MOL0     O17005   8.973   2.121   6.912 -1.1526 -0.0763  0.7437
  124MOL0     C17006   8.987   1.997   6.858 -0.2538  0.5590  0.9906
  124MOL0     C17007   8.893   1.961   6.758 -0.1415  0.7380 -0.2366
  124MOL0     C17008   8.912   1.830   6.705 -0.7105 -1.0639 -0.5910
  124MOL0     C17009   9.017   1.743   6.746  0.8705 -0.3147 -0.3307
  124MOL0     O17010   9.051   1.628   6.673  0.2226 -0.0725  0.4332
  124MOL0     C17011   8.950   1.545   6.621  0.7955  0.0169  0.1019
  124MOL0     C17012   8.954   1.540   6.465  0.1737 -0.2619 -0.0508
  124MOL0     C17013   8.895   1.653   6.374  0.3391  0.0818 -0.8681
  124MOL0     C17014   8.847   1.609   6.237 -0.1333 -0.0190  0.3207
  124MOL0     C17015   8.945   1.591   6.117 -0.5616 -0.5785 -0.5091
  124MOL0     C17016   8.886   1.499   6.012  1.0040 -0.0490 -0.2992
  124MOL0     C17017   8.981   1.460   5.909 -0.6660  0.9060  0.5642
  124MOL0     C17018   8.922   1.417   5.767  1.1308  1.0361  0.0295
  124MOL0    Cl17019   8.773   1.328   5.806  0.0725 -0.6006 -0.0992
  124MOL0     C17020   9.109   1.789   6.838  0.1815 -0.4555  0.4936
  124MOL0     C17021   9.096   1.915   6.891  0.2732  0.0980  0.2402
  124MOL0     O17022   8.847   2.060   7.087  0.2242 -0.0924  0.5682
  124MOL0     C17023   8.869   2.315   7.210 -0.2822  0.4220 -0.1840
  124MOL0     C17024   8.901   2.430   7.292 -0.2212  0.1558 -0.4172
  124MOL0     N17025   9.436   2.589   7.567  0.4206 -0.7854 -0.0266
  124MOL0     N17026   9.552   2.541   7.537 -0.0141 -0.1902  0.4508
  124MOL0     C17027   9.743   3.271   7.133 -0.2539 -0.1481 -0.9453
  124MOL0     C17028   9.651   3.344   7.217  0.9473 -0.0962 -0.1014
  124MOL0     C17029   9.326   3.402   7.552 -0.4077  0.1054 -0.7102
  124MOL0     C17030   9.382   3.520   7.605  0.9533 -0.7425  0.1401
  124MOL0     C17031   9.302   3.603   7.689  0.1685  0.2645  1.5213
  124MOL0     C17032   9.167   3.584   7.700 -0.0377  0.3324 -0.2507
  124MOL0     O17033   9.089   3.686   7.758  0.7435 -0.5471  0.2686
  124MOL0     C17034   9.027   3.654   7.887 -0.1550 -0.1186  0.1048
  124MOL0     C17035   9.136   3.658   7.991  1.0071  0.2371 -0.5792
  124MOL0     C17036   9.201   3.804   7.994 -0.1555  0.2635 -1.0953
  124MOL0     C17037   9.318   3.818   8.100  0.5115  0.1990  0.0476
  124MOL0     C17038   9.432   3.729   8.074 -0.6604  0.4388  0.1022
  124MOL0     C17039   9.517   3.650   8.050 -0.9818 -0.2002  0.1414
  124MOL0     C17040   9.111   3.469   7.642  0.1450 -0.4362 -1.0798
  124MOL0     C17041   9.182   3.383   7.564 -0.0874  0.5604  0.6669
  124MOL0     C17042   9.113   3.255   7.515 -0.2561 -0.1671 -0.8564
  124MOL0     H17043   9.677   3.159   7.503 -0.1423 -1.9595  0.0777
  124MOL0     H17044   9.843   3.057   7.383 -0.1349  0.2261  0.5646
  124MOL0     H17045   9.995   3.036   6.938 -2.5255 -0.4748 -3.5793
  124MOL0     H17046   9.935   3.190   6.952  3.3838 -0.9989 -2.3247
  124MOL0     H17047   9.694   3.102   6.937 -2.3274 -1.7725  2.7445
  124MOL0     H17048   9.792   3.015   6.810  2.1503 -1.0025  0.4813
  124MOL0     H17049   9.712   2.902   7.075 -0.1098  0.4684 -0.3603
  124MOL0     H17050   9.664   2.832   6.920 -0.6638 -1.3029  2.4409
  124MOL0     H17051   9.875   2.796   6.858  1.8889  0.4983  0.4708
  124MOL0     H17052   9.945   2.830   7.017 -1.1671  0.3801  0.1954
  124MOL0     H17053   9.906   2.577   6.992  0.2897  1.0491  0.1519
  124MOL0     H17054   9.737   2.614   6.999 -1.4186  4.1505  0.3190
  124MOL0     H17055   9.896   2.549   7.212 -0.9690 -0.3257 -1.4301
  124MOL0     H17056   9.929   2.718   7.224  1.8452 -0.9526 -1.4275
  124MOL0     H17057   9.650   2.576   7.215  0.3204 -0.8880  0.5092
  124MOL0     H17058   9.669   2.756   7.228  1.1991  0.5047 -1.2771
  124MOL0     H17059   9.789   2.539   7.423 -0.1945  0.2764 -2.1212
  124MOL0     H17060   9.826   2.704   7.436  1.5323 -0.5315  0.2250
  124MOL0     H17061   9.594   2.866   7.461 -1.2893  1.4491  0.1426
  124MOL0     H17062   9.406   2.916   7.611 -1.3798  1.2569 -1.4072
  124MOL0     H17063   9.269   2.808   7.643 -2.3284  0.2498 -2.8455
  124MOL0     H17064   9.263   2.999   7.479  2.6704  0.2118 -0.0054
  124MOL0     H17065   9.346   2.902   7.362  0.4500 -0.3099  1.8255
  124MOL0     H17066   9.079   2.827   7.500  1.4326  3.3514  2.0431
  124MOL0     H17067   9.075   2.897   7.345 -1.6751 -0.7017  1.0138
  124MOL0     H17068   9.178   2.718   7.244  1.0112  3.6345  0.8736
  124MOL0     H17069   9.245   2.655   7.390 -1.5491  0.7339  2.7530
  124MOL0     H17070   9.214   2.479   7.199  0.9862 -1.8220 -3.0162
  124MOL0     H17071   9.277   2.361   7.019 -0.1492  0.5234  2.2478
  124MOL0     H17072   9.169   2.251   6.939 -0.2124 -2.4382 -0.2837
  124MOL0     H17073   9.252   2.198   7.085 -3.0804 -2.3339 -1.1939
  124MOL0     H17074   8.811   2.020   6.719  1.5598  2.6986 -1.0342
  124MOL0     H17075   8.847   1.799   6.624  2.5027  0.1217 -3.9153
  124MOL0     H17076   8.972   1.442   6.650  1.1589 -0.2659 -1.1041
  124MOL0     H17077   8.847   1.553   6.656 -0.3911  0.5989 -3.1839
  124MOL0     H17078   9.056   1.512   6.440  0.4200  0.3137  0.2998
  124MOL0     H17079   8.890   1.453   6.449 -0.1878 -0.6161  2.9042
  124MOL0     H17080   8.967   1.734   6.374 -0.8685  1.2436  1.2089
  124MOL0     H17081   8.814   1.705   6.426  1.7494  0.7825  0.7459
  124MOL0     H17082   8.775   1.682   6.202  1.5701  0.8457 -1.5560
  124MOL0     H17083   8.797   1.512   6.247 -1.4521  0.6507  0.3746
  124MOL0     H17084   8.971   1.696   6.101  0.0679 -0.3386  1.6637
  124MOL0     H17085   9.037   1.544   6.153 -1.0701  0.2414  2.1030
  124MOL0     H17086   8.808   1.556   5.959  1.5867  0.8899 -0.1671
  124MOL0     H17087   8.843   1.409   6.057 -0.2718  0.6422 -0.0733
  124MOL0     H17088   9.044   1.383   5.953 -1.1398  0.8572  1.1756
  124MOL0     H17089   9.044   1.549   5.899 -0.6587  1.1737  2.5705
  124MOL0     H17090   8.991   1.346   5.719 -1.7203 -0.4615 -2.1420
  124MOL0     H17091   8.890   1.493   5.695 -0.2001 -1.8174 -2.6054
  124MOL0     H17092   9.203   1.737   6.852  0.8933  1.0789  1.7103
  124MOL0     H17093   9.164   1.965   6.960 -1.8081  3.1710  0.2501
  124MOL0     H17094   8.776   2.264   7.231 -0.0909  0.4012  0.6640
  124MOL0     H17095   8.814   2.447   7.356  2.0938  0.3936  2.9581
  124MOL0     H17096   9.770   3.313   7.036 -2.9322  2.2254 -0.8174
  124MOL0     H17097   9.612   3.440   7.184  1.0549  0.9902  2.6553
  124MOL0     H17098   9.487   3.546   7.592  0.8062 -0.1737  0.0714
  124MOL0     H17099   9.344   3.694   7.733  2.0864  1.3008 -2.0285
  124MOL0     H17100   8.946   3.725   7.908 -0.8728 -0.9872  0.3565
  124MOL0     H17101   8.981   3.555   7.880 -2.4678  0.7228  1.8535
  124MOL0     H17102   9.203   3.575   7.966  1.1515 -0.1539  0.9951
  124MOL0     H17103   9.107   3.634   8.093  0.0485 -4.6069 -1.7777
  124MOL0     H17104   9.248   3.838   7.901  4.2918  0.5665  1.0173
  124MOL0     H17105   9.119   3.869   8.025  0.9712  1.7257 -1.0423
  124MOL0     H17106   9.275   3.804   8.199  1.5125  0.2349  0.4931
  124MOL0     H17107   9.355   3.920   8.114  5.0319 -0.5428 -3.9777
  124MOL0     H17108   9.591   3.582   8.012 -0.9566  1.1742 -2.5134
  124MOL0     H17109   9.009   3.440   7.664 -0.4369  1.3100 -1.3240
  124MOL0     H17110   9.112   3.171   7.585  0.2741 -0.1362 -0.8054
  124MOL0     H17111   9.007   3.276   7.502 -0.5403  0.0798  1.5122
  124MOL0     H17112   9.158   3.231   7.418  1.2641 -0.3008 -0.1555
  125MOL0     O17113   9.620   1.691   1.666 -0.8257 -0.1836 -0.2028
  125MOL0     C17114   9.691   1.714   1.762 -0.8936  0.1255  0.2892
  125MOL0     O17115   9.784   1.814   1.758  0.3751 -0.5679  0.1573
  125MOL0     C17116   9.778   1.926   1.671 -0.6694  0.5102  0.7423
  125MOL0     C17117   9.776   2.058   1.730  0.0892  0.4884  0.1730
  125MOL0     C17118   9.802   2.161   1.640 -0.4510  1.6462 -0.9807
  125MOL0     C17119   9.832   2.142   1.506  0.8481  0.0323 -0.0914
  125MOL0     O17120   9.863   2.266   1.441  0.2712  0.1835 -0.2440
  125MOL0     C17121   9.842   2.274   1.300 -0.3300 -0.4732 -0.2141
  125MOL0     C17122   9.902   2.406   1.246  0.4499 -0.5765 -0.0699
  125MOL0     C17123   9.840   2.432   1.108  0.1167  0.9957  0.1276
  125MOL0     C17124   9.884   2.563   1.040 -0.6604  0.0113 -1.5786
  125MOL0     C17125   9.775   2.617   0.953 -0.7211 -0.1500 -0.6107
  125MOL0     C17126   9.749   2.532   0.823 -0.6740 -0.6549  0.0404
  125MOL0     C17127   9.613   2.568   0.756  0.0387  0.5986  0.4164
  125MOL0     C17128   9.628   2.706   0.677  0.1963 -0.1634  0.1273
  125MOL0     N17129   9.502   2.758   0.624 -0.0894  0.4400 -1.1351
  125MOL0     C17130   9.386   2.694   0.598  0.7989 -0.2422 -0.8767
  125MOL0     C17131   9.302   2.785   0.543 -0.4825 -0.8853 -0.1701
  125MOL0     C17132   9.164   2.762   0.500  0.5050 -0.6602 -0.2202
  125MOL0     C17133   9.072   2.670   0.585  0.1984 -0.6630  0.2030
  125MOL0     C17134   9.070   2.727   0.736  0.7055 -1.1094  0.4317
  125MOL0     C17135   9.036   2.608   0.829 -0.3682  0.4783  0.2782
  125MOL0     O17136   8.899   2.621   0.841 -0.4185  0.3936  0.4678
  125MOL0     C17137   8.858   2.541   0.955  0.5089  0.3983  0.1795
  125MOL0     C17138   8.793   2.598   1.066 -0.9433  0.5310  0.2234
  125MOL0     C17139   8.736   2.524   1.161 -0.4462 -0.5960 -0.4053
  125MOL0     C17140   8.672   2.612   1.275  0.3994 -0.6059 -0.0872
  125MOL0     C17141   8.747   2.384   1.165  0.6014  0.4230 -0.1071
  125MOL0     C17142   8.671   2.287   1.254 -0.7841  0.1724  0.6368
  125MOL0     O17143   8.641   2.164   1.200 -0.4794  0.3508 -0.0440
  125MOL0     C17144   8.609   2.072   1.286 -0.2322  0.7014 -0.3342
  125MOL0     C17145   8.486   2.068   1.346 -0.2406 -0.2044 -0.4198
  125MOL0     C17146   8.467   1.973   1.443 -0.8753  0.4091  0.5339
  125MOL0     C17147   8.564   1.898   1.501 -0.7249  0.1490  0.1539
  125MOL0     O17148   8.553   1.817   1.609 -0.4942  0.0408  0.2340
  125MOL0     C17149   8.445   1.817   1.700  0.0107  0.9396 -0.5364
  125MOL0     C17150   8.464   1.695   1.798 -0.3176 -0.8024 -0.0624
  125MOL0     C17151   8.345   1.685   1.892  0.0772  0.2097 -0.2914
  125MOL0     C17152   8.354   1.570   1.989 -0.3440  0.0692 -0.0338
  125MOL0     C17153   8.254   1.594   2.115  0.6028  0.1424 -0.0393
  125MOL0     C17154   8.262   1.471   2.212  0.0191 -1.0015 -0.0289
  125MOL0     C17155   8.187   1.488   2.344 -0.6112 -0.1184  0.4410
  125MOL0     C17156   8.228   1.396   2.467  0.7580  0.1904 -0.4671
  125MOL0    Cl17157   8.189   1.221   2.434 -0.7213  0.5555 -0.0960
  125MOL0     C17158   8.700   1.918   1.457 -0.1869 -0.3652  0.1075
  125MOL0     C17159   8.722   2.001   1.346 -0.2924 -0.1595 -0.0183
  125MOL0     O17160   8.639   2.323   1.367 -0.0608 -0.8723 -0.0166
  125MOL0     C17161   8.820   2.325   1.065  0.9923  0.0610  0.4555
  125MOL0     C17162   8.875   2.400   0.959 -0.3823 -0.2919 -0.0625
  125MOL0     N17163   9.359   2.907   0.554 -0.3993 -0.2175  0.6777
  125MOL0     N17164   9.482   2.885   0.596  0.0926 -1.4778  0.3813
  125MOL0     C17165   9.814   2.014   1.451 -0.4996  0.5528 -0.0494
  125MOL0     C17166   9.794   1.903   1.533 -0.8915  0.2409 -1.4455
  125MOL0     C17167   9.702   1.621   1.881  0.5487 -0.4844 -0.5135
  125MOL0     C17168   9.806   1.648   1.977  0.5255 -0.3972  1.5014
  125MOL0     C17169   9.804   1.581   2.093 -0.1881  0.8090  0.2097
  125MOL0     C17170   9.716   1.475   2.122 -0.7449 -0.3718  0.0846
  125MOL0     O17171   9.715   1.408   2.248 -0.0396 -0.1823 -0.0841
  125MOL0     C17172   9.823   1.414   2.342  0.6030 -1.0425 -0.0020
  125MOL0     C17173   9.949   1.350   2.293 -0.1661 -0.3495  0.4188
  125MOL0     C17174   9.940   1.198   2.310 -0.4215 -0.2965 -0.3127
  125MOL0     C17175  10.017   1.152   2.433  0.7822  0.5980  0.3839
  125MOL0     C17176   9.990   1.007   2.453  0.6713  0.5231  0.9762
  125MOL0     C17177   9.986   0.886   2.463  1.1050 -0.5812 -0.7406
  125MOL0     C17178   9.606   1.458   2.034 -0.4721  0.3632  0.7833
  125MOL0     C17179   9.599   1.531   1.918 -0.2336  0.0148 -0.7837
  125MOL0     C17180   9.487   1.502   1.827 -0.7211  0.2556 -0.9746
  125MOL0     H17181   9.758   2.076   1.836 -1.5922 -4.0539  0.8814
  125MOL0     H17182   9.802   2.261   1.682  0.2882  1.7962 -1.3101
  125MOL0     H17183   9.736   2.267   1.272  0.7180 -0.0443 -5.0059
  125MOL0     H17184   9.892   2.190   1.251 -0.6942 -2.1721  2.1394
  125MOL0     H17185   9.876   2.483   1.319 -0.0197 -1.2265  0.4664
  125MOL0     H17186  10.009   2.398   1.228  0.5753 -0.1794  0.4881
  125MOL0     H17187   9.861   2.355   1.032 -0.4155  2.6456 -1.7973
  125MOL0     H17188   9.732   2.440   1.120  0.3718  1.3187  2.5214
  125MOL0     H17189   9.913   2.639   1.113  1.1937 -2.8328  0.8914
  125MOL0     H17190   9.972   2.532   0.982 -1.0767 -1.8809 -1.2507
  125MOL0     H17191   9.798   2.721   0.928 -1.2786  0.9469  2.8512
  125MOL0     H17192   9.687   2.611   1.017 -1.5474 -2.4459 -1.8760
  125MOL0     H17193   9.825   2.556   0.748 -2.1429 -1.0560 -1.6425
  125MOL0     H17194   9.762   2.425   0.846  1.7497 -0.2474  0.8283
  125MOL0     H17195   9.533   2.565   0.830 -1.0078 -2.5836 -0.6549
  125MOL0     H17196   9.587   2.492   0.681 -0.1560 -0.0236  1.1106
  125MOL0     H17197   9.668   2.776   0.751 -3.4068  0.4802  1.6566
  125MOL0     H17198   9.684   2.696   0.584 -1.4839 -1.3536 -0.8237
  125MOL0     H17199   9.380   2.587   0.620  0.5291  0.2356  1.7043
  125MOL0     H17200   9.154   2.715   0.402 -3.6603 -0.6599  0.0359
  125MOL0     H17201   9.127   2.863   0.480  1.9584 -0.0916 -0.1479
  125MOL0     H17202   8.973   2.663   0.539 -0.9964  2.0077  2.0622
  125MOL0     H17203   9.123   2.573   0.583  0.3916 -0.8996  5.1241
  125MOL0     H17204   9.165   2.769   0.769  0.3202 -0.9186  1.3304
  125MOL0     H17205   8.996   2.808   0.742 -0.1031 -1.4933 -2.4773
  125MOL0     H17206   9.050   2.505   0.796 -3.4065  0.4220 -1.1076
  125MOL0     H17207   9.090   2.625   0.922  2.0810 -0.5127 -0.8711
  125MOL0     H17208   8.787   2.706   1.071 -2.2896  0.4642  0.4117
  125MOL0     H17209   8.687   2.565   1.372  0.3661 -0.3916  0.0225
  125MOL0     H17210   8.565   2.629   1.258  0.9296  1.5852 -1.8340
  125MOL0     H17211   8.704   2.716   1.288 -2.5585  0.4017  0.0225
  125MOL0     H17212   8.405   2.134   1.316  0.8012  0.0245 -3.0005
  125MOL0     H17213   8.368   1.984   1.486 -0.1171  5.0413  1.7192
  125MOL0     H17214   8.445   1.907   1.763 -0.1740  0.0704  0.7274
  125MOL0     H17215   8.352   1.796   1.647  1.5301 -0.3605 -2.8431
  125MOL0     H17216   8.482   1.605   1.740 -0.4026 -0.6226 -0.3745
  125MOL0     H17217   8.558   1.718   1.849  0.9460 -1.3601 -2.0466
  125MOL0     H17218   8.247   1.682   1.844  0.5461 -1.4857 -1.2421
  125MOL0     H17219   8.360   1.777   1.949  0.4282  0.6383 -1.0559
  125MOL0     H17220   8.456   1.564   2.029 -0.0600 -1.4381 -0.9270
  125MOL0     H17221   8.329   1.476   1.940 -0.9966  0.9643 -1.4666
  125MOL0     H17222   8.283   1.690   2.158 -1.1597  1.7500 -2.2251
  125MOL0     H17223   8.157   1.607   2.066  1.1566 -1.4141 -1.6359
  125MOL0     H17224   8.366   1.449   2.237 -0.5603 -1.2126  2.3882
  125MOL0     H17225   8.219   1.379   2.171 -0.1867 -0.5574 -0.8481
  125MOL0     H17226   8.078   1.490   2.339 -0.7824  0.7994  2.8160
  125MOL0     H17227   8.207   1.588   2.384  0.3503 -0.4731  0.8868
  125MOL0     H17228   8.174   1.422   2.558  1.5315 -0.5175  0.2074
  125MOL0     H17229   8.333   1.416   2.490  1.3629  0.0510 -2.7998
  125MOL0     H17230   8.777   1.855   1.502 -0.9489 -0.6177  1.0849
  125MOL0     H17231   8.822   2.020   1.308  0.0875  0.0290  1.0569
  125MOL0     H17232   8.851   2.221   1.065  3.3195  0.6225  3.1769
  125MOL0     H17233   8.924   2.341   0.881 -0.4408  0.0587 -0.3655
  125MOL0     H17234   9.824   2.007   1.343 -0.7541 -1.9974  0.0309
  125MOL0     H17235   9.801   1.806   1.484  0.4336 -2.5866  3.6178
  125MOL0     H17236   9.894   1.711   1.967  0.6983 -0.7805  0.4793
  125MOL0     H17237   9.877   1.612   2.166 -0.2682  0.2258  0.5500
  125MOL0     H17238   9.826   1.522   2.360 -1.3601 -0.9267 -0.1605
  125MOL0     H17239   9.794   1.348   2.424 -2.1530 -1.7408 -1.4175
  125MOL0     H17240  10.040   1.392   2.338 -0.5208 -3.6562  4.8838
  125MOL0     H17241   9.949   1.374   2.186 -2.9744  0.4800  0.5287
  125MOL0     H17242   9.836   1.167   2.325 -0.2549 -0.2818  0.9564
  125MOL0     H17243   9.963   1.146   2.216 -0.3996 -2.1363  0.6574
  125MOL0     H17244   9.969   1.206   2.515 -0.5318  1.2418 -0.7599
  125MOL0     H17245  10.124   1.159   2.412  0.9009 -0.8075  0.4491
  125MOL0     H17246   9.976   0.784   2.494  0.3828 -0.4036 -0.3598
  125MOL0     H17247   9.534   1.380   2.059  0.7542  0.1830  4.3675
  125MOL0     H17248   9.511   1.457   1.730 -0.0240 -0.5864 -0.4310
  125MOL0     H17249   9.432   1.418   1.872  1.4273 -0.2439  0.9061
  125MOL0     H17250   9.425   1.592   1.817 -0.1459  0.7396 -0.2692
  126MOL0     O17251   4.290   1.482   5.716  0.4452  0.1735  0.0792
  126MOL0     C17252   4.197   1.409   5.736  0.0055 -0.0264  0.5782
  126MOL0     O17253   4.121   1.346   5.649  0.2589  0.2726  0.1321
  126MOL0     C17254   4.105   1.377   5.512  0.2254  0.8264 -0.0963
  126MOL0     C17255   4.125   1.499   5.458 -0.3221  0.2832  0.2829
  126MOL0     C17256   4.101   1.526   5.324  0.6621 -0.0633 -1.2695
  126MOL0     C17257   4.056   1.422   5.240  0.1342  0.1552 -0.8922
  126MOL0     O17258   4.019   1.436   5.111 -0.7144  0.2645  0.5148
  126MOL0     C17259   4.077   1.542   5.037  0.5936 -0.8083 -0.5596
  126MOL0     C17260   4.059   1.508   4.886  0.3975  1.0202  0.2137
  126MOL0     C17261   4.130   1.606   4.788 -0.3550 -0.3938 -0.6055
  126MOL0     C17262   4.018   1.701   4.741  0.2825  0.1780  0.6904
  126MOL0     C17263   4.066   1.818   4.650  0.1506 -0.9100 -0.2348
  126MOL0     C17264   4.129   1.929   4.721  0.7837  0.4090 -0.1079
  126MOL0     C17265   4.193   2.039   4.641  0.5304 -0.8337  0.0605
  126MOL0     C17266   4.280   2.139   4.733  0.6659  1.0286  0.1551
  126MOL0     N17267   4.208   2.214   4.835 -0.2176  1.0868 -0.1411
  126MOL0     C17268   4.125   2.320   4.808 -0.2496 -0.1688  0.4260
  126MOL0     C17269   4.092   2.373   4.934  0.1117  0.4876 -0.4609
  126MOL0     C17270   4.001   2.494   4.962  0.2577 -0.6912 -0.2961
  126MOL0     C17271   4.096   2.611   5.001 -0.5438 -0.4926 -0.1007
  126MOL0     C17272   4.111   2.646   5.144 -0.0208 -0.2544  0.5288
  126MOL0     C17273   3.993   2.699   5.223  0.9688 -0.0055  0.2428
  126MOL0     O17274   3.918   2.594   5.287  0.2594 -0.3204  0.2668
  126MOL0     C17275   3.801   2.624   5.357  0.4318 -0.0475 -1.1779
  126MOL0     C17276   3.722   2.519   5.390 -0.0887 -0.2637  0.0052
  126MOL0     C17277   3.598   2.539   5.440 -0.0399 -1.2276  0.4586
  126MOL0     C17278   3.497   2.429   5.479  0.2869 -0.1270  1.0463
  126MOL0     C17279   3.547   2.671   5.445  0.2445 -0.2743  0.1701
  126MOL0     C17280   3.407   2.705   5.475  0.0965  0.9679 -0.7982
  126MOL0     O17281   3.341   2.793   5.388 -0.5826 -0.0052 -0.1751
  126MOL0     C17282   3.207   2.822   5.390  0.0060  0.2938  0.0017
  126MOL0     C17283   3.158   2.894   5.278  0.8903 -0.0350 -0.3588
  126MOL0     C17284   3.022   2.927   5.258 -0.3460 -0.2544 -0.2172
  126MOL0     C17285   2.923   2.871   5.345 -0.1860  0.1773  0.1644
  126MOL0     O17286   2.781   2.870   5.336  0.2638 -0.3422  0.0930
  126MOL0     C17287   2.745   2.911   5.201  0.0637  0.2723 -0.3114
  126MOL0     C17288   2.585   2.904   5.191  1.1675  0.8471 -0.3330
  126MOL0     C17289   2.526   2.995   5.088 -1.2489 -0.2144 -0.2165
  126MOL0     C17290   2.374   3.016   5.066 -0.4035  0.7220  0.2863
  126MOL0     C17291   2.311   3.016   5.201  0.1548 -0.0597  0.4168
  126MOL0     C17292   2.342   3.127   5.288  0.5560 -0.9868  1.1505
  126MOL0     C17293   2.246   3.119   5.410 -0.2562 -0.2291 -0.2633
  126MOL0     C17294   2.244   3.247   5.485  0.6725 -0.1391 -0.5310
  126MOL0    Cl17295   2.409   3.290   5.533  0.0439  0.3126 -0.1187
  126MOL0     C17296   2.971   2.810   5.459 -0.4861  0.8836 -1.2174
  126MOL0     C17297   3.112   2.782   5.484 -0.1677 -0.6639  0.0303
  126MOL0     O17298   3.368   2.658   5.583  0.6020 -0.4504 -0.0667
  126MOL0     C17299   3.636   2.779   5.422  0.3097  0.2995  0.6115
  126MOL0     C17300   3.761   2.759   5.378 -0.6844  0.3142  0.4755
  126MOL0     N17301   4.170   2.308   5.031  0.7294 -0.8875 -0.2031
  126MOL0     N17302   4.228   2.220   4.976  0.8564  0.1964 -0.0775
  126MOL0     C17303   4.015   1.299   5.305  0.0383  0.4200 -0.3581
  126MOL0     C17304   4.041   1.285   5.442  0.5095  0.3655  0.0171
  126MOL0     C17305   4.180   1.386   5.872 -0.0277  1.1276 -0.2349
  126MOL0     C17306   4.132   1.259   5.905 -0.1521 -0.6152 -0.2584
  126MOL0     C17307   4.097   1.230   6.032  0.4494 -0.4755  0.7089
  126MOL0     C17308   4.126   1.317   6.140 -0.0205  0.8579  0.4373
  126MOL0     O17309   4.084   1.292   6.271  0.4615  0.0471  0.2861
  126MOL0     C17310   3.965   1.211   6.295 -0.4392  0.2325 -0.1145
  126MOL0     C17311   3.932   1.220   6.450 -0.7766  0.3002  0.1107
  126MOL0     C17312   4.051   1.170   6.531 -0.4964  0.7994 -0.0349
  126MOL0     C17313   4.037   1.147   6.679 -0.1274 -0.1703  0.2096
  126MOL0     C17314   4.150   1.094   6.749  0.3629  0.1462  0.0991
  126MOL0     C17315   4.256   1.046   6.790 -0.2016 -0.3365  1.2185
  126MOL0     C17316   4.187   1.435   6.105  0.3425  0.8000 -0.5173
  126MOL0     C17317   4.218   1.473   5.975 -1.3287  0.1833 -0.0215
  126MOL0     C17318   4.284   1.610   5.954  0.8022  0.9443 -0.0211
  126MOL0     H17319   4.172   1.574   5.521  2.4558  1.5561 -3.0219
  126MOL0     H17320   4.120   1.627   5.291  1.8506  0.4074  0.7202
  126MOL0     H17321   4.185   1.551   5.047  1.1073 -3.0760 -2.8848
  126MOL0     H17322   4.022   1.629   5.074 -0.8202 -1.1969 -1.6312
  126MOL0     H17323   4.099   1.408   4.866 -0.1479  0.8770 -0.1889
  126MOL0     H17324   3.956   1.508   4.848  1.7928  1.0995 -4.1294
  126MOL0     H17325   4.210   1.661   4.839 -4.2874  2.3334  3.4499
  126MOL0     H17326   4.169   1.550   4.703  1.1932 -1.3265  0.6616
  126MOL0     H17327   3.943   1.636   4.695 -1.1779  0.9321  1.9195
  126MOL0     H17328   3.952   1.739   4.820  1.4025 -0.3882  1.9297
  126MOL0     H17329   3.983   1.863   4.595  0.1826 -1.4037 -0.7011
  126MOL0     H17330   4.127   1.773   4.571 -0.1167 -4.6539  1.5103
  126MOL0     H17331   4.057   1.977   4.788 -0.1817 -0.1498 -0.7265
  126MOL0     H17332   4.205   1.880   4.782  0.9125 -0.9459 -1.3047
  126MOL0     H17333   4.105   2.087   4.596 -0.2543 -0.2285  2.1117
  126MOL0     H17334   4.261   1.984   4.576  2.5560 -0.0741  1.4233
  126MOL0     H17335   4.358   2.074   4.775  0.4655 -0.0240 -1.0283
  126MOL0     H17336   4.315   2.214   4.662 -0.2378 -0.9025 -2.5052
  126MOL0     H17337   4.097   2.359   4.710  1.2062 -1.0788 -0.3987
  126MOL0     H17338   3.935   2.468   5.045  0.6951  1.2214  0.7287
  126MOL0     H17339   3.952   2.529   4.871  2.0425  1.2419 -0.6006
  126MOL0     H17340   4.192   2.596   4.950 -0.5897 -1.4247  0.0717
  126MOL0     H17341   4.053   2.700   4.955  0.2685  0.7574  1.4716
  126MOL0     H17342   4.149   2.558   5.196 -1.1255 -1.4028 -0.5314
  126MOL0     H17343   4.189   2.722   5.139 -0.0547 -0.2391 -4.2766
  126MOL0     H17344   4.030   2.774   5.294 -0.4913  1.5266 -0.5068
  126MOL0     H17345   3.924   2.760   5.164  1.5243  1.0314  0.6245
  126MOL0     H17346   3.766   2.422   5.369  0.0617 -0.1140 -0.3699
  126MOL0     H17347   3.487   2.427   5.588 -1.3060 -0.9874  0.9210
  126MOL0     H17348   3.525   2.339   5.423 -2.2828 -1.1866  1.2966
  126MOL0     H17349   3.398   2.454   5.438 -0.0371 -1.5487  0.8853
  126MOL0     H17350   3.214   2.923   5.190  0.6217 -1.1573 -0.9212
  126MOL0     H17351   2.993   2.986   5.172  0.9486  1.7747  0.6467
  126MOL0     H17352   2.780   3.013   5.180  3.3840 -0.8084 -0.4857
  126MOL0     H17353   2.788   2.851   5.120  2.2945 -2.5356  2.7043
  126MOL0     H17354   2.557   2.801   5.169 -0.5254  0.9533  1.1529
  126MOL0     H17355   2.557   2.921   5.295 -0.5868 -0.4004 -0.5609
  126MOL0     H17356   2.560   2.959   4.991  0.2490 -0.1023  0.2421
  126MOL0     H17357   2.567   3.096   5.102  0.3007 -1.0074  1.1948
  126MOL0     H17358   2.343   2.919   5.025  2.2500 -0.1741  0.1846
  126MOL0     H17359   2.342   3.098   5.001 -3.2355  0.3365  1.0645
  126MOL0     H17360   2.205   3.024   5.177  0.5551  2.9419 -0.7135
  126MOL0     H17361   2.310   2.915   5.244 -1.7311 -1.4059 -2.4472
  126MOL0     H17362   2.328   3.214   5.223 -0.4051 -3.1884 -1.7743
  126MOL0     H17363   2.446   3.121   5.323  1.3141  0.6999 -0.6436
  126MOL0     H17364   2.288   3.041   5.474  1.6925 -1.1798 -2.5406
  126MOL0     H17365   2.144   3.092   5.384 -0.5473  2.1649 -1.9820
  126MOL0     H17366   2.184   3.232   5.575 -1.0895 -2.2521 -1.9409
  126MOL0     H17367   2.202   3.324   5.418 -0.6922  0.6973  1.1943
  126MOL0     H17368   2.894   2.756   5.514  0.7742 -0.6403 -0.8920
  126MOL0     H17369   3.132   2.733   5.578 -0.8387 -0.7402  0.1395
  126MOL0     H17370   3.604   2.882   5.434 -1.0060 -0.1512  1.1510
  126MOL0     H17371   3.825   2.845   5.358 -0.5482  0.3969  1.2605
  126MOL0     H17372   3.960   1.223   5.251  0.2161  0.3656 -0.4651
  126MOL0     H17373   4.005   1.192   5.486  1.5603  0.3118  0.7789
  126MOL0     H17374   4.102   1.180   5.838 -0.4517  1.4898 -2.7932
  126MOL0     H17375   4.045   1.137   6.050 -0.0066 -0.1861  0.9335
  126MOL0     H17376   3.878   1.243   6.237 -1.5351 -1.8637  0.2989
  126MOL0     H17377   3.993   1.109   6.266  0.9810  0.1525  1.4345
  126MOL0     H17378   3.841   1.170   6.484 -1.3091  0.2562 -1.3232
  126MOL0     H17379   3.919   1.326   6.472  0.2376  1.1079 -2.7701
  126MOL0     H17380   4.083   1.077   6.483  0.7489 -0.4615  2.9751
  126MOL0     H17381   4.131   1.244   6.521 -0.7201  1.0519  0.0347
  126MOL0     H17382   3.945   1.091   6.693 -0.8797  0.8640 -0.4331
  126MOL0     H17383   4.016   1.242   6.730 -1.2343 -1.5067  2.3749
  126MOL0     H17384   4.345   1.012   6.839 -0.3704  1.3349  2.7535
  126MOL0     H17385   4.219   1.497   6.188  1.5604 -1.0033  0.4453
  126MOL0     H17386   4.381   1.582   5.913 -0.4804  1.8636 -4.0803
  126MOL0     H17387   4.229   1.664   5.877 -1.0369 -1.0896 -0.2018
  126MOL0     H17388   4.298   1.668   6.046  1.7115 -1.7447  1.6696
  127MOL0     O17389   0.612   9.514   5.231  0.9518 -0.5939  0.2684
  127MOL0     C17390   0.542   9.427   5.267 -0.0723  0.1307  0.7670
  127MOL0     O17391   0.428   9.447   5.343 -0.5269 -0.6210  0.4400
  127MOL0     C17392   0.374   9.574   5.357 -1.6674 -0.9549 -0.1688
  127MOL0     C17393   0.456   9.664   5.433  0.2617  0.0832  0.7070
  127MOL0     C17394   0.411   9.793   5.462  0.9710 -0.1176 -0.8952
  127MOL0     C17395   0.277   9.831   5.432  0.9696 -0.1532 -0.7411
  127MOL0     O17396   0.218   9.948   5.465  0.1846 -0.3958  0.0960
  127MOL0     C17397   0.278  10.057   5.392 -0.2749  0.6531 -0.1973
  127MOL0     C17398   0.239  10.194   5.443 -0.0233 -0.0348 -0.1215
  127MOL0     C17399   0.272  10.213   5.592  0.4669  1.0414  0.0280
  127MOL0     C17400   0.223  10.343   5.641  0.3563  0.0903  0.2935
  127MOL0     C17401   0.299  10.387   5.760 -0.6204  0.3392 -0.0317
  127MOL0     C17402   0.244  10.516   5.815  0.5687  0.8254  0.2788
  127MOL0     C17403   0.311  10.569   5.939 -0.3251  0.6635  0.1547
  127MOL0     C17404   0.215  10.644   6.035  0.2330  0.1552 -0.4769
  127MOL0     N17405   0.293  10.742   6.117 -0.4345 -0.1950 -0.3755
  127MOL0     C17406   0.376  10.718   6.217  0.4784  0.1595  0.3744
  127MOL0     C17407   0.435  10.838   6.244 -1.1446  0.0464 -0.2022
  127MOL0     C17408   0.538  10.864   6.354 -0.8503 -0.3493 -0.4694
  127MOL0     C17409   0.470  10.952   6.472 -0.3291  0.1175  0.6245
  127MOL0     C17410   0.570  11.021   6.557  0.1688  0.2737  0.3984
  127MOL0     C17411   0.523  11.144   6.619 -0.6042 -1.3282  0.7697
  127MOL0     O17412   0.395  11.135   6.682 -0.0395  0.1079 -0.0886
  127MOL0     C17413   0.342  11.240   6.746  0.1833 -0.3748  0.5539
  127MOL0     C17414   0.402  11.318   6.843  0.4460 -0.1246  0.2136
  127MOL0     C17415   0.338  11.424   6.904  0.8251 -0.2774  0.5048
  127MOL0     C17416   0.420  11.525   6.990 -0.4890 -0.0802  1.7187
  127MOL0     C17417   0.200  11.447   6.874 -0.9194  0.4027  0.4123
  127MOL0     C17418   0.120  11.544   6.945  0.1893  0.4528 -0.3389
  127MOL0     O17419   0.014  11.504   7.023 -0.3783 -0.1567 -0.2920
  127MOL0     C17420  -0.089  11.588   7.057 -0.5621 -0.1793 -0.3680
  127MOL0     C17421  -0.131  11.699   6.976 -0.8512  0.3999  0.7557
  127MOL0     C17422  -0.224  11.790   7.032 -0.7464 -0.3703 -0.0401
  127MOL0     C17423  -0.286  11.755   7.158  0.8224 -0.7259 -0.1272
  127MOL0     O17424  -0.394  11.835   7.200  0.4060  0.8274  0.1191
  127MOL0     C17425  -0.369  11.976   7.200  0.4535 -0.4843 -0.6784
  127MOL0     C17426  -0.505  12.035   7.168 -0.3740  0.4066 -0.4721
  127MOL0     C17427  -0.516  12.182   7.204  0.0335 -0.4983 -0.4203
  127MOL0     C17428  -0.401  12.275   7.162  0.8379  0.2642  0.5625
  127MOL0     C17429  -0.403  12.401   7.253 -0.0919  1.1050 -0.0269
  127MOL0     C17430  -0.338  12.380   7.388  0.1801  0.8732 -0.4301
  127MOL0     C17431  -0.391  12.458   7.503  0.9838  0.1617  1.0285
  127MOL0     C17432  -0.355  12.602   7.501  0.5157 -1.4300 -0.1049
  127MOL0    Cl17433  -0.276  12.665   7.646  0.7455 -0.4400 -0.1251
  127MOL0     C17434  -0.256  11.645   7.233 -0.6230  0.3151  0.0168
  127MOL0     C17435  -0.155  11.567   7.183 -0.2392 -1.4954  0.1239
  127MOL0     O17436   0.158  11.659   6.931 -0.9041 -0.7697 -0.3752
  127MOL0     C17437   0.132  11.367   6.778  0.2814 -0.3250  0.1263
  127MOL0     C17438   0.202  11.262   6.724  0.4931 -0.4378 -0.6117
  127MOL0     N17439   0.373  10.928   6.157 -0.1025  0.7337 -0.3055
  127MOL0     N17440   0.299  10.870   6.074 -0.0345  0.4979 -0.1992
  127MOL0     C17441   0.196   9.731   5.367 -0.0318  0.5858 -0.0646
  127MOL0     C17442   0.247   9.603   5.333  1.1793 -0.3406  0.6496
  127MOL0     C17443   0.568   9.286   5.230  0.5690  0.0427 -0.6550
  127MOL0     C17444   0.515   9.181   5.312 -0.8794 -0.6595  0.3058
  127MOL0     C17445   0.552   9.053   5.295 -0.2197  0.9112 -0.3648
  127MOL0     C17446   0.656   9.013   5.209  0.0343  0.1289  0.5427
  127MOL0     O17447   0.722   8.889   5.188  0.0263 -0.0347 -0.1428
  127MOL0     C17448   0.669   8.779   5.262  0.0335 -0.8084 -0.0067
  127MOL0     C17449   0.721   8.651   5.204 -0.6753  0.6060 -0.5078
  127MOL0     C17450   0.627   8.598   5.088  0.6082 -0.1559  0.2757
  127MOL0     C17451   0.692   8.485   5.005  0.3351  0.3705 -0.3341
  127MOL0     C17452   0.723   8.384   5.106 -0.5393  0.5072  0.5611
  127MOL0     C17453   0.745   8.293   5.195 -0.0636 -0.3129  1.5281
  127MOL0     C17454   0.694   9.103   5.114  0.6518 -0.4112 -0.3057
  127MOL0     C17455   0.651   9.243   5.122  0.3151  0.8961 -0.1025
  127MOL0     C17456   0.692   9.334   5.004 -0.6838 -0.6904 -0.0166
  127MOL0     H17457   0.551   9.633   5.474 -0.2317 -1.5466  0.6603
  127MOL0     H17458   0.473   9.867   5.511 -0.9260  2.3889 -2.0449
  127MOL0     H17459   0.247  10.060   5.287  3.3261 -0.8152 -1.4382
  127MOL0     H17460   0.386  10.040   5.398 -0.3809  0.3629  1.2878
  127MOL0     H17461   0.303  10.270   5.396  0.4018 -2.5803 -4.1203
  127MOL0     H17462   0.135  10.218   5.422  0.4144  2.2382  0.0605
  127MOL0     H17463   0.225  10.137   5.655 -1.1925 -0.3094 -2.6339
  127MOL0     H17464   0.378  10.201   5.618  0.6259  0.0747 -0.9635
  127MOL0     H17465   0.220  10.415   5.558 -3.6171  1.8952  1.7701
  127MOL0     H17466   0.116  10.349   5.663  0.5005  1.4309  0.7106
  127MOL0     H17467   0.405  10.395   5.736 -0.4016 -0.6069  0.6007
  127MOL0     H17468   0.300  10.312   5.839  4.7826 -0.3881 -0.4176
  127MOL0     H17469   0.245  10.596   5.740 -4.2361 -1.3199 -2.5425
  127MOL0     H17470   0.140  10.501   5.845  0.0852  2.7284 -0.3009
  127MOL0     H17471   0.400  10.631   5.924 -1.4550  2.6072  1.1592
  127MOL0     H17472   0.351  10.485   5.998 -2.3559 -0.0261  0.6116
  127MOL0     H17473   0.148  10.711   5.980 -0.3455  1.9043  2.1926
  127MOL0     H17474   0.152  10.588   6.104  0.2933 -0.7042 -1.1034
  127MOL0     H17475   0.402  10.621   6.259 -0.9159  0.2935  1.6283
  127MOL0     H17476   0.609  10.932   6.307 -3.7135  3.3553  0.0416
  127MOL0     H17477   0.583  10.783   6.411  0.0411  0.8038  0.5047
  127MOL0     H17478   0.391  11.016   6.434 -0.7331  0.4382  1.9411
  127MOL0     H17479   0.416  10.880   6.535 -0.6918 -1.2487 -1.1779
  127MOL0     H17480   0.607  10.941   6.621 -1.2583  0.6311  1.7506
  127MOL0     H17481   0.656  11.047   6.495 -0.1772  3.1635  0.9804
  127MOL0     H17482   0.591  11.189   6.692 -0.7040 -1.7618  1.1360
  127MOL0     H17483   0.518  11.223   6.543 -1.2301 -0.1610  1.9831
  127MOL0     H17484   0.505  11.301   6.873  0.7473  2.2984  0.7340
  127MOL0     H17485   0.374  11.530   7.089 -2.1910 -1.4767  1.0443
  127MOL0     H17486   0.410  11.622   6.940 -1.8173 -0.2814  1.5802
  127MOL0     H17487   0.525  11.493   6.990 -0.1396  0.8655  3.6682
  127MOL0     H17488  -0.086  11.713   6.878  0.8604  2.5526  1.7750
  127MOL0     H17489  -0.260  11.869   6.966 -0.3955 -0.1715  0.0003
  127MOL0     H17490  -0.338  12.013   7.298 -1.1211 -0.2098 -0.2589
  127MOL0     H17491  -0.290  12.020   7.138 -0.7682 -0.2184 -2.1135
  127MOL0     H17492  -0.509  12.029   7.059 -0.6100 -0.8677 -0.4180
  127MOL0     H17493  -0.582  11.974   7.216  1.3554 -0.5858  1.1674
  127MOL0     H17494  -0.538  12.195   7.310 -2.5503 -1.1384 -0.8090
  127MOL0     H17495  -0.611  12.216   7.160  0.5684 -0.8003 -1.8591
  127MOL0     H17496  -0.411  12.310   7.059 -1.4749  1.4302  1.1167
  127MOL0     H17497  -0.300  12.232   7.171  0.8238  0.4763  2.0586
  127MOL0     H17498  -0.355  12.484   7.200  0.5062  1.0257  0.3762
  127MOL0     H17499  -0.504  12.444   7.257  0.7763  3.4333 -1.1539
  127MOL0     H17500  -0.232  12.401   7.370 -0.0859  2.0517 -0.7464
  127MOL0     H17501  -0.350  12.279   7.428  0.9365  1.5008  1.4865
  127MOL0     H17502  -0.342  12.418   7.592 -0.6566 -1.4069  1.2824
  127MOL0     H17503  -0.499  12.441   7.501  0.4381  2.9206 -1.9380
  127MOL0     H17504  -0.447  12.657   7.479  1.1397 -0.4936 -0.4315
  127MOL0     H17505  -0.286  12.617   7.417 -1.7325 -1.2766 -2.0346
  127MOL0     H17506  -0.322  11.636   7.319  1.1385  0.7755  1.4680
  127MOL0     H17507  -0.134  11.477   7.241  0.8551  0.4493  2.9442
  127MOL0     H17508   0.034  11.392   6.738 -0.5259 -3.9814 -0.5430
  127MOL0     H17509   0.159  11.193   6.651  2.6117 -1.3352 -1.0814
  127MOL0     H17510   0.089   9.752   5.366 -0.3181 -0.7496 -0.3274
  127MOL0     H17511   0.189   9.530   5.278  0.5304  1.4130 -1.0967
  127MOL0     H17512   0.445   9.205   5.392 -0.4864 -1.7735  1.0172
  127MOL0     H17513   0.503   8.968   5.343  3.4647  0.2198  2.6114
  127MOL0     H17514   0.686   8.781   5.370 -1.9408  0.0520  0.3372
  127MOL0     H17515   0.560   8.778   5.252  0.1252 -4.1575 -2.1009
  127MOL0     H17516   0.735   8.570   5.276 -0.9307  0.2919 -0.8120
  127MOL0     H17517   0.823   8.673   5.171 -0.4790 -2.3732 -2.2142
  127MOL0     H17518   0.530   8.569   5.130 -0.3234  1.3354 -0.7521
  127MOL0     H17519   0.596   8.688   5.034  2.1502  1.8082  2.4452
  127MOL0     H17520   0.774   8.523   4.943  1.3243  4.5834  3.0786
  127MOL0     H17521   0.619   8.430   4.945 -0.3607 -1.1617  1.8176
  127MOL0     H17522   0.762   8.203   5.251 -0.8185 -2.1009 -0.9126
  127MOL0     H17523   0.750   9.067   5.028  0.1863  3.7751 -2.6544
  127MOL0     H17524   0.607   9.400   4.986 -0.4963 -0.8805 -1.7488
  127MOL0     H17525   0.770   9.407   5.031 -0.9459  0.4224 -2.0969
  127MOL0     H17526   0.716   9.281   4.911 -1.4521  0.4968 -0.9103
  128MOL0     O17527  11.380   5.375   6.634  0.2531  0.2329 -0.0746
  128MOL0     C17528  11.260   5.397   6.660 -0.4898 -0.2382 -0.7192
  128MOL0     O17529  11.159   5.390   6.575  1.2437 -0.1223  0.1929
  128MOL0     C17530  11.171   5.368   6.439  0.2064  0.7260 -0.9891
  128MOL0     C17531  11.189   5.468   6.343  0.8506  0.3420  0.1608
  128MOL0     C17532  11.188   5.427   6.205  0.0069  0.0204 -0.4825
  128MOL0     C17533  11.189   5.293   6.167  0.7250  0.2360 -0.6125
  128MOL0     O17534  11.184   5.257   6.038 -0.5352 -0.5453 -0.3367
  128MOL0     C17535  11.164   5.347   5.922 -0.5370 -1.1109 -0.3663
  128MOL0     C17536  11.179   5.276   5.789  0.3671  0.0283  0.1501
  128MOL0     C17537  11.327   5.222   5.783  0.4072 -0.1811  0.4464
  128MOL0     C17538  11.368   5.157   5.654 -0.9017 -0.5232  0.3384
  128MOL0     C17539  11.373   5.249   5.523 -0.6953  0.5769  0.7262
  128MOL0     C17540  11.498   5.322   5.511 -0.0935  0.1010  1.0064
  128MOL0     C17541  11.481   5.408   5.380  0.0550 -0.7321  0.8979
  128MOL0     C17542  11.622   5.481   5.355  0.4085  0.5280  0.0295
  128MOL0     N17543  11.659   5.580   5.458  0.8746  0.6511 -0.9910
  128MOL0     C17544  11.735   5.543   5.572 -0.8993 -1.0366  0.3687
  128MOL0     C17545  11.735   5.659   5.650  0.1794  0.2959 -0.9427
  128MOL0     C17546  11.768   5.645   5.792 -0.9459 -0.2256 -0.4655
  128MOL0     C17547  11.703   5.529   5.860 -0.7346  0.1510 -0.2642
  128MOL0     C17548  11.551   5.565   5.860 -1.3052  0.0875  0.3927
  128MOL0     C17549  11.498   5.665   5.974  0.4302  0.4471  0.4123
  128MOL0     O17550  11.597   5.695   6.068  0.3007  0.4561 -1.0721
  128MOL0     C17551  11.543   5.740   6.181 -0.1312 -0.6551 -0.8094
  128MOL0     C17552  11.598   5.680   6.292  0.8692  0.7265  1.5544
  128MOL0     C17553  11.555   5.707   6.432  0.2489 -0.2598 -0.5605
  128MOL0     C17554  11.606   5.619   6.546  0.5492 -0.3263  0.5881
  128MOL0     C17555  11.468   5.818   6.447 -0.9451  0.0431 -0.0597
  128MOL0     C17556  11.413   5.875   6.576 -0.7529  0.2626 -2.0051
  128MOL0     O17557  11.303   5.950   6.574  0.3133 -0.7271 -0.0875
  128MOL0     C17558  11.217   5.991   6.670  0.3800  0.5771 -1.0496
  128MOL0     C17559  11.116   6.079   6.633  0.0712  0.6262  0.5405
  128MOL0     C17560  11.024   6.136   6.723  0.7261 -0.4125  0.4190
  128MOL0     C17561  11.022   6.086   6.856 -0.0715  0.3962 -0.4506
  128MOL0     O17562  10.930   6.113   6.966 -0.4551  0.8546 -0.8001
  128MOL0     C17563  10.822   6.200   6.937 -1.0910  0.5124  0.0915
  128MOL0     C17564  10.754   6.219   7.064  0.3479  1.3936 -1.0154
  128MOL0     C17565  10.640   6.318   7.046  0.2539  0.7115  0.2094
  128MOL0     C17566  10.583   6.353   7.181  0.4661  0.3566 -0.0665
  128MOL0     C17567  10.458   6.452   7.161 -0.2326 -0.2797 -1.4035
  128MOL0     C17568  10.387   6.476   7.295  0.4624  0.0980 -0.8291
  128MOL0     C17569  10.278   6.577   7.275 -0.5875  0.4248 -0.5383
  128MOL0     C17570  10.342   6.724   7.272  0.6262 -0.4932  0.2049
  128MOL0    Cl17571  10.457   6.764   7.413 -0.3528  0.0357  0.0627
  128MOL0     C17572  11.121   5.992   6.890 -0.2436 -0.8008  0.2448
  128MOL0     C17573  11.219   5.947   6.805 -0.3671 -0.4853  1.0334
  128MOL0     O17574  11.479   5.838   6.674 -0.2906 -0.1586  0.2004
  128MOL0     C17575  11.426   5.891   6.333  0.1392 -1.4752  0.8323
  128MOL0     C17576  11.451   5.846   6.202  0.4215  0.6317  0.5903
  128MOL0     N17577  11.670   5.761   5.578  0.3980 -0.5082  0.4511
  128MOL0     N17578  11.633   5.715   5.467  0.6791 -0.7095 -0.6377
  128MOL0     C17579  11.178   5.196   6.263  0.8465  0.1349  0.1505
  128MOL0     C17580  11.168   5.231   6.397  0.0157  0.4039 -0.2885
  128MOL0     C17581  11.225   5.460   6.790 -0.6433 -0.6134 -0.8758
  128MOL0     C17582  11.091   5.501   6.797 -0.4849  0.3558  0.5503
  128MOL0     C17583  11.041   5.566   6.914 -0.2285 -0.1898 -0.4155
  128MOL0     C17584  11.122   5.599   7.018  0.4964 -0.1305  0.0126
  128MOL0     O17585  11.042   5.641   7.123  0.7367  0.0186 -0.3539
  128MOL0     C17586  11.095   5.703   7.244 -0.6089  1.0961 -0.8205
  128MOL0     C17587  11.031   5.839   7.267  0.6062  0.1621 -0.0254
  128MOL0     C17588  11.032   5.854   7.421 -0.4169 -1.2049 -0.2104
  128MOL0     C17589  10.996   5.991   7.477  0.2878 -0.5857 -1.0287
  128MOL0     C17590  11.008   5.993   7.633 -0.2021  0.9666  0.6627
  128MOL0     C17591  11.002   5.951   7.750  0.3125 -0.8548 -0.0818
  128MOL0     C17592  11.257   5.572   7.003 -0.0427 -0.2925  0.1689
  128MOL0     C17593  11.314   5.507   6.894  0.6872 -0.2332 -0.2724
  128MOL0     C17594  11.471   5.496   6.897  0.2357 -0.2893 -0.2702
  128MOL0     H17595  11.184   5.571   6.377  1.0412  0.4294 -0.0728
  128MOL0     H17596  11.200   5.497   6.123  0.6363  0.0714 -0.3561
  128MOL0     H17597  11.246   5.417   5.937 -0.1746 -1.9682  2.2071
  128MOL0     H17598  11.070   5.403   5.915  0.7157  1.1288 -0.2653
  128MOL0     H17599  11.096   5.206   5.781 -0.2351  0.4488  2.1683
  128MOL0     H17600  11.170   5.345   5.704  0.0617  0.6840  0.7050
  128MOL0     H17601  11.389   5.310   5.798 -0.0657  1.0925 -3.7445
  128MOL0     H17602  11.349   5.148   5.860  4.1362 -0.7123 -0.9485
  128MOL0     H17603  11.471   5.121   5.656 -0.2507  1.1304 -0.6119
  128MOL0     H17604  11.295   5.079   5.633  0.5263 -1.5930 -0.8393
  128MOL0     H17605  11.290   5.318   5.538  0.6142  2.1243  1.2243
  128MOL0     H17606  11.372   5.188   5.432 -0.3537  0.1646  0.9956
  128MOL0     H17607  11.524   5.384   5.598  0.4073  0.3715  0.6686
  128MOL0     H17608  11.586   5.261   5.488  0.6024  1.8812 -1.5580
  128MOL0     H17609  11.406   5.484   5.403  0.2000 -0.2174 -0.2840
  128MOL0     H17610  11.453   5.359   5.286 -2.7859  1.4788  0.4458
  128MOL0     H17611  11.702   5.408   5.339 -2.0652 -1.9326 -2.0274
  128MOL0     H17612  11.614   5.526   5.256  1.6826 -1.2798 -0.9522
  128MOL0     H17613  11.783   5.451   5.604  1.1596 -0.7059 -1.4644
  128MOL0     H17614  11.738   5.739   5.840  1.1945  1.5579 -2.3930
  128MOL0     H17615  11.876   5.642   5.810 -0.9226  1.0598 -0.3023
  128MOL0     H17616  11.723   5.432   5.813  1.0640  0.4445 -0.1881
  128MOL0     H17617  11.736   5.526   5.964  0.2786  2.4842 -0.4423
  128MOL0     H17618  11.528   5.594   5.758  1.3684 -0.0791 -0.3232
  128MOL0     H17619  11.502   5.469   5.878 -0.3909  0.1824  4.4069
  128MOL0     H17620  11.461   5.753   5.922 -1.3041  0.0378  0.8800
  128MOL0     H17621  11.417   5.603   6.016 -0.8612 -0.3810 -2.9797
  128MOL0     H17622  11.666   5.597   6.275  1.2179  1.2100  0.5381
  128MOL0     H17623  11.679   5.544   6.515 -1.1135 -2.6067  1.9106
  128MOL0     H17624  11.526   5.553   6.579  0.8307 -0.9985 -0.0571
  128MOL0     H17625  11.645   5.677   6.630 -1.6532 -0.6629  1.9146
  128MOL0     H17626  11.119   6.113   6.530  1.2978 -1.4299 -0.1557
  128MOL0     H17627  10.947   6.204   6.688  2.5169  1.7479  0.4472
  128MOL0     H17628  10.857   6.299   6.907  1.3481 -0.9493 -2.4734
  128MOL0     H17629  10.750   6.147   6.874 -2.1420  1.4292  0.4937
  128MOL0     H17630  10.698   6.129   7.090 -1.5415  2.0046 -2.6955
  128MOL0     H17631  10.829   6.239   7.140 -0.5147 -0.7772  0.5144
  128MOL0     H17632  10.563   6.276   6.981 -0.4451  1.4406  0.5461
  128MOL0     H17633  10.686   6.407   7.001  0.0123 -0.0221 -1.5618
  128MOL0     H17634  10.650   6.401   7.253 -2.4984  2.4740  1.4970
  128MOL0     H17635  10.552   6.258   7.227  2.8014 -0.0877  0.7676
  128MOL0     H17636  10.480   6.546   7.109 -0.5438 -0.2099 -1.4147
  128MOL0     H17637  10.392   6.405   7.088 -0.0629 -1.4439 -0.8312
  128MOL0     H17638  10.452   6.507   7.377 -1.0487 -1.3561  1.0037
  128MOL0     H17639  10.351   6.378   7.327 -0.0323  1.4825  3.4689
  128MOL0     H17640  10.209   6.566   7.360  0.7654 -1.5414  0.3677
  128MOL0     H17641  10.227   6.557   7.180  0.6441  2.1709 -1.6296
  128MOL0     H17642  10.266   6.802   7.279 -0.4129 -1.3917 -0.7172
  128MOL0     H17643  10.394   6.732   7.176  0.0786 -2.0974 -0.2568
  128MOL0     H17644  11.132   5.969   6.995 -2.2300  0.0173  0.6837
  128MOL0     H17645  11.288   5.868   6.834  1.4876  0.5999 -0.1991
  128MOL0     H17646  11.365   5.980   6.344  0.9061 -0.2145 -3.3212
  128MOL0     H17647  11.401   5.892   6.118 -1.4294 -1.1222  0.6490
  128MOL0     H17648  11.180   5.090   6.237 -2.4570  0.2861 -1.3295
  128MOL0     H17649  11.176   5.159   6.478 -0.2656 -0.9952 -1.4913
  128MOL0     H17650  11.013   5.472   6.728 -0.8026 -0.8158  1.3771
  128MOL0     H17651  10.936   5.585   6.934  0.5542  1.5124  2.7371
  128MOL0     H17652  11.078   5.633   7.326  2.9290  1.0734  0.0692
  128MOL0     H17653  11.203   5.712   7.230 -0.1828 -1.0788  0.6972
  128MOL0     H17654  10.930   5.830   7.227 -0.5286 -1.4566  2.9453
  128MOL0     H17655  11.097   5.918   7.230  0.4831  1.1903  1.8413
  128MOL0     H17656  10.961   5.786   7.468  0.5913 -0.9304  1.8062
  128MOL0     H17657  11.133   5.825   7.449  0.5580  2.2408  0.2735
  128MOL0     H17658  10.894   6.019   7.452 -0.6920 -2.4189  0.6312
  128MOL0     H17659  11.064   6.062   7.429 -0.1514 -0.8527 -2.0615
  128MOL0     H17660  11.010   5.915   7.850 -1.4014 -2.2100 -0.3653
  128MOL0     H17661  11.314   5.579   7.095 -2.9096 -0.9464  2.1652
  128MOL0     H17662  11.506   5.505   6.794 -2.8565  2.4604 -1.3025
  128MOL0     H17663  11.515   5.572   6.963  1.1195 -0.6383 -0.4592
  128MOL0     H17664  11.493   5.402   6.947  2.3627  1.1170  1.6387
  129MOL0     O17665   3.406   4.424  10.251  0.2239  0.7935  0.0332
  129MOL0     C17666   3.360   4.473  10.347  0.3179 -0.2671 -0.4960
  129MOL0     O17667   3.291   4.410  10.438 -0.3469  0.3535  0.9293
  129MOL0     C17668   3.248   4.283  10.420  1.6053 -1.2850  0.0340
  129MOL0     C17669   3.138   4.259  10.341  0.3423  0.4307  0.2283
  129MOL0     C17670   3.075   4.127  10.338  0.5095 -0.7425 -0.8532
  129MOL0     C17671   3.116   4.032  10.429  0.7075 -0.0978  0.4597
  129MOL0     O17672   3.050   3.921  10.463 -0.1803  0.7903 -0.1868
  129MOL0     C17673   2.947   3.867  10.372 -0.4756 -0.8086 -0.3443
  129MOL0     C17674   2.904   3.733  10.431  0.7087  0.3007 -0.1121
  129MOL0     C17675   3.008   3.633  10.484 -1.4051  0.8319 -0.5434
  129MOL0     C17676   2.934   3.512  10.544 -0.3790  0.9450  0.3423
  129MOL0     C17677   3.031   3.390  10.544  0.8281  0.1480 -0.2063
  129MOL0     C17678   3.153   3.409  10.644 -0.2396 -0.2147  0.1955
  129MOL0     C17679   3.232   3.289  10.626 -0.5376  1.0881  0.5123
  129MOL0     C17680   3.375   3.309  10.687  0.3488 -0.5349 -0.0710
  129MOL0     N17681   3.378   3.327  10.835  0.6471  0.2221  1.3433
  129MOL0     C17682   3.388   3.449  10.904 -0.0816  0.1527 -0.7203
  129MOL0     C17683   3.358   3.423  11.034 -0.2865 -0.0870 -0.1991
  129MOL0     C17684   3.339   3.515  11.144  0.6389 -0.2493 -0.4866
  129MOL0     C17685   3.197   3.486  11.196  0.3055 -0.2309  0.1817
  129MOL0     C17686   3.152   3.584  11.313  0.1182 -0.4278 -0.6670
  129MOL0     C17687   3.143   3.735  11.290  0.5571  0.4205  0.2376
  129MOL0     O17688   3.273   3.778  11.306 -0.0001 -0.4208 -0.2486
  129MOL0     C17689   3.298   3.915  11.303 -0.5873 -0.2359 -0.3196
  129MOL0     C17690   3.415   3.941  11.379 -0.0967 -0.0033 -0.0662
  129MOL0     C17691   3.451   4.072  11.412  0.9391  0.5767  0.2578
  129MOL0     C17692   3.582   4.091  11.480 -1.0666  1.3307  0.1716
  129MOL0     C17693   3.364   4.177  11.373 -0.0614  0.7050  0.2636
  129MOL0     C17694   3.403   4.320  11.391  0.5761  0.4569  0.9018
  129MOL0     O17695   3.321   4.410  11.335  0.0031 -0.0063  0.0090
  129MOL0     C17696   3.334   4.549  11.350  0.3155  0.1904  0.5840
  129MOL0     C17697   3.390   4.611  11.462 -0.3333  0.4849  0.2963
  129MOL0     C17698   3.416   4.747  11.453 -0.1219 -0.3732  1.0154
  129MOL0     C17699   3.396   4.819  11.341  0.2084 -0.9816  0.2700
  129MOL0     O17700   3.451   4.948  11.349 -0.0247  0.2643  0.7284
  129MOL0     C17701   3.414   5.038  11.248 -0.1027 -0.6076  1.3601
  129MOL0     C17702   3.330   5.139  11.317 -0.2358 -0.4800 -1.0880
  129MOL0     C17703   3.421   5.242  11.382  0.2144 -0.5871  0.1593
  129MOL0     C17704   3.312   5.333  11.455 -0.3514  0.1040 -0.2722
  129MOL0     C17705   3.361   5.419  11.573  0.5330 -0.6067 -0.7180
  129MOL0     C17706   3.492   5.508  11.559  0.1319  0.2233  0.3013
  129MOL0     C17707   3.542   5.572  11.690 -0.4178  1.1128  0.1754
  129MOL0     C17708   3.623   5.472  11.790  0.5224 -0.8173 -0.0004
  129MOL0    Cl17709   3.713   5.340  11.693  0.3765 -0.4480  0.0131
  129MOL0     C17710   3.330   4.763  11.232 -0.5099  1.2243  0.0294
  129MOL0     C17711   3.303   4.621  11.228 -0.9018 -1.0575 -0.5461
  129MOL0     O17712   3.513   4.348  11.442 -0.1369 -0.6689 -0.3530
  129MOL0     C17713   3.235   4.149  11.301 -0.2502 -0.4242 -0.0957
  129MOL0     C17714   3.207   4.014  11.269  0.5658 -0.5413  0.0983
  129MOL0     N17715   3.338   3.286  11.038  0.2870 -0.6316 -0.0055
  129MOL0     N17716   3.344   3.230  10.924  0.3978  0.5037  0.3446
  129MOL0     C17717   3.231   4.059  10.497 -0.3708  0.1010 -0.8555
  129MOL0     C17718   3.298   4.179  10.493  0.0659  0.8986  0.4704
  129MOL0     C17719   3.384   4.628  10.366 -1.0848  0.6983 -0.9115
  129MOL0     C17720   3.326   4.682  10.477  0.7256  0.0606  0.1939
  129MOL0     C17721   3.322   4.818  10.490  0.5507 -0.2686  0.5125
  129MOL0     C17722   3.391   4.904  10.399 -0.2661  0.0662  0.3874
  129MOL0     O17723   3.393   5.039  10.401  0.3754  0.7298  0.0932
  129MOL0     C17724   3.301   5.122  10.477  0.2129 -0.2630  0.0212
  129MOL0     C17725   3.154   5.102  10.437 -0.1088  0.8961  0.0474
  129MOL0     C17726   3.053   5.152  10.533 -0.4023  0.0641 -0.2990
  129MOL0     C17727   2.934   5.062  10.546  0.0781 -0.1218  0.1063
  129MOL0     C17728   2.962   4.918  10.573 -0.1900 -0.4872 -0.3483
  129MOL0     C17729   2.959   4.802  10.600  0.3284  0.0864  0.2707
  129MOL0     C17730   3.468   4.848  10.303  1.4146 -0.5976 -0.2857
  129MOL0     C17731   3.470   4.709  10.281  0.3562 -0.1779 -0.3800
  129MOL0     C17732   3.542   4.656  10.162  0.4404  0.4030 -1.1316
  129MOL0     H17733   3.094   4.342  10.287  0.9829  1.0756  0.6838
  129MOL0     H17734   2.978   4.116  10.290 -0.8722 -1.5132  1.9094
  129MOL0     H17735   2.985   3.839  10.273 -0.7104 -1.0703 -0.3633
  129MOL0     H17736   2.866   3.938  10.356  0.5308  0.3361 -0.5342
  129MOL0     H17737   2.843   3.767  10.515  2.1539  2.7868  0.0169
  129MOL0     H17738   2.834   3.686  10.361  0.6948 -1.7795  1.1888
  129MOL0     H17739   3.080   3.605  10.406 -1.5574  0.3954 -0.5309
  129MOL0     H17740   3.074   3.681  10.557  1.2332  0.6396 -2.6496
  129MOL0     H17741   2.896   3.518  10.646 -2.1354 -0.5226 -0.1790
  129MOL0     H17742   2.850   3.489  10.479 -1.0342  0.0550  1.4689
  129MOL0     H17743   3.058   3.370  10.440 -5.9320 -1.1668 -2.1829
  129MOL0     H17744   2.975   3.302  10.577  2.5950 -1.0366 -0.2480
  129MOL0     H17745   3.210   3.498  10.615  3.2322 -2.3779 -0.2347
  129MOL0     H17746   3.134   3.424  10.750  5.0004 -0.8448  1.4868
  129MOL0     H17747   3.240   3.268  10.519 -1.7332  6.0462 -0.7750
  129MOL0     H17748   3.183   3.201  10.670  1.7626 -1.7286 -2.0784
  129MOL0     H17749   3.436   3.222  10.660  3.7482  1.8521 -0.5514
  129MOL0     H17750   3.421   3.393  10.635 -1.8533 -0.2567 -1.7128
  129MOL0     H17751   3.405   3.542  10.850  0.9811  1.4270  1.6395
  129MOL0     H17752   3.345   3.612  11.093  0.5827 -0.5527 -1.0746
  129MOL0     H17753   3.416   3.501  11.220 -0.3133 -0.3071  0.4876
  129MOL0     H17754   3.124   3.489  11.114 -1.3071 -0.6011  1.5287
  129MOL0     H17755   3.189   3.391  11.249 -1.7801  0.5136  1.3316
  129MOL0     H17756   3.053   3.560  11.354  1.3055  2.0918  4.4761
  129MOL0     H17757   3.227   3.566  11.390  0.2693  1.8582 -0.2237
  129MOL0     H17758   3.101   3.752  11.190 -0.6360  0.2064  0.6881
  129MOL0     H17759   3.080   3.764  11.374 -0.4473 -0.1741 -0.2882
  129MOL0     H17760   3.478   3.858  11.409 -1.0222 -0.8249 -0.3716
  129MOL0     H17761   3.616   3.998  11.528 -1.8985  0.2528 -1.2327
  129MOL0     H17762   3.571   4.162  11.563 -1.6667  4.1233 -2.1474
  129MOL0     H17763   3.656   4.134  11.412  1.2256 -0.9096  1.0567
  129MOL0     H17764   3.404   4.560  11.556 -1.4066  0.5143  0.4928
  129MOL0     H17765   3.458   4.810  11.531 -1.0565  1.7088 -0.0828
  129MOL0     H17766   3.508   5.073  11.203 -1.2401  2.2234  0.9540
  129MOL0     H17767   3.350   5.003  11.167  0.4896 -0.5210  0.8394
  129MOL0     H17768   3.250   5.180  11.255 -0.1503  0.2038 -0.7440
  129MOL0     H17769   3.287   5.086  11.403 -0.1788 -2.3153 -2.1186
  129MOL0     H17770   3.487   5.298  11.315 -1.0577 -2.5270 -2.9455
  129MOL0     H17771   3.488   5.201  11.459  3.0951 -0.0440 -1.8809
  129MOL0     H17772   3.227   5.282  11.500 -1.6396 -0.5041 -3.1556
  129MOL0     H17773   3.273   5.394  11.373 -1.6710  0.4981  0.6207
  129MOL0     H17774   3.291   5.499  11.599  2.1266  1.0691 -1.3485
  129MOL0     H17775   3.379   5.359  11.663 -1.4926 -1.7552 -1.0162
  129MOL0     H17776   3.468   5.595  11.496  0.2665  0.5739  0.7228
  129MOL0     H17777   3.571   5.465  11.497 -0.8891  1.7997 -2.2720
  129MOL0     H17778   3.459   5.622  11.741 -3.3046 -2.4562 -0.5769
  129MOL0     H17779   3.613   5.646  11.652 -1.6036  1.6646 -1.0651
  129MOL0     H17780   3.548   5.418  11.849 -2.2552  2.4954 -0.1629
  129MOL0     H17781   3.701   5.526  11.845  1.5172 -1.8904 -0.3160
  129MOL0     H17782   3.315   4.808  11.135  1.5044 -1.4474 -1.6509
  129MOL0     H17783   3.274   4.576  11.134  0.3591 -1.1061 -0.9347
  129MOL0     H17784   3.166   4.224  11.265  0.5541 -0.0290 -0.8495
  129MOL0     H17785   3.117   3.974  11.225  1.6402 -0.0283 -2.7413
  129MOL0     H17786   3.262   3.982  10.567 -3.1282 -2.1461 -1.9095
  129MOL0     H17787   3.384   4.178  10.560  2.3574  0.7653 -2.2566
  129MOL0     H17788   3.270   4.621  10.546  1.7407 -2.3450 -0.9977
  129MOL0     H17789   3.260   4.852  10.572  0.4288 -1.0664  0.7617
  129MOL0     H17790   3.311   5.093  10.582 -1.6653  1.3516  0.6954
  129MOL0     H17791   3.339   5.221  10.450 -1.7224  0.1480 -1.3883
  129MOL0     H17792   3.150   4.994  10.420 -0.7110  0.4622  2.5660
  129MOL0     H17793   3.147   5.159  10.343  0.0119 -1.7947 -1.7011
  129MOL0     H17794   3.082   5.157  10.639 -0.5620 -1.3057 -0.1703
  129MOL0     H17795   3.024   5.253  10.504 -0.6105  1.4083  3.8837
  129MOL0     H17796   2.871   5.062  10.457  0.4048  0.4327 -0.1360
  129MOL0     H17797   2.871   5.096  10.629 -0.7052 -1.6747  0.1750
  129MOL0     H17798   2.948   4.701  10.634 -1.0780  0.1332  0.0335
  129MOL0     H17799   3.523   4.912  10.235 -0.4241  2.0762  0.6104
  129MOL0     H17800   3.465   4.641  10.086  0.4702  1.0779 -1.3001
  129MOL0     H17801   3.628   4.720  10.141  0.1908  1.8519  1.6874
  129MOL0     H17802   3.589   4.562  10.194  2.3536  0.9259 -2.2595
  130MOL0     O17803  11.625   4.904   6.097  0.3426  0.2787 -0.2215
  130MOL0     C17804  11.507   4.927   6.103  0.3321 -0.0533  1.0096
  130MOL0     O17805  11.452   5.012   6.193 -0.5862 -0.7933 -0.7356
  130MOL0     C17806  11.537   5.087   6.263 -0.0107 -0.4381  0.2667
  130MOL0     C17807  11.530   5.227   6.224 -0.1433  0.6556 -0.0083
  130MOL0     C17808  11.629   5.310   6.276 -0.8461 -0.7860 -0.1002
  130MOL0     C17809  11.727   5.262   6.372  0.5516 -0.6387 -0.0498
  130MOL0     O17810  11.833   5.337   6.411 -0.4819 -0.0408 -1.0389
  130MOL0     C17811  11.944   5.366   6.324 -0.6889 -0.5280 -0.7737
  130MOL0     C17812  11.924   5.487   6.237 -0.5525 -0.7704  0.0788
  130MOL0     C17813  12.024   5.510   6.125  0.1163  0.3170 -0.1877
  130MOL0     C17814  12.173   5.525   6.174 -0.1772  0.2106  0.7757
  130MOL0     C17815  12.276   5.548   6.070  0.0366  0.2847 -0.1459
  130MOL0     C17816  12.272   5.680   5.993 -0.3884 -0.4199 -0.6145
  130MOL0     C17817  12.368   5.667   5.878 -0.7840  0.1654 -0.2169
  130MOL0     C17818  12.375   5.801   5.793 -0.9582 -0.3788 -0.3797
  130MOL0     N17819  12.470   5.795   5.684 -0.4899  0.9972  0.3925
  130MOL0     C17820  12.598   5.849   5.690 -0.2972  0.0592 -0.4057
  130MOL0     C17821  12.674   5.788   5.600 -0.3819  0.3630  0.4533
  130MOL0     C17822  12.820   5.823   5.567  0.8517  0.2891 -0.1152
  130MOL0     C17823  12.867   5.960   5.624  1.2804  0.2191  0.2765
  130MOL0     C17824  12.995   6.002   5.552 -0.9615 -0.7773  0.3384
  130MOL0     C17825  13.115   5.918   5.601  0.1775  0.3284  0.1400
  130MOL0     O17826  13.157   5.982   5.730 -0.0701 -0.6429  0.9129
  130MOL0     C17827  13.284   6.038   5.731 -0.2507  0.3869  1.4344
  130MOL0     C17828  13.305   6.180   5.738 -0.0409  0.9476 -0.1278
  130MOL0     C17829  13.439   6.225   5.739 -0.6918  0.3085  0.6256
  130MOL0     C17830  13.452   6.369   5.776 -1.0858  0.6595  0.1150
  130MOL0     C17831  13.548   6.145   5.715 -0.2770 -0.0950 -0.2673
  130MOL0     C17832  13.689   6.178   5.712  1.0312  0.3669 -0.0418
  130MOL0     O17833  13.782   6.078   5.728  0.1304  0.3371  0.0602
  130MOL0     C17834  13.913   6.101   5.748  0.1631 -0.1046  0.5274
  130MOL0     C17835  13.992   5.992   5.712  1.7497 -0.1916  0.5813
  130MOL0     C17836  14.128   5.996   5.743 -0.5196  0.3329  0.8204
  130MOL0     C17837  14.181   6.114   5.802 -0.7742  0.2905  0.1388
  130MOL0     O17838  14.313   6.124   5.842  0.1532 -0.0338 -0.5858
  130MOL0     C17839  14.410   6.047   5.766  0.6753 -0.2568 -0.0116
  130MOL0     C17840  14.422   5.901   5.811 -0.5705  0.4541 -0.1324
  130MOL0     C17841  14.471   5.806   5.692  1.0912  0.1239 -0.0762
  130MOL0     C17842  14.446   5.660   5.710  0.0998  0.0829  0.7931
  130MOL0     C17843  14.501   5.564   5.608 -0.1281  0.9469 -0.0471
  130MOL0     C17844  14.410   5.548   5.485  0.2992  0.7256 -0.0936
  130MOL0     C17845  14.432   5.432   5.392 -1.3523 -0.5140 -0.1714
  130MOL0     C17846  14.358   5.453   5.264 -0.3443 -0.0818 -0.7184
  130MOL0    Cl17847  14.187   5.452   5.281 -0.7344  0.1599  0.7456
  130MOL0     C17848  14.098   6.214   5.842 -0.3667 -1.4473 -0.7940
  130MOL0     C17849  13.962   6.215   5.816  0.2997 -0.3666  0.2224
  130MOL0     O17850  13.718   6.295   5.697  0.1840  0.2993  0.2777
  130MOL0     C17851  13.520   6.007   5.696  0.2400  0.2137 -1.1998
  130MOL0     C17852  13.392   5.956   5.716 -0.8938  0.8688 -0.3839
  130MOL0     N17853  12.604   5.700   5.535 -0.3995 -0.1640 -0.2501
  130MOL0     N17854  12.473   5.712   5.576 -0.1393 -0.5347 -0.0571
  130MOL0     C17855  11.724   5.120   6.418 -0.0996 -0.3124 -0.2004
  130MOL0     C17856  11.626   5.032   6.362  0.0868 -0.4477 -1.4480
  130MOL0     C17857  11.402   4.860   6.019 -0.3947 -0.1682 -0.7538
  130MOL0     C17858  11.287   4.796   6.072  0.8088  0.1069  0.4569
  130MOL0     C17859  11.197   4.733   5.988 -0.4469 -0.6131 -0.1430
  130MOL0     C17860  11.214   4.734   5.847  0.7342  0.0724  1.1859
  130MOL0     O17861  11.108   4.685   5.774  0.2113  0.6487 -0.0534
  130MOL0     C17862  11.138   4.565   5.689 -0.1174 -1.0298  1.2399
  130MOL0     C17863  11.015   4.476   5.668 -0.4008 -0.2434 -0.5888
  130MOL0     C17864  10.987   4.381   5.793 -0.2843 -0.6809  0.9577
  130MOL0     C17865  11.100   4.276   5.823  0.1369  1.1843 -0.3714
  130MOL0     C17866  11.148   4.204   5.707 -0.9123  0.6810  0.1520
  130MOL0     C17867  11.195   4.142   5.614 -0.4445 -0.5768 -0.7027
  130MOL0     C17868  11.326   4.790   5.798 -0.3942  1.2501 -0.4689
  130MOL0     C17869  11.425   4.847   5.881 -0.0022  0.0807  1.4479
  130MOL0     C17870  11.552   4.895   5.814  0.1376  0.1015  1.0545
  130MOL0     H17871  11.474   5.262   6.138  3.0836  0.2100 -2.4655
  130MOL0     H17872  11.635   5.406   6.226  2.9495 -1.6361 -1.5755
  130MOL0     H17873  11.947   5.280   6.257 -0.8561  0.8048 -2.5855
  130MOL0     H17874  12.034   5.378   6.384 -2.6426  1.3603  2.0424
  130MOL0     H17875  11.828   5.477   6.186 -1.2698 -1.0158  1.4332
  130MOL0     H17876  11.927   5.570   6.309 -0.6350 -1.8231  1.3405
  130MOL0     H17877  12.020   5.429   6.052  1.1926 -0.7870  0.9227
  130MOL0     H17878  12.010   5.605   6.073 -1.4465 -0.1018 -0.5779
  130MOL0     H17879  12.169   5.607   6.247 -0.5401 -1.2229  2.4457
  130MOL0     H17880  12.202   5.428   6.216  2.8239  0.3800 -0.6278
  130MOL0     H17881  12.278   5.461   6.003  2.1734 -3.0000  3.7432
  130MOL0     H17882  12.374   5.527   6.115  0.7240  1.2438 -1.1441
  130MOL0     H17883  12.172   5.705   5.955 -0.8392  0.1375  0.8872
  130MOL0     H17884  12.307   5.762   6.056  1.2766 -0.6912 -1.1389
  130MOL0     H17885  12.339   5.582   5.816 -1.1094 -1.5569  2.1294
  130MOL0     H17886  12.466   5.659   5.925 -2.4434 -1.8654  3.3073
  130MOL0     H17887  12.273   5.822   5.759 -1.7050 -1.9481  0.7165
  130MOL0     H17888  12.402   5.876   5.868 -3.4597 -0.7179  0.9917
  130MOL0     H17889  12.643   5.915   5.763 -2.2228  0.4485  0.4801
  130MOL0     H17890  12.827   5.832   5.458 -2.4588  3.5307 -0.2790
  130MOL0     H17891  12.878   5.737   5.601  0.9941  0.4360  0.0136
  130MOL0     H17892  12.794   6.035   5.595  0.2562 -0.5979  0.6845
  130MOL0     H17893  12.877   5.967   5.733  0.4782 -1.5495  0.5033
  130MOL0     H17894  12.984   5.987   5.444  0.0138  0.6152  0.0155
  130MOL0     H17895  13.017   6.109   5.561 -2.3564 -0.6287  2.7006
  130MOL0     H17896  13.097   5.810   5.606  1.4848  0.0102 -1.2339
  130MOL0     H17897  13.182   5.926   5.515 -2.5873  0.0453 -2.1698
  130MOL0     H17898  13.218   6.245   5.736  0.5761  1.9287 -4.1380
  130MOL0     H17899  13.523   6.372   5.859 -0.0444  2.4710 -0.7616
  130MOL0     H17900  13.357   6.422   5.790 -0.0716  2.4276  0.6995
  130MOL0     H17901  13.502   6.423   5.695  0.7622  1.5466  1.7528
  130MOL0     H17902  13.943   5.913   5.656  1.3905  2.2444 -2.8505
  130MOL0     H17903  14.194   5.918   5.708  1.8139  2.7093 -0.4032
  130MOL0     H17904  14.373   6.066   5.665 -0.9390  2.0613  0.9301
  130MOL0     H17905  14.505   6.099   5.783  1.1235 -1.1875  0.3801
  130MOL0     H17906  14.497   5.892   5.891  0.0281 -1.4924 -0.8689
  130MOL0     H17907  14.331   5.859   5.854 -0.0847 -0.9007 -0.3852
  130MOL0     H17908  14.577   5.820   5.671  2.5403 -3.7191  3.3059
  130MOL0     H17909  14.415   5.825   5.600 -0.2507 -1.6297  0.3225
  130MOL0     H17910  14.339   5.638   5.722  0.7472 -5.6184 -0.7945
  130MOL0     H17911  14.481   5.623   5.807 -4.3160 -3.6802  1.3284
  130MOL0     H17912  14.606   5.587   5.587  0.0154  3.0571  2.5374
  130MOL0     H17913  14.484   5.472   5.664 -1.7775  1.2880  0.0736
  130MOL0     H17914  14.427   5.631   5.415  0.8362 -1.3159 -2.5296
  130MOL0     H17915  14.304   5.564   5.507  0.3471 -0.2229  0.8673
  130MOL0     H17916  14.412   5.331   5.429  1.8719 -0.4575  2.1165
  130MOL0     H17917  14.536   5.439   5.360 -1.4976  1.2171 -0.3330
  130MOL0     H17918  14.399   5.379   5.194  1.9160  0.9068 -0.5451
  130MOL0     H17919  14.388   5.547   5.217 -1.7437  1.2462  0.9028
  130MOL0     H17920  14.139   6.292   5.905  0.6980 -4.4912  2.6552
  130MOL0     H17921  13.895   6.288   5.860  0.5298 -1.0334  1.7196
  130MOL0     H17922  13.592   5.925   5.689  0.8586  0.3041  2.1857
  130MOL0     H17923  13.368   5.850   5.706 -2.8769  0.9916  2.1343
  130MOL0     H17924  11.800   5.086   6.488 -0.9347  1.4409  1.6552
  130MOL0     H17925  11.633   4.929   6.396  0.4765 -0.0943 -0.4405
  130MOL0     H17926  11.251   4.788   6.174  0.1580 -3.2028  0.1010
  130MOL0     H17927  11.109   4.688   6.033  0.6448 -1.7379  0.9398
  130MOL0     H17928  11.167   4.607   5.592  0.9162 -0.2061  1.8784
  130MOL0     H17929  11.222   4.506   5.725  0.5825  0.1748  1.6458
  130MOL0     H17930  11.012   4.419   5.575 -1.8601  0.2651 -0.8660
  130MOL0     H17931  10.923   4.535   5.668 -0.0757  0.2715 -0.1269
  130MOL0     H17932  10.980   4.456   5.872 -0.5837  4.1773 -3.2155
  130MOL0     H17933  10.885   4.344   5.778 -0.4506  1.0090 -4.3082
  130MOL0     H17934  11.055   4.202   5.890  4.6949 -1.9425 -0.3092
  130MOL0     H17935  11.193   4.321   5.861  0.6742  0.6405 -1.0240
  130MOL0     H17936  11.230   4.096   5.524 -4.9704 -1.8204 -2.1237
  130MOL0     H17937  11.331   4.784   5.690 -3.1425  3.2976 -0.8218
  130MOL0     H17938  11.640   4.838   5.847 -0.7862 -2.1945 -0.2318
  130MOL0     H17939  11.550   4.890   5.705 -0.7245 -0.6737  1.0970
  130MOL0     H17940  11.560   5.002   5.836 -1.3280  0.6416 -0.7571
  131MOL0     O17941   9.282   6.853   9.325 -0.3258  0.0219  0.8293
  131MOL0     C17942   9.367   6.930   9.362 -0.5278 -0.7542  0.7938
  131MOL0     O17943   9.351   7.037   9.444  0.3820 -0.1871  0.2451
  131MOL0     C17944   9.254   7.036   9.534 -0.6544  0.0135 -1.6231
  131MOL0     C17945   9.226   7.152   9.589  0.8524 -0.6538 -0.1733
  131MOL0     C17946   9.130   7.175   9.691 -0.8330  0.3416  0.0028
  131MOL0     C17947   9.053   7.065   9.728 -0.6112 -0.6149 -0.5047
  131MOL0     O17948   8.952   7.064   9.822  0.0335  0.3529 -0.1450
  131MOL0     C17949   8.887   7.194   9.842 -0.7027 -0.0677 -0.3706
  131MOL0     C17950   8.737   7.170   9.856 -0.3801 -0.3583  0.5349
  131MOL0     C17951   8.659   7.232   9.739 -0.4973  0.2099 -0.1008
  131MOL0     C17952   8.512   7.239   9.781  0.5389 -0.2009 -0.3030
  131MOL0     C17953   8.454   7.103   9.814  0.2067  0.2034 -1.1614
  131MOL0     C17954   8.304   7.112   9.855  0.6966  0.6320 -0.2683
  131MOL0     C17955   8.209   7.004   9.795  0.2807  1.0868 -0.9214
  131MOL0     C17956   8.080   6.986   9.886 -0.5876  0.4533 -0.1654
  131MOL0     N17957   8.093   6.919  10.005 -0.7073 -0.4915  0.5051
  131MOL0     C17958   8.144   6.793  10.024 -1.3384 -0.2105  0.0197
  131MOL0     C17959   8.148   6.774  10.154  1.0631  0.0671 -0.3024
  131MOL0     C17960   8.143   6.628  10.205 -0.6184  1.1915  0.0975
  131MOL0     C17961   8.170   6.630  10.362  0.2523  0.5234  0.4996
  131MOL0     C17962   8.045   6.647  10.448  0.7933 -0.1138 -0.0237
  131MOL0     C17963   8.089   6.612  10.592  0.5194 -0.2830 -0.1608
  131MOL0     O17964   7.998   6.676  10.681  0.4006  0.0845 -0.6715
  131MOL0     C17965   7.984   6.638  10.809  0.4275 -0.1368  0.5111
  131MOL0     C17966   7.865   6.678  10.876 -0.1546 -1.4680  0.6541
  131MOL0     C17967   7.836   6.641  11.011 -0.2101  0.3492  0.1074
  131MOL0     C17968   7.701   6.677  11.072 -0.5311  1.4118  0.0667
  131MOL0     C17969   7.920   6.553  11.076 -1.0744 -0.1976  0.4319
  131MOL0     C17970   7.907   6.483  11.210 -0.9013 -0.2001  1.2322
  131MOL0     O17971   7.961   6.360  11.231 -0.8940  0.4490  0.0253
  131MOL0     C17972   7.905   6.277  11.317 -1.2615  0.4684  0.3632
  131MOL0     C17973   7.887   6.309  11.451  0.3854 -0.1131  0.5884
  131MOL0     C17974   7.824   6.209  11.538  0.0955 -0.4234 -0.0290
  131MOL0     C17975   7.809   6.077  11.493 -0.4766  0.9013 -0.1996
  131MOL0     O17976   7.748   5.989  11.584 -0.0427 -0.8415 -0.2223
  131MOL0     C17977   7.689   5.862  11.537 -0.0121  0.6934 -0.7286
  131MOL0     C17978   7.786   5.744  11.536 -0.0720  0.4587 -0.1002
  131MOL0     C17979   7.729   5.607  11.494 -0.1229 -0.5655  0.0538
  131MOL0     C17980   7.622   5.608  11.382  0.5692 -0.0253  0.1161
  131MOL0     C17981   7.693   5.651  11.254  0.0466  0.4950 -0.9632
  131MOL0     C17982   7.606   5.658  11.132  0.9098  0.1136 -0.5434
  131MOL0     C17983   7.551   5.509  11.100 -0.2554 -1.2174 -0.0132
  131MOL0     C17984   7.446   5.501  10.994 -0.6328  0.5848 -0.1009
  131MOL0    Cl17985   7.461   5.619  10.865 -0.0095  0.0742  0.0467
  131MOL0     C17986   7.855   6.047  11.367  0.2563  0.2868  0.2374
  131MOL0     C17987   7.890   6.143  11.282 -0.5583  0.3686 -0.8378
  131MOL0     O17988   7.858   6.547  11.298  0.6708  0.5240 -0.8510
  131MOL0     C17989   8.044   6.527  11.026 -0.6465 -0.2076  0.4609
  131MOL0     C17990   8.073   6.564  10.888 -0.3198  0.4186  0.3301
  131MOL0     N17991   8.109   6.889  10.215  0.1881 -0.4129 -0.6939
  131MOL0     N17992   8.080   6.974  10.123 -0.6881 -0.1282 -0.1466
  131MOL0     C17993   9.082   6.937   9.670 -0.5194 -1.3927 -0.0139
  131MOL0     C17994   9.195   6.923   9.588  1.0755  0.0874  1.3107
  131MOL0     C17995   9.507   6.904   9.324  0.0709 -0.7082  0.5146
  131MOL0     C17996   9.606   6.967   9.402  0.6469  0.3291  0.9526
  131MOL0     C17997   9.747   6.950   9.371 -0.5006  0.2463 -0.4584
  131MOL0     C17998   9.793   6.868   9.271 -0.5951  1.4991  0.4198
  131MOL0     O17999   9.928   6.851   9.234 -0.3858  0.2913 -0.0264
  131MOL0     C18000  10.031   6.921   9.302  0.3725  0.3984  1.0114
  131MOL0     C18001  10.098   6.826   9.401 -0.1829  0.7931  0.1611
  131MOL0     C18002  10.011   6.774   9.524  0.3503 -0.0491  1.0211
  131MOL0     C18003  10.104   6.700   9.627  0.3769 -1.2768 -0.1873
  131MOL0     C18004  10.143   6.566   9.585  0.7909 -0.2337  0.3858
  131MOL0     C18005  10.170   6.456   9.550  0.5071  0.1426  0.1977
  131MOL0     C18006   9.691   6.807   9.189 -0.3843 -0.5225  1.0353
  131MOL0     C18007   9.558   6.844   9.206 -0.0263 -0.1822 -0.1385
  131MOL0     C18008   9.456   6.803   9.101 -0.1299 -0.0086  0.4046
  131MOL0     H18009   9.270   7.249   9.566 -0.2324 -0.2344 -0.5715
  131MOL0     H18010   9.108   7.276   9.723 -3.7133 -0.1631 -0.0991
  131MOL0     H18011   8.908   7.269   9.766  1.3722  1.1962  1.3178
  131MOL0     H18012   8.921   7.244   9.934  1.4839 -2.9766  0.5776
  131MOL0     H18013   8.711   7.064   9.866 -1.2633 -0.4848 -2.3142
  131MOL0     H18014   8.695   7.210   9.949 -2.1121 -2.1465  0.5817
  131MOL0     H18015   8.699   7.333   9.726 -3.2296  1.6801  1.8961
  131MOL0     H18016   8.667   7.163   9.655 -2.1681 -0.1708  0.0302
  131MOL0     H18017   8.500   7.311   9.862  2.3991  1.7010 -1.6175
  131MOL0     H18018   8.458   7.274   9.693  1.7065  0.8343 -0.6342
  131MOL0     H18019   8.507   7.055   9.897 -0.5238  1.2117 -0.0790
  131MOL0     H18020   8.473   7.060   9.716  0.6907  4.0789 -2.9371
  131MOL0     H18021   8.298   7.104   9.964 -2.6382 -3.8837 -0.4932
  131MOL0     H18022   8.281   7.216   9.834 -1.1697  0.6604  1.5672
  131MOL0     H18023   8.264   6.909   9.789  0.6923  0.8950  2.9657
  131MOL0     H18024   8.177   7.033   9.695 -0.1871  0.7938 -0.8575
  131MOL0     H18025   8.021   7.077   9.904  0.8526  1.3167  0.3176
  131MOL0     H18026   8.028   6.915   9.821 -0.7675 -0.3110  0.7892
  131MOL0     H18027   8.150   6.726   9.939 -0.8873  3.5697 -3.2454
  131MOL0     H18028   8.212   6.564  10.148 -3.0255 -0.9771 -0.5996
  131MOL0     H18029   8.041   6.590  10.191 -0.4860 -0.3215  2.6415
  131MOL0     H18030   8.219   6.539  10.399  1.2317  2.1024  3.3950
  131MOL0     H18031   8.241   6.708  10.393 -0.7507  1.4239  0.5805
  131MOL0     H18032   8.016   6.752  10.451 -0.0531 -0.3142 -0.6376
  131MOL0     H18033   7.962   6.585  10.413  1.7878 -1.0618 -0.7964
  131MOL0     H18034   8.087   6.503  10.599  3.9891 -0.6768 -2.5677
  131MOL0     H18035   8.191   6.644  10.616  0.5673  1.9585 -2.8079
  131MOL0     H18036   7.787   6.728  10.820  0.0603 -2.4865 -0.6334
  131MOL0     H18037   7.675   6.578  11.110 -0.2106  0.5960 -1.7234
  131MOL0     H18038   7.629   6.700  10.993  0.4649  2.1534 -0.6637
  131MOL0     H18039   7.705   6.747  11.156  2.9491  1.2335  0.2121
  131MOL0     H18040   7.900   6.407  11.496 -0.4323 -0.2443  1.1334
  131MOL0     H18041   7.791   6.231  11.639 -4.4344  2.9615 -1.9143
  131MOL0     H18042   7.617   5.833  11.614  1.2073 -2.8119 -0.7201
  131MOL0     H18043   7.642   5.880  11.440 -2.0519  0.4362  0.1632
  131MOL0     H18044   7.875   5.768  11.478  1.2883  0.0134  1.7277
  131MOL0     H18045   7.812   5.731  11.642 -1.0904  2.6166  0.4800
  131MOL0     H18046   7.686   5.564  11.585 -1.3188  0.6638  0.0993
  131MOL0     H18047   7.813   5.545  11.463 -1.1770  0.2697 -5.3758
  131MOL0     H18048   7.540   5.672  11.414  0.4992 -1.1043  2.2741
  131MOL0     H18049   7.589   5.504  11.374  0.4713 -0.1515  1.7243
  131MOL0     H18050   7.755   5.740  11.249  1.5333 -0.3094  1.2933
  131MOL0     H18051   7.763   5.571  11.228 -0.0478  0.1186 -0.1070
  131MOL0     H18052   7.673   5.697  11.055  2.9846  1.7403  1.9138
  131MOL0     H18053   7.529   5.734  11.146  2.2629  1.4571 -0.0991
  131MOL0     H18054   7.498   5.472  11.189 -0.5000  1.8396  1.2253
  131MOL0     H18055   7.638   5.448  11.076  4.5441  4.9305 -0.5961
  131MOL0     H18056   7.342   5.492  11.025 -0.2029  0.2219  1.2836
  131MOL0     H18057   7.462   5.408  10.937 -0.3709  0.5530  0.0241
  131MOL0     H18058   7.861   5.939  11.353 -3.7902  0.0226 -0.7069
  131MOL0     H18059   7.939   6.117  11.189  0.4687 -2.9873  0.5018
  131MOL0     H18060   8.110   6.468  11.088 -0.8974 -0.1430  0.7947
  131MOL0     H18061   8.174   6.538  10.858 -1.2358  0.7746 -3.6004
  131MOL0     H18062   9.025   6.849   9.694 -0.4641 -1.2568  0.6395
  131MOL0     H18063   9.226   6.822   9.561 -0.7473 -0.2057  0.1491
  131MOL0     H18064   9.588   7.029   9.489 -1.5158 -0.7285  1.3230
  131MOL0     H18065   9.809   7.008   9.438 -0.8682  2.7370 -2.1287
  131MOL0     H18066  10.116   6.958   9.243  1.8050 -1.2698  1.9227
  131MOL0     H18067   9.990   7.005   9.358 -1.8598  0.8695 -1.1663
  131MOL0     H18068  10.185   6.886   9.430 -0.4141  1.6680 -0.8871
  131MOL0     H18069  10.122   6.728   9.358  1.5786  0.9616  0.6621
  131MOL0     H18070   9.961   6.855   9.578  0.1077  0.6803 -0.2407
  131MOL0     H18071   9.937   6.704   9.486  0.1297 -1.1461  3.3311
  131MOL0     H18072  10.057   6.693   9.725  0.6278  4.4961  0.7456
  131MOL0     H18073  10.196   6.759   9.641 -0.1513 -0.0131 -1.7740
  131MOL0     H18074  10.195   6.356   9.520 -2.5125 -1.2111  1.7723
  131MOL0     H18075   9.712   6.743   9.104 -0.6989 -0.0656  0.6097
  131MOL0     H18076   9.405   6.714   9.138  1.3143 -0.6436  0.9625
  131MOL0     H18077   9.388   6.887   9.084  1.8074  1.3783 -0.9686
  131MOL0     H18078   9.509   6.772   9.010 -0.9405  0.7244 -0.3385
  132MOL0     O18079   9.829   6.975   2.926  1.0396  0.6737  0.3393
  132MOL0     C18080   9.811   6.889   3.008  0.1221 -0.8570  0.6495
  132MOL0     O18081   9.777   6.761   2.975 -0.6855 -0.2302 -0.0929
  132MOL0     C18082   9.720   6.672   3.064 -0.8306 -0.5793 -0.4881
  132MOL0     C18083   9.773   6.651   3.196 -1.6750 -1.0679 -0.0421
  132MOL0     C18084   9.707   6.575   3.285  0.2015  0.0267 -0.9369
  132MOL0     C18085   9.589   6.506   3.248  0.4335  0.9445  0.2520
  132MOL0     O18086   9.527   6.424   3.335 -0.3342 -0.3388  0.2136
  132MOL0     C18087   9.498   6.284   3.315 -0.4783 -0.9553  0.4817
  132MOL0     C18088   9.604   6.182   3.299 -0.5440 -1.0941 -0.3103
  132MOL0     C18089   9.629   6.114   3.433 -0.0624 -0.0525 -1.0480
  132MOL0     C18090   9.759   6.040   3.429  0.1716  0.1534 -1.1088
  132MOL0     C18091   9.762   5.929   3.540 -0.7613  0.4240  0.4786
  132MOL0     C18092   9.805   5.990   3.673 -0.2410 -1.0387 -0.3138
  132MOL0     C18093   9.789   5.890   3.786 -0.4795  0.6661 -0.2632
  132MOL0     C18094   9.904   5.788   3.780 -0.1165  0.1743 -0.1850
  132MOL0     N18095  10.003   5.820   3.882  0.3505  0.5236 -0.0953
  132MOL0     C18096  10.120   5.905   3.877 -0.3483 -0.0403 -0.7561
  132MOL0     C18097  10.188   5.884   3.986 -0.0108 -0.3161 -1.0019
  132MOL0     C18098  10.303   5.964   4.037  0.5593 -0.6599  0.4569
  132MOL0     C18099  10.404   5.897   4.132  0.0135  0.2734 -0.5972
  132MOL0     C18100  10.495   5.795   4.066 -0.3276  0.2073  0.0371
  132MOL0     C18101  10.568   5.716   4.176 -0.4879  0.8947  0.3804
  132MOL0     O18102  10.484   5.673   4.288  0.1865 -0.5248  0.4601
  132MOL0     C18103  10.426   5.552   4.274  0.1943  0.2371 -0.4652
  132MOL0     C18104  10.300   5.535   4.244 -0.8447 -0.1369  0.4887
  132MOL0     C18105  10.249   5.404   4.241  0.8564  0.7330 -0.6164
  132MOL0     C18106  10.104   5.400   4.200 -0.1403  0.0401  0.4918
  132MOL0     C18107  10.328   5.288   4.263 -1.5058  0.0894  0.4133
  132MOL0     C18108  10.274   5.143   4.264  0.4144 -0.5938  0.5774
  132MOL0     O18109  10.377   5.055   4.260  0.2657 -0.3560  1.0045
  132MOL0     C18110  10.336   4.920   4.265  1.5098  0.0773  0.4289
  132MOL0     C18111  10.293   4.864   4.382  0.8460 -0.0064 -0.0019
  132MOL0     C18112  10.260   4.731   4.389 -0.1396  0.7038  0.2630
  132MOL0     C18113  10.285   4.652   4.280 -0.3643 -0.0420 -0.0168
  132MOL0     O18114  10.285   4.515   4.303 -0.6038 -0.8923 -0.2246
  132MOL0     C18115  10.191   4.444   4.234 -0.6921  0.0776 -0.6922
  132MOL0     C18116  10.074   4.406   4.320  0.9584 -0.0009 -0.0996
  132MOL0     C18117  10.083   4.272   4.389 -1.3206 -0.1735  0.5941
  132MOL0     C18118   9.984   4.256   4.512 -0.4932  0.7336 -0.4689
  132MOL0     C18119   9.920   4.112   4.529  0.5979 -0.1264  1.1227
  132MOL0     C18120  10.005   4.008   4.588  0.0083 -0.6414  0.5644
  132MOL0     C18121  10.019   4.018   4.741 -0.3780 -0.1801 -0.0102
  132MOL0     C18122  10.156   3.969   4.783  0.6230 -0.5982 -0.4770
  132MOL0    Cl18123  10.188   3.794   4.743  0.1623  0.3948  0.5920
  132MOL0     C18124  10.340   4.705   4.157 -0.3498 -0.7325 -0.1633
  132MOL0     C18125  10.361   4.842   4.156  0.5828 -0.0304 -0.4942
  132MOL0     O18126  10.154   5.114   4.243 -0.3876 -0.0409 -0.4300
  132MOL0     C18127  10.464   5.311   4.288 -0.0059 -0.8864 -0.3185
  132MOL0     C18128  10.510   5.446   4.295 -0.2236 -0.0552 -0.1484
  132MOL0     N18129  10.120   5.787   4.056  0.2160 -0.2554 -0.3054
  132MOL0     N18130  10.015   5.747   3.996 -0.8324 -1.1373  1.2185
  132MOL0     C18131   9.551   6.514   3.110  0.2230 -0.4978  0.5981
  132MOL0     C18132   9.627   6.591   3.019  0.1967  0.4008  0.7569
  132MOL0     C18133   9.817   6.947   3.141 -0.6240  0.1502 -0.6030
  132MOL0     C18134   9.695   6.962   3.209 -0.1129 -0.5792 -0.1989
  132MOL0     C18135   9.688   7.013   3.337  0.2284  0.0727 -0.0507
  132MOL0     C18136   9.806   7.049   3.399  0.3617  1.2680 -0.5406
  132MOL0     O18137   9.826   7.122   3.514  0.1680 -1.0650 -0.3509
  132MOL0     C18138   9.740   7.244   3.534 -0.7227  0.5498 -0.0260
  132MOL0     C18139   9.614   7.196   3.607 -1.5239 -0.3651 -0.0069
  132MOL0     C18140   9.655   7.129   3.748  0.3115 -0.4057 -0.5478
  132MOL0     C18141   9.554   7.023   3.788  0.3637  0.1655  0.7383
  132MOL0     C18142   9.567   6.903   3.696  0.0523 -0.0586  0.0264
  132MOL0     C18143   9.591   6.808   3.623 -0.2201  0.6090  0.1170
  132MOL0     C18144   9.937   7.020   3.338 -0.6271  0.4322  0.5957
  132MOL0     C18145   9.938   6.977   3.208 -0.3422  0.6564 -0.1330
  132MOL0     C18146  10.070   6.948   3.136  0.0573 -0.9420  0.6238
  132MOL0     H18147   9.862   6.703   3.232 -1.5420  0.4822 -2.3747
  132MOL0     H18148   9.730   6.566   3.391 -0.9817  0.9178 -0.5826
  132MOL0     H18149   9.423   6.285   3.235 -0.1216  1.3538  0.0976
  132MOL0     H18150   9.448   6.252   3.407  2.0500 -0.7241  2.0225
  132MOL0     H18151   9.576   6.110   3.221 -2.4247 -1.1866  0.3960
  132MOL0     H18152   9.695   6.228   3.260 -1.9983  0.3639 -2.2394
  132MOL0     H18153   9.635   6.196   3.506 -4.8824 -1.9475  1.9966
  132MOL0     H18154   9.540   6.057   3.459 -0.6641  2.0627  2.0631
  132MOL0     H18155   9.764   5.996   3.329 -1.0298  1.4202 -1.7489
  132MOL0     H18156   9.842   6.109   3.442 -0.4310  0.4479  2.0911
  132MOL0     H18157   9.835   5.859   3.499 -0.2378  2.1038 -1.6466
  132MOL0     H18158   9.668   5.874   3.532  0.4757 -1.4824 -3.6279
  132MOL0     H18159   9.906   6.033   3.674  0.9030 -3.5008  1.6736
  132MOL0     H18160   9.748   6.082   3.690  0.0616 -1.1954  1.8129
  132MOL0     H18161   9.694   5.836   3.779  0.8545 -1.5763 -1.9430
  132MOL0     H18162   9.802   5.948   3.878  2.2448 -1.1567  0.6009
  132MOL0     H18163   9.854   5.692   3.797 -0.6052  0.7388  1.9229
  132MOL0     H18164   9.960   5.780   3.687 -0.6283 -2.1503 -0.3364
  132MOL0     H18165  10.151   5.967   3.794  3.6931  0.0884  0.6302
  132MOL0     H18166  10.254   6.043   4.094  2.1217  1.1127 -0.5474
  132MOL0     H18167  10.357   6.002   3.949 -1.3029  0.1955 -0.3689
  132MOL0     H18168  10.467   5.978   4.172 -1.8591  1.4817  0.0051
  132MOL0     H18169  10.345   5.864   4.218  0.2765 -2.1136 -1.2833
  132MOL0     H18170  10.423   5.751   3.995 -3.4064  4.2133  0.2950
  132MOL0     H18171  10.565   5.857   4.009  1.1529  0.4897  2.0934
  132MOL0     H18172  10.619   5.633   4.127  0.8675 -0.5200  3.8717
  132MOL0     H18173  10.646   5.785   4.208 -2.1253  3.3794 -0.6433
  132MOL0     H18174  10.251   5.627   4.215  0.0525  0.6311  1.3213
  132MOL0     H18175  10.066   5.501   4.184 -1.2082 -0.5242 -0.7112
  132MOL0     H18176  10.042   5.332   4.259 -1.0242 -0.1221 -0.5907
  132MOL0     H18177  10.105   5.360   4.099  0.0853  4.2234 -1.3935
  132MOL0     H18178  10.297   4.916   4.477  2.3361 -1.0812  0.5599
  132MOL0     H18179  10.241   4.678   4.482 -1.3574 -0.3179 -0.5303
  132MOL0     H18180  10.145   4.508   4.159 -0.3211 -1.5097 -2.3416
  132MOL0     H18181  10.260   4.368   4.196 -2.4675 -1.5304 -0.8689
  132MOL0     H18182  10.048   4.475   4.400 -3.6242 -1.1142 -0.3832
  132MOL0     H18183   9.999   4.417   4.241  1.0585  1.1584 -0.0509
  132MOL0     H18184  10.188   4.275   4.419 -0.8060 -1.1367 -1.0170
  132MOL0     H18185  10.061   4.193   4.316 -0.1059 -0.7382  0.8190
  132MOL0     H18186   9.900   4.317   4.478  0.6878  1.8187 -1.5874
  132MOL0     H18187  10.035   4.284   4.604 -1.5953 -3.9214  1.8299
  132MOL0     H18188   9.832   4.121   4.593  1.6495  0.2071  2.5720
  132MOL0     H18189   9.879   4.087   4.430  1.8870  1.2269  0.1910
  132MOL0     H18190  10.092   4.018   4.522 -0.4397  0.0382  0.0682
  132MOL0     H18191   9.968   3.908   4.564  2.5082 -0.8578 -3.3277
  132MOL0     H18192   9.941   3.951   4.778  1.0137 -1.1125  1.3230
  132MOL0     H18193  10.002   4.119   4.780  0.5011 -0.0106 -0.0505
  132MOL0     H18194  10.170   3.980   4.891  4.3155  0.2916 -0.9160
  132MOL0     H18195  10.229   4.035   4.735 -0.2573  0.5672 -0.2644
  132MOL0     H18196  10.375   4.640   4.078  0.4323  0.9455 -1.2563
  132MOL0     H18197  10.392   4.885   4.062  0.1166  1.9319  0.2051
  132MOL0     H18198  10.527   5.223   4.293  0.7034 -0.5104 -2.1330
  132MOL0     H18199  10.611   5.479   4.315 -0.1011 -2.0665  3.3462
  132MOL0     H18200   9.463   6.457   3.080  0.4587  0.0937 -1.3562
  132MOL0     H18201   9.613   6.580   2.912  3.1775  1.3659  0.1849
  132MOL0     H18202   9.601   6.927   3.168 -0.4392 -0.2672  0.2703
  132MOL0     H18203   9.589   7.018   3.382 -0.1085  0.9818 -0.8625
  132MOL0     H18204   9.789   7.318   3.597  0.7612 -0.8701  0.5860
  132MOL0     H18205   9.725   7.284   3.434  1.5537  0.1112 -0.5883
  132MOL0     H18206   9.547   7.137   3.544  0.4366 -0.8341 -1.7621
  132MOL0     H18207   9.560   7.290   3.622  0.7843  0.7745  1.8758
  132MOL0     H18208   9.749   7.074   3.736  1.1780  0.9682 -0.2244
  132MOL0     H18209   9.660   7.209   3.823  0.7846 -1.6149  0.7589
  132MOL0     H18210   9.453   7.065   3.793 -0.5191 -1.9722  2.0164
  132MOL0     H18211   9.580   6.978   3.884  0.2521  2.5170  1.9316
  132MOL0     H18212   9.626   6.725   3.565 -1.8757 -1.6579  2.1991
  132MOL0     H18213  10.032   7.040   3.388  0.3247 -0.9161 -0.5947
  132MOL0     H18214  10.054   7.005   3.044 -0.1695 -0.4554  0.9600
  132MOL0     H18215  10.153   6.998   3.186  1.0519  1.9545 -3.4443
  132MOL0     H18216  10.087   6.841   3.119  2.5654 -0.6313  0.8604
  133MOL0     O18217   1.021   2.403   4.407 -0.5398  0.2147 -0.0607
  133MOL0     C18218   0.984   2.514   4.434 -0.2996 -0.7706 -0.9490
  133MOL0     O18219   1.021   2.623   4.362 -0.6715 -0.5197 -0.2038
  133MOL0     C18220   1.066   2.615   4.236  0.5693 -0.1564  0.5368
  133MOL0     C18221   0.986   2.541   4.143 -0.0051  0.3178  0.2442
  133MOL0     C18222   1.038   2.516   4.016 -0.4578 -0.4194 -0.0737
  133MOL0     C18223   1.162   2.568   3.975 -0.0389 -0.3832 -0.8790
  133MOL0     O18224   1.205   2.543   3.850  0.2919 -0.2120 -0.5494
  133MOL0     C18225   1.340   2.564   3.824 -0.3040 -0.4424  0.8199
  133MOL0     C18226   1.342   2.678   3.713  0.0275  0.8612 -0.6549
  133MOL0     C18227   1.481   2.721   3.654 -0.1094 -0.0185  0.6071
  133MOL0     C18228   1.576   2.762   3.754 -0.1057 -0.0707 -1.4542
  133MOL0     C18229   1.686   2.648   3.783 -0.0331 -0.3666 -0.6366
  133MOL0     C18230   1.789   2.642   3.668  1.2749 -0.4005  0.0178
  133MOL0     C18231   1.897   2.544   3.693  0.3162  0.0425 -0.3644
  133MOL0     C18232   1.984   2.510   3.572  0.9206 -0.0053  0.1640
  133MOL0     N18233   2.081   2.406   3.606  0.1723 -0.4661  0.8112
  133MOL0     C18234   2.184   2.412   3.697 -0.7273  0.4271 -0.2060
  133MOL0     C18235   2.227   2.285   3.711  0.2021  0.4439  0.5297
  133MOL0     C18236   2.340   2.240   3.802 -0.3747  0.2624 -0.3765
  133MOL0     C18237   2.287   2.178   3.933  0.9492  0.7117  0.2736
  133MOL0     C18238   2.414   2.157   4.025  0.9642  0.0068 -0.1750
  133MOL0     C18239   2.370   2.066   4.143  0.1852  0.2413 -0.1771
  133MOL0     O18240   2.410   2.139   4.270 -0.1445  0.7832  0.5760
  133MOL0     C18241   2.328   2.211   4.355 -0.2545  0.6270 -0.1189
  133MOL0     C18242   2.381   2.229   4.485  0.3353 -0.2554 -0.2741
  133MOL0     C18243   2.304   2.284   4.588 -0.2805  0.0781  0.1362
  133MOL0     C18244   2.363   2.271   4.726 -1.2087  0.3230  0.5025
  133MOL0     C18245   2.171   2.333   4.568  0.8195 -0.0391 -0.1477
  133MOL0     C18246   2.097   2.413   4.668 -0.3340  0.3329 -0.2282
  133MOL0     O18247   2.164   2.503   4.755  0.2287  0.0882  0.0649
  133MOL0     C18248   2.110   2.577   4.861  1.1609  0.0917 -0.3316
  133MOL0     C18249   2.206   2.626   4.943  0.2594  0.6821 -0.5235
  133MOL0     C18250   2.170   2.660   5.073 -0.7936 -0.3432  0.1224
  133MOL0     C18251   2.038   2.665   5.111  0.2911 -0.0118 -0.3907
  133MOL0     O18252   2.008   2.702   5.243 -0.3110  0.5340 -0.2043
  133MOL0     C18253   1.871   2.719   5.277 -0.6578  0.0629  0.2122
  133MOL0     C18254   1.859   2.760   5.426  0.1236 -1.2353 -0.0194
  133MOL0     C18255   1.920   2.897   5.439  0.0986  0.3060  1.1658
  133MOL0     C18256   1.912   2.969   5.575 -0.1923 -0.2607 -0.2250
  133MOL0     C18257   2.004   2.889   5.666 -0.7474 -0.7636 -0.5144
  133MOL0     C18258   2.021   2.953   5.804  0.0946 -0.3656  0.7227
  133MOL0     C18259   1.895   2.911   5.879  0.7274 -0.0547 -0.7462
  133MOL0     C18260   1.893   2.992   6.010  0.2159 -1.2452  0.0910
  133MOL0    Cl18261   1.808   3.146   6.005  0.5840 -0.2496  0.2166
  133MOL0     C18262   1.934   2.621   5.019 -0.7223  0.5575 -0.2717
  133MOL0     C18263   1.974   2.566   4.898 -0.4283  0.0748  0.7321
  133MOL0     O18264   1.973   2.393   4.669 -0.1976  0.4372 -0.0290
  133MOL0     C18265   2.119   2.320   4.429  0.2778 -1.0012 -0.4436
  133MOL0     C18266   2.197   2.264   4.327  0.4198  0.3231  0.1751
  133MOL0     N18267   2.163   2.199   3.620  0.7938  0.3901 -0.2951
  133MOL0     N18268   2.072   2.276   3.566  0.0954  0.9588  0.4576
  133MOL0     C18269   1.230   2.656   4.064 -0.0587  1.0242  0.6284
  133MOL0     C18270   1.188   2.670   4.196 -0.4125  0.5572  0.5666
  133MOL0     C18271   0.892   2.534   4.552  0.0996 -0.0414  0.7894
  133MOL0     C18272   0.920   2.638   4.645 -0.3381 -0.7777  0.0671
  133MOL0     C18273   0.840   2.658   4.757 -0.5586 -0.7440 -0.7922
  133MOL0     C18274   0.732   2.587   4.775  0.8943  0.3574 -0.4130
  133MOL0     O18275   0.670   2.613   4.887 -0.5471  1.1333  0.0771
  133MOL0     C18276   0.530   2.651   4.861 -0.3069  0.1323 -1.1683
  133MOL0     C18277   0.482   2.781   4.889  0.8816 -1.4038 -0.4125
  133MOL0     C18278   0.581   2.894   4.837 -0.5898 -0.0117  0.0344
  133MOL0     C18279   0.500   3.004   4.785 -0.1956 -0.4821  0.5505
  133MOL0     C18280   0.581   3.109   4.728 -0.6781 -0.2123 -0.7182
  133MOL0     C18281   0.647   3.176   4.661 -1.3785 -0.4395 -0.3283
  133MOL0     C18282   0.708   2.477   4.690 -1.0105 -0.6561  0.3854
  133MOL0     C18283   0.781   2.455   4.574 -0.1441  0.0282 -0.0033
  133MOL0     C18284   0.713   2.366   4.471  0.0251 -0.2662 -0.4868
  133MOL0     H18285   0.891   2.499   4.174  0.1240 -1.7738 -1.9226
  133MOL0     H18286   0.988   2.458   3.940  0.1636  1.2524 -1.8356
  133MOL0     H18287   1.382   2.471   3.785 -3.0438 -0.9025 -1.3675
  133MOL0     H18288   1.395   2.589   3.915 -2.0974  2.2645  1.3077
  133MOL0     H18289   1.270   2.651   3.636 -2.0224  3.5198  0.1685
  133MOL0     H18290   1.300   2.770   3.754 -1.0952 -0.5597  1.5739
  133MOL0     H18291   1.512   2.635   3.594  0.7172 -0.1389  1.1898
  133MOL0     H18292   1.455   2.807   3.592  2.0289 -0.6165 -1.2472
  133MOL0     H18293   1.619   2.858   3.725  0.8817 -0.1078 -0.2420
  133MOL0     H18294   1.523   2.783   3.848 -0.9349  0.2836 -1.9892
  133MOL0     H18295   1.644   2.548   3.795 -3.1890  0.6596 -2.0269
  133MOL0     H18296   1.744   2.688   3.866  1.1369  0.4750 -1.8047
  133MOL0     H18297   1.734   2.611   3.578 -1.3884 -0.3023  1.4942
  133MOL0     H18298   1.843   2.737   3.659  3.3381 -1.3892  1.1637
  133MOL0     H18299   1.849   2.452   3.729 -2.8488  1.9567  0.6601
  133MOL0     H18300   1.970   2.584   3.765  1.9806  2.2082 -3.0703
  133MOL0     H18301   1.930   2.455   3.494  0.3154  3.2927 -1.9491
  133MOL0     H18302   2.036   2.594   3.524 -1.0681  1.1458 -0.1034
  133MOL0     H18303   2.214   2.495   3.761  4.0443 -0.3443 -1.0685
  133MOL0     H18304   2.410   2.322   3.822  1.4018 -0.2622 -3.7474
  133MOL0     H18305   2.403   2.173   3.744  0.2869 -3.0621  3.7143
  133MOL0     H18306   2.222   2.241   3.995 -0.2659 -0.9101  0.7139
  133MOL0     H18307   2.235   2.083   3.924  1.0079  0.6143  0.8934
  133MOL0     H18308   2.502   2.111   3.980  1.1570  1.7194 -1.6673
  133MOL0     H18309   2.450   2.257   4.053  2.1676  0.2285 -2.3017
  133MOL0     H18310   2.262   2.049   4.138 -0.0516  1.5124  0.0717
  133MOL0     H18311   2.421   1.970   4.135 -0.9099 -0.2253 -2.0149
  133MOL0     H18312   2.481   2.199   4.512  0.6668 -1.5481 -2.6701
  133MOL0     H18313   2.298   2.217   4.794  0.8192 -1.6012  1.0428
  133MOL0     H18314   2.383   2.371   4.766  0.6809 -0.1672  0.9013
  133MOL0     H18315   2.457   2.215   4.722  0.9544  3.7437 -1.5569
  133MOL0     H18316   2.309   2.631   4.909  1.4505  1.4515  2.8055
  133MOL0     H18317   2.247   2.697   5.139 -1.8763  1.5527  0.4097
  133MOL0     H18318   1.817   2.790   5.215 -2.4275 -0.3681  1.1792
  133MOL0     H18319   1.823   2.622   5.266 -1.5312  0.6466 -1.3387
  133MOL0     H18320   1.755   2.757   5.462  0.0092 -0.6518 -0.2979
  133MOL0     H18321   1.910   2.696   5.498 -0.7650 -1.1783  0.6890
  133MOL0     H18322   1.874   2.966   5.368  0.8522  0.1523  0.5020
  133MOL0     H18323   2.028   2.892   5.419  0.2940  0.9821  2.0233
  133MOL0     H18324   1.811   2.962   5.615 -0.2962 -2.1408 -0.7244
  133MOL0     H18325   1.939   3.075   5.570  0.4096 -0.4446 -1.3755
  133MOL0     H18326   1.977   2.784   5.682  2.4415 -1.7882 -1.1732
  133MOL0     H18327   2.107   2.886   5.629  0.6093 -3.5645  2.8246
  133MOL0     H18328   2.028   3.061   5.789 -1.2706 -0.3690 -0.1100
  133MOL0     H18329   2.111   2.924   5.858  3.4576  2.2920 -2.8955
  133MOL0     H18330   1.910   2.805   5.906  1.3343  0.7057  2.3426
  133MOL0     H18331   1.805   2.924   5.818  1.0861  2.7364 -0.7675
  133MOL0     H18332   1.991   3.015   6.053  1.4382 -3.5071 -1.2501
  133MOL0     H18333   1.833   2.927   6.075  0.1885 -3.7606 -2.2606
  133MOL0     H18334   1.828   2.630   5.041 -1.7301 -1.3641 -3.5676
  133MOL0     H18335   1.903   2.526   4.826  2.1801 -1.9939 -0.8789
  133MOL0     H18336   2.024   2.365   4.400  0.9299  0.1256 -0.9006
  133MOL0     H18337   2.166   2.269   4.223 -3.3889  1.4182  1.1814
  133MOL0     H18338   1.315   2.716   4.032  0.2039  0.7643  0.8408
  133MOL0     H18339   1.260   2.729   4.252  1.7905 -2.4816  1.2031
  133MOL0     H18340   1.007   2.702   4.635 -0.3588 -0.5572  1.2471
  133MOL0     H18341   0.856   2.739   4.828  2.3111 -0.1850 -1.9267
  133MOL0     H18342   0.492   2.625   4.762 -1.8028 -1.2996 -0.2682
  133MOL0     H18343   0.482   2.579   4.928  0.5501 -1.9392 -2.6427
  133MOL0     H18344   0.456   2.791   4.995 -1.3654 -0.8589 -0.9632
  133MOL0     H18345   0.389   2.795   4.834  0.3293 -0.3929  0.7382
  133MOL0     H18346   0.644   2.919   4.923  0.3234 -0.8237 -0.3742
  133MOL0     H18347   0.648   2.860   4.757  0.8629  0.0373  1.1831
  133MOL0     H18348   0.447   3.056   4.865  1.2035  1.7239  0.1069
  133MOL0     H18349   0.424   2.984   4.710  0.4867  0.3093 -0.3674
  133MOL0     H18350   0.707   3.239   4.598 -1.3588  0.1969  0.3181
  133MOL0     H18351   0.612   2.428   4.686 -0.1963 -2.2324 -1.9003
  133MOL0     H18352   0.782   2.346   4.388  2.4117  0.2447  1.2947
  133MOL0     H18353   0.682   2.282   4.535  1.7618  1.0824  2.3037
  133MOL0     H18354   0.634   2.430   4.431 -0.4418 -0.2203  0.4853
  134MOL0     O18355   7.906  11.569   1.657 -0.5647  0.5935  0.4516
  134MOL0     C18356   8.017  11.592   1.692  0.3489 -0.6020 -0.6198
  134MOL0     O18357   8.119  11.613   1.611 -0.6921  0.0837  0.7085
  134MOL0     C18358   8.107  11.676   1.486 -0.1809  1.0883 -0.3410
  134MOL0     C18359   8.015  11.634   1.388 -1.0634  0.3089 -0.4447
  134MOL0     C18360   8.009  11.710   1.270 -0.6298  0.3133  0.0693
  134MOL0     C18361   8.110  11.810   1.241 -0.0475 -0.9305  0.2184
  134MOL0     O18362   8.115  11.880   1.117 -0.1318 -0.7625  0.0006
  134MOL0     C18363   8.049  11.821   1.007 -0.1960 -0.9619 -0.1647
  134MOL0     C18364   8.077  11.898   0.874 -0.3855  0.3124 -0.4222
  134MOL0     C18365   7.981  12.009   0.860 -0.2046 -0.1210 -0.1323
  134MOL0     C18366   8.005  12.122   0.964 -0.4803  1.7601 -0.2241
  134MOL0     C18367   7.949  12.259   0.917  0.0465 -0.3844  0.1586
  134MOL0     C18368   8.031  12.390   0.949  0.1997 -0.1042 -0.1328
  134MOL0     C18369   8.036  12.411   1.103 -0.0473  0.2275  1.0214
  134MOL0     C18370   8.089  12.552   1.130 -0.7894  0.8030  0.1788
  134MOL0     N18371   8.110  12.565   1.274 -0.1155 -0.3792  0.5438
  134MOL0     C18372   8.032  12.614   1.372  0.0309 -0.5348  0.7960
  134MOL0     C18373   8.115  12.644   1.472 -0.8418  0.0103 -0.0506
  134MOL0     C18374   8.089  12.710   1.614 -0.0586  0.0948  0.6634
  134MOL0     C18375   8.212  12.784   1.668  0.0989 -0.0944 -0.4599
  134MOL0     C18376   8.277  12.901   1.579  0.6017  0.2092 -0.4681
  134MOL0     C18377   8.182  13.015   1.558  0.4659  0.6136  0.4845
  134MOL0     O18378   8.134  13.055   1.684  0.1300  0.7607 -0.5945
  134MOL0     C18379   8.011  13.106   1.701 -0.0486  0.8129 -0.2196
  134MOL0     C18380   7.936  13.150   1.592  0.4108 -0.3867  0.7544
  134MOL0     C18381   7.815  13.218   1.612  0.5635  0.0410 -0.2008
  134MOL0     C18382   7.741  13.278   1.500 -0.1129  1.0278  0.7966
  134MOL0     C18383   7.763  13.220   1.742  0.1416 -0.4866 -0.8331
  134MOL0     C18384   7.627  13.275   1.785 -1.3702 -0.2458  0.8145
  134MOL0     O18385   7.545  13.326   1.696 -0.1843 -0.3454  0.8638
  134MOL0     C18386   7.411  13.356   1.718 -0.3595 -0.6132 -0.4127
  134MOL0     C18387   7.329  13.259   1.784 -0.0933 -0.1515  0.6720
  134MOL0     C18388   7.184  13.287   1.794 -0.0048 -0.8949  0.4121
  134MOL0     C18389   7.136  13.416   1.758 -0.8959 -0.3535  0.6331
  134MOL0     O18390   7.010  13.460   1.775 -0.3088  0.5287  1.4946
  134MOL0     C18391   6.914  13.360   1.754 -0.7128  0.0869  0.0163
  134MOL0     C18392   6.774  13.417   1.692  0.1771  0.2822  0.7374
  134MOL0     C18393   6.718  13.544   1.759 -1.0668  0.7062 -0.0102
  134MOL0     C18394   6.619  13.615   1.664  0.9405  0.3401  0.0318
  134MOL0     C18395   6.548  13.741   1.736  0.7160  0.7005 -0.4026
  134MOL0     C18396   6.448  13.817   1.651  0.5416  0.7569  0.1715
  134MOL0     C18397   6.491  13.823   1.505 -0.6475 -0.2048  0.4726
  134MOL0     C18398   6.393  13.910   1.422 -0.3600 -0.6846  0.2789
  134MOL0    Cl18399   6.469  14.030   1.306 -0.1410 -0.1155  0.1813
  134MOL0     C18400   7.220  13.515   1.698  0.2675  0.3368 -1.0381
  134MOL0     C18401   7.355  13.482   1.679 -0.8298  0.7257 -0.0363
  134MOL0     O18402   7.611  13.279   1.908  0.9270 -0.4058  0.0804
  134MOL0     C18403   7.845  13.171   1.848  0.6464 -0.9210  0.4118
  134MOL0     C18404   7.971  13.124   1.831 -0.7476  0.2345 -0.4168
  134MOL0     N18405   8.238  12.579   1.443 -0.3589 -0.9967 -0.9601
  134MOL0     N18406   8.232  12.539   1.328  0.8969 -0.0740  0.8482
  134MOL0     C18407   8.201  11.840   1.339  0.3325  0.3351  0.0161
  134MOL0     C18408   8.201  11.776   1.462 -0.9046  0.9721 -0.4985
  134MOL0     C18409   8.036  11.581   1.834  0.3425 -0.1900  0.4743
  134MOL0     C18410   8.074  11.458   1.893  0.0123  0.1379  0.0969
  134MOL0     C18411   8.086  11.445   2.033 -0.0002  0.1496  0.6596
  134MOL0     C18412   8.058  11.556   2.116  0.6353 -0.0052  0.7878
  134MOL0     O18413   8.071  11.547   2.251  0.0118 -0.2564  0.6565
  134MOL0     C18414   8.191  11.624   2.294  0.2323 -0.4258  0.5540
  134MOL0     C18415   8.263  11.582   2.420  0.1100  0.0938  0.6974
  134MOL0     C18416   8.202  11.612   2.559  0.2979  0.6008  0.3204
  134MOL0     C18417   8.237  11.757   2.604  0.7945  0.2415 -0.3645
  134MOL0     C18418   8.142  11.852   2.543  0.8351  0.2572 -1.1426
  134MOL0     C18419   8.051  11.903   2.485  0.0378 -0.8992 -0.8492
  134MOL0     C18420   8.022  11.681   2.054  0.0115  0.2557  0.8972
  134MOL0     C18421   8.007  11.697   1.913 -0.1196 -0.5335  0.9689
  134MOL0     C18422   7.961  11.828   1.850 -0.8688 -0.0689  0.2589
  134MOL0     H18423   7.951  11.549   1.410  1.2113 -0.9106  2.0161
  134MOL0     H18424   7.945  11.689   1.185 -0.2869 -0.4395 -0.0126
  134MOL0     H18425   7.941  11.816   1.021 -0.4030 -0.2689 -1.3533
  134MOL0     H18426   8.081  11.718   0.987  0.1414 -1.1523  1.2325
  134MOL0     H18427   8.181  11.933   0.876  0.0730 -0.9556  2.1927
  134MOL0     H18428   8.064  11.845   0.780 -1.4622  3.1229 -1.9897
  134MOL0     H18429   7.979  12.050   0.758 -1.6185  0.6885  0.1916
  134MOL0     H18430   7.885  11.957   0.858  1.0579 -2.6084 -2.2861
  134MOL0     H18431   7.975  12.102   1.067 -1.4946  2.9126 -0.2756
  134MOL0     H18432   8.114  12.132   0.973 -0.1771 -1.4240  0.9087
  134MOL0     H18433   7.846  12.274   0.950 -0.4339  2.4922 -2.1724
  134MOL0     H18434   7.933  12.255   0.808 -0.9509  1.7290  0.1873
  134MOL0     H18435   8.128  12.383   0.899  0.5848 -0.3065  0.6248
  134MOL0     H18436   7.973  12.472   0.904  3.0286  3.1490  1.6643
  134MOL0     H18437   8.109  12.342   1.148 -1.8388 -2.6791 -0.2257
  134MOL0     H18438   7.937  12.399   1.146 -1.5112  1.0144 -1.8666
  134MOL0     H18439   8.189  12.553   1.085 -0.9309  1.3903 -0.1368
  134MOL0     H18440   8.032  12.640   1.101  0.8995  1.1957 -2.2982
  134MOL0     H18441   7.926  12.638   1.367  0.3852  1.0565 -4.1770
  134MOL0     H18442   8.059  12.628   1.679  1.3300 -0.0984  1.1022
  134MOL0     H18443   8.009  12.783   1.599  0.5680  0.5222 -0.7774
  134MOL0     H18444   8.195  12.817   1.771 -3.1560  1.2512 -1.2845
  134MOL0     H18445   8.292  12.710   1.681  0.3618  0.6048  2.6739
  134MOL0     H18446   8.370  12.928   1.629 -1.1321  1.1296  2.4950
  134MOL0     H18447   8.312  12.862   1.483  0.1349 -3.3459  0.6543
  134MOL0     H18448   8.224  13.096   1.498 -3.5573  0.1243 -3.4959
  134MOL0     H18449   8.105  12.984   1.487  1.0798 -0.1689  0.1409
  134MOL0     H18450   7.943  13.153   1.484 -3.6483  0.0530  0.3663
  134MOL0     H18451   7.649  13.228   1.470  0.4903 -0.5578  1.4781
  134MOL0     H18452   7.799  13.278   1.408  0.8082 -2.3072  1.2519
  134MOL0     H18453   7.735  13.385   1.521  2.7736  2.4660 -4.1013
  134MOL0     H18454   7.374  13.170   1.827 -0.3675 -0.0140  1.2420
  134MOL0     H18455   7.110  13.227   1.845 -0.7609  0.7185  1.3031
  134MOL0     H18456   6.952  13.284   1.686 -1.2182  1.0770 -1.4393
  134MOL0     H18457   6.886  13.315   1.849 -0.0447  0.8007  0.5596
  134MOL0     H18458   6.786  13.442   1.586  0.1194 -0.0129  0.6633
  134MOL0     H18459   6.693  13.345   1.688  0.3556  0.1355 -0.4094
  134MOL0     H18460   6.798  13.611   1.793 -3.2514  2.8397  1.2456
  134MOL0     H18461   6.666  13.511   1.849  0.6656  0.0927  0.8283
  134MOL0     H18462   6.540  13.550   1.624 -1.5050  2.0496  1.7736
  134MOL0     H18463   6.683  13.650   1.583  1.5713  1.5972  1.0463
  134MOL0     H18464   6.487  13.701   1.818 -2.5887  2.2087 -1.9145
  134MOL0     H18465   6.633  13.798   1.775  1.0437  0.2785 -0.4962
  134MOL0     H18466   6.438  13.917   1.693  1.0203  0.8049  0.1763
  134MOL0     H18467   6.351  13.765   1.652  1.1187 -0.3440  0.2939
  134MOL0     H18468   6.484  13.727   1.453  2.2320 -0.1263 -0.2375
  134MOL0     H18469   6.594  13.861   1.501 -0.7637  0.0258 -1.4452
  134MOL0     H18470   6.327  13.968   1.487 -1.7514 -0.0939 -1.5765
  134MOL0     H18471   6.321  13.850   1.364  0.5491 -0.5520 -1.0251
  134MOL0     H18472   7.173  13.609   1.668 -2.5393 -0.7880 -0.4984
  134MOL0     H18473   7.421  13.550   1.626  1.7989 -0.4822  1.4388
  134MOL0     H18474   7.809  13.175   1.951 -2.6643 -1.1514 -0.6348
  134MOL0     H18475   8.029  13.101   1.920 -0.9837  3.4149  0.6741
  134MOL0     H18476   8.274  11.918   1.322 -1.1769  1.5703 -1.0465
  134MOL0     H18477   8.281  11.788   1.534 -0.7083 -0.2655 -0.4851
  134MOL0     H18478   8.090  11.367   1.835  1.6449 -0.8255  1.9465
  134MOL0     H18479   8.105  11.354   2.090  3.5599  0.0806 -0.4043
  134MOL0     H18480   8.269  11.632   2.219 -1.5093  0.1758 -1.2870
  134MOL0     H18481   8.149  11.725   2.302 -0.2423 -0.7049  1.9513
  134MOL0     H18482   8.366  11.616   2.425 -0.5892  2.3490  0.5454
  134MOL0     H18483   8.292  11.477   2.429  4.3099  1.2786  3.6520
  134MOL0     H18484   8.099  11.577   2.564  0.8575 -1.2716 -0.5053
  134MOL0     H18485   8.258  11.550   2.630  1.8540  1.4976 -0.0882
  134MOL0     H18486   8.333  11.801   2.573  0.2052  1.8748  0.0622
  134MOL0     H18487   8.221  11.761   2.712  0.8708  0.2076 -0.3516
  134MOL0     H18488   7.964  11.953   2.447 -0.5267 -0.0259  1.4242
  134MOL0     H18489   8.021  11.763   2.124  1.8890  0.4738  0.7371
  134MOL0     H18490   8.014  11.912   1.898 -0.9806 -0.2143  0.6374
  134MOL0     H18491   7.992  11.837   1.746  0.7319 -3.2481  0.3338
  134MOL0     H18492   7.853  11.841   1.855 -1.0093 -1.0634 -0.0683
  135MOL0     O18493   7.053   7.070  11.460  0.1877  0.2908  0.3528
  135MOL0     C18494   7.135   7.166  11.476 -0.1227  0.3843  0.5310
  135MOL0     O18495   7.129   7.286  11.411 -0.5131  0.6323  0.0485
  135MOL0     C18496   7.055   7.296  11.297  0.1924 -0.8420  0.0154
  135MOL0     C18497   6.992   7.418  11.279  0.0541  0.8583 -0.3357
  135MOL0     C18498   6.915   7.445  11.166 -0.6547  0.3080 -0.3097
  135MOL0     C18499   6.892   7.349  11.070  0.4720 -0.2220 -0.2244
  135MOL0     O18500   6.823   7.366  10.958 -0.8307 -0.4006 -0.6070
  135MOL0     C18501   6.698   7.436  10.963 -0.0160  0.0462 -0.3641
  135MOL0     C18502   6.579   7.345  10.933  0.5878  0.7544  0.5732
  135MOL0     C18503   6.571   7.216  11.029  0.7555  0.2435 -0.4606
  135MOL0     C18504   6.449   7.135  11.003  0.4617 -0.2984 -0.1483
  135MOL0     C18505   6.433   7.089  10.852 -0.3512  0.5510 -0.5737
  135MOL0     C18506   6.557   7.025  10.800 -0.3404  0.5244  0.7801
  135MOL0     C18507   6.530   6.988  10.649 -0.0643  0.2695  0.1508
  135MOL0     C18508   6.638   6.902  10.577  0.2075 -0.3831  0.8955
  135MOL0     N18509   6.581   6.808  10.482 -1.0777  0.7625 -0.0255
  135MOL0     C18510   6.582   6.669  10.502 -0.8111 -0.2613 -0.6023
  135MOL0     C18511   6.531   6.617  10.391 -0.5232  0.1598  0.0663
  135MOL0     C18512   6.500   6.478  10.375  0.0448  1.0300  0.3595
  135MOL0     C18513   6.370   6.442  10.452  0.6278  0.3891 -0.6740
  135MOL0     C18514   6.340   6.289  10.426 -0.0311 -0.4171  0.2173
  135MOL0     C18515   6.287   6.216  10.548  0.3186 -0.4204 -0.2124
  135MOL0     O18516   6.143   6.259  10.573  0.2824  0.5679 -0.8368
  135MOL0     C18517   6.070   6.187  10.672  0.2308 -0.3161  0.3621
  135MOL0     C18518   5.940   6.216  10.700 -0.7030 -1.1508 -0.0013
  135MOL0     C18519   5.861   6.161  10.800 -0.3058  0.1665 -0.0922
  135MOL0     C18520   5.726   6.213  10.831 -0.3535 -0.0658  0.6621
  135MOL0     C18521   5.923   6.047  10.871  0.8057 -0.8725 -0.3539
  135MOL0     C18522   5.843   5.961  10.965 -0.2226 -0.2756 -0.1192
  135MOL0     O18523   5.913   5.919  11.073  0.5827  0.3355  0.2825
  135MOL0     C18524   5.847   5.895  11.191  0.3403 -0.4461  0.6397
  135MOL0     C18525   5.878   5.773  11.248  0.1147 -0.3617 -0.4552
  135MOL0     C18526   5.804   5.735  11.367  0.4609 -0.0761 -0.2393
  135MOL0     C18527   5.704   5.822  11.416  0.1854  0.2568 -0.5215
  135MOL0     O18528   5.622   5.776  11.515  0.3272  0.3303 -0.1983
  135MOL0     C18529   5.540   5.855  11.590  0.3912 -0.2898 -0.0308
  135MOL0     C18530   5.580   5.857  11.738 -0.0764  0.4922  1.1121
  135MOL0     C18531   5.541   5.737  11.811 -0.1836  0.2683 -0.6234
  135MOL0     C18532   5.631   5.720  11.932 -0.3925 -0.0382 -0.0345
  135MOL0     C18533   5.609   5.585  11.992 -0.4559  0.0165 -0.5324
  135MOL0     C18534   5.716   5.487  11.946  0.4081 -0.5774  0.4935
  135MOL0     C18535   5.837   5.464  12.039 -0.3802 -0.3243 -0.6248
  135MOL0     C18536   5.942   5.583  12.032 -0.4969  0.3325  0.1429
  135MOL0    Cl18537   6.022   5.592  11.869 -0.0754 -0.5388 -0.1945
  135MOL0     C18538   5.673   5.942  11.355 -0.0535  0.8631  0.0983
  135MOL0     C18539   5.744   5.984  11.249  0.0478 -0.3241  0.6070
  135MOL0     O18540   5.720   5.942  10.942  0.1668 -0.1316  0.4613
  135MOL0     C18541   6.056   6.008  10.831 -0.1618  0.8750  0.7421
  135MOL0     C18542   6.132   6.078  10.738  0.2603  0.0190 -0.5980
  135MOL0     N18543   6.507   6.715  10.297 -0.7198 -0.3288  1.2864
  135MOL0     N18544   6.543   6.831  10.350  1.0139  0.4987 -0.6959
  135MOL0     C18545   6.941   7.220  11.085  0.5863  0.3445 -0.7357
  135MOL0     C18546   7.023   7.195  11.197 -0.0888 -2.0375 -0.5339
  135MOL0     C18547   7.250   7.144  11.577  0.6662 -0.1108  0.2808
  135MOL0     C18548   7.316   7.263  11.609  0.3415  0.9039 -0.9592
  135MOL0     C18549   7.436   7.267  11.682  0.0611 -1.7027  0.1365
  135MOL0     C18550   7.485   7.151  11.738 -0.3127  0.1696 -0.5322
  135MOL0     O18551   7.579   7.142  11.834  0.2026 -0.3044  0.3927
  135MOL0     C18552   7.708   7.198  11.796  0.3140  0.3230 -0.7835
  135MOL0     C18553   7.800   7.089  11.853  0.1596  0.1344 -0.2096
  135MOL0     C18554   7.781   6.955  11.801 -0.3886  0.0340  0.3607
  135MOL0     C18555   7.785   6.952  11.639  0.2773  0.4838 -0.2398
  135MOL0     C18556   7.917   6.991  11.585  1.2502  0.6669  0.6134
  135MOL0     C18557   8.004   7.036  11.521 -0.0394  0.0151  0.3553
  135MOL0     C18558   7.413   7.036  11.722  0.2583 -0.1739 -0.0229
  135MOL0     C18559   7.297   7.022  11.643 -1.2807 -0.5903  0.2327
  135MOL0     C18560   7.232   6.887  11.636 -0.0414  0.4412 -0.4479
  135MOL0     H18561   7.000   7.497  11.353 -2.3009 -0.8619  1.9456
  135MOL0     H18562   6.881   7.548  11.161 -0.2768  0.3855 -3.9444
  135MOL0     H18563   6.699   7.522  10.896  1.1398  2.3090  2.3368
  135MOL0     H18564   6.675   7.492  11.054 -1.2079 -0.3074 -0.4249
  135MOL0     H18565   6.487   7.403  10.941 -1.4735 -1.3815 -3.9542
  135MOL0     H18566   6.579   7.317  10.828  0.4901  0.7116  0.5832
  135MOL0     H18567   6.653   7.149  11.003 -0.0435 -0.2031 -2.0063
  135MOL0     H18568   6.574   7.240  11.136  1.6417 -0.9853 -0.2022
  135MOL0     H18569   6.451   7.048  11.070  0.2122  0.5896  1.0520
  135MOL0     H18570   6.368   7.202  11.034  0.5890  0.5871 -1.6419
  135MOL0     H18571   6.410   7.183  10.801 -0.2825 -0.0930 -1.8356
  135MOL0     H18572   6.350   7.021  10.834 -0.4609  0.9316 -1.5520
  135MOL0     H18573   6.649   7.084  10.801  1.6306 -2.2345 -0.8968
  135MOL0     H18574   6.583   6.938  10.862  2.6566  3.2691  3.7472
  135MOL0     H18575   6.515   7.081  10.594  0.4128  0.8828  1.0260
  135MOL0     H18576   6.439   6.928  10.644  0.6452 -0.7252 -2.3813
  135MOL0     H18577   6.700   6.968  10.515 -1.1092 -0.4492 -0.5355
  135MOL0     H18578   6.697   6.849  10.653  2.0525 -2.9003 -2.0821
  135MOL0     H18579   6.619   6.613  10.587  0.9669  1.5309 -0.1271
  135MOL0     H18580   6.586   6.422  10.415  0.1188  1.1582  0.3777
  135MOL0     H18581   6.506   6.468  10.266 -1.9739 -0.2924  0.3174
  135MOL0     H18582   6.395   6.453  10.558 -0.0829  2.5785 -0.6762
  135MOL0     H18583   6.283   6.507  10.434 -0.2563  0.5759  3.2586
  135MOL0     H18584   6.276   6.264  10.340 -0.8600  1.4242  0.2549
  135MOL0     H18585   6.440   6.255  10.399  0.0616  1.4967 -2.2494
  135MOL0     H18586   6.267   6.114  10.514 -0.3498 -0.5532  0.5501
  135MOL0     H18587   6.348   6.220  10.638  1.6293 -0.7905 -1.0495
  135MOL0     H18588   5.901   6.298  10.640  1.6376 -2.8578 -4.3040
  135MOL0     H18589   5.689   6.215  10.933 -1.1136  0.3823  0.3880
  135MOL0     H18590   5.648   6.181  10.761 -1.1131  1.6242  0.6774
  135MOL0     H18591   5.744   6.321  10.829  2.6642 -0.4087  2.4088
  135MOL0     H18592   5.943   5.696  11.207 -1.6566 -1.8825 -0.5459
  135MOL0     H18593   5.815   5.634  11.403 -0.4536  0.3361  1.2893
  135MOL0     H18594   5.526   5.958  11.555 -1.2583 -0.3220  0.4525
  135MOL0     H18595   5.442   5.807  11.594  0.4386 -0.3585  3.3199
  135MOL0     H18596   5.689   5.855  11.729 -0.1529 -3.2615 -4.5912
  135MOL0     H18597   5.554   5.947  11.794 -1.5234  0.0475  1.1830
  135MOL0     H18598   5.547   5.646  11.750 -2.1127 -1.0105  0.9730
  135MOL0     H18599   5.439   5.746  11.848 -0.2408  1.5969 -1.0765
  135MOL0     H18600   5.609   5.790  12.013  0.3441  0.7552 -0.4988
  135MOL0     H18601   5.738   5.737  11.914 -0.5939  2.2405  0.5904
  135MOL0     H18602   5.617   5.594  12.101  0.8374  0.0265 -0.6207
  135MOL0     H18603   5.516   5.534  11.963 -0.8709 -1.1388  2.4049
  135MOL0     H18604   5.760   5.511  11.849  1.9140  0.6001  1.4335
  135MOL0     H18605   5.657   5.395  11.942  1.7211 -1.4594  0.6930
  135MOL0     H18606   5.891   5.369  12.027  1.8486  0.9504 -1.2681
  135MOL0     H18607   5.800   5.474  12.142 -1.6051  1.8335 -1.2116
  135MOL0     H18608   6.027   5.561  12.098 -0.9416  2.2310  1.4223
  135MOL0     H18609   5.886   5.676  12.044  0.1587  0.7402  0.0879
  135MOL0     H18610   5.593   6.010  11.381 -1.2855  0.1516 -1.6376
  135MOL0     H18611   5.729   6.077  11.197  5.3221 -0.9292 -2.6804
  135MOL0     H18612   6.098   5.925  10.887 -2.1193  0.4759  1.6948
  135MOL0     H18613   6.230   6.033  10.723  2.2198  2.5644  2.9358
  135MOL0     H18614   6.925   7.142  11.011 -1.3174  1.2852 -1.3869
  135MOL0     H18615   7.059   7.093  11.206  0.0304 -1.9421  0.1566
  135MOL0     H18616   7.279   7.364  11.592  0.9738  1.7953  2.2303
  135MOL0     H18617   7.497   7.355  11.701  0.0003 -1.9829  1.8516
  135MOL0     H18618   7.712   7.225  11.690 -1.8435  2.7225 -0.3690
  135MOL0     H18619   7.723   7.286  11.859  5.1335 -0.5711 -0.3247
  135MOL0     H18620   7.794   7.087  11.962 -3.6719 -1.1550 -0.2987
  135MOL0     H18621   7.905   7.113  11.832 -0.0410  2.3533  1.0083
  135MOL0     H18622   7.845   6.879  11.847 -1.2729 -0.7483  0.3364
  135MOL0     H18623   7.689   6.911  11.841  1.9764 -3.2207  2.7956
  135MOL0     H18624   7.713   7.017  11.589  1.2560  2.2457  0.5209
  135MOL0     H18625   7.763   6.853  11.599 -0.6271  0.7189 -0.3581
  135MOL0     H18626   8.094   7.072  11.475 -1.2483  3.2031  0.2674
  135MOL0     H18627   7.454   6.953  11.778 -0.6302 -0.1609  0.6750
  135MOL0     H18628   7.284   6.816  11.701 -0.2676  2.0972  1.6717
  135MOL0     H18629   7.126   6.895  11.662  0.1746  0.9961  0.3008
  135MOL0     H18630   7.243   6.836  11.540  3.9865  0.4025 -0.1515
  136MOL0     O18631   8.599   9.541  10.986 -0.5438  0.5291  0.3403
  136MOL0     C18632   8.684   9.619  11.014 -0.2328  0.7459 -0.0283
  136MOL0     O18633   8.792   9.607  11.098  0.2130 -0.1140 -0.8564
  136MOL0     C18634   8.790   9.492  11.168  0.8998 -0.8985  0.2639
  136MOL0     C18635   8.707   9.467  11.275  0.3337  0.0025 -0.6419
  136MOL0     C18636   8.731   9.360  11.365  1.1152 -0.4434 -0.2084
  136MOL0     C18637   8.827   9.266  11.340  0.5135  0.6579  0.7576
  136MOL0     O18638   8.850   9.170  11.425  0.2257 -0.2694  0.1693
  136MOL0     C18639   8.800   9.156  11.558 -0.0529  0.1855  0.8133
  136MOL0     C18640   8.854   9.028  11.620 -0.0522  0.2827 -0.2510
  136MOL0     C18641   8.802   8.987  11.757 -0.2557  0.8963 -0.2848
  136MOL0     C18642   8.887   8.886  11.840  0.4458 -0.4046  0.6329
  136MOL0     C18643   8.994   8.965  11.913  1.6111  1.0923  0.2507
  136MOL0     C18644   9.092   8.858  11.978 -0.7555 -0.2048  0.3585
  136MOL0     C18645   9.023   8.764  12.090 -0.3175 -0.5787 -0.2981
  136MOL0     C18646   9.118   8.661  12.160  0.0419 -0.6487  0.5301
  136MOL0     N18647   9.185   8.560  12.072 -0.1360 -0.6744  0.9071
  136MOL0     C18648   9.297   8.580  11.984 -0.2484 -0.9453  0.6588
  136MOL0     C18649   9.292   8.478  11.907  0.1358  0.7575  0.0105
  136MOL0     C18650   9.392   8.444  11.800 -0.0839  0.6078  0.9870
  136MOL0     C18651   9.316   8.373  11.678  0.1932 -0.8847 -0.0086
  136MOL0     C18652   9.185   8.446  11.618 -0.2744 -0.6216  0.5732
  136MOL0     C18653   9.218   8.591  11.582 -0.3225  0.2126  0.0837
  136MOL0     O18654   9.126   8.659  11.493  0.5246  0.3711 -0.0404
  136MOL0     C18655   9.174   8.773  11.438  0.8298  0.5395 -0.8768
  136MOL0     C18656   9.179   8.889  11.521 -0.1185  0.6651  0.1115
  136MOL0     C18657   9.213   9.012  11.473 -0.6542 -0.0935  0.7532
  136MOL0     C18658   9.213   9.135  11.555  0.1621 -0.1459  0.1375
  136MOL0     C18659   9.251   9.020  11.334  1.3959 -0.1222 -1.0637
  136MOL0     C18660   9.277   9.141  11.261 -1.0489 -0.4200 -0.4109
  136MOL0     O18661   9.199   9.255  11.281  0.0545 -0.7107  0.6365
  136MOL0     C18662   9.237   9.365  11.214  0.7841  0.1229  0.4494
  136MOL0     C18663   9.191   9.380  11.084 -0.4484 -0.3372  0.6189
  136MOL0     C18664   9.221   9.492  11.014 -0.4632  0.0478  0.5227
  136MOL0     C18665   9.308   9.582  11.056 -0.0776 -0.4903  0.0897
  136MOL0     O18666   9.364   9.685  10.982 -0.1040 -0.0578  0.0947
  136MOL0     C18667   9.275   9.782  10.925  0.2860  0.6252 -0.2710
  136MOL0     C18668   9.314   9.928  10.969 -0.6424 -0.7013  0.7605
  136MOL0     C18669   9.205  10.001  11.055  0.6463 -0.6833  0.4420
  136MOL0     C18670   9.063  10.014  10.996 -0.4163  0.3895 -0.8938
  136MOL0     C18671   8.996  10.134  11.035  0.8064  0.1904  0.7049
  136MOL0     C18672   8.847  10.116  11.042  0.0343 -0.0515 -0.0453
  136MOL0     C18673   8.776  10.246  11.029 -0.7858 -0.3582  0.2256
  136MOL0     C18674   8.625  10.237  10.995  0.4119  1.0813  0.4106
  136MOL0    Cl18675   8.538  10.205  11.150 -0.2591  0.4839  0.1280
  136MOL0     C18676   9.364   9.563  11.185 -0.1479 -0.5687 -0.3524
  136MOL0     C18677   9.320   9.460  11.266  1.3064 -0.7625 -0.3630
  136MOL0     O18678   9.379   9.132  11.187  0.3109 -0.5216 -0.1193
  136MOL0     C18679   9.250   8.903  11.248 -0.1142  0.5282 -0.2758
  136MOL0     C18680   9.214   8.778  11.306 -0.2815  0.8197 -0.3058
  136MOL0     N18681   9.189   8.389  11.935 -0.5272  0.1129 -1.1152
  136MOL0     N18682   9.120   8.453  12.026 -0.2457  0.4618 -0.1419
  136MOL0     C18683   8.881   9.274  11.211  0.1840  0.0203 -0.9753
  136MOL0     C18684   8.874   9.389  11.126  0.3339 -0.0096 -0.0290
  136MOL0     C18685   8.670   9.739  10.918 -0.0959  0.7627 -1.0587
  136MOL0     C18686   8.770   9.762  10.822  0.7724  0.1596  0.5459
  136MOL0     C18687   8.759   9.876  10.733 -0.8839  0.2915 -0.1370
  136MOL0     C18688   8.637   9.951  10.731  0.5180 -0.2890 -0.3297
  136MOL0     O18689   8.611  10.065  10.659  0.3474 -0.9509 -0.3801
  136MOL0     C18690   8.714  10.113  10.573  0.7162  0.2088 -1.0440
  136MOL0     C18691   8.685  10.269  10.557 -0.1201  0.2331 -0.2647
  136MOL0     C18692   8.587  10.304  10.436  0.7308 -0.0528 -0.2183
  136MOL0     C18693   8.547  10.457  10.436  0.8881  0.1039  0.1781
  136MOL0     C18694   8.490  10.494  10.307  0.7699 -0.0169  0.4287
  136MOL0     C18695   8.467  10.538  10.193 -0.6341 -0.7716  0.1350
  136MOL0     C18696   8.543   9.922  10.829  0.5858 -1.1807 -1.1510
  136MOL0     C18697   8.554   9.817  10.918 -0.6867  0.2088 -0.6253
  136MOL0     C18698   8.447   9.805  11.016  0.2470  0.0923  0.5113
  136MOL0     H18699   8.637   9.543  11.308  0.0319 -0.3863 -0.3764
  136MOL0     H18700   8.678   9.361  11.459  3.5739 -3.5812  1.3926
  136MOL0     H18701   8.691   9.153  11.555 -0.1992  3.0296  0.8964
  136MOL0     H18702   8.840   9.242  11.613  0.4778  0.1237  0.5245
  136MOL0     H18703   8.832   8.956  11.541  0.0414 -0.0693  0.0390
  136MOL0     H18704   8.963   9.041  11.622 -0.1456  1.2280  2.0136
  136MOL0     H18705   8.796   9.081  11.813 -1.4160  0.8038 -0.2311
  136MOL0     H18706   8.702   8.943  11.749  0.2524 -0.9119  2.0646
  136MOL0     H18707   8.820   8.830  11.907 -3.5230  1.6089 -1.3383
  136MOL0     H18708   8.942   8.811  11.782 -2.0045 -1.7111 -0.1813
  136MOL0     H18709   8.949   9.029  11.990  0.9222  2.8333 -1.5119
  136MOL0     H18710   9.050   9.035  11.850  0.7696  2.8465  1.3684
  136MOL0     H18711   9.140   8.795  11.903 -0.1039 -1.9560  2.1588
  136MOL0     H18712   9.178   8.916  12.013  0.7250 -1.1601 -1.5467
  136MOL0     H18713   8.948   8.698  12.046  0.1521 -1.1762 -0.2166
  136MOL0     H18714   8.976   8.824  12.168  2.6248  2.7818 -0.8487
  136MOL0     H18715   9.179   8.727  12.221 -1.0282  1.0993 -0.2181
  136MOL0     H18716   9.057   8.597  12.224 -0.7583 -2.7710 -2.1455
  136MOL0     H18717   9.377   8.653  11.980  0.5552 -1.8484 -2.3733
  136MOL0     H18718   9.465   8.373  11.841 -0.7730  0.7285  2.4622
  136MOL0     H18719   9.449   8.530  11.763  0.8653  0.2019  1.4687
  136MOL0     H18720   9.388   8.347  11.600  1.5044 -3.7133  1.9467
  136MOL0     H18721   9.287   8.275  11.717  0.0376 -0.3483  1.2471
  136MOL0     H18722   9.163   8.400  11.521 -3.7071 -3.3680  2.3971
  136MOL0     H18723   9.096   8.418  11.675  0.9062 -1.6719  2.0161
  136MOL0     H18724   9.217   8.641  11.679 -0.1541 -1.7436  1.1566
  136MOL0     H18725   9.321   8.604  11.547  0.6695 -3.4636  1.1116
  136MOL0     H18726   9.152   8.884  11.625  1.4925  2.0083  0.6498
  136MOL0     H18727   9.123   9.193  11.531  0.5649  0.8034  0.8580
  136MOL0     H18728   9.308   9.188  11.544 -0.7101  1.3692 -0.2836
  136MOL0     H18729   9.206   9.097  11.658  0.9764  0.6198  0.4925
  136MOL0     H18730   9.128   9.312  11.028  3.4717 -2.7314 -1.3247
  136MOL0     H18731   9.198   9.515  10.911 -0.4448  4.1649  1.2951
  136MOL0     H18732   9.286   9.775  10.817  0.5210  0.1288 -0.2180
  136MOL0     H18733   9.172   9.761  10.953  1.0701 -1.4111  1.3526
  136MOL0     H18734   9.410   9.922  11.020 -0.1966 -4.1978 -0.2488
  136MOL0     H18735   9.324   9.993  10.882 -2.1857  0.3297  1.3061
  136MOL0     H18736   9.241  10.104  11.065  2.6417 -1.2741 -0.0619
  136MOL0     H18737   9.206   9.961  11.157  1.8124  1.1897  1.2387
  136MOL0     H18738   9.008   9.934  11.046  0.8552 -0.7260 -1.2048
  136MOL0     H18739   9.066   9.999  10.888  1.1064 -0.9633 -0.7125
  136MOL0     H18740   9.029  10.167  11.134  0.9143 -1.5534  1.2909
  136MOL0     H18741   9.026  10.216  10.968  3.0991  0.1098  1.5369
  136MOL0     H18742   8.814  10.066  11.133 -3.1845 -0.7786 -1.4676
  136MOL0     H18743   8.813  10.045  10.967  0.8329 -0.6733  0.1708
  136MOL0     H18744   8.816  10.281  10.934 -1.2025 -2.2595 -0.6940
  136MOL0     H18745   8.783  10.307  11.119  0.6166 -0.5098  0.2411
  136MOL0     H18746   8.615  10.159  10.919  1.7229 -1.1189  2.3368
  136MOL0     H18747   8.582  10.331  10.962 -1.5216  2.3463  5.6288
  136MOL0     H18748   9.440   9.632  11.220 -0.4988 -1.0044  1.3522
  136MOL0     H18749   9.343   9.455  11.372  1.1094 -2.3532 -0.3774
  136MOL0     H18750   9.276   8.913  11.143  0.6356 -0.2313 -0.1718
  136MOL0     H18751   9.212   8.688  11.246  0.7308  2.0148 -2.2539
  136MOL0     H18752   8.941   9.189  11.181  1.0794 -0.3602  1.6674
  136MOL0     H18753   8.934   9.393  11.036 -0.1674 -1.7782 -0.4843
  136MOL0     H18754   8.856   9.696  10.817 -0.1989 -1.1194  0.0111
  136MOL0     H18755   8.828   9.886  10.649 -1.8227  1.1560 -0.8241
  136MOL0     H18756   8.808  10.105  10.629 -1.7268  1.2770  3.7274
  136MOL0     H18757   8.710  10.054  10.481  2.5865  0.1885 -1.1373
  136MOL0     H18758   8.777  10.319  10.524 -0.9180  0.5831 -2.0788
  136MOL0     H18759   8.651  10.310  10.652  1.9691 -1.9622  1.5319
  136MOL0     H18760   8.630  10.279  10.338  1.7126 -1.6967  0.5718
  136MOL0     H18761   8.491  10.251  10.436  0.8623 -0.2949 -0.0788
  136MOL0     H18762   8.630  10.526  10.456  0.6710  0.3366  0.2862
  136MOL0     H18763   8.475  10.472  10.517 -2.0194 -1.0783 -2.0197
  136MOL0     H18764   8.443  10.596  10.106 -2.5435 -1.3946  0.2211
  136MOL0     H18765   8.447   9.972  10.828 -0.4663 -3.0696 -0.3585
  136MOL0     H18766   8.399   9.902  11.033  1.2407  0.6205  0.3737
  136MOL0     H18767   8.371   9.734  10.982  1.1352 -1.4596  1.6751
  136MOL0     H18768   8.489   9.757  11.105  1.5069 -0.6793 -0.4622
  137MOL0     O18769   6.001   3.448   1.934 -0.0380  0.4669 -0.5174
  137MOL0     C18770   5.913   3.527   1.979 -1.1553  0.2807  0.5416
  137MOL0     O18771   5.798   3.557   1.912  0.0150  0.4911  1.2401
  137MOL0     C18772   5.767   3.501   1.789 -0.6057  0.0465  0.5768
  137MOL0     C18773   5.755   3.366   1.765 -0.1855 -0.4503  0.0923
  137MOL0     C18774   5.720   3.315   1.637  0.6673 -0.4185  0.2387
  137MOL0     C18775   5.689   3.412   1.539  1.1106  0.2433  0.4987
  137MOL0     O18776   5.663   3.357   1.413  0.1095  0.4565  0.2610
  137MOL0     C18777   5.606   3.443   1.308  0.3606  0.1550  0.2850
  137MOL0     C18778   5.585   3.358   1.179  0.3943 -0.1466 -0.4781
  137MOL0     C18779   5.437   3.358   1.134  0.3754  0.5613  0.8456
  137MOL0     C18780   5.447   3.281   1.003  0.1784  0.4845 -0.1204
  137MOL0     C18781   5.314   3.246   0.928 -1.2255  0.1976  0.1540
  137MOL0     C18782   5.322   3.289   0.781  0.0569  0.1200 -0.1294
  137MOL0     C18783   5.328   3.430   0.746  0.0585  1.4783 -1.0384
  137MOL0     C18784   5.196   3.492   0.785  0.7675  0.2706  0.9380
  137MOL0     N18785   5.178   3.631   0.740  0.6781  0.0887  0.6567
  137MOL0     C18786   5.241   3.737   0.788  0.4887 -0.5813 -0.3913
  137MOL0     C18787   5.164   3.840   0.742  0.3227  0.2596  0.1080
  137MOL0     C18788   5.187   3.982   0.753  0.5167 -0.3558  0.1330
  137MOL0     C18789   5.164   4.045   0.604 -0.0865  0.4416 -0.3426
  137MOL0     C18790   5.276   4.027   0.499 -0.3625 -0.3737  0.2000
  137MOL0     C18791   5.385   4.134   0.530 -0.3262  0.4014 -0.1978
  137MOL0     O18792   5.485   4.088   0.439 -0.1516 -0.5150  1.3364
  137MOL0     C18793   5.482   4.118   0.303 -0.0215 -0.1657 -0.9973
  137MOL0     C18794   5.418   4.229   0.238 -0.7358  0.3824  0.3617
  137MOL0     C18795   5.435   4.245   0.105  0.3274 -0.0376  0.3136
  137MOL0     C18796   5.369   4.367   0.039  1.1548  0.2247  0.6436
  137MOL0     C18797   5.518   4.162   0.036 -0.7738  1.2118  0.7336
  137MOL0     C18798   5.555   4.188  -0.104  0.0935  1.2999  0.0688
  137MOL0     O18799   5.446   4.196  -0.188 -0.0541 -0.4240 -0.3589
  137MOL0     C18800   5.464   4.234  -0.319 -1.0590  1.2169  0.4346
  137MOL0     C18801   5.426   4.145  -0.420 -0.0865  0.0278 -0.0095
  137MOL0     C18802   5.437   4.196  -0.552  0.1965  0.4017 -0.3004
  137MOL0     C18803   5.477   4.326  -0.579  0.5230  0.1922  0.0842
  137MOL0     O18804   5.482   4.381  -0.704  0.2742  1.1384  0.1899
  137MOL0     C18805   5.546   4.299  -0.799 -0.1500 -0.0221  0.1566
  137MOL0     C18806   5.550   4.381  -0.924 -0.3408 -1.3236  0.4629
  137MOL0     C18807   5.618   4.306  -1.033  0.3589  0.0825 -0.4472
  137MOL0     C18808   5.517   4.248  -1.127 -0.7525  0.2380  0.2161
  137MOL0     C18809   5.579   4.189  -1.258  1.1779  0.1139 -0.2755
  137MOL0     C18810   5.625   4.048  -1.225 -0.0330 -0.2770  0.5520
  137MOL0     C18811   5.713   3.976  -1.334 -0.2553 -0.3787 -0.1005
  137MOL0     C18812   5.721   3.821  -1.312 -0.5343 -0.3191 -0.4125
  137MOL0    Cl18813   5.852   3.748  -1.415  0.0706 -0.3769 -0.8016
  137MOL0     C18814   5.495   4.415  -0.470 -0.2580  0.3314 -0.5908
  137MOL0     C18815   5.498   4.366  -0.343  0.3792  0.3504 -0.0980
  137MOL0     O18816   5.677   4.198  -0.125  0.9249 -0.0122  0.6811
  137MOL0     C18817   5.579   4.056   0.100  0.7210  0.0751  0.2516
  137MOL0     C18818   5.572   4.039   0.235 -0.4555 -0.0512  0.6369
  137MOL0     N18819   5.060   3.796   0.662 -0.1248  0.0761 -0.1742
  137MOL0     N18820   5.066   3.668   0.679 -0.8787  0.5974  0.4290
  137MOL0     C18821   5.687   3.555   1.563  0.1927  0.1406  0.0178
  137MOL0     C18822   5.732   3.595   1.690  0.1393 -0.1597  0.2382
  137MOL0     C18823   5.920   3.597   2.109  0.5453  0.5203  0.7292
  137MOL0     C18824   5.820   3.688   2.149  0.3899 -1.2789  0.2028
  137MOL0     C18825   5.829   3.764   2.271 -0.7436 -0.1670  0.4856
  137MOL0     C18826   5.946   3.756   2.348  1.0240 -0.2325 -0.0302
  137MOL0     O18827   5.942   3.808   2.480  0.6689  0.3038  0.6885
  137MOL0     C18828   5.887   3.936   2.492 -0.4218 -0.4986 -0.2099
  137MOL0     C18829   5.991   4.040   2.548  0.8788 -0.2166 -0.4949
  137MOL0     C18830   6.135   4.021   2.497  0.8320  1.0618  0.0653
  137MOL0     C18831   6.137   4.031   2.341  1.2575 -0.9766  0.6068
  137MOL0     C18832   6.140   4.172   2.286  0.0054  0.1444 -0.9285
  137MOL0     C18833   6.135   4.280   2.233 -0.1189 -0.1627 -0.1062
  137MOL0     C18834   6.048   3.668   2.304  0.3192 -0.1475  0.0364
  137MOL0     C18835   6.035   3.598   2.186 -0.1015 -0.6863  0.0872
  137MOL0     C18836   6.148   3.504   2.159 -0.1668 -0.0504  0.0714
  137MOL0     H18837   5.769   3.286   1.837  3.1881 -1.6802 -1.6981
  137MOL0     H18838   5.716   3.210   1.609  0.3013 -0.1977 -0.6094
  137MOL0     H18839   5.672   3.527   1.282 -1.9973  1.4585 -2.0402
  137MOL0     H18840   5.511   3.489   1.338 -1.1763 -1.6762 -1.5043
  137MOL0     H18841   5.647   3.394   1.096 -1.2437 -0.1057 -1.7304
  137MOL0     H18842   5.610   3.260   1.221  0.9944  0.3267  0.3040
  137MOL0     H18843   5.369   3.307   1.202 -1.3373  2.2746  0.5195
  137MOL0     H18844   5.392   3.455   1.108 -0.1843 -0.0166 -0.4212
  137MOL0     H18845   5.520   3.328   0.935  3.8984 -3.3780  0.7997
  137MOL0     H18846   5.490   3.186   1.036  4.5819  1.8312 -1.3217
  137MOL0     H18847   5.237   3.310   0.973 -1.2579  1.9184 -2.1678
  137MOL0     H18848   5.276   3.144   0.937 -1.9449  0.3665 -0.7736
  137MOL0     H18849   5.410   3.237   0.742  0.7526  0.5361  0.8285
  137MOL0     H18850   5.238   3.247   0.725 -2.3057  0.2467  3.0563
  137MOL0     H18851   5.350   3.451   0.641  1.7092  3.8745 -0.3070
  137MOL0     H18852   5.403   3.483   0.806 -1.0596  0.5763  1.3017
  137MOL0     H18853   5.124   3.434   0.728  1.9929  1.2085 -1.7037
  137MOL0     H18854   5.178   3.473   0.892 -0.7081  0.0228  0.6573
  137MOL0     H18855   5.326   3.741   0.856  1.3323 -4.2805 -0.9931
  137MOL0     H18856   5.284   3.993   0.802  1.7732 -0.1814 -2.2312
  137MOL0     H18857   5.119   4.028   0.824 -2.3795 -1.5719 -1.6581
  137MOL0     H18858   5.072   4.010   0.556  1.1864 -2.3026 -0.9604
  137MOL0     H18859   5.151   4.152   0.624 -1.9188 -0.0028  1.2323
  137MOL0     H18860   5.318   3.927   0.513  0.6630  0.0828  0.4178
  137MOL0     H18861   5.234   4.028   0.398 -1.7010  0.6186  0.7334
  137MOL0     H18862   5.361   4.238   0.504  1.0322  1.6763  3.0256
  137MOL0     H18863   5.426   4.126   0.631  1.1884  1.6453 -0.6692
  137MOL0     H18864   5.357   4.300   0.293 -0.9310  0.9070 -0.5184
  137MOL0     H18865   5.431   4.437  -0.018 -2.0833  3.0857  0.3735
  137MOL0     H18866   5.315   4.436   0.104 -1.3044  1.0573 -2.0794
  137MOL0     H18867   5.295   4.327  -0.031  0.4619  0.6493  1.1306
  137MOL0     H18868   5.403   4.043  -0.389  1.1715  0.3085  2.0214
  137MOL0     H18869   5.405   4.139  -0.639 -2.1302  2.4133 -0.8953
  137MOL0     H18870   5.650   4.280  -0.772 -0.0526  1.6457  1.1607
  137MOL0     H18871   5.491   4.205  -0.810  3.0057 -2.4801  3.3460
  137MOL0     H18872   5.449   4.413  -0.952  0.3410 -1.6107 -2.7228
  137MOL0     H18873   5.596   4.474  -0.889  0.7449 -0.7930 -2.1652
  137MOL0     H18874   5.688   4.238  -0.984 -1.5527 -0.9062  1.0512
  137MOL0     H18875   5.666   4.381  -1.096 -1.5860  0.8720 -1.0813
  137MOL0     H18876   5.434   4.315  -1.152 -2.6127 -1.6378  1.0807
  137MOL0     H18877   5.471   4.158  -1.084  0.4335 -0.8099 -0.6438
  137MOL0     H18878   5.496   4.199  -1.329 -1.5094 -1.4249  2.3509
  137MOL0     H18879   5.666   4.253  -1.269 -0.3028  2.3266  0.3242
  137MOL0     H18880   5.539   3.980  -1.223  0.8931 -1.4848  1.4046
  137MOL0     H18881   5.675   4.035  -1.129  0.7223  0.1063  0.2238
  137MOL0     H18882   5.813   4.020  -1.338 -0.5667  0.4122  0.4727
  137MOL0     H18883   5.669   3.995  -1.432  1.4297  0.5928 -0.7215
  137MOL0     H18884   5.620   3.785  -1.332 -1.1318  1.8466 -1.6980
  137MOL0     H18885   5.739   3.804  -1.205  2.4627 -0.0168 -0.7988
  137MOL0     H18886   5.502   4.521  -0.492  0.5387 -0.1312 -2.8002
  137MOL0     H18887   5.526   4.440  -0.268  3.6095 -1.9551  1.1636
  137MOL0     H18888   5.641   3.988   0.043  0.2228  0.0070 -0.2219
  137MOL0     H18889   5.626   3.958   0.283  0.9156  1.0072  0.9333
  137MOL0     H18890   5.664   3.634   1.493 -0.7758 -0.7865 -0.7611
  137MOL0     H18891   5.727   3.697   1.725  1.3638 -0.3249  0.9339
  137MOL0     H18892   5.732   3.711   2.091 -1.7010 -2.0322  2.8694
  137MOL0     H18893   5.748   3.830   2.301  0.7267  1.4023  1.1834
  137MOL0     H18894   5.835   3.971   2.403 -1.5539 -2.3265 -0.3290
  137MOL0     H18895   5.805   3.930   2.564 -1.6862  2.7955 -1.2195
  137MOL0     H18896   5.995   4.036   2.657  3.0335  0.8438 -0.4772
  137MOL0     H18897   5.962   4.143   2.526 -2.7341 -0.8169  0.7250
  137MOL0     H18898   6.212   4.091   2.530  3.0269 -1.9563  1.9108
  137MOL0     H18899   6.164   3.918   2.522 -0.9100  0.0629 -1.6742
  137MOL0     H18900   6.061   3.978   2.283  2.5838  0.8838 -3.2076
  137MOL0     H18901   6.231   3.990   2.304  2.1304  1.2828  0.1038
  137MOL0     H18902   6.122   4.374   2.183 -0.5855 -1.2695 -2.1668
  137MOL0     H18903   6.147   3.668   2.349  0.7099  2.5081 -0.6538
  137MOL0     H18904   6.212   3.497   2.248  1.0293  1.0720 -0.6628
  137MOL0     H18905   6.111   3.402   2.145  1.4479 -0.5506 -0.7021
  137MOL0     H18906   6.219   3.533   2.082 -0.5344  0.2726 -0.1471
  138MOL0     O18907   6.989   9.221   9.372  0.3520 -0.7434 -0.7246
  138MOL0     C18908   7.094   9.280   9.350  0.1327  0.0001 -0.0183
  138MOL0     O18909   7.211   9.217   9.300  0.1968 -0.5062  0.0998
  138MOL0     C18910   7.203   9.078   9.310  0.2490 -0.8634 -1.4644
  138MOL0     C18911   7.227   9.003   9.200 -0.0050 -0.2991 -0.3471
  138MOL0     C18912   7.205   8.866   9.202 -0.4504  0.2754 -0.2546
  138MOL0     C18913   7.192   8.796   9.326 -0.3388  0.3858 -0.2971
  138MOL0     O18914   7.202   8.652   9.311  0.3729 -0.8990 -0.0445
  138MOL0     C18915   7.244   8.582   9.425 -0.0497 -0.7646 -0.4511
  138MOL0     C18916   7.378   8.632   9.485  0.6908  1.2956 -0.1157
  138MOL0     C18917   7.457   8.515   9.554 -0.2796 -0.0765  0.5603
  138MOL0     C18918   7.378   8.439   9.661  0.0385 -0.0106  1.1443
  138MOL0     C18919   7.474   8.339   9.728 -0.5306 -0.5479 -0.5539
  138MOL0     C18920   7.414   8.281   9.852  0.4254  0.6750  0.1921
  138MOL0     C18921   7.522   8.203   9.939 -0.4152 -0.9070 -0.3556
  138MOL0     C18922   7.462   8.145  10.070 -0.8937 -0.9347  0.4866
  138MOL0     N18923   7.391   8.018  10.057 -0.8936  0.6357 -0.0153
  138MOL0     C18924   7.256   7.987  10.048  0.5896  0.5029  0.1395
  138MOL0     C18925   7.242   7.858  10.013 -0.2411 -0.6837  0.2000
  138MOL0     C18926   7.114   7.803   9.987  0.6244  0.3651  0.5237
  138MOL0     C18927   7.060   7.886   9.864 -0.3395  0.2490  0.3984
  138MOL0     C18928   6.911   7.853   9.839 -0.9681  0.2376 -0.9949
  138MOL0     C18929   6.837   7.970   9.774 -0.0497  0.1133  0.3301
  138MOL0     O18930   6.812   8.076   9.869  0.7879  0.6488  0.2998
  138MOL0     C18931   6.729   8.175   9.817  0.1101 -0.7427  0.0351
  138MOL0     C18932   6.698   8.197   9.686  0.4370  0.5250  0.7759
  138MOL0     C18933   6.620   8.299   9.648 -0.6677 -0.6656 -0.0233
  138MOL0     C18934   6.586   8.318   9.497 -0.9503 -0.2024  0.5932
  138MOL0     C18935   6.566   8.396   9.745 -0.2257 -0.3965 -0.4006
  138MOL0     C18936   6.492   8.512   9.702 -0.1000  0.2079  0.0223
  138MOL0     O18937   6.377   8.492   9.639 -0.7003 -0.2153  0.7432
  138MOL0     C18938   6.292   8.594   9.605 -0.0665  0.8786  1.0601
  138MOL0     C18939   6.264   8.593   9.468  0.1469  0.4965  0.4747
  138MOL0     C18940   6.191   8.703   9.422  0.9194 -0.0982 -0.1716
  138MOL0     C18941   6.137   8.799   9.512  0.9325 -0.0795  0.8930
  138MOL0     O18942   6.056   8.904   9.475 -0.2214  0.9339  1.2045
  138MOL0     C18943   6.044   8.940   9.340 -0.1764  0.5053 -0.7551
  138MOL0     C18944   5.900   9.004   9.328  0.5318  0.1516  0.1883
  138MOL0     C18945   5.879   9.080   9.201  0.2131 -0.4648  0.1961
  138MOL0     C18946   5.739   9.155   9.197  0.3088 -0.6402  0.0844
  138MOL0     C18947   5.732   9.237   9.063  0.2696 -0.1549 -0.3767
  138MOL0     C18948   5.604   9.325   9.046  0.1158  0.3009 -0.2979
  138MOL0     C18949   5.470   9.261   8.993 -0.5050  1.0027 -0.2042
  138MOL0     C18950   5.482   9.260   8.843 -0.2774 -1.0095  0.0488
  138MOL0    Cl18951   5.361   9.143   8.764 -0.1722  0.1091 -0.3517
  138MOL0     C18952   6.169   8.798   9.646  1.0413  0.0484  0.1662
  138MOL0     C18953   6.249   8.693   9.694 -0.3448  0.3442 -0.2036
  138MOL0     O18954   6.548   8.622   9.695 -1.7493  0.4069 -1.0727
  138MOL0     C18955   6.611   8.385   9.877  0.5382  0.9202 -0.9400
  138MOL0     C18956   6.691   8.275   9.914 -0.1709 -0.4649  0.5153
  138MOL0     N18957   7.369   7.802  10.004 -0.0449 -0.4239 -0.5276
  138MOL0     N18958   7.456   7.899  10.046 -0.4736  0.2324  0.6626
  138MOL0     C18959   7.167   8.870   9.435  0.0325 -0.1788  0.0369
  138MOL0     C18960   7.173   9.007   9.429 -0.6564 -0.1525 -0.4317
  138MOL0     C18961   7.101   9.422   9.395 -0.1032 -0.1454  0.3481
  138MOL0     C18962   6.987   9.466   9.473 -0.1193 -0.5509  0.5143
  138MOL0     C18963   6.972   9.592   9.527 -0.8830 -0.3912 -0.3025
  138MOL0     C18964   7.070   9.688   9.505 -0.4790  0.5685  1.4603
  138MOL0     O18965   7.075   9.817   9.544 -0.6498 -0.5282 -0.9980
  138MOL0     C18966   6.959   9.903   9.544  0.4110 -0.2337 -0.3696
  138MOL0     C18967   6.882   9.924   9.412 -0.7816 -0.6574  0.6131
  138MOL0     C18968   6.740   9.961   9.426  0.4303  0.4287  0.2756
  138MOL0     C18969   6.706  10.104   9.481 -0.1089 -0.0751 -0.2248
  138MOL0     C18970   6.583  10.144   9.417  0.4744 -0.9276  0.1325
  138MOL0     C18971   6.484  10.196   9.366  0.4627 -1.2537 -0.7678
  138MOL0     C18972   7.183   9.649   9.427 -0.0749  0.2850  0.3312
  138MOL0     C18973   7.201   9.521   9.369  0.8418 -0.0356 -0.6085
  138MOL0     C18974   7.315   9.490   9.276  0.0064  0.9232  0.3705
  138MOL0     H18975   7.252   9.056   9.109  0.4462 -1.0752 -0.6860
  138MOL0     H18976   7.219   8.812   9.109 -1.2078 -1.2368  0.4744
  138MOL0     H18977   7.260   8.479   9.391 -2.0801 -0.7317 -1.6475
  138MOL0     H18978   7.166   8.587   9.502 -1.5881  1.7283 -2.0306
  138MOL0     H18979   7.439   8.668   9.402  0.1353 -2.0197 -2.1602
  138MOL0     H18980   7.352   8.714   9.553 -0.2224  0.5726  0.4270
  138MOL0     H18981   7.483   8.441   9.478  1.3251  1.0111 -0.0026
  138MOL0     H18982   7.546   8.552   9.605 -1.4319  2.7193  0.7411
  138MOL0     H18983   7.319   8.502   9.728 -3.0570 -1.0063 -0.4449
  138MOL0     H18984   7.299   8.384   9.609  0.5733 -0.3791  0.7004
  138MOL0     H18985   7.567   8.393   9.749 -0.9430 -0.9758  2.9866
  138MOL0     H18986   7.489   8.263   9.651 -2.8126 -1.0905 -0.5423
  138MOL0     H18987   7.376   8.359   9.919 -2.6500 -1.5743  1.3258
  138MOL0     H18988   7.333   8.209   9.839  1.2780  0.0679 -2.2031
  138MOL0     H18989   7.606   8.268   9.967 -0.6633 -0.1825 -1.2287
  138MOL0     H18990   7.559   8.119   9.880  1.6112 -0.2886 -0.0549
  138MOL0     H18991   7.546   8.117  10.135 -0.3265 -3.2051 -1.1189
  138MOL0     H18992   7.403   8.213  10.133  1.5604  1.8919 -0.0535
  138MOL0     H18993   7.176   8.060  10.053 -0.3135 -0.3427 -1.2790
  138MOL0     H18994   7.050   7.816  10.074 -0.6705 -0.9728 -0.1977
  138MOL0     H18995   7.121   7.697   9.962  2.2353  0.8541 -1.4089
  138MOL0     H18996   7.073   7.994   9.867 -0.9583  0.4600 -2.1611
  138MOL0     H18997   7.118   7.852   9.777  2.2589  1.8031  1.3986
  138MOL0     H18998   6.915   7.767   9.772  1.4302  0.2354 -0.9159
  138MOL0     H18999   6.843   7.823   9.920  1.2239  0.0571  0.8780
  138MOL0     H19000   6.914   7.996   9.701  1.1386 -1.9032  0.7833
  138MOL0     H19001   6.745   7.924   9.737  0.2345 -0.2896  0.1184
  138MOL0     H19002   6.760   8.135   9.622  0.4467 -2.6022  3.5572
  138MOL0     H19003   6.483   8.290   9.477 -0.2075 -3.4868  0.7881
  138MOL0     H19004   6.644   8.249   9.434 -2.1081 -0.4048 -0.2921
  138MOL0     H19005   6.611   8.421   9.469  0.4291 -0.4974  0.6329
  138MOL0     H19006   6.305   8.520   9.399 -1.7811 -0.9670  0.8015
  138MOL0     H19007   6.177   8.702   9.314  0.0691 -1.1909 -0.0618
  138MOL0     H19008   6.112   9.017   9.303 -0.4016 -0.0578 -2.4284
  138MOL0     H19009   6.041   8.848   9.280  3.4208 -1.0516  1.1973
  138MOL0     H19010   5.818   8.931   9.328  0.7866 -0.1623 -1.4568
  138MOL0     H19011   5.897   9.075   9.411  1.4954  4.4179 -3.0707
  138MOL0     H19012   5.891   9.015   9.114  1.0821 -0.0095 -0.0289
  138MOL0     H19013   5.960   9.152   9.188  0.4517 -0.5261  1.2417
  138MOL0     H19014   5.731   9.216   9.288 -2.8909  0.8154 -1.0211
  138MOL0     H19015   5.664   9.077   9.210  0.1252 -0.1334  2.5896
  138MOL0     H19016   5.820   9.301   9.076 -0.4109  0.2167  3.5308
  138MOL0     H19017   5.739   9.189   8.965 -0.6216  1.6666 -1.3888
  138MOL0     H19018   5.626   9.402   8.972  0.1759  2.0219  1.4247
  138MOL0     H19019   5.585   9.367   9.145  0.2705 -4.3604  2.0048
  138MOL0     H19020   5.392   9.320   9.042  1.4560  2.1707  1.7014
  138MOL0     H19021   5.469   9.160   9.035  2.0081  1.4242  1.0769
  138MOL0     H19022   5.580   9.234   8.803 -0.7538 -0.0038 -1.9039
  138MOL0     H19023   5.448   9.355   8.802 -0.8713  0.7394  4.0955
  138MOL0     H19024   6.131   8.877   9.710  1.3207  1.7232 -1.6431
  138MOL0     H19025   6.298   8.703   9.791 -0.7590  0.3806  0.0063
  138MOL0     H19026   6.587   8.450   9.961 -0.4274  1.4488 -1.6090
  138MOL0     H19027   6.719   8.263  10.018 -1.3069  4.5000  1.6838
  138MOL0     H19028   7.134   8.808   9.518 -0.6788 -0.6374 -0.5774
  138MOL0     H19029   7.148   9.048   9.526  0.9164 -3.1749  1.4209
  138MOL0     H19030   6.897   9.405   9.472 -0.0103 -0.7408 -1.4635
  138MOL0     H19031   6.890   9.622   9.591 -1.6025 -1.6124 -0.6271
  138MOL0     H19032   6.887   9.871   9.619  0.8754 -1.7442 -0.5450
  138MOL0     H19033   6.999   9.998   9.580 -1.4028  0.6590 -0.6192
  138MOL0     H19034   6.892   9.832   9.354  1.3567  0.4269 -0.8577
  138MOL0     H19035   6.929  10.005   9.356  1.2273 -0.9840  1.7380
  138MOL0     H19036   6.700   9.947   9.325 -3.0516  2.0591  1.2767
  138MOL0     H19037   6.683   9.886   9.481 -0.0082 -0.5352 -1.4090
  138MOL0     H19038   6.795  10.161   9.453  0.8063 -2.2202 -1.9700
  138MOL0     H19039   6.690  10.102   9.589 -2.7465 -2.7230 -0.5296
  138MOL0     H19040   6.404  10.243   9.312 -1.2783  0.7060  3.1461
  138MOL0     H19041   7.252   9.733   9.429  0.7588 -0.3758  2.7949
  138MOL0     H19042   7.376   9.580   9.264  0.6319  0.2693 -1.9317
  138MOL0     H19043   7.373   9.414   9.328 -3.7861 -0.9857  2.2804
  138MOL0     H19044   7.273   9.449   9.183  1.1036  2.0830 -0.6652
  139MOL0     O19045   3.102   0.342   3.209  0.3086  0.1409 -0.0684
  139MOL0     C19046   3.011   0.364   3.141 -0.0653 -0.4929  0.8309
  139MOL0     O19047   2.882   0.383   3.189 -1.7796 -0.3758 -0.1846
  139MOL0     C19048   2.878   0.376   3.324  0.5116 -0.7492  0.1084
  139MOL0     C19049   2.825   0.256   3.377 -0.5978  0.6793 -0.8820
  139MOL0     C19050   2.822   0.246   3.522  0.0476  0.0634 -0.4599
  139MOL0     C19051   2.856   0.351   3.608  0.3046 -0.0310  0.1631
  139MOL0     O19052   2.851   0.332   3.742  0.5198 -0.1353  0.1638
  139MOL0     C19053   2.816   0.444   3.831 -0.5717 -0.5592 -0.4734
  139MOL0     C19054   2.717   0.414   3.937 -0.1055  0.4546 -0.0472
  139MOL0     C19055   2.691   0.539   4.022 -0.0582  0.0383  0.3323
  139MOL0     C19056   2.576   0.511   4.106 -0.1128  0.1465 -0.7212
  139MOL0     C19057   2.567   0.609   4.219  0.8521  0.4785 -0.3573
  139MOL0     C19058   2.535   0.752   4.172 -1.5459 -0.1350  0.0885
  139MOL0     C19059   2.465   0.863   4.274 -1.2992  0.8831 -0.0910
  139MOL0     C19060   2.322   0.839   4.297  1.6691 -0.5821  0.3548
  139MOL0     N19061   2.235   0.901   4.194  0.2161 -0.6838  0.6377
  139MOL0     C19062   2.116   0.958   4.222  1.0483 -0.0388  0.0413
  139MOL0     C19063   2.059   0.983   4.103  0.3746 -0.4505 -0.0570
  139MOL0     C19064   1.922   1.035   4.080  0.6508  0.3934  0.9794
  139MOL0     C19065   1.857   0.971   3.957 -0.3765  0.5180  0.8794
  139MOL0     C19066   1.723   1.026   3.933  0.2593 -1.3113  0.2950
  139MOL0     C19067   1.606   0.947   4.010  0.6296 -0.2122 -0.9239
  139MOL0     O19068   1.480   1.003   3.965 -0.4716 -0.8806  0.5039
  139MOL0     C19069   1.374   1.003   4.058 -0.4879  0.0779  0.0231
  139MOL0     C19070   1.299   0.883   4.080 -0.2782  0.3262  0.6362
  139MOL0     C19071   1.193   0.881   4.172  0.2841 -0.5919 -0.1977
  139MOL0     C19072   1.148   0.744   4.196 -0.2356  0.8612 -0.0490
  139MOL0     C19073   1.167   0.996   4.246  0.5281  0.2803  1.0968
  139MOL0     C19074   1.068   0.988   4.348 -0.5528 -0.2478  0.4039
  139MOL0     O19075   1.121   1.000   4.475 -0.3358 -0.1421  0.1379
  139MOL0     C19076   1.033   1.033   4.577 -0.4489  0.0445 -0.6974
  139MOL0     C19077   0.949   0.936   4.635  0.9291  0.6482 -0.2236
  139MOL0     C19078   0.861   0.976   4.743 -0.0585 -0.6025  0.3069
  139MOL0     C19079   0.844   1.109   4.785  0.5475 -0.2017  0.2419
  139MOL0     O19080   0.762   1.152   4.891  0.4897  0.1897  0.8022
  139MOL0     C19081   0.673   1.045   4.941  0.5707  0.4412  0.0430
  139MOL0     C19082   0.572   1.119   5.027 -0.0122  0.2076  0.3045
  139MOL0     C19083   0.475   1.191   4.929 -0.3640 -0.9926  0.3319
  139MOL0     C19084   0.354   1.252   4.985  0.1209  0.3342 -0.4229
  139MOL0     C19085   0.247   1.153   5.013  0.4414 -0.0876 -0.5607
  139MOL0     C19086   0.116   1.223   5.069 -0.8658  0.0263 -0.0600
  139MOL0     C19087   0.132   1.271   5.211  0.0754 -1.1851 -0.1101
  139MOL0     C19088  -0.002   1.260   5.285  0.2054  1.1171 -0.2867
  139MOL0    Cl19089  -0.152   1.321   5.202 -0.2382  0.4329  0.0975
  139MOL0     C19090   0.934   1.204   4.728  0.9939 -0.2059  0.6490
  139MOL0     C19091   1.037   1.166   4.627  0.6239  0.0810  0.1488
  139MOL0     O19092   0.947   0.966   4.328 -0.3738 -0.6242 -0.9336
  139MOL0     C19093   1.235   1.118   4.219 -0.3001 -0.6801 -0.7259
  139MOL0     C19094   1.347   1.114   4.135  0.9189  0.6810 -0.3951
  139MOL0     N19095   2.150   0.942   4.013  0.4692  0.7696  0.0302
  139MOL0     N19096   2.253   0.880   4.061  0.5332 -0.0212 -0.0312
  139MOL0     C19097   2.897   0.469   3.548  0.3188  0.2796  0.0497
  139MOL0     C19098   2.906   0.486   3.411 -0.0393  0.0702 -0.1675
  139MOL0     C19099   3.038   0.374   2.989  0.1438 -0.1458 -0.2327
  139MOL0     C19100   3.171   0.382   2.950  0.6915 -0.2050 -0.0857
  139MOL0     C19101   3.202   0.376   2.815  0.6924 -0.8779 -0.4846
  139MOL0     C19102   3.105   0.358   2.718 -0.5538  0.6317  0.3161
  139MOL0     O19103   3.143   0.341   2.588  0.0324  0.6540  0.5277
  139MOL0     C19104   3.054   0.364   2.480  0.0663  0.1384  0.2186
  139MOL0     C19105   3.123   0.383   2.344 -0.9211 -0.4525 -0.2252
  139MOL0     C19106   3.171   0.251   2.272 -0.1906 -0.8968 -0.1530
  139MOL0     C19107   3.184   0.271   2.123 -0.0463 -0.7082 -0.5791
  139MOL0     C19108   3.058   0.255   2.054 -0.0113  0.1300  0.0379
  139MOL0     C19109   2.953   0.262   1.992  0.4794  0.3614 -0.9808
  139MOL0     C19110   2.968   0.352   2.760 -0.3286  0.4237  0.0903
  139MOL0     C19111   2.939   0.361   2.895 -0.3127 -0.1513 -0.1530
  139MOL0     C19112   2.789   0.354   2.932 -1.2710  0.8295 -0.4855
  139MOL0     H19113   2.781   0.169   3.330  0.8922 -0.4773 -0.2149
  139MOL0     H19114   2.780   0.152   3.557  0.7188 -0.2878 -0.5786
  139MOL0     H19115   2.785   0.536   3.780 -2.0583  0.4103  2.0425
  139MOL0     H19116   2.906   0.464   3.890 -1.4479 -4.6331  2.7081
  139MOL0     H19117   2.623   0.375   3.895 -0.1926  0.3849  0.2096
  139MOL0     H19118   2.752   0.332   4.000 -0.2220 -0.7247 -1.4545
  139MOL0     H19119   2.781   0.568   4.078  0.2885  0.6406 -0.5142
  139MOL0     H19120   2.659   0.620   3.956 -2.2809 -2.0826 -1.3668
  139MOL0     H19121   2.486   0.499   4.045 -0.5119 -2.4321  0.2431
  139MOL0     H19122   2.579   0.413   4.156 -2.1701  0.7405  0.7292
  139MOL0     H19123   2.653   0.607   4.285 -0.3324  1.1439  1.2738
  139MOL0     H19124   2.481   0.585   4.283  1.3332 -0.0263  0.1102
  139MOL0     H19125   2.632   0.798   4.153 -0.5310 -2.9077 -2.1650
  139MOL0     H19126   2.468   0.749   4.085  0.4044 -2.6845 -1.4636
  139MOL0     H19127   2.484   0.967   4.247 -1.6055  1.1504  0.6955
  139MOL0     H19128   2.524   0.862   4.366 -1.3630 -2.8956  0.0514
  139MOL0     H19129   2.308   0.732   4.311  4.7923 -0.7908  3.1270
  139MOL0     H19130   2.292   0.881   4.393  1.3580  6.0630 -2.1224
  139MOL0     H19131   2.069   0.981   4.318 -2.9163  1.7095 -2.0768
  139MOL0     H19132   1.929   1.142   4.063 -1.0952  0.1485 -2.0402
  139MOL0     H19133   1.855   1.017   4.164 -1.4858 -0.6994 -0.8576
  139MOL0     H19134   1.914   0.996   3.867 -1.2708  0.0442  0.1750
  139MOL0     H19135   1.858   0.863   3.970  6.5435 -0.1338 -0.8748
  139MOL0     H19136   1.728   1.133   3.956  1.4278 -1.5978  1.5123
  139MOL0     H19137   1.694   1.032   3.828 -0.9385  0.5153  0.6959
  139MOL0     H19138   1.602   0.840   3.986 -2.0001 -0.4243  0.1860
  139MOL0     H19139   1.609   0.959   4.119 -0.5739  2.8229 -1.1286
  139MOL0     H19140   1.337   0.798   4.025  1.8537  1.6999 -0.1216
  139MOL0     H19141   1.041   0.736   4.178 -0.1113  0.4016 -0.6396
  139MOL0     H19142   1.172   0.712   4.298  4.5432  0.1075 -1.1462
  139MOL0     H19143   1.194   0.679   4.120  3.0225  3.7791 -0.8211
  139MOL0     H19144   0.952   0.831   4.606  0.1617  0.1055  1.4898
  139MOL0     H19145   0.801   0.900   4.791  0.2926 -0.1198  1.5504
  139MOL0     H19146   0.624   0.985   4.864  0.7150 -0.1601  0.4112
  139MOL0     H19147   0.733   0.989   5.014 -0.8260 -0.0745  0.8203
  139MOL0     H19148   0.517   1.049   5.092 -1.2196 -3.0184 -3.7702
  139MOL0     H19149   0.629   1.182   5.096  3.1064  0.0187 -1.8885
  139MOL0     H19150   0.457   1.120   4.847 -0.2355 -0.0748 -0.5003
  139MOL0     H19151   0.526   1.278   4.887 -0.7592 -1.2165 -0.6416
  139MOL0     H19152   0.314   1.334   4.924  1.9421  1.8746  0.3397
  139MOL0     H19153   0.385   1.299   5.079  3.0314 -1.4208 -0.3667
  139MOL0     H19154   0.224   1.105   4.918 -2.6921  3.3045 -1.7399
  139MOL0     H19155   0.291   1.081   5.083  1.1318  0.5434 -0.3313
  139MOL0     H19156   0.037   1.148   5.059 -1.0411  0.0136  1.2312
  139MOL0     H19157   0.089   1.314   5.014  0.8828  1.2292  0.9710
  139MOL0     H19158   0.159   1.377   5.212 -1.5197 -0.7498  1.0396
  139MOL0     H19159   0.208   1.219   5.269  2.1949  2.6114  0.8709
  139MOL0     H19160   0.004   1.299   5.387  0.5826  1.1656 -0.3289
  139MOL0     H19161  -0.019   1.153   5.302  0.7326  1.1212  0.2857
  139MOL0     H19162   0.932   1.307   4.762  4.3202 -0.1851  1.1190
  139MOL0     H19163   1.100   1.247   4.594 -0.6926  0.6382 -1.0513
  139MOL0     H19164   1.208   1.212   4.267 -2.8990 -2.5853  1.8470
  139MOL0     H19165   1.403   1.203   4.108  3.0628 -0.0507  1.3564
  139MOL0     H19166   2.908   0.557   3.611  2.9284  1.4536 -1.8198
  139MOL0     H19167   2.917   0.582   3.362  3.3644  1.5672  3.0719
  139MOL0     H19168   3.257   0.379   3.016 -1.4672 -2.9579  2.9172
  139MOL0     H19169   3.303   0.398   2.786  1.1498  1.8108  2.5908
  139MOL0     H19170   2.968   0.299   2.463  2.1508 -3.5097  2.4273
  139MOL0     H19171   2.996   0.454   2.504  0.6437  0.4829  0.3466
  139MOL0     H19172   3.210   0.447   2.364 -0.2834 -2.2927  4.2131
  139MOL0     H19173   3.059   0.440   2.277  0.1255 -1.0560 -1.7900
  139MOL0     H19174   3.273   0.257   2.312 -0.2102  2.9519 -0.2309
  139MOL0     H19175   3.122   0.159   2.305  1.3172 -0.7091  2.9085
  139MOL0     H19176   3.249   0.189   2.092 -0.8648 -0.7982 -2.1209
  139MOL0     H19177   3.238   0.365   2.106 -2.2275  1.1405  1.7816
  139MOL0     H19178   2.856   0.256   1.948  0.2239 -1.3178 -0.2846
  139MOL0     H19179   2.892   0.337   2.683  1.1504 -2.7427 -0.9380
  139MOL0     H19180   2.720   0.330   2.851 -3.3642  0.6044  1.2601
  139MOL0     H19181   2.760   0.275   3.001  0.1694  1.6058  1.1023
  139MOL0     H19182   2.750   0.440   2.989 -1.9834 -1.0486  2.0565
  140MOL0     O19183   8.338   1.392   8.834 -0.2862 -0.5520 -0.2882
  140MOL0     C19184   8.259   1.392   8.927 -0.6598 -0.7875 -0.9133
  140MOL0     O19185   8.280   1.334   9.049  0.7062  0.6777 -0.0888
  140MOL0     C19186   8.405   1.287   9.067 -1.5021  0.2078  0.7268
  140MOL0     C19187   8.436   1.148   9.067 -0.7589 -0.5614 -0.0684
  140MOL0     C19188   8.566   1.112   9.089  0.8030 -0.3909  0.6563
  140MOL0     C19189   8.662   1.205   9.122 -0.0842 -0.6843 -0.7197
  140MOL0     O19190   8.787   1.162   9.163  0.4993  0.3279  0.1807
  140MOL0     C19191   8.900   1.232   9.114  0.9034 -0.7983  0.4852
  140MOL0     C19192   9.034   1.168   9.147 -0.1618  0.6734  0.4326
  140MOL0     C19193   9.143   1.268   9.109  0.5446  0.0584  0.1690
  140MOL0     C19194   9.274   1.226   9.153 -0.4509 -0.4754  0.7398
  140MOL0     C19195   9.377   1.333   9.085  0.1741  0.6311 -0.2945
  140MOL0     C19196   9.418   1.281   8.941  0.0409  0.3060 -0.5405
  140MOL0     C19197   9.512   1.160   8.933 -0.0367  0.2240 -0.6617
  140MOL0     C19198   9.624   1.165   9.038  0.1516  0.3559  0.4485
  140MOL0     N19199   9.721   1.058   9.020 -1.0913  0.3048  0.4311
  140MOL0     C19200   9.844   1.056   9.087  0.1803 -0.0644  0.8825
  140MOL0     C19201   9.905   0.957   9.024 -1.3714  0.3660  0.3128
  140MOL0     C19202  10.049   0.911   9.058 -0.0171  0.4935 -0.0316
  140MOL0     C19203  10.078   0.762   9.055 -0.6423 -0.0974  0.3740
  140MOL0     C19204  10.229   0.741   9.050  0.2857 -0.5412  0.5472
  140MOL0     C19205  10.257   0.581   9.058 -0.6739  0.3095 -0.4312
  140MOL0     O19206  10.400   0.557   9.076 -0.0102 -0.6191 -0.5144
  140MOL0     C19207  10.497   0.577   8.987  0.1949 -0.0914  0.2218
  140MOL0     C19208  10.628   0.552   9.032  0.9433 -0.0944  0.1977
  140MOL0     C19209  10.735   0.558   8.946  0.0808 -0.3427  0.7100
  140MOL0     C19210  10.877   0.524   8.996 -0.2042  0.8046  0.5741
  140MOL0     C19211  10.709   0.581   8.804  0.3439  0.1747 -0.1497
  140MOL0     C19212  10.808   0.558   8.695 -0.8485  0.3359 -0.5716
  140MOL0     O19213  10.893   0.461   8.716 -0.5230  0.4275 -0.3324
  140MOL0     C19214  10.994   0.447   8.624  0.2762 -0.0291  0.6317
  140MOL0     C19215  10.988   0.337   8.537  0.0963 -0.4591  0.3261
  140MOL0     C19216  11.085   0.313   8.445  0.0441  0.0510 -0.2801
  140MOL0     C19217  11.187   0.406   8.425 -0.6136 -0.9875 -0.0405
  140MOL0     O19218  11.266   0.389   8.319 -0.5073 -0.2286 -0.0467
  140MOL0     C19219  11.404   0.401   8.360  0.4590  0.0332  0.3671
  140MOL0     C19220  11.499   0.336   8.259 -0.0261  0.2215  0.7027
  140MOL0     C19221  11.460   0.189   8.225 -0.2705  0.1909 -0.5202
  140MOL0     C19222  11.522   0.168   8.090 -0.7791  0.0466 -0.3730
  140MOL0     C19223  11.516   0.016   8.065 -0.3167 -0.4482  0.0634
  140MOL0     C19224  11.629  -0.038   7.979 -0.3061 -0.0116 -0.0760
  140MOL0     C19225  11.591  -0.040   7.830 -0.1192 -0.4431  0.2382
  140MOL0     C19226  11.687  -0.120   7.736 -0.2438  0.0233 -0.6884
  140MOL0    Cl19227  11.827  -0.013   7.683  0.6913  0.2876 -0.0967
  140MOL0     C19228  11.193   0.507   8.509 -0.5457  0.1621 -0.1427
  140MOL0     C19229  11.105   0.531   8.601 -0.5129  0.2668  0.0162
  140MOL0     O19230  10.805   0.635   8.600  0.3177 -0.5704  0.1338
  140MOL0     C19231  10.579   0.608   8.763  0.4249 -0.7408  0.4616
  140MOL0     C19232  10.471   0.605   8.853  0.5148  0.0897  0.4633
  140MOL0     N19233   9.829   0.895   8.934  0.6618 -0.4080 -0.4827
  140MOL0     N19234   9.715   0.953   8.933  0.1620 -0.8834 -0.4964
  140MOL0     C19235   8.625   1.339   9.138  0.0853 -0.0709  0.0560
  140MOL0     C19236   8.504   1.381   9.097 -0.1343  0.4269 -1.4529
  140MOL0     C19237   8.120   1.443   8.898  0.1899 -0.3292  0.7598
  140MOL0     C19238   8.003   1.366   8.900  0.4102 -1.2587 -0.2244
  140MOL0     C19239   7.885   1.419   8.855  1.3078 -0.0899  0.1814
  140MOL0     C19240   7.875   1.541   8.810 -0.4525 -0.2521  1.1650
  140MOL0     O19241   7.754   1.596   8.775 -0.4414  0.1577  0.7985
  140MOL0     C19242   7.708   1.563   8.643 -0.3162  0.3711  0.1749
  140MOL0     C19243   7.580   1.639   8.617  0.7489 -0.4623  1.1142
  140MOL0     C19244   7.452   1.598   8.677  0.4253 -0.3222  0.3336
  140MOL0     C19245   7.451   1.635   8.831 -0.2477  0.9012  0.2262
  140MOL0     C19246   7.453   1.780   8.848  0.4995 -0.3366 -0.7050
  140MOL0     C19247   7.466   1.898   8.860 -0.0107  0.2569 -0.3597
  140MOL0     C19248   7.984   1.626   8.799  0.4009 -1.1806  0.3382
  140MOL0     C19249   8.105   1.588   8.861 -1.0401  0.2137  0.5878
  140MOL0     C19250   8.219   1.680   8.871 -1.2241  0.4749  0.4239
  140MOL0     H19251   8.356   1.078   9.044 -0.0259 -0.8434 -1.9907
  140MOL0     H19252   8.595   1.007   9.086  0.4690 -0.5037  1.1138
  140MOL0     H19253   8.907   1.335   9.149  2.8783 -0.3807 -0.9542
  140MOL0     H19254   8.883   1.257   9.009  1.3811  1.9566  0.9985
  140MOL0     H19255   9.046   1.150   9.254 -0.8772  1.8660  0.7365
  140MOL0     H19256   9.049   1.077   9.089  1.5514  1.0269  0.2572
  140MOL0     H19257   9.139   1.255   9.000 -2.2105 -2.8677  0.4889
  140MOL0     H19258   9.114   1.370   9.134 -1.4907 -1.1003  2.9916
  140MOL0     H19259   9.285   1.234   9.262 -2.6893 -2.2242  1.1623
  140MOL0     H19260   9.301   1.123   9.127 -0.3854 -0.5885  1.2497
  140MOL0     H19261   9.462   1.358   9.149  0.1432  1.7405 -0.6586
  140MOL0     H19262   9.318   1.425   9.086 -1.3441 -0.3085  0.6569
  140MOL0     H19263   9.329   1.272   8.878  2.9059 -2.9181 -4.7176
  140MOL0     H19264   9.476   1.359   8.892 -2.1018  0.5648 -2.8499
  140MOL0     H19265   9.558   1.153   8.833  0.5037 -0.9577 -0.3502
  140MOL0     H19266   9.454   1.070   8.956  3.8472 -1.9899  1.6797
  140MOL0     H19267   9.687   1.253   9.031  3.4514 -1.4676  3.6509
  140MOL0     H19268   9.593   1.155   9.143  1.9304 -0.7197  0.9206
  140MOL0     H19269   9.896   1.128   9.150  0.3614  0.4617  0.1492
  140MOL0     H19270  10.068   0.941   9.161  2.9224  0.3216 -0.4373
  140MOL0     H19271  10.119   0.961   8.990  0.5902 -1.1736 -0.6957
  140MOL0     H19272  10.028   0.702   9.132 -3.5529  0.3937 -0.9787
  140MOL0     H19273  10.037   0.716   8.965 -2.5434  0.1304  1.0756
  140MOL0     H19274  10.275   0.770   8.955  0.3523  2.0302  1.2651
  140MOL0     H19275  10.278   0.793   9.133  1.6784 -2.8479  1.2688
  140MOL0     H19276  10.204   0.552   9.149  0.9283 -0.0973  0.3943
  140MOL0     H19277  10.208   0.526   8.978  2.6195 -2.1327 -0.9735
  140MOL0     H19278  10.653   0.543   9.137  1.2643 -0.1005  0.1207
  140MOL0     H19279  10.892   0.535   9.104  2.3994  1.0764  0.2515
  140MOL0     H19280  10.963   0.571   8.948 -1.4183  1.0232 -1.5241
  140MOL0     H19281  10.884   0.416   8.980 -1.9070  0.8103 -0.5297
  140MOL0     H19282  10.903   0.271   8.550 -0.5999 -0.3164 -2.6828
  140MOL0     H19283  11.087   0.226   8.380 -0.2967 -0.2319  0.0830
  140MOL0     H19284  11.437   0.503   8.380  0.3081  0.1048  0.2509
  140MOL0     H19285  11.418   0.345   8.453  1.2075  0.8862  0.7764
  140MOL0     H19286  11.491   0.400   8.170 -4.1057 -2.1746 -0.9175
  140MOL0     H19287  11.603   0.336   8.292  0.1090 -1.3462  0.3220
  140MOL0     H19288  11.355   0.165   8.206 -0.4691  1.7244 -1.5455
  140MOL0     H19289  11.495   0.127   8.307 -1.1472  1.1851  0.6435
  140MOL0     H19290  11.628   0.192   8.078  0.4753 -4.4731 -0.0967
  140MOL0     H19291  11.463   0.225   8.018  1.0862  2.6738  0.0429
  140MOL0     H19292  11.524  -0.037   8.160 -2.0298  0.1473  0.5861
  140MOL0     H19293  11.415  -0.010   8.032 -2.0544  1.7497  3.0688
  140MOL0     H19294  11.648  -0.144   8.000  2.3426  0.0535 -1.6415
  140MOL0     H19295  11.723   0.011   8.004  0.8007 -2.2414  0.3602
  140MOL0     H19296  11.557   0.059   7.795 -1.3585 -0.0495  2.3950
  140MOL0     H19297  11.492  -0.087   7.825  0.8719 -2.7598  1.0892
  140MOL0     H19298  11.630  -0.164   7.653  0.2516 -3.6162  0.7452
  140MOL0     H19299  11.729  -0.209   7.782  1.3201  0.2645 -1.5891
  140MOL0     H19300  11.271   0.582   8.497  2.0965 -2.3005  0.3520
  140MOL0     H19301  11.128   0.605   8.677  4.0052  0.4525 -1.2417
  140MOL0     H19302  10.545   0.616   8.660  2.4391 -3.1434 -0.4940
  140MOL0     H19303  10.370   0.620   8.815  0.5500 -0.4181  0.1625
  140MOL0     H19304   8.692   1.416   9.174 -0.3598 -0.6672  2.3090
  140MOL0     H19305   8.458   1.480   9.101 -1.1500 -0.0593 -0.8602
  140MOL0     H19306   8.012   1.265   8.938  2.8623 -1.0344 -0.0492
  140MOL0     H19307   7.794   1.360   8.860  0.8650  0.5229 -0.4657
  140MOL0     H19308   7.771   1.596   8.560 -0.4605  1.7640  0.5866
  140MOL0     H19309   7.687   1.458   8.622  0.1621  0.6865 -2.2169
  140MOL0     H19310   7.549   1.633   8.512 -1.9032 -0.0821  1.7812
  140MOL0     H19311   7.602   1.744   8.642  2.8946 -0.6000  0.0233
  140MOL0     H19312   7.360   1.643   8.640  0.9143  0.0992 -0.3858
  140MOL0     H19313   7.446   1.489   8.662  1.0943 -0.5361  1.5183
  140MOL0     H19314   7.529   1.579   8.883 -0.8648  0.3849  0.6172
  140MOL0     H19315   7.358   1.596   8.874 -0.7517  0.2734 -1.3708
  140MOL0     H19316   7.464   2.003   8.881  0.1159  0.1584  0.1616
  140MOL0     H19317   7.966   1.727   8.765  1.7335 -0.9884  0.1881
  140MOL0     H19318   8.291   1.659   8.950 -1.2578 -4.2527 -0.5665
  140MOL0     H19319   8.263   1.666   8.772 -2.9187  1.3328 -0.4937
  140MOL0     H19320   8.200   1.788   8.870 -1.9743  0.3469 -0.0769
  141MOL0     O19321   9.136   1.961   2.873  0.0012  1.0799  0.2624
  141MOL0     C19322   9.065   1.869   2.904  0.3270  0.1160 -0.8651
  141MOL0     O19323   9.099   1.773   2.988 -0.5359  0.6733  0.6119
  141MOL0     C19324   9.241   1.768   3.025  0.4698  0.2546  0.2966
  141MOL0     C19325   9.334   1.874   3.039  0.4273  0.5499  0.6052
  141MOL0     C19326   9.464   1.857   3.055 -0.5187 -0.6394  0.4161
  141MOL0     C19327   9.521   1.725   3.077  0.4373 -0.7864  0.8150
  141MOL0     O19328   9.652   1.713   3.078  0.3230  0.9210 -0.0588
  141MOL0     C19329   9.733   1.795   3.155 -0.2389 -0.2160 -0.6877
  141MOL0     C19330   9.880   1.738   3.173  0.9636  0.4813 -0.7381
  141MOL0     C19331   9.889   1.608   3.255  0.3430 -0.1939  0.5699
  141MOL0     C19332  10.019   1.529   3.210 -0.6503  0.7268  0.0097
  141MOL0     C19333  10.028   1.386   3.268  0.6849  0.7623 -0.5486
  141MOL0     C19334  10.157   1.310   3.220  0.5364  0.1576  0.5508
  141MOL0     C19335  10.171   1.180   3.300 -0.3726  0.3818 -0.6861
  141MOL0     C19336  10.199   1.196   3.444 -0.3973 -1.1205  0.0164
  141MOL0     N19337  10.218   1.071   3.511  0.0465  0.5105  0.4760
  141MOL0     C19338  10.338   0.988   3.517  0.8253 -0.3865  0.0352
  141MOL0     C19339  10.300   0.855   3.516  0.3400  1.3637  1.0166
  141MOL0     C19340  10.377   0.723   3.529  0.2128  0.4453 -0.4796
  141MOL0     C19341  10.492   0.739   3.632  0.0077  0.1630  0.5070
  141MOL0     C19342  10.591   0.628   3.623 -0.0781  0.3942  0.5892
  141MOL0     C19343  10.530   0.495   3.691 -1.0067 -0.4099 -0.1944
  141MOL0     O19344  10.598   0.370   3.663 -0.5645 -0.4132  0.0711
  141MOL0     C19345  10.717   0.325   3.717 -0.1470 -0.7217 -0.2419
  141MOL0     C19346  10.828   0.265   3.654 -1.0623 -0.0045  0.0883
  141MOL0     C19347  10.941   0.226   3.726 -0.2306  1.9060  0.0598
  141MOL0     C19348  11.030   0.135   3.641 -0.3554 -0.3145  0.8928
  141MOL0     C19349  10.951   0.243   3.864 -0.4465  0.1568 -0.6898
  141MOL0     C19350  11.065   0.192   3.961  0.0160  0.0115  0.3300
  141MOL0     O19351  11.195   0.177   3.903  0.2454  0.5983 -0.5667
  141MOL0     C19352  11.301   0.201   3.985 -0.9413  0.5437 -0.2153
  141MOL0     C19353  11.392   0.099   4.026 -0.0505  0.0468 -0.9886
  141MOL0     C19354  11.514   0.141   4.082  0.4294 -1.5291  0.2386
  141MOL0     C19355  11.538   0.285   4.104 -0.1412  1.0468  0.2409
  141MOL0     O19356  11.650   0.334   4.163 -1.1347  0.4154  0.1911
  141MOL0     C19357  11.761   0.264   4.192 -0.5836 -0.5530 -0.7966
  141MOL0     C19358  11.857   0.250   4.073  1.0208  0.1751  0.8048
  141MOL0     C19359  11.992   0.181   4.105 -0.1376  0.0563  0.4012
  141MOL0     C19360  11.994   0.029   4.080 -0.3383 -0.4541  0.2303
  141MOL0     C19361  11.900  -0.051   4.175  0.9461 -0.7429 -0.2715
  141MOL0     C19362  11.910  -0.206   4.151 -0.2876  0.3932 -0.4176
  141MOL0     C19363  12.048  -0.278   4.158 -0.0270 -0.0019  0.1222
  141MOL0     C19364  12.037  -0.427   4.166  0.9008 -0.3099 -0.6306
  141MOL0    Cl19365  11.993  -0.463   4.336  0.1400 -0.3088 -0.5256
  141MOL0     C19366  11.439   0.382   4.081  0.7103 -0.3781 -0.1774
  141MOL0     C19367  11.323   0.334   4.020  0.3914 -0.1655 -0.1952
  141MOL0     O19368  11.035   0.174   4.073 -0.3541  0.2618 -0.1372
  141MOL0     C19369  10.833   0.302   3.923  0.1332  1.0585  0.8384
  141MOL0     C19370  10.719   0.339   3.857  0.0213 -0.2064  0.0445
  141MOL0     N19371  10.154   0.857   3.503  0.1346 -0.0991 -0.4489
  141MOL0     N19372  10.117   0.977   3.498  0.3643 -0.6043  0.3780
  141MOL0     C19373   9.432   1.617   3.071 -0.2155 -0.0599 -0.8775
  141MOL0     C19374   9.298   1.638   3.042  0.2601  0.2264 -0.2098
  141MOL0     C19375   8.926   1.863   2.867 -0.7297  0.3085  0.0862
  141MOL0     C19376   8.846   1.979   2.883 -0.0331  0.7777  0.3159
  141MOL0     C19377   8.717   1.999   2.831  0.4760 -0.0095 -0.7347
  141MOL0     C19378   8.661   1.892   2.765  1.0546 -0.3726 -0.2863
  141MOL0     O19379   8.532   1.919   2.727 -0.8513 -0.0341  0.2058
  141MOL0     C19380   8.422   1.895   2.810 -0.6302 -0.6068 -0.2365
  141MOL0     C19381   8.329   1.800   2.747 -0.7244  0.5451  0.7692
  141MOL0     C19382   8.187   1.794   2.795 -0.3097 -1.1760  0.5608
  141MOL0     C19383   8.104   1.678   2.734 -0.0677  0.7350 -0.4741
  141MOL0     C19384   8.151   1.568   2.814 -0.6025  0.9059 -1.2171
  141MOL0     C19385   8.207   1.477   2.879 -0.5005  0.7682  0.7508
  141MOL0     C19386   8.732   1.770   2.758 -0.6425 -0.1710 -0.9755
  141MOL0     C19387   8.862   1.751   2.814 -1.1180  0.0684 -0.4932
  141MOL0     C19388   8.934   1.624   2.781  1.2012  0.0084 -0.4207
  141MOL0     H19389   9.301   1.978   3.032  1.2081  0.6990 -2.8823
  141MOL0     H19390   9.536   1.936   3.043  2.3056 -3.2485 -1.2237
  141MOL0     H19391   9.703   1.811   3.259 -2.0879  1.4091 -1.4031
  141MOL0     H19392   9.743   1.891   3.103 -2.9264  1.6129  1.8378
  141MOL0     H19393   9.930   1.724   3.076 -0.9662  2.0961 -2.0663
  141MOL0     H19394   9.944   1.813   3.220  1.6688 -2.1174  2.8499
  141MOL0     H19395   9.881   1.622   3.363 -0.4433 -1.6546  0.7215
  141MOL0     H19396   9.810   1.542   3.219  0.7758  0.1012 -0.9723
  141MOL0     H19397  10.013   1.517   3.101 -2.9335 -2.7711  0.3613
  141MOL0     H19398  10.108   1.585   3.239  0.2353 -0.4622 -0.3382
  141MOL0     H19399   9.935   1.340   3.233 -0.2815  1.0938  1.3835
  141MOL0     H19400  10.025   1.391   3.378  2.2293 -1.0576 -0.3837
  141MOL0     H19401  10.136   1.301   3.113 -1.4300 -0.1797  0.9153
  141MOL0     H19402  10.245   1.374   3.228  0.9493 -0.0689 -1.5756
  141MOL0     H19403  10.265   1.138   3.264  0.1954  1.6231 -0.6941
  141MOL0     H19404  10.091   1.105   3.294  1.1092 -1.3853  0.5593
  141MOL0     H19405  10.300   1.235   3.460 -0.8549 -0.6382  2.1662
  141MOL0     H19406  10.126   1.266   3.487  0.7976  1.4491 -1.8410
  141MOL0     H19407  10.442   1.019   3.519  0.2695  1.6254  1.4835
  141MOL0     H19408  10.418   0.701   3.430 -0.8057 -0.8771 -0.6450
  141MOL0     H19409  10.307   0.646   3.564  2.8663 -1.7050  0.4243
  141MOL0     H19410  10.544   0.829   3.600  0.8754  0.1707  1.8483
  141MOL0     H19411  10.458   0.763   3.734  1.1233 -1.0581  1.2042
  141MOL0     H19412  10.613   0.596   3.521 -1.2311  2.3593 -0.3410
  141MOL0     H19413  10.681   0.666   3.673 -0.2791  1.6181  0.0661
  141MOL0     H19414  10.539   0.514   3.798  0.7045  2.3358 -0.7341
  141MOL0     H19415  10.422   0.489   3.672 -0.9022  0.8766 -1.2514
  141MOL0     H19416  10.832   0.246   3.547  3.7728 -1.2699  0.2486
  141MOL0     H19417  11.118   0.192   3.608 -2.2426  0.9297 -2.4109
  141MOL0     H19418  10.996   0.104   3.542  1.3928 -2.9501  1.0204
  141MOL0     H19419  11.061   0.043   3.691 -0.2433 -1.3383 -0.9949
  141MOL0     H19420  11.367  -0.003   3.999 -2.1303  0.5376 -1.1181
  141MOL0     H19421  11.579   0.060   4.113 -0.3389 -2.4382 -0.4853
  141MOL0     H19422  11.808   0.325   4.269 -1.8067 -0.9577  0.3068
  141MOL0     H19423  11.753   0.161   4.229  1.6513 -0.0760  1.2961
  141MOL0     H19424  11.818   0.209   3.979 -0.7263 -0.1147  1.6023
  141MOL0     H19425  11.858   0.352   4.032 -2.3978 -0.3077 -0.8306
  141MOL0     H19426  12.020   0.192   4.210 -0.0968  2.6100  0.1940
  141MOL0     H19427  12.056   0.242   4.041 -0.9016  0.1716 -0.2791
  141MOL0     H19428  12.095  -0.011   4.091 -1.4538 -3.2072  1.5528
  141MOL0     H19429  11.980  -0.000   3.975  3.7516 -3.1396  0.1960
  141MOL0     H19430  11.924  -0.026   4.278 -0.2050  1.9884 -0.5862
  141MOL0     H19431  11.795  -0.023   4.160  0.8810  0.8996  2.6677
  141MOL0     H19432  11.860  -0.229   4.056 -2.4721  0.8158  0.5748
  141MOL0     H19433  11.844  -0.247   4.228  0.6159 -3.0660 -1.2972
  141MOL0     H19434  12.105  -0.239   4.243 -2.2897 -0.7198  2.0793
  141MOL0     H19435  12.105  -0.257   4.067  0.7723  3.1770  1.2132
  141MOL0     H19436  12.132  -0.475   4.140 -0.1410 -1.4695 -2.5040
  141MOL0     H19437  11.962  -0.475   4.102  1.0852 -2.9405  0.9771
  141MOL0     H19438  11.449   0.489   4.101 -1.7139  0.4474 -2.7210
  141MOL0     H19439  11.247   0.403   3.984 -0.7750 -0.6515  1.2756
  141MOL0     H19440  10.823   0.294   4.030  2.0089 -3.2270  0.8930
  141MOL0     H19441  10.651   0.381   3.931  1.8900 -1.7809  2.8766
  141MOL0     H19442   9.476   1.520   3.092  1.6475  1.3483  2.5493
  141MOL0     H19443   9.233   1.551   3.041 -2.4874  2.1337  0.0912
  141MOL0     H19444   8.883   2.063   2.942  5.4921  0.2312 -1.8307
  141MOL0     H19445   8.667   2.091   2.859  0.9917  0.3348 -0.9145
  141MOL0     H19446   8.455   1.845   2.901  2.0695 -0.4975 -1.0639
  141MOL0     H19447   8.365   1.985   2.833  0.3344 -0.4196  1.6045
  141MOL0     H19448   8.363   1.696   2.760 -3.8140 -0.6850 -0.0825
  141MOL0     H19449   8.311   1.809   2.640 -0.8856  0.4688  0.7896
  141MOL0     H19450   8.185   1.788   2.904 -1.4171 -0.4755  0.5919
  141MOL0     H19451   8.142   1.892   2.778  0.1798 -0.8886  0.8827
  141MOL0     H19452   8.122   1.653   2.629  1.5496 -2.1091  0.3828
  141MOL0     H19453   7.995   1.688   2.743 -0.4433 -2.3430 -0.7327
  141MOL0     H19454   8.245   1.398   2.941  1.1380 -1.5114 -2.7884
  141MOL0     H19455   8.695   1.686   2.701  1.6784 -0.2392 -2.5196
  141MOL0     H19456   9.033   1.654   2.745  0.6187  1.9121 -0.5432
  141MOL0     H19457   8.945   1.570   2.876  1.5952  2.3669  0.9456
  141MOL0     H19458   8.882   1.560   2.709 -0.0588  1.8106 -1.1896
  142MOL0     O19459   0.703   9.739   3.679 -0.1637 -0.2281  0.2616
  142MOL0     C19460   0.689   9.672   3.573 -0.0041 -0.2254  0.8577
  142MOL0     O19461   0.595   9.581   3.558  0.5566 -0.3326  0.5357
  142MOL0     C19462   0.508   9.544   3.659 -0.1253 -0.6198 -1.2248
  142MOL0     C19463   0.552   9.489   3.785 -0.9260 -0.5633 -0.2831
  142MOL0     C19464   0.460   9.451   3.882  0.1707 -0.3277 -0.9289
  142MOL0     C19465   0.324   9.461   3.859  0.6812 -0.2157 -0.0487
  142MOL0     O19466   0.237   9.403   3.946  0.7560 -0.1837  0.0861
  142MOL0     C19467   0.205   9.491   4.048  0.7299 -0.2522  0.1112
  142MOL0     C19468   0.064   9.540   4.025 -0.6233 -0.1479  0.3029
  142MOL0     C19469  -0.045   9.426   4.012 -0.4821 -0.1762 -0.0210
  142MOL0     C19470  -0.132   9.430   3.883 -0.0498 -0.4677  0.0669
  142MOL0     C19471  -0.204   9.296   3.872 -0.3327  0.0756  0.2951
  142MOL0     C19472  -0.307   9.298   3.766  0.6313 -0.3269  0.6626
  142MOL0     C19473  -0.399   9.178   3.775  0.6259 -0.0351 -1.0347
  142MOL0     C19474  -0.525   9.206   3.697  1.0386 -0.4955 -0.8091
  142MOL0     N19475  -0.654   9.134   3.741  0.0268 -0.2726 -0.9462
  142MOL0     C19476  -0.691   9.014   3.691 -0.0783  0.1658 -0.3822
  142MOL0     C19477  -0.818   8.998   3.729  1.0472 -1.3014  0.3284
  142MOL0     C19478  -0.913   8.899   3.675  0.0712 -0.0719  0.8069
  142MOL0     C19479  -0.899   8.762   3.751 -0.4371 -0.2025  0.7257
  142MOL0     C19480  -0.993   8.640   3.704  0.5145  1.0332  0.1413
  142MOL0     C19481  -1.139   8.692   3.678 -0.0619  0.3641  0.2844
  142MOL0     O19482  -1.199   8.777   3.785 -1.0161  0.3985  0.2726
  142MOL0     C19483  -1.267   8.710   3.879  0.1759  0.1456  0.3543
  142MOL0     C19484  -1.386   8.648   3.852 -0.6552 -0.8928 -0.3508
  142MOL0     C19485  -1.458   8.584   3.952 -1.0739 -0.7199  0.4659
  142MOL0     C19486  -1.587   8.526   3.913  0.6424 -0.7624 -0.6180
  142MOL0     C19487  -1.415   8.591   4.084 -0.5038 -0.4215  0.1758
  142MOL0     C19488  -1.473   8.507   4.195 -0.4838 -0.3493 -0.6166
  142MOL0     O19489  -1.400   8.517   4.313  0.2642  0.2392  0.1941
  142MOL0     C19490  -1.436   8.451   4.425 -0.5049 -0.4347  0.2237
  142MOL0     C19491  -1.516   8.513   4.523 -0.4334  0.1038  0.2440
  142MOL0     C19492  -1.556   8.441   4.638  0.0062 -0.3944  0.2159
  142MOL0     C19493  -1.504   8.314   4.664 -0.0571  0.4089 -0.1265
  142MOL0     O19494  -1.537   8.246   4.772 -0.0373 -0.5865 -0.6453
  142MOL0     C19495  -1.670   8.183   4.756  0.9844  0.0263  0.1162
  142MOL0     C19496  -1.715   8.118   4.891 -0.1043 -0.2177 -0.6244
  142MOL0     C19497  -1.868   8.130   4.919  0.0263 -1.3068 -0.7852
  142MOL0     C19498  -1.896   8.175   5.069  0.1343  0.3337  0.0513
  142MOL0     C19499  -1.933   8.321   5.063 -0.1317  0.1848 -0.0245
  142MOL0     C19500  -1.828   8.437   5.027 -0.0319 -0.3227 -0.1541
  142MOL0     C19501  -1.869   8.585   5.048 -0.2150 -0.7300 -0.0101
  142MOL0     C19502  -1.734   8.660   5.083  0.4952 -0.0699 -1.2896
  142MOL0    Cl19503  -1.761   8.803   5.181  0.0361  0.1159  0.7453
  142MOL0     C19504  -1.415   8.258   4.572 -0.0837 -0.5991  0.5807
  142MOL0     C19505  -1.374   8.331   4.457  0.0061  0.3101  0.2799
  142MOL0     O19506  -1.570   8.433   4.179  0.6222 -0.3813 -0.1480
  142MOL0     C19507  -1.294   8.655   4.101 -0.2644  0.4238  0.6783
  142MOL0     C19508  -1.229   8.717   4.006 -0.4168  0.8031 -0.0286
  142MOL0     N19509  -0.853   9.100   3.814  0.1189 -0.0810  0.6224
  142MOL0     N19510  -0.758   9.186   3.811 -0.1325  0.0306 -0.2406
  142MOL0     C19511   0.277   9.504   3.731 -1.3893  0.7608 -0.3484
  142MOL0     C19512   0.369   9.542   3.627 -0.0669 -0.7454 -0.4435
  142MOL0     C19513   0.790   9.674   3.464 -0.2613  0.5334 -0.4198
  142MOL0     C19514   0.763   9.605   3.338 -0.0245  0.4144 -0.0919
  142MOL0     C19515   0.846   9.608   3.228  0.6101 -0.2897  0.4450
  142MOL0     C19516   0.971   9.683   3.239 -0.1962 -0.0284  0.7023
  142MOL0     O19517   1.041   9.693   3.123  0.6591 -0.0702 -0.3925
  142MOL0     C19518   1.103   9.820   3.093 -1.0676 -0.3092 -0.1016
  142MOL0     C19519   1.234   9.854   3.163  0.7349 -0.5522  0.1578
  142MOL0     C19520   1.311   9.970   3.095 -0.2664 -0.2509  0.0273
  142MOL0     C19521   1.461   9.990   3.136  0.6623  0.2791  0.2219
  142MOL0     C19522   1.539   9.871   3.126 -0.6616  0.4525 -0.2127
  142MOL0     C19523   1.596   9.766   3.137  0.4963  0.5534 -0.1900
  142MOL0     C19524   0.999   9.745   3.359 -0.2883  0.4304 -0.2201
  142MOL0     C19525   0.914   9.736   3.474  0.2997  0.4310  0.4843
  142MOL0     C19526   0.971   9.799   3.608 -0.1221  0.4232 -0.5256
  142MOL0     H19527   0.657   9.495   3.811 -1.1628  3.1668  0.3764
  142MOL0     H19528   0.488   9.413   3.979 -2.8967  0.9785  0.5973
  142MOL0     H19529   0.274   9.575   4.059 -0.9504  1.4506 -1.6199
  142MOL0     H19530   0.215   9.445   4.147 -0.7859  2.2024  1.5178
  142MOL0     H19531   0.039   9.622   4.093 -0.1837  2.2637 -2.2771
  142MOL0     H19532   0.057   9.571   3.920 -0.9985 -3.5147 -0.7844
  142MOL0     H19533   0.006   9.331   4.028  0.5039  0.9019  5.1593
  142MOL0     H19534  -0.112   9.448   4.096  0.4099  2.2684  0.1113
  142MOL0     H19535  -0.199   9.517   3.880  0.6234  0.0950  0.8757
  142MOL0     H19536  -0.064   9.442   3.799  0.8138  0.9152  0.9108
  142MOL0     H19537  -0.258   9.265   3.961 -0.1528 -0.2484  0.2936
  142MOL0     H19538  -0.143   9.212   3.836 -0.1463 -0.3608  1.5711
  142MOL0     H19539  -0.358   9.394   3.777 -3.1645 -1.6467 -3.0835
  142MOL0     H19540  -0.265   9.287   3.666 -0.2744 -0.8592  0.3301
  142MOL0     H19541  -0.436   9.155   3.875  1.9228 -2.2136 -0.9949
  142MOL0     H19542  -0.364   9.089   3.722 -2.1690 -2.1320  0.3547
  142MOL0     H19543  -0.545   9.313   3.703  1.2074 -0.4039 -1.7255
  142MOL0     H19544  -0.505   9.172   3.595 -1.3648 -1.4477 -1.0308
  142MOL0     H19545  -0.640   8.944   3.625  1.3900 -0.4222  1.3069
  142MOL0     H19546  -0.892   8.889   3.568 -0.4748  2.4015  0.3943
  142MOL0     H19547  -1.015   8.938   3.678  0.5037  1.5731 -1.9448
  142MOL0     H19548  -0.793   8.736   3.748  0.3165  2.2903  2.2037
  142MOL0     H19549  -0.928   8.787   3.853 -1.4148  1.4841  0.0772
  142MOL0     H19550  -0.960   8.609   3.604 -1.3755  1.3001 -0.6012
  142MOL0     H19551  -0.978   8.566   3.783 -0.7572 -0.6473 -1.1157
  142MOL0     H19552  -1.135   8.749   3.585  0.1735 -2.2179 -1.3966
  142MOL0     H19553  -1.204   8.604   3.667  0.6748  0.0896 -2.4774
  142MOL0     H19554  -1.419   8.664   3.750  1.5445 -0.2582 -1.0108
  142MOL0     H19555  -1.613   8.568   3.815  2.3607  2.9577  0.3410
  142MOL0     H19556  -1.661   8.544   3.992  0.8248 -2.8845  0.1018
  142MOL0     H19557  -1.575   8.417   3.921 -1.3370 -0.9267  0.7914
  142MOL0     H19558  -1.537   8.615   4.494  2.6765  1.2778  1.5905
  142MOL0     H19559  -1.617   8.495   4.710  1.8164  1.6180  0.3560
  142MOL0     H19560  -1.737   8.256   4.709  4.6600  0.8206 -4.6389
  142MOL0     H19561  -1.666   8.105   4.678 -5.4974  0.8775 -1.7063
  142MOL0     H19562  -1.680   8.015   4.897 -2.9822 -1.2615 -0.5574
  142MOL0     H19563  -1.656   8.168   4.969 -2.2971  2.1378 -0.3457
  142MOL0     H19564  -1.916   8.033   4.902 -2.8300  0.2990 -2.5781
  142MOL0     H19565  -1.917   8.189   4.841  0.7456  0.1569 -0.1660
  142MOL0     H19566  -1.816   8.165   5.143  0.1684 -0.5895 -0.0950
  142MOL0     H19567  -1.976   8.105   5.095  0.3976 -0.9068 -2.2566
  142MOL0     H19568  -2.002   8.326   4.979  0.8784 -0.2894 -0.8955
  142MOL0     H19569  -1.981   8.341   5.159  4.5823  0.5428  2.5847
  142MOL0     H19570  -1.819   8.420   4.920  0.8837 -3.0430  0.2925
  142MOL0     H19571  -1.733   8.408   5.073 -0.0147 -0.7948 -0.4851
  142MOL0     H19572  -1.931   8.576   5.138 -2.4068  1.7409 -1.1713
  142MOL0     H19573  -1.931   8.631   4.972  3.3148  0.0060 -2.7092
  142MOL0     H19574  -1.681   8.682   4.990  2.0642 -1.4314 -0.7516
  142MOL0     H19575  -1.662   8.601   5.141  0.5192  0.8803 -0.3320
  142MOL0     H19576  -1.391   8.155   4.594  1.3803 -0.9821 -2.3524
  142MOL0     H19577  -1.306   8.284   4.387  0.7240 -1.4721  2.0540
  142MOL0     H19578  -1.235   8.665   4.192  1.5357  1.0089 -0.4920
  142MOL0     H19579  -1.142   8.777   4.028  2.4095 -2.2887 -1.8095
  142MOL0     H19580   0.170   9.497   3.710 -1.1833 -2.2197 -0.8916
  142MOL0     H19581   0.339   9.576   3.529  0.9779  0.2032 -0.4524
  142MOL0     H19582   0.667   9.557   3.321 -0.7342  1.1611  1.5663
  142MOL0     H19583   0.820   9.571   3.129 -1.7743  0.8224  0.5806
  142MOL0     H19584   1.125   9.812   2.987  0.8941  2.1431  0.0453
  142MOL0     H19585   1.037   9.908   3.100  0.4523  0.8968 -0.5396
  142MOL0     H19586   1.290   9.761   3.174 -0.3855 -1.4357 -1.1816
  142MOL0     H19587   1.233   9.886   3.268  0.5011 -3.8342  1.2915
  142MOL0     H19588   1.321   9.947   2.988  0.0569  0.9354 -0.2042
  142MOL0     H19589   1.252  10.059   3.117 -2.2618 -1.4708 -0.1588
  142MOL0     H19590   1.462  10.013   3.243 -2.8275 -2.1541  0.9613
  142MOL0     H19591   1.500  10.075   3.079  2.3124 -0.7936 -0.3261
  142MOL0     H19592   1.639   9.669   3.150 -0.8454  0.2293  2.6761
  142MOL0     H19593   1.101   9.782   3.355  0.4052 -1.3103  0.2727
  142MOL0     H19594   0.938   9.757   3.703  0.2393  2.5866  0.6174
  142MOL0     H19595   1.080   9.792   3.612 -0.2408 -1.5470  1.0870
  142MOL0     H19596   0.953   9.906   3.597  1.4190  0.8208  0.5173
  143MOL0     O19597   5.883   8.264  10.424  0.8610  0.5187 -0.2066
  143MOL0     C19598   5.838   8.154  10.424  0.6819 -0.6300 -0.3068
  143MOL0     O19599   5.783   8.089  10.318 -0.4404 -0.8166 -0.1110
  143MOL0     C19600   5.738   8.155  10.209 -0.2577  0.7834 -0.6094
  143MOL0     C19601   5.780   8.096  10.084 -0.4762 -0.2945 -0.8098
  143MOL0     C19602   5.751   8.164   9.969 -0.5651  0.4895 -0.3240
  143MOL0     C19603   5.662   8.277   9.978  0.3076 -0.3158 -0.1243
  143MOL0     O19604   5.649   8.357   9.863 -0.7055  0.8111  0.0350
  143MOL0     C19605   5.518   8.411   9.844  0.8942  0.3357  1.1164
  143MOL0     C19606   5.414   8.327   9.765  0.6041 -0.7985 -0.4261
  143MOL0     C19607   5.486   8.260   9.645 -0.1350  0.3242 -0.0149
  143MOL0     C19608   5.385   8.202   9.543  0.0820  0.0107 -0.2582
  143MOL0     C19609   5.451   8.109   9.444  0.5987 -0.1357  0.8561
  143MOL0     C19610   5.561   8.171   9.370  0.2092 -0.1200  0.1529
  143MOL0     C19611   5.618   8.083   9.262  0.0288  0.3254  0.4276
  143MOL0     C19612   5.712   8.154   9.166  0.0165 -0.0046 -0.5182
  143MOL0     N19613   5.810   8.058   9.125 -0.0897  0.3473  0.5902
  143MOL0     C19614   5.819   7.996   8.997  0.2590 -1.0672  0.5809
  143MOL0     C19615   5.922   7.916   9.003  0.8605 -0.3304 -0.5175
  143MOL0     C19616   5.971   7.829   8.890  1.1445 -0.3977  1.2444
  143MOL0     C19617   6.075   7.897   8.805 -0.5176 -0.0957  0.5201
  143MOL0     C19618   6.210   7.889   8.864  0.6668 -0.3098 -0.7707
  143MOL0     C19619   6.308   7.975   8.799  0.9067 -0.0686 -0.2861
  143MOL0     O19620   6.341   7.912   8.678 -0.2066 -0.9511  0.0195
  143MOL0     C19621   6.430   7.803   8.685 -0.4322  0.3241  0.8742
  143MOL0     C19622   6.537   7.778   8.769  0.6993  0.4982 -0.9872
  143MOL0     C19623   6.608   7.654   8.777 -0.7821  1.1982 -0.0451
  143MOL0     C19624   6.714   7.637   8.878  0.3583  1.0082  1.1172
  143MOL0     C19625   6.582   7.556   8.684 -0.0615  0.6599  0.6213
  143MOL0     C19626   6.624   7.414   8.692 -0.2847  0.1615  0.3490
  143MOL0     O19627   6.619   7.345   8.574 -0.1576 -0.4026 -0.1154
  143MOL0     C19628   6.648   7.213   8.562 -0.6847 -0.0202 -0.4033
  143MOL0     C19629   6.704   7.172   8.447 -0.0271  0.1599  0.3214
  143MOL0     C19630   6.725   7.042   8.425 -0.7143 -0.1240  0.3018
  143MOL0     C19631   6.699   6.947   8.519 -0.1444  1.2642  0.0303
  143MOL0     O19632   6.732   6.816   8.478 -0.0600  0.4737 -0.3935
  143MOL0     C19633   6.695   6.704   8.556  0.8315  0.7168  0.3668
  143MOL0     C19634   6.548   6.675   8.557 -0.4506 -0.5556  0.3417
  143MOL0     C19635   6.497   6.607   8.427 -0.0084  0.2369 -0.0518
  143MOL0     C19636   6.493   6.690   8.300  0.0304  0.9978  0.0393
  143MOL0     C19637   6.577   6.634   8.185  0.3064  0.0206  0.3891
  143MOL0     C19638   6.598   6.744   8.079  0.1871 -0.6383  0.5711
  143MOL0     C19639   6.485   6.764   7.973  0.6392  0.6735 -0.5933
  143MOL0     C19640   6.535   6.825   7.846 -0.5177 -0.1929  0.8136
  143MOL0    Cl19641   6.603   6.987   7.876 -0.1083 -0.1396  0.0944
  143MOL0     C19642   6.641   6.978   8.636 -1.5005 -0.7847  0.6074
  143MOL0     C19643   6.618   7.115   8.657  0.1135 -0.6707  0.7893
  143MOL0     O19644   6.655   7.364   8.798  0.3345 -0.3075  0.1611
  143MOL0     C19645   6.481   7.587   8.593  0.9329  1.2332 -0.4997
  143MOL0     C19646   6.403   7.705   8.598 -0.4106  1.2108  0.4056
  143MOL0     N19647   5.961   7.907   9.146  0.5719 -0.7252  0.5552
  143MOL0     N19648   5.898   7.997   9.208 -0.2410  0.1416 -0.1235
  143MOL0     C19649   5.622   8.331  10.106 -0.0845 -0.1656  0.0235
  143MOL0     C19650   5.665   8.267  10.221  0.2832  0.1147  0.3184
  143MOL0     C19651   5.838   8.068  10.544  0.1111 -0.6548 -0.3959
  143MOL0     C19652   5.909   7.942  10.558  0.0201  0.6983  0.3977
  143MOL0     C19653   5.893   7.860  10.668  0.0018  0.9169  1.0220
  143MOL0     C19654   5.808   7.895  10.768 -0.2640 -0.1578 -0.4106
  143MOL0     O19655   5.806   7.827  10.891  0.3094 -0.2642 -0.1260
  143MOL0     C19656   5.871   7.880  11.011 -0.6189  0.6653  1.0134
  143MOL0     C19657   5.799   7.930  11.133 -0.4895 -0.4062 -0.4028
  143MOL0     C19658   5.825   7.852  11.271  0.5886 -0.3556 -0.6937
  143MOL0     C19659   5.898   7.926  11.380 -0.7134 -0.4239 -0.2433
  143MOL0     C19660   6.036   7.937  11.348  0.8174 -0.0600 -0.5593
  143MOL0     C19661   6.158   7.936  11.321  0.8503  0.0702 -0.0562
  143MOL0     C19662   5.729   8.015  10.755 -0.3302 -0.3085 -0.7321
  143MOL0     C19663   5.744   8.099  10.649 -0.2466 -0.0650  1.8116
  143MOL0     C19664   5.635   8.207  10.630  0.3472 -0.1645 -0.8845
  143MOL0     H19665   5.833   8.002  10.079  1.7050  0.5496  2.7478
  143MOL0     H19666   5.785   8.126   9.873  0.7560 -1.0338  0.6959
  143MOL0     H19667   5.521   8.505   9.788 -2.4880 -0.1143 -0.0756
  143MOL0     H19668   5.476   8.422   9.945  0.9093 -3.1861  1.6396
  143MOL0     H19669   5.363   8.252   9.827  0.1154 -2.0406 -2.2581
  143MOL0     H19670   5.342   8.394   9.719 -1.5259 -3.3338 -1.0515
  143MOL0     H19671   5.545   8.340   9.600 -2.6912  1.3749 -1.7957
  143MOL0     H19672   5.551   8.187   9.693 -0.4026  0.8124  1.1408
  143MOL0     H19673   5.320   8.140   9.607 -2.2501  1.3150 -1.2415
  143MOL0     H19674   5.322   8.278   9.496  2.0497  1.6271 -0.3846
  143MOL0     H19675   5.371   8.078   9.376  0.9662 -1.1842  0.8830
  143MOL0     H19676   5.470   8.019   9.503 -2.8337 -0.8849  1.0346
  143MOL0     H19677   5.526   8.268   9.335  2.7988  2.3728  3.7683
  143MOL0     H19678   5.649   8.190   9.433  0.2717  1.5165 -0.3892
  143MOL0     H19679   5.535   8.048   9.200  1.6381 -0.7257 -1.2565
  143MOL0     H19680   5.661   8.003   9.323  0.5835  0.5408  0.3284
  143MOL0     H19681   5.659   8.206   9.086  0.5263  0.3531 -0.6246
  143MOL0     H19682   5.754   8.230   9.233  1.8011 -2.1698  0.9748
  143MOL0     H19683   5.755   8.015   8.911  0.8301  0.2819  0.4312
  143MOL0     H19684   5.881   7.811   8.832  0.6174  2.5291  0.9971
  143MOL0     H19685   6.012   7.740   8.939  0.3712 -1.8001 -0.5661
  143MOL0     H19686   6.088   7.840   8.713  1.4211  1.5156 -0.2723
  143MOL0     H19687   6.054   8.003   8.788  0.0662 -0.3732 -2.3925
  143MOL0     H19688   6.196   7.926   8.966 -0.9671 -0.1509 -1.0260
  143MOL0     H19689   6.257   7.791   8.876  1.9419 -0.0907 -3.2776
  143MOL0     H19690   6.256   8.069   8.783 -2.6333 -1.9480 -0.9554
  143MOL0     H19691   6.399   7.993   8.858  1.6799 -0.4504 -1.3211
  143MOL0     H19692   6.563   7.859   8.837 -3.2369  1.0678  0.0818
  143MOL0     H19693   6.733   7.727   8.937 -1.5454  0.6637  2.3591
  143MOL0     H19694   6.804   7.594   8.834 -2.5660 -3.5492 -1.3021
  143MOL0     H19695   6.682   7.556   8.945 -2.1211 -0.3386 -1.5031
  143MOL0     H19696   6.721   7.252   8.375 -0.3000  0.0075  0.0901
  143MOL0     H19697   6.776   7.016   8.333  2.2870 -1.1653  2.1198
  143MOL0     H19698   6.741   6.613   8.517 -0.1826  0.5573 -0.4876
  143MOL0     H19699   6.712   6.716   8.664 -3.4803  0.6784  1.2329
  143MOL0     H19700   6.529   6.601   8.634 -1.4914 -2.0281 -1.2440
  143MOL0     H19701   6.489   6.765   8.577 -1.1149 -0.7082 -0.8495
  143MOL0     H19702   6.393   6.580   8.446  0.1101  0.0549  0.3468
  143MOL0     H19703   6.556   6.515   8.427 -2.2428 -1.3619  2.4082
  143MOL0     H19704   6.540   6.788   8.316  0.1327  1.6312 -3.3386
  143MOL0     H19705   6.393   6.689   8.257  0.0577 -0.3317 -0.0084
  143MOL0     H19706   6.681   6.611   8.211  0.5658 -0.9878 -1.3946
  143MOL0     H19707   6.525   6.547   8.145 -0.0219  0.7590 -0.8433
  143MOL0     H19708   6.689   6.727   8.021  2.8055  3.6847  2.9236
  143MOL0     H19709   6.617   6.842   8.124  0.3968 -0.2482 -0.3644
  143MOL0     H19710   6.403   6.824   8.014  0.4948  0.6727 -0.8809
  143MOL0     H19711   6.448   6.662   7.955 -1.6644  1.3193  0.2279
  143MOL0     H19712   6.467   6.842   7.762  0.9236  4.7140  0.3532
  143MOL0     H19713   6.612   6.763   7.800 -1.0871 -1.6221  1.7141
  143MOL0     H19714   6.602   6.919   8.718  0.1307 -2.9626 -0.0847
  143MOL0     H19715   6.560   7.148   8.742 -1.0168  1.5294 -0.7227
  143MOL0     H19716   6.447   7.502   8.534 -0.4611 -0.0576  1.9747
  143MOL0     H19717   6.314   7.704   8.536  0.1325  3.0831 -0.4756
  143MOL0     H19718   5.587   8.430  10.134 -0.1793 -0.2225  0.1046
  143MOL0     H19719   5.643   8.330  10.307 -1.5609  1.3892 -1.0157
  143MOL0     H19720   5.983   7.922  10.481  0.7436  0.8016  1.0598
  143MOL0     H19721   5.959   7.774  10.676  0.2150  0.7917 -1.3231
  143MOL0     H19722   5.937   7.798  11.041 -2.2073 -1.7524 -1.5415
  143MOL0     H19723   5.922   7.970  10.974 -0.1770 -0.8985 -2.7018
  143MOL0     H19724   5.693   7.939  11.109 -0.4086  0.4396 -0.4816
  143MOL0     H19725   5.835   8.031  11.156  1.6389 -1.5567  1.9322
  143MOL0     H19726   5.728   7.826  11.314  1.6864  1.4377  3.3398
  143MOL0     H19727   5.861   7.750  11.256 -0.3412 -1.2158  2.3159
  143MOL0     H19728   5.885   7.883  11.480 -1.8074 -0.2863 -0.3170
  143MOL0     H19729   5.862   8.029  11.379  0.0097 -0.1357 -2.6165
  143MOL0     H19730   6.261   7.919  11.297  1.6731 -0.1353  3.1627
  143MOL0     H19731   5.671   8.043  10.842  2.8023  0.9117  1.1638
  143MOL0     H19732   5.573   8.219  10.719  2.0370  2.4695  0.0614
  143MOL0     H19733   5.681   8.302  10.601 -2.1834  0.7674 -2.1547
  143MOL0     H19734   5.562   8.188  10.550 -0.2033  0.7964 -0.6241
  144MOL0     O19735   3.975   2.515   7.559 -0.9903  1.1643 -0.6036
  144MOL0     C19736   4.044   2.571   7.649  0.1641  0.3603  0.1660
  144MOL0     O19737   4.098   2.697   7.636  1.0258  0.4922  0.1486
  144MOL0     C19738   4.061   2.783   7.543 -0.7275 -0.5545  0.0337
  144MOL0     C19739   4.048   2.741   7.408 -0.0117 -0.9825  0.6971
  144MOL0     C19740   4.012   2.833   7.310  0.2863  0.6677  0.8730
  144MOL0     C19741   3.985   2.963   7.336 -0.6385 -0.4987  0.5036
  144MOL0     O19742   3.954   3.059   7.242  0.5164  0.0563  1.5324
  144MOL0     C19743   3.835   3.139   7.266 -0.5203  0.4964 -0.8207
  144MOL0     C19744   3.707   3.101   7.189 -0.0013  0.2977  0.3298
  144MOL0     C19745   3.675   2.954   7.198 -0.6528  0.2089 -0.7594
  144MOL0     C19746   3.550   2.924   7.116 -0.5604 -0.2955 -0.3461
  144MOL0     C19747   3.535   2.771   7.124 -0.7804 -0.0853  0.1689
  144MOL0     C19748   3.399   2.725   7.060  0.6616  0.8403  0.5686
  144MOL0     C19749   3.401   2.741   6.901  1.0007  1.4939  0.5651
  144MOL0     C19750   3.277   2.676   6.839 -0.1169 -0.2105 -0.1946
  144MOL0     N19751   3.264   2.712   6.693  0.2973 -0.7764  0.8093
  144MOL0     C19752   3.344   2.658   6.598  0.3820  0.5450  0.2965
  144MOL0     C19753   3.299   2.710   6.475  0.3828  0.9334 -0.1985
  144MOL0     C19754   3.363   2.698   6.335 -0.6060  0.6354 -0.7141
  144MOL0     C19755   3.257   2.679   6.231 -0.3195  0.4176  0.9686
  144MOL0     C19756   3.316   2.671   6.084 -0.3660 -0.2726  0.4496
  144MOL0     C19757   3.212   2.634   5.973 -0.6858 -0.1592 -0.0760
  144MOL0     O19758   3.112   2.731   5.966  0.2728  0.2193  0.4088
  144MOL0     C19759   2.981   2.691   5.942 -0.1508  0.7980 -0.1679
  144MOL0     C19760   2.938   2.616   5.828 -0.2379 -0.0410 -0.1294
  144MOL0     C19761   2.795   2.573   5.814 -0.5175 -1.1397 -0.0632
  144MOL0     C19762   2.764   2.510   5.678  0.1730  1.2292 -0.4652
  144MOL0     C19763   2.708   2.599   5.920  0.1256  0.1747  0.8295
  144MOL0     C19764   2.568   2.552   5.918  0.3428  0.4301  0.5735
  144MOL0     O19765   2.472   2.626   5.979  0.4000  0.6699  0.1714
  144MOL0     C19766   2.340   2.588   5.981 -0.4076 -0.7577  0.5606
  144MOL0     C19767   2.279   2.558   5.862 -0.2352  0.3159 -0.6456
  144MOL0     C19768   2.134   2.544   5.853  0.4206 -0.3108 -0.2190
  144MOL0     C19769   2.058   2.555   5.964  0.4520 -0.4436 -0.5365
  144MOL0     O19770   1.932   2.525   5.963  0.1760  0.3626  0.4150
  144MOL0     C19771   1.842   2.559   6.078  0.4300  1.1811 -0.4423
  144MOL0     C19772   1.707   2.485   6.071  0.4711 -0.0325  0.2572
  144MOL0     C19773   1.623   2.506   5.940  0.0305  0.0268 -0.6473
  144MOL0     C19774   1.553   2.641   5.937  0.1603  0.5279  0.7404
  144MOL0     C19775   1.479   2.677   5.802 -1.1189  0.7038 -1.3828
  144MOL0     C19776   1.375   2.789   5.824 -0.6171 -0.0355 -0.3884
  144MOL0     C19777   1.294   2.828   5.704 -0.9454  0.6048 -0.8544
  144MOL0     C19778   1.354   2.943   5.629 -0.8030  0.2922  0.1961
  144MOL0    Cl19779   1.498   2.885   5.552  0.2614  0.4158 -0.1575
  144MOL0     C19780   2.125   2.583   6.084  0.2936 -0.1519 -0.4328
  144MOL0     C19781   2.262   2.607   6.087  0.5917 -0.3384 -1.0715
  144MOL0     O19782   2.558   2.442   5.870 -0.5097 -0.5952 -0.3955
  144MOL0     C19783   2.749   2.681   6.016 -0.5087  0.3717 -0.2661
  144MOL0     C19784   2.882   2.731   6.029  1.6533  0.5088 -0.2461
  144MOL0     N19785   3.174   2.762   6.501  0.7650 -0.0272 -0.4999
  144MOL0     N19786   3.152   2.771   6.634  0.0512  0.0094  0.8109
  144MOL0     C19787   4.017   3.008   7.467 -0.2437  0.9722 -0.3366
  144MOL0     C19788   4.053   2.924   7.572 -0.4963 -1.0200 -0.5466
  144MOL0     C19789   4.067   2.507   7.786  0.3079 -0.4126  0.7210
  144MOL0     C19790   4.157   2.575   7.872 -0.3949 -0.4228  0.6622
  144MOL0     C19791   4.176   2.526   8.009 -0.4095  1.0555  0.2965
  144MOL0     C19792   4.114   2.409   8.052  0.2528  0.9753 -0.1159
  144MOL0     O19793   4.141   2.368   8.179  0.2686  0.4406 -0.6754
  144MOL0     C19794   4.184   2.231   8.189 -0.6732 -0.5543 -1.0139
  144MOL0     C19795   4.317   2.191   8.134  0.4157 -1.1247  0.1334
  144MOL0     C19796   4.435   2.266   8.196 -0.0780  0.1521  0.0252
  144MOL0     C19797   4.577   2.213   8.145 -1.2878  0.0612 -0.4327
  144MOL0     C19798   4.687   2.218   8.251  0.2330  0.3626  0.1000
  144MOL0     C19799   4.776   2.216   8.328  0.3482  0.3410 -1.0981
  144MOL0     C19800   4.023   2.343   7.962  0.2969  1.0331 -1.1367
  144MOL0     C19801   4.004   2.385   7.830  0.0465 -0.0886 -0.4253
  144MOL0     C19802   3.898   2.321   7.738  0.4687 -0.1601  0.1912
  144MOL0     H19803   4.056   2.638   7.376  0.2186 -0.5067 -0.9070
  144MOL0     H19804   4.008   2.801   7.207 -1.7060  1.0394  0.7941
  144MOL0     H19805   3.865   3.243   7.251 -0.6668  0.5948 -0.4447
  144MOL0     H19806   3.811   3.132   7.372 -4.2957 -3.0449 -1.6404
  144MOL0     H19807   3.620   3.150   7.234 -0.6624  1.0911 -1.7120
  144MOL0     H19808   3.720   3.127   7.083 -1.0757 -1.5431 -0.3000
  144MOL0     H19809   3.759   2.905   7.148 -0.6037  0.7916 -1.2623
  144MOL0     H19810   3.671   2.917   7.301  0.3461 -2.4297 -1.5857
  144MOL0     H19811   3.471   2.975   7.171  0.1737 -2.3032  2.8804
  144MOL0     H19812   3.552   2.962   7.014  1.0916  0.8379  0.0572
  144MOL0     H19813   3.549   2.745   7.229  0.9082  1.4275  0.3835
  144MOL0     H19814   3.611   2.723   7.062 -0.6047 -0.1166  0.4075
  144MOL0     H19815   3.394   2.617   7.076 -1.3029  0.6325 -1.0369
  144MOL0     H19816   3.316   2.772   7.112  2.0300 -0.1928  3.9430
  144MOL0     H19817   3.491   2.695   6.859  1.2966  1.3734  1.3186
  144MOL0     H19818   3.400   2.846   6.872  5.7671  1.4637 -0.3845
  144MOL0     H19819   3.295   2.568   6.841  1.4257  0.0009 -0.9516
  144MOL0     H19820   3.185   2.694   6.894 -0.7190 -3.5259  0.1183
  144MOL0     H19821   3.440   2.610   6.607  0.7120  0.9000 -1.0685
  144MOL0     H19822   3.441   2.621   6.328 -1.8467 -0.8850  1.1995
  144MOL0     H19823   3.406   2.796   6.311  1.6343 -0.8236 -3.3295
  144MOL0     H19824   3.196   2.588   6.240  0.3666 -0.1463  0.0782
  144MOL0     H19825   3.178   2.754   6.238 -2.4200 -1.3145 -1.8436
  144MOL0     H19826   3.355   2.769   6.054 -2.6575  0.3349 -0.7193
  144MOL0     H19827   3.399   2.599   6.090 -2.0501 -2.2151  1.8001
  144MOL0     H19828   3.269   2.634   5.879 -0.7185  1.1154 -0.1056
  144MOL0     H19829   3.180   2.529   5.980  2.9241 -1.3001  2.1508
  144MOL0     H19830   3.000   2.590   5.742 -1.4783 -0.3511 -0.9602
  144MOL0     H19831   2.660   2.527   5.648 -1.1846 -0.3989  2.7499
  144MOL0     H19832   2.763   2.401   5.675  0.8311  1.2337 -1.0349
  144MOL0     H19833   2.848   2.547   5.619  2.6853 -1.7047  0.9996
  144MOL0     H19834   2.339   2.567   5.772  1.4696  0.0634  0.4312
  144MOL0     H19835   2.106   2.507   5.755  5.1050 -0.9309 -1.5579
  144MOL0     H19836   1.882   2.524   6.174 -0.9839  1.0646  0.1369
  144MOL0     H19837   1.831   2.665   6.102 -0.3113  0.4563  2.9805
  144MOL0     H19838   1.722   2.378   6.088  0.9756  0.3844  2.9842
  144MOL0     H19839   1.648   2.525   6.154 -0.1260 -0.1883 -0.0862
  144MOL0     H19840   1.544   2.432   5.957  0.0321  0.3734  1.0589
  144MOL0     H19841   1.679   2.477   5.851  2.8731 -2.0506  1.5852
  144MOL0     H19842   1.618   2.725   5.961 -2.7109  3.7707 -1.8202
  144MOL0     H19843   1.483   2.642   6.021  0.2093  2.3499  0.8069
  144MOL0     H19844   1.567   2.716   5.750  0.9767 -0.2896  1.1832
  144MOL0     H19845   1.438   2.590   5.751  0.0164 -0.9374  0.3869
  144MOL0     H19846   1.431   2.875   5.862  0.7940 -0.3439 -1.6663
  144MOL0     H19847   1.301   2.742   5.889  1.2640 -1.4782  0.8331
  144MOL0     H19848   1.194   2.858   5.737 -0.7421  1.7573 -1.2388
  144MOL0     H19849   1.282   2.743   5.636  2.1024  0.0931 -0.8904
  144MOL0     H19850   1.390   3.018   5.700  0.1722  0.9857 -1.0036
  144MOL0     H19851   1.287   2.988   5.556  0.1768 -2.1104 -2.3646
  144MOL0     H19852   2.066   2.606   6.172 -3.3821  2.2456 -3.2037
  144MOL0     H19853   2.305   2.648   6.178 -2.6786  2.6987 -0.6937
  144MOL0     H19854   2.682   2.710   6.096 -0.5640  0.4103 -0.3265
  144MOL0     H19855   2.910   2.780   6.122  1.5351 -2.3583  1.4149
  144MOL0     H19856   4.009   3.114   7.489 -2.2815  0.8887 -0.4958
  144MOL0     H19857   4.062   2.963   7.673  1.3837 -0.8631 -0.7356
  144MOL0     H19858   4.196   2.674   7.850 -1.5156  0.8893  4.0192
  144MOL0     H19859   4.250   2.571   8.074  3.1815  1.2774 -3.5103
  144MOL0     H19860   4.193   2.203   8.294 -1.0509 -0.1865 -0.8794
  144MOL0     H19861   4.108   2.158   8.157 -1.4677 -1.5854  2.7186
  144MOL0     H19862   4.303   2.217   8.028 -1.0604 -0.4280  0.4656
  144MOL0     H19863   4.339   2.084   8.136  2.3695 -0.8493 -1.8816
  144MOL0     H19864   4.431   2.373   8.174  1.0342  1.0253  3.3707
  144MOL0     H19865   4.438   2.259   8.306  2.6071  2.9662  0.3038
  144MOL0     H19866   4.600   2.268   8.052  0.8524 -0.5952 -0.3492
  144MOL0     H19867   4.568   2.109   8.112  1.1426 -0.2612 -0.2421
  144MOL0     H19868   4.859   2.206   8.395  0.2517  1.1241 -0.8435
  144MOL0     H19869   3.983   2.252   8.005 -0.3659  1.7861 -0.0960
  144MOL0     H19870   3.828   2.244   7.771 -2.7108  0.9831 -3.2654
  144MOL0     H19871   3.833   2.408   7.734 -0.8696 -1.1152  0.6166
  144MOL0     H19872   3.938   2.298   7.638  3.4695 -1.6067  1.5630
  145MOL0     O19873   5.384   0.155   2.691 -0.7193  0.0847  0.4676
  145MOL0     C19874   5.446   0.061   2.648 -0.4018 -0.0533  0.5036
  145MOL0     O19875   5.412  -0.008   2.538 -0.7276  0.2741 -0.1032
  145MOL0     C19876   5.296   0.003   2.478  1.0699 -0.2281 -0.1122
  145MOL0     C19877   5.291  -0.032   2.344  0.1355  0.3131  0.2728
  145MOL0     C19878   5.173  -0.038   2.268  0.5134 -0.5379 -0.5803
  145MOL0     C19879   5.049   0.012   2.313 -1.1498 -0.3895  0.5442
  145MOL0     O19880   4.938   0.026   2.231  0.5802  0.6856 -0.0828
  145MOL0     C19881   4.945  -0.009   2.090 -0.5007  0.2522 -0.2999
  145MOL0     C19882   4.804   0.016   2.047  1.0755  0.3851  0.0674
  145MOL0     C19883   4.770   0.166   2.062 -0.2582 -0.3751 -0.2559
  145MOL0     C19884   4.858   0.267   1.976  0.2679 -0.4235 -0.5512
  145MOL0     C19885   4.808   0.413   1.982  0.6621  0.0212  0.3443
  145MOL0     C19886   4.675   0.442   1.921 -0.7887  0.0939 -0.1571
  145MOL0     C19887   4.619   0.583   1.922 -0.1096  0.1693 -0.4358
  145MOL0     C19888   4.684   0.671   1.814  0.5655  0.3352 -0.1927
  145MOL0     N19889   4.593   0.661   1.704  0.8973  0.1835  1.1491
  145MOL0     C19890   4.503   0.766   1.682 -1.3668 -0.3583 -0.1233
  145MOL0     C19891   4.453   0.736   1.559 -0.3721  0.8281  0.4862
  145MOL0     C19892   4.350   0.806   1.476 -0.5652 -1.1863 -0.3154
  145MOL0     C19893   4.403   0.933   1.397 -0.5195  0.3005 -0.4086
  145MOL0     C19894   4.454   0.896   1.258 -0.3387 -0.5027 -0.8400
  145MOL0     C19895   4.487   1.012   1.164 -0.4913 -0.3234  0.3286
  145MOL0     O19896   4.368   1.088   1.125 -0.9218  0.7602 -0.0980
  145MOL0     C19897   4.375   1.224   1.114 -0.0930  0.4218  0.1154
  145MOL0     C19898   4.446   1.292   1.023 -0.6383  0.3706  0.0028
  145MOL0     C19899   4.455   1.433   1.011  0.7443 -0.2596 -0.5012
  145MOL0     C19900   4.561   1.486   0.912 -0.2113 -0.6860  0.5084
  145MOL0     C19901   4.379   1.506   1.100  0.3264  0.8983  0.4036
  145MOL0     C19902   4.386   1.649   1.105 -0.2714 -0.6881  0.7336
  145MOL0     O19903   4.351   1.711   1.223  0.1070  0.3428 -0.6662
  145MOL0     C19904   4.370   1.842   1.246  0.4738  0.6750 -0.1401
  145MOL0     C19905   4.260   1.913   1.301 -0.3392  1.5938 -0.3750
  145MOL0     C19906   4.273   2.049   1.330 -0.6520  0.8692 -0.1183
  145MOL0     C19907   4.396   2.123   1.303 -0.1535 -0.3026 -0.0920
  145MOL0     O19908   4.423   2.247   1.347 -0.0963 -0.9097  0.3084
  145MOL0     C19909   4.362   2.303   1.466  0.1621  1.0492 -0.7044
  145MOL0     C19910   4.409   2.229   1.592  0.8333 -0.9734  0.4370
  145MOL0     C19911   4.556   2.270   1.625  0.5102 -0.7288 -0.3594
  145MOL0     C19912   4.560   2.330   1.766  0.0431  0.1470  0.6206
  145MOL0     C19913   4.701   2.351   1.822  0.7024 -0.6469  0.0500
  145MOL0     C19914   4.686   2.425   1.957 -0.1963  0.2554  0.2857
  145MOL0     C19915   4.811   2.402   2.037 -0.7904 -0.4092  0.5258
  145MOL0     C19916   4.952   2.437   1.984  0.2156 -0.8890  0.3200
  145MOL0    Cl19917   5.000   2.337   1.848  0.3908  0.1910 -0.1758
  145MOL0     C19918   4.502   2.048   1.252  0.2170 -0.3745 -0.1783
  145MOL0     C19919   4.487   1.912   1.219 -0.9424  0.3255  0.4623
  145MOL0     O19920   4.397   1.710   0.995  0.2764 -0.3061 -0.3121
  145MOL0     C19921   4.300   1.438   1.204 -0.0099  0.3992  0.4757
  145MOL0     C19922   4.298   1.300   1.201 -0.1259  0.0637  0.4102
  145MOL0     N19923   4.508   0.621   1.508  0.2531 -1.2649  0.0449
  145MOL0     N19924   4.595   0.584   1.593 -0.2469  0.5105  0.2407
  145MOL0     C19925   5.054   0.060   2.443 -0.1122  0.2721 -1.1738
  145MOL0     C19926   5.170   0.054   2.520 -0.5311  0.7364 -1.0329
  145MOL0     C19927   5.567   0.015   2.731 -0.2686 -0.2950 -0.3657
  145MOL0     C19928   5.566   0.028   2.875 -0.0583  0.5521  0.7738
  145MOL0     C19929   5.678   0.015   2.945  0.2975 -0.5050  0.1681
  145MOL0     C19930   5.801  -0.013   2.896 -0.9793  0.3967 -0.4427
  145MOL0     O19931   5.915  -0.010   2.980  0.3484 -0.1981  0.9300
  145MOL0     C19932   5.991   0.114   2.980 -0.6528  0.2574  0.5551
  145MOL0     C19933   5.991   0.176   3.116 -1.1649  0.0567  0.1981
  145MOL0     C19934   5.866   0.239   3.166 -0.2012  0.5896  0.0391
  145MOL0     C19935   5.882   0.363   3.244 -0.7191  0.6691  0.2707
  145MOL0     C19936   5.928   0.478   3.153  0.3707  0.2132  0.1983
  145MOL0     C19937   5.954   0.564   3.073 -0.2344  0.5433  0.3206
  145MOL0     C19938   5.810  -0.043   2.758 -0.1491  0.9389  0.1941
  145MOL0     C19939   5.694  -0.030   2.676  0.0109  0.3214 -0.5100
  145MOL0     C19940   5.705  -0.061   2.524 -0.2614  0.2580 -0.7688
  145MOL0     H19941   5.389  -0.061   2.308  0.2973 -1.1415  1.7411
  145MOL0     H19942   5.194  -0.066   2.165  1.2144 -2.7739  0.1222
  145MOL0     H19943   4.987  -0.110   2.084 -0.4574 -0.0773  3.3257
  145MOL0     H19944   5.021   0.048   2.036  1.6401 -0.8509  1.3732
  145MOL0     H19945   4.787  -0.019   1.945  1.3066 -2.6827  0.9705
  145MOL0     H19946   4.735  -0.037   2.113 -1.5830  0.9906 -2.0489
  145MOL0     H19947   4.661   0.177   2.052 -0.1959  0.0382 -0.5424
  145MOL0     H19948   4.777   0.206   2.164  0.5008  0.2001 -0.5251
  145MOL0     H19949   4.958   0.266   2.021  0.2828  1.5051 -0.4520
  145MOL0     H19950   4.874   0.241   1.871 -0.3038  1.0999 -1.0532
  145MOL0     H19951   4.880   0.475   1.929  1.9498 -0.7648  1.1325
  145MOL0     H19952   4.791   0.445   2.085 -2.6190 -1.7121  0.4875
  145MOL0     H19953   4.689   0.412   1.816  1.5435  0.4852 -0.0153
  145MOL0     H19954   4.611   0.365   1.964 -0.1771 -1.5542 -2.0070
  145MOL0     H19955   4.648   0.634   2.015 -1.4528 -1.5037  0.9777
  145MOL0     H19956   4.512   0.590   1.900 -0.0331  0.6152 -0.6676
  145MOL0     H19957   4.685   0.776   1.846 -3.8280  0.3078  0.5883
  145MOL0     H19958   4.779   0.623   1.789  0.1436 -1.5087  1.5362
  145MOL0     H19959   4.479   0.853   1.743  2.4474  0.0700  1.0072
  145MOL0     H19960   4.280   0.837   1.554 -0.7438 -2.0270 -0.1324
  145MOL0     H19961   4.303   0.731   1.412 -2.5077  1.1497 -1.7805
  145MOL0     H19962   4.314   0.995   1.378 -2.1884 -1.8124  0.0996
  145MOL0     H19963   4.476   0.980   1.463 -1.4448 -0.4791  1.2245
  145MOL0     H19964   4.546   0.838   1.270  0.3249  0.8859  1.3245
  145MOL0     H19965   4.381   0.823   1.221 -0.3715 -0.1013 -1.5911
  145MOL0     H19966   4.555   1.078   1.218  0.0865  0.1465 -0.9274
  145MOL0     H19967   4.534   0.979   1.070 -2.3202  0.5970 -0.9652
  145MOL0     H19968   4.505   1.222   0.964  0.2536 -0.3937  1.7477
  145MOL0     H19969   4.640   1.418   0.878  0.6807  0.8393 -0.5589
  145MOL0     H19970   4.620   1.558   0.969  1.4105  0.3152 -2.2679
  145MOL0     H19971   4.507   1.534   0.830 -0.4836  0.3591  1.2794
  145MOL0     H19972   4.170   1.852   1.303  2.2538 -2.6341  0.2312
  145MOL0     H19973   4.185   2.081   1.385 -0.6040 -2.4331  2.1609
  145MOL0     H19974   4.387   2.408   1.484 -0.9613  1.4795 -1.5656
  145MOL0     H19975   4.255   2.292   1.450  0.2999  1.7136 -2.3443
  145MOL0     H19976   4.347   2.265   1.675  0.7021 -1.5786  0.6088
  145MOL0     H19977   4.380   2.123   1.588  0.4385 -0.8608  0.2023
  145MOL0     H19978   4.594   2.335   1.545 -0.3874 -0.2949 -0.4420
  145MOL0     H19979   4.616   2.178   1.617  1.3315 -0.0527 -3.5967
  145MOL0     H19980   4.498   2.275   1.836 -2.2933  0.4207 -1.1302
  145MOL0     H19981   4.516   2.430   1.758  0.4682  0.2174 -1.9145
  145MOL0     H19982   4.732   2.247   1.839  0.3351 -0.8241 -0.3425
  145MOL0     H19983   4.762   2.403   1.748  0.2117  0.7980  0.6320
  145MOL0     H19984   4.604   2.381   2.014 -0.2881 -2.3934 -1.7229
  145MOL0     H19985   4.680   2.533   1.938  0.0654  0.7228  2.5547
  145MOL0     H19986   4.817   2.298   2.070 -2.7779 -1.2608 -1.5116
  145MOL0     H19987   4.805   2.459   2.130  2.2747 -0.6994  1.0263
  145MOL0     H19988   5.024   2.414   2.062  1.0266 -2.7027 -0.8991
  145MOL0     H19989   4.951   2.544   1.963 -1.6226 -0.9539 -0.1362
  145MOL0     H19990   4.584   2.112   1.222 -0.7066  0.4568 -1.0107
  145MOL0     H19991   4.566   1.851   1.175 -2.8107  0.0222 -2.7701
  145MOL0     H19992   4.238   1.495   1.272 -3.7524 -0.2578 -2.0545
  145MOL0     H19993   4.240   1.237   1.268  0.7283  0.0940  1.2069
  145MOL0     H19994   4.962   0.110   2.472  0.6182  1.2429 -0.4742
  145MOL0     H19995   5.160   0.100   2.618 -1.1737 -2.1754  0.3723
  145MOL0     H19996   5.476   0.033   2.934 -0.9603 -2.4796 -0.1539
  145MOL0     H19997   5.663   0.031   3.051 -5.5278 -3.5971  0.2362
  145MOL0     H19998   6.095   0.081   2.964 -1.2140 -1.1944 -0.2657
  145MOL0     H19999   5.968   0.181   2.898 -1.5976 -1.4460 -0.6355
  145MOL0     H20000   6.066   0.254   3.098  0.3151 -1.8359 -2.5680
  145MOL0     H20001   6.036   0.096   3.175 -2.3033 -1.2938 -0.7208
  145MOL0     H20002   5.810   0.265   3.076 -1.5127 -1.8412  0.0730
  145MOL0     H20003   5.806   0.162   3.216  1.1353 -0.8401 -0.4561
  145MOL0     H20004   5.958   0.357   3.323 -0.6530 -3.0702  0.0974
  145MOL0     H20005   5.791   0.390   3.298  0.8650 -0.0925  3.6269
  145MOL0     H20006   5.976   0.632   2.992 -1.3962  1.5110  0.7909
  145MOL0     H20007   5.905  -0.076   2.718 -0.9566  0.0574 -1.0803
  145MOL0     H20008   5.694   0.030   2.464  1.1059 -1.4294 -3.7638
  145MOL0     H20009   5.802  -0.109   2.511 -0.8467 -0.4772 -2.7615
  145MOL0     H20010   5.636  -0.137   2.487  0.5529  0.0255 -1.8402
  146MOL0     O20011   7.169   5.282  11.261  0.2838  0.3551  0.0775
  146MOL0     C20012   7.113   5.381  11.312  0.1638 -0.8895 -0.2228
  146MOL0     O20013   6.983   5.407  11.312 -0.1931 -0.5137 -0.3823
  146MOL0     C20014   6.899   5.323  11.256 -0.1700  0.0795  0.0931
  146MOL0     C20015   6.873   5.192  11.306  0.4096  0.0504  0.0999
  146MOL0     C20016   6.771   5.116  11.249  0.1982  0.4904 -0.2018
  146MOL0     C20017   6.692   5.155  11.141 -0.3718  0.5900 -0.0367
  146MOL0     O20018   6.605   5.059  11.083 -0.1808  0.4827 -0.2440
  146MOL0     C20019   6.514   5.102  10.983 -0.4142  0.7724 -0.3784
  146MOL0     C20020   6.390   5.176  11.038  0.4943 -0.3161 -0.5823
  146MOL0     C20021   6.253   5.165  10.980 -1.4900 -0.3777  0.4867
  146MOL0     C20022   6.225   5.015  10.943 -0.0487 -0.3038 -0.5561
  146MOL0     C20023   6.076   4.982  10.962  0.7018 -0.1666  1.1445
  146MOL0     C20024   6.033   4.962  11.112 -0.1665 -0.3318  0.7652
  146MOL0     C20025   5.895   4.930  11.122  0.4977  0.5216  0.9874
  146MOL0     C20026   5.841   4.929  11.265 -0.7583 -0.0742  0.5266
  146MOL0     N20027   5.912   4.839  11.345 -0.1083 -0.0422 -1.0405
  146MOL0     C20028   5.934   4.704  11.312 -1.0193  1.2240  0.5154
  146MOL0     C20029   6.003   4.649  11.421  0.3812 -0.5881 -0.0728
  146MOL0     C20030   6.069   4.526  11.438  0.5094 -0.9409 -0.1060
  146MOL0     C20031   5.974   4.415  11.394  0.6512  0.1603 -1.1849
  146MOL0     C20032   5.989   4.379  11.241  0.3131  0.4680  0.6957
  146MOL0     C20033   5.882   4.271  11.218  0.1818 -0.0334 -0.2882
  146MOL0     O20034   5.892   4.214  11.084  0.2878 -0.8801 -0.1196
  146MOL0     C20035   5.813   4.101  11.052 -0.1434  0.2582 -0.0357
  146MOL0     C20036   5.826   4.044  10.922  0.5819 -0.4485 -0.2457
  146MOL0     C20037   5.755   3.923  10.886 -0.4709 -0.6241 -0.8662
  146MOL0     C20038   5.792   3.876  10.745  0.1643  0.4437  0.0636
  146MOL0     C20039   5.677   3.863  10.984 -0.0415  0.1721 -0.2405
  146MOL0     C20040   5.581   3.760  10.946 -0.7111  0.5570 -0.7057
  146MOL0     O20041   5.539   3.682  11.050 -0.2316  0.1478  0.0699
  146MOL0     C20042   5.492   3.554  11.038 -0.2157  0.3419 -0.6590
  146MOL0     C20043   5.494   3.471  10.925  0.2389 -0.2383  0.4272
  146MOL0     C20044   5.439   3.345  10.932 -0.2734  0.2668  0.5353
  146MOL0     C20045   5.377   3.299  11.042  0.8088 -0.2789 -0.0012
  146MOL0     O20046   5.321   3.172  11.017  0.4014  0.2681 -0.4113
  146MOL0     C20047   5.291   3.098  11.133 -0.1963  0.3325 -0.6175
  146MOL0     C20048   5.229   2.972  11.084 -0.6099  0.0948 -0.0393
  146MOL0     C20049   5.308   2.898  10.967  0.2974  0.1384  0.1804
  146MOL0     C20050   5.460   2.884  10.989  0.0640 -0.3229 -0.3585
  146MOL0     C20051   5.527   2.825  10.862 -0.2564 -0.5627  0.0813
  146MOL0     C20052   5.673   2.847  10.869 -0.0082  1.4415 -0.2902
  146MOL0     C20053   5.760   2.809  10.743  0.7892 -0.0497 -0.3915
  146MOL0     C20054   5.722   2.683  10.670  0.0439  0.3750 -0.1941
  146MOL0    Cl20055   5.561   2.700  10.578 -0.2942  0.1649 -0.1823
  146MOL0     C20056   5.359   3.385  11.156 -0.2546 -0.2295 -0.5160
  146MOL0     C20057   5.427   3.515  11.155  0.2234  0.6379 -0.0933
  146MOL0     O20058   5.547   3.746  10.827  0.2255 -0.6343  0.6003
  146MOL0     C20059   5.658   3.926  11.108  1.0426  0.0750  0.4284
  146MOL0     C20060   5.738   4.034  11.151  0.6262  0.1434  0.2908
  146MOL0     N20061   6.012   4.749  11.516 -1.0034 -0.3885  0.4950
  146MOL0     N20062   5.949   4.856  11.473  0.4439 -0.2445 -0.1646
  146MOL0     C20063   6.718   5.283  11.092  0.1648 -0.3154 -0.5813
  146MOL0     C20064   6.822   5.362  11.141 -0.1170  0.1105  0.5722
  146MOL0     C20065   7.187   5.462  11.416 -0.2940 -0.9239  0.4316
  146MOL0     C20066   7.283   5.397  11.488 -0.1746  0.3050  0.1788
  146MOL0     C20067   7.368   5.449  11.584 -0.4648  0.5734 -0.4642
  146MOL0     C20068   7.347   5.582  11.627 -0.2771 -0.0712  0.7664
  146MOL0     O20069   7.433   5.646  11.714  0.4167  0.0581 -0.5995
  146MOL0     C20070   7.379   5.725  11.817  0.2809  0.6567 -0.3216
  146MOL0     C20071   7.354   5.632  11.942 -0.4375 -0.1098  0.7878
  146MOL0     C20072   7.479   5.624  12.033  1.3365 -0.0976 -0.4004
  146MOL0     C20073   7.475   5.735  12.151  1.0916 -0.5354  1.4123
  146MOL0     C20074   7.459   5.879  12.098  0.0621  0.1847 -0.7702
  146MOL0     C20075   7.448   5.990  12.051  1.1712  0.5582 -0.1910
  146MOL0     C20076   7.244   5.652  11.553  0.8929  0.5593  0.2670
  146MOL0     C20077   7.166   5.595  11.445 -1.1581 -0.8415 -0.9169
  146MOL0     C20078   7.076   5.682  11.368  1.1602 -0.0353 -0.5765
  146MOL0     H20079   6.914   5.150  11.398 -3.2507 -2.3611  0.8471
  146MOL0     H20080   6.754   5.023  11.302 -3.2513  2.1096  1.9136
  146MOL0     H20081   6.508   5.021  10.910  0.3522 -0.1059  0.5053
  146MOL0     H20082   6.565   5.179  10.924  3.4239 -1.0329  0.2759
  146MOL0     H20083   6.392   5.149  11.144 -0.6817 -0.2649 -0.5317
  146MOL0     H20084   6.409   5.283  11.029 -0.9192  0.0164  0.2014
  146MOL0     H20085   6.183   5.201  11.056 -2.0169 -1.5321  0.5756
  146MOL0     H20086   6.239   5.229  10.893  2.0670  1.3590  1.0285
  146MOL0     H20087   6.263   5.007  10.841  2.0073  0.4578  0.0834
  146MOL0     H20088   6.285   4.955  11.013  2.0939  1.0360 -1.1383
  146MOL0     H20089   6.062   4.900  10.891 -0.1059  0.4619  0.5592
  146MOL0     H20090   6.026   5.071  10.922  3.9571  1.9848  1.3916
  146MOL0     H20091   6.100   4.885  11.149 -0.7809 -2.4934 -2.2139
  146MOL0     H20092   6.063   5.052  11.166  2.9528 -1.3867  0.9895
  146MOL0     H20093   5.889   4.829  11.081  1.1229  0.0315  2.0490
  146MOL0     H20094   5.836   4.997  11.060  0.5935 -0.9850 -0.8230
  146MOL0     H20095   5.837   5.032  11.301  0.5255  1.6297 -3.5532
  146MOL0     H20096   5.735   4.903  11.269 -0.6244 -0.5999  0.7326
  146MOL0     H20097   5.905   4.645  11.226 -0.6875 -0.6805  1.6313
  146MOL0     H20098   6.079   4.512  11.546 -0.8004  0.9776  0.3090
  146MOL0     H20099   6.162   4.528  11.380  0.2189 -1.2702 -0.5841
  146MOL0     H20100   6.003   4.329  11.455 -2.9591 -1.8871 -2.0375
  146MOL0     H20101   5.870   4.428  11.425  0.7327  0.0123 -0.8411
  146MOL0     H20102   5.968   4.461  11.171 -1.9802  0.1713  0.9419
  146MOL0     H20103   6.089   4.339  11.224 -0.3939 -0.9696 -0.3732
  146MOL0     H20104   5.894   4.189  11.289 -1.3615 -2.5835 -2.7737
  146MOL0     H20105   5.783   4.315  11.235 -1.7749 -4.7880  2.6224
  146MOL0     H20106   5.899   4.092  10.857 -1.1707  4.3233  0.8850
  146MOL0     H20107   5.716   3.886  10.667  2.6308 -2.1126 -2.9496
  146MOL0     H20108   5.797   3.767  10.758 -0.5333  0.5730  1.7567
  146MOL0     H20109   5.887   3.920  10.712 -1.2909  3.2903 -0.6285
  146MOL0     H20110   5.536   3.506  10.831 -1.3094  2.6157  0.7006
  146MOL0     H20111   5.439   3.288  10.840 -0.7117 -1.2355  1.4254
  146MOL0     H20112   5.385   3.086  11.188 -1.2679 -1.8115  0.8924
  146MOL0     H20113   5.222   3.148  11.201  3.9818  1.8400  2.9703
  146MOL0     H20114   5.203   2.908  11.169 -2.8429  0.3676 -0.4424
  146MOL0     H20115   5.132   3.005  11.045 -1.1350  1.0465  1.9192
  146MOL0     H20116   5.312   2.958  10.875 -1.4983  0.6739  0.4104
  146MOL0     H20117   5.250   2.807  10.948 -0.1737  0.4022  0.3226
  146MOL0     H20118   5.483   2.832  11.083  1.0152  1.8892  0.6936
  146MOL0     H20119   5.490   2.989  10.998 -2.5498  0.8102 -3.0914
  146MOL0     H20120   5.483   2.727  10.846 -1.4339 -0.3512  1.7603
  146MOL0     H20121   5.487   2.878  10.775 -0.0554 -1.7943 -0.7812
  146MOL0     H20122   5.711   2.786  10.952 -1.0404 -1.0675 -1.5834
  146MOL0     H20123   5.686   2.955  10.885 -0.6577  1.8370 -2.1969
  146MOL0     H20124   5.858   2.778  10.780  1.1677 -0.1595 -1.4655
  146MOL0     H20125   5.763   2.897  10.678 -0.9344  3.7346  4.0432
  146MOL0     H20126   5.710   2.591  10.729 -0.1672  0.3265 -0.3120
  146MOL0     H20127   5.802   2.662  10.598 -0.5793  2.0480 -1.4420
  146MOL0     H20128   5.334   3.336  11.249 -0.8999  2.7505  0.9950
  146MOL0     H20129   5.425   3.559  11.254  2.4712 -2.3721  1.4547
  146MOL0     H20130   5.585   3.907  11.186  0.2536  1.2032 -0.0042
  146MOL0     H20131   5.717   4.083  11.246 -0.2102 -0.1413  0.2652
  146MOL0     H20132   6.669   5.328  11.006  2.0296  1.2330 -0.9049
  146MOL0     H20133   6.847   5.459  11.101 -1.2737 -0.6327 -2.1862
  146MOL0     H20134   7.292   5.292  11.462 -1.4188  1.1807 -4.9062
  146MOL0     H20135   7.443   5.395  11.641  0.9115  3.6466  0.9158
  146MOL0     H20136   7.456   5.802  11.828  1.8609 -1.1039  1.8265
  146MOL0     H20137   7.282   5.771  11.795 -0.7530 -1.1250  0.2981
  146MOL0     H20138   7.342   5.532  11.900  0.2229  1.3317 -3.3288
  146MOL0     H20139   7.263   5.665  11.993 -0.0542 -0.7777  1.9548
  146MOL0     H20140   7.506   5.526  12.073  2.3864 -0.7737 -2.5510
  146MOL0     H20141   7.568   5.652  11.976  0.8049  2.6715  0.0342
  146MOL0     H20142   7.568   5.732  12.209  1.4424  1.9684  1.0615
  146MOL0     H20143   7.383   5.721  12.209 -0.4835 -1.3149 -1.0913
  146MOL0     H20144   7.424   6.089  12.016  1.3748  1.0846  1.1230
  146MOL0     H20145   7.233   5.758  11.570 -1.1402  1.4187 -4.7142
  146MOL0     H20146   7.110   5.785  11.369  4.3333 -0.9923 -0.0717
  146MOL0     H20147   7.043   5.642  11.271 -2.2728 -1.1501  0.8911
  146MOL0     H20148   6.979   5.681  11.418  1.6984 -0.5636  0.4921
  147MOL0     O20149   8.099   5.994   1.725  0.6299  0.7201  0.2528
  147MOL0     C20150   8.113   5.925   1.823 -0.2688 -0.7049  0.3469
  147MOL0     O20151   8.020   5.914   1.915  0.1415 -0.6634 -0.3269
  147MOL0     C20152   8.031   5.801   1.991 -0.0032  0.1176  0.0062
  147MOL0     C20153   7.992   5.815   2.125  0.0731  0.1833  0.3537
  147MOL0     C20154   7.987   5.706   2.210  1.0445  0.2116  0.5578
  147MOL0     C20155   8.017   5.578   2.160 -0.7736  0.0601  0.4535
  147MOL0     O20156   7.999   5.459   2.220  0.1307  0.7401 -0.6628
  147MOL0     C20157   7.888   5.448   2.313  0.9593  0.5057 -0.3194
  147MOL0     C20158   7.861   5.307   2.360 -0.2026 -0.2610  0.4423
  147MOL0     C20159   7.744   5.233   2.279 -1.1147  0.2182 -0.3791
  147MOL0     C20160   7.761   5.228   2.131  0.1744 -0.3369  0.5350
  147MOL0     C20161   7.666   5.113   2.084 -0.5133  0.3109  0.6764
  147MOL0     C20162   7.684   5.089   1.930  0.1086  0.3403 -0.1296
  147MOL0     C20163   7.635   4.950   1.884  0.8165 -0.6364  0.4398
  147MOL0     C20164   7.682   4.924   1.744  1.5662 -0.8564 -0.1380
  147MOL0     N20165   7.630   5.032   1.652  1.4836  0.3451  0.5598
  147MOL0     C20166   7.688   5.152   1.628  1.4047 -0.8757  1.0981
  147MOL0     C20167   7.588   5.211   1.554 -0.3076  0.4518  0.5314
  147MOL0     C20168   7.607   5.352   1.488  0.1314 -0.0667 -0.7459
  147MOL0     C20169   7.647   5.351   1.347  0.0963  0.3101  0.1990
  147MOL0     C20170   7.803   5.367   1.329  0.9510  0.6918 -0.0053
  147MOL0     C20171   7.840   5.366   1.172  0.9249 -0.2382 -0.1512
  147MOL0     O20172   7.815   5.495   1.117 -0.5545  0.4920 -0.3605
  147MOL0     C20173   7.916   5.530   1.039 -0.8150  0.3532  0.1991
  147MOL0     C20174   8.017   5.601   1.102  0.2823 -0.2246 -0.1834
  147MOL0     C20175   8.130   5.636   1.038 -0.5133 -0.2561 -0.1759
  147MOL0     C20176   8.224   5.725   1.120  0.4475  0.6041 -0.2571
  147MOL0     C20177   8.148   5.581   0.903 -0.5854 -0.4002  0.5820
  147MOL0     C20178   8.274   5.604   0.821  0.2802  0.0706 -0.0254
  147MOL0     O20179   8.255   5.605   0.695  0.2185 -0.7496  0.4983
  147MOL0     C20180   8.346   5.650   0.597  0.1174 -1.0668 -0.2975
  147MOL0     C20181   8.300   5.703   0.483 -0.0362  0.9921 -0.7166
  147MOL0     C20182   8.387   5.764   0.396 -0.3378 -0.5466  0.2118
  147MOL0     C20183   8.528   5.754   0.412 -1.1068  0.5654  0.0478
  147MOL0     O20184   8.612   5.809   0.316  0.0640 -0.1435 -0.3206
  147MOL0     C20185   8.753   5.810   0.337  0.3981  0.1720 -0.2822
  147MOL0     C20186   8.832   5.820   0.209 -0.6518  0.4600  0.4434
  147MOL0     C20187   8.790   5.940   0.133  0.0054 -0.0897  0.5851
  147MOL0     C20188   8.674   5.925   0.030  0.1735  0.6558  0.7369
  147MOL0     C20189   8.620   6.058  -0.015 -0.8127 -0.4500  0.7066
  147MOL0     C20190   8.700   6.129  -0.126  0.9258  0.7075  0.5733
  147MOL0     C20191   8.620   6.211  -0.208  0.8739 -0.6886  0.8613
  147MOL0     C20192   8.695   6.278  -0.329  0.1837  0.6066 -0.0622
  147MOL0    Cl20193   8.727   6.164  -0.461  0.7818 -0.2110 -0.1938
  147MOL0     C20194   8.577   5.690   0.524 -0.8805 -0.8133 -0.1965
  147MOL0     C20195   8.485   5.647   0.620 -0.4212 -0.3745  0.6301
  147MOL0     O20196   8.380   5.621   0.877 -0.0175 -0.2711  0.0405
  147MOL0     C20197   8.038   5.525   0.839 -0.4095  0.6609 -0.8616
  147MOL0     C20198   7.926   5.500   0.904 -0.2928 -0.3882  0.3500
  147MOL0     N20199   7.476   5.130   1.547  0.6061 -0.6322  0.1979
  147MOL0     N20200   7.497   5.027   1.616  0.5699  0.2821  0.0482
  147MOL0     C20201   8.059   5.567   2.030  0.1273 -0.6206  0.0051
  147MOL0     C20202   8.061   5.673   1.946 -0.4939  0.1760  0.1662
  147MOL0     C20203   8.254   5.878   1.842 -0.1167 -0.1271  0.1968
  147MOL0     C20204   8.313   5.798   1.742 -0.3903 -0.2762 -0.2320
  147MOL0     C20205   8.443   5.765   1.748 -0.5921  0.3549 -0.5435
  147MOL0     C20206   8.525   5.799   1.860  0.1078  0.7225 -0.3674
  147MOL0     O20207   8.656   5.753   1.859  0.3379  1.0465  0.0835
  147MOL0     C20208   8.731   5.789   1.972  0.5558  0.7561 -0.5347
  147MOL0     C20209   8.875   5.758   1.947  0.1452  1.0404  0.4788
  147MOL0     C20210   8.890   5.604   1.932  0.2995  0.1874  0.8185
  147MOL0     C20211   9.038   5.562   1.943 -0.3901 -0.4402 -1.2865
  147MOL0     C20212   9.127   5.649   1.870  0.3140  1.1695  0.0981
  147MOL0     C20213   9.185   5.709   1.780 -0.2152  0.6022 -0.9776
  147MOL0     C20214   8.466   5.877   1.959 -0.1777 -0.2439 -0.3741
  147MOL0     C20215   8.333   5.923   1.950 -0.3995  0.1492  0.0149
  147MOL0     C20216   8.282   6.023   2.050 -0.4904  0.0381 -0.0264
  147MOL0     H20217   7.952   5.911   2.156  1.3644  1.0601 -0.5966
  147MOL0     H20218   7.949   5.726   2.310 -3.1381  0.3833 -0.8696
  147MOL0     H20219   7.794   5.486   2.274 -0.2406  0.8202  2.5719
  147MOL0     H20220   7.926   5.495   2.405  2.6777 -1.6611  0.1688
  147MOL0     H20221   7.956   5.254   2.346  0.8459  1.2448  1.5526
  147MOL0     H20222   7.835   5.323   2.465  0.1814  1.9275  0.2541
  147MOL0     H20223   7.746   5.130   2.316  3.2762 -0.0269 -0.7622
  147MOL0     H20224   7.647   5.273   2.311 -0.5349  1.8779 -0.6049
  147MOL0     H20225   7.745   5.326   2.087  1.4371 -1.1592 -1.9553
  147MOL0     H20226   7.866   5.203   2.115  0.7731  0.5432  2.6920
  147MOL0     H20227   7.562   5.126   2.116 -1.0749  2.5233 -1.7398
  147MOL0     H20228   7.708   5.024   2.133 -0.5293  1.1311  2.2394
  147MOL0     H20229   7.629   5.171   1.883  0.1612  2.8162  3.6618
  147MOL0     H20230   7.792   5.088   1.912  0.2121  0.5596  0.4531
  147MOL0     H20231   7.526   4.951   1.891  0.8437  1.9110  1.7713
  147MOL0     H20232   7.664   4.861   1.940 -3.0210 -1.7404  0.9410
  147MOL0     H20233   7.792   4.924   1.742  1.5705 -1.9234 -0.8258
  147MOL0     H20234   7.640   4.830   1.706  0.7578 -0.0335 -1.3494
  147MOL0     H20235   7.785   5.187   1.660  0.3673  4.1747 -0.4313
  147MOL0     H20236   7.671   5.418   1.547 -1.7053  2.4841 -1.4471
  147MOL0     H20237   7.511   5.401   1.505 -0.8645 -2.5375  1.5143
  147MOL0     H20238   7.617   5.255   1.304  0.7740 -1.9258  4.2484
  147MOL0     H20239   7.585   5.432   1.305 -1.0614 -0.1159  1.0284
  147MOL0     H20240   7.833   5.460   1.378  0.0477 -0.2905  2.5809
  147MOL0     H20241   7.845   5.282   1.384 -1.4775  0.6551  1.9818
  147MOL0     H20242   7.942   5.329   1.161  1.5417  1.6626 -1.3049
  147MOL0     H20243   7.769   5.302   1.119  0.9336 -1.2485  1.0151
  147MOL0     H20244   8.012   5.635   1.205  2.6408 -1.4087  0.3980
  147MOL0     H20245   8.287   5.776   1.047 -1.5490 -0.5162 -2.9369
  147MOL0     H20246   8.285   5.659   1.183 -1.5395 -2.2072 -1.0658
  147MOL0     H20247   8.171   5.798   1.182  1.5986 -1.2477  3.1779
  147MOL0     H20248   8.192   5.705   0.492 -0.0555 -0.4617 -0.3040
  147MOL0     H20249   8.352   5.832   0.319  1.2569  1.5963  1.2626
  147MOL0     H20250   8.799   5.877   0.410 -0.4737 -0.2037  0.6254
  147MOL0     H20251   8.776   5.707   0.365  1.9917  0.5990  0.0885
  147MOL0     H20252   8.938   5.824   0.234 -0.2735  0.7098 -1.0795
  147MOL0     H20253   8.831   5.725   0.155  1.0797 -0.2210  1.5542
  147MOL0     H20254   8.875   5.982   0.078  1.1806 -2.7442  0.2421
  147MOL0     H20255   8.767   6.012   0.212 -1.7716  2.8284 -2.3345
  147MOL0     H20256   8.596   5.864   0.077 -1.2010  2.9551  1.5971
  147MOL0     H20257   8.708   5.871  -0.059 -1.2874  3.7747 -1.9575
  147MOL0     H20258   8.521   6.048  -0.059  0.3878 -0.6705 -2.1678
  147MOL0     H20259   8.607   6.120   0.075 -3.0355 -1.6193  1.2538
  147MOL0     H20260   8.735   6.044  -0.185 -1.4846 -1.2205  1.7508
  147MOL0     H20261   8.784   6.186  -0.084 -1.0308  3.3107  1.2351
  147MOL0     H20262   8.563   6.291  -0.160 -4.6908 -4.0072  0.6589
  147MOL0     H20263   8.544   6.144  -0.247  1.0973 -0.1681 -0.5252
  147MOL0     H20264   8.788   6.330  -0.300 -2.5028  5.4512  1.0098
  147MOL0     H20265   8.626   6.353  -0.368  0.6656  1.8017  1.2846
  147MOL0     H20266   8.683   5.684   0.548 -1.0249  3.1079  2.3900
  147MOL0     H20267   8.535   5.599   0.704  0.9425  1.6044  1.0394
  147MOL0     H20268   8.032   5.494   0.735 -3.3456 -3.6073  0.3157
  147MOL0     H20269   7.838   5.460   0.854  1.2959 -1.6993 -1.5502
  147MOL0     H20270   8.082   5.466   1.997 -1.3463 -1.1725  0.6028
  147MOL0     H20271   8.080   5.656   1.840  0.6401 -1.2502  0.5713
  147MOL0     H20272   8.259   5.759   1.655 -1.6766 -0.5584  0.6581
  147MOL0     H20273   8.470   5.691   1.673 -0.2621  0.9988 -1.0731
  147MOL0     H20274   8.732   5.899   1.976  0.9116  0.7974 -1.5614
  147MOL0     H20275   8.693   5.744   2.064  0.6223 -1.8620 -1.7102
  147MOL0     H20276   8.935   5.803   2.026  4.2999 -3.6039  0.4899
  147MOL0     H20277   8.908   5.798   1.851 -3.3014  2.0106 -0.4571
  147MOL0     H20278   8.833   5.560   2.014 -3.0794  2.4574 -0.1114
  147MOL0     H20279   8.843   5.583   1.836  1.1010 -1.7395  0.8193
  147MOL0     H20280   9.047   5.459   1.908 -1.6832 -0.6914 -0.9236
  147MOL0     H20281   9.076   5.574   2.045  3.5986 -1.7203 -2.4616
  147MOL0     H20282   9.237   5.765   1.705  2.9697 -0.7592  0.0464
  147MOL0     H20283   8.518   5.921   2.044 -0.4918 -0.2915 -0.1563
  147MOL0     H20284   8.358   6.075   2.109 -1.4777  2.2701 -0.5975
  147MOL0     H20285   8.241   6.113   2.004  2.7891  2.1364  0.7664
  147MOL0     H20286   8.207   5.978   2.116 -0.2351 -3.6460 -1.9850
  148MOL0     O20287   9.765  11.460   2.382  0.8703  0.2557 -0.4622
  148MOL0     C20288   9.789  11.523   2.276  0.4604  1.5803  0.4753
  148MOL0     O20289   9.735  11.489   2.157 -0.3600  0.2789 -0.0402
  148MOL0     C20290   9.604  11.450   2.155 -0.5286 -0.8961  0.0091
  148MOL0     C20291   9.504  11.540   2.164  0.0975  0.0653 -1.1263
  148MOL0     C20292   9.379  11.504   2.156  0.5389 -0.7432  0.7798
  148MOL0     C20293   9.339  11.374   2.129 -0.3439 -0.2857 -0.4416
  148MOL0     O20294   9.205  11.351   2.145 -0.0833  0.8643  0.0982
  148MOL0     C20295   9.159  11.207   2.141 -0.0704  0.5622 -1.5594
  148MOL0     C20296   9.011  11.200   2.176 -0.0110 -0.6575 -0.2416
  148MOL0     C20297   8.969  11.055   2.193 -0.4066  0.1518  0.6319
  148MOL0     C20298   8.821  11.042   2.221 -0.3230 -0.4617 -1.3466
  148MOL0     C20299   8.771  10.901   2.200 -0.3936 -0.5102  0.0663
  148MOL0     C20300   8.769  10.855   2.046  0.8110 -1.5216 -0.6451
  148MOL0     C20301   8.703  10.715   2.027  0.1338 -0.1602 -0.5314
  148MOL0     C20302   8.824  10.610   2.004 -0.0301 -0.2200  0.7061
  148MOL0     N20303   8.897  10.568   2.122  0.9073 -0.2782 -0.5119
  148MOL0     C20304   8.859  10.512   2.240 -0.4309 -1.0230  0.0221
  148MOL0     C20305   8.962  10.479   2.315 -0.5329  0.9736  0.4391
  148MOL0     C20306   8.973  10.415   2.451  0.4309  0.0818  0.7499
  148MOL0     C20307   8.922  10.267   2.442 -0.0334 -0.3479  0.4083
  148MOL0     C20308   9.005  10.193   2.335 -0.8412 -0.5298 -0.2356
  148MOL0     C20309   8.968  10.040   2.346 -0.2108  0.0579  0.9942
  148MOL0     O20310   9.006   9.980   2.221  0.2649  0.1580 -0.7619
  148MOL0     C20311   8.982   9.844   2.198 -0.1896 -0.9626  0.2964
  148MOL0     C20312   8.944   9.755   2.303  0.5236  0.7072  0.7710
  148MOL0     C20313   8.964   9.620   2.300 -0.1919 -0.0178 -0.2522
  148MOL0     C20314   8.926   9.550   2.421 -0.0054  0.0740 -0.6535
  148MOL0     C20315   9.024   9.565   2.183  0.1637 -0.1836 -0.2749
  148MOL0     C20316   9.034   9.422   2.168  0.2827 -0.1878  0.5656
  148MOL0     O20317   9.147   9.381   2.095  0.3842  0.0781  0.1299
  148MOL0     C20318   9.173   9.247   2.076 -0.5399  0.2328  0.0805
  148MOL0     C20319   9.290   9.188   2.134 -0.2464  0.1550 -0.5841
  148MOL0     C20320   9.331   9.063   2.094  0.0886 -0.5170  0.3576
  148MOL0     C20321   9.254   8.993   1.994  0.1143 -0.3215  0.2568
  148MOL0     O20322   9.308   8.872   1.964 -0.6153  0.5796  0.0833
  148MOL0     C20323   9.250   8.804   1.858 -0.4507  0.0855  0.7365
  148MOL0     C20324   9.282   8.868   1.718 -0.5589 -0.6662  0.1829
  148MOL0     C20325   9.200   8.810   1.598  0.0305  0.0393 -0.1814
  148MOL0     C20326   9.056   8.822   1.617  0.9925 -0.2686 -0.4400
  148MOL0     C20327   8.969   8.816   1.481 -0.7972  0.2570 -0.6688
  148MOL0     C20328   8.933   8.963   1.433  0.7766 -0.3025 -0.1833
  148MOL0     C20329   8.838   9.048   1.526 -0.0965 -0.9261  0.0759
  148MOL0     C20330   8.883   9.198   1.543 -0.3958  0.1334 -0.0697
  148MOL0    Cl20331   8.887   9.280   1.388  0.0358  0.2535 -0.0807
  148MOL0     C20332   9.131   9.045   1.947  0.6908 -0.5348  0.2773
  148MOL0     C20333   9.087   9.162   2.006 -0.7541 -0.1365  0.7975
  148MOL0     O20334   8.947   9.346   2.210 -0.0535 -0.7220  0.9864
  148MOL0     C20335   9.059   9.656   2.073 -0.0142  0.4138  0.0463
  148MOL0     C20336   9.039   9.794   2.087 -0.3633  0.3063  0.4116
  148MOL0     N20337   9.072  10.511   2.240  0.1591 -1.0538  0.5060
  148MOL0     N20338   9.038  10.569   2.127  0.1679 -0.6233 -0.9392
  148MOL0     C20339   9.440  11.280   2.112 -0.1553 -0.0269 -0.2021
  148MOL0     C20340   9.570  11.320   2.123 -1.0673  0.2829 -0.1683
  148MOL0     C20341   9.891  11.632   2.269  0.5558 -0.2178  0.3614
  148MOL0     C20342   9.870  11.741   2.357  0.2003  0.2983  0.6760
  148MOL0     C20343   9.958  11.850   2.355  0.6288  0.2157  0.6746
  148MOL0     C20344  10.068  11.853   2.275  0.0529 -0.3378 -0.3582
  148MOL0     O20345  10.152  11.964   2.279  0.0290  0.0374 -0.0163
  148MOL0     C20346  10.104  12.079   2.193  0.2043 -0.4647 -0.7410
  148MOL0     C20347   9.974  12.136   2.252  0.1516  0.3465  0.2834
  148MOL0     C20348   9.942  12.274   2.200  0.4902 -0.9258 -0.5930
  148MOL0     C20349   9.802  12.312   2.244 -0.3737 -0.5728  0.2061
  148MOL0     C20350   9.703  12.236   2.177 -1.1828 -0.4670  0.5279
  148MOL0     C20351   9.607  12.178   2.129  0.3684 -0.4277  0.5989
  148MOL0     C20352  10.089  11.746   2.188  0.7462  0.1859  0.5392
  148MOL0     C20353   9.996  11.636   2.177 -0.1878  0.6064  0.0301
  148MOL0     C20354  10.019  11.534   2.070 -0.2148 -0.3995  0.3782
  148MOL0     H20355   9.530  11.643   2.185 -0.1477  0.4352 -2.5419
  148MOL0     H20356   9.299  11.575   2.175 -1.7836 -2.7282 -0.8153
  148MOL0     H20357   9.209  11.147   2.217 -1.6818  2.5864  1.2951
  148MOL0     H20358   9.167  11.163   2.041  1.9204 -2.5467 -0.1863
  148MOL0     H20359   9.002  11.259   2.268  5.1503  0.6444 -0.2990
  148MOL0     H20360   8.951  11.243   2.095 -0.2303 -1.0974 -0.3208
  148MOL0     H20361   8.989  11.005   2.098  1.3104  0.4716  0.7971
  148MOL0     H20362   9.032  11.004   2.266 -0.6012  0.1015  0.7642
  148MOL0     H20363   8.795  11.077   2.321  2.3261 -0.8475 -0.4704
  148MOL0     H20364   8.758  11.109   2.160  1.0056  2.4929  0.3106
  148MOL0     H20365   8.668  10.890   2.233 -1.2867 -2.4539 -2.9378
  148MOL0     H20366   8.833  10.829   2.255  0.8695  0.5385  0.0733
  148MOL0     H20367   8.711  10.931   1.990  0.4964 -0.5591  0.9281
  148MOL0     H20368   8.870  10.862   2.005  0.8890 -1.7875 -0.4908
  148MOL0     H20369   8.638  10.703   1.940 -1.3737  1.0447  0.3771
  148MOL0     H20370   8.637  10.689   2.109  0.4102 -0.4157 -0.3882
  148MOL0     H20371   8.784  10.521   1.956  1.3831  0.4397 -1.9295
  148MOL0     H20372   8.895  10.653   1.932 -2.5387  2.3277 -0.4819
  148MOL0     H20373   8.759  10.500   2.279  0.4083 -1.9035  2.0369
  148MOL0     H20374   8.911  10.484   2.509  1.2674  2.7465 -1.3273
  148MOL0     H20375   9.076  10.421   2.488  0.0313  2.6832  1.6529
  148MOL0     H20376   8.947  10.224   2.539 -0.1568 -0.6387  0.3136
  148MOL0     H20377   8.815  10.254   2.423 -0.9961  4.1230  1.6573
  148MOL0     H20378   8.985  10.225   2.232 -0.7213  0.0532 -0.0797
  148MOL0     H20379   9.112  10.194   2.358 -1.3503  0.5192  2.4691
  148MOL0     H20380   9.022   9.998   2.432 -1.7556  2.0727  3.0708
  148MOL0     H20381   8.861  10.034   2.364 -0.4190  3.6798  1.7932
  148MOL0     H20382   8.898   9.803   2.388  0.6598  0.5019  0.9606
  148MOL0     H20383   8.916   9.626   2.500 -1.3906 -0.1833 -0.5570
  148MOL0     H20384   9.014   9.489   2.443  1.7090  1.9241 -1.9471
  148MOL0     H20385   8.835   9.490   2.412  0.8060 -1.5113  0.9853
  148MOL0     H20386   9.355   9.242   2.201 -0.3790 -2.3433  1.7215
  148MOL0     H20387   9.418   9.013   2.136  0.6372  1.5609  1.7987
  148MOL0     H20388   9.288   8.702   1.848  0.6293  0.6288 -1.4813
  148MOL0     H20389   9.141   8.805   1.865 -0.6354 -0.3386 -1.3855
  148MOL0     H20390   9.265   8.976   1.721  2.2477 -0.0949 -1.2858
  148MOL0     H20391   9.389   8.855   1.704 -0.1849  1.5407  0.6201
  148MOL0     H20392   9.226   8.706   1.577  0.5517 -0.1008  1.0330
  148MOL0     H20393   9.214   8.879   1.515 -2.3250  3.4890  2.0311
  148MOL0     H20394   9.039   8.917   1.668 -0.1447  1.0379 -3.0407
  148MOL0     H20395   9.016   8.742   1.680  1.2357 -1.3121 -1.5473
  148MOL0     H20396   9.033   8.784   1.398  0.6729  2.8767 -0.6614
  148MOL0     H20397   8.889   8.742   1.486  1.5717 -2.6087 -1.9771
  148MOL0     H20398   8.896   8.957   1.330  0.8612 -1.8121 -0.1374
  148MOL0     H20399   9.029   9.015   1.439  0.0914  0.8892  3.7671
  148MOL0     H20400   8.834   9.009   1.628 -1.4523  0.5398  0.6393
  148MOL0     H20401   8.735   9.046   1.490  0.2822  0.1595 -1.1385
  148MOL0     H20402   8.978   9.196   1.598 -0.3589 -0.7626 -0.1598
  148MOL0     H20403   8.807   9.239   1.611 -1.1774 -1.3291 -0.0301
  148MOL0     H20404   9.064   8.989   1.882  3.3925 -0.2949 -2.9733
  148MOL0     H20405   8.988   9.191   1.972 -0.8418 -0.3177  0.8968
  148MOL0     H20406   9.101   9.610   1.985 -1.7058 -0.8850 -0.1201
  148MOL0     H20407   9.066   9.864   2.009 -0.8464  0.3707  0.3011
  148MOL0     H20408   9.416  11.175   2.104  1.6543 -0.4012 -1.4784
  148MOL0     H20409   9.650  11.247   2.114 -2.3286 -1.3545  1.1497
  148MOL0     H20410   9.782  11.726   2.418 -2.9683 -1.3511 -3.7734
  148MOL0     H20411   9.956  11.934   2.424 -0.5844  0.5654  0.2432
  148MOL0     H20412  10.178  12.159   2.194 -0.9101  0.5845 -0.2734
  148MOL0     H20413  10.087  12.061   2.086  1.1636 -3.0356 -0.5351
  148MOL0     H20414   9.964  12.130   2.361  0.4846  6.4567  0.9954
  148MOL0     H20415   9.901  12.077   2.196 -0.3661 -0.3928  1.6879
  148MOL0     H20416  10.020  12.346   2.229  0.7325 -1.4119 -0.0143
  148MOL0     H20417   9.941  12.268   2.091  2.2895 -0.2305 -0.6878
  148MOL0     H20418   9.773  12.416   2.225  1.6084  0.1913  1.0467
  148MOL0     H20419   9.791  12.298   2.352  3.0551 -2.5883  0.4604
  148MOL0     H20420   9.520  12.137   2.082 -0.2290 -1.4933  2.5399
  148MOL0     H20421  10.174  11.752   2.120 -0.0245 -3.9100 -1.1304
  148MOL0     H20422   9.981  11.433   2.089 -1.4328  0.6085  4.3581
  148MOL0     H20423   9.973  11.569   1.977  3.3067  2.3074 -0.5289
  148MOL0     H20424  10.127  11.533   2.052 -0.3260 -2.5337 -0.5743
  149MOL0     O20425   1.878   2.702   4.177  0.3589  0.1145 -1.3991
  149MOL0     C20426   1.766   2.651   4.213 -0.4386  0.6040 -0.2384
  149MOL0     O20427   1.671   2.703   4.295  0.1832  0.0284  0.0718
  149MOL0     C20428   1.714   2.796   4.390  0.5891 -0.4133  1.0262
  149MOL0     C20429   1.809   2.776   4.489 -0.5843  0.8339 -0.0976
  149MOL0     C20430   1.840   2.872   4.585  0.8457 -0.2259 -0.1150
  149MOL0     C20431   1.782   3.002   4.573 -0.3300  1.1035 -0.4753
  149MOL0     O20432   1.802   3.115   4.654  0.2286  0.6125 -0.2499
  149MOL0     C20433   1.925   3.116   4.728 -1.0038 -0.3472  1.1611
  149MOL0     C20434   1.926   3.241   4.815  0.9848  0.4506 -0.7712
  149MOL0     C20435   1.819   3.255   4.920 -0.4566 -0.6438 -0.4916
  149MOL0     C20436   1.864   3.366   5.028  0.1012 -0.0594  0.9633
  149MOL0     C20437   1.759   3.384   5.137  0.7461  0.0575 -0.2545
  149MOL0     C20438   1.818   3.472   5.240 -0.6343 -1.3040  0.3549
  149MOL0     C20439   1.711   3.503   5.341 -0.2602  0.0711  0.0225
  149MOL0     C20440   1.762   3.587   5.455 -0.4573 -0.0624  0.4949
  149MOL0     N20441   1.859   3.523   5.543  0.1017 -0.8900  0.0751
  149MOL0     C20442   1.992   3.563   5.576  0.2039  0.2353  0.2362
  149MOL0     C20443   2.020   3.465   5.674  0.5318 -0.1197  0.5416
  149MOL0     C20444   2.130   3.471   5.777 -0.7190  0.1199  0.1846
  149MOL0     C20445   2.082   3.454   5.920  0.1136  0.5636 -0.1655
  149MOL0     C20446   2.206   3.466   6.009  0.2933  0.2250  0.5821
  149MOL0     C20447   2.171   3.483   6.159 -0.6010  0.3750  0.3528
  149MOL0     O20448   2.073   3.589   6.176  0.0879 -0.0162  0.5786
  149MOL0     C20449   2.044   3.637   6.295  0.5111 -0.4510 -0.6306
  149MOL0     C20450   1.966   3.747   6.305 -0.5532 -0.3317 -0.5271
  149MOL0     C20451   1.924   3.805   6.422 -0.7260 -0.1022 -1.2985
  149MOL0     C20452   1.802   3.901   6.411  0.4519  0.5990 -0.2438
  149MOL0     C20453   1.973   3.753   6.545  0.0827 -0.4217 -0.2080
  149MOL0     C20454   1.933   3.819   6.682 -0.1583  0.0754  0.4136
  149MOL0     O20455   1.870   3.946   6.678  0.3691  0.0996 -0.3263
  149MOL0     C20456   1.857   4.009   6.795 -1.0354  0.4529  0.5117
  149MOL0     C20457   1.772   3.967   6.893 -0.8653 -0.0295  0.1192
  149MOL0     C20458   1.754   4.041   7.003 -0.2911  0.3453 -0.2671
  149MOL0     C20459   1.839   4.145   7.035  0.4932 -0.1031 -0.2217
  149MOL0     O20460   1.824   4.202   7.164  0.4408  0.8092  1.0418
  149MOL0     C20461   1.841   4.347   7.179  0.0024  0.1589 -0.6751
  149MOL0     C20462   1.749   4.402   7.296 -0.9422  0.2204  0.5320
  149MOL0     C20463   1.802   4.540   7.318  0.4238 -0.3306 -0.0917
  149MOL0     C20464   1.748   4.599   7.447  0.0702  0.8104 -0.5342
  149MOL0     C20465   1.797   4.740   7.463  0.9670  1.0256 -0.3432
  149MOL0     C20466   1.701   4.834   7.389 -0.5039  0.1789 -0.9217
  149MOL0     C20467   1.732   4.978   7.418  0.3867  0.2311 -0.0136
  149MOL0     C20468   1.604   5.059   7.438  0.1831  0.3869  0.2887
  149MOL0    Cl20469   1.528   5.072   7.268  0.0109  0.3171 -0.4831
  149MOL0     C20470   1.926   4.197   6.934 -0.3291  0.5321 -0.3108
  149MOL0     C20471   1.941   4.122   6.819 -0.6423  0.2678 -0.0363
  149MOL0     O20472   1.972   3.760   6.779  0.1181  0.0739  0.5448
  149MOL0     C20473   2.062   3.642   6.548  0.4555  0.0352  0.3400
  149MOL0     C20474   2.088   3.582   6.419 -0.8240 -0.1341 -0.7538
  149MOL0     N20475   1.924   3.368   5.670  0.1160  0.0438 -0.7304
  149MOL0     N20476   1.831   3.402   5.596  0.0626 -0.7763 -0.6840
  149MOL0     C20477   1.680   3.018   4.473 -0.9772  0.1116  0.6054
  149MOL0     C20478   1.654   2.917   4.384  0.0416  0.5212  0.2125
  149MOL0     C20479   1.737   2.523   4.155  0.3820  0.4989  0.4109
  149MOL0     C20480   1.600   2.491   4.145  0.1553 -0.2365  0.5755
  149MOL0     C20481   1.552   2.380   4.071 -0.1068  0.0899 -0.7439
  149MOL0     C20482   1.643   2.299   4.008 -0.6950  0.2092  0.3204
  149MOL0     O20483   1.597   2.191   3.937 -0.7662  0.2884 -0.5303
  149MOL0     C20484   1.666   2.067   3.961  0.5556  0.6764  0.4041
  149MOL0     C20485   1.564   1.968   4.011  0.0511  0.7502 -0.4689
  149MOL0     C20486   1.446   1.936   3.910 -0.8166 -0.2340 -0.2997
  149MOL0     C20487   1.369   1.817   3.972  0.8117 -1.1033 -0.0130
  149MOL0     C20488   1.242   1.794   3.911 -0.0625  0.1888  0.1032
  149MOL0     C20489   1.135   1.790   3.854  0.3238 -0.2452  0.4046
  149MOL0     C20490   1.781   2.331   4.016 -0.8924  0.6414  0.2532
  149MOL0     C20491   1.828   2.428   4.102 -1.3658 -1.1453 -0.1542
  149MOL0     C20492   1.982   2.451   4.102  1.0542  0.1891  1.1163
  149MOL0     H20493   1.850   2.675   4.499 -2.9876 -0.1522  0.3731
  149MOL0     H20494   1.921   2.850   4.654  1.6706 -0.8983 -1.2631
  149MOL0     H20495   2.006   3.132   4.656 -3.5367 -0.5552 -1.9458
  149MOL0     H20496   1.936   3.030   4.795  0.0393  0.7051  2.3978
  149MOL0     H20497   2.024   3.255   4.862  0.2594 -0.3189  1.0821
  149MOL0     H20498   1.917   3.329   4.751  1.9692  0.2223 -1.2465
  149MOL0     H20499   1.722   3.288   4.882 -0.2623  0.1767 -0.2900
  149MOL0     H20500   1.806   3.159   4.972 -2.6756 -0.0068  0.2379
  149MOL0     H20501   1.953   3.333   5.083  0.9571 -1.0768 -0.9414
  149MOL0     H20502   1.879   3.464   4.980  1.0304  0.5279  2.3868
  149MOL0     H20503   1.740   3.286   5.181  1.8537 -0.9617 -1.9406
  149MOL0     H20504   1.668   3.426   5.094  1.9416  2.4217 -0.6955
  149MOL0     H20505   1.903   3.419   5.284  0.3608 -1.8449 -2.0588
  149MOL0     H20506   1.859   3.565   5.199 -0.3400 -2.5650 -2.4280
  149MOL0     H20507   1.661   3.414   5.381  0.6059 -1.1309 -1.4515
  149MOL0     H20508   1.637   3.564   5.288  0.6903 -0.1283 -1.5697
  149MOL0     H20509   1.801   3.679   5.411 -3.0203  0.7728 -0.2000
  149MOL0     H20510   1.667   3.608   5.506 -2.6142 -1.8669 -2.4188
  149MOL0     H20511   2.054   3.641   5.533 -1.6878  0.4483 -2.3881
  149MOL0     H20512   2.183   3.566   5.762 -1.4202  0.3544 -0.9243
  149MOL0     H20513   2.202   3.399   5.737 -0.7205 -0.2382  0.8283
  149MOL0     H20514   2.000   3.524   5.936  0.4755  1.0690 -0.4989
  149MOL0     H20515   2.029   3.361   5.945  1.3642  0.0887  0.8671
  149MOL0     H20516   2.258   3.371   5.993 -1.1169 -0.2648 -1.6415
  149MOL0     H20517   2.274   3.545   5.975  2.7354 -1.5659  1.0166
  149MOL0     H20518   2.117   3.394   6.193  1.6789 -2.3096 -2.3403
  149MOL0     H20519   2.270   3.507   6.199  0.4456 -2.2606 -0.3802
  149MOL0     H20520   1.953   3.794   6.208 -0.5074 -0.6193 -0.6751
  149MOL0     H20521   1.838   4.005   6.417 -1.2613  1.1900  0.4179
  149MOL0     H20522   1.744   3.873   6.499  3.1114 -0.3743  1.2943
  149MOL0     H20523   1.742   3.873   6.324 -1.0833 -1.2029  1.2917
  149MOL0     H20524   1.708   3.881   6.875 -1.7788  0.8950 -1.3112
  149MOL0     H20525   1.678   4.022   7.079  2.9230  1.4613  3.5746
  149MOL0     H20526   1.943   4.382   7.200  0.1507 -0.6392 -0.0169
  149MOL0     H20527   1.839   4.405   7.086  2.0413 -0.6843 -1.3001
  149MOL0     H20528   1.652   4.400   7.245  0.2672 -1.4050 -1.9300
  149MOL0     H20529   1.760   4.340   7.386  0.8430 -0.7359 -0.2907
  149MOL0     H20530   1.774   4.612   7.240 -0.5744  2.2930  2.5234
  149MOL0     H20531   1.911   4.547   7.317  0.3857  0.7161 -1.6312
  149MOL0     H20532   1.790   4.541   7.529  1.0782  1.8484 -0.2937
  149MOL0     H20533   1.639   4.602   7.450  0.1106  1.7567  1.1274
  149MOL0     H20534   1.788   4.774   7.566 -1.7911  0.6536 -0.3743
  149MOL0     H20535   1.900   4.748   7.428  2.5093 -2.2143  2.7507
  149MOL0     H20536   1.603   4.816   7.435  0.1023  0.8657  0.6743
  149MOL0     H20537   1.678   4.809   7.285 -1.4926 -0.6561 -0.5240
  149MOL0     H20538   1.790   5.029   7.341 -1.9375  2.7166 -0.2451
  149MOL0     H20539   1.798   4.985   7.505 -0.5965  1.3167  0.6717
  149MOL0     H20540   1.634   5.160   7.468 -0.9896 -0.0211  3.1262
  149MOL0     H20541   1.528   5.021   7.506  1.8833  0.7779  2.5541
  149MOL0     H20542   1.994   4.277   6.960 -0.6137  0.5954  0.2359
  149MOL0     H20543   2.002   4.154   6.735  2.4396  1.7581  2.5368
  149MOL0     H20544   2.097   3.586   6.634  0.8846 -0.7866 -0.3549
  149MOL0     H20545   2.150   3.493   6.426 -1.0584 -0.2936 -0.7141
  149MOL0     H20546   1.636   3.117   4.473 -0.3429  0.4031  0.4235
  149MOL0     H20547   1.595   2.933   4.293 -0.5090 -2.4478 -0.0317
  149MOL0     H20548   1.518   2.549   4.186 -0.1358  0.2417 -0.6227
  149MOL0     H20549   1.450   2.347   4.051 -0.6869 -0.6129  2.7180
  149MOL0     H20550   1.726   2.022   3.882  2.7415  1.3633  1.5845
  149MOL0     H20551   1.744   2.077   4.037 -0.1086  2.0874  0.9418
  149MOL0     H20552   1.523   1.998   4.108  1.2266 -1.5627  0.8261
  149MOL0     H20553   1.617   1.876   4.037 -0.2066  0.0270 -2.3632
  149MOL0     H20554   1.374   2.017   3.897 -3.8200 -2.4129  1.6701
  149MOL0     H20555   1.483   1.920   3.808  1.1198  5.4239 -0.8642
  149MOL0     H20556   1.348   1.833   4.078 -4.1825 -0.6665 -0.8681
  149MOL0     H20557   1.429   1.726   3.962  0.4720 -1.2018 -1.3527
  149MOL0     H20558   1.038   1.793   3.808 -0.3882 -1.2222  1.7743
  149MOL0     H20559   1.842   2.256   3.966 -0.6532 -0.4815  2.1401
  149MOL0     H20560   2.032   2.370   4.049  2.1299  2.4479 -1.6143
  149MOL0     H20561   1.994   2.532   4.029 -3.7670 -2.4227 -3.3078
  149MOL0     H20562   2.025   2.468   4.201  0.9156 -0.4187  1.2828
  150MOL0     O20563   7.873  11.587   7.210  0.0068  1.1899 -0.1847
  150MOL0     C20564   7.764  11.593   7.269 -1.6416 -0.3745  0.1224
  150MOL0     O20565   7.742  11.690   7.376  0.3389  0.3786 -0.1805
  150MOL0     C20566   7.829  11.791   7.397 -0.2502  0.5473  0.6257
  150MOL0     C20567   7.868  11.871   7.280 -0.8119  0.7109  0.6414
  150MOL0     C20568   7.934  11.995   7.305 -0.6212  1.4287  0.5563
  150MOL0     C20569   7.958  12.040   7.437  0.3475 -0.7842  0.1099
  150MOL0     O20570   8.020  12.165   7.469 -0.1903 -0.1704 -0.1348
  150MOL0     C20571   7.998  12.291   7.390 -0.5949  0.8415 -0.6034
  150MOL0     C20572   8.042  12.410   7.486  0.9241  0.7647  0.6155
  150MOL0     C20573   7.990  12.548   7.462 -0.4884 -0.5448  0.4733
  150MOL0     C20574   7.896  12.569   7.335  0.9945 -0.1318 -0.3638
  150MOL0     C20575   7.862  12.720   7.320  0.0170 -0.8744 -0.0871
  150MOL0     C20576   7.795  12.793   7.443  0.1079  0.5021 -0.7107
  150MOL0     C20577   7.660  12.749   7.499 -0.0273  0.3937  0.2450
  150MOL0     C20578   7.567  12.670   7.414 -0.2393  0.0818 -0.8936
  150MOL0     N20579   7.433  12.679   7.462 -0.5368  1.0689  0.9549
  150MOL0     C20580   7.332  12.737   7.389  0.4633 -0.5020 -0.3809
  150MOL0     C20581   7.222  12.720   7.462  0.0526  0.2697 -0.5443
  150MOL0     C20582   7.087  12.782   7.446 -0.2583 -0.3994 -0.4434
  150MOL0     C20583   7.007  12.751   7.326  0.5248  0.0067  0.3424
  150MOL0     C20584   7.080  12.783   7.194  0.1305 -1.0462 -1.2845
  150MOL0     C20585   6.982  12.807   7.075 -0.0852 -0.2891  0.2455
  150MOL0     O20586   7.046  12.850   6.961 -0.0130  0.3326  0.3429
  150MOL0     C20587   7.098  12.740   6.890 -0.6220 -0.6827 -0.6042
  150MOL0     C20588   7.241  12.741   6.868  0.7026  0.2493  0.1407
  150MOL0     C20589   7.301  12.633   6.802  0.1793  0.0555 -1.2162
  150MOL0     C20590   7.444  12.650   6.795 -0.1254  0.7079  0.1330
  150MOL0     C20591   7.222  12.523   6.747  0.7826 -0.6861  0.5353
  150MOL0     C20592   7.281  12.411   6.665  0.3391  1.0600  0.4111
  150MOL0     O20593   7.211  12.363   6.552  0.0909  0.5722 -0.0302
  150MOL0     C20594   7.274  12.277   6.466 -0.1630  0.0507 -1.2813
  150MOL0     C20595   7.339  12.324   6.353 -0.2010  0.9478  0.3622
  150MOL0     C20596   7.416  12.230   6.267  0.0466 -0.0130 -1.0308
  150MOL0     C20597   7.432  12.097   6.310  0.4091  0.1219  0.4777
  150MOL0     O20598   7.514  12.006   6.257  0.1074 -0.2862  0.5123
  150MOL0     C20599   7.578  12.020   6.125 -0.0759  0.1126  0.7410
  150MOL0     C20600   7.579  11.878   6.063  0.2481 -0.1817 -0.3182
  150MOL0     C20601   7.636  11.874   5.921  0.3557 -0.2219  0.1736
  150MOL0     C20602   7.617  11.729   5.859  0.7975  0.2238 -0.1725
  150MOL0     C20603   7.640  11.733   5.712 -0.2936 -0.3717  0.8038
  150MOL0     C20604   7.644  11.591   5.657  0.0470 -0.1577 -0.2005
  150MOL0     C20605   7.672  11.585   5.509 -1.0278  0.6064 -0.4752
  150MOL0     C20606   7.756  11.466   5.475 -0.6409  0.5496  0.3257
  150MOL0    Cl20607   7.648  11.320   5.512 -0.4482 -0.1765  0.4539
  150MOL0     C20608   7.350  12.057   6.422 -0.3882 -0.2136 -0.5967
  150MOL0     C20609   7.276  12.141   6.498 -0.0530  0.3426 -0.0021
  150MOL0     O20610   7.386  12.363   6.713 -0.0881 -0.6250  0.1838
  150MOL0     C20611   7.081  12.543   6.767  0.7172 -0.2361 -0.0562
  150MOL0     C20612   7.018  12.642   6.837  0.3816 -0.2628 -0.5591
  150MOL0     N20613   7.255  12.652   7.579 -0.4291 -0.5680 -0.1977
  150MOL0     N20614   7.377  12.621   7.572 -0.3506 -0.3411  0.0377
  150MOL0     C20615   7.913  11.964   7.546  0.3675  0.6643 -0.4318
  150MOL0     C20616   7.857  11.837   7.529  0.2021 -0.2688  0.4241
  150MOL0     C20617   7.677  11.478   7.254 -0.3286 -0.6596 -0.6904
  150MOL0     C20618   7.549  11.498   7.193  1.0540 -0.0720  0.3329
  150MOL0     C20619   7.454  11.386   7.191 -0.1281 -0.4183  0.5860
  150MOL0     C20620   7.487  11.265   7.259  0.6048  0.1675 -0.1197
  150MOL0     O20621   7.386  11.172   7.263  0.4682 -0.0155 -1.4009
  150MOL0     C20622   7.405  11.040   7.319 -0.6838 -0.0735  0.3619
  150MOL0     C20623   7.273  10.978   7.339  0.1844  0.2440  0.9386
  150MOL0     C20624   7.186  11.046   7.453  0.2786  0.6110 -0.0368
  150MOL0     C20625   7.083  10.946   7.493 -0.6585  0.3205 -0.1218
  150MOL0     C20626   7.018  10.997   7.612  0.1958  0.0596  0.1396
  150MOL0     C20627   6.973  11.062   7.701  0.4782  0.1407 -0.3450
  150MOL0     C20628   7.604  11.253   7.324  0.3215  0.4019  0.4139
  150MOL0     C20629   7.706  11.350   7.306 -0.4918 -0.0723 -1.1197
  150MOL0     C20630   7.834  11.321   7.385 -1.1877 -0.0093  0.2686
  150MOL0     H20631   7.849  11.839   7.178 -0.1843  0.9618  0.4405
  150MOL0     H20632   7.964  12.053   7.218 -0.9922  0.2239 -0.4028
  150MOL0     H20633   7.894  12.296   7.356 -1.5712  0.0147  1.9612
  150MOL0     H20634   8.059  12.297   7.300  1.3210 -0.9155  0.4971
  150MOL0     H20635   8.021  12.378   7.589  0.1498  1.1619  0.5863
  150MOL0     H20636   8.151  12.408   7.479  0.9398 -0.7506  0.9919
  150MOL0     H20637   7.945  12.578   7.556 -0.1838  0.0173  0.4461
  150MOL0     H20638   8.078  12.614   7.461 -0.0554 -1.1147 -0.3728
  150MOL0     H20639   7.947  12.534   7.245 -0.0240  0.6506 -1.2814
  150MOL0     H20640   7.807  12.507   7.343  0.8377  0.3750  2.9438
  150MOL0     H20641   7.788  12.734   7.242  0.4038  0.1789 -0.2859
  150MOL0     H20642   7.947  12.774   7.278  0.6665 -1.6014  0.2573
  150MOL0     H20643   7.872  12.797   7.521 -0.4754  0.2446 -0.1221
  150MOL0     H20644   7.780  12.897   7.412 -0.0968  1.2821  1.7933
  150MOL0     H20645   7.613  12.843   7.530 -1.3989 -0.3660  0.5285
  150MOL0     H20646   7.684  12.687   7.586 -0.4138  2.3586  1.8425
  150MOL0     H20647   7.572  12.684   7.305  2.1120  0.5773 -0.7910
  150MOL0     H20648   7.603  12.567   7.415  3.7179  1.2647 -1.3788
  150MOL0     H20649   7.341  12.799   7.301 -1.3140 -2.4242 -2.0391
  150MOL0     H20650   7.104  12.890   7.441  0.9059 -0.6286 -3.0072
  150MOL0     H20651   7.017  12.754   7.525 -2.3817 -2.3096 -2.8181
  150MOL0     H20652   6.997  12.642   7.315  2.5580 -0.0779 -1.2488
  150MOL0     H20653   6.904  12.785   7.339 -0.3466 -2.9818  2.2629
  150MOL0     H20654   7.136  12.873   7.220  0.1217 -1.7949  1.7785
  150MOL0     H20655   7.154  12.707   7.166  2.4597 -1.7895  5.2158
  150MOL0     H20656   6.914  12.724   7.051  0.0843 -1.7413  4.1379
  150MOL0     H20657   6.920  12.891   7.107  0.3848 -0.6835  2.2995
  150MOL0     H20658   7.301  12.822   6.907 -0.2850 -0.0773  2.5498
  150MOL0     H20659   7.480  12.665   6.897  1.2852  3.6999 -0.6870
  150MOL0     H20660   7.485  12.736   6.741 -1.3163  2.3806  1.7658
  150MOL0     H20661   7.496  12.560   6.762 -0.1239  0.1951  1.4852
  150MOL0     H20662   7.344  12.431   6.333 -0.8734  0.5273 -2.5827
  150MOL0     H20663   7.468  12.259   6.176 -0.2642  1.5386 -0.7561
  150MOL0     H20664   7.510  12.070   6.055  2.6082 -0.4073 -2.4874
  150MOL0     H20665   7.679  12.062   6.125  0.9528 -2.1727  1.8554
  150MOL0     H20666   7.651  11.823   6.124 -1.5696 -0.5953  1.5658
  150MOL0     H20667   7.489  11.818   6.077  0.4391 -0.3884  0.0487
  150MOL0     H20668   7.744  11.889   5.925  0.7291 -2.6123  0.7997
  150MOL0     H20669   7.572  11.939   5.861 -4.1130 -4.3790 -0.1809
  150MOL0     H20670   7.514  11.696   5.877  1.7529 -2.8648  0.3004
  150MOL0     H20671   7.681  11.652   5.903 -1.4763 -1.1450  0.9741
  150MOL0     H20672   7.563  11.791   5.661  0.2441  2.1196  2.6719
  150MOL0     H20673   7.736  11.781   5.698 -1.4460  1.3396 -2.0991
  150MOL0     H20674   7.548  11.542   5.669 -0.4894 -0.7833 -5.0237
  150MOL0     H20675   7.720  11.537   5.715  1.4263  1.6617 -0.2112
  150MOL0     H20676   7.724  11.678   5.482 -0.2119  0.7170  1.3152
  150MOL0     H20677   7.579  11.587   5.452  0.3722  2.5952 -2.8997
  150MOL0     H20678   7.844  11.458   5.540 -1.7876 -2.7608  1.6784
  150MOL0     H20679   7.787  11.476   5.371  3.2464  0.4254  1.3356
  150MOL0     H20680   7.361  11.952   6.447  1.0523 -0.6073 -2.6349
  150MOL0     H20681   7.242  12.097   6.592  2.7847 -0.2684  0.8483
  150MOL0     H20682   7.019  12.489   6.697 -3.1291  2.1536  1.1941
  150MOL0     H20683   6.910  12.654   6.837  0.4005  0.6530  2.0738
  150MOL0     H20684   7.935  11.991   7.649  0.8830 -0.2178 -0.3016
  150MOL0     H20685   7.827  11.783   7.618 -2.4808  1.4140  0.6736
  150MOL0     H20686   7.528  11.595   7.149  2.9575 -0.2460 -1.0695
  150MOL0     H20687   7.354  11.374   7.151 -0.1285  0.0480  0.4378
  150MOL0     H20688   7.461  10.985   7.243  1.2668 -1.9906  2.9906
  150MOL0     H20689   7.459  11.039   7.414 -2.1407  0.0813  1.2202
  150MOL0     H20690   7.297  10.882   7.385 -2.1152 -0.2950  1.1452
  150MOL0     H20691   7.229  10.964   7.239  4.3288 -3.3838 -0.7083
  150MOL0     H20692   7.259  11.059   7.534 -0.4208  3.9593  0.2100
  150MOL0     H20693   7.127  11.134   7.428 -0.5166  1.0221  2.8936
  150MOL0     H20694   7.138  10.862   7.536 -1.5446  1.7897  4.3984
  150MOL0     H20695   7.021  10.927   7.405  1.2747  0.2780 -1.5253
  150MOL0     H20696   6.918  11.104   7.783 -0.6705 -0.0815 -0.9830
  150MOL0     H20697   7.627  11.155   7.365  2.4240  0.9567  0.6270
  150MOL0     H20698   7.823  11.234   7.450  2.1858 -1.2870 -0.6204
  150MOL0     H20699   7.923  11.314   7.321 -1.0098  0.8433  0.4175
  150MOL0     H20700   7.865  11.392   7.461  3.8394  0.7855 -2.0570
  151MOL0     O20701  10.356  11.546   8.269 -0.6942 -1.1677 -0.2119
  151MOL0     C20702  10.290  11.569   8.168 -0.0188  0.4424  1.1434
  151MOL0     O20703  10.160  11.602   8.154 -0.5407  0.6172 -0.4112
  151MOL0     C20704  10.081  11.639   8.255 -0.2317 -0.1570  0.2865
  151MOL0     C20705  10.125  11.704   8.379  0.5471 -0.3367 -0.2381
  151MOL0     C20706  10.023  11.736   8.474  0.8292 -0.2880  1.0612
  151MOL0     C20707   9.881  11.729   8.444 -1.1337 -0.0139  0.6951
  151MOL0     O20708   9.785  11.773   8.513  0.2484 -1.2271 -0.0017
  151MOL0     C20709   9.769  11.918   8.507 -0.7858 -0.1809 -0.7601
  151MOL0     C20710   9.656  11.967   8.413 -0.8398 -0.5240 -0.5771
  151MOL0     C20711   9.519  11.929   8.461  0.5880  0.5558  0.2017
  151MOL0     C20712   9.441  12.046   8.524  0.4725  0.2255 -0.1519
  151MOL0     C20713   9.300  11.998   8.567 -0.0043 -0.5859 -0.6570
  151MOL0     C20714   9.224  12.122   8.632 -0.7292 -0.3247 -0.1671
  151MOL0     C20715   9.070  12.100   8.635 -0.5574  0.2762  0.3041
  151MOL0     C20716   9.003  12.230   8.687 -0.1260  0.2696  0.0359
  151MOL0     N20717   8.859  12.209   8.716  0.5784  0.4264  0.0543
  151MOL0     C20718   8.811  12.179   8.841  0.1894 -0.2197  0.2698
  151MOL0     C20719   8.688  12.148   8.837 -0.1646  1.2779 -0.1168
  151MOL0     C20720   8.585  12.117   8.953  0.1153  0.4832  0.4322
  151MOL0     C20721   8.512  12.253   8.985 -0.9577  0.2201 -0.1098
  151MOL0     C20722   8.442  12.234   9.111  0.0753  0.7128 -0.7606
  151MOL0     C20723   8.377  12.370   9.156 -0.4225 -1.0465 -0.7157
  151MOL0     O20724   8.258  12.369   9.078  0.8402 -0.2276 -0.2249
  151MOL0     C20725   8.160  12.462   9.103  0.4133 -0.4529 -0.4394
  151MOL0     C20726   8.161  12.569   9.205 -0.6757 -0.3193  0.3693
  151MOL0     C20727   8.061  12.663   9.223 -0.2597  0.8063  0.8761
  151MOL0     C20728   8.082  12.772   9.330  0.6674  0.3602 -0.5303
  151MOL0     C20729   7.941  12.651   9.151  0.1801 -0.7842 -0.3621
  151MOL0     C20730   7.830  12.751   9.142  0.2843  0.0785  0.4657
  151MOL0     O20731   7.710  12.691   9.105 -0.2212  0.1675  0.3113
  151MOL0     C20732   7.598  12.766   9.128  0.1978  0.2682  0.1928
  151MOL0     C20733   7.521  12.727   9.237  0.7129 -0.1021  0.1212
  151MOL0     C20734   7.396  12.787   9.254  0.1244 -0.2746  0.3454
  151MOL0     C20735   7.352  12.882   9.155 -0.7660  0.9121 -0.3234
  151MOL0     O20736   7.228  12.932   9.157  0.0915  0.2405  0.8464
  151MOL0     C20737   7.208  13.069   9.163  1.0605 -0.1927 -0.3923
  151MOL0     C20738   7.255  13.125   9.304  0.0257 -0.2648  0.2969
  151MOL0     C20739   7.173  13.072   9.417  0.1017 -0.0775 -0.1574
  151MOL0     C20740   7.237  13.075   9.557  0.4728 -0.8313 -0.7343
  151MOL0     C20741   7.187  12.966   9.666  0.1159 -0.6999  0.3670
  151MOL0     C20742   7.043  12.997   9.700  0.4325  0.4979 -1.3125
  151MOL0     C20743   7.009  12.913   9.823 -0.6801 -0.3459 -0.6687
  151MOL0     C20744   6.875  12.933   9.883  0.0856 -0.4547 -0.3751
  151MOL0    Cl20745   6.844  13.110   9.939 -0.7345 -0.1758 -0.4036
  151MOL0     C20746   7.433  12.909   9.047 -0.3217  0.1455 -0.1873
  151MOL0     C20747   7.557  12.853   9.033  0.1612 -0.0471  0.3778
  151MOL0     O20748   7.837  12.864   9.195  0.1140  0.2587  0.7426
  151MOL0     C20749   7.937  12.544   9.058  0.1051  0.1606  0.7061
  151MOL0     C20750   8.044  12.453   9.028  0.8817  0.0309  0.5299
  151MOL0     N20751   8.646  12.149   8.703 -0.2360 -0.1801 -0.0787
  151MOL0     N20752   8.748  12.196   8.635 -0.0199  0.6443  0.1616
  151MOL0     C20753   9.847  11.672   8.319  0.1900  0.6273  0.5345
  151MOL0     C20754   9.942  11.633   8.226 -0.8218  0.2048  0.5027
  151MOL0     C20755  10.367  11.560   8.034  0.3167  0.9255  0.7036
  151MOL0     C20756  10.312  11.638   7.933  0.5122 -0.1726 -0.5284
  151MOL0     C20757  10.376  11.656   7.807 -0.6106 -0.7059  0.0268
  151MOL0     C20758  10.486  11.583   7.779 -0.4210 -0.0691  0.4111
  151MOL0     O20759  10.567  11.596   7.670  0.0410 -0.2873  0.0064
  151MOL0     C20760  10.543  11.700   7.574  0.3853  1.2126 -0.7304
  151MOL0     C20761  10.686  11.750   7.542 -0.3757  1.4762  0.4497
  151MOL0     C20762  10.772  11.779   7.676  0.1563  0.6761 -0.6337
  151MOL0     C20763  10.914  11.821   7.636  0.4562 -0.3131 -0.3574
  151MOL0     C20764  10.902  11.947   7.567 -1.1701  0.1766  0.7350
  151MOL0     C20765  10.905  12.067   7.517  1.1779 -0.2112 -1.1867
  151MOL0     C20766  10.537  11.492   7.882 -0.6887  0.2368 -0.0261
  151MOL0     C20767  10.483  11.475   8.008  0.4308  1.0046 -1.0394
  151MOL0     C20768  10.562  11.393   8.108  0.3838 -0.2379 -0.4801
  151MOL0     H20769  10.228  11.704   8.415  0.6268 -3.3666 -0.2179
  151MOL0     H20770  10.055  11.769   8.572  2.5186  0.9392  0.1615
  151MOL0     H20771   9.863  11.955   8.465 -1.8244  2.5511 -0.9122
  151MOL0     H20772   9.764  11.950   8.612  3.3417 -1.1282 -0.0788
  151MOL0     H20773   9.653  12.074   8.392 -1.2540  0.4957  3.7715
  151MOL0     H20774   9.663  11.930   8.310  1.6700 -2.1202  0.0857
  151MOL0     H20775   9.460  11.897   8.374  2.0172  2.9813 -1.7932
  151MOL0     H20776   9.527  11.840   8.524 -0.1568 -0.8013 -1.5174
  151MOL0     H20777   9.498  12.071   8.615 -0.8338  0.7852  0.5409
  151MOL0     H20778   9.420  12.135   8.464  0.8110 -0.5938 -1.5253
  151MOL0     H20779   9.313  11.910   8.631 -0.8170 -1.3206 -1.4775
  151MOL0     H20780   9.247  11.963   8.478  0.0882  0.3731 -1.1010
  151MOL0     H20781   9.263  12.134   8.733  0.6154 -1.4310 -0.5175
  151MOL0     H20782   9.244  12.210   8.571 -1.3652  0.1993  0.3645
  151MOL0     H20783   9.048  12.024   8.710  0.0952  1.3472  1.6144
  151MOL0     H20784   9.026  12.073   8.538  0.2547 -1.9966  0.4919
  151MOL0     H20785   9.043  12.292   8.768 -1.6595 -0.9494  1.8045
  151MOL0     H20786   9.017  12.295   8.600  2.1841 -0.3800 -0.1555
  151MOL0     H20787   8.874  12.180   8.929 -1.1689  1.7502  1.2898
  151MOL0     H20788   8.634  12.079   9.043  0.5820 -0.3305 -0.1492
  151MOL0     H20789   8.520  12.035   8.922  2.0805 -1.7277  1.8139
  151MOL0     H20790   8.583  12.336   8.987 -0.8212  0.1770 -1.6439
  151MOL0     H20791   8.429  12.269   8.916 -2.0524 -2.1453  0.5337
  151MOL0     H20792   8.373  12.149   9.105  2.2431 -1.0526 -2.7411
  151MOL0     H20793   8.517  12.210   9.188  0.3269 -0.1820 -1.2631
  151MOL0     H20794   8.354  12.368   9.263 -0.5445  1.4623 -0.6180
  151MOL0     H20795   8.439  12.457   9.135 -1.0117  0.2279  2.2385
  151MOL0     H20796   8.242  12.553   9.276  0.0388  1.1874 -0.0651
  151MOL0     H20797   8.170  12.827   9.296  0.5016  1.8578  1.2790
  151MOL0     H20798   8.113  12.718   9.421  0.7816  0.9304 -0.2264
  151MOL0     H20799   7.997  12.837   9.353  2.7780  3.5328 -1.0004
  151MOL0     H20800   7.579  12.651   9.289 -1.8937 -2.8139 -0.6158
  151MOL0     H20801   7.326  12.756   9.331  0.4637 -2.9925 -0.3459
  151MOL0     H20802   7.265  13.121   9.085 -0.4647  2.1967  0.0008
  151MOL0     H20803   7.102  13.082   9.140  1.2759 -1.9461 -2.9057
  151MOL0     H20804   7.359  13.096   9.324 -0.4660 -3.5623 -1.1572
  151MOL0     H20805   7.256  13.234   9.299  2.1482 -0.2755 -3.2570
  151MOL0     H20806   7.130  12.973   9.403 -0.2342 -0.2503  1.7908
  151MOL0     H20807   7.081  13.132   9.427 -1.7766 -2.9737  1.2436
  151MOL0     H20808   7.221  13.167   9.613  2.2140  0.2687 -1.9463
  151MOL0     H20809   7.345  13.066   9.543  0.5940  1.8960 -2.2792
  151MOL0     H20810   7.187  12.868   9.617  0.4508 -0.3758 -0.3005
  151MOL0     H20811   7.255  12.962   9.751  0.5095 -1.1982  0.0326
  151MOL0     H20812   6.974  12.977   9.618 -0.3987  1.6669 -0.9167
  151MOL0     H20813   7.024  13.101   9.728  0.0296  0.1830 -0.3768
  151MOL0     H20814   7.086  12.946   9.893 -0.0427  0.1629 -1.5793
  151MOL0     H20815   7.009  12.808   9.793  1.4191 -0.1208 -1.6425
  151MOL0     H20816   6.861  12.867   9.969 -0.9409 -0.7173 -0.7299
  151MOL0     H20817   6.795  12.917   9.811 -0.1466 -4.4189  0.5368
  151MOL0     H20818   7.406  12.978   8.968 -1.6562 -1.2919 -1.0568
  151MOL0     H20819   7.614  12.870   8.942 -0.8821 -0.4985 -0.3819
  151MOL0     H20820   7.856  12.521   8.989 -1.0773 -0.9360  2.3684
  151MOL0     H20821   8.031  12.382   8.947 -1.9744  0.8185  0.2150
  151MOL0     H20822   9.747  11.659   8.280  0.7304 -2.9583 -0.0506
  151MOL0     H20823   9.912  11.600   8.127  2.6266 -0.6297 -0.3944
  151MOL0     H20824  10.223  11.698   7.950  1.5025  1.1690  0.1494
  151MOL0     H20825  10.321  11.702   7.725  1.4407 -1.1030 -1.6544
  151MOL0     H20826  10.475  11.662   7.497  1.6148  0.2041 -1.3701
  151MOL0     H20827  10.505  11.789   7.625  1.5861  1.8201 -0.8344
  151MOL0     H20828  10.659  11.845   7.495 -0.0635  0.9600 -0.8118
  151MOL0     H20829  10.748  11.695   7.470 -0.5784  2.9786 -0.9365
  151MOL0     H20830  10.723  11.840   7.752 -0.4307  2.1256 -2.1421
  151MOL0     H20831  10.793  11.684   7.726  1.4287  0.3125 -1.7940
  151MOL0     H20832  10.967  11.749   7.574  4.1791  1.8311  0.0510
  151MOL0     H20833  10.980  11.826   7.723  0.3812  1.2433 -0.3613
  151MOL0     H20834  10.921  12.171   7.500  2.3142 -0.2380 -0.3887
  151MOL0     H20835  10.625  11.433   7.858 -1.8095 -1.6602  0.3280
  151MOL0     H20836  10.638  11.341   8.048 -0.8997 -2.9766  0.0983
  151MOL0     H20837  10.610  11.449   8.189  2.0538 -0.5567 -1.1917
  151MOL0     H20838  10.503  11.311   8.149  1.4418  0.2225  2.1900
  152MOL0     O20839   7.476   9.188   8.724  0.6977 -0.1460  0.1655
  152MOL0     C20840   7.394   9.203   8.811 -0.9315 -0.1430 -0.0554
  152MOL0     O20841   7.388   9.118   8.923 -0.1544 -0.2374  0.3421
  152MOL0     C20842   7.491   9.023   8.951  0.0978 -0.8761  0.6728
  152MOL0     C20843   7.548   9.023   9.079  0.9685 -0.3648 -0.7189
  152MOL0     C20844   7.632   8.923   9.114  1.0087  0.8189  0.0746
  152MOL0     C20845   7.676   8.817   9.026  0.8211 -0.5792  1.0829
  152MOL0     O20846   7.770   8.717   9.056  0.1966  0.3986 -0.6359
  152MOL0     C20847   7.729   8.580   9.050  0.2052 -0.1129  0.0314
  152MOL0     C20848   7.602   8.554   9.138  0.8457  0.2703 -0.5056
  152MOL0     C20849   7.574   8.405   9.120 -0.1122 -0.2739  0.0408
  152MOL0     C20850   7.445   8.355   9.180  0.1285  0.1613  0.0821
  152MOL0     C20851   7.408   8.206   9.162 -0.8833 -0.2737 -0.0150
  152MOL0     C20852   7.349   8.188   9.025  0.3202  0.8354  0.4293
  152MOL0     C20853   7.350   8.036   8.984 -0.8648  0.1243  0.2226
  152MOL0     C20854   7.302   8.003   8.847  0.3251 -0.3587  0.4066
  152MOL0     N20855   7.324   7.868   8.813 -0.7029 -0.3261 -0.1718
  152MOL0     C20856   7.450   7.809   8.793  0.3458 -0.3187  0.0023
  152MOL0     C20857   7.437   7.697   8.719 -0.4173  0.1857 -0.9920
  152MOL0     C20858   7.539   7.588   8.700  0.1774 -0.1914 -1.2210
  152MOL0     C20859   7.573   7.529   8.845  0.7072 -0.1233  0.7076
  152MOL0     C20860   7.708   7.459   8.848  0.9510 -0.3857  0.1652
  152MOL0     C20861   7.747   7.399   8.990 -0.3115  0.5341 -0.2578
  152MOL0     O20862   7.838   7.294   8.969  0.1862  0.4505 -0.3924
  152MOL0     C20863   7.871   7.226   9.078 -1.2603 -0.0417 -0.1497
  152MOL0     C20864   7.786   7.189   9.185 -0.0380  0.2796 -0.1669
  152MOL0     C20865   7.835   7.131   9.303  0.6537  0.6776 -0.4511
  152MOL0     C20866   7.725   7.108   9.421 -0.3708  0.3388  0.3146
  152MOL0     C20867   7.968   7.077   9.311 -0.3308 -0.2387 -0.3947
  152MOL0     C20868   8.020   6.999   9.432 -0.1371 -0.0753  0.7798
  152MOL0     O20869   8.111   6.905   9.399 -0.8001 -0.0766 -0.0640
  152MOL0     C20870   8.164   6.804   9.479 -0.0602 -0.4184 -0.2839
  152MOL0     C20871   8.298   6.807   9.516  0.6999 -0.2115 -1.1289
  152MOL0     C20872   8.355   6.725   9.604  0.6179 -0.2058  0.7389
  152MOL0     C20873   8.292   6.610   9.646  0.3068  0.5195 -0.8511
  152MOL0     O20874   8.358   6.507   9.714  0.0454  0.0482 -0.0524
  152MOL0     C20875   8.463   6.441   9.634 -0.5887 -0.8638 -0.1477
  152MOL0     C20876   8.416   6.310   9.598 -0.1529  0.3271 -0.4096
  152MOL0     C20877   8.415   6.210   9.714 -0.1956 -0.5256  0.1770
  152MOL0     C20878   8.367   6.072   9.650  0.3490 -0.4593 -0.6256
  152MOL0     C20879   8.479   6.005   9.560 -0.4423 -0.0290 -0.2714
  152MOL0     C20880   8.573   5.913   9.639  0.7373 -0.3568  0.8924
  152MOL0     C20881   8.691   5.877   9.543 -0.2479 -0.1117  0.9819
  152MOL0     C20882   8.679   5.761   9.452 -0.9184  0.6609  0.8448
  152MOL0    Cl20883   8.692   5.601   9.548 -0.0551  0.0260  0.6275
  152MOL0     C20884   8.155   6.609   9.623 -0.1779  0.1027  0.5730
  152MOL0     C20885   8.088   6.711   9.545  0.5674  0.2680  0.0805
  152MOL0     O20886   7.982   7.022   9.549  0.5666 -0.6626 -0.0008
  152MOL0     C20887   8.052   7.093   9.197 -1.0275 -0.3214 -0.2556
  152MOL0     C20888   8.001   7.163   9.091  1.7004  0.5903  1.1388
  152MOL0     N20889   7.312   7.697   8.683  0.3757 -1.2066  0.5115
  152MOL0     N20890   7.248   7.801   8.734  0.9909 -1.1169  0.8462
  152MOL0     C20891   7.623   8.824   8.892  0.4149  0.4217 -0.1059
  152MOL0     C20892   7.524   8.925   8.857 -0.4665  0.3759  0.0907
  152MOL0     C20893   7.292   9.316   8.807 -0.4993  0.0665 -0.0853
  152MOL0     C20894   7.194   9.322   8.913  0.7597 -0.6079 -0.7069
  152MOL0     C20895   7.084   9.411   8.914  0.3900  0.4286 -0.9847
  152MOL0     C20896   7.055   9.482   8.796  0.5412 -0.2822 -1.2454
  152MOL0     O20897   6.939   9.546   8.763  0.3101 -0.0043  0.2490
  152MOL0     C20898   6.861   9.577   8.877 -0.7210 -0.5252  0.1378
  152MOL0     C20899   6.746   9.652   8.823  0.7163 -0.4965 -0.4022
  152MOL0     C20900   6.656   9.548   8.744 -0.4724  0.4038 -0.3340
  152MOL0     C20901   6.516   9.591   8.707 -0.1859  0.4767  0.1761
  152MOL0     C20902   6.482   9.513   8.598  0.0042  0.6564  0.7529
  152MOL0     C20903   6.461   9.445   8.496  0.0645  1.0752  0.0685
  152MOL0     C20904   7.134   9.476   8.690 -0.2881  1.2527  0.9120
  152MOL0     C20905   7.259   9.397   8.691  0.4190 -0.2555 -0.0028
  152MOL0     C20906   7.362   9.414   8.580  0.1446  0.7560  0.1071
  152MOL0     H20907   7.521   9.106   9.144  2.0267  0.2352 -1.0136
  152MOL0     H20908   7.654   8.924   9.220 -0.5940 -0.3185  0.4681
  152MOL0     H20909   7.817   8.526   9.085  1.2520  1.5169 -0.0085
  152MOL0     H20910   7.707   8.541   8.951  0.6288  2.0902 -0.9884
  152MOL0     H20911   7.622   8.591   9.239 -2.1635  1.3293 -0.1845
  152MOL0     H20912   7.523   8.612   9.089  1.1791  0.8506 -0.3583
  152MOL0     H20913   7.582   8.381   9.014  4.6069 -2.9543  0.7112
  152MOL0     H20914   7.659   8.350   9.162 -0.7218 -1.2593  0.0312
  152MOL0     H20915   7.445   8.368   9.289 -2.3155 -0.9938  0.2871
  152MOL0     H20916   7.376   8.422   9.128  3.0187  0.8776 -3.2052
  152MOL0     H20917   7.328   8.166   9.225 -0.9095 -2.7036 -1.4705
  152MOL0     H20918   7.504   8.153   9.165  0.0207  1.2768 -0.1493
  152MOL0     H20919   7.253   8.234   8.999  0.3647 -0.8972 -3.4219
  152MOL0     H20920   7.421   8.229   8.954  0.7131 -2.3074 -1.1636
  152MOL0     H20921   7.287   7.978   9.052 -1.5500 -2.5955 -2.5397
  152MOL0     H20922   7.455   8.006   8.992 -0.8455 -0.0164 -0.5110
  152MOL0     H20923   7.195   8.019   8.857  0.2895 -0.4661  0.2115
  152MOL0     H20924   7.332   8.074   8.770 -0.1317 -2.1562 -1.5326
  152MOL0     H20925   7.546   7.854   8.820 -0.7198  1.3892  1.1840
  152MOL0     H20926   7.629   7.624   8.650  0.7948  2.8856  1.7989
  152MOL0     H20927   7.495   7.507   8.641  0.9590 -1.6225  0.0957
  152MOL0     H20928   7.566   7.603   8.926 -2.2952 -0.2517  0.6960
  152MOL0     H20929   7.494   7.454   8.860  0.9399 -0.5895 -0.3063
  152MOL0     H20930   7.691   7.376   8.779 -3.0816  0.4918 -0.1361
  152MOL0     H20931   7.793   7.521   8.819  3.2456 -1.6368  3.5886
  152MOL0     H20932   7.801   7.474   9.048  1.6084 -2.3097  1.9346
  152MOL0     H20933   7.653   7.382   9.044 -1.8645  0.0646 -2.9352
  152MOL0     H20934   7.679   7.207   9.181 -0.3071 -1.3088 -0.6319
  152MOL0     H20935   7.740   7.013   9.473 -0.4684  1.2313  2.0399
  152MOL0     H20936   7.620   7.125   9.397 -0.0678  1.8348 -0.0389
  152MOL0     H20937   7.746   7.188   9.493 -1.0122 -0.9943  2.0618
  152MOL0     H20938   8.351   6.890   9.472 -0.9168  1.5399  0.0595
  152MOL0     H20939   8.462   6.738   9.615  0.3958  2.6148  0.2379
  152MOL0     H20940   8.499   6.504   9.552 -0.6449  0.9200  1.1349
  152MOL0     H20941   8.549   6.441   9.701 -1.5323  1.2618  1.1780
  152MOL0     H20942   8.311   6.318   9.568 -0.1970 -1.7577 -0.9802
  152MOL0     H20943   8.486   6.275   9.523 -0.5121 -1.0610 -0.1293
  152MOL0     H20944   8.342   6.242   9.789 -1.9346 -2.3123 -0.6634
  152MOL0     H20945   8.514   6.192   9.756 -0.3260 -1.6996  0.0113
  152MOL0     H20946   8.280   6.086   9.586 -1.3953  0.3009  1.7810
  152MOL0     H20947   8.333   5.999   9.723 -1.7368 -1.1210 -2.1897
  152MOL0     H20948   8.443   5.949   9.474  0.4758 -1.3151  0.1510
  152MOL0     H20949   8.538   6.089   9.521  1.0963 -0.2947  1.3148
  152MOL0     H20950   8.518   5.826   9.675  0.6613 -0.8565 -0.4119
  152MOL0     H20951   8.608   5.969   9.727 -0.0645  1.2812  0.2147
  152MOL0     H20952   8.778   5.848   9.603  0.6398 -1.3811 -0.8224
  152MOL0     H20953   8.722   5.961   9.479 -0.7566 -0.2975  0.4763
  152MOL0     H20954   8.767   5.760   9.387 -1.1942 -2.6636  0.3415
  152MOL0     H20955   8.604   5.767   9.373  1.6114  1.9229 -1.6444
  152MOL0     H20956   8.091   6.530   9.662 -0.3615  0.1180  0.3052
  152MOL0     H20957   7.983   6.715   9.520  0.7473  2.1851 -0.5209
  152MOL0     H20958   8.154   7.059   9.194 -0.7978  0.1677  1.0855
  152MOL0     H20959   8.066   7.161   9.004 -0.0164 -0.5342 -0.1910
  152MOL0     H20960   7.644   8.753   8.812  0.1751 -1.1485  1.1717
  152MOL0     H20961   7.464   8.921   8.767 -3.2749  0.6355  1.8254
  152MOL0     H20962   7.193   9.267   9.006 -0.6175  1.8674  0.8729
  152MOL0     H20963   7.025   9.419   9.005  1.4937  1.6543 -0.3479
  152MOL0     H20964   6.834   9.485   8.930  1.7599 -1.3707  0.0219
  152MOL0     H20965   6.916   9.643   8.944 -0.6146  2.0943 -2.3626
  152MOL0     H20966   6.779   9.737   8.764  2.4284  0.9282  2.4277
  152MOL0     H20967   6.687   9.689   8.907  0.7240 -0.3861 -0.4462
  152MOL0     H20968   6.699   9.533   8.644 -3.7933 -0.8824 -1.6938
  152MOL0     H20969   6.656   9.452   8.796  1.7613  0.7503  0.4311
  152MOL0     H20970   6.513   9.695   8.674 -2.3895 -1.0811 -5.8050
  152MOL0     H20971   6.455   9.569   8.796  0.5913  1.4261  0.9619
  152MOL0     H20972   6.439   9.376   8.417 -1.8593  2.3180 -0.5676
  152MOL0     H20973   7.118   9.524   8.594 -0.8809  0.6734  0.7085
  152MOL0     H20974   7.454   9.455   8.623  0.0193 -0.8116  2.0215
  152MOL0     H20975   7.377   9.322   8.523  0.1316  2.4992 -2.9114
  152MOL0     H20976   7.313   9.481   8.509 -1.4592  0.8872  1.2971
  153MOL0     O20977  10.591   0.083   0.456  0.2275  0.3693 -1.3995
  153MOL0     C20978  10.610   0.101   0.577  0.1396 -0.8127  0.7740
  153MOL0     O20979  10.521   0.172   0.661  0.5340 -0.6295  0.6434
  153MOL0     C20980  10.388   0.194   0.628  0.1937 -0.0255  1.2159
  153MOL0     C20981  10.327   0.306   0.681  0.3137  0.0097 -0.5640
  153MOL0     C20982  10.188   0.338   0.656 -0.1702 -0.4305 -0.5771
  153MOL0     C20983  10.115   0.255   0.570 -0.2445  1.2990 -0.7893
  153MOL0     O20984   9.995   0.287   0.521 -0.1939  0.3608 -0.4393
  153MOL0     C20985   9.892   0.310   0.617 -0.0772 -0.1141  0.1770
  153MOL0     C20986   9.801   0.427   0.576 -0.7217 -0.4885 -0.4338
  153MOL0     C20987   9.872   0.558   0.554  0.4306  0.0170  0.7756
  153MOL0     C20988   9.806   0.667   0.457  0.1856 -0.2021  0.4779
  153MOL0     C20989   9.908   0.777   0.426 -0.8049 -0.4876 -0.3257
  153MOL0     C20990   9.850   0.872   0.318 -0.2872 -0.6753 -0.3914
  153MOL0     C20991   9.747   0.969   0.389 -0.3984 -0.2596 -0.6201
  153MOL0     C20992   9.702   1.088   0.303  0.1967 -0.0772 -0.1062
  153MOL0     N20993   9.598   1.029   0.210  0.6277 -0.3787 -0.2681
  153MOL0     C20994   9.465   1.003   0.240  0.5691 -0.2016 -0.5177
  153MOL0     C20995   9.405   0.981   0.127  1.3793 -0.4490  0.0768
  153MOL0     C20996   9.256   0.960   0.115 -0.7797 -0.4493  0.5334
  153MOL0     C20997   9.208   1.037  -0.008 -0.8393  0.8794 -0.7043
  153MOL0     C20998   9.064   1.097   0.017  0.0853  0.1649 -0.3836
  153MOL0     C20999   8.982   1.113  -0.107  1.2095  0.2122  0.2356
  153MOL0     O21000   8.839   1.126  -0.066 -0.3566  0.3786  1.0437
  153MOL0     C21001   8.743   1.166  -0.156 -0.8248  0.1499  0.4858
  153MOL0     C21002   8.623   1.097  -0.156  0.3706 -0.6584 -0.2749
  153MOL0     C21003   8.516   1.139  -0.244 -0.2855 -0.1780 -0.4355
  153MOL0     C21004   8.396   1.043  -0.257  0.1426 -1.1309  0.8508
  153MOL0     C21005   8.543   1.243  -0.337  0.1831 -0.3303  0.1853
  153MOL0     C21006   8.447   1.309  -0.434 -0.2344 -0.4545  0.8010
  153MOL0     O21007   8.488   1.423  -0.498 -0.6683 -0.3303 -0.5146
  153MOL0     C21008   8.412   1.479  -0.595 -0.0078 -0.1933  0.4308
  153MOL0     C21009   8.439   1.427  -0.723 -0.6241  0.2055 -0.2711
  153MOL0     C21010   8.373   1.481  -0.830  0.3257 -0.9367  0.7204
  153MOL0     C21011   8.293   1.598  -0.818  0.6405 -1.3381 -0.6022
  153MOL0     O21012   8.237   1.678  -0.921 -0.8221  0.3189 -0.2049
  153MOL0     C21013   8.244   1.620  -1.055  0.2195 -0.0798 -0.7333
  153MOL0     C21014   8.147   1.705  -1.138  0.8925 -0.8600  0.0284
  153MOL0     C21015   8.005   1.718  -1.071 -0.9083  0.3126  0.9676
  153MOL0     C21016   7.899   1.639  -1.132  0.5280  0.8747  0.5862
  153MOL0     C21017   7.758   1.670  -1.065  0.3371 -0.0355 -0.4869
  153MOL0     C21018   7.645   1.572  -1.111 -0.0047 -0.2970  0.5335
  153MOL0     C21019   7.526   1.600  -1.025 -0.4555 -0.0176 -0.4271
  153MOL0     C21020   7.408   1.511  -1.050  0.0099  1.0182  0.1393
  153MOL0    Cl21021   7.376   1.529  -1.223  0.2852 -0.3280 -0.2593
  153MOL0     C21022   8.265   1.641  -0.684  0.1407 -0.5916  0.2130
  153MOL0     C21023   8.331   1.590  -0.579  0.0150  0.1478  0.0674
  153MOL0     O21024   8.355   1.242  -0.477  0.8374  0.3541  0.0826
  153MOL0     C21025   8.665   1.320  -0.317 -0.1622  0.1583  0.2786
  153MOL0     C21026   8.763   1.271  -0.238  0.3065 -0.9654 -0.6745
  153MOL0     N21027   9.505   0.954   0.029  0.3583 -0.1886 -0.8494
  153MOL0     N21028   9.621   0.981   0.087  0.7007 -0.3134  0.0485
  153MOL0     C21029  10.178   0.143   0.514  0.8530  0.4876 -0.6276
  153MOL0     C21030  10.309   0.111   0.549  0.7928 -0.1017 -0.8604
  153MOL0     C21031  10.737   0.052   0.649  0.2791  0.3586  0.4158
  153MOL0     C21032  10.764   0.091   0.783 -0.0864  0.1729  0.0243
  153MOL0     C21033  10.872   0.056   0.855 -0.0503  0.3720 -0.4137
  153MOL0     C21034  10.965  -0.025   0.788 -0.1119 -1.3135  0.8231
  153MOL0     O21035  11.083  -0.062   0.844 -0.8728  0.0223 -0.1660
  153MOL0     C21036  11.114  -0.029   0.982 -0.0283  0.2546 -0.3127
  153MOL0     C21037  11.218  -0.115   1.036  0.1271  0.6965  0.5801
  153MOL0     C21038  11.355  -0.119   0.950 -0.3400 -0.3445 -0.4258
  153MOL0     C21039  11.480  -0.169   1.030 -0.4309  0.9774  0.3818
  153MOL0     C21040  11.499  -0.095   1.148 -1.0202  0.2979 -1.0265
  153MOL0     C21041  11.507  -0.040   1.254 -0.9111  0.6570  0.4413
  153MOL0     C21042  10.940  -0.071   0.664 -0.5897  0.0880  0.3784
  153MOL0     C21043  10.828  -0.041   0.595 -0.6500  0.3458  0.2510
  153MOL0     C21044  10.828  -0.092   0.453 -0.1481  0.1569 -0.2833
  153MOL0     H21045  10.395   0.366   0.741 -0.3278  1.1342 -0.9258
  153MOL0     H21046  10.143   0.435   0.675 -1.2607 -1.0329 -0.0086
  153MOL0     H21047   9.928   0.332   0.718 -0.8564  0.7985  0.2741
  153MOL0     H21048   9.835   0.216   0.619  0.3040 -0.8807 -5.8960
  153MOL0     H21049   9.750   0.400   0.483 -0.4208 -0.8309 -0.5020
  153MOL0     H21050   9.727   0.432   0.656 -2.7410 -0.5602 -2.2137
  153MOL0     H21051   9.895   0.613   0.646  3.0417 -1.6411  1.2079
  153MOL0     H21052   9.971   0.536   0.515  1.2263  1.8707  1.6315
  153MOL0     H21053   9.791   0.617   0.361  0.1247  1.2173 -0.2643
  153MOL0     H21054   9.710   0.704   0.494 -0.4560 -0.2022 -1.1272
  153MOL0     H21055  10.001   0.728   0.396 -1.9138 -2.7376 -0.2780
  153MOL0     H21056   9.927   0.836   0.516  5.1902  1.4518 -2.3496
  153MOL0     H21057   9.925   0.947   0.292 -0.3205 -0.6884 -0.5245
  153MOL0     H21058   9.805   0.835   0.226  1.0543 -0.5687 -1.1225
  153MOL0     H21059   9.791   1.012   0.479  0.1241 -0.2241 -0.8896
  153MOL0     H21060   9.663   0.913   0.431  0.0722 -0.6736 -0.2100
  153MOL0     H21061   9.652   1.161   0.368  1.1310  1.3545 -0.9396
  153MOL0     H21062   9.784   1.141   0.254  0.0309 -0.6154 -0.9866
  153MOL0     H21063   9.421   1.018   0.338  0.4321  3.8848 -1.0475
  153MOL0     H21064   9.220   1.000   0.210  2.7551  1.6754  1.1307
  153MOL0     H21065   9.221   0.857   0.103  0.7053 -0.8856 -0.4140
  153MOL0     H21066   9.273   1.122  -0.028  0.2055  0.0102 -1.1396
  153MOL0     H21067   9.227   0.969  -0.092  2.2721 -0.6314  1.0550
  153MOL0     H21068   9.013   1.020   0.076  0.7083  0.5914  0.7551
  153MOL0     H21069   9.067   1.191   0.074  3.2610 -0.0415  0.0012
  153MOL0     H21070   9.013   1.203  -0.161 -0.7056 -0.1586 -1.6085
  153MOL0     H21071   9.004   1.030  -0.174  1.4593  1.6894 -1.6181
  153MOL0     H21072   8.613   1.012  -0.090 -0.6172  0.5072  1.1533
  153MOL0     H21073   8.365   0.998  -0.352  2.2007  0.9324 -0.9567
  153MOL0     H21074   8.318   1.113  -0.226  0.3731 -1.4291  2.1592
  153MOL0     H21075   8.391   0.971  -0.175  1.5400 -1.7088  0.4630
  153MOL0     H21076   8.517   1.351  -0.729 -0.6953  0.1380 -0.3439
  153MOL0     H21077   8.389   1.440  -0.929 -0.4609  0.2228  0.0877
  153MOL0     H21078   8.343   1.635  -1.100  0.3874 -0.4278 -0.4895
  153MOL0     H21079   8.210   1.517  -1.059  0.5169 -0.2369  0.3897
  153MOL0     H21080   8.155   1.809  -1.168 -1.2705 -0.3908  0.8790
  153MOL0     H21081   8.134   1.642  -1.226 -0.2121  1.7076 -1.7585
  153MOL0     H21082   7.973   1.823  -1.070  0.6106  0.9297 -2.1212
  153MOL0     H21083   8.017   1.703  -0.963  2.6253  3.4907  1.2318
  153MOL0     H21084   7.922   1.532  -1.128 -3.7475 -0.1921  2.5863
  153MOL0     H21085   7.897   1.660  -1.240  1.0154 -4.0737 -0.6460
  153MOL0     H21086   7.756   1.658  -0.956  0.4526 -0.4765 -0.5308
  153MOL0     H21087   7.715   1.769  -1.083 -0.7657  0.6977  4.6790
  153MOL0     H21088   7.674   1.470  -1.085 -0.6298 -1.2840 -2.3261
  153MOL0     H21089   7.628   1.578  -1.219  0.0488  0.8591  0.5804
  153MOL0     H21090   7.485   1.699  -1.045  0.3057  0.1482 -1.2383
  153MOL0     H21091   7.551   1.586  -0.920  0.2717  0.4552 -0.5308
  153MOL0     H21092   7.319   1.531  -0.991 -0.3011  0.3431 -0.0930
  153MOL0     H21093   7.428   1.409  -1.016 -1.6177  0.0296 -1.7071
  153MOL0     H21094   8.186   1.715  -0.673 -1.8783 -2.5643 -0.1687
  153MOL0     H21095   8.328   1.634  -0.479  1.6756 -0.4178  0.4026
  153MOL0     H21096   8.690   1.407  -0.376 -0.9832  0.5252  0.4509
  153MOL0     H21097   8.856   1.326  -0.228 -1.4742  2.3377 -0.9251
  153MOL0     H21098  10.106   0.073   0.472  3.5941 -1.1851 -2.8996
  153MOL0     H21099  10.345   0.019   0.504  0.0048 -0.6389 -0.4147
  153MOL0     H21100  10.697   0.155   0.839  0.0992 -0.4228  0.9485
  153MOL0     H21101  10.871   0.093   0.957  1.1177  1.5201 -0.7875
  153MOL0     H21102  11.136   0.078   0.993 -2.0788  1.2728 -4.2011
  153MOL0     H21103  11.028  -0.051   1.046  1.7160 -3.5327  0.9857
  153MOL0     H21104  11.163  -0.210   1.025 -2.9110  1.9007  3.4431
  153MOL0     H21105  11.241  -0.084   1.138 -0.4367  3.1349  0.0161
  153MOL0     H21106  11.332  -0.172   0.857  1.7612 -0.1852 -1.0986
  153MOL0     H21107  11.389  -0.018   0.924 -0.1498  1.5052  5.5351
  153MOL0     H21108  11.569  -0.150   0.970  0.1432  2.1089  1.5373
  153MOL0     H21109  11.465  -0.276   1.045  3.1509  0.4397  0.9586
  153MOL0     H21110  11.498   0.020   1.342 -3.0541  1.2770 -0.1400
  153MOL0     H21111  11.017  -0.134   0.620  0.2120  2.1193 -1.3159
  153MOL0     H21112  10.738  -0.151   0.438 -0.3656  0.4717 -0.2180
  153MOL0     H21113  10.829  -0.006   0.386  0.1118 -0.0636 -0.5615
  153MOL0     H21114  10.912  -0.160   0.436  0.1735  0.3172  0.5600
  154MOL0     O21115   3.805   6.569   5.741  0.0920 -0.4040  0.4171
  154MOL0     C21116   3.704   6.529   5.800  0.2316  0.7772  0.6568
  154MOL0     O21117   3.655   6.575   5.918 -0.0773 -0.3421  0.0334
  154MOL0     C21118   3.730   6.665   5.985 -0.6955 -0.7453  0.2513
  154MOL0     C21119   3.695   6.804   6.002  0.0573 -0.4455 -0.0647
  154MOL0     C21120   3.776   6.893   6.073 -0.0947  0.1068 -0.3136
  154MOL0     C21121   3.896   6.841   6.135  0.5011 -0.2351 -0.0979
  154MOL0     O21122   3.986   6.920   6.213  0.8055 -1.0927  0.0153
  154MOL0     C21123   3.925   7.036   6.258  0.3354  0.2207 -0.6676
  154MOL0     C21124   3.997   7.090   6.383 -0.1486 -0.5502  0.7718
  154MOL0     C21125   3.937   7.032   6.509  0.4239 -0.5885  0.2079
  154MOL0     C21126   4.050   7.022   6.609  0.1343 -0.0206  0.3904
  154MOL0     C21127   3.976   6.986   6.738 -1.1738  0.2977 -0.7710
  154MOL0     C21128   4.067   6.966   6.860 -0.3174  0.9006  0.4290
  154MOL0     C21129   3.990   6.948   6.992 -0.9541 -0.0478 -0.1786
  154MOL0     C21130   4.089   6.923   7.113 -0.0988  0.2391  0.6289
  154MOL0     N21131   4.176   6.806   7.089 -0.6723  0.6865 -0.3074
  154MOL0     C21132   4.293   6.813   7.026  0.6381 -0.0323 -1.0615
  154MOL0     C21133   4.353   6.701   7.072 -0.4764  0.0596 -0.4733
  154MOL0     C21134   4.489   6.661   7.039 -0.8616  0.3947  0.7871
  154MOL0     C21135   4.586   6.741   7.125  0.4872 -0.3910  0.1252
  154MOL0     C21136   4.734   6.742   7.065  0.1817  0.6078  0.2635
  154MOL0     C21137   4.756   6.832   6.945 -0.5897  0.7744 -0.4427
  154MOL0     O21138   4.895   6.821   6.907 -0.0422  0.0273 -0.4072
  154MOL0     C21139   4.898   6.849   6.772 -0.3445 -0.4250 -1.1925
  154MOL0     C21140   4.902   6.747   6.680 -0.0332 -0.8057 -0.2600
  154MOL0     C21141   4.873   6.784   6.551 -0.0829  0.0706  0.4020
  154MOL0     C21142   4.880   6.673   6.457  0.4208 -0.3290 -0.1345
  154MOL0     C21143   4.864   6.921   6.500 -0.6166 -0.3991 -1.2969
  154MOL0     C21144   4.835   6.969   6.358 -0.7173  0.5165 -0.9642
  154MOL0     O21145   4.792   6.881   6.265  0.2093 -0.0148 -0.0182
  154MOL0     C21146   4.807   6.895   6.127 -0.3631  0.6125 -0.4693
  154MOL0     C21147   4.703   6.928   6.043 -1.0917  0.0712  0.2233
  154MOL0     C21148   4.732   6.925   5.907 -0.0927 -0.8065  0.6038
  154MOL0     C21149   4.848   6.882   5.854  1.0150 -0.2872  0.5295
  154MOL0     O21150   4.861   6.883   5.716 -0.0950 -0.2191  0.7012
  154MOL0     C21151   4.995   6.909   5.663  0.0629  0.3674 -0.0889
  154MOL0     C21152   4.988   6.950   5.514 -0.0530  0.2117 -0.9402
  154MOL0     C21153   4.973   6.829   5.414  0.3094  0.0795 -0.1279
  154MOL0     C21154   5.096   6.740   5.414  0.2037  1.0021  0.7395
  154MOL0     C21155   5.081   6.618   5.315  0.2038  0.2763 -1.1777
  154MOL0     C21156   5.194   6.522   5.351  0.0104  0.0451 -0.4077
  154MOL0     C21157   5.335   6.575   5.332  0.4753 -0.2058  0.0799
  154MOL0     C21158   5.361   6.619   5.186  0.4808 -0.0963 -1.5304
  154MOL0    Cl21159   5.321   6.474   5.084 -0.2284 -0.1726  0.0570
  154MOL0     C21160   4.957   6.859   5.939  1.2752  0.9271  0.1218
  154MOL0     C21161   4.934   6.862   6.079 -0.6876 -0.3974  0.5996
  154MOL0     O21162   4.854   7.089   6.331 -0.1623  0.1920 -0.7833
  154MOL0     C21163   4.854   7.017   6.601 -0.3574  1.2221  0.2672
  154MOL0     C21164   4.875   6.983   6.731 -1.0925 -0.2832 -0.1512
  154MOL0     N21165   4.282   6.631   7.168  0.1943 -0.2830  0.1467
  154MOL0     N21166   4.172   6.705   7.180  0.7477  0.2244 -0.0011
  154MOL0     C21167   3.926   6.707   6.122 -1.3034 -0.1735  0.1114
  154MOL0     C21168   3.858   6.619   6.040 -0.3977  0.6225  0.8113
  154MOL0     C21169   3.623   6.415   5.746  0.9607  0.3777 -0.2836
  154MOL0     C21170   3.495   6.377   5.809 -0.0529  0.5065 -0.0777
  154MOL0     C21171   3.414   6.271   5.757 -0.0209  0.9203  0.2743
  154MOL0     C21172   3.439   6.207   5.635  0.4390 -0.1326  0.2535
  154MOL0     O21173   3.353   6.102   5.610 -0.1693 -0.2347 -0.0368
  154MOL0     C21174   3.400   5.995   5.518  0.1475 -0.6975 -0.5534
  154MOL0     C21175   3.292   5.883   5.504 -0.0550  0.2895 -0.5288
  154MOL0     C21176   3.152   5.942   5.483  0.1423  0.3364 -0.7021
  154MOL0     C21177   3.076   5.855   5.369  0.2198 -0.0344 -0.1836
  154MOL0     C21178   2.957   5.924   5.367  0.4968  0.2537 -0.1593
  154MOL0     C21179   2.861   5.996   5.384 -0.3903 -0.0276 -0.2509
  154MOL0     C21180   3.556   6.248   5.571  0.5911  0.0176 -0.3112
  154MOL0     C21181   3.653   6.332   5.628  0.9078 -0.1389  0.6752
  154MOL0     C21182   3.774   6.351   5.543  0.7228 -0.3209  0.4691
  154MOL0     H21183   3.621   6.860   5.945  1.2318  0.9288 -0.2946
  154MOL0     H21184   3.739   6.995   6.073 -3.9342 -1.0714 -3.5597
  154MOL0     H21185   3.823   7.023   6.293  0.3029  1.8058 -0.1210
  154MOL0     H21186   3.912   7.107   6.176 -0.0868  1.2989  0.3047
  154MOL0     H21187   4.101   7.065   6.363 -0.1417  1.4696 -2.4449
  154MOL0     H21188   3.974   7.196   6.371 -2.5972 -1.2670 -2.5890
  154MOL0     H21189   3.858   7.101   6.542  0.5494  0.7068 -1.9367
  154MOL0     H21190   3.891   6.933   6.503  1.5553 -1.1018 -0.2398
  154MOL0     H21191   4.119   6.939   6.590  0.5897 -0.1721  2.4876
  154MOL0     H21192   4.109   7.113   6.618 -1.1724  0.8101  0.9021
  154MOL0     H21193   3.920   6.895   6.714  0.5673 -0.6927 -1.2799
  154MOL0     H21194   3.908   7.066   6.769 -0.6889  0.3688  0.1494
  154MOL0     H21195   4.109   6.868   6.833  1.8201  1.3240  1.9738
  154MOL0     H21196   4.139   7.046   6.873 -1.5901  2.2758 -0.6561
  154MOL0     H21197   3.931   6.857   6.989 -1.5404  0.3277 -0.1345
  154MOL0     H21198   3.914   7.023   7.015 -2.2875 -1.0037 -1.3163
  154MOL0     H21199   4.150   7.014   7.115 -2.0785  1.7685 -1.5417
  154MOL0     H21200   4.016   6.915   7.194 -0.0093 -2.9641  0.4936
  154MOL0     H21201   4.331   6.894   6.965  3.0424 -0.6527 -0.5230
  154MOL0     H21202   4.506   6.681   6.933 -0.7703 -1.6982  0.3710
  154MOL0     H21203   4.500   6.553   7.050 -2.0554 -0.1066 -2.1446
  154MOL0     H21204   4.556   6.845   7.144 -2.8794 -1.6837  2.8417
  154MOL0     H21205   4.588   6.691   7.222  1.1695  1.3746  1.0677
  154MOL0     H21206   4.802   6.774   7.144  1.8907 -1.5480 -0.2373
  154MOL0     H21207   4.760   6.639   7.038 -0.1649  1.0192 -1.8596
  154MOL0     H21208   4.700   6.805   6.855 -1.1327  1.1851 -0.2359
  154MOL0     H21209   4.732   6.934   6.976  2.4010  1.2832  0.4548
  154MOL0     H21210   4.919   6.644   6.712 -1.1809 -0.1508  2.8214
  154MOL0     H21211   4.920   6.590   6.515  0.3739  0.3942  0.9642
  154MOL0     H21212   4.948   6.697   6.375  0.4916  0.5878  0.1838
  154MOL0     H21213   4.776   6.659   6.423  1.1209 -2.7615 -1.5343
  154MOL0     H21214   4.605   6.960   6.079  0.0912 -1.7759  6.2064
  154MOL0     H21215   4.652   6.953   5.839  1.1140  0.0416 -0.4947
  154MOL0     H21216   5.054   6.988   5.710  0.6301  0.0030 -0.1684
  154MOL0     H21217   5.057   6.820   5.683 -0.6009  0.0145  0.4376
  154MOL0     H21218   4.900   7.015   5.516 -1.5392 -1.6600 -1.8740
  154MOL0     H21219   5.068   7.013   5.475 -1.4307  0.5092 -3.4601
  154MOL0     H21220   4.975   6.877   5.315 -3.1328  3.3749  1.1312
  154MOL0     H21221   4.877   6.777   5.417 -0.9102  2.0883 -1.5412
  154MOL0     H21222   5.099   6.702   5.516 -1.5629  2.0762  1.2279
  154MOL0     H21223   5.180   6.802   5.381 -0.1989  1.2448  0.1413
  154MOL0     H21224   4.984   6.567   5.323 -0.2550  1.1600 -0.9425
  154MOL0     H21225   5.097   6.639   5.209  1.0315 -2.8003 -1.7576
  154MOL0     H21226   5.181   6.433   5.288 -1.2845  0.9737 -1.5068
  154MOL0     H21227   5.184   6.477   5.450  0.0216 -0.1934 -0.5148
  154MOL0     H21228   5.399   6.489   5.354  1.2283  0.1426 -0.6837
  154MOL0     H21229   5.355   6.662   5.394 -1.9668  3.9497 -4.2863
  154MOL0     H21230   5.466   6.646   5.172  0.5419 -0.3626 -1.5961
  154MOL0     H21231   5.298   6.695   5.139  1.3862  0.3938 -1.9833
  154MOL0     H21232   5.049   6.829   5.890  1.0405  0.8495 -0.2762
  154MOL0     H21233   5.002   6.842   6.161 -1.2106  0.2448  1.2051
  154MOL0     H21234   4.823   7.117   6.572 -3.4179  0.2071 -0.4278
  154MOL0     H21235   4.855   7.071   6.791 -1.8389  1.1640 -2.3973
  154MOL0     H21236   4.013   6.675   6.179 -0.6378  1.9435  0.3770
  154MOL0     H21237   3.883   6.514   6.035 -3.4072 -0.1739  0.1280
  154MOL0     H21238   3.457   6.436   5.892  0.8167  0.4396  0.3877
  154MOL0     H21239   3.318   6.253   5.804 -0.0389 -1.4266 -0.5412
  154MOL0     H21240   3.420   6.041   5.420  2.2966  0.5530  0.4125
  154MOL0     H21241   3.486   5.932   5.542  0.7784  0.2468 -0.2872
  154MOL0     H21242   3.287   5.812   5.588  0.3785 -0.0579 -0.7913
  154MOL0     H21243   3.325   5.822   5.419  1.3830 -0.9658  0.8590
  154MOL0     H21244   3.104   5.952   5.581  3.1536  0.6758  0.8567
  154MOL0     H21245   3.160   6.044   5.443  3.0566  1.1582  1.6891
  154MOL0     H21246   3.056   5.754   5.407 -3.0233  0.4543 -0.2644
  154MOL0     H21247   3.115   5.848   5.267  2.8109  1.4877  0.6057
  154MOL0     H21248   2.797   6.077   5.412  0.4974  0.4649  0.4193
  154MOL0     H21249   3.578   6.214   5.471  0.6600 -0.0749 -0.2647
  154MOL0     H21250   3.800   6.263   5.484  1.2041 -0.7420  1.2843
  154MOL0     H21251   3.739   6.423   5.468 -1.6354 -1.4947  0.3322
  154MOL0     H21252   3.860   6.388   5.600  1.5804  0.2520 -1.1413
  155MOL0     O21253   5.402   3.956   7.135 -0.5531 -0.7919  0.4476
  155MOL0     C21254   5.498   3.961   7.208 -0.2888  0.2914  0.3185
  155MOL0     O21255   5.525   4.068   7.292  0.5933  0.4081  0.6454
  155MOL0     C21256   5.429   4.162   7.318  0.5362  1.3138  0.2786
  155MOL0     C21257   5.328   4.144   7.410  0.9621 -0.1418 -1.0577
  155MOL0     C21258   5.222   4.234   7.426 -0.3195  0.0731  0.9839
  155MOL0     C21259   5.231   4.361   7.371  0.3015 -0.4976 -0.6373
  155MOL0     O21260   5.150   4.469   7.409  0.8535  0.1001 -0.3493
  155MOL0     C21261   5.173   4.601   7.365  0.7393 -1.1282 -0.0590
  155MOL0     C21262   5.258   4.684   7.466  0.0717  0.8551  1.0698
  155MOL0     C21263   5.170   4.718   7.589  0.1865 -0.2780 -0.2799
  155MOL0     C21264   5.248   4.806   7.688 -0.3798 -0.8637  0.7254
  155MOL0     C21265   5.159   4.879   7.787  0.0940 -0.6546  0.0599
  155MOL0     C21266   5.251   4.991   7.841  0.2319 -0.3324 -1.0228
  155MOL0     C21267   5.175   5.082   7.944 -1.0744  0.5218  0.3425
  155MOL0     C21268   5.082   5.186   7.880 -0.0812 -0.2014  0.4366
  155MOL0     N21269   4.974   5.230   7.972 -1.0437 -0.1498 -0.3757
  155MOL0     C21270   4.990   5.274   8.101 -0.5425 -0.3173 -0.4018
  155MOL0     C21271   4.870   5.298   8.151 -0.1245 -0.1858 -0.3327
  155MOL0     C21272   4.831   5.362   8.283  0.7520 -0.4412 -0.0444
  155MOL0     C21273   4.751   5.499   8.276 -0.2381  0.3569 -0.2609
  155MOL0     C21274   4.845   5.594   8.210 -0.2238 -0.5519 -0.1959
  155MOL0     C21275   4.787   5.732   8.223  0.3606 -0.7916 -0.3523
  155MOL0     O21276   4.901   5.811   8.175 -0.1313 -0.0303 -0.1183
  155MOL0     C21277   4.871   5.928   8.104  0.2543 -0.0644 -0.4602
  155MOL0     C21278   4.767   5.948   8.019  0.4446  0.3306  1.2395
  155MOL0     C21279   4.738   6.068   7.948  1.4672 -0.1064 -0.7643
  155MOL0     C21280   4.614   6.074   7.855  0.9714 -0.1989  0.2154
  155MOL0     C21281   4.818   6.185   7.990  0.4450  0.0942  0.5853
  155MOL0     C21282   4.785   6.319   7.940 -0.9856 -1.5016 -0.2891
  155MOL0     O21283   4.888   6.402   7.885  0.0746  0.1310 -0.5027
  155MOL0     C21284   4.858   6.536   7.889 -0.2942 -0.9216 -0.0513
  155MOL0     C21285   4.973   6.616   7.907 -0.8995 -0.1182  0.4301
  155MOL0     C21286   4.970   6.752   7.888 -0.6895 -0.9854 -0.7715
  155MOL0     C21287   4.850   6.822   7.857  1.4271  0.9608 -0.6866
  155MOL0     O21288   4.868   6.956   7.845 -0.5533  0.6726  0.0177
  155MOL0     C21289   4.761   7.041   7.805  0.2768  0.1077  0.1663
  155MOL0     C21290   4.797   7.184   7.828  0.3268 -0.2946 -0.2023
  155MOL0     C21291   4.729   7.224   7.962  0.4354 -0.7241 -0.5304
  155MOL0     C21292   4.798   7.358   7.990  0.6573 -0.0422  0.5579
  155MOL0     C21293   4.736   7.413   8.116 -0.2470  0.0792  0.5261
  155MOL0     C21294   4.813   7.530   8.165  0.3402  0.3776  0.2001
  155MOL0     C21295   4.779   7.567   8.309  0.3051  0.7010  1.1880
  155MOL0     C21296   4.631   7.602   8.324 -0.4739  0.3669  0.8614
  155MOL0    Cl21297   4.578   7.738   8.209  0.1428  0.6807  0.0480
  155MOL0     C21298   4.724   6.739   7.854 -0.5618 -0.4597 -0.4484
  155MOL0     C21299   4.741   6.604   7.859 -0.5704 -0.3875  0.1533
  155MOL0     O21300   4.670   6.355   7.960 -0.1567  0.5537  0.3094
  155MOL0     C21301   4.922   6.171   8.081 -0.3180  0.5924  0.1621
  155MOL0     C21302   4.946   6.043   8.134  0.1027  0.0179 -0.2158
  155MOL0     N21303   4.779   5.284   8.051 -0.2693  0.1143 -0.0689
  155MOL0     N21304   4.843   5.235   7.948 -0.0884 -0.0519  0.4064
  155MOL0     C21305   5.348   4.391   7.293 -0.2012  0.2092  0.0786
  155MOL0     C21306   5.436   4.285   7.256  0.0954 -0.1418 -1.1085
  155MOL0     C21307   5.586   3.843   7.208  0.0796  0.6636 -0.0031
  155MOL0     C21308   5.656   3.812   7.323  0.0899  0.1352  0.2007
  155MOL0     C21309   5.732   3.696   7.340 -0.7328  0.1832  0.8381
  155MOL0     C21310   5.734   3.606   7.241 -0.2176 -1.2303 -0.7171
  155MOL0     O21311   5.815   3.498   7.257 -0.5218 -0.0680  0.4717
  155MOL0     C21312   5.795   3.375   7.182  0.6050 -1.0461 -0.6142
  155MOL0     C21313   5.763   3.282   7.290  0.1755 -0.3404 -0.3763
  155MOL0     C21314   5.897   3.229   7.349 -0.6569  0.2736 -0.1805
  155MOL0     C21315   5.900   3.244   7.499  0.3078  0.1819 -0.3942
  155MOL0     C21316   6.042   3.243   7.547 -0.3476 -0.0729  0.2652
  155MOL0     C21317   6.148   3.241   7.609  0.1643 -0.2035  0.0455
  155MOL0     C21318   5.654   3.629   7.131  0.0009 -0.2960  0.6046
  155MOL0     C21319   5.585   3.748   7.103  0.0393 -0.4572 -1.0294
  155MOL0     C21320   5.514   3.764   6.976 -0.1866  0.4456 -0.9090
  155MOL0     H21321   5.330   4.052   7.467  1.9097 -0.4021 -1.4859
  155MOL0     H21322   5.134   4.197   7.478  0.2569  1.0549  2.7530
  155MOL0     H21323   5.080   4.658   7.375 -0.1088 -2.4342 -0.3167
  155MOL0     H21324   5.211   4.607   7.263  0.3676 -1.8213 -0.2461
  155MOL0     H21325   5.329   4.614   7.511  0.0971  0.0066 -0.2688
  155MOL0     H21326   5.324   4.761   7.425  1.4903  0.5780  2.6776
  155MOL0     H21327   5.077   4.764   7.556  0.9899  0.3925 -1.7037
  155MOL0     H21328   5.153   4.625   7.645  2.1238 -0.1476  0.6323
  155MOL0     H21329   5.329   4.752   7.739 -0.9728 -1.2733  1.2422
  155MOL0     H21330   5.296   4.881   7.625  0.6806 -0.7465  1.6371
  155MOL0     H21331   5.116   4.815   7.865 -0.1073  2.7468  2.9669
  155MOL0     H21332   5.077   4.922   7.728 -1.7143  0.4718  3.1268
  155MOL0     H21333   5.319   4.943   7.912  2.6561  2.3151 -1.4021
  155MOL0     H21334   5.307   5.045   7.764 -0.0799  0.5917 -0.6088
  155MOL0     H21335   5.256   5.130   8.000  0.8903 -2.3097  0.1540
  155MOL0     H21336   5.125   5.014   8.012 -0.0758  1.6397  2.2735
  155MOL0     H21337   5.143   5.271   7.847 -0.4958  1.0815  2.7199
  155MOL0     H21338   5.041   5.151   7.785  0.9858 -0.6259  0.1193
  155MOL0     H21339   5.089   5.281   8.145 -1.2330  0.2661  1.1337
  155MOL0     H21340   4.921   5.380   8.344  0.1945 -0.6160  0.8503
  155MOL0     H21341   4.763   5.291   8.330 -0.3258  0.8029  0.3234
  155MOL0     H21342   4.658   5.495   8.218 -2.9665  3.2864  3.4566
  155MOL0     H21343   4.721   5.525   8.378 -1.4953 -2.5101  0.2180
  155MOL0     H21344   4.945   5.584   8.254  1.0695 -1.2014 -3.0810
  155MOL0     H21345   4.869   5.573   8.106  0.2877  4.7574 -1.4506
  155MOL0     H21346   4.704   5.742   8.152 -0.9719 -1.1805  1.0941
  155MOL0     H21347   4.752   5.769   8.320  0.8610  2.2107 -1.2015
  155MOL0     H21348   4.697   5.868   7.994  2.4711 -1.3537  0.6659
  155MOL0     H21349   4.634   6.028   7.757  2.4657 -3.4343  1.8637
  155MOL0     H21350   4.579   6.175   7.831 -2.7475 -0.9429  1.8106
  155MOL0     H21351   4.536   6.014   7.902 -0.4776 -1.8320 -3.8310
  155MOL0     H21352   5.073   6.573   7.908 -0.3893  1.0411  1.2310
  155MOL0     H21353   5.054   6.814   7.918 -3.3968  3.1980 -0.9482
  155MOL0     H21354   4.745   7.030   7.698  2.2937  0.3425 -0.1859
  155MOL0     H21355   4.663   7.011   7.843 -0.6044 -0.5669 -2.4250
  155MOL0     H21356   4.906   7.183   7.831  0.4447 -4.0913 -0.8353
  155MOL0     H21357   4.768   7.240   7.739  2.6142 -1.8911 -2.0826
  155MOL0     H21358   4.749   7.159   8.048  0.5928  0.7647  0.6034
  155MOL0     H21359   4.621   7.228   7.949  0.3514 -3.8027 -1.6551
  155MOL0     H21360   4.788   7.425   7.904  1.8554  0.4803  0.8092
  155MOL0     H21361   4.905   7.334   7.994  0.8205  0.2623 -1.3019
  155MOL0     H21362   4.635   7.448   8.091  1.0379  1.2822 -3.8704
  155MOL0     H21363   4.720   7.338   8.194 -1.7545  2.0220  2.1879
  155MOL0     H21364   4.802   7.614   8.097  0.2022  1.9783  2.0988
  155MOL0     H21365   4.920   7.512   8.169  0.5960  1.3091 -1.4786
  155MOL0     H21366   4.836   7.652   8.346  1.3746  1.1413 -1.2695
  155MOL0     H21367   4.789   7.475   8.368 -1.7647 -0.8339 -0.6664
  155MOL0     H21368   4.615   7.627   8.429  1.4682 -0.0457  1.3109
  155MOL0     H21369   4.569   7.514   8.305 -1.3694  1.0702  0.4897
  155MOL0     H21370   4.634   6.796   7.833  0.7901  2.1981  0.4359
  155MOL0     H21371   4.643   6.563   7.836 -2.5644  3.5578  0.8018
  155MOL0     H21372   4.977   6.256   8.122  1.5555 -0.3980 -0.1940
  155MOL0     H21373   5.021   6.057   8.212 -2.4211  0.9709  2.2290
  155MOL0     H21374   5.379   4.490   7.263 -2.5375  0.8214 -0.5261
  155MOL0     H21375   5.523   4.308   7.196  2.2379  0.5332  2.0294
  155MOL0     H21376   5.660   3.879   7.408  0.3736  2.3770 -1.5129
  155MOL0     H21377   5.796   3.691   7.428 -1.7165 -2.3344  1.4686
  155MOL0     H21378   5.702   3.372   7.123 -0.2512  1.1891  0.4869
  155MOL0     H21379   5.884   3.341   7.128 -0.5739 -0.8260 -2.8019
  155MOL0     H21380   5.703   3.204   7.243 -0.1838 -0.8849  0.9519
  155MOL0     H21381   5.699   3.330   7.366  2.1444 -0.5345  1.5033
  155MOL0     H21382   5.912   3.123   7.329  4.2091 -0.3012  4.3923
  155MOL0     H21383   5.986   3.283   7.315  0.5952  0.6065  3.2319
  155MOL0     H21384   5.841   3.165   7.547 -0.8958  1.8765  1.0769
  155MOL0     H21385   5.856   3.342   7.520  0.3561  0.3881 -1.2144
  155MOL0     H21386   6.242   3.247   7.660 -0.1199  0.5847  0.4891
  155MOL0     H21387   5.651   3.555   7.052 -2.3697  1.9569 -1.5961
  155MOL0     H21388   5.406   3.747   6.975 -0.6109  2.2110  2.1406
  155MOL0     H21389   5.520   3.870   6.950  0.0608  0.7905  0.4657
  155MOL0     H21390   5.567   3.709   6.898  2.9301 -0.8773  1.9019
  156MOL0     O21391   7.325  10.236   6.044  0.0826 -0.1284  0.3421
  156MOL0     C21392   7.407  10.187   6.118 -1.2133  0.0534  0.1330
  156MOL0     O21393   7.370  10.106   6.223 -0.0825 -0.7190 -0.1746
  156MOL0     C21394   7.248  10.044   6.199  0.7674 -0.8605 -0.1225
  156MOL0     C21395   7.131  10.087   6.256  0.4905  0.2633 -0.3724
  156MOL0     C21396   7.013  10.019   6.236  0.2193  0.5183  0.0827
  156MOL0     C21397   7.005   9.913   6.139 -0.1190 -0.6928 -1.6832
  156MOL0     O21398   6.876   9.855   6.113 -0.1158  0.5644 -0.5385
  156MOL0     C21399   6.827   9.765   6.215 -0.2102  0.3153 -0.1591
  156MOL0     C21400   6.725   9.676   6.150 -0.0114 -1.2495 -0.4169
  156MOL0     C21401   6.772   9.595   6.029 -0.3170  0.5744  0.3769
  156MOL0     C21402   6.760   9.440   6.049 -0.7596  0.4723 -0.2442
  156MOL0     C21403   6.816   9.378   6.179 -0.2101 -0.1050  0.2144
  156MOL0     C21404   6.869   9.229   6.165  0.3244  0.3904  0.1086
  156MOL0     C21405   6.757   9.129   6.136  0.7263 -0.7510 -0.2428
  156MOL0     C21406   6.807   8.977   6.149 -0.1164  0.2236  0.1182
  156MOL0     N21407   6.699   8.903   6.073 -0.2590 -0.2729  0.1310
  156MOL0     C21408   6.713   8.794   5.986 -0.5574 -0.4677  0.0588
  156MOL0     C21409   6.591   8.748   5.950  0.6100 -0.4753  0.7896
  156MOL0     C21410   6.559   8.636   5.852 -0.0696 -0.0986 -0.2700
  156MOL0     C21411   6.617   8.505   5.903  0.3226 -0.2340 -0.2678
  156MOL0     C21412   6.602   8.408   5.788  0.2541  0.4955  0.7918
  156MOL0     C21413   6.642   8.258   5.822 -0.7089 -0.4364  0.3357
  156MOL0     O21414   6.582   8.224   5.949  1.0933 -0.9010  0.1163
  156MOL0     C21415   6.655   8.156   6.037  0.9514  0.2299 -0.2828
  156MOL0     C21416   6.725   8.225   6.133  0.2818  1.3723 -0.3851
  156MOL0     C21417   6.807   8.161   6.230 -0.4456  0.3242  0.7261
  156MOL0     C21418   6.894   8.232   6.325  0.3507 -0.1962 -0.9992
  156MOL0     C21419   6.815   8.017   6.214  0.3307 -0.1432 -0.4978
  156MOL0     C21420   6.906   7.949   6.301 -1.2056  0.1055  0.2830
  156MOL0     O21421   6.892   7.949   6.432  0.8480 -0.5153 -0.3996
  156MOL0     C21422   6.947   7.834   6.490  0.3489 -0.5130  0.7131
  156MOL0     C21423   6.893   7.704   6.471  0.4808  0.1453 -0.5478
  156MOL0     C21424   6.939   7.597   6.553  0.0021 -0.3365  0.3795
  156MOL0     C21425   7.026   7.618   6.659 -0.4201  0.1087 -0.5751
  156MOL0     O21426   7.067   7.514   6.739 -0.2515  0.1872 -0.1022
  156MOL0     C21427   7.162   7.541   6.849 -0.2083 -0.2290  0.2673
  156MOL0     C21428   7.204   7.406   6.905 -1.1007  0.2396  0.3494
  156MOL0     C21429   7.315   7.401   7.010 -0.1151 -0.5707 -0.9552
  156MOL0     C21430   7.336   7.249   7.042 -0.9037  0.2174  0.3169
  156MOL0     C21431   7.452   7.242   7.138  0.0612  0.7812 -0.1497
  156MOL0     C21432   7.416   7.238   7.295 -0.0968  0.1272  0.0969
  156MOL0     C21433   7.538   7.222   7.391  0.9343 -0.6324  0.3746
  156MOL0     C21434   7.636   7.321   7.361 -1.0273 -0.2125 -0.1552
  156MOL0    Cl21435   7.758   7.309   7.495 -0.2295 -0.1259  0.1568
  156MOL0     C21436   7.077   7.750   6.678 -0.7237 -0.0541  0.2456
  156MOL0     C21437   7.028   7.861   6.607 -0.2102  0.3780  0.2289
  156MOL0     O21438   6.986   7.891   6.237  0.0996  0.4097  0.0965
  156MOL0     C21439   6.736   7.951   6.117  0.3725 -0.9102  0.1292
  156MOL0     C21440   6.664   8.017   6.029  0.1252 -1.0333 -0.4197
  156MOL0     N21441   6.505   8.838   6.010 -0.2592 -0.4177  0.7001
  156MOL0     N21442   6.564   8.913   6.095 -0.7260  0.1484  0.5599
  156MOL0     C21443   7.120   9.876   6.075  0.5137  0.9338  0.4254
  156MOL0     C21444   7.244   9.946   6.105  0.3792  0.0033 -0.5320
  156MOL0     C21445   7.543  10.226   6.103 -0.5100  0.2006 -0.9495
  156MOL0     C21446   7.589  10.331   6.188 -0.2812  0.1075  0.5556
  156MOL0     C21447   7.727  10.384   6.178  1.0485  0.9171 -0.1753
  156MOL0     C21448   7.807  10.319   6.084 -0.2596 -0.2094 -0.9144
  156MOL0     O21449   7.946  10.331   6.096 -0.3261 -0.4025 -0.5492
  156MOL0     C21450   8.031  10.294   5.983  0.2802  0.1607  0.0929
  156MOL0     C21451   8.164  10.367   5.993 -0.4579 -0.4052  0.8943
  156MOL0     C21452   8.266  10.295   6.098  0.2969 -0.5770 -0.1298
  156MOL0     C21453   8.313  10.150   6.055  0.4703  0.1068  0.1691
  156MOL0     C21454   8.408  10.156   5.948 -0.1621  0.0163  0.6245
  156MOL0     C21455   8.491  10.147   5.860 -0.1110 -0.3119  0.2950
  156MOL0     C21456   7.755  10.226   5.993 -0.0428  1.4416 -0.7947
  156MOL0     C21457   7.623  10.169   6.000 -0.1757  0.0660 -1.4196
  156MOL0     C21458   7.575  10.076   5.896  0.5463 -0.1967 -0.7167
  156MOL0     H21459   7.122  10.164   6.331 -0.2082  3.2219 -3.2569
  156MOL0     H21460   6.919  10.044   6.283 -0.4126 -0.0236 -0.8534
  156MOL0     H21461   6.773   9.825   6.290  4.9146  4.6352  0.6274
  156MOL0     H21462   6.911   9.716   6.265  1.5672  2.4458 -0.9027
  156MOL0     H21463   6.683   9.610   6.227  0.8152 -1.1875  0.0936
  156MOL0     H21464   6.637   9.730   6.114 -0.4901 -2.6348 -1.3852
  156MOL0     H21465   6.714   9.618   5.939  0.9475 -1.7520 -1.1519
  156MOL0     H21466   6.879   9.616   6.018  0.3144 -1.8398  1.3005
  156MOL0     H21467   6.653   9.416   6.048 -0.2998 -1.7399 -0.6831
  156MOL0     H21468   6.803   9.393   5.960 -5.0879  1.0115 -2.8834
  156MOL0     H21469   6.739   9.372   6.257 -1.4242 -0.7934 -0.9963
  156MOL0     H21470   6.901   9.445   6.197  2.5871 -3.2875 -0.2018
  156MOL0     H21471   6.949   9.215   6.091  1.0599 -0.8170  1.0904
  156MOL0     H21472   6.904   9.197   6.263 -0.6673 -2.0959 -0.2812
  156MOL0     H21473   6.701   9.156   6.046  1.7129  0.3329 -0.5649
  156MOL0     H21474   6.687   9.141   6.219 -0.7579 -0.3229 -1.5020
  156MOL0     H21475   6.904   8.961   6.102 -0.8856 -1.3415 -1.0219
  156MOL0     H21476   6.810   8.945   6.253  0.5340 -3.2857 -0.8715
  156MOL0     H21477   6.811   8.757   5.956  1.0237  2.2475  1.4914
  156MOL0     H21478   6.593   8.668   5.753  3.9150  1.3991  1.3595
  156MOL0     H21479   6.451   8.621   5.852  0.2339 -3.1365  1.1907
  156MOL0     H21480   6.725   8.510   5.918  0.5836 -0.9668 -1.6995
  156MOL0     H21481   6.567   8.466   5.992  2.3840 -0.2975  0.9251
  156MOL0     H21482   6.495   8.401   5.764  0.1887  1.5526  0.7481
  156MOL0     H21483   6.638   8.440   5.690 -2.1147 -0.5818 -0.5303
  156MOL0     H21484   6.613   8.190   5.742 -1.4853 -0.2750  0.4713
  156MOL0     H21485   6.751   8.257   5.818 -0.6921 -2.9752 -0.4049
  156MOL0     H21486   6.704   8.330   6.149 -2.8080  0.7321  0.4019
  156MOL0     H21487   6.838   8.248   6.417  0.5371  0.1465 -0.9451
  156MOL0     H21488   6.920   8.326   6.276  2.0294 -0.3043 -0.3865
  156MOL0     H21489   6.988   8.180   6.347 -0.1280 -0.4274  0.5732
  156MOL0     H21490   6.819   7.690   6.392 -1.0336 -3.2354  1.2333
  156MOL0     H21491   6.910   7.498   6.519 -1.4383  0.5233 -1.0513
  156MOL0     H21492   7.247   7.596   6.808  0.4817 -0.0263  1.8735
  156MOL0     H21493   7.125   7.606   6.930  1.7856  2.2884 -0.6814
  156MOL0     H21494   7.110   7.363   6.942 -1.2279 -0.3898 -0.6587
  156MOL0     H21495   7.231   7.337   6.824  5.2335 -0.5438  2.5800
  156MOL0     H21496   7.279   7.462   7.094  0.4421  0.3932 -1.3999
  156MOL0     H21497   7.402   7.448   6.963 -0.3644 -0.2941 -1.1459
  156MOL0     H21498   7.352   7.200   6.946 -0.0878  2.8606 -0.9959
  156MOL0     H21499   7.259   7.180   7.076 -0.7851 -0.9140 -1.6034
  156MOL0     H21500   7.496   7.146   7.111  1.3549  1.1403  0.6143
  156MOL0     H21501   7.537   7.307   7.112  0.3597 -0.1527 -1.6113
  156MOL0     H21502   7.342   7.158   7.308 -1.3869  1.6256  3.0331
  156MOL0     H21503   7.368   7.335   7.310  0.8089  0.5733  0.1865
  156MOL0     H21504   7.568   7.122   7.360  1.1172 -0.5402  0.2610
  156MOL0     H21505   7.509   7.213   7.497 -3.9583 -2.1636 -0.8305
  156MOL0     H21506   7.593   7.422   7.367  0.6607  0.5700 -0.7697
  156MOL0     H21507   7.684   7.299   7.266 -0.9574 -2.9622  0.4413
  156MOL0     H21508   7.131   7.783   6.766 -2.1877  1.7684  0.5334
  156MOL0     H21509   7.053   7.963   6.634  0.0712  0.2349  0.5168
  156MOL0     H21510   6.752   7.846   6.098  0.4564 -1.0364  0.8870
  156MOL0     H21511   6.617   7.974   5.940 -0.3274  0.1120 -0.7472
  156MOL0     H21512   7.124   9.806   5.992 -0.0026  2.2009 -0.7079
  156MOL0     H21513   7.329   9.909   6.047 -0.6332  0.2729 -2.2303
  156MOL0     H21514   7.514  10.368   6.257 -2.0793 -1.6464 -0.3528
  156MOL0     H21515   7.761  10.461   6.247 -2.6054  1.1316  1.6298
  156MOL0     H21516   8.050  10.188   6.001 -0.1261  0.6654  4.5776
  156MOL0     H21517   7.986  10.315   5.885 -0.3036 -0.6995  0.1679
  156MOL0     H21518   8.146  10.472   6.020 -0.5455 -0.1059 -0.2720
  156MOL0     H21519   8.210  10.381   5.895 -2.7541  0.7418 -0.1136
  156MOL0     H21520   8.352  10.359   6.120 -1.8283  2.2035  0.7262
  156MOL0     H21521   8.205  10.284   6.188  1.7353  0.6622  1.0776
  156MOL0     H21522   8.225  10.087   6.042 -0.4573  1.2086  0.9234
  156MOL0     H21523   8.368  10.104   6.138 -0.2046 -1.7299 -0.3580
  156MOL0     H21524   8.569  10.149   5.786 -1.9942  0.6799 -1.7761
  156MOL0     H21525   7.824  10.185   5.920  3.8011  5.4317  0.1484
  156MOL0     H21526   7.475  10.104   5.865 -1.4999 -3.6506  1.9719
  156MOL0     H21527   7.634  10.091   5.805  0.0334  2.7816 -0.6346
  156MOL0     H21528   7.562   9.972   5.929 -3.2615 -0.2798 -2.0073
  157MOL0     O21529  11.292   8.068   5.216 -0.7784  0.0997  0.4927
  157MOL0     C21530  11.180   8.022   5.191  0.1010 -0.9694  0.5155
  157MOL0     O21531  11.159   7.892   5.153 -0.6260 -0.0594  0.3238
  157MOL0     C21532  11.240   7.803   5.218 -0.5172 -0.9960  0.2012
  157MOL0     C21533  11.240   7.778   5.354 -0.2934  0.3156  0.5624
  157MOL0     C21534  11.317   7.684   5.420 -0.7550 -0.4111 -0.3296
  157MOL0     C21535  11.405   7.604   5.341  0.1898 -0.6185 -0.0983
  157MOL0     O21536  11.482   7.506   5.395 -0.0517  0.0403 -0.3851
  157MOL0     C21537  11.529   7.539   5.529  1.4234  0.3508 -0.5526
  157MOL0     C21538  11.673   7.496   5.544 -0.4186 -0.5873 -0.1253
  157MOL0     C21539  11.781   7.611   5.518 -0.3707 -0.1125  0.4145
  157MOL0     C21540  11.781   7.673   5.377  0.3730  0.9698 -0.8523
  157MOL0     C21541  11.793   7.558   5.271 -0.1131  0.3247  0.8853
  157MOL0     C21542  11.866   7.592   5.144 -0.3288  0.4822 -0.1033
  157MOL0     C21543  11.917   7.484   5.056  0.7558  1.0959 -0.6444
  157MOL0     C21544  12.023   7.378   5.111 -0.2069  0.5675 -0.1730
  157MOL0     N21545  12.122   7.355   5.007  0.7046 -0.1576  0.0371
  157MOL0     C21546  12.106   7.269   4.898  0.1577  0.2237 -0.7865
  157MOL0     C21547  12.210   7.299   4.824  0.4838 -0.4041  0.8052
  157MOL0     C21548  12.221   7.228   4.691  0.8664  0.0214 -0.6901
  157MOL0     C21549  12.153   7.318   4.580  0.6577  0.2702  0.0412
  157MOL0     C21550  12.163   7.268   4.435  0.3582 -0.5490  0.6155
  157MOL0     C21551  12.309   7.282   4.402 -0.7071 -0.0843  0.2310
  157MOL0     O21552  12.325   7.247   4.263  0.2098  0.1700  0.0166
  157MOL0     C21553  12.438   7.165   4.224  0.3366 -1.1456 -0.3763
  157MOL0     C21554  12.427   7.111   4.094  0.5652  0.4002  0.2263
  157MOL0     C21555  12.525   7.027   4.045 -0.2178 -0.2957  0.3936
  157MOL0     C21556  12.503   6.977   3.905 -0.4537  0.1824  0.4302
  157MOL0     C21557  12.638   7.001   4.123 -0.8764 -0.4194 -1.1851
  157MOL0     C21558  12.748   6.911   4.075 -0.1843  0.7116  0.6083
  157MOL0     O21559  12.861   6.937   4.145 -0.0188  0.4253 -0.1766
  157MOL0     C21560  12.979   6.870   4.100  0.8124 -0.1207 -0.2159
  157MOL0     C21561  13.092   6.946   4.056  0.5372  0.1966 -0.5516
  157MOL0     C21562  13.216   6.893   4.029  0.3306 -0.4101 -0.8249
  157MOL0     C21563  13.236   6.757   4.052  0.5438  0.0172 -0.4680
  157MOL0     O21564  13.357   6.703   3.997  0.9529  0.0766 -0.8502
  157MOL0     C21565  13.462   6.730   4.085  0.3076 -0.8461  0.4870
  157MOL0     C21566  13.560   6.811   4.020 -0.8919 -0.1205 -0.0442
  157MOL0     C21567  13.668   6.733   3.944 -0.0810 -0.2996  0.3178
  157MOL0     C21568  13.764   6.817   3.862 -0.6905 -1.0831 -0.6070
  157MOL0     C21569  13.892   6.746   3.822  1.0048 -0.0718  0.2988
  157MOL0     C21570  13.863   6.626   3.745  0.9153 -0.0000 -0.5982
  157MOL0     C21571  13.970   6.621   3.633  0.4250 -1.1497  0.0326
  157MOL0     C21572  13.952   6.501   3.541 -0.2808  0.4093 -0.3651
  157MOL0    Cl21573  14.055   6.529   3.401  0.0054  0.1165 -0.0468
  157MOL0     C21574  13.129   6.685   4.105 -0.4479 -0.6356  0.7877
  157MOL0     C21575  12.996   6.741   4.128  0.4406 -0.1451 -0.1177
  157MOL0     O21576  12.742   6.840   3.974  0.7166  1.0867  0.6220
  157MOL0     C21577  12.655   7.055   4.250  0.0882 -1.2227  0.3391
  157MOL0     C21578  12.551   7.128   4.299  0.1988 -0.7953  0.2021
  157MOL0     N21579  12.285   7.397   4.877  0.1485 -0.2082 -0.3277
  157MOL0     N21580  12.232   7.438   4.984  0.3360 -0.5833 -0.4169
  157MOL0     C21581  11.408   7.626   5.203 -0.3223  0.2933  0.6021
  157MOL0     C21582  11.324   7.721   5.140  0.1733  0.3540 -0.7587
  157MOL0     C21583  11.075   8.109   5.163 -0.5943 -0.6466 -0.1294
  157MOL0     C21584  10.958   8.081   5.239  0.7880  0.0732 -0.7892
  157MOL0     C21585  10.840   8.155   5.218  0.4060  0.1102  0.1978
  157MOL0     C21586  10.847   8.265   5.135 -0.4392  1.0039  0.7425
  157MOL0     O21587  10.739   8.342   5.128  0.4980  0.2154 -0.9937
  157MOL0     C21588  10.669   8.329   5.011  0.9340  0.6596 -0.3869
  157MOL0     C21589  10.520   8.325   5.048  0.3416 -0.5342  0.5542
  157MOL0     C21590  10.460   8.456   5.094 -0.3791  0.1872  0.3386
  157MOL0     C21591  10.311   8.463   5.093 -0.4376 -0.4140  0.5171
  157MOL0     C21592  10.263   8.598   5.092  1.0634 -0.2875  0.5016
  157MOL0     C21593  10.205   8.710   5.083  0.2213  0.2451  0.2253
  157MOL0     C21594  10.958   8.287   5.051 -0.3741 -0.9122  0.0887
  157MOL0     C21595  11.073   8.213   5.075 -0.2857  0.2732  0.5900
  157MOL0     C21596  11.195   8.243   4.999 -0.2373  0.3052 -0.2252
  157MOL0     H21597  11.178   7.841   5.417  0.4221  0.9147  0.6835
  157MOL0     H21598  11.300   7.672   5.527 -1.5288 -1.7058 -0.5778
  157MOL0     H21599  11.473   7.492   5.611 -0.4709  1.6979 -0.9954
  157MOL0     H21600  11.520   7.646   5.551  0.0463 -0.0444  1.0962
  157MOL0     H21601  11.701   7.463   5.645  0.7417  0.1102 -0.2043
  157MOL0     H21602  11.698   7.411   5.479  0.5604 -1.2282  1.0349
  157MOL0     H21603  11.768   7.688   5.595 -1.7342 -0.3792  0.4929
  157MOL0     H21604  11.881   7.570   5.531 -0.4163 -0.8501 -1.2634
  157MOL0     H21605  11.693   7.724   5.336  0.9725 -0.9732 -5.1163
  157MOL0     H21606  11.861   7.745   5.358  1.7091 -0.6508 -1.5988
  157MOL0     H21607  11.692   7.537   5.236  0.3119 -0.5591  0.1481
  157MOL0     H21608  11.837   7.469   5.318  0.1308  0.3456  0.6992
  157MOL0     H21609  11.795   7.654   5.089  1.7419  1.1075 -2.2196
  157MOL0     H21610  11.952   7.650   5.178 -0.5568 -0.4854  2.3486
  157MOL0     H21611  11.955   7.528   4.963 -0.0541  1.1585 -0.9492
  157MOL0     H21612  11.829   7.431   5.018  0.7619 -0.0771  0.8834
  157MOL0     H21613  12.076   7.419   5.197  0.7104  1.3867 -1.1103
  157MOL0     H21614  11.976   7.286   5.149  0.7741  0.1894  0.1492
  157MOL0     H21615  12.027   7.199   4.874  0.3771 -0.2110 -0.2593
  157MOL0     H21616  12.167   7.133   4.692  2.4040 -0.8806 -0.2120
  157MOL0     H21617  12.325   7.196   4.682  0.4323 -1.5267 -0.5150
  157MOL0     H21618  12.045   7.323   4.600  0.5014  0.0842 -0.7131
  157MOL0     H21619  12.182   7.422   4.589  0.7199  0.3229 -0.6596
  157MOL0     H21620  12.118   7.169   4.437 -0.2165 -0.3305  3.5711
  157MOL0     H21621  12.110   7.345   4.379 -0.0885  0.7571  2.7160
  157MOL0     H21622  12.347   7.383   4.423 -2.4806  1.0134 -1.4883
  157MOL0     H21623  12.353   7.203   4.464  0.8978  1.3486  1.0007
  157MOL0     H21624  12.344   7.142   4.032 -0.7088  0.2677  1.7941
  157MOL0     H21625  12.585   7.018   3.845 -2.5788  2.0799 -1.3931
  157MOL0     H21626  12.407   7.006   3.861  0.9670  1.6819 -1.8837
  157MOL0     H21627  12.514   6.869   3.900  1.6802  0.3228  0.9462
  157MOL0     H21628  13.091   7.054   4.050  2.1706  0.7542  4.3607
  157MOL0     H21629  13.286   6.958   3.978  0.2731 -0.8742 -1.5277
  157MOL0     H21630  13.422   6.788   4.169 -1.6128  1.2505 -1.7210
  157MOL0     H21631  13.515   6.643   4.124  1.0663 -1.8882 -2.6006
  157MOL0     H21632  13.516   6.890   3.959  1.2427  1.1553 -0.0470
  157MOL0     H21633  13.604   6.863   4.106  2.3637 -1.5736 -0.6600
  157MOL0     H21634  13.610   6.660   3.886 -3.2258  2.1083  0.1469
  157MOL0     H21635  13.730   6.676   4.014  2.5831 -2.2479 -3.2775
  157MOL0     H21636  13.808   6.896   3.924  0.2206 -1.8819 -0.2111
  157MOL0     H21637  13.711   6.867   3.781 -0.5367 -2.7547 -1.8022
  157MOL0     H21638  13.952   6.819   3.766 -3.2114  1.7904 -2.2570
  157MOL0     H21639  13.948   6.715   3.911  1.9650  1.7412  0.3615
  157MOL0     H21640  13.768   6.621   3.691 -0.5393 -0.4259  1.8672
  157MOL0     H21641  13.864   6.540   3.812  0.1707  0.6760  0.3080
  157MOL0     H21642  14.071   6.617   3.673 -1.0486 -2.6393  4.2177
  157MOL0     H21643  13.960   6.704   3.563  3.2198 -1.1262 -0.4212
  157MOL0     H21644  13.848   6.490   3.512  0.1725  3.4779 -3.8353
  157MOL0     H21645  13.989   6.416   3.600  1.3011  1.3061 -0.0147
  157MOL0     H21646  13.156   6.581   4.117  1.6493 -0.3656 -1.0092
  157MOL0     H21647  12.917   6.685   4.176  1.2166 -0.7950  0.4306
  157MOL0     H21648  12.742   7.039   4.313  1.9592 -1.7741 -2.2462
  157MOL0     H21649  12.554   7.168   4.400  0.6580 -0.3509  0.0173
  157MOL0     H21650  11.474   7.568   5.141 -1.0998  0.2515 -0.2038
  157MOL0     H21651  11.314   7.741   5.034  1.8538 -1.7896 -1.3829
  157MOL0     H21652  10.964   8.006   5.317 -0.2112  0.6275 -0.1571
  157MOL0     H21653  10.747   8.111   5.255 -1.1905  1.7956 -1.5847
  157MOL0     H21654  10.693   8.412   4.943  3.3057  0.4922  0.1653
  157MOL0     H21655  10.691   8.239   4.953  0.2185  0.5221 -0.4493
  157MOL0     H21656  10.506   8.258   5.133 -0.4963  1.3040  1.9624
  157MOL0     H21657  10.466   8.280   4.964  0.3406  0.2010  0.1526
  157MOL0     H21658  10.494   8.475   5.196 -0.3842 -1.1191  0.6030
  157MOL0     H21659  10.513   8.524   5.026  0.5496 -0.4325  0.4232
  157MOL0     H21660  10.263   8.409   5.175 -0.3404 -0.7904  0.3302
  157MOL0     H21661  10.284   8.421   4.996  5.7221  3.8712 -3.7744
  157MOL0     H21662  10.147   8.798   5.063  1.3417  1.0838  0.6109
  157MOL0     H21663  10.952   8.368   4.980  0.6147 -0.7695  0.1517
  157MOL0     H21664  11.183   8.333   4.938 -2.2368 -0.6774 -1.4178
  157MOL0     H21665  11.280   8.234   5.067 -1.5344 -0.5766  1.3451
  157MOL0     H21666  11.225   8.175   4.919  3.8550  1.7248 -0.0920
  158MOL0     O21667   4.315   9.252   7.853  0.2975  0.4691  0.1110
  158MOL0     C21668   4.318   9.290   7.967  0.1808  0.1026 -0.2771
  158MOL0     O21669   4.390   9.226   8.058 -0.3177 -0.7562  0.2032
  158MOL0     C21670   4.457   9.112   8.027 -0.8190  0.2340 -0.7207
  158MOL0     C21671   4.597   9.118   8.014  0.5076 -0.5222 -0.7885
  158MOL0     C21672   4.668   9.007   7.978  1.1740 -0.4110 -0.4251
  158MOL0     C21673   4.606   8.884   7.966 -0.7192  0.6832  0.4152
  158MOL0     O21674   4.664   8.766   7.921  0.3222  0.1945  0.1234
  158MOL0     C21675   4.812   8.758   7.922 -0.5926 -0.5249  0.6642
  158MOL0     C21676   4.863   8.611   7.917  0.8409 -0.0660 -0.0245
  158MOL0     C21677   5.009   8.578   7.900 -0.6294 -0.3562 -0.0962
  158MOL0     C21678   5.040   8.637   7.760  0.4717  0.6055  0.6199
  158MOL0     C21679   5.124   8.540   7.681 -0.0776 -0.2059  1.1096
  158MOL0     C21680   5.114   8.556   7.528 -1.3406 -0.2758 -0.4514
  158MOL0     C21681   5.197   8.456   7.456 -0.5095 -0.6032 -0.9445
  158MOL0     C21682   5.341   8.499   7.416  0.2688 -0.0026 -0.9744
  158MOL0     N21683   5.337   8.575   7.297  0.1692  0.0143 -0.1483
  158MOL0     C21684   5.280   8.705   7.272 -0.4676  0.3466 -0.7173
  158MOL0     C21685   5.282   8.715   7.142 -0.5578 -1.1037  0.5234
  158MOL0     C21686   5.227   8.833   7.069  0.3503  0.5349 -1.1158
  158MOL0     C21687   5.331   8.944   7.056  0.4006  0.2156 -0.5381
  158MOL0     C21688   5.279   9.065   6.980 -0.5528 -0.1548  0.6200
  158MOL0     C21689   5.382   9.177   6.998 -0.3939  0.6282 -0.4279
  158MOL0     O21690   5.334   9.306   6.955  0.5315  0.2806 -0.8010
  158MOL0     C21691   5.427   9.408   6.960  0.6690  0.8768  0.6654
  158MOL0     C21692   5.545   9.409   7.039  0.6622  0.2982 -0.3081
  158MOL0     C21693   5.638   9.516   7.039  0.4596 -0.4608 -0.4605
  158MOL0     C21694   5.746   9.493   7.146  0.3632 -0.3633  1.4191
  158MOL0     C21695   5.612   9.627   6.962  0.6650  0.5814  0.3884
  158MOL0     C21696   5.698   9.750   6.970 -0.1614 -0.1502 -0.3231
  158MOL0     O21697   5.653   9.873   6.917 -0.4474 -0.5864  0.0223
  158MOL0     C21698   5.713   9.994   6.947 -0.7104 -0.2247  0.5507
  158MOL0     C21699   5.769  10.020   7.071  0.2264  0.0347  1.8030
  158MOL0     C21700   5.818  10.147   7.094  0.0320  0.1126  0.4786
  158MOL0     C21701   5.825  10.249   6.994  1.3700  0.2339  0.0313
  158MOL0     O21702   5.899  10.369   7.007  0.2946  0.1481 -0.6211
  158MOL0     C21703   6.035  10.364   7.041  0.3066 -0.4905 -1.0106
  158MOL0     C21704   6.084  10.502   7.084  0.4922  0.1958 -1.1894
  158MOL0     C21705   6.080  10.596   6.964 -0.3120  0.2512  0.2373
  158MOL0     C21706   6.150  10.733   6.988 -0.8973 -0.3161 -0.8567
  158MOL0     C21707   6.307  10.729   6.990  0.6355 -0.1504 -0.0583
  158MOL0     C21708   6.351  10.736   6.842  0.6330 -0.3855  0.2535
  158MOL0     C21709   6.504  10.715   6.821 -0.1189 -0.1019 -0.1625
  158MOL0     C21710   6.561  10.779   6.691 -0.2727 -0.5641  0.4466
  158MOL0    Cl21711   6.726  10.707   6.662  0.1392  0.1000  0.0398
  158MOL0     C21712   5.761  10.221   6.871 -1.1007  0.1924 -1.4473
  158MOL0     C21713   5.720  10.088   6.847  0.9768 -0.2793  0.3211
  158MOL0     O21714   5.810   9.741   7.012 -0.0842  0.2449  0.8791
  158MOL0     C21715   5.499   9.624   6.871  0.4771  0.1769  0.3694
  158MOL0     C21716   5.411   9.521   6.885  0.6809  0.1797 -0.1919
  158MOL0     N21717   5.339   8.601   7.088  0.1089  0.3067 -0.2163
  158MOL0     N21718   5.374   8.511   7.181 -0.7494 -0.1541  0.2430
  158MOL0     C21719   4.469   8.883   7.977 -0.2504  0.4802 -0.5765
  158MOL0     C21720   4.394   8.995   8.004  0.8541  0.5003 -0.4825
  158MOL0     C21721   4.237   9.413   8.005  0.4324 -0.2458  0.5111
  158MOL0     C21722   4.143   9.410   8.104 -0.6443  0.3314 -0.8033
  158MOL0     C21723   4.075   9.524   8.142  0.3910  0.4607  0.4131
  158MOL0     C21724   4.121   9.648   8.103  0.1526 -0.5765 -0.1926
  158MOL0     O21725   4.088   9.773   8.157  0.2571  0.2380  0.3344
  158MOL0     C21726   4.025   9.789   8.289 -0.7237  0.8976 -0.5920
  158MOL0     C21727   3.874   9.762   8.286 -0.3491 -0.9560  0.3444
  158MOL0     C21728   3.796   9.855   8.389 -0.2783 -0.2664 -0.3366
  158MOL0     C21729   3.763   9.799   8.529  0.0620 -0.5920  0.2427
  158MOL0     C21730   3.894   9.761   8.598 -0.0795 -0.0234 -0.5340
  158MOL0     C21731   3.997   9.710   8.637 -0.4754 -0.4876 -0.1754
  158MOL0     C21732   4.222   9.654   8.004 -0.9771 -0.0447 -0.0403
  158MOL0     C21733   4.277   9.536   7.952  0.2793  0.4452  0.7097
  158MOL0     C21734   4.384   9.536   7.837  0.2790 -0.9181 -1.1186
  158MOL0     H21735   4.645   9.215   8.012  2.0018 -1.2154 -3.5772
  158MOL0     H21736   4.770   9.026   7.948  1.0989  2.7776  0.8869
  158MOL0     H21737   4.846   8.822   8.003 -1.0728  1.1595 -0.4191
  158MOL0     H21738   4.847   8.786   7.822 -4.9320 -1.1451 -1.2747
  158MOL0     H21739   4.821   8.563   8.006 -1.9329  2.6086  0.2804
  158MOL0     H21740   4.803   8.565   7.838  2.5320 -1.3787 -0.5999
  158MOL0     H21741   5.070   8.619   7.981 -2.2741  0.3207  0.8647
  158MOL0     H21742   5.028   8.471   7.907  0.0614 -0.1448  3.3741
  158MOL0     H21743   4.949   8.652   7.701 -0.3488  2.4373  2.2538
  158MOL0     H21744   5.108   8.722   7.770  4.0992 -1.8279 -1.2485
  158MOL0     H21745   5.080   8.444   7.711 -2.4357  0.6467  0.6046
  158MOL0     H21746   5.228   8.540   7.714  0.4634 -3.5342 -0.1680
  158MOL0     H21747   5.011   8.572   7.494 -1.1560  3.3419  0.2066
  158MOL0     H21748   5.159   8.655   7.511 -0.3205 -1.0750 -2.8707
  158MOL0     H21749   5.142   8.435   7.364 -0.7254  2.0759 -1.5184
  158MOL0     H21750   5.195   8.363   7.514 -1.1137 -0.8262 -1.3196
  158MOL0     H21751   5.386   8.567   7.489 -0.4130 -1.3371  0.7868
  158MOL0     H21752   5.391   8.403   7.401 -2.6880 -1.6321 -1.1440
  158MOL0     H21753   5.238   8.778   7.341  1.8319 -2.0907  3.6706
  158MOL0     H21754   5.148   8.866   7.137  0.5635 -1.9043  0.4493
  158MOL0     H21755   5.191   8.800   6.972 -1.9447  0.4756 -0.2864
  158MOL0     H21756   5.361   8.975   7.156  0.5833  2.0229 -1.1268
  158MOL0     H21757   5.419   8.899   7.009  0.3782 -1.0353  0.5620
  158MOL0     H21758   5.261   9.047   6.874 -0.0246  1.7183  0.1794
  158MOL0     H21759   5.182   9.088   7.024  0.3947  1.6615  1.8941
  158MOL0     H21760   5.400   9.176   7.106  2.0902 -0.0543 -0.7890
  158MOL0     H21761   5.480   9.153   6.954 -0.5085  1.9927 -1.4912
  158MOL0     H21762   5.555   9.327   7.110 -4.0972  2.3891  3.3092
  158MOL0     H21763   5.757   9.385   7.161  2.5381 -0.6462 -1.4107
  158MOL0     H21764   5.725   9.543   7.241  0.5902  1.5217  0.5198
  158MOL0     H21765   5.844   9.531   7.115  1.7987 -0.4200  5.2941
  158MOL0     H21766   5.768   9.946   7.150  2.8299 -1.8356  0.2175
  158MOL0     H21767   5.858  10.170   7.192  3.2193  0.0284 -0.6878
  158MOL0     H21768   6.039  10.288   7.120 -2.4880  3.3612  3.4440
  158MOL0     H21769   6.104  10.333   6.962  3.8904  0.3836  1.5102
  158MOL0     H21770   6.039  10.563   7.163 -1.0773 -1.6815 -0.5772
  158MOL0     H21771   6.188  10.489   7.117 -0.1060  1.5522  1.5033
  158MOL0     H21772   5.977  10.630   6.947 -1.0304 -0.3826  2.7830
  158MOL0     H21773   6.120  10.558   6.870 -3.3162  2.2968 -2.0683
  158MOL0     H21774   6.124  10.764   7.090 -1.6079 -0.5080 -0.9729
  158MOL0     H21775   6.110  10.813   6.927  2.3853  1.2951 -1.1384
  158MOL0     H21776   6.344  10.817   7.042  0.6555 -0.4825  0.4942
  158MOL0     H21777   6.330  10.641   7.051  0.6891 -1.3072 -1.6641
  158MOL0     H21778   6.321  10.837   6.811 -2.7313 -1.5117 -0.6044
  158MOL0     H21779   6.299  10.660   6.782 -0.1440  1.4695 -1.5627
  158MOL0     H21780   6.522  10.608   6.813 -0.5614 -0.0805 -1.7778
  158MOL0     H21781   6.552  10.759   6.909 -2.8095  0.5927  1.0862
  158MOL0     H21782   6.556  10.888   6.699 -2.0411 -0.7355  2.2235
  158MOL0     H21783   6.498  10.746   6.608 -1.2572  0.4565  0.7619
  158MOL0     H21784   5.769  10.308   6.807  1.0395  1.8258  0.8323
  158MOL0     H21785   5.670  10.073   6.751  1.0335  1.0875  0.0483
  158MOL0     H21786   5.485   9.718   6.819  4.2259  1.1263  0.8271
  158MOL0     H21787   5.320   9.533   6.827  1.4205  1.9483 -1.0633
  158MOL0     H21788   4.420   8.789   7.955  2.0286 -1.5553  2.2637
  158MOL0     H21789   4.289   8.986   8.030  0.3647  1.3200 -2.0293
  158MOL0     H21790   4.107   9.323   8.157 -0.7238  0.4741 -0.6218
  158MOL0     H21791   4.000   9.519   8.221 -0.3657  2.5526 -0.0847
  158MOL0     H21792   4.070   9.730   8.369 -2.3376 -1.3972 -1.2573
  158MOL0     H21793   4.049   9.889   8.325 -2.9462  1.2287  0.1224
  158MOL0     H21794   3.850   9.656   8.298  1.8215 -1.3585  1.5868
  158MOL0     H21795   3.840   9.789   8.186 -0.9716  2.3317  1.3228
  158MOL0     H21796   3.840   9.955   8.399 -0.1520 -0.3815  0.2981
  158MOL0     H21797   3.702   9.875   8.337 -0.1521 -2.1265 -1.3586
  158MOL0     H21798   3.704   9.708   8.514 -2.1775  0.6791  0.7939
  158MOL0     H21799   3.699   9.870   8.582  0.1990  1.3483 -2.0215
  158MOL0     H21800   4.090   9.682   8.684  3.3176  4.5005 -3.6640
  158MOL0     H21801   4.247   9.755   7.973 -2.3529  0.4042  0.2225
  158MOL0     H21802   4.477   9.485   7.861  2.2605  1.2043 -3.5988
  158MOL0     H21803   4.337   9.491   7.749  0.7719 -3.6712 -0.0771
  158MOL0     H21804   4.419   9.638   7.814 -0.1410  0.1006  2.1875
  159MOL0     O21805   6.435   6.544   1.225  0.7806  0.8756 -0.2409
  159MOL0     C21806   6.475   6.449   1.285 -0.0909  0.6783  0.1412
  159MOL0     O21807   6.444   6.403   1.409  0.0142  0.1875 -0.6670
  159MOL0     C21808   6.341   6.454   1.482 -0.3377  0.4434 -0.6728
  159MOL0     C21809   6.356   6.468   1.619 -0.2271  0.3287  0.3887
  159MOL0     C21810   6.245   6.495   1.700  1.5851 -0.7268 -0.2855
  159MOL0     C21811   6.119   6.517   1.647 -0.1043 -0.8587 -0.9334
  159MOL0     O21812   6.018   6.553   1.732  0.6185  0.4938  0.4425
  159MOL0     C21813   5.902   6.625   1.677  0.1997  0.1069 -0.1061
  159MOL0     C21814   5.794   6.649   1.791 -0.2827 -0.8425 -0.5237
  159MOL0     C21815   5.832   6.784   1.872  0.1583 -0.0276 -0.6736
  159MOL0     C21816   5.715   6.814   1.964  0.5635 -0.1202 -0.2178
  159MOL0     C21817   5.600   6.882   1.898 -0.6954  0.8775  0.3676
  159MOL0     C21818   5.472   6.795   1.922  0.4421  0.9040  0.7526
  159MOL0     C21819   5.350   6.849   1.860  0.4379  0.2029  0.1116
  159MOL0     C21820   5.360   6.896   1.720  0.5218  0.5395 -0.0257
  159MOL0     N21821   5.388   6.785   1.623  0.4797  0.1320  0.0093
  159MOL0     C21822   5.291   6.710   1.555 -0.5040  0.1800  0.0065
  159MOL0     C21823   5.366   6.653   1.455  0.0808  0.0234 -0.2856
  159MOL0     C21824   5.309   6.544   1.367 -0.5293  0.3058 -0.2004
  159MOL0     C21825   5.395   6.415   1.355  0.0432 -0.8793 -0.0379
  159MOL0     C21826   5.425   6.338   1.487  0.3366 -0.3782 -0.1202
  159MOL0     C21827   5.304   6.293   1.558  0.5096 -0.6282 -0.2951
  159MOL0     O21828   5.227   6.404   1.626  0.4663  0.3833  0.0634
  159MOL0     C21829   5.138   6.365   1.717 -0.8316  0.2315  0.2274
  159MOL0     C21830   5.089   6.234   1.737 -0.2321 -1.5390  1.0501
  159MOL0     C21831   4.972   6.217   1.824  0.6073 -0.3208 -0.4330
  159MOL0     C21832   4.910   6.077   1.850 -0.2242 -0.2990  0.1732
  159MOL0     C21833   4.932   6.333   1.906  0.7981  0.9747 -0.5393
  159MOL0     C21834   4.852   6.315   2.033 -0.4892  0.0370  0.4560
  159MOL0     O21835   4.759   6.218   2.032 -0.0332 -0.6111 -0.2024
  159MOL0     C21836   4.659   6.220   2.130 -0.4813  0.1180  0.1547
  159MOL0     C21837   4.538   6.304   2.100 -0.4666 -0.4533  0.0758
  159MOL0     C21838   4.444   6.309   2.210 -0.5902 -1.1323 -0.0755
  159MOL0     C21839   4.458   6.249   2.335 -0.1703 -0.5106  0.2633
  159MOL0     O21840   4.367   6.279   2.433 -0.8483  0.4202  0.3117
  159MOL0     C21841   4.225   6.291   2.402  0.0522 -0.5245  0.3499
  159MOL0     C21842   4.153   6.180   2.323  0.2967  1.1483  0.9301
  159MOL0     C21843   4.008   6.218   2.311  0.0403 -0.3604  0.3687
  159MOL0     C21844   3.931   6.156   2.432 -0.6653  0.4412  0.3433
  159MOL0     C21845   3.791   6.181   2.435  0.1026  0.1490  0.6276
  159MOL0     C21846   3.719   6.322   2.447  0.1268  0.5596  0.8755
  159MOL0     C21847   3.761   6.406   2.562  0.9090  0.2994  0.1485
  159MOL0     C21848   3.648   6.480   2.620  0.4073  0.2502  0.8909
  159MOL0    Cl21849   3.688   6.577   2.763  0.0515  0.5060  0.0367
  159MOL0     C21850   4.571   6.170   2.355  0.0949  0.5244 -0.7984
  159MOL0     C21851   4.668   6.159   2.256  0.1574  1.1401 -0.0237
  159MOL0     O21852   4.870   6.393   2.122 -0.0299 -0.4799 -0.8217
  159MOL0     C21853   4.997   6.454   1.891  0.3511  0.3842 -1.0101
  159MOL0     C21854   5.090   6.470   1.793  0.0554  0.0269 -0.2073
  159MOL0     N21855   5.492   6.677   1.468 -0.2884  0.3159  0.3345
  159MOL0     N21856   5.507   6.756   1.566 -0.5018 -0.5513 -0.1296
  159MOL0     C21857   6.108   6.511   1.507 -0.7711 -0.0096  0.4133
  159MOL0     C21858   6.218   6.481   1.423 -0.3379 -0.3694  0.7303
  159MOL0     C21859   6.561   6.365   1.200 -0.7476  0.5190 -0.0234
  159MOL0     C21860   6.621   6.259   1.266 -0.2085 -0.0579 -0.1498
  159MOL0     C21861   6.702   6.169   1.204 -0.2475 -0.3345 -0.2428
  159MOL0     C21862   6.728   6.186   1.065 -0.3347 -0.5050 -0.2304
  159MOL0     O21863   6.822   6.110   0.995  1.1279 -0.3755 -0.2914
  159MOL0     C21864   6.800   5.973   1.010 -1.4742  0.4177 -0.2538
  159MOL0     C21865   6.668   5.922   0.952  0.4542 -0.9339  0.0289
  159MOL0     C21866   6.652   5.772   0.972  0.7562 -0.4053 -0.2682
  159MOL0     C21867   6.676   5.716   1.117  0.2189  0.4303 -0.4208
  159MOL0     C21868   6.584   5.792   1.211 -1.1813 -0.3192 -0.3286
  159MOL0     C21869   6.513   5.865   1.274  0.2539 -0.3708  0.0550
  159MOL0     C21870   6.654   6.283   0.992  0.0831 -0.1487 -0.3488
  159MOL0     C21871   6.579   6.378   1.060 -0.1624 -0.2118  0.1486
  159MOL0     C21872   6.516   6.483   0.960  0.3371  0.3590  0.0505
  159MOL0     H21873   6.458   6.445   1.649  0.2291  0.3027 -1.0982
  159MOL0     H21874   6.248   6.492   1.809 -0.3233 -3.8796 -0.1966
  159MOL0     H21875   5.850   6.572   1.596 -3.4079  1.5079  1.1517
  159MOL0     H21876   5.938   6.721   1.640  2.1782 -0.1350  1.0476
  159MOL0     H21877   5.702   6.651   1.733 -1.0924 -1.1487  0.7029
  159MOL0     H21878   5.788   6.567   1.863  2.9448 -2.0806 -1.4715
  159MOL0     H21879   5.928   6.777   1.924  0.7613  1.3033 -1.5406
  159MOL0     H21880   5.846   6.861   1.795  1.6209 -1.2580 -1.6879
  159MOL0     H21881   5.679   6.723   2.013 -3.3497  0.6497 -1.3617
  159MOL0     H21882   5.761   6.862   2.051 -1.9018 -1.8507  2.2325
  159MOL0     H21883   5.627   6.892   1.792 -2.0096 -1.9016 -0.3197
  159MOL0     H21884   5.585   6.980   1.945  2.2759  1.3349  0.5983
  159MOL0     H21885   5.488   6.704   1.863 -1.5562  0.4669  0.8059
  159MOL0     H21886   5.455   6.776   2.028 -0.3171 -0.1032  0.4630
  159MOL0     H21887   5.307   6.931   1.919 -0.3547  0.0343 -0.2245
  159MOL0     H21888   5.278   6.767   1.858  0.3408  0.2804 -2.2620
  159MOL0     H21889   5.262   6.941   1.698 -0.2851 -1.2595 -0.2782
  159MOL0     H21890   5.431   6.975   1.697  1.9008 -0.1180  1.7236
  159MOL0     H21891   5.183   6.706   1.569 -0.5660  0.9764 -0.1967
  159MOL0     H21892   5.275   6.592   1.274 -0.0414  0.1536 -0.4615
  159MOL0     H21893   5.219   6.502   1.414  0.9759 -4.5237 -1.0852
  159MOL0     H21894   5.337   6.348   1.291 -0.5230  1.0379 -1.6101
  159MOL0     H21895   5.491   6.435   1.307  0.4847 -0.3508  1.0319
  159MOL0     H21896   5.466   6.241   1.457  0.0249 -0.5681  0.0674
  159MOL0     H21897   5.503   6.376   1.554  0.8728 -4.7683  2.0852
  159MOL0     H21898   5.246   6.252   1.475  0.8686  1.1887 -1.5114
  159MOL0     H21899   5.333   6.219   1.632 -0.3936 -1.2292 -0.5338
  159MOL0     H21900   5.124   6.144   1.689 -0.0387 -2.4805  2.8732
  159MOL0     H21901   4.809   6.087   1.810  0.2852 -2.2322 -1.7905
  159MOL0     H21902   4.921   6.023   1.945 -0.4329 -3.0600 -1.2799
  159MOL0     H21903   4.966   6.004   1.791  0.0060  0.3965 -0.4755
  159MOL0     H21904   4.517   6.377   2.023 -0.5637 -0.0784  0.4482
  159MOL0     H21905   4.367   6.383   2.196  0.9023  1.4147  3.6317
  159MOL0     H21906   4.169   6.299   2.496  1.6624 -5.0122  1.9796
  159MOL0     H21907   4.208   6.389   2.357 -1.9326 -1.1380 -0.3374
  159MOL0     H21908   4.184   6.152   2.221 -0.8949 -0.0365  0.8617
  159MOL0     H21909   4.154   6.087   2.380 -3.6877  0.3335 -0.0391
  159MOL0     H21910   3.959   6.185   2.219 -0.2290 -1.8315  1.0146
  159MOL0     H21911   3.989   6.324   2.324  1.0130 -0.1196 -0.0513
  159MOL0     H21912   3.966   6.182   2.532 -3.5398  3.1765  0.7717
  159MOL0     H21913   3.950   6.048   2.426  0.5003  0.6442  0.1379
  159MOL0     H21914   3.750   6.150   2.339  0.5897  2.9800 -0.5857
  159MOL0     H21915   3.746   6.127   2.519 -0.3232 -0.5622 -0.0498
  159MOL0     H21916   3.611   6.307   2.447  0.1291  0.4831 -0.0110
  159MOL0     H21917   3.754   6.373   2.357  2.7326 -1.8727  0.3548
  159MOL0     H21918   3.851   6.467   2.549 -1.0843  3.1237 -1.4055
  159MOL0     H21919   3.791   6.342   2.646  0.4107 -1.0580 -0.6790
  159MOL0     H21920   3.578   6.404   2.654  1.0323 -1.2025 -0.8957
  159MOL0     H21921   3.609   6.552   2.548  1.7324  1.0791  0.9555
  159MOL0     H21922   4.600   6.138   2.454  0.8328  1.8570 -0.5500
  159MOL0     H21923   4.756   6.101   2.280 -1.6604 -1.0179  1.9012
  159MOL0     H21924   4.965   6.543   1.945  0.4606  0.7263 -1.4990
  159MOL0     H21925   5.131   6.570   1.784 -2.2417  1.3845  2.8213
  159MOL0     H21926   6.015   6.532   1.456 -0.7062  0.1626  0.3633
  159MOL0     H21927   6.205   6.457   1.318 -0.1289 -0.7824  0.7968
  159MOL0     H21928   6.596   6.235   1.369  0.9079  3.7113  1.1666
  159MOL0     H21929   6.743   6.086   1.260  0.7770  0.7099  0.6219
  159MOL0     H21930   6.875   5.909   0.962 -2.3458  0.7604 -2.1835
  159MOL0     H21931   6.800   5.953   1.117 -1.7540 -3.0900 -0.7990
  159MOL0     H21932   6.661   5.939   0.845 -3.1219 -1.2471  0.0853
  159MOL0     H21933   6.588   5.980   1.000 -0.2651 -0.6725 -1.4388
  159MOL0     H21934   6.545   5.756   0.955  0.5613  1.3677 -0.9512
  159MOL0     H21935   6.708   5.719   0.895  1.0757 -0.6509  0.1355
  159MOL0     H21936   6.777   5.729   1.155  0.2489 -3.5039  1.3320
  159MOL0     H21937   6.654   5.610   1.134  3.2545  0.2660  3.9924
  159MOL0     H21938   6.443   5.927   1.328 -0.6760 -0.3084 -1.1513
  159MOL0     H21939   6.670   6.292   0.885 -1.6563 -0.2382 -0.6514
  159MOL0     H21940   6.553   6.584   0.982  1.4110 -0.0829  0.3724
  159MOL0     H21941   6.534   6.459   0.854  1.4228 -1.0557  0.5160
  159MOL0     H21942   6.409   6.492   0.976  0.6576  4.7577  0.8149
  160MOL0     O21943   2.653   5.135   4.424 -0.0248  0.2851  0.4035
  160MOL0     C21944   2.704   5.164   4.315  0.2453  1.1933  0.7031
  160MOL0     O21945   2.820   5.226   4.303  0.2846 -0.0608  0.5778
  160MOL0     C21946   2.899   5.211   4.412  0.2774  0.2006  0.5754
  160MOL0     C21947   2.929   5.321   4.488  0.6994  1.0816 -0.4098
  160MOL0     C21948   3.026   5.310   4.588  0.6781 -0.9119  0.6320
  160MOL0     C21949   3.114   5.193   4.601 -0.1489 -1.1242  0.6641
  160MOL0     O21950   3.226   5.206   4.682 -0.0810 -0.0391  0.3459
  160MOL0     C21951   3.307   5.085   4.693 -0.1873 -0.4678  0.5008
  160MOL0     C21952   3.433   5.102   4.766  0.3071 -0.9305 -0.9803
  160MOL0     C21953   3.496   4.967   4.814 -0.5628 -0.5010 -0.1580
  160MOL0     C21954   3.620   5.007   4.896 -1.0252  0.2827 -0.5419
  160MOL0     C21955   3.674   4.882   4.967  0.0075 -0.3845  0.7161
  160MOL0     C21956   3.808   4.915   5.041  1.0171  0.4412 -0.3992
  160MOL0     C21957   3.933   4.921   4.934 -0.0893 -0.3331  0.4242
  160MOL0     C21958   4.071   4.918   4.999 -0.3552  0.4021  0.0958
  160MOL0     N21959   4.087   4.795   5.074 -0.3671 -0.9865 -0.4572
  160MOL0     C21960   4.077   4.794   5.216  0.2196 -0.3309 -0.4169
  160MOL0     C21961   4.071   4.657   5.242 -0.3858 -0.1416  0.3346
  160MOL0     C21962   4.045   4.617   5.382  0.9895  0.4107  0.0825
  160MOL0     C21963   4.166   4.572   5.452 -1.4173  0.2241  0.8169
  160MOL0     C21964   4.154   4.560   5.607 -0.3252  0.2328 -0.3294
  160MOL0     C21965   4.270   4.491   5.680 -0.2425  0.3470  0.9419
  160MOL0     O21966   4.293   4.364   5.618  0.2079  0.4027 -0.2545
  160MOL0     C21967   4.269   4.262   5.703 -0.4260  1.3853  0.4765
  160MOL0     C21968   4.362   4.241   5.803 -0.6712 -0.3605  0.0222
  160MOL0     C21969   4.320   4.150   5.902  0.1331  0.7877 -0.0843
  160MOL0     C21970   4.403   4.118   6.022 -0.0352 -0.9988 -0.5635
  160MOL0     C21971   4.193   4.078   5.891 -0.8524  0.2985  0.1862
  160MOL0     C21972   4.139   3.985   5.991  0.1319  0.9117  0.1538
  160MOL0     O21973   4.001   3.991   6.010  0.0861  0.1405  0.4311
  160MOL0     C21974   3.928   3.886   6.055 -0.1478 -0.0757 -0.6639
  160MOL0     C21975   3.803   3.853   5.999 -0.0629  0.2553  0.7405
  160MOL0     C21976   3.716   3.764   6.056  0.1084 -0.4565 -0.5960
  160MOL0     C21977   3.757   3.701   6.172 -0.5863  1.5100 -0.2305
  160MOL0     O21978   3.668   3.630   6.245 -0.4012  0.1772 -0.4894
  160MOL0     C21979   3.683   3.607   6.394  0.2053 -0.2165 -0.1529
  160MOL0     C21980   3.636   3.735   6.461 -1.0211 -0.3161 -0.1942
  160MOL0     C21981   3.579   3.705   6.597 -0.1911  1.0941 -0.0212
  160MOL0     C21982   3.529   3.829   6.677 -0.5350  0.3082  1.0829
  160MOL0     C21983   3.474   3.772   6.812  0.4594  0.1061  0.5288
  160MOL0     C21984   3.590   3.737   6.903  0.1843 -0.4781  0.1206
  160MOL0     C21985   3.539   3.729   7.048 -0.0457 -0.0123  0.1467
  160MOL0     C21986   3.631   3.639   7.138 -0.2730  0.4346 -0.8488
  160MOL0    Cl21987   3.617   3.471   7.087 -0.2263 -0.1356  0.1852
  160MOL0     C21988   3.886   3.714   6.216  0.2724 -0.0153  0.2511
  160MOL0     C21989   3.969   3.804   6.157 -0.2835 -0.4454 -0.4317
  160MOL0     O21990   4.213   3.892   6.031 -0.0631 -0.7736  1.0972
  160MOL0     C21991   4.113   4.102   5.783 -0.2669  0.3481 -0.2548
  160MOL0     C21992   4.151   4.184   5.684  0.0461 -0.0027  0.0970
  160MOL0     N21993   4.109   4.595   5.131  0.0372 -0.0265  0.7554
  160MOL0     N21994   4.129   4.674   5.033  0.2522  0.4440 -0.4549
  160MOL0     C21995   3.079   5.082   4.527 -0.1207  0.1009  0.0997
  160MOL0     C21996   2.969   5.084   4.436  0.0255  0.3194 -0.0223
  160MOL0     C21997   2.633   5.151   4.179 -0.3896 -0.1112 -0.4086
  160MOL0     C21998   2.705   5.172   4.056  0.1514 -0.7038 -0.3104
  160MOL0     C21999   2.649   5.139   3.928  0.4059  0.0432  0.9496
  160MOL0     C22000   2.518   5.099   3.922 -0.0981 -0.4608  1.2138
  160MOL0     O22001   2.472   5.049   3.801 -0.8872  0.7144  0.3422
  160MOL0     C22002   2.334   5.036   3.777  0.2640 -0.2988  0.2354
  160MOL0     C22003   2.316   5.039   3.629 -0.2284  0.0790 -0.6632
  160MOL0     C22004   2.169   5.011   3.605 -0.3111  0.0670  0.1192
  160MOL0     C22005   2.127   5.008   3.462 -1.0527 -1.6088 -0.3060
  160MOL0     C22006   2.160   4.888   3.386 -0.2694 -0.2713 -0.4459
  160MOL0     C22007   2.183   4.788   3.325 -0.9886 -0.0248 -0.0241
  160MOL0     C22008   2.434   5.095   4.041 -0.1023 -0.0455  0.3552
  160MOL0     C22009   2.491   5.117   4.168 -1.1349  0.0212  0.5703
  160MOL0     C22010   2.406   5.118   4.283 -0.2064  0.0477  0.1934
  160MOL0     H22011   2.874   5.411   4.462  1.1146  1.2470 -0.7323
  160MOL0     H22012   3.046   5.395   4.653  1.3036  0.4156 -1.2260
  160MOL0     H22013   3.332   5.033   4.600  0.3543  1.2148 -0.3293
  160MOL0     H22014   3.243   5.017   4.750  0.6307 -0.9104  0.9150
  160MOL0     H22015   3.506   5.167   4.717  0.5784  1.0155  1.7791
  160MOL0     H22016   3.402   5.165   4.850  2.8918 -2.4168  1.2443
  160MOL0     H22017   3.427   4.912   4.879 -0.1733  2.5400  3.1018
  160MOL0     H22018   3.525   4.901   4.732 -4.1240 -2.1855 -0.2753
  160MOL0     H22019   3.710   5.041   4.843  0.4841 -1.7723  0.5361
  160MOL0     H22020   3.586   5.080   4.970 -0.9458  0.4351 -0.6559
  160MOL0     H22021   3.697   4.805   4.894 -2.9713 -0.5736 -0.1634
  160MOL0     H22022   3.609   4.839   5.044 -0.6277 -2.8980 -1.1034
  160MOL0     H22023   3.808   5.010   5.096  1.0827  2.6594 -3.9612
  160MOL0     H22024   3.833   4.832   5.107  1.2657  1.0662  0.3153
  160MOL0     H22025   3.938   4.998   4.857  2.1457 -1.8335 -1.0822
  160MOL0     H22026   3.926   4.831   4.872 -0.3698  2.5998 -4.2712
  160MOL0     H22027   4.138   4.917   4.912  0.5604 -1.5072  0.7867
  160MOL0     H22028   4.096   5.007   5.058 -0.5173  0.4239  0.1329
  160MOL0     H22029   4.061   4.879   5.282  0.0206 -1.3139  0.8544
  160MOL0     H22030   3.980   4.530   5.381  0.6429  0.6098  1.8723
  160MOL0     H22031   4.005   4.702   5.438 -4.6129 -1.0858 -1.0369
  160MOL0     H22032   4.183   4.475   5.404 -1.9934  2.2665 -4.1023
  160MOL0     H22033   4.255   4.634   5.439  0.5745 -2.4822  0.4848
  160MOL0     H22034   4.141   4.662   5.644 -0.6888  0.5907 -1.4091
  160MOL0     H22035   4.064   4.506   5.639  1.7330 -1.2511  3.5823
  160MOL0     H22036   4.362   4.550   5.677 -0.2135  0.3833  2.0861
  160MOL0     H22037   4.243   4.482   5.785 -0.0734 -1.2769  0.8746
  160MOL0     H22038   4.458   4.290   5.813 -0.4399 -1.1372  2.3552
  160MOL0     H22039   4.433   4.013   6.006  1.2719 -0.4102 -2.3154
  160MOL0     H22040   4.348   4.151   6.110  3.1059  1.8779  0.5167
  160MOL0     H22041   4.498   4.171   6.033 -0.9633  0.0621  4.7042
  160MOL0     H22042   3.760   3.922   5.928  1.3201  0.9265  0.5230
  160MOL0     H22043   3.617   3.743   6.017  0.4838 -3.5961 -0.1096
  160MOL0     H22044   3.615   3.526   6.420  0.8507 -1.2297 -1.5221
  160MOL0     H22045   3.783   3.573   6.421  0.1499 -0.4304 -0.2199
  160MOL0     H22046   3.726   3.797   6.467 -1.4332  0.4967 -1.7162
  160MOL0     H22047   3.564   3.788   6.397 -0.5496  0.3838 -0.1515
  160MOL0     H22048   3.653   3.651   6.656 -1.5611  1.1424  1.8010
  160MOL0     H22049   3.502   3.628   6.582  2.5913 -1.3364 -3.9935
  160MOL0     H22050   3.448   3.861   6.611  1.5520 -0.3060 -2.0169
  160MOL0     H22051   3.607   3.904   6.694  0.9043 -0.9389  0.2859
  160MOL0     H22052   3.398   3.841   6.849  0.8448  0.6878  0.2488
  160MOL0     H22053   3.410   3.686   6.788 -0.9605  1.8564 -2.6539
  160MOL0     H22054   3.664   3.817   6.896  3.0171 -2.9798 -1.6381
  160MOL0     H22055   3.637   3.641   6.876  0.6120 -0.4851  0.8658
  160MOL0     H22056   3.434   3.701   7.049  0.1884 -0.9291 -0.2287
  160MOL0     H22057   3.547   3.828   7.094 -2.2773  0.0184  0.5856
  160MOL0     H22058   3.588   3.648   7.239  0.7928 -0.5587 -0.2818
  160MOL0     H22059   3.734   3.675   7.142 -0.0867 -0.1985  1.0747
  160MOL0     H22060   3.930   3.656   6.297 -2.6246 -0.2830  1.7315
  160MOL0     H22061   4.065   3.821   6.205 -0.4104  0.1488 -0.3761
  160MOL0     H22062   4.011   4.068   5.764  0.2073 -1.9007  0.8875
  160MOL0     H22063   4.083   4.220   5.607 -0.9728  0.1727  1.0546
  160MOL0     H22064   3.142   4.993   4.518 -0.7389 -0.3252 -0.1122
  160MOL0     H22065   2.959   5.006   4.362 -0.6738  2.5191 -2.3748
  160MOL0     H22066   2.811   5.192   4.072  0.1932 -0.9936 -0.2222
  160MOL0     H22067   2.703   5.158   3.836 -2.9212  2.0360 -0.7764
  160MOL0     H22068   2.303   4.943   3.825  0.2781  1.0898  3.1286
  160MOL0     H22069   2.275   5.119   3.817 -0.4169 -0.9548  0.6205
  160MOL0     H22070   2.378   4.959   3.590 -0.4208  0.5834 -2.0547
  160MOL0     H22071   2.360   5.133   3.593  1.9832 -0.5560  0.2707
  160MOL0     H22072   2.144   4.915   3.651 -0.8103  1.2406  2.4278
  160MOL0     H22073   2.119   5.092   3.659  0.7609  1.3282 -0.7084
  160MOL0     H22074   2.165   5.095   3.408  1.4192 -2.0297  0.6021
  160MOL0     H22075   2.018   5.009   3.456 -1.0656 -0.8105 -0.0004
  160MOL0     H22076   2.205   4.709   3.256 -0.2351 -0.1520  0.3569
  160MOL0     H22077   2.330   5.066   4.046  0.0791 -1.2311 -1.8780
  160MOL0     H22078   2.436   5.043   4.356 -1.4954 -0.1321  0.5641
  160MOL0     H22079   2.411   5.218   4.326 -0.6512 -0.9140  2.6009
  160MOL0     H22080   2.300   5.108   4.257  0.7211 -2.5739 -3.3911
  161MOL0     O22081   8.950   0.123   8.219 -0.0694  0.5912  0.3550
  161MOL0     C22082   8.990   0.209   8.139  0.4752 -0.4167  1.1691
  161MOL0     O22083   8.914   0.316   8.098  0.3299  0.2515 -0.3448
  161MOL0     C22084   8.789   0.319   8.152 -0.0292  0.2852 -0.2422
  161MOL0     C22085   8.678   0.257   8.079 -0.3116 -0.9739  0.5340
  161MOL0     C22086   8.550   0.258   8.139 -0.3529  0.0564  0.5758
  161MOL0     C22087   8.536   0.311   8.267  0.0109 -0.6865 -1.3189
  161MOL0     O22088   8.405   0.299   8.325  0.1300  0.0940  0.2019
  161MOL0     C22089   8.379   0.340   8.459 -0.0846  0.5009 -0.1530
  161MOL0     C22090   8.239   0.313   8.520 -0.8190 -0.4088 -0.0333
  161MOL0     C22091   8.126   0.360   8.431 -0.9117 -0.6014 -0.1639
  161MOL0     C22092   8.094   0.263   8.319 -0.3540 -0.3233  0.4664
  161MOL0     C22093   7.971   0.178   8.342  0.1669 -0.1995 -0.3195
  161MOL0     C22094   7.921   0.103   8.216  0.6275  0.3954 -1.1337
  161MOL0     C22095   7.777   0.060   8.225 -0.1208  0.3142 -1.2720
  161MOL0     C22096   7.751  -0.033   8.346  0.6784  0.3554  0.2836
  161MOL0     N22097   7.661  -0.018   8.455 -0.3175 -0.4481  0.1333
  161MOL0     C22098   7.549  -0.087   8.479 -0.2034  0.2505 -0.8767
  161MOL0     C22099   7.506  -0.032   8.593 -0.1685 -0.3430 -0.5668
  161MOL0     C22100   7.381  -0.063   8.662  0.1461  0.6422 -1.6205
  161MOL0     C22101   7.372  -0.063   8.814 -0.8127 -0.4980 -0.1158
  161MOL0     C22102   7.244  -0.131   8.874  0.0084  0.3781 -0.5550
  161MOL0     C22103   7.250  -0.290   8.873  0.7230 -0.0248  0.1476
  161MOL0     O22104   7.304  -0.326   9.002  0.8763 -0.5345  0.8574
  161MOL0     C22105   7.424  -0.393   8.992 -0.3437 -0.4290 -0.0301
  161MOL0     C22106   7.540  -0.328   9.028  0.0333  0.6453  0.4816
  161MOL0     C22107   7.667  -0.380   9.020 -0.0061  0.0603  1.3274
  161MOL0     C22108   7.767  -0.291   9.088  0.1164 -0.0484  0.0484
  161MOL0     C22109   7.678  -0.515   8.962 -0.8810 -0.5416  0.0749
  161MOL0     C22110   7.816  -0.578   8.947  0.3047 -0.4665 -0.1787
  161MOL0     O22111   7.845  -0.668   8.852  1.1531 -0.0594  0.4612
  161MOL0     C22112   7.966  -0.723   8.861  0.8674 -1.1385 -0.9238
  161MOL0     C22113   8.005  -0.799   8.977 -0.0905  0.4377  0.4419
  161MOL0     C22114   8.123  -0.866   8.977  0.8531  0.6493 -0.9545
  161MOL0     C22115   8.217  -0.857   8.871  0.1528 -0.4368 -0.2135
  161MOL0     O22116   8.337  -0.916   8.861  0.2801  0.4425 -0.4348
  161MOL0     C22117   8.412  -0.938   8.979  0.4444 -0.6307  0.8717
  161MOL0     C22118   8.448  -0.807   9.051 -0.0495  0.2647 -0.2937
  161MOL0     C22119   8.559  -0.838   9.146 -0.2217  0.6508 -0.8351
  161MOL0     C22120   8.701  -0.822   9.086 -0.7185 -0.0957 -0.6661
  161MOL0     C22121   8.793  -0.811   9.212 -1.0474  0.2215  1.1123
  161MOL0     C22122   8.933  -0.806   9.160  0.7025 -0.1822  0.2067
  161MOL0     C22123   9.024  -0.771   9.276 -0.4858  0.3487 -0.0265
  161MOL0     C22124   9.031  -0.885   9.378 -0.0416 -0.2143 -0.0501
  161MOL0    Cl22125   9.177  -0.858   9.467  0.2283  0.3488  0.1599
  161MOL0     C22126   8.179  -0.767   8.768 -0.3488 -0.2034  0.3229
  161MOL0     C22127   8.060  -0.704   8.761  0.1073  0.6196 -0.2030
  161MOL0     O22128   7.885  -0.549   9.039 -0.4012 -0.7551 -0.7599
  161MOL0     C22129   7.560  -0.588   8.929  0.0918  0.6471  0.4138
  161MOL0     C22130   7.438  -0.518   8.934  0.2765  0.7051 -0.3188
  161MOL0     N22131   7.584   0.073   8.634 -0.9545  0.8206  0.8795
  161MOL0     N22132   7.683   0.080   8.550  0.6133  0.2576 -0.2130
  161MOL0     C22133   8.638   0.382   8.333 -0.2046  0.1878  0.3233
  161MOL0     C22134   8.761   0.377   8.277 -0.2140 -0.5115  0.0442
  161MOL0     C22135   9.127   0.193   8.085  0.2343  0.0745 -0.6518
  161MOL0     C22136   9.206   0.096   8.149 -0.1109 -0.5980 -0.0621
  161MOL0     C22137   9.343   0.076   8.111  0.5067  0.1277 -0.2342
  161MOL0     C22138   9.379   0.133   7.986  0.7338  0.7985 -0.6158
  161MOL0     O22139   9.495   0.103   7.918  0.5053  0.0157 -0.3901
  161MOL0     C22140   9.524  -0.033   7.884  0.0040  0.6995  0.4368
  161MOL0     C22141   9.459  -0.085   7.749  0.3449 -0.7822 -0.5750
  161MOL0     C22142   9.488  -0.231   7.726 -0.1483  0.2866 -0.1078
  161MOL0     C22143   9.425  -0.290   7.600 -0.3845 -0.3520  0.7014
  161MOL0     C22144   9.275  -0.298   7.598 -0.1719  0.0197 -0.2887
  161MOL0     C22145   9.154  -0.331   7.585 -0.5095  0.0490  0.2569
  161MOL0     C22146   9.305   0.232   7.934 -0.6028 -0.7149  0.2024
  161MOL0     C22147   9.183   0.276   7.981  0.0772 -0.2339 -0.3149
  161MOL0     C22148   9.122   0.406   7.917  0.5744  0.6216 -0.1689
  161MOL0     H22149   8.700   0.214   7.982 -1.4882 -0.6651  0.1223
  161MOL0     H22150   8.471   0.217   8.077  2.3318 -1.5142 -2.1001
  161MOL0     H22151   8.413   0.443   8.477 -0.3439  0.2366  2.0332
  161MOL0     H22152   8.443   0.271   8.513  0.8259  0.5096 -1.1852
  161MOL0     H22153   8.230   0.206   8.541  4.5049 -1.1564 -0.2144
  161MOL0     H22154   8.252   0.359   8.618  0.6339 -0.3985 -0.1978
  161MOL0     H22155   8.038   0.372   8.495  0.4849 -0.9149  1.9151
  161MOL0     H22156   8.155   0.461   8.400  0.2394 -0.7958  0.2090
  161MOL0     H22157   8.066   0.319   8.229 -0.3103 -1.4827 -0.2899
  161MOL0     H22158   8.179   0.198   8.296  1.6333  0.8148  3.8874
  161MOL0     H22159   7.891   0.245   8.375  2.3288  2.0099  0.6869
  161MOL0     H22160   7.992   0.108   8.423 -0.8315  0.3315  0.4249
  161MOL0     H22161   7.918   0.169   8.129  0.4401  1.0580 -0.6304
  161MOL0     H22162   7.988   0.021   8.186  4.2194  0.9355  4.0396
  161MOL0     H22163   7.759   0.024   8.124  2.6632 -3.1457 -0.7304
  161MOL0     H22164   7.715   0.150   8.232  1.1275  1.0781  3.0097
  161MOL0     H22165   7.723  -0.126   8.296  1.1275  0.9556 -1.1196
  161MOL0     H22166   7.850  -0.045   8.392  0.9332 -4.1356 -0.9613
  161MOL0     H22167   7.505  -0.167   8.420 -0.8854 -0.1306  0.1059
  161MOL0     H22168   7.345  -0.162   8.634  1.0863 -0.4235  0.6950
  161MOL0     H22169   7.308   0.010   8.626 -0.2896  1.3221  0.4564
  161MOL0     H22170   7.454  -0.117   8.863 -1.4456 -2.0217 -0.6502
  161MOL0     H22171   7.374   0.043   8.841  1.1466 -0.8514  1.3130
  161MOL0     H22172   7.223  -0.097   8.976 -2.5790  1.7001 -1.4394
  161MOL0     H22173   7.157  -0.100   8.815 -0.3798  2.4287  0.9691
  161MOL0     H22174   7.147  -0.326   8.866 -0.6568  2.7769  3.0181
  161MOL0     H22175   7.314  -0.326   8.792 -1.7274  0.4942 -2.1494
  161MOL0     H22176   7.512  -0.226   9.052 -3.0253  0.1314 -0.4770
  161MOL0     H22177   7.859  -0.270   9.032 -0.7120  0.3217 -1.2100
  161MOL0     H22178   7.814  -0.339   9.175  0.6469 -1.9314 -1.2003
  161MOL0     H22179   7.736  -0.188   9.104  3.8824  1.5734 -1.6924
  161MOL0     H22180   7.928  -0.807   9.054  1.5732 -3.9945  1.9580
  161MOL0     H22181   8.136  -0.939   9.057 -2.4429 -2.1417 -2.7162
  161MOL0     H22182   8.363  -1.015   9.040  0.3917 -2.0217 -0.8443
  161MOL0     H22183   8.512  -0.970   8.948  0.9562  0.9336  0.8461
  161MOL0     H22184   8.491  -0.734   8.981  2.2997  0.8957  1.6553
  161MOL0     H22185   8.361  -0.752   9.087 -0.0998 -0.0311  0.0358
  161MOL0     H22186   8.529  -0.929   9.199 -1.2159  2.8154  2.6568
  161MOL0     H22187   8.546  -0.773   9.233 -1.6956 -0.0643 -0.4883
  161MOL0     H22188   8.698  -0.728   9.030  3.5299  1.1670  0.8210
  161MOL0     H22189   8.729  -0.896   9.011  1.1612  1.1314 -1.2509
  161MOL0     H22190   8.766  -0.718   9.264 -2.5103  0.1660  0.5132
  161MOL0     H22191   8.788  -0.892   9.285  1.2333 -0.5713  0.4937
  161MOL0     H22192   8.941  -0.731   9.080 -0.6922 -2.5650 -2.3738
  161MOL0     H22193   8.952  -0.905   9.117 -0.6451 -0.4174  0.1239
  161MOL0     H22194   9.003  -0.672   9.317  3.8980  1.8253 -0.8026
  161MOL0     H22195   9.126  -0.771   9.237 -0.3985 -3.5636 -0.2020
  161MOL0     H22196   9.038  -0.986   9.337 -2.6645 -1.4633  2.2682
  161MOL0     H22197   8.943  -0.887   9.443 -1.8965 -1.7130 -2.4370
  161MOL0     H22198   8.243  -0.753   8.682 -1.8521  0.2967 -0.7647
  161MOL0     H22199   8.037  -0.663   8.663  1.1508  0.2155 -0.6324
  161MOL0     H22200   7.564  -0.692   8.897 -0.5736  0.4723  0.8847
  161MOL0     H22201   7.349  -0.568   8.898  0.0670  1.7046 -1.2155
  161MOL0     H22202   8.635   0.426   8.432  0.1765 -1.2496  1.0042
  161MOL0     H22203   8.842   0.421   8.334 -0.0858  2.5788 -2.2054
  161MOL0     H22204   9.167   0.047   8.238 -3.7586  2.0547  0.0490
  161MOL0     H22205   9.391   0.000   8.172 -2.3460 -0.1412  1.9237
  161MOL0     H22206   9.631  -0.049   7.900 -0.7184 -5.0099  1.7309
  161MOL0     H22207   9.483  -0.098   7.962 -1.2524  2.1327  1.0205
  161MOL0     H22208   9.488  -0.012   7.672 -2.3966  0.3500 -0.6274
  161MOL0     H22209   9.351  -0.071   7.760  0.0198 -3.3381  0.0946
  161MOL0     H22210   9.596  -0.242   7.722 -0.1039  0.8145 -0.5579
  161MOL0     H22211   9.452  -0.293   7.808  2.9907  1.1768  2.1157
  161MOL0     H22212   9.464  -0.392   7.599 -3.3604 -1.6094 -1.4085
  161MOL0     H22213   9.457  -0.242   7.507  1.2916  3.7441  3.0960
  161MOL0     H22214   9.055  -0.370   7.578 -1.4616  2.1052  1.3369
  161MOL0     H22215   9.353   0.283   7.851 -0.3349 -1.7692 -0.3016
  161MOL0     H22216   9.026   0.392   7.865  0.2157 -0.4685  0.7388
  161MOL0     H22217   9.095   0.470   8.002 -3.0335  2.1728 -2.2241
  161MOL0     H22218   9.199   0.445   7.850  3.2539 -3.6735  0.0860
  162MOL0     O22219   2.535   9.692   3.678 -0.3403 -0.3872  0.6916
  162MOL0     C22220   2.579   9.799   3.631  0.3316  0.3017 -0.7636
  162MOL0     O22221   2.569   9.837   3.501 -0.2606  0.1918 -0.4387
  162MOL0     C22222   2.552   9.747   3.401 -0.2770  1.1431 -0.9228
  162MOL0     C22223   2.590   9.610   3.401 -0.3120  0.1606 -0.7792
  162MOL0     C22224   2.561   9.521   3.297 -0.3261  0.4149  0.9034
  162MOL0     C22225   2.497   9.574   3.184  0.5667 -0.2257 -0.3863
  162MOL0     O22226   2.455   9.503   3.083 -0.1570  0.3290  0.1145
  162MOL0     C22227   2.480   9.363   3.084  0.2618  0.1809 -0.2447
  162MOL0     C22228   2.412   9.298   2.960 -0.6749 -0.2604  0.1502
  162MOL0     C22229   2.447   9.152   2.969  0.0729  0.3988  0.1224
  162MOL0     C22230   2.382   9.082   3.089 -0.7335  0.2215 -0.2382
  162MOL0     C22231   2.372   8.929   3.072 -0.5515  0.3227 -0.3856
  162MOL0     C22232   2.365   8.852   3.211  0.2335  0.2438 -0.2590
  162MOL0     C22233   2.228   8.872   3.277  0.5597  0.2127  0.0166
  162MOL0     C22234   2.225   8.887   3.423  0.1096 -0.0285 -0.0430
  162MOL0     N22235   2.272   9.019   3.456 -0.8741  0.2344 -0.8399
  162MOL0     C22236   2.197   9.135   3.445 -0.6206 -1.1097  0.4460
  162MOL0     C22237   2.276   9.235   3.489  0.3228  0.4776 -0.1472
  162MOL0     C22238   2.228   9.371   3.532  0.0091 -0.0348  0.9511
  162MOL0     C22239   2.175   9.438   3.397 -0.1833 -0.0572 -0.2098
  162MOL0     C22240   2.105   9.571   3.441  0.0978  0.2434 -0.3625
  162MOL0     C22241   2.177   9.669   3.527  0.9534  0.0852 -0.3846
  162MOL0     O22242   2.091   9.786   3.534  0.5347 -0.0304 -0.4777
  162MOL0     C22243   2.148   9.903   3.576  0.2288  0.7076 -0.0449
  162MOL0     C22244   2.177   9.927   3.705 -0.7602 -0.6173 -0.0066
  162MOL0     C22245   2.258  10.036   3.741 -0.5488  0.4338  0.3208
  162MOL0     C22246   2.284  10.045   3.887 -0.9562  0.5146  0.5831
  162MOL0     C22247   2.305  10.135   3.645  0.8834  0.4466 -0.7887
  162MOL0     C22248   2.390  10.245   3.680 -0.4237  0.3248 -0.7482
  162MOL0     O22249   2.383  10.307   3.803  0.5539  0.4387 -0.2524
  162MOL0     C22250   2.458  10.418   3.812  1.1620  0.0299 -0.0171
  162MOL0     C22251   2.400  10.542   3.770  1.1101  0.6938 -0.2062
  162MOL0     C22252   2.481  10.661   3.763  0.9609  0.2044  0.4052
  162MOL0     C22253   2.620  10.641   3.795  0.5565  0.5462  0.3031
  162MOL0     O22254   2.705  10.747   3.784 -0.1584 -0.3413  0.8427
  162MOL0     C22255   2.832  10.745   3.711 -0.0288 -0.1780 -0.6009
  162MOL0     C22256   2.860  10.873   3.635  0.1368  0.0822  1.1870
  162MOL0     C22257   2.870  10.996   3.728  0.0970 -1.3151 -0.2305
  162MOL0     C22258   2.904  11.120   3.650 -0.5455 -0.7876  0.4481
  162MOL0     C22259   2.887  11.241   3.737 -0.2313 -0.6519 -0.4124
  162MOL0     C22260   2.743  11.301   3.747  0.6588  0.0380 -0.5326
  162MOL0     C22261   2.722  11.428   3.837  1.3075 -0.3554  0.4033
  162MOL0     C22262   2.783  11.564   3.798  0.0658 -0.2149 -0.2350
  162MOL0    Cl22263   2.724  11.677   3.922 -0.1352 -0.6063 -0.4191
  162MOL0     C22264   2.651  10.524   3.867 -0.7241  0.4599 -0.2848
  162MOL0     C22265   2.578  10.408   3.875 -0.8141 -0.6651  0.3238
  162MOL0     O22266   2.467  10.279   3.594 -0.5795 -0.6643 -0.7745
  162MOL0     C22267   2.260  10.113   3.517 -0.5701  0.7922 -0.4618
  162MOL0     C22268   2.182   9.998   3.485  0.5483 -0.1585  0.6362
  162MOL0     N22269   2.396   9.187   3.528  0.5928  0.8908 -0.6658
  162MOL0     N22270   2.384   9.057   3.528  0.3786  0.1898 -0.1623
  162MOL0     C22271   2.466   9.703   3.178 -0.0956 -0.7884  0.7413
  162MOL0     C22272   2.488   9.796   3.285 -0.9722 -0.0304 -0.6227
  162MOL0     C22273   2.648   9.891   3.725  0.3195  0.3749 -0.2437
  162MOL0     C22274   2.678  10.022   3.678 -0.8743  0.7262 -0.3953
  162MOL0     C22275   2.751  10.101   3.768  0.2944 -0.6254 -0.3647
  162MOL0     C22276   2.791  10.061   3.893  0.1314  0.2413 -0.0707
  162MOL0     O22277   2.867  10.151   3.955 -0.1833  0.2401 -0.2785
  162MOL0     C22278   2.982  10.112   4.021  0.2381 -0.7353 -0.7376
  162MOL0     C22279   3.099  10.097   3.932  0.2547 -0.0566  0.4301
  162MOL0     C22280   3.116  10.209   3.825 -0.7340 -0.0885 -1.1310
  162MOL0     C22281   3.199  10.328   3.890 -0.0851  0.4815  0.8039
  162MOL0     C22282   3.159  10.449   3.812  0.2799  0.3301  0.4685
  162MOL0     C22283   3.123  10.552   3.761  0.1822  0.8727  0.1089
  162MOL0     C22284   2.745   9.940   3.951  0.9067 -0.9878  0.0642
  162MOL0     C22285   2.668   9.854   3.867 -0.1029 -0.2903  1.3299
  162MOL0     C22286   2.636   9.729   3.936 -0.3564  0.0691  0.4246
  162MOL0     H22287   2.643   9.567   3.486 -1.3990 -3.7629 -1.8821
  162MOL0     H22288   2.588   9.416   3.305  2.8090  0.8756 -1.4820
  162MOL0     H22289   2.435   9.314   3.171  0.7216 -3.0452 -1.6960
  162MOL0     H22290   2.587   9.341   3.083  0.3109  0.0989 -3.2746
  162MOL0     H22291   2.305   9.308   2.981 -0.5171 -2.6126  2.6745
  162MOL0     H22292   2.448   9.348   2.869 -3.3114 -1.3592 -1.6205
  162MOL0     H22293   2.405   9.111   2.877 -2.4365 -0.1207  1.4221
  162MOL0     H22294   2.554   9.126   2.974  0.2181  1.1960  2.1698
  162MOL0     H22295   2.457   9.104   3.166 -0.2537 -2.2858  0.1018
  162MOL0     H22296   2.289   9.130   3.122 -0.1634  1.5246 -0.4604
  162MOL0     H22297   2.463   8.886   3.030  1.2239 -1.0952  4.2971
  162MOL0     H22298   2.284   8.919   3.007 -2.4159  1.9559  1.7326
  162MOL0     H22299   2.375   8.748   3.178  0.7817  0.9306 -2.4307
  162MOL0     H22300   2.451   8.873   3.275  0.2593  2.4752 -0.9548
  162MOL0     H22301   2.173   8.782   3.248  2.1113 -1.2888  1.5571
  162MOL0     H22302   2.178   8.962   3.240 -2.0031 -1.8660 -2.0223
  162MOL0     H22303   2.129   8.860   3.470 -1.6007  2.0409 -2.1446
  162MOL0     H22304   2.303   8.817   3.455  1.6580  2.0502  0.9523
  162MOL0     H22305   2.099   9.139   3.397  0.7605  0.4039 -2.5119
  162MOL0     H22306   2.318   9.422   3.568  2.4345 -4.0445  1.1703
  162MOL0     H22307   2.157   9.351   3.613 -1.1810  0.1182 -0.0192
  162MOL0     H22308   2.260   9.464   3.333 -0.1150 -0.0156 -0.1022
  162MOL0     H22309   2.107   9.368   3.347  3.2778 -3.0611 -1.1236
  162MOL0     H22310   2.088   9.616   3.343 -1.6042  1.4943  0.4513
  162MOL0     H22311   2.010   9.556   3.492 -0.3136  1.5799 -0.6782
  162MOL0     H22312   2.188   9.632   3.630 -3.0873  1.5892  0.8215
  162MOL0     H22313   2.275   9.710   3.503  1.5067 -0.2144  1.2366
  162MOL0     H22314   2.140   9.849   3.770 -2.5962 -1.4048 -1.9033
  162MOL0     H22315   2.393  10.042   3.893 -0.5606 -1.4375 -3.8193
  162MOL0     H22316   2.251   9.959   3.947  0.6561  0.6968  1.7855
  162MOL0     H22317   2.247  10.136   3.934  2.2337  2.5554 -0.5121
  162MOL0     H22318   2.294  10.554   3.754  1.1381 -0.8851 -1.8651
  162MOL0     H22319   2.430  10.752   3.732  0.9533  0.6397  1.6277
  162MOL0     H22320   2.917  10.732   3.779  1.0363  4.5255 -0.6618
  162MOL0     H22321   2.816  10.661   3.643 -3.1036 -3.4312  3.6187
  162MOL0     H22322   2.953  10.856   3.579 -1.3793  0.0959 -1.5206
  162MOL0     H22323   2.779  10.880   3.562  2.2628  0.0672 -1.3590
  162MOL0     H22324   2.948  10.983   3.803  0.4424 -0.1202 -0.3673
  162MOL0     H22325   2.775  11.018   3.779 -1.6449  0.4699 -3.8589
  162MOL0     H22326   2.838  11.138   3.565 -0.2249 -0.1877  0.3184
  162MOL0     H22327   3.006  11.108   3.611 -0.4036  0.8521  0.2169
  162MOL0     H22328   2.942  11.217   3.829  1.5655 -0.4105 -1.3823
  162MOL0     H22329   2.951  11.308   3.679  0.4909 -1.1365 -0.1960
  162MOL0     H22330   2.672  11.224   3.777  1.9812 -0.5515  1.2770
  162MOL0     H22331   2.725  11.334   3.644 -1.0422 -0.4669 -0.4316
  162MOL0     H22332   2.765  11.386   3.929 -0.4056 -5.9414 -0.9477
  162MOL0     H22333   2.618  11.458   3.851 -0.2518 -5.4165  1.9443
  162MOL0     H22334   2.726  11.598   3.712 -4.7703  0.9503  3.0536
  162MOL0     H22335   2.892  11.573   3.786 -0.0406 -0.8793 -1.9225
  162MOL0     H22336   2.745  10.498   3.916  0.9410  3.5722 -1.5305
  162MOL0     H22337   2.602  10.321   3.934  3.2167 -0.6396 -0.9885
  162MOL0     H22338   2.287  10.181   3.437 -0.6852 -1.3266 -2.3879
  162MOL0     H22339   2.157   9.983   3.381  3.8956 -2.5440 -0.0132
  162MOL0     H22340   2.424   9.741   3.086  0.3305  0.1926  0.9358
  162MOL0     H22341   2.473   9.903   3.273  1.1693  0.4330  0.3853
  162MOL0     H22342   2.654  10.055   3.577  2.6901  0.0516 -1.5996
  162MOL0     H22343   2.774  10.203   3.739  3.1051 -0.7971  0.9321
  162MOL0     H22344   2.992  10.179   4.107  1.4866 -1.4122 -0.3408
  162MOL0     H22345   2.965  10.012   4.061  1.1874 -2.5574 -4.4608
  162MOL0     H22346   3.092   9.998   3.887 -0.2019  0.9908 -2.0068
  162MOL0     H22347   3.195  10.093   3.984  0.8242 -0.1371 -0.5895
  162MOL0     H22348   3.188  10.179   3.748  1.3816  1.5633  0.0700
  162MOL0     H22349   3.022  10.248   3.784 -2.0015  2.8712  3.7674
  162MOL0     H22350   3.306  10.310   3.873  1.0640  4.4032  2.6846
  162MOL0     H22351   3.178  10.351   3.995 -2.6213  0.2931  0.4021
  162MOL0     H22352   3.102  10.651   3.725  0.3699 -0.3255 -3.8776
  162MOL0     H22353   2.765   9.920   4.056 -2.3454 -1.9123  0.6175
  162MOL0     H22354   2.681   9.637   3.897 -2.8999  0.4118 -4.0387
  162MOL0     H22355   2.653   9.719   4.044 -1.4698 -0.5878  0.5558
  162MOL0     H22356   2.527   9.721   3.932 -0.7559  1.5504  4.0903
  163MOL0     O22357   5.943  10.093   3.849 -1.1486 -0.1172 -0.3824
  163MOL0     C22358   5.912  10.134   3.963  1.0140  1.0213 -0.1534
  163MOL0     O22359   5.966  10.241   4.024 -0.6818  0.0874 -0.3078
  163MOL0     C22360   6.068  10.317   3.959  0.0469  0.0315 -0.5448
  163MOL0     C22361   6.066  10.345   3.827 -0.0651 -0.0299 -0.0410
  163MOL0     C22362   6.149  10.447   3.771  0.5228 -0.0816 -0.3842
  163MOL0     C22363   6.242  10.508   3.855 -0.3905  0.9721 -0.2427
  163MOL0     O22364   6.327  10.603   3.801 -0.5952 -0.3568  0.2205
  163MOL0     C22365   6.416  10.679   3.877 -1.1347  0.6591  0.1078
  163MOL0     C22366   6.432  10.813   3.796 -0.4866 -0.0574 -0.3748
  163MOL0     C22367   6.524  10.798   3.671 -0.4593 -0.2619 -0.1642
  163MOL0     C22368   6.509  10.915   3.580 -0.3656 -0.5931 -0.6404
  163MOL0     C22369   6.590  11.033   3.628 -0.2548 -0.0436 -0.3269
  163MOL0     C22370   6.517  11.173   3.603  0.0558 -0.6168 -0.3940
  163MOL0     C22371   6.612  11.290   3.623  0.0948 -0.6209 -0.1041
  163MOL0     C22372   6.690  11.310   3.757  1.4008 -0.9482  0.1663
  163MOL0     N22373   6.778  11.427   3.741 -0.0837 -0.3702  0.4254
  163MOL0     C22374   6.747  11.557   3.783  0.1133 -1.1553 -0.0331
  163MOL0     C22375   6.851  11.629   3.731  0.1389  0.1076 -0.3412
  163MOL0     C22376   6.853  11.782   3.740 -0.1607  0.2180 -0.4843
  163MOL0     C22377   6.746  11.847   3.655  0.3754 -0.2388  1.1571
  163MOL0     C22378   6.760  11.994   3.643 -0.1140 -0.6422 -0.0559
  163MOL0     C22379   6.754  12.063   3.779 -0.7125 -0.7780 -0.0341
  163MOL0     O22380   6.642  12.031   3.869  0.0337  0.5538  0.4829
  163MOL0     C22381   6.519  12.073   3.830  0.2511 -1.2072  1.3903
  163MOL0     C22382   6.420  11.986   3.822 -1.0218  0.8630  0.3007
  163MOL0     C22383   6.290  12.015   3.789  0.9545  0.5593  0.0801
  163MOL0     C22384   6.186  11.904   3.809  0.8949  0.6495  0.9362
  163MOL0     C22385   6.257  12.148   3.729 -0.4640  0.3514 -0.3549
  163MOL0     C22386   6.137  12.194   3.649  1.0455 -0.0021 -1.3318
  163MOL0     O22387   6.157  12.308   3.575 -0.2385 -0.1265  1.0713
  163MOL0     C22388   6.042  12.369   3.530  0.0928  0.0959 -0.2476
  163MOL0     C22389   6.001  12.365   3.400 -0.1631  0.1966  0.5738
  163MOL0     C22390   5.905  12.455   3.353 -1.3325  0.4014  0.4796
  163MOL0     C22391   5.837  12.542   3.432 -1.0388  0.8707 -0.0734
  163MOL0     O22392   5.750  12.633   3.401 -0.3260  0.2058 -0.7475
  163MOL0     C22393   5.718  12.652   3.261 -0.1326 -0.5114  0.1913
  163MOL0     C22394   5.633  12.784   3.234 -0.2733 -1.0811  0.5489
  163MOL0     C22395   5.548  12.764   3.110 -0.4520  0.4583  0.2868
  163MOL0     C22396   5.498  12.902   3.062 -0.3356  0.0387 -0.0973
  163MOL0     C22397   5.398  12.923   2.949  0.2978 -0.1548  0.8434
  163MOL0     C22398   5.257  12.860   2.961  0.7935  0.2192 -0.3961
  163MOL0     C22399   5.150  12.899   2.857 -0.5174 -0.0382 -0.8326
  163MOL0     C22400   5.160  12.794   2.740  0.4830 -0.0310 -0.1699
  163MOL0    Cl22401   5.139  12.622   2.786  0.2370  0.1842  0.2140
  163MOL0     C22402   5.862  12.530   3.574 -0.0449 -0.1236  0.1727
  163MOL0     C22403   5.970  12.451   3.620 -0.8606 -0.3760  0.6181
  163MOL0     O22404   6.042  12.118   3.637 -0.5728  0.1792  1.2834
  163MOL0     C22405   6.359  12.242   3.750 -0.6967 -0.5299  1.0359
  163MOL0     C22406   6.487  12.203   3.779 -0.6107 -0.2915  0.0796
  163MOL0     N22407   6.931  11.547   3.650 -0.3053 -0.7879  0.4944
  163MOL0     N22408   6.886  11.427   3.651  0.2698  0.0783  0.4453
  163MOL0     C22409   6.263  10.460   3.986  0.6179  0.4342  0.1222
  163MOL0     C22410   6.180  10.364   4.032 -0.4495 -0.4189  0.6869
  163MOL0     C22411   5.822  10.041   4.041  0.2667 -0.5674  0.0923
  163MOL0     C22412   5.793  10.074   4.176 -0.3242  0.7102  0.2617
  163MOL0     C22413   5.703   9.991   4.252 -0.1858  0.2673 -0.1380
  163MOL0     C22414   5.632   9.896   4.191  0.5536  0.2345  0.8902
  163MOL0     O22415   5.509   9.861   4.245 -0.1480  1.1564 -0.1176
  163MOL0     C22416   5.517   9.767   4.361  0.1808 -0.4031  0.6655
  163MOL0     C22417   5.378   9.716   4.398  0.5483 -0.2088 -0.1837
  163MOL0     C22418   5.266   9.814   4.396 -0.6237  0.4227 -0.2831
  163MOL0     C22419   5.130   9.769   4.444  0.8153 -0.3485  0.3071
  163MOL0     C22420   5.124   9.731   4.589 -0.1318 -0.2197 -0.3137
  163MOL0     C22421   5.104   9.689   4.696 -0.6417  0.2399 -0.4894
  163MOL0     C22422   5.663   9.861   4.062  0.1264 -0.3212  0.1818
  163MOL0     C22423   5.761   9.927   3.986 -1.5378 -0.0635  0.1503
  163MOL0     C22424   5.796   9.855   3.860  0.3353 -0.0415  0.6821
  163MOL0     H22425   5.987  10.303   3.765  1.4185 -2.2282 -0.5425
  163MOL0     H22426   6.135  10.476   3.668 -0.3665  3.1649  0.5432
  163MOL0     H22427   6.514  10.630   3.882 -2.0398 -1.3042 -0.6132
  163MOL0     H22428   6.390  10.701   3.981  2.0564 -1.4313  1.4926
  163MOL0     H22429   6.333  10.840   3.757  0.3376  0.2314 -2.3901
  163MOL0     H22430   6.456  10.892   3.868  3.6485 -1.2308 -0.2120
  163MOL0     H22431   6.625  10.774   3.705  0.7926  0.2775 -3.1801
  163MOL0     H22432   6.487  10.717   3.606 -0.6837  1.8675 -2.8643
  163MOL0     H22433   6.541  10.904   3.476  0.5242  0.1992 -0.4672
  163MOL0     H22434   6.401  10.932   3.575 -1.2619 -3.9079  2.9690
  163MOL0     H22435   6.679  11.018   3.565 -2.3013 -0.6101 -3.3192
  163MOL0     H22436   6.619  11.024   3.733 -1.1650  1.5912  0.0955
  163MOL0     H22437   6.469  11.174   3.504 -1.9406 -0.6745  0.5370
  163MOL0     H22438   6.433  11.177   3.672 -1.5991 -0.5475 -2.3258
  163MOL0     H22439   6.547  11.377   3.607  2.2124  0.7930 -1.7728
  163MOL0     H22440   6.686  11.299   3.542 -1.1642  1.6033 -1.1041
  163MOL0     H22441   6.625  11.329   3.843  1.2176 -1.8746  0.2346
  163MOL0     H22442   6.748  11.223   3.789  0.1417 -1.1919  1.9378
  163MOL0     H22443   6.672  11.594   3.852  0.5657  1.6717 -0.9164
  163MOL0     H22444   6.950  11.813   3.698  0.3554 -0.9558 -0.2153
  163MOL0     H22445   6.849  11.809   3.846  2.7565  0.5792 -0.3754
  163MOL0     H22446   6.763  11.808   3.554  1.2197  0.7812  0.8877
  163MOL0     H22447   6.641  11.829   3.682 -0.2043  1.8722  0.4792
  163MOL0     H22448   6.844  12.022   3.579  1.0570  1.1124  2.1204
  163MOL0     H22449   6.672  12.035   3.594  0.9495 -0.8576 -2.2769
  163MOL0     H22450   6.843  12.029   3.833 -0.2386 -0.2108 -0.4446
  163MOL0     H22451   6.766  12.171   3.765  0.6040 -1.2045 -2.7619
  163MOL0     H22452   6.448  11.887   3.856 -1.5250  1.1233  1.5053
  163MOL0     H22453   6.183  11.857   3.710  0.8031  2.6944 -0.0799
  163MOL0     H22454   6.088  11.947   3.832  0.0510 -0.5590 -0.2115
  163MOL0     H22455   6.210  11.837   3.892 -0.7886 -1.9024 -0.4530
  163MOL0     H22456   6.065  12.311   3.330  1.4617 -0.9571  2.8482
  163MOL0     H22457   5.890  12.454   3.245  1.0916 -0.7772  0.0835
  163MOL0     H22458   5.812  12.658   3.205  0.6214  0.8707  1.5451
  163MOL0     H22459   5.655  12.567   3.232 -0.2130  0.1839 -1.7864
  163MOL0     H22460   5.561  12.805   3.314  1.6013  3.2792  1.3721
  163MOL0     H22461   5.697  12.872   3.221 -1.8429  0.0664  0.2125
  163MOL0     H22462   5.459  12.709   3.141  0.3804 -0.8922  0.3447
  163MOL0     H22463   5.604  12.722   3.026  0.1283  1.1217  0.3290
  163MOL0     H22464   5.588  12.952   3.024 -1.2939 -0.0678 -2.6980
  163MOL0     H22465   5.446  12.952   3.145 -0.2749 -3.9859  2.6570
  163MOL0     H22466   5.396  13.031   2.933 -1.5796 -0.5570 -2.3796
  163MOL0     H22467   5.443  12.891   2.855 -0.7365  3.5505 -1.1128
  163MOL0     H22468   5.213  12.891   3.057  1.0008  3.8976 -1.3455
  163MOL0     H22469   5.278  12.753   2.976 -3.1947 -0.5631  0.7211
  163MOL0     H22470   5.168  13.001   2.821  0.9028 -1.0611 -3.2829
  163MOL0     H22471   5.050  12.892   2.902 -0.8499 -0.2889 -1.5857
  163MOL0     H22472   5.266  12.787   2.714  1.4903 -0.8353  3.5628
  163MOL0     H22473   5.083  12.831   2.671  0.6258  4.0092  1.5607
  163MOL0     H22474   5.811  12.587   3.651 -0.0162 -2.8198  2.3302
  163MOL0     H22475   5.986  12.451   3.728 -0.2345 -2.1051  0.5599
  163MOL0     H22476   6.341  12.348   3.740 -0.4780 -0.7256 -2.4358
  163MOL0     H22477   6.571  12.271   3.779 -0.2273 -0.7594 -0.4668
  163MOL0     H22478   6.351  10.493   4.039 -0.5708  0.1481  2.3969
  163MOL0     H22479   6.189  10.320   4.131  0.1638 -1.0878  0.3417
  163MOL0     H22480   5.832  10.166   4.219 -1.1050  1.8346 -1.3140
  163MOL0     H22481   5.677  10.012   4.355  0.0711 -2.0038  0.4463
  163MOL0     H22482   5.582   9.683   4.336 -1.1404 -1.2574 -0.0264
  163MOL0     H22483   5.552   9.827   4.445  2.6381 -0.2961 -0.3518
  163MOL0     H22484   5.392   9.677   4.499  0.4146 -2.7341 -1.0812
  163MOL0     H22485   5.346   9.633   4.334 -2.0223 -1.2741  2.2628
  163MOL0     H22486   5.305   9.888   4.467  0.6479 -2.0608  1.7483
  163MOL0     H22487   5.262   9.845   4.291  3.8000  1.8374 -0.2246
  163MOL0     H22488   5.085   9.689   4.386 -3.0524  0.1472  2.2977
  163MOL0     H22489   5.060   9.852   4.428 -1.9630 -1.9437  3.0349
  163MOL0     H22490   5.097   9.639   4.791  0.9341 -0.0210 -0.4883
  163MOL0     H22491   5.605   9.777   4.025 -0.0918  0.0760 -0.4016
  163MOL0     H22492   5.709   9.793   3.833  0.6392  0.7103 -2.3651
  163MOL0     H22493   5.814   9.908   3.767  0.0970 -0.0371  0.6377
  163MOL0     H22494   5.879   9.787   3.882 -0.0745 -0.9634 -0.4933
  164MOL0     O22495   7.275  11.267   2.895 -0.3869 -0.8547  0.8699
  164MOL0     C22496   7.298  11.255   2.775  0.6304  0.9634 -0.1975
  164MOL0     O22497   7.206  11.210   2.681 -0.6024  0.5744  0.0615
  164MOL0     C22498   7.232  11.217   2.544 -0.3835 -0.1117 -0.2034
  164MOL0     C22499   7.256  11.102   2.473 -0.2510  0.2114  0.2366
  164MOL0     C22500   7.287  11.108   2.337 -0.5943 -0.1615 -0.4236
  164MOL0     C22501   7.284  11.229   2.265 -0.3551 -0.8187 -0.1067
  164MOL0     O22502   7.320  11.226   2.132  0.3303 -0.3364 -1.1978
  164MOL0     C22503   7.263  11.331   2.047  0.1828  0.9155 -0.2858
  164MOL0     C22504   7.223  11.274   1.920 -0.1122  0.0298  0.1125
  164MOL0     C22505   7.342  11.212   1.840  0.5250 -0.2986  0.8665
  164MOL0     C22506   7.384  11.315   1.732  0.7298 -0.5117 -0.2831
  164MOL0     C22507   7.495  11.269   1.626  1.0377  0.6422 -0.4486
  164MOL0     C22508   7.447  11.342   1.503 -0.2175  0.5520  0.6412
  164MOL0     C22509   7.541  11.302   1.373  0.7113  0.4242 -0.2575
  164MOL0     C22510   7.674  11.372   1.393  0.4490  0.1826 -0.2133
  164MOL0     N22511   7.759  11.357   1.268 -0.8153 -0.3824 -0.5726
  164MOL0     C22512   7.806  11.228   1.227 -0.2548 -0.2900 -0.1384
  164MOL0     C22513   7.874  11.277   1.113  1.1505  0.3796  0.6298
  164MOL0     C22514   7.959  11.190   1.027  0.3829  0.6002 -1.2815
  164MOL0     C22515   7.889  11.124   0.908 -0.1347  0.0227 -0.2075
  164MOL0     C22516   7.975  11.005   0.852 -0.4786 -0.3993  0.5760
  164MOL0     C22517   7.913  10.970   0.708 -0.1707  0.4807 -0.3260
  164MOL0     O22518   7.925  11.083   0.623 -1.0102 -0.1042 -1.4327
  164MOL0     C22519   8.054  11.122   0.575  0.3447  0.4343 -0.0005
  164MOL0     C22520   8.170  11.044   0.573  0.2210 -0.3238  0.3662
  164MOL0     C22521   8.291  11.096   0.529 -0.3980  0.0073 -0.0788
  164MOL0     C22522   8.409  10.999   0.539 -1.4334 -0.3750  0.2544
  164MOL0     C22523   8.293  11.230   0.467 -0.4300 -0.6574  0.4785
  164MOL0     C22524   8.422  11.287   0.417 -0.4500  0.1998  0.0725
  164MOL0     O22525   8.431  11.427   0.439  0.5007  0.8814 -0.4801
  164MOL0     C22526   8.544  11.490   0.397  0.5615  0.2857 -0.3615
  164MOL0     C22527   8.665  11.451   0.441 -0.4818 -0.1297 -0.1459
  164MOL0     C22528   8.777  11.513   0.402 -0.7502 -0.2913  0.6296
  164MOL0     C22529   8.782  11.625   0.321  0.2495  0.1861 -0.6496
  164MOL0     O22530   8.893  11.699   0.277 -0.7393  0.1652  0.1002
  164MOL0     C22531   9.016  11.673   0.339 -0.1452 -0.1054 -0.5096
  164MOL0     C22532   9.023  11.745   0.479  1.1297  0.3898 -0.6320
  164MOL0     C22533   9.027  11.898   0.473  0.1813  0.1861 -0.1097
  164MOL0     C22534   9.089  11.976   0.587  0.0977 -0.2613 -0.4482
  164MOL0     C22535   9.242  11.995   0.590 -0.5887  0.5404 -0.1076
  164MOL0     C22536   9.286  12.071   0.458 -0.3522 -0.2255 -0.2208
  164MOL0     C22537   9.253  12.222   0.445  0.8410  0.5878 -0.2663
  164MOL0     C22538   9.246  12.293   0.580  0.1026 -0.6500 -0.1852
  164MOL0    Cl22539   9.211  12.469   0.529 -0.0616 -0.5851 -0.8765
  164MOL0     C22540   8.659  11.674   0.281  0.5440 -0.1609  0.3507
  164MOL0     C22541   8.546  11.607   0.317  0.5398 -0.0596  0.8499
  164MOL0     O22542   8.517  11.206   0.382 -0.2702  0.6056  0.5642
  164MOL0     C22543   8.175  11.303   0.466  0.5795  0.5797  1.3455
  164MOL0     C22544   8.052  11.250   0.518  0.1708 -0.0109 -0.2237
  164MOL0     N22545   7.856  11.412   1.094 -0.4534  0.3558  0.6114
  164MOL0     N22546   7.797  11.463   1.187  0.1354  0.8197 -0.0905
  164MOL0     C22547   7.245  11.341   2.336 -0.1097 -1.1331 -0.2734
  164MOL0     C22548   7.218  11.346   2.471  0.8345  1.0136 -0.4207
  164MOL0     C22549   7.433  11.312   2.739  1.7438 -0.5126  0.9835
  164MOL0     C22550   7.441  11.449   2.714  0.1642  0.0707  0.3325
  164MOL0     C22551   7.557  11.509   2.664 -0.9295  0.6976  1.0870
  164MOL0     C22552   7.654  11.434   2.606  0.1471 -0.2221  0.1374
  164MOL0     O22553   7.770  11.476   2.533 -0.9134  0.5501 -0.3309
  164MOL0     C22554   7.775  11.610   2.476 -0.5971 -0.0325 -0.2843
  164MOL0     C22555   7.665  11.645   2.376  0.2740  1.0550 -0.1399
  164MOL0     C22556   7.700  11.594   2.230  0.2678 -0.6621 -0.4430
  164MOL0     C22557   7.578  11.610   2.139 -0.4199  0.0781  0.1400
  164MOL0     C22558   7.621  11.569   2.004  0.4638  0.6069 -1.2210
  164MOL0     C22559   7.660  11.510   1.900  1.0718  1.0920 -0.5920
  164MOL0     C22560   7.644  11.299   2.619 -0.0952  1.1570 -0.2583
  164MOL0     C22561   7.535  11.235   2.683 -0.9180 -0.7734  0.5787
  164MOL0     C22562   7.542  11.085   2.695  0.9359  0.2086 -0.2142
  164MOL0     H22563   7.253  11.005   2.520 -1.2394  2.0850  4.5788
  164MOL0     H22564   7.322  11.030   2.270 -0.4223  0.7092 -1.3746
  164MOL0     H22565   7.328  11.419   2.037  2.7325 -0.3736  2.8988
  164MOL0     H22566   7.165  11.357   2.088 -0.9860 -1.8994 -1.0981
  164MOL0     H22567   7.170  11.181   1.943  1.8612 -1.6593 -1.8266
  164MOL0     H22568   7.154  11.331   1.857  1.4595 -0.1302 -1.8326
  164MOL0     H22569   7.429  11.170   1.891 -0.5279 -2.8383  0.7237
  164MOL0     H22570   7.315  11.124   1.781 -2.3266  0.0109  1.5537
  164MOL0     H22571   7.289  11.338   1.682  1.7320  0.5100 -1.7780
  164MOL0     H22572   7.404  11.410   1.782 -1.8261  1.6952 -3.0372
  164MOL0     H22573   7.488  11.162   1.601 -3.4600  0.7816 -0.7383
  164MOL0     H22574   7.594  11.299   1.661  1.4891 -1.9301  0.7477
  164MOL0     H22575   7.344  11.324   1.471  0.1951  3.2253 -2.7417
  164MOL0     H22576   7.441  11.449   1.526 -1.4620  0.2616  1.8054
  164MOL0     H22577   7.492  11.336   1.282  2.7001  0.6676 -1.2985
  164MOL0     H22578   7.573  11.197   1.367  3.0531  1.1159 -0.8351
  164MOL0     H22579   7.656  11.478   1.413  1.3845  0.2399  0.3672
  164MOL0     H22580   7.719  11.315   1.475 -0.0069 -0.9126 -0.7015
  164MOL0     H22581   7.777  11.128   1.258 -0.7289  0.0226  0.4565
  164MOL0     H22582   7.997  11.114   1.097 -0.1383 -1.9124 -3.5503
  164MOL0     H22583   8.045  11.248   0.994  0.1767  1.2599 -0.6727
  164MOL0     H22584   7.785  11.099   0.931  0.2072 -3.6444 -1.9978
  164MOL0     H22585   7.882  11.190   0.820 -4.5573 -3.0131 -2.5100
  164MOL0     H22586   8.082  11.026   0.843 -0.2249 -1.8051  0.0067
  164MOL0     H22587   7.980  10.913   0.911  1.4270 -0.0515  1.0135
  164MOL0     H22588   7.963  10.889   0.654 -1.6718 -1.0493  0.4697
  164MOL0     H22589   7.813  10.929   0.721  0.0868 -0.0277  0.1273
  164MOL0     H22590   8.174  10.941   0.608  3.4462 -0.1412  0.7997
  164MOL0     H22591   8.435  10.955   0.442  0.7462 -0.2564  0.7228
  164MOL0     H22592   8.390  10.919   0.612 -0.5818  0.6026  1.6056
  164MOL0     H22593   8.491  11.059   0.579 -1.7177  0.2147 -0.0456
  164MOL0     H22594   8.668  11.373   0.516 -2.0200 -1.4805 -1.3986
  164MOL0     H22595   8.869  11.483   0.450 -0.0519  1.8531  0.7443
  164MOL0     H22596   9.040  11.567   0.340 -0.9737 -0.3268 -1.7784
  164MOL0     H22597   9.081  11.725   0.268  0.0283  0.6577  0.1928
  164MOL0     H22598   8.943  11.709   0.544  1.4215  1.4709  0.3688
  164MOL0     H22599   9.112  11.710   0.533  0.9121 -2.0957 -1.7375
  164MOL0     H22600   8.923  11.932   0.470 -0.6622 -2.0714  1.2032
  164MOL0     H22601   9.068  11.917   0.373 -1.1768 -3.6895 -1.6109
  164MOL0     H22602   9.053  11.927   0.678 -0.4678  1.8787  0.5621
  164MOL0     H22603   9.045  12.076   0.576  1.7777  0.4291 -1.2883
  164MOL0     H22604   9.274  12.050   0.678 -4.1698 -0.6167  2.1355
  164MOL0     H22605   9.289  11.898   0.610  1.1360  1.8363  2.7190
  164MOL0     H22606   9.244  12.025   0.368  1.3404 -4.7241  1.0321
  164MOL0     H22607   9.395  12.060   0.453 -0.3653 -3.5769  2.9518
  164MOL0     H22608   9.151  12.240   0.413 -0.0609  2.7542  3.2506
  164MOL0     H22609   9.324  12.260   0.371  0.0312  2.2577 -0.2182
  164MOL0     H22610   9.333  12.275   0.644  1.4026  2.5601 -0.8532
  164MOL0     H22611   9.161  12.261   0.642 -0.4480 -1.6051 -1.3678
  164MOL0     H22612   8.629  11.762   0.226 -0.6642 -1.5709 -1.3874
  164MOL0     H22613   8.459  11.661   0.280  1.9487  2.1053  0.5427
  164MOL0     H22614   8.168  11.397   0.412  0.0803  2.3406  4.2569
  164MOL0     H22615   7.962  11.310   0.509  0.0902  0.0037  0.6216
  164MOL0     H22616   7.229  11.437   2.289 -0.6563  1.0954  4.0443
  164MOL0     H22617   7.183  11.434   2.523  1.1251  1.0379 -0.2623
  164MOL0     H22618   7.371  11.522   2.754  1.3584 -0.6607  4.2139
  164MOL0     H22619   7.572  11.616   2.649  0.5692  0.5371  1.2479
  164MOL0     H22620   7.756  11.677   2.560 -0.3357 -0.7283  0.3445
  164MOL0     H22621   7.877  11.635   2.446 -0.4537 -1.6351 -1.2931
  164MOL0     H22622   7.647  11.753   2.376 -0.1405  0.9947  0.7418
  164MOL0     H22623   7.568  11.605   2.406 -0.0661  0.2306 -2.2325
  164MOL0     H22624   7.770  11.668   2.189 -0.1842 -0.4607 -0.8620
  164MOL0     H22625   7.751  11.497   2.232  1.6300 -0.0072 -1.6691
  164MOL0     H22626   7.535  11.710   2.127 -3.2856 -1.1332 -0.5577
  164MOL0     H22627   7.495  11.547   2.173 -2.1025  1.2988 -1.4423
  164MOL0     H22628   7.693  11.478   1.803  1.2239  2.7575 -1.1166
  164MOL0     H22629   7.728  11.241   2.583  0.4182  1.1147  0.9647
  164MOL0     H22630   7.497  11.051   2.788  1.2078 -1.9344 -0.8043
  164MOL0     H22631   7.484  11.037   2.615  2.3187 -0.7673 -0.6708
  164MOL0     H22632   7.649  11.061   2.689  1.2136  0.8130  1.8180
  165MOL0     O22633   0.431   1.232   6.298  0.8603 -0.1579 -1.0657
  165MOL0     C22634   0.470   1.132   6.242  0.7365  0.4055 -0.6076
  165MOL0     O22635   0.435   1.090   6.115 -0.4568 -0.2241 -0.2585
  165MOL0     C22636   0.349   1.175   6.055 -0.0606 -0.9920 -0.6558
  165MOL0     C22637   0.412   1.279   5.977  0.3282 -0.1972 -0.1962
  165MOL0     C22638   0.320   1.346   5.894 -0.2278 -0.1787  0.1397
  165MOL0     C22639   0.180   1.322   5.904  0.8956 -0.5561  0.2114
  165MOL0     O22640   0.076   1.390   5.841 -1.0366  0.4227 -0.0712
  165MOL0     C22641   0.107   1.474   5.732 -0.2506 -0.1745 -0.2046
  165MOL0     C22642  -0.011   1.568   5.710 -0.2157  0.2025 -0.0786
  165MOL0     C22643  -0.132   1.507   5.647 -0.0197  0.0993 -0.0049
  165MOL0     C22644  -0.232   1.626   5.619  0.3397  0.9716  0.1185
  165MOL0     C22645  -0.331   1.588   5.513 -0.0156  0.3253  0.5823
  165MOL0     C22646  -0.422   1.699   5.478 -0.2823 -1.2100  0.1479
  165MOL0     C22647  -0.467   1.689   5.332 -0.2564 -0.0504  0.3917
  165MOL0     C22648  -0.372   1.736   5.221  0.3332 -0.8999  0.5008
  165MOL0     N22649  -0.443   1.712   5.099  0.1925  0.0908 -0.0878
  165MOL0     C22650  -0.438   1.597   5.024  0.1371  0.2981 -0.4935
  165MOL0     C22651  -0.538   1.612   4.935  0.0664  1.2294  0.2270
  165MOL0     C22652  -0.584   1.512   4.833  0.2435 -0.0085  0.5890
  165MOL0     C22653  -0.710   1.450   4.864 -0.1347  0.6601  1.0468
  165MOL0     C22654  -0.698   1.358   4.987  0.1413 -0.3397 -0.6560
  165MOL0     C22655  -0.821   1.273   5.015  0.1443  0.2892 -0.4297
  165MOL0     O22656  -0.838   1.168   4.927 -0.3110  0.1795  0.4093
  165MOL0     C22657  -0.971   1.143   4.906 -1.1120 -0.2820  0.1190
  165MOL0     C22658  -1.051   1.206   4.810 -0.5699  0.5038  0.1778
  165MOL0     C22659  -1.181   1.157   4.775  0.1316 -0.1410  0.0467
  165MOL0     C22660  -1.246   1.232   4.662  0.0884  0.2236  0.5259
  165MOL0     C22661  -1.223   1.034   4.839  0.0972 -0.2975 -1.0082
  165MOL0     C22662  -1.356   0.978   4.800  0.1527 -0.0799 -1.2395
  165MOL0     O22663  -1.417   0.890   4.894 -0.0935  0.5088 -0.0787
  165MOL0     C22664  -1.542   0.847   4.861 -0.0530 -0.8170 -0.1279
  165MOL0     C22665  -1.566   0.729   4.791 -0.4001  0.2493  0.6034
  165MOL0     C22666  -1.696   0.672   4.783 -0.2480 -0.1076 -0.4069
  165MOL0     C22667  -1.808   0.731   4.834 -0.2435  0.2720  0.1713
  165MOL0     O22668  -1.935   0.681   4.836  0.2973  1.0644 -0.4497
  165MOL0     C22669  -1.972   0.614   4.715 -0.3200  0.3778 -0.0228
  165MOL0     C22670  -2.121   0.652   4.684  0.2760 -0.6516 -0.5208
  165MOL0     C22671  -2.182   0.553   4.585  0.2151 -0.4497  0.1101
  165MOL0     C22672  -2.121   0.415   4.575  0.3743 -0.6836 -0.2054
  165MOL0     C22673  -2.182   0.329   4.461  0.1367 -0.0565  0.1380
  165MOL0     C22674  -2.312   0.262   4.501 -0.8829  0.0672 -0.2845
  165MOL0     C22675  -2.348   0.163   4.391 -0.1182 -0.3041 -0.1911
  165MOL0     C22676  -2.500   0.139   4.396 -1.3357 -0.1740  0.2684
  165MOL0    Cl22677  -2.549   0.025   4.269  0.0423 -0.2724 -0.3252
  165MOL0     C22678  -1.784   0.843   4.902  0.2453 -0.0435  0.3263
  165MOL0     C22679  -1.655   0.907   4.923 -0.4844 -0.5611  0.0125
  165MOL0     O22680  -1.408   0.994   4.691 -0.2029 -1.1617 -0.0438
  165MOL0     C22681  -1.152   0.982   4.953  0.2194 -0.3889  0.9134
  165MOL0     C22682  -1.032   1.041   4.984 -0.6283  0.4337  0.6053
  165MOL0     N22683  -0.599   1.735   4.951  0.6734 -0.9033 -0.0140
  165MOL0     N22684  -0.538   1.798   5.044  0.5390  0.5607 -0.2631
  165MOL0     C22685   0.139   1.229   5.988  0.0385  0.7532  0.0407
  165MOL0     C22686   0.217   1.157   6.065  0.9508  0.3666 -0.3788
  165MOL0     C22687   0.563   1.050   6.323  0.6774 -0.5702 -0.2705
  165MOL0     C22688   0.609   1.108   6.444  0.1632  1.0543 -1.1999
  165MOL0     C22689   0.685   1.035   6.541  0.3422 -1.2941 -0.7368
  165MOL0     C22690   0.726   0.909   6.515 -0.3755  0.1332 -0.3434
  165MOL0     O22691   0.799   0.859   6.619  0.5968  0.8949 -1.1235
  165MOL0     C22692   0.840   0.720   6.599 -0.1934 -0.8658 -0.1480
  165MOL0     C22693   0.865   0.653   6.736  1.0081 -0.2946 -0.0715
  165MOL0     C22694   0.922   0.749   6.854 -0.1675  0.4771 -0.7660
  165MOL0     C22695   0.958   0.690   6.984 -0.0061  0.4433  0.3156
  165MOL0     C22696   1.066   0.590   6.970 -0.1091 -0.5432 -0.3137
  165MOL0     C22697   1.152   0.505   6.971 -0.0721 -0.5188 -0.0728
  165MOL0     C22698   0.699   0.849   6.388 -0.7419  0.6866 -0.3796
  165MOL0     C22699   0.613   0.916   6.299 -0.0243 -0.4602  0.4851
  165MOL0     C22700   0.549   0.827   6.179 -0.1715 -0.7872  0.0439
  165MOL0     H22701   0.519   1.293   5.971  0.0620  1.3158 -3.2836
  165MOL0     H22702   0.367   1.422   5.832 -0.1267 -0.4218 -0.0886
  165MOL0     H22703   0.128   1.411   5.645  1.4069 -1.9479  1.3881
  165MOL0     H22704   0.194   1.539   5.748 -0.9815  0.5614  0.9100
  165MOL0     H22705  -0.039   1.613   5.806  1.0863 -0.1054  0.4728
  165MOL0     H22706   0.027   1.638   5.635  0.4181 -0.5435 -0.4671
  165MOL0     H22707  -0.104   1.459   5.553  1.0057  1.5109 -0.4550
  165MOL0     H22708  -0.172   1.427   5.711 -0.4228 -0.0582 -0.4506
  165MOL0     H22709  -0.289   1.647   5.710 -2.9460  1.2352 -1.8654
  165MOL0     H22710  -0.178   1.715   5.585 -4.0256  4.1693  0.8271
  165MOL0     H22711  -0.379   1.495   5.546  1.4374  0.4393  3.3854
  165MOL0     H22712  -0.275   1.548   5.428 -2.0101 -0.6955 -0.3274
  165MOL0     H22713  -0.503   1.690   5.552  0.2416  0.2516  0.9287
  165MOL0     H22714  -0.368   1.793   5.491  0.2022 -1.3675 -0.6531
  165MOL0     H22715  -0.549   1.761   5.330 -0.2351 -0.0470 -0.4722
  165MOL0     H22716  -0.504   1.590   5.305  2.7366 -0.2132 -4.2709
  165MOL0     H22717  -0.356   1.844   5.233  1.9711 -1.2448  1.7814
  165MOL0     H22718  -0.277   1.681   5.216 -0.5986 -2.7232 -5.9001
  165MOL0     H22719  -0.372   1.511   5.018  2.0715  1.5295  1.6547
  165MOL0     H22720  -0.514   1.429   4.823  1.0715  0.5876  1.2668
  165MOL0     H22721  -0.586   1.562   4.736  0.1360  1.1974  1.1848
  165MOL0     H22722  -0.789   1.522   4.885 -0.9699  0.2622 -0.5728
  165MOL0     H22723  -0.740   1.378   4.787  0.2039 -2.6273  3.7385
  165MOL0     H22724  -0.607   1.296   4.983  0.3427  0.0146 -1.8901
  165MOL0     H22725  -0.685   1.418   5.077 -0.6199 -2.1484  0.7277
  165MOL0     H22726  -0.833   1.239   5.119 -0.2265  1.8821  0.0736
  165MOL0     H22727  -0.907   1.336   4.990 -1.2074 -1.1480  0.4430
  165MOL0     H22728  -0.999   1.288   4.762  1.9923 -1.0608  0.0843
  165MOL0     H22729  -1.272   1.152   4.591  1.1056  1.6776 -1.5853
  165MOL0     H22730  -1.171   1.291   4.609  1.1643  0.3660  2.1421
  165MOL0     H22731  -1.336   1.283   4.698  0.6437  1.7681 -0.1993
  165MOL0     H22732  -1.483   0.681   4.740 -0.5989 -0.7851  1.2212
  165MOL0     H22733  -1.715   0.573   4.743 -1.2614 -0.2508  0.3975
  165MOL0     H22734  -1.913   0.644   4.628 -0.8950  1.5739 -0.0299
  165MOL0     H22735  -1.947   0.509   4.734  0.6929  0.9961  2.4193
  165MOL0     H22736  -2.191   0.666   4.767 -0.0464  0.4731 -0.9583
  165MOL0     H22737  -2.128   0.755   4.647 -2.3509  0.4846  2.6598
  165MOL0     H22738  -2.176   0.606   4.490  1.6874 -0.4540  0.1738
  165MOL0     H22739  -2.289   0.541   4.601 -0.1298 -0.7380 -2.1090
  165MOL0     H22740  -2.126   0.360   4.669 -0.8008 -4.6110 -2.3164
  165MOL0     H22741  -2.017   0.423   4.544  1.0896 -0.3191  2.1088
  165MOL0     H22742  -2.191   0.380   4.365  1.9554 -1.9300 -1.1159
  165MOL0     H22743  -2.116   0.244   4.444 -2.2083 -2.5284  2.4206
  165MOL0     H22744  -2.390   0.339   4.498  0.7875  1.7844 -1.5464
  165MOL0     H22745  -2.294   0.215   4.598  1.3027  1.3926  0.0257
  165MOL0     H22746  -2.293   0.069   4.402  3.4115  1.4311 -1.4363
  165MOL0     H22747  -2.329   0.190   4.287 -1.0547 -3.0954 -1.1665
  165MOL0     H22748  -2.539   0.241   4.388  4.0719  2.1812 -0.2033
  165MOL0     H22749  -2.533   0.090   4.488  2.5993 -1.2680  1.2788
  165MOL0     H22750  -1.872   0.870   4.960 -1.5453 -2.1448 -1.2790
  165MOL0     H22751  -1.646   0.993   4.989 -0.5166 -0.5176 -0.0391
  165MOL0     H22752  -1.179   0.904   5.025  1.1911  0.1037  1.8394
  165MOL0     H22753  -0.971   0.998   5.063 -0.9699  0.1577  0.7217
  165MOL0     H22754   0.037   1.193   5.989  0.6797 -1.2539  2.3845
  165MOL0     H22755   0.178   1.073   6.121  1.3860  0.8831  0.7330
  165MOL0     H22756   0.578   1.207   6.475 -0.1884  1.1720 -1.9187
  165MOL0     H22757   0.698   1.080   6.639  0.9895 -0.8000 -1.0453
  165MOL0     H22758   0.756   0.666   6.553  0.4834 -1.6865 -0.4485
  165MOL0     H22759   0.927   0.713   6.533 -0.8424 -0.6943 -1.0516
  165MOL0     H22760   0.928   0.565   6.724  0.2845 -1.0078  1.1289
  165MOL0     H22761   0.767   0.615   6.766  1.8278 -1.6652  0.9786
  165MOL0     H22762   1.022   0.781   6.822 -0.5634 -0.5435 -3.2270
  165MOL0     H22763   0.869   0.842   6.875  2.8477  1.8066  1.8329
  165MOL0     H22764   0.870   0.651   7.036 -0.4860  3.9772  2.4810
  165MOL0     H22765   0.997   0.767   7.052  1.1950 -1.9353  2.4748
  165MOL0     H22766   1.213   0.417   6.964 -1.3839 -1.4152 -0.5682
  165MOL0     H22767   0.749   0.755   6.366  2.6878  1.8832  1.4470
  165MOL0     H22768   0.587   0.724   6.182  1.0041 -0.4789 -2.0736
  165MOL0     H22769   0.440   0.818   6.181 -0.0372 -4.0084 -1.0780
  165MOL0     H22770   0.584   0.878   6.089  1.3152 -0.3995  0.8060
  166MOL0     O22771   2.457   8.264   3.292 -0.7266 -0.4466 -0.1253
  166MOL0     C22772   2.566   8.219   3.315 -0.0766 -0.1556 -1.3297
  166MOL0     O22773   2.681   8.250   3.240 -0.4173 -0.7953 -0.8038
  166MOL0     C22774   2.677   8.342   3.140 -0.0442  0.0428 -0.3177
  166MOL0     C22775   2.645   8.480   3.167  0.7617  0.5451 -0.6766
  166MOL0     C22776   2.646   8.576   3.070 -0.6799  0.4108  0.0963
  166MOL0     C22777   2.666   8.542   2.938 -0.3644  0.1374  0.4081
  166MOL0     O22778   2.670   8.655   2.856  0.0697  0.5513  0.4822
  166MOL0     C22779   2.655   8.622   2.722 -1.0400 -0.7803  0.4642
  166MOL0     C22780   2.634   8.743   2.635  0.4059  0.1658  0.0891
  166MOL0     C22781   2.551   8.724   2.509  0.6546 -0.4516 -0.6224
  166MOL0     C22782   2.407   8.766   2.551 -0.4939 -1.0183  0.5648
  166MOL0     C22783   2.296   8.753   2.440 -0.3561  0.2871  0.1175
  166MOL0     C22784   2.318   8.840   2.316  0.1018 -0.4579 -0.0568
  166MOL0     C22785   2.216   8.794   2.203 -0.1376  0.1336  1.1842
  166MOL0     C22786   2.275   8.687   2.117 -0.5147  0.5933  0.6396
  166MOL0     N22787   2.186   8.676   1.994  0.3576  1.5065  0.6932
  166MOL0     C22788   2.151   8.762   1.906 -0.2358  0.0596  0.7052
  166MOL0     C22789   2.071   8.694   1.816 -0.1888  0.4510 -0.1200
  166MOL0     C22790   1.999   8.753   1.708  0.5765  0.0299 -0.0238
  166MOL0     C22791   2.090   8.829   1.611  0.6641  0.1655  0.0781
  166MOL0     C22792   2.183   8.726   1.558 -0.2440 -0.5456  0.6314
  166MOL0     C22793   2.328   8.713   1.626 -1.0408 -0.2767 -0.0071
  166MOL0     O22794   2.395   8.850   1.622 -0.1506 -0.4127 -0.1346
  166MOL0     C22795   2.521   8.840   1.558  0.6364  0.2962 -0.1574
  166MOL0     C22796   2.596   8.725   1.556 -0.0281 -0.2821  0.2687
  166MOL0     C22797   2.712   8.712   1.477 -0.1151 -0.1835  0.3825
  166MOL0     C22798   2.793   8.593   1.484  0.1927  0.4339  0.9990
  166MOL0     C22799   2.753   8.831   1.400  0.4536  0.5272 -0.7864
  166MOL0     C22800   2.872   8.836   1.313  0.0074  0.7112 -0.4191
  166MOL0     O22801   2.905   8.954   1.257 -0.3673 -0.5327 -0.2568
  166MOL0     C22802   3.027   9.005   1.256 -0.9641 -0.8029  0.9029
  166MOL0     C22803   3.042   9.126   1.186  0.8949  0.9652  0.2588
  166MOL0     C22804   3.149   9.209   1.208 -0.0461  0.6941  0.6497
  166MOL0     C22805   3.256   9.165   1.290  0.5008 -0.4859  0.4109
  166MOL0     O22806   3.354   9.261   1.324  0.0086 -0.1182  0.1894
  166MOL0     C22807   3.462   9.221   1.407 -0.5988 -0.3174 -0.2665
  166MOL0     C22808   3.577   9.321   1.397 -0.4056  0.1988  0.2152
  166MOL0     C22809   3.551   9.457   1.469  0.6594 -0.7248  0.5071
  166MOL0     C22810   3.662   9.553   1.471 -0.4074  0.0779  0.6087
  166MOL0     C22811   3.694   9.596   1.328 -0.1603 -0.5702 -0.4662
  166MOL0     C22812   3.776   9.720   1.342  0.5445 -0.7033 -1.1108
  166MOL0     C22813   3.830   9.786   1.216  0.2727  1.0494 -0.0963
  166MOL0     C22814   3.930   9.892   1.238 -0.9924 -0.2569 -0.1841
  166MOL0    Cl22815   3.872  10.035   1.332  0.0009  0.0997 -0.6058
  166MOL0     C22816   3.251   9.038   1.340  0.5294  1.0294 -0.4078
  166MOL0     C22817   3.142   8.953   1.323 -0.2628  0.2561  0.3317
  166MOL0     O22818   2.936   8.735   1.296  0.3047 -0.2155 -0.1239
  166MOL0     C22819   2.670   8.945   1.413  0.3897 -0.8391 -0.1240
  166MOL0     C22820   2.566   8.957   1.500  0.2757  0.2385  0.7084
  166MOL0     N22821   2.062   8.558   1.858 -0.4774  0.1825  0.1912
  166MOL0     N22822   2.121   8.556   1.977  0.1835  0.1169 -0.6185
  166MOL0     C22823   2.702   8.407   2.908 -0.2961 -0.3948  0.6686
  166MOL0     C22824   2.711   8.306   3.008 -0.3151 -0.7247  0.6630
  166MOL0     C22825   2.597   8.114   3.421  0.4103  0.7400 -0.2286
  166MOL0     C22826   2.711   8.034   3.415 -0.9028 -0.8787 -0.0727
  166MOL0     C22827   2.762   7.937   3.503 -0.1500  0.9864  1.3899
  166MOL0     C22828   2.677   7.904   3.609 -0.9535  0.1848  0.2069
  166MOL0     O22829   2.692   7.799   3.705  1.8576 -0.1439  0.1204
  166MOL0     C22830   2.825   7.780   3.750  0.7249 -0.0166  0.4252
  166MOL0     C22831   2.844   7.772   3.898 -0.5018  0.6095 -1.0321
  166MOL0     C22832   2.728   7.703   3.979  0.1682  0.5503 -0.2528
  166MOL0     C22833   2.741   7.724   4.139  0.0511  0.3270  0.0925
  166MOL0     C22834   2.819   7.610   4.192 -0.1804 -0.5273 -0.1491
  166MOL0     C22835   2.891   7.514   4.225 -0.1742 -0.2994  1.3959
  166MOL0     C22836   2.557   7.971   3.627  0.4188  0.1149 -0.6306
  166MOL0     C22837   2.520   8.073   3.529  1.1572 -0.2922  0.1159
  166MOL0     C22838   2.386   8.143   3.547  0.5405 -0.2576 -0.8460
  166MOL0     H22839   2.623   8.519   3.266 -0.8632 -0.1627 -0.7275
  166MOL0     H22840   2.611   8.676   3.096 -1.1109  0.7192 -1.5394
  166MOL0     H22841   2.574   8.551   2.704  0.0869 -1.5814 -1.9002
  166MOL0     H22842   2.753   8.585   2.690 -0.4952 -0.2056  1.4090
  166MOL0     H22843   2.591   8.830   2.686 -0.3681  0.5634 -1.2025
  166MOL0     H22844   2.729   8.786   2.600 -0.0462  0.0337 -1.3481
  166MOL0     H22845   2.584   8.789   2.428 -2.3754  1.8487 -0.1796
  166MOL0     H22846   2.544   8.618   2.484  2.8737 -0.2632 -2.4153
  166MOL0     H22847   2.372   8.701   2.631 -4.3051 -0.0852 -0.1639
  166MOL0     H22848   2.405   8.873   2.574 -2.3973 -0.7009 -0.8244
  166MOL0     H22849   2.197   8.779   2.478 -0.5121  2.6125 -1.6954
  166MOL0     H22850   2.296   8.646   2.419  0.2588 -0.2243  2.4602
  166MOL0     H22851   2.293   8.943   2.343  1.2196 -0.0954 -0.3414
  166MOL0     H22852   2.423   8.834   2.286 -0.0178 -2.0894 -0.2189
  166MOL0     H22853   2.180   8.878   2.143 -1.9194 -2.2745 -1.3621
  166MOL0     H22854   2.126   8.754   2.251 -0.4941 -1.0683 -0.4323
  166MOL0     H22855   2.376   8.706   2.082 -0.8276 -0.4145 -0.9096
  166MOL0     H22856   2.280   8.593   2.173  1.0279  0.3344  0.1044
  166MOL0     H22857   2.159   8.870   1.911  1.5308  0.3056 -3.5775
  166MOL0     H22858   1.940   8.839   1.742  0.7596  0.6888 -1.3126
  166MOL0     H22859   1.935   8.685   1.651  0.5446  1.3761 -1.6891
  166MOL0     H22860   2.038   8.890   1.536  0.6285  2.3198  1.7406
  166MOL0     H22861   2.161   8.894   1.663 -1.0993  1.6198  0.7974
  166MOL0     H22862   2.130   8.630   1.560 -0.3718 -0.4770  0.5433
  166MOL0     H22863   2.192   8.760   1.455  0.4125  1.2019  1.2358
  166MOL0     H22864   2.339   8.675   1.727  0.4431 -0.9195 -0.3810
  166MOL0     H22865   2.377   8.637   1.565  1.3697  2.0462 -1.1532
  166MOL0     H22866   2.574   8.634   1.612 -0.0232 -1.2915 -1.3291
  166MOL0     H22867   2.751   8.511   1.544  0.8709  0.4061  1.4391
  166MOL0     H22868   2.898   8.611   1.508  0.7824  1.8777 -2.1600
  166MOL0     H22869   2.796   8.543   1.387  0.4123  2.2792  0.0058
  166MOL0     H22870   2.951   9.161   1.139  2.8000  3.5110 -1.8602
  166MOL0     H22871   3.150   9.314   1.179 -0.1236  0.5974  0.2830
  166MOL0     H22872   3.422   9.214   1.509  1.6636 -0.3897  0.6768
  166MOL0     H22873   3.495   9.122   1.373 -0.1593  1.2203 -5.1558
  166MOL0     H22874   3.662   9.278   1.451 -1.7618 -2.1960  0.6101
  166MOL0     H22875   3.610   9.332   1.293  0.9775 -1.8167  0.3785
  166MOL0     H22876   3.510   9.443   1.569  0.4901  1.8213  0.8418
  166MOL0     H22877   3.472   9.508   1.413 -0.0841  1.1827  3.1147
  166MOL0     H22878   3.748   9.505   1.518  0.1465 -0.9948 -1.4043
  166MOL0     H22879   3.644   9.641   1.534  3.7387  0.2959  1.7562
  166MOL0     H22880   3.750   9.517   1.279  1.5242 -0.6396  1.4395
  166MOL0     H22881   3.607   9.627   1.269 -0.9132 -1.1313  0.3272
  166MOL0     H22882   3.869   9.689   1.391 -0.3248 -1.3475  0.1862
  166MOL0     H22883   3.726   9.799   1.398 -2.2778 -0.5542 -3.6260
  166MOL0     H22884   3.747   9.828   1.158 -0.3523  0.4075  0.3227
  166MOL0     H22885   3.880   9.709   1.156 -1.1829 -0.1258  0.1347
  166MOL0     H22886   3.963   9.935   1.143  0.8149  0.5530  0.7606
  166MOL0     H22887   4.011   9.844   1.293  1.9740  2.6958 -1.6592
  166MOL0     H22888   3.319   8.990   1.409 -0.7831 -1.5924 -0.8263
  166MOL0     H22889   3.141   8.860   1.379 -0.6603 -0.2148 -0.4353
  166MOL0     H22890   2.684   9.038   1.358  0.2430 -0.6598  0.1390
  166MOL0     H22891   2.506   9.047   1.504  0.5925  0.8400 -3.5340
  166MOL0     H22892   2.714   8.387   2.802 -1.0842  1.2290  0.2394
  166MOL0     H22893   2.737   8.206   2.977 -5.0746 -1.1039 -3.2844
  166MOL0     H22894   2.787   8.058   3.341 -2.2886  0.4666 -1.1373
  166MOL0     H22895   2.867   7.908   3.502  0.3268  2.5827  2.1206
  166MOL0     H22896   2.854   7.692   3.692  1.0075  0.9902 -1.0130
  166MOL0     H22897   2.894   7.856   3.711 -0.2912 -0.2938 -2.1084
  166MOL0     H22898   2.845   7.869   3.948 -0.9627  0.2321 -0.2690
  166MOL0     H22899   2.929   7.708   3.923  0.0331  0.4249 -3.1466
  166MOL0     H22900   2.640   7.765   3.960  0.3339  0.4914 -1.2681
  166MOL0     H22901   2.705   7.599   3.954  1.3935 -0.8409  3.6658
  166MOL0     H22902   2.636   7.716   4.170  0.0369  0.4208  0.0677
  166MOL0     H22903   2.767   7.823   4.176  1.9444  0.0859 -0.4912
  166MOL0     H22904   2.943   7.429   4.263 -0.5828 -2.1665 -1.8558
  166MOL0     H22905   2.502   7.934   3.713 -0.7776  1.3572 -0.8187
  166MOL0     H22906   2.400   8.251   3.539  0.1887 -0.2030 -0.7321
  166MOL0     H22907   2.313   8.121   3.469  0.9009  3.2639 -2.3515
  166MOL0     H22908   2.345   8.112   3.644  1.6525 -1.5380 -0.7596
  167MOL0     O22909   8.505   1.423  10.244 -0.5865 -0.5808 -0.7950
  167MOL0     C22910   8.446   1.323  10.278  0.5781  1.0072 -0.1702
  167MOL0     O22911   8.503   1.216  10.344  0.1436  0.0139  0.3743
  167MOL0     C22912   8.635   1.218  10.393  0.3305 -0.5463 -0.0959
  167MOL0     C22913   8.658   1.281  10.516  0.3846  0.2978 -0.5284
  167MOL0     C22914   8.781   1.274  10.582  0.5172  1.7640  0.6994
  167MOL0     C22915   8.873   1.177  10.533 -0.6733  0.1721 -0.8299
  167MOL0     O22916   8.988   1.149  10.599  0.3359  0.9092 -0.2169
  167MOL0     C22917   8.992   1.027  10.659 -0.5880 -0.8894  0.0338
  167MOL0     C22918   9.114   1.010  10.758 -0.3812  0.4565 -0.2621
  167MOL0     C22919   9.116   1.109  10.882 -0.5560 -0.6837  0.0939
  167MOL0     C22920   9.004   1.081  10.982  0.2670  0.0293  0.0203
  167MOL0     C22921   9.013   0.965  11.070 -0.4732  0.0312  0.2403
  167MOL0     C22922   8.883   0.946  11.150 -0.1591 -0.2303 -1.8021
  167MOL0     C22923   8.881   0.818  11.227  0.2861  0.3308 -0.0899
  167MOL0     C22924   8.751   0.806  11.295  1.0160 -0.4592 -0.7929
  167MOL0     N22925   8.770   0.728  11.422  0.7421  0.2088  0.0546
  167MOL0     C22926   8.764   0.589  11.430 -0.9339  0.1571  0.4787
  167MOL0     C22927   8.778   0.560  11.560  0.8896 -0.2382 -0.0318
  167MOL0     C22928   8.779   0.416  11.618  0.4820 -0.4579 -0.2711
  167MOL0     C22929   8.916   0.362  11.635  0.3701  0.2487 -1.0317
  167MOL0     C22930   9.002   0.339  11.513 -0.3576  0.2784  1.3071
  167MOL0     C22931   8.950   0.235  11.406 -0.2928 -0.0122 -0.5621
  167MOL0     O22932   9.044   0.175  11.324 -0.2075  1.0309  0.6892
  167MOL0     C22933   9.060   0.222  11.196  0.2123  0.4792 -0.4080
  167MOL0     C22934   9.137   0.137  11.118  0.2657 -0.6805 -0.9833
  167MOL0     C22935   9.189   0.177  10.991  0.1320  0.6375  0.0193
  167MOL0     C22936   9.302   0.091  10.930 -0.1451 -0.9996 -0.4611
  167MOL0     C22937   9.146   0.304  10.936  0.2028  0.6279 -0.7949
  167MOL0     C22938   9.184   0.340  10.792 -0.0816 -0.4571 -0.4082
  167MOL0     O22939   9.179   0.481  10.766 -0.5409 -0.2460 -0.0998
  167MOL0     C22940   9.206   0.538  10.639  1.2803  0.4818 -0.0064
  167MOL0     C22941   9.242   0.672  10.641  0.6501 -0.2336 -0.0858
  167MOL0     C22942   9.291   0.735  10.528 -0.2801  0.5114  0.4229
  167MOL0     C22943   9.276   0.669  10.405 -0.3305 -0.1044  0.1235
  167MOL0     O22944   9.328   0.717  10.290  0.4751 -0.1802 -0.0045
  167MOL0     C22945   9.225   0.773  10.197 -0.1260  0.0692 -0.3566
  167MOL0     C22946   9.168   0.904  10.254 -0.1089  0.3904 -0.4922
  167MOL0     C22947   9.263   1.027  10.250 -0.0978  0.1476 -0.3063
  167MOL0     C22948   9.194   1.129  10.336  0.0424  0.1617  0.5874
  167MOL0     C22949   9.229   1.269  10.298 -0.2061  1.3080 -0.6127
  167MOL0     C22950   9.171   1.361  10.406 -0.3715 -0.3018 -0.1568
  167MOL0     C22951   9.216   1.513  10.386 -0.0551 -0.0019 -0.5247
  167MOL0     C22952   9.116   1.595  10.306  0.1661 -0.2001  0.5052
  167MOL0    Cl22953   9.212   1.747  10.286 -0.4075  0.0323  0.0770
  167MOL0     C22954   9.209   0.542  10.393 -0.6675 -0.5502  0.8294
  167MOL0     C22955   9.195   0.473  10.518 -0.5786  0.4643  1.7677
  167MOL0     O22956   9.212   0.259  10.709 -0.3019  1.0245 -0.1228
  167MOL0     C22957   9.077   0.389  11.026  0.1114  0.1989  0.6553
  167MOL0     C22958   9.033   0.352  11.153 -0.4812  0.1781 -0.2566
  167MOL0     N22959   8.779   0.680  11.628 -0.8940 -0.8278 -0.9110
  167MOL0     N22960   8.781   0.786  11.551  0.3991  0.2364  0.7045
  167MOL0     C22961   8.842   1.101  10.420 -0.2079  0.5530 -0.1455
  167MOL0     C22962   8.725   1.127  10.345 -0.2071  0.5472  0.8595
  167MOL0     C22963   8.298   1.316  10.269 -0.8296  0.5682 -0.1401
  167MOL0     C22964   8.226   1.237  10.363  0.0678 -0.0814  0.2061
  167MOL0     C22965   8.087   1.227  10.364  0.5080 -1.3803  0.2811
  167MOL0     C22966   8.002   1.304  10.287 -0.2704  0.1098 -0.1190
  167MOL0     O22967   7.868   1.327  10.304  0.9326 -0.3312  0.0702
  167MOL0     C22968   7.791   1.216  10.348 -0.8829 -0.5783  0.0284
  167MOL0     C22969   7.649   1.230  10.314  0.2978  0.3413  0.9285
  167MOL0     C22970   7.568   1.098  10.328  0.9696 -1.0108  0.0526
  167MOL0     C22971   7.555   1.057  10.472 -0.2538 -0.8793 -1.2934
  167MOL0     C22972   7.673   0.985  10.536  1.1146 -0.1803 -0.2051
  167MOL0     C22973   7.777   0.937  10.573 -0.3353 -0.1289 -0.4708
  167MOL0     C22974   8.076   1.376  10.186  0.4880 -0.3654 -1.3991
  167MOL0     C22975   8.220   1.381  10.175 -0.6838 -0.7825 -0.3311
  167MOL0     C22976   8.288   1.465  10.062  0.1018 -0.0490 -0.6926
  167MOL0     H22977   8.593   1.359  10.553  2.8199  0.9749  2.7804
  167MOL0     H22978   8.802   1.327  10.674  0.1377  1.5973  0.8840
  167MOL0     H22979   9.007   0.946  10.587  0.4179  0.0335 -0.8362
  167MOL0     H22980   8.904   1.002  10.719 -2.4005  2.1828 -1.0996
  167MOL0     H22981   9.100   0.913  10.805  0.7345 -0.1695 -1.1790
  167MOL0     H22982   9.214   1.009  10.714 -1.3447 -3.5350 -2.8494
  167MOL0     H22983   9.211   1.112  10.937 -0.9348 -1.9390  0.8497
  167MOL0     H22984   9.105   1.211  10.842  1.6871  0.0621  1.1818
  167MOL0     H22985   8.974   1.169  11.039 -1.4729 -0.9712  0.7096
  167MOL0     H22986   8.918   1.055  10.920  0.6616 -1.5264  0.0725
  167MOL0     H22987   9.098   0.977  11.137 -0.9978  1.8320  0.6439
  167MOL0     H22988   9.024   0.880  11.002 -4.8781 -1.2395  0.8091
  167MOL0     H22989   8.882   1.028  11.223 -0.3832  0.1505 -2.2263
  167MOL0     H22990   8.792   0.952  11.089 -2.2638  2.4893  1.2075
  167MOL0     H22991   8.962   0.823  11.301 -0.6062  3.3887  0.8574
  167MOL0     H22992   8.895   0.735  11.158  1.4370  1.4170 -1.2111
  167MOL0     H22993   8.722   0.905  11.331 -0.3175 -2.2361  3.7737
  167MOL0     H22994   8.670   0.770  11.230 -0.8627 -0.3814  1.3706
  167MOL0     H22995   8.737   0.507  11.364 -1.1346 -1.2421  2.2530
  167MOL0     H22996   8.725   0.351  11.548  3.7963 -3.2142 -0.5859
  167MOL0     H22997   8.725   0.414  11.713  0.8025 -0.2448 -0.0825
  167MOL0     H22998   8.955   0.445  11.695  1.1274 -1.4122  0.9276
  167MOL0     H22999   8.919   0.269  11.693 -2.3114 -0.2084 -1.5128
  167MOL0     H23000   9.023   0.432  11.460 -2.0534  0.3857  0.7624
  167MOL0     H23001   9.104   0.313  11.542 -0.1728  0.5293  0.8886
  167MOL0     H23002   8.899   0.155  11.459 -0.2214  1.1193  1.3015
  167MOL0     H23003   8.868   0.282  11.352 -1.7134 -1.6628  0.0510
  167MOL0     H23004   9.181   0.046  11.156 -1.2066 -1.0669 -0.1328
  167MOL0     H23005   9.348   0.025  11.004 -0.8522  3.9134  5.0460
  167MOL0     H23006   9.384   0.155  10.899 -0.1335 -1.1017 -0.6453
  167MOL0     H23007   9.264   0.033  10.845  1.0794 -0.4303 -1.4184
  167MOL0     H23008   9.248   0.714  10.741 -0.8152  1.3853 -0.6156
  167MOL0     H23009   9.328   0.837  10.518  0.9675  0.1137  0.8532
  167MOL0     H23010   9.263   0.792  10.097 -0.7378 -0.3440 -0.6756
  167MOL0     H23011   9.143   0.701  10.181  0.8669 -1.4761  1.1087
  167MOL0     H23012   9.076   0.924  10.200 -0.6363  1.0286  0.6026
  167MOL0     H23013   9.137   0.888  10.358 -3.0997  4.2905 -0.5260
  167MOL0     H23014   9.255   1.070  10.150 -0.0585  2.0819  0.4754
  167MOL0     H23015   9.363   1.006  10.286  0.5385  1.1107 -1.4292
  167MOL0     H23016   9.241   1.112  10.433 -0.0273 -0.2586  0.5496
  167MOL0     H23017   9.086   1.119  10.338  0.1653 -1.7965 -0.2111
  167MOL0     H23018   9.337   1.277  10.305 -0.2168  1.5473 -0.7296
  167MOL0     H23019   9.205   1.304  10.198  0.5612 -0.5326 -1.4805
  167MOL0     H23020   9.210   1.337  10.505 -3.1312  0.4173  1.2044
  167MOL0     H23021   9.063   1.359  10.421 -0.3445 -0.2682  0.0428
  167MOL0     H23022   9.311   1.528  10.334 -0.6240 -0.3537 -1.6892
  167MOL0     H23023   9.227   1.555  10.486  1.1896 -2.2560  0.3602
  167MOL0     H23024   9.020   1.610  10.356  0.0501 -2.3502  1.0115
  167MOL0     H23025   9.098   1.552  10.206 -1.0162  1.7991 -0.2011
  167MOL0     H23026   9.186   0.500  10.295  0.5026 -1.0047  0.7339
  167MOL0     H23027   9.158   0.372  10.507 -2.8305  1.3201  0.5683
  167MOL0     H23028   9.049   0.490  10.997 -1.4856  0.2521  2.2131
  167MOL0     H23029   8.993   0.429  11.218  3.2559  1.4119  0.8172
  167MOL0     H23030   8.912   1.032  10.373 -0.5032 -0.9287  1.4793
  167MOL0     H23031   8.708   1.077  10.250  2.8185 -1.5036  1.2358
  167MOL0     H23032   8.292   1.188  10.434  0.9060 -2.5448 -2.1102
  167MOL0     H23033   8.040   1.175  10.446  2.6163 -0.9632  1.8300
  167MOL0     H23034   7.839   1.120  10.329  3.5637  1.4718 -0.5155
  167MOL0     H23035   7.791   1.224  10.457  1.5474  0.2431  0.0332
  167MOL0     H23036   7.645   1.265  10.211  1.0541 -1.8906  0.0733
  167MOL0     H23037   7.604   1.312  10.370 -0.4431  1.3243 -1.0172
  167MOL0     H23038   7.462   1.116  10.309  1.1349  1.7667  1.2333
  167MOL0     H23039   7.610   1.013  10.274 -0.4025 -2.0537  0.5600
  167MOL0     H23040   7.468   0.992  10.486  0.5323 -1.7869 -0.4592
  167MOL0     H23041   7.539   1.149  10.528  2.4333 -0.3741 -1.2450
  167MOL0     H23042   7.871   0.893  10.596  0.7738  1.5179 -1.6006
  167MOL0     H23043   8.021   1.434  10.112  0.8874  0.7592 -0.8453
  167MOL0     H23044   8.385   1.429  10.026 -0.6321 -1.6239 -1.1914
  167MOL0     H23045   8.211   1.454   9.985 -0.0257  1.2760 -0.7816
  167MOL0     H23046   8.296   1.571  10.087  0.1396  0.0619 -1.1608
  168MOL0     O23047   4.544   6.067   8.641  0.0928  0.6168  0.0373
  168MOL0     C23048   4.557   6.078   8.765  0.0524 -1.1932 -0.1260
  168MOL0     O23049   4.617   5.983   8.842  0.2815  0.1648 -0.1214
  168MOL0     C23050   4.640   5.853   8.791  0.1841 -0.3107 -0.5217
  168MOL0     C23051   4.579   5.792   8.677 -0.9505  0.1573  0.0782
  168MOL0     C23052   4.605   5.660   8.646 -0.6689 -0.3767 -0.2111
  168MOL0     C23053   4.705   5.585   8.715 -0.5947  0.7237 -0.6845
  168MOL0     O23054   4.750   5.465   8.655  0.3510  0.5324  1.1693
  168MOL0     C23055   4.838   5.382   8.727 -0.1319  0.1948 -0.1256
  168MOL0     C23056   4.894   5.261   8.637  0.2166 -0.0117  0.1162
  168MOL0     C23057   4.974   5.162   8.727  0.0014  0.1812  0.1979
  168MOL0     C23058   5.025   5.043   8.645 -0.0706  0.8934 -0.6784
  168MOL0     C23059   5.159   4.990   8.706 -0.0221  0.5750 -0.8915
  168MOL0     C23060   5.216   4.850   8.671  0.0070 -0.7752  0.7647
  168MOL0     C23061   5.254   4.849   8.522 -1.0079 -0.4577  0.4995
  168MOL0     C23062   5.308   4.711   8.482  0.1816 -0.4302  0.2685
  168MOL0     N23063   5.316   4.704   8.334 -0.5336  1.5296  0.7470
  168MOL0     C23064   5.298   4.583   8.269  0.4772 -0.3288 -0.5985
  168MOL0     C23065   5.273   4.619   8.137  0.1037  0.0567  0.3257
  168MOL0     C23066   5.247   4.550   8.007  1.1502 -0.6913 -0.0181
  168MOL0     C23067   5.313   4.412   8.000  1.4845 -0.2110  1.1993
  168MOL0     C23068   5.467   4.417   8.010  0.0031  0.1958  0.8110
  168MOL0     C23069   5.534   4.496   7.895 -0.3735 -0.0093 -0.3958
  168MOL0     O23070   5.524   4.420   7.778 -0.6154 -1.3455 -0.1963
  168MOL0     C23071   5.598   4.307   7.768 -0.0566  0.1036  0.4154
  168MOL0     C23072   5.735   4.294   7.806 -0.0658  0.6986 -0.6967
  168MOL0     C23073   5.809   4.177   7.796  0.0303 -0.5849  0.4842
  168MOL0     C23074   5.956   4.183   7.819 -0.6123 -0.1955  0.0316
  168MOL0     C23075   5.741   4.064   7.754 -1.0302 -0.3132  0.6247
  168MOL0     C23076   5.802   3.926   7.755 -0.9865 -0.7099 -0.4273
  168MOL0     O23077   5.894   3.912   7.857 -0.1807  0.6750 -0.2544
  168MOL0     C23078   5.975   3.802   7.853 -0.8048 -0.0739 -0.0857
  168MOL0     C23079   5.995   3.694   7.759  0.1630 -1.2046  0.3186
  168MOL0     C23080   6.098   3.603   7.766  1.3907  0.2299  0.1260
  168MOL0     C23081   6.193   3.610   7.872 -0.4649 -0.9560 -0.0364
  168MOL0     O23082   6.286   3.510   7.868  0.3729  0.3716  0.9564
  168MOL0     C23083   6.407   3.534   7.947 -0.4505 -0.5714 -0.1127
  168MOL0     C23084   6.530   3.441   7.906 -0.3311  0.1941  0.7819
  168MOL0     C23085   6.488   3.280   7.937  0.6305 -0.2604 -0.0234
  168MOL0     C23086   6.515   3.236   8.084  0.2720 -0.0356  0.2337
  168MOL0     C23087   6.487   3.101   8.121  1.2866 -0.2522  0.2192
  168MOL0     C23088   6.493   3.058   8.270 -0.3916  0.4372 -0.2870
  168MOL0     C23089   6.409   3.124   8.379  0.3428  0.2194  0.9988
  168MOL0     C23090   6.259   3.081   8.375  0.5560 -0.1651 -0.6453
  168MOL0    Cl23091   6.242   2.911   8.381  0.1997 -0.2778  0.3199
  168MOL0     C23092   6.174   3.714   7.964  0.9508  1.1788 -0.2947
  168MOL0     C23093   6.070   3.810   7.955  0.6972  0.2197 -0.5949
  168MOL0     O23094   5.745   3.839   7.691  0.4887  0.9969 -0.1622
  168MOL0     C23095   5.614   4.079   7.696 -1.0109 -0.5145  1.2331
  168MOL0     C23096   5.541   4.201   7.702 -0.3736 -0.0323 -0.6060
  168MOL0     N23097   5.291   4.754   8.135  0.3992  0.4680  1.0186
  168MOL0     N23098   5.315   4.807   8.249  0.7191 -0.2196 -0.0872
  168MOL0     C23099   4.761   5.651   8.827 -0.1704  0.1367 -0.0054
  168MOL0     C23100   4.728   5.777   8.868  0.2319 -1.0372  0.0779
  168MOL0     C23101   4.527   6.204   8.832  0.6563 -0.5304 -0.7124
  168MOL0     C23102   4.451   6.287   8.759 -0.0691  0.2246  0.0373
  168MOL0     C23103   4.396   6.401   8.815  0.2055 -0.1482  1.0877
  168MOL0     C23104   4.435   6.443   8.937  1.0405 -0.1860  0.6518
  168MOL0     O23105   4.368   6.558   8.973  0.4916  0.5037  0.2261
  168MOL0     C23106   4.387   6.601   9.103  0.2300 -0.2832 -1.0379
  168MOL0     C23107   4.292   6.532   9.197  0.8843 -0.1432 -0.6437
  168MOL0     C23108   4.149   6.567   9.182  0.3697 -0.0591  0.2999
  168MOL0     C23109   4.107   6.718   9.158  0.0189 -0.6012 -0.1809
  168MOL0     C23110   4.191   6.802   9.247  0.0442  0.3899 -0.1897
  168MOL0     C23111   4.277   6.870   9.303 -0.1413 -0.1513  0.9221
  168MOL0     C23112   4.522   6.361   9.010  0.5966  0.6607  0.2785
  168MOL0     C23113   4.572   6.242   8.964  0.6037 -0.6418  0.1440
  168MOL0     C23114   4.655   6.143   9.049 -1.1587  0.6057 -0.4791
  168MOL0     H23115   4.515   5.838   8.602 -0.0205 -1.1005 -1.5448
  168MOL0     H23116   4.563   5.613   8.557 -1.6246 -2.7846  1.4068
  168MOL0     H23117   4.776   5.351   8.811 -1.9373 -0.3825 -1.6066
  168MOL0     H23118   4.919   5.452   8.750 -0.7730  0.5723  1.0815
  168MOL0     H23119   4.806   5.209   8.599  1.4117 -1.2496 -1.0445
  168MOL0     H23120   4.960   5.294   8.556 -0.9801 -2.6471 -2.1048
  168MOL0     H23121   5.060   5.218   8.764 -0.0988  2.0782 -2.1774
  168MOL0     H23122   4.909   5.123   8.806  0.7410 -3.9235 -1.0039
  168MOL0     H23123   4.953   4.960   8.644  2.1880 -1.2442  0.6755
  168MOL0     H23124   5.045   5.075   8.542 -0.9047 -1.0799 -1.5121
  168MOL0     H23125   5.141   4.983   8.813  0.4626  3.2868 -0.5438
  168MOL0     H23126   5.239   5.066   8.707  1.0394 -0.4850  1.3644
  168MOL0     H23127   5.300   4.831   8.739  0.1335  0.8889  1.1292
  168MOL0     H23128   5.137   4.779   8.695 -0.7554  0.4229  1.9963
  168MOL0     H23129   5.325   4.932   8.515 -1.7698  0.2488  0.9292
  168MOL0     H23130   5.159   4.860   8.468 -2.4422 -1.8779  2.5699
  168MOL0     H23131   5.410   4.702   8.520 -0.3961 -4.1122  1.3992
  168MOL0     H23132   5.256   4.631   8.536  1.7832 -1.1020  0.8513
  168MOL0     H23133   5.291   4.485   8.314 -0.4076  1.7579  4.4742
  168MOL0     H23134   5.276   4.601   7.915 -4.3623  3.7684  0.1649
  168MOL0     H23135   5.140   4.528   7.999  0.3459  3.1074 -2.4017
  168MOL0     H23136   5.267   4.341   8.068 -3.5056  2.5446  1.1682
  168MOL0     H23137   5.292   4.365   7.904  3.7551 -2.9270  1.9092
  168MOL0     H23138   5.487   4.462   8.108  0.3304  2.8123 -0.3728
  168MOL0     H23139   5.514   4.319   8.000 -1.0739 -0.0742 -4.5318
  168MOL0     H23140   5.482   4.591   7.880  3.1157  2.2268  0.5872
  168MOL0     H23141   5.639   4.514   7.921 -1.0896  3.4152  0.6607
  168MOL0     H23142   5.783   4.386   7.839  1.6656 -0.8870  1.4476
  168MOL0     H23143   5.976   4.146   7.920  0.8726  4.1258  1.5624
  168MOL0     H23144   5.996   4.284   7.810  2.1473 -1.2409 -0.2377
  168MOL0     H23145   5.995   4.115   7.744 -0.5076  0.7511 -0.7878
  168MOL0     H23146   5.911   3.671   7.694 -1.0935 -0.2666  1.5526
  168MOL0     H23147   6.105   3.524   7.693 -0.6982  0.9946 -0.9963
  168MOL0     H23148   6.445   3.634   7.924  0.3083 -1.1553 -1.5201
  168MOL0     H23149   6.384   3.519   8.053 -0.8926 -1.9129 -0.3733
  168MOL0     H23150   6.562   3.466   7.804 -2.7062  5.9425  1.0600
  168MOL0     H23151   6.614   3.470   7.969  1.5676 -2.4266 -0.3437
  168MOL0     H23152   6.542   3.220   7.863 -0.6677  0.5191 -1.6494
  168MOL0     H23153   6.386   3.265   7.902  0.7793  0.8524 -0.9903
  168MOL0     H23154   6.477   3.300   8.164 -0.7009 -1.2331  0.7605
  168MOL0     H23155   6.624   3.234   8.093  0.4486 -1.8940 -1.6252
  168MOL0     H23156   6.385   3.079   8.087  1.4466  2.7727 -2.6089
  168MOL0     H23157   6.550   3.034   8.062  2.2815  0.8906 -0.0420
  168MOL0     H23158   6.596   3.049   8.307 -1.5491 -1.7444  2.8117
  168MOL0     H23159   6.460   2.954   8.261  1.4419 -0.1765 -0.3352
  168MOL0     H23160   6.428   3.232   8.372  2.3731 -0.1968 -1.6418
  168MOL0     H23161   6.450   3.103   8.478  1.4348 -1.1086  0.2970
  168MOL0     H23162   6.232   3.120   8.277 -1.9236 -4.5952 -2.0202
  168MOL0     H23163   6.215   3.133   8.461  2.8443  2.2120 -0.7924
  168MOL0     H23164   6.236   3.727   8.052 -0.6627 -0.3275  1.1852
  168MOL0     H23165   6.071   3.885   8.034  1.9577 -0.0243 -0.3601
  168MOL0     H23166   5.575   3.994   7.640  2.4485  0.8505 -3.9417
  168MOL0     H23167   5.443   4.217   7.658 -0.5062  1.7422  0.2659
  168MOL0     H23168   4.850   5.612   8.876  0.3199 -0.3857 -1.2746
  168MOL0     H23169   4.785   5.811   8.953 -0.3506 -2.9049  1.2834
  168MOL0     H23170   4.422   6.266   8.656  0.9117  0.5611 -0.3187
  168MOL0     H23171   4.336   6.470   8.756  0.8506  0.3311  0.9685
  168MOL0     H23172   4.490   6.580   9.133  0.2133 -2.8557 -2.5394
  168MOL0     H23173   4.371   6.708   9.120  1.3016 -0.5024  1.9349
  168MOL0     H23174   4.325   6.548   9.301 -1.2848  2.3164 -0.2247
  168MOL0     H23175   4.307   6.424   9.183 -2.2106 -0.6282 -0.9370
  168MOL0     H23176   4.104   6.523   9.093  0.4712  0.2277  0.1043
  168MOL0     H23177   4.107   6.523   9.273  2.9213 -1.3127  0.9716
  168MOL0     H23178   4.002   6.745   9.175  1.0958  3.9008  0.6885
  168MOL0     H23179   4.135   6.748   9.056  2.5703  2.6352  1.2798
  168MOL0     H23180   4.361   6.905   9.360  0.1508  1.5932 -0.5048
  168MOL0     H23181   4.559   6.397   9.106  1.7313  2.0389 -0.6246
  168MOL0     H23182   4.681   6.200   9.139  3.0521  2.7082 -2.7291
  168MOL0     H23183   4.597   6.053   9.072 -1.2728  0.5529 -0.9558
  168MOL0     H23184   4.744   6.104   9.000 -1.8712 -2.6397  0.5441
  169MOL0     O23185  11.337   9.620   9.336 -0.4917  0.4587 -0.4878
  169MOL0     C23186  11.437   9.551   9.306  1.0443  0.0552 -0.0588
  169MOL0     O23187  11.530   9.591   9.218 -0.1626  1.0849 -0.0459
  169MOL0     C23188  11.527   9.715   9.160 -0.0835  0.3350  0.1192
  169MOL0     C23189  11.409   9.755   9.085 -0.2778  0.1494  0.3364
  169MOL0     C23190  11.404   9.882   9.015  0.8874 -0.1948 -0.0892
  169MOL0     C23191  11.529   9.954   9.013  1.0498 -0.2850 -0.8304
  169MOL0     O23192  11.536  10.066   8.939  0.4164 -0.0725 -0.4057
  169MOL0     C23193  11.427  10.163   8.961  0.5242 -0.5560 -0.3985
  169MOL0     C23194  11.416  10.221   9.104 -0.5613 -0.0277 -0.8740
  169MOL0     C23195  11.312  10.331   9.091 -0.6604 -0.8457 -0.1198
  169MOL0     C23196  11.253  10.385   9.228  0.0384 -0.3101 -0.9547
  169MOL0     C23197  11.157  10.503   9.208  0.0785  0.0696  0.3013
  169MOL0     C23198  11.209  10.623   9.131  0.1249 -0.4854 -0.3311
  169MOL0     C23199  11.121  10.751   9.129 -0.6040  0.3596  1.1535
  169MOL0     C23200  11.101  10.816   9.261 -0.5147 -0.2354  0.8128
  169MOL0     N23201  11.221  10.901   9.307 -0.1325  0.0071  0.9664
  169MOL0     C23202  11.287  10.895   9.424 -0.6958  0.3720  0.1703
  169MOL0     C23203  11.358  11.010   9.426  0.0762 -0.2509  0.4934
  169MOL0     C23204  11.444  11.059   9.540 -0.2130 -0.5746  0.0928
  169MOL0     C23205  11.404  11.188   9.612  0.3387  0.6627 -0.3761
  169MOL0     C23206  11.501  11.229   9.728 -0.0220  0.8449 -1.1791
  169MOL0     C23207  11.435  11.336   9.808  1.1690  0.5858  0.3868
  169MOL0     O23208  11.530  11.414   9.878  0.6979  0.1008  0.1861
  169MOL0     C23209  11.590  11.385   9.997  0.2213  0.5759  0.1175
  169MOL0     C23210  11.591  11.253  10.049  0.5663  0.0195  0.3179
  169MOL0     C23211  11.657  11.218  10.161 -0.3329  0.7977  0.7079
  169MOL0     C23212  11.642  11.079  10.210 -0.0503 -0.4773 -0.0210
  169MOL0     C23213  11.743  11.317  10.227 -0.9981 -0.5739 -0.8071
  169MOL0     C23214  11.843  11.292  10.340  0.1691 -1.1437 -0.4340
  169MOL0     O23215  11.909  11.169  10.347  0.6501  0.9964 -0.2857
  169MOL0     C23216  11.997  11.153  10.452 -0.3353  0.6808 -0.9712
  169MOL0     C23217  11.951  11.087  10.566  0.4728 -0.5625  0.4606
  169MOL0     C23218  12.029  11.048  10.668 -0.1269 -0.7068 -0.3234
  169MOL0     C23219  12.166  11.086  10.667 -0.9411 -0.6518 -0.2755
  169MOL0     O23220  12.250  11.045  10.766  0.8365  1.0043  0.9678
  169MOL0     C23221  12.386  11.032  10.748 -0.1457 -0.3293 -0.0607
  169MOL0     C23222  12.458  11.163  10.789  0.2111 -0.0972 -0.2601
  169MOL0     C23223  12.385  11.233  10.918 -0.3735 -0.4531  0.8091
  169MOL0     C23224  12.492  11.310  11.002  1.0902 -0.7689 -0.9457
  169MOL0     C23225  12.458  11.389  11.130 -1.0481 -0.7521 -0.7029
  169MOL0     C23226  12.378  11.303  11.215  1.9911  0.2575 -0.5530
  169MOL0     C23227  12.312  11.378  11.336  0.1825  0.4496  0.1791
  169MOL0     C23228  12.241  11.264  11.415 -0.9754 -0.2476 -0.4459
  169MOL0    Cl23229  12.080  11.224  11.351  0.0790 -0.1314  0.4899
  169MOL0     C23230  12.217  11.166  10.561  1.2169  0.4042 -1.4589
  169MOL0     C23231  12.134  11.195  10.454 -0.1775 -0.2109  0.4713
  169MOL0     O23232  11.847  11.375  10.436  0.3423  0.2305  0.2089
  169MOL0     C23233  11.734  11.452  10.186  0.2343 -0.4649 -0.3262
  169MOL0     C23234  11.651  11.478  10.070 -0.7668 -0.6870  0.1850
  169MOL0     N23235  11.338  11.089   9.318 -0.6779 -0.3032 -0.6693
  169MOL0     N23236  11.256  11.021   9.243 -0.3780  0.6112 -0.4499
  169MOL0     C23237  11.651   9.904   9.074  0.1566 -0.4606  0.2682
  169MOL0     C23238  11.646   9.792   9.150  0.6561  0.1690 -0.2600
  169MOL0     C23239  11.453   9.418   9.380  0.0723  0.0666  0.6757
  169MOL0     C23240  11.569   9.336   9.350 -0.0283  1.2586  1.1097
  169MOL0     C23241  11.591   9.221   9.422 -0.1076  0.8220 -0.1633
  169MOL0     C23242  11.505   9.171   9.517  0.6921 -0.0874 -0.5047
  169MOL0     O23243  11.521   9.056   9.596  0.0153 -0.5426  0.1568
  169MOL0     C23244  11.611   9.082   9.702  0.0893  0.4853 -0.1691
  169MOL0     C23245  11.564   9.036   9.842  0.5465  0.5974 -0.4861
  169MOL0     C23246  11.536   8.878   9.843  0.5832  0.5340 -1.0298
  169MOL0     C23247  11.475   8.839   9.983  0.3346 -0.3670 -0.5315
  169MOL0     C23248  11.577   8.870  10.081 -0.5996 -0.0865  0.3203
  169MOL0     C23249  11.668   8.891  10.160 -0.8754 -0.4891  0.7258
  169MOL0     C23250  11.395   9.250   9.544 -0.6042  0.9174 -0.5187
  169MOL0     C23251  11.370   9.370   9.481 -0.0515 -0.4828  0.0370
  169MOL0     C23252  11.231   9.428   9.510 -0.6678 -0.6275 -1.0316
  169MOL0     H23253  11.324   9.688   9.086  0.6784 -1.1260  2.2401
  169MOL0     H23254  11.329   9.907   8.942  2.5481 -0.0575 -1.8219
  169MOL0     H23255  11.329  10.128   8.929 -0.2521 -2.0384  3.1024
  169MOL0     H23256  11.455  10.254   8.907 -0.3350  1.1849  1.9254
  169MOL0     H23257  11.370  10.145   9.168 -2.0739  1.7323  0.2137
  169MOL0     H23258  11.508  10.262   9.147 -1.1714  0.8548 -0.3776
  169MOL0     H23259  11.368  10.414   9.045 -0.2634 -1.0242  0.0400
  169MOL0     H23260  11.241  10.292   9.018 -1.8886  3.7041 -1.7402
  169MOL0     H23261  11.192  10.315   9.286 -0.1717  1.7744  1.5288
  169MOL0     H23262  11.336  10.410   9.295 -0.9212 -0.6926  0.4283
  169MOL0     H23263  11.137  10.540   9.309 -0.4627  0.8314 -0.0864
  169MOL0     H23264  11.069  10.454   9.166 -1.5036  1.5828  1.7016
  169MOL0     H23265  11.303  10.651   9.180  0.7525 -2.1417 -0.5275
  169MOL0     H23266  11.234  10.584   9.032 -0.8189  1.1063 -1.2348
  169MOL0     H23267  11.029  10.719   9.079  1.2351 -1.0766 -1.4930
  169MOL0     H23268  11.160  10.822   9.056 -1.5958 -0.6017 -0.3600
  169MOL0     H23269  11.007  10.872   9.251 -1.3223 -1.5036  1.0670
  169MOL0     H23270  11.080  10.741   9.338 -0.3868 -0.8461  0.2491
  169MOL0     H23271  11.269  10.814   9.493 -1.7343 -0.7868 -1.4041
  169MOL0     H23272  11.544  11.071   9.497  0.9071 -2.6093  1.9227
  169MOL0     H23273  11.479  10.985   9.612  3.5310  2.3894  1.6544
  169MOL0     H23274  11.398  11.270   9.540  0.8229  2.6104  1.6801
  169MOL0     H23275  11.304  11.169   9.651 -0.2844  0.4770 -1.9795
  169MOL0     H23276  11.545  11.144   9.781 -1.7338  1.3259  1.1490
  169MOL0     H23277  11.591  11.266   9.679  0.7313  1.6433  0.7107
  169MOL0     H23278  11.388  11.412   9.745  0.3605 -0.1724  0.0469
  169MOL0     H23279  11.355  11.282   9.860  0.2418  0.3586 -1.2202
  169MOL0     H23280  11.534  11.176   9.998  0.6895  1.5430 -2.2907
  169MOL0     H23281  11.724  11.022  10.165  2.1552  0.4009  2.6210
  169MOL0     H23282  11.544  11.038  10.187 -2.0608  2.3656  2.6354
  169MOL0     H23283  11.652  11.081  10.319 -0.5890 -0.4163  0.0259
  169MOL0     H23284  11.844  11.066  10.571 -0.1759  1.5287 -2.2292
  169MOL0     H23285  11.992  10.983  10.747  4.1068 -1.8218  1.0069
  169MOL0     H23286  12.414  10.953  10.818 -6.3041 -4.5390 -1.4826
  169MOL0     H23287  12.420  10.997  10.650  2.1713  0.0992  0.5347
  169MOL0     H23288  12.565  11.150  10.810 -0.0314  0.4443  1.4335
  169MOL0     H23289  12.456  11.237  10.707 -1.6875 -1.3364 -1.3872
  169MOL0     H23290  12.335  11.154  10.976 -1.8845 -0.0216  0.1358
  169MOL0     H23291  12.305  11.294  10.875  1.9674  0.6642 -2.3654
  169MOL0     H23292  12.533  11.387  10.936  0.1248 -0.9179 -1.7391
  169MOL0     H23293  12.567  11.231  11.009  1.8067 -0.2578 -2.3835
  169MOL0     H23294  12.547  11.424  11.183 -0.9337  0.0559 -1.4184
  169MOL0     H23295  12.401  11.475  11.093  1.9614  0.5747 -2.5697
  169MOL0     H23296  12.443  11.220  11.245  1.7851 -0.2308 -1.4378
  169MOL0     H23297  12.287  11.258  11.175  1.4308 -3.2663  3.8914
  169MOL0     H23298  12.233  11.451  11.313  1.2901  1.8994  0.7794
  169MOL0     H23299  12.372  11.427  11.413  0.9348  0.1211 -0.1867
  169MOL0     H23300  12.224  11.299  11.518  1.0731 -0.1770 -0.0954
  169MOL0     H23301  12.307  11.178  11.427  0.6431  0.9934 -0.0876
  169MOL0     H23302  12.323  11.178  10.543  1.0089 -0.5027 -3.7224
  169MOL0     H23303  12.168  11.250  10.366  0.1053  2.0786  1.9311
  169MOL0     H23304  11.780  11.539  10.233 -3.4449  3.4362 -3.1780
  169MOL0     H23305  11.647  11.578  10.028 -2.7955  0.0161  1.8835
  169MOL0     H23306  11.746   9.957   9.080 -0.5238  0.7310  1.2760
  169MOL0     H23307  11.737   9.758   9.197 -0.9394 -1.3811  1.8835
  169MOL0     H23308  11.651   9.352   9.280 -0.8414 -0.3747 -0.2799
  169MOL0     H23309  11.677   9.155   9.412  0.6027  1.2990  2.1692
  169MOL0     H23310  11.708   9.036   9.679  0.0164  0.4430 -0.3970
  169MOL0     H23311  11.637   9.189   9.708 -0.6256  0.5835  1.9133
  169MOL0     H23312  11.470   9.084   9.869  0.4955 -1.4937  3.9562
  169MOL0     H23313  11.634   9.065   9.921 -1.3295  3.8039  0.1619
  169MOL0     H23314  11.467   8.850   9.763 -3.1927  2.7843  1.0942
  169MOL0     H23315  11.630   8.824   9.831  2.1262  3.1401 -1.2761
  169MOL0     H23316  11.453   8.731   9.989  2.3855 -0.7564  1.1552
  169MOL0     H23317  11.386   8.900   9.997  2.1007  2.2211 -0.0326
  169MOL0     H23318  11.750   8.900  10.229  1.3387 -0.5579 -1.7239
  169MOL0     H23319  11.327   9.210   9.618 -0.9375 -2.5418 -2.4615
  169MOL0     H23320  11.239   9.530   9.548 -0.4531 -0.8227 -0.5571
  169MOL0     H23321  11.189   9.426   9.408 -1.5778  0.3596 -0.6914
  169MOL0     H23322  11.173   9.379   9.589  0.0212 -1.2837 -0.9249
  170MOL0     O23323   4.317   5.339   4.638 -0.5431 -0.7969  1.1272
  170MOL0     C23324   4.301   5.215   4.636 -0.4746 -0.3708  0.7798
  170MOL0     O23325   4.283   5.141   4.528  0.1446  0.2781 -0.5935
  170MOL0     C23326   4.259   5.183   4.399  1.1519 -0.2030  0.6620
  170MOL0     C23327   4.184   5.102   4.312 -0.5287  0.0582  0.3466
  170MOL0     C23328   4.179   5.130   4.171 -0.1077  0.8589 -0.3933
  170MOL0     C23329   4.248   5.234   4.113  0.6717 -0.0115  0.5253
  170MOL0     O23330   4.247   5.263   3.981  0.2245  0.0038  0.3901
  170MOL0     C23331   4.195   5.178   3.881 -0.5946  0.5052  1.5955
  170MOL0     C23332   4.214   5.236   3.744  0.3804 -0.4833 -0.5661
  170MOL0     C23333   4.356   5.262   3.712 -0.2900 -0.6347  0.1060
  170MOL0     C23334   4.356   5.372   3.604 -0.1063  0.4737  0.7256
  170MOL0     C23335   4.481   5.364   3.514 -0.8208  0.7072  0.3288
  170MOL0     C23336   4.479   5.240   3.411 -0.8057 -0.3833 -0.7297
  170MOL0     C23337   4.401   5.261   3.287  0.0034  0.5084  0.5676
  170MOL0     C23338   4.443   5.168   3.172 -0.1218  0.7444  0.1259
  170MOL0     N23339   4.387   5.223   3.051  1.2861 -0.9318 -0.5037
  170MOL0     C23340   4.451   5.334   3.002  0.8132  0.8924 -0.1032
  170MOL0     C23341   4.392   5.336   2.879  0.2880  0.6958 -0.0634
  170MOL0     C23342   4.443   5.418   2.769  0.1260  0.3473 -0.2261
  170MOL0     C23343   4.345   5.498   2.688 -0.2306  0.1948 -0.3732
  170MOL0     C23344   4.311   5.442   2.547 -0.3538 -1.0894  0.3576
  170MOL0     C23345   4.164   5.386   2.543  1.1104  1.1262 -0.1008
  170MOL0     O23346   4.067   5.486   2.587 -0.0442 -0.7631  0.2864
  170MOL0     C23347   3.935   5.450   2.599 -0.3132  0.7350  0.4087
  170MOL0     C23348   3.844   5.552   2.617 -0.8210  0.3879 -0.2246
  170MOL0     C23349   3.708   5.529   2.614  0.2240  0.5002  0.8927
  170MOL0     C23350   3.625   5.647   2.581 -0.0259  0.9662 -0.2601
  170MOL0     C23351   3.657   5.400   2.593 -0.4668  1.4994  0.2619
  170MOL0     C23352   3.508   5.364   2.598  0.4749  0.1822 -0.8643
  170MOL0     O23353   3.430   5.454   2.656  0.2476  0.4756  0.4736
  170MOL0     C23354   3.308   5.480   2.603 -1.1981  0.3133  0.2859
  170MOL0     C23355   3.196   5.514   2.683 -0.3887  0.4067 -0.3673
  170MOL0     C23356   3.073   5.520   2.628  0.2347  0.2479 -0.0935
  170MOL0     C23357   3.047   5.508   2.490  0.8830  0.3531  0.8843
  170MOL0     O23358   2.926   5.508   2.426 -0.9152 -0.0243 -0.4541
  170MOL0     C23359   2.816   5.513   2.500 -0.3869 -0.0424 -0.1746
  170MOL0     C23360   2.700   5.566   2.415  0.2926 -0.5897 -0.8342
  170MOL0     C23361   2.565   5.556   2.478 -0.0974 -0.2695 -0.0641
  170MOL0     C23362   2.466   5.632   2.390  0.3814 -1.0159 -0.3805
  170MOL0     C23363   2.325   5.621   2.455  0.9480  0.2902 -0.5851
  170MOL0     C23364   2.213   5.661   2.358  0.3649 -0.0036  1.1179
  170MOL0     C23365   2.078   5.637   2.413  0.0796 -0.4840 -0.4172
  170MOL0     C23366   2.036   5.743   2.512 -0.2094  0.2524  0.3500
  170MOL0    Cl23367   2.068   5.689   2.689 -0.0028  0.4949  0.3670
  170MOL0     C23368   3.164   5.478   2.407  0.4125  0.3275 -0.2074
  170MOL0     C23369   3.287   5.473   2.461 -0.2664  0.3600 -0.3530
  170MOL0     O23370   3.463   5.261   2.557 -0.6857  1.0242 -0.4081
  170MOL0     C23371   3.753   5.294   2.562  0.5140  0.1283 -0.3567
  170MOL0     C23372   3.884   5.325   2.553 -0.6062 -0.4395 -0.7325
  170MOL0     N23373   4.284   5.247   2.868 -0.7059  0.6330 -0.5980
  170MOL0     N23374   4.274   5.193   2.986 -0.2851  1.1355  0.3503
  170MOL0     C23375   4.312   5.315   4.201  0.3406  1.3471 -1.1013
  170MOL0     C23376   4.310   5.292   4.340 -0.9002  0.3510 -0.0749
  170MOL0     C23377   4.317   5.146   4.765 -0.2704 -0.2163 -0.6900
  170MOL0     C23378   4.340   5.008   4.754 -0.8860 -0.1661 -1.0693
  170MOL0     C23379   4.388   4.931   4.864 -0.2675 -0.1989  0.0223
  170MOL0     C23380   4.394   4.988   4.992  1.2077 -0.0698 -0.0664
  170MOL0     O23381   4.456   4.940   5.107 -0.4972  0.5966  0.4801
  170MOL0     C23382   4.492   4.799   5.102 -0.4025  1.6438  0.2333
  170MOL0     C23383   4.522   4.730   5.228  0.0634 -0.5163  0.3191
  170MOL0     C23384   4.673   4.741   5.276  1.0508 -0.1571  0.1348
  170MOL0     C23385   4.702   4.642   5.389 -0.6815  0.5033 -0.1643
  170MOL0     C23386   4.641   4.679   5.522  1.1009  0.5866  0.7648
  170MOL0     C23387   4.593   4.713   5.627  0.2192 -0.4825  0.2019
  170MOL0     C23388   4.367   5.121   5.002  0.5487  0.0723  0.2513
  170MOL0     C23389   4.339   5.206   4.895  0.5728  0.7405 -0.3414
  170MOL0     C23390   4.334   5.352   4.926  0.1919 -0.6577  0.0284
  170MOL0     H23391   4.121   5.034   4.368 -2.2878  0.3652 -1.1435
  170MOL0     H23392   4.115   5.063   4.115  0.6791  1.8178 -2.5505
  170MOL0     H23393   4.094   5.159   3.917 -0.8256 -2.2163 -0.2130
  170MOL0     H23394   4.249   5.083   3.883  1.0491  1.2733 -0.8601
  170MOL0     H23395   4.157   5.177   3.672 -0.0474 -0.9034  0.1098
  170MOL0     H23396   4.162   5.331   3.757 -0.4788 -0.1307 -5.0520
  170MOL0     H23397   4.417   5.303   3.793  4.0532 -0.6628 -2.7803
  170MOL0     H23398   4.410   5.170   3.688  1.7025  0.0943  1.4411
  170MOL0     H23399   4.273   5.358   3.534 -0.1621  0.9045  0.7084
  170MOL0     H23400   4.358   5.464   3.662 -1.1707  1.1241 -0.2454
  170MOL0     H23401   4.563   5.342   3.582  0.1556  1.2809 -0.6467
  170MOL0     H23402   4.496   5.461   3.465  0.9646 -0.3697 -1.3789
  170MOL0     H23403   4.586   5.231   3.390 -0.1177 -0.9627  2.5081
  170MOL0     H23404   4.449   5.146   3.456  0.2312 -0.8934 -1.0709
  170MOL0     H23405   4.422   5.364   3.256 -1.8634 -0.2806 -4.2942
  170MOL0     H23406   4.293   5.259   3.304  0.2172  1.0315  2.1609
  170MOL0     H23407   4.551   5.176   3.155 -0.4485  0.7663 -2.2406
  170MOL0     H23408   4.413   5.064   3.180 -3.5769  1.5560 -0.8546
  170MOL0     H23409   4.531   5.387   3.052  1.8197  1.0207 -1.7695
  170MOL0     H23410   4.486   5.340   2.705 -2.0295 -0.4205 -0.8164
  170MOL0     H23411   4.523   5.476   2.815  3.1655 -2.1766 -1.9135
  170MOL0     H23412   4.256   5.531   2.742  0.4508  3.0675 -0.8337
  170MOL0     H23413   4.396   5.595   2.685  0.4238 -0.0419  1.5125
  170MOL0     H23414   4.306   5.527   2.478 -2.0252 -2.1956 -0.9249
  170MOL0     H23415   4.390   5.374   2.516  1.0608 -1.0504  3.4435
  170MOL0     H23416   4.147   5.349   2.442 -3.9747  1.1833  0.4950
  170MOL0     H23417   4.158   5.297   2.607 -1.0242  1.7394  0.6261
  170MOL0     H23418   3.886   5.652   2.614 -0.1165  0.1939  1.6979
  170MOL0     H23419   3.691   5.733   2.566 -0.8431  2.3604  3.1979
  170MOL0     H23420   3.546   5.666   2.653  0.4067  0.9919  0.2150
  170MOL0     H23421   3.582   5.637   2.481 -0.7507 -0.2433  0.1400
  170MOL0     H23422   3.224   5.539   2.785 -1.1676  0.3142 -0.1253
  170MOL0     H23423   2.992   5.544   2.697 -1.2388 -1.9369 -0.9462
  170MOL0     H23424   2.803   5.411   2.536  0.6687  0.2052  0.9809
  170MOL0     H23425   2.825   5.583   2.583  1.1358 -0.5236  0.1100
  170MOL0     H23426   2.729   5.671   2.410  0.4383 -0.5698  0.2075
  170MOL0     H23427   2.711   5.513   2.320  1.2752 -4.6259  1.3171
  170MOL0     H23428   2.573   5.609   2.573  1.3145  1.2378 -0.9542
  170MOL0     H23429   2.534   5.453   2.497 -0.1244  0.0303  1.5968
  170MOL0     H23430   2.460   5.585   2.291 -2.1905  0.4928 -1.0244
  170MOL0     H23431   2.491   5.738   2.374 -0.9213 -0.6889 -0.3670
  170MOL0     H23432   2.317   5.513   2.474  0.2687 -0.0883 -2.7566
  170MOL0     H23433   2.319   5.678   2.548  0.0943 -0.9147  0.1332
  170MOL0     H23434   2.238   5.602   2.270  2.9389  1.5524  0.6866
  170MOL0     H23435   2.227   5.763   2.321 -4.2556  0.2509 -0.4462
  170MOL0     H23436   2.074   5.540   2.464 -0.1197 -1.1584 -1.6765
  170MOL0     H23437   1.999   5.610   2.343 -3.0606  0.1921  2.5523
  170MOL0     H23438   1.927   5.739   2.509 -0.1382 -2.1968 -1.0543
  170MOL0     H23439   2.075   5.845   2.500  2.0363 -0.3800  1.7376
  170MOL0     H23440   3.148   5.445   2.304  1.7441  0.2761 -0.4155
  170MOL0     H23441   3.368   5.441   2.396 -1.3106  2.2160 -2.7438
  170MOL0     H23442   3.733   5.189   2.542 -3.0322  0.4120  1.0198
  170MOL0     H23443   3.949   5.240   2.533 -0.9084 -2.1811  4.1173
  170MOL0     H23444   4.347   5.408   4.158 -0.2671  1.9949 -0.2215
  170MOL0     H23445   4.373   5.357   4.400 -0.0099 -0.7983  0.2647
  170MOL0     H23446   4.345   4.959   4.657  1.0135  0.4223 -1.3166
  170MOL0     H23447   4.415   4.826   4.860  1.2839  0.0892  1.5983
  170MOL0     H23448   4.413   4.743   5.051  2.6946 -2.4080 -0.6835
  170MOL0     H23449   4.583   4.777   5.045 -1.9376 -2.2549 -1.0409
  170MOL0     H23450   4.503   4.623   5.217 -1.3319 -0.1614 -1.0453
  170MOL0     H23451   4.450   4.764   5.302 -1.7988 -1.8175 -0.8052
  170MOL0     H23452   4.741   4.716   5.195 -1.0823 -2.7470 -1.0227
  170MOL0     H23453   4.683   4.844   5.311 -3.4107  0.1147  1.2410
  170MOL0     H23454   4.810   4.643   5.401 -0.6386  1.4493 -0.4705
  170MOL0     H23455   4.676   4.539   5.364  2.2651  0.0192 -1.6542
  170MOL0     H23456   4.560   4.741   5.725  0.6432 -1.8289  0.7563
  170MOL0     H23457   4.380   5.166   5.101  1.5520  1.6652 -0.5573
  170MOL0     H23458   4.303   5.365   5.030 -0.3194 -2.0676  0.0735
  170MOL0     H23459   4.430   5.395   4.898  1.3437 -1.7819  2.0267
  170MOL0     H23460   4.255   5.408   4.875 -1.7396  0.8117  4.2169
  171MOL0     O23461  11.248   2.369   8.297 -0.4686  0.2349  0.2783
  171MOL0     C23462  11.173   2.457   8.241  0.5275  0.6287 -0.4102
  171MOL0     O23463  11.058   2.498   8.290 -0.8391  0.2184  0.0217
  171MOL0     C23464  11.015   2.474   8.426  0.8598  0.7304  0.2081
  171MOL0     C23465  11.100   2.477   8.535 -0.3203 -0.6454 -1.1502
  171MOL0     C23466  11.041   2.435   8.659  0.4085 -0.0347  0.5233
  171MOL0     C23467  10.913   2.361   8.664  0.2102 -0.1087  0.4639
  171MOL0     O23468  10.873   2.302   8.783 -0.5326 -0.5918  0.1207
  171MOL0     C23469  10.773   2.206   8.785  0.0034 -1.1274 -0.6107
  171MOL0     C23470  10.748   2.166   8.930  0.7316 -0.7353  0.0571
  171MOL0     C23471  10.698   2.023   8.939  0.1952 -1.0227 -0.1492
  171MOL0     C23472  10.665   1.994   9.089 -0.0603  0.3949 -0.6837
  171MOL0     C23473  10.746   1.866   9.120  0.5623  0.2745  0.1726
  171MOL0     C23474  10.761   1.846   9.273  0.5499 -0.3624 -0.3462
  171MOL0     C23475  10.637   1.795   9.337  0.0126 -0.1391 -0.1003
  171MOL0     C23476  10.630   1.646   9.317 -0.0191  0.0097  0.0613
  171MOL0     N23477  10.517   1.584   9.402  0.4272  0.1197  1.2888
  171MOL0     C23478  10.540   1.555   9.526  0.6059  0.1493  0.3602
  171MOL0     C23479  10.434   1.487   9.574 -0.0375  0.3844  0.5752
  171MOL0     C23480  10.425   1.414   9.698  0.2525 -0.9534 -1.2352
  171MOL0     C23481  10.355   1.496   9.803 -0.0310  0.5858  0.2963
  171MOL0     C23482  10.375   1.446   9.955  0.1595 -0.5800  0.8214
  171MOL0     C23483  10.278   1.328   9.958  0.4364 -0.2180 -0.5723
  171MOL0     O23484  10.264   1.282  10.094  0.7551  0.0774  0.5437
  171MOL0     C23485  10.363   1.204  10.156  0.2679 -0.4599  0.2095
  171MOL0     C23486  10.477   1.159  10.102 -1.6135  0.5296 -0.0862
  171MOL0     C23487  10.550   1.059  10.174  0.2998 -0.7064  0.3818
  171MOL0     C23488  10.666   0.991  10.093 -0.5753 -0.3522 -0.5007
  171MOL0     C23489  10.520   1.031  10.312  0.2622 -0.5872  0.1760
  171MOL0     C23490  10.598   0.941  10.402  0.0073  0.3357  0.6939
  171MOL0     O23491  10.544   0.904  10.519 -0.1872 -0.2144  0.1999
  171MOL0     C23492  10.510   0.767  10.553 -0.3201 -0.1961 -1.3547
  171MOL0     C23493  10.575   0.653  10.498 -1.5464  0.1206  0.1983
  171MOL0     C23494  10.539   0.529  10.539 -0.4560  0.0553 -0.3449
  171MOL0     C23495  10.436   0.511  10.630 -0.1430  0.8521  0.1024
  171MOL0     O23496  10.395   0.389  10.681 -0.1794 -0.7808 -0.3622
  171MOL0     C23497  10.492   0.291  10.717 -0.2677 -0.3367  0.2343
  171MOL0     C23498  10.562   0.220  10.595  0.1381 -0.2014  0.1381
  171MOL0     C23499  10.576   0.070  10.631 -0.2588  0.2696 -0.2835
  171MOL0     C23500  10.448  -0.030  10.655  0.2557 -0.4329 -0.1062
  171MOL0     C23501  10.362  -0.037  10.534 -0.3234 -0.0073  0.2068
  171MOL0     C23502  10.376  -0.170  10.458  0.8835  1.0039 -0.4108
  171MOL0     C23503  10.508  -0.177  10.375 -0.6137 -0.3732 -0.0592
  171MOL0     C23504  10.493  -0.304  10.284  0.0494 -0.2430  0.4555
  171MOL0    Cl23505  10.633  -0.367  10.191 -0.1887 -0.0278  0.1770
  171MOL0     C23506  10.371   0.619  10.683  0.4853 -0.6613 -0.3584
  171MOL0     C23507  10.402   0.748  10.643  0.0592 -0.2239  0.1765
  171MOL0     O23508  10.703   0.897  10.354  0.3567  0.3219 -0.0131
  171MOL0     C23509  10.415   1.106  10.368  0.1861  0.4263  0.3967
  171MOL0     C23510  10.330   1.185  10.293  1.6751  0.3803  0.1388
  171MOL0     N23511  10.351   1.479   9.469  0.5818 -0.3210  0.2209
  171MOL0     N23512  10.397   1.534   9.364 -0.6213 -0.0817  0.4640
  171MOL0     C23513  10.843   2.367   8.543 -0.9225  0.3282  0.2498
  171MOL0     C23514  10.890   2.420   8.426 -0.1336 -1.0631  0.0488
  171MOL0     C23515  11.206   2.479   8.093 -0.0382  0.2381 -0.3349
  171MOL0     C23516  11.117   2.556   8.014  0.3284  0.0742 -0.2126
  171MOL0     C23517  11.136   2.590   7.879 -0.2706 -0.5071 -0.1021
  171MOL0     C23518  11.249   2.555   7.812 -0.3915  0.5983  0.3248
  171MOL0     O23519  11.290   2.612   7.691 -0.1186  0.0642  0.1680
  171MOL0     C23520  11.195   2.611   7.592 -0.5784 -1.1053  0.4691
  171MOL0     C23521  11.151   2.478   7.545  0.1259 -1.0401 -0.7925
  171MOL0     C23522  11.263   2.381   7.524 -0.1598  0.6284  0.7954
  171MOL0     C23523  11.330   2.396   7.385  0.1171 -0.4205  0.0987
  171MOL0     C23524  11.451   2.304   7.365  1.2013 -0.8825 -0.2396
  171MOL0     C23525  11.557   2.254   7.376 -0.7226  0.2175 -0.1978
  171MOL0     C23526  11.349   2.486   7.884  0.2492  0.3555 -0.4003
  171MOL0     C23527  11.323   2.442   8.020 -0.2350 -0.5728  1.4287
  171MOL0     C23528  11.448   2.380   8.079 -0.1732 -0.6114  0.2495
  171MOL0     H23529  11.207   2.495   8.528  0.3547 -3.7732 -0.4222
  171MOL0     H23530  11.089   2.442   8.756  2.0206  2.1152 -0.3424
  171MOL0     H23531  10.793   2.114   8.728  2.8200 -1.1890  0.3066
  171MOL0     H23532  10.684   2.251   8.741 -0.8164 -1.2639  0.8494
  171MOL0     H23533  10.839   2.178   8.990 -1.0262 -0.1863  2.7777
  171MOL0     H23534  10.662   2.228   8.954  0.6370 -0.9062  0.1581
  171MOL0     H23535  10.609   2.016   8.876 -1.5622 -0.3332  2.1445
  171MOL0     H23536  10.783   1.963   8.903  0.1103 -1.5018  0.4440
  171MOL0     H23537  10.677   2.078   9.158  0.3104 -0.5201  0.3960
  171MOL0     H23538  10.562   1.959   9.103 -0.3482  1.6355  0.4497
  171MOL0     H23539  10.845   1.888   9.081 -0.6063  1.7509 -2.2292
  171MOL0     H23540  10.706   1.783   9.061 -1.3408  1.8570 -0.9039
  171MOL0     H23541  10.835   1.768   9.293 -1.4039 -2.3703 -0.6343
  171MOL0     H23542  10.794   1.934   9.329 -0.2420  0.1701 -0.7027
  171MOL0     H23543  10.550   1.849   9.299  1.0223 -0.7976 -3.7116
  171MOL0     H23544  10.647   1.806   9.446  0.1961  4.8101 -0.4098
  171MOL0     H23545  10.617   1.626   9.210 -0.0652 -2.5879  0.4815
  171MOL0     H23546  10.719   1.598   9.358  0.5663 -0.0997 -1.2876
  171MOL0     H23547  10.631   1.562   9.584 -0.1686 -0.3698  1.6867
  171MOL0     H23548  10.529   1.397   9.725 -0.0895 -2.1123 -0.5866
  171MOL0     H23549  10.379   1.316   9.684  1.2739 -1.5132 -0.7074
  171MOL0     H23550  10.395   1.598   9.796  0.7438  0.1772 -1.6953
  171MOL0     H23551  10.248   1.498   9.778  0.1919  0.2637 -0.6981
  171MOL0     H23552  10.477   1.413   9.972  1.5397 -0.4488 -5.0536
  171MOL0     H23553  10.343   1.528  10.021  2.9216  1.4139 -0.1373
  171MOL0     H23554  10.178   1.357   9.924 -0.0816  2.1572  2.5874
  171MOL0     H23555  10.324   1.250   9.896  0.7405 -0.3681 -0.1580
  171MOL0     H23556  10.516   1.192  10.007  1.7249  1.4068  1.4261
  171MOL0     H23557  10.642   0.909  10.024 -1.0123 -0.4038 -0.2949
  171MOL0     H23558  10.755   0.977  10.154 -1.7711 -0.9467  1.1877
  171MOL0     H23559  10.704   1.072  10.031 -0.8694  0.5343  0.4479
  171MOL0     H23560  10.650   0.644  10.420 -1.4077  0.5845  0.2746
  171MOL0     H23561  10.564   0.433  10.494  1.5040 -0.5699  1.8320
  171MOL0     H23562  10.573   0.343  10.769  0.7296 -1.5443 -0.0570
  171MOL0     H23563  10.446   0.218  10.784  0.6810  1.3594  2.9017
  171MOL0     H23564  10.490   0.228  10.512 -0.3940  1.6880  0.7389
  171MOL0     H23565  10.658   0.263  10.565 -0.1409 -0.5265 -1.3448
  171MOL0     H23566  10.642   0.069  10.719  1.3303  0.5519 -1.4200
  171MOL0     H23567  10.634   0.024  10.550 -1.9728 -2.0436 -0.2850
  171MOL0     H23568  10.379   0.001  10.734 -3.0643 -1.5605 -2.3562
  171MOL0     H23569  10.477  -0.129  10.692 -1.7750 -1.2475 -0.5610
  171MOL0     H23570  10.256  -0.047  10.559 -0.1340 -1.5689  0.5295
  171MOL0     H23571  10.376   0.048  10.468 -0.9216 -2.0838 -2.7786
  171MOL0     H23572  10.284  -0.168  10.399  0.2002  3.8245  0.5816
  171MOL0     H23573  10.374  -0.252  10.532 -1.4717  2.0345  0.7716
  171MOL0     H23574  10.597  -0.183  10.438 -1.4892 -2.0264  1.1032
  171MOL0     H23575  10.510  -0.085  10.316  0.2376 -0.2076  0.2173
  171MOL0     H23576  10.405  -0.303  10.219 -0.1222 -0.7464  0.6794
  171MOL0     H23577  10.471  -0.388  10.350  0.3026 -0.3894  0.3539
  171MOL0     H23578  10.296   0.602  10.760  1.6355  0.7125  1.1325
  171MOL0     H23579  10.345   0.831  10.683 -1.5309 -1.2154  0.0219
  171MOL0     H23580  10.389   1.098  10.473 -1.5221 -2.9562 -0.1532
  171MOL0     H23581  10.238   1.229  10.329  1.4272  0.5829 -0.7311
  171MOL0     H23582  10.754   2.305   8.550  0.6623 -2.3797 -1.5991
  171MOL0     H23583  10.833   2.404   8.335 -0.7889 -0.7936  0.4006
  171MOL0     H23584  11.021   2.586   8.056  0.5782  1.3079 -0.4878
  171MOL0     H23585  11.068   2.655   7.825  0.2166  1.0760  1.1348
  171MOL0     H23586  11.109   2.674   7.617  0.2158  0.8552 -1.4269
  171MOL0     H23587  11.223   2.664   7.501 -1.8212 -2.2505 -0.6076
  171MOL0     H23588  11.093   2.484   7.452  2.8675 -3.3654 -2.8384
  171MOL0     H23589  11.086   2.433   7.620  0.3411  2.3347  1.6288
  171MOL0     H23590  11.339   2.413   7.596  1.1516  0.8744 -0.6697
  171MOL0     H23591  11.234   2.277   7.542  1.2112  0.2890  1.1511
  171MOL0     H23592  11.367   2.498   7.373 -1.7141  0.0390 -2.5258
  171MOL0     H23593  11.256   2.371   7.308  1.6290 -2.4108 -0.7931
  171MOL0     H23594  11.644   2.191   7.386 -2.9457 -3.8181 -3.0553
  171MOL0     H23595  11.439   2.471   7.825  0.4739 -2.8183  0.5845
  171MOL0     H23596  11.440   2.271   8.077 -2.1658 -0.6275  2.8718
  171MOL0     H23597  11.530   2.422   8.021 -0.7480 -1.8101 -1.5229
  171MOL0     H23598  11.455   2.394   8.188 -2.1796 -0.7740  0.4322
  172MOL0     O23599   0.850   0.160   1.223 -0.1943  0.3790  0.1465
  172MOL0     C23600   0.933   0.070   1.253  0.2449 -0.3302  0.8654
  172MOL0     O23601   1.059   0.080   1.221 -0.9442 -0.4958  0.0842
  172MOL0     C23602   1.093   0.150   1.112  0.5976 -0.2380  0.5541
  172MOL0     C23603   1.166   0.275   1.122  0.9173 -0.3672  0.0178
  172MOL0     C23604   1.187   0.351   1.002  0.0911 -0.7201 -1.5371
  172MOL0     C23605   1.149   0.298   0.871 -0.5097  0.0371 -0.7973
  172MOL0     O23606   1.147   0.373   0.758 -0.2947  0.0495  0.2051
  172MOL0     C23607   1.025   0.435   0.734  0.1447 -1.4138 -0.6878
  172MOL0     C23608   0.990   0.562   0.822 -0.3658  0.5563  0.1535
  172MOL0     C23609   1.104   0.667   0.824  0.6517 -0.4676 -0.3030
  172MOL0     C23610   1.176   0.672   0.687  0.0329  0.0201  1.3569
  172MOL0     C23611   1.309   0.755   0.691 -0.4435 -0.8096 -0.0167
  172MOL0     C23612   1.439   0.681   0.677 -0.7515  0.0354 -0.8848
  172MOL0     C23613   1.460   0.584   0.789 -0.2515 -0.1503  0.1046
  172MOL0     C23614   1.593   0.508   0.780  0.6505  0.6798  0.3260
  172MOL0     N23615   1.627   0.446   0.905 -0.1716 -0.4179 -0.2504
  172MOL0     C23616   1.608   0.313   0.948  0.2744  0.0510  0.6351
  172MOL0     C23617   1.658   0.306   1.075  0.1421  1.5681  0.2008
  172MOL0     C23618   1.635   0.191   1.180  0.0073 -0.2598  0.0542
  172MOL0     C23619   1.515   0.222   1.284 -0.6885 -0.5078 -0.2512
  172MOL0     C23620   1.529   0.113   1.397  0.0549  0.0483  0.5953
  172MOL0     C23621   1.407   0.064   1.472  0.6824  0.2780 -0.0713
  172MOL0     O23622   1.332   0.183   1.510 -0.5610 -0.4953 -0.3486
  172MOL0     C23623   1.203   0.157   1.552 -0.4275 -0.6970 -0.3021
  172MOL0     C23624   1.160   0.043   1.607  0.0697  0.8913 -0.8164
  172MOL0     C23625   1.028   0.024   1.648 -0.4031  0.8220  0.6277
  172MOL0     C23626   1.000  -0.094   1.733  0.0172  0.6646  0.6884
  172MOL0     C23627   0.932   0.128   1.635  0.5750 -0.0441 -0.4649
  172MOL0     C23628   0.790   0.119   1.675  0.0919  0.1129  0.0083
  172MOL0     O23629   0.727   0.001   1.651 -0.3267  0.4448  0.2362
  172MOL0     C23630   0.590  -0.011   1.651 -0.6544  0.1048  0.0537
  172MOL0     C23631   0.551  -0.145   1.673  0.1811  0.3787 -0.6041
  172MOL0     C23632   0.415  -0.169   1.659  0.3583 -0.2324 -0.5627
  172MOL0     C23633   0.325  -0.078   1.623 -0.1981  0.2181  1.0560
  172MOL0     O23634   0.192  -0.097   1.599  0.0107 -0.3717 -0.3880
  172MOL0     C23635   0.155  -0.206   1.516 -0.6302  0.0181  0.6144
  172MOL0     C23636   0.224  -0.173   1.381 -0.4052  0.2190 -0.6955
  172MOL0     C23637   0.212  -0.300   1.296 -0.8396  0.0452 -0.2367
  172MOL0     C23638   0.272  -0.256   1.161 -0.0787  0.3402  0.0088
  172MOL0     C23639   0.340  -0.376   1.088  1.0463 -0.2323 -0.2612
  172MOL0     C23640   0.371  -0.325   0.951  0.0662  0.1289 -0.4277
  172MOL0     C23641   0.252  -0.261   0.879 -0.3105 -0.3090  0.1665
  172MOL0     C23642   0.128  -0.355   0.875  0.1437 -0.4533  0.2906
  172MOL0    Cl23643   0.023  -0.298   0.741 -0.2850 -0.1418 -0.8113
  172MOL0     C23644   0.365   0.056   1.608  0.3518  0.5492 -0.5692
  172MOL0     C23645   0.504   0.092   1.629  0.9442  0.2548 -0.5433
  172MOL0     O23646   0.742   0.220   1.711  0.4307  0.0145  0.4057
  172MOL0     C23647   0.978   0.244   1.576 -0.0189  0.4882  0.7299
  172MOL0     C23648   1.110   0.262   1.533 -0.1005  0.7052 -0.1699
  172MOL0     N23649   1.716   0.426   1.105 -0.9806  0.0032 -0.5515
  172MOL0     N23650   1.705   0.510   1.002 -0.1022  0.8182  0.1892
  172MOL0     C23651   1.073   0.178   0.870  0.3753 -0.4590  0.8649
  172MOL0     C23652   1.035   0.116   0.986 -0.8491 -0.1010 -0.2495
  172MOL0     C23653   0.884  -0.057   1.304 -1.1936  0.3626  0.0044
  172MOL0     C23654   0.981  -0.159   1.321 -0.9774  0.1812 -0.4179
  172MOL0     C23655   0.947  -0.282   1.378 -0.2084  0.9680 -0.9769
  172MOL0     C23656   0.818  -0.319   1.401 -0.1615 -0.1197 -0.9044
  172MOL0     O23657   0.769  -0.442   1.451 -0.5539 -0.4094  0.3367
  172MOL0     C23658   0.861  -0.545   1.481  0.0058 -0.1610  0.2978
  172MOL0     C23659   0.903  -0.540   1.632 -0.1680  0.6178 -0.4998
  172MOL0     C23660   0.785  -0.582   1.721 -1.1574  1.0652  0.3971
  172MOL0     C23661   0.829  -0.572   1.863  0.1857 -0.1867 -0.2688
  172MOL0     C23662   0.814  -0.433   1.901  0.2385 -0.3090  0.2557
  172MOL0     C23663   0.799  -0.322   1.947  0.8637  0.2677  0.2990
  172MOL0     C23664   0.723  -0.232   1.368  0.3096 -0.4298 -1.0718
  172MOL0     C23665   0.747  -0.101   1.324  0.1742 -0.4289  0.3217
  172MOL0     C23666   0.629  -0.007   1.326  0.7625  0.2153 -0.2443
  172MOL0     H23667   1.202   0.308   1.219  0.3316  1.4450 -0.3381
  172MOL0     H23668   1.237   0.447   1.010 -0.3046 -0.6582  1.3943
  172MOL0     H23669   0.943   0.362   0.740  1.1651 -2.5843 -0.4906
  172MOL0     H23670   1.020   0.465   0.628 -0.1205 -2.6150 -1.0352
  172MOL0     H23671   0.896   0.605   0.785 -0.6361 -2.2010 -2.8501
  172MOL0     H23672   0.966   0.530   0.924 -1.3568 -0.5216 -0.3904
  172MOL0     H23673   1.050   0.759   0.846 -0.7561 -1.9840  3.3530
  172MOL0     H23674   1.182   0.651   0.899  0.1006  1.9423  0.8735
  172MOL0     H23675   1.205   0.571   0.658 -0.2197  0.4905 -0.7490
  172MOL0     H23676   1.117   0.713   0.604  1.7021  2.8579  1.4641
  172MOL0     H23677   1.309   0.813   0.784  0.4020  1.3387 -1.2648
  172MOL0     H23678   1.308   0.840   0.621  1.6135 -1.7989 -1.3633
  172MOL0     H23679   1.410   0.631   0.583 -2.5983  1.1435 -0.9644
  172MOL0     H23680   1.522   0.752   0.671 -2.4381  2.2636  0.4574
  172MOL0     H23681   1.378   0.511   0.797  1.7089 -2.2724  2.1556
  172MOL0     H23682   1.456   0.653   0.874  1.8667 -0.7944  0.7921
  172MOL0     H23683   1.582   0.436   0.698  0.2299 -1.6996  2.3659
  172MOL0     H23684   1.667   0.583   0.753 -0.0158  2.4202  3.0225
  172MOL0     H23685   1.545   0.232   0.913  0.6912 -0.4439  1.0178
  172MOL0     H23686   1.724   0.194   1.243 -0.5773  1.9906  0.8803
  172MOL0     H23687   1.625   0.093   1.134  0.8653 -2.2812  3.7548
  172MOL0     H23688   1.531   0.319   1.332 -0.8309  1.3606 -3.7091
  172MOL0     H23689   1.413   0.217   1.245 -1.5173 -1.5588  1.8989
  172MOL0     H23690   1.563   0.020   1.351 -1.7922 -0.0094 -0.7460
  172MOL0     H23691   1.598   0.166   1.464  0.0579  0.7360  0.0568
  172MOL0     H23692   1.361   0.001   1.396 -0.8230 -1.8597  2.4549
  172MOL0     H23693   1.429  -0.002   1.556  2.0003  1.5867  0.6561
  172MOL0     H23694   1.224  -0.044   1.604  1.9802  2.2450 -1.0968
  172MOL0     H23695   1.083  -0.116   1.801 -2.3013 -4.8257  2.2523
  172MOL0     H23696   0.983  -0.182   1.670  3.0613  0.2371  0.3023
  172MOL0     H23697   0.912  -0.081   1.796 -1.9433  0.2948 -1.8099
  172MOL0     H23698   0.623  -0.225   1.688  0.6947  1.0639  0.8232
  172MOL0     H23699   0.374  -0.266   1.683  0.8637  0.0158  1.4155
  172MOL0     H23700   0.189  -0.303   1.553  3.0337 -0.0758 -2.3900
  172MOL0     H23701   0.048  -0.191   1.499 -0.1658  3.3455 -0.1418
  172MOL0     H23702   0.168  -0.090   1.337 -0.3755  0.9722  0.6473
  172MOL0     H23703   0.327  -0.141   1.398 -0.3690 -0.3518  0.2105
  172MOL0     H23704   0.108  -0.333   1.284 -1.1794 -0.1383  2.5092
  172MOL0     H23705   0.277  -0.377   1.339 -2.6670 -1.3797  0.1248
  172MOL0     H23706   0.352  -0.183   1.173 -1.5268  1.7245  1.6634
  172MOL0     H23707   0.187  -0.222   1.101  1.6201  3.0035 -1.0630
  172MOL0     H23708   0.429  -0.414   1.139 -0.1983 -4.1442 -0.6906
  172MOL0     H23709   0.271  -0.460   1.086  0.2590  0.4041 -0.0523
  172MOL0     H23710   0.406  -0.410   0.893 -1.3220  0.7849 -2.3396
  172MOL0     H23711   0.458  -0.259   0.956  0.0966  0.1537 -1.2926
  172MOL0     H23712   0.279  -0.258   0.773  1.4770 -0.3806  0.5884
  172MOL0     H23713   0.225  -0.163   0.922 -0.8630 -1.9617  4.0126
  172MOL0     H23714   0.070  -0.368   0.967 -1.8338 -2.8018 -1.1777
  172MOL0     H23715   0.171  -0.454   0.859  1.4335 -0.0712  1.2242
  172MOL0     H23716   0.296   0.138   1.589 -1.9870 -1.9831 -4.5845
  172MOL0     H23717   0.520   0.197   1.606 -1.4023  1.1885  1.5544
  172MOL0     H23718   0.928   0.336   1.548  1.3334  0.8859 -0.4936
  172MOL0     H23719   1.153   0.348   1.483 -0.5652  2.0339  1.5919
  172MOL0     H23720   1.028   0.148   0.776  0.2090  1.1585  0.4034
  172MOL0     H23721   0.972   0.027   0.976 -0.6589 -1.1217  4.8938
  172MOL0     H23722   1.085  -0.134   1.302 -1.1211  2.8110  1.7870
  172MOL0     H23723   1.041  -0.334   1.394  0.0188  0.8754 -2.5455
  172MOL0     H23724   0.805  -0.639   1.472  2.9783 -2.3957  2.9351
  172MOL0     H23725   0.944  -0.553   1.411  0.9794  0.1916  1.3732
  172MOL0     H23726   0.950  -0.441   1.636  1.8093 -0.2815 -0.5919
  172MOL0     H23727   0.985  -0.611   1.641  0.1759  0.9734 -0.7746
  172MOL0     H23728   0.701  -0.513   1.706 -1.4654  1.4537  3.2724
  172MOL0     H23729   0.751  -0.681   1.691  2.6723  0.4802 -2.8716
  172MOL0     H23730   0.932  -0.603   1.884  0.8905  2.5179  0.6781
  172MOL0     H23731   0.766  -0.643   1.917  1.0342 -0.5931  0.2079
  172MOL0     H23732   0.787  -0.223   1.986  0.3752  1.3522 -2.3845
  172MOL0     H23733   0.622  -0.268   1.385 -0.5154  1.4534 -1.7035
  172MOL0     H23734   0.541  -0.064   1.358  1.4987 -1.9138 -1.7597
  172MOL0     H23735   0.645   0.079   1.392  0.0344  0.5204 -0.4579
  172MOL0     H23736   0.612   0.027   1.223 -0.2225 -0.6165 -0.3818
  173MOL0     O23737   0.306   9.543   9.244  0.3432 -0.1382  0.5724
  173MOL0     C23738   0.371   9.558   9.348 -1.1459 -0.6265 -0.0073
  173MOL0     O23739   0.346   9.495   9.461  0.2365 -0.4613  0.2079
  173MOL0     C23740   0.362   9.353   9.455  0.2759  0.1151 -0.5785
  173MOL0     C23741   0.395   9.274   9.344 -1.4596 -0.7379  0.0176
  173MOL0     C23742   0.401   9.133   9.347  0.9044 -0.7586 -0.8154
  173MOL0     C23743   0.365   9.063   9.465 -0.6698 -0.2533  0.1941
  173MOL0     O23744   0.360   8.927   9.489  0.7536 -0.0869  0.1367
  173MOL0     C23745   0.371   8.843   9.364  0.4452  0.1820 -0.8565
  173MOL0     C23746   0.510   8.812   9.305 -0.8889 -0.0889 -0.0067
  173MOL0     C23747   0.490   8.751   9.171  0.3514 -0.6034  0.8250
  173MOL0     C23748   0.624   8.762   9.089 -0.2377  0.2383  1.0641
  173MOL0     C23749   0.620   8.669   8.970 -0.2553 -0.3810 -0.5156
  173MOL0     C23750   0.495   8.690   8.878  0.2388 -0.1678 -1.1429
  173MOL0     C23751   0.530   8.644   8.742  0.0412  0.5812 -0.6499
  173MOL0     C23752   0.571   8.499   8.721 -0.2281 -0.5672  0.4978
  173MOL0     N23753   0.656   8.485   8.596 -0.7562 -0.2379  0.2440
  173MOL0     C23754   0.770   8.414   8.594 -0.1786 -0.3352 -0.2182
  173MOL0     C23755   0.811   8.428   8.466 -0.0805  0.1366  0.4871
  173MOL0     C23756   0.934   8.365   8.400  0.4060  0.5921  0.3690
  173MOL0     C23757   0.875   8.256   8.306 -0.3665 -0.7625  0.1604
  173MOL0     C23758   0.981   8.185   8.216  0.1303 -0.5304  0.2894
  173MOL0     C23759   0.917   8.084   8.132  1.1585  0.0562 -0.5923
  173MOL0     O23760   0.839   8.124   8.019  0.0900 -0.1493 -0.2547
  173MOL0     C23761   0.889   8.194   7.915  0.2956  0.2687  0.7507
  173MOL0     C23762   0.797   8.260   7.829 -0.9391  0.0175  0.2367
  173MOL0     C23763   0.844   8.340   7.714  0.5627  1.1995  0.5777
  173MOL0     C23764   0.732   8.412   7.640 -0.3333  0.2625  0.3772
  173MOL0     C23765   0.991   8.347   7.694  0.3222  0.4143 -0.2021
  173MOL0     C23766   1.060   8.426   7.576 -0.4625  0.3579 -0.5960
  173MOL0     O23767   1.189   8.466   7.585 -0.4606 -0.8028  0.1805
  173MOL0     C23768   1.254   8.547   7.482  0.0129 -0.3181  0.5754
  173MOL0     C23769   1.201   8.606   7.362 -0.7976  0.2959  0.1313
  173MOL0     C23770   1.285   8.670   7.273 -0.3661  0.1646 -0.3411
  173MOL0     C23771   1.415   8.711   7.315  0.1716 -0.1310 -0.2764
  173MOL0     O23772   1.475   8.800   7.233 -0.5158  0.8195  0.4328
  173MOL0     C23773   1.599   8.877   7.273 -0.4415 -0.1802  0.2204
  173MOL0     C23774   1.610   8.971   7.159 -0.6525 -0.6823 -0.2912
  173MOL0     C23775   1.732   9.066   7.172 -0.5549  0.6913  0.5672
  173MOL0     C23776   1.715   9.184   7.082  0.2186  0.6122 -0.0168
  173MOL0     C23777   1.665   9.148   6.935 -0.9272 -0.4051  1.0488
  173MOL0     C23778   1.636   9.259   6.828 -0.3259  0.0748  0.5947
  173MOL0     C23779   1.532   9.361   6.888 -0.4006  0.6483  0.2977
  173MOL0     C23780   1.409   9.314   6.973  1.1320 -0.2285  0.7036
  173MOL0    Cl23781   1.331   9.465   7.009 -0.2878  0.0246  0.4348
  173MOL0     C23782   1.468   8.663   7.432  0.1997 -0.5856  1.0337
  173MOL0     C23783   1.379   8.583   7.514 -1.6250  0.2186 -0.4415
  173MOL0     O23784   0.988   8.435   7.479  0.5969  0.2411  0.5369
  173MOL0     C23785   1.081   8.275   7.770  0.1004 -0.2622  0.2108
  173MOL0     C23786   1.031   8.209   7.886  0.0019 -0.2775  0.8715
  173MOL0     N23787   0.724   8.505   8.392 -0.1278  0.5811 -0.4829
  173MOL0     N23788   0.627   8.533   8.471 -1.2189  0.4030 -1.1840
  173MOL0     C23789   0.325   9.142   9.582  0.3635  0.7860 -0.0716
  173MOL0     C23790   0.323   9.283   9.572  1.3676  1.0029 -0.5302
  173MOL0     C23791   0.480   9.652   9.365  0.6145 -0.4571  0.2035
  173MOL0     C23792   0.526   9.676   9.504  0.8109  0.6818 -0.4322
  173MOL0     C23793   0.623   9.761   9.539  0.0634  0.3411 -0.2428
  173MOL0     C23794   0.698   9.827   9.442 -0.3796  0.3110  0.4084
  173MOL0     O23795   0.780   9.923   9.500 -0.4914 -0.4428  0.5061
  173MOL0     C23796   0.920   9.879   9.483 -0.5080  0.8241 -0.1510
  173MOL0     C23797   0.984   9.842   9.624 -0.6792  0.5640  0.5837
  173MOL0     C23798   0.982   9.954   9.725 -0.6285  0.1558  0.2454
  173MOL0     C23799   1.029   9.889   9.859  0.0784 -0.0587 -0.6025
  173MOL0     C23800   1.073   9.994   9.954  0.1883  0.3879 -0.3179
  173MOL0     C23801   1.100  10.070  10.042  0.0277  0.3063 -0.8399
  173MOL0     C23802   0.665   9.812   9.307  0.4300  0.0597  1.1133
  173MOL0     C23803   0.560   9.719   9.268 -0.5403  0.0184  0.6643
  173MOL0     C23804   0.519   9.731   9.123  0.0872  0.2280 -0.8802
  173MOL0     H23805   0.430   9.326   9.255  0.9193 -0.9409  0.7649
  173MOL0     H23806   0.447   9.087   9.260 -1.2052 -0.5137 -2.1371
  173MOL0     H23807   0.314   8.888   9.282 -0.7624 -3.9805 -2.5987
  173MOL0     H23808   0.335   8.742   9.388  2.0672 -0.4494 -0.9761
  173MOL0     H23809   0.566   8.906   9.305 -0.9724 -0.0389  0.3086
  173MOL0     H23810   0.556   8.743   9.376  0.5964 -2.3750 -2.9765
  173MOL0     H23811   0.451   8.649   9.179  1.2042 -1.1302 -1.1017
  173MOL0     H23812   0.421   8.815   9.114  2.2106 -1.0143 -2.1058
  173MOL0     H23813   0.617   8.867   9.059  0.6920  0.1103  0.3698
  173MOL0     H23814   0.717   8.749   9.145  0.8545  4.2034  0.4792
  173MOL0     H23815   0.625   8.565   9.000 -0.3430  0.0944  1.2582
  173MOL0     H23816   0.710   8.703   8.916 -1.7668 -0.6629 -3.4547
  173MOL0     H23817   0.413   8.627   8.912  1.0547 -1.4217 -1.4171
  173MOL0     H23818   0.467   8.796   8.869  0.0085 -0.0145  0.8804
  173MOL0     H23819   0.605   8.707   8.692  0.2287 -0.8818 -2.3249
  173MOL0     H23820   0.438   8.666   8.687 -0.5718  2.2869  0.9292
  173MOL0     H23821   0.639   8.469   8.801 -1.0108  2.4993  2.5075
  173MOL0     H23822   0.493   8.423   8.716 -0.6702 -0.0285 -1.2928
  173MOL0     H23823   0.833   8.370   8.671  2.6762 -0.5751 -2.5027
  173MOL0     H23824   1.004   8.329   8.476  1.9645 -0.3147 -1.4306
  173MOL0     H23825   0.984   8.439   8.337 -1.8505  1.2904 -0.7211
  173MOL0     H23826   0.816   8.186   8.366  1.3782 -4.0055 -1.6454
  173MOL0     H23827   0.801   8.303   8.241 -1.1600 -1.8377  0.2695
  173MOL0     H23828   1.031   8.257   8.150 -1.9585  2.3125  1.6038
  173MOL0     H23829   1.055   8.137   8.281  3.0551  0.1157 -2.2990
  173MOL0     H23830   0.987   8.003   8.109 -1.2447 -2.2019 -0.4989
  173MOL0     H23831   0.841   8.027   8.187  3.5437 -1.5967  1.2146
  173MOL0     H23832   0.693   8.242   7.852 -0.8521  1.3738  1.9412
  173MOL0     H23833   0.765   8.510   7.605  0.7845  0.4785  1.9113
  173MOL0     H23834   0.643   8.410   7.703 -0.0784 -1.6830  0.7366
  173MOL0     H23835   0.698   8.362   7.549 -1.7778  2.1012 -0.1668
  173MOL0     H23836   1.103   8.592   7.318 -1.0030  1.7907  0.0562
  173MOL0     H23837   1.240   8.690   7.176 -2.3900  1.8754  0.8651
  173MOL0     H23838   1.573   8.936   7.360 -1.4040  0.7853 -0.6946
  173MOL0     H23839   1.690   8.815   7.272 -1.1980 -1.3650  1.5830
  173MOL0     H23840   1.609   8.911   7.067  1.3559 -0.5648 -0.4361
  173MOL0     H23841   1.523   9.037   7.151  2.1366  3.1743 -2.0476
  173MOL0     H23842   1.827   9.015   7.160 -0.7624 -0.2899  2.7089
  173MOL0     H23843   1.737   9.102   7.275  0.2560  1.7660  0.1769
  173MOL0     H23844   1.811   9.235   7.074 -0.1188  0.9019 -3.5770
  173MOL0     H23845   1.646   9.244   7.142 -1.6224 -0.5090 -0.9187
  173MOL0     H23846   1.742   9.092   6.882 -0.3373 -1.2617  2.7319
  173MOL0     H23847   1.578   9.083   6.941 -0.6249 -0.7957  1.2695
  173MOL0     H23848   1.593   9.214   6.738  1.1416 -2.4534  1.0657
  173MOL0     H23849   1.727   9.308   6.793 -0.2193 -1.3929 -1.3236
  173MOL0     H23850   1.500   9.437   6.816 -0.8148  0.3468  0.1558
  173MOL0     H23851   1.589   9.421   6.959 -1.4668 -1.4940  3.1733
  173MOL0     H23852   1.434   9.261   7.066  0.3231 -1.0071  0.4849
  173MOL0     H23853   1.340   9.261   6.908  1.8545  1.6329 -1.7261
  173MOL0     H23854   1.562   8.691   7.478 -0.6496  2.3729  1.1844
  173MOL0     H23855   1.422   8.550   7.608  1.0176 -0.5146 -1.8361
  173MOL0     H23856   1.188   8.262   7.755  0.4226 -0.7621  2.6102
  173MOL0     H23857   1.109   8.151   7.934 -0.0079  0.4558  1.7866
  173MOL0     H23858   0.288   9.091   9.670 -0.7665  3.3127  1.0141
  173MOL0     H23859   0.295   9.344   9.657 -0.1041  0.3934 -0.5330
  173MOL0     H23860   0.478   9.628   9.589  1.9919 -1.1060 -0.7358
  173MOL0     H23861   0.643   9.785   9.643  1.2544  0.9773 -0.5991
  173MOL0     H23862   0.928   9.799   9.409 -0.2184  0.3427  0.3967
  173MOL0     H23863   0.975   9.962   9.436  2.3261 -0.6981  0.2709
  173MOL0     H23864   1.081   9.794   9.605 -2.0629 -1.8365 -0.9052
  173MOL0     H23865   0.921   9.764   9.666  2.4006 -1.7675  1.2591
  173MOL0     H23866   1.052  10.030   9.688 -1.8090 -0.3671 -3.5629
  173MOL0     H23867   0.883  10.000   9.731 -0.2401  0.9690  0.5531
  173MOL0     H23868   1.097   9.806   9.842 -1.1051 -0.3877 -4.5711
  173MOL0     H23869   0.931   9.855   9.895  1.2056 -0.9788  1.8202
  173MOL0     H23870   1.128  10.148  10.110 -3.1126  2.8228 -2.1884
  173MOL0     H23871   0.702   9.882   9.233  0.9915 -0.1623  1.1828
  173MOL0     H23872   0.601   9.754   9.055  1.5631  0.8070  1.0017
  173MOL0     H23873   0.472   9.637   9.091  2.7238 -1.6116  0.2777
  173MOL0     H23874   0.440   9.805   9.104  0.5868  1.1149  0.3742
  174MOL0     O23875   7.887   8.335   8.826  0.4254 -0.1129  0.4923
  174MOL0     C23876   7.841   8.338   8.714 -0.0281 -1.4843  0.5981
  174MOL0     O23877   7.814   8.230   8.626  0.1244  0.5726  0.4376
  174MOL0     C23878   7.861   8.109   8.661 -0.7582 -0.1429 -0.4771
  174MOL0     C23879   7.778   7.988   8.670  1.1611 -1.2926 -1.1787
  174MOL0     C23880   7.830   7.865   8.706 -0.4379  0.1868  0.4373
  174MOL0     C23881   7.965   7.856   8.741  0.1683  0.3215  0.1075
  174MOL0     O23882   8.004   7.722   8.771  0.2667  0.2119 -0.0404
  174MOL0     C23883   8.129   7.699   8.831 -0.1518 -0.7402  0.1222
  174MOL0     C23884   8.125   7.549   8.872 -0.3343 -0.9208  0.8768
  174MOL0     C23885   8.251   7.520   8.958  0.2297  0.2896  0.9075
  174MOL0     C23886   8.319   7.388   8.937  0.6520 -0.1351  0.5005
  174MOL0     C23887   8.468   7.390   8.989 -0.3690 -0.0035 -1.0058
  174MOL0     C23888   8.533   7.251   8.970 -0.2001  0.0013  0.0822
  174MOL0     C23889   8.530   7.209   8.828 -0.7161 -0.2100  0.8340
  174MOL0     C23890   8.620   7.100   8.808 -0.5598 -0.1058 -0.3475
  174MOL0     N23891   8.576   6.980   8.879  0.1929 -0.2068  0.6872
  174MOL0     C23892   8.460   6.910   8.861 -0.5189  0.8057 -0.0049
  174MOL0     C23893   8.481   6.799   8.943 -0.4256 -0.5344  0.4225
  174MOL0     C23894   8.372   6.695   8.962  0.4292 -0.6173  0.1581
  174MOL0     C23895   8.370   6.670   9.118 -0.1317 -1.1162  0.2958
  174MOL0     C23896   8.298   6.533   9.143  0.4638 -0.7419  0.8892
  174MOL0     C23897   8.304   6.481   9.292 -0.7009  0.6078 -0.3267
  174MOL0     O23898   8.265   6.337   9.294  0.3693 -0.5248 -0.1190
  174MOL0     C23899   8.353   6.240   9.257  0.3035  1.3442  0.2337
  174MOL0     C23900   8.494   6.239   9.243  0.1097 -0.2060 -1.1684
  174MOL0     C23901   8.563   6.121   9.205 -0.2020  0.5684  0.1782
  174MOL0     C23902   8.719   6.118   9.196 -0.0146 -0.0758 -0.0825
  174MOL0     C23903   8.485   6.005   9.169  0.4645 -0.0697 -0.5671
  174MOL0     C23904   8.530   5.892   9.092  0.2549  0.0097  0.0528
  174MOL0     O23905   8.435   5.817   9.027  0.4194 -0.2466  0.0021
  174MOL0     C23906   8.475   5.718   8.951 -0.4439 -0.7492 -0.4878
  174MOL0     C23907   8.430   5.587   8.981 -0.3572 -0.2481  0.5722
  174MOL0     C23908   8.470   5.490   8.892 -0.1951  0.1579 -0.1956
  174MOL0     C23909   8.531   5.513   8.763 -0.1330 -0.2795 -0.3935
  174MOL0     O23910   8.592   5.413   8.686  0.1727  0.6000 -0.4981
  174MOL0     C23911   8.564   5.275   8.686 -0.3104  0.4286 -1.6503
  174MOL0     C23912   8.429   5.240   8.625  0.0922  0.1624 -0.5394
  174MOL0     C23913   8.411   5.315   8.492 -0.0356  0.3821 -0.5834
  174MOL0     C23914   8.305   5.252   8.391 -0.8269  1.3312 -0.1483
  174MOL0     C23915   8.287   5.372   8.286  0.2528  0.3848  0.5081
  174MOL0     C23916   8.216   5.341   8.153 -0.2185 -0.7139  0.2757
  174MOL0     C23917   8.229   5.463   8.044 -0.0205 -1.1727 -0.1919
  174MOL0     C23918   8.146   5.592   8.097  0.0001 -0.3077  1.5981
  174MOL0    Cl23919   8.165   5.715   7.968 -0.4161  0.4793 -0.0000
  174MOL0     C23920   8.554   5.645   8.731  0.5357 -0.6072  0.0805
  174MOL0     C23921   8.536   5.743   8.826 -0.2637 -0.6274  0.1093
  174MOL0     O23922   8.647   5.860   9.103  0.3805 -0.0264 -0.8384
  174MOL0     C23923   8.349   6.006   9.192  0.8721  0.1460 -0.7142
  174MOL0     C23924   8.282   6.118   9.240 -1.1380 -0.5305 -0.1036
  174MOL0     N23925   8.613   6.800   8.989  0.3260 -0.5908  0.0809
  174MOL0     N23926   8.661   6.910   8.952 -0.0445  0.0699 -1.0104
  174MOL0     C23927   8.045   7.971   8.740 -0.1331 -0.1096 -0.6945
  174MOL0     C23928   7.994   8.098   8.710  0.0670  0.4353  0.3583
  174MOL0     C23929   7.798   8.467   8.652 -0.2995 -0.1796 -0.2949
  174MOL0     C23930   7.690   8.470   8.572  0.6650  0.2305  1.2066
  174MOL0     C23931   7.655   8.586   8.509  0.0849  0.1243 -0.5573
  174MOL0     C23932   7.723   8.706   8.531  0.2299  0.5373  0.2512
  174MOL0     O23933   7.679   8.829   8.487 -0.0170  0.0078 -0.7146
  174MOL0     C23934   7.538   8.863   8.496 -0.2491 -0.3208 -0.3014
  174MOL0     C23935   7.492   8.893   8.358  0.6465  0.0736  0.7430
  174MOL0     C23936   7.342   8.932   8.340  0.9117  0.7860  0.8229
  174MOL0     C23937   7.233   8.849   8.411 -0.4768 -0.6138  0.5492
  174MOL0     C23938   7.227   8.716   8.343  0.1604 -0.5165  0.8057
  174MOL0     C23939   7.214   8.622   8.269 -0.2738  0.6894 -0.2331
  174MOL0     C23940   7.836   8.705   8.610 -0.2580  0.8491  0.0278
  174MOL0     C23941   7.879   8.584   8.663 -0.0073  0.0452  0.7885
  174MOL0     C23942   8.020   8.581   8.717 -0.2822  1.0407  0.1972
  174MOL0     H23943   7.674   7.996   8.638  1.0078 -0.5888 -0.5280
  174MOL0     H23944   7.780   7.770   8.698  1.6485 -0.8391 -1.5175
  174MOL0     H23945   8.139   7.759   8.921 -0.7970  1.7547 -1.3785
  174MOL0     H23946   8.203   7.724   8.755  0.8229 -1.8947  0.6495
  174MOL0     H23947   8.035   7.512   8.922 -1.2296 -3.9065 -2.4742
  174MOL0     H23948   8.111   7.481   8.787 -1.3909 -1.5464  1.5333
  174MOL0     H23949   8.330   7.596   8.949 -1.5204  2.0781 -0.3229
  174MOL0     H23950   8.223   7.510   9.063 -2.8962  1.3901  0.2809
  174MOL0     H23951   8.264   7.312   8.993  1.5337 -0.5486  0.8078
  174MOL0     H23952   8.320   7.369   8.829 -0.8692  2.5397 -0.0926
  174MOL0     H23953   8.465   7.426   9.092  0.4885 -0.4361 -0.8194
  174MOL0     H23954   8.522   7.470   8.938  1.9784 -1.2575 -0.6125
  174MOL0     H23955   8.635   7.256   9.008 -0.8608  1.0458  1.8747
  174MOL0     H23956   8.485   7.165   9.018 -0.0704 -1.3621 -2.0559
  174MOL0     H23957   8.572   7.289   8.766 -2.3961  1.5236  1.8072
  174MOL0     H23958   8.426   7.185   8.802 -0.7507 -0.9675  1.6428
  174MOL0     H23959   8.614   7.078   8.701  3.5582 -1.2790 -0.4740
  174MOL0     H23960   8.723   7.134   8.820 -1.4824  4.6671 -3.1027
  174MOL0     H23961   8.363   6.937   8.818 -0.6848 -0.7116 -0.6272
  174MOL0     H23962   8.403   6.604   8.911  0.5225 -1.1313  1.1102
  174MOL0     H23963   8.286   6.747   8.918 -0.4225 -3.3465 -1.6027
  174MOL0     H23964   8.474   6.649   9.148 -0.6197 -0.8003  2.3498
  174MOL0     H23965   8.327   6.760   9.162  0.9105  1.2480 -3.0980
  174MOL0     H23966   8.193   6.545   9.117  0.1860 -1.2875  1.7095
  174MOL0     H23967   8.331   6.452   9.077 -0.8257 -0.0162 -0.7039
  174MOL0     H23968   8.404   6.486   9.334 -0.8379 -1.1959  0.3223
  174MOL0     H23969   8.241   6.548   9.351 -0.6904  1.2793 -1.0688
  174MOL0     H23970   8.548   6.330   9.264  4.7355 -3.0183  0.7030
  174MOL0     H23971   8.759   6.208   9.244  1.1869  0.6497 -2.2845
  174MOL0     H23972   8.762   6.122   9.095 -0.9406  0.7348 -0.4600
  174MOL0     H23973   8.763   6.028   9.240  0.6226 -1.5495 -3.4509
  174MOL0     H23974   8.375   5.577   9.074 -3.9578  1.0573 -1.2211
  174MOL0     H23975   8.455   5.392   8.936  1.9004  1.3868  3.8169
  174MOL0     H23976   8.648   5.239   8.626 -0.7094 -0.6551 -1.5846
  174MOL0     H23977   8.574   5.233   8.786 -1.7377  1.7597 -0.8890
  174MOL0     H23978   8.422   5.132   8.610  1.3748  0.1836 -1.4449
  174MOL0     H23979   8.343   5.256   8.690  2.4610  0.2421  2.8718
  174MOL0     H23980   8.508   5.319   8.440  0.3605  2.6767  0.2452
  174MOL0     H23981   8.381   5.415   8.522  0.6879  0.3641  0.2457
  174MOL0     H23982   8.214   5.229   8.448  0.4808 -2.0068  0.8501
  174MOL0     H23983   8.335   5.159   8.341 -1.0157 -0.8519  3.4701
  174MOL0     H23984   8.239   5.452   8.343  1.4002  0.1530  1.8581
  174MOL0     H23985   8.388   5.405   8.256  0.6203  1.2881  2.5779
  174MOL0     H23986   8.107   5.332   8.167 -0.3959  0.2950 -0.3235
  174MOL0     H23987   8.257   5.249   8.110  0.9216 -2.1559  4.1274
  174MOL0     H23988   8.195   5.431   7.945 -1.0786  0.9416 -0.5799
  174MOL0     H23989   8.336   5.487   8.036 -0.4583  1.7196  1.1842
  174MOL0     H23990   8.176   5.634   8.194  0.0976  3.2322  0.2043
  174MOL0     H23991   8.038   5.576   8.108 -0.3449  1.3666  0.9430
  174MOL0     H23992   8.596   5.661   8.632 -0.8592  1.1175 -0.2972
  174MOL0     H23993   8.565   5.847   8.812 -2.0579 -0.2868 -1.4750
  174MOL0     H23994   8.293   5.918   9.162  0.2397  1.1198 -2.6023
  174MOL0     H23995   8.173   6.119   9.247 -1.1944  0.0013 -0.8628
  174MOL0     H23996   8.149   7.966   8.769 -0.8810  0.6918  2.5661
  174MOL0     H23997   8.051   8.189   8.722 -0.1102  0.4589  1.0686
  174MOL0     H23998   7.642   8.376   8.546  0.5353  0.5208  0.3764
  174MOL0     H23999   7.566   8.581   8.446 -0.2782  1.2353 -0.1651
  174MOL0     H24000   7.489   8.779   8.546  0.8907 -1.1005 -0.4527
  174MOL0     H24001   7.538   8.951   8.560  1.3549  0.6813 -1.5912
  174MOL0     H24002   7.503   8.792   8.317 -2.3384 -1.6265  3.6513
  174MOL0     H24003   7.572   8.958   8.322  3.7800 -2.2578  2.9518
  174MOL0     H24004   7.328   9.036   8.370 -0.4895 -0.2092  4.0119
  174MOL0     H24005   7.318   8.922   8.234  1.9931  1.6176  0.4796
  174MOL0     H24006   7.140   8.903   8.391 -0.9541 -1.5796  0.0757
  174MOL0     H24007   7.230   8.832   8.519 -3.0966  0.1779  0.6887
  174MOL0     H24008   7.211   8.529   8.214  0.0845  0.2524  0.4812
  174MOL0     H24009   7.880   8.801   8.637 -0.0747  0.9254 -0.5311
  174MOL0     H24010   8.071   8.656   8.654 -0.5741 -1.2066 -2.9340
  174MOL0     H24011   8.033   8.595   8.825 -2.0263  1.7506  0.3476
  174MOL0     H24012   8.070   8.486   8.696  0.2417  1.4346 -0.3820
  175MOL0     O24013   7.604  11.487   8.040  0.6539  0.0680 -0.6005
  175MOL0     C24014   7.534  11.476   7.935 -0.5332 -0.5921 -1.1836
  175MOL0     O24015   7.520  11.566   7.837  0.0195  0.4815 -0.0237
  175MOL0     C24016   7.570  11.691   7.861 -1.1341 -0.0742 -0.0242
  175MOL0     C24017   7.483  11.779   7.918 -0.4642  0.3067 -0.3715
  175MOL0     C24018   7.518  11.910   7.951  0.5657  0.1998  1.3795
  175MOL0     C24019   7.651  11.944   7.934  0.2574 -0.2489  0.6308
  175MOL0     O24020   7.683  12.071   7.976 -0.4645 -0.0353 -0.2527
  175MOL0     C24021   7.814  12.083   8.045  1.0506 -0.0676 -0.4379
  175MOL0     C24022   7.810  12.224   8.109 -0.1057  0.0805  0.0734
  175MOL0     C24023   7.867  12.324   8.009 -0.0054  0.5910  0.6250
  175MOL0     C24024   8.020  12.347   8.016 -0.2471 -0.2691  1.2150
  175MOL0     C24025   8.069  12.435   7.896  0.5441  0.3052  0.9281
  175MOL0     C24026   8.216  12.491   7.899  0.0476 -0.5814  0.6180
  175MOL0     C24027   8.257  12.536   7.762  0.8229 -0.2437  0.1348
  175MOL0     C24028   8.409  12.547   7.755  0.9573 -0.0022 -0.6199
  175MOL0     N24029   8.459  12.649   7.855 -0.2255  0.1493  0.2623
  175MOL0     C24030   8.576  12.645   7.924  0.2846 -0.9512  0.5293
  175MOL0     C24031   8.577  12.757   8.000  0.2594 -1.1325 -0.9689
  175MOL0     C24032   8.677  12.806   8.102 -0.9005  1.2301 -0.9596
  175MOL0     C24033   8.820  12.749   8.088  0.1453  0.9194 -0.5787
  175MOL0     C24034   8.918  12.809   8.186 -0.3139  0.3686 -0.0099
  175MOL0     C24035   9.060  12.766   8.160  0.8602 -0.3060 -0.2540
  175MOL0     O24036   9.145  12.816   8.266  0.0886  0.1748 -0.0836
  175MOL0     C24037   9.279  12.812   8.259 -0.0211  0.0604  0.3175
  175MOL0     C24038   9.352  12.839   8.373 -0.7529  0.7056  0.0531
  175MOL0     C24039   9.495  12.844   8.362 -0.4047 -0.2344  0.2537
  175MOL0     C24040   9.564  12.870   8.497  0.1898  0.3637 -0.7316
  175MOL0     C24041   9.568  12.821   8.243  0.9026  0.7869  0.6040
  175MOL0     C24042   9.707  12.794   8.238  0.3108 -0.0781  0.3577
  175MOL0     O24043   9.758  12.724   8.339  0.4023 -0.1064 -0.1239
  175MOL0     C24044   9.873  12.663   8.307  1.3125 -0.0223  0.5805
  175MOL0     C24045   9.877  12.570   8.198  0.1527 -0.6590 -0.1984
  175MOL0     C24046  10.005  12.516   8.164  0.2763  0.3755 -0.7249
  175MOL0     C24047  10.115  12.534   8.253  0.7469  0.9768 -0.4197
  175MOL0     O24048  10.234  12.471   8.248 -0.2619  0.2542 -0.7321
  175MOL0     C24049  10.267  12.381   8.129 -0.1628 -0.1497 -0.2681
  175MOL0     C24050  10.353  12.452   8.022  0.2860 -0.0242  0.9497
  175MOL0     C24051  10.316  12.592   7.974 -0.1142  1.0078 -0.0964
  175MOL0     C24052  10.415  12.676   7.891  0.6911  0.7548  0.0398
  175MOL0     C24053  10.337  12.803   7.852  0.2565  0.0798 -0.3381
  175MOL0     C24054  10.425  12.894   7.767  0.1864  0.7070 -0.9345
  175MOL0     C24055  10.342  13.021   7.751 -0.3732 -1.3459  0.0326
  175MOL0     C24056  10.411  13.152   7.794 -0.2663  0.8349 -0.8178
  175MOL0    Cl24057  10.352  13.293   7.710 -0.4749  0.2940 -0.7790
  175MOL0     C24058  10.098  12.626   8.359  0.9330  0.6968  0.5917
  175MOL0     C24059   9.983  12.699   8.372  0.3103 -0.4081  0.5072
  175MOL0     O24060   9.763  12.827   8.132  0.3510 -0.2379 -0.0654
  175MOL0     C24061   9.484  12.813   8.131 -0.5885 -0.8659 -0.6152
  175MOL0     C24062   9.345  12.808   8.138  0.6343 -0.0129  0.0993
  175MOL0     N24063   8.456  12.821   7.985 -0.7329 -0.3390  0.3278
  175MOL0     N24064   8.398  12.767   7.887 -0.0418  0.6942  0.1914
  175MOL0     C24065   7.750  11.853   7.888  0.5376  0.3677  0.6452
  175MOL0     C24066   7.704  11.728   7.850 -0.2874  0.0034 -0.0992
  175MOL0     C24067   7.488  11.342   7.896 -0.3935  0.4964 -1.2727
  175MOL0     C24068   7.393  11.283   7.987 -0.3808 -0.2115 -0.2296
  175MOL0     C24069   7.343  11.158   7.965  0.2495  0.1323  0.1464
  175MOL0     C24070   7.385  11.080   7.848 -0.7133  0.6502  0.1292
  175MOL0     O24071   7.338  10.947   7.828 -0.3719 -0.5460 -0.3174
  175MOL0     C24072   7.257  10.893   7.923 -0.0987  0.3119  0.4560
  175MOL0     C24073   7.248  10.751   7.872  0.5063  0.8565 -0.3915
  175MOL0     C24074   7.193  10.665   7.983  0.1001  0.5335 -0.6251
  175MOL0     C24075   7.047  10.700   8.014 -0.2663 -0.5826  0.3016
  175MOL0     C24076   6.990  10.618   8.126  0.9393 -0.1802 -0.8794
  175MOL0     C24077   6.932  10.565   8.214  0.0843  0.0199  0.2948
  175MOL0     C24078   7.466  11.140   7.753  0.1943 -0.3110  0.9535
  175MOL0     C24079   7.507  11.269   7.779  0.1961  0.5015  1.6219
  175MOL0     C24080   7.596  11.322   7.675 -0.3630  0.4676 -0.0413
  175MOL0     H24081   7.376  11.764   7.924 -0.6132 -0.2734 -3.1271
  175MOL0     H24082   7.444  11.974   7.998 -3.6172 -2.3781 -1.0828
  175MOL0     H24083   7.904  12.082   7.984  2.8541  0.6183  2.0699
  175MOL0     H24084   7.835  12.004   8.118  5.4025  2.0016  0.8380
  175MOL0     H24085   7.711  12.245   8.152  0.3477  1.0032  0.7133
  175MOL0     H24086   7.873  12.232   8.198 -2.0385  0.4508  1.4722
  175MOL0     H24087   7.830  12.324   7.907  1.4126 -2.6440 -0.0046
  175MOL0     H24088   7.821  12.415   8.050 -2.1202 -0.0336 -0.2811
  175MOL0     H24089   8.039  12.408   8.104 -0.0986  2.8890 -0.8633
  175MOL0     H24090   8.078  12.254   8.024 -0.0239 -0.5391 -1.9752
  175MOL0     H24091   8.000  12.519   7.882  0.9737  0.3721 -1.0834
  175MOL0     H24092   8.065  12.379   7.803 -4.2621  0.0012  1.0569
  175MOL0     H24093   8.229  12.576   7.965 -1.4479  0.8306 -0.7992
  175MOL0     H24094   8.273  12.402   7.928  1.6132 -0.3033 -1.4193
  175MOL0     H24095   8.201  12.630   7.756 -0.1927 -0.8044  0.6247
  175MOL0     H24096   8.219  12.467   7.686  0.3837 -1.7825  1.6716
  175MOL0     H24097   8.444  12.444   7.767  1.1974  0.2001  0.6044
  175MOL0     H24098   8.432  12.581   7.654 -1.8134 -0.9451 -1.6454
  175MOL0     H24099   8.639  12.557   7.927 -0.6179 -1.6156  3.2217
  175MOL0     H24100   8.639  12.779   8.201  2.4395  2.3687  0.7971
  175MOL0     H24101   8.696  12.912   8.085  1.5379  1.0158 -0.0271
  175MOL0     H24102   8.813  12.642   8.106  0.1312  1.3544  2.5883
  175MOL0     H24103   8.853  12.762   7.984  3.4765 -1.7979 -0.0558
  175MOL0     H24104   8.923  12.917   8.171  1.5406  0.0939 -1.7661
  175MOL0     H24105   8.877  12.784   8.284 -2.0416 -0.2481 -0.8628
  175MOL0     H24106   9.055  12.657   8.166 -3.1852 -0.2239  4.3069
  175MOL0     H24107   9.085  12.803   8.061 -2.8983 -0.5960 -1.4795
  175MOL0     H24108   9.307  12.850   8.471  2.0533  0.3072  1.4816
  175MOL0     H24109   9.618  12.781   8.532  2.4452  1.2651 -1.7071
  175MOL0     H24110   9.490  12.893   8.575  0.5487 -1.8904  0.3741
  175MOL0     H24111   9.636  12.952   8.498  1.4566 -0.6532 -2.7062
  175MOL0     H24112   9.796  12.555   8.127  1.2582 -0.7410 -1.4803
  175MOL0     H24113  10.008  12.440   8.087  2.2025 -0.5742  0.1995
  175MOL0     H24114  10.326  12.295   8.163 -0.7359  0.3265  2.1409
  175MOL0     H24115  10.175  12.347   8.081 -2.1144  0.5248  2.7334
  175MOL0     H24116  10.453  12.453   8.066 -0.1216  1.0653  1.8821
  175MOL0     H24117  10.351  12.376   7.942  1.3821  0.4288  0.4753
  175MOL0     H24118  10.289  12.647   8.065 -0.1638  1.2887 -0.2787
  175MOL0     H24119  10.223  12.576   7.917  0.5822 -1.0347 -0.7422
  175MOL0     H24120  10.434  12.621   7.799 -1.5062  3.7074 -2.3736
  175MOL0     H24121  10.512  12.691   7.938  0.4567  2.2520  0.0792
  175MOL0     H24122  10.236  12.779   7.818 -0.9420  3.0843  0.7711
  175MOL0     H24123  10.324  12.850   7.950 -0.8376  0.4024 -0.6300
  175MOL0     H24124  10.425  12.822   7.685 -0.8528 -1.7460  1.0950
  175MOL0     H24125  10.523  12.912   7.813  0.0860  1.9096 -1.1508
  175MOL0     H24126  10.249  13.015   7.808  1.5491  0.8155  3.7461
  175MOL0     H24127  10.320  13.039   7.645  1.3010 -3.7389 -0.8095
  175MOL0     H24128  10.520  13.147   7.780 -0.4069 -1.0952 -1.4802
  175MOL0     H24129  10.406  13.148   7.903  2.2158 -0.8787 -0.6621
  175MOL0     H24130  10.176  12.639   8.434  0.3599 -0.7069  1.4812
  175MOL0     H24131   9.964  12.770   8.452 -2.5286 -2.3816  1.7779
  175MOL0     H24132   9.533  12.819   8.035  1.7641 -0.3115  0.5504
  175MOL0     H24133   9.288  12.807   8.046  2.9539 -0.4529 -1.3870
  175MOL0     H24134   7.854  11.885   7.887  1.3609 -2.0309  1.5280
  175MOL0     H24135   7.765  11.647   7.811 -0.3151 -0.4628  0.7980
  175MOL0     H24136   7.365  11.347   8.070 -1.8253  3.0095 -2.9614
  175MOL0     H24137   7.259  11.118   8.022  0.0128  0.4810  0.0401
  175MOL0     H24138   7.304  10.894   8.021  1.5992 -1.4873 -0.2797
  175MOL0     H24139   7.153  10.924   7.926 -0.3636 -0.0603 -2.3307
  175MOL0     H24140   7.345  10.713   7.839 -1.2787 -1.8246 -3.0845
  175MOL0     H24141   7.191  10.754   7.779 -0.7616 -1.8859  0.1931
  175MOL0     H24142   7.202  10.561   7.948 -0.5953  1.5765 -4.3807
  175MOL0     H24143   7.254  10.684   8.072  1.3038 -1.2493 -1.0170
  175MOL0     H24144   6.996  10.693   7.917 -0.4335  0.0455  0.3410
  175MOL0     H24145   7.029  10.802   8.049  0.6004 -0.4640  0.4093
  175MOL0     H24146   6.882  10.527   8.300  0.4095  1.6510  1.2571
  175MOL0     H24147   7.502  11.094   7.662  0.4140  2.8601 -0.6975
  175MOL0     H24148   7.607  11.431   7.677  0.7380  0.3964 -1.3186
  175MOL0     H24149   7.695  11.277   7.680 -1.6244 -2.5698 -0.2696
  175MOL0     H24150   7.550  11.302   7.578 -1.5456 -3.3197  1.0912
  176MOL0     O24151   1.341   8.460   0.536  0.5037  0.1084 -0.0427
  176MOL0     C24152   1.380   8.569   0.557 -0.5601  0.1103  0.2302
  176MOL0     O24153   1.375   8.655   0.452 -0.8775  1.0600  0.3461
  176MOL0     C24154   1.303   8.619   0.342 -0.3108  1.4195 -0.7196
  176MOL0     C24155   1.349   8.541   0.233 -1.3717  0.5126 -0.9123
  176MOL0     C24156   1.263   8.500   0.131 -0.1398 -1.3457  0.2312
  176MOL0     C24157   1.143   8.575   0.119 -0.6446 -0.8560  1.0930
  176MOL0     O24158   1.061   8.567   0.010  0.0422 -0.2096 -0.2819
  176MOL0     C24159   1.060   8.441  -0.055  0.3823  0.1899  0.4151
  176MOL0     C24160   0.965   8.462  -0.171 -0.2421 -0.6572 -0.1471
  176MOL0     C24161   0.928   8.330  -0.235  0.2938 -0.1030  0.2464
  176MOL0     C24162   0.818   8.337  -0.346  0.1263  0.1193 -0.2332
  176MOL0     C24163   0.834   8.443  -0.460  0.0119 -0.7018  0.3923
  176MOL0     C24164   0.956   8.414  -0.546 -0.2944 -0.8549  0.0144
  176MOL0     C24165   0.991   8.537  -0.641  0.2792  0.3788 -0.2427
  176MOL0     C24166   1.066   8.642  -0.571  0.0850 -0.8879  0.0818
  176MOL0     N24167   1.132   8.738  -0.663 -0.1091  0.1353  0.6167
  176MOL0     C24168   1.081   8.806  -0.770  0.6381  0.3980  0.3173
  176MOL0     C24169   1.187   8.850  -0.829 -0.6134  0.0797  0.5810
  176MOL0     C24170   1.178   8.930  -0.956  0.0295 -0.2805 -0.1467
  176MOL0     C24171   1.258   8.859  -1.066 -0.4140 -0.0477 -0.1248
  176MOL0     C24172   1.411   8.909  -1.071  0.5228  0.3500 -0.3536
  176MOL0     C24173   1.479   8.865  -1.197  0.2347 -0.5854  0.0750
  176MOL0     O24174   1.443   8.949  -1.302 -0.9777 -1.2547 -0.2448
  176MOL0     C24175   1.528   8.942  -1.409  0.5141  0.2775  0.4282
  176MOL0     C24176   1.591   8.827  -1.458 -0.0315  0.1324  0.0135
  176MOL0     C24177   1.645   8.818  -1.590  0.1577  0.3523 -0.1567
  176MOL0     C24178   1.730   8.696  -1.627  0.4408  0.3637 -0.0826
  176MOL0     C24179   1.613   8.925  -1.674  0.2503 -0.2028 -0.1397
  176MOL0     C24180   1.647   8.938  -1.815  0.5728 -0.5357  0.0462
  176MOL0     O24181   1.630   9.058  -1.861 -0.9980  0.2716  0.8973
  176MOL0     C24182   1.706   9.101  -1.970  0.3846 -0.1478  0.9391
  176MOL0     C24183   1.642   9.192  -2.053 -0.9587  0.1955 -0.1872
  176MOL0     C24184   1.708   9.254  -2.155 -0.7281  0.5071 -0.2193
  176MOL0     C24185   1.831   9.208  -2.191 -0.2162  0.5452  0.2579
  176MOL0     O24186   1.895   9.245  -2.308 -0.5786  0.5450  0.0775
  176MOL0     C24187   1.820   9.213  -2.430  0.3183  0.0928 -0.5041
  176MOL0     C24188   1.922   9.152  -2.528  0.3585 -0.2335 -0.2163
  176MOL0     C24189   2.056   9.226  -2.541 -0.7789 -0.2798 -0.1972
  176MOL0     C24190   2.142   9.168  -2.663  0.0055  0.9843 -0.1732
  176MOL0     C24191   2.275   9.252  -2.679  0.7256  0.6624 -0.3109
  176MOL0     C24192   2.258   9.394  -2.718  1.0110  0.4741 -1.1474
  176MOL0     C24193   2.393   9.457  -2.743  0.0993  0.2320 -0.5457
  176MOL0     C24194   2.383   9.605  -2.786  0.4149 -0.4787 -0.2202
  176MOL0    Cl24195   2.299   9.690  -2.658  0.0110 -0.2093 -0.0647
  176MOL0     C24196   1.904   9.104  -2.117 -1.1486 -0.0982 -0.4549
  176MOL0     C24197   1.844   9.053  -2.002  0.6370 -0.8234  0.1691
  176MOL0     O24198   1.697   8.836  -1.866  0.3498  0.1835 -0.1386
  176MOL0     C24199   1.535   9.028  -1.625  1.2803 -0.5249 -0.4619
  176MOL0     C24200   1.498   9.044  -1.498  0.3216  0.5927 -0.2178
  176MOL0     N24201   1.304   8.807  -0.762  1.0261  0.3279  1.1585
  176MOL0     N24202   1.271   8.747  -0.655  0.5190 -1.0699 -0.1405
  176MOL0     C24203   1.109   8.666   0.222  0.0007  0.7995  0.5792
  176MOL0     C24204   1.183   8.677   0.333 -0.2334 -0.2742 -0.5850
  176MOL0     C24205   1.433   8.606   0.690  0.4463  0.2381 -0.5107
  176MOL0     C24206   1.502   8.730   0.699 -0.1297 -0.3811  0.6968
  176MOL0     C24207   1.563   8.773   0.820 -0.6006 -0.5609  1.1083
  176MOL0     C24208   1.571   8.691   0.933  1.0626 -0.7782 -0.0121
  176MOL0     O24209   1.619   8.725   1.054  0.0983  0.4198  0.4362
  176MOL0     C24210   1.708   8.840   1.056 -0.4600  0.6459 -0.3524
  176MOL0     C24211   1.763   8.870   1.194 -0.0992  0.7174 -0.3365
  176MOL0     C24212   1.856   8.763   1.239  0.4422  0.6917 -0.2377
  176MOL0     C24213   1.990   8.756   1.173  0.4672 -0.8826 -0.6629
  176MOL0     C24214   2.074   8.867   1.193  0.7213 -0.3034  1.1619
  176MOL0     C24215   2.144   8.968   1.205  0.2405 -0.6962  0.2950
  176MOL0     C24216   1.504   8.566   0.918  0.0843 -0.7148 -0.3601
  176MOL0     C24217   1.432   8.521   0.802  0.2236 -0.7140 -0.1200
  176MOL0     C24218   1.341   8.394   0.816 -0.9779  0.4017  0.1698
  176MOL0     H24219   1.434   8.474   0.239 -4.9379 -4.5204  0.3009
  176MOL0     H24220   1.288   8.422   0.060  0.8333 -1.5280  0.7507
  176MOL0     H24221   1.029   8.368   0.021  0.0884  3.1085  3.3032
  176MOL0     H24222   1.160   8.430  -0.099  0.8633  2.6621  0.7834
  176MOL0     H24223   0.869   8.503  -0.138  1.1790  0.1819  3.3767
  176MOL0     H24224   1.016   8.528  -0.243  1.6286 -0.2480  1.4671
  176MOL0     H24225   1.018   8.301  -0.290 -2.0023 -1.0214 -3.4040
  176MOL0     H24226   0.902   8.254  -0.161  1.4426 -1.0834 -0.3243
  176MOL0     H24227   0.807   8.242  -0.400  1.2704  0.6007 -1.3465
  176MOL0     H24228   0.728   8.357  -0.287  0.4458  1.2527 -0.1276
  176MOL0     H24229   0.824   8.544  -0.420  1.1562 -0.9511  1.3572
  176MOL0     H24230   0.749   8.439  -0.529  1.1274 -1.9353 -0.9851
  176MOL0     H24231   1.047   8.391  -0.491 -1.6026 -1.9708  1.8023
  176MOL0     H24232   0.923   8.327  -0.603 -2.4610 -1.0012  1.3888
  176MOL0     H24233   0.903   8.576  -0.695 -1.3198  0.0223  1.9447
  176MOL0     H24234   1.060   8.497  -0.715  0.3752  2.2903 -1.2454
  176MOL0     H24235   0.991   8.705  -0.522 -0.0385  1.6134 -2.9894
  176MOL0     H24236   1.133   8.607  -0.492  0.8680  0.7608  0.1823
  176MOL0     H24237   0.974   8.809  -0.792  0.3591 -1.0619  1.2898
  176MOL0     H24238   1.210   9.034  -0.944 -3.4493  1.1305 -1.8219
  176MOL0     H24239   1.074   8.926  -0.989  0.3907 -2.7269 -1.2310
  176MOL0     H24240   1.261   8.752  -1.043  1.2541  0.3773  2.0446
  176MOL0     H24241   1.219   8.875  -1.167  0.7735 -2.3470 -1.0452
  176MOL0     H24242   1.402   9.018  -1.060  0.7153  0.3099  0.2413
  176MOL0     H24243   1.469   8.880  -0.983  3.7722  1.0894 -2.1350
  176MOL0     H24244   1.588   8.874  -1.194  0.3576 -0.2742 -2.9479
  176MOL0     H24245   1.462   8.761  -1.224 -0.7427 -0.3870 -0.0994
  176MOL0     H24246   1.601   8.748  -1.384 -1.7584  1.3537  1.6371
  176MOL0     H24247   1.836   8.720  -1.618  0.6555 -0.1002 -1.2701
  176MOL0     H24248   1.713   8.641  -1.720  2.1294 -1.0423  0.3722
  176MOL0     H24249   1.707   8.621  -1.550  1.9647  0.7115  0.7525
  176MOL0     H24250   1.536   9.207  -2.033 -0.5904 -0.0141  2.3806
  176MOL0     H24251   1.642   9.316  -2.215  0.3348  1.7572 -0.1393
  176MOL0     H24252   1.741   9.145  -2.397 -2.2067 -0.1583 -5.9945
  176MOL0     H24253   1.769   9.299  -2.474 -2.1156 -1.0175 -0.0003
  176MOL0     H24254   1.946   9.048  -2.505  1.3936  0.0887  0.2019
  176MOL0     H24255   1.871   9.159  -2.625  0.3892  0.6190 -0.1802
  176MOL0     H24256   2.126   9.213  -2.458  2.5112  0.4262 -2.6402
  176MOL0     H24257   2.036   9.333  -2.554  1.5354  0.0359 -1.7761
  176MOL0     H24258   2.082   9.171  -2.755 -0.2365 -0.3265 -0.0771
  176MOL0     H24259   2.160   9.061  -2.648 -0.4496  0.8902 -0.2621
  176MOL0     H24260   2.328   9.253  -2.583 -0.2960  2.2210  0.2885
  176MOL0     H24261   2.334   9.212  -2.761 -2.6728  0.5346 -2.9322
  176MOL0     H24262   2.214   9.458  -2.641 -2.3857  0.3659 -2.7855
  176MOL0     H24263   2.196   9.413  -2.807 -3.6472  2.2979  2.0386
  176MOL0     H24264   2.444   9.393  -2.816 -1.1005 -1.3065 -0.0961
  176MOL0     H24265   2.436   9.448  -2.643 -2.6263 -0.3001  0.6912
  176MOL0     H24266   2.325   9.622  -2.877  1.3563  3.5661 -0.2658
  176MOL0     H24267   2.482   9.648  -2.801  0.1185  0.9813  1.5808
  176MOL0     H24268   1.996   9.062  -2.156 -1.0979  0.6037 -1.1114
  176MOL0     H24269   1.907   8.991  -1.939 -0.3537  0.4631  2.5819
  176MOL0     H24270   1.505   9.121  -1.672  2.5702  1.2238  1.9915
  176MOL0     H24271   1.446   9.135  -1.468 -2.1604 -1.7552  3.4623
  176MOL0     H24272   1.014   8.714   0.203 -1.1499 -1.5503  0.0785
  176MOL0     H24273   1.142   8.741   0.411  0.8445 -2.7263  2.1659
  176MOL0     H24274   1.492   8.784   0.605 -2.5544  2.4761  2.3968
  176MOL0     H24275   1.608   8.871   0.812  0.9564 -1.3324 -0.5605
  176MOL0     H24276   1.795   8.818   0.994 -1.1796 -1.3489 -0.7348
  176MOL0     H24277   1.660   8.932   1.022 -1.9532 -0.3530 -1.0627
  176MOL0     H24278   1.689   8.877   1.274 -1.9606  0.8183 -1.9854
  176MOL0     H24279   1.823   8.962   1.195  2.5291 -0.8632 -2.2380
  176MOL0     H24280   1.868   8.788   1.344  1.9995  0.9928 -0.4715
  176MOL0     H24281   1.813   8.663   1.226 -3.1050  1.9835  0.4710
  176MOL0     H24282   1.982   8.740   1.065 -0.9582  2.3422 -1.1191
  176MOL0     H24283   2.045   8.672   1.217 -0.9814  0.1380  3.4723
  176MOL0     H24284   2.199   9.059   1.212  2.7227 -2.2028  2.4510
  176MOL0     H24285   1.518   8.498   1.001  0.1593 -1.2030 -0.7641
  176MOL0     H24286   1.241   8.410   0.776  0.4313  4.2386 -2.3822
  176MOL0     H24287   1.392   8.318   0.757 -0.1080  1.6128 -0.6939
  176MOL0     H24288   1.329   8.350   0.916 -2.5751 -0.2723 -0.2956
  177MOL0     O24289   7.498   3.622   3.390  0.5168  0.4718 -0.9957
  177MOL0     C24290   7.592   3.562   3.450 -0.6583 -0.4531  0.8577
  177MOL0     O24291   7.710   3.624   3.500  0.4517  0.7729 -0.2085
  177MOL0     C24292   7.722   3.765   3.479  0.4018 -0.2539 -0.1221
  177MOL0     C24293   7.643   3.866   3.537 -0.4478  0.7347  0.0783
  177MOL0     C24294   7.636   3.992   3.486 -0.5613  0.3368  0.6796
  177MOL0     C24295   7.734   4.026   3.387  0.1519 -0.7646  0.9708
  177MOL0     O24296   7.763   4.150   3.330 -0.0204 -0.5077  0.0030
  177MOL0     C24297   7.655   4.234   3.298  0.1098 -0.4740 -1.0131
  177MOL0     C24298   7.575   4.164   3.182  0.7944 -0.8133 -0.2727
  177MOL0     C24299   7.657   4.170   3.054 -0.1540 -0.1083  0.4581
  177MOL0     C24300   7.665   4.303   2.988 -1.0636 -0.8051 -0.1816
  177MOL0     C24301   7.725   4.300   2.844 -0.3098  0.2390 -0.1672
  177MOL0     C24302   7.640   4.224   2.748 -0.4244  0.7165  0.0714
  177MOL0     C24303   7.680   4.249   2.596  0.3377  0.9205  0.3127
  177MOL0     C24304   7.828   4.248   2.568  0.5696  0.0756  0.1451
  177MOL0     N24305   7.859   4.264   2.423  0.4841 -0.5277  0.7030
  177MOL0     C24306   7.879   4.185   2.324  0.1289  0.5013  0.4642
  177MOL0     C24307   7.895   4.262   2.208  0.9998  0.2862  0.3686
  177MOL0     C24308   7.908   4.209   2.073 -1.3735  0.1888  0.1691
  177MOL0     C24309   7.788   4.143   2.009 -0.2640  0.3079  1.1744
  177MOL0     C24310   7.783   3.994   2.040  0.8615  0.4486  0.2312
  177MOL0     C24311   7.701   3.920   1.933 -0.1934 -0.2288 -0.1374
  177MOL0     O24312   7.673   3.792   1.985  0.0228 -0.0207  0.3015
  177MOL0     C24313   7.759   3.686   1.949  0.2136  0.5955  1.1846
  177MOL0     C24314   7.808   3.659   1.819  0.2192  0.0334  0.0296
  177MOL0     C24315   7.872   3.539   1.779 -0.5901 -0.9348 -0.1532
  177MOL0     C24316   7.916   3.522   1.629  0.7340 -0.9793 -0.3458
  177MOL0     C24317   7.926   3.458   1.882  0.3557 -0.5357  0.8243
  177MOL0     C24318   8.031   3.365   1.848 -1.0999  0.0713  1.0216
  177MOL0     O24319   8.035   3.239   1.908 -0.7800  0.2759  0.7559
  177MOL0     C24320   8.143   3.161   1.865 -0.2206 -0.1497  0.0620
  177MOL0     C24321   8.119   3.035   1.803  0.8905  0.0515 -1.0075
  177MOL0     C24322   8.219   2.943   1.785 -0.3343 -0.5265 -0.7154
  177MOL0     C24323   8.353   2.966   1.822 -0.1783 -0.1289 -1.2053
  177MOL0     O24324   8.463   2.885   1.815 -0.7839 -0.2665 -0.4080
  177MOL0     C24325   8.430   2.764   1.750  0.4472 -0.4309  1.3536
  177MOL0     C24326   8.552   2.694   1.710 -0.8410 -0.3142  0.2215
  177MOL0     C24327   8.623   2.625   1.830 -0.4421  0.0967  0.3353
  177MOL0     C24328   8.755   2.556   1.791  0.8809 -0.2526  0.9662
  177MOL0     C24329   8.823   2.487   1.905  0.4474  0.4842  0.2235
  177MOL0     C24330   8.895   2.573   2.011 -0.7361  0.4475 -0.7040
  177MOL0     C24331   8.964   2.490   2.126 -0.1679  1.1550  0.0312
  177MOL0     C24332   8.851   2.452   2.224  0.8048  0.8018 -0.2076
  177MOL0    Cl24333   8.749   2.579   2.329  0.0135 -0.4906  0.4298
  177MOL0     C24334   8.376   3.090   1.895 -0.7728 -0.5203  0.6903
  177MOL0     C24335   8.270   3.188   1.927  0.7170 -0.2642 -0.8331
  177MOL0     O24336   8.128   3.413   1.783 -0.8918  0.4468  0.7455
  177MOL0     C24337   7.885   3.481   2.010  0.8593  0.4247  0.0734
  177MOL0     C24338   7.795   3.588   2.041  0.1303 -0.2351  0.2675
  177MOL0     N24339   7.890   4.395   2.249  1.6148  0.6537  0.4304
  177MOL0     N24340   7.864   4.393   2.372  0.2636  1.4503 -1.3440
  177MOL0     C24341   7.816   3.929   3.328  1.3866 -0.4920 -1.4589
  177MOL0     C24342   7.809   3.804   3.383  0.4610 -0.8284  0.1251
  177MOL0     C24343   7.572   3.419   3.486 -0.2913  0.0493  0.4973
  177MOL0     C24344   7.548   3.324   3.386 -0.7068  0.0407  0.0459
  177MOL0     C24345   7.506   3.192   3.411 -0.0270  0.1888 -0.1573
  177MOL0     C24346   7.483   3.148   3.546  0.0129  0.1567 -0.3215
  177MOL0     O24347   7.441   3.014   3.566  0.4109  0.3413  0.5806
  177MOL0     C24348   7.386   2.978   3.691 -0.2165 -0.2299  0.0850
  177MOL0     C24349   7.248   3.032   3.711  0.1280 -0.1897 -0.1772
  177MOL0     C24350   7.143   2.945   3.653 -0.2129  0.4774  0.3934
  177MOL0     C24351   7.083   2.821   3.729 -0.6770  0.0198 -0.7175
  177MOL0     C24352   7.153   2.689   3.702  0.6032  0.8197 -1.1044
  177MOL0     C24353   7.197   2.575   3.690  0.3216 -0.2920 -0.0875
  177MOL0     C24354   7.507   3.255   3.638  0.0187  0.6513  0.8464
  177MOL0     C24355   7.560   3.379   3.615 -0.8078  0.9736 -0.1967
  177MOL0     C24356   7.598   3.462   3.738  0.5979  0.1062  1.7848
  177MOL0     H24357   7.571   3.827   3.608 -1.1845  2.5510  0.4019
  177MOL0     H24358   7.579   4.068   3.537 -1.7102 -0.2198  0.2610
  177MOL0     H24359   7.704   4.326   3.264  2.1370 -1.4555 -0.9366
  177MOL0     H24360   7.593   4.260   3.384  1.1841 -0.2126 -0.2903
  177MOL0     H24361   7.544   4.066   3.219  2.7083 -0.9221  1.1451
  177MOL0     H24362   7.479   4.214   3.169 -0.5801 -3.3035 -0.4337
  177MOL0     H24363   7.759   4.136   3.071 -0.4054 -2.0502 -1.3909
  177MOL0     H24364   7.610   4.094   2.991  1.7244 -0.7681 -0.1976
  177MOL0     H24365   7.570   4.357   2.987  0.0633  1.3028  0.0857
  177MOL0     H24366   7.732   4.357   3.056 -0.6786 -1.1119 -0.3159
  177MOL0     H24367   7.827   4.261   2.840 -0.5740 -0.6701  1.2134
  177MOL0     H24368   7.732   4.406   2.821 -2.1400  1.0020  2.3757
  177MOL0     H24369   7.651   4.117   2.768 -1.6030  0.1642 -1.8898
  177MOL0     H24370   7.534   4.252   2.758 -0.7850 -0.3008 -0.6333
  177MOL0     H24371   7.645   4.349   2.569  0.2562  0.8750  0.2511
  177MOL0     H24372   7.623   4.173   2.541  1.3327  0.9126 -0.7425
  177MOL0     H24373   7.874   4.325   2.630 -3.9173  2.5363  0.8498
  177MOL0     H24374   7.865   4.149   2.596 -0.7065 -0.3876  0.2586
  177MOL0     H24375   7.882   4.077   2.333 -1.4148  0.3930 -0.0177
  177MOL0     H24376   7.986   4.134   2.087  0.9354  2.7389  2.2293
  177MOL0     H24377   7.941   4.290   2.008  1.4707 -3.3154 -3.1818
  177MOL0     H24378   7.693   4.192   2.032  0.4359  2.3296  0.1045
  177MOL0     H24379   7.801   4.154   1.901 -0.1570 -3.2907  0.7116
  177MOL0     H24380   7.884   3.953   2.055  0.3090 -0.8104  0.6783
  177MOL0     H24381   7.721   3.988   2.130  0.8565 -2.5356  0.1443
  177MOL0     H24382   7.606   3.974   1.927  0.3396  0.8023  0.4472
  177MOL0     H24383   7.749   3.921   1.835 -0.6057 -1.1010 -0.3622
  177MOL0     H24384   7.745   3.721   1.756 -2.4413 -0.6248  1.8514
  177MOL0     H24385   8.011   3.566   1.597  0.0317  1.2491  0.4442
  177MOL0     H24386   7.838   3.575   1.574 -0.7885  0.2294  2.7391
  177MOL0     H24387   7.915   3.414   1.611 -0.2393 -0.8276 -1.2542
  177MOL0     H24388   8.023   3.016   1.758 -0.2758  1.9857  0.4939
  177MOL0     H24389   8.205   2.857   1.721 -0.5254  0.4662 -2.0514
  177MOL0     H24390   8.371   2.696   1.812  0.1503 -0.3307  1.1829
  177MOL0     H24391   8.375   2.792   1.660  0.4391  1.9719  2.0270
  177MOL0     H24392   8.524   2.612   1.644 -1.8942 -1.4262  1.9725
  177MOL0     H24393   8.618   2.761   1.654  0.7514 -2.0067 -0.0394
  177MOL0     H24394   8.555   2.559   1.884 -1.3813  0.4849 -0.3485
  177MOL0     H24395   8.657   2.703   1.899  2.1557  1.0213 -1.7899
  177MOL0     H24396   8.814   2.636   1.745 -0.3583 -1.3138 -2.8734
  177MOL0     H24397   8.739   2.484   1.710 -2.5255  1.4520 -0.0508
  177MOL0     H24398   8.746   2.435   1.962  0.0981  0.2457 -0.4562
  177MOL0     H24399   8.883   2.405   1.866 -2.3809 -0.0901 -3.5390
  177MOL0     H24400   8.847   2.662   2.053 -3.9590 -0.2835 -2.4600
  177MOL0     H24401   8.981   2.617   1.960  2.4561 -1.1036  2.8623
  177MOL0     H24402   9.034   2.555   2.178 -0.3374  1.1803  0.2272
  177MOL0     H24403   9.018   2.406   2.080 -2.0999 -0.8514  1.2233
  177MOL0     H24404   8.906   2.396   2.300 -2.7861  1.0219  2.8050
  177MOL0     H24405   8.777   2.393   2.170  0.7908  0.8578 -0.2495
  177MOL0     H24406   8.473   3.114   1.936 -1.8792  0.4659  2.9666
  177MOL0     H24407   8.294   3.278   1.984  0.0422  0.3850 -1.5519
  177MOL0     H24408   7.920   3.412   2.087 -2.3241 -1.9398 -0.3807
  177MOL0     H24409   7.747   3.594   2.139  2.1555 -0.4852  1.3368
  177MOL0     H24410   7.866   3.962   3.238 -0.1234  1.1509 -1.7633
  177MOL0     H24411   7.842   3.731   3.309  1.7223 -0.3843  0.2252
  177MOL0     H24412   7.559   3.349   3.281 -0.3763 -1.5888 -0.3242
  177MOL0     H24413   7.492   3.111   3.340 -3.8466 -2.6735  3.3011
  177MOL0     H24414   7.391   2.869   3.701  1.6061 -0.1394  0.4940
  177MOL0     H24415   7.445   3.011   3.777 -0.1435 -1.3292  0.4734
  177MOL0     H24416   7.250   3.123   3.651  3.2181 -2.0990 -3.3778
  177MOL0     H24417   7.227   3.053   3.816  0.2030 -0.4517 -0.1090
  177MOL0     H24418   7.047   2.997   3.640 -0.5013  0.1042  0.9827
  177MOL0     H24419   7.162   2.907   3.552 -2.8428 -0.4432  0.1650
  177MOL0     H24420   6.975   2.816   3.712 -0.7246  0.1055 -0.4494
  177MOL0     H24421   7.100   2.859   3.830 -1.0479  0.6868 -0.9003
  177MOL0     H24422   7.241   2.480   3.664  0.3087 -0.4143  0.3353
  177MOL0     H24423   7.501   3.227   3.743 -0.6538  0.9496  0.8901
  177MOL0     H24424   7.706   3.470   3.754  0.9452  0.7568 -0.5615
  177MOL0     H24425   7.556   3.562   3.731  1.1478  0.2343 -2.3529
  177MOL0     H24426   7.553   3.423   3.830  0.3137 -0.5859  1.3649
  178MOL0     O24427  10.197   6.207   3.206 -0.4131  0.1417  0.3915
  178MOL0     C24428  10.092   6.150   3.206  0.4834  0.3524  0.4328
  178MOL0     O24429  10.067   6.028   3.255 -0.9139  0.8534  0.4857
  178MOL0     C24430  10.141   5.961   3.346 -0.0353  0.3858 -0.0400
  178MOL0     C24431  10.260   6.012   3.412  0.1834 -0.9712 -0.2677
  178MOL0     C24432  10.331   5.926   3.495  0.4097  0.4195  0.2769
  178MOL0     C24433  10.288   5.796   3.527 -0.8380 -0.7947  0.8860
  178MOL0     O24434  10.366   5.723   3.611  0.0486 -0.2957 -0.9240
  178MOL0     C24435  10.326   5.580   3.630 -0.5403 -1.0810 -0.4661
  178MOL0     C24436  10.457   5.516   3.671 -0.2917  0.0688  0.4750
  178MOL0     C24437  10.443   5.366   3.708  0.8955 -0.3938  1.0347
  178MOL0     C24438  10.544   5.320   3.802 -0.9928 -0.0510 -0.2743
  178MOL0     C24439  10.572   5.169   3.814  0.6530 -0.7184 -0.4890
  178MOL0     C24440  10.589   5.143   3.957  0.5732  0.0649 -1.1674
  178MOL0     C24441  10.723   5.162   4.020 -0.1584  0.5133 -0.3450
  178MOL0     C24442  10.755   5.046   4.123 -0.1199 -1.0085 -0.3730
  178MOL0     N24443  10.856   5.089   4.225  0.0788 -1.0904 -0.1756
  178MOL0     C24444  10.989   5.056   4.240 -0.7094  0.0857  0.5045
  178MOL0     C24445  11.047   5.137   4.334 -0.1095 -0.0176  0.1636
  178MOL0     C24446  11.179   5.156   4.373  0.1893 -0.3007 -0.3731
  178MOL0     C24447  11.264   5.026   4.395 -1.0744  0.1783  0.7603
  178MOL0     C24448  11.303   4.946   4.266  1.4067 -0.2166 -0.2302
  178MOL0     C24449  11.237   4.803   4.243 -0.2069  0.2533  0.0116
  178MOL0     O24450  11.119   4.792   4.329  0.4044 -0.8898  0.2822
  178MOL0     C24451  11.041   4.682   4.320 -0.1781  0.7085 -0.1375
  178MOL0     C24452  10.904   4.701   4.311 -0.0938  0.2085 -1.0260
  178MOL0     C24453  10.805   4.603   4.285 -0.5156 -0.7409 -1.0820
  178MOL0     C24454  10.664   4.648   4.269  0.0065  0.4008  0.7706
  178MOL0     C24455  10.858   4.472   4.251 -0.8997 -0.5602 -0.7820
  178MOL0     C24456  10.777   4.365   4.199 -0.4460  0.2994  0.1790
  178MOL0     O24457  10.660   4.326   4.272  0.1464  0.4513  0.7065
  178MOL0     C24458  10.596   4.205   4.241  0.8390 -0.5091  0.3101
  178MOL0     C24459  10.460   4.200   4.276 -0.4470  0.0464  0.2957
  178MOL0     C24460  10.384   4.084   4.271  0.0010  0.2121 -0.6476
  178MOL0     C24461  10.435   3.963   4.227 -0.8268 -0.1523 -0.1231
  178MOL0     O24462  10.363   3.852   4.222  0.3021  0.4211 -0.1481
  178MOL0     C24463  10.285   3.814   4.333  0.5730  0.8683 -0.2914
  178MOL0     C24464  10.196   3.692   4.313  0.1506  0.4474  0.2404
  178MOL0     C24465  10.076   3.710   4.219  0.8908 -0.2197 -0.9866
  178MOL0     C24466   9.955   3.765   4.294 -0.0559  0.4682  0.0759
  178MOL0     C24467   9.828   3.773   4.205  0.5181 -0.5365 -0.4537
  178MOL0     C24468   9.769   3.642   4.164 -0.6970 -0.6258  0.8820
  178MOL0     C24469   9.695   3.589   4.282  0.0433  0.2030  0.8036
  178MOL0     C24470   9.622   3.465   4.249 -0.6185 -1.0144 -0.3486
  178MOL0    Cl24471   9.519   3.412   4.400 -0.0713 -0.0595 -0.1108
  178MOL0     C24472  10.562   3.968   4.180 -0.0776  0.4141 -1.1068
  178MOL0     C24473  10.641   4.091   4.183 -0.4275 -0.7148 -0.2537
  178MOL0     O24474  10.827   4.311   4.100  0.0599  0.8358 -0.2489
  178MOL0     C24475  11.000   4.449   4.258  0.3302 -0.5820 -0.5321
  178MOL0     C24476  11.087   4.555   4.296  0.1553  0.1711  0.9400
  178MOL0     N24477  10.952   5.228   4.371 -0.1291  0.5967  0.3606
  178MOL0     N24478  10.845   5.202   4.305 -0.2778 -0.3551  0.4783
  178MOL0     C24479  10.169   5.745   3.471  0.9551  0.3480  0.0824
  178MOL0     C24480  10.103   5.827   3.372  0.9543  0.2010  0.1522
  178MOL0     C24481   9.983   6.191   3.113 -0.5695 -0.1978 -0.4229
  178MOL0     C24482   9.883   6.091   3.074 -0.6587 -0.6432 -0.2016
  178MOL0     C24483   9.795   6.121   2.976  0.5852 -0.0942 -0.4429
  178MOL0     C24484   9.796   6.244   2.902  0.1178 -0.0755 -0.1708
  178MOL0     O24485   9.693   6.265   2.810  0.0297 -0.7283 -0.9143
  178MOL0     C24486   9.726   6.350   2.695  0.8798 -0.6235  0.3190
  178MOL0     C24487   9.680   6.274   2.567  0.2665  0.1879  0.6913
  178MOL0     C24488   9.775   6.147   2.539  0.6407 -1.0481  0.0758
  178MOL0     C24489   9.740   6.062   2.412 -0.1202  0.9089 -0.2716
  178MOL0     C24490   9.729   6.131   2.286  0.3044 -0.1179 -0.2367
  178MOL0     C24491   9.720   6.179   2.170 -0.3269  0.1333 -0.0644
  178MOL0     C24492   9.898   6.332   2.936  0.3850 -0.0141 -0.0729
  178MOL0     C24493   9.990   6.310   3.036  0.0621 -0.1344  0.4687
  178MOL0     C24494  10.101   6.408   3.047 -0.7120 -0.6401  0.7803
  178MOL0     H24495  10.304   6.109   3.391  0.5944 -1.0554  0.1794
  178MOL0     H24496  10.429   5.958   3.531  1.0167 -1.4332  0.3712
  178MOL0     H24497  10.279   5.525   3.548  3.2749 -1.1838 -2.8529
  178MOL0     H24498  10.258   5.592   3.715  0.7376  0.9528  0.3540
  178MOL0     H24499  10.501   5.520   3.571  0.2631  1.7583  0.7639
  178MOL0     H24500  10.515   5.577   3.740  0.8838 -0.8392  0.3224
  178MOL0     H24501  10.348   5.355   3.761  0.3570  0.2024  0.2178
  178MOL0     H24502  10.426   5.311   3.615 -2.5208 -2.3563  2.5761
  178MOL0     H24503  10.637   5.375   3.780 -1.3108  0.2953 -0.7740
  178MOL0     H24504  10.526   5.368   3.899 -2.9722  1.3833 -1.2829
  178MOL0     H24505  10.662   5.149   3.754 -0.7682 -2.6319 -2.1005
  178MOL0     H24506  10.497   5.100   3.775 -0.2278 -0.2172  0.2877
  178MOL0     H24507  10.502   5.184   4.008  0.8036  1.5805 -1.9258
  178MOL0     H24508  10.569   5.035   3.960  1.0944 -0.0137  0.7936
  178MOL0     H24509  10.717   5.255   4.078  1.5237 -0.6487  1.8532
  178MOL0     H24510  10.802   5.177   3.946  2.4970 -0.6841  2.0366
  178MOL0     H24511  10.665   5.034   4.185  1.1499  1.3487  2.1462
  178MOL0     H24512  10.776   4.957   4.063 -1.6120 -2.4909  1.1668
  178MOL0     H24513  11.051   4.997   4.173 -1.8918 -2.6281  1.6752
  178MOL0     H24514  11.182   5.206   4.470  3.3100  1.5656 -1.3158
  178MOL0     H24515  11.229   5.224   4.304 -1.5260  1.5005  0.0823
  178MOL0     H24516  11.358   5.052   4.444 -1.2003  3.3739 -0.4695
  178MOL0     H24517  11.210   4.952   4.456  1.6041 -2.3452  0.2670
  178MOL0     H24518  11.280   5.016   4.185  0.9855  0.8930  0.8081
  178MOL0     H24519  11.412   4.942   4.268  1.4151 -0.3145  2.2104
  178MOL0     H24520  11.203   4.794   4.140 -0.9595 -2.5729  0.4341
  178MOL0     H24521  11.303   4.721   4.271 -0.9297 -0.4808 -0.3719
  178MOL0     H24522  10.865   4.803   4.314 -3.3326 -0.9048 -1.3385
  178MOL0     H24523  10.661   4.756   4.287  0.7325  0.8662 -1.5172
  178MOL0     H24524  10.588   4.592   4.324 -1.5601  1.1725 -0.5013
  178MOL0     H24525  10.630   4.627   4.167  2.8483 -3.9400  0.4447
  178MOL0     H24526  10.427   4.295   4.318  1.3041  0.0615  1.7446
  178MOL0     H24527  10.280   4.091   4.299  0.2120  2.9318 -0.3189
  178MOL0     H24528  10.364   3.800   4.407 -0.6686  0.8520  1.0747
  178MOL0     H24529  10.231   3.904   4.364  0.5843  1.3618 -1.6268
  178MOL0     H24530  10.254   3.607   4.276 -1.4565 -1.4839  1.9438
  178MOL0     H24531  10.168   3.668   4.416 -2.4759 -0.0380 -0.5201
  178MOL0     H24532  10.049   3.610   4.184  1.2000 -0.4947 -0.4449
  178MOL0     H24533  10.095   3.778   4.135 -1.0578 -0.0409 -1.3431
  178MOL0     H24534   9.965   3.863   4.341 -1.2131 -0.7233  2.9968
  178MOL0     H24535   9.941   3.698   4.379  2.5057  0.0314  0.2553
  178MOL0     H24536   9.755   3.846   4.242  0.0658 -0.9939 -0.4178
  178MOL0     H24537   9.854   3.818   4.109  2.3943 -1.4479 -0.4177
  178MOL0     H24538   9.842   3.568   4.134 -0.6404  0.7082 -2.6572
  178MOL0     H24539   9.696   3.667   4.086  1.2357 -1.2422 -1.2152
  178MOL0     H24540   9.616   3.659   4.312 -1.1441 -0.4826 -0.5927
  178MOL0     H24541   9.759   3.573   4.369  2.0888 -0.9214 -0.8331
  178MOL0     H24542   9.697   3.388   4.232  1.7854  1.1242 -0.1522
  178MOL0     H24543   9.558   3.473   4.161 -1.9273  3.8054  0.6967
  178MOL0     H24544  10.616   3.883   4.142 -1.2864 -1.1242  0.4479
  178MOL0     H24545  10.746   4.092   4.158 -0.1634  0.7607  0.7971
  178MOL0     H24546  11.025   4.344   4.248 -1.4339 -1.3095  1.7739
  178MOL0     H24547  11.192   4.530   4.293  0.8162  2.7384  0.1299
  178MOL0     H24548  10.119   5.655   3.506 -2.3471  2.2876  0.8279
  178MOL0     H24549  10.007   5.802   3.327  0.2552  1.7244  0.7102
  178MOL0     H24550   9.883   5.996   3.127 -2.0518  0.6963  2.4325
  178MOL0     H24551   9.717   6.052   2.946  1.5319 -0.9802 -0.9030
  178MOL0     H24552   9.664   6.440   2.701 -0.4806 -1.6216  3.8175
  178MOL0     H24553   9.831   6.373   2.673  1.0697 -3.4911 -2.5625
  178MOL0     H24554   9.686   6.350   2.489 -2.9484 -1.5606 -1.4731
  178MOL0     H24555   9.576   6.248   2.585  1.0538 -1.2188  3.8634
  178MOL0     H24556   9.881   6.170   2.524 -0.4676  4.3008 -1.9607
  178MOL0     H24557   9.769   6.077   2.622 -1.6573  0.5357  1.3582
  178MOL0     H24558   9.649   6.006   2.436  0.6834  0.3491  1.7177
  178MOL0     H24559   9.802   5.972   2.405 -2.0737 -0.5131 -0.1189
  178MOL0     H24560   9.716   6.221   2.072 -2.9859 -1.4430 -0.7433
  178MOL0     H24561   9.896   6.434   2.899  1.5041 -0.8666 -2.7273
  178MOL0     H24562  10.117   6.461   3.142 -0.5141  1.2394 -0.2527
  178MOL0     H24563  10.194   6.359   3.016  0.3389  0.0863  2.6173
  178MOL0     H24564  10.079   6.485   2.973  0.5157 -0.9216  0.0972
  179MOL0     O24565   9.147   9.184   8.695 -0.5567 -1.1948 -0.6688
  179MOL0     C24566   9.215   9.242   8.777  0.8832  0.2767 -0.4096
  179MOL0     O24567   9.194   9.362   8.836 -0.5709 -0.4813 -0.7479
  179MOL0     C24568   9.100   9.456   8.800 -0.3269  0.2331 -0.8666
  179MOL0     C24569   8.987   9.431   8.723 -0.4685  0.3085 -0.4384
  179MOL0     C24570   8.889   9.520   8.705  0.3554 -0.1888 -0.1079
  179MOL0     C24571   8.902   9.652   8.767  0.1559  0.6316  0.9206
  179MOL0     O24572   8.805   9.746   8.767  0.1259 -0.1884 -0.0767
  179MOL0     C24573   8.740   9.790   8.648 -0.2274  0.1829 -0.6092
  179MOL0     C24574   8.607   9.865   8.667 -0.6359 -0.1528 -0.5971
  179MOL0     C24575   8.555   9.912   8.520  0.7708 -0.2903 -0.1991
  179MOL0     C24576   8.418   9.984   8.545 -0.2595  0.2781 -0.1383
  179MOL0     C24577   8.358  10.034   8.418  0.0055 -0.0807  0.8208
  179MOL0     C24578   8.220  10.102   8.438 -0.6257 -0.3763  0.0241
  179MOL0     C24579   8.104  10.011   8.467 -0.7883  0.4272 -0.0950
  179MOL0     C24580   8.088   9.923   8.339  1.2307  0.4213  0.5343
  179MOL0     N24581   7.958   9.866   8.344  0.5894  0.4707 -0.4655
  179MOL0     C24582   7.907   9.755   8.408 -0.0098 -0.0648 -0.8767
  179MOL0     C24583   7.776   9.749   8.368 -0.5955 -0.4121 -0.5353
  179MOL0     C24584   7.660   9.651   8.402  0.3180 -0.0274  0.2484
  179MOL0     C24585   7.528   9.730   8.430  0.4310  0.0209 -0.6186
  179MOL0     C24586   7.419   9.719   8.324 -0.1062  0.3057 -0.4853
  179MOL0     C24587   7.349   9.860   8.317  0.2133 -0.1015  0.1853
  179MOL0     O24588   7.271   9.893   8.433 -0.3302  0.8853 -0.5379
  179MOL0     C24589   7.268  10.013   8.495 -0.4517 -0.1893 -0.6590
  179MOL0     C24590   7.370  10.108   8.515 -0.2269  0.6086 -0.9784
  179MOL0     C24591   7.350  10.247   8.552  0.3171 -1.2756 -0.2770
  179MOL0     C24592   7.468  10.333   8.582 -0.8018 -0.5065 -0.0402
  179MOL0     C24593   7.215  10.296   8.567 -0.2821  0.6219  0.2219
  179MOL0     C24594   7.167  10.433   8.611 -0.7088 -0.7864  0.9762
  179MOL0     O24595   7.033  10.451   8.620 -0.1499  0.0999  0.1437
  179MOL0     C24596   6.988  10.575   8.671 -0.2156  1.1200 -0.5389
  179MOL0     C24597   6.900  10.646   8.592 -0.3809  0.0763  0.1842
  179MOL0     C24598   6.837  10.762   8.630 -0.2078  0.0915  0.3386
  179MOL0     C24599   6.854  10.805   8.761  0.5129  0.0363  0.1005
  179MOL0     O24600   6.772  10.914   8.802  0.0357  0.5261 -0.4486
  179MOL0     C24601   6.733  11.012   8.707 -0.3482  0.1510 -0.4162
  179MOL0     C24602   6.591  10.997   8.663  0.5818  0.5890  0.0043
  179MOL0     C24603   6.506  11.013   8.784 -1.0354  0.9776  0.6893
  179MOL0     C24604   6.362  11.020   8.743 -0.3151 -0.1856  0.4093
  179MOL0     C24605   6.259  11.017   8.857  0.1612  0.0022 -0.3881
  179MOL0     C24606   6.249  11.131   8.947 -0.0771  0.2017 -0.8177
  179MOL0     C24607   6.199  11.267   8.878  0.2298 -0.8461 -0.0798
  179MOL0     C24608   6.183  11.384   8.972  0.6324 -0.2115  0.1641
  179MOL0    Cl24609   6.077  11.352   9.118  0.1375  0.1342 -0.6476
  179MOL0     C24610   6.938  10.738   8.849  0.0382 -0.9881  0.0505
  179MOL0     C24611   6.998  10.618   8.811  0.2023  0.6000  0.4003
  179MOL0     O24612   7.251  10.518   8.626  0.0884 -0.4124  0.4638
  179MOL0     C24613   7.114  10.198   8.540 -0.5609 -0.3172  0.3815
  179MOL0     C24614   7.142  10.063   8.508 -0.3055 -0.7186 -0.2570
  179MOL0     N24615   7.751   9.867   8.296 -0.7050  0.0358  0.6447
  179MOL0     N24616   7.867   9.932   8.279  0.2833 -0.4246  0.3775
  179MOL0     C24617   9.017   9.681   8.844  1.1907  0.0886 -0.6748
  179MOL0     C24618   9.112   9.578   8.863  0.0136 -0.0887 -0.0787
  179MOL0     C24619   9.337   9.173   8.820 -0.5756 -0.1040  0.6888
  179MOL0     C24620   9.370   9.185   8.954 -0.9627 -1.4195  0.0286
  179MOL0     C24621   9.481   9.126   9.013 -0.6982  0.1943  0.4028
  179MOL0     C24622   9.556   9.035   8.937 -1.1814 -0.0511  0.2049
  179MOL0     O24623   9.669   8.976   8.997 -0.2436 -0.4550 -0.3637
  179MOL0     C24624   9.758   8.900   8.918  0.2425 -1.1715  0.3476
  179MOL0     C24625   9.869   8.851   8.996 -0.0408  0.8821  0.3282
  179MOL0     C24626   9.951   8.971   9.044 -0.3456  1.0267 -0.8179
  179MOL0     C24627  10.085   8.939   9.113  0.3708 -0.7486  0.8789
  179MOL0     C24628  10.064   8.871   9.239  0.2688  0.8604 -0.4864
  179MOL0     C24629  10.032   8.815   9.349  0.6307  0.4196  1.3415
  179MOL0     C24630   9.519   9.007   8.807 -0.1439  0.0792 -0.1288
  179MOL0     C24631   9.412   9.079   8.743 -0.5769  0.4434  0.2551
  179MOL0     C24632   9.394   9.063   8.592  1.1101 -0.2497  0.0409
  179MOL0     H24633   8.975   9.333   8.678  1.5922 -0.8355  1.3137
  179MOL0     H24634   8.811   9.507   8.631  1.1226  0.9644 -1.1469
  179MOL0     H24635   8.720   9.705   8.583  0.6737 -0.2591 -0.3203
  179MOL0     H24636   8.815   9.860   8.611 -0.9583  1.3336  0.0202
  179MOL0     H24637   8.533   9.812   8.728 -0.0655  2.9164  3.1786
  179MOL0     H24638   8.632   9.948   8.734  0.0848  0.5595 -1.7119
  179MOL0     H24639   8.638   9.971   8.480  0.5171 -0.5820 -1.1671
  179MOL0     H24640   8.536   9.818   8.468  0.3583 -0.7323  0.7271
  179MOL0     H24641   8.359   9.911   8.601 -2.1607  1.0543 -1.0201
  179MOL0     H24642   8.427  10.067   8.615  2.9508 -0.0444 -0.0346
  179MOL0     H24643   8.350   9.951   8.347  0.8984 -0.9918  1.7599
  179MOL0     H24644   8.434  10.098   8.373 -1.9527  1.2866 -0.6990
  179MOL0     H24645   8.231  10.184   8.509  1.4814 -0.7135  0.1400
  179MOL0     H24646   8.178  10.157   8.354 -1.5959 -0.1741  0.6311
  179MOL0     H24647   8.021  10.080   8.487  0.7803  2.6939 -1.0082
  179MOL0     H24648   8.122   9.947   8.553 -1.1321  1.3561  0.6863
  179MOL0     H24649   8.097   9.984   8.249  0.2914 -1.2886 -0.7713
  179MOL0     H24650   8.152   9.834   8.335 -3.5618 -3.5012  1.7454
  179MOL0     H24651   7.968   9.695   8.475 -0.4208  0.4194 -0.0520
  179MOL0     H24652   7.684   9.601   8.496  2.4009  5.1736  2.9134
  179MOL0     H24653   7.658   9.578   8.321  0.0300 -0.9140  1.0286
  179MOL0     H24654   7.480   9.687   8.518 -2.8744  1.8039 -1.4173
  179MOL0     H24655   7.552   9.835   8.445 -0.0910  0.1823 -0.9164
  179MOL0     H24656   7.469   9.696   8.230  6.4791  2.9494  1.8456
  179MOL0     H24657   7.345   9.640   8.343  0.3282 -0.6146 -2.3890
  179MOL0     H24658   7.429   9.931   8.294 -0.7760 -0.2309 -4.6235
  179MOL0     H24659   7.277   9.859   8.235  1.5453 -0.8163 -1.0128
  179MOL0     H24660   7.469  10.063   8.513  0.7648  2.6818 -2.7108
  179MOL0     H24661   7.447  10.429   8.534  1.9963  0.0580 -0.2923
  179MOL0     H24662   7.568  10.303   8.550  0.6826  1.8797  1.9905
  179MOL0     H24663   7.478  10.356   8.689  2.0035  2.6133 -0.8186
  179MOL0     H24664   6.893  10.619   8.487  2.5281  1.7075 -0.5437
  179MOL0     H24665   6.767  10.807   8.560 -0.1693  1.3339  1.0747
  179MOL0     H24666   6.738  11.112   8.752 -2.2255  0.2080 -0.2952
  179MOL0     H24667   6.807  11.007   8.627  0.0968 -0.8476  0.0374
  179MOL0     H24668   6.565  11.069   8.585 -0.5606 -0.1193 -0.3089
  179MOL0     H24669   6.576  10.894   8.627  1.3708  0.3116  0.4603
  179MOL0     H24670   6.538  11.100   8.840  0.9708  1.1860 -0.6776
  179MOL0     H24671   6.525  10.927   8.850 -2.3215 -0.5439 -0.8193
  179MOL0     H24672   6.340  10.936   8.676  2.3323 -0.4186 -0.2846
  179MOL0     H24673   6.361  11.108   8.678  1.1967 -0.1486  0.3963
  179MOL0     H24674   6.157  10.994   8.825 -0.0827  1.8777 -1.0944
  179MOL0     H24675   6.293  10.938   8.923 -4.0335 -1.8605 -0.1210
  179MOL0     H24676   6.347  11.161   8.986 -0.5445  1.3926 -0.5166
  179MOL0     H24677   6.171  11.114   9.022 -2.8791 -1.2155 -3.8122
  179MOL0     H24678   6.100  11.256   8.832  0.0657  2.0752 -0.6393
  179MOL0     H24679   6.261  11.284   8.790 -0.6281 -0.8584 -0.7062
  179MOL0     H24680   6.142  11.466   8.912  1.5741 -0.6857 -1.1663
  179MOL0     H24681   6.283  11.413   9.006  0.4499 -0.5624  1.0297
  179MOL0     H24682   6.967  10.782   8.943 -2.0280 -1.4938  0.9726
  179MOL0     H24683   7.054  10.558   8.882 -0.3742 -0.6093 -0.1250
  179MOL0     H24684   7.008  10.224   8.545 -1.1716 -2.8289  3.0325
  179MOL0     H24685   7.066   9.991   8.478  1.9953 -2.9246 -1.0821
  179MOL0     H24686   9.019   9.778   8.893  0.8972  0.2711 -1.0214
  179MOL0     H24687   9.188   9.610   8.933  2.4228  0.5782 -2.8150
  179MOL0     H24688   9.320   9.246   9.029 -0.6834 -0.4752 -0.5358
  179MOL0     H24689   9.513   9.147   9.115 -0.1903  4.5264 -0.4518
  179MOL0     H24690   9.710   8.813   8.873  0.9131 -2.1026  1.3540
  179MOL0     H24691   9.790   8.964   8.836  0.7153  1.3118  2.3458
  179MOL0     H24692   9.931   8.792   8.928 -0.7735  0.1049  0.3119
  179MOL0     H24693   9.832   8.788   9.078 -0.2661 -0.6450 -0.9071
  179MOL0     H24694   9.968   9.042   8.963  2.1562 -0.5628 -1.8275
  179MOL0     H24695   9.894   9.024   9.121  0.4069 -0.9737  1.2182
  179MOL0     H24696  10.139   9.033   9.131  1.2980 -0.6667 -1.8450
  179MOL0     H24697  10.147   8.881   9.044 -1.0213 -2.4257  0.9509
  179MOL0     H24698  10.019   8.762   9.441  1.9945 -1.2014  0.6530
  179MOL0     H24699   9.572   8.935   8.744 -1.7207 -1.0134 -0.2629
  179MOL0     H24700   9.297   9.024   8.561  1.1754 -1.2571  1.0063
  179MOL0     H24701   9.425   9.157   8.547 -0.0506 -0.4075 -1.1324
  179MOL0     H24702   9.472   8.997   8.551  0.4944 -0.1551 -1.3107
  180MOL0     O24703   1.472  11.186   1.907 -0.1827  0.2168  0.1444
  180MOL0     C24704   1.471  11.303   1.882  0.1024  0.1773 -0.4779
  180MOL0     O24705   1.560  11.367   1.808  0.3482 -0.1556  0.0358
  180MOL0     C24706   1.691  11.329   1.798  0.0559 -0.1999 -0.9662
  180MOL0     C24707   1.736  11.211   1.744 -0.2805  0.9022  0.6590
  180MOL0     C24708   1.871  11.173   1.731 -0.3039  0.9300 -0.6872
  180MOL0     C24709   1.976  11.270   1.777  0.0906 -0.5892 -0.7667
  180MOL0     O24710   2.107  11.236   1.760 -0.2523 -0.6356  0.5622
  180MOL0     C24711   2.211  11.319   1.813  0.4258  0.6170  0.3345
  180MOL0     C24712   2.330  11.238   1.772 -0.3222  0.4683  0.4932
  180MOL0     C24713   2.445  11.322   1.819  0.2749 -0.2105  0.4952
  180MOL0     C24714   2.577  11.255   1.776  0.4455 -0.3294 -0.6033
  180MOL0     C24715   2.703  11.318   1.822  0.6381 -0.3282  0.4549
  180MOL0     C24716   2.723  11.315   1.977  0.2681 -0.1395  0.5219
  180MOL0     C24717   2.857  11.382   2.020 -0.2091 -0.1044 -0.5209
  180MOL0     C24718   2.973  11.282   2.038  0.4107 -0.5481  0.3067
  180MOL0     N24719   2.956  11.194   2.150 -0.5834 -0.6358  0.0448
  180MOL0     C24720   2.952  11.239   2.281 -0.1573 -0.5120 -0.2162
  180MOL0     C24721   2.939  11.129   2.356 -0.1745 -0.2354 -1.0148
  180MOL0     C24722   2.933  11.144   2.510 -0.0322 -0.3023 -0.3027
  180MOL0     C24723   2.869  11.011   2.569 -0.2240 -0.2215 -1.0806
  180MOL0     C24724   2.816  11.026   2.716  0.6610 -0.4690  0.2562
  180MOL0     C24725   2.924  11.045   2.822  0.3815  0.0331  1.1833
  180MOL0     O24726   2.905  11.158   2.910  0.4955  0.5972 -0.4121
  180MOL0     C24727   2.801  11.153   3.007  0.1306 -0.4288  0.3054
  180MOL0     C24728   2.769  11.274   3.081  0.1720 -0.5908 -0.5298
  180MOL0     C24729   2.683  11.269   3.189 -0.2628 -0.0216  0.1196
  180MOL0     C24730   2.680  11.395   3.275  0.0562  0.8317  0.0236
  180MOL0     C24731   2.617  11.145   3.230  0.0467 -0.2119 -0.6939
  180MOL0     C24732   2.534  11.129   3.348 -0.2818 -0.1958 -1.0570
  180MOL0     O24733   2.500  10.999   3.382 -0.0755  0.0870 -0.1368
  180MOL0     C24734   2.420  10.989   3.494  0.4483  0.3696  0.4934
  180MOL0     C24735   2.464  11.036   3.619  0.7017 -0.0888 -0.0944
  180MOL0     C24736   2.375  11.033   3.732 -0.0233  0.2350 -0.1972
  180MOL0     C24737   2.246  10.974   3.726 -0.3446 -0.4913  0.3682
  180MOL0     O24738   2.157  10.961   3.828  0.0017  0.3552  0.1334
  180MOL0     C24739   2.177  10.993   3.964  0.1541 -0.2155  0.5312
  180MOL0     C24740   2.285  10.888   4.021 -0.3920  0.0960  0.3748
  180MOL0     C24741   2.227  10.738   4.027  0.5596  0.1433 -0.1907
  180MOL0     C24742   2.312  10.650   4.116 -0.0106  0.1987 -0.4462
  180MOL0     C24743   2.266  10.505   4.110  0.4357  0.2697  0.1054
  180MOL0     C24744   2.349  10.429   4.205 -1.4265  0.5484 -0.2127
  180MOL0     C24745   2.298  10.287   4.215  0.5034 -0.1027 -0.8510
  180MOL0     C24746   2.384  10.203   4.318  0.0654  0.1740 -0.6653
  180MOL0    Cl24747   2.531  10.160   4.246  0.4548 -0.6767  0.5232
  180MOL0     C24748   2.203  10.929   3.592 -0.1114 -0.6841  0.3394
  180MOL0     C24749   2.294  10.946   3.484  0.9473  0.2836  0.8663
  180MOL0     O24750   2.494  11.234   3.411 -0.6868  0.1934 -0.4531
  180MOL0     C24751   2.642  11.039   3.146 -0.0887 -0.0407 -0.4745
  180MOL0     C24752   2.730  11.044   3.042  0.2257 -0.2587  0.1163
  180MOL0     N24753   2.941  11.015   2.273 -0.2810 -0.2281  0.0965
  180MOL0     N24754   2.960  11.057   2.149  0.0955  0.3431 -0.6026
  180MOL0     C24755   1.925  11.395   1.838 -0.0522  0.3565 -0.4977
  180MOL0     C24756   1.789  11.419   1.843 -0.0159  0.8927  0.6449
  180MOL0     C24757   1.377  11.382   1.970  0.5007 -0.2839  0.2690
  180MOL0     C24758   1.429  11.499   2.038  0.1035  1.3721  0.5183
  180MOL0     C24759   1.349  11.574   2.124 -0.4042 -0.2950  0.1375
  180MOL0     C24760   1.214  11.534   2.144 -0.7392 -1.3849 -0.2834
  180MOL0     O24761   1.149  11.605   2.241  0.1984 -0.6901  0.5772
  180MOL0     C24762   1.023  11.564   2.285  0.1936  0.2204  0.8615
  180MOL0     C24763   1.010  11.579   2.433 -0.7993 -0.0654 -0.8651
  180MOL0     C24764   1.005  11.728   2.473  0.6668 -0.6443 -0.1724
  180MOL0     C24765   0.878  11.775   2.543 -0.7865  0.0354  0.0118
  180MOL0     C24766   0.850  11.699   2.663  0.3443 -1.4244  0.1477
  180MOL0     C24767   0.813  11.625   2.756  0.2237 -0.4240 -0.7502
  180MOL0     C24768   1.169  11.414   2.079 -0.1557  0.1930 -0.2325
  180MOL0     C24769   1.250  11.343   1.996  0.5803  0.8713  1.0147
  180MOL0     C24770   1.180  11.219   1.932  0.1468  0.3435  0.3650
  180MOL0     H24771   1.670  11.131   1.711  2.0006 -0.4462 -0.9931
  180MOL0     H24772   1.898  11.069   1.717 -4.1687 -1.2242  4.4334
  180MOL0     H24773   2.198  11.321   1.922  1.4295 -0.3174  0.4924
  180MOL0     H24774   2.221  11.422   1.777 -0.6134  0.6729  0.1613
  180MOL0     H24775   2.333  11.139   1.819 -2.6203 -1.4501 -2.9491
  180MOL0     H24776   2.327  11.231   1.662  2.2875  0.9917  0.3191
  180MOL0     H24777   2.438  11.425   1.780 -0.9660 -1.1195 -1.9090
  180MOL0     H24778   2.434  11.332   1.927 -0.6643  3.7046  0.2021
  180MOL0     H24779   2.582  11.160   1.829  0.6649  1.6917  3.3338
  180MOL0     H24780   2.590  11.258   1.667 -2.0143  3.6663 -1.0045
  180MOL0     H24781   2.707  11.418   1.777 -0.5346 -1.0382 -1.2764
  180MOL0     H24782   2.786  11.256   1.787  2.0743  2.1428 -0.8390
  180MOL0     H24783   2.630  11.354   2.020 -0.7722  2.4411 -3.5509
  180MOL0     H24784   2.732  11.209   2.003  0.2883  0.4610  3.3525
  180MOL0     H24785   2.838  11.428   2.117 -3.0214  0.5216 -1.2483
  180MOL0     H24786   2.882  11.466   1.955  0.5246  1.5821  1.8139
  180MOL0     H24787   2.962  11.235   1.940 -0.5971 -0.3404  0.3124
  180MOL0     H24788   3.074  11.323   2.041  0.6919 -1.2957  2.3471
  180MOL0     H24789   2.954  11.343   2.312 -0.9672 -0.1454 -1.3130
  180MOL0     H24790   2.874  11.227   2.549 -0.8417 -1.7075  1.6890
  180MOL0     H24791   3.039  11.151   2.537 -0.5835 -0.2489  2.1252
  180MOL0     H24792   2.777  10.992   2.513 -0.3342 -1.1247 -0.6125
  180MOL0     H24793   2.936  10.926   2.555  0.0520  0.1715 -2.1829
  180MOL0     H24794   2.743  11.105   2.733 -0.1929 -0.6481 -2.1983
  180MOL0     H24795   2.768  10.929   2.734  4.1129 -2.1463  1.3763
  180MOL0     H24796   2.931  10.948   2.871 -0.4313 -1.1169 -0.8691
  180MOL0     H24797   3.018  11.060   2.767 -1.0355 -1.5948 -1.9521
  180MOL0     H24798   2.821  11.362   3.045 -1.0443  0.0549 -0.7920
  180MOL0     H24799   2.574  11.422   3.285  0.1543  1.5877 -0.8810
  180MOL0     H24800   2.739  11.477   3.234  1.3015 -0.6448 -1.2792
  180MOL0     H24801   2.736  11.370   3.366  2.8192 -2.5875 -2.3207
  180MOL0     H24802   2.562  11.081   3.624  0.2610  0.8808 -0.0530
  180MOL0     H24803   2.422  11.072   3.822 -0.0870  1.1127 -0.5422
  180MOL0     H24804   2.197  11.098   3.987  0.2102 -0.3916  1.3245
  180MOL0     H24805   2.078  10.984   4.011 -1.1454 -0.7636 -2.1062
  180MOL0     H24806   2.372  10.898   3.955 -0.6011  1.9281  0.3356
  180MOL0     H24807   2.323  10.918   4.119 -1.5578  0.5683  0.6999
  180MOL0     H24808   2.235  10.706   3.923  0.1663 -1.8006  0.3483
  180MOL0     H24809   2.125  10.735   4.067 -0.7554 -1.2323 -3.3577
  180MOL0     H24810   2.303  10.694   4.216  0.2419  0.6590 -0.6216
  180MOL0     H24811   2.414  10.659   4.076 -0.0092  1.1658 -0.2466
  180MOL0     H24812   2.165  10.499   4.149  0.7790  1.0248  1.1623
  180MOL0     H24813   2.282  10.460   4.011  3.0969 -1.1866  1.0864
  180MOL0     H24814   2.348  10.482   4.301  2.0457  0.6932 -0.1362
  180MOL0     H24815   2.446  10.418   4.157 -1.6907  1.2882 -0.9524
  180MOL0     H24816   2.314  10.243   4.116  1.8527 -0.0794 -0.6579
  180MOL0     H24817   2.193  10.285   4.243  0.7463 -2.3418  0.1033
  180MOL0     H24818   2.330  10.114   4.353 -0.1641  1.0026  1.1692
  180MOL0     H24819   2.402  10.264   4.406 -1.8859  1.8112 -1.3041
  180MOL0     H24820   2.102  10.893   3.575 -1.5965  2.7057  1.2817
  180MOL0     H24821   2.266  10.930   3.380  0.7957  0.9867  0.7983
  180MOL0     H24822   2.589  10.946   3.166  3.1540 -1.6799  1.4365
  180MOL0     H24823   2.761  10.961   2.978  0.8251  0.5758 -0.7071
  180MOL0     H24824   1.991  11.464   1.890 -2.2835  0.9918  1.6820
  180MOL0     H24825   1.748  11.507   1.890 -0.2200  1.4424 -0.5204
  180MOL0     H24826   1.526  11.543   2.016 -0.5190  1.0030 -3.6507
  180MOL0     H24827   1.374  11.664   2.179  1.2502 -1.1964  0.9279
  180MOL0     H24828   0.960  11.636   2.232  0.5726 -2.7302 -4.2388
  180MOL0     H24829   0.997  11.462   2.253  3.3626 -0.1203 -1.0559
  180MOL0     H24830   1.090  11.519   2.477 -1.3800 -1.9806 -2.3201
  180MOL0     H24831   0.925  11.525   2.475 -0.4874  0.3235  0.3308
  180MOL0     H24832   1.091  11.742   2.539  1.9935 -4.7548 -0.7370
  180MOL0     H24833   1.009  11.801   2.392  0.9911 -0.1608  0.2690
  180MOL0     H24834   0.795  11.768   2.472 -1.2332 -1.4858  0.6450
  180MOL0     H24835   0.893  11.881   2.569 -0.4676 -0.0527  0.1891
  180MOL0     H24836   0.804  11.557   2.838 -0.8562  1.5063  0.8268
  180MOL0     H24837   1.065  11.384   2.074 -0.0101 -0.6014  0.9211
  180MOL0     H24838   1.218  11.192   1.833  0.1232  1.4282  0.0352
  180MOL0     H24839   1.196  11.133   1.997  2.8492 -0.2744 -0.9799
  180MOL0     H24840   1.072  11.226   1.913  0.4476  0.2133 -1.6700
  181MOL0     O24841   6.758   4.738   7.581 -0.0258  0.2760  0.3966
  181MOL0     C24842   6.716   4.854   7.579  0.4655  0.4661 -0.2850
  181MOL0     O24843   6.709   4.938   7.468  0.1616  0.4174  0.4055
  181MOL0     C24844   6.761   4.901   7.350 -0.1282  1.1495 -0.3584
  181MOL0     C24845   6.744   4.775   7.296 -0.7406  0.0926 -0.5014
  181MOL0     C24846   6.812   4.736   7.185 -0.1866  0.4712  0.0070
  181MOL0     C24847   6.905   4.819   7.124  0.9593  0.3483 -0.1569
  181MOL0     O24848   6.973   4.782   7.014 -0.9175 -0.1976 -0.4118
  181MOL0     C24849   7.109   4.766   7.030  0.2082 -0.5184 -1.4999
  181MOL0     C24850   7.162   4.652   6.951  0.6899  0.1999 -1.3407
  181MOL0     C24851   7.132   4.673   6.805  0.1551 -1.0873 -0.4235
  181MOL0     C24852   7.226   4.596   6.703 -0.1677  0.4184  0.0237
  181MOL0     C24853   7.329   4.688   6.627  0.6714  0.2996 -0.6361
  181MOL0     C24854   7.398   4.624   6.503  0.0422  0.0194 -0.4955
  181MOL0     C24855   7.481   4.491   6.520 -0.5011 -0.5148 -0.4432
  181MOL0     C24856   7.608   4.524   6.606 -0.2161  0.2146  0.1021
  181MOL0     N24857   7.723   4.600   6.551 -0.1495 -0.7344 -0.1885
  181MOL0     C24858   7.772   4.569   6.426  0.7269  0.3766  0.4943
  181MOL0     C24859   7.843   4.678   6.402  0.0797 -0.1881  0.6440
  181MOL0     C24860   7.920   4.690   6.267  0.4431 -0.7569 -0.5304
  181MOL0     C24861   8.073   4.694   6.276 -0.1970  0.7324 -0.6845
  181MOL0     C24862   8.141   4.813   6.350  0.8243  0.2716 -0.2169
  181MOL0     C24863   8.146   4.939   6.266  0.5413  0.0731  0.5439
  181MOL0     O24864   8.175   4.909   6.129 -0.1950 -1.1714 -0.2264
  181MOL0     C24865   8.216   5.017   6.061 -1.7868 -0.7381  0.1885
  181MOL0     C24866   8.322   4.982   5.973 -0.4161 -0.7360  0.5194
  181MOL0     C24867   8.371   5.081   5.886 -0.8898  0.1076  0.8191
  181MOL0     C24868   8.482   5.024   5.802 -0.0506 -0.5054  0.2906
  181MOL0     C24869   8.311   5.205   5.879  0.9367 -1.7232  0.3771
  181MOL0     C24870   8.353   5.323   5.788 -0.7793  0.8360 -0.9643
  181MOL0     O24871   8.318   5.450   5.828  0.5292  0.2483 -0.1567
  181MOL0     C24872   8.311   5.541   5.726  0.8100 -0.7411  0.2339
  181MOL0     C24873   8.362   5.665   5.750 -0.4239 -0.9737 -0.9931
  181MOL0     C24874   8.349   5.772   5.665 -0.3217  0.1940  0.3317
  181MOL0     C24875   8.288   5.756   5.539 -0.6547  0.7117 -0.7512
  181MOL0     O24876   8.278   5.840   5.436 -0.3343 -0.0602  0.2024
  181MOL0     C24877   8.359   5.959   5.436  0.0061  0.4139  0.1095
  181MOL0     C24878   8.497   5.947   5.392  0.6928  0.4116  0.6013
  181MOL0     C24879   8.526   5.861   5.268  0.8275  0.8945 -0.3800
  181MOL0     C24880   8.666   5.780   5.289  0.1280 -0.4911 -0.1194
  181MOL0     C24881   8.689   5.676   5.180 -0.4142  0.3296 -1.1800
  181MOL0     C24882   8.835   5.605   5.184 -0.3619 -0.8070  0.2417
  181MOL0     C24883   8.844   5.494   5.068 -0.3342  1.4590 -0.2921
  181MOL0     C24884   8.888   5.549   4.935 -0.3493  0.6423 -0.2176
  181MOL0    Cl24885   9.061   5.569   4.919  0.2080 -0.2427 -0.0243
  181MOL0     C24886   8.239   5.624   5.520  0.0243 -1.0644  0.6969
  181MOL0     C24887   8.247   5.517   5.603  0.2648  0.4709 -0.0486
  181MOL0     O24888   8.423   5.296   5.699 -0.2892 -0.2995  0.0906
  181MOL0     C24889   8.207   5.237   5.963  0.5320 -0.8209 -0.3627
  181MOL0     C24890   8.158   5.140   6.050  1.0958 -0.5371  0.7965
  181MOL0     N24891   7.840   4.764   6.508  0.8459 -0.2992  0.1908
  181MOL0     N24892   7.764   4.720   6.596  0.1722  0.1609  0.2193
  181MOL0     C24893   6.915   4.951   7.175 -0.5062  0.4324 -0.3735
  181MOL0     C24894   6.847   4.988   7.284  0.2744 -0.8092 -0.4933
  181MOL0     C24895   6.661   4.920   7.703  0.0664  0.3570 -0.0174
  181MOL0     C24896   6.595   5.050   7.687  0.4568 -0.4158 -0.6395
  181MOL0     C24897   6.526   5.115   7.799 -0.3665  0.8452  0.4537
  181MOL0     C24898   6.546   5.066   7.927  0.7623 -0.0412  1.0531
  181MOL0     O24899   6.488   5.144   8.026 -0.6094  0.4027 -0.7398
  181MOL0     C24900   6.488   5.093   8.164  0.1183  0.7975 -0.1658
  181MOL0     C24901   6.618   5.141   8.241 -0.5849  0.6427  1.3655
  181MOL0     C24902   6.643   5.290   8.230 -0.6030  0.1751  0.5207
  181MOL0     C24903   6.541   5.391   8.273  0.3008  0.5334  0.4159
  181MOL0     C24904   6.556   5.396   8.417 -0.0900  0.4103 -0.3083
  181MOL0     C24905   6.577   5.401   8.533  0.5755 -0.5529 -0.5069
  181MOL0     C24906   6.607   4.936   7.938 -1.2747  0.0685 -0.1336
  181MOL0     C24907   6.660   4.866   7.831 -0.5943  0.1818  0.1391
  181MOL0     C24908   6.731   4.736   7.868  0.6242  0.7776  0.3261
  181MOL0     H24909   6.671   4.704   7.332 -0.2799 -0.6599 -1.0082
  181MOL0     H24910   6.788   4.645   7.131 -4.1667  2.0673 -1.3487
  181MOL0     H24911   7.125   4.735   7.134  1.8809 -1.8535 -2.1185
  181MOL0     H24912   7.164   4.857   7.005 -0.1149  0.9125  2.2582
  181MOL0     H24913   7.269   4.657   6.975  0.4061  0.0019  0.0510
  181MOL0     H24914   7.121   4.559   6.992 -0.6334  2.2865  2.6089
  181MOL0     H24915   7.026   4.653   6.782 -1.4668  3.8022  1.5739
  181MOL0     H24916   7.137   4.781   6.788  1.3067 -0.2993  3.7705
  181MOL0     H24917   7.276   4.517   6.759 -0.5637  0.3181  0.2441
  181MOL0     H24918   7.159   4.551   6.629 -1.5108  0.2908  1.2669
  181MOL0     H24919   7.405   4.708   6.703  1.5433 -0.0019 -1.4060
  181MOL0     H24920   7.278   4.780   6.600 -0.3995 -0.7038 -2.2313
  181MOL0     H24921   7.316   4.606   6.433 -0.4173  2.8857 -0.8314
  181MOL0     H24922   7.463   4.705   6.466 -1.5077  1.5053 -0.1068
  181MOL0     H24923   7.524   4.455   6.426  1.5367  0.9193 -0.1501
  181MOL0     H24924   7.410   4.425   6.570  0.5893 -0.7592  0.8593
  181MOL0     H24925   7.580   4.573   6.700 -1.5343  2.0469 -1.1724
  181MOL0     H24926   7.654   4.426   6.623 -2.1536 -0.4420  1.9069
  181MOL0     H24927   7.775   4.474   6.374  1.8371 -0.1754  1.5310
  181MOL0     H24928   7.895   4.784   6.217 -0.6348 -1.0379 -0.5330
  181MOL0     H24929   7.894   4.610   6.197  1.4060 -1.1426 -0.4617
  181MOL0     H24930   8.100   4.603   6.330 -1.6605  1.9897  2.4305
  181MOL0     H24931   8.122   4.689   6.179  1.8953  3.0574  0.1235
  181MOL0     H24932   8.090   4.826   6.445  1.2608  0.8673 -0.0561
  181MOL0     H24933   8.244   4.792   6.380  0.6935 -1.0897 -0.6353
  181MOL0     H24934   8.051   4.993   6.276 -0.5478 -1.5814 -0.5066
  181MOL0     H24935   8.218   5.011   6.306  1.3134 -0.3264 -0.1158
  181MOL0     H24936   8.361   4.883   5.995  0.5990 -0.0914  1.7609
  181MOL0     H24937   8.578   5.077   5.806  1.7716 -3.5213  0.0030
  181MOL0     H24938   8.450   5.004   5.699 -2.7429  1.0412  0.7417
  181MOL0     H24939   8.510   4.924   5.837  1.7543  0.0777  0.6567
  181MOL0     H24940   8.413   5.676   5.846 -0.3839  1.3428 -1.2191
  181MOL0     H24941   8.382   5.872   5.691  3.5870 -0.0240 -2.8389
  181MOL0     H24942   8.309   6.028   5.367  0.2524  1.0821  0.5800
  181MOL0     H24943   8.362   6.009   5.534  0.4336 -1.2808  0.9961
  181MOL0     H24944   8.530   6.049   5.374  1.6720 -0.0110 -0.1144
  181MOL0     H24945   8.565   5.922   5.473  1.7193  1.4217  0.0664
  181MOL0     H24946   8.537   5.926   5.181 -3.7636  0.9901 -1.1234
  181MOL0     H24947   8.440   5.795   5.252  1.1858 -0.5250  2.7720
  181MOL0     H24948   8.653   5.733   5.386 -1.0673  0.9765  0.4743
  181MOL0     H24949   8.754   5.843   5.299 -0.3659 -0.2121  5.0654
  181MOL0     H24950   8.608   5.602   5.175  0.5666 -0.7032 -2.9928
  181MOL0     H24951   8.674   5.719   5.081 -2.6604 -2.1850 -2.0508
  181MOL0     H24952   8.841   5.552   5.279  1.6386 -1.5677 -0.2540
  181MOL0     H24953   8.914   5.679   5.170  0.7221 -1.6578  1.6710
  181MOL0     H24954   8.749   5.438   5.064  1.7633 -2.3529 -2.0941
  181MOL0     H24955   8.916   5.421   5.108 -2.4468  1.5516  4.3748
  181MOL0     H24956   8.837   5.645   4.919 -1.1466 -0.1916 -3.4282
  181MOL0     H24957   8.849   5.474   4.865 -0.5461  1.7319 -1.3260
  181MOL0     H24958   8.172   5.614   5.435  3.3158 -2.5864 -1.9624
  181MOL0     H24959   8.210   5.421   5.568 -0.2647  0.1009  1.4482
  181MOL0     H24960   8.145   5.326   5.958 -1.1521 -1.6607  2.7380
  181MOL0     H24961   8.064   5.158   6.102  1.0370  3.1989 -0.3067
  181MOL0     H24962   6.979   5.023   7.125  2.6130 -1.0795  1.1386
  181MOL0     H24963   6.860   5.087   7.326  0.6014 -2.3766  3.5809
  181MOL0     H24964   6.579   5.094   7.589 -1.2419 -2.0990 -1.1824
  181MOL0     H24965   6.458   5.197   7.780 -0.2355  0.9866  0.5904
  181MOL0     H24966   6.398   5.122   8.219 -0.3802 -2.6676  1.1014
  181MOL0     H24967   6.477   4.984   8.160  0.0730  0.8348 -1.1888
  181MOL0     H24968   6.698   5.098   8.180 -2.3723  1.6937 -1.9753
  181MOL0     H24969   6.611   5.102   8.343 -1.8288 -1.2618  0.6027
  181MOL0     H24970   6.735   5.306   8.287 -1.5612 -0.1937  2.2242
  181MOL0     H24971   6.675   5.310   8.127 -0.4813 -1.3224  0.2341
  181MOL0     H24972   6.445   5.352   8.238  0.1876 -0.4198  1.7153
  181MOL0     H24973   6.556   5.493   8.237  1.9679  0.6330  1.3142
  181MOL0     H24974   6.586   5.412   8.640  0.7674  1.2755 -0.6784
  181MOL0     H24975   6.629   4.913   8.042  0.7095  1.3371 -0.2175
  181MOL0     H24976   6.672   4.657   7.820  0.2653  0.5354  1.1374
  181MOL0     H24977   6.831   4.732   7.825  0.2135  1.8818 -0.8008
  181MOL0     H24978   6.731   4.715   7.975  0.5428 -0.9772  0.0130
  182MOL0     O24979   5.775   4.201   9.154  0.3196  0.0744 -0.6230
  182MOL0     C24980   5.798   4.284   9.066  0.3500  0.3885  0.8348
  182MOL0     O24981   5.900   4.274   8.971 -0.5178 -0.4055  0.4847
  182MOL0     C24982   5.988   4.168   8.991 -0.8003  0.6424 -0.1245
  182MOL0     C24983   6.116   4.184   9.038  0.2293 -0.4866  0.0725
  182MOL0     C24984   6.200   4.068   9.050  1.4633 -0.1059  0.5417
  182MOL0     C24985   6.160   3.942   8.996  0.0804 -0.4418 -0.0280
  182MOL0     O24986   6.239   3.835   9.020 -0.8481  0.4940  0.4360
  182MOL0     C24987   6.376   3.849   8.967 -0.1727 -0.7311 -0.0525
  182MOL0     C24988   6.443   3.720   8.932  0.2324 -0.3532  0.6277
  182MOL0     C24989   6.463   3.618   9.053  0.4083 -1.4012 -0.6874
  182MOL0     C24990   6.523   3.487   9.003 -0.9991  0.3303 -0.2588
  182MOL0     C24991   6.539   3.398   9.124  0.6296 -0.1372 -0.0318
  182MOL0     C24992   6.617   3.266   9.086 -0.2774 -0.5237 -0.2147
  182MOL0     C24993   6.671   3.203   9.212  0.5504  0.1885 -0.1571
  182MOL0     C24994   6.787   3.280   9.276 -1.1746  0.0306  0.7094
  182MOL0     N24995   6.893   3.325   9.180 -0.2597  0.4691 -0.0790
  182MOL0     C24996   6.901   3.450   9.136 -0.2156  0.5252  0.8534
  182MOL0     C24997   6.982   3.446   9.023  0.4284 -0.5435  0.0034
  182MOL0     C24998   7.023   3.556   8.929  0.4263  0.3091 -0.6390
  182MOL0     C24999   7.004   3.694   8.975 -0.1567  0.7028 -0.3367
  182MOL0     C25000   7.075   3.792   8.873 -0.4742 -0.7562 -0.6282
  182MOL0     C25001   7.045   3.940   8.929 -0.1732  0.1612  0.8726
  182MOL0     O25002   6.905   3.976   8.915 -0.7515 -0.0637 -0.2682
  182MOL0     C25003   6.859   4.071   9.007 -0.8354  0.3598 -0.1053
  182MOL0     C25004   6.939   4.171   9.069  0.0483  0.5703 -1.6394
  182MOL0     C25005   6.880   4.272   9.151  0.6740  0.2340 -0.0405
  182MOL0     C25006   6.959   4.377   9.208  0.1344  0.0290  0.3557
  182MOL0     C25007   6.740   4.274   9.174  0.5849  0.0926 -0.1466
  182MOL0     C25008   6.666   4.391   9.232 -0.8166 -0.4799 -0.5792
  182MOL0     O25009   6.726   4.504   9.290  0.5601  1.2441  1.3134
  182MOL0     C25010   6.658   4.620   9.293 -0.4303  0.1597 -0.3861
  182MOL0     C25011   6.589   4.683   9.187 -0.0514  0.2993  0.5874
  182MOL0     C25012   6.522   4.805   9.209 -0.1100 -0.4066  0.3234
  182MOL0     C25013   6.524   4.873   9.322 -0.9089  0.4819 -0.9722
  182MOL0     O25014   6.446   4.991   9.332  0.5661  0.6530 -0.2049
  182MOL0     C25015   6.451   5.059   9.463 -0.1409  0.5051  0.4635
  182MOL0     C25016   6.384   5.198   9.444  0.3925 -0.0522  0.8901
  182MOL0     C25017   6.331   5.257   9.581 -0.5144  0.0825  0.1474
  182MOL0     C25018   6.275   5.396   9.536  0.0986  0.0534  0.4526
  182MOL0     C25019   6.118   5.400   9.510 -0.0890 -0.8744  0.4417
  182MOL0     C25020   6.089   5.550   9.489  0.6565 -0.2571  0.5896
  182MOL0     C25021   5.950   5.582   9.451  0.9700  0.3687 -0.0472
  182MOL0     C25022   5.903   5.727   9.457 -0.8605 -0.9119 -0.5160
  182MOL0    Cl25023   6.020   5.829   9.363  0.4141  0.1296  0.2003
  182MOL0     C25024   6.597   4.821   9.437 -0.5813 -0.5889 -0.1485
  182MOL0     C25025   6.663   4.691   9.417 -0.6980  0.2931  0.2583
  182MOL0     O25026   6.544   4.370   9.240 -0.3333  0.1628  0.2090
  182MOL0     C25027   6.662   4.167   9.122  0.1257  0.7878  0.2904
  182MOL0     C25028   6.717   4.080   9.024  0.1499  0.2821 -0.3329
  182MOL0     N25029   6.997   3.313   8.994  0.2406  0.3099 -0.3887
  182MOL0     N25030   6.958   3.242   9.097 -0.6485 -0.3324 -0.6851
  182MOL0     C25031   6.032   3.931   8.946  0.2090  0.4514  0.1661
  182MOL0     C25032   5.945   4.043   8.948  1.3556 -0.6021  1.0538
  182MOL0     C25033   5.688   4.380   9.029 -0.3172 -0.0502 -0.3811
  182MOL0     C25034   5.560   4.352   9.062 -0.0606  0.7081  0.5216
  182MOL0     C25035   5.450   4.430   9.016 -0.6711 -0.2393  0.3720
  182MOL0     C25036   5.479   4.561   8.971 -0.8008  0.2915 -0.1294
  182MOL0     O25037   5.383   4.653   8.937 -0.1793 -0.4998 -0.1694
  182MOL0     C25038   5.245   4.655   8.990  0.6160 -0.6855 -0.0427
  182MOL0     C25039   5.202   4.777   9.069  0.4558  0.6477 -0.2653
  182MOL0     C25040   5.246   4.758   9.212  0.8585 -0.1966 -0.4755
  182MOL0     C25041   5.173   4.853   9.305  0.4217  0.0465  0.6360
  182MOL0     C25042   5.035   4.807   9.333 -0.6190  0.4963  0.0818
  182MOL0     C25043   4.928   4.770   9.363  1.8728 -0.0742 -0.9174
  182MOL0     C25044   5.619   4.604   8.961  1.4959  0.5520 -0.2509
  182MOL0     C25045   5.722   4.518   8.986  0.3071  0.7754 -0.2482
  182MOL0     C25046   5.857   4.578   8.959 -0.5724 -0.4614 -0.3873
  182MOL0     H25047   6.178   4.270   9.061 -0.7102  0.2547 -0.0953
  182MOL0     H25048   6.297   4.072   9.099  2.6850 -0.9397 -1.6542
  182MOL0     H25049   6.437   3.893   9.045  0.0281  1.0876 -1.1724
  182MOL0     H25050   6.389   3.913   8.879  0.1996  1.4447  1.5238
  182MOL0     H25051   6.379   3.673   8.857  1.7826  3.1978 -3.3598
  182MOL0     H25052   6.539   3.742   8.884 -0.0691  0.4005  0.3525
  182MOL0     H25053   6.519   3.666   9.134 -1.0769 -2.5728  1.1299
  182MOL0     H25054   6.373   3.604   9.115  2.1890  0.1400  2.5331
  182MOL0     H25055   6.450   3.450   8.930  1.5816 -0.8926 -2.3655
  182MOL0     H25056   6.623   3.503   8.961 -0.2087  0.5395  1.6113
  182MOL0     H25057   6.441   3.375   9.167  1.4573 -0.0380  2.0151
  182MOL0     H25058   6.586   3.447   9.210  0.5807 -2.5149  1.4301
  182MOL0     H25059   6.542   3.201   9.040 -0.2622  1.5238 -3.5037
  182MOL0     H25060   6.685   3.271   9.000  1.5112 -3.9588  0.8406
  182MOL0     H25061   6.697   3.098   9.198 -0.0927  0.0318 -0.2162
  182MOL0     H25062   6.584   3.200   9.278 -1.4930 -0.5858 -2.7005
  182MOL0     H25063   6.740   3.363   9.329 -1.3511  1.2696 -1.3092
  182MOL0     H25064   6.836   3.217   9.351  2.7920 -2.2618 -3.3130
  182MOL0     H25065   6.847   3.528   9.190  2.4058  1.0665  2.9223
  182MOL0     H25066   6.953   3.558   8.845  0.6393  0.4362 -0.8166
  182MOL0     H25067   7.123   3.539   8.888 -0.4997 -0.6350 -2.6513
  182MOL0     H25068   6.896   3.713   8.984 -0.1184  0.4116  0.9070
  182MOL0     H25069   7.045   3.702   9.076 -1.8174  0.2386  0.4054
  182MOL0     H25070   7.182   3.776   8.888 -0.2608 -0.2014 -1.4827
  182MOL0     H25071   7.036   3.777   8.772 -1.2133  0.1523 -0.5034
  182MOL0     H25072   7.050   3.935   9.039  0.3941  0.1159  0.8460
  182MOL0     H25073   7.120   4.004   8.882 -1.1115 -0.2834 -1.3148
  182MOL0     H25074   7.046   4.190   9.074 -0.3082  3.4342  4.2660
  182MOL0     H25075   7.065   4.350   9.203  1.0420  2.9682  1.5349
  182MOL0     H25076   6.928   4.389   9.313 -0.9748 -2.6011  0.4055
  182MOL0     H25077   6.952   4.465   9.145  0.9470  0.2043  0.4962
  182MOL0     H25078   6.585   4.643   9.086 -5.0936  5.8794 -2.0445
  182MOL0     H25079   6.461   4.835   9.124 -0.7074  1.6091  1.4105
  182MOL0     H25080   6.397   4.998   9.536  0.8260 -2.1287 -0.9134
  182MOL0     H25081   6.552   5.083   9.496  0.2959  0.7042 -0.9384
  182MOL0     H25082   6.455   5.265   9.396  0.5945 -0.9208 -0.0529
  182MOL0     H25083   6.300   5.186   9.375  1.8104 -1.7580 -0.6692
  182MOL0     H25084   6.417   5.262   9.648  2.5539 -2.4251 -3.2058
  182MOL0     H25085   6.251   5.193   9.619 -2.9006  0.0569 -4.3198
  182MOL0     H25086   6.328   5.444   9.453 -2.1435 -2.4298 -2.7042
  182MOL0     H25087   6.285   5.463   9.622  0.3596  0.0413  0.4317
  182MOL0     H25088   6.096   5.336   9.424  1.9333 -0.9217 -0.0805
  182MOL0     H25089   6.053   5.355   9.586 -0.8213  0.1122  0.4183
  182MOL0     H25090   6.151   5.595   9.411 -2.8185  1.3993 -1.4746
  182MOL0     H25091   6.108   5.621   9.570  1.9590 -0.2830  0.3362
  182MOL0     H25092   5.885   5.525   9.518  2.7691 -2.1818 -0.3228
  182MOL0     H25093   5.942   5.554   9.345  4.1601 -0.5160 -0.1375
  182MOL0     H25094   5.900   5.771   9.557 -1.6581 -1.6653 -0.1940
  182MOL0     H25095   5.806   5.749   9.413 -0.4153  1.2080 -0.5196
  182MOL0     H25096   6.588   4.870   9.534  0.7368 -0.4508 -0.0808
  182MOL0     H25097   6.706   4.628   9.495 -0.2929  0.3675  0.0985
  182MOL0     H25098   6.554   4.157   9.131 -0.4437  2.0787 -3.5516
  182MOL0     H25099   6.650   4.022   8.961 -1.2889  2.4560 -0.9216
  182MOL0     H25100   6.011   3.848   8.879 -0.2657  2.9084 -2.9980
  182MOL0     H25101   5.848   4.055   8.900  1.1695  1.0199  1.7772
  182MOL0     H25102   5.544   4.251   9.101  2.0746  0.4988  0.9463
  182MOL0     H25103   5.350   4.387   9.023 -0.6424 -0.0750  3.0672
  182MOL0     H25104   5.206   4.670   8.889 -1.4265 -0.1706  0.7744
  182MOL0     H25105   5.208   4.564   9.039 -2.0169  0.0586 -0.4631
  182MOL0     H25106   5.098   4.806   9.049  1.1710  1.6441 -2.9530
  182MOL0     H25107   5.249   4.864   9.023  0.3101  0.5105 -0.6724
  182MOL0     H25108   5.240   4.653   9.241 -0.8994 -0.1303 -0.4528
  182MOL0     H25109   5.354   4.768   9.226  0.4650 -0.2923  4.2897
  182MOL0     H25110   5.171   4.950   9.254 -4.1991  0.1473  0.6113
  182MOL0     H25111   5.236   4.866   9.394  2.2872  2.1006 -0.8651
  182MOL0     H25112   4.827   4.749   9.394  1.9221 -0.6185 -1.1131
  182MOL0     H25113   5.629   4.705   8.924 -0.4998 -0.1456 -2.9408
  182MOL0     H25114   5.856   4.620   8.858 -1.4355  0.6883  0.0704
  182MOL0     H25115   5.886   4.653   9.033 -0.1858 -2.2616  1.3703
  182MOL0     H25116   5.940   4.507   8.968  3.2940  3.3838 -2.3119
  183MOL0     O25117   8.136   2.335   1.382 -0.3394  0.5750  0.7849
  183MOL0     C25118   8.101   2.446   1.330  0.2782  0.6709 -0.1440
  183MOL0     O25119   8.169   2.515   1.237 -0.4767  0.6287 -0.4912
  183MOL0     C25120   8.263   2.455   1.154  0.5247 -0.1387 -0.7886
  183MOL0     C25121   8.295   2.317   1.130 -0.2273  0.2498 -0.3431
  183MOL0     C25122   8.394   2.287   1.047 -2.3357 -1.1063  0.4378
  183MOL0     C25123   8.467   2.386   0.974 -0.1985  0.1077 -0.2802
  183MOL0     O25124   8.545   2.355   0.871  0.1058 -0.2678  0.9916
  183MOL0     C25125   8.554   2.456   0.768 -0.2041 -0.7643 -0.0247
  183MOL0     C25126   8.635   2.394   0.653 -0.1921  0.2078  0.7972
  183MOL0     C25127   8.659   2.486   0.526  0.2404 -0.0773  0.2968
  183MOL0     C25128   8.556   2.501   0.418  0.5217 -0.5137  0.5532
  183MOL0     C25129   8.560   2.381   0.327 -0.2476  0.2005  0.0200
  183MOL0     C25130   8.424   2.378   0.260  0.5456  0.1779 -0.4992
  183MOL0     C25131   8.405   2.249   0.173  0.0340  0.3601 -1.3009
  183MOL0     C25132   8.283   2.282   0.084 -0.3137  0.2756  0.0252
  183MOL0     N25133   8.256   2.155   0.000 -0.1731 -0.0730  0.5090
  183MOL0     C25134   8.290   2.131  -0.124  0.3502 -0.6217  0.0620
  183MOL0     C25135   8.261   2.002  -0.141  0.0907  0.2994  0.3866
  183MOL0     C25136   8.296   1.912  -0.255  0.2203 -0.3998 -0.8534
  183MOL0     C25137   8.451   1.902  -0.260  0.9548 -0.8985  0.7944
  183MOL0     C25138   8.493   1.807  -0.368  0.9534  0.1339  0.5686
  183MOL0     C25139   8.644   1.811  -0.395 -0.8913 -0.3170 -0.6285
  183MOL0     O25140   8.681   1.711  -0.493 -0.2839 -0.2674 -0.2819
  183MOL0     C25141   8.817   1.695  -0.517  0.3817 -0.7493  0.0006
  183MOL0     C25142   8.922   1.787  -0.480 -0.3310  0.0145 -1.0993
  183MOL0     C25143   9.053   1.756  -0.518 -0.0559 -0.7769  0.0839
  183MOL0     C25144   9.151   1.876  -0.507 -0.3011  0.8529  0.4580
  183MOL0     C25145   9.085   1.633  -0.578  0.3557  0.5569 -0.3997
  183MOL0     C25146   9.225   1.594  -0.605  0.5566 -0.0362  1.5583
  183MOL0     O25147   9.315   1.645  -0.519 -0.4415 -0.1294  0.6855
  183MOL0     C25148   9.452   1.645  -0.547  0.3987 -0.1446  0.3203
  183MOL0     C25149   9.520   1.619  -0.670  1.4569  0.4989 -0.1026
  183MOL0     C25150   9.656   1.627  -0.674 -0.1112 -0.8574 -0.8855
  183MOL0     C25151   9.737   1.667  -0.555  0.5128  0.2958 -0.2566
  183MOL0     O25152   9.876   1.681  -0.551 -0.4233  0.4784  0.2431
  183MOL0     C25153   9.945   1.773  -0.461 -0.1046  0.7408 -0.2890
  183MOL0     C25154  10.080   1.719  -0.422 -0.5479  0.1207  0.7197
  183MOL0     C25155  10.058   1.580  -0.348 -0.3294  0.0115  0.9353
  183MOL0     C25156  10.177   1.524  -0.276  0.1052  0.1402  0.0537
  183MOL0     C25157  10.262   1.436  -0.371 -1.1033  0.3113 -0.5192
  183MOL0     C25158  10.369   1.352  -0.315 -1.1708 -0.0704  0.0865
  183MOL0     C25159  10.434   1.421  -0.204  1.0208 -0.4253 -0.1118
  183MOL0     C25160  10.541   1.331  -0.147 -0.8898 -0.2857  0.5392
  183MOL0    Cl25161  10.456   1.213  -0.037 -0.6260  0.1241 -0.1958
  183MOL0     C25162   9.665   1.690  -0.438 -0.2812  0.7900 -0.7053
  183MOL0     C25163   9.526   1.668  -0.438  0.2021  0.9911 -0.1841
  183MOL0     O25164   9.248   1.512  -0.687  0.8101 -0.5145 -0.8736
  183MOL0     C25165   8.982   1.546  -0.607  0.7001 -0.6045  0.1708
  183MOL0     C25166   8.847   1.583  -0.587 -0.6510  1.0790 -0.0463
  183MOL0     N25167   8.208   1.947  -0.025  0.1526  0.4231  0.0123
  183MOL0     N25168   8.214   2.048   0.065  0.3585 -0.0141  0.7437
  183MOL0     C25169   8.439   2.519   1.012 -0.2449  0.4130  0.6866
  183MOL0     C25170   8.337   2.558   1.089  0.5902 -0.5798  0.3924
  183MOL0     C25171   7.985   2.504   1.397  0.4756  0.0600  0.0899
  183MOL0     C25172   7.942   2.440   1.519 -0.3990 -0.3211  0.6586
  183MOL0     C25173   7.834   2.493   1.582 -0.2809 -0.5012  0.3713
  183MOL0     C25174   7.770   2.614   1.545  1.1283 -0.0597 -0.7069
  183MOL0     O25175   7.663   2.677   1.596  0.6944 -0.4548  0.9837
  183MOL0     C25176   7.569   2.616   1.691 -1.1126 -0.1763 -0.1525
  183MOL0     C25177   7.471   2.707   1.738 -0.9542 -0.0135  0.5272
  183MOL0     C25178   7.385   2.668   1.856  0.1818 -0.3235  0.0312
  183MOL0     C25179   7.302   2.803   1.900 -0.1985  0.5878  0.4815
  183MOL0     C25180   7.390   2.883   1.991  0.0825 -0.5044 -0.5623
  183MOL0     C25181   7.459   2.957   2.053 -0.4528  0.8788  0.6511
  183MOL0     C25182   7.809   2.667   1.425 -0.3222 -0.3519 -1.1784
  183MOL0     C25183   7.922   2.624   1.347  0.5587  0.0650  0.2926
  183MOL0     C25184   7.964   2.711   1.230 -0.7092  0.7821 -0.0534
  183MOL0     H25185   8.247   2.231   1.176  1.1957 -0.2413  0.2641
  183MOL0     H25186   8.420   2.186   1.017  2.0515 -0.4254  1.2564
  183MOL0     H25187   8.612   2.544   0.799 -1.1205  1.7729 -4.6214
  183MOL0     H25188   8.456   2.477   0.725  0.2097  2.2117  0.2536
  183MOL0     H25189   8.734   2.375   0.694  0.8697  3.7060  0.1154
  183MOL0     H25190   8.599   2.297   0.615  1.6118 -0.3102  0.3232
  183MOL0     H25191   8.686   2.583   0.570  1.0993 -1.0653  2.0657
  183MOL0     H25192   8.748   2.459   0.470  1.2901  0.0950  1.8190
  183MOL0     H25193   8.457   2.525   0.456  0.4906 -0.5768  0.5116
  183MOL0     H25194   8.585   2.585   0.354  2.1633  0.8062  2.8760
  183MOL0     H25195   8.563   2.285   0.379  2.0656 -1.9762 -3.6667
  183MOL0     H25196   8.644   2.383   0.257  0.8815 -1.2235  1.2729
  183MOL0     H25197   8.350   2.379   0.340  1.2837  0.3614  0.1896
  183MOL0     H25198   8.427   2.459   0.186  0.6396 -1.0129 -1.8336
  183MOL0     H25199   8.385   2.164   0.240 -0.7665  1.5002 -0.0416
  183MOL0     H25200   8.480   2.222   0.098  0.4521 -0.6825 -0.5461
  183MOL0     H25201   8.197   2.285   0.152  0.7911  4.2215  1.5425
  183MOL0     H25202   8.282   2.377   0.030 -1.0054  3.3751  4.7816
  183MOL0     H25203   8.349   2.186  -0.197  0.4014 -1.1134 -0.2700
  183MOL0     H25204   8.268   1.949  -0.355  3.0722  0.4753 -1.4033
  183MOL0     H25205   8.256   1.811  -0.243 -0.0340 -0.3717 -1.4276
  183MOL0     H25206   8.483   2.005  -0.277 -2.8665  0.2461 -0.2904
  183MOL0     H25207   8.478   1.851  -0.167 -2.0062 -4.6403 -0.1307
  183MOL0     H25208   8.459   1.706  -0.341 -1.3431 -0.1000 -2.5702
  183MOL0     H25209   8.436   1.827  -0.459 -2.9408 -2.6167  2.1093
  183MOL0     H25210   8.667   1.912  -0.431  0.7079 -0.3302  0.2671
  183MOL0     H25211   8.703   1.781  -0.308  1.7639 -2.4905 -2.9511
  183MOL0     H25212   8.900   1.885  -0.441  1.7066  0.6100 -1.3132
  183MOL0     H25213   9.241   1.868  -0.568 -2.4366 -0.3483 -2.8260
  183MOL0     H25214   9.166   1.899  -0.401 -0.5352 -0.3235  0.7686
  183MOL0     H25215   9.102   1.964  -0.549  2.2654  2.7600  1.2206
  183MOL0     H25216   9.469   1.604  -0.764 -1.3304 -1.0173  1.5275
  183MOL0     H25217   9.706   1.591  -0.763 -0.6516 -4.4039  0.1065
  183MOL0     H25218   9.969   1.855  -0.529  3.5077 -2.1786 -2.9626
  183MOL0     H25219   9.875   1.807  -0.383  1.9265 -0.0946  2.0378
  183MOL0     H25220  10.137   1.705  -0.514 -0.7059  0.5115  0.5603
  183MOL0     H25221  10.131   1.791  -0.356  1.2484 -0.9639  0.5735
  183MOL0     H25222  10.024   1.507  -0.422  2.5022 -0.2806 -0.1941
  183MOL0     H25223   9.974   1.600  -0.281  1.7906  1.2388  3.4088
  183MOL0     H25224  10.136   1.458  -0.199 -0.8646 -2.2344 -2.3195
  183MOL0     H25225  10.238   1.598  -0.223  3.7107 -1.0515 -2.0434
  183MOL0     H25226  10.198   1.367  -0.428 -1.9845 -1.3950  2.3435
  183MOL0     H25227  10.311   1.503  -0.443 -0.4883  0.3799 -0.0487
  183MOL0     H25228  10.437   1.335  -0.399 -0.2887 -1.0052  0.9550
  183MOL0     H25229  10.331   1.257  -0.276  2.2769 -1.0207  1.5136
  183MOL0     H25230  10.365   1.446  -0.123  2.1650 -0.6648  0.9691
  183MOL0     H25231  10.486   1.510  -0.242  0.2279 -0.7354 -2.0521
  183MOL0     H25232  10.612   1.401  -0.102 -2.0642  1.6332 -0.4048
  183MOL0     H25233  10.589   1.275  -0.227 -0.4128  0.5842  0.2025
  183MOL0     H25234   9.723   1.693  -0.346  0.1410 -0.9944 -0.8635
  183MOL0     H25235   9.482   1.678  -0.339 -1.4913 -0.0317 -0.7877
  183MOL0     H25236   8.993   1.452  -0.660  0.8486  0.3459 -1.5554
  183MOL0     H25237   8.767   1.514  -0.612  0.8121 -0.4966 -0.4859
  183MOL0     H25238   8.495   2.594   0.956  1.4524  1.0150  3.0435
  183MOL0     H25239   8.317   2.664   1.102 -0.8890 -0.7006 -0.6519
  183MOL0     H25240   7.988   2.349   1.556 -1.8226 -1.3162  0.0702
  183MOL0     H25241   7.802   2.434   1.667  0.9248 -1.0367  0.4684
  183MOL0     H25242   7.542   2.529   1.632  1.7915  0.8978 -3.4210
  183MOL0     H25243   7.623   2.579   1.779 -0.2368 -1.5484 -1.2254
  183MOL0     H25244   7.405   2.730   1.654 -1.8390  0.9230  1.4385
  183MOL0     H25245   7.531   2.797   1.754 -2.1988  1.3310 -1.7937
  183MOL0     H25246   7.311   2.598   1.818 -1.6413  0.5180  1.8426
  183MOL0     H25247   7.446   2.628   1.937  1.9945 -0.5421 -1.3724
  183MOL0     H25248   7.212   2.780   1.957 -0.7159  1.7781  0.1763
  183MOL0     H25249   7.274   2.858   1.810  1.4006  5.5591  2.6525
  183MOL0     H25250   7.524   3.014   2.117 -0.0228  2.6843 -1.2666
  183MOL0     H25251   7.757   2.757   1.395  0.6456  0.7566  0.3286
  183MOL0     H25252   7.966   2.663   1.132  2.7244 -2.2048  1.2295
  183MOL0     H25253   7.879   2.779   1.219 -2.5297 -1.4191 -0.1276
  183MOL0     H25254   8.059   2.760   1.253  0.8727 -1.7033 -0.8894
  184MOL0     O25255   7.985   8.725   9.435 -0.4572 -0.6306 -0.2278
  184MOL0     C25256   7.935   8.696   9.543  0.5065  0.2455  0.3640
  184MOL0     O25257   7.924   8.777   9.646 -0.3698  0.4598 -0.0635
  184MOL0     C25258   7.963   8.905   9.630  0.3137 -0.4323  0.5175
  184MOL0     C25259   7.913   8.990   9.530  0.4266  0.5422 -0.3468
  184MOL0     C25260   7.944   9.124   9.526 -0.0089 -0.5019  0.2839
  184MOL0     C25261   8.038   9.187   9.612  0.1080  0.4420  0.1504
  184MOL0     O25262   8.057   9.326   9.598  1.0146  0.5581 -0.1026
  184MOL0     C25263   8.188   9.357   9.656 -0.5351  0.5468 -0.4276
  184MOL0     C25264   8.233   9.489   9.605 -0.3115 -0.2670  0.2316
  184MOL0     C25265   8.145   9.600   9.666 -0.0751 -0.8762  0.4721
  184MOL0     C25266   8.205   9.742   9.641 -0.4227 -0.5366  0.0145
  184MOL0     C25267   8.142   9.839   9.741  0.5054 -0.5219 -0.3956
  184MOL0     C25268   7.990   9.848   9.738  0.7068 -0.9823  0.9810
  184MOL0     C25269   7.925   9.929   9.846 -0.1202  0.2209  1.0370
  184MOL0     C25270   7.986  10.054   9.879  0.1470  0.1262  0.0978
  184MOL0     N25271   7.955  10.152   9.770 -0.3052 -0.1532 -0.0438
  184MOL0     C25272   7.833  10.212   9.737  0.1768  0.7742 -0.0043
  184MOL0     C25273   7.858  10.251   9.611 -0.5166  0.1453 -0.5866
  184MOL0     C25274   7.773  10.329   9.514 -0.2886 -0.0622  1.4257
  184MOL0     C25275   7.637  10.373   9.573 -0.3523 -0.5175  1.1998
  184MOL0     C25276   7.566  10.464   9.468 -0.4496  0.2093  0.0690
  184MOL0     C25277   7.649  10.590   9.447  0.1107  0.2825 -0.3357
  184MOL0     O25278   7.564  10.697   9.415  0.0354  0.7037  0.2577
  184MOL0     C25279   7.595  10.829   9.443  0.0307  0.6083  0.0997
  184MOL0     C25280   7.500  10.923   9.409  0.9274 -0.6552  0.1620
  184MOL0     C25281   7.532  11.062   9.410  0.2576 -0.5501 -0.4284
  184MOL0     C25282   7.419  11.154   9.361  0.4433  0.4522 -0.3499
  184MOL0     C25283   7.662  11.102   9.457 -0.2437  0.0599 -0.1290
  184MOL0     C25284   7.712  11.244   9.482 -0.5921 -0.1439  0.4846
  184MOL0     O25285   7.663  11.348   9.410 -0.0816 -0.3639  0.3459
  184MOL0     C25286   7.700  11.472   9.468 -0.0569  0.7737  0.2169
  184MOL0     C25287   7.613  11.538   9.548 -0.1845 -0.4306  0.1045
  184MOL0     C25288   7.662  11.651   9.620  0.7866  0.7012 -0.6775
  184MOL0     C25289   7.780  11.713   9.581 -0.0894 -0.3444  0.5900
  184MOL0     O25290   7.807  11.823   9.661 -0.1666  0.0939  0.5173
  184MOL0     C25291   7.941  11.885   9.645 -0.0092 -0.8894 -0.8241
  184MOL0     C25292   7.953  12.017   9.711  0.1774  0.3522  0.0386
  184MOL0     C25293   7.881  12.038   9.846  0.4550  0.4128 -0.2071
  184MOL0     C25294   7.942  11.971   9.962  0.0746 -0.6073  0.2381
  184MOL0     C25295   7.849  11.980  10.078 -0.7651 -1.0058  0.1270
  184MOL0     C25296   7.914  11.916  10.194  0.8224  0.9608 -0.9938
  184MOL0     C25297   7.816  11.940  10.309  0.0482  0.2963 -0.6378
  184MOL0     C25298   7.893  11.872  10.427  0.9211  0.7015  0.4088
  184MOL0    Cl25299   7.777  11.828  10.557  0.4004 -0.3875 -0.0083
  184MOL0     C25300   7.851  11.662   9.479  0.7366  0.7754  0.4976
  184MOL0     C25301   7.805  11.541   9.421 -0.3958  0.3667 -0.3966
  184MOL0     O25302   7.796  11.248   9.573  0.0818 -0.9898 -0.5542
  184MOL0     C25303   7.765  11.003   9.468  0.4572 -0.9384 -0.4804
  184MOL0     C25304   7.724  10.875   9.464  0.2588  0.5914  0.0589
  184MOL0     N25305   7.994  10.230   9.573 -0.3555 -0.0150  0.3943
  184MOL0     N25306   8.044  10.164   9.665 -1.0432 -0.1937  0.3934
  184MOL0     C25307   8.093   9.101   9.710 -0.8915 -1.3332 -0.5475
  184MOL0     C25308   8.044   8.972   9.723  0.8773 -0.3591 -0.2354
  184MOL0     C25309   7.901   8.550   9.580 -0.5783  0.3134  0.1522
  184MOL0     C25310   7.877   8.516   9.718 -0.0119  0.4508  0.3009
  184MOL0     C25311   7.865   8.388   9.760 -0.1753  0.3897 -0.0797
  184MOL0     C25312   7.868   8.287   9.665 -0.0237 -0.2049  0.9849
  184MOL0     O25313   7.870   8.159   9.711 -0.3809  0.3561  0.8061
  184MOL0     C25314   7.926   8.057   9.630 -0.1600 -0.8501 -0.4167
  184MOL0     C25315   7.929   7.936   9.721 -0.7802  0.1806 -0.6105
  184MOL0     C25316   8.023   7.951   9.850 -0.5848  1.0007 -0.3997
  184MOL0     C25317   8.022   7.842   9.954  0.8902 -0.4210 -0.6552
  184MOL0     C25318   7.903   7.847  10.047  0.2399 -0.0042 -0.1596
  184MOL0     C25319   7.805   7.861  10.116  0.1074  0.1590  1.0057
  184MOL0     C25320   7.884   8.319   9.527  0.5315 -0.9255  0.0848
  184MOL0     C25321   7.894   8.448   9.481  0.6263  0.2694  0.0914
  184MOL0     C25322   7.906   8.483   9.334  0.1460 -0.8553  0.4270
  184MOL0     H25323   7.854   8.960   9.444  2.1187  2.7188 -2.3857
  184MOL0     H25324   7.899   9.181   9.446  0.4774  0.9843  1.0341
  184MOL0     H25325   8.263   9.289   9.614 -1.7977 -0.1869 -1.5915
  184MOL0     H25326   8.188   9.362   9.765 -0.9360 -3.1515 -0.1327
  184MOL0     H25327   8.336   9.499   9.640 -1.4884  2.9781  3.3190
  184MOL0     H25328   8.221   9.494   9.496  0.9435  4.1965  0.1134
  184MOL0     H25329   8.040   9.606   9.637  0.7006  2.1651 -2.2459
  184MOL0     H25330   8.151   9.591   9.775  0.0173  0.7360  0.6323
  184MOL0     H25331   8.311   9.746   9.669 -0.1642 -1.5272 -0.7308
  184MOL0     H25332   8.194   9.774   9.537 -2.0937 -1.1678 -0.0251
  184MOL0     H25333   8.184   9.936   9.714 -1.5368  0.5424  0.0198
  184MOL0     H25334   8.165   9.824   9.847 -2.5830 -0.3009  0.4251
  184MOL0     H25335   7.961   9.891   9.642 -0.9346 -1.5373  1.1913
  184MOL0     H25336   7.946   9.748   9.749 -2.1912 -0.0215 -0.7364
  184MOL0     H25337   7.944   9.863   9.931  0.8840 -1.8222 -0.6964
  184MOL0     H25338   7.816   9.943   9.840  0.0786  1.3747 -1.2356
  184MOL0     H25339   7.937  10.090   9.970  0.4694  1.3563 -0.2092
  184MOL0     H25340   8.093  10.048   9.900  0.2398 -1.0686 -0.6344
  184MOL0     H25341   7.745  10.217   9.799 -0.7326  1.0113 -1.2698
  184MOL0     H25342   7.759  10.269   9.424 -1.9516  2.1238  0.1381
  184MOL0     H25343   7.828  10.416   9.476 -0.4171 -0.1516  1.0332
  184MOL0     H25344   7.574  10.286   9.594 -2.8799  1.1956  1.1543
  184MOL0     H25345   7.661  10.430   9.663  0.2625  0.3409  0.5035
  184MOL0     H25346   7.531  10.405   9.383 -0.1400 -0.6306  0.5112
  184MOL0     H25347   7.470  10.495   9.509 -0.7998  1.4497 -1.5709
  184MOL0     H25348   7.723  10.609   9.525  2.0158  3.0035 -2.6261
  184MOL0     H25349   7.716  10.580   9.362 -0.0186 -4.1438 -0.1649
  184MOL0     H25350   7.396  10.895   9.393  1.1221 -0.7491 -1.0624
  184MOL0     H25351   7.461  11.236   9.302  1.0216 -0.3836 -1.1273
  184MOL0     H25352   7.367  11.198   9.446 -0.3323 -2.5260  0.8604
  184MOL0     H25353   7.342  11.103   9.303  0.9465  1.2667 -1.7789
  184MOL0     H25354   7.518  11.492   9.572  1.6169 -2.0583  5.3389
  184MOL0     H25355   7.611  11.695   9.705  2.5156  1.4627  0.0152
  184MOL0     H25356   8.014  11.816   9.688  0.2780 -1.7953 -2.7018
  184MOL0     H25357   7.966  11.899   9.540  1.4821 -0.5009 -0.4408
  184MOL0     H25358   8.059  12.035   9.734  0.6920 -2.8260  0.5630
  184MOL0     H25359   7.928  12.098   9.642  1.0775 -0.0550 -0.7862
  184MOL0     H25360   7.778  12.001   9.842  1.3678 -2.3041 -0.5798
  184MOL0     H25361   7.882  12.145   9.868  0.7478  0.4838 -0.5632
  184MOL0     H25362   8.024  12.042   9.979 -2.1639  1.8481  1.7985
  184MOL0     H25363   7.976  11.869   9.946  0.3996 -0.4286 -0.2143
  184MOL0     H25364   7.820  12.083  10.103  0.5233 -0.2034 -1.4431
  184MOL0     H25365   7.759  11.919  10.063 -0.0307 -2.7095  2.1559
  184MOL0     H25366   7.999  11.976  10.228 -0.3471  2.4501 -0.6171
  184MOL0     H25367   7.936  11.810  10.181  1.9991  0.7731  1.8235
  184MOL0     H25368   7.718  11.902  10.279  0.5925  0.1206 -2.3304
  184MOL0     H25369   7.808  12.049  10.313 -1.1304  0.1822  2.0406
  184MOL0     H25370   7.969  11.939  10.468  0.8615 -0.9547  3.4558
  184MOL0     H25371   7.945  11.782  10.392 -0.7762  0.2242 -0.9982
  184MOL0     H25372   7.935  11.711   9.432  2.2991 -2.6076 -0.5229
  184MOL0     H25373   7.852  11.494   9.335 -1.5010 -0.0219 -0.8169
  184MOL0     H25374   7.866  11.031   9.496 -0.3274  2.8076 -0.9026
  184MOL0     H25375   7.800  10.807   9.501  1.5268  4.0025  4.5612
  184MOL0     H25376   8.160   9.135   9.788  0.1734  0.8026 -2.2567
  184MOL0     H25377   8.077   8.920   9.813 -1.2575 -0.6466  0.4404
  184MOL0     H25378   7.864   8.585   9.801 -1.4619 -3.3853  3.6125
  184MOL0     H25379   7.863   8.368   9.867  3.1078  0.0248  0.0064
  184MOL0     H25380   7.864   8.034   9.543  0.4282  0.1745 -1.1283
  184MOL0     H25381   8.030   8.082   9.606 -0.6509  1.8726  0.0304
  184MOL0     H25382   7.960   7.854   9.655 -1.5642  1.4929 -2.7137
  184MOL0     H25383   7.826   7.913   9.750 -0.3947  1.5567  2.1693
  184MOL0     H25384   8.125   7.946   9.809 -0.2351  1.6225  0.3654
  184MOL0     H25385   8.004   8.042   9.906 -2.9587  0.7861 -0.7449
  184MOL0     H25386   8.111   7.860  10.015  0.4757 -1.3520  0.2471
  184MOL0     H25387   8.034   7.744   9.907  0.1525 -0.5147 -0.6578
  184MOL0     H25388   7.715   7.860  10.175 -1.3234  0.9732 -1.0386
  184MOL0     H25389   7.878   8.237   9.456  3.2902  0.8237 -2.4210
  184MOL0     H25390   7.832   8.563   9.324  1.9925  1.1853  1.8667
  184MOL0     H25391   8.006   8.526   9.318 -1.1538  2.5695  0.6535
  184MOL0     H25392   7.884   8.408   9.258 -1.4962 -0.5468  0.5539
  185MOL0     O25393   8.397   1.509   5.961  0.2223  0.1023 -0.1612
  185MOL0     C25394   8.417   1.587   6.063 -0.5374 -0.3143 -0.0474
  185MOL0     O25395   8.439   1.539   6.195  0.3126  0.3792  0.5788
  185MOL0     C25396   8.436   1.410   6.232 -0.7395 -0.7880 -0.4130
  185MOL0     C25397   8.540   1.323   6.192 -0.2788 -0.4710  0.5736
  185MOL0     C25398   8.543   1.194   6.236 -0.4290  0.5642  0.0650
  185MOL0     C25399   8.449   1.145   6.327  0.3893 -0.5902  0.2222
  185MOL0     O25400   8.470   1.012   6.367 -0.0180  0.1698 -1.2718
  185MOL0     C25401   8.378   0.969   6.465  0.2737  0.2303 -0.6843
  185MOL0     C25402   8.412   0.824   6.496 -0.2989 -1.0169  0.5219
  185MOL0     C25403   8.526   0.783   6.595 -0.7089  0.5663 -0.3299
  185MOL0     C25404   8.659   0.851   6.568 -0.0366  0.3354 -0.6185
  185MOL0     C25405   8.763   0.789   6.664 -0.6467 -0.2905  0.1252
  185MOL0     C25406   8.899   0.875   6.660  0.0942  1.0442 -0.2727
  185MOL0     C25407   8.959   0.865   6.527 -0.5081 -0.6460  0.6538
  185MOL0     C25408   9.117   0.846   6.514  0.7076  0.0241  0.2854
  185MOL0     N25409   9.188   0.983   6.492 -0.1084 -0.9851 -0.2590
  185MOL0     C25410   9.176   1.090   6.576  1.7958  0.0272  0.2351
  185MOL0     C25411   9.256   1.186   6.524  0.3875  0.5560 -0.3127
  185MOL0     C25412   9.250   1.336   6.566  0.0227  0.6464 -1.4220
  185MOL0     C25413   9.369   1.376   6.648 -0.6476 -0.4498  0.0864
  185MOL0     C25414   9.357   1.327   6.794  0.0272  0.0527  0.6015
  185MOL0     C25415   9.472   1.362   6.883 -0.4828  0.6883 -0.0639
  185MOL0     O25416   9.517   1.498   6.857  0.6164 -0.5571 -0.0772
  185MOL0     C25417   9.652   1.528   6.876  0.3649  0.0608  0.2493
  185MOL0     C25418   9.761   1.439   6.904  0.6728 -0.1046 -0.2304
  185MOL0     C25419   9.891   1.478   6.890  0.0273 -0.4022 -0.5529
  185MOL0     C25420   9.989   1.376   6.916  0.7003  0.0910 -1.6495
  185MOL0     C25421   9.926   1.616   6.850 -0.3025  0.7492  0.2579
  185MOL0     C25422  10.060   1.675   6.844 -0.3884 -0.6150  0.2666
  185MOL0     O25423  10.143   1.655   6.956  0.7808 -0.2113 -0.1020
  185MOL0     C25424  10.250   1.741   6.966  0.7667 -0.7350 -0.2286
  185MOL0     C25425  10.380   1.700   6.930 -0.3495  0.4983 -0.3895
  185MOL0     C25426  10.483   1.798   6.930 -0.3144 -0.2933 -0.1813
  185MOL0     C25427  10.465   1.939   6.950 -0.0967  0.4142 -0.0746
  185MOL0     O25428  10.554   2.041   6.956 -0.2958  0.0621  1.1331
  185MOL0     C25429  10.677   2.021   6.893 -0.4732  0.8744  0.1546
  185MOL0     C25430  10.767   1.987   7.011  0.5022  0.5040  0.0278
  185MOL0     C25431  10.906   2.027   6.976  0.9437  0.3179 -0.1059
  185MOL0     C25432  11.001   1.982   7.088  0.6425  0.3371  0.0849
  185MOL0     C25433  11.145   1.986   7.045  0.6557 -0.1440  0.2656
  185MOL0     C25434  11.241   1.994   7.164  0.1414  0.4998 -0.7511
  185MOL0     C25435  11.392   2.003   7.126 -0.1738  0.1981 -0.7259
  185MOL0     C25436  11.439   1.881   7.042 -0.4869 -0.3207  0.8151
  185MOL0    Cl25437  11.615   1.872   7.015  0.4402 -0.3945  0.4122
  185MOL0     C25438  10.339   1.975   6.996 -1.6767  0.9557 -0.6189
  185MOL0     C25439  10.231   1.881   6.999 -0.7069 -0.2032 -0.1395
  185MOL0     O25440  10.086   1.753   6.745 -0.2756 -0.1657 -0.3272
  185MOL0     C25441   9.814   1.703   6.816 -0.1368 -0.3425 -0.4103
  185MOL0     C25442   9.681   1.660   6.831  0.4096  0.5550 -0.0248
  185MOL0     N25443   9.340   1.127   6.431 -0.6485  0.7097  0.0604
  185MOL0     N25444   9.289   1.007   6.408 -0.3647 -0.3836  0.0564
  185MOL0     C25445   8.353   1.235   6.372 -0.0373 -0.4800 -0.0538
  185MOL0     C25446   8.345   1.368   6.326 -0.7001 -0.7014  0.5317
  185MOL0     C25447   8.440   1.734   6.043  0.8078  0.5438 -0.7904
  185MOL0     C25448   8.450   1.820   6.149  0.7634 -0.0777 -0.5092
  185MOL0     C25449   8.466   1.962   6.134  0.3275  1.2498 -0.3591
  185MOL0     C25450   8.490   2.006   6.003  0.3268 -0.2624 -0.9608
  185MOL0     O25451   8.515   2.142   6.000  0.1878 -1.0624  0.0789
  185MOL0     C25452   8.542   2.204   5.876 -0.2431  0.1308  0.6045
  185MOL0     C25453   8.566   2.347   5.920  0.0696 -0.7077  0.0227
  185MOL0     C25454   8.449   2.420   5.992 -0.3997  0.0862  0.5680
  185MOL0     C25455   8.482   2.570   6.021 -0.0913  0.9495 -0.9559
  185MOL0     C25456   8.548   2.571   6.148 -1.2016 -0.1695 -0.4021
  185MOL0     C25457   8.635   2.585   6.240 -1.0113 -0.9885  0.5180
  185MOL0     C25458   8.502   1.917   5.901 -0.4628  0.0940  0.1883
  185MOL0     C25459   8.466   1.787   5.915  0.4276  0.1284 -0.5009
  185MOL0     C25460   8.501   1.705   5.790 -0.1475 -0.0415  0.0947
  185MOL0     H25461   8.618   1.357   6.125 -0.5581 -1.0615 -0.0588
  185MOL0     H25462   8.627   1.131   6.210  2.0621  3.2465  1.0200
  185MOL0     H25463   8.277   0.964   6.423  0.7853 -0.2626 -1.8955
  185MOL0     H25464   8.387   1.037   6.550  1.5787  1.2273 -1.5695
  185MOL0     H25465   8.329   0.773   6.545  0.3060 -3.4977 -0.8877
  185MOL0     H25466   8.429   0.783   6.396 -1.4524 -1.7467  0.6043
  185MOL0     H25467   8.494   0.805   6.697  2.3469  2.0657  0.4280
  185MOL0     H25468   8.541   0.675   6.586 -0.3767  0.6513 -0.8256
  185MOL0     H25469   8.696   0.846   6.466  2.1998 -1.9603  0.1700
  185MOL0     H25470   8.641   0.954   6.599  0.1015  0.0841  0.3483
  185MOL0     H25471   8.791   0.686   6.639  1.3777  0.3000 -0.2704
  185MOL0     H25472   8.721   0.791   6.765 -1.4732 -1.0864 -0.1928
  185MOL0     H25473   8.867   0.974   6.696 -0.0135  1.8742 -2.4993
  185MOL0     H25474   8.962   0.819   6.730 -4.1820  0.0922  3.2812
  185MOL0     H25475   8.928   0.950   6.466  2.0846  0.0500  0.2098
  185MOL0     H25476   8.930   0.781   6.464 -0.8883  1.4980 -2.1902
  185MOL0     H25477   9.157   0.813   6.611 -0.6892  1.4715  1.4216
  185MOL0     H25478   9.131   0.772   6.435 -3.8708  0.2394 -1.0159
  185MOL0     H25479   9.092   1.110   6.642  0.4108 -1.1314 -1.0917
  185MOL0     H25480   9.162   1.349   6.630  0.5099  0.3310 -0.6790
  185MOL0     H25481   9.252   1.390   6.471  3.7890  5.0826  0.8174
  185MOL0     H25482   9.459   1.332   6.603 -0.3699 -1.2944  1.4191
  185MOL0     H25483   9.370   1.485   6.653 -0.1234 -0.5139  2.6105
  185MOL0     H25484   9.267   1.360   6.848  1.6903 -0.7540  4.1118
  185MOL0     H25485   9.341   1.220   6.780 -1.6317  0.5521 -2.2262
  185MOL0     H25486   9.442   1.350   6.988 -0.3572 -2.0110 -0.2813
  185MOL0     H25487   9.555   1.295   6.861 -0.2284 -0.3779  3.5444
  185MOL0     H25488   9.740   1.335   6.926  1.4602 -0.7457 -2.2774
  185MOL0     H25489   9.962   1.280   6.870  0.2629 -1.2654  1.2118
  185MOL0     H25490   9.995   1.366   7.025 -1.2044 -1.4612 -1.6265
  185MOL0     H25491  10.091   1.408   6.896  1.7522 -1.5427  0.6377
  185MOL0     H25492  10.403   1.596   6.910 -2.2601  0.2615 -1.6458
  185MOL0     H25493  10.586   1.768   6.916 -0.1355  0.0457  0.3760
  185MOL0     H25494  10.681   1.944   6.814 -0.5633 -0.8313  1.7472
  185MOL0     H25495  10.707   2.115   6.846  0.7284 -0.7232 -2.5248
  185MOL0     H25496  10.746   2.049   7.099  1.4902  0.0724  0.5754
  185MOL0     H25497  10.747   1.880   7.028 -0.1582  0.6057 -0.0661
  185MOL0     H25498  10.919   2.134   6.957  1.7838  0.7830  2.6375
  185MOL0     H25499  10.937   1.976   6.885 -0.7642 -1.8724  0.4521
  185MOL0     H25500  10.993   1.879   7.124  1.5894 -0.4119 -1.6962
  185MOL0     H25501  10.975   2.050   7.170 -1.8763 -1.6625  1.0758
  185MOL0     H25502  11.167   1.911   6.969 -0.5405 -0.4937  0.2397
  185MOL0     H25503  11.151   2.073   6.979 -3.3353 -0.2145 -0.4240
  185MOL0     H25504  11.231   1.906   7.229  0.3624  0.8116 -0.2857
  185MOL0     H25505  11.219   2.084   7.221  0.0829 -0.9790  1.7273
  185MOL0     H25506  11.454   2.008   7.216  0.5113  0.5010 -1.2090
  185MOL0     H25507  11.419   2.098   7.079  1.7748 -0.5180 -1.1721
  185MOL0     H25508  11.389   1.889   6.946 -1.7400 -1.8468  1.3035
  185MOL0     H25509  11.409   1.785   7.083 -1.5382 -0.8776 -1.1502
  185MOL0     H25510  10.326   2.080   7.016  0.3960  1.1704 -0.1699
  185MOL0     H25511  10.131   1.913   7.027 -0.8980 -0.5351 -0.4475
  185MOL0     H25512   9.829   1.803   6.778 -1.8079  0.0804 -0.0517
  185MOL0     H25513   9.606   1.721   6.780  1.2060 -0.4726 -2.5865
  185MOL0     H25514   8.282   1.214   6.451 -0.8335 -1.1180 -0.9215
  185MOL0     H25515   8.280   1.451   6.354  1.7001  1.8021 -0.8470
  185MOL0     H25516   8.439   1.786   6.252 -0.6806  2.0753  0.1194
  185MOL0     H25517   8.469   2.039   6.211 -0.2373  1.8827 -0.9583
  185MOL0     H25518   8.634   2.161   5.835 -0.0252 -0.5830  1.7938
  185MOL0     H25519   8.453   2.190   5.814 -0.7497  0.0745  1.3345
  185MOL0     H25520   8.583   2.402   5.827 -0.0971  0.0290  0.4226
  185MOL0     H25521   8.653   2.354   5.986  0.0737 -0.2649 -0.0281
  185MOL0     H25522   8.364   2.412   5.924 -0.3134  0.9913  0.3336
  185MOL0     H25523   8.430   2.362   6.083  0.4694 -0.5267  0.3737
  185MOL0     H25524   8.387   2.622   6.007 -2.4185 -3.4302 -3.8438
  185MOL0     H25525   8.546   2.604   5.940 -1.4914  3.0676 -1.2683
  185MOL0     H25526   8.703   2.595   6.322  1.7880  0.3104 -1.7923
  185MOL0     H25527   8.524   1.963   5.805  0.1891  1.6213  1.0237
  185MOL0     H25528   8.518   1.770   5.704 -3.0940  1.9728  0.9091
  185MOL0     H25529   8.586   1.641   5.816 -0.5532 -0.1433  1.2477
  185MOL0     H25530   8.405   1.652   5.780 -0.1398 -0.3109  1.2829
  186MOL0     O25531   1.029   6.230   1.270 -0.2629 -0.4006  0.2211
  186MOL0     C25532   1.035   6.257   1.393 -0.2197  1.3589  0.4817
  186MOL0     O25533   1.049   6.386   1.452  0.1906 -0.3109 -0.2963
  186MOL0     C25534   1.088   6.499   1.383 -0.4407 -0.5664  0.7269
  186MOL0     C25535   1.115   6.520   1.251  0.8258 -0.4314  0.1498
  186MOL0     C25536   1.156   6.647   1.199  0.3245 -0.6763 -0.6466
  186MOL0     C25537   1.166   6.759   1.281  0.5816  0.2726 -0.3695
  186MOL0     O25538   1.160   6.876   1.211  0.6598 -0.1920 -0.4738
  186MOL0     C25539   1.277   6.953   1.241  0.7872 -0.1801  0.6209
  186MOL0     C25540   1.299   7.052   1.125  0.1006 -0.6919  0.0689
  186MOL0     C25541   1.186   7.163   1.121 -0.3747  0.6639  0.7859
  186MOL0     C25542   1.085   7.136   1.004  0.1816 -0.9433 -0.9045
  186MOL0     C25543   0.994   7.259   0.981  0.4866 -0.3906  0.1237
  186MOL0     C25544   0.877   7.221   0.889 -1.1589 -0.3517  0.3006
  186MOL0     C25545   0.795   7.338   0.841 -0.2585 -0.7654 -0.1197
  186MOL0     C25546   0.739   7.427   0.956 -0.2451  0.7521 -0.4209
  186MOL0     N25547   0.641   7.345   1.028  0.4469 -0.0057 -0.6217
  186MOL0     C25548   0.630   7.337   1.166  0.5310 -1.1085 -0.2231
  186MOL0     C25549   0.529   7.251   1.184  0.7958  0.3848 -0.9334
  186MOL0     C25550   0.482   7.167   1.302  0.3859 -0.0380 -0.2502
  186MOL0     C25551   0.390   7.244   1.401  0.3505 -1.2198  0.1264
  186MOL0     C25552   0.453   7.366   1.466  0.6280  0.0921  0.1112
  186MOL0     C25553   0.363   7.423   1.585  0.3848  0.0134 -0.4907
  186MOL0     O25554   0.443   7.408   1.700 -0.2003  0.2375 -0.4694
  186MOL0     C25555   0.382   7.458   1.812 -0.1392  0.5816  0.8230
  186MOL0     C25556   0.324   7.360   1.890 -0.0300  0.5304  0.9343
  186MOL0     C25557   0.282   7.389   2.021  0.5699  0.9605  0.7815
  186MOL0     C25558   0.221   7.271   2.105 -0.5920 -0.4174  1.0586
  186MOL0     C25559   0.271   7.530   2.058  0.1033 -1.2562 -0.3839
  186MOL0     C25560   0.223   7.579   2.185 -0.0831 -0.7124 -0.2547
  186MOL0     O25561   0.110   7.526   2.231 -0.1679  0.0331 -0.5248
  186MOL0     C25562   0.086   7.558   2.366 -0.0154 -1.2884  0.2356
  186MOL0     C25563   0.159   7.500   2.471  0.3736 -0.8419 -0.0102
  186MOL0     C25564   0.155   7.544   2.607  0.1983  0.5707 -0.0723
  186MOL0     C25565   0.071   7.651   2.644  0.4386  0.0230 -0.0555
  186MOL0     O25566   0.067   7.706   2.768  0.1648 -0.5350 -0.8312
  186MOL0     C25567   0.066   7.611   2.879 -0.3783  0.2510  0.3726
  186MOL0     C25568  -0.003   7.666   3.002 -0.1202  0.4036  0.5613
  186MOL0     C25569  -0.150   7.652   3.000 -0.0691 -0.3414 -0.4145
  186MOL0     C25570  -0.220   7.735   3.112  0.5639 -0.1569  0.4644
  186MOL0     C25571  -0.377   7.711   3.125  0.4602  0.1857 -1.0010
  186MOL0     C25572  -0.404   7.571   3.192  0.0366  0.0848  0.2480
  186MOL0     C25573  -0.536   7.557   3.251  0.0100  0.5784 -0.2305
  186MOL0     C25574  -0.645   7.509   3.153  0.0445 -0.0690  0.5219
  186MOL0    Cl25575  -0.649   7.344   3.110  0.4390  0.0705  0.1689
  186MOL0     C25576   0.004   7.717   2.537  0.0839 -0.4655 -0.1219
  186MOL0     C25577   0.010   7.673   2.400 -0.6015  1.1911 -0.0723
  186MOL0     O25578   0.285   7.673   2.239  0.4773 -0.1239  0.9873
  186MOL0     C25579   0.339   7.624   1.968  0.1075 -0.9015  0.1499
  186MOL0     C25580   0.384   7.589   1.845 -0.9781  0.7481 -0.6262
  186MOL0     N25581   0.480   7.218   1.063  1.0443  0.2486  0.0563
  186MOL0     N25582   0.542   7.272   0.970  0.2232 -0.7082  0.1480
  186MOL0     C25583   1.143   6.739   1.418  0.0167  0.8570 -0.5573
  186MOL0     C25584   1.100   6.610   1.464  0.3485 -1.2807 -0.7803
  186MOL0     C25585   1.019   6.145   1.495  0.2056 -0.2522 -0.2136
  186MOL0     C25586   1.094   6.140   1.609 -0.1454 -0.0687 -0.4378
  186MOL0     C25587   1.092   6.036   1.703 -0.5000  0.2614  0.9635
  186MOL0     C25588   0.999   5.923   1.674 -0.1961 -0.5814 -1.4201
  186MOL0     O25589   0.989   5.816   1.757  0.2202 -0.0797  0.1917
  186MOL0     C25590   1.044   5.820   1.894 -0.0123  0.2794 -0.4298
  186MOL0     C25591   0.974   5.900   1.998  0.3378 -0.5347  0.0463
  186MOL0     C25592   0.819   5.889   1.993 -0.5580 -0.2472 -0.2147
  186MOL0     C25593   0.745   6.009   2.066 -0.8266 -0.1297  0.9388
  186MOL0     C25594   0.600   5.989   2.079 -0.3317  0.1265 -0.0052
  186MOL0     C25595   0.484   6.004   2.084  0.2493  0.9006  0.2009
  186MOL0     C25596   0.923   5.933   1.563  0.2712 -0.1454 -0.4432
  186MOL0     C25597   0.932   6.037   1.477  0.0961 -0.5375 -0.1098
  186MOL0     C25598   0.840   6.014   1.353  0.1976 -0.0620 -1.0489
  186MOL0     H25599   1.118   6.445   1.173  3.2478 -1.7246  1.3797
  186MOL0     H25600   1.180   6.665   1.095 -3.3858 -0.0908 -1.5732
  186MOL0     H25601   1.367   6.891   1.244  2.4344  2.1327  1.6897
  186MOL0     H25602   1.259   7.005   1.335  3.6458 -2.0680  2.3881
  186MOL0     H25603   1.397   7.097   1.145 -1.0448  2.1617 -0.2972
  186MOL0     H25604   1.316   6.992   1.035  2.4579  1.4426 -1.0719
  186MOL0     H25605   1.138   7.177   1.218  1.2772  3.9958  1.3071
  186MOL0     H25606   1.226   7.262   1.096  1.9498 -0.6874 -1.3782
  186MOL0     H25607   1.130   7.113   0.907 -0.1266  1.9959 -1.8628
  186MOL0     H25608   1.021   7.052   1.033 -1.5854  0.7244  0.2797
  186MOL0     H25609   1.053   7.336   0.931 -0.5526  0.3936  0.0698
  186MOL0     H25610   0.955   7.290   1.078 -2.1818  2.5193 -1.6856
  186MOL0     H25611   0.906   7.167   0.799 -1.7612  1.0045 -0.7523
  186MOL0     H25612   0.808   7.157   0.944 -0.4606 -0.0314  1.5901
  186MOL0     H25613   0.717   7.292   0.779  2.9070 -2.5295 -3.1668
  186MOL0     H25614   0.856   7.393   0.769 -2.0821 -0.6133 -1.6057
  186MOL0     H25615   0.812   7.472   1.025 -1.5541  1.6842  0.3990
  186MOL0     H25616   0.698   7.517   0.907  1.1008  1.5359 -0.1724
  186MOL0     H25617   0.691   7.374   1.248 -0.3422 -0.8355  0.3199
  186MOL0     H25618   0.570   7.133   1.357 -0.4460 -0.5540  0.8044
  186MOL0     H25619   0.429   7.083   1.257  0.2118  0.8489 -1.7623
  186MOL0     H25620   0.301   7.285   1.352  1.8762  1.4265 -0.6310
  186MOL0     H25621   0.357   7.176   1.480 -3.9201  0.4529  0.0477
  186MOL0     H25622   0.554   7.340   1.502 -0.1496 -0.7734  1.7965
  186MOL0     H25623   0.451   7.449   1.395 -2.8221 -2.3977 -3.0614
  186MOL0     H25624   0.326   7.524   1.566 -3.3210 -1.4633 -2.2360
  186MOL0     H25625   0.269   7.366   1.591  0.3321  0.0118 -1.1900
  186MOL0     H25626   0.315   7.255   1.862  2.0688  0.7221 -0.7352
  186MOL0     H25627   0.286   7.251   2.191 -0.3207 -0.1887  0.9100
  186MOL0     H25628   0.203   7.183   2.042  2.6538  1.9686 -3.8698
  186MOL0     H25629   0.126   7.309   2.143 -0.0637  3.0874 -0.6787
  186MOL0     H25630   0.208   7.409   2.439  0.1617 -1.2928  0.9108
  186MOL0     H25631   0.225   7.492   2.672 -1.7457 -1.1201  0.7790
  186MOL0     H25632   0.026   7.513   2.851  1.2559  0.3068 -2.6040
  186MOL0     H25633   0.175   7.598   2.885 -0.0254  1.8354 -1.4378
  186MOL0     H25634   0.047   7.603   3.076  0.4136 -1.3409 -1.1896
  186MOL0     H25635   0.025   7.772   3.010 -2.4953  1.1863 -0.6670
  186MOL0     H25636  -0.176   7.547   3.014 -0.2905  0.0930  3.3683
  186MOL0     H25637  -0.195   7.681   2.905 -2.5397 -0.3368  0.6964
  186MOL0     H25638  -0.218   7.842   3.089  4.0508 -0.1712  0.2300
  186MOL0     H25639  -0.179   7.730   3.214  3.8796 -0.6158 -0.7734
  186MOL0     H25640  -0.421   7.784   3.193  0.8880 -1.8115  1.5577
  186MOL0     H25641  -0.423   7.706   3.025  2.7641  1.8401 -2.2355
  186MOL0     H25642  -0.341   7.571   3.281 -3.1296 -1.2969  2.7183
  186MOL0     H25643  -0.383   7.498   3.114  0.3021  0.5262 -0.0985
  186MOL0     H25644  -0.572   7.655   3.285 -2.0271 -1.0317  2.7697
  186MOL0     H25645  -0.543   7.487   3.336  1.4194  0.5053 -0.1519
  186MOL0     H25646  -0.636   7.563   3.059 -1.4541  2.1224  1.5505
  186MOL0     H25647  -0.739   7.533   3.204 -0.6351 -1.9644  0.2267
  186MOL0     H25648  -0.058   7.797   2.576 -0.8458 -2.9433  4.1266
  186MOL0     H25649  -0.048   7.717   2.320  0.1902  0.9054 -0.8248
  186MOL0     H25650   0.352   7.731   1.975  1.4459 -0.6345 -3.8308
  186MOL0     H25651   0.432   7.659   1.777  0.3030 -1.4241 -2.0436
  186MOL0     H25652   1.188   6.813   1.483  1.3153  0.1485 -0.6108
  186MOL0     H25653   1.079   6.591   1.568 -2.8538  0.7320 -0.9078
  186MOL0     H25654   1.168   6.219   1.617  1.6022 -1.7440  0.7519
  186MOL0     H25655   1.151   6.043   1.795  2.2198 -0.1145 -0.6261
  186MOL0     H25656   1.061   5.719   1.934 -0.7539 -0.1923 -1.2858
  186MOL0     H25657   1.148   5.852   1.881 -0.6429  2.0550 -1.3008
  186MOL0     H25658   0.998   6.003   1.970 -1.5196  0.3381  1.4081
  186MOL0     H25659   1.013   5.878   2.098 -1.9207 -0.5308  1.0001
  186MOL0     H25660   0.791   5.886   1.887  0.9238  1.0306 -0.6724
  186MOL0     H25661   0.780   5.799   2.042 -1.6694  0.5589  0.4199
  186MOL0     H25662   0.766   6.104   2.017  0.0956  0.6355  2.7318
  186MOL0     H25663   0.780   6.022   2.169 -1.2937  2.0920  0.8633
  186MOL0     H25664   0.383   6.038   2.082 -0.2474 -0.5146 -0.2801
  186MOL0     H25665   0.850   5.856   1.540 -0.5929  0.1746  1.1192
  186MOL0     H25666   0.753   5.963   1.395  2.3424 -1.9029  1.4779
  186MOL0     H25667   0.805   6.104   1.300 -0.1956 -0.1340 -0.9189
  186MOL0     H25668   0.888   5.950   1.278  1.0425 -3.0372  1.7872
  187MOL0     O25669  10.968   7.173  10.561  0.3251  0.1151 -0.5175
  187MOL0     C25670  10.971   7.053  10.525 -0.2438 -0.7528 -0.7539
  187MOL0     O25671  10.929   7.014  10.407 -0.0927  0.2783 -0.3458
  187MOL0     C25672  10.876   7.092  10.310 -0.0216  0.4795 -0.7332
  187MOL0     C25673  10.958   7.128  10.207 -0.5531  0.1657  0.1097
  187MOL0     C25674  10.903   7.192  10.098  1.4539  0.1705  0.3655
  187MOL0     C25675  10.758   7.208  10.076  0.0435  0.0173 -0.4552
  187MOL0     O25676  10.687   7.267   9.971 -0.0630 -0.5234  0.1266
  187MOL0     C25677  10.765   7.320   9.862  0.7530  0.3429  0.3292
  187MOL0     C25678  10.670   7.353   9.751 -0.0884 -0.1531 -0.3472
  187MOL0     C25679  10.744   7.368   9.618 -0.2941 -0.7458  0.2953
  187MOL0     C25680  10.656   7.455   9.520  0.1313 -0.5188 -1.5018
  187MOL0     C25681  10.713   7.483   9.388  0.3981 -0.2057  0.1482
  187MOL0     C25682  10.843   7.557   9.387 -0.7107 -0.1428  0.4030
  187MOL0     C25683  10.899   7.574   9.242 -0.6472  0.2498  0.4886
  187MOL0     C25684  11.020   7.481   9.206  1.1885 -0.6562 -0.0841
  187MOL0     N25685  11.147   7.514   9.272  0.2813  0.3144 -0.1601
  187MOL0     C25686  11.249   7.603   9.251  0.3408  0.1871  1.0174
  187MOL0     C25687  11.354   7.563   9.325 -0.2952 -0.0367  0.7615
  187MOL0     C25688  11.485   7.640   9.329 -0.5751  0.6430  0.0541
  187MOL0     C25689  11.576   7.597   9.215 -0.4463 -0.1420 -0.1717
  187MOL0     C25690  11.721   7.652   9.213 -0.0425 -0.8192  0.6221
  187MOL0     C25691  11.738   7.803   9.204 -0.0270 -0.7802 -1.1070
  187MOL0     O25692  11.884   7.828   9.215  1.0602 -0.2065 -0.2802
  187MOL0     C25693  11.924   7.954   9.244  0.4230  0.2114  0.5329
  187MOL0     C25694  11.885   8.057   9.158 -1.7294  0.6614  0.6349
  187MOL0     C25695  11.961   8.176   9.164  0.6590  0.0244  0.4656
  187MOL0     C25696  11.934   8.285   9.052  0.0236  0.0564 -0.4750
  187MOL0     C25697  12.063   8.190   9.263  0.0804  1.2214  0.1919
  187MOL0     C25698  12.148   8.309   9.277  0.1340  0.4442 -0.0544
  187MOL0     O25699  12.263   8.304   9.335 -0.0610 -0.7393 -0.0171
  187MOL0     C25700  12.306   8.420   9.404  0.3031 -0.2636  0.0251
  187MOL0     C25701  12.280   8.430   9.537  0.2587 -0.2996  0.4791
  187MOL0     C25702  12.318   8.542   9.617  0.0196  0.1095 -0.2440
  187MOL0     C25703  12.378   8.658   9.553 -0.4328 -0.2968  0.2671
  187MOL0     O25704  12.409   8.757   9.641  0.1421 -1.0521  0.0200
  187MOL0     C25705  12.446   8.891   9.585  0.0920  0.5727 -0.1479
  187MOL0     C25706  12.439   8.991   9.702  0.3528  0.2543  0.3530
  187MOL0     C25707  12.463   9.140   9.657 -0.3070  0.4543 -0.0528
  187MOL0     C25708  12.339   9.205   9.612  0.1927 -0.1337 -0.5207
  187MOL0     C25709  12.345   9.336   9.526 -0.4888  0.3202 -0.2925
  187MOL0     C25710  12.384   9.310   9.384  0.0525  0.1477 -0.4574
  187MOL0     C25711  12.444   9.432   9.326 -0.3116 -0.3091  0.5434
  187MOL0     C25712  12.488   9.435   9.178 -0.7168 -1.0897  0.1574
  187MOL0    Cl25713  12.355   9.461   9.060  0.1321  0.1116 -0.0645
  187MOL0     C25714  12.409   8.646   9.410  0.3668 -0.1336  0.3537
  187MOL0     C25715  12.373   8.527   9.338 -0.8758 -1.1781  0.6495
  187MOL0     O25716  12.080   8.413   9.263  0.3846  0.0256  0.2342
  187MOL0     C25717  12.083   8.088   9.356  0.0134 -0.5517 -0.2683
  187MOL0     C25718  12.018   7.967   9.345  1.1724 -0.5391 -1.3094
  187MOL0     N25719  11.322   7.454   9.404  0.7095 -0.2828 -0.5092
  187MOL0     N25720  11.188   7.429   9.373 -0.4636  0.7415 -0.4316
  187MOL0     C25721  10.679   7.166  10.185  0.0681  0.1259  0.2246
  187MOL0     C25722  10.735   7.119  10.302 -0.9184  0.3421 -0.6178
  187MOL0     C25723  11.015   6.945  10.616 -1.1974  0.4533  0.1557
  187MOL0     C25724  10.979   6.815  10.585  0.6937  0.0871  0.0725
  187MOL0     C25725  11.013   6.713  10.665 -0.6932  0.5944 -0.3247
  187MOL0     C25726  11.081   6.741  10.788  1.3647 -0.0926 -0.8371
  187MOL0     O25727  11.116   6.656  10.889  0.1611 -0.3352 -0.4697
  187MOL0     C25728  11.053   6.529  10.871 -0.3175  0.0707 -0.6695
  187MOL0     C25729  11.096   6.428  10.983  0.2177 -1.3978  0.2583
  187MOL0     C25730  11.004   6.308  10.983  0.6144 -0.2028 -0.4340
  187MOL0     C25731  11.068   6.185  11.056 -0.6639 -0.4527 -0.5100
  187MOL0     C25732  11.058   6.199  11.199 -0.0751  0.0643 -1.7438
  187MOL0     C25733  11.049   6.202  11.319 -0.8186  0.2800 -0.4591
  187MOL0     C25734  11.111   6.869  10.821 -0.0524 -0.5306 -0.2826
  187MOL0     C25735  11.087   6.974  10.737 -0.9952  0.1144 -0.4145
  187MOL0     C25736  11.141   7.104  10.784 -0.5209  0.3426  0.5680
  187MOL0     H25737  11.066   7.124  10.219 -0.4249  3.4560  1.1947
  187MOL0     H25738  10.958   7.220  10.009  0.3901  3.7812  0.7063
  187MOL0     H25739  10.840   7.251   9.821 -0.5074 -1.2412  0.5790
  187MOL0     H25740  10.820   7.406   9.900  1.9893  0.4670 -1.5625
  187MOL0     H25741  10.593   7.277   9.736 -1.6066  1.1350  0.6301
  187MOL0     H25742  10.622   7.443   9.789 -1.5895 -1.7069  1.6469
  187MOL0     H25743  10.834   7.426   9.638 -0.8886  0.5878 -0.7531
  187MOL0     H25744  10.786   7.283   9.564 -0.4002 -1.2111  0.9346
  187MOL0     H25745  10.563   7.397   9.515  1.1752 -3.7580  5.0349
  187MOL0     H25746  10.643   7.553   9.567 -1.4241 -0.2344 -2.4613
  187MOL0     H25747  10.635   7.521   9.322  2.4886 -1.6056 -3.3830
  187MOL0     H25748  10.730   7.390   9.333  1.4642  0.3218 -0.4476
  187MOL0     H25749  10.817   7.653   9.433  0.2747 -0.5970  1.9950
  187MOL0     H25750  10.918   7.512   9.453 -2.4485  1.0825  3.3989
  187MOL0     H25751  10.927   7.678   9.222 -0.9807  0.2039 -0.2664
  187MOL0     H25752  10.813   7.547   9.180 -2.5044  0.5523  2.8128
  187MOL0     H25753  10.984   7.383   9.239 -0.9516  1.0082  3.0409
  187MOL0     H25754  11.045   7.479   9.100  0.9584 -4.0366 -0.1708
  187MOL0     H25755  11.257   7.683   9.178  0.9633 -1.7941 -1.2150
  187MOL0     H25756  11.524   7.624   9.430  1.6032 -0.8375 -0.9532
  187MOL0     H25757  11.458   7.746   9.328 -1.5114  0.4219 -1.3514
  187MOL0     H25758  11.582   7.488   9.222  0.2371 -0.0743  0.4790
  187MOL0     H25759  11.520   7.628   9.127 -0.4514  0.5547  0.0682
  187MOL0     H25760  11.775   7.618   9.303  1.4861  0.2905  0.1584
  187MOL0     H25761  11.781   7.625   9.126 -2.3253 -1.4502 -0.8385
  187MOL0     H25762  11.693   7.826   9.107 -0.3460  1.1997 -0.5387
  187MOL0     H25763  11.680   7.853   9.282  3.3566 -1.2654  2.0173
  187MOL0     H25764  11.812   8.041   9.079 -0.2324  1.8575 -1.0948
  187MOL0     H25765  11.886   8.234   8.967  0.9701 -0.1361 -0.9118
  187MOL0     H25766  12.030   8.323   9.016  0.4826 -0.1932  0.4523
  187MOL0     H25767  11.881   8.379   9.067  1.3039  0.7323 -0.0508
  187MOL0     H25768  12.230   8.355   9.597 -2.1933  1.0889  0.2821
  187MOL0     H25769  12.299   8.541   9.724  3.3114  0.0640  0.4406
  187MOL0     H25770  12.552   8.883   9.559  0.2881 -2.7212  1.1706
  187MOL0     H25771  12.392   8.921   9.495  1.3817  0.7704 -0.8922
  187MOL0     H25772  12.345   8.988   9.757 -1.1340 -0.9496 -2.0511
  187MOL0     H25773  12.527   8.969   9.763  1.6940  0.7219 -1.3004
  187MOL0     H25774  12.529   9.148   9.570 -1.8617  1.5255 -1.1801
  187MOL0     H25775  12.512   9.190   9.741 -0.2719 -3.6215  2.5989
  187MOL0     H25776  12.286   9.228   9.705 -1.4563  0.3905 -1.5635
  187MOL0     H25777  12.280   9.131   9.558  0.4068 -1.0617  0.4758
  187MOL0     H25778  12.248   9.387   9.523 -0.5044  0.3137  0.0462
  187MOL0     H25779  12.409   9.405   9.582  0.9189  3.8602 -5.4947
  187MOL0     H25780  12.290   9.288   9.333 -0.7268 -2.6573  1.9474
  187MOL0     H25781  12.456   9.228   9.380  0.0880  0.2087 -1.6223
  187MOL0     H25782  12.535   9.458   9.381  0.4593 -3.0441  0.7235
  187MOL0     H25783  12.363   9.503   9.344 -1.9819 -2.2057  0.7591
  187MOL0     H25784  12.541   9.340   9.171 -0.1355 -0.8676  1.3345
  187MOL0     H25785  12.568   9.508   9.163  0.2288 -2.7420 -4.7822
  187MOL0     H25786  12.477   8.714   9.361  1.0623 -0.0224  1.4258
  187MOL0     H25787  12.416   8.522   9.238 -3.5461 -0.1815 -0.6507
  187MOL0     H25788  12.143   8.102   9.444 -3.1272 -1.9582  2.3136
  187MOL0     H25789  12.016   7.889   9.420 -3.6277 -1.9756 -2.6356
  187MOL0     H25790  10.572   7.183  10.177  0.1906  1.5341  1.2003
  187MOL0     H25791  10.665   7.095  10.382 -0.1114  2.5746  0.8684
  187MOL0     H25792  10.941   6.792  10.486  3.6718 -3.1251 -0.5395
  187MOL0     H25793  10.979   6.616  10.631  0.7741  0.9853 -3.1661
  187MOL0     H25794  10.946   6.540  10.890  0.2748  2.8745  1.8948
  187MOL0     H25795  11.070   6.495  10.769  0.5765  5.6337 -2.7249
  187MOL0     H25796  11.103   6.482  11.078  2.5493 -2.8936  1.0271
  187MOL0     H25797  11.193   6.393  10.946  0.4951 -0.4136  0.0493
  187MOL0     H25798  10.902   6.335  11.012  0.8659 -1.2891  1.6240
  187MOL0     H25799  10.995   6.277  10.879  2.5021 -0.5855 -0.5292
  187MOL0     H25800  11.172   6.171  11.026  0.6906  1.0744  2.9235
  187MOL0     H25801  11.003   6.106  11.016 -1.6171 -1.6626  3.0541
  187MOL0     H25802  11.024   6.207  11.424 -2.0501 -0.4397 -0.6884
  187MOL0     H25803  11.161   6.892  10.914  1.4185  2.4615 -1.6931
  187MOL0     H25804  11.201   7.105  10.875 -1.3765  2.0029  1.1654
  187MOL0     H25805  11.200   7.135  10.698  0.0055 -0.2137  0.7247
  187MOL0     H25806  11.064   7.180  10.802 -1.5200 -1.0257  2.5106
  188MOL0     O25807  10.927   4.651   3.135  0.1681 -0.2331  0.5908
  188MOL0     C25808  10.910   4.734   3.051 -0.0873 -0.1192  0.5851
  188MOL0     O25809  10.944   4.866   3.055 -0.0660 -0.4566 -1.0615
  188MOL0     C25810  11.004   4.924   3.167 -0.9230  0.2861 -0.3611
  188MOL0     C25811  11.071   4.856   3.275 -0.3917  0.2105 -0.6780
  188MOL0     C25812  11.112   4.929   3.384  0.3041 -0.0616  0.1878
  188MOL0     C25813  11.096   5.072   3.372 -0.2032  0.1364 -0.9648
  188MOL0     O25814  11.157   5.134   3.481 -0.1820 -0.3236  1.0694
  188MOL0     C25815  11.195   5.271   3.478  0.1388 -0.3055  1.0705
  188MOL0     C25816  11.319   5.282   3.566  0.6461 -0.0070  0.2448
  188MOL0     C25817  11.336   5.431   3.594  0.2536  1.2489 -0.6776
  188MOL0     C25818  11.445   5.437   3.689 -0.9364 -0.4655 -0.3671
  188MOL0     C25819  11.466   5.584   3.732  0.8314 -0.0183 -0.8468
  188MOL0     C25820  11.331   5.644   3.799 -0.2082 -0.8216 -0.6574
  188MOL0     C25821  11.379   5.769   3.875 -0.6388 -0.3909 -0.4144
  188MOL0     C25822  11.362   5.759   4.026 -0.4207 -0.1796  0.1751
  188MOL0     N25823  11.434   5.872   4.101  1.2580 -0.5512  0.4390
  188MOL0     C25824  11.555   5.925   4.064  0.0309  0.2322  0.7467
  188MOL0     C25825  11.573   6.030   4.150  0.7779  0.9281  0.7945
  188MOL0     C25826  11.683   6.116   4.156  0.1713  0.3421  0.6011
  188MOL0     C25827  11.635   6.254   4.119 -1.2279  0.1668  0.0622
  188MOL0     C25828  11.737   6.364   4.132  0.3075  0.2631  0.8309
  188MOL0     C25829  11.782   6.380   4.271  0.4199  0.2555 -0.6567
  188MOL0     O25830  11.909   6.311   4.293  0.0699 -0.1542 -0.4894
  188MOL0     C25831  11.929   6.303   4.422 -1.0516 -0.4478 -0.9931
  188MOL0     C25832  11.982   6.421   4.489  0.1981 -0.3009  0.6202
  188MOL0     C25833  12.026   6.399   4.622 -0.0087 -1.0027  0.5430
  188MOL0     C25834  12.076   6.525   4.689  0.1355  0.1399  0.3054
  188MOL0     C25835  12.005   6.281   4.693 -0.1220  1.3158 -0.5752
  188MOL0     C25836  12.017   6.268   4.834  0.0016 -0.2291 -0.1013
  188MOL0     O25837  12.043   6.132   4.877  0.4143  0.8333  0.1484
  188MOL0     C25838  12.075   6.108   5.009  0.8680 -0.0335  0.3424
  188MOL0     C25839  12.181   6.027   5.040  0.2936  0.1658  0.1877
  188MOL0     C25840  12.215   5.998   5.175  0.3190 -0.2510 -0.4077
  188MOL0     C25841  12.155   6.060   5.285  0.1050  0.1962  0.5674
  188MOL0     O25842  12.216   6.042   5.409  0.0803 -0.1472 -0.2742
  188MOL0     C25843  12.142   6.071   5.529  0.4102  0.3383 -0.3858
  188MOL0     C25844  12.022   5.973   5.551  0.5569 -0.1177  0.8360
  188MOL0     C25845  11.912   6.009   5.658  0.3543 -0.8414 -0.7567
  188MOL0     C25846  11.984   6.012   5.792 -0.0417 -0.1176 -0.0335
  188MOL0     C25847  11.880   6.046   5.906 -0.0491 -1.0111 -0.2786
  188MOL0     C25848  11.934   6.068   6.049 -1.0678  0.2811 -0.7324
  188MOL0     C25849  12.025   5.955   6.104 -0.3081  0.4482  0.5125
  188MOL0     C25850  12.153   6.001   6.174  0.3734 -0.4151 -0.3541
  188MOL0    Cl25851  12.275   6.105   6.075  0.1092  0.0441 -0.0338
  188MOL0     C25852  12.039   6.132   5.256  0.3276 -0.9348  0.4588
  188MOL0     C25853  12.000   6.155   5.113  0.2464 -0.6372 -0.2876
  188MOL0     O25854  11.996   6.361   4.908 -0.6849 -0.8071 -0.3632
  188MOL0     C25855  11.946   6.176   4.623  0.7490 -0.6568  0.0101
  188MOL0     C25856  11.918   6.181   4.486  0.1183  1.0197 -0.8183
  188MOL0     N25857  11.455   6.046   4.215 -0.2002  0.3204 -0.3704
  188MOL0     N25858  11.361   5.951   4.192  0.6766  0.9603  0.0550
  188MOL0     C25859  11.024   5.137   3.275  0.6757  0.7896 -0.3453
  188MOL0     C25860  10.984   5.066   3.168  0.3170 -1.1754  0.3987
  188MOL0     C25861  10.877   4.682   2.914 -0.2281  0.2216 -0.5399
  188MOL0     C25862  10.928   4.751   2.806  0.4447  0.4322  1.2956
  188MOL0     C25863  10.894   4.710   2.672  0.0626  0.4551 -0.7877
  188MOL0     C25864  10.827   4.589   2.662 -0.1491  0.0912 -0.4371
  188MOL0     O25865  10.805   4.549   2.536  0.0317  0.0885  0.3153
  188MOL0     C25866  10.836   4.411   2.493 -0.8073 -0.1592  0.5677
  188MOL0     C25867  10.714   4.325   2.472  0.1273  0.1909 -0.2500
  188MOL0     C25868  10.613   4.395   2.384 -0.3878  0.4401  0.1694
  188MOL0     C25869  10.474   4.348   2.419 -0.1738  0.0055  0.1094
  188MOL0     C25870  10.375   4.401   2.326 -0.0173 -0.0450  0.2887
  188MOL0     C25871  10.299   4.460   2.253  0.7009  0.3531  0.2373
  188MOL0     C25872  10.772   4.519   2.775 -0.5343  0.0153  1.0369
  188MOL0     C25873  10.782   4.573   2.899  0.3832  0.4317 -0.9729
  188MOL0     C25874  10.713   4.490   3.005 -0.2224  0.3455  0.1444
  188MOL0     H25875  11.098   4.751   3.271  1.8630  0.7768 -2.6647
  188MOL0     H25876  11.173   4.890   3.464  1.5051  1.4678  0.0723
  188MOL0     H25877  11.116   5.340   3.508  0.3541  0.1412  0.6323
  188MOL0     H25878  11.224   5.295   3.375  0.7249  0.2407  1.3516
  188MOL0     H25879  11.295   5.235   3.661 -0.8560  1.8834  0.8741
  188MOL0     H25880  11.408   5.250   3.511  0.3725 -2.0922  0.9446
  188MOL0     H25881  11.361   5.492   3.507  0.6374  0.9254 -0.7992
  188MOL0     H25882  11.244   5.465   3.643  0.4329  1.0008 -0.1532
  188MOL0     H25883  11.407   5.385   3.778  0.1637  0.7656  0.8709
  188MOL0     H25884  11.537   5.403   3.641 -0.7657  1.8685 -1.8404
  188MOL0     H25885  11.490   5.645   3.645 -1.6419  2.8106  0.2767
  188MOL0     H25886  11.542   5.587   3.811  0.2276 -1.7422 -0.1405
  188MOL0     H25887  11.264   5.676   3.719  2.0258  2.9085 -1.2792
  188MOL0     H25888  11.292   5.571   3.871 -0.4867 -1.8575 -1.8405
  188MOL0     H25889  11.343   5.862   3.830  5.0890  2.6090  0.1505
  188MOL0     H25890  11.488   5.775   3.862 -0.5563  0.0057  0.3855
  188MOL0     H25891  11.255   5.762   4.045 -0.3473 -1.4038  0.9047
  188MOL0     H25892  11.387   5.666   4.078  0.7900  0.5694  0.9919
  188MOL0     H25893  11.625   5.877   3.996 -1.7097 -1.2799 -0.0744
  188MOL0     H25894  11.759   6.082   4.085  0.1691  2.1490 -0.3167
  188MOL0     H25895  11.725   6.124   4.257  0.0815  0.1703  0.6532
  188MOL0     H25896  11.608   6.241   4.014  5.5250 -1.2139 -1.9784
  188MOL0     H25897  11.545   6.289   4.171  1.9032  3.8026  3.6936
  188MOL0     H25898  11.823   6.345   4.067 -2.9455 -2.1052 -3.2691
  188MOL0     H25899  11.709   6.457   4.080  0.8308 -1.8769 -3.7673
  188MOL0     H25900  11.795   6.488   4.284  1.4535  0.1628 -0.8216
  188MOL0     H25901  11.696   6.346   4.330  1.0393  1.1966  0.8681
  188MOL0     H25902  12.011   6.507   4.429  1.3312 -1.1248 -0.0625
  188MOL0     H25903  11.992   6.569   4.743 -1.4098 -1.2967 -0.8177
  188MOL0     H25904  12.112   6.598   4.616 -0.1011 -0.3549 -0.3152
  188MOL0     H25905  12.159   6.511   4.759 -0.3465  3.3065  1.6804
  188MOL0     H25906  12.237   5.977   4.961 -2.5793 -1.5791 -0.9306
  188MOL0     H25907  12.308   5.943   5.185  1.2347  1.1537 -0.8341
  188MOL0     H25908  12.208   6.046   5.613 -1.3747 -2.0925  0.4049
  188MOL0     H25909  12.115   6.176   5.534 -0.0070  0.1944  0.7726
  188MOL0     H25910  11.965   5.983   5.458  0.7528 -1.1761  0.5953
  188MOL0     H25911  12.066   5.873   5.554  1.0276  0.0952  3.0947
  188MOL0     H25912  11.830   5.938   5.663 -1.4121  1.0276 -1.6359
  188MOL0     H25913  11.872   6.102   5.617 -3.3272 -2.3182 -0.8114
  188MOL0     H25914  12.065   6.085   5.787  1.2162 -1.4906 -0.3212
  188MOL0     H25915  12.024   5.913   5.819  0.0628  0.7964  3.7245
  188MOL0     H25916  11.843   6.140   5.864  1.1011  0.4991  1.8998
  188MOL0     H25917  11.799   5.973   5.905 -3.1622  2.1420 -2.3634
  188MOL0     H25918  11.853   6.089   6.119 -0.6237 -0.9201  0.1692
  188MOL0     H25919  11.999   6.157   6.050  0.5962 -0.8902  0.6526
  188MOL0     H25920  12.062   5.887   6.027  0.1894  2.3209 -0.9844
  188MOL0     H25921  11.966   5.884   6.162  2.0885 -4.8118 -2.7220
  188MOL0     H25922  12.189   5.912   6.228 -2.5293 -0.1376  2.3810
  188MOL0     H25923  12.120   6.068   6.254  2.0784 -1.0984  1.0047
  188MOL0     H25924  11.973   6.170   5.333  0.3414 -1.2047  0.6058
  188MOL0     H25925  11.909   6.213   5.097 -0.3289 -1.2343  0.6911
  188MOL0     H25926  11.909   6.089   4.675  0.6918 -1.8924 -1.9772
  188MOL0     H25927  11.897   6.087   4.436  1.2548 -0.6121  1.5718
  188MOL0     H25928  11.000   5.243   3.277 -1.7532  0.3055  1.5656
  188MOL0     H25929  10.936   5.119   3.086  1.1017  0.9158  1.2256
  188MOL0     H25930  10.987   4.840   2.824  0.8704  1.6929 -4.5279
  188MOL0     H25931  10.936   4.743   2.578  1.6432 -1.7977 -0.9496
  188MOL0     H25932  10.890   4.404   2.397  0.0812 -1.6465  1.1439
  188MOL0     H25933  10.899   4.368   2.572  1.9584  0.9745 -0.8642
  188MOL0     H25934  10.681   4.295   2.572 -0.1547 -0.9382 -0.6647
  188MOL0     H25935  10.734   4.225   2.434 -1.6340 -0.8690  1.4511
  188MOL0     H25936  10.624   4.504   2.379 -2.7066  0.7004 -1.2211
  188MOL0     H25937  10.631   4.366   2.280  2.4154  0.0546  0.6981
  188MOL0     H25938  10.455   4.379   2.522  0.7064  3.7966 -0.7066
  188MOL0     H25939  10.486   4.242   2.396 -2.0622  0.4586 -3.7861
  188MOL0     H25940  10.244   4.521   2.185 -2.7095 -2.2011  0.4720
  188MOL0     H25941  10.693   4.444   2.765 -1.1343  0.1780  3.7662
  188MOL0     H25942  10.689   4.542   3.098  2.4305  0.5516  0.7836
  188MOL0     H25943  10.631   4.436   2.955  0.4064 -0.0957 -0.4349
  188MOL0     H25944  10.795   4.420   3.023  2.7959  3.6938  0.5328
  189MOL0     O25945   9.230  11.465   7.164 -0.0284  0.3742 -0.2227
  189MOL0     C25946   9.263  11.430   7.051 -0.5008  0.0523 -0.6513
  189MOL0     O25947   9.355  11.500   6.976  0.2002  0.0551  0.1034
  189MOL0     C25948   9.437  11.603   7.016 -0.4632  0.5078  0.5667
  189MOL0     C25949   9.452  11.649   7.149  0.9026 -0.1255  0.5264
  189MOL0     C25950   9.536  11.763   7.179  1.8879  0.0361  0.2321
  189MOL0     C25951   9.604  11.840   7.080 -0.6104  0.0984  0.1605
  189MOL0     O25952   9.681  11.945   7.126 -0.3034  0.2470  0.4302
  189MOL0     C25953   9.726  12.037   7.025 -0.3223  0.2731  1.0955
  189MOL0     C25954   9.839  12.121   7.092 -0.0436 -0.0688 -0.4131
  189MOL0     C25955   9.774  12.215   7.198 -0.5912 -0.2977 -0.1383
  189MOL0     C25956   9.867  12.336   7.240  0.1635  0.2854 -0.5289
  189MOL0     C25957   9.812  12.465   7.203  0.2256  0.0717  0.4896
  189MOL0     C25958   9.917  12.576   7.236  0.2882 -0.0541 -0.5977
  189MOL0     C25959   9.860  12.712   7.202 -0.1100 -0.3518 -0.5743
  189MOL0     C25960   9.961  12.828   7.238 -0.8060  0.2158  0.4152
  189MOL0     N25961   9.993  12.825   7.384  1.0655  0.5822 -0.3197
  189MOL0     C25962   9.913  12.874   7.494 -0.1406  0.5688 -0.2368
  189MOL0     C25963   9.970  12.850   7.610 -0.5686  0.3004  0.1457
  189MOL0     C25964   9.936  12.909   7.738  1.1723 -0.7798 -0.5764
  189MOL0     C25965   9.858  12.813   7.835 -0.3370 -0.0874 -0.1722
  189MOL0     C25966   9.716  12.785   7.789  0.8455  0.4182  0.7503
  189MOL0     C25967   9.631  12.909   7.824 -0.0797 -0.4137 -0.1013
  189MOL0     O25968   9.492  12.892   7.818  0.5788 -0.0667 -0.5162
  189MOL0     C25969   9.412  13.002   7.827 -0.0769 -0.1765 -0.6741
  189MOL0     C25970   9.463  13.135   7.841 -0.8231  0.9802  0.5178
  189MOL0     C25971   9.385  13.237   7.871 -0.4090  0.0232  1.0935
  189MOL0     C25972   9.464  13.367   7.884 -0.6912  0.0856  0.6354
  189MOL0     C25973   9.242  13.221   7.892 -0.4141  0.5211  0.1185
  189MOL0     C25974   9.160  13.328   7.954 -0.6424  0.3511  0.1184
  189MOL0     O25975   9.201  13.463   7.935 -0.3995  0.2710  0.7096
  189MOL0     C25976   9.119  13.572   7.955 -0.7396 -0.1128 -0.2338
  189MOL0     C25977   8.991  13.596   7.892  0.1551 -0.1350 -0.1331
  189MOL0     C25978   8.921  13.710   7.917  1.1278  0.1720 -0.0497
  189MOL0     C25979   8.965  13.807   8.007 -0.1362  0.7982  0.0616
  189MOL0     O25980   8.886  13.921   8.006 -1.0462 -0.4051  0.7492
  189MOL0     C25981   8.857  13.971   8.138  0.1179 -0.1062  0.1090
  189MOL0     C25982   8.729  14.054   8.139 -0.0550  0.0436  0.0399
  189MOL0     C25983   8.701  14.110   8.276  0.2685 -0.5397 -0.4424
  189MOL0     C25984   8.546  14.119   8.282  0.3004  0.0179 -0.7113
  189MOL0     C25985   8.501  14.166   8.414  1.6112  0.2644 -0.1326
  189MOL0     C25986   8.347  14.172   8.439 -0.4660 -1.1384  0.0869
  189MOL0     C25987   8.324  14.185   8.583  0.2397 -0.5255 -0.3449
  189MOL0     C25988   8.174  14.162   8.602  0.0784 -0.5768  0.7279
  189MOL0    Cl25989   8.073  14.244   8.477  0.2005  0.0304 -0.2785
  189MOL0     C25990   9.089  13.783   8.073  0.2147  0.1030 -0.0489
  189MOL0     C25991   9.165  13.668   8.047  0.4111  0.4507  0.4861
  189MOL0     O25992   9.049  13.292   7.992 -0.4263 -0.2256 -0.0860
  189MOL0     C25993   9.188  13.092   7.866 -0.5117  0.6656 -1.2318
  189MOL0     C25994   9.274  12.989   7.837  0.2593  0.3005 -1.4540
  189MOL0     N25995  10.087  12.793   7.571 -0.1825  0.1747  0.6101
  189MOL0     N25996  10.095  12.774   7.445  0.1915  0.0443  0.2695
  189MOL0     C25997   9.582  11.793   6.947 -0.0188  0.4037  0.7599
  189MOL0     C25998   9.504  11.672   6.905 -1.0263  0.6658  0.8386
  189MOL0     C25999   9.192  11.314   6.993 -0.0881 -0.1445 -0.3237
  189MOL0     C26000   9.182  11.326   6.852 -1.4203 -0.1142 -0.9094
  189MOL0     C26001   9.124  11.217   6.783  0.1638 -0.0093  0.3121
  189MOL0     C26002   9.074  11.104   6.857 -0.3682  0.0441  0.0621
  189MOL0     O26003   9.021  10.998   6.799  0.3969  0.0585 -0.0886
  189MOL0     C26004   9.024  10.973   6.657  0.0709  0.6110  0.1801
  189MOL0     C26005   9.160  10.927   6.604 -1.3371  1.0490 -0.6913
  189MOL0     C26006   9.201  10.790   6.686  0.3302  0.0763 -1.0524
  189MOL0     C26007   9.343  10.807   6.738 -1.0093 -1.7168 -0.2596
  189MOL0     C26008   9.446  10.793   6.636  0.1373  0.7040  0.1585
  189MOL0     C26009   9.530  10.788   6.550 -0.2930  0.0446  0.1704
  189MOL0     C26010   9.089  11.095   6.990  1.0776  0.0534 -0.6220
  189MOL0     C26011   9.137  11.205   7.063 -0.1862  0.2407  0.5505
  189MOL0     C26012   9.139  11.187   7.207 -0.1038  0.2617  0.6640
  189MOL0     H26013   9.409  11.600   7.235  0.5078 -2.0238 -0.6863
  189MOL0     H26014   9.542  11.784   7.285  0.0450  0.9282  0.2112
  189MOL0     H26015   9.641  12.103   7.002 -0.5049  0.6372  2.6784
  189MOL0     H26016   9.765  11.993   6.933 -0.6543  0.6985  0.7458
  189MOL0     H26017   9.915  12.064   7.146  0.4506 -0.8354 -1.8778
  189MOL0     H26018   9.871  12.184   7.009 -4.1719  0.2504 -2.0132
  189MOL0     H26019   9.677  12.253   7.165  0.5371  2.5251 -0.4899
  189MOL0     H26020   9.753  12.159   7.290  1.8105  2.5136  2.3649
  189MOL0     H26021   9.882  12.326   7.348 -0.4273  0.0933 -0.4581
  189MOL0     H26022   9.963  12.311   7.195 -1.3532 -4.1802 -1.8060
  189MOL0     H26023   9.720  12.487   7.258  0.4829  1.9954  0.2388
  189MOL0     H26024   9.801  12.465   7.095  0.4213 -5.5733  0.1631
  189MOL0     H26025   9.927  12.568   7.345 -0.8802 -2.6201 -0.6036
  189MOL0     H26026  10.009  12.558   7.179 -0.4958  0.7532 -2.1765
  189MOL0     H26027   9.768  12.733   7.258 -0.4065 -1.6959 -0.5322
  189MOL0     H26028   9.847  12.719   7.094  3.8049  0.1869 -1.1595
  189MOL0     H26029  10.045  12.835   7.169 -3.1025  1.6405 -2.5014
  189MOL0     H26030   9.904  12.920   7.221 -1.4754 -0.7547 -3.5637
  189MOL0     H26031   9.822  12.929   7.473 -0.5220 -0.3135 -0.9963
  189MOL0     H26032   9.867  12.992   7.721  1.1482 -0.8113 -0.6317
  189MOL0     H26033  10.019  12.949   7.797  0.9287 -1.2815  0.1197
  189MOL0     H26034   9.911  12.719   7.853  2.4804  1.5102  0.4929
  189MOL0     H26035   9.865  12.869   7.929  2.9276  1.7675 -1.3550
  189MOL0     H26036   9.724  12.755   7.684  0.0911  0.7129  0.5943
  189MOL0     H26037   9.672  12.701   7.844  0.6018 -0.6798 -1.0330
  189MOL0     H26038   9.650  12.943   7.926 -1.1795  1.9170 -0.5944
  189MOL0     H26039   9.660  12.991   7.758  0.4613 -1.2640 -0.9532
  189MOL0     H26040   9.569  13.155   7.827 -0.9447  1.0273 -0.4070
  189MOL0     H26041   9.574  13.364   7.880 -0.5805  3.0048 -1.1203
  189MOL0     H26042   9.444  13.398   7.987  3.6032 -0.1895  1.7773
  189MOL0     H26043   9.449  13.440   7.805 -1.0030 -1.0739 -0.4140
  189MOL0     H26044   8.945  13.547   7.806 -2.1584 -1.1354  1.5682
  189MOL0     H26045   8.830  13.736   7.865 -1.2604  0.0482  3.6965
  189MOL0     H26046   8.858  13.891   8.212  0.6811 -1.6817 -1.5053
  189MOL0     H26047   8.935  14.042   8.165  2.5476 -2.7906  0.6933
  189MOL0     H26048   8.733  14.134   8.065  0.2885  0.9340  0.9968
  189MOL0     H26049   8.652  13.981   8.111  0.0188 -1.5718  3.4531
  189MOL0     H26050   8.747  14.209   8.286  0.8797 -0.4872 -3.0000
  189MOL0     H26051   8.739  14.049   8.358 -0.3311  0.4300  0.5726
  189MOL0     H26052   8.505  14.022   8.254  1.1860 -0.1657 -1.4351
  189MOL0     H26053   8.511  14.187   8.204 -0.0202 -0.8555 -1.3494
  189MOL0     H26054   8.538  14.098   8.491  0.9795  4.1095  3.9962
  189MOL0     H26055   8.533  14.267   8.441 -1.5857  1.2415  0.5051
  189MOL0     H26056   8.307  14.078   8.401 -1.9450  0.5538 -3.0153
  189MOL0     H26057   8.300  14.250   8.377  0.2453  0.1204  1.0747
  189MOL0     H26058   8.343  14.288   8.614 -0.0069 -0.9435  1.2766
  189MOL0     H26059   8.394  14.114   8.627  0.0829 -0.4367  0.0497
  189MOL0     H26060   8.139  14.198   8.700 -2.5965 -1.5391  0.2078
  189MOL0     H26061   8.157  14.054   8.613 -0.4387 -0.4070  1.7423
  189MOL0     H26062   9.123  13.859   8.142 -0.5688  2.5753 -2.2276
  189MOL0     H26063   9.262  13.654   8.095 -0.0597  2.7615  2.3140
  189MOL0     H26064   9.082  13.077   7.883 -0.0946  1.1133  2.8686
  189MOL0     H26065   9.232  12.891   7.817 -1.0480  0.1840  1.3351
  189MOL0     H26066   9.627  11.857   6.873 -3.2783  2.0629  0.0243
  189MOL0     H26067   9.505  11.628   6.806  0.7428 -1.4632  1.7364
  189MOL0     H26068   9.217  11.413   6.798  0.7269  0.7331  1.6515
  189MOL0     H26069   9.110  11.222   6.675 -0.9969 -0.9013  0.3978
  189MOL0     H26070   8.943  10.901   6.657 -0.9218  1.6509  1.9712
  189MOL0     H26071   8.989  11.059   6.598 -1.1504  0.1165  0.1648
  189MOL0     H26072   9.246  10.995   6.609  0.8387 -1.4143 -1.9187
  189MOL0     H26073   9.160  10.888   6.502  4.0156  0.5917 -0.8093
  189MOL0     H26074   9.131  10.770   6.768  1.3070 -0.6198 -0.3560
  189MOL0     H26075   9.209  10.707   6.615  3.6144  0.9632 -1.8727
  189MOL0     H26076   9.362  10.743   6.825  2.0321  0.9354  1.2543
  189MOL0     H26077   9.348  10.907   6.782  0.3341 -1.3763 -1.1156
  189MOL0     H26078   9.612  10.795   6.482  0.0467  2.4277  0.7299
  189MOL0     H26079   9.068  11.000   7.037 -0.9968 -0.6477 -2.8236
  189MOL0     H26080   9.080  11.108   7.254  0.9968 -2.2344 -1.8476
  189MOL0     H26081   9.242  11.161   7.234  0.2357  1.1108  0.2344
  189MOL0     H26082   9.122  11.280   7.263 -0.5839 -1.1786  3.0417
  190MOL0     O26083   8.017   6.266   3.825 -0.8058 -0.1532  0.5075
  190MOL0     C26084   8.023   6.178   3.738  0.3035  0.3327  0.5509
  190MOL0     O26085   8.097   6.066   3.750 -0.3351 -0.0163 -0.1977
  190MOL0     C26086   8.187   6.064   3.856  0.1225 -0.3761  0.0582
  190MOL0     C26087   8.314   6.104   3.823  0.5550  1.0698 -0.3546
  190MOL0     C26088   8.414   6.092   3.917  0.1205  0.6705  0.2798
  190MOL0     C26089   8.382   6.066   4.053 -0.1099  0.2299 -0.3088
  190MOL0     O26090   8.477   6.061   4.151  0.8270 -0.0540  0.1991
  190MOL0     C26091   8.498   5.940   4.219  0.4225  0.3829  0.1680
  190MOL0     C26092   8.458   5.936   4.363  0.4043  0.0977 -0.3507
  190MOL0     C26093   8.511   6.063   4.438  0.0230  0.0395  0.3936
  190MOL0     C26094   8.501   6.050   4.595  0.0164 -0.1230  0.1441
  190MOL0     C26095   8.357   6.047   4.654 -0.4439  0.1915 -1.5464
  190MOL0     C26096   8.250   6.133   4.592  0.4802  1.3508 -0.1435
  190MOL0     C26097   8.236   6.275   4.649 -0.9810 -0.5259 -0.4439
  190MOL0     C26098   8.105   6.341   4.610  0.4546 -0.4963 -0.1002
  190MOL0     N26099   8.102   6.479   4.665  0.0653 -0.3058 -0.0142
  190MOL0     C26100   8.170   6.585   4.623  0.4806 -0.3069 -0.2012
  190MOL0     C26101   8.124   6.689   4.688 -0.8165  0.3841  0.1641
  190MOL0     C26102   8.179   6.827   4.689 -0.2074 -0.2633 -0.2037
  190MOL0     C26103   8.087   6.937   4.764 -0.1945  0.7651  0.0725
  190MOL0     C26104   8.148   7.076   4.733  1.2919  0.0017  0.3141
  190MOL0     C26105   8.070   7.200   4.789 -0.6365 -0.0188  1.2217
  190MOL0     O26106   8.096   7.221   4.925  0.4804  0.4787  0.2614
  190MOL0     C26107   8.166   7.335   4.947  0.0190 -1.3194  0.0222
  190MOL0     C26108   8.299   7.327   4.987 -0.1194 -0.6237 -0.9727
  190MOL0     C26109   8.367   7.446   5.024  0.4605  0.7006  0.1830
  190MOL0     C26110   8.500   7.431   5.084  0.0362 -0.0419  0.5080
  190MOL0     C26111   8.309   7.574   5.013 -0.0037 -0.4422 -1.0200
  190MOL0     C26112   8.371   7.703   5.060  0.6278 -0.2791  0.0728
  190MOL0     O26113   8.332   7.818   4.998 -0.4277  0.4092 -0.5242
  190MOL0     C26114   8.409   7.929   5.024  0.1865 -0.7465 -0.1475
  190MOL0     C26115   8.343   8.013   5.117  0.4132  0.4601  0.0897
  190MOL0     C26116   8.393   8.144   5.141  0.5100 -0.1070 -0.5673
  190MOL0     C26117   8.505   8.188   5.074  0.0042 -0.2551 -0.4114
  190MOL0     O26118   8.546   8.316   5.085 -0.2768 -0.1998  0.2763
  190MOL0     C26119   8.660   8.324   5.165  0.3902  0.0010  0.0472
  190MOL0     C26120   8.709   8.464   5.185  0.2813  0.4077 -0.0486
  190MOL0     C26121   8.603   8.551   5.252 -0.4051  0.2795 -0.6749
  190MOL0     C26122   8.646   8.702   5.254 -0.4190  1.3569  0.6290
  190MOL0     C26123   8.572   8.783   5.352 -0.6275  0.0059 -0.5413
  190MOL0     C26124   8.615   8.927   5.344  0.3433  0.1966 -0.1605
  190MOL0     C26125   8.765   8.957   5.399 -0.4539  0.3228  0.4832
  190MOL0     C26126   8.805   9.102   5.409 -0.5595  0.3994  1.0962
  190MOL0    Cl26127   8.969   9.101   5.476 -0.2228  0.2851 -0.0333
  190MOL0     C26128   8.588   8.092   5.006  0.0533  0.6131  0.6997
  190MOL0     C26129   8.536   7.966   4.967 -0.0596 -0.0429  0.4074
  190MOL0     O26130   8.450   7.702   5.148 -0.0950 -0.1041 -0.4905
  190MOL0     C26131   8.177   7.584   4.968  0.3899  0.3335 -0.5193
  190MOL0     C26132   8.109   7.468   4.919 -0.7087 -0.0621 -0.0129
  190MOL0     N26133   8.021   6.644   4.774 -0.9297 -0.5795 -0.3561
  190MOL0     N26134   8.003   6.521   4.759 -0.1176  0.2659  0.7137
  190MOL0     C26135   8.251   6.035   4.089  0.3578 -0.5582  0.2163
  190MOL0     C26136   8.150   6.043   3.992  0.1065 -0.6319  0.0873
  190MOL0     C26137   7.944   6.186   3.609 -0.4225 -0.1478  0.0931
  190MOL0     C26138   8.014   6.139   3.495  0.3444  0.6316  1.8147
  190MOL0     C26139   7.950   6.133   3.367 -0.1778  0.1226 -0.3888
  190MOL0     C26140   7.816   6.168   3.358 -0.3443 -0.2990  0.4513
  190MOL0     O26141   7.745   6.182   3.244 -0.2551 -0.3885 -0.6518
  190MOL0     C26142   7.803   6.166   3.108  0.2983  0.2632 -0.3818
  190MOL0     C26143   7.707   6.087   3.015 -1.2422  0.5090  0.4419
  190MOL0     C26144   7.558   6.106   3.040 -0.9119  0.4092 -0.3975
  190MOL0     C26145   7.462   6.068   2.936 -0.2494 -0.0992 -0.1284
  190MOL0     C26146   7.481   5.920   2.932  0.7059  0.2296 -0.0389
  190MOL0     C26147   7.465   5.798   2.929 -0.1639 -0.1461 -1.1880
  190MOL0     C26148   7.749   6.227   3.467 -0.6332 -0.5166 -0.5031
  190MOL0     C26149   7.813   6.242   3.589 -1.4123  0.1696  0.4324
  190MOL0     C26150   7.742   6.306   3.700 -0.3500 -0.6641  0.5870
  190MOL0     H26151   8.346   6.132   3.723  1.9403 -1.6272 -0.7353
  190MOL0     H26152   8.518   6.103   3.886  0.6768  2.1057  2.4262
  190MOL0     H26153   8.605   5.921   4.208  0.5337  1.7423 -1.4757
  190MOL0     H26154   8.458   5.854   4.165  0.3417  1.7954 -2.1327
  190MOL0     H26155   8.350   5.924   4.376  0.1160 -1.3934 -3.2264
  190MOL0     H26156   8.501   5.843   4.401 -3.2616 -2.1115 -1.0292
  190MOL0     H26157   8.611   6.073   4.395 -0.1801  3.0185  0.3676
  190MOL0     H26158   8.455   6.150   4.403  0.6352 -0.7430 -2.9472
  190MOL0     H26159   8.555   5.961   4.627  0.7724  0.0497 -0.6392
  190MOL0     H26160   8.556   6.137   4.633 -1.3796  1.5373 -1.4150
  190MOL0     H26161   8.361   6.073   4.760  0.6258  1.8887 -1.9666
  190MOL0     H26162   8.327   5.944   4.632 -0.7509  0.4304 -2.2656
  190MOL0     H26163   8.259   6.134   4.483 -1.6513  2.5924 -0.3708
  190MOL0     H26164   8.163   6.069   4.615  1.1932 -0.2833 -1.7637
  190MOL0     H26165   8.316   6.339   4.610 -0.4057 -0.7158  0.4003
  190MOL0     H26166   8.255   6.292   4.755 -0.5904  3.2371 -0.9808
  190MOL0     H26167   8.102   6.335   4.500 -1.3375  1.9777 -0.2608
  190MOL0     H26168   8.020   6.283   4.647 -0.0515 -0.3028 -0.9367
  190MOL0     H26169   8.258   6.582   4.560  0.8134 -3.6393  0.2586
  190MOL0     H26170   8.202   6.864   4.588  0.5433  0.8475  0.3552
  190MOL0     H26171   8.269   6.827   4.751  0.6309  2.1306 -1.2760
  190MOL0     H26172   7.988   6.938   4.718 -0.1819 -1.8625 -0.1875
  190MOL0     H26173   8.091   6.925   4.873 -0.5027 -1.1279 -0.0872
  190MOL0     H26174   8.250   7.090   4.771 -0.0148  1.5705  3.6322
  190MOL0     H26175   8.135   7.088   4.625  1.2652 -1.5516  0.1156
  190MOL0     H26176   8.094   7.286   4.726 -0.1544 -0.3471  0.9554
  190MOL0     H26177   7.964   7.175   4.778 -0.2537 -2.5958  2.5506
  190MOL0     H26178   8.350   7.232   5.003  2.1809  0.2367 -2.6030
  190MOL0     H26179   8.491   7.438   5.193  0.3038  1.0210  0.4800
  190MOL0     H26180   8.573   7.504   5.049 -1.7957  1.7545  0.2503
  190MOL0     H26181   8.548   7.334   5.071  4.5474  2.0865 -0.7814
  190MOL0     H26182   8.249   7.983   5.164  1.8953  1.2702  3.9442
  190MOL0     H26183   8.350   8.213   5.213  1.0551 -2.0875  1.7798
  190MOL0     H26184   8.641   8.263   5.254 -2.1703 -2.1082 -1.7940
  190MOL0     H26185   8.741   8.272   5.113  0.3928 -1.4175  1.3913
  190MOL0     H26186   8.801   8.466   5.245 -0.4339  0.8770  1.0686
  190MOL0     H26187   8.737   8.499   5.085 -1.8704 -1.9405 -1.5844
  190MOL0     H26188   8.593   8.515   5.355 -0.9253  2.7889  0.2304
  190MOL0     H26189   8.503   8.536   5.210 -2.2391  1.3811  2.8972
  190MOL0     H26190   8.649   8.742   5.153 -0.8486  0.0893  0.0985
  190MOL0     H26191   8.753   8.699   5.280 -0.0005  0.1952 -1.0602
  190MOL0     H26192   8.466   8.780   5.328 -0.4776  1.5423 -1.5447
  190MOL0     H26193   8.572   8.742   5.453  1.0680 -1.2843 -1.0127
  190MOL0     H26194   8.545   8.986   5.404 -0.3746  1.8210 -2.4687
  190MOL0     H26195   8.614   8.970   5.243  3.2157 -0.1978 -0.4523
  190MOL0     H26196   8.835   8.916   5.326  1.9523  1.2348  2.1576
  190MOL0     H26197   8.777   8.912   5.498  5.0197 -2.0501 -0.9050
  190MOL0     H26198   8.737   9.152   5.478 -0.3472  1.3750  0.6129
  190MOL0     H26199   8.803   9.160   5.316  1.2053  1.9921  1.9998
  190MOL0     H26200   8.685   8.111   4.962  1.4538 -2.6387  2.0329
  190MOL0     H26201   8.590   7.893   4.908  1.7072 -0.3968  2.3698
  190MOL0     H26202   8.135   7.683   4.975  0.6884  0.3362  2.2383
  190MOL0     H26203   8.016   7.484   4.867  0.5151 -1.0711 -2.6835
  190MOL0     H26204   8.225   6.010   4.191 -1.1411  1.6176  0.4157
  190MOL0     H26205   8.046   6.025   4.017  0.0169 -1.5223 -0.8287
  190MOL0     H26206   8.115   6.103   3.510  0.4077  0.4882  1.0700
  190MOL0     H26207   8.009   6.115   3.277  0.2327  0.8437 -0.2676
  190MOL0     H26208   7.822   6.262   3.059 -1.3750  0.4320 -0.7463
  190MOL0     H26209   7.900   6.115   3.101  0.4705 -0.1139  3.1022
  190MOL0     H26210   7.721   5.979   3.024  1.7096  0.5585 -1.9813
  190MOL0     H26211   7.737   6.105   2.911 -0.3783 -1.0599  0.3933
  190MOL0     H26212   7.538   6.056   3.135 -0.5582  2.0697  0.6028
  190MOL0     H26213   7.542   6.212   3.060 -1.2184  0.4696 -0.9341
  190MOL0     H26214   7.478   6.098   2.831 -3.0606 -1.9692 -1.2060
  190MOL0     H26215   7.360   6.085   2.970 -0.5358 -0.1077 -0.9435
  190MOL0     H26216   7.450   5.692   2.929 -0.4628 -0.1067 -0.8224
  190MOL0     H26217   7.653   6.278   3.458 -1.6077 -2.1066  0.3888
  190MOL0     H26218   7.818   6.380   3.727  0.6110  0.2388 -3.8282
  190MOL0     H26219   7.651   6.356   3.667  0.7864  1.4745  0.5340
  190MOL0     H26220   7.731   6.254   3.796  1.0075  2.2288  2.4413
  191MOL0     O26221   0.584   1.128   8.214 -0.3276 -0.6144 -0.0470
  191MOL0     C26222   0.531   1.083   8.312  0.0514 -0.0767  1.4381
  191MOL0     O26223   0.576   1.084   8.442 -0.2140  0.7612  0.7908
  191MOL0     C26224   0.702   1.119   8.478 -0.2958 -0.3091 -0.9102
  191MOL0     C26225   0.819   1.067   8.425  0.2654  1.0186 -0.0981
  191MOL0     C26226   0.944   1.102   8.490  0.2029 -0.3570 -0.8016
  191MOL0     C26227   0.946   1.191   8.602 -0.0620 -0.8553  0.7433
  191MOL0     O26228   1.072   1.223   8.650 -0.7121 -0.2699  0.5143
  191MOL0     C26229   1.065   1.290   8.769  0.4372  0.0051  0.4946
  191MOL0     C26230   1.205   1.345   8.797 -0.1685 -0.3456 -0.5950
  191MOL0     C26231   1.268   1.456   8.705 -0.0557  0.5444 -0.2183
  191MOL0     C26232   1.180   1.575   8.694 -0.0377  0.2988 -0.0304
  191MOL0     C26233   1.245   1.711   8.666 -0.2343 -0.4911 -0.3544
  191MOL0     C26234   1.352   1.701   8.553  0.6210  0.3262  0.1855
  191MOL0     C26235   1.383   1.837   8.490 -0.5982 -0.6389 -0.0744
  191MOL0     C26236   1.448   1.940   8.582 -0.3480  0.3091  0.0170
  191MOL0     N26237   1.527   2.036   8.504  0.1500 -0.1002  0.1497
  191MOL0     C26238   1.505   2.175   8.484  0.2736 -0.8864  0.2858
  191MOL0     C26239   1.594   2.217   8.389  0.3567 -0.0955  0.2217
  191MOL0     C26240   1.609   2.363   8.343 -0.2093 -1.3164 -0.3375
  191MOL0     C26241   1.710   2.418   8.445  0.4291  0.5610 -0.9047
  191MOL0     C26242   1.774   2.536   8.366 -0.1668 -0.4126 -0.9685
  191MOL0     C26243   1.860   2.630   8.459  0.2934 -1.1247  0.9827
  191MOL0     O26244   1.982   2.570   8.503  0.8271 -0.0217  0.4829
  191MOL0     C26245   2.071   2.631   8.586 -1.2293 -0.2637  0.3599
  191MOL0     C26246   2.074   2.771   8.623  0.6411  1.0940 -0.1696
  191MOL0     C26247   2.156   2.824   8.725 -0.6707 -1.5358  1.0304
  191MOL0     C26248   2.144   2.971   8.748 -0.2600 -0.1789  0.7394
  191MOL0     C26249   2.240   2.741   8.792 -0.5688  0.0073 -1.7197
  191MOL0     C26250   2.320   2.789   8.901 -0.3036  0.1270  0.9033
  191MOL0     O26251   2.380   2.909   8.884  0.1095 -0.2195 -0.6307
  191MOL0     C26252   2.447   2.975   8.985  0.2155 -0.4499  0.3612
  191MOL0     C26253   2.554   2.922   9.053 -0.3692 -0.4156 -1.0435
  191MOL0     C26254   2.631   3.011   9.138  0.8768 -0.0968  0.2848
  191MOL0     C26255   2.598   3.144   9.146  1.3829  0.1360 -0.4278
  191MOL0     O26256   2.673   3.218   9.232 -0.1753 -0.2529  0.4617
  191MOL0     C26257   2.674   3.363   9.227  0.8148 -1.3601  1.2054
  191MOL0     C26258   2.809   3.421   9.286 -0.8614  0.1214  0.3809
  191MOL0     C26259   2.941   3.370   9.227  0.1694 -0.5402 -1.1360
  191MOL0     C26260   2.977   3.235   9.281 -1.1440 -0.3037  0.6860
  191MOL0     C26261   3.115   3.179   9.261  0.0811  1.6387 -0.5522
  191MOL0     C26262   3.216   3.291   9.317 -0.1815  0.4151 -0.4959
  191MOL0     C26263   3.362   3.259   9.292 -0.8519 -1.0679  0.0421
  191MOL0     C26264   3.433   3.386   9.284  0.4411  0.2000 -0.4055
  191MOL0    Cl26265   3.609   3.343   9.241  0.2964  0.2392  0.2240
  191MOL0     C26266   2.479   3.191   9.093 -0.7626 -0.4277 -0.2797
  191MOL0     C26267   2.407   3.114   9.004 -0.3368 -0.5820  0.9416
  191MOL0     O26268   2.308   2.741   9.015  0.0761 -0.2984 -0.0677
  191MOL0     C26269   2.242   2.605   8.765 -0.5712  0.3566  0.6583
  191MOL0     C26270   2.167   2.557   8.661 -0.0548  0.4903 -0.0717
  191MOL0     N26271   1.675   2.109   8.373  0.4274  0.6831 -0.4881
  191MOL0     N26272   1.634   1.998   8.438  0.4332  0.5160  0.3057
  191MOL0     C26273   0.821   1.249   8.635  0.2432 -0.5930 -0.0473
  191MOL0     C26274   0.702   1.214   8.570 -0.1234 -0.6133 -0.6713
  191MOL0     C26275   0.401   1.023   8.279 -0.3169  0.3549 -0.2442
  191MOL0     C26276   0.390   0.984   8.150  0.8177 -0.9437  0.5457
  191MOL0     C26277   0.275   0.917   8.115 -0.8084 -0.1954  1.4871
  191MOL0     C26278   0.172   0.896   8.198  0.0730 -0.0056  0.2184
  191MOL0     O26279   0.056   0.836   8.148 -0.0644 -0.6224  0.3503
  191MOL0     C26280  -0.069   0.838   8.215 -1.1420  0.0084  0.4900
  191MOL0     C26281  -0.168   0.744   8.137 -0.5754  0.2699  0.9080
  191MOL0     C26282  -0.316   0.755   8.176  0.7680 -0.3331  0.0409
  191MOL0     C26283  -0.390   0.849   8.076  0.1162  0.3258  0.1834
  191MOL0     C26284  -0.359   0.992   8.084 -0.4111  0.5481  1.2948
  191MOL0     C26285  -0.327   1.106   8.078 -0.8254 -0.5870 -0.3612
  191MOL0     C26286   0.184   0.937   8.326  1.3754 -0.5323  0.0433
  191MOL0     C26287   0.294   1.010   8.369 -0.8361 -0.4817  0.4980
  191MOL0     C26288   0.303   1.051   8.514  0.0736 -1.0398 -0.4760
  191MOL0     H26289   0.819   0.998   8.341 -0.1852  1.2461 -0.2902
  191MOL0     H26290   1.038   1.066   8.450  2.1471  1.3166  1.8502
  191MOL0     H26291   1.035   1.221   8.849  0.1593 -1.0740 -0.5159
  191MOL0     H26292   1.006   1.382   8.762 -0.9033 -0.8111  0.8421
  191MOL0     H26293   1.196   1.369   8.903 -0.7480 -0.4127 -0.6234
  191MOL0     H26294   1.266   1.254   8.799  0.0565 -0.1813  0.1686
  191MOL0     H26295   1.363   1.489   8.749 -1.0289  0.5972  1.9311
  191MOL0     H26296   1.307   1.420   8.609  1.6810 -1.0660  1.0312
  191MOL0     H26297   1.109   1.555   8.613  2.2731  1.9443 -2.6421
  191MOL0     H26298   1.124   1.596   8.785  0.4767 -0.8168  0.5618
  191MOL0     H26299   1.292   1.740   8.760 -0.4099  1.3176 -0.7976
  191MOL0     H26300   1.171   1.789   8.645  2.1707  1.3861 -2.3803
  191MOL0     H26301   1.441   1.645   8.586  1.3470  2.0270  1.3170
  191MOL0     H26302   1.307   1.649   8.469 -1.8313  1.3831  0.7537
  191MOL0     H26303   1.291   1.873   8.442 -0.6022  0.5964  0.8011
  191MOL0     H26304   1.441   1.811   8.401 -0.5701 -1.1339  0.0840
  191MOL0     H26305   1.366   1.996   8.628  1.7810  0.4460  4.1843
  191MOL0     H26306   1.516   1.900   8.658 -2.1066  0.3348  1.6737
  191MOL0     H26307   1.436   2.246   8.530  3.5143  1.0772  2.5676
  191MOL0     H26308   1.512   2.413   8.344  0.5990  0.3355  0.5378
  191MOL0     H26309   1.647   2.366   8.241  0.6407 -0.3245 -0.0133
  191MOL0     H26310   1.663   2.442   8.541 -1.4522 -1.8978 -1.1215
  191MOL0     H26311   1.782   2.336   8.457  1.0828  1.3798  1.2098
  191MOL0     H26312   1.835   2.507   8.280  2.1330  1.6446 -0.1589
  191MOL0     H26313   1.687   2.595   8.337 -0.2691  0.8774  1.6570
  191MOL0     H26314   1.887   2.723   8.408  0.9502  0.3966  3.8784
  191MOL0     H26315   1.797   2.658   8.544  0.7988 -2.1640  1.7268
  191MOL0     H26316   2.002   2.835   8.573  0.1172  0.2691 -0.4841
  191MOL0     H26317   2.147   3.007   8.852 -1.6773 -1.4562  1.2526
  191MOL0     H26318   2.059   3.016   8.696 -0.8517 -1.3869  0.6352
  191MOL0     H26319   2.232   3.019   8.705 -1.4415  0.5935 -0.9156
  191MOL0     H26320   2.593   2.821   9.049  2.7752  0.6756 -0.5767
  191MOL0     H26321   2.719   2.974   9.189  1.2007  1.9769  1.3622
  191MOL0     H26322   2.672   3.405   9.126 -0.1582  1.6543  2.3779
  191MOL0     H26323   2.585   3.409   9.270 -0.4291 -1.7824 -0.8362
  191MOL0     H26324   2.796   3.528   9.266 -1.2301 -0.3352 -2.2372
  191MOL0     H26325   2.804   3.406   9.394 -0.2376 -2.7596  0.1033
  191MOL0     H26326   3.006   3.453   9.257  1.5016 -1.8853 -0.1528
  191MOL0     H26327   2.933   3.375   9.118  2.4106  0.2716 -1.3344
  191MOL0     H26328   2.912   3.156   9.242 -2.8667  1.9280 -1.3236
  191MOL0     H26329   2.947   3.241   9.386 -1.7677 -2.4888  0.6809
  191MOL0     H26330   3.136   3.085   9.313 -1.4998  1.3331 -0.4097
  191MOL0     H26331   3.137   3.161   9.155 -1.3503 -1.2214 -0.4788
  191MOL0     H26332   3.200   3.312   9.424 -0.4956  1.8961 -0.8079
  191MOL0     H26333   3.190   3.387   9.270 -0.0055  0.3470 -0.7297
  191MOL0     H26334   3.376   3.203   9.199 -0.6854 -2.7815  1.0404
  191MOL0     H26335   3.412   3.205   9.373 -0.7417 -1.0988 -0.0476
  191MOL0     H26336   3.416   3.442   9.376 -3.7694 -0.8319 -0.3796
  191MOL0     H26337   3.375   3.442   9.210 -3.2612 -3.9899 -1.1186
  191MOL0     H26338   2.456   3.294   9.118  1.6047 -0.7654  4.4127
  191MOL0     H26339   2.322   3.151   8.947  0.2555 -0.0217  0.4012
  191MOL0     H26340   2.278   2.534   8.838 -2.1951  0.0113  1.1757
  191MOL0     H26341   2.164   2.450   8.642  1.2625  0.9791 -3.8375
  191MOL0     H26342   0.806   1.341   8.690  0.1359 -1.2314  1.0347
  191MOL0     H26343   0.609   1.258   8.606  1.0768  1.7919 -0.2542
  191MOL0     H26344   0.450   0.975   8.060 -2.2291 -2.4319 -1.5258
  191MOL0     H26345   0.258   0.864   8.021  1.3867  1.3747  0.1004
  191MOL0     H26346  -0.058   0.790   8.313 -0.7427 -0.8714  0.0297
  191MOL0     H26347  -0.108   0.939   8.229 -1.4998  0.0911 -0.9323
  191MOL0     H26348  -0.147   0.638   8.154  0.7706  0.3280 -0.2238
  191MOL0     H26349  -0.154   0.774   8.033  4.8933  1.3732  1.6346
  191MOL0     H26350  -0.362   0.657   8.159  3.4490 -1.7978  0.5187
  191MOL0     H26351  -0.333   0.791   8.277 -2.1625 -2.5671  0.4716
  191MOL0     H26352  -0.495   0.841   8.106 -0.3426  3.0371 -0.3976
  191MOL0     H26353  -0.385   0.828   7.969 -0.6070  0.1104  0.1872
  191MOL0     H26354  -0.304   1.210   8.074 -1.5199 -0.4376 -4.1539
  191MOL0     H26355   0.098   0.930   8.392  1.3307 -0.8808 -0.0539
  191MOL0     H26356   0.315   1.159   8.531  2.3561 -1.7253  3.4825
  191MOL0     H26357   0.206   1.020   8.554  1.1364 -0.2850  3.0788
  191MOL0     H26358   0.385   0.994   8.557  0.2660 -0.5921 -0.2462
  192MOL0     O26359   4.314   7.982   9.852 -0.9280 -0.1519  0.5806
  192MOL0     C26360   4.247   8.070   9.901  0.0725  0.6301  0.8079
  192MOL0     O26361   4.271   8.144  10.021  0.2202 -0.4489  0.1392
  192MOL0     C26362   4.378   8.085  10.090 -0.3195  0.3247 -0.1348
  192MOL0     C26363   4.368   8.002  10.197 -0.1486  0.6689 -0.1422
  192MOL0     C26364   4.480   7.963  10.263 -0.2962 -0.0541 -0.8070
  192MOL0     C26365   4.608   8.003  10.226  0.6860  0.0395  0.4640
  192MOL0     O26366   4.731   7.967  10.273  0.1922  0.3608 -0.3366
  192MOL0     C26367   4.783   8.062  10.375 -0.5430  0.0858 -0.2639
  192MOL0     C26368   4.721   8.043  10.518  0.2402 -0.6540  0.0744
  192MOL0     C26369   4.758   7.907  10.567 -1.2523  0.6435 -0.2004
  192MOL0     C26370   4.883   7.915  10.644 -1.1240 -0.4122  1.0759
  192MOL0     C26371   4.930   7.788  10.700  1.1285  0.2443 -0.1247
  192MOL0     C26372   5.083   7.811  10.718  0.2069  0.5249 -0.4513
  192MOL0     C26373   5.144   7.698  10.802  0.2107 -0.0762  0.5000
  192MOL0     C26374   5.296   7.717  10.837  0.2071 -0.0773 -0.1900
  192MOL0     N26375   5.327   7.840  10.897 -0.2755  0.6893  0.6183
  192MOL0     C26376   5.286   7.865  11.024 -0.2273 -0.0414 -0.8689
  192MOL0     C26377   5.341   7.985  11.050 -0.0215  0.7390 -0.0790
  192MOL0     C26378   5.325   8.062  11.181  0.1589 -0.0138  0.8177
  192MOL0     C26379   5.399   7.998  11.298 -0.8504 -0.3373  0.0221
  192MOL0     C26380   5.326   8.062  11.430 -0.3052 -0.7783 -0.2430
  192MOL0     C26381   5.430   8.094  11.537  0.2858 -0.3297  0.0998
  192MOL0     O26382   5.541   7.996  11.549 -0.4434 -0.1741 -0.3673
  192MOL0     C26383   5.524   7.885  11.627  0.4930  0.2871 -0.3614
  192MOL0     C26384   5.396   7.846  11.687 -0.4525 -0.5534  0.3839
  192MOL0     C26385   5.402   7.735  11.780  0.0708 -0.0044 -0.0849
  192MOL0     C26386   5.276   7.722  11.867  0.5825 -0.4237  0.4123
  192MOL0     C26387   5.518   7.656  11.804 -0.1814  0.1501 -0.8067
  192MOL0     C26388   5.517   7.540  11.903 -0.4446  0.4097 -0.7345
  192MOL0     O26389   5.604   7.442  11.881  0.5554 -0.7727  0.1770
  192MOL0     C26390   5.538   7.324  11.882 -0.5883  0.4627 -0.0703
  192MOL0     C26391   5.523   7.258  11.757 -0.9497  0.2427  0.5969
  192MOL0     C26392   5.452   7.129  11.758  0.5983 -0.7364 -0.2719
  192MOL0     C26393   5.402   7.079  11.877 -0.0690 -0.1110 -0.2632
  192MOL0     O26394   5.336   6.966  11.891  0.2720 -0.1075  0.1390
  192MOL0     C26395   5.398   6.847  11.818 -0.1550 -0.8826 -0.1262
  192MOL0     C26396   5.408   6.723  11.912  0.2704 -0.2052 -0.1792
  192MOL0     C26397   5.487   6.752  12.047 -0.2287 -0.0343  0.5165
  192MOL0     C26398   5.588   6.642  12.064 -0.7211  0.3970 -0.9637
  192MOL0     C26399   5.665   6.651  12.203 -0.8883  0.0165  0.2722
  192MOL0     C26400   5.806   6.592  12.175  0.5904  0.1113 -0.4212
  192MOL0     C26401   5.888   6.571  12.308  0.3799 -0.4513 -0.5619
  192MOL0     C26402   5.865   6.427  12.373 -0.3948 -0.0086 -0.8981
  192MOL0    Cl26403   5.711   6.414  12.455 -0.2312 -0.4772 -0.2125
  192MOL0     C26404   5.415   7.145  11.996 -0.7155  0.2227  0.6940
  192MOL0     C26405   5.489   7.265  11.993 -0.2938  0.4535 -0.0688
  192MOL0     O26406   5.433   7.536  11.995 -0.1377 -0.6593 -0.0909
  192MOL0     C26407   5.628   7.681  11.722 -0.4813  0.0342  0.3345
  192MOL0     C26408   5.631   7.797  11.639 -0.1144 -0.1076  0.2142
  192MOL0     N26409   5.416   8.032  10.945 -0.1546 -0.6994  0.8915
  192MOL0     N26410   5.402   7.937  10.848 -0.9433 -0.5529  0.3987
  192MOL0     C26411   4.613   8.103  10.131 -0.2469 -0.2342 -0.9528
  192MOL0     C26412   4.499   8.146  10.063 -0.0176 -0.4037  0.4711
  192MOL0     C26413   4.132   8.124   9.827  0.4794 -0.2509  0.8161
  192MOL0     C26414   4.161   8.224   9.722 -0.7200  2.5628 -0.9610
  192MOL0     C26415   4.054   8.280   9.660  0.5982 -0.2509 -0.1018
  192MOL0     C26416   3.923   8.243   9.680 -0.3845 -0.6564  0.4885
  192MOL0     O26417   3.826   8.287   9.586 -0.2325  0.3283 -0.0075
  192MOL0     C26418   3.842   8.409   9.517 -0.1460  0.4128  0.8597
  192MOL0     C26419   3.708   8.436   9.445  0.1904  1.0288  0.1354
  192MOL0     C26420   3.590   8.481   9.536 -0.0973  0.0573  0.4256
  192MOL0     C26421   3.451   8.463   9.472  0.7412  0.1166  0.6993
  192MOL0     C26422   3.346   8.508   9.558 -0.1032  0.3913 -1.1752
  192MOL0     C26423   3.256   8.544   9.633  0.2481  0.9617  0.2661
  192MOL0     C26424   3.889   8.165   9.794 -0.8451  0.5210  0.4767
  192MOL0     C26425   3.998   8.097   9.867 -0.4814 -0.1600 -0.2026
  192MOL0     C26426   3.964   8.003   9.985  0.3515  0.3261  0.0423
  192MOL0     H26427   4.272   7.961  10.229  0.0881  0.7800  0.7548
  192MOL0     H26428   4.464   7.891  10.343  2.2345  1.3774  1.1491
  192MOL0     H26429   4.755   8.165  10.350  0.5314  0.6497  0.7823
  192MOL0     H26430   4.891   8.047  10.387  0.4451  4.3935 -1.8969
  192MOL0     H26431   4.738   8.135  10.574 -2.2498  0.4721 -0.8611
  192MOL0     H26432   4.612   8.053  10.517  0.3220  0.3348 -0.8541
  192MOL0     H26433   4.673   7.868  10.622 -0.5881 -1.3572 -0.5136
  192MOL0     H26434   4.768   7.840  10.480 -0.5740 -1.8969  1.7274
  192MOL0     H26435   4.951   7.975  10.583 -3.3512  1.2849  0.1649
  192MOL0     H26436   4.879   7.978  10.734  0.8540  0.0681  0.8893
  192MOL0     H26437   4.923   7.703  10.631 -2.1246  0.2536  0.0464
  192MOL0     H26438   4.895   7.775  10.803 -2.7447 -0.2154 -1.3311
  192MOL0     H26439   5.136   7.801  10.623  1.6625 -1.8771  0.5145
  192MOL0     H26440   5.105   7.906  10.767  1.0896 -0.1123  0.4384
  192MOL0     H26441   5.127   7.605  10.746 -2.9463 -0.7386  2.2973
  192MOL0     H26442   5.092   7.678  10.896  1.2718 -0.3407  1.0348
  192MOL0     H26443   5.330   7.637  10.904 -1.7115  0.6113  1.6974
  192MOL0     H26444   5.361   7.700  10.751 -0.4297  0.5973 -0.8160
  192MOL0     H26445   5.212   7.815  11.086 -0.0061 -0.1115 -0.6613
  192MOL0     H26446   5.219   8.067  11.207  0.2543  1.0732  1.0700
  192MOL0     H26447   5.363   8.165  11.172  1.6172 -0.7028 -2.0586
  192MOL0     H26448   5.386   7.890  11.301  1.4499 -0.6661  0.0968
  192MOL0     H26449   5.507   8.019  11.294 -0.8035 -0.2354  1.3147
  192MOL0     H26450   5.266   8.147  11.397 -0.2703 -1.4015 -1.9911
  192MOL0     H26451   5.258   7.986  11.469 -1.5280  0.3286 -0.1738
  192MOL0     H26452   5.468   8.193  11.510 -0.4900 -0.0241  0.0747
  192MOL0     H26453   5.384   8.105  11.636  4.1162 -1.1040  2.1234
  192MOL0     H26454   5.308   7.909  11.680  1.6409  2.5599 -0.0752
  192MOL0     H26455   5.206   7.800  11.837 -0.5958 -1.8872 -0.7847
  192MOL0     H26456   5.297   7.741  11.973  1.5335  0.1210  0.1394
  192MOL0     H26457   5.223   7.627  11.863  2.2188 -1.3483 -0.1060
  192MOL0     H26458   5.549   7.293  11.657 -2.0088 -2.8148 -0.8693
  192MOL0     H26459   5.443   7.070  11.668  3.3336  1.2175 -2.0093
  192MOL0     H26460   5.338   6.815  11.732  2.5625 -1.0686 -2.0627
  192MOL0     H26461   5.497   6.865  11.775 -0.0303 -1.3833 -0.0517
  192MOL0     H26462   5.303   6.696  11.925 -0.0094  1.9431  3.7514
  192MOL0     H26463   5.458   6.643  11.856 -0.9638 -1.4886  0.5000
  192MOL0     H26464   5.407   6.762  12.122 -1.8933  0.1907 -1.2280
  192MOL0     H26465   5.542   6.846  12.031 -2.1751  1.3186  1.3888
  192MOL0     H26466   5.659   6.663  11.984  0.5436  1.1996  0.3196
  192MOL0     H26467   5.545   6.541  12.063  0.1357 -0.0203  0.4658
  192MOL0     H26468   5.679   6.752  12.243  1.5160 -0.0337 -0.3226
  192MOL0     H26469   5.622   6.583  12.277 -0.8319  4.1047  4.5215
  192MOL0     H26470   5.859   6.662  12.110 -2.3487  3.0818  0.1197
  192MOL0     H26471   5.801   6.497  12.121  1.8564  0.2457 -0.8248
  192MOL0     H26472   5.848   6.648  12.375 -0.5175 -2.6852  1.6191
  192MOL0     H26473   5.994   6.584  12.283  0.3912  0.1054 -0.2507
  192MOL0     H26474   5.936   6.421  12.455 -1.8636 -0.3008  0.3984
  192MOL0     H26475   5.886   6.349  12.300 -1.0013 -1.4283  0.4047
  192MOL0     H26476   5.385   7.099  12.090 -0.6492 -2.1318 -0.3613
  192MOL0     H26477   5.518   7.313  12.086 -1.1168  0.1288  0.3684
  192MOL0     H26478   5.719   7.625  11.741  1.1426  3.0967  2.2822
  192MOL0     H26479   5.726   7.815  11.590 -0.7063  3.4635  0.0929
  192MOL0     H26480   4.707   8.123  10.081  0.5738  0.0109  0.6069
  192MOL0     H26481   4.513   8.227   9.992  0.4632  1.5101  2.6096
  192MOL0     H26482   4.259   8.252   9.683  1.1531 -1.2820  0.4681
  192MOL0     H26483   4.068   8.341   9.571 -2.4377  2.3338  0.9806
  192MOL0     H26484   3.861   8.483   9.596 -1.3939 -1.1607  2.7175
  192MOL0     H26485   3.933   8.409   9.456  1.8494  1.3769  3.5858
  192MOL0     H26486   3.679   8.347   9.389 -0.6614  1.8442 -0.7584
  192MOL0     H26487   3.723   8.515   9.371 -1.9372 -0.2470 -1.7973
  192MOL0     H26488   3.576   8.423   9.628  0.4885  0.2877  0.6608
  192MOL0     H26489   3.612   8.577   9.582 -1.3113 -1.3380  4.2833
  192MOL0     H26490   3.436   8.357   9.453  0.9611  0.6262 -3.1405
  192MOL0     H26491   3.456   8.522   9.380  0.4056 -1.6079 -0.4767
  192MOL0     H26492   3.172   8.553   9.699  0.0933  3.2375 -0.1685
  192MOL0     H26493   3.788   8.148   9.830 -1.4301  0.3875 -1.1082
  192MOL0     H26494   3.878   8.030  10.046  0.2306 -2.7254  1.3981
  192MOL0     H26495   3.950   7.905   9.937  2.1780  0.3435 -0.6186
  192MOL0     H26496   4.043   7.995  10.060 -1.6265  0.4757  2.2239
  193MOL0     O26497  10.355  11.543   8.614 -0.4089  0.1326  0.3278
  193MOL0     C26498  10.470  11.577   8.586 -0.3277 -0.2560 -0.1004
  193MOL0     O26499  10.515  11.704   8.590  0.4473  0.4268  0.4601
  193MOL0     C26500  10.428  11.805   8.589  0.7431 -0.3801 -0.6410
  193MOL0     C26501  10.434  11.910   8.490  0.8078  0.2544 -0.4183
  193MOL0     C26502  10.349  12.024   8.499  1.8462 -1.2054  0.9717
  193MOL0     C26503  10.253  12.033   8.609 -0.0090 -0.3914  0.2884
  193MOL0     O26504  10.167  12.138   8.630 -0.0649  0.2229 -0.2896
  193MOL0     C26505  10.199  12.264   8.571 -0.1561  0.6580 -0.4942
  193MOL0     C26506  10.155  12.371   8.658  0.1544  0.3469  0.1357
  193MOL0     C26507  10.005  12.371   8.687 -0.2754 -0.4002  0.9317
  193MOL0     C26508   9.911  12.369   8.558  0.2831  0.0851 -0.8221
  193MOL0     C26509   9.771  12.423   8.590  0.6406  0.1469 -0.0352
  193MOL0     C26510   9.684  12.335   8.682 -0.3420  0.7866  0.5911
  193MOL0     C26511   9.550  12.401   8.680  0.2640 -0.1034  0.0271
  193MOL0     C26512   9.457  12.360   8.794 -0.8621 -0.2662  1.2253
  193MOL0     N26513   9.343  12.446   8.805 -0.2672 -0.4740 -0.9206
  193MOL0     C26514   9.311  12.546   8.720  0.2198  0.3572 -0.0188
  193MOL0     C26515   9.187  12.580   8.767 -0.1034  0.3311  0.0248
  193MOL0     C26516   9.093  12.687   8.712  0.4766 -0.1533 -0.0905
  193MOL0     C26517   8.954  12.657   8.765  0.1570 -0.2963 -0.1558
  193MOL0     C26518   8.858  12.748   8.696  0.6782 -0.6878  0.2129
  193MOL0     C26519   8.714  12.731   8.746 -0.7089 -0.2990  0.6446
  193MOL0     O26520   8.665  12.604   8.713 -0.1178 -0.7897  0.0506
  193MOL0     C26521   8.528  12.583   8.709  0.6762 -0.7846 -0.0095
  193MOL0     C26522   8.488  12.455   8.689  0.0607 -0.4811  0.6077
  193MOL0     C26523   8.349  12.422   8.691 -0.7665 -0.5014 -0.4654
  193MOL0     C26524   8.324  12.279   8.663 -0.3742 -0.6560  0.8806
  193MOL0     C26525   8.246  12.519   8.723 -1.0006 -0.7480 -0.3487
  193MOL0     C26526   8.096  12.495   8.709 -0.6838  0.9014  0.5664
  193MOL0     O26527   8.058  12.362   8.687  0.5463 -0.0354 -0.5587
  193MOL0     C26528   7.931  12.338   8.631 -1.4307 -0.4338 -0.2929
  193MOL0     C26529   7.860  12.231   8.682  0.3628  0.0113 -0.5853
  193MOL0     C26530   7.743  12.198   8.620  0.5090 -0.3403 -0.3752
  193MOL0     C26531   7.694  12.255   8.503 -0.4751 -0.2968 -0.1555
  193MOL0     O26532   7.569  12.227   8.456 -0.5379 -0.3387 -0.5561
  193MOL0     C26533   7.553  12.114   8.374 -0.4575 -0.2575 -0.2676
  193MOL0     C26534   7.491  12.004   8.452  1.8178 -0.0193 -0.2944
  193MOL0     C26535   7.346  12.034   8.511  0.3135 -0.7158 -0.1753
  193MOL0     C26536   7.301  11.918   8.597 -0.2133  0.9559 -0.0376
  193MOL0     C26537   7.168  11.942   8.677 -0.4718  0.0024 -0.6034
  193MOL0     C26538   7.176  12.015   8.807  0.5848 -1.1998 -0.5025
  193MOL0     C26539   7.033  12.043   8.869 -0.0038  0.7490 -1.0564
  193MOL0     C26540   6.938  11.912   8.873  0.2726 -0.2116  0.0291
  193MOL0    Cl26541   6.853  11.893   8.714  0.4026 -0.0229 -0.8360
  193MOL0     C26542   7.772  12.361   8.457  0.6607 -0.0092  0.4750
  193MOL0     C26543   7.889  12.401   8.514  0.4245 -0.6490 -0.4767
  193MOL0     O26544   8.019  12.590   8.720  0.3440 -0.2901  0.0201
  193MOL0     C26545   8.297  12.647   8.762  0.9233 -0.6388 -0.4508
  193MOL0     C26546   8.429  12.681   8.755 -0.7240  0.9742  0.2312
  193MOL0     N26547   9.161  12.504   8.888  0.7746  0.3754  0.2110
  193MOL0     N26548   9.251  12.415   8.904  1.3987 -0.3264  0.3151
  193MOL0     C26549  10.246  11.931   8.701 -0.5478  0.8756  1.9817
  193MOL0     C26550  10.341  11.824   8.698  1.1558 -0.3114  0.6734
  193MOL0     C26551  10.565  11.459   8.564  0.2612 -0.6921  0.2774
  193MOL0     C26552  10.539  11.327   8.611  0.1046 -0.5389 -0.3042
  193MOL0     C26553  10.616  11.215   8.599 -0.0261  1.1791 -0.4058
  193MOL0     C26554  10.738  11.238   8.535 -0.7279  0.5554 -0.0473
  193MOL0     O26555  10.820  11.131   8.514 -0.0098  0.0773 -0.2569
  193MOL0     C26556  10.879  11.073   8.624  0.0053  1.3944  0.0908
  193MOL0     C26557  11.018  11.117   8.656 -0.5973  0.2694 -0.6830
  193MOL0     C26558  11.035  11.249   8.737  0.1617  0.5905  0.5411
  193MOL0     C26559  11.175  11.296   8.749 -0.3094  0.7339 -0.4952
  193MOL0     C26560  11.268  11.201   8.807  0.2938 -0.1881 -0.7183
  193MOL0     C26561  11.342  11.118   8.858 -0.1218 -0.2081 -0.2699
  193MOL0     C26562  10.775  11.363   8.492 -0.3495  0.1622 -0.0981
  193MOL0     C26563  10.685  11.471   8.493 -0.8166 -0.4210  0.1243
  193MOL0     C26564  10.727  11.590   8.421 -1.1059  0.0702 -1.3077
  193MOL0     H26565  10.511  11.900   8.413  0.0103 -2.7772 -0.9267
  193MOL0     H26566  10.349  12.099   8.420 -3.7388 -1.5343  0.2792
  193MOL0     H26567  10.155  12.266   8.471 -3.0763  1.2165  0.7000
  193MOL0     H26568  10.306  12.281   8.555  0.1903  0.1463  1.1213
  193MOL0     H26569  10.212  12.372   8.752  2.1740  3.7633 -0.9483
  193MOL0     H26570  10.190  12.458   8.601 -0.7994  0.2612 -0.5906
  193MOL0     H26571   9.980  12.281   8.744 -2.5339  0.8201  2.0213
  193MOL0     H26572   9.991  12.463   8.746  1.5314  1.6888 -1.6453
  193MOL0     H26573   9.950  12.455   8.502 -1.3631  2.5852  1.5791
  193MOL0     H26574   9.915  12.273   8.506 -1.6326 -2.4639  3.2793
  193MOL0     H26575   9.712  12.427   8.498  3.0966  1.2900 -1.6753
  193MOL0     H26576   9.777  12.527   8.623  1.6661 -0.2859  1.2241
  193MOL0     H26577   9.679  12.229   8.656 -0.0142  0.3085  2.3489
  193MOL0     H26578   9.728  12.331   8.782  0.1867 -0.4733  0.3291
  193MOL0     H26579   9.502  12.379   8.585  0.0145  1.4506 -0.2270
  193MOL0     H26580   9.567  12.509   8.689 -0.5952 -0.0357  1.1239
  193MOL0     H26581   9.431  12.258   8.766 -5.1368  1.4183 -2.1095
  193MOL0     H26582   9.518  12.368   8.885  2.3689  1.3159 -0.8855
  193MOL0     H26583   9.378  12.594   8.649  0.2874 -1.6562 -1.4100
  193MOL0     H26584   9.081  12.673   8.604 -0.9325  0.4099 -0.0315
  193MOL0     H26585   9.144  12.784   8.717  3.4498 -1.6450  2.2423
  193MOL0     H26586   8.924  12.553   8.748 -3.7754  0.8879 -1.3875
  193MOL0     H26587   8.947  12.677   8.872 -0.2477 -1.5770  0.0757
  193MOL0     H26588   8.899  12.850   8.695 -1.2897  0.1869 -2.2615
  193MOL0     H26589   8.851  12.722   8.590 -0.5471 -3.0939  0.8050
  193MOL0     H26590   8.711  12.765   8.849  0.8242 -0.7172  0.8493
  193MOL0     H26591   8.664  12.797   8.675  1.5692  0.3867 -0.3944
  193MOL0     H26592   8.566  12.385   8.660  0.3209  0.0431  0.0111
  193MOL0     H26593   8.270  12.227   8.743 -2.5808  0.0673 -0.0508
  193MOL0     H26594   8.423  12.239   8.640  0.4506  1.1855  1.1104
  193MOL0     H26595   8.274  12.265   8.566  0.6983  2.8507 -0.3121
  193MOL0     H26596   7.903  12.176   8.765  0.6990 -0.0089 -0.7738
  193MOL0     H26597   7.689  12.123   8.678 -1.1704  0.5301 -0.7864
  193MOL0     H26598   7.482  12.133   8.293 -4.9998 -1.3036  3.0485
  193MOL0     H26599   7.649  12.085   8.332 -1.1007 -0.5659 -1.5990
  193MOL0     H26600   7.492  11.910   8.396  2.5586  2.0704 -4.0814
  193MOL0     H26601   7.553  11.979   8.539  0.0753 -5.1180 -0.1324
  193MOL0     H26602   7.268  12.033   8.434  0.0279  1.7054 -0.0217
  193MOL0     H26603   7.366  12.116   8.581  0.5487 -1.8465  1.1308
  193MOL0     H26604   7.372  11.872   8.666 -3.4683 -3.9138  0.6130
  193MOL0     H26605   7.297  11.831   8.531  3.1482  1.8428 -1.6322
  193MOL0     H26606   7.109  11.994   8.600 -0.3997  0.5854 -0.2687
  193MOL0     H26607   7.128  11.841   8.688 -1.4495  0.3275 -1.0698
  193MOL0     H26608   7.229  12.110   8.801 -1.0630 -0.2160  0.0722
  193MOL0     H26609   7.225  11.944   8.874  4.3697  0.2873 -1.4548
  193MOL0     H26610   6.995  12.134   8.821 -1.3105  1.0173  0.3974
  193MOL0     H26611   7.052  12.079   8.971  1.9751  3.4481 -2.2369
  193MOL0     H26612   6.862  11.924   8.951  0.5734  0.1322  0.2738
  193MOL0     H26613   6.997  11.822   8.895 -0.3284 -0.0944  2.4160
  193MOL0     H26614   7.757  12.418   8.366  1.3420  3.2541  2.2409
  193MOL0     H26615   7.945  12.487   8.478 -0.9561  3.2154  5.2358
  193MOL0     H26616   8.224  12.717   8.802  2.2894  0.3607  0.4026
  193MOL0     H26617   8.469  12.775   8.791  2.7144 -0.6726  1.1519
  193MOL0     H26618  10.164  11.946   8.771 -1.4305  2.7729  0.6461
  193MOL0     H26619  10.345  11.753   8.780  1.8164  0.6217  1.4691
  193MOL0     H26620  10.446  11.313   8.666 -0.9562  1.8076 -1.3403
  193MOL0     H26621  10.579  11.120   8.635  0.5527  1.1865  0.2070
  193MOL0     H26622  10.817  11.074   8.715 -1.0568 -2.8145 -0.3828
  193MOL0     H26623  10.888  10.966   8.603 -1.8508  1.2036  0.1053
  193MOL0     H26624  11.086  11.118   8.570  4.2439 -2.8992  2.6124
  193MOL0     H26625  11.066  11.039   8.716  3.2628  0.9374 -2.5303
  193MOL0     H26626  10.968  11.329   8.702  0.9256  1.0707  0.1597
  193MOL0     H26627  11.004  11.220   8.838 -0.0918 -0.0343  0.2871
  193MOL0     H26628  11.183  11.393   8.801 -1.4223 -1.4522  4.3395
  193MOL0     H26629  11.206  11.304   8.645 -0.7828  0.6258 -0.6447
  193MOL0     H26630  11.413  11.049   8.899  1.0296  0.7588 -0.5746
  193MOL0     H26631  10.874  11.366   8.449 -0.2543  2.0546  0.1634
  193MOL0     H26632  10.799  11.563   8.343  0.2336 -1.3473  0.3209
  193MOL0     H26633  10.642  11.627   8.363 -2.5033  1.9334  1.6597
  193MOL0     H26634  10.773  11.667   8.485  1.3382  0.5771 -3.4980
  194MOL0     O26635   2.882   0.473   5.335  0.0953 -0.0651 -0.0704
  194MOL0     C26636   2.898   0.359   5.337  0.0466  1.2252 -0.8486
  194MOL0     O26637   2.924   0.288   5.452  0.0337 -0.0716 -0.3272
  194MOL0     C26638   2.918   0.348   5.574 -0.0142 -0.2979 -0.9592
  194MOL0     C26639   2.996   0.454   5.622  0.5236 -0.0004  0.2614
  194MOL0     C26640   2.986   0.489   5.756 -1.1973  0.8076  0.4466
  194MOL0     C26641   2.915   0.427   5.857 -0.1805 -0.2377  0.6513
  194MOL0     O26642   2.910   0.484   5.984  1.3490  0.2519 -0.6735
  194MOL0     C26643   2.863   0.400   6.094 -0.1064 -0.7529  0.2091
  194MOL0     C26644   2.888   0.482   6.220  0.9287 -0.3383 -0.7986
  194MOL0     C26645   2.824   0.414   6.339  0.9995  0.0971 -0.4503
  194MOL0     C26646   2.886   0.286   6.387  0.2498 -0.1962  0.4196
  194MOL0     C26647   2.841   0.235   6.518 -0.3705 -0.5248  0.4818
  194MOL0     C26648   2.690   0.249   6.560 -0.4298 -0.3736 -0.3845
  194MOL0     C26649   2.664   0.167   6.685 -0.5420 -0.0414 -0.5658
  194MOL0     C26650   2.706   0.233   6.820  0.1349 -0.6780  0.1690
  194MOL0     N26651   2.842   0.245   6.848  0.3493  0.0493 -0.0440
  194MOL0     C26652   2.944   0.142   6.836  0.6406  0.2803  1.1096
  194MOL0     C26653   3.062   0.197   6.860  0.1980 -0.2413 -0.3908
  194MOL0     C26654   3.198   0.126   6.864  0.4942 -0.5422  0.1161
  194MOL0     C26655   3.228   0.016   6.766 -0.8954  0.5843 -0.4449
  194MOL0     C26656   3.239   0.065   6.615 -0.4381 -0.0705  0.1178
  194MOL0     C26657   3.292  -0.051   6.531  0.1736 -0.7808 -0.4028
  194MOL0     O26658   3.285  -0.003   6.394  0.0283  0.1746  0.3235
  194MOL0     C26659   3.160   0.005   6.327  1.3636  0.7396 -0.7259
  194MOL0     C26660   3.032  -0.050   6.370  0.4401 -0.4752 -0.7838
  194MOL0     C26661   2.915  -0.050   6.290  0.7156  0.1030 -0.0622
  194MOL0     C26662   2.791  -0.090   6.364  0.0409  0.1799  0.4791
  194MOL0     C26663   2.925  -0.005   6.151  0.7297 -0.1002 -0.1303
  194MOL0     C26664   2.810  -0.027   6.049  0.0267  0.4358 -0.1838
  194MOL0     O26665   2.852  -0.044   5.916 -0.2131  0.6841  0.3602
  194MOL0     C26666   2.763  -0.058   5.809  0.1930 -0.7918  0.0553
  194MOL0     C26667   2.814  -0.118   5.688  0.2351 -0.7959  0.9041
  194MOL0     C26668   2.742  -0.119   5.565 -0.2276 -0.3108 -0.5539
  194MOL0     C26669   2.609  -0.069   5.569  0.5836  0.0513  0.3520
  194MOL0     O26670   2.530  -0.089   5.457 -0.0188  0.0336  1.0655
  194MOL0     C26671   2.480   0.024   5.375  0.1171  0.3110  0.4606
  194MOL0     C26672   2.465   0.000   5.221  0.2267 -0.2952  0.3225
  194MOL0     C26673   2.492   0.135   5.149  0.8184  0.6935  0.2285
  194MOL0     C26674   2.481   0.133   4.999  0.6745 -0.2739  0.7126
  194MOL0     C26675   2.564   0.239   4.938  0.1304  0.4970  0.0398
  194MOL0     C26676   2.576   0.239   4.782 -0.0331 -0.0272 -0.1546
  194MOL0     C26677   2.650   0.370   4.738  0.4035  0.3417  0.5075
  194MOL0     C26678   2.717   0.370   4.601  0.4026  0.2531  1.6493
  194MOL0    Cl26679   2.589   0.384   4.476 -0.2109  0.5295  0.4878
  194MOL0     C26680   2.553  -0.004   5.675 -0.1109  0.3002  0.6269
  194MOL0     C26681   2.631  -0.002   5.795 -0.1762 -0.1426  0.8754
  194MOL0     O26682   2.692  -0.051   6.085  0.0040 -0.4346 -0.5796
  194MOL0     C26683   3.050   0.036   6.105  0.2881 -0.0225  0.1819
  194MOL0     C26684   3.161   0.052   6.195  0.4340  0.2441  0.5285
  194MOL0     N26685   3.041   0.333   6.877 -0.3102  0.7986  1.0190
  194MOL0     N26686   2.916   0.359   6.864  0.3903  0.0074 -0.4955
  194MOL0     C26687   2.836   0.318   5.813  0.6457  1.0410 -0.6452
  194MOL0     C26688   2.847   0.280   5.678  0.0266 -0.2857 -0.3633
  194MOL0     C26689   2.906   0.279   5.210  0.1680  0.3768  0.1748
  194MOL0     C26690   2.969   0.341   5.101  0.8659 -0.3902  0.1165
  194MOL0     C26691   2.975   0.279   4.977 -0.8663 -1.4076 -0.3301
  194MOL0     C26692   2.947   0.145   4.953  0.0252 -0.3481 -1.0757
  194MOL0     O26693   2.963   0.075   4.839 -0.2492 -0.3887  0.0395
  194MOL0     C26694   3.003   0.126   4.707  0.3755 -0.5852 -0.1543
  194MOL0     C26695   3.153   0.144   4.705  0.7159  0.3892 -0.1961
  194MOL0     C26696   3.222   0.010   4.698  0.1518 -0.2893  0.8317
  194MOL0     C26697   3.219  -0.047   4.559  0.3131 -0.0926  0.0154
  194MOL0     C26698   3.283   0.034   4.456 -0.1721 -0.1239 -0.1399
  194MOL0     C26699   3.337   0.093   4.355  0.2383  0.0940 -0.8048
  194MOL0     C26700   2.885   0.087   5.058 -0.0630 -0.0277  0.1501
  194MOL0     C26701   2.871   0.141   5.190  0.7959  0.2811  0.7296
  194MOL0     C26702   2.838   0.052   5.305  0.5180 -0.4813 -0.2908
  194MOL0     H26703   3.056   0.518   5.557  0.7814  0.5439  1.0156
  194MOL0     H26704   3.066   0.562   5.772  1.2278 -0.8420 -2.8958
  194MOL0     H26705   2.919   0.307   6.096  0.9393 -0.1422  1.8127
  194MOL0     H26706   2.755   0.387   6.088  0.0644 -1.5970 -1.3776
  194MOL0     H26707   2.998   0.485   6.219  1.0514 -0.9999  2.1509
  194MOL0     H26708   2.842   0.580   6.204 -0.6993 -0.6003  1.7425
  194MOL0     H26709   2.839   0.483   6.422  1.6552  0.5206 -0.9093
  194MOL0     H26710   2.717   0.392   6.328  0.4923  1.9604  0.4711
  194MOL0     H26711   2.856   0.210   6.315 -1.5198 -0.0841  0.9932
  194MOL0     H26712   2.995   0.286   6.394  0.2864 -3.9929  2.7837
  194MOL0     H26713   2.897   0.298   6.588 -1.9245  3.3550 -1.4336
  194MOL0     H26714   2.877   0.132   6.524  2.5614  0.4340  0.7662
  194MOL0     H26715   2.646   0.348   6.573 -3.0313 -1.1372 -2.4679
  194MOL0     H26716   2.636   0.210   6.473  1.3376 -3.9691 -0.0367
  194MOL0     H26717   2.707   0.067   6.683  0.1838  0.2057  1.0171
  194MOL0     H26718   2.559   0.138   6.696  0.0741 -1.4411  2.6674
  194MOL0     H26719   2.664   0.334   6.827 -3.6592 -1.8059 -2.8797
  194MOL0     H26720   2.651   0.177   6.896 -0.5533 -1.9287 -1.2061
  194MOL0     H26721   2.932   0.039   6.805 -0.3179 -0.3505  3.3627
  194MOL0     H26722   3.206   0.090   6.967  4.5653  2.1542  0.9796
  194MOL0     H26723   3.278   0.199   6.855  0.7281 -0.8091  0.0129
  194MOL0     H26724   3.331  -0.009   6.792 -1.0131  0.9748  0.4270
  194MOL0     H26725   3.169  -0.075   6.781  2.7886 -1.8150  1.0845
  194MOL0     H26726   3.142   0.099   6.580 -1.2136 -1.8384  0.4435
  194MOL0     H26727   3.310   0.148   6.610 -0.6236  0.0270 -1.2892
  194MOL0     H26728   3.384  -0.093   6.575 -1.4601 -3.0357  1.0826
  194MOL0     H26729   3.220  -0.133   6.537 -0.2076 -0.3390  2.7977
  194MOL0     H26730   3.017  -0.074   6.475 -4.8922  1.4509 -0.7764
  194MOL0     H26731   2.711  -0.133   6.303 -2.4194  1.9474  2.2174
  194MOL0     H26732   2.742   0.005   6.391 -0.5794  0.0998 -0.3194
  194MOL0     H26733   2.813  -0.139   6.459  2.4930  2.8004  1.3949
  194MOL0     H26734   2.912  -0.151   5.657 -0.1174 -1.1060  0.0616
  194MOL0     H26735   2.787  -0.155   5.473 -1.3583  3.7729 -2.9515
  194MOL0     H26736   2.382   0.053   5.416  1.8762  0.4467  5.2170
  194MOL0     H26737   2.551   0.104   5.398  0.8953  0.2473 -1.5441
  194MOL0     H26738   2.507  -0.094   5.185  1.9111 -0.6197  2.8449
  194MOL0     H26739   2.363  -0.005   5.182  1.4088  0.8389 -3.3464
  194MOL0     H26740   2.594   0.169   5.172  1.2897 -0.2578 -0.3825
  194MOL0     H26741   2.409   0.195   5.186 -1.1817 -1.9425  0.3029
  194MOL0     H26742   2.379   0.157   4.967  1.2004 -0.0742 -0.9083
  194MOL0     H26743   2.517   0.034   4.967  1.2739 -0.2451  1.2906
  194MOL0     H26744   2.527   0.339   4.963 -0.1073  0.2589  0.6762
  194MOL0     H26745   2.662   0.226   4.985  0.4875  1.1570 -0.5097
  194MOL0     H26746   2.477   0.241   4.736  0.5872 -2.4591 -1.7865
  194MOL0     H26747   2.621   0.151   4.735 -0.1800  0.0993 -0.5400
  194MOL0     H26748   2.733   0.389   4.806  0.1948  0.5795  0.6970
  194MOL0     H26749   2.569   0.444   4.742 -1.1897 -1.2243 -0.9126
  194MOL0     H26750   2.755   0.268   4.604 -2.8049 -1.0333  2.7532
  194MOL0     H26751   2.798   0.442   4.588  0.5175 -0.2991 -1.3072
  194MOL0     H26752   2.459   0.049   5.670  0.9732  2.4092  1.2883
  194MOL0     H26753   2.583   0.042   5.882 -2.3917 -2.2796  0.8252
  194MOL0     H26754   3.067   0.070   6.003 -0.8507  1.9240  0.5801
  194MOL0     H26755   3.260   0.081   6.164  1.7853 -1.0133  3.3106
  194MOL0     H26756   2.761   0.261   5.868  0.0538  0.2746 -2.1710
  194MOL0     H26757   2.793   0.195   5.638 -0.1479  1.1805 -3.5622
  194MOL0     H26758   3.008   0.442   5.113 -1.3133  0.8822 -2.4405
  194MOL0     H26759   3.025   0.333   4.897  3.4624 -2.9240  1.0685
  194MOL0     H26760   2.969   0.066   4.622 -0.6872 -0.1637 -0.0355
  194MOL0     H26761   2.960   0.224   4.688 -1.3335 -0.9891  1.3817
  194MOL0     H26762   3.181   0.210   4.787 -0.5700  0.8736 -0.1299
  194MOL0     H26763   3.180   0.200   4.614  0.4221 -0.3288 -0.7375
  194MOL0     H26764   3.327   0.035   4.720  1.0052 -1.3986 -1.6176
  194MOL0     H26765   3.184  -0.065   4.769 -0.1631 -0.7102  0.2220
  194MOL0     H26766   3.118  -0.073   4.527  0.5058 -0.7087 -0.1100
  194MOL0     H26767   3.266  -0.146   4.557  0.4816 -0.0842  1.7758
  194MOL0     H26768   3.388   0.118   4.264 -1.9387  1.7644 -1.6537
  194MOL0     H26769   2.869  -0.020   5.043  3.0324 -0.2486 -2.8927
  194MOL0     H26770   2.802  -0.049   5.285  1.4650 -1.4326  2.3644
  194MOL0     H26771   2.933   0.043   5.359  1.1969  3.5301 -0.5056
  194MOL0     H26772   2.770   0.093   5.380  0.6579 -2.2774  0.8762
  195MOL0     O26773   5.680   9.455   8.460 -0.6504  0.7714 -0.3997
  195MOL0     C26774   5.634   9.343   8.476 -0.2613  1.2382 -0.0127
  195MOL0     O26775   5.514   9.312   8.537  0.5376  0.5544 -0.3817
  195MOL0     C26776   5.430   9.414   8.557 -0.1104  0.4325  0.8353
  195MOL0     C26777   5.292   9.391   8.523 -0.6252 -0.0361 -0.7226
  195MOL0     C26778   5.196   9.493   8.542 -0.2979  1.1700 -0.4818
  195MOL0     C26779   5.230   9.620   8.599 -0.5279 -0.1128  1.3846
  195MOL0     O26780   5.152   9.743   8.607 -0.7370  0.0184 -1.0864
  195MOL0     C26781   5.054   9.765   8.500  0.1756  0.7723 -0.6293
  195MOL0     C26782   4.940   9.862   8.554 -0.1265  1.6729 -0.2623
  195MOL0     C26783   4.890   9.814   8.695 -0.7736 -0.1028 -0.3937
  195MOL0     C26784   4.774   9.894   8.758 -0.0612 -0.1180  0.0228
  195MOL0     C26785   4.741   9.831   8.891  0.2935 -1.4101  0.1454
  195MOL0     C26786   4.602   9.870   8.944 -0.4655  0.7163  0.3959
  195MOL0     C26787   4.573   9.808   9.077  0.4384  1.1833  0.5502
  195MOL0     C26788   4.553   9.653   9.085  0.3097  0.7053 -0.6790
  195MOL0     N26789   4.447   9.611   8.999  0.1230 -0.3546  0.2800
  195MOL0     C26790   4.458   9.530   8.888 -1.2046  0.3343  0.3629
  195MOL0     C26791   4.339   9.520   8.833 -0.8873 -0.3365  1.0518
  195MOL0     C26792   4.321   9.464   8.693  0.3803  0.1264 -0.5004
  195MOL0     C26793   4.348   9.578   8.590 -0.7561 -0.6587 -0.7530
  195MOL0     C26794   4.300   9.541   8.441  0.1905 -0.3578 -0.5541
  195MOL0     C26795   4.372   9.427   8.365 -0.8798  0.3781 -0.5395
  195MOL0     O26796   4.299   9.310   8.396 -0.1667 -0.3791 -0.2463
  195MOL0     C26797   4.348   9.179   8.368 -0.7073  0.1342  0.0086
  195MOL0     C26798   4.264   9.073   8.327  0.0635 -0.0293 -0.1745
  195MOL0     C26799   4.322   8.944   8.305  0.2071  0.6527  0.8956
  195MOL0     C26800   4.224   8.832   8.252  0.8352 -1.0094  0.1637
  195MOL0     C26801   4.458   8.923   8.335 -0.0295 -0.0264  0.5450
  195MOL0     C26802   4.526   8.799   8.301 -0.2225  0.3121  0.2132
  195MOL0     O26803   4.659   8.800   8.340  0.6158  0.5645  0.6681
  195MOL0     C26804   4.732   8.685   8.331 -0.5519  0.9122  1.2178
  195MOL0     C26805   4.693   8.563   8.395  0.0172  0.0766 -0.3476
  195MOL0     C26806   4.786   8.465   8.397  0.6272  1.0690  0.1710
  195MOL0     C26807   4.911   8.472   8.324 -0.0743  0.4052  0.0313
  195MOL0     O26808   5.004   8.370   8.313  0.1082 -0.4830  0.5567
  195MOL0     C26809   5.000   8.271   8.417 -0.4302 -0.5321  0.2740
  195MOL0     C26810   5.126   8.183   8.392  0.4884 -0.2499 -0.3185
  195MOL0     C26811   5.091   8.051   8.319  0.0051  0.5548  0.0377
  195MOL0     C26812   5.226   7.976   8.285  0.9873  0.2312 -1.2699
  195MOL0     C26813   5.193   7.831   8.250 -0.1980 -0.2130  0.0557
  195MOL0     C26814   5.136   7.804   8.105 -0.0971  0.0751  0.1211
  195MOL0     C26815   5.230   7.844   7.991 -1.1781  0.3804 -0.5067
  195MOL0     C26816   5.224   7.746   7.873  0.2436  1.1407  0.2031
  195MOL0    Cl26817   5.064   7.727   7.803 -0.1383  0.6013  0.3347
  195MOL0     C26818   4.939   8.589   8.256 -0.2684  0.3056 -0.2706
  195MOL0     C26819   4.853   8.691   8.262  0.1584  0.9234 -0.1973
  195MOL0     O26820   4.483   8.715   8.224  0.3760 -0.4833 -0.0099
  195MOL0     C26821   4.543   9.029   8.375  0.1404 -0.0863  0.3773
  195MOL0     C26822   4.486   9.152   8.398 -0.7235 -0.1713  0.1619
  195MOL0     N26823   4.259   9.604   8.907  0.9713 -0.6945 -0.1277
  195MOL0     N26824   4.317   9.644   9.011 -0.3005 -0.6157  0.5631
  195MOL0     C26825   5.372   9.645   8.631  0.0134 -0.4278 -0.0457
  195MOL0     C26826   5.459   9.543   8.608  0.4596 -0.0390  0.2751
  195MOL0     C26827   5.702   9.227   8.415 -0.6589 -0.3811 -0.3095
  195MOL0     C26828   5.844   9.226   8.396 -0.8928 -0.2617 -0.7697
  195MOL0     C26829   5.914   9.110   8.356 -0.3849  0.1932  0.3807
  195MOL0     C26830   5.846   8.990   8.331 -1.4955  0.1389 -0.0425
  195MOL0     O26831   5.928   8.878   8.307  0.4096 -0.5426 -1.0244
  195MOL0     C26832   5.890   8.824   8.177 -0.5836 -0.0519 -0.3266
  195MOL0     C26833   5.843   8.686   8.186 -0.2295  0.3966  0.2227
  195MOL0     C26834   5.951   8.585   8.151 -0.8108  0.1777  0.0612
  195MOL0     C26835   5.898   8.448   8.179  0.7854  0.5729 -0.1898
  195MOL0     C26836   6.008   8.370   8.132  0.0478  0.9424 -0.9300
  195MOL0     C26837   6.115   8.326   8.100 -0.5935  1.1298 -0.4812
  195MOL0     C26838   5.709   8.988   8.339  0.0843  0.0271 -0.2146
  195MOL0     C26839   5.638   9.104   8.391 -0.3333 -0.3740 -0.2111
  195MOL0     C26840   5.487   9.070   8.399 -0.1576 -0.4810  1.0221
  195MOL0     H26841   5.263   9.293   8.487 -0.4667  0.2580 -1.6803
  195MOL0     H26842   5.097   9.464   8.510  0.4863 -0.4777 -1.5310
  195MOL0     H26843   4.992   9.676   8.482 -1.0346  1.1025  1.5294
  195MOL0     H26844   5.106   9.814   8.417 -1.5693  4.3490  0.2015
  195MOL0     H26845   4.981   9.963   8.558 -0.0873  1.9418 -3.9901
  195MOL0     H26846   4.845   9.857   8.500 -0.2323 -0.0308  0.0316
  195MOL0     H26847   4.865   9.708   8.694  0.5303 -0.4335  0.1026
  195MOL0     H26848   4.970   9.819   8.769 -1.2456  2.2243  0.0460
  195MOL0     H26849   4.799  10.000   8.761 -1.1132  0.1568 -0.2102
  195MOL0     H26850   4.685   9.901   8.693  0.8185  4.2780 -1.0086
  195MOL0     H26851   4.810   9.861   8.971 -1.3918 -2.6677  2.1833
  195MOL0     H26852   4.746   9.722   8.886 -3.1235 -1.6544  0.2224
  195MOL0     H26853   4.599   9.979   8.956 -0.5526  0.4236  3.8824
  195MOL0     H26854   4.525   9.850   8.868  0.2297 -0.9580  0.1074
  195MOL0     H26855   4.482   9.854   9.118 -0.9621 -0.3574 -0.6952
  195MOL0     H26856   4.662   9.821   9.140  0.4739 -4.7143  2.3281
  195MOL0     H26857   4.649   9.604   9.063  0.5966  0.1611  1.5138
  195MOL0     H26858   4.518   9.631   9.186  3.4081 -1.7157  0.0567
  195MOL0     H26859   4.548   9.490   8.841 -1.5040  3.3312 -3.2312
  195MOL0     H26860   4.220   9.424   8.683  0.7262 -1.1966  0.8535
  195MOL0     H26861   4.397   9.387   8.675 -1.9234 -1.8391 -2.5562
  195MOL0     H26862   4.314   9.675   8.628  0.8944 -1.6459  3.9419
  195MOL0     H26863   4.454   9.601   8.597 -1.0263  0.7105 -0.8810
  195MOL0     H26864   4.194   9.521   8.428  0.0010  1.0982 -1.4881
  195MOL0     H26865   4.307   9.634   8.384 -0.9319  1.4706  2.0893
  195MOL0     H26866   4.374   9.426   8.256 -0.5603 -0.0439 -0.5350
  195MOL0     H26867   4.475   9.417   8.403 -2.2349 -1.8211  3.0614
  195MOL0     H26868   4.161   9.100   8.306  0.9463  0.8012 -4.4950
  195MOL0     H26869   4.225   8.832   8.142 -0.4927 -0.4443  0.1338
  195MOL0     H26870   4.123   8.862   8.282  0.4323 -0.6382 -1.4465
  195MOL0     H26871   4.262   8.741   8.300  0.4348  0.0426  2.6349
  195MOL0     H26872   4.596   8.563   8.444 -0.0845  0.9545 -0.5307
  195MOL0     H26873   4.747   8.374   8.441  0.2069  0.3396 -1.6539
  195MOL0     H26874   4.998   8.309   8.520 -0.8786 -2.7576  1.1382
  195MOL0     H26875   4.910   8.211   8.411 -0.6621 -0.2826  1.1403
  195MOL0     H26876   5.203   8.241   8.341 -0.5957  1.2837 -0.2826
  195MOL0     H26877   5.166   8.166   8.492 -1.9869  0.4891  0.8769
  195MOL0     H26878   5.040   8.059   8.222 -2.0638 -3.2235  0.6111
  195MOL0     H26879   5.018   7.989   8.372 -0.4875  1.9588  1.0554
  195MOL0     H26880   5.286   7.985   8.376  0.8585  0.6507 -1.2247
  195MOL0     H26881   5.278   8.024   8.201 -0.4221  2.7187 -0.8218
  195MOL0     H26882   5.289   7.779   8.257  0.1332  0.3558 -0.2858
  195MOL0     H26883   5.125   7.788   8.325 -0.0837 -3.1489 -1.3681
  195MOL0     H26884   5.040   7.853   8.082  0.0596 -0.7807 -2.6812
  195MOL0     H26885   5.107   7.699   8.099  0.2375 -0.1291  1.5703
  195MOL0     H26886   5.336   7.832   8.016 -0.7267  1.8527 -1.5403
  195MOL0     H26887   5.216   7.946   7.953 -0.1323  0.7241  0.0024
  195MOL0     H26888   5.256   7.651   7.918 -0.7223  1.2489  1.1566
  195MOL0     H26889   5.300   7.764   7.796  0.3517 -0.7597 -0.1778
  195MOL0     H26890   5.031   8.601   8.199 -1.5150  2.4156 -2.0127
  195MOL0     H26891   4.895   8.782   8.220 -1.1937  1.8282  0.3423
  195MOL0     H26892   4.646   9.022   8.408  0.6312  2.2586 -0.4078
  195MOL0     H26893   4.550   9.219   8.455  1.3164 -1.8488 -0.0644
  195MOL0     H26894   5.406   9.741   8.668 -4.1108  0.1633  2.7911
  195MOL0     H26895   5.564   9.556   8.634  0.7233 -2.4895  0.6665
  195MOL0     H26896   5.913   9.306   8.424 -0.6471 -0.4351 -0.8787
  195MOL0     H26897   6.021   9.098   8.352 -0.7096 -3.2070 -2.0797
  195MOL0     H26898   5.800   8.875   8.143 -3.3771 -2.4845  2.7802
  195MOL0     H26899   5.983   8.844   8.123  1.9796  6.8746  5.1093
  195MOL0     H26900   5.765   8.683   8.108  1.4597  2.5481 -1.7093
  195MOL0     H26901   5.803   8.669   8.286  0.7843 -0.1773  0.5356
  195MOL0     H26902   5.975   8.601   8.046  1.3129  1.2439  0.6506
  195MOL0     H26903   6.041   8.604   8.210  0.2121  2.0496 -1.9486
  195MOL0     H26904   5.800   8.447   8.129  1.1932  4.3075 -1.3873
  195MOL0     H26905   5.899   8.450   8.289  2.3677  1.5537 -0.2010
  195MOL0     H26906   6.214   8.288   8.081  0.7319  3.4609  1.2450
  195MOL0     H26907   5.653   8.897   8.317  0.3152  0.2791 -2.0342
  195MOL0     H26908   5.414   9.146   8.369  0.3260 -1.2516 -2.5222
  195MOL0     H26909   5.460   8.993   8.325 -0.1686 -1.3956  1.9495
  195MOL0     H26910   5.455   9.040   8.499 -1.3985 -1.0117  0.4992
  196MOL0     O26911   4.723   2.045   3.852  0.0641  0.3692  1.0077
  196MOL0     C26912   4.738   2.088   3.737  0.5593 -0.5138 -0.9819
  196MOL0     O26913   4.855   2.131   3.689  0.2949 -0.4107 -0.8114
  196MOL0     C26914   4.954   2.186   3.773 -0.5782  0.2190  0.6741
  196MOL0     C26915   5.030   2.294   3.726 -0.9059  0.6085  0.4876
  196MOL0     C26916   5.145   2.336   3.791  0.6110 -1.1907 -0.1548
  196MOL0     C26917   5.180   2.290   3.919 -0.3632  0.1909 -0.5304
  196MOL0     O26918   5.294   2.347   3.974  0.2152 -0.0859  0.2124
  196MOL0     C26919   5.288   2.417   4.102  0.3416  0.5435 -0.4968
  196MOL0     C26920   5.392   2.525   4.116 -0.2198 -0.4207  0.8094
  196MOL0     C26921   5.389   2.585   4.256  0.4933 -0.7697 -0.1038
  196MOL0     C26922   5.316   2.722   4.253  0.2525  0.2759 -0.0384
  196MOL0     C26923   5.287   2.788   4.386  1.1262 -0.2466 -0.0920
  196MOL0     C26924   5.247   2.942   4.372 -0.0831 -0.3953 -0.9066
  196MOL0     C26925   5.150   2.982   4.270 -0.3918 -0.4638 -0.2217
  196MOL0     C26926   5.139   3.131   4.266 -0.2688  0.1604  0.1114
  196MOL0     N26927   5.024   3.198   4.197  0.0665  0.0741 -0.0870
  196MOL0     C26928   5.029   3.279   4.084 -0.2740  0.9272  0.5683
  196MOL0     C26929   4.904   3.326   4.064  0.5752  0.2539 -0.5764
  196MOL0     C26930   4.865   3.413   3.958 -0.4627  0.6020 -0.0868
  196MOL0     C26931   4.796   3.336   3.834  0.0647  0.0027 -0.0144
  196MOL0     C26932   4.866   3.212   3.771  0.6054  0.3278 -0.0838
  196MOL0     C26933   4.816   3.152   3.643  0.7612 -0.0568  0.5709
  196MOL0     O26934   4.763   3.263   3.570  0.5292  0.0312 -1.1766
  196MOL0     C26935   4.657   3.239   3.482  0.0250 -0.2912 -0.3845
  196MOL0     C26936   4.573   3.342   3.468  0.1633  0.3743 -0.4244
  196MOL0     C26937   4.457   3.325   3.383  0.3114 -1.0489  0.2785
  196MOL0     C26938   4.367   3.454   3.378 -0.1099  0.4700  0.5892
  196MOL0     C26939   4.431   3.208   3.316  0.1816 -0.5930  0.3572
  196MOL0     C26940   4.312   3.164   3.238 -0.1216 -0.1408  0.6487
  196MOL0     O26941   4.336   3.079   3.140  0.4693 -0.1278  0.2286
  196MOL0     C26942   4.240   3.036   3.058  0.4271 -0.7261  0.2511
  196MOL0     C26943   4.155   3.132   2.999  0.2375 -0.0532  0.2411
  196MOL0     C26944   4.041   3.106   2.918 -0.6336  0.0424  1.0536
  196MOL0     C26945   4.020   2.972   2.892 -0.0313 -0.3528  0.2181
  196MOL0     O26946   3.905   2.939   2.821  0.7144 -0.3515 -0.0017
  196MOL0     C26947   3.936   2.854   2.716  0.9115  0.1278  0.4805
  196MOL0     C26948   3.981   2.945   2.601  0.1064  0.7951  0.8783
  196MOL0     C26949   4.041   2.871   2.473 -0.6851  0.0899 -0.3374
  196MOL0     C26950   3.970   2.745   2.433  0.4211  1.2784 -0.3772
  196MOL0     C26951   4.062   2.679   2.321 -0.1361 -0.7715  0.4910
  196MOL0     C26952   4.014   2.533   2.302  0.1047  0.4307  0.6360
  196MOL0     C26953   4.090   2.468   2.189 -0.4722 -0.1190  1.2868
  196MOL0     C26954   4.015   2.377   2.096 -0.7113 -0.3142  0.2051
  196MOL0    Cl26955   3.934   2.250   2.200 -0.3715 -0.0136  0.2519
  196MOL0     C26956   4.104   2.873   2.951  0.0851 -0.1670  0.1007
  196MOL0     C26957   4.218   2.897   3.027  0.2638  0.0146 -0.2357
  196MOL0     O26958   4.203   3.214   3.272 -0.8389  0.5011 -0.3118
  196MOL0     C26959   4.523   3.107   3.327 -0.2133  0.6791  0.0739
  196MOL0     C26960   4.634   3.118   3.416 -0.0397 -0.1535 -0.4924
  196MOL0     N26961   4.822   3.287   4.162 -1.1076  0.6986 -0.0604
  196MOL0     N26962   4.892   3.204   4.237  0.1480 -1.0492  0.0776
  196MOL0     C26963   5.101   2.189   3.976 -0.9288 -0.3428  0.0474
  196MOL0     C26964   4.990   2.143   3.905  0.3771 -0.0110 -0.6307
  196MOL0     C26965   4.625   2.087   3.644  0.4912 -0.6614  0.2536
  196MOL0     C26966   4.631   2.020   3.527  0.2404 -0.5493 -1.1150
  196MOL0     C26967   4.526   2.016   3.440  0.5472  0.4991  0.1267
  196MOL0     C26968   4.406   2.088   3.474  0.9343  0.2135 -0.2390
  196MOL0     O26969   4.300   2.063   3.381 -0.0528 -0.6621 -0.6150
  196MOL0     C26970   4.171   2.120   3.403  0.0767  0.1479  0.1986
  196MOL0     C26971   4.100   2.056   3.522  0.4720 -0.0511 -0.7222
  196MOL0     C26972   3.975   1.958   3.490 -0.4266 -0.9370 -0.4646
  196MOL0     C26973   3.999   1.872   3.360 -0.0248 -0.0306 -1.0421
  196MOL0     C26974   4.126   1.787   3.372  0.1850 -0.3603  0.2440
  196MOL0     C26975   4.215   1.706   3.361 -0.2209 -0.8467 -0.0517
  196MOL0     C26976   4.403   2.169   3.584 -0.4422 -0.0397  0.4282
  196MOL0     C26977   4.506   2.158   3.674 -1.0934  0.7298 -0.7492
  196MOL0     C26978   4.480   2.212   3.812 -0.1375  0.6229  0.5345
  196MOL0     H26979   5.005   2.344   3.633 -2.4240  1.5326  1.3426
  196MOL0     H26980   5.203   2.420   3.755 -0.2886 -0.3933  0.2036
  196MOL0     H26981   5.307   2.346   4.183  1.7423  0.3430 -0.9805
  196MOL0     H26982   5.187   2.456   4.118  0.7999  1.6244 -0.1106
  196MOL0     H26983   5.487   2.481   4.084 -1.9919 -3.9020 -0.1363
  196MOL0     H26984   5.365   2.600   4.041 -0.2265 -3.0528 -2.0555
  196MOL0     H26985   5.339   2.508   4.315  1.0630 -3.3464 -2.7199
  196MOL0     H26986   5.485   2.604   4.305 -0.2775  3.3189  0.1858
  196MOL0     H26987   5.388   2.788   4.204  3.3431 -1.6383  1.5842
  196MOL0     H26988   5.224   2.714   4.194  0.3945  2.9263 -0.7195
  196MOL0     H26989   5.373   2.778   4.453  0.6294  1.8953  0.9457
  196MOL0     H26990   5.206   2.735   4.437  0.4259  1.1461  0.2849
  196MOL0     H26991   5.196   2.960   4.467 -1.4094  2.5155 -2.0577
  196MOL0     H26992   5.335   3.006   4.359 -1.2426  1.7114  1.0595
  196MOL0     H26993   5.046   2.949   4.273 -1.3650  2.2978  2.4560
  196MOL0     H26994   5.187   2.954   4.171  0.8612  0.9522 -0.1981
  196MOL0     H26995   5.112   3.160   4.368 -1.6128 -1.2184  0.1948
  196MOL0     H26996   5.242   3.164   4.247  0.2883 -1.8342 -0.5763
  196MOL0     H26997   5.118   3.293   4.024  1.3134 -1.0184  2.3146
  196MOL0     H26998   4.957   3.467   3.933  0.1750 -1.3571 -2.3928
  196MOL0     H26999   4.790   3.484   3.993 -0.0270  0.1425  1.8684
  196MOL0     H27000   4.694   3.306   3.859 -0.1762 -0.6253 -1.5743
  196MOL0     H27001   4.801   3.410   3.754 -1.0597 -0.6171 -0.6924
  196MOL0     H27002   4.972   3.224   3.747  1.8254 -2.6983  2.8532
  196MOL0     H27003   4.879   3.141   3.854 -0.8051 -2.4368 -2.0762
  196MOL0     H27004   4.892   3.098   3.586 -2.0306 -2.9858 -0.7106
  196MOL0     H27005   4.740   3.075   3.660 -0.1722  0.5057 -0.9057
  196MOL0     H27006   4.592   3.439   3.512 -2.1646  1.5255 -1.7548
  196MOL0     H27007   4.262   3.423   3.384  1.1280 -4.2676  1.5813
  196MOL0     H27008   4.380   3.522   3.293 -1.7718 -0.6201 -0.6009
  196MOL0     H27009   4.377   3.525   3.461  0.7436 -0.4274  1.2741
  196MOL0     H27010   4.150   3.235   3.031 -1.2098  0.0316 -0.1860
  196MOL0     H27011   3.975   3.171   2.862  0.3654  0.1811  0.0100
  196MOL0     H27012   4.010   2.775   2.734  2.5723  1.9605  2.2898
  196MOL0     H27013   3.845   2.806   2.680 -1.0110  2.0291  2.4844
  196MOL0     H27014   3.894   2.996   2.559 -1.1306 -1.5035  0.4651
  196MOL0     H27015   4.066   3.010   2.625  1.2350  0.8502 -2.6235
  196MOL0     H27016   4.144   2.852   2.504 -0.5817 -0.9863 -1.2857
  196MOL0     H27017   4.072   2.933   2.389 -1.3953  0.0718 -0.6179
  196MOL0     H27018   3.870   2.762   2.392  0.0870 -1.1763 -0.6936
  196MOL0     H27019   3.955   2.673   2.514 -1.9157  2.1764  0.0767
  196MOL0     H27020   4.057   2.735   2.227 -1.1597 -3.6423 -1.3149
  196MOL0     H27021   4.164   2.673   2.360  1.3127 -0.2133 -2.8870
  196MOL0     H27022   3.909   2.530   2.270  0.5715 -2.9962 -1.1451
  196MOL0     H27023   4.026   2.476   2.395  1.4793  1.4785  1.1295
  196MOL0     H27024   4.176   2.406   2.215  1.4532  2.0773  0.4697
  196MOL0     H27025   4.128   2.543   2.118 -2.1702  0.4329  0.9090
  196MOL0     H27026   4.092   2.327   2.037 -1.1376 -1.3477  0.4933
  196MOL0     H27027   3.946   2.430   2.029 -0.9907 -1.8437 -0.7725
  196MOL0     H27028   4.072   2.771   2.937  0.7786 -0.5092  0.9535
  196MOL0     H27029   4.285   2.816   3.054 -0.0077 -0.6585 -1.5222
  196MOL0     H27030   4.507   3.015   3.271 -0.7010  2.1225 -2.3048
  196MOL0     H27031   4.694   3.029   3.432  1.1260  0.4173 -1.5304
  196MOL0     H27032   5.139   2.137   4.064  1.8353 -1.1438 -1.4984
  196MOL0     H27033   4.942   2.062   3.959  1.6794  0.7181  1.7790
  196MOL0     H27034   4.718   1.956   3.512  1.0983  0.3825 -0.2499
  196MOL0     H27035   4.529   1.944   3.358  3.4284 -0.0733  0.6132
  196MOL0     H27036   4.189   2.226   3.422 -1.3198  0.1572  1.7585
  196MOL0     H27037   4.110   2.112   3.312 -2.8530  0.6155  1.9953
  196MOL0     H27038   4.052   2.132   3.583  0.9674 -0.0706 -0.2992
  196MOL0     H27039   4.177   2.006   3.582 -0.1939 -0.0268  0.1694
  196MOL0     H27040   3.950   1.896   3.576  0.7171  0.0136  0.6045
  196MOL0     H27041   3.887   2.020   3.471 -0.4176 -0.9901 -0.6844
  196MOL0     H27042   3.989   1.919   3.262 -0.4569 -1.0711 -1.5072
  196MOL0     H27043   3.909   1.811   3.371  0.1166 -0.2764 -1.2334
  196MOL0     H27044   4.298   1.637   3.362 -1.0389 -1.9447  2.9619
  196MOL0     H27045   4.310   2.220   3.607 -1.2894 -2.0358  1.6534
  196MOL0     H27046   4.385   2.263   3.826 -0.1763  0.8388 -0.4210
  196MOL0     H27047   4.471   2.127   3.881 -3.4221  0.1558 -0.3193
  196MOL0     H27048   4.565   2.275   3.842  0.4151  1.2827 -2.1285
  197MOL0     O27049  10.337   3.796   3.469  0.2753 -0.1489  0.5647
  197MOL0     C27050  10.344   3.826   3.589 -0.3981  0.2561 -0.6042
  197MOL0     O27051  10.245   3.821   3.682  0.5752 -0.6633 -0.8956
  197MOL0     C27052  10.127   3.759   3.663 -0.0925  0.4007 -0.0995
  197MOL0     C27053  10.054   3.760   3.540 -0.7453 -0.2287  0.8032
  197MOL0     C27054   9.942   3.675   3.530 -0.2509  0.5645  0.2743
  197MOL0     C27055   9.883   3.605   3.647  0.2857 -1.3278  0.2152
  197MOL0     O27056   9.769   3.529   3.637 -0.0765 -0.3096  0.3537
  197MOL0     C27057   9.643   3.602   3.626  1.4749 -0.5362 -0.8549
  197MOL0     C27058   9.578   3.599   3.764 -0.1231 -0.2653  0.3263
  197MOL0     C27059   9.425   3.616   3.746 -0.4960  0.5446 -0.0324
  197MOL0     C27060   9.354   3.562   3.871 -0.4328 -1.4640  0.5006
  197MOL0     C27061   9.369   3.662   3.994 -0.5565 -0.2047  0.8642
  197MOL0     C27062   9.297   3.801   3.990 -0.0972  0.1773 -0.5634
  197MOL0     C27063   9.334   3.893   4.105 -0.2485 -0.0662  0.2732
  197MOL0     C27064   9.290   3.839   4.247 -0.2983  0.1393  0.0477
  197MOL0     N27065   9.145   3.852   4.261  0.6172  0.0119  0.3615
  197MOL0     C27066   9.066   3.958   4.225  0.2103 -0.6175 -0.3548
  197MOL0     C27067   8.937   3.911   4.228  0.1522  0.4915 -0.4089
  197MOL0     C27068   8.817   3.981   4.174 -0.9369 -0.5368  0.4978
  197MOL0     C27069   8.841   3.976   4.020 -0.0454  0.1521  0.4870
  197MOL0     C27070   8.781   4.097   3.958 -0.4046 -0.2153 -0.1210
  197MOL0     C27071   8.880   4.210   3.905  0.0515  0.2308  0.5030
  197MOL0     O27072   8.985   4.237   3.991  0.0492  0.5135 -0.4152
  197MOL0     C27073   8.995   4.356   4.056  0.4555  0.2030  0.7422
  197MOL0     C27074   9.105   4.433   4.035  0.0949  0.1170  0.5964
  197MOL0     C27075   9.126   4.553   4.099 -0.0552  0.0715 -0.0529
  197MOL0     C27076   9.260   4.621   4.065  0.2788 -1.0768 -0.6448
  197MOL0     C27077   9.017   4.603   4.180 -0.0230  0.1893 -0.6627
  197MOL0     C27078   9.004   4.744   4.245  0.9970  0.2193 -0.5010
  197MOL0     O27079   8.904   4.775   4.330 -0.3937 -0.0055  0.2211
  197MOL0     C27080   8.898   4.907   4.381  0.0998  0.5142 -0.3812
  197MOL0     C27081   8.830   5.004   4.306 -0.2905 -0.1187  0.1129
  197MOL0     C27082   8.818   5.136   4.356  0.0304 -0.0585 -0.8725
  197MOL0     C27083   8.886   5.177   4.475 -0.1390  0.2332 -0.6368
  197MOL0     O27084   8.887   5.309   4.527  0.1903 -0.4714  0.3428
  197MOL0     C27085   9.012   5.383   4.545  0.1134 -0.5011 -0.9971
  197MOL0     C27086   9.072   5.441   4.407 -0.8894 -0.6107  0.7548
  197MOL0     C27087   9.218   5.472   4.422 -0.3047  0.5576 -0.3206
  197MOL0     C27088   9.240   5.602   4.481 -0.4972 -0.8778 -0.2980
  197MOL0     C27089   9.394   5.617   4.513  0.1847  0.4006  0.5667
  197MOL0     C27090   9.420   5.744   4.588 -0.2358  0.7504 -0.1026
  197MOL0     C27091   9.440   5.861   4.488  0.3866 -0.1914  0.2370
  197MOL0     C27092   9.410   5.996   4.565 -0.6850 -0.0178 -0.6988
  197MOL0    Cl27093   9.515   6.032   4.715  0.6056 -0.1882 -0.5482
  197MOL0     C27094   8.959   5.089   4.548 -0.8873  0.1397  0.6725
  197MOL0     C27095   8.959   4.951   4.504  0.7932 -0.1073  0.0981
  197MOL0     O27096   9.099   4.820   4.222  0.7422  0.6600 -0.1290
  197MOL0     C27097   8.903   4.520   4.202  0.7626  0.9347  0.5325
  197MOL0     C27098   8.888   4.395   4.144 -0.2385 -0.1094  0.6066
  197MOL0     N27099   8.942   3.780   4.289  0.1741 -0.7460 -0.6420
  197MOL0     N27100   9.064   3.746   4.308 -0.4663 -0.5781  0.6295
  197MOL0     C27101   9.949   3.618   3.765  0.9599 -0.8875  0.6677
  197MOL0     C27102  10.068   3.689   3.771 -0.6862 -0.3900  0.7250
  197MOL0     C27103  10.478   3.878   3.625  0.2222  0.4090 -0.7576
  197MOL0     C27104  10.489   3.919   3.756 -0.5100  0.2769 -0.7921
  197MOL0     C27105  10.603   3.969   3.804 -0.8925  0.6119 -1.5969
  197MOL0     C27106  10.718   3.972   3.727 -0.5750  0.0421 -0.0225
  197MOL0     O27107  10.832   4.040   3.770  0.6857  0.7269 -0.0706
  197MOL0     C27108  10.826   4.190   3.749 -0.6345 -0.5144 -0.3851
  197MOL0     C27109  10.961   4.244   3.757 -0.2334 -0.0432  0.0299
  197MOL0     C27110  10.982   4.391   3.753 -0.5549  0.4119  0.3063
  197MOL0     C27111  10.899   4.457   3.642 -0.0748  0.6676  0.7072
  197MOL0     C27112  10.932   4.399   3.509  0.0578 -0.4852  0.6565
  197MOL0     C27113  10.955   4.354   3.396 -0.2910 -0.2652 -0.1394
  197MOL0     C27114  10.709   3.934   3.589  0.5182  0.1725  0.3517
  197MOL0     C27115  10.594   3.873   3.543 -0.3747 -0.5595  0.4748
  197MOL0     C27116  10.606   3.817   3.406 -0.6406 -0.1438  0.2561
  197MOL0     H27117  10.081   3.810   3.447  0.6975 -0.2584  1.1950
  197MOL0     H27118   9.874   3.663   3.446 -1.0305  2.5370  0.5732
  197MOL0     H27119   9.578   3.557   3.550 -1.9761  2.6766 -0.1355
  197MOL0     H27120   9.647   3.706   3.594 -1.5091  0.2785  0.9994
  197MOL0     H27121   9.603   3.501   3.806 -2.1490 -2.1328 -2.4252
  197MOL0     H27122   9.622   3.680   3.823 -0.4209 -0.5890  1.0006
  197MOL0     H27123   9.392   3.719   3.734 -1.2730  0.5388  1.7332
  197MOL0     H27124   9.383   3.557   3.664 -0.7969  0.3462  0.2645
  197MOL0     H27125   9.246   3.562   3.856 -0.6709  2.8395  0.9362
  197MOL0     H27126   9.393   3.462   3.893 -0.4381 -1.3103  1.2294
  197MOL0     H27127   9.474   3.674   4.021 -0.7910 -0.0138  1.7263
  197MOL0     H27128   9.320   3.607   4.076 -1.3904  1.6832  1.7062
  197MOL0     H27129   9.320   3.861   3.901  1.6372  4.1072  2.2535
  197MOL0     H27130   9.189   3.783   3.994 -0.5791  1.1805 -4.3049
  197MOL0     H27131   9.297   3.995   4.096  2.3968  1.0965  1.6220
  197MOL0     H27132   9.443   3.896   4.100 -0.2907  3.2921 -0.9356
  197MOL0     H27133   9.324   3.736   4.266 -1.5743  0.0199  1.9962
  197MOL0     H27134   9.334   3.894   4.330 -0.5205  2.2203 -1.1580
  197MOL0     H27135   9.110   4.050   4.189  1.9359 -0.7475  1.2910
  197MOL0     H27136   8.826   4.080   4.219  0.8285 -0.0515 -0.8336
  197MOL0     H27137   8.722   3.939   4.208 -2.1333  1.5204 -0.0960
  197MOL0     H27138   8.946   3.980   3.991 -0.2289 -2.8389 -0.9528
  197MOL0     H27139   8.792   3.884   3.985 -3.1565  0.7411  2.8226
  197MOL0     H27140   8.725   4.071   3.867  0.3617  1.6272 -1.1631
  197MOL0     H27141   8.706   4.150   4.018  2.7838  3.7985  0.7884
  197MOL0     H27142   8.932   4.157   3.824  2.2420  0.0141  1.9642
  197MOL0     H27143   8.829   4.299   3.866  0.9335 -0.1301 -1.6104
  197MOL0     H27144   9.188   4.389   3.980  0.4747  0.2771  1.0370
  197MOL0     H27145   9.341   4.547   4.061  0.8908 -0.6392  1.9397
  197MOL0     H27146   9.284   4.683   4.152 -3.2683  1.1528 -1.0788
  197MOL0     H27147   9.266   4.693   3.983 -0.1232 -1.5977 -1.1473
  197MOL0     H27148   8.792   4.976   4.209  1.2187 -1.1270 -0.2276
  197MOL0     H27149   8.760   5.205   4.296  0.2334  0.5246 -0.4068
  197MOL0     H27150   9.005   5.471   4.610  1.6398  0.5331 -2.1616
  197MOL0     H27151   9.088   5.314   4.582 -0.1527 -1.6116 -2.4134
  197MOL0     H27152   9.060   5.367   4.327  0.1713  1.9809 -1.9861
  197MOL0     H27153   9.012   5.528   4.380 -1.0067  0.1477  3.2212
  197MOL0     H27154   9.274   5.467   4.328  3.1281 -0.4843  1.6078
  197MOL0     H27155   9.262   5.391   4.481 -3.0825  2.0386  4.3154
  197MOL0     H27156   9.191   5.603   4.579 -0.9479  1.7420 -0.4661
  197MOL0     H27157   9.203   5.676   4.410  1.0481 -3.0137 -3.5648
  197MOL0     H27158   9.411   5.536   4.585  0.4437 -1.7737 -1.7912
  197MOL0     H27159   9.453   5.606   4.422  0.0700  0.8899  0.4334
  197MOL0     H27160   9.505   5.731   4.655 -1.2258 -3.6594  0.6144
  197MOL0     H27161   9.341   5.763   4.661  1.3169  1.0282  1.5467
  197MOL0     H27162   9.363   5.858   4.411  0.1359  0.0652  0.4775
  197MOL0     H27163   9.544   5.859   4.452  1.0775 -1.4084  2.1862
  197MOL0     H27164   9.309   5.993   4.608 -1.4783 -1.5137 -2.5254
  197MOL0     H27165   9.413   6.080   4.496 -2.0206  1.2334  0.6889
  197MOL0     H27166   9.011   5.117   4.639 -1.2237 -1.8898  1.5286
  197MOL0     H27167   9.016   4.876   4.558  2.0511  1.5713  1.2246
  197MOL0     H27168   8.811   4.547   4.255  1.5866 -1.2761  3.3712
  197MOL0     H27169   8.799   4.334   4.151  1.5340 -2.7321  1.8472
  197MOL0     H27170   9.910   3.580   3.858 -2.5230  0.9744  0.1703
  197MOL0     H27171  10.124   3.690   3.864 -0.8886 -0.3363  0.8448
  197MOL0     H27172  10.410   3.925   3.830  1.9222  1.5120  1.9086
  197MOL0     H27173  10.588   4.008   3.905 -2.4415 -1.4299 -0.9809
  197MOL0     H27174  10.778   4.201   3.651 -1.7644  0.3010  0.2419
  197MOL0     H27175  10.761   4.242   3.820  3.9320  2.6789  1.9471
  197MOL0     H27176  11.027   4.206   3.678 -1.3055 -1.7980 -0.0851
  197MOL0     H27177  11.007   4.217   3.853  1.5749  0.8544 -0.5429
  197MOL0     H27178  10.949   4.430   3.850  0.6728 -0.6053  1.1786
  197MOL0     H27179  11.091   4.396   3.741 -0.1634 -2.8430  1.3087
  197MOL0     H27180  10.933   4.560   3.626  4.7289 -0.9289 -0.8184
  197MOL0     H27181  10.791   4.466   3.659 -0.2159 -0.1455  0.2871
  197MOL0     H27182  10.989   4.311   3.304  2.3969 -0.3629  0.8090
  197MOL0     H27183  10.797   3.935   3.525  1.0015 -1.9895  0.9013
  197MOL0     H27184  10.602   3.708   3.404  1.9799 -0.2773 -0.7877
  197MOL0     H27185  10.529   3.862   3.343  1.1377 -0.2939 -2.1347
  197MOL0     H27186  10.708   3.824   3.368 -0.4785 -4.2528 -0.5118
  198MOL0     O27187   0.409   6.867   8.583 -0.0164 -0.1601 -0.3809
  198MOL0     C27188   0.424   6.882   8.704 -0.2924  1.2494  0.0928
  198MOL0     O27189   0.358   6.799   8.792 -0.1318 -0.4556 -0.3623
  198MOL0     C27190   0.310   6.682   8.740 -0.0853 -0.4351 -0.0575
  198MOL0     C27191   0.400   6.586   8.702 -0.0852 -1.0924 -0.7860
  198MOL0     C27192   0.365   6.460   8.650 -0.0043  0.1657 -1.1171
  198MOL0     C27193   0.228   6.430   8.622  1.1106 -0.4082  0.6989
  198MOL0     O27194   0.217   6.297   8.577  0.5739 -1.2928  0.1372
  198MOL0     C27195   0.138   6.289   8.459 -0.0644 -0.6153 -0.8979
  198MOL0     C27196   0.096   6.150   8.438  0.4543 -0.4192 -0.1576
  198MOL0     C27197   0.200   6.038   8.422  0.6974 -1.0178 -0.2155
  198MOL0     C27198   0.149   5.917   8.339 -0.7394  0.3010  0.4370
  198MOL0     C27199   0.255   5.799   8.357 -0.2621  0.4931 -0.7048
  198MOL0     C27200   0.223   5.701   8.249  0.3886 -0.1087 -0.0644
  198MOL0     C27201   0.317   5.581   8.236  0.2327  0.5323 -0.7904
  198MOL0     C27202   0.460   5.617   8.190 -0.6659 -0.0765 -0.6334
  198MOL0     N27203   0.467   5.701   8.070  0.3965  0.2225 -0.5499
  198MOL0     C27204   0.404   5.681   7.955  0.0898  0.3167  0.5992
  198MOL0     C27205   0.457   5.782   7.884 -0.2348  0.5106  0.1608
  198MOL0     C27206   0.439   5.802   7.731  0.9942 -0.0526  0.5582
  198MOL0     C27207   0.334   5.906   7.687  0.4085  0.3058  0.4528
  198MOL0     C27208   0.376   5.950   7.548  0.7490 -0.2878  0.0708
  198MOL0     C27209   0.259   6.023   7.470 -1.1947  0.1706  1.0783
  198MOL0     O27210   0.314   6.051   7.346  0.1196  0.1094  0.4410
  198MOL0     C27211   0.238   6.103   7.250  0.5715 -0.2205 -0.0174
  198MOL0     C27212   0.249   6.066   7.117 -0.1362 -0.8862 -0.0624
  198MOL0     C27213   0.201   6.137   7.000 -0.3070  0.4891 -1.0984
  198MOL0     C27214   0.220   6.069   6.864 -0.2579 -0.0977  0.3539
  198MOL0     C27215   0.112   6.243   7.023 -0.0227  0.1489  0.0213
  198MOL0     C27216   0.037   6.304   6.907 -0.3219 -0.4966  0.6957
  198MOL0     O27217  -0.086   6.364   6.933 -0.2805  0.2993  0.9493
  198MOL0     C27218  -0.155   6.431   6.833 -1.2829 -0.1871 -0.1375
  198MOL0     C27219  -0.283   6.380   6.801 -0.3667  0.0320 -0.5500
  198MOL0     C27220  -0.373   6.444   6.718 -0.0048 -0.2308  0.3290
  198MOL0     C27221  -0.337   6.574   6.673 -0.0712  0.9128  0.2692
  198MOL0     O27222  -0.422   6.652   6.608  0.9063 -0.0248 -0.0959
  198MOL0     C27223  -0.539   6.591   6.554  0.1037 -0.4192  0.1670
  198MOL0     C27224  -0.506   6.508   6.428  1.1033 -0.0228  0.0206
  198MOL0     C27225  -0.618   6.521   6.327 -1.0305  0.2571 -0.2380
  198MOL0     C27226  -0.753   6.462   6.358 -0.1046 -0.5540  0.3266
  198MOL0     C27227  -0.840   6.450   6.232 -0.0285 -0.0626 -0.5141
  198MOL0     C27228  -0.888   6.590   6.173 -0.7935  0.2330  0.3568
  198MOL0     C27229  -0.993   6.566   6.068  0.1923 -0.5723  0.2380
  198MOL0     C27230  -1.090   6.687   6.072 -0.3618 -0.3481  0.4050
  198MOL0    Cl27231  -1.222   6.655   5.960 -0.1008 -0.2465  0.1784
  198MOL0     C27232  -0.211   6.627   6.705  0.6964 -0.1068  0.8625
  198MOL0     C27233  -0.121   6.561   6.784 -0.3045 -0.2259  0.0287
  198MOL0     O27234   0.104   6.328   6.806 -1.4119  0.1223 -0.7821
  198MOL0     C27235   0.098   6.288   7.164 -0.5843  0.0330 -0.2432
  198MOL0     C27236   0.160   6.220   7.274 -0.1034 -0.9987 -0.8622
  198MOL0     N27237   0.545   5.858   7.963 -0.4433 -0.8957  0.0568
  198MOL0     N27238   0.546   5.806   8.076 -0.5651  0.2888 -0.0744
  198MOL0     C27239   0.129   6.523   8.663 -0.1839 -0.8642 -0.0397
  198MOL0     C27240   0.171   6.649   8.719 -0.7668  0.2060 -0.5508
  198MOL0     C27241   0.518   6.983   8.753 -1.2833 -0.8090  0.2749
  198MOL0     C27242   0.534   7.005   8.892  0.0583  0.1988  0.3710
  198MOL0     C27243   0.616   7.092   8.960 -0.2474  0.4265  0.3159
  198MOL0     C27244   0.701   7.170   8.880 -0.4031 -0.2927 -0.0417
  198MOL0     O27245   0.794   7.250   8.937  0.3875  0.0349 -0.5852
  198MOL0     C27246   0.914   7.300   8.873  0.0889  0.9026 -0.3703
  198MOL0     C27247   0.985   7.415   8.942  0.9264  0.4588  0.2410
  198MOL0     C27248   1.012   7.533   8.846  1.0283 -0.5910  0.0074
  198MOL0     C27249   1.100   7.640   8.900 -0.3189  0.1562 -0.3083
  198MOL0     C27250   1.126   7.755   8.805 -0.0872  0.7523  0.7790
  198MOL0     C27251   1.140   7.852   8.732  0.4723 -0.2939 -0.4972
  198MOL0     C27252   0.689   7.159   8.742  0.6429  0.6707  0.0823
  198MOL0     C27253   0.596   7.071   8.678  0.0356 -1.2098 -0.0644
  198MOL0     C27254   0.590   7.074   8.527  0.4994  1.1530  0.2119
  198MOL0     H27255   0.503   6.610   8.723  0.2862 -1.0525 -2.4880
  198MOL0     H27256   0.431   6.383   8.614 -0.5200 -1.1347  0.5830
  198MOL0     H27257   0.198   6.341   8.383  1.7660  0.2356  0.9933
  198MOL0     H27258   0.044   6.344   8.464 -0.8979 -2.0620  0.2853
  198MOL0     H27259   0.045   6.124   8.531  0.2062  1.6162  0.3141
  198MOL0     H27260   0.025   6.147   8.355 -1.9750  1.6674  1.6772
  198MOL0     H27261   0.282   6.068   8.356  2.5013 -4.8173 -0.0213
  198MOL0     H27262   0.249   6.016   8.517 -2.1539  2.6714  2.3697
  198MOL0     H27263   0.051   5.879   8.366 -1.4279 -0.0460 -2.2483
  198MOL0     H27264   0.146   5.948   8.234 -1.7249  4.5595  1.5178
  198MOL0     H27265   0.220   5.759   8.453 -0.8982  4.6367  0.9983
  198MOL0     H27266   0.357   5.837   8.362 -1.0713  2.7224  0.1609
  198MOL0     H27267   0.124   5.667   8.281  0.6556  1.2805  2.5435
  198MOL0     H27268   0.224   5.757   8.156 -1.3262  2.8462  1.5320
  198MOL0     H27269   0.268   5.523   8.158 -5.9352  3.6997  0.0978
  198MOL0     H27270   0.306   5.520   8.326 -0.7059  1.6644 -0.1090
  198MOL0     H27271   0.505   5.662   8.279 -1.0852  0.3363 -0.6268
  198MOL0     H27272   0.521   5.529   8.169 -0.9204 -0.6909  1.0063
  198MOL0     H27273   0.344   5.592   7.937 -2.4189  2.4236 -2.6700
  198MOL0     H27274   0.424   5.702   7.690  0.5810  0.2111  0.0543
  198MOL0     H27275   0.536   5.828   7.688  0.3409  0.4837 -0.6323
  198MOL0     H27276   0.236   5.859   7.693  0.7542 -0.3713  0.8373
  198MOL0     H27277   0.337   5.993   7.755  1.7304  2.5758 -2.2849
  198MOL0     H27278   0.457   6.021   7.567 -0.7556  1.4416  0.2604
  198MOL0     H27279   0.418   5.877   7.477  0.9376  0.6042 -0.7587
  198MOL0     H27280   0.173   5.956   7.461 -1.4543  0.2534  2.6086
  198MOL0     H27281   0.229   6.116   7.520 -2.4116  0.2018  0.3382
  198MOL0     H27282   0.310   5.979   7.097 -2.7287 -3.0111  0.6980
  198MOL0     H27283   0.251   5.968   6.891  1.5595  0.8467  2.1181
  198MOL0     H27284   0.299   6.124   6.813  0.5856 -3.0423 -1.7624
  198MOL0     H27285   0.130   6.069   6.803  1.9081  2.5908 -3.2277
  198MOL0     H27286  -0.309   6.282   6.839 -1.4833 -0.0364 -1.4330
  198MOL0     H27287  -0.473   6.404   6.706 -1.1416  1.4334  3.3187
  198MOL0     H27288  -0.606   6.552   6.631  1.1265  2.2953  2.6016
  198MOL0     H27289  -0.600   6.672   6.513  0.5826 -0.2644 -0.2489
  198MOL0     H27290  -0.409   6.544   6.393  2.9233  0.8789  5.0937
  198MOL0     H27291  -0.493   6.400   6.443 -0.7851 -0.6614 -2.3381
  198MOL0     H27292  -0.585   6.463   6.240  0.5781  0.7684 -0.0133
  198MOL0     H27293  -0.617   6.621   6.282 -0.4808 -0.6923 -2.4589
  198MOL0     H27294  -0.800   6.535   6.425  1.0611  1.3076 -0.8266
  198MOL0     H27295  -0.744   6.362   6.403 -3.0715 -0.4936  1.2776
  198MOL0     H27296  -0.791   6.400   6.148  1.4602 -0.7344  0.7032
  198MOL0     H27297  -0.927   6.391   6.263 -0.2999  0.6534  0.1112
  198MOL0     H27298  -0.806   6.640   6.119 -1.0304 -1.0598 -1.2912
  198MOL0     H27299  -0.928   6.654   6.252 -5.4215 -2.9031  0.9485
  198MOL0     H27300  -1.058   6.481   6.092 -1.7219  0.4070 -1.1924
  198MOL0     H27301  -0.957   6.567   5.965  0.2467  1.4419  0.2224
  198MOL0     H27302  -1.033   6.774   6.039  0.6000 -1.8066 -2.0382
  198MOL0     H27303  -1.142   6.695   6.168 -0.3837  2.8370  0.2275
  198MOL0     H27304  -0.185   6.722   6.659 -2.4545  1.1273  1.3866
  198MOL0     H27305  -0.032   6.612   6.818 -1.6449  1.4427  1.2629
  198MOL0     H27306   0.030   6.372   7.175 -0.7942 -0.4004  2.4237
  198MOL0     H27307   0.144   6.273   7.368 -1.9992  0.3782 -1.8959
  198MOL0     H27308   0.027   6.487   8.651  0.4778 -4.1742  2.6656
  198MOL0     H27309   0.109   6.731   8.755  1.2675  2.0839 -1.0509
  198MOL0     H27310   0.465   6.952   8.958 -0.6440  1.6091  0.8173
  198MOL0     H27311   0.607   7.093   9.068 -0.3328 -0.7947  0.3376
  198MOL0     H27312   0.986   7.220   8.852 -1.2046 -0.9963  1.9245
  198MOL0     H27313   0.894   7.338   8.772  1.1630  0.6225 -0.7019
  198MOL0     H27314   1.084   7.384   8.977  1.2608  0.5826 -0.5622
  198MOL0     H27315   0.928   7.440   9.032 -0.8444 -1.3238 -0.3262
  198MOL0     H27316   1.055   7.503   8.750 -0.4526  1.3928 -1.3557
  198MOL0     H27317   0.910   7.571   8.834  0.9635  0.7834  3.6954
  198MOL0     H27318   1.199   7.599   8.925 -0.0319  0.3779 -1.0328
  198MOL0     H27319   1.065   7.675   8.997  0.5804 -1.6813  0.7337
  198MOL0     H27320   1.151   7.941   8.673  0.5532 -0.8350 -1.3152
  198MOL0     H27321   0.757   7.212   8.676  0.1108  0.4119 -0.6842
  198MOL0     H27322   0.490   7.090   8.485 -1.8974 -2.3738  3.7788
  198MOL0     H27323   0.651   7.154   8.484  3.3596 -0.8096  0.3463
  198MOL0     H27324   0.628   6.977   8.495 -0.5307 -0.1325  2.6283
  199MOL0     O27325   0.832   5.001   1.426 -0.0820 -0.2201  0.2524
  199MOL0     C27326   0.916   4.967   1.512  0.0494  0.0066  0.2137
  199MOL0     O27327   0.907   4.859   1.596 -0.6893 -0.6644 -1.4334
  199MOL0     C27328   0.817   4.753   1.575  0.5764  0.9720  0.4007
  199MOL0     C27329   0.866   4.631   1.523 -0.4168 -0.7953  0.2276
  199MOL0     C27330   0.786   4.522   1.489 -0.1444  0.2076  0.2484
  199MOL0     C27331   0.649   4.525   1.525  0.5734  0.0576  0.7042
  199MOL0     O27332   0.566   4.417   1.503  0.1963  0.1029  0.8745
  199MOL0     C27333   0.551   4.356   1.376  0.9123  0.7090  1.1252
  199MOL0     C27334   0.446   4.244   1.381  0.3388  0.7200 -0.1502
  199MOL0     C27335   0.427   4.182   1.246 -0.0384  0.1620  0.5542
  199MOL0     C27336   0.282   4.123   1.209 -0.1667  0.0081 -0.5285
  199MOL0     C27337   0.228   4.144   1.061 -1.4499 -0.8159  0.0363
  199MOL0     C27338   0.080   4.135   1.060  0.9469 -0.2313 -1.0642
  199MOL0     C27339   0.029   4.167   0.913 -0.5194 -1.1399 -0.2809
  199MOL0     C27340  -0.115   4.179   0.897 -0.8591 -0.3236  0.1852
  199MOL0     N27341  -0.173   4.045   0.916 -0.6177 -0.5351 -0.1090
  199MOL0     C27342  -0.220   4.008   1.041 -0.5371  0.0924  0.2394
  199MOL0     C27343  -0.242   3.879   1.031  0.2550  0.7122  0.1850
  199MOL0     C27344  -0.277   3.795   1.151  0.2261  0.4156 -0.0755
  199MOL0     C27345  -0.427   3.740   1.143  0.3918  0.6083  0.0931
  199MOL0     C27346  -0.435   3.596   1.205 -0.8441  0.3551  0.7758
  199MOL0     C27347  -0.459   3.593   1.355 -0.3585 -0.7243  0.2457
  199MOL0     O27348  -0.494   3.463   1.389  0.6087  0.0707  1.0761
  199MOL0     C27349  -0.520   3.422   1.516 -0.6290  0.9114 -0.3251
  199MOL0     C27350  -0.417   3.386   1.600 -0.0569 -0.6948  0.3300
  199MOL0     C27351  -0.437   3.343   1.726  0.0413 -0.4199 -0.4484
  199MOL0     C27352  -0.309   3.328   1.795 -0.8977  0.1170  0.0462
  199MOL0     C27353  -0.572   3.324   1.773  0.2013  0.0191  0.2090
  199MOL0     C27354  -0.606   3.275   1.899  0.4488  0.1684 -0.5425
  199MOL0     O27355  -0.727   3.221   1.921  0.4039 -0.3974 -0.6559
  199MOL0     C27356  -0.766   3.147   2.030 -0.0388 -0.0037 -0.9887
  199MOL0     C27357  -0.768   3.186   2.166 -0.0498  1.3276 -0.2752
  199MOL0     C27358  -0.809   3.100   2.270 -0.2633  1.0346  0.5473
  199MOL0     C27359  -0.839   2.970   2.241 -0.4382 -0.8181 -0.3595
  199MOL0     O27360  -0.870   2.906   2.356  0.1001 -0.3390  0.1691
  199MOL0     C27361  -0.899   2.768   2.330  0.0356 -0.4424  0.5807
  199MOL0     C27362  -0.897   2.691   2.462 -0.0134  1.0870  1.0755
  199MOL0     C27363  -1.038   2.669   2.519  0.4673  0.7917 -0.1267
  199MOL0     C27364  -1.099   2.528   2.478 -0.0618 -0.5363  0.0014
  199MOL0     C27365  -1.244   2.532   2.493  0.3078 -0.2534 -0.4768
  199MOL0     C27366  -1.335   2.440   2.418  0.2385 -0.1252  0.6040
  199MOL0     C27367  -1.477   2.486   2.409 -0.9922 -0.3025 -0.2757
  199MOL0     C27368  -1.576   2.415   2.502  1.5673 -0.2344 -0.3143
  199MOL0    Cl27369  -1.746   2.456   2.478  0.3495 -0.3458 -0.5827
  199MOL0     C27370  -0.860   2.940   2.108 -0.9757  0.0301 -0.3693
  199MOL0     C27371  -0.813   3.023   2.002  0.4907 -0.9377  0.8181
  199MOL0     O27372  -0.522   3.285   1.984  0.5137 -0.4083  0.4230
  199MOL0     C27373  -0.681   3.349   1.683 -0.5716 -0.2363 -0.4043
  199MOL0     C27374  -0.652   3.400   1.558  0.1379  0.6616  0.8214
  199MOL0     N27375  -0.206   3.830   0.906  1.3637  0.3547 -0.4916
  199MOL0     N27376  -0.166   3.935   0.842 -0.2504  0.1189  0.5327
  199MOL0     C27377   0.596   4.637   1.585 -0.3476 -0.3852  0.2380
  199MOL0     C27378   0.680   4.750   1.605 -0.0694 -0.1629  0.6536
  199MOL0     C27379   1.018   5.073   1.539 -0.4094 -0.3130 -0.4010
  199MOL0     C27380   1.092   5.056   1.657  0.1540 -1.0785 -0.0012
  199MOL0     C27381   1.207   5.132   1.689  1.2429 -0.2414 -1.0226
  199MOL0     C27382   1.236   5.246   1.614 -0.4152 -0.0412  0.5059
  199MOL0     O27383   1.335   5.322   1.666 -0.6388 -0.1137 -0.1594
  199MOL0     C27384   1.396   5.423   1.590 -0.1658  0.4037  0.0622
  199MOL0     C27385   1.359   5.568   1.621 -0.5482 -0.2082  0.0243
  199MOL0     C27386   1.224   5.613   1.576 -0.3517  0.5871  0.4315
  199MOL0     C27387   1.206   5.630   1.421  0.0876 -0.3913  0.4814
  199MOL0     C27388   1.066   5.662   1.393  0.3455 -0.1813  0.8461
  199MOL0     C27389   0.952   5.659   1.372  0.8188  0.7126 -0.1911
  199MOL0     C27390   1.166   5.266   1.496 -0.2487 -0.6471 -1.1904
  199MOL0     C27391   1.066   5.177   1.459 -0.9571  0.3758  0.5611
  199MOL0     C27392   1.006   5.202   1.326  0.1954  0.1758 -0.5629
  199MOL0     H27393   0.972   4.622   1.500 -0.6621 -2.9623 -0.2232
  199MOL0     H27394   0.819   4.442   1.423  1.7747  2.3958 -1.6365
  199MOL0     H27395   0.645   4.318   1.335  1.2053 -1.1733  3.3383
  199MOL0     H27396   0.509   4.425   1.302  1.2641  1.8652  1.9663
  199MOL0     H27397   0.467   4.165   1.454 -2.0714 -0.4995 -0.6633
  199MOL0     H27398   0.354   4.283   1.425  2.4877  2.2752  3.4265
  199MOL0     H27399   0.460   4.252   1.170  1.2569  0.4220  1.3297
  199MOL0     H27400   0.494   4.096   1.234  0.2697  0.8201 -3.8240
  199MOL0     H27401   0.284   4.019   1.243  0.0320  1.1135  3.2971
  199MOL0     H27402   0.204   4.166   1.274  0.5600 -1.6556  1.5637
  199MOL0     H27403   0.270   4.074   0.987 -0.1150  0.3730 -0.3819
  199MOL0     H27404   0.243   4.246   1.024 -0.9284 -1.3903 -1.4249
  199MOL0     H27405   0.054   4.033   1.090 -0.1892  0.7750  1.6510
  199MOL0     H27406   0.037   4.211   1.125 -0.5509 -0.7990 -1.3583
  199MOL0     H27407   0.071   4.083   0.856  3.7519 -0.4723  1.4945
  199MOL0     H27408   0.074   4.259   0.874 -1.6903  0.8501  2.7684
  199MOL0     H27409  -0.172   4.254   0.953  1.5616  0.0422  2.3232
  199MOL0     H27410  -0.127   4.206   0.791 -0.0235  0.1835  0.2102
  199MOL0     H27411  -0.229   4.072   1.129  1.9840  0.6552  0.1858
  199MOL0     H27412  -0.272   3.858   1.241  0.1352  0.8395 -0.3614
  199MOL0     H27413  -0.210   3.709   1.149  0.6285  0.7048  0.4095
  199MOL0     H27414  -0.510   3.802   1.180 -0.8653 -1.3319  0.7076
  199MOL0     H27415  -0.454   3.723   1.038  1.7300 -1.0801 -0.0147
  199MOL0     H27416  -0.501   3.533   1.146  0.8399 -0.4882 -0.2932
  199MOL0     H27417  -0.340   3.540   1.205 -0.6359  0.7048  0.6060
  199MOL0     H27418  -0.365   3.620   1.405 -2.1163 -0.0392  3.4952
  199MOL0     H27419  -0.537   3.666   1.380 -1.8483 -1.1387 -2.7536
  199MOL0     H27420  -0.315   3.381   1.565  0.7873  1.3190  2.2597
  199MOL0     H27421  -0.319   3.361   1.899  1.0225 -2.7162  1.2841
  199MOL0     H27422  -0.230   3.390   1.751  1.4527 -3.4418 -1.1666
  199MOL0     H27423  -0.265   3.228   1.801  2.8127  1.4086 -2.2337
  199MOL0     H27424  -0.746   3.289   2.193 -1.5740  0.8042  3.5462
  199MOL0     H27425  -0.797   3.122   2.376 -0.9335 -0.9521  1.0762
  199MOL0     H27426  -0.985   2.754   2.265 -0.5613 -1.0773  1.4740
  199MOL0     H27427  -0.813   2.716   2.286 -0.4790 -0.1030 -0.8545
  199MOL0     H27428  -0.854   2.595   2.432 -0.8890  0.3280  2.1714
  199MOL0     H27429  -0.827   2.741   2.530  2.0105  3.2380 -2.2800
  199MOL0     H27430  -1.108   2.753   2.514 -1.6456 -0.7482  1.4753
  199MOL0     H27431  -1.037   2.662   2.628 -0.0562  1.3412 -0.0776
  199MOL0     H27432  -1.064   2.464   2.560  1.1539  3.1783  2.6301
  199MOL0     H27433  -1.075   2.502   2.375 -2.4028  2.0711 -1.2997
  199MOL0     H27434  -1.281   2.519   2.595 -0.4024 -2.1887 -0.9506
  199MOL0     H27435  -1.267   2.633   2.457 -0.3872  0.1527  0.9995
  199MOL0     H27436  -1.332   2.335   2.449 -0.2133 -1.1094 -2.3870
  199MOL0     H27437  -1.289   2.448   2.319  0.8005 -1.7328  0.6919
  199MOL0     H27438  -1.504   2.465   2.305  1.5459  0.0421 -1.0829
  199MOL0     H27439  -1.490   2.593   2.430 -0.4746 -0.3642  0.4038
  199MOL0     H27440  -1.542   2.455   2.598 -3.1923  1.0474  1.1553
  199MOL0     H27441  -1.566   2.307   2.484  1.2413  0.1669 -3.4746
  199MOL0     H27442  -0.905   2.844   2.084  1.7222 -1.1063 -1.2949
  199MOL0     H27443  -0.821   2.991   1.898  1.6029  0.0911  0.3955
  199MOL0     H27444  -0.783   3.362   1.716 -0.7376 -0.9840 -0.6111
  199MOL0     H27445  -0.725   3.423   1.481  1.1473  0.6762 -0.1702
  199MOL0     H27446   0.493   4.640   1.619 -0.3501  0.7172  0.1998
  199MOL0     H27447   0.631   4.839   1.644 -4.0095  0.2903 -4.2492
  199MOL0     H27448   1.057   4.973   1.718  1.0530 -2.4368 -1.2570
  199MOL0     H27449   1.265   5.103   1.777 -3.5926 -2.8091  1.7269
  199MOL0     H27450   1.505   5.427   1.605  0.5770 -0.4503 -3.8154
  199MOL0     H27451   1.387   5.403   1.483  0.4846 -1.9567  0.3788
  199MOL0     H27452   1.446   5.616   1.575  2.2886 -3.5786  1.4005
  199MOL0     H27453   1.361   5.602   1.725 -1.8996 -1.3920  0.4804
  199MOL0     H27454   1.155   5.542   1.622  1.4202 -1.1652  0.4979
  199MOL0     H27455   1.200   5.706   1.628  1.9540  2.0903 -0.9959
  199MOL0     H27456   1.222   5.536   1.367 -2.1046 -0.2233 -0.5947
  199MOL0     H27457   1.269   5.707   1.375 -1.0893  0.2084 -0.1772
  199MOL0     H27458   0.845   5.662   1.373  0.7564  2.4909 -3.0212
  199MOL0     H27459   1.178   5.354   1.434 -1.8530  0.6484  0.2354
  199MOL0     H27460   0.916   5.250   1.364 -2.8482 -4.2459 -1.3758
  199MOL0     H27461   1.059   5.270   1.259  1.0635 -0.1738 -0.2429
  199MOL0     H27462   0.985   5.106   1.277  0.4417 -0.8527  1.2837
  200MOL0     O27463   1.261   3.516   4.762  1.1202 -0.3614 -0.3290
  200MOL0     C27464   1.146   3.509   4.699 -0.3461  0.6328  0.1655
  200MOL0     O27465   1.029   3.466   4.756  0.5553 -0.4819  0.2015
  200MOL0     C27466   1.038   3.345   4.813  0.5030  0.5478 -0.0657
  200MOL0     C27467   1.119   3.311   4.920 -0.1875  0.7461 -0.1526
  200MOL0     C27468   1.123   3.179   4.982  0.4844  0.0894  0.3476
  200MOL0     C27469   1.036   3.083   4.936  0.0855 -0.1575 -0.2458
  200MOL0     O27470   1.043   2.950   4.974 -0.0490 -0.1136  0.1406
  200MOL0     C27471   1.167   2.897   5.033  0.5784 -0.4286  0.1017
  200MOL0     C27472   1.154   2.744   5.050 -1.4331 -0.3764 -0.1347
  200MOL0     C27473   1.076   2.715   5.173  0.0962 -0.7361  0.6341
  200MOL0     C27474   1.166   2.713   5.298  0.3446  0.1139 -0.0804
  200MOL0     C27475   1.203   2.563   5.324  0.1393  0.3426 -0.7273
  200MOL0     C27476   1.281   2.485   5.235 -0.6053  1.5105  1.1779
  200MOL0     C27477   1.294   2.336   5.287  0.1184  0.4065 -0.1003
  200MOL0     C27478   1.157   2.266   5.294 -0.4258 -1.2620  0.2123
  200MOL0     N27479   1.172   2.124   5.292  1.0120 -0.7132 -1.1192
  200MOL0     C27480   1.107   2.041   5.382 -0.4959  0.6299 -0.8746
  200MOL0     C27481   1.101   1.919   5.325 -0.3051  0.1286  0.3887
  200MOL0     C27482   1.045   1.788   5.365  0.0086  0.3554 -0.4510
  200MOL0     C27483   0.915   1.740   5.295  0.4113 -0.1745  0.1586
  200MOL0     C27484   0.935   1.649   5.173 -0.6224  1.1338 -0.8163
  200MOL0     C27485   0.858   1.521   5.177  0.2838  0.7811  0.4584
  200MOL0     O27486   0.721   1.551   5.185 -0.6553  0.2842  0.5722
  200MOL0     C27487   0.649   1.562   5.065  1.1218 -1.0800 -0.7347
  200MOL0     C27488   0.697   1.540   4.935 -0.4973 -0.5734 -0.1024
  200MOL0     C27489   0.617   1.568   4.823  0.1283  1.2539  0.7344
  200MOL0     C27490   0.671   1.561   4.694 -1.2031  0.6225  0.4918
  200MOL0     C27491   0.478   1.576   4.842  0.0575 -0.3327 -0.0515
  200MOL0     C27492   0.385   1.583   4.726 -0.2560 -0.1948  0.2601
  200MOL0     O27493   0.342   1.707   4.676  0.0692  0.4443 -0.5724
  200MOL0     C27494   0.304   1.728   4.545 -0.3031 -0.7043  0.4691
  200MOL0     C27495   0.319   1.639   4.437  1.0332 -0.0202  0.4396
  200MOL0     C27496   0.279   1.668   4.307  0.1357 -0.1779 -0.1398
  200MOL0     C27497   0.198   1.782   4.297 -0.8672 -0.0194  0.0807
  200MOL0     O27498   0.153   1.823   4.175  0.2083 -0.0446 -0.7866
  200MOL0     C27499   0.034   1.753   4.147 -0.4941  0.2271 -2.1355
  200MOL0     C27500   0.042   1.633   4.047 -0.2007 -0.5855 -0.6933
  200MOL0     C27501  -0.099   1.610   4.013  0.0410 -0.9444 -0.0717
  200MOL0     C27502  -0.110   1.482   3.930  0.0834  0.6290 -0.7329
  200MOL0     C27503  -0.239   1.467   3.852  0.8464 -0.7671  0.8261
  200MOL0     C27504  -0.268   1.353   3.752 -0.7772  0.2449 -0.5399
  200MOL0     C27505  -0.302   1.218   3.812  0.0530 -0.6618  0.8792
  200MOL0     C27506  -0.315   1.096   3.713  0.7559 -0.9407 -1.0443
  200MOL0    Cl27507  -0.452   1.112   3.602  0.2496  0.9789  0.2344
  200MOL0     C27508   0.159   1.862   4.405 -0.6507  1.0262 -0.1494
  200MOL0     C27509   0.221   1.840   4.528 -0.7376  0.2757  1.1754
  200MOL0     O27510   0.347   1.482   4.684  0.7445  0.3682 -0.6167
  200MOL0     C27511   0.430   1.606   4.975  0.3723  0.5022  0.5174
  200MOL0     C27512   0.516   1.602   5.078  0.2266 -0.9999 -0.2592
  200MOL0     N27513   1.174   1.929   5.212  0.7889 -0.6311  0.1525
  200MOL0     N27514   1.208   2.052   5.188 -0.6479  0.2904 -0.1810
  200MOL0     C27515   0.958   3.113   4.821 -0.5873  0.8581  1.3216
  200MOL0     C27516   0.960   3.239   4.762  0.4291 -0.9397 -0.2909
  200MOL0     C27517   1.146   3.568   4.557  0.3853  0.0381 -0.0586
  200MOL0     C27518   1.019   3.582   4.502  1.2650 -0.7670  0.4770
  200MOL0     C27519   0.998   3.642   4.379  0.0738 -0.1393  0.5690
  200MOL0     C27520   1.107   3.686   4.297  0.1812  0.3653  0.5781
  200MOL0     O27521   1.076   3.728   4.169  0.7987 -0.2870 -0.0634
  200MOL0     C27522   1.171   3.704   4.060 -0.5032 -0.0299  0.0931
  200MOL0     C27523   1.151   3.566   4.018  0.5449  0.1281  0.0337
  200MOL0     C27524   1.039   3.566   3.910 -0.1277 -0.1378  0.0304
  200MOL0     C27525   0.900   3.542   3.965 -0.1491  0.2754 -0.0341
  200MOL0     C27526   0.798   3.519   3.863 -1.0503 -0.3313  0.7950
  200MOL0     C27527   0.738   3.462   3.773  1.4478 -0.4114  0.8369
  200MOL0     C27528   1.236   3.658   4.359 -0.1006 -0.5240 -0.6227
  200MOL0     C27529   1.260   3.605   4.489 -0.5025 -0.2526 -0.1120
  200MOL0     C27530   1.407   3.575   4.537 -0.5431 -0.3718 -0.4053
  200MOL0     H27531   1.190   3.385   4.956  1.9555 -0.5163 -1.5564
  200MOL0     H27532   1.195   3.156   5.059  0.1102  0.5747  0.8532
  200MOL0     H27533   1.177   2.945   5.131  0.0006 -1.7539  0.8238
  200MOL0     H27534   1.253   2.920   4.968  1.1822  0.3318  1.1352
  200MOL0     H27535   1.098   2.705   4.964  1.0864  1.4555 -2.8257
  200MOL0     H27536   1.255   2.701   5.049 -0.3767  1.9146 -1.8696
  200MOL0     H27537   0.998   2.791   5.183  4.0352  4.9494 -4.4954
  200MOL0     H27538   1.028   2.617   5.165  0.1151 -0.7636  0.8461
  200MOL0     H27539   1.255   2.770   5.268  0.3324 -0.9450 -2.4179
  200MOL0     H27540   1.122   2.772   5.379  0.1802 -1.0477  0.6973
  200MOL0     H27541   1.105   2.517   5.344  1.2479 -1.9478 -0.1756
  200MOL0     H27542   1.260   2.560   5.418  2.0582  0.7018 -1.8335
  200MOL0     H27543   1.230   2.480   5.138 -1.8176 -0.0576  1.8481
  200MOL0     H27544   1.383   2.524   5.226 -0.0667  0.1406  1.1784
  200MOL0     H27545   1.325   2.360   5.389 -2.5559  6.1750 -0.1846
  200MOL0     H27546   1.361   2.275   5.227 -1.6445 -0.6858 -1.0555
  200MOL0     H27547   1.094   2.296   5.378  2.1787 -1.0428  2.2169
  200MOL0     H27548   1.103   2.303   5.206  3.8287  0.5336 -1.9579
  200MOL0     H27549   1.057   2.061   5.476 -0.3478 -0.5032 -0.5412
  200MOL0     H27550   1.028   1.787   5.473 -1.6020 -3.0446 -0.5899
  200MOL0     H27551   1.133   1.727   5.341  0.2661  0.0841  1.1230
  200MOL0     H27552   0.857   1.673   5.359 -0.7803  0.0018 -0.7009
  200MOL0     H27553   0.859   1.830   5.266 -1.0019 -1.0729  0.0339
  200MOL0     H27554   0.907   1.699   5.080 -0.1587 -1.2191 -2.3038
  200MOL0     H27555   1.041   1.623   5.165 -0.1412  2.4012  0.8144
  200MOL0     H27556   0.882   1.443   5.104 -4.1389 -2.0908  1.6577
  200MOL0     H27557   0.883   1.474   5.272  2.1819  0.2720 -0.2397
  200MOL0     H27558   0.806   1.535   4.928 -0.2412 -0.4040  2.5489
  200MOL0     H27559   0.664   1.653   4.636  2.7407  1.7060  1.4278
  200MOL0     H27560   0.619   1.475   4.651  1.5709  0.2538 -2.5078
  200MOL0     H27561   0.776   1.531   4.703 -1.4111 -0.8979 -1.4674
  200MOL0     H27562   0.371   1.545   4.443  0.8536 -0.1313  0.2708
  200MOL0     H27563   0.307   1.607   4.221  1.3925  0.1522  0.0243
  200MOL0     H27564  -0.015   1.715   4.238 -0.8536  1.6391 -1.7182
  200MOL0     H27565  -0.031   1.824   4.096 -0.4731  1.4143 -0.5652
  200MOL0     H27566   0.115   1.653   3.969  1.8607  1.1866  1.5426
  200MOL0     H27567   0.082   1.542   4.094 -2.7162 -2.7464 -2.4126
  200MOL0     H27568  -0.136   1.696   3.956 -3.3122 -0.7405  2.1083
  200MOL0     H27569  -0.162   1.594   4.101 -2.7909  0.7588 -1.6339
  200MOL0     H27570  -0.090   1.395   3.993  2.5122 -1.7729 -4.4009
  200MOL0     H27571  -0.029   1.481   3.855 -0.7153 -1.3283 -1.6562
  200MOL0     H27572  -0.319   1.466   3.926  0.4692  0.0025  0.4427
  200MOL0     H27573  -0.243   1.553   3.785  2.0108 -2.3202 -1.3817
  200MOL0     H27574  -0.171   1.337   3.703  0.0754 -2.8187  1.8359
  200MOL0     H27575  -0.339   1.390   3.678 -1.1207  4.4677  1.5895
  200MOL0     H27576  -0.400   1.224   3.859  0.4825 -0.0801  1.7288
  200MOL0     H27577  -0.225   1.194   3.885  0.0657 -1.1000  0.7246
  200MOL0     H27578  -0.340   1.017   3.785  1.6756  1.3023  1.9500
  200MOL0     H27579  -0.217   1.075   3.670  0.5846 -0.6430 -1.5865
  200MOL0     H27580   0.098   1.950   4.385  0.5792  1.2708 -3.5207
  200MOL0     H27581   0.199   1.907   4.611 -1.5760 -0.0178  1.2068
  200MOL0     H27582   0.322   1.610   4.989  0.2589 -2.4952  1.1850
  200MOL0     H27583   0.473   1.619   5.177  1.5010  1.0951  0.0052
  200MOL0     H27584   0.896   3.036   4.776  0.1144  0.3340  1.2178
  200MOL0     H27585   0.905   3.263   4.671  2.1140 -1.6439 -1.5491
  200MOL0     H27586   0.928   3.544   4.548 -2.0163  4.8950 -0.3400
  200MOL0     H27587   0.898   3.639   4.339 -0.1590  0.0509  1.1264
  200MOL0     H27588   1.173   3.778   3.980 -2.1293 -0.2704 -0.2020
  200MOL0     H27589   1.266   3.713   4.113  0.3606 -0.5882 -1.3117
  200MOL0     H27590   1.135   3.497   4.101  1.6507 -0.2624 -0.0683
  200MOL0     H27591   1.234   3.523   3.961 -0.6658 -1.9777 -0.2592
  200MOL0     H27592   1.037   3.657   3.849  0.1021 -0.4558 -0.4586
  200MOL0     H27593   1.057   3.491   3.833 -1.1888  0.5009 -0.8582
  200MOL0     H27594   0.875   3.623   4.034  2.0516 -0.3444  1.6163
  200MOL0     H27595   0.910   3.450   4.023  0.8092 -1.2259 -2.4091
  200MOL0     H27596   0.688   3.410   3.693  2.8831 -1.6519  0.6952
  200MOL0     H27597   1.326   3.693   4.309 -1.7813 -0.3301 -3.8124
  200MOL0     H27598   1.431   3.645   4.618 -0.5410 -1.1629  0.3016
  200MOL0     H27599   1.425   3.473   4.573 -1.2448 -0.5312 -0.4828
  200MOL0     H27600   1.471   3.598   4.452 -0.3657  0.3256 -0.0875
  201MOL0     O27601   2.107   7.355  11.087  0.6338  0.8548  0.0273
  201MOL0     C27602   2.100   7.292  11.193 -0.2661  0.8369 -0.0354
  201MOL0     O27603   2.196   7.276  11.285 -0.1963  0.1630 -0.5300
  201MOL0     C27604   2.302   7.350  11.258 -0.5401  0.7790 -0.4643
  201MOL0     C27605   2.409   7.301  11.182  0.8456  0.2658  0.6179
  201MOL0     C27606   2.538   7.361  11.187  0.0134 -0.9078  0.0227
  201MOL0     C27607   2.561   7.473  11.275 -0.2690  0.0128  0.1903
  201MOL0     O27608   2.686   7.534  11.273  0.1505  0.2314  1.1521
  201MOL0     C27609   2.703   7.676  11.245  0.4359  0.1484 -0.7885
  201MOL0     C27610   2.639   7.717  11.116 -0.6894 -0.1031 -0.3455
  201MOL0     C27611   2.510   7.804  11.123  0.5562  1.3896  0.1389
  201MOL0     C27612   2.451   7.813  10.987  0.7745 -1.2469  0.5318
  201MOL0     C27613   2.341   7.925  10.972  0.0834  0.9086 -0.6543
  201MOL0     C27614   2.233   7.896  10.852  0.1382 -0.1911  0.7244
  201MOL0     C27615   2.303   7.911  10.717 -0.2215 -0.1338  0.0112
  201MOL0     C27616   2.209   7.881  10.602 -0.4150  0.0915  0.0355
  201MOL0     N27617   2.071   7.930  10.618 -0.3945 -1.5364  0.1765
  201MOL0     C27618   1.954   7.867  10.579  0.8619  0.0754  0.2990
  201MOL0     C27619   1.861   7.959  10.578 -0.3252  0.0375  0.0690
  201MOL0     C27620   1.723   7.958  10.525  0.5041 -0.0512  0.6328
  201MOL0     C27621   1.619   7.991  10.630 -0.7063 -0.8906 -0.0977
  201MOL0     C27622   1.614   7.887  10.737  0.1359  0.4190  0.0084
  201MOL0     C27623   1.473   7.890  10.804  0.3699  0.3634 -1.5342
  201MOL0     O27624   1.360   7.882  10.706 -0.6312 -0.7070 -0.2382
  201MOL0     C27625   1.233   7.837  10.736 -1.2411 -0.0409 -0.7811
  201MOL0     C27626   1.208   7.779  10.860  0.1957 -1.4100 -0.3551
  201MOL0     C27627   1.079   7.729  10.895  0.1578  0.7838  0.6612
  201MOL0     C27628   1.065   7.664  11.032  0.2232 -0.6545 -0.0866
  201MOL0     C27629   0.970   7.744  10.803  0.0065  0.6247 -0.6425
  201MOL0     C27630   0.829   7.685  10.831 -0.8359  0.6243  0.5420
  201MOL0     O27631   0.748   7.718  10.733  0.0421  0.2283  0.3089
  201MOL0     C27632   0.630   7.649  10.733 -0.1960  0.3105 -0.1929
  201MOL0     C27633   0.514   7.688  10.805  0.4193  0.4306  1.2768
  201MOL0     C27634   0.392   7.636  10.778  0.1670  1.4580 -0.5439
  201MOL0     C27635   0.376   7.550  10.675  0.4643  0.0731  0.4528
  201MOL0     O27636   0.250   7.513  10.651 -0.0282 -0.2804 -0.4952
  201MOL0     C27637   0.231   7.371  10.641  0.3785  0.8935  1.0741
  201MOL0     C27638   0.143   7.346  10.511  0.7128  0.3996  0.2384
  201MOL0     C27639   0.119   7.195  10.497  0.1914 -0.0789  1.3425
  201MOL0     C27640   0.026   7.127  10.592 -1.0317  0.3755 -0.4072
  201MOL0     C27641   0.047   6.976  10.584  0.6155  0.1841  0.1058
  201MOL0     C27642  -0.077   6.899  10.652  0.0991 -0.0066  0.3931
  201MOL0     C27643  -0.060   6.743  10.660  0.7221 -0.5543  0.7474
  201MOL0     C27644  -0.203   6.695  10.704  0.0722 -0.5916 -1.0822
  201MOL0    Cl27645  -0.201   6.513  10.703  0.2886 -0.4778  0.1147
  201MOL0     C27646   0.486   7.512  10.598  0.9804 -0.4969 -0.7703
  201MOL0     C27647   0.611   7.556  10.628 -0.1059 -0.0515 -1.2545
  201MOL0     O27648   0.799   7.632  10.942  0.0132  0.4485  0.2961
  201MOL0     C27649   0.996   7.803  10.681 -0.1988  0.2101  0.9081
  201MOL0     C27650   1.123   7.853  10.651  0.0066  0.1583  0.3638
  201MOL0     N27651   1.908   8.073  10.636  0.0608  0.7484  0.2613
  201MOL0     N27652   2.036   8.056  10.659  0.3302  0.2920  0.7347
  201MOL0     C27653   2.463   7.507  11.365  0.3919 -0.0218 -0.0958
  201MOL0     C27654   2.338   7.455  11.359  0.8767 -0.7273  0.9679
  201MOL0     C27655   1.970   7.230  11.238  1.1015 -0.2777 -0.7098
  201MOL0     C27656   1.861   7.219  11.149 -0.0170  0.6047 -0.7230
  201MOL0     C27657   1.739   7.142  11.183  0.5362 -0.3528 -0.2634
  201MOL0     C27658   1.721   7.101  11.314 -1.1945 -0.2136 -0.6066
  201MOL0     O27659   1.619   7.040  11.360  0.1961  0.8028  0.6740
  201MOL0     C27660   1.524   7.115  11.426  0.8057 -0.7032 -0.2882
  201MOL0     C27661   1.408   7.153  11.337 -0.8494 -0.1654 -1.0947
  201MOL0     C27662   1.351   7.024  11.281  0.2097 -0.6764  0.0412
  201MOL0     C27663   1.227   7.049  11.192  0.2891 -0.2299  0.2096
  201MOL0     C27664   1.123   7.096  11.276 -1.4455  0.3266 -0.3251
  201MOL0     C27665   1.039   7.132  11.351 -0.9009 -0.6185  0.9701
  201MOL0     C27666   1.817   7.139  11.406 -0.7044  0.8548  0.0564
  201MOL0     C27667   1.948   7.185  11.374  0.3207 -0.0475 -0.6249
  201MOL0     C27668   2.041   7.192  11.486 -0.3481  0.8296  0.1114
  201MOL0     H27669   2.378   7.230  11.105  0.9514  0.1332  0.6955
  201MOL0     H27670   2.610   7.338  11.110  1.1307 -0.1328  0.8107
  201MOL0     H27671   2.811   7.695  11.243  0.1555  1.9013 -0.6257
  201MOL0     H27672   2.679   7.740  11.330  2.9052  0.8323 -0.5102
  201MOL0     H27673   2.713   7.777  11.062  1.4442 -2.0592  0.2640
  201MOL0     H27674   2.627   7.628  11.053  1.5427 -0.3155 -0.5323
  201MOL0     H27675   2.445   7.755  11.196  1.6822 -3.5648 -1.7458
  201MOL0     H27676   2.538   7.898  11.171 -2.6256  1.6479  1.7504
  201MOL0     H27677   2.534   7.837  10.920  0.5140  0.8616  0.9123
  201MOL0     H27678   2.414   7.719  10.945  3.3147 -1.5458 -1.2757
  201MOL0     H27679   2.407   8.012  10.958  3.6354 -1.4229  0.2492
  201MOL0     H27680   2.297   7.931  11.071  1.3059 -0.4240 -0.0060
  201MOL0     H27681   2.183   7.798  10.857 -2.5705  1.0897  0.4725
  201MOL0     H27682   2.158   7.974  10.869  1.2697  0.6244  2.1343
  201MOL0     H27683   2.389   7.845  10.716  0.1916  0.3977 -0.5015
  201MOL0     H27684   2.339   8.014  10.713 -1.2872  0.4081  2.5130
  201MOL0     H27685   2.257   7.922  10.513 -0.7844 -1.7163 -1.0526
  201MOL0     H27686   2.191   7.775  10.582 -1.2074  0.6330 -2.3847
  201MOL0     H27687   1.933   7.763  10.559  0.1836 -1.3666  6.4343
  201MOL0     H27688   1.706   7.858  10.485  0.3183  0.7640 -1.4621
  201MOL0     H27689   1.709   8.030  10.444 -0.5522 -0.0155  0.8355
  201MOL0     H27690   1.648   8.086  10.675 -3.2350 -0.6405  1.2291
  201MOL0     H27691   1.524   8.004  10.577 -0.0043  2.5758 -0.7210
  201MOL0     H27692   1.608   7.787  10.694 -2.5464 -0.2012  1.5652
  201MOL0     H27693   1.693   7.878  10.812  0.5937 -3.1144 -0.7165
  201MOL0     H27694   1.470   7.808  10.877 -0.7748  1.4453 -0.3129
  201MOL0     H27695   1.470   7.973  10.874  0.6318 -1.9899  1.4860
  201MOL0     H27696   1.290   7.768  10.930 -1.4296 -0.5194  1.7755
  201MOL0     H27697   0.996   7.733  11.082  0.7469 -0.3154  0.1689
  201MOL0     H27698   1.156   7.661  11.091 -2.5914  1.1270  4.9207
  201MOL0     H27699   1.020   7.569  11.002 -1.2884  0.7902 -2.8304
  201MOL0     H27700   0.515   7.771  10.876 -1.5125  6.2393 -4.5157
  201MOL0     H27701   0.305   7.673  10.831  0.4039  2.7624 -1.0497
  201MOL0     H27702   0.326   7.318  10.639 -1.3353 -2.4595  1.5847
  201MOL0     H27703   0.173   7.327  10.722  1.6303 -3.3351 -0.1025
  201MOL0     H27704   0.045   7.394  10.521  0.5724 -0.0370  1.1085
  201MOL0     H27705   0.190   7.386  10.421 -1.7279  0.2480 -1.2202
  201MOL0     H27706   0.212   7.139  10.491 -0.5930 -1.2907 -1.4684
  201MOL0     H27707   0.088   7.166  10.396  3.0882 -0.5125  0.4853
  201MOL0     H27708  -0.073   7.167  10.570 -0.6319  1.8136  0.2671
  201MOL0     H27709   0.062   7.155  10.691  0.2652 -2.3359 -0.0051
  201MOL0     H27710   0.045   6.942  10.480 -1.9588 -1.7229  0.6871
  201MOL0     H27711   0.143   6.944  10.625 -0.3455 -1.9398  0.8133
  201MOL0     H27712  -0.164   6.929  10.591 -0.1828  0.9245  1.2275
  201MOL0     H27713  -0.097   6.933  10.754 -0.0481 -0.5290  0.5419
  201MOL0     H27714   0.017   6.711  10.731  0.5907  0.6098  1.4356
  201MOL0     H27715  -0.040   6.702  10.561 -0.5698 -0.0147  0.2421
  201MOL0     H27716  -0.280   6.741  10.642 -0.2640  1.2913  0.6288
  201MOL0     H27717  -0.225   6.726  10.806  2.3915 -0.0637 -0.6878
  201MOL0     H27718   0.474   7.439  10.519  0.9189 -0.7632 -0.5196
  201MOL0     H27719   0.698   7.531  10.568  0.1841  0.6856 -1.1612
  201MOL0     H27720   0.914   7.826  10.614  0.6995  0.6468 -0.0807
  201MOL0     H27721   1.134   7.913  10.561 -2.2524 -0.3484 -0.3123
  201MOL0     H27722   2.491   7.572  11.447 -0.7085 -1.7150  1.7150
  201MOL0     H27723   2.261   7.470  11.434  0.9402  3.2014  0.4438
  201MOL0     H27724   1.857   7.278  11.058  0.3771  4.0344  1.3133
  201MOL0     H27725   1.653   7.121  11.120  1.1700  0.7898 -1.5795
  201MOL0     H27726   1.489   7.067  11.519  3.0701  1.2652  1.7253
  201MOL0     H27727   1.559   7.207  11.474 -1.3041  0.6542 -1.1754
  201MOL0     H27728   1.439   7.214  11.252  0.0826  0.6209 -0.2253
  201MOL0     H27729   1.334   7.212  11.392 -0.6169 -1.9930  1.4051
  201MOL0     H27730   1.420   6.974  11.213 -2.5405 -3.1197 -1.1750
  201MOL0     H27731   1.328   6.964  11.370 -2.1114  0.6911  0.4508
  201MOL0     H27732   1.190   6.952  11.158  1.2893 -0.2232 -0.9540
  201MOL0     H27733   1.247   7.111  11.104 -2.4406  0.6717  0.1617
  201MOL0     H27734   0.961   7.178  11.409  1.2199  0.7673  2.8680
  201MOL0     H27735   1.812   7.110  11.510  2.0125  2.0676  0.6143
  201MOL0     H27736   2.005   7.144  11.578  1.8743  0.4231  0.8288
  201MOL0     H27737   2.130   7.132  11.467  0.2710  1.8470 -0.2133
  201MOL0     H27738   2.059   7.298  11.502 -2.0306  1.1131  0.3038
  202MOL0     O27739   3.134   5.164   8.535  0.1266 -0.3631  0.5377
  202MOL0     C27740   3.100   5.182   8.420 -1.0491 -0.3258  0.3768
  202MOL0     O27741   2.982   5.238   8.380 -0.2263 -0.5395  1.1162
  202MOL0     C27742   2.911   5.306   8.470  0.5015 -0.3488  0.7886
  202MOL0     C27743   2.958   5.425   8.512  0.0928  1.1432 -0.0687
  202MOL0     C27744   2.892   5.492   8.615 -0.7083  0.1035 -0.3726
  202MOL0     C27745   2.785   5.436   8.682  0.1710  0.8579  0.2978
  202MOL0     O27746   2.737   5.503   8.802  0.2016 -0.2086 -0.1249
  202MOL0     C27747   2.605   5.461   8.855 -0.3433 -0.8229 -0.2622
  202MOL0     C27748   2.538   5.569   8.943  0.2927 -0.5632 -0.0617
  202MOL0     C27749   2.441   5.494   9.046 -0.8251 -0.8396  0.0810
  202MOL0     C27750   2.397   5.586   9.162  0.3222 -0.1641 -0.1959
  202MOL0     C27751   2.270   5.669   9.128 -0.0558 -0.6148 -0.4385
  202MOL0     C27752   2.149   5.583   9.089  0.3167 -0.5768  1.4079
  202MOL0     C27753   2.092   5.502   9.191 -0.0114 -0.8852  1.2775
  202MOL0     C27754   1.953   5.431   9.162 -0.5862  0.3535 -1.2022
  202MOL0     N27755   1.853   5.529   9.122  0.1732  0.7145  0.3842
  202MOL0     C27756   1.823   5.641   9.190  0.2609  0.0243 -0.2476
  202MOL0     C27757   1.719   5.702   9.121  0.8207 -0.3794  0.2631
  202MOL0     C27758   1.662   5.844   9.112 -1.0925  0.4572 -0.4852
  202MOL0     C27759   1.744   5.928   9.018 -0.2684  0.8232 -0.1339
  202MOL0     C27760   1.661   6.055   9.008 -0.4868 -0.5448  0.5805
  202MOL0     C27761   1.647   6.111   8.874 -0.6715 -0.1442  0.3201
  202MOL0     O27762   1.564   6.023   8.795 -0.3740  0.2059  0.2239
  202MOL0     C27763   1.615   5.956   8.688  0.2779  0.8506 -0.3500
  202MOL0     C27764   1.681   6.021   8.586 -0.5692  0.1659 -0.3864
  202MOL0     C27765   1.718   5.956   8.469  0.0150 -0.3685  0.6244
  202MOL0     C27766   1.816   6.035   8.378  0.2243  0.0167  0.2225
  202MOL0     C27767   1.673   5.826   8.439 -0.6233  0.3585 -0.0408
  202MOL0     C27768   1.711   5.742   8.321 -0.3962  0.1717 -0.1426
  202MOL0     O27769   1.722   5.608   8.340 -0.0302  0.0813  0.5229
  202MOL0     C27770   1.775   5.516   8.243 -0.0932  1.0500 -0.4942
  202MOL0     C27771   1.690   5.457   8.149  0.2683  0.9702  0.3979
  202MOL0     C27772   1.741   5.367   8.049 -0.2545 -0.4526 -0.2898
  202MOL0     C27773   1.871   5.341   8.040 -0.2971 -0.2893  0.3897
  202MOL0     O27774   1.928   5.278   7.931  0.3350 -0.5439  0.0314
  202MOL0     C27775   1.867   5.173   7.859 -0.1549  0.3324 -0.1520
  202MOL0     C27776   1.962   5.082   7.791 -0.2944 -0.4657  1.1701
  202MOL0     C27777   1.947   4.939   7.854 -0.0558 -0.7924 -0.1962
  202MOL0     C27778   2.028   4.840   7.761  0.4890 -0.2479 -0.5853
  202MOL0     C27779   2.043   4.703   7.819 -0.4569  1.1546  0.2716
  202MOL0     C27780   2.117   4.692   7.954  0.3529 -0.4102  0.5238
  202MOL0     C27781   2.095   4.567   8.029  0.0533  0.8933  0.0245
  202MOL0     C27782   2.142   4.446   7.953 -0.8072 -0.3095  0.7006
  202MOL0    Cl27783   2.311   4.455   7.878 -0.5626  0.0972  0.2174
  202MOL0     C27784   1.959   5.405   8.128 -0.1221 -0.2715  0.0865
  202MOL0     C27785   1.921   5.488   8.232  0.2313 -0.4151  0.2160
  202MOL0     O27786   1.746   5.805   8.223 -0.5828  0.3382 -0.3658
  202MOL0     C27787   1.604   5.759   8.543 -0.4249  0.5514 -0.7022
  202MOL0     C27788   1.561   5.824   8.662 -0.4829 -0.5111  0.0173
  202MOL0     N27789   1.696   5.604   9.023  1.0834 -0.9760  0.0230
  202MOL0     N27790   1.759   5.501   9.025 -0.1621 -0.8027 -0.1302
  202MOL0     C27791   2.738   5.308   8.636 -0.0783 -0.5601 -0.5754
  202MOL0     C27792   2.799   5.255   8.527  0.8970  0.0958 -0.3618
  202MOL0     C27793   3.206   5.145   8.320 -0.1848  0.9441  0.0079
  202MOL0     C27794   3.213   5.216   8.201 -0.0665  0.3141  1.3481
  202MOL0     C27795   3.314   5.200   8.107  0.6257 -0.1910 -1.3156
  202MOL0     C27796   3.405   5.099   8.123 -0.2460 -0.1513  0.4508
  202MOL0     O27797   3.502   5.092   8.031 -0.3511  0.1423 -0.5507
  202MOL0     C27798   3.630   5.145   8.062 -0.5310 -0.1942  0.0125
  202MOL0     C27799   3.762   5.062   8.035 -0.4407  0.7027  0.3591
  202MOL0     C27800   3.755   4.905   8.030 -0.5794 -0.1152  0.2677
  202MOL0     C27801   3.877   4.857   8.088 -0.1139  0.3259 -0.9369
  202MOL0     C27802   3.907   4.712   8.088  0.1689 -0.2028  1.0785
  202MOL0     C27803   3.916   4.594   8.088  0.2357  0.1499  0.1553
  202MOL0     C27804   3.400   5.018   8.237  0.2886 -0.1475  1.2039
  202MOL0     C27805   3.310   5.043   8.338 -0.0086 -0.2858 -0.2238
  202MOL0     C27806   3.312   4.960   8.459 -0.0719 -0.0124 -1.2376
  202MOL0     H27807   3.047   5.472   8.471  3.2903 -1.5191  3.2663
  202MOL0     H27808   2.938   5.581   8.657  0.4822 -0.5519 -0.2551
  202MOL0     H27809   2.616   5.366   8.909  2.3368  0.3458  1.4799
  202MOL0     H27810   2.537   5.437   8.773 -1.4599  0.0998  0.3712
  202MOL0     H27811   2.621   5.603   9.006  0.6525 -1.1161 -0.2313
  202MOL0     H27812   2.493   5.650   8.886  0.8109 -0.9347 -1.0045
  202MOL0     H27813   2.352   5.450   9.000  0.4545 -0.5524 -2.8744
  202MOL0     H27814   2.489   5.409   9.096 -1.5828 -1.2792  0.0787
  202MOL0     H27815   2.364   5.517   9.240  2.1370  0.3733  1.1287
  202MOL0     H27816   2.474   5.654   9.202  1.5101  0.7267 -3.6284
  202MOL0     H27817   2.297   5.746   9.054  1.3490  0.6936  1.3274
  202MOL0     H27818   2.222   5.735   9.201 -3.3135  0.7324 -3.4665
  202MOL0     H27819   2.080   5.662   9.058  1.2480 -1.3077 -3.2479
  202MOL0     H27820   2.156   5.510   9.007 -3.2905 -0.9853  1.2937
  202MOL0     H27821   2.085   5.566   9.279 -2.3918 -0.7818  1.0691
  202MOL0     H27822   2.167   5.422   9.200  1.2199 -0.4618 -3.0782
  202MOL0     H27823   1.962   5.357   9.082 -0.6878 -0.2121 -0.7002
  202MOL0     H27824   1.922   5.370   9.248 -0.0959 -0.8427 -1.8440
  202MOL0     H27825   1.893   5.684   9.261  0.6976 -2.2696  0.7766
  202MOL0     H27826   1.661   5.889   9.212  2.3982 -0.1691 -0.0248
  202MOL0     H27827   1.561   5.835   9.073 -1.2879  3.1986 -0.7916
  202MOL0     H27828   1.842   5.946   9.065 -1.1605  0.0052  2.1518
  202MOL0     H27829   1.756   5.876   8.923 -2.0709 -4.7505  2.2938
  202MOL0     H27830   1.559   6.025   9.034 -0.7913 -1.1107 -1.1458
  202MOL0     H27831   1.703   6.133   9.073  3.7410 -0.7137 -1.6218
  202MOL0     H27832   1.597   6.208   8.884  2.0307  1.1138  3.7240
  202MOL0     H27833   1.751   6.116   8.840 -0.5910 -3.0432 -0.0440
  202MOL0     H27834   1.710   6.125   8.582 -2.4540  0.6965 -1.7948
  202MOL0     H27835   1.858   6.122   8.428 -3.0501  0.4386  2.5840
  202MOL0     H27836   1.764   6.066   8.287 -0.5294 -2.8685 -0.4375
  202MOL0     H27837   1.912   5.995   8.345 -0.0129 -1.9121  1.7026
  202MOL0     H27838   1.589   5.490   8.169 -0.4309 -0.5074 -0.4894
  202MOL0     H27839   1.677   5.308   7.984 -0.4199 -3.0931  2.0568
  202MOL0     H27840   1.802   5.112   7.923  0.3443 -2.3467 -2.0497
  202MOL0     H27841   1.790   5.215   7.794 -0.3866  3.8124  2.1265
  202MOL0     H27842   1.941   5.074   7.684 -1.5740 -1.9210  1.5015
  202MOL0     H27843   2.057   5.134   7.809  0.5110 -1.6260  0.4054
  202MOL0     H27844   1.843   4.907   7.851 -1.1673  2.5853 -1.5206
  202MOL0     H27845   1.981   4.943   7.958  0.6714 -3.1498 -0.2788
  202MOL0     H27846   2.131   4.876   7.755 -0.1700  1.6910 -0.8875
  202MOL0     H27847   1.979   4.838   7.664  1.8924  2.0179 -1.4225
  202MOL0     H27848   1.950   4.645   7.821  1.5418 -2.4743  4.6082
  202MOL0     H27849   2.106   4.651   7.747 -0.2906  1.2434  0.3532
  202MOL0     H27850   2.068   4.768   8.015 -1.0512 -1.2428  0.4743
  202MOL0     H27851   2.223   4.718   7.946  0.0142  0.5378 -1.4322
  202MOL0     H27852   1.996   4.555   8.074  0.9082  0.4586  1.9115
  202MOL0     H27853   2.149   4.583   8.124 -0.1652 -0.5333  0.4099
  202MOL0     H27854   2.083   4.434   7.862  2.9848  0.5098 -2.0822
  202MOL0     H27855   2.135   4.361   8.023  0.7795 -4.6510 -3.8373
  202MOL0     H27856   2.060   5.380   8.098 -0.8566  0.1471 -3.1451
  202MOL0     H27857   1.992   5.536   8.299 -1.1709  1.4097  0.4846
  202MOL0     H27858   1.573   5.655   8.540  0.9590  0.1333 -2.3266
  202MOL0     H27859   1.506   5.778   8.743  1.0918  0.4317  1.7225
  202MOL0     H27860   2.656   5.263   8.690 -0.1867  1.2927  0.9456
  202MOL0     H27861   2.764   5.153   8.511 -3.0310  1.1701  0.4057
  202MOL0     H27862   3.157   5.310   8.197  0.3059  0.4998  0.3911
  202MOL0     H27863   3.318   5.274   8.027  1.2033  1.2793  0.0251
  202MOL0     H27864   3.631   5.238   8.005 -3.1816 -0.0076  0.1494
  202MOL0     H27865   3.634   5.159   8.170 -2.0004 -3.2892  0.5835
  202MOL0     H27866   3.839   5.103   8.100 -0.3284  0.6990  0.2283
  202MOL0     H27867   3.794   5.096   7.936  2.0905  1.0839  1.2475
  202MOL0     H27868   3.672   4.869   8.091 -0.1751 -2.9366 -0.7271
  202MOL0     H27869   3.758   4.869   7.927  1.3106 -4.7021  1.6534
  202MOL0     H27870   3.872   4.888   8.193 -2.1743 -3.1785  0.1523
  202MOL0     H27871   3.966   4.914   8.060 -0.8977  1.3746 -1.3738
  202MOL0     H27872   3.924   4.488   8.092  2.0085  0.2779  0.7058
  202MOL0     H27873   3.484   4.956   8.269  0.4863 -0.9117 -0.6103
  202MOL0     H27874   3.335   5.029   8.541 -1.3152 -0.5857 -0.3699
  202MOL0     H27875   3.217   4.910   8.482 -0.6369 -0.0474 -3.4252
  202MOL0     H27876   3.396   4.891   8.451  0.2807  0.4100 -1.2218
  203MOL0     O27877   4.830   5.595  10.339  0.0235 -0.2331 -0.8559
  203MOL0     C27878   4.717   5.549  10.331  0.7725 -0.1665  0.3295
  203MOL0     O27879   4.605   5.594  10.394  0.8840 -0.6771 -0.4288
  203MOL0     C27880   4.623   5.702  10.481  0.7705  1.7921 -0.0973
  203MOL0     C27881   4.697   5.678  10.596  0.9066 -0.2595  0.0014
  203MOL0     C27882   4.695   5.787  10.684  0.8734 -0.6991 -0.3437
  203MOL0     C27883   4.628   5.906  10.663  0.2807  0.0797 -0.2423
  203MOL0     O27884   4.644   6.009  10.743 -0.0622  0.3920 -1.0539
  203MOL0     C27885   4.534   6.055  10.817  0.7052 -0.4179 -0.0396
  203MOL0     C27886   4.555   6.194  10.869 -0.8030  0.7269  0.5103
  203MOL0     C27887   4.685   6.218  10.948 -0.2649  0.6170 -0.0193
  203MOL0     C27888   4.676   6.287  11.092  0.6214 -1.1784 -0.1280
  203MOL0     C27889   4.805   6.296  11.168  0.6411 -0.5899  0.1568
  203MOL0     C27890   4.918   6.376  11.094 -0.1019 -0.9042 -0.8050
  203MOL0     C27891   5.052   6.371  11.167 -0.7334  0.6476  0.0545
  203MOL0     C27892   5.112   6.232  11.165 -0.1496  0.4313 -0.8719
  203MOL0     N27893   5.234   6.233  11.239 -0.6899  0.7770 -0.0716
  203MOL0     C27894   5.360   6.288  11.200  0.7329 -0.3287 -0.2292
  203MOL0     C27895   5.455   6.257  11.299  0.4959 -0.4415 -0.6072
  203MOL0     C27896   5.594   6.309  11.288  0.7598 -0.0842  0.3491
  203MOL0     C27897   5.620   6.452  11.350 -0.2592 -0.0510  0.2797
  203MOL0     C27898   5.777   6.489  11.334 -0.2360  0.8564  0.6982
  203MOL0     C27899   5.827   6.494  11.202 -0.4246 -0.0349  0.3598
  203MOL0     O27900   5.848   6.365  11.146  0.1744 -0.2904  0.5392
  203MOL0     C27901   5.974   6.337  11.096  0.0194 -0.2579 -0.4537
  203MOL0     C27902   6.034   6.414  11.006  0.9075  0.7543 -0.6159
  203MOL0     C27903   6.160   6.387  10.963 -1.0762  0.9057 -0.5840
  203MOL0     C27904   6.234   6.493  10.893 -0.9215  0.2466  0.6024
  203MOL0     C27905   6.223   6.255  10.992  0.8783 -0.7591  0.8406
  203MOL0     C27906   6.356   6.213  10.942 -0.6211  0.3227  0.4695
  203MOL0     O27907   6.381   6.078  10.960  0.6638 -0.9494  0.2318
  203MOL0     C27908   6.506   6.046  10.972 -0.8105 -0.7682  0.4905
  203MOL0     C27909   6.566   5.987  10.859 -0.0290 -0.0176 -0.9698
  203MOL0     C27910   6.701   5.960  10.863 -0.4872 -0.9306  0.4548
  203MOL0     C27911   6.780   5.986  10.979 -0.9843  0.3013  0.5334
  203MOL0     O27912   6.920   5.947  10.973 -0.0330  0.6549  0.4301
  203MOL0     C27913   7.019   5.999  11.064 -1.0238  0.1453 -0.3256
  203MOL0     C27914   7.145   5.925  11.045 -0.4928 -0.3589  0.3408
  203MOL0     C27915   7.275   5.979  11.111 -0.1150 -0.4324 -0.0844
  203MOL0     C27916   7.286   5.960  11.260 -0.5356 -0.6539  1.1142
  203MOL0     C27917   7.371   6.071  11.326  0.3749 -0.2949  0.7105
  203MOL0     C27918   7.389   6.057  11.475  0.4577 -0.2792  0.7133
  203MOL0     C27919   7.261   6.076  11.572 -0.7941  0.1830  0.3841
  203MOL0     C27920   7.154   6.181  11.537  0.6656 -0.2388  0.2332
  203MOL0    Cl27921   7.026   6.144  11.654 -0.0926  0.4567  0.0422
  203MOL0     C27922   6.722   6.037  11.097  0.3034 -0.2000  1.1095
  203MOL0     C27923   6.579   6.068  11.090  0.2670 -0.4985  0.3550
  203MOL0     O27924   6.428   6.292  10.883  0.3579 -0.2233  0.4395
  203MOL0     C27925   6.152   6.177  11.075  0.6623  0.0343 -0.2631
  203MOL0     C27926   6.032   6.214  11.135  0.1124  0.1286  0.8914
  203MOL0     N27927   5.385   6.178  11.383  0.0206  0.2939 -0.4864
  203MOL0     N27928   5.262   6.154  11.349 -0.7459 -0.8044  0.0914
  203MOL0     C27929   4.563   5.917  10.543  0.8479  0.1809  0.2820
  203MOL0     C27930   4.556   5.815  10.449 -0.0121 -0.2460  0.3151
  203MOL0     C27931   4.714   5.420  10.247 -0.1135 -0.5843 -0.1759
  203MOL0     C27932   4.808   5.406  10.141  0.4033 -0.3123  0.4220
  203MOL0     C27933   4.804   5.294  10.063 -0.1572 -0.7227  0.5227
  203MOL0     C27934   4.723   5.187  10.085  0.1796 -0.1139 -1.2952
  203MOL0     O27935   4.721   5.063  10.023 -0.0747  0.4826  0.1842
  203MOL0     C27936   4.848   5.029   9.960  0.4797 -0.7905 -0.5060
  203MOL0     C27937   4.832   4.897   9.886  0.3228  0.1538  0.6136
  203MOL0     C27938   4.821   4.770   9.966 -0.5141 -0.1597 -0.1883
  203MOL0     C27939   4.802   4.644   9.870 -0.6795 -1.1572 -0.1621
  203MOL0     C27940   4.741   4.527   9.942  0.1398 -1.1132  0.6511
  203MOL0     C27941   4.698   4.432   9.987  0.6221 -0.0718  0.7800
  203MOL0     C27942   4.626   5.200  10.189  0.5811 -0.1743 -0.1877
  203MOL0     C27943   4.620   5.313  10.273 -0.7367  0.3789 -1.0162
  203MOL0     C27944   4.508   5.323  10.381 -0.5678 -1.1671  1.1571
  203MOL0     H27945   4.757   5.588  10.610  1.0034 -0.1740  0.1375
  203MOL0     H27946   4.744   5.783  10.780  1.0225  0.0296 -0.3821
  203MOL0     H27947   4.509   5.992  10.903 -2.4160  1.8637  0.9076
  203MOL0     H27948   4.438   6.070  10.766 -0.1295  1.6004  1.9325
  203MOL0     H27949   4.539   6.262  10.784 -3.5414  1.5698  1.5964
  203MOL0     H27950   4.470   6.209  10.936 -1.7003  2.4345 -0.9259
  203MOL0     H27951   4.732   6.122  10.971 -1.7702  0.3541  2.2405
  203MOL0     H27952   4.748   6.263  10.871 -2.8324  4.0633 -0.3545
  203MOL0     H27953   4.638   6.388  11.076  2.1852 -0.6374 -0.6197
  203MOL0     H27954   4.604   6.233  11.153 -2.1287  0.4205 -1.7792
  203MOL0     H27955   4.834   6.192  11.186  1.9249 -0.5495 -1.4411
  203MOL0     H27956   4.792   6.338  11.268  2.5573  2.4458 -0.7312
  203MOL0     H27957   4.936   6.355  10.989 -0.9577  0.8698 -1.3466
  203MOL0     H27958   4.890   6.482  11.093  1.5029 -0.4719 -1.5353
  203MOL0     H27959   5.036   6.404  11.270 -1.0057  2.0216 -0.4072
  203MOL0     H27960   5.109   6.453  11.122 -1.4649  1.3936  0.4453
  203MOL0     H27961   5.045   6.167  11.222  2.7287 -0.8142  1.3702
  203MOL0     H27962   5.134   6.199  11.063  3.9029 -0.1218  0.0223
  203MOL0     H27963   5.365   6.356  11.116  2.3453 -0.4121 -0.2210
  203MOL0     H27964   5.611   6.320  11.181 -1.6689  1.2980  0.0309
  203MOL0     H27965   5.672   6.237  11.316 -1.9640 -3.6462 -0.5950
  203MOL0     H27966   5.565   6.525  11.289 -0.0686 -1.5002 -1.7236
  203MOL0     H27967   5.595   6.454  11.457 -0.0506  0.5568  0.3234
  203MOL0     H27968   5.800   6.588  11.374  2.5758  0.5256  0.1011
  203MOL0     H27969   5.839   6.418  11.389  0.6055  0.4866 -0.6678
  203MOL0     H27970   5.776   6.571  11.144  0.0069 -0.4278 -0.5676
  203MOL0     H27971   5.927   6.538  11.213  0.2194 -1.4603  0.4365
  203MOL0     H27972   5.993   6.512  10.986 -1.7688  0.1410  1.3459
  203MOL0     H27973   6.178   6.587  10.894  1.9307  2.1158 -1.2506
  203MOL0     H27974   6.258   6.455  10.794  0.9281  2.1718  0.2151
  203MOL0     H27975   6.322   6.526  10.949 -2.1507  0.1141  2.7136
  203MOL0     H27976   6.507   5.978  10.767  3.3870  1.7865 -3.5649
  203MOL0     H27977   6.742   5.888  10.793 -0.3272 -0.0137 -0.4103
  203MOL0     H27978   7.026   6.106  11.045  5.0814  0.2041  0.1885
  203MOL0     H27979   6.983   5.981  11.165 -0.5071  0.6409 -0.0485
  203MOL0     H27980   7.131   5.822  11.081  2.4494 -1.5216 -1.4582
  203MOL0     H27981   7.173   5.930  10.940  1.7408  0.2150  0.9158
  203MOL0     H27982   7.287   6.087  11.100  2.1154 -0.4142  1.8131
  203MOL0     H27983   7.363   5.936  11.062 -0.1289 -0.7003  0.1208
  203MOL0     H27984   7.331   5.865  11.289 -3.0741 -1.6070  2.2090
  203MOL0     H27985   7.188   5.961  11.308 -1.1010  0.0661 -0.0109
  203MOL0     H27986   7.469   6.073  11.277  1.2682 -1.7921  2.3129
  203MOL0     H27987   7.323   6.166  11.302 -2.2550 -1.9923 -1.3779
  203MOL0     H27988   7.465   6.126  11.511  0.2353 -0.7161  2.1290
  203MOL0     H27989   7.438   5.959  11.483  3.2148  0.7229 -2.0995
  203MOL0     H27990   7.288   6.088  11.677 -4.0416 -0.3574  1.3939
  203MOL0     H27991   7.227   5.973  11.556  1.0618 -0.5430  0.8864
  203MOL0     H27992   7.111   6.186  11.436 -7.1766 -0.7538  2.8573
  203MOL0     H27993   7.212   6.269  11.567  1.1159 -0.6878  0.6803
  203MOL0     H27994   6.777   6.052  11.189 -2.3933  0.9102  2.6217
  203MOL0     H27995   6.527   6.107  11.177  1.2905  2.9013 -0.4021
  203MOL0     H27996   6.181   6.076  11.100  0.8686 -0.4537 -2.2532
  203MOL0     H27997   5.992   6.146  11.210  1.9647 -2.2458 -0.1664
  203MOL0     H27998   4.509   6.009  10.520 -3.2437 -1.6692  1.4783
  203MOL0     H27999   4.487   5.824  10.366 -2.4820  3.0368  2.4599
  203MOL0     H28000   4.873   5.490  10.120 -1.6508  2.0202  2.6413
  203MOL0     H28001   4.872   5.296   9.978 -0.4795  3.2746  0.1872
  203MOL0     H28002   4.876   5.101   9.882 -3.6784  1.6729 -0.0122
  203MOL0     H28003   4.917   5.022  10.044  0.1821 -1.9888 -0.3469
  203MOL0     H28004   4.912   4.901   9.811 -1.7904  3.1851 -1.7324
  203MOL0     H28005   4.736   4.905   9.833  1.0021  2.7180 -0.3772
  203MOL0     H28006   4.908   4.774  10.032 -0.9794  0.2944  0.4109
  203MOL0     H28007   4.740   4.773  10.039  0.1262  3.8948  0.5970
  203MOL0     H28008   4.893   4.606   9.821 -1.4764 -1.8697 -1.1520
  203MOL0     H28009   4.739   4.671   9.784 -0.0589  1.3625  0.1259
  203MOL0     H28010   4.650   4.343  10.021  0.4273  1.2506  4.3989
  203MOL0     H28011   4.557   5.117  10.199 -1.2891  1.0881 -1.7053
  203MOL0     H28012   4.445   5.234  10.392 -0.1514 -1.4217  1.5316
  203MOL0     H28013   4.551   5.333  10.481  0.6856  0.4671  0.5041
  203MOL0     H28014   4.451   5.413  10.357  0.9886 -0.9003 -2.0690
  204MOL0     O28015   8.904   5.776   0.633 -0.3667  0.3429  0.6182
  204MOL0     C28016   8.970   5.827   0.719  0.9052  0.4627  0.9650
  204MOL0     O28017   9.110   5.835   0.720  0.1126 -0.4276  0.3471
  204MOL0     C28018   9.183   5.744   0.637  0.6268  0.0030 -0.7847
  204MOL0     C28019   9.197   5.613   0.672  0.2296 -0.5549  0.3029
  204MOL0     C28020   9.269   5.517   0.595 -0.3981 -0.9972 -0.3427
  204MOL0     C28021   9.322   5.550   0.470  0.5963 -0.7653 -0.1301
  204MOL0     O28022   9.418   5.451   0.420 -0.0862 -0.2130  0.1918
  204MOL0     C28023   9.470   5.479   0.290  0.1796  1.1745 -0.0078
  204MOL0     C28024   9.524   5.344   0.238 -0.3753  0.0554 -0.1780
  204MOL0     C28025   9.657   5.308   0.311  0.2311  0.2749 -0.8461
  204MOL0     C28026   9.716   5.165   0.289 -0.7628  0.2850  0.7441
  204MOL0     C28027   9.761   5.143   0.143  0.4107 -0.4422 -0.5873
  204MOL0     C28028   9.762   4.989   0.083  0.3454 -0.3735 -0.2845
  204MOL0     C28029   9.864   4.901   0.147 -0.0633  0.3151 -0.6358
  204MOL0     C28030   9.888   4.780   0.061  0.5627  0.1752  0.6441
  204MOL0     N28031   9.913   4.654   0.133  1.1129  0.7298  0.3184
  204MOL0     C28032   9.817   4.580   0.187  0.0445  0.9972  0.1619
  204MOL0     C28033   9.873   4.487   0.267  0.0780  0.8299 -0.7353
  204MOL0     C28034   9.809   4.401   0.377  0.0522  0.1200 -0.6016
  204MOL0     C28035   9.834   4.254   0.372 -0.5101  0.1254  0.2015
  204MOL0     C28036   9.747   4.172   0.278  0.5565  0.0415  1.0847
  204MOL0     C28037   9.593   4.171   0.285 -0.0009 -0.3241 -0.1072
  204MOL0     O28038   9.537   4.165   0.416  0.2231 -0.2331  0.3531
  204MOL0     C28039   9.402   4.125   0.421  0.3180 -0.6017  0.0703
  204MOL0     C28040   9.296   4.193   0.348  0.1025 -0.4059 -0.6994
  204MOL0     C28041   9.161   4.171   0.369 -0.6230  0.5796 -0.4390
  204MOL0     C28042   9.062   4.252   0.296  1.1991 -0.2141  0.2966
  204MOL0     C28043   9.125   4.063   0.467  0.0049 -0.9283  0.4602
  204MOL0     C28044   8.985   4.030   0.516  0.8420 -0.7847 -0.3024
  204MOL0     O28045   8.960   3.895   0.545  0.5860 -0.6059 -0.4482
  204MOL0     C28046   8.832   3.866   0.566  0.6598  0.2646 -0.8544
  204MOL0     C28047   8.723   3.894   0.476  0.5838 -0.0844  0.2511
  204MOL0     C28048   8.596   3.849   0.513  0.1002 -0.4979  0.0709
  204MOL0     C28049   8.566   3.766   0.625  0.3803  0.3066  0.3557
  204MOL0     O28050   8.447   3.724   0.674 -0.7783 -0.5591 -0.2984
  204MOL0     C28051   8.327   3.799   0.652 -0.6091  0.9488 -0.4515
  204MOL0     C28052   8.255   3.744   0.523 -0.4252 -0.2950 -0.8446
  204MOL0     C28053   8.200   3.604   0.540 -0.4148 -0.2197  0.1167
  204MOL0     C28054   8.150   3.540   0.407 -0.7135  1.1356 -0.6935
  204MOL0     C28055   8.084   3.407   0.443 -0.9514 -0.3486 -0.6018
  204MOL0     C28056   8.036   3.326   0.317 -0.8263 -0.6920 -0.3301
  204MOL0     C28057   7.898   3.373   0.265 -0.6872 -0.3105  0.1567
  204MOL0     C28058   7.826   3.253   0.193  0.0658 -0.0908 -0.2748
  204MOL0    Cl28059   7.859   3.279   0.016  0.2444  0.3393  0.1638
  204MOL0     C28060   8.676   3.718   0.699 -0.2373  0.1435  0.1009
  204MOL0     C28061   8.810   3.772   0.676  0.7986  0.1852 -0.2735
  204MOL0     O28062   8.901   4.115   0.517 -0.4068  0.0103 -0.0181
  204MOL0     C28063   9.231   4.008   0.531 -1.0108  2.0143  0.0960
  204MOL0     C28064   9.368   4.035   0.513  0.2357 -0.4898 -0.4936
  204MOL0     N28065  10.009   4.499   0.244  0.6178 -0.0221 -0.0656
  204MOL0     N28066  10.039   4.595   0.155  0.0530 -0.3789  0.4665
  204MOL0     C28067   9.323   5.684   0.440  1.0594 -0.6365 -0.7211
  204MOL0     C28068   9.242   5.780   0.517 -0.4993 -0.8566 -0.4164
  204MOL0     C28069   8.890   5.890   0.829  0.1880  0.1474 -0.1283
  204MOL0     C28070   8.764   5.941   0.802  0.7349  0.3449 -0.2933
  204MOL0     C28071   8.690   6.014   0.894  0.4355 -0.5321  0.2638
  204MOL0     C28072   8.731   6.047   1.022 -0.3868  0.3921 -0.4341
  204MOL0     O28073   8.671   6.137   1.108 -0.4305 -0.2405 -0.4117
  204MOL0     C28074   8.556   6.208   1.064 -0.5071 -0.5296  0.4712
  204MOL0     C28075   8.502   6.303   1.176 -0.8595  0.9840  0.1288
  204MOL0     C28076   8.363   6.346   1.149  0.9004  0.7603 -0.5322
  204MOL0     C28077   8.318   6.426   1.272  0.1888 -0.0252  0.2054
  204MOL0     C28078   8.294   6.347   1.392  0.0021  0.9790  0.1202
  204MOL0     C28079   8.281   6.293   1.504  0.0078 -0.2253  0.0712
  204MOL0     C28080   8.858   5.986   1.057  0.2254 -0.0004  0.4219
  204MOL0     C28081   8.928   5.907   0.960 -1.2515 -0.0495  0.2847
  204MOL0     C28082   9.042   5.834   1.022  0.1907  0.2567 -0.6774
  204MOL0     H28083   9.162   5.592   0.773 -3.2645 -1.0958 -0.8903
  204MOL0     H28084   9.292   5.416   0.628 -0.2743 -1.4775 -1.8117
  204MOL0     H28085   9.554   5.548   0.295  1.1337  0.1378 -1.1806
  204MOL0     H28086   9.383   5.509   0.231 -0.2998  0.8255  0.5028
  204MOL0     H28087   9.453   5.261   0.236  0.6948 -0.8953 -0.0149
  204MOL0     H28088   9.543   5.363   0.132 -0.2714  0.5278 -0.0786
  204MOL0     H28089   9.733   5.383   0.289  0.3159 -0.4670 -3.3937
  204MOL0     H28090   9.636   5.300   0.418  1.3642  0.8652 -0.5654
  204MOL0     H28091   9.801   5.147   0.355 -1.5784 -1.4250  1.4090
  204MOL0     H28092   9.630   5.100   0.309 -0.9449  0.4732  0.5741
  204MOL0     H28093   9.864   5.179   0.145  1.4682 -3.2605 -0.0997
  204MOL0     H28094   9.694   5.210   0.087 -1.2391  1.2832  3.0505
  204MOL0     H28095   9.671   4.935   0.109 -0.3292 -0.5190 -2.6956
  204MOL0     H28096   9.771   5.008  -0.025  0.0266  0.5943 -0.1514
  204MOL0     H28097   9.844   4.874   0.251 -0.2949  0.1970 -0.7091
  204MOL0     H28098   9.963   4.946   0.138 -0.0006 -0.2019 -3.4823
  204MOL0     H28099   9.804   4.759  -0.006  1.0315 -4.3119  1.1413
  204MOL0     H28100   9.979   4.790   0.001 -1.3424 -0.1580 -2.5392
  204MOL0     H28101   9.713   4.611   0.196 -0.7697 -1.0561 -1.3514
  204MOL0     H28102   9.701   4.417   0.385  0.2470  0.6507  2.2187
  204MOL0     H28103   9.842   4.443   0.473 -0.9955 -0.8537  0.2298
  204MOL0     H28104   9.938   4.248   0.337 -0.5737 -0.1974  0.0682
  204MOL0     H28105   9.827   4.216   0.474  2.0986 -3.1874 -0.6625
  204MOL0     H28106   9.779   4.213   0.182 -1.2387  1.9398  1.2343
  204MOL0     H28107   9.768   4.065   0.279 -1.1427 -0.3497  0.0052
  204MOL0     H28108   9.551   4.262   0.240 -1.2251 -1.1065 -0.5915
  204MOL0     H28109   9.554   4.084   0.232 -1.7437  0.5486 -0.3474
  204MOL0     H28110   9.323   4.246   0.257  3.2335 -2.3020 -1.0334
  204MOL0     H28111   8.997   4.171   0.260  1.6665 -1.2306  1.6640
  204MOL0     H28112   9.118   4.303   0.217  3.2797 -1.9959  0.5229
  204MOL0     H28113   9.012   4.328   0.357  0.3027 -2.1276  2.0468
  204MOL0     H28114   8.734   3.948   0.383  0.3897  0.1124  0.3398
  204MOL0     H28115   8.511   3.880   0.454  0.6625  0.3253 -0.3205
  204MOL0     H28116   8.258   3.771   0.732  0.8545 -1.7720 -0.0194
  204MOL0     H28117   8.329   3.907   0.634 -2.1172  0.6772 -2.5909
  204MOL0     H28118   8.180   3.819   0.499  0.9660  1.3072 -0.4396
  204MOL0     H28119   8.321   3.744   0.436 -0.6572  0.3041 -1.0251
  204MOL0     H28120   8.109   3.616   0.599 -1.4506 -0.3080 -1.3851
  204MOL0     H28121   8.264   3.531   0.590 -1.6808 -2.4819 -1.3895
  204MOL0     H28122   8.243   3.522   0.352 -0.8333 -3.4918  0.2458
  204MOL0     H28123   8.086   3.610   0.352 -0.2884 -0.3094 -3.2147
  204MOL0     H28124   8.170   3.354   0.486  0.4684 -1.0026 -3.9138
  204MOL0     H28125   8.006   3.425   0.516 -0.9584 -1.3827 -0.3355
  204MOL0     H28126   8.028   3.222   0.350  1.3459 -1.3421 -1.6436
  204MOL0     H28127   8.118   3.322   0.245  0.8189 -0.2940  1.4314
  204MOL0     H28128   7.904   3.465   0.207 -1.7820  0.7632  1.6808
  204MOL0     H28129   7.834   3.394   0.352  0.2894  0.6701  0.6660
  204MOL0     H28130   7.718   3.262   0.209  0.1967  2.1050 -0.3200
  204MOL0     H28131   7.861   3.158   0.233 -1.6746 -0.3126  0.8481
  204MOL0     H28132   8.643   3.650   0.777  0.2590  2.0339  2.0686
  204MOL0     H28133   8.887   3.748   0.749 -0.5688  2.2574  1.9821
  204MOL0     H28134   9.202   3.937   0.607 -1.0087  2.9563  1.0000
  204MOL0     H28135   9.447   4.012   0.583  1.4920  2.0175 -0.9557
  204MOL0     H28136   9.387   5.716   0.359 -2.9069  0.2160 -3.7889
  204MOL0     H28137   9.255   5.887   0.504 -1.7631 -0.5330  0.8070
  204MOL0     H28138   8.736   5.928   0.697  2.1972 -0.3881 -0.6093
  204MOL0     H28139   8.587   6.038   0.872  0.8874  0.5862 -0.7537
  204MOL0     H28140   8.588   6.258   0.972  3.6463 -1.0934  1.3821
  204MOL0     H28141   8.471   6.143   1.044 -1.6295  1.5933 -2.2819
  204MOL0     H28142   8.566   6.391   1.187 -0.6962  0.7268  1.4589
  204MOL0     H28143   8.497   6.246   1.269 -2.3923  0.1144 -0.4453
  204MOL0     H28144   8.347   6.407   1.060 -2.0250  0.8869 -0.0007
  204MOL0     H28145   8.299   6.258   1.143 -0.1258  1.5901 -3.2708
  204MOL0     H28146   8.220   6.470   1.252  0.9565  1.1186 -1.2295
  204MOL0     H28147   8.378   6.508   1.312 -1.2952  0.9753  0.4952
  204MOL0     H28148   8.257   6.246   1.597 -0.2002  0.4428  0.3623
  204MOL0     H28149   8.893   5.989   1.160 -0.7845 -3.7070  1.0110
  204MOL0     H28150   9.031   5.830   1.131  1.1849  2.8844 -0.3962
  204MOL0     H28151   9.038   5.737   0.972 -2.2283  1.5394 -3.2966
  204MOL0     H28152   9.138   5.878   0.992  0.6070  0.7140  1.2271
  205MOL0     O28153   1.197   1.413   0.100  0.7883 -0.0206  0.5517
  205MOL0     C28154   1.295   1.451   0.156 -0.1522  0.5592 -0.6427
  205MOL0     O28155   1.421   1.440   0.104 -0.0840 -0.0324  0.6120
  205MOL0     C28156   1.452   1.423  -0.027  0.2160 -0.8154  0.3384
  205MOL0     C28157   1.390   1.322  -0.104 -0.3167  0.3257 -0.1583
  205MOL0     C28158   1.435   1.288  -0.227 -0.1663 -1.1576 -0.3220
  205MOL0     C28159   1.528   1.364  -0.297  0.6425 -0.4136 -0.0949
  205MOL0     O28160   1.540   1.339  -0.429 -0.2303 -0.1475  0.6968
  205MOL0     C28161   1.533   1.443  -0.519  0.3160 -0.6426  0.2140
  205MOL0     C28162   1.379   1.488  -0.538 -0.0710  0.2355 -0.0655
  205MOL0     C28163   1.273   1.374  -0.546 -0.3879  0.2120  0.3448
  205MOL0     C28164   1.293   1.257  -0.652  0.9156  0.2704 -0.0141
  205MOL0     C28165   1.174   1.153  -0.639  0.0967 -1.0621  0.4785
  205MOL0     C28166   1.196   1.067  -0.518 -0.6394  0.0612  0.1188
  205MOL0     C28167   1.077   0.972  -0.499  1.1198 -0.0882 -0.4492
  205MOL0     C28168   1.116   0.855  -0.417  0.4491 -0.1303 -0.0126
  205MOL0     N28169   1.014   0.744  -0.422 -0.7951 -0.0340 -0.0676
  205MOL0     C28170   1.028   0.617  -0.474 -0.1308  1.5822  0.1792
  205MOL0     C28171   0.924   0.555  -0.425  0.0443  0.0586  1.2208
  205MOL0     C28172   0.902   0.411  -0.436  0.5603 -0.1628 -0.1114
  205MOL0     C28173   0.865   0.375  -0.582 -0.4681 -0.4497  0.1590
  205MOL0     C28174   0.748   0.457  -0.637  0.9989 -0.2216 -0.3948
  205MOL0     C28175   0.730   0.442  -0.791 -0.2026 -0.0395  0.0367
  205MOL0     O28176   0.835   0.511  -0.865  0.4247  0.7018  0.2380
  205MOL0     C28177   0.840   0.502  -1.001 -0.4739  0.0365 -0.6671
  205MOL0     C28178   0.735   0.452  -1.079 -0.3447 -0.6706 -1.1927
  205MOL0     C28179   0.731   0.453  -1.219  0.4406  0.2672 -0.1088
  205MOL0     C28180   0.602   0.416  -1.295  0.7037 -0.2552 -0.3615
  205MOL0     C28181   0.846   0.487  -1.290 -0.8726 -0.5018 -0.4340
  205MOL0     C28182   0.858   0.481  -1.442  0.3943 -0.7320  0.0811
  205MOL0     O28183   0.791   0.382  -1.516  0.2601 -0.0180 -0.2220
  205MOL0     C28184   0.824   0.374  -1.652  0.5387 -0.3116 -0.9143
  205MOL0     C28185   0.766   0.457  -1.744  0.5154 -0.1544  0.1187
  205MOL0     C28186   0.808   0.451  -1.880  0.7754 -0.7710 -0.6518
  205MOL0     C28187   0.920   0.375  -1.919 -0.7311 -0.2439 -0.2332
  205MOL0     O28188   0.968   0.391  -2.046 -0.5319 -0.7412 -0.1250
  205MOL0     C28189   0.868   0.405  -2.149  0.1299  0.9505 -0.1402
  205MOL0     C28190   0.949   0.397  -2.284  0.4017  0.4656  0.0506
  205MOL0     C28191   0.852   0.374  -2.403  1.3936  0.1002 -0.2591
  205MOL0     C28192   0.916   0.314  -2.525 -0.1445 -0.4936  0.4168
  205MOL0     C28193   0.817   0.312  -2.650  0.0337  0.1160 -0.5677
  205MOL0     C28194   0.910   0.261  -2.761  0.9981 -0.1247 -0.4532
  205MOL0     C28195   0.826   0.217  -2.877 -0.6380  0.4144  0.0906
  205MOL0     C28196   0.914   0.139  -2.979 -0.3637  0.5726  0.7220
  205MOL0    Cl28197   0.804   0.083  -3.106  0.0095  0.0622 -0.4210
  205MOL0     C28198   0.996   0.310  -1.818  0.7833 -0.5934  0.2608
  205MOL0     C28199   0.936   0.299  -1.692 -0.6715 -0.5188 -1.3911
  205MOL0     O28200   0.912   0.579  -1.488 -0.1859  0.1730 -0.0941
  205MOL0     C28201   0.952   0.531  -1.212 -0.8499 -0.1458 -0.3018
  205MOL0     C28202   0.949   0.540  -1.074  0.6495 -0.1853 -1.2106
  205MOL0     N28203   0.835   0.629  -0.362 -0.4144 -0.4150  0.1662
  205MOL0     N28204   0.896   0.746  -0.352 -0.0396  0.1201 -0.5278
  205MOL0     C28205   1.592   1.472  -0.220 -0.4292 -0.4067  0.1627
  205MOL0     C28206   1.563   1.485  -0.084 -0.0753 -1.2279 -0.7803
  205MOL0     C28207   1.287   1.499   0.308 -0.1277  0.2109  0.7717
  205MOL0     C28208   1.406   1.546   0.364  0.1430 -0.7049  0.4830
  205MOL0     C28209   1.412   1.562   0.497  0.6778  0.6852 -0.7367
  205MOL0     C28210   1.298   1.568   0.569  0.9598  0.1829 -1.0137
  205MOL0     O28211   1.292   1.602   0.703 -0.1529 -0.1821 -1.0484
  205MOL0     C28212   1.389   1.564   0.798 -0.4654 -0.1294 -0.6952
  205MOL0     C28213   1.407   1.412   0.805 -0.9575  0.2483  0.8692
  205MOL0     C28214   1.298   1.339   0.888  0.2035 -0.4872 -0.3185
  205MOL0     C28215   1.320   1.343   1.035  0.3457 -0.8061  0.0370
  205MOL0     C28216   1.224   1.261   1.108  0.1946  0.0122  1.7915
  205MOL0     C28217   1.138   1.203   1.177 -0.7092 -0.4410  0.1666
  205MOL0     C28218   1.174   1.548   0.514  0.1990  1.0232 -0.4808
  205MOL0     C28219   1.167   1.505   0.379  0.9891 -0.0704 -0.5965
  205MOL0     C28220   1.028   1.483   0.324 -0.7678  0.6700  0.1441
  205MOL0     H28221   1.311   1.256  -0.068  0.3991 -1.2299 -1.2980
  205MOL0     H28222   1.380   1.215  -0.285  0.6239 -0.9742 -1.3260
  205MOL0     H28223   1.582   1.416  -0.613  0.4818  0.3765 -0.0049
  205MOL0     H28224   1.588   1.534  -0.492 -2.1866  0.7816  0.8175
  205MOL0     H28225   1.360   1.564  -0.462  0.4815  3.2785 -2.7172
  205MOL0     H28226   1.370   1.537  -0.636  1.1818 -2.0446 -1.4005
  205MOL0     H28227   1.279   1.340  -0.442  0.9767 -0.3469  0.1087
  205MOL0     H28228   1.177   1.425  -0.559 -0.1078  0.4568 -0.8910
  205MOL0     H28229   1.284   1.305  -0.750 -0.4838  0.1979  0.0538
  205MOL0     H28230   1.391   1.208  -0.657  1.5065  0.8713  3.2866
  205MOL0     H28231   1.171   1.102  -0.735 -0.0212 -0.3428  0.0945
  205MOL0     H28232   1.075   1.198  -0.629 -0.1503 -1.4616 -0.1813
  205MOL0     H28233   1.294   1.025  -0.541 -0.4519  0.5419  0.0346
  205MOL0     H28234   1.208   1.119  -0.423  0.9925 -1.9319  1.0856
  205MOL0     H28235   1.032   0.947  -0.595  1.4404  1.1285 -0.9440
  205MOL0     H28236   0.986   1.013  -0.453  0.2016 -1.1294 -1.3049
  205MOL0     H28237   1.202   0.804  -0.460 -0.9724 -1.0077 -1.9634
  205MOL0     H28238   1.134   0.887  -0.313  3.8859  0.5585 -0.6991
  205MOL0     H28239   1.110   0.569  -0.527 -2.2260 -0.2159 -1.6238
  205MOL0     H28240   0.813   0.390  -0.375 -0.7276 -1.3403 -2.2824
  205MOL0     H28241   0.994   0.368  -0.396  2.2743  2.0211 -1.5146
  205MOL0     H28242   0.948   0.380  -0.653 -0.9585  3.6223 -0.3454
  205MOL0     H28243   0.830   0.272  -0.596 -1.5071  0.0153 -0.7487
  205MOL0     H28244   0.657   0.433  -0.581 -0.3605  0.1242 -2.3513
  205MOL0     H28245   0.776   0.562  -0.623 -2.5641  0.6575  1.3381
  205MOL0     H28246   0.727   0.334  -0.807  1.0981  0.1272 -1.5648
  205MOL0     H28247   0.632   0.486  -0.812 -0.2244  0.5578  1.2836
  205MOL0     H28248   0.647   0.418  -1.025 -0.0282  1.3811  0.7201
  205MOL0     H28249   0.520   0.426  -1.223  1.1720 -4.7312  1.0801
  205MOL0     H28250   0.585   0.316  -1.335  0.0650  0.2553 -1.4079
  205MOL0     H28251   0.576   0.492  -1.370 -1.0118 -1.9632 -1.6102
  205MOL0     H28252   0.698   0.531  -1.704  3.4964  1.9346  1.6957
  205MOL0     H28253   0.749   0.510  -1.950 -0.3119 -2.4948 -1.2452
  205MOL0     H28254   0.797   0.323  -2.137 -0.0482  0.9808 -0.9448
  205MOL0     H28255   0.812   0.498  -2.147  0.7755  1.4415 -2.3245
  205MOL0     H28256   0.991   0.494  -2.312 -2.7432  1.6635 -1.0255
  205MOL0     H28257   1.016   0.312  -2.269 -3.3666 -2.2898  3.2108
  205MOL0     H28258   0.786   0.460  -2.422  1.8315  0.8837  1.5528
  205MOL0     H28259   0.774   0.300  -2.382 -0.6453  2.2233  0.1175
  205MOL0     H28260   0.956   0.214  -2.507  2.7281  0.1313 -1.7743
  205MOL0     H28261   1.001   0.381  -2.541 -0.9194  0.4569  0.1238
  205MOL0     H28262   0.729   0.251  -2.629 -1.1712  0.9681 -2.8344
  205MOL0     H28263   0.779   0.413  -2.668  0.0660  0.1777 -0.2955
  205MOL0     H28264   0.964   0.177  -2.717 -0.9745 -1.6814 -0.8526
  205MOL0     H28265   0.980   0.341  -2.788  2.6566 -1.3340  0.0560
  205MOL0     H28266   0.778   0.302  -2.926  0.5130  1.4993  0.8120
  205MOL0     H28267   0.750   0.144  -2.845  0.1178 -1.2775 -1.7309
  205MOL0     H28268   0.965   0.057  -2.927  1.1671 -2.1991 -4.4069
  205MOL0     H28269   0.985   0.214  -3.017 -2.5403  2.3265 -0.0632
  205MOL0     H28270   1.089   0.254  -1.828  0.8580 -0.4595  0.2094
  205MOL0     H28271   0.993   0.244  -1.618 -1.5473 -2.2407 -1.9495
  205MOL0     H28272   1.042   0.572  -1.258 -0.5813 -0.9224 -0.4818
  205MOL0     H28273   1.025   0.592  -1.017  1.0949 -1.3592 -0.6970
  205MOL0     H28274   1.656   1.541  -0.274 -1.7904  0.2597 -0.6578
  205MOL0     H28275   1.592   1.571  -0.023  2.0747 -2.8518  0.6190
  205MOL0     H28276   1.498   1.547   0.307  0.2444 -2.3090  0.5607
  205MOL0     H28277   1.513   1.574   0.535 -0.2104  2.0511  1.3727
  205MOL0     H28278   1.476   1.609   0.749 -1.0607 -0.1276 -1.7853
  205MOL0     H28279   1.369   1.586   0.903  0.7852  0.6115 -0.5880
  205MOL0     H28280   1.503   1.402   0.858  0.8166  1.8879 -1.7492
  205MOL0     H28281   1.411   1.369   0.705 -2.9038 -2.5973  1.9056
  205MOL0     H28282   1.203   1.383   0.856  0.5322  0.0696 -0.5528
  205MOL0     H28283   1.309   1.238   0.850 -1.4979  0.0502 -2.4351
  205MOL0     H28284   1.295   1.445   1.065 -4.7116 -1.8461  0.2261
  205MOL0     H28285   1.424   1.321   1.059  0.3830  0.4635  1.1135
  205MOL0     H28286   1.060   1.154   1.231 -3.9421 -0.2076 -3.8274
  205MOL0     H28287   1.087   1.555   0.579 -0.4205  1.7115 -1.3514
  205MOL0     H28288   1.005   1.377   0.309 -0.1322  0.0553  2.9886
  205MOL0     H28289   0.948   1.521   0.388 -1.5849 -0.1640 -0.3548
  205MOL0     H28290   1.031   1.544   0.234 -1.4443 -0.8364 -0.9565
  206MOL0     O28291  10.487   6.294   0.750 -0.2904 -0.4493 -1.0785
  206MOL0     C28292  10.457   6.382   0.670  0.0110 -0.5111 -0.0920
  206MOL0     O28293  10.427   6.513   0.705 -0.6968  0.1173 -0.0047
  206MOL0     C28294  10.393   6.539   0.836 -0.0197  0.3421  0.6640
  206MOL0     C28295  10.496   6.536   0.935  1.3506 -0.2517  0.4682
  206MOL0     C28296  10.469   6.581   1.066 -0.7799 -0.3348 -0.5343
  206MOL0     C28297  10.341   6.618   1.109 -0.5275  0.4503  0.6014
  206MOL0     O28298  10.315   6.651   1.237 -0.7816 -1.1849  0.0800
  206MOL0     C28299  10.362   6.563   1.333 -0.2413 -0.6350  0.7426
  206MOL0     C28300  10.234   6.521   1.420  0.0895  0.5172 -0.4554
  206MOL0     C28301  10.121   6.452   1.350  0.8531 -0.0573  0.2958
  206MOL0     C28302  10.060   6.352   1.446  0.5592  0.5380  0.2053
  206MOL0     C28303   9.976   6.251   1.368 -0.0781  0.3843  0.4095
  206MOL0     C28304   9.849   6.310   1.301  1.3359 -0.6385  0.3794
  206MOL0     C28305   9.763   6.394   1.394 -0.1978  0.3758  0.1210
  206MOL0     C28306   9.713   6.315   1.515  0.2178  0.5067  0.6478
  206MOL0     N28307   9.616   6.396   1.595 -0.3434  0.9090 -0.0315
  206MOL0     C28308   9.665   6.486   1.688 -0.4778 -1.1510  0.1994
  206MOL0     C28309   9.562   6.496   1.776 -0.6811  0.4788  0.7909
  206MOL0     C28310   9.545   6.565   1.911  1.2781 -0.7387 -0.2417
  206MOL0     C28311   9.553   6.465   2.030  0.4722 -0.0306 -0.2468
  206MOL0     C28312   9.650   6.503   2.140 -0.3010 -0.3178 -0.7277
  206MOL0     C28313   9.643   6.640   2.208 -0.2336 -0.0719  0.0834
  206MOL0     O28314   9.702   6.657   2.346  0.9933 -0.7826 -0.0815
  206MOL0     C28315   9.830   6.668   2.340  0.5622 -0.0920  0.8886
  206MOL0     C28316   9.904   6.555   2.358  0.2350  0.4067 -0.3861
  206MOL0     C28317  10.042   6.560   2.352 -0.0707  1.1171  0.1346
  206MOL0     C28318  10.109   6.421   2.344 -0.3935  0.0349 -0.8263
  206MOL0     C28319  10.106   6.686   2.333 -0.0623 -0.1253 -0.0454
  206MOL0     C28320  10.251   6.698   2.316  0.9381 -0.7048  0.1415
  206MOL0     O28321  10.297   6.795   2.237  0.2833 -0.8094  0.7170
  206MOL0     C28322  10.421   6.847   2.266  0.5425  0.2060  0.5310
  206MOL0     C28323  10.447   6.926   2.370  0.5396  0.1963 -0.4135
  206MOL0     C28324  10.574   6.986   2.391  0.2862 -0.0787  0.6961
  206MOL0     C28325  10.682   6.952   2.312  1.1404 -0.3649 -0.5696
  206MOL0     O28326  10.812   6.980   2.351 -0.1322 -0.3076 -0.1577
  206MOL0     C28327  10.861   6.922   2.463  0.9277  0.4997  0.8734
  206MOL0     C28328  10.915   6.785   2.426  0.2349 -0.2702  0.2383
  206MOL0     C28329  11.037   6.784   2.319  0.3778  0.2539 -1.4512
  206MOL0     C28330  11.055   6.632   2.274 -0.4570 -0.0956  0.1603
  206MOL0     C28331  11.184   6.604   2.187 -0.7383  0.2469 -0.0760
  206MOL0     C28332  11.180   6.669   2.050 -0.0245  0.3870  0.4938
  206MOL0     C28333  11.284   6.627   1.945 -0.4037 -1.1909  1.1919
  206MOL0     C28334  11.247   6.508   1.856 -0.1145 -0.2536  0.0890
  206MOL0    Cl28335  11.083   6.512   1.782 -0.4010  0.4322  0.0192
  206MOL0     C28336  10.656   6.870   2.204 -0.4231  0.9356 -0.0492
  206MOL0     C28337  10.530   6.816   2.187 -0.5077 -0.6186 -0.6244
  206MOL0     O28338  10.317   6.619   2.372  0.1156  0.6204 -0.2148
  206MOL0     C28339  10.027   6.802   2.328  0.4122  0.4194  0.0796
  206MOL0     C28340   9.885   6.790   2.323  1.0091 -0.7952 -1.0540
  206MOL0     N28341   9.462   6.408   1.738 -0.1972 -0.2714  0.0285
  206MOL0     N28342   9.490   6.351   1.630  0.3753 -0.1266  1.1111
  206MOL0     C28343  10.238   6.610   1.014  0.4273 -0.0583  0.8962
  206MOL0     C28344  10.265   6.580   0.872 -0.1805  0.7329 -0.4086
  206MOL0     C28345  10.489   6.360   0.514  0.3213  0.1784 -0.2501
  206MOL0     C28346  10.442   6.464   0.427  0.6706  0.3111  0.0008
  206MOL0     C28347  10.463   6.458   0.286 -0.0471 -0.3925  0.5711
  206MOL0     C28348  10.531   6.357   0.222 -0.5175  0.5635 -0.1655
  206MOL0     O28349  10.530   6.352   0.087 -0.1658  0.4140  0.0241
  206MOL0     C28350  10.631   6.282   0.020 -0.1094 -0.2630  0.1426
  206MOL0     C28351  10.606   6.272  -0.134  0.5167  0.3442 -0.1947
  206MOL0     C28352  10.623   6.408  -0.202 -0.1217 -0.5897 -0.5228
  206MOL0     C28353  10.593   6.401  -0.353 -1.1113  0.5722 -0.0090
  206MOL0     C28354  10.628   6.518  -0.424  0.4114 -0.1868  0.5818
  206MOL0     C28355  10.643   6.612  -0.495  1.1406  0.4996 -0.0029
  206MOL0     C28356  10.566   6.247   0.309 -0.7482 -0.2005  0.0001
  206MOL0     C28357  10.540   6.244   0.448 -0.2468  0.2458  0.5035
  206MOL0     C28358  10.570   6.110   0.512 -0.0991 -0.5111  0.5854
  206MOL0     H28359  10.594   6.510   0.895  1.5857 -0.4541  1.1686
  206MOL0     H28360  10.543   6.599   1.143 -1.2072  1.7344 -0.5375
  206MOL0     H28361  10.430   6.609   1.405 -0.3724 -1.4619  1.4210
  206MOL0     H28362  10.399   6.468   1.294 -1.2727 -0.4024 -0.8779
  206MOL0     H28363  10.276   6.472   1.509 -0.1118  5.2046  2.6074
  206MOL0     H28364  10.190   6.615   1.452 -0.6363  0.1137 -0.2575
  206MOL0     H28365  10.050   6.531   1.322 -0.0694 -0.7952  0.5170
  206MOL0     H28366  10.152   6.396   1.261  0.1705 -3.2708  1.9400
  206MOL0     H28367  10.128   6.303   1.516 -3.4463 -0.7271  3.6790
  206MOL0     H28368  10.003   6.410   1.519 -1.0798 -2.5213  1.5587
  206MOL0     H28369   9.947   6.175   1.441 -0.8002 -1.4519 -1.6785
  206MOL0     H28370  10.027   6.195   1.290 -1.1384  0.7967 -0.6046
  206MOL0     H28371   9.891   6.361   1.214  1.0471 -1.7682 -0.4406
  206MOL0     H28372   9.783   6.230   1.267 -1.1097  1.6536 -0.6168
  206MOL0     H28373   9.677   6.432   1.337  0.7922  5.1442  1.3364
  206MOL0     H28374   9.817   6.484   1.426 -1.4248  0.9732  0.5821
  206MOL0     H28375   9.656   6.229   1.478  0.2366  0.3587  0.9631
  206MOL0     H28376   9.793   6.275   1.578 -0.6378  0.9108  2.0190
  206MOL0     H28377   9.766   6.527   1.683 -1.4971  1.4294 -2.6374
  206MOL0     H28378   9.442   6.599   1.926  1.4457  0.2490 -1.1622
  206MOL0     H28379   9.611   6.652   1.921  1.1984 -0.8418  1.4212
  206MOL0     H28380   9.464   6.450   2.091  1.1303 -1.5946  0.3786
  206MOL0     H28381   9.573   6.366   1.990  1.0025  0.7899 -2.1658
  206MOL0     H28382   9.627   6.439   2.226 -0.9348 -0.1301 -0.7549
  206MOL0     H28383   9.753   6.482   2.109  0.0689 -0.5305  0.5848
  206MOL0     H28384   9.699   6.715   2.151  2.9390 -2.0004  0.4476
  206MOL0     H28385   9.537   6.667   2.203  0.0956  1.0480 -2.7100
  206MOL0     H28386   9.856   6.462   2.387  3.0380 -0.5534  1.6785
  206MOL0     H28387  10.158   6.421   2.246  0.1692  0.5654 -0.5520
  206MOL0     H28388  10.043   6.336   2.326 -3.8109  1.8646  1.7596
  206MOL0     H28389  10.175   6.394   2.427 -1.7376  0.1475  0.3243
  206MOL0     H28390  10.363   6.951   2.434 -0.0136 -2.7363  0.1835
  206MOL0     H28391  10.599   7.053   2.473  1.0319  1.8590 -1.0467
  206MOL0     H28392  10.941   6.977   2.512  1.9362 -0.6401  0.5802
  206MOL0     H28393  10.785   6.912   2.541 -2.2449 -1.6589 -2.1938
  206MOL0     H28394  10.966   6.751   2.516 -2.2907 -2.3597  1.0033
  206MOL0     H28395  10.839   6.713   2.393 -0.2078  0.4884 -0.4387
  206MOL0     H28396  11.120   6.838   2.366 -1.8919  3.0289 -0.3188
  206MOL0     H28397  11.008   6.836   2.228 -4.3739 -2.0354 -1.5148
  206MOL0     H28398  10.972   6.604   2.209  1.8738 -3.6864 -1.5840
  206MOL0     H28399  11.071   6.569   2.362  1.2895 -1.5454 -1.1228
  206MOL0     H28400  11.274   6.637   2.240  0.1664 -2.4052  0.2171
  206MOL0     H28401  11.199   6.495   2.181 -1.4217  0.1914 -0.9653
  206MOL0     H28402  11.207   6.774   2.063 -1.1123  0.8354 -0.6159
  206MOL0     H28403  11.078   6.666   2.010 -1.1906  1.4330  3.1372
  206MOL0     H28404  11.384   6.618   1.987  0.9068  0.1751 -1.3718
  206MOL0     H28405  11.293   6.713   1.878 -0.4614 -3.1787 -1.5607
  206MOL0     H28406  11.249   6.429   1.932 -0.6925 -0.2893  0.0728
  206MOL0     H28407  11.321   6.481   1.780  0.3171 -0.8554  0.7072
  206MOL0     H28408  10.743   6.837   2.149  0.0861 -0.6877  1.6432
  206MOL0     H28409  10.517   6.759   2.096  2.1166  0.6555 -1.9033
  206MOL0     H28410  10.076   6.897   2.311 -2.9172  1.8078 -3.0082
  206MOL0     H28411   9.826   6.881   2.315  0.7414 -0.6949  1.4783
  206MOL0     H28412  10.135   6.641   1.030 -0.7663 -1.4546 -2.9990
  206MOL0     H28413  10.201   6.599   0.786 -0.5777  1.9362  0.1278
  206MOL0     H28414  10.392   6.552   0.466  1.1229 -0.2997  2.1292
  206MOL0     H28415  10.425   6.542   0.229  1.5176  0.4014  0.6176
  206MOL0     H28416  10.720   6.343   0.032 -0.1187 -0.0724 -0.6565
  206MOL0     H28417  10.658   6.184   0.061 -3.2732 -0.6960  1.4593
  206MOL0     H28418  10.501   6.243  -0.149 -0.0606  1.8726  0.5639
  206MOL0     H28419  10.680   6.206  -0.180 -1.4338 -0.7709 -1.9467
  206MOL0     H28420  10.564   6.482  -0.147  1.7759  1.1458 -0.7036
  206MOL0     H28421  10.727   6.440  -0.186 -0.8848  1.4832  0.7520
  206MOL0     H28422  10.484   6.399  -0.364 -0.8414  0.3052 -4.3352
  206MOL0     H28423  10.631   6.315  -0.410 -0.7984  1.6494 -1.4781
  206MOL0     H28424  10.659   6.699  -0.555  0.6378  1.4051  1.1478
  206MOL0     H28425  10.602   6.156   0.262  1.3787  0.0032  1.0982
  206MOL0     H28426  10.563   6.024   0.444  2.7280 -2.4248  2.4950
  206MOL0     H28427  10.667   6.105   0.562  0.4176  1.1616 -0.1721
  206MOL0     H28428  10.496   6.096   0.591 -0.1270  0.8925  0.8373
  207MOL0     O28429  11.415   6.431   8.672 -0.4405 -0.0931  0.6541
  207MOL0     C28430  11.309   6.415   8.733 -0.7309 -0.2383  0.3541
  207MOL0     O28431  11.256   6.295   8.769  0.3092  0.0675 -0.2557
  207MOL0     C28432  11.343   6.190   8.775 -0.1969  0.5983 -0.3176
  207MOL0     C28433  11.475   6.196   8.819 -0.2039 -0.0335  0.5751
  207MOL0     C28434  11.565   6.084   8.807  1.5234 -0.1265 -0.6537
  207MOL0     C28435  11.524   5.966   8.754  0.6351  0.3791 -0.3293
  207MOL0     O28436  11.604   5.855   8.747 -1.0799 -0.9459 -0.5845
  207MOL0     C28437  11.745   5.868   8.770  0.1937 -0.1126 -0.9557
  207MOL0     C28438  11.811   5.730   8.771 -0.2822  0.0637 -1.0879
  207MOL0     C28439  11.791   5.649   8.908  0.0974  1.1716  0.6870
  207MOL0     C28440  11.868   5.508   8.900  0.5592  0.0849 -0.2581
  207MOL0     C28441  11.847   5.435   9.041  0.1131  0.3424 -0.2991
  207MOL0     C28442  11.929   5.301   9.042 -0.1692 -0.8871  0.1296
  207MOL0     C28443  11.880   5.208   8.936  0.7120 -0.2247 -0.0512
  207MOL0     C28444  11.883   5.066   8.979 -1.1705  0.6515  0.3705
  207MOL0     N28445  12.004   5.022   9.056  0.6727  0.2670  1.1246
  207MOL0     C28446  12.124   4.974   9.004 -0.1969 -1.0738  0.5358
  207MOL0     C28447  12.167   4.893   9.099 -0.2655 -0.0888 -0.7224
  207MOL0     C28448  12.289   4.810   9.095  0.7989  0.3642  0.9142
  207MOL0     C28449  12.422   4.880   9.081 -0.6687 -0.6471  0.4534
  207MOL0     C28450  12.466   4.922   9.219 -0.6834  0.4646 -0.8042
  207MOL0     C28451  12.594   5.006   9.209  0.1488  0.0216  0.0151
  207MOL0     O28452  12.709   4.943   9.151  0.3992  0.9094  1.1089
  207MOL0     C28453  12.765   4.845   9.224  0.4003 -0.2563  0.3825
  207MOL0     C28454  12.871   4.876   9.314 -0.1723 -0.0826  0.3302
  207MOL0     C28455  12.933   4.776   9.400 -0.3286  0.2376  0.9842
  207MOL0     C28456  13.064   4.824   9.463  0.4300  0.5543 -0.2057
  207MOL0     C28457  12.878   4.639   9.397 -0.3190  0.6855 -0.8186
  207MOL0     C28458  12.938   4.523   9.456  0.1549 -0.1710  0.2587
  207MOL0     O28459  12.874   4.403   9.457 -0.3184 -0.3860  0.5598
  207MOL0     C28460  12.930   4.271   9.475 -0.4156 -0.0701 -0.2634
  207MOL0     C28461  12.837   4.167   9.502 -0.0365 -0.8085  0.0882
  207MOL0     C28462  12.877   4.033   9.514 -0.5745  0.0831 -1.5115
  207MOL0     C28463  13.013   4.001   9.510 -0.2320 -0.4595  0.9655
  207MOL0     O28464  13.051   3.869   9.533  0.5017  0.0626 -0.3793
  207MOL0     C28465  13.060   3.784   9.417 -0.0166  0.1001  0.2509
  207MOL0     C28466  13.156   3.664   9.433  0.8631 -0.0901 -0.0120
  207MOL0     C28467  13.139   3.560   9.314  0.5829 -0.2384  0.4479
  207MOL0     C28468  13.219   3.439   9.340  1.0638  0.1334  0.8780
  207MOL0     C28469  13.202   3.332   9.235  0.6315  0.5988  0.9010
  207MOL0     C28470  13.059   3.272   9.236 -0.0527  0.1116 -0.2435
  207MOL0     C28471  13.048   3.133   9.161 -0.1502 -0.3105  1.1170
  207MOL0     C28472  13.108   3.137   9.021 -0.1626 -0.2853 -0.2916
  207MOL0    Cl28473  13.013   3.228   8.914 -0.5302 -0.1966 -0.3054
  207MOL0     C28474  13.117   4.100   9.488 -0.2078 -0.3700 -1.2219
  207MOL0     C28475  13.076   4.237   9.461 -0.1078  0.7087 -1.0839
  207MOL0     O28476  13.058   4.537   9.474 -0.4440  0.3025  0.7757
  207MOL0     C28477  12.754   4.624   9.320 -0.0644  0.3668  0.5914
  207MOL0     C28478  12.707   4.719   9.229 -0.1161  0.6269  0.4747
  207MOL0     N28479  12.095   4.910   9.220  0.7222  0.6270  0.3483
  207MOL0     N28480  12.004   4.997   9.190  0.4929 -0.1391  0.2047
  207MOL0     C28481  11.389   5.958   8.713 -0.6576  0.1773 -0.7338
  207MOL0     C28482  11.299   6.063   8.726 -0.7607 -0.7214  0.0728
  207MOL0     C28483  11.224   6.533   8.744  0.1387 -0.2248 -0.9954
  207MOL0     C28484  11.276   6.640   8.821 -0.2533 -0.3314  0.3105
  207MOL0     C28485  11.191   6.746   8.858  0.6530 -0.5812 -0.1496
  207MOL0     C28486  11.051   6.738   8.827  0.8581 -0.2465 -1.2454
  207MOL0     O28487  10.967   6.835   8.887  0.4359  0.9513  0.6103
  207MOL0     C28488  10.829   6.800   8.913 -0.5242 -0.5782  0.1223
  207MOL0     C28489  10.755   6.884   9.024 -0.1958 -0.2836 -0.6350
  207MOL0     C28490  10.855   6.912   9.138 -0.5359 -0.4776 -0.4113
  207MOL0     C28491  10.789   6.991   9.234  0.2896  0.3106 -0.1746
  207MOL0     C28492  10.888   7.069   9.308  0.0181 -0.6390  0.2552
  207MOL0     C28493  10.954   7.151   9.369  0.3339 -0.6768 -1.3447
  207MOL0     C28494  11.008   6.629   8.736  0.1478 -1.1017 -0.2746
  207MOL0     C28495  11.095   6.531   8.689  0.6053  0.6474 -0.4625
  207MOL0     C28496  11.054   6.427   8.589 -0.2264  0.2430 -0.9559
  207MOL0     H28497  11.524   6.284   8.861  0.4664 -1.4690  3.0121
  207MOL0     H28498  11.665   6.111   8.840  1.2761  2.3049 -1.7053
  207MOL0     H28499  11.753   5.921   8.866  0.2912 -1.7399 -0.0237
  207MOL0     H28500  11.793   5.919   8.687  0.2743  0.4591 -0.5622
  207MOL0     H28501  11.789   5.665   8.686  0.7237 -3.0185  0.8571
  207MOL0     H28502  11.920   5.731   8.762  0.3088 -5.0283  1.5229
  207MOL0     H28503  11.829   5.706   8.992 -0.5223  0.6256  1.3495
  207MOL0     H28504  11.685   5.639   8.931  0.6748 -1.7442  2.5739
  207MOL0     H28505  11.832   5.435   8.826 -0.2840 -0.8755  1.0343
  207MOL0     H28506  11.975   5.520   8.882  0.3128  2.9547 -0.2394
  207MOL0     H28507  11.741   5.407   9.047  0.5480 -1.1886  0.7138
  207MOL0     H28508  11.868   5.499   9.127 -5.6894 -1.1244  2.7592
  207MOL0     H28509  12.037   5.315   9.030  0.3874 -3.4273  1.5743
  207MOL0     H28510  11.919   5.262   9.143  1.7743  1.0819  1.1688
  207MOL0     H28511  11.936   5.232   8.846  0.4936 -1.7068 -0.6047
  207MOL0     H28512  11.780   5.242   8.906  1.0681  2.0311  1.1392
  207MOL0     H28513  11.791   5.035   9.030  0.1381 -2.5794  1.0225
  207MOL0     H28514  11.885   5.003   8.889  0.6728 -3.9473  3.2365
  207MOL0     H28515  12.175   4.999   8.912 -2.2067  1.3378 -0.0136
  207MOL0     H28516  12.295   4.747   9.006  1.2284 -2.1010  2.5953
  207MOL0     H28517  12.288   4.733   9.173 -1.6298  1.0078  1.6297
  207MOL0     H28518  12.488   4.806   9.035  1.2577  1.5634 -0.5548
  207MOL0     H28519  12.431   4.965   9.013  0.2579 -1.5515 -0.5951
  207MOL0     H28520  12.389   4.992   9.254 -0.4302 -0.0975  1.0149
  207MOL0     H28521  12.458   4.841   9.292 -1.9239  0.3382 -1.0638
  207MOL0     H28522  12.555   5.086   9.146  0.7109  1.3336  1.2925
  207MOL0     H28523  12.622   5.047   9.306 -2.2462  1.0463  0.3369
  207MOL0     H28524  12.896   4.981   9.310  0.6032 -0.1811  1.8287
  207MOL0     H28525  13.085   4.762   9.551 -1.5334  0.8119  0.4968
  207MOL0     H28526  13.055   4.930   9.489 -1.1725  0.0025  1.6875
  207MOL0     H28527  13.160   4.815   9.411  0.6538  1.3045  0.0620
  207MOL0     H28528  12.732   4.190   9.519  0.1049 -0.7311  0.9189
  207MOL0     H28529  12.808   3.953   9.539  0.7178  0.5074  5.7202
  207MOL0     H28530  12.959   3.742   9.413  0.0206 -0.0920  1.1737
  207MOL0     H28531  13.084   3.841   9.326 -1.5420  0.5133  0.0704
  207MOL0     H28532  13.259   3.695   9.448  0.5973  2.1102 -2.1245
  207MOL0     H28533  13.120   3.606   9.518 -0.4048 -1.4037 -1.3825
  207MOL0     H28534  13.193   3.611   9.234  0.2063 -1.0095 -0.3058
  207MOL0     H28535  13.036   3.531   9.291  0.4692 -2.0835  2.9005
  207MOL0     H28536  13.207   3.392   9.438 -0.1656 -2.6061 -0.4857
  207MOL0     H28537  13.323   3.473   9.342  2.4369 -3.2679 -1.7284
  207MOL0     H28538  13.232   3.363   9.135 -0.7305 -1.5916 -0.2663
  207MOL0     H28539  13.272   3.254   9.267  2.7037  2.1921  0.4610
  207MOL0     H28540  12.979   3.334   9.195 -1.1860 -1.0698  0.1239
  207MOL0     H28541  13.023   3.262   9.339  0.3452  4.5075  0.5549
  207MOL0     H28542  12.946   3.095   9.156 -0.2636  0.1224 -2.0758
  207MOL0     H28543  13.117   3.063   9.210  1.8762  0.6763 -0.1980
  207MOL0     H28544  13.101   3.034   8.985 -2.1773 -0.3103  0.0601
  207MOL0     H28545  13.209   3.180   9.016 -0.1457 -0.1399  1.1346
  207MOL0     H28546  13.223   4.075   9.489  0.0542  0.4802  1.8173
  207MOL0     H28547  13.148   4.313   9.431 -0.5702  1.3908 -0.4891
  207MOL0     H28548  12.713   4.527   9.293  0.1872  0.1124  1.1337
  207MOL0     H28549  12.621   4.697   9.166  0.3365  1.1117 -0.3355
  207MOL0     H28550  11.373   5.855   8.683 -0.1408 -0.4563  1.0484
  207MOL0     H28551  11.197   6.049   8.691 -1.2284  1.9065  0.2100
  207MOL0     H28552  11.377   6.644   8.862 -1.0925  0.8826  2.3880
  207MOL0     H28553  11.230   6.819   8.929 -0.6105  0.3173 -0.3469
  207MOL0     H28554  10.766   6.794   8.824 -0.6345  1.5149  0.0157
  207MOL0     H28555  10.830   6.703   8.963  1.2466 -1.0148 -0.6944
  207MOL0     H28556  10.675   6.829   9.073  0.6283 -1.3604 -0.4704
  207MOL0     H28557  10.715   6.982   8.994  1.4482  1.4006  2.2143
  207MOL0     H28558  10.878   6.816   9.185 -3.4603 -0.8541  0.4713
  207MOL0     H28559  10.943   6.963   9.099 -0.5037  1.5077  1.9982
  207MOL0     H28560  10.726   6.926   9.296  0.0741  2.4729  1.9931
  207MOL0     H28561  10.719   7.065   9.195 -1.3224  1.2960  4.0840
  207MOL0     H28562  11.016   7.202   9.439 -0.4028 -2.6783  0.8803
  207MOL0     H28563  10.910   6.634   8.690 -1.7142 -2.1634  3.2743
  207MOL0     H28564  10.966   6.454   8.530 -3.1441 -2.3705  1.7743
  207MOL0     H28565  11.134   6.409   8.517  0.7294  1.9502 -0.3961
  207MOL0     H28566  11.027   6.332   8.636 -1.0537 -0.2938 -2.4437
  208MOL0     O28567   2.779   3.130   7.582  0.3327 -0.1204  0.5669
  208MOL0     C28568   2.693   3.058   7.527 -0.2502  0.3150  1.4552
  208MOL0     O28569   2.564   3.041   7.574  0.2511  0.1536  0.6020
  208MOL0     C28570   2.519   3.141   7.655  0.4107 -0.7426  0.4461
  208MOL0     C28571   2.542   3.112   7.788  0.6532 -0.0612 -0.5470
  208MOL0     C28572   2.498   3.206   7.881  0.4846 -0.6799 -1.3211
  208MOL0     C28573   2.436   3.325   7.845 -0.2422 -0.6327  0.4393
  208MOL0     O28574   2.366   3.392   7.941  0.3776 -0.1316 -0.1366
  208MOL0     C28575   2.261   3.319   8.005  0.2951  0.6650 -0.0358
  208MOL0     C28576   2.157   3.418   8.053  0.4622  0.1459  0.1103
  208MOL0     C28577   2.019   3.368   8.122  1.3853 -0.1743  0.9427
  208MOL0     C28578   1.932   3.490   8.133  0.1884 -0.5307  0.0755
  208MOL0     C28579   1.823   3.478   8.247  0.3090  0.2097  0.2199
  208MOL0     C28580   1.765   3.613   8.284  1.1497  1.1929  0.4127
  208MOL0     C28581   1.622   3.614   8.348 -0.3540  0.1839 -1.0831
  208MOL0     C28582   1.627   3.583   8.500 -0.1954  0.0153 -0.7078
  208MOL0     N28583   1.494   3.549   8.534  1.0756  0.3014 -1.0923
  208MOL0     C28584   1.384   3.633   8.529 -0.2911  0.7102 -0.8130
  208MOL0     C28585   1.283   3.546   8.531 -0.5201 -0.7457  0.2811
  208MOL0     C28586   1.141   3.583   8.510  0.7763  0.1109  0.1806
  208MOL0     C28587   1.068   3.593   8.648 -0.3474 -0.8073 -0.4702
  208MOL0     C28588   0.940   3.669   8.637 -0.0007 -0.3297 -0.2932
  208MOL0     C28589   0.883   3.704   8.767 -0.2528 -0.1599 -1.1214
  208MOL0     O28590   0.772   3.791   8.752  0.3594  0.9957 -0.4555
  208MOL0     C28591   0.714   3.844   8.864 -1.8975  0.1718 -0.0793
  208MOL0     C28592   0.738   3.819   9.000 -0.1236 -0.8356 -0.1941
  208MOL0     C28593   0.678   3.902   9.095 -0.3910  0.0828  0.0271
  208MOL0     C28594   0.690   3.868   9.240 -0.5822  0.4960  0.3780
  208MOL0     C28595   0.578   4.000   9.059 -0.5110  0.5450  0.8102
  208MOL0     C28596   0.493   4.071   9.149  0.2474  0.2783 -0.5212
  208MOL0     O28597   0.506   4.206   9.136  0.3521  0.5463  0.5987
  208MOL0     C28598   0.403   4.281   9.190 -0.0426 -0.3469  0.7069
  208MOL0     C28599   0.434   4.405   9.238  0.6029 -0.1029 -0.7828
  208MOL0     C28600   0.344   4.500   9.273  0.6222  0.4628 -0.0273
  208MOL0     C28601   0.206   4.462   9.267 -0.3314  0.8214  0.2279
  208MOL0     O28602   0.097   4.546   9.304  0.3278 -0.5263 -0.3209
  208MOL0     C28603   0.125   4.685   9.313 -0.4668  0.1108 -0.8478
  208MOL0     C28604  -0.003   4.780   9.311  0.3191 -0.1182 -0.3281
  208MOL0     C28605   0.004   4.895   9.414  0.6745  0.0565  0.2814
  208MOL0     C28606  -0.103   4.998   9.388 -0.7003 -0.3997 -0.1543
  208MOL0     C28607  -0.067   5.090   9.270  1.0756  0.2869 -0.3571
  208MOL0     C28608  -0.198   5.156   9.217  0.2182  0.3561 -0.1325
  208MOL0     C28609  -0.168   5.257   9.100 -0.3418 -1.0879 -0.3034
  208MOL0     C28610  -0.286   5.352   9.073 -1.0620  0.1210 -0.5452
  208MOL0    Cl28611  -0.253   5.470   8.935 -0.2872  0.4249 -0.0305
  208MOL0     C28612   0.168   4.341   9.206 -1.2899  0.1794  0.0128
  208MOL0     C28613   0.270   4.248   9.168  0.6527  0.3271 -0.8833
  208MOL0     O28614   0.410   4.011   9.211  1.1299  0.0450  0.7012
  208MOL0     C28615   0.557   4.019   8.927 -0.5901 -0.2751 -0.2723
  208MOL0     C28616   0.619   3.945   8.834 -0.4483  0.5958  0.3152
  208MOL0     N28617   1.331   3.415   8.555  0.2582  0.2672  0.2625
  208MOL0     N28618   1.459   3.418   8.565  0.2168 -0.3757  0.0676
  208MOL0     C28619   2.425   3.359   7.712 -0.6444 -0.0147  0.0611
  208MOL0     C28620   2.458   3.264   7.612  0.6965 -0.3892  0.4058
  208MOL0     C28621   2.735   2.992   7.397 -0.5544  0.6089 -0.2112
  208MOL0     C28622   2.626   2.954   7.317  0.1863 -0.5170  0.2079
  208MOL0     C28623   2.653   2.901   7.181 -0.9637 -0.6642  0.8843
  208MOL0     C28624   2.786   2.885   7.144 -0.0544  0.2423  0.5713
  208MOL0     O28625   2.834   2.850   7.016 -0.0803  1.0818 -0.9379
  208MOL0     C28626   2.744   2.819   6.915 -0.7147 -0.8415  0.5616
  208MOL0     C28627   2.693   2.664   6.920  0.9459 -1.1080 -0.3983
  208MOL0     C28628   2.802   2.555   6.898 -0.6040  0.8777  0.5872
  208MOL0     C28629   2.910   2.552   7.010 -0.0539  0.3702  0.0248
  208MOL0     C28630   2.983   2.429   7.017 -0.0774 -0.5802  0.7600
  208MOL0     C28631   3.045   2.320   7.013 -0.8550 -0.4726  0.0177
  208MOL0     C28632   2.888   2.910   7.239  0.0528 -0.4253  0.1343
  208MOL0     C28633   2.862   2.954   7.362 -0.3389  0.4843 -0.2016
  208MOL0     C28634   2.980   2.977   7.453 -0.0960  0.7665  1.2124
  208MOL0     H28635   2.578   3.011   7.806 -4.8422 -2.6285 -1.8961
  208MOL0     H28636   2.536   3.179   7.979 -1.4954 -1.2437 -0.6620
  208MOL0     H28637   2.298   3.263   8.091 -0.9873  2.2144  1.6080
  208MOL0     H28638   2.201   3.254   7.941  0.1688  0.6657  0.0815
  208MOL0     H28639   2.213   3.475   8.127  0.6018  0.0158  0.1061
  208MOL0     H28640   2.134   3.482   7.967  1.7726  0.7116  0.1649
  208MOL0     H28641   1.959   3.301   8.060  2.5766  0.0920 -0.5704
  208MOL0     H28642   2.047   3.323   8.218  1.7852 -0.3072  0.7671
  208MOL0     H28643   1.989   3.582   8.144  1.5275 -1.0527 -1.8886
  208MOL0     H28644   1.888   3.508   8.035 -0.1546 -3.0217 -0.2854
  208MOL0     H28645   1.864   3.424   8.333 -0.8845 -0.0299  0.6709
  208MOL0     H28646   1.740   3.416   8.210 -1.9248  3.0554  0.1413
  208MOL0     H28647   1.841   3.655   8.351  0.8693 -1.4649  2.5966
  208MOL0     H28648   1.750   3.662   8.188 -0.0291 -0.7161 -0.4351
  208MOL0     H28649   1.547   3.545   8.307  2.2073 -1.5180 -3.2963
  208MOL0     H28650   1.582   3.716   8.344  2.8507  1.6267  0.5070
  208MOL0     H28651   1.703   3.512   8.535  0.9659  0.6691 -1.8309
  208MOL0     H28652   1.657   3.667   8.563  0.5873  1.1687 -2.5582
  208MOL0     H28653   1.389   3.740   8.518 -2.1715  1.2921  2.4446
  208MOL0     H28654   1.101   3.499   8.452 -2.4117  0.8289  1.1456
  208MOL0     H28655   1.136   3.678   8.456  0.9186  0.2877  0.4796
  208MOL0     H28656   1.049   3.491   8.682 -0.2502 -0.4118  0.8331
  208MOL0     H28657   1.142   3.646   8.709  1.8837 -1.8565 -2.1212
  208MOL0     H28658   0.971   3.760   8.584  2.3805 -1.1299 -0.3623
  208MOL0     H28659   0.860   3.623   8.578 -0.5149  2.0265 -1.5804
  208MOL0     H28660   0.836   3.615   8.810 -2.3223  2.2433  2.0519
  208MOL0     H28661   0.956   3.732   8.843 -2.9090  0.5711  1.3485
  208MOL0     H28662   0.820   3.760   9.038  2.2343  2.5607  0.4759
  208MOL0     H28663   0.779   3.806   9.257  2.0012  3.6780 -0.5992
  208MOL0     H28664   0.598   3.822   9.277 -1.4776 -0.2978 -2.5809
  208MOL0     H28665   0.712   3.960   9.296  1.4044  0.4236 -0.1906
  208MOL0     H28666   0.539   4.422   9.259 -0.1061  0.0219  3.6550
  208MOL0     H28667   0.363   4.596   9.319 -2.8711  0.1069  2.5612
  208MOL0     H28668   0.185   4.711   9.401 -2.0114  4.1560 -0.7445
  208MOL0     H28669   0.183   4.718   9.226 -1.4700  1.2116 -1.1280
  208MOL0     H28670  -0.016   4.819   9.210 -1.3755 -0.3285 -0.2133
  208MOL0     H28671  -0.095   4.723   9.325  0.9413 -1.2232 -0.5943
  208MOL0     H28672   0.105   4.936   9.412  0.7750 -0.2084 -1.1110
  208MOL0     H28673  -0.013   4.865   9.517 -1.5415 -1.9019 -0.5686
  208MOL0     H28674  -0.109   5.060   9.478  2.2872 -1.1062  0.6396
  208MOL0     H28675  -0.204   4.960   9.367 -0.5387  0.4450 -2.8808
  208MOL0     H28676   0.013   5.162   9.290  2.7603 -1.2450 -1.1794
  208MOL0     H28677  -0.017   5.027   9.195 -0.4480 -1.2260 -0.1624
  208MOL0     H28678  -0.248   5.201   9.303  0.0752 -0.3881  0.1828
  208MOL0     H28679  -0.262   5.075   9.183 -1.8370  0.8021  2.3884
  208MOL0     H28680  -0.136   5.196   9.015  1.2944 -1.2371  0.3821
  208MOL0     H28681  -0.078   5.316   9.122 -0.7875  0.3582 -2.1370
  208MOL0     H28682  -0.307   5.416   9.159  0.2963  0.3686 -0.3752
  208MOL0     H28683  -0.379   5.299   9.048 -0.3724  0.2544 -3.8182
  208MOL0     H28684   0.060   4.330   9.204 -1.2618 -0.1682  0.4284
  208MOL0     H28685   0.239   4.151   9.128 -1.2474  0.5551 -0.0958
  208MOL0     H28686   0.492   4.099   8.894  0.3032  0.0364 -1.3569
  208MOL0     H28687   0.596   3.963   8.729 -0.7825  0.6074  0.3923
  208MOL0     H28688   2.388   3.455   7.678 -1.0588 -0.8427 -1.9946
  208MOL0     H28689   2.445   3.278   7.505  1.9112 -2.5860 -0.0809
  208MOL0     H28690   2.523   2.967   7.349  0.2175 -0.4142  0.2669
  208MOL0     H28691   2.565   2.893   7.119 -2.0364 -0.4354  2.3154
  208MOL0     H28692   2.652   2.877   6.925 -0.2804  0.2068 -1.1162
  208MOL0     H28693   2.791   2.840   6.819  0.4373 -0.9870  1.0775
  208MOL0     H28694   2.627   2.647   6.834  0.8085  1.4245 -0.8763
  208MOL0     H28695   2.630   2.651   7.008 -0.3076  5.1502  0.1139
  208MOL0     H28696   2.757   2.456   6.889  2.4727 -0.4868 -1.3402
  208MOL0     H28697   2.847   2.563   6.799  2.5683  0.6035  1.8877
  208MOL0     H28698   2.858   2.586   7.100 -0.5306  2.0226 -0.8328
  208MOL0     H28699   2.984   2.627   6.980 -2.7372  2.6267 -1.5298
  208MOL0     H28700   3.107   2.233   7.020  1.3472  0.9195 -1.0437
  208MOL0     H28701   2.992   2.898   7.214 -0.2550 -0.4122 -1.2332
  208MOL0     H28702   2.953   2.938   7.552 -4.7347 -1.9578 -0.8014
  208MOL0     H28703   3.072   2.928   7.419 -0.6665  0.1408  0.5257
  208MOL0     H28704   2.998   3.084   7.444 -0.0680  0.5705 -2.4387
  209MOL0     O28705   3.468   2.821   0.939 -0.0005  0.0072  0.3242
  209MOL0     C28706   3.378   2.776   0.860  0.2612  0.2952  0.4847
  209MOL0     O28707   3.302   2.844   0.769 -0.4438 -0.3174  0.0613
  209MOL0     C28708   3.333   2.974   0.724 -0.8406  0.6792 -1.5008
  209MOL0     C28709   3.474   3.025   0.736  0.2264 -0.1578 -0.5409
  209MOL0     C28710   3.507   3.146   0.671 -0.1813  1.2607  0.3214
  209MOL0     C28711   3.410   3.226   0.612  0.6904  0.2832 -0.5617
  209MOL0     O28712   3.432   3.355   0.576  1.0668 -0.2869  0.1390
  209MOL0     C28713   3.550   3.397   0.504 -0.3862 -0.1701  0.5581
  209MOL0     C28714   3.519   3.536   0.444  1.1364  0.0306  0.2769
  209MOL0     C28715   3.512   3.651   0.545  0.4594 -0.0323  0.2100
  209MOL0     C28716   3.361   3.698   0.552  0.2645  0.2618 -0.4912
  209MOL0     C28717   3.347   3.818   0.649 -0.0599  0.5380 -0.2185
  209MOL0     C28718   3.198   3.869   0.656  0.2343 -0.5891  0.3169
  209MOL0     C28719   3.170   3.982   0.742 -0.7172  0.5493  0.0162
  209MOL0     C28720   3.256   4.107   0.709 -0.4553 -0.0081  0.3115
  209MOL0     N28721   3.386   4.116   0.787  0.1846  0.5094 -0.0515
  209MOL0     C28722   3.390   4.159   0.913  0.2792 -0.8962 -0.8330
  209MOL0     C28723   3.517   4.161   0.953  1.0544  0.4102  0.1090
  209MOL0     C28724   3.595   4.200   1.070  0.5702  0.3056 -0.4138
  209MOL0     C28725   3.704   4.295   1.047  0.4421 -0.3034  0.2110
  209MOL0     C28726   3.661   4.407   0.959  1.2032  0.0434  0.2221
  209MOL0     C28727   3.553   4.495   1.019 -0.6033 -0.0870 -0.6931
  209MOL0     O28728   3.414   4.458   1.013  0.4133  0.2309 -0.3005
  209MOL0     C28729   3.330   4.538   0.943 -0.1045 -0.2661 -0.5038
  209MOL0     C28730   3.336   4.540   0.807  0.9103  0.6011  0.8902
  209MOL0     C28731   3.259   4.630   0.738 -0.2658 -0.3032  0.1017
  209MOL0     C28732   3.286   4.640   0.583  1.2051 -0.7317  0.3941
  209MOL0     C28733   3.168   4.715   0.807 -0.6100  0.3562 -2.0826
  209MOL0     C28734   3.048   4.789   0.750 -0.4335  0.9648  0.1807
  209MOL0     O28735   2.936   4.796   0.830  0.0768 -0.6311  0.0188
  209MOL0     C28736   2.827   4.859   0.767 -0.0966 -0.1750 -0.1845
  209MOL0     C28737   2.702   4.798   0.762  0.4218  0.3688  0.2399
  209MOL0     C28738   2.590   4.871   0.726  0.5957 -0.7239  0.3613
  209MOL0     C28739   2.603   5.010   0.704  0.4570 -0.9567 -0.5678
  209MOL0     O28740   2.492   5.090   0.679  0.2697 -0.0487 -0.5825
  209MOL0     C28741   2.480   5.185   0.578 -0.1171  0.1914  0.4174
  209MOL0     C28742   2.353   5.162   0.497  0.4073  0.9653 -0.2823
  209MOL0     C28743   2.215   5.163   0.574  0.6350 -0.4859 -0.2843
  209MOL0     C28744   2.099   5.159   0.476  0.1988 -0.9546 -0.6663
  209MOL0     C28745   1.961   5.154   0.530  0.2425  0.3041 -0.5898
  209MOL0     C28746   1.845   5.182   0.431  0.0138 -0.6340 -0.1155
  209MOL0     C28747   1.854   5.099   0.304 -0.6681 -0.0220  0.4694
  209MOL0     C28748   1.735   5.135   0.213  0.6614 -0.5681  0.2027
  209MOL0    Cl28749   1.738   5.316   0.171 -0.2883  0.0003  0.1399
  209MOL0     C28750   2.728   5.074   0.703 -1.0642  1.1378 -0.2210
  209MOL0     C28751   2.844   4.993   0.739  0.2587  0.3280  0.7212
  209MOL0     O28752   3.065   4.836   0.640  0.4238  0.0900  1.0827
  209MOL0     C28753   3.165   4.714   0.947  0.4181  0.6410 -0.2515
  209MOL0     C28754   3.250   4.623   1.007  0.0221  0.3410  0.7774
  209MOL0     N28755   3.591   4.103   0.848 -0.1748  0.1565 -1.2501
  209MOL0     N28756   3.515   4.079   0.756  0.2660 -0.1718  0.8584
  209MOL0     C28757   3.278   3.185   0.608  0.1430  0.1946 -0.7353
  209MOL0     C28758   3.237   3.056   0.664  0.2713 -0.8811  0.1308
  209MOL0     C28759   3.340   2.628   0.883 -0.7514  0.4359  0.9328
  209MOL0     C28760   3.452   2.537   0.890  0.0154 -0.0286 -0.3211
  209MOL0     C28761   3.424   2.396   0.907 -0.1769 -0.2819  0.2042
  209MOL0     C28762   3.299   2.350   0.935 -0.0559 -0.5964 -0.1038
  209MOL0     O28763   3.290   2.214   0.971  0.9711  0.1567  0.1162
  209MOL0     C28764   3.158   2.162   0.999 -1.0658 -0.6822 -0.4540
  209MOL0     C28765   3.190   2.042   1.093 -0.2102 -0.0914 -0.0795
  209MOL0     C28766   3.065   1.988   1.164 -0.5346 -0.1218  0.8913
  209MOL0     C28767   3.086   1.868   1.243  0.0764 -0.1010  0.4179
  209MOL0     C28768   3.160   1.766   1.165  0.0985 -0.8552 -1.1402
  209MOL0     C28769   3.235   1.679   1.128  0.6062 -0.9662  0.4708
  209MOL0     C28770   3.196   2.443   0.922 -0.1308 -0.2835  0.0463
  209MOL0     C28771   3.214   2.584   0.907  1.4205 -0.2077  0.0876
  209MOL0     C28772   3.102   2.683   0.939  0.4811  0.2888 -0.8711
  209MOL0     H28773   3.551   2.971   0.791 -2.6286 -4.2892 -0.1193
  209MOL0     H28774   3.611   3.176   0.678  0.7266 -1.4752  0.0449
  209MOL0     H28775   3.588   3.328   0.429 -1.9216 -1.2963  0.7740
  209MOL0     H28776   3.632   3.405   0.576  1.0922 -4.7024 -0.3286
  209MOL0     H28777   3.584   3.567   0.361 -0.6187 -0.0678 -1.1823
  209MOL0     H28778   3.423   3.521   0.395 -0.0964  0.6447  2.3870
  209MOL0     H28779   3.548   3.628   0.646  4.4171  2.2990 -0.4780
  209MOL0     H28780   3.578   3.728   0.505 -2.0671  0.8755 -2.6069
  209MOL0     H28781   3.321   3.725   0.454 -3.2863 -1.2180  0.4213
  209MOL0     H28782   3.310   3.607   0.584 -0.5257 -0.2562 -2.9852
  209MOL0     H28783   3.415   3.901   0.624  2.0560 -0.1810  2.5861
  209MOL0     H28784   3.367   3.787   0.752 -1.6529  3.0568  0.9606
  209MOL0     H28785   3.176   3.897   0.553 -2.0584 -1.1681  0.6024
  209MOL0     H28786   3.135   3.786   0.687 -0.2690  0.6970  3.0379
  209MOL0     H28787   3.176   3.947   0.845 -1.0689  0.2621 -0.0579
  209MOL0     H28788   3.069   4.006   0.706  0.7782  1.8449 -3.7871
  209MOL0     H28789   3.290   4.111   0.605 -0.9180  1.4712  0.1919
  209MOL0     H28790   3.195   4.193   0.737  1.8450  1.4438  1.1274
  209MOL0     H28791   3.305   4.200   0.967  1.1750 -1.1253  0.8194
  209MOL0     H28792   3.638   4.111   1.117 -1.2606 -0.4632 -0.0778
  209MOL0     H28793   3.530   4.227   1.154  1.2747 -1.5400  0.8066
  209MOL0     H28794   3.746   4.333   1.141 -0.4605 -1.5386  1.1499
  209MOL0     H28795   3.793   4.244   1.009 -0.2792 -3.0426  1.9104
  209MOL0     H28796   3.736   4.485   0.943 -0.6555  2.0812  0.8540
  209MOL0     H28797   3.628   4.380   0.858 -0.8697  1.1992  0.5211
  209MOL0     H28798   3.583   4.511   1.123 -0.4176 -0.3597 -0.7023
  209MOL0     H28799   3.573   4.593   0.975 -0.2184 -0.1041 -0.5627
  209MOL0     H28800   3.395   4.471   0.747 -1.0452 -0.4100  0.0280
  209MOL0     H28801   3.341   4.550   0.553 -1.4592 -1.7517 -1.8979
  209MOL0     H28802   3.352   4.725   0.563 -2.1915  2.3546  1.2436
  209MOL0     H28803   3.191   4.660   0.532  1.3783  1.0479  0.6829
  209MOL0     H28804   2.678   4.698   0.796  1.3069 -1.3800 -3.6365
  209MOL0     H28805   2.493   4.823   0.712  0.1364 -0.0475  1.1420
  209MOL0     H28806   2.471   5.289   0.612  1.0670  0.9084 -1.2924
  209MOL0     H28807   2.569   5.201   0.516 -0.9883  0.3288 -0.8429
  209MOL0     H28808   2.336   5.236   0.418 -0.3881  0.8167 -0.2564
  209MOL0     H28809   2.359   5.069   0.440  1.8681  0.1163  1.1753
  209MOL0     H28810   2.207   5.247   0.644  2.3913  0.0627 -0.6800
  209MOL0     H28811   2.208   5.071   0.633  1.5928 -1.2723 -1.3482
  209MOL0     H28812   2.129   5.078   0.409 -0.5728 -0.1209 -2.0982
  209MOL0     H28813   2.117   5.253   0.422  2.1081 -0.4911  0.6729
  209MOL0     H28814   1.946   5.052   0.566 -4.1067  0.4359 -1.4471
  209MOL0     H28815   1.951   5.220   0.616 -2.7443 -0.0981 -0.5202
  209MOL0     H28816   1.849   5.287   0.401 -1.4300 -0.2693  0.8408
  209MOL0     H28817   1.750   5.157   0.481 -1.0511  2.1624 -0.5561
  209MOL0     H28818   1.865   4.995   0.337 -0.0798 -0.2596 -0.4377
  209MOL0     H28819   1.948   5.115   0.251 -1.8907  1.9548 -1.2356
  209MOL0     H28820   1.645   5.101   0.265  0.3499 -1.5611 -0.9610
  209MOL0     H28821   1.747   5.079   0.120  0.6633  1.3110 -0.9828
  209MOL0     H28822   2.740   5.182   0.692 -0.7837  1.0304 -1.0149
  209MOL0     H28823   2.945   5.034   0.742  0.3634  0.4086 -1.8682
  209MOL0     H28824   3.102   4.774   1.012  1.1888 -0.8801  2.0196
  209MOL0     H28825   3.241   4.619   1.115  1.2543  0.7600  0.9146
  209MOL0     H28826   3.199   3.258   0.593 -0.5843 -0.5258 -0.4940
  209MOL0     H28827   3.130   3.043   0.667 -0.6355  4.0816 -1.1203
  209MOL0     H28828   3.556   2.567   0.883 -0.2369  1.3911  1.2428
  209MOL0     H28829   3.502   2.320   0.912  0.1244 -0.1617 -1.8606
  209MOL0     H28830   3.106   2.237   1.061  1.2636  4.4569 -4.0119
  209MOL0     H28831   3.106   2.151   0.904 -0.2834  1.3418 -1.1512
  209MOL0     H28832   3.264   2.072   1.169 -0.4365 -1.1011  0.5548
  209MOL0     H28833   3.239   1.965   1.034 -0.0400  0.7187 -1.0228
  209MOL0     H28834   3.033   2.068   1.231  1.2418 -0.2545  1.9481
  209MOL0     H28835   2.993   1.947   1.092 -0.2057  0.2946  0.3295
  209MOL0     H28836   2.989   1.822   1.265 -0.7527  2.0168  1.4861
  209MOL0     H28837   3.143   1.891   1.334 -1.7871  1.0029  1.3768
  209MOL0     H28838   3.310   1.607   1.101  3.1190  1.8244 -0.5149
  209MOL0     H28839   3.090   2.421   0.935 -1.2263  4.8985  2.4566
  209MOL0     H28840   3.151   2.752   1.008  1.9542  0.4235 -2.0050
  209MOL0     H28841   3.069   2.735   0.849  0.1088 -3.0251 -2.8003
  209MOL0     H28842   3.014   2.637   0.985  1.8882  0.2985  2.0323
  210MOL0     O28843   4.028   8.184   4.345  0.3434  0.0909 -0.4503
  210MOL0     C28844   4.017   8.064   4.382 -0.5560  0.5534 -0.1408
  210MOL0     O28845   3.921   7.979   4.340 -0.5700  0.4565  0.4005
  210MOL0     C28846   3.800   8.034   4.289 -0.6904  0.2094 -0.4601
  210MOL0     C28847   3.681   8.045   4.367 -1.1758  0.6042 -0.6079
  210MOL0     C28848   3.564   8.102   4.316 -0.2795 -0.6784 -0.3356
  210MOL0     C28849   3.563   8.159   4.191  0.4755 -0.0828 -0.1505
  210MOL0     O28850   3.449   8.227   4.142  0.2742  0.9609 -0.1522
  210MOL0     C28851   3.373   8.312   4.231  0.3914  0.1511  0.2500
  210MOL0     C28852   3.260   8.387   4.156  0.8143  0.6166  1.2755
  210MOL0     C28853   3.174   8.483   4.235 -0.0101 -0.8021  0.4596
  210MOL0     C28854   3.076   8.418   4.329  0.0041  0.2604  0.0295
  210MOL0     C28855   2.963   8.511   4.385 -0.2752 -0.7087 -0.8910
  210MOL0     C28856   2.865   8.433   4.472  0.0878  0.6004  0.5377
  210MOL0     C28857   2.911   8.406   4.616  0.5085  0.0738  0.2405
  210MOL0     C28858   2.809   8.315   4.688 -0.1685 -0.7101  0.5456
  210MOL0     N28859   2.679   8.378   4.671  0.0072  0.0269  0.7801
  210MOL0     C28860   2.597   8.458   4.755 -0.9009  0.0833  0.1545
  210MOL0     C28861   2.467   8.458   4.699  0.6047 -0.1284 -0.0082
  210MOL0     C28862   2.340   8.528   4.757 -0.7744  0.1477 -0.0009
  210MOL0     C28863   2.228   8.441   4.808 -0.0162  0.1662 -0.8794
  210MOL0     C28864   2.253   8.389   4.959 -0.3296  0.4167  0.4740
  210MOL0     C28865   2.139   8.291   4.991  0.6129  0.1490  0.6189
  210MOL0     O28866   2.146   8.258   5.126 -0.0318  0.5497  0.9064
  210MOL0     C28867   2.087   8.136   5.161 -0.4569  0.3803  0.2493
  210MOL0     C28868   2.136   8.088   5.281 -1.0227  0.1339  0.0645
  210MOL0     C28869   2.087   7.966   5.331 -0.6940  0.3319 -0.7591
  210MOL0     C28870   2.154   7.930   5.463  0.5449 -0.7672  0.8959
  210MOL0     C28871   1.978   7.899   5.269 -0.0714 -0.0877  0.1686
  210MOL0     C28872   1.905   7.778   5.330 -0.8560  1.6254 -0.2350
  210MOL0     O28873   1.830   7.697   5.253  0.1290  0.9500  0.3857
  210MOL0     C28874   1.730   7.611   5.296  0.0050 -0.1788  0.7011
  210MOL0     C28875   1.688   7.513   5.206  1.4333 -0.5286 -0.3442
  210MOL0     C28876   1.571   7.430   5.230 -0.6730 -0.1288 -0.1120
  210MOL0     C28877   1.523   7.436   5.358 -0.4071 -0.4805 -0.8841
  210MOL0     O28878   1.428   7.346   5.394  0.7247  0.4488  0.3765
  210MOL0     C28879   1.426   7.290   5.529 -0.4080 -0.3975 -0.3033
  210MOL0     C28880   1.395   7.136   5.521 -0.3983  0.9563  0.2431
  210MOL0     C28881   1.530   7.063   5.529 -0.2338 -0.2470  0.0475
  210MOL0     C28882   1.532   6.932   5.442 -0.2364 -0.2334 -0.1568
  210MOL0     C28883   1.457   6.815   5.508 -0.2509  0.1225  1.6008
  210MOL0     C28884   1.520   6.680   5.458  0.2274  0.1860  0.2650
  210MOL0     C28885   1.480   6.548   5.520 -0.1486 -0.1424 -0.6005
  210MOL0     C28886   1.322   6.555   5.511 -0.2817  0.5717 -0.4031
  210MOL0    Cl28887   1.237   6.396   5.530 -0.4231 -0.3558  0.2686
  210MOL0     C28888   1.579   7.529   5.453 -0.1940 -0.8628  0.7080
  210MOL0     C28889   1.683   7.615   5.427  0.2154 -0.3095  0.4138
  210MOL0     O28890   1.937   7.755   5.449  1.4394 -1.0433 -0.1957
  210MOL0     C28891   1.930   7.959   5.152 -0.0533 -0.5518  0.2736
  210MOL0     C28892   1.982   8.077   5.093  1.2441 -0.0301 -0.9399
  210MOL0     N28893   2.471   8.387   4.575  0.0453 -0.7288 -0.6459
  210MOL0     N28894   2.590   8.344   4.572 -0.1318 -0.1842  0.1951
  210MOL0     C28895   3.673   8.137   4.112  0.3019  0.4284  0.2029
  210MOL0     C28896   3.787   8.072   4.157 -0.1551  0.5556  0.8412
  210MOL0     C28897   4.115   8.020   4.490  0.7455  0.1557  1.1892
  210MOL0     C28898   4.241   8.081   4.498 -0.9330  0.2624 -0.0992
  210MOL0     C28899   4.334   8.045   4.598 -0.6487  0.4926  0.5779
  210MOL0     C28900   4.291   7.950   4.693  0.7613 -0.3279  0.2793
  210MOL0     O28901   4.383   7.897   4.782 -0.1936  0.8971 -0.6083
  210MOL0     C28902   4.381   7.947   4.913  0.3549 -0.3584 -0.0254
  210MOL0     C28903   4.430   7.861   5.023  0.1120 -1.2173 -0.2222
  210MOL0     C28904   4.569   7.799   4.990  0.5321 -0.2037  0.1752
  210MOL0     C28905   4.600   7.710   5.100  0.5045  0.1898  0.8842
  210MOL0     C28906   4.731   7.650   5.073  0.1610  0.0356 -0.2139
  210MOL0     C28907   4.840   7.599   5.066  0.4750 -0.5654 -0.0045
  210MOL0     C28908   4.165   7.896   4.686  0.8744 -0.2384 -0.3255
  210MOL0     C28909   4.075   7.927   4.587 -0.7409 -1.3541 -0.4498
  210MOL0     C28910   3.939   7.870   4.606 -0.5502  0.4973 -0.8890
  210MOL0     H28911   3.684   8.014   4.471 -0.0994 -2.1672 -1.3812
  210MOL0     H28912   3.483   8.118   4.387  1.1128  2.7319  0.6850
  210MOL0     H28913   3.436   8.393   4.267  1.5916 -0.7628  0.2532
  210MOL0     H28914   3.335   8.265   4.322  1.4937  0.3271  0.8157
  210MOL0     H28915   3.290   8.434   4.061 -4.1329 -0.8155 -1.3616
  210MOL0     H28916   3.188   8.309   4.129 -1.3014  1.3901  4.2073
  210MOL0     H28917   3.242   8.552   4.286 -0.4433 -0.5638  0.7161
  210MOL0     H28918   3.120   8.536   4.157  4.1874  0.6765 -1.7584
  210MOL0     H28919   3.027   8.331   4.285  2.5513 -2.4037  2.1151
  210MOL0     H28920   3.117   8.359   4.411 -1.3435 -2.3626 -1.0556
  210MOL0     H28921   2.914   8.556   4.298 -0.5096  2.5849  0.7974
  210MOL0     H28922   3.006   8.594   4.441 -1.6096  0.2968 -1.2908
  210MOL0     H28923   2.784   8.505   4.480 -1.3957 -1.1357  1.6862
  210MOL0     H28924   2.828   8.348   4.414  0.3875  1.7675 -1.4734
  210MOL0     H28925   2.928   8.500   4.668  2.3814 -0.0515 -0.0697
  210MOL0     H28926   3.008   8.357   4.605  1.2386  1.2835  1.0927
  210MOL0     H28927   2.806   8.213   4.646 -0.0477 -0.6110  0.2943
  210MOL0     H28928   2.829   8.314   4.795 -2.1381 -0.8178  0.9495
  210MOL0     H28929   2.640   8.527   4.828  2.4462  1.1828 -2.5998
  210MOL0     H28930   2.308   8.588   4.671  0.1743 -4.0948 -3.6916
  210MOL0     H28931   2.374   8.595   4.836 -1.7372 -0.0107  0.5677
  210MOL0     H28932   2.133   8.494   4.804 -0.2049  0.4501  3.3178
  210MOL0     H28933   2.211   8.354   4.744 -0.2808 -1.9425  1.8670
  210MOL0     H28934   2.350   8.339   4.971  0.2283  1.0547 -1.0361
  210MOL0     H28935   2.258   8.476   5.026  3.8124  1.2893 -0.6324
  210MOL0     H28936   2.035   8.326   4.983 -0.7783 -2.9079  3.0360
  210MOL0     H28937   2.147   8.203   4.925 -3.0009  0.2821 -0.2199
  210MOL0     H28938   2.216   8.143   5.329 -1.0772 -0.0402  0.3595
  210MOL0     H28939   2.253   7.977   5.461 -0.7262  2.0906  0.3399
  210MOL0     H28940   2.170   7.822   5.459  2.3158 -0.5031 -0.7031
  210MOL0     H28941   2.087   7.958   5.545 -0.6146 -2.3498  0.5401
  210MOL0     H28942   1.751   7.483   5.123  0.3928 -1.6893 -0.7399
  210MOL0     H28943   1.543   7.348   5.165  0.0707 -0.3607 -0.1416
  210MOL0     H28944   1.518   7.310   5.585 -0.7485  0.1245  0.0867
  210MOL0     H28945   1.339   7.336   5.577 -0.2275 -0.2523 -0.1130
  210MOL0     H28946   1.351   7.103   5.616 -0.9957 -1.8707 -0.9480
  210MOL0     H28947   1.344   7.098   5.432  0.4541 -3.2939  1.3422
  210MOL0     H28948   1.549   7.053   5.637 -1.4383  1.5879  0.4788
  210MOL0     H28949   1.605   7.127   5.482 -0.9450 -0.6041 -1.6588
  210MOL0     H28950   1.639   6.924   5.421  0.0772  2.0978  0.2702
  210MOL0     H28951   1.479   6.939   5.347 -0.3761 -0.4790 -0.0968
  210MOL0     H28952   1.475   6.813   5.616 -2.3095 -0.6938  1.9668
  210MOL0     H28953   1.351   6.818   5.481  0.2566 -2.0105 -1.1053
  210MOL0     H28954   1.628   6.698   5.464  0.2803  0.1217 -0.4210
  210MOL0     H28955   1.482   6.684   5.356 -2.6403  1.4303  1.2965
  210MOL0     H28956   1.516   6.531   5.621 -0.1845 -3.0974 -1.0014
  210MOL0     H28957   1.516   6.466   5.457 -1.3658 -2.5691  1.6941
  210MOL0     H28958   1.290   6.581   5.410  0.1250  3.2551  0.0639
  210MOL0     H28959   1.287   6.636   5.577 -1.4991  3.8280 -4.6212
  210MOL0     H28960   1.526   7.538   5.548  0.5902  1.1914  1.0243
  210MOL0     H28961   1.725   7.672   5.510  1.7265 -1.5802  0.5775
  210MOL0     H28962   1.843   7.919   5.101  1.3237  0.7341 -3.4222
  210MOL0     H28963   1.921   8.121   5.015 -1.2039 -0.2538  0.7348
  210MOL0     H28964   3.675   8.177   4.011 -0.1790  2.0508  0.8169
  210MOL0     H28965   3.866   8.061   4.083 -1.1957  0.6168 -0.3200
  210MOL0     H28966   4.278   8.157   4.430 -1.6812 -2.6374 -4.1172
  210MOL0     H28967   4.435   8.082   4.583 -0.6599 -0.0525 -1.0344
  210MOL0     H28968   4.455   8.028   4.918  2.1886 -2.0026  0.3921
  210MOL0     H28969   4.278   7.982   4.929 -0.9823 -3.6871 -0.5843
  210MOL0     H28970   4.373   7.768   5.022 -1.2953 -0.4314 -3.0863
  210MOL0     H28971   4.434   7.923   5.114  1.7260  3.8985 -3.3738
  210MOL0     H28972   4.560   7.751   4.892 -0.5373  1.5724 -0.6388
  210MOL0     H28973   4.646   7.876   4.987  2.5991 -2.0694  1.4893
  210MOL0     H28974   4.518   7.638   5.110  0.0841  0.6652  0.8905
  210MOL0     H28975   4.595   7.762   5.197 -1.3508  2.4725 -0.3300
  210MOL0     H28976   4.930   7.542   5.077  0.2595 -0.5752  2.0838
  210MOL0     H28977   4.149   7.827   4.768  1.5210 -2.1949 -1.7445
  210MOL0     H28978   3.853   7.937   4.593 -1.4709 -0.6185 -0.7955
  210MOL0     H28979   3.921   7.786   4.537 -1.0892 -1.7080  1.7742
  210MOL0     H28980   3.929   7.834   4.709 -0.2701  4.4264  0.6576
  211MOL0     O28981   0.024   5.313   2.147 -0.1082 -0.8283 -0.6102
  211MOL0     C28982  -0.061   5.286   2.057 -0.5837  0.0536 -0.0754
  211MOL0     O28983  -0.040   5.215   1.944  0.4888 -0.0289 -0.7601
  211MOL0     C28984   0.077   5.150   1.931 -0.7848  0.1749  0.9516
  211MOL0     C28985   0.114   5.057   2.024 -0.2122 -0.0156 -0.0875
  211MOL0     C28986   0.236   4.990   2.026 -0.4801 -0.3457  0.4163
  211MOL0     C28987   0.320   5.003   1.909  0.6784  1.2757  0.1710
  211MOL0     O28988   0.427   4.927   1.886  0.4262 -0.0517 -0.8154
  211MOL0     C28989   0.487   4.851   1.989 -0.6009 -0.1213 -0.6710
  211MOL0     C28990   0.576   4.730   1.935 -0.7224  0.3876 -0.4237
  211MOL0     C28991   0.735   4.766   1.940  0.5949  0.1717 -0.9752
  211MOL0     C28992   0.790   4.736   2.083  0.3967 -0.0636  0.0008
  211MOL0     C28993   0.940   4.772   2.104 -0.4676  0.6118  0.1560
  211MOL0     C28994   1.034   4.708   2.002 -0.8378  0.7403 -0.7385
  211MOL0     C28995   1.179   4.755   2.042  0.1038  0.0898 -0.2983
  211MOL0     C28996   1.286   4.689   1.955 -0.1359 -0.4285  0.3516
  211MOL0     N28997   1.426   4.727   1.997  0.4812 -0.6360  0.2032
  211MOL0     C28998   1.519   4.634   2.039  0.6637 -0.8474 -0.0839
  211MOL0     C28999   1.632   4.709   2.050 -0.3176 -0.2484  1.0081
  211MOL0     C29000   1.757   4.663   2.122  0.0065 -0.3678 -0.7338
  211MOL0     C29001   1.745   4.671   2.272  0.2030 -0.8867 -0.3514
  211MOL0     C29002   1.888   4.664   2.339  0.9819 -0.1174 -0.3006
  211MOL0     C29003   1.960   4.547   2.295  0.7716  0.4780  0.0969
  211MOL0     O29004   2.078   4.587   2.223  0.5136 -0.1652 -0.3348
  211MOL0     C29005   2.111   4.522   2.108  1.0538  0.5502 -0.1945
  211MOL0     C29006   2.076   4.391   2.076 -0.1723  0.1680 -0.2084
  211MOL0     C29007   2.127   4.321   1.963 -0.9108 -0.5271  0.0086
  211MOL0     C29008   2.068   4.182   1.930  0.4040 -0.5318 -0.2777
  211MOL0     C29009   2.223   4.382   1.873  0.3477 -0.1522 -0.4310
  211MOL0     C29010   2.291   4.313   1.770  0.0250  0.3597  0.2325
  211MOL0     O29011   2.355   4.393   1.671 -0.6970 -0.1698  0.2699
  211MOL0     C29012   2.413   4.335   1.561 -0.5790 -0.3097  0.2135
  211MOL0     C29013   2.547   4.368   1.526  0.1881  0.5144 -0.2042
  211MOL0     C29014   2.607   4.313   1.410  0.1919  0.0697 -0.5466
  211MOL0     C29015   2.540   4.228   1.326  0.4955 -0.8933  0.5480
  211MOL0     O29016   2.612   4.180   1.219 -0.2593 -0.2806  0.1266
  211MOL0     C29017   2.565   4.179   1.083  0.2160  0.7091  0.1134
  211MOL0     C29018   2.504   4.316   1.045  0.5678  1.7494  0.1286
  211MOL0     C29019   2.504   4.342   0.896  0.6193 -0.9966 -0.0482
  211MOL0     C29020   2.380   4.290   0.835 -0.6496 -0.6410  0.8397
  211MOL0     C29021   2.398   4.265   0.676 -0.2319  0.6475 -0.8934
  211MOL0     C29022   2.281   4.187   0.619  0.6891  0.0734 -0.3344
  211MOL0     C29023   2.277   4.170   0.466  0.4389  0.2034 -0.1116
  211MOL0     C29024   2.385   4.090   0.404 -0.4775  0.1888  0.2726
  211MOL0    Cl29025   2.383   3.913   0.413  0.3297  0.3466 -0.2370
  211MOL0     C29026   2.411   4.190   1.368 -0.7766  0.0660 -0.3799
  211MOL0     C29027   2.349   4.242   1.482  0.4108 -0.3229 -0.9431
  211MOL0     O29028   2.295   4.192   1.763 -0.2345  0.3900  0.1630
  211MOL0     C29029   2.250   4.515   1.906 -0.4096 -0.0063 -0.8021
  211MOL0     C29030   2.199   4.581   2.022 -0.3625  0.1177  0.7707
  211MOL0     N29031   1.603   4.840   2.003  0.6344 -0.0905  0.1083
  211MOL0     N29032   1.477   4.846   1.957 -0.9994 -0.6067 -0.8627
  211MOL0     C29033   0.281   5.083   1.808 -0.1091  0.4824 -0.1744
  211MOL0     C29034   0.169   5.162   1.815  0.8088  0.3941 -0.8962
  211MOL0     C29035  -0.192   5.359   2.052  0.0998 -0.4611 -0.1440
  211MOL0     C29036  -0.215   5.420   1.930 -0.2166 -0.3732 -0.3218
  211MOL0     C29037  -0.328   5.489   1.898 -0.0003  0.0521 -0.6077
  211MOL0     C29038  -0.428   5.507   1.999 -0.8287 -0.6413  0.1634
  211MOL0     O29039  -0.546   5.577   1.967 -0.0242  0.5563 -0.1159
  211MOL0     C29040  -0.548   5.715   1.985 -0.7649 -0.3064 -1.0023
  211MOL0     C29041  -0.668   5.761   2.072  0.3536  0.0199 -0.8883
  211MOL0     C29042  -0.667   5.907   2.105  0.8796  0.1967 -0.3259
  211MOL0     C29043  -0.646   6.010   1.993 -0.5260  0.1236  0.7569
  211MOL0     C29044  -0.715   6.127   2.044 -0.8214 -0.9797 -1.1813
  211MOL0     C29045  -0.766   6.227   2.086  0.3344  0.5902 -0.3081
  211MOL0     C29046  -0.398   5.460   2.129 -0.7391 -0.0770 -1.1371
  211MOL0     C29047  -0.277   5.392   2.158  0.7453  0.0109 -0.1290
  211MOL0     C29048  -0.257   5.336   2.301 -0.2313  0.2758 -0.6372
  211MOL0     H29049   0.062   5.049   2.120 -0.4905 -2.4170 -0.3636
  211MOL0     H29050   0.268   4.933   2.112  2.3528  0.0147 -0.2783
  211MOL0     H29051   0.406   4.805   2.047 -0.5773 -0.0646 -0.5940
  211MOL0     H29052   0.543   4.913   2.059  0.1583  1.3085 -2.4601
  211MOL0     H29053   0.557   4.641   1.996  2.2323 -1.4185 -1.9307
  211MOL0     H29054   0.549   4.713   1.830  1.2086 -0.0782 -0.8728
  211MOL0     H29055   0.789   4.705   1.868  1.2515 -1.6723  0.9545
  211MOL0     H29056   0.754   4.871   1.915 -2.8615  0.4552 -3.0040
  211MOL0     H29057   0.736   4.800   2.154 -0.6822 -1.7398  0.7476
  211MOL0     H29058   0.767   4.634   2.113  0.0752  0.2049  0.6997
  211MOL0     H29059   0.977   4.741   2.202  2.2661 -1.8728 -1.4743
  211MOL0     H29060   0.943   4.881   2.106  1.8397  0.6419 -1.0194
  211MOL0     H29061   1.019   4.601   2.020  2.1919  0.0541 -1.7454
  211MOL0     H29062   1.008   4.737   1.900  2.8470  1.0970 -1.7081
  211MOL0     H29063   1.211   4.740   2.146 -1.3204  1.3968  0.3640
  211MOL0     H29064   1.172   4.864   2.047 -4.0058  0.0342 -1.3086
  211MOL0     H29065   1.259   4.583   1.959 -2.0843  0.0680  2.0947
  211MOL0     H29066   1.264   4.726   1.854 -0.0765  0.6620  0.7250
  211MOL0     H29067   1.523   4.531   2.073  2.1127 -0.3189  1.5069
  211MOL0     H29068   1.839   4.718   2.074 -1.9770  0.2941 -3.6559
  211MOL0     H29069   1.751   4.562   2.082 -1.9770 -0.4889 -0.2248
  211MOL0     H29070   1.702   4.765   2.308 -1.4329 -1.9950  0.7130
  211MOL0     H29071   1.691   4.581   2.301  0.3456 -0.6747  0.6094
  211MOL0     H29072   1.947   4.754   2.322 -0.0872  0.3749 -1.5239
  211MOL0     H29073   1.871   4.662   2.447 -1.8018  3.0064 -0.5174
  211MOL0     H29074   1.992   4.481   2.376  1.0293 -0.7041 -0.9216
  211MOL0     H29075   1.890   4.481   2.243  0.5315  0.6477  0.2033
  211MOL0     H29076   2.021   4.331   2.148 -1.2604 -0.6539 -1.6723
  211MOL0     H29077   2.147   4.106   1.939  0.8152 -0.2433 -1.3232
  211MOL0     H29078   2.028   4.187   1.829 -1.7063  2.2340  0.5888
  211MOL0     H29079   1.989   4.149   1.998 -1.0814 -2.7115 -2.8547
  211MOL0     H29080   2.612   4.428   1.589 -1.1249  0.1831  1.5565
  211MOL0     H29081   2.710   4.337   1.389  0.2417 -1.7194 -2.8432
  211MOL0     H29082   2.630   4.146   1.001  2.6605 -1.8385  2.8183
  211MOL0     H29083   2.491   4.100   1.066  1.4409 -0.0007 -2.4052
  211MOL0     H29084   2.411   4.325   1.101 -1.0187 -0.3173 -1.9568
  211MOL0     H29085   2.581   4.384   1.084 -0.8218  4.1210 -1.0604
  211MOL0     H29086   2.590   4.287   0.857  2.4438 -1.3826  4.0268
  211MOL0     H29087   2.493   4.449   0.876 -0.8034 -1.2362 -0.7091
  211MOL0     H29088   2.293   4.356   0.844 -1.0612 -0.7617 -1.6276
  211MOL0     H29089   2.353   4.192   0.876  3.3589 -3.6422 -2.8621
  211MOL0     H29090   2.407   4.363   0.629  1.0446  1.9405  1.8323
  211MOL0     H29091   2.495   4.215   0.668 -0.1604  0.6045  0.1164
  211MOL0     H29092   2.194   4.247   0.645 -0.2248 -2.0176  1.8363
  211MOL0     H29093   2.268   4.090   0.669  1.0379  0.6259  0.8609
  211MOL0     H29094   2.269   4.267   0.415  0.0455  0.1040 -0.2398
  211MOL0     H29095   2.182   4.125   0.438 -0.2804  1.1148  0.7676
  211MOL0     H29096   2.486   4.121   0.430  0.7299 -1.2416 -2.2642
  211MOL0     H29097   2.380   4.108   0.296 -2.1753  1.2878  0.4966
  211MOL0     H29098   2.342   4.121   1.320 -2.5656  0.7339  1.1541
  211MOL0     H29099   2.245   4.211   1.492  0.9103 -1.8317 -0.1927
  211MOL0     H29100   2.323   4.569   1.846 -0.0108  2.9136  2.0204
  211MOL0     H29101   2.215   4.686   2.044 -0.8083  0.5001 -0.5685
  211MOL0     H29102   0.357   5.105   1.733  1.4312 -2.5754  0.3659
  211MOL0     H29103   0.139   5.233   1.738 -2.1921 -1.0213 -1.2022
  211MOL0     H29104  -0.134   5.418   1.857  0.0009  0.3152 -0.1071
  211MOL0     H29105  -0.352   5.535   1.802  2.9037 -0.3660 -1.6541
  211MOL0     H29106  -0.450   5.737   2.030  0.2369  0.2204 -3.3192
  211MOL0     H29107  -0.541   5.771   1.891  1.7932  0.1451 -0.6334
  211MOL0     H29108  -0.673   5.712   2.170  0.1937  3.7356  1.1582
  211MOL0     H29109  -0.759   5.731   2.019  1.2486 -0.4813 -2.1722
  211MOL0     H29110  -0.767   5.918   2.148  1.8375  0.2854  2.0372
  211MOL0     H29111  -0.591   5.932   2.180  0.4964  0.3261  0.0190
  211MOL0     H29112  -0.701   5.983   1.903 -1.9893 -2.9851  2.4194
  211MOL0     H29113  -0.540   6.018   1.971 -0.9232 -0.5365 -1.5911
  211MOL0     H29114  -0.814   6.313   2.128  3.1344  1.9451  0.3585
  211MOL0     H29115  -0.478   5.470   2.202  0.5936  3.8526  0.0597
  211MOL0     H29116  -0.320   5.249   2.321 -1.9386  2.2453  4.3449
  211MOL0     H29117  -0.158   5.300   2.329 -0.9829 -0.5111  1.1985
  211MOL0     H29118  -0.287   5.419   2.366 -0.6482 -0.9434  0.7907
  212MOL0     O29119   2.272   9.837   5.315 -0.2677  0.3915  0.1777
  212MOL0     C29120   2.217   9.797   5.412 -0.3404  0.1738 -0.0599
  212MOL0     O29121   2.118   9.860   5.488 -0.2202 -0.1252  0.5238
  212MOL0     C29122   2.022   9.934   5.426  0.3315  0.5465  0.2889
  212MOL0     C29123   1.887   9.900   5.419  0.5232  0.0983  0.5227
  212MOL0     C29124   1.790  10.000   5.375 -0.2066  0.5173  0.8612
  212MOL0     C29125   1.831  10.130   5.339  1.0358 -0.2014 -0.4600
  212MOL0     O29126   1.755  10.240   5.301 -1.5267  0.0935  0.4835
  212MOL0     C29127   1.614  10.240   5.316  0.5159 -0.6967 -0.0395
  212MOL0     C29128   1.560  10.339   5.213  0.7753  0.1274  0.4365
  212MOL0     C29129   1.557  10.483   5.263  0.1550 -0.8094  0.4416
  212MOL0     C29130   1.415  10.511   5.331  0.3986  0.5139  0.3977
  212MOL0     C29131   1.401  10.658   5.363 -0.2181  0.6265  0.4404
  212MOL0     C29132   1.268  10.699   5.436  0.0495 -0.0690  0.4968
  212MOL0     C29133   1.260  10.652   5.583  0.6341  0.0185  0.1516
  212MOL0     C29134   1.122  10.662   5.638 -1.0051 -0.4059  0.0602
  212MOL0     N29135   1.072  10.793   5.691  0.1605 -0.0994 -0.5021
  212MOL0     C29136   1.149  10.877   5.762 -0.3603  0.4508  0.7682
  212MOL0     C29137   1.091  11.002   5.763  0.6615  0.6576 -1.3271
  212MOL0     C29138   1.142  11.127   5.830 -0.5398  0.6244 -0.0500
  212MOL0     C29139   1.188  11.106   5.977 -0.5697 -0.6492 -0.1760
  212MOL0     C29140   1.243  11.238   6.040  0.7233 -0.1284  0.3491
  212MOL0     C29141   1.324  11.326   5.947  0.4003 -0.9578 -0.1246
  212MOL0     O29142   1.434  11.257   5.896  0.4449 -0.0197  0.6051
  212MOL0     C29143   1.546  11.336   5.861 -0.0351  0.4652  0.0329
  212MOL0     C29144   1.532  11.454   5.796 -0.3819 -0.4776 -0.7920
  212MOL0     C29145   1.640  11.543   5.772 -0.2691 -0.8017 -0.4641
  212MOL0     C29146   1.600  11.658   5.688 -0.6280 -0.1235 -0.3161
  212MOL0     C29147   1.773  11.502   5.798  0.2480  0.2206  0.3129
  212MOL0     C29148   1.885  11.570   5.735  1.1499  0.3963  0.0805
  212MOL0     O29149   1.884  11.615   5.603  0.5498  0.4120  0.1556
  212MOL0     C29150   1.974  11.706   5.563  0.8185  0.8499 -1.2674
  212MOL0     C29151   2.009  11.712   5.433  0.1269  0.1725 -0.0744
  212MOL0     C29152   2.122  11.788   5.390 -0.1123 -0.0489 -0.6953
  212MOL0     C29153   2.191  11.874   5.480 -0.1007 -0.2824 -0.9666
  212MOL0     O29154   2.295  11.943   5.431  0.7888 -0.5976  0.2237
  212MOL0     C29155   2.371  12.022   5.515 -0.6238 -0.3652 -0.4456
  212MOL0     C29156   2.514  12.026   5.458 -0.1081 -0.1986 -0.2715
  212MOL0     C29157   2.518  12.110   5.323 -0.2516  0.7783  0.5956
  212MOL0     C29158   2.545  12.255   5.355  0.1763 -0.0266 -0.5805
  212MOL0     C29159   2.518  12.353   5.233 -0.3321  0.5111 -0.2849
  212MOL0     C29160   2.388  12.424   5.238 -1.1964  0.3040  0.0895
  212MOL0     C29161   2.377  12.528   5.124 -0.0432 -0.2055  0.6026
  212MOL0     C29162   2.241  12.593   5.118  0.5726 -0.1338 -0.1270
  212MOL0    Cl29163   2.230  12.717   4.997  0.1116 -0.1612  0.7410
  212MOL0     C29164   2.139  11.884   5.616 -0.7375 -0.4796  0.5424
  212MOL0     C29165   2.032  11.803   5.655  0.3483 -0.0689 -0.2470
  212MOL0     O29166   1.987  11.565   5.804  0.2894 -0.5068 -0.2344
  212MOL0     C29167   1.785  11.376   5.869  0.2987 -0.8434  0.5908
  212MOL0     C29168   1.672  11.305   5.914 -0.4806 -1.0943  0.6816
  212MOL0     N29169   0.971  10.993   5.689 -0.6210  0.6126 -0.5143
  212MOL0     N29170   0.968  10.870   5.641  0.1591 -0.1736  0.3980
  212MOL0     C29171   1.966  10.157   5.344 -0.2491  0.8458 -0.2810
  212MOL0     C29172   2.053  10.065   5.383 -1.7772 -0.3194 -0.2347
  212MOL0     C29173   2.274   9.668   5.462 -0.6239 -0.1523  0.1736
  212MOL0     C29174   2.298   9.655   5.594  0.6241  0.5797 -0.8232
  212MOL0     C29175   2.344   9.535   5.660  1.1792  0.2088  0.4132
  212MOL0     C29176   2.370   9.421   5.570  0.3296  0.8833  0.1773
  212MOL0     O29177   2.419   9.294   5.611 -0.3992  0.3051 -0.2689
  212MOL0     C29178   2.430   9.258   5.752 -0.6595  0.6225 -0.1142
  212MOL0     C29179   2.291   9.225   5.802 -0.0824  0.0645 -0.2168
  212MOL0     C29180   2.269   9.217   5.955 -0.5320  0.4111  0.2338
  212MOL0     C29181   2.140   9.155   5.996 -0.1958  0.7439  0.1066
  212MOL0     C29182   2.150   9.006   5.992  0.4434  0.1340 -0.4948
  212MOL0     C29183   2.144   8.885   5.994 -0.0949 -0.1537  0.0092
  212MOL0     C29184   2.348   9.441   5.436  0.1308 -0.4109  0.4319
  212MOL0     C29185   2.295   9.558   5.377 -0.0473  0.0637 -1.3090
  212MOL0     C29186   2.262   9.542   5.230 -0.4102 -0.0334 -0.3188
  212MOL0     H29187   1.860   9.801   5.453 -0.4976  0.4650  0.8035
  212MOL0     H29188   1.690   9.970   5.349  0.5310 -0.4298 -1.0687
  212MOL0     H29189   1.594  10.266   5.420 -1.4158 -0.8180 -0.3355
  212MOL0     H29190   1.575  10.145   5.278 -2.6702  0.6192 -0.4111
  212MOL0     H29191   1.629  10.351   5.128 -1.1586  2.6628 -0.9163
  212MOL0     H29192   1.461  10.313   5.175  2.0039 -0.4360 -2.7528
  212MOL0     H29193   1.627  10.506   5.344  0.1868  0.8517 -0.0345
  212MOL0     H29194   1.587  10.534   5.172 -1.6965  1.5712  1.0710
  212MOL0     H29195   1.329  10.472   5.276  2.2395 -6.0667  1.3865
  212MOL0     H29196   1.417  10.455   5.425 -0.0092  1.5354  1.0221
  212MOL0     H29197   1.395  10.710   5.267 -1.4529  0.4876  0.4359
  212MOL0     H29198   1.487  10.700   5.416  0.6777 -0.4091 -0.1338
  212MOL0     H29199   1.239  10.803   5.420 -3.2035 -0.9165  0.2965
  212MOL0     H29200   1.190  10.647   5.380 -0.1827  1.3910 -0.5687
  212MOL0     H29201   1.339  10.698   5.644 -2.6804  4.4428  1.6649
  212MOL0     H29202   1.289  10.547   5.583 -2.6191 -0.9695 -0.8274
  212MOL0     H29203   1.056  10.632   5.556 -1.0797 -3.1493  1.0242
  212MOL0     H29204   1.107  10.586   5.716 -2.7968  2.5857  2.9369
  212MOL0     H29205   1.249  10.875   5.803  1.0280 -0.4489 -2.3499
  212MOL0     H29206   1.060  11.199   5.835  2.2665  4.0601  0.3390
  212MOL0     H29207   1.222  11.175   5.773  0.1550 -1.6814 -1.1296
  212MOL0     H29208   1.101  11.074   6.034 -2.2899  0.1228 -2.2248
  212MOL0     H29209   1.273  11.037   5.980  1.2414  1.4792  1.0212
  212MOL0     H29210   1.160  11.288   6.090 -1.2299 -1.2831 -1.5388
  212MOL0     H29211   1.304  11.192   6.118  1.7347  1.0033  0.2722
  212MOL0     H29212   1.257  11.357   5.866  0.9201  2.0718  0.5022
  212MOL0     H29213   1.357  11.410   6.008 -4.6357  0.2066  1.4541
  212MOL0     H29214   1.436  11.500   5.772  0.2127  2.2091  1.3713
  212MOL0     H29215   1.498  11.687   5.710 -0.3235 -0.2098  1.3050
  212MOL0     H29216   1.621  11.638   5.582 -0.2145  0.1099 -0.2805
  212MOL0     H29217   1.657  11.749   5.709 -3.0042  1.1271  1.0650
  212MOL0     H29218   1.972  11.641   5.360 -0.1132  1.9898 -1.8014
  212MOL0     H29219   2.150  11.765   5.288 -1.0347 -1.3891 -0.6790
  212MOL0     H29220   2.326  12.122   5.517 -0.7657 -0.4276  1.2409
  212MOL0     H29221   2.377  11.985   5.618  3.0111  1.2644  0.0822
  212MOL0     H29222   2.576  12.065   5.540 -1.2564 -1.2529  1.1668
  212MOL0     H29223   2.542  11.922   5.437 -1.3651 -1.7070  4.2918
  212MOL0     H29224   2.423  12.102   5.268  0.3592  0.1791 -0.4057
  212MOL0     H29225   2.597  12.069   5.260  1.3389 -0.7910  3.4393
  212MOL0     H29226   2.653  12.249   5.370  0.0937 -0.3329 -0.0888
  212MOL0     H29227   2.514  12.293   5.453 -0.7677  3.1940 -1.9938
  212MOL0     H29228   2.594  12.430   5.246  0.2131  0.4974 -2.8207
  212MOL0     H29229   2.540  12.295   5.143  0.8925 -3.2002  2.1674
  212MOL0     H29230   2.361  12.472   5.332 -0.1690  1.0426  0.0136
  212MOL0     H29231   2.304  12.359   5.210 -3.1967  2.6389  0.3232
  212MOL0     H29232   2.407  12.480   5.031  0.2236  2.1569 -0.5825
  212MOL0     H29233   2.448  12.610   5.142  0.3543  0.5953 -3.6040
  212MOL0     H29234   2.217  12.641   5.214  3.0041  0.1064  0.4317
  212MOL0     H29235   2.162  12.521   5.095 -0.5552  1.2266 -0.6386
  212MOL0     H29236   2.191  11.931   5.699 -3.9955 -0.2455  2.6378
  212MOL0     H29237   1.994  11.802   5.756  1.1518  4.4152  0.2864
  212MOL0     H29238   1.886  11.360   5.907 -0.1795 -0.1469  2.2557
  212MOL0     H29239   1.684  11.221   5.982 -1.5367 -1.5468  0.3483
  212MOL0     H29240   2.011  10.246   5.301  2.0297 -0.6693 -1.2128
  212MOL0     H29241   2.159  10.087   5.374 -1.8365 -0.4865 -1.6429
  212MOL0     H29242   2.269   9.721   5.675  0.1178 -1.5211  0.7924
  212MOL0     H29243   2.358   9.516   5.766  0.2597  2.2996  0.9499
  212MOL0     H29244   2.495   9.170   5.757 -0.7625  0.3489 -2.4225
  212MOL0     H29245   2.480   9.331   5.816  2.1665 -1.7333  0.5943
  212MOL0     H29246   2.253   9.149   5.733  1.0199  0.5964 -1.4480
  212MOL0     H29247   2.228   9.312   5.779  1.8279  0.8952 -2.7420
  212MOL0     H29248   2.356   9.176   6.008 -0.1458 -0.5724 -1.1300
  212MOL0     H29249   2.253   9.320   5.988  0.9704  0.2433  1.6156
  212MOL0     H29250   2.060   9.191   5.931  0.4428  0.3402 -0.9222
  212MOL0     H29251   2.117   9.196   6.095 -5.1881  1.2805 -0.9738
  212MOL0     H29252   2.135   8.779   5.995 -4.2576 -0.0249  2.2490
  212MOL0     H29253   2.394   9.365   5.373 -1.1802 -2.7498  2.1395
  212MOL0     H29254   2.347   9.587   5.178 -1.7735 -0.3579 -2.9704
  212MOL0     H29255   2.256   9.436   5.206  1.2286 -0.8270  2.3777
  212MOL0     H29256   2.167   9.591   5.209 -0.4440  0.7180  1.4040
  213MOL0     O29257   4.579   1.678   8.529  0.2643 -0.6832  0.1691
  213MOL0     C29258   4.685   1.745   8.513 -0.0746  0.4269  0.2140
  213MOL0     O29259   4.691   1.875   8.496  0.0980  0.2885  0.7135
  213MOL0     C29260   4.571   1.943   8.510 -0.9558  0.7792 -0.0558
  213MOL0     C29261   4.470   1.933   8.413 -0.2791 -0.5076  0.7418
  213MOL0     C29262   4.345   1.995   8.431 -0.6859  0.2543 -0.0527
  213MOL0     C29263   4.333   2.075   8.541  0.1814  0.1849  0.5213
  213MOL0     O29264   4.233   2.171   8.548 -0.2372  0.6842  0.1483
  213MOL0     C29265   4.102   2.102   8.551  0.3686  0.0045  0.8661
  213MOL0     C29266   3.990   2.192   8.606  0.2783 -0.2547  0.6850
  213MOL0     C29267   3.917   2.273   8.498 -0.3094  0.3875 -0.0921
  213MOL0     C29268   3.850   2.396   8.565 -0.5109  0.0743 -0.0148
  213MOL0     C29269   3.822   2.499   8.460 -0.1462 -0.1037 -0.1478
  213MOL0     C29270   3.796   2.632   8.521  0.4572 -0.4889  0.4411
  213MOL0     C29271   3.733   2.715   8.410 -0.2046  0.7638  0.2131
  213MOL0     C29272   3.698   2.854   8.462 -0.2064 -0.4452 -0.1629
  213MOL0     N29273   3.668   2.966   8.364  0.2854 -0.5636  0.8908
  213MOL0     C29274   3.539   3.017   8.350  0.3792  0.2827 -0.6401
  213MOL0     C29275   3.557   3.128   8.272  0.4657 -0.1775  0.1679
  213MOL0     C29276   3.437   3.218   8.247 -0.5042  0.1198  0.1783
  213MOL0     C29277   3.438   3.287   8.100 -0.5035 -0.2763 -0.2010
  213MOL0     C29278   3.295   3.313   8.038  0.3165  0.1903 -0.2413
  213MOL0     C29279   3.233   3.434   8.112 -0.2565  0.6904  0.1979
  213MOL0     O29280   3.303   3.547   8.074 -0.2284 -0.3064  0.3600
  213MOL0     C29281   3.231   3.670   8.069  0.4128  0.1451 -0.4047
  213MOL0     C29282   3.294   3.786   8.020  0.6580  0.6208 -0.6338
  213MOL0     C29283   3.228   3.913   7.994 -0.1010  0.1821 -0.1647
  213MOL0     C29284   3.331   4.017   7.982  0.7547  0.6106  0.2021
  213MOL0     C29285   3.089   3.921   8.020  0.6467  0.0564  1.0546
  213MOL0     C29286   3.017   4.049   8.009  0.0418  0.5321 -0.7477
  213MOL0     O29287   3.054   4.147   7.924 -0.1155 -0.4119  0.3428
  213MOL0     C29288   2.977   4.260   7.916 -0.1959  0.5206  0.5121
  213MOL0     C29289   2.847   4.256   7.874  0.3091 -0.3517  0.4320
  213MOL0     C29290   2.769   4.378   7.867  0.7441 -0.9450 -0.5060
  213MOL0     C29291   2.823   4.507   7.913  0.2370  0.4314  0.7815
  213MOL0     O29292   2.765   4.625   7.911  0.1740  0.8412  0.8457
  213MOL0     C29293   2.628   4.640   7.866  0.0790 -0.0531 -0.9308
  213MOL0     C29294   2.571   4.777   7.906 -0.4888 -0.0969 -0.0166
  213MOL0     C29295   2.530   4.805   8.056 -0.2256  0.9159 -0.1315
  213MOL0     C29296   2.510   4.949   8.081  0.5107 -1.4198 -0.3971
  213MOL0     C29297   2.380   5.013   8.010  0.2212  0.6357  0.0346
  213MOL0     C29298   2.366   5.171   8.003 -0.3302  0.9671 -0.6903
  213MOL0     C29299   2.352   5.232   8.140  0.6172 -0.5760 -0.1599
  213MOL0     C29300   2.372   5.381   8.130  0.5447 -0.3524  0.4912
  213MOL0    Cl29301   2.302   5.451   8.276  0.4015  0.0342  0.2341
  213MOL0     C29302   2.950   4.495   7.965 -0.5670 -0.3084  0.4071
  213MOL0     C29303   3.030   4.377   7.966  0.1801 -1.0562  0.6899
  213MOL0     O29304   2.904   4.047   8.075 -0.5326 -0.0747  0.2449
  213MOL0     C29305   3.021   3.805   8.072 -0.2607  0.0086  0.2001
  213MOL0     C29306   3.092   3.688   8.108  0.2397 -0.4119 -0.8805
  213MOL0     N29307   3.692   3.141   8.244  0.8523 -0.0376 -0.5761
  213MOL0     N29308   3.751   3.049   8.302  0.7496 -0.6388 -0.0592
  213MOL0     C29309   4.430   2.084   8.639 -0.1757  0.5061  0.5545
  213MOL0     C29310   4.554   2.014   8.630 -0.5389 -0.7361 -0.3318
  213MOL0     C29311   4.806   1.663   8.509  0.7272 -0.4289 -1.0043
  213MOL0     C29312   4.917   1.710   8.437  0.3091  0.3315 -0.3541
  213MOL0     C29313   5.033   1.635   8.409 -0.8188  0.5736 -0.4563
  213MOL0     C29314   5.033   1.498   8.460  0.1382 -0.4287 -0.4101
  213MOL0     O29315   5.154   1.435   8.460  0.0559  0.0825  0.6818
  213MOL0     C29316   5.183   1.308   8.517 -0.4416 -0.5962  0.3536
  213MOL0     C29317   5.329   1.274   8.519 -0.3196 -0.1446  0.4515
  213MOL0     C29318   5.343   1.132   8.579 -0.4693 -0.2439 -0.0446
  213MOL0     C29319   5.496   1.100   8.573  0.4412 -0.6175 -0.1559
  213MOL0     C29320   5.544   0.987   8.645  0.7523  0.1934  0.2392
  213MOL0     C29321   5.574   0.895   8.725  0.5126 -0.1945 -0.0152
  213MOL0     C29322   4.919   1.449   8.524 -0.0492  0.1017 -0.0720
  213MOL0     C29323   4.809   1.530   8.555  0.7866 -0.3725  0.2922
  213MOL0     C29324   4.715   1.461   8.650 -0.0702 -0.2533 -0.0736
  213MOL0     H29325   4.467   1.880   8.318 -3.1002  1.9377 -0.7067
  213MOL0     H29326   4.259   1.988   8.366 -3.1395  2.4131  2.6848
  213MOL0     H29327   4.094   2.015   8.616 -4.7609 -0.4622  0.0634
  213MOL0     H29328   4.076   2.074   8.449  0.6116  1.2707  0.4407
  213MOL0     H29329   3.919   2.131   8.662 -3.7917  3.2156 -0.1255
  213MOL0     H29330   4.041   2.258   8.677 -3.6033  0.9675  2.6432
  213MOL0     H29331   3.997   2.293   8.427  2.6818 -3.9469  1.6698
  213MOL0     H29332   3.838   2.219   8.444 -1.3458  0.4389  1.3079
  213MOL0     H29333   3.762   2.357   8.616  0.1569  0.1879  1.2644
  213MOL0     H29334   3.927   2.425   8.637 -0.6302 -0.2695  0.2559
  213MOL0     H29335   3.740   2.476   8.391 -0.5269  1.4603 -0.2659
  213MOL0     H29336   3.910   2.512   8.396  0.5323 -2.6552  0.1627
  213MOL0     H29337   3.733   2.630   8.610  0.2394  0.0686  0.3033
  213MOL0     H29338   3.888   2.674   8.562  0.4293 -0.5254  0.5421
  213MOL0     H29339   3.641   2.679   8.362  1.1487 -1.5735 -0.8166
  213MOL0     H29340   3.812   2.716   8.333 -0.1846 -2.4921  0.0597
  213MOL0     H29341   3.615   2.843   8.533 -0.0941  1.1190  0.2626
  213MOL0     H29342   3.780   2.890   8.525 -1.0800  0.2617  0.6102
  213MOL0     H29343   3.447   2.989   8.401  0.3460 -0.3106 -1.0226
  213MOL0     H29344   3.436   3.300   8.320  2.0388 -1.3842  2.0678
  213MOL0     H29345   3.347   3.158   8.260  0.8784 -2.1036 -0.0186
  213MOL0     H29346   3.503   3.375   8.103 -1.8771  0.8293 -1.3545
  213MOL0     H29347   3.490   3.225   8.026 -0.6270  0.2659 -0.7462
  213MOL0     H29348   3.298   3.341   7.932 -1.4469  0.4820 -0.2427
  213MOL0     H29349   3.230   3.225   8.044 -0.5185  0.2886 -4.5275
  213MOL0     H29350   3.131   3.443   8.072  0.7234  2.1614 -2.2196
  213MOL0     H29351   3.234   3.423   8.221 -4.5114 -0.1973  0.3393
  213MOL0     H29352   3.398   3.797   7.991  0.2660  2.6045 -1.5009
  213MOL0     H29353   3.290   4.119   7.991  2.1826  1.0425  2.9065
  213MOL0     H29354   3.379   3.997   7.886  1.0681  1.5035  0.1587
  213MOL0     H29355   3.400   4.003   8.066  0.3216  0.2074  0.4911
  213MOL0     H29356   2.809   4.157   7.847  2.8716 -1.0356 -1.0056
  213MOL0     H29357   2.666   4.379   7.831  0.9258 -1.4992 -1.0514
  213MOL0     H29358   2.632   4.629   7.757 -1.4626 -2.0904 -0.8340
  213MOL0     H29359   2.558   4.570   7.911 -1.9164  0.9341 -2.3415
  213MOL0     H29360   2.635   4.857   7.868 -1.2049  0.3068 -0.4029
  213MOL0     H29361   2.484   4.790   7.841  1.7732 -1.0404 -3.5288
  213MOL0     H29362   2.608   4.766   8.121 -3.9020 -1.5246  3.3146
  213MOL0     H29363   2.441   4.746   8.081 -1.9767  1.5116 -4.1005
  213MOL0     H29364   2.597   5.008   8.051 -0.5745  1.1203  1.1017
  213MOL0     H29365   2.504   4.973   8.188  0.9243 -1.7042 -0.3085
  213MOL0     H29366   2.384   4.981   7.905  1.3077 -2.5299  0.9401
  213MOL0     H29367   2.295   4.974   8.066 -0.5416  1.1142 -0.7478
  213MOL0     H29368   2.271   5.189   7.952 -1.6011  0.6994  1.4424
  213MOL0     H29369   2.444   5.221   7.945  0.6215  2.0828  1.4368
  213MOL0     H29370   2.429   5.186   8.202  1.0404 -0.7637 -0.8128
  213MOL0     H29371   2.255   5.207   8.185  1.5693 -0.1484  2.2795
  213MOL0     H29372   2.325   5.430   8.044  3.5460  1.6262 -0.1912
  213MOL0     H29373   2.479   5.402   8.122  0.0030  1.9954 -2.6913
  213MOL0     H29374   3.009   4.581   7.995 -1.1828  1.1450 -2.1691
  213MOL0     H29375   3.128   4.393   8.010  0.4745  1.5626 -0.6662
  213MOL0     H29376   2.918   3.801   8.103 -0.5638 -4.2323 -0.6725
  213MOL0     H29377   3.032   3.605   8.144  0.6193 -2.2676 -4.1342
  213MOL0     H29378   4.412   2.149   8.724 -1.9411 -1.1075  1.4790
  213MOL0     H29379   4.630   2.026   8.706 -0.5433 -0.1668 -0.4086
  213MOL0     H29380   4.937   1.811   8.400  1.7367 -0.0145 -0.5617
  213MOL0     H29381   5.119   1.688   8.370 -1.5334  1.8563 -0.3831
  213MOL0     H29382   5.139   1.305   8.617  2.7126  1.8422  1.9984
  213MOL0     H29383   5.129   1.237   8.455 -0.2776  0.3321 -0.9052
  213MOL0     H29384   5.389   1.337   8.586  0.6243 -0.2147 -0.2937
  213MOL0     H29385   5.372   1.282   8.419 -0.0146 -1.6837  0.4319
  213MOL0     H29386   5.311   1.132   8.683 -1.1675  0.5604 -0.2456
  213MOL0     H29387   5.289   1.052   8.529  2.4438 -2.3125 -0.1408
  213MOL0     H29388   5.553   1.187   8.607 -0.5302 -0.2641  0.6131
  213MOL0     H29389   5.509   1.085   8.465 -0.8948 -1.4595 -0.2358
  213MOL0     H29390   5.588   0.806   8.784  5.9917  0.3956  0.0975
  213MOL0     H29391   4.933   1.346   8.555 -1.6402  0.1100  0.7877
  213MOL0     H29392   4.636   1.407   8.599  1.5771 -4.2578  1.2471
  213MOL0     H29393   4.762   1.391   8.719  2.0672  3.6734  2.9174
  213MOL0     H29394   4.669   1.538   8.713 -1.1065  0.0108 -1.1192
  214MOL0     O29395   2.078   7.203   9.952  0.4655  0.3052 -0.1990
  214MOL0     C29396   2.132   7.235  10.056 -0.0981 -0.0818 -0.1305
  214MOL0     O29397   2.246   7.303  10.073 -0.1467  0.3164  0.4190
  214MOL0     C29398   2.306   7.358   9.957  0.4108  0.0063 -0.1873
  214MOL0     C29399   2.232   7.402   9.848 -0.7685 -0.5231  1.3243
  214MOL0     C29400   2.291   7.449   9.729  0.1826  0.3979  0.5931
  214MOL0     C29401   2.432   7.459   9.727  0.6657 -1.1728  0.5316
  214MOL0     O29402   2.487   7.504   9.605 -0.6872 -0.6712  0.0938
  214MOL0     C29403   2.623   7.553   9.614 -0.5510  1.0808 -0.5467
  214MOL0     C29404   2.718   7.429   9.594 -0.2775 -0.3604  0.6421
  214MOL0     C29405   2.701   7.372   9.448 -0.4775 -0.7980  0.5089
  214MOL0     C29406   2.702   7.222   9.434  0.1800 -0.8314  0.1487
  214MOL0     C29407   2.576   7.170   9.501  0.7078 -0.8754 -0.6869
  214MOL0     C29408   2.442   7.190   9.417  0.8299 -0.1844 -0.7313
  214MOL0     C29409   2.354   7.064   9.425 -0.2837 -0.6460 -0.5038
  214MOL0     C29410   2.198   7.096   9.406 -0.4481 -0.1003  0.1004
  214MOL0     N29411   2.113   6.987   9.468  0.2029  0.7167 -0.1055
  214MOL0     C29412   2.084   6.988   9.603  0.9046  0.2492  0.0100
  214MOL0     C29413   2.001   6.882   9.624  0.5941  0.4581 -0.0794
  214MOL0     C29414   1.938   6.843   9.752  0.3782  0.1440  0.8144
  214MOL0     C29415   1.815   6.937   9.764  0.5964  0.5129  1.0397
  214MOL0     C29416   1.688   6.900   9.704  0.2062  0.5950  0.1570
  214MOL0     C29417   1.569   6.976   9.766 -0.6218 -0.4558 -0.5098
  214MOL0     O29418   1.531   6.918   9.898 -0.4185  0.6967  0.5549
  214MOL0     C29419   1.446   6.998   9.974 -0.8172  0.1988 -0.0740
  214MOL0     C29420   1.403   7.130   9.952  0.3910 -0.2138  0.1350
  214MOL0     C29421   1.327   7.203  10.051 -0.6496 -0.2980 -0.4694
  214MOL0     C29422   1.306   7.357  10.020  0.3120  0.3985  0.1383
  214MOL0     C29423   1.280   7.131  10.161 -0.5198 -0.2582 -0.5426
  214MOL0     C29424   1.190   7.192  10.257  0.3420  0.2557  0.1990
  214MOL0     O29425   1.191   7.127  10.374 -0.4501  0.2245  0.0310
  214MOL0     C29426   1.111   7.143  10.485  0.6856 -0.0345  1.0688
  214MOL0     C29427   1.115   7.031  10.579  0.7389 -0.0992  0.5952
  214MOL0     C29428   1.044   7.042  10.696 -0.8719 -0.0843 -0.2962
  214MOL0     C29429   0.938   7.138  10.706 -0.4801 -0.5838 -0.1978
  214MOL0     O29430   0.845   7.147  10.807  0.8549 -0.3064 -0.0821
  214MOL0     C29431   0.896   7.156  10.942 -0.5680  0.1374  0.5471
  214MOL0     C29432   0.822   7.279  11.005  0.8709 -0.0403 -0.0274
  214MOL0     C29433   0.701   7.245  11.103 -0.2968 -0.3744 -0.6249
  214MOL0     C29434   0.576   7.306  11.046 -0.9065  0.6122 -0.4784
  214MOL0     C29435   0.451   7.266  11.136  0.1568 -0.5100  0.1043
  214MOL0     C29436   0.324   7.336  11.090 -0.1025 -0.0981  0.3077
  214MOL0     C29437   0.205   7.300  11.170  0.1643 -0.1459  0.3858
  214MOL0     C29438   0.078   7.396  11.152  0.1285 -0.2333 -0.0565
  214MOL0    Cl29439   0.004   7.367  10.983  0.4095 -0.5050 -0.2761
  214MOL0     C29440   0.932   7.244  10.610  0.2346 -0.2253  0.6192
  214MOL0     C29441   1.027   7.250  10.514  0.7698 -1.1851 -0.4285
  214MOL0     O29442   1.114   7.289  10.228  0.0489  0.3176 -0.4139
  214MOL0     C29443   1.307   6.991  10.175 -0.6105  0.1726  0.7926
  214MOL0     C29444   1.394   6.928  10.084 -0.4470  0.0544  0.3942
  214MOL0     N29445   1.983   6.809   9.505  0.3318 -0.3096 -0.7510
  214MOL0     N29446   2.053   6.881   9.420  0.5001  0.5673 -0.0840
  214MOL0     C29447   2.502   7.420   9.837  1.6082 -0.8039 -0.2080
  214MOL0     C29448   2.439   7.384   9.955  0.8620  0.5642  0.2508
  214MOL0     C29449   2.088   7.170  10.185 -0.4262  0.5166  0.2135
  214MOL0     C29450   2.181   7.159  10.295  0.4466 -0.2271 -0.4833
  214MOL0     C29451   2.141   7.107  10.414 -0.1780  1.1576 -0.1108
  214MOL0     C29452   2.005   7.098  10.447 -0.5666 -0.4561  0.1167
  214MOL0     O29453   1.977   7.082  10.582 -0.2367  0.0960 -0.2775
  214MOL0     C29454   1.853   7.125  10.627  0.7189  0.2471 -0.6654
  214MOL0     C29455   1.760   7.017  10.667  0.7357 -0.0922  0.3206
  214MOL0     C29456   1.614   7.052  10.681  0.2516  0.2634  0.5583
  214MOL0     C29457   1.581   7.086  10.824  1.1047 -0.0931  0.2217
  214MOL0     C29458   1.476   6.997  10.874 -0.1866  0.5178 -0.4399
  214MOL0     C29459   1.377   6.936  10.902  0.1703  1.0822  0.0433
  214MOL0     C29460   1.912   7.103  10.342  0.5575 -0.0821  0.6949
  214MOL0     C29461   1.949   7.141  10.212 -0.5218 -0.1289 -0.9858
  214MOL0     C29462   1.837   7.158  10.110  1.5095 -0.2264  0.2309
  214MOL0     H29463   2.125   7.403   9.832 -0.2736  0.2233 -3.3191
  214MOL0     H29464   2.240   7.489   9.642  7.2885  1.9664 -3.7734
  214MOL0     H29465   2.644   7.607   9.706  1.6617 -0.4063 -0.0901
  214MOL0     H29466   2.640   7.623   9.531  0.2261 -0.2988 -1.6099
  214MOL0     H29467   2.823   7.458   9.609  0.0422 -0.1008 -1.7854
  214MOL0     H29468   2.714   7.358   9.677 -1.3941  0.8544  1.6786
  214MOL0     H29469   2.614   7.414   9.396 -1.6036 -4.1404 -0.5372
  214MOL0     H29470   2.789   7.401   9.390 -0.2427 -1.8940  0.3059
  214MOL0     H29471   2.721   7.195   9.330  0.5706 -4.2131  0.9828
  214MOL0     H29472   2.784   7.186   9.498  1.6550  0.2693 -1.0345
  214MOL0     H29473   2.566   7.201   9.606 -2.2758  1.9546 -1.6309
  214MOL0     H29474   2.590   7.063   9.516  1.5579 -0.5410  1.1897
  214MOL0     H29475   2.391   7.276   9.460  0.1842 -0.4847 -0.8813
  214MOL0     H29476   2.461   7.212   9.312 -1.9758  2.8488 -0.7759
  214MOL0     H29477   2.382   7.030   9.526  1.5065  2.5096  0.2057
  214MOL0     H29478   2.388   6.998   9.344 -1.0572  0.3365 -1.6481
  214MOL0     H29479   2.158   7.190   9.446 -2.8521 -0.2359 -1.7880
  214MOL0     H29480   2.180   7.081   9.299 -3.6368 -2.0532  0.7907
  214MOL0     H29481   2.105   7.067   9.674  1.1572  1.5227 -1.4344
  214MOL0     H29482   2.013   6.846   9.831  3.0806 -2.3466 -1.4424
  214MOL0     H29483   1.902   6.741   9.760 -1.0458  0.4268 -1.2442
  214MOL0     H29484   1.802   6.929   9.873 -2.8769 -0.7538  0.6428
  214MOL0     H29485   1.842   7.041   9.743  1.5491  0.1591  0.4494
  214MOL0     H29486   1.696   6.936   9.601  0.1926  2.0431  0.6388
  214MOL0     H29487   1.658   6.795   9.702 -0.1528  0.6566 -3.2676
  214MOL0     H29488   1.600   7.080   9.777 -1.0156 -0.4125  0.2552
  214MOL0     H29489   1.493   6.972   9.687 -1.5857  2.1877  0.2043
  214MOL0     H29490   1.437   7.174   9.859 -2.4893  0.0906 -0.8721
  214MOL0     H29491   1.208   7.359   9.970 -3.2926 -5.1718  5.5732
  214MOL0     H29492   1.384   7.410   9.965 -0.0248  2.1890  1.3107
  214MOL0     H29493   1.300   7.418  10.110  2.4906  1.0369 -0.0960
  214MOL0     H29494   1.172   6.939  10.578  2.8741  1.0625 -3.2694
  214MOL0     H29495   1.037   6.976  10.783  0.3225 -0.2209 -0.2860
  214MOL0     H29496   0.879   7.061  10.993  1.1520 -0.7530 -0.4345
  214MOL0     H29497   1.002   7.182  10.938 -0.5659  0.1707  0.8054
  214MOL0     H29498   0.893   7.333  11.068  2.5536 -3.6855  1.4797
  214MOL0     H29499   0.786   7.351  10.930 -1.2920  1.1753  2.0185
  214MOL0     H29500   0.715   7.277  11.206 -2.3828 -0.6498 -0.2170
  214MOL0     H29501   0.686   7.137  11.107 -1.5936 -0.1995 -0.2576
  214MOL0     H29502   0.551   7.262  10.949 -0.7694 -0.5539  0.0057
  214MOL0     H29503   0.589   7.413  11.028 -1.8074  0.3954 -2.8864
  214MOL0     H29504   0.432   7.158  11.143  0.4377 -0.5449  0.3432
  214MOL0     H29505   0.460   7.298  11.240  0.1793 -2.1198  0.6271
  214MOL0     H29506   0.312   7.280  10.997 -0.8083 -1.9826  1.4534
  214MOL0     H29507   0.326   7.443  11.070 -0.2786 -0.2251 -0.4103
  214MOL0     H29508   0.237   7.303  11.274  2.1692 -1.5346 -0.1490
  214MOL0     H29509   0.179   7.194  11.167  1.5873 -0.5401  1.3950
  214MOL0     H29510   0.106   7.501  11.163  0.2434 -0.4323  1.7316
  214MOL0     H29511  -0.001   7.370  11.224 -2.1704  1.4275 -1.8372
  214MOL0     H29512   0.854   7.320  10.611  0.0123 -0.4215 -0.3348
  214MOL0     H29513   1.021   7.334  10.446  0.0681 -1.8126 -1.1725
  214MOL0     H29514   1.265   6.932  10.256 -2.2279  0.6322  0.3298
  214MOL0     H29515   1.406   6.823  10.109 -0.9950 -0.0608  0.1844
  214MOL0     H29516   2.610   7.418   9.842  1.5411 -2.3296  2.3160
  214MOL0     H29517   2.501   7.366  10.042  2.7098 -0.5824 -1.2553
  214MOL0     H29518   2.286   7.180  10.277  1.4661 -4.0143  0.2275
  214MOL0     H29519   2.219   7.115  10.490 -2.3760  1.3964  2.2782
  214MOL0     H29520   1.875   7.186  10.715  1.8399 -2.8726  1.4251
  214MOL0     H29521   1.810   7.192  10.552  0.2945  0.0023 -0.6429
  214MOL0     H29522   1.794   6.959  10.753 -2.0251 -1.2327  0.7452
  214MOL0     H29523   1.769   6.941  10.588  0.5864  1.3555 -1.1401
  214MOL0     H29524   1.579   7.124  10.607 -2.5378 -0.5786  0.9633
  214MOL0     H29525   1.567   6.956  10.658 -1.0392  1.1293 -0.5644
  214MOL0     H29526   1.536   7.186  10.821  2.0931  0.3729  0.4593
  214MOL0     H29527   1.663   7.109  10.893  4.0164  1.3842 -3.3291
  214MOL0     H29528   1.295   6.874  10.932  0.5823  1.2537  1.6086
  214MOL0     H29529   1.805   7.088  10.353  0.7503 -6.2108 -1.9673
  214MOL0     H29530   1.746   7.162  10.171  2.6387 -0.0732  1.9796
  214MOL0     H29531   1.827   7.254  10.059  4.4034 -0.5486 -1.1426
  214MOL0     H29532   1.837   7.080  10.033 -2.9957  1.7477 -2.1713
  215MOL0     O29533   8.390   8.766  11.035  0.7244  0.2112 -0.4875
  215MOL0     C29534   8.482   8.840  10.999  0.8559  0.7915 -0.7087
  215MOL0     O29535   8.602   8.853  11.067 -0.2271  0.0297  0.2040
  215MOL0     C29536   8.647   8.793  11.185  0.2806  0.9175 -1.0585
  215MOL0     C29537   8.598   8.674  11.229  0.3531  0.5383 -0.1948
  215MOL0     C29538   8.647   8.610  11.349 -0.7110  0.6657  0.0791
  215MOL0     C29539   8.754   8.670  11.407  0.0784 -1.1280 -0.0393
  215MOL0     O29540   8.813   8.625  11.521  0.0402 -0.6872  0.0969
  215MOL0     C29541   8.722   8.578  11.624  0.8610 -0.2007  1.0590
  215MOL0     C29542   8.799   8.499  11.732 -0.5869  0.6122 -0.5371
  215MOL0     C29543   8.695   8.472  11.844  0.0963 -0.1807  0.0823
  215MOL0     C29544   8.762   8.381  11.941 -1.0710  0.8516  0.0352
  215MOL0     C29545   8.690   8.400  12.072 -0.3454  0.6293 -0.5803
  215MOL0     C29546   8.735   8.276  12.167 -0.1989  0.2970 -0.2087
  215MOL0     C29547   8.678   8.293  12.307  0.3340  1.1036 -0.0021
  215MOL0     C29548   8.513   8.295  12.303 -0.1774  0.6678 -0.9265
  215MOL0     N29549   8.456   8.218  12.410  1.0734  0.3152  0.3364
  215MOL0     C29550   8.464   8.253  12.541  0.4659  0.3711  0.2089
  215MOL0     C29551   8.402   8.147  12.603 -0.9797  0.1655 -0.0427
  215MOL0     C29552   8.379   8.130  12.747 -0.9453  0.0746 -0.2735
  215MOL0     C29553   8.242   8.177  12.809  0.2087  0.9492  0.6225
  215MOL0     C29554   8.196   8.317  12.760 -0.5002 -0.4567 -0.2162
  215MOL0     C29555   8.297   8.423  12.823  0.2950  0.3300 -1.1591
  215MOL0     O29556   8.295   8.415  12.971 -0.0449  0.4751  0.2645
  215MOL0     C29557   8.223   8.509  13.035  0.5667 -1.8261 -0.0121
  215MOL0     C29558   8.250   8.536  13.168  0.2147 -0.5786  0.0370
  215MOL0     C29559   8.194   8.636  13.250  0.2512  0.1839  0.5053
  215MOL0     C29560   8.230   8.629  13.400 -0.2646  0.5212 -0.1404
  215MOL0     C29561   8.104   8.726  13.185 -0.3498  0.9365  0.5343
  215MOL0     C29562   8.054   8.848  13.252 -0.1567 -0.4661  2.0615
  215MOL0     O29563   8.120   8.914  13.352  0.3324 -0.5377 -0.0158
  215MOL0     C29564   8.048   9.014  13.417 -0.4956  0.1189 -0.6822
  215MOL0     C29565   7.934   8.990  13.500 -0.4779 -0.5614 -0.0291
  215MOL0     C29566   7.867   9.096  13.572 -0.3036 -0.0097 -0.2783
  215MOL0     C29567   7.920   9.216  13.567 -0.7351  0.7464  0.0724
  215MOL0     O29568   7.870   9.332  13.617 -0.4539 -0.7916 -0.0752
  215MOL0     C29569   7.741   9.344  13.679 -0.1911 -0.2742  0.0644
  215MOL0     C29570   7.689   9.489  13.670  0.3127 -0.2223  0.6649
  215MOL0     C29571   7.686   9.534  13.523 -0.7004  0.6695 -0.2225
  215MOL0     C29572   7.597   9.657  13.516  0.2141 -0.3172  1.3235
  215MOL0     C29573   7.569   9.711  13.377  0.5350 -0.8496  0.1138
  215MOL0     C29574   7.476   9.628  13.300 -0.0483  1.0335 -0.5176
  215MOL0     C29575   7.430   9.674  13.159 -1.3940  0.0263 -1.2797
  215MOL0     C29576   7.317   9.590  13.097 -0.6667 -0.6222 -0.7700
  215MOL0    Cl29577   7.330   9.558  12.926  0.5171 -0.0513 -0.0246
  215MOL0     C29578   8.040   9.235  13.512 -0.5628 -1.0085  0.2812
  215MOL0     C29579   8.106   9.148  13.431 -0.5835  0.8151  1.6700
  215MOL0     O29580   7.945   8.887  13.201 -0.2759  0.2511  1.0717
  215MOL0     C29581   8.056   8.698  13.053 -1.4507  0.5895  0.1933
  215MOL0     C29582   8.127   8.596  12.981  0.4023 -0.1486 -0.7517
  215MOL0     N29583   8.364   8.047  12.514  0.3365 -0.1104  0.5682
  215MOL0     N29584   8.399   8.093  12.397 -0.3227  0.7988  0.0878
  215MOL0     C29585   8.802   8.792  11.361 -0.3221  0.2770  0.0497
  215MOL0     C29586   8.749   8.849  11.251 -0.2206 -0.1775  0.3362
  215MOL0     C29587   8.464   8.921  10.878  0.4257  0.5467 -0.3255
  215MOL0     C29588   8.526   8.869  10.768 -0.0973 -0.0174 -0.1393
  215MOL0     C29589   8.505   8.941  10.650  0.0696 -0.6994 -0.2906
  215MOL0     C29590   8.433   9.054  10.647  0.2498  0.2570  0.1484
  215MOL0     O29591   8.414   9.139  10.545 -0.4572 -0.1649  0.0916
  215MOL0     C29592   8.485   9.110  10.427 -0.1765  0.0473 -0.1530
  215MOL0     C29593   8.491   9.230  10.329 -0.8699 -1.3026 -0.2907
  215MOL0     C29594   8.569   9.207  10.204  0.0292 -0.2173 -0.4984
  215MOL0     C29595   8.550   9.065  10.144 -0.3098 -0.4343 -0.0668
  215MOL0     C29596   8.409   9.053  10.110 -0.0474 -0.5041 -0.8796
  215MOL0     C29597   8.300   9.046  10.068 -0.1557  0.5510 -1.0724
  215MOL0     C29598   8.375   9.106  10.757 -0.3359 -0.4576  0.1707
  215MOL0     C29599   8.395   9.040  10.879  0.0116  0.4827 -0.0982
  215MOL0     C29600   8.351   9.113  10.995 -0.9912  0.1445  0.8523
  215MOL0     H29601   8.521   8.620  11.174 -2.0269 -0.7680  4.0101
  215MOL0     H29602   8.611   8.517  11.391 -2.3430  1.5365  0.6868
  215MOL0     H29603   8.654   8.506  11.578 -1.8741  3.3985 -1.0429
  215MOL0     H29604   8.672   8.668  11.659  2.4220  1.3053 -0.4184
  215MOL0     H29605   8.855   8.412  11.696 -0.7271 -0.6159  1.9618
  215MOL0     H29606   8.873   8.559  11.785  2.0921 -3.9275  1.4727
  215MOL0     H29607   8.671   8.557  11.908  3.2026 -0.8435  2.3649
  215MOL0     H29608   8.608   8.414  11.812  1.8493 -1.5749 -2.5117
  215MOL0     H29609   8.752   8.279  11.903 -0.7890  0.9031 -0.1910
  215MOL0     H29610   8.868   8.403  11.960 -1.2581  1.4795  0.3850
  215MOL0     H29611   8.581   8.407  12.059 -0.0448  1.8409 -2.9336
  215MOL0     H29612   8.728   8.492  12.118 -0.4979  1.2256 -1.6153
  215MOL0     H29613   8.705   8.183  12.119  1.2581  0.6963 -1.9836
  215MOL0     H29614   8.843   8.276  12.179 -0.3420  2.1013  1.7713
  215MOL0     H29615   8.707   8.386  12.356 -0.0288  0.3704  1.6469
  215MOL0     H29616   8.695   8.205  12.368 -4.4046  0.5803  0.9965
  215MOL0     H29617   8.480   8.400  12.307  0.6810  1.0023  4.1210
  215MOL0     H29618   8.486   8.245  12.210  0.7450  0.0500 -0.8741
  215MOL0     H29619   8.489   8.352  12.579  1.2569  0.2981 -0.1061
  215MOL0     H29620   8.451   8.182  12.810 -1.0038 -1.3419  1.0345
  215MOL0     H29621   8.394   8.025  12.774  0.9521 -0.5670 -3.2979
  215MOL0     H29622   8.167   8.105  12.775  2.2632 -0.6980 -0.5736
  215MOL0     H29623   8.249   8.179  12.918  2.3704  2.8022  0.5276
  215MOL0     H29624   8.208   8.319  12.652  3.8508 -0.7151  0.0786
  215MOL0     H29625   8.091   8.336  12.785 -0.8212 -1.9388 -0.3120
  215MOL0     H29626   8.391   8.400  12.772  0.6466 -0.0313 -0.3546
  215MOL0     H29627   8.252   8.512  12.777 -0.5931  0.9619  0.8162
  215MOL0     H29628   8.330   8.469  13.199 -1.6136 -3.4989 -1.1200
  215MOL0     H29629   8.304   8.551  13.422 -1.0629 -0.1664  0.1553
  215MOL0     H29630   8.152   8.586  13.463 -2.0494  0.3055 -2.3745
  215MOL0     H29631   8.267   8.730  13.423  0.0038  0.3338  0.2585
  215MOL0     H29632   7.888   8.892  13.500  0.1471 -0.8624 -0.5031
  215MOL0     H29633   7.783   9.067  13.634 -0.9576 -1.5665 -1.8101
  215MOL0     H29634   7.672   9.280  13.624 -0.2889  0.6123 -0.8701
  215MOL0     H29635   7.749   9.325  13.786 -0.9011 -2.9151 -0.2927
  215MOL0     H29636   7.594   9.497  13.723  0.6287  1.3297  1.0394
  215MOL0     H29637   7.755   9.554  13.728 -1.9699  0.2152  2.9335
  215MOL0     H29638   7.644   9.454  13.462 -0.8011  0.5476  0.0076
  215MOL0     H29639   7.789   9.557  13.495 -0.4723 -1.6903 -1.5361
  215MOL0     H29640   7.634   9.745  13.569 -2.7292  2.8376 -1.4189
  215MOL0     H29641   7.497   9.634  13.553 -0.6158 -2.0608 -1.6489
  215MOL0     H29642   7.507   9.801  13.378  0.8105 -0.6582 -0.0117
  215MOL0     H29643   7.665   9.721  13.326  0.1851 -0.5613 -0.4933
  215MOL0     H29644   7.388   9.620  13.364  0.7857  0.1971  0.5899
  215MOL0     H29645   7.518   9.527  13.292 -2.0569  0.3380 -4.3200
  215MOL0     H29646   7.515   9.666  13.091 -2.1878  1.2953 -2.4778
  215MOL0     H29647   7.420   9.783  13.155  1.8109  0.4602 -0.3816
  215MOL0     H29648   7.226   9.649  13.105 -3.2551 -3.5926 -4.5575
  215MOL0     H29649   7.297   9.496  13.150 -3.9557  0.5978  0.3863
  215MOL0     H29650   8.086   9.333  13.524 -2.8620  0.5168 -2.1652
  215MOL0     H29651   8.194   9.180  13.375 -0.0057  0.4103  2.3202
  215MOL0     H29652   7.987   8.766  13.005 -3.8565 -1.1578  0.9872
  215MOL0     H29653   8.092   8.599  12.878  0.6765 -2.0332 -0.9375
  215MOL0     H29654   8.899   8.823  11.401  0.7775 -3.3042  0.5518
  215MOL0     H29655   8.787   8.942  11.209 -2.7077  1.0166  0.5676
  215MOL0     H29656   8.573   8.773  10.782 -2.4738 -0.9278  2.5109
  215MOL0     H29657   8.550   8.900  10.560  2.3308 -0.1490  0.5316
  215MOL0     H29658   8.589   9.078  10.444  0.0391 -0.1864 -1.7283
  215MOL0     H29659   8.440   9.021  10.382 -2.7269  0.4228  1.4816
  215MOL0     H29660   8.539   9.316  10.378 -1.6108 -1.5244  0.8666
  215MOL0     H29661   8.390   9.262  10.301  0.5973  0.3580 -4.5375
  215MOL0     H29662   8.524   9.266  10.124 -1.5472 -1.1748 -0.3641
  215MOL0     H29663   8.674   9.235  10.218  0.2699 -1.2990 -0.0172
  215MOL0     H29664   8.592   8.985  10.206 -1.1544 -2.4956 -2.0143
  215MOL0     H29665   8.614   9.077  10.056 -3.3065  2.7572 -2.1186
  215MOL0     H29666   8.197   9.058  10.039 -0.3904  1.3156  0.0124
  215MOL0     H29667   8.345   9.210  10.765 -2.7321 -1.2051  1.9972
  215MOL0     H29668   8.427   9.118  11.074  2.2205  0.1850 -2.0212
  215MOL0     H29669   8.346   9.221  10.984 -0.2785 -0.0166 -1.4973
  215MOL0     H29670   8.258   9.068  11.033  0.0460 -1.3294  1.7515
  216MOL0     O29671   0.373   2.188   4.380  0.0252 -0.3307  0.1629
  216MOL0     C29672   0.326   2.155   4.272  0.8900 -0.5933 -0.4344
  216MOL0     O29673   0.386   2.080   4.177 -0.1370 -0.1927  0.8782
  216MOL0     C29674   0.518   2.071   4.187 -0.1849 -1.2207 -0.6936
  216MOL0     C29675   0.588   2.003   4.283  0.0770 -0.3410 -0.0882
  216MOL0     C29676   0.726   1.997   4.281  0.3200 -0.7143  0.5510
  216MOL0     C29677   0.801   2.071   4.197  0.2631 -0.7135  0.5717
  216MOL0     O29678   0.934   2.056   4.205 -0.0842 -0.2815  1.1608
  216MOL0     C29679   1.033   2.145   4.141 -0.1756 -0.3599 -0.7980
  216MOL0     C29680   1.179   2.126   4.173 -0.0853 -0.2534  0.1208
  216MOL0     C29681   1.220   2.144   4.323  0.6626 -0.1142 -0.5716
  216MOL0     C29682   1.159   2.036   4.416  0.2498  0.9098 -0.5103
  216MOL0     C29683   1.259   2.019   4.530  0.3728  0.2670 -0.5002
  216MOL0     C29684   1.186   1.995   4.656 -0.4153  0.9883 -0.6021
  216MOL0     C29685   1.089   1.881   4.643  0.1279 -0.4480  0.1090
  216MOL0     C29686   1.027   1.822   4.777 -0.8639  0.8463 -1.0457
  216MOL0     N29687   1.113   1.719   4.839  0.8486  0.0288  0.9119
  216MOL0     C29688   1.239   1.723   4.898 -0.4632 -0.3310  1.0919
  216MOL0     C29689   1.260   1.587   4.936  0.7621  0.2396  0.5105
  216MOL0     C29690   1.373   1.533   5.015  0.1132 -0.5136 -0.0192
  216MOL0     C29691   1.347   1.545   5.163 -1.0639  0.7828 -0.8885
  216MOL0     C29692   1.479   1.542   5.242  0.6518 -0.1801 -0.5578
  216MOL0     C29693   1.470   1.584   5.389 -0.0186 -0.8479 -0.0209
  216MOL0     O29694   1.476   1.722   5.408 -1.1097  0.6503  0.4679
  216MOL0     C29695   1.420   1.780   5.515  0.4874 -0.2587 -0.0414
  216MOL0     C29696   1.430   1.920   5.540 -0.0112  0.6278  0.1230
  216MOL0     C29697   1.360   1.992   5.631 -0.3997 -0.4373 -0.1440
  216MOL0     C29698   1.386   2.145   5.630 -0.2575  0.9986 -1.0771
  216MOL0     C29699   1.263   1.921   5.704 -0.9277  0.2974  0.4896
  216MOL0     C29700   1.148   1.988   5.766 -0.5880 -0.1157 -0.7615
  216MOL0     O29701   1.067   1.905   5.842  0.0810 -0.2367 -0.4308
  216MOL0     C29702   0.958   1.956   5.914 -0.2927  0.5092  0.3655
  216MOL0     C29703   0.885   2.076   5.893 -0.4089 -0.0169 -0.6457
  216MOL0     C29704   0.789   2.122   5.992 -0.8057  0.1905  0.3396
  216MOL0     C29705   0.761   2.049   6.109  0.7011  0.6582  0.0031
  216MOL0     O29706   0.659   2.091   6.189  0.1868 -1.0599 -0.5767
  216MOL0     C29707   0.622   2.051   6.320  0.3018  0.9183  0.2420
  216MOL0     C29708   0.552   2.166   6.396  0.1475  0.5490  0.5437
  216MOL0     C29709   0.397   2.179   6.356 -0.9011 -0.5016 -0.8622
  216MOL0     C29710   0.320   2.048   6.398 -0.0627 -1.1449  0.1256
  216MOL0     C29711   0.162   2.058   6.399  0.2501 -0.7028  0.6325
  216MOL0     C29712   0.101   1.929   6.450 -0.5514  0.3287 -0.3992
  216MOL0     C29713  -0.052   1.932   6.457  0.1151  1.1943  0.1944
  216MOL0     C29714  -0.097   1.843   6.571 -0.7013  0.4165 -0.3044
  216MOL0    Cl29715  -0.043   1.673   6.579 -0.7472 -0.3603 -0.1566
  216MOL0     C29716   0.822   1.923   6.116 -0.1095 -0.4614 -0.5781
  216MOL0     C29717   0.922   1.878   6.029  0.3214  0.2997 -0.5296
  216MOL0     O29718   1.131   2.108   5.756  0.0466 -0.8831  0.3179
  216MOL0     C29719   1.282   1.780   5.703  0.6870 -1.2552  0.2910
  216MOL0     C29720   1.355   1.710   5.607 -0.1663  0.8679 -0.4939
  216MOL0     N29721   1.163   1.498   4.887  0.0765 -0.6175  0.3799
  216MOL0     N29722   1.071   1.584   4.841 -0.7497 -0.5709  0.6140
  216MOL0     C29723   0.733   2.150   4.105  0.7314  0.2143  0.7712
  216MOL0     C29724   0.598   2.147   4.096  0.3940 -0.4116 -0.2916
  216MOL0     C29725   0.199   2.234   4.237 -0.1698  0.2746 -0.8318
  216MOL0     C29726   0.180   2.268   4.101  0.0201  0.5822  0.5689
  216MOL0     C29727   0.057   2.336   4.065  0.3197  0.1303  0.2323
  216MOL0     C29728  -0.040   2.372   4.154  0.3536  0.5318 -0.1040
  216MOL0     O29729  -0.164   2.433   4.136 -0.0023  0.0900  0.5602
  216MOL0     C29730  -0.202   2.501   4.017 -0.1447 -0.8350  0.8401
  216MOL0     C29731  -0.276   2.410   3.919  0.3325 -0.2155 -0.0943
  216MOL0     C29732  -0.217   2.411   3.781  0.3129 -0.1443 -0.0362
  216MOL0     C29733  -0.294   2.336   3.668 -0.3379  0.4190 -0.2783
  216MOL0     C29734  -0.202   2.243   3.593  0.4534  0.5319 -0.0655
  216MOL0     C29735  -0.126   2.174   3.524 -0.0589 -0.0344  0.6413
  216MOL0     C29736  -0.018   2.338   4.292 -1.2881  0.1576  0.2171
  216MOL0     C29737   0.107   2.276   4.336  0.6363  0.5566  0.3392
  216MOL0     C29738   0.115   2.255   4.487  0.3607 -0.3194 -0.1961
  216MOL0     H29739   0.536   1.937   4.352 -0.0051  0.2736  0.4519
  216MOL0     H29740   0.773   1.931   4.353  0.1077 -3.4169 -1.6478
  216MOL0     H29741   1.006   2.246   4.174  1.5728  0.2575 -1.1673
  216MOL0     H29742   1.017   2.135   4.033 -2.3360  1.1558 -0.6734
  216MOL0     H29743   1.212   2.026   4.144 -0.3469 -1.1394  2.6061
  216MOL0     H29744   1.235   2.205   4.123 -1.2790 -1.1659 -2.9136
  216MOL0     H29745   1.329   2.137   4.320  0.7638  0.0012  1.2984
  216MOL0     H29746   1.200   2.249   4.345 -2.0874  0.3463 -4.2997
  216MOL0     H29747   1.062   2.077   4.446  1.0418  0.2261  3.5948
  216MOL0     H29748   1.147   1.942   4.361  0.9680  0.5396 -0.0415
  216MOL0     H29749   1.322   2.107   4.548  0.5057  0.0339  0.2143
  216MOL0     H29750   1.326   1.932   4.523 -0.2123 -0.4801  2.2492
  216MOL0     H29751   1.253   1.969   4.738 -0.0940  3.0537 -0.1483
  216MOL0     H29752   1.126   2.082   4.686 -1.6433  0.9349 -2.6614
  216MOL0     H29753   1.140   1.802   4.588  1.4260  1.7742 -2.1362
  216MOL0     H29754   1.007   1.922   4.583 -0.5136  2.3717  2.6331
  216MOL0     H29755   1.017   1.895   4.857  0.0645  0.3396 -0.4562
  216MOL0     H29756   0.928   1.779   4.763  0.2909 -2.8455  0.8943
  216MOL0     H29757   1.311   1.803   4.905 -0.3798 -0.3012  0.0750
  216MOL0     H29758   1.467   1.579   4.983 -0.7122  0.2519 -1.4201
  216MOL0     H29759   1.375   1.426   4.993  0.6520 -0.3667 -0.7169
  216MOL0     H29760   1.284   1.632   5.179 -3.1097 -0.5708 -1.1249
  216MOL0     H29761   1.284   1.459   5.189  1.0000 -0.3731  0.5898
  216MOL0     H29762   1.508   1.437   5.252 -1.3520 -0.8595 -1.2826
  216MOL0     H29763   1.559   1.603   5.199  1.9841 -1.0548  0.5796
  216MOL0     H29764   1.377   1.540   5.424 -2.7418  0.8774 -4.2648
  216MOL0     H29765   1.552   1.538   5.444 -1.6525 -0.7281  2.6474
  216MOL0     H29766   1.499   1.956   5.465  0.6019 -0.4873  0.1349
  216MOL0     H29767   1.309   2.201   5.576 -2.9163 -1.1345  0.1854
  216MOL0     H29768   1.479   2.167   5.578  0.0258 -0.7492 -1.4009
  216MOL0     H29769   1.387   2.187   5.731 -0.6693  0.4383 -0.8290
  216MOL0     H29770   0.897   2.126   5.798  1.8641  0.5478 -0.1255
  216MOL0     H29771   0.729   2.210   5.970 -0.4213  0.1597 -0.9100
  216MOL0     H29772   0.561   1.962   6.305  1.6714 -0.1738  0.9667
  216MOL0     H29773   0.717   2.026   6.369  0.9507  2.4003 -0.1836
  216MOL0     H29774   0.556   2.145   6.503  1.2566 -1.8876  0.0968
  216MOL0     H29775   0.610   2.258   6.383 -0.8259  0.9983 -0.7830
  216MOL0     H29776   0.382   2.194   6.248  0.3047 -0.9095 -1.1021
  216MOL0     H29777   0.364   2.266   6.413  1.5059  0.2565 -0.5325
  216MOL0     H29778   0.343   2.023   6.502 -0.1369  0.1461  0.4656
  216MOL0     H29779   0.354   1.970   6.329  0.1983  0.6145 -1.8408
  216MOL0     H29780   0.138   2.148   6.457 -0.6351  0.3935 -1.3030
  216MOL0     H29781   0.120   2.078   6.300 -1.6026  1.2954  1.7386
  216MOL0     H29782   0.143   1.915   6.550  0.9384  3.0643 -0.5314
  216MOL0     H29783   0.119   1.852   6.374  2.0695  0.8869 -0.4615
  216MOL0     H29784  -0.077   1.906   6.354  3.6609 -1.5294 -0.1786
  216MOL0     H29785  -0.097   2.028   6.484 -2.4445  0.1893 -0.2289
  216MOL0     H29786  -0.206   1.846   6.560 -0.6653  1.8793 -0.4421
  216MOL0     H29787  -0.055   1.897   6.656 -1.6125  0.0931  0.3613
  216MOL0     H29788   0.801   1.853   6.195  2.4465  1.7245  2.2664
  216MOL0     H29789   0.965   1.781   6.049  1.9446  0.5505 -2.4459
  216MOL0     H29790   1.216   1.715   5.760 -0.6396 -1.3988 -1.3511
  216MOL0     H29791   1.364   1.602   5.613  1.0528  0.8569 -1.8254
  216MOL0     H29792   0.788   2.204   4.028  0.8169 -0.5502  0.2942
  216MOL0     H29793   0.550   2.198   4.013  1.7258  0.9945 -0.2415
  216MOL0     H29794   0.244   2.245   4.017 -2.0021  2.2070 -1.5268
  216MOL0     H29795   0.037   2.358   3.961  4.0250 -0.4559 -0.7633
  216MOL0     H29796  -0.252   2.595   4.041  0.6041 -0.3264  0.4556
  216MOL0     H29797  -0.108   2.532   3.969 -1.8661  2.7118 -0.5662
  216MOL0     H29798  -0.378   2.448   3.919  0.0499 -0.8208  2.1112
  216MOL0     H29799  -0.285   2.304   3.946 -1.1573 -0.2568 -0.7084
  216MOL0     H29800  -0.211   2.517   3.754 -1.6686 -0.0924 -0.4059
  216MOL0     H29801  -0.113   2.379   3.792  0.3706  0.4790  1.5051
  216MOL0     H29802  -0.339   2.399   3.591  1.6445  3.1983  0.6684
  216MOL0     H29803  -0.380   2.278   3.702  0.6318 -2.8481 -2.8504
  216MOL0     H29804  -0.070   2.104   3.465 -2.1148 -3.0345  1.9905
  216MOL0     H29805  -0.095   2.355   4.366  1.3702 -0.0955  3.2362
  216MOL0     H29806   0.182   2.330   4.530 -0.8969  0.1585  1.0062
  216MOL0     H29807   0.021   2.266   4.542  0.6255 -2.5987  0.8484
  216MOL0     H29808   0.147   2.153   4.511 -2.0471 -0.6942  1.8590
  217MOL0     O29809  11.532   7.127   7.893  0.4247  0.1267 -0.4158
  217MOL0     C29810  11.501   7.111   8.015 -0.5093  0.5059  0.3202
  217MOL0     O29811  11.465   7.202   8.105  0.2485 -0.5748  1.0715
  217MOL0     C29812  11.459   7.339   8.070  0.0693  0.5567 -0.9702
  217MOL0     C29813  11.584   7.388   8.048  0.6210  0.1030  0.2280
  217MOL0     C29814  11.596   7.526   8.011 -0.3299  0.3822 -0.0747
  217MOL0     C29815  11.475   7.600   8.000 -0.7297 -0.1307 -1.2299
  217MOL0     O29816  11.486   7.732   7.971 -0.0995 -0.2532 -0.2159
  217MOL0     C29817  11.396   7.781   7.872 -0.3719 -0.1842  0.1560
  217MOL0     C29818  11.441   7.920   7.831  0.1304  0.4029 -0.1829
  217MOL0     C29819  11.458   8.017   7.957  1.2798 -0.7984 -0.5209
  217MOL0     C29820  11.545   8.145   7.926  0.2590 -0.1829  0.5279
  217MOL0     C29821  11.459   8.250   7.843  0.5319 -0.4124 -0.1234
  217MOL0     C29822  11.532   8.393   7.866  0.3077  0.6043  0.2616
  217MOL0     C29823  11.483   8.472   7.742  0.3461  0.6825  0.4163
  217MOL0     C29824  11.333   8.495   7.732  0.5614 -0.2726  0.4286
  217MOL0     N29825  11.295   8.628   7.687 -0.6689 -0.1717  0.5047
  217MOL0     C29826  11.252   8.665   7.560 -0.5560 -0.1862  0.6393
  217MOL0     C29827  11.198   8.789   7.573 -0.3604  0.1339 -0.8009
  217MOL0     C29828  11.159   8.877   7.463 -0.2774 -0.3133  0.1058
  217MOL0     C29829  11.064   8.992   7.506 -0.1365  0.1886  0.1562
  217MOL0     C29830  10.939   8.946   7.578  1.1294 -0.5491  0.4717
  217MOL0     C29831  10.813   9.047   7.554 -0.4160 -0.3107 -1.4108
  217MOL0     O29832  10.757   9.022   7.432  0.4855 -0.1562  0.7467
  217MOL0     C29833  10.622   8.998   7.418 -0.2522 -0.2899  0.2953
  217MOL0     C29834  10.519   9.031   7.509  0.1768 -0.7304  0.4170
  217MOL0     C29835  10.385   9.001   7.492  0.3635  0.3261  0.0532
  217MOL0     C29836  10.289   9.044   7.600 -0.4291 -0.7378 -0.0909
  217MOL0     C29837  10.345   8.909   7.392  0.9715 -0.1609 -0.5383
  217MOL0     C29838  10.206   8.863   7.371  0.8399  0.6592  0.1100
  217MOL0     O29839  10.204   8.733   7.323  0.4595  0.9026 -0.2216
  217MOL0     C29840  10.113   8.691   7.229 -0.1687 -0.2781 -0.2147
  217MOL0     C29841  10.149   8.565   7.187  0.2310 -1.2775 -0.3209
  217MOL0     C29842  10.066   8.502   7.095  0.0679 -0.0589 -0.9738
  217MOL0     C29843   9.950   8.572   7.046  0.2593  0.1632 -0.0435
  217MOL0     O29844   9.903   8.505   6.933  1.1046 -0.4519 -0.2813
  217MOL0     C29845   9.763   8.491   6.930 -0.5948 -0.0190  0.0557
  217MOL0     C29846   9.734   8.401   6.810  0.8085  0.8100  0.2161
  217MOL0     C29847   9.591   8.421   6.743  0.2118  0.7322  0.6307
  217MOL0     C29848   9.594   8.537   6.644 -0.0630 -0.3292  1.3907
  217MOL0     C29849   9.452   8.569   6.581 -0.0273 -0.1013 -0.9343
  217MOL0     C29850   9.365   8.677   6.649  0.6293 -0.3367 -1.3617
  217MOL0     C29851   9.287   8.615   6.768 -0.0247 -0.0305  0.4636
  217MOL0     C29852   9.304   8.673   6.906 -0.2989 -0.7819 -0.3737
  217MOL0    Cl29853   9.465   8.678   6.965 -0.2985  0.2917 -0.1284
  217MOL0     C29854   9.906   8.687   7.100 -0.1214  0.3057 -0.6874
  217MOL0     C29855   9.994   8.748   7.191 -0.0343 -0.4194  0.3347
  217MOL0     O29856  10.125   8.955   7.356  0.3477  0.7435 -0.1298
  217MOL0     C29857  10.443   8.884   7.298 -0.4530 -0.4688  0.3813
  217MOL0     C29858  10.572   8.926   7.305  0.1356  0.1994  0.0109
  217MOL0     N29859  11.193   8.818   7.705 -0.5031 -0.2181  0.0444
  217MOL0     N29860  11.254   8.731   7.771  0.3128 -0.0075  0.4485
  217MOL0     C29861  11.347   7.535   8.017  0.5839  0.1936 -0.6245
  217MOL0     C29862  11.334   7.407   8.062 -0.2466 -0.9802 -0.2235
  217MOL0     C29863  11.511   6.978   8.069  0.0134 -0.1841 -0.3348
  217MOL0     C29864  11.391   6.903   8.073  1.9534  0.2928  0.4637
  217MOL0     C29865  11.397   6.779   8.147  0.4995 -0.1074 -0.3551
  217MOL0     C29866  11.513   6.713   8.169 -0.3541 -0.6065  0.8502
  217MOL0     O29867  11.512   6.589   8.225  0.2388  0.1218  0.2480
  217MOL0     C29868  11.444   6.564   8.349 -0.8147  0.4069 -0.1072
  217MOL0     C29869  11.382   6.422   8.328 -0.0370  0.1632  0.0025
  217MOL0     C29870  11.272   6.426   8.221  1.0623  0.4752 -0.5063
  217MOL0     C29871  11.188   6.296   8.199  0.3628 -0.3047  0.6064
  217MOL0     C29872  11.147   6.212   8.309 -0.0772  0.0295 -0.0353
  217MOL0     C29873  11.099   6.144   8.399  0.0238  1.0645 -0.2649
  217MOL0     C29874  11.630   6.784   8.136 -0.0752  0.1757 -1.6968
  217MOL0     C29875  11.632   6.914   8.088 -0.6009 -0.2275 -0.2500
  217MOL0     C29876  11.763   6.983   8.058  0.6539  0.4487 -0.3318
  217MOL0     H29877  11.677   7.333   8.045  1.2395  1.0981  0.4128
  217MOL0     H29878  11.694   7.567   7.988 -0.2104 -0.1829 -0.6100
  217MOL0     H29879  11.293   7.786   7.908 -0.1069 -1.4022  1.1463
  217MOL0     H29880  11.394   7.707   7.791 -1.8529 -2.8117  2.4035
  217MOL0     H29881  11.538   7.913   7.781 -0.4908  3.9024 -2.2209
  217MOL0     H29882  11.381   7.948   7.744  2.3942  1.6766 -1.4398
  217MOL0     H29883  11.358   8.045   7.994  1.7163  1.3417 -0.8120
  217MOL0     H29884  11.497   7.963   8.044  3.2593  1.1446 -0.1192
  217MOL0     H29885  11.558   8.203   8.018 -0.2008  3.2558 -1.3880
  217MOL0     H29886  11.642   8.108   7.892  0.1410  0.2259 -0.2819
  217MOL0     H29887  11.354   8.267   7.866  0.8949 -0.7159  1.9587
  217MOL0     H29888  11.457   8.207   7.742 -3.2152 -1.9425  0.4351
  217MOL0     H29889  11.484   8.441   7.951  0.4507  1.5828 -0.1986
  217MOL0     H29890  11.640   8.408   7.869  0.4742 -0.5786  0.8221
  217MOL0     H29891  11.513   8.419   7.651 -4.2001  1.1134 -1.5754
  217MOL0     H29892  11.527   8.572   7.754 -2.1088  1.9803 -0.6445
  217MOL0     H29893  11.291   8.422   7.662  1.1514  0.2800 -0.5280
  217MOL0     H29894  11.294   8.498   7.834  1.4611  2.9067  0.8044
  217MOL0     H29895  11.248   8.613   7.465 -1.1767  2.2889 -0.7902
  217MOL0     H29896  11.108   8.807   7.396 -4.9990  0.4297  2.4931
  217MOL0     H29897  11.249   8.908   7.408 -0.0054 -0.6904  0.3296
  217MOL0     H29898  11.114   9.056   7.579 -1.6778 -0.2588  1.6524
  217MOL0     H29899  11.038   9.049   7.416 -1.0222  0.0721  0.3304
  217MOL0     H29900  10.911   8.851   7.532  4.4042 -1.2242 -0.3869
  217MOL0     H29901  10.956   8.933   7.685 -0.2395  2.2744  1.1297
  217MOL0     H29902  10.741   9.055   7.637  0.6074  0.4158 -0.5671
  217MOL0     H29903  10.844   9.152   7.560 -0.3946 -0.3567  3.2724
  217MOL0     H29904  10.534   9.097   7.594  0.6747 -0.6105  0.2411
  217MOL0     H29905  10.208   8.970   7.604 -5.0883  3.6450 -1.7910
  217MOL0     H29906  10.230   9.135   7.586  0.4055 -0.3283 -1.1234
  217MOL0     H29907  10.336   9.048   7.699  3.1980  1.1121 -1.7140
  217MOL0     H29908  10.236   8.506   7.214  0.3344 -0.8562  0.2883
  217MOL0     H29909  10.098   8.407   7.052  0.8605  0.8337 -2.4248
  217MOL0     H29910   9.721   8.456   7.024 -1.9632 -0.7944 -0.8066
  217MOL0     H29911   9.703   8.578   6.900 -1.9345 -1.0857 -0.4706
  217MOL0     H29912   9.815   8.410   6.737  1.1722 -0.4169  0.4467
  217MOL0     H29913   9.735   8.294   6.830 -0.5636  0.7189 -0.0809
  217MOL0     H29914   9.524   8.445   6.826 -0.0939  3.3678 -0.2698
  217MOL0     H29915   9.549   8.332   6.695  1.4962  1.0613 -1.2060
  217MOL0     H29916   9.661   8.530   6.557 -2.9995 -0.2096 -1.0483
  217MOL0     H29917   9.620   8.622   6.708  0.8706 -1.6334  2.7973
  217MOL0     H29918   9.475   8.603   6.479  0.3865  1.9952 -0.1981
  217MOL0     H29919   9.394   8.477   6.585 -0.3225  0.0985  2.0834
  217MOL0     H29920   9.290   8.727   6.587 -0.6821  0.1763  0.5579
  217MOL0     H29921   9.437   8.752   6.683  0.2277 -0.6525  0.2844
  217MOL0     H29922   9.322   8.512   6.774 -1.1385 -0.4482 -0.0738
  217MOL0     H29923   9.182   8.627   6.740  0.1215 -0.6711 -0.3969
  217MOL0     H29924   9.242   8.606   6.966 -0.0488 -2.4769 -1.8867
  217MOL0     H29925   9.262   8.773   6.905  0.5419 -0.4213 -0.5156
  217MOL0     H29926   9.811   8.726   7.064 -2.4301 -5.5855 -2.1016
  217MOL0     H29927   9.938   8.818   7.252 -1.8275 -0.3980 -1.2521
  217MOL0     H29928  10.427   8.803   7.227 -0.2943 -1.8382  1.8552
  217MOL0     H29929  10.645   8.878   7.240  0.7113 -1.7279  1.9859
  217MOL0     H29930  11.251   7.580   7.992  0.2329  0.0938  0.4522
  217MOL0     H29931  11.245   7.346   8.074 -0.6357 -0.8415 -2.1124
  217MOL0     H29932  11.292   6.939   8.047  1.3464 -1.4197  0.2238
  217MOL0     H29933  11.307   6.725   8.177 -0.3225  1.3554 -0.0733
  217MOL0     H29934  11.516   6.567   8.431  0.8219  1.8097 -1.5138
  217MOL0     H29935  11.365   6.631   8.385  0.2060  0.5606  1.9961
  217MOL0     H29936  11.338   6.395   8.425 -0.1346 -2.6726 -0.7471
  217MOL0     H29937  11.462   6.349   8.318 -1.4700 -1.7717  1.8357
  217MOL0     H29938  11.196   6.502   8.240 -0.8878 -1.5842  0.3991
  217MOL0     H29939  11.318   6.450   8.125 -1.8268  3.5571 -1.2776
  217MOL0     H29940  11.265   6.239   8.147  1.7528  1.4947  0.5895
  217MOL0     H29941  11.101   6.327   8.142 -0.7897 -0.9517  1.9526
  217MOL0     H29942  11.082   6.091   8.490  1.5867 -2.0232 -1.6039
  217MOL0     H29943  11.729   6.740   8.147 -0.6775 -1.0457 -0.8697
  217MOL0     H29944  11.839   6.914   8.095 -0.9922 -0.6043  1.2725
  217MOL0     H29945  11.791   7.005   7.954  6.3528  2.3499  1.2590
  217MOL0     H29946  11.765   7.072   8.120  0.5329  1.8484 -2.2535
  218MOL0     O29947   1.053   2.603   2.913  0.2205 -0.2298  0.3836
  218MOL0     C29948   0.935   2.636   2.926 -0.2813  0.7124  1.0370
  218MOL0     O29949   0.831   2.557   2.918  0.5508  0.5810  0.7870
  218MOL0     C29950   0.842   2.436   2.858 -0.1010  0.1683  0.4858
  218MOL0     C29951   0.919   2.339   2.908 -0.5706 -1.0936  0.4671
  218MOL0     C29952   0.942   2.210   2.838  0.0695 -0.5979  0.2786
  218MOL0     C29953   0.890   2.188   2.710  0.2056  0.6699  0.1274
  218MOL0     O29954   0.911   2.074   2.648 -0.2110  0.1133  0.0769
  218MOL0     C29955   0.950   1.953   2.713  1.0004  0.6102  0.8966
  218MOL0     C29956   1.045   1.885   2.616  0.0484  0.4011 -0.1438
  218MOL0     C29957   1.106   1.751   2.665 -0.2325  0.2214 -0.7074
  218MOL0     C29958   1.190   1.674   2.553  0.5250 -0.7088  0.0073
  218MOL0     C29959   1.290   1.758   2.465  0.2517  0.2585 -0.5838
  218MOL0     C29960   1.212   1.818   2.354 -0.6080  0.3635  0.2004
  218MOL0     C29961   1.309   1.911   2.261  0.4521  0.5661  0.0782
  218MOL0     C29962   1.311   1.851   2.118 -0.2038 -1.4792  0.3814
  218MOL0     N29963   1.410   1.909   2.026 -0.4606  0.0293  0.4669
  218MOL0     C29964   1.406   2.038   1.963 -0.7689  0.6812  0.3306
  218MOL0     C29965   1.527   2.061   1.909 -0.3619  1.4005 -0.7299
  218MOL0     C29966   1.577   2.185   1.844  1.2446  0.1054 -0.2319
  218MOL0     C29967   1.558   2.310   1.932 -0.1942 -0.2955  0.1755
  218MOL0     C29968   1.645   2.322   2.056  0.1958 -0.0100 -0.2521
  218MOL0     C29969   1.635   2.453   2.136  0.2180 -0.0223 -0.2627
  218MOL0     O29970   1.666   2.562   2.046 -0.2362  0.1468 -0.3439
  218MOL0     C29971   1.628   2.696   2.065  0.1173 -0.0730  0.4871
  218MOL0     C29972   1.607   2.747   2.196 -0.8327 -0.5913  0.0176
  218MOL0     C29973   1.563   2.878   2.224  1.5356  0.2777  0.3247
  218MOL0     C29974   1.581   2.912   2.374  0.6464 -0.5536 -0.1633
  218MOL0     C29975   1.524   2.963   2.118  0.2652 -0.7965  0.2555
  218MOL0     C29976   1.472   3.107   2.133 -1.3207  0.1615 -1.0415
  218MOL0     O29977   1.494   3.210   2.027 -0.2035  0.4411 -1.0088
  218MOL0     C29978   1.459   3.338   2.071 -0.7881  0.7527  1.1216
  218MOL0     C29979   1.557   3.406   2.139  0.7488 -1.0077 -0.1149
  218MOL0     C29980   1.525   3.539   2.173  0.3717 -0.2102  0.3632
  218MOL0     C29981   1.397   3.598   2.163 -0.2599  0.6095  0.3190
  218MOL0     O29982   1.355   3.722   2.213  0.2646 -0.4859 -0.6507
  218MOL0     C29983   1.436   3.780   2.316 -0.7117  0.0998  0.0596
  218MOL0     C29984   1.359   3.901   2.374  0.1382 -0.5000 -0.7720
  218MOL0     C29985   1.381   4.008   2.275  1.0421 -1.0142  0.4482
  218MOL0     C29986   1.363   4.149   2.342  0.5415  0.3712 -0.1601
  218MOL0     C29987   1.406   4.260   2.247  0.4190 -0.5029  0.8312
  218MOL0     C29988   1.352   4.393   2.292  0.9323 -0.0897  0.4064
  218MOL0     C29989   1.199   4.420   2.295 -0.3095 -0.9681 -0.0057
  218MOL0     C29990   1.128   4.361   2.172 -0.8676  0.4907  0.1636
  218MOL0    Cl29991   0.953   4.400   2.184 -0.2586 -0.1795  0.0472
  218MOL0     C29992   1.303   3.529   2.092  0.1154 -0.3404  0.1338
  218MOL0     C29993   1.333   3.397   2.043  0.0779  0.6976  0.2279
  218MOL0     O29994   1.389   3.120   2.226 -0.1926  0.3616  0.2313
  218MOL0     C29995   1.546   2.915   1.989 -0.7164 -0.7741 -0.2671
  218MOL0     C29996   1.593   2.778   1.961 -0.4870 -0.6200 -0.5313
  218MOL0     N29997   1.611   1.951   1.942 -0.4329 -0.7931  0.7414
  218MOL0     N29998   1.545   1.869   2.018  0.6106 -0.1464 -0.4358
  218MOL0     C29999   0.812   2.291   2.664  0.0348  0.2015 -0.6459
  218MOL0     C30000   0.785   2.413   2.731  0.8882 -0.8190 -0.0899
  218MOL0     C30001   0.902   2.766   3.002 -0.3469  0.3147 -0.6415
  218MOL0     C30002   0.791   2.763   3.094 -0.4531 -0.0955  0.2691
  218MOL0     C30003   0.780   2.881   3.179 -0.2633 -0.0917  0.0093
  218MOL0     C30004   0.873   2.983   3.183 -0.4816 -0.0061 -0.3868
  218MOL0     O30005   0.875   3.088   3.272  0.1129 -0.0202 -0.7276
  218MOL0     C30006   0.793   3.073   3.389 -0.4746  0.1867 -0.6915
  218MOL0     C30007   0.657   3.125   3.383  0.4586  0.5960  0.7686
  218MOL0     C30008   0.636   3.263   3.320 -0.1600  0.3587  0.0828
  218MOL0     C30009   0.594   3.237   3.175  0.3422  0.1430 -0.7092
  218MOL0     C30010   0.445   3.224   3.168 -0.5456  0.0081  0.6105
  218MOL0     C30011   0.331   3.197   3.151  0.7346 -0.9236 -0.9446
  218MOL0     C30012   0.971   2.979   3.087 -0.5299  0.7691 -0.3705
  218MOL0     C30013   0.997   2.874   3.001 -0.5384  0.1928  1.8120
  218MOL0     C30014   1.108   2.882   2.908 -0.7092 -0.1312 -0.1295
  218MOL0     H30015   0.972   2.358   3.001  1.2252  1.0147 -0.8838
  218MOL0     H30016   1.010   2.146   2.893  1.0952  1.6508  1.7695
  218MOL0     H30017   0.870   1.889   2.751 -1.5222  1.8852 -1.8412
  218MOL0     H30018   1.019   1.984   2.792 -0.1352  0.8783  1.8070
  218MOL0     H30019   0.991   1.877   2.521  3.1777  0.1789 -2.0538
  218MOL0     H30020   1.128   1.951   2.587 -0.3033  1.1545  0.5320
  218MOL0     H30021   1.167   1.784   2.750 -2.9878  0.9840  1.1279
  218MOL0     H30022   1.028   1.681   2.698  0.8451 -0.1845  1.1401
  218MOL0     H30023   1.244   1.587   2.591 -0.9529 -1.6658  0.0140
  218MOL0     H30024   1.116   1.633   2.483 -0.2329 -0.6631  0.7647
  218MOL0     H30025   1.367   1.691   2.425 -1.4762 -1.7697 -0.6324
  218MOL0     H30026   1.343   1.829   2.530 -0.5611  0.4272 -0.0907
  218MOL0     H30027   1.178   1.732   2.295  0.5267 -0.0638  0.1634
  218MOL0     H30028   1.143   1.897   2.387 -0.2455  0.6151  0.3673
  218MOL0     H30029   1.413   1.918   2.295  1.1524 -1.3364 -1.4977
  218MOL0     H30030   1.273   2.013   2.272  1.7073  0.8566  1.9186
  218MOL0     H30031   1.318   1.742   2.108  1.9289 -1.2787 -0.8055
  218MOL0     H30032   1.214   1.863   2.069 -0.3802  1.3421  1.2320
  218MOL0     H30033   1.326   2.111   1.972 -0.9515  0.5374 -0.0840
  218MOL0     H30034   1.511   2.189   1.758 -1.4085  0.3598  1.6962
  218MOL0     H30035   1.683   2.181   1.814  1.9496  1.3695  1.8753
  218MOL0     H30036   1.581   2.398   1.872 -0.4162 -2.0763 -2.6932
  218MOL0     H30037   1.453   2.313   1.962 -0.0838 -2.0172  0.8717
  218MOL0     H30038   1.629   2.239   2.125 -0.3745  0.4177  0.1463
  218MOL0     H30039   1.745   2.301   2.017 -1.0206 -3.6731 -1.7491
  218MOL0     H30040   1.536   2.468   2.180 -0.5194  0.7083 -2.0336
  218MOL0     H30041   1.707   2.439   2.217  2.4403 -3.6481 -2.5767
  218MOL0     H30042   1.634   2.689   2.284 -1.5184 -3.4002 -1.5174
  218MOL0     H30043   1.523   2.841   2.433  0.0357 -0.4704 -0.6598
  218MOL0     H30044   1.559   3.017   2.393 -1.0002 -0.9812  0.4798
  218MOL0     H30045   1.688   2.901   2.396  1.6904  3.4149 -2.3525
  218MOL0     H30046   1.654   3.362   2.160  1.0939  0.0917  0.7034
  218MOL0     H30047   1.597   3.600   2.227 -0.4157  1.8750 -0.8096
  218MOL0     H30048   1.440   3.719   2.406  0.1999 -1.0587 -0.7372
  218MOL0     H30049   1.533   3.798   2.269 -1.1701  0.7797 -0.6543
  218MOL0     H30050   1.258   3.862   2.392  0.1481 -0.6109 -0.9541
  218MOL0     H30051   1.396   3.928   2.474 -3.6000 -0.2000  0.7370
  218MOL0     H30052   1.311   3.992   2.193  1.6550 -0.7064 -0.1411
  218MOL0     H30053   1.478   4.003   2.224  1.5593 -1.7487  1.4590
  218MOL0     H30054   1.433   4.146   2.425  0.0031 -0.2587  0.2805
  218MOL0     H30055   1.261   4.158   2.380  0.4478 -0.1018 -0.2920
  218MOL0     H30056   1.515   4.265   2.255  0.5392 -1.5573  0.0582
  218MOL0     H30057   1.381   4.236   2.143 -1.4307 -2.0913  1.5688
  218MOL0     H30058   1.390   4.467   2.221  0.8030 -0.0151  0.4145
  218MOL0     H30059   1.390   4.409   2.393 -0.9253 -1.1665  1.3311
  218MOL0     H30060   1.198   4.529   2.295  3.5660 -0.7662 -0.4559
  218MOL0     H30061   1.159   4.374   2.385  3.4585  0.4608  2.6737
  218MOL0     H30062   1.133   4.252   2.170 -2.3698  0.3898 -1.8046
  218MOL0     H30063   1.162   4.390   2.072  0.5710  0.6620  0.6766
  218MOL0     H30064   1.201   3.566   2.081  0.9260  3.4435  3.2378
  218MOL0     H30065   1.266   3.326   1.998  2.3213 -1.9024  0.7221
  218MOL0     H30066   1.526   2.979   1.904 -4.6776 -2.4323 -0.7876
  218MOL0     H30067   1.592   2.744   1.858  3.0145 -0.0418 -0.8617
  218MOL0     H30068   0.766   2.273   2.567 -2.9926  2.2562  0.2261
  218MOL0     H30069   0.719   2.493   2.698  1.7841 -0.0297 -0.0010
  218MOL0     H30070   0.717   2.684   3.094 -1.8169  0.9761  3.9168
  218MOL0     H30071   0.693   2.892   3.243  2.8512  4.9648  4.2271
  218MOL0     H30072   0.786   2.969   3.419  1.8598  0.2329  0.1696
  218MOL0     H30073   0.858   3.119   3.464 -0.9353 -0.3406  0.0420
  218MOL0     H30074   0.617   3.136   3.484  0.0195  2.0349  0.4536
  218MOL0     H30075   0.590   3.049   3.341  0.9471  0.2184  0.6539
  218MOL0     H30076   0.558   3.316   3.377 -0.5475 -0.4913  0.3673
  218MOL0     H30077   0.718   3.334   3.334 -2.2503  2.5589  2.4246
  218MOL0     H30078   0.653   3.156   3.132 -0.0323 -0.7964  0.4571
  218MOL0     H30079   0.617   3.323   3.112 -0.5882  0.3810 -0.7449
  218MOL0     H30080   0.232   3.157   3.144  0.5871 -1.6751  3.1216
  218MOL0     H30081   1.054   3.049   3.092  0.6016 -0.5569 -0.0164
  218MOL0     H30082   1.083   2.869   2.802 -0.7025  0.6569 -0.2372
  218MOL0     H30083   1.161   2.978   2.905  1.1714 -1.1209  0.0106
  218MOL0     H30084   1.178   2.802   2.934 -1.6497 -0.7736  0.4574
  219MOL0     O30085  10.016   5.703   3.052  0.4485  0.8068 -0.4546
  219MOL0     C30086   9.982   5.594   3.096  0.8923  0.2696  0.2903
  219MOL0     O30087   9.856   5.537   3.093  0.6272 -0.5806 -0.5908
  219MOL0     C30088   9.758   5.609   3.032 -0.8478  0.0185 -0.3052
  219MOL0     C30089   9.743   5.609   2.892 -0.9494 -0.4371 -0.2606
  219MOL0     C30090   9.652   5.692   2.834 -1.0039 -0.6401 -0.5248
  219MOL0     C30091   9.567   5.771   2.908 -1.0076  0.1264  0.3337
  219MOL0     O30092   9.479   5.851   2.850  0.4275 -0.1811  0.1086
  219MOL0     C30093   9.530   5.928   2.733 -0.4846 -0.5355  0.5501
  219MOL0     C30094   9.420   6.020   2.674  0.4588  0.4151  0.1234
  219MOL0     C30095   9.289   5.943   2.642 -0.4847  0.6660  0.2552
  219MOL0     C30096   9.173   6.026   2.596 -0.1142  0.2036 -0.2722
  219MOL0     C30097   9.200   6.138   2.507  0.0192  1.0648 -0.1321
  219MOL0     C30098   9.262   6.117   2.372 -0.3330 -0.3582 -0.7642
  219MOL0     C30099   9.256   6.246   2.279 -0.4423  0.2511  0.3291
  219MOL0     C30100   9.139   6.264   2.190  0.5650 -0.4341  0.4430
  219MOL0     N30101   9.143   6.400   2.126  0.0162  0.1157  0.6082
  219MOL0     C30102   9.177   6.428   2.000 -1.1294 -0.0066 -0.3159
  219MOL0     C30103   9.135   6.551   1.968  0.0721 -0.1846  0.0995
  219MOL0     C30104   9.145   6.604   1.826 -0.4421 -0.7610 -0.5669
  219MOL0     C30105   9.073   6.743   1.808  0.3036  0.8261  0.4113
  219MOL0     C30106   9.050   6.764   1.658  0.0347  0.6696 -0.0541
  219MOL0     C30107   8.967   6.884   1.623 -0.7928  0.3779  0.2700
  219MOL0     O30108   8.831   6.857   1.659 -0.4216 -0.6372 -0.0010
  219MOL0     C30109   8.738   6.939   1.598  0.4252  0.2551  0.2595
  219MOL0     C30110   8.606   6.912   1.627  0.1622  0.4607 -0.4277
  219MOL0     C30111   8.496   6.982   1.563 -0.2478  0.3988  0.3686
  219MOL0     C30112   8.357   6.917   1.582 -0.3596 -0.0219  0.0792
  219MOL0     C30113   8.517   7.108   1.496 -0.3437  1.3332 -0.2262
  219MOL0     C30114   8.414   7.202   1.452  0.6707 -0.5353 -1.1910
  219MOL0     O30115   8.396   7.314   1.533  0.4721  0.6325 -0.5179
  219MOL0     C30116   8.294   7.409   1.479 -0.4367 -0.5433  0.2004
  219MOL0     C30117   8.334   7.526   1.418  0.4323 -0.4914 -0.1787
  219MOL0     C30118   8.243   7.628   1.384  0.6649  0.3856 -0.3553
  219MOL0     C30119   8.103   7.609   1.394  0.3489 -0.2622  0.5753
  219MOL0     O30120   8.018   7.703   1.340  0.5177 -0.8205 -0.3155
  219MOL0     C30121   7.880   7.677   1.335  0.9553  1.3198 -0.1839
  219MOL0     C30122   7.800   7.797   1.329 -0.4289 -0.3128  0.1263
  219MOL0     C30123   7.690   7.796   1.220 -0.3402 -0.7455 -0.4006
  219MOL0     C30124   7.575   7.883   1.264  0.2896 -0.9454  0.0880
  219MOL0     C30125   7.476   7.926   1.156  0.2839  0.2315 -0.0435
  219MOL0     C30126   7.355   8.007   1.216  0.0272 -0.6131 -0.2316
  219MOL0     C30127   7.256   8.044   1.106 -0.3801  0.2302  0.9087
  219MOL0     C30128   7.145   8.135   1.155  0.6015  0.5069 -0.0403
  219MOL0    Cl30129   7.055   8.173   1.010 -0.6771 -0.0005  0.2509
  219MOL0     C30130   8.064   7.480   1.446 -0.5465  0.2520  0.4227
  219MOL0     C30131   8.162   7.385   1.489  0.0663 -0.2177 -0.0869
  219MOL0     O30132   8.364   7.190   1.341  0.0246  0.2640  0.6060
  219MOL0     C30133   8.654   7.135   1.468 -0.4510  0.7384  0.0470
  219MOL0     C30134   8.757   7.052   1.524 -0.1242  0.5873 -0.2723
  219MOL0     N30135   9.074   6.608   2.082  0.2785  0.2943 -0.4908
  219MOL0     N30136   9.068   6.509   2.171 -0.6705 -0.6308 -0.5183
  219MOL0     C30137   9.567   5.754   3.044  0.4759 -0.9587 -0.0840
  219MOL0     C30138   9.674   5.691   3.103 -0.6851  0.1526  0.3160
  219MOL0     C30139  10.090   5.510   3.164 -0.4658 -0.6999  0.5565
  219MOL0     C30140  10.058   5.387   3.214 -0.6271 -0.0942  0.5453
  219MOL0     C30141  10.151   5.304   3.271  0.2874  0.3638 -0.0078
  219MOL0     C30142  10.292   5.332   3.280  0.2565 -0.3111  0.4785
  219MOL0     O30143  10.363   5.228   3.323 -0.1898  0.1295 -0.5662
  219MOL0     C30144  10.507   5.217   3.314 -0.5556  0.1996 -0.2791
  219MOL0     C30145  10.556   5.143   3.435  0.6026 -0.0009  0.5793
  219MOL0     C30146  10.481   5.027   3.489  0.5131  0.0124 -0.0417
  219MOL0     C30147  10.438   4.910   3.397  0.1411 -0.6163 -0.2091
  219MOL0     C30148  10.559   4.833   3.374  1.0949 -0.3822 -0.6653
  219MOL0     C30149  10.645   4.752   3.364  0.1636 -0.5964  0.9319
  219MOL0     C30150  10.327   5.466   3.242 -0.1330 -0.2655  0.8098
  219MOL0     C30151  10.230   5.547   3.179 -0.4957  0.2021 -0.1011
  219MOL0     C30152  10.286   5.686   3.141  0.1702  0.2979 -1.2707
  219MOL0     H30153   9.814   5.563   2.824 -0.8564  2.8061 -2.5953
  219MOL0     H30154   9.652   5.687   2.725  2.8787 -4.9899 -0.6556
  219MOL0     H30155   9.565   5.857   2.657  1.8180  0.1748  0.8444
  219MOL0     H30156   9.606   5.995   2.775 -0.3536 -0.5633  0.3557
  219MOL0     H30157   9.399   6.092   2.753  0.4785 -1.8091  2.3001
  219MOL0     H30158   9.454   6.060   2.578  2.4943  0.9003  0.9869
  219MOL0     H30159   9.312   5.857   2.579  0.8639  0.8324  0.4969
  219MOL0     H30160   9.270   5.894   2.737  2.7567  0.4618  0.9240
  219MOL0     H30161   9.109   5.954   2.545  0.2658 -0.8750  0.7265
  219MOL0     H30162   9.123   6.062   2.687 -1.6900 -0.8385 -0.6886
  219MOL0     H30163   9.265   6.216   2.549  0.3737  0.1561  1.0663
  219MOL0     H30164   9.100   6.180   2.493 -0.5729 -0.9262 -2.5918
  219MOL0     H30165   9.369   6.109   2.392 -0.7473 -0.3847  1.8881
  219MOL0     H30166   9.227   6.025   2.326  1.8530 -0.6012 -2.0920
  219MOL0     H30167   9.336   6.231   2.205  0.2309 -0.7093  1.2122
  219MOL0     H30168   9.284   6.333   2.339  2.1630  0.9637 -1.7013
  219MOL0     H30169   9.138   6.176   2.125 -1.9109 -0.1145 -0.0537
  219MOL0     H30170   9.053   6.258   2.257 -0.3839 -3.2185 -0.8680
  219MOL0     H30171   9.237   6.363   1.936  0.4895  0.1091  1.0045
  219MOL0     H30172   9.095   6.527   1.767 -0.3663 -1.6937  0.5520
  219MOL0     H30173   9.248   6.589   1.793 -0.3481  0.1159 -0.6924
  219MOL0     H30174   8.987   6.752   1.875  0.6000  5.9740  0.4924
  219MOL0     H30175   9.137   6.823   1.845  0.6746  0.1175  1.3356
  219MOL0     H30176   9.149   6.772   1.613  1.1248  0.1498  2.1519
  219MOL0     H30177   8.987   6.682   1.620 -1.3152  0.6415  2.0508
  219MOL0     H30178   9.011   6.968   1.678 -0.8139  1.2770 -1.0370
  219MOL0     H30179   8.978   6.902   1.516 -0.6612 -1.6806 -0.0893
  219MOL0     H30180   8.577   6.831   1.694  1.9118 -1.1034 -1.4759
  219MOL0     H30181   8.361   6.860   1.676  1.5587 -3.4186 -1.8482
  219MOL0     H30182   8.336   6.847   1.500 -0.5727 -0.9201  0.8799
  219MOL0     H30183   8.275   6.990   1.582 -0.8969 -0.5610 -1.8043
  219MOL0     H30184   8.440   7.535   1.394  0.3210  1.7604 -0.0481
  219MOL0     H30185   8.281   7.716   1.333  1.0244  0.6903  0.4356
  219MOL0     H30186   7.859   7.628   1.239 -0.2848  0.1830  0.6405
  219MOL0     H30187   7.838   7.624   1.420 -0.8988  2.9290 -0.0416
  219MOL0     H30188   7.745   7.803   1.423  0.8708 -0.2930  0.9237
  219MOL0     H30189   7.861   7.888   1.322  0.3047 -0.9244 -5.0461
  219MOL0     H30190   7.654   7.699   1.187  0.7589 -0.0110 -4.3099
  219MOL0     H30191   7.718   7.842   1.124  0.0356  3.0165  1.3388
  219MOL0     H30192   7.621   7.976   1.299  1.3378 -2.0472  1.8081
  219MOL0     H30193   7.520   7.824   1.338 -1.3476 -2.3882 -2.1546
  219MOL0     H30194   7.523   7.971   1.068 -1.8647 -0.5713 -1.6720
  219MOL0     H30195   7.445   7.828   1.119 -0.1380 -0.6754  2.5324
  219MOL0     H30196   7.381   8.100   1.266 -0.7806 -1.7299  2.4666
  219MOL0     H30197   7.310   7.936   1.286  0.6040 -2.0534 -1.2558
  219MOL0     H30198   7.200   7.959   1.065  0.1951  0.9037 -1.4163
  219MOL0     H30199   7.305   8.103   1.028 -0.4121  0.2523  0.9052
  219MOL0     H30200   7.187   8.228   1.195  2.3678 -0.0945 -0.4402
  219MOL0     H30201   7.071   8.093   1.225 -1.9127  4.8189  0.2836
  219MOL0     H30202   7.962   7.446   1.429 -1.2827  3.6079 -3.4174
  219MOL0     H30203   8.132   7.291   1.534  1.3833  0.7852  3.1973
  219MOL0     H30204   8.686   7.221   1.409  0.7974  0.2181 -0.0801
  219MOL0     H30205   8.860   7.071   1.498  0.7994 -2.3956  0.8378
  219MOL0     H30206   9.497   5.819   3.095 -0.1517 -2.2927  0.8127
  219MOL0     H30207   9.699   5.696   3.209  1.2853  3.6227 -0.1718
  219MOL0     H30208   9.960   5.342   3.200 -1.4519  1.7515  0.1493
  219MOL0     H30209  10.112   5.203   3.285  2.2433 -0.6111 -1.2302
  219MOL0     H30210  10.543   5.151   3.235 -0.5118 -1.3919  1.0068
  219MOL0     H30211  10.553   5.315   3.297 -2.6413  1.0474 -1.4243
  219MOL0     H30212  10.577   5.218   3.512  0.4664  0.5494  0.0898
  219MOL0     H30213  10.653   5.096   3.415  0.3712 -0.6249  0.8886
  219MOL0     H30214  10.542   4.988   3.571 -0.6412  1.9437  1.8070
  219MOL0     H30215  10.386   5.057   3.533  0.5491  1.0091 -0.6199
  219MOL0     H30216  10.399   4.948   3.302  0.8229  2.0965  0.5066
  219MOL0     H30217  10.356   4.857   3.446 -1.0450  2.1253  0.9941
  219MOL0     H30218  10.706   4.670   3.333 -1.4030 -1.5930  0.3807
  219MOL0     H30219  10.425   5.504   3.267 -1.2690  2.9952  0.7900
  219MOL0     H30220  10.210   5.764   3.151 -0.4279 -0.4595  0.1963
  219MOL0     H30221  10.374   5.720   3.197 -0.3108 -1.7774  0.8453
  219MOL0     H30222  10.314   5.683   3.035  1.0998  0.2992 -1.0382
  220MOL0     O30223   0.277   7.931   0.568  0.0568 -0.3367  0.4328
  220MOL0     C30224   0.168   7.983   0.537  0.0510  1.4068  0.1185
  220MOL0     O30225   0.068   8.012   0.615  0.4448  1.2664  0.2672
  220MOL0     C30226   0.074   7.966   0.737  0.0058 -0.4185  0.1243
  220MOL0     C30227   0.162   8.030   0.828  0.0946 -0.8872 -0.6764
  220MOL0     C30228   0.176   7.981   0.959 -0.3314  0.1597  0.4769
  220MOL0     C30229   0.102   7.863   0.993 -0.2098  0.5441  0.3621
  220MOL0     O30230   0.084   7.821   1.129 -0.2240  0.4021  0.4579
  220MOL0     C30231   0.169   7.873   1.237  0.2772 -0.1815 -0.3389
  220MOL0     C30232   0.122   7.805   1.365 -0.3551  0.9873 -0.8413
  220MOL0     C30233  -0.003   7.883   1.425 -0.5328 -0.8415 -0.0541
  220MOL0     C30234   0.046   8.015   1.500 -0.2203 -0.0035 -1.1998
  220MOL0     C30235  -0.073   8.082   1.554  0.7718  0.1602  0.3532
  220MOL0     C30236  -0.043   8.168   1.679  0.9589  0.0973  0.4137
  220MOL0     C30237  -0.172   8.241   1.709  0.2112  0.7170 -0.0399
  220MOL0     C30238  -0.157   8.339   1.821 -0.8301 -0.0818  0.1776
  220MOL0     N30239  -0.059   8.447   1.801 -0.2356  1.3136  0.3309
  220MOL0     C30240   0.068   8.443   1.847 -0.4309  0.6083 -0.2192
  220MOL0     C30241   0.122   8.563   1.810  0.1272  0.1383 -0.9016
  220MOL0     C30242   0.261   8.619   1.823  0.1430 -0.6025 -0.2857
  220MOL0     C30243   0.341   8.578   1.698 -0.6198  0.1495  0.1930
  220MOL0     C30244   0.475   8.642   1.685 -1.4959 -0.3285  1.3027
  220MOL0     C30245   0.579   8.614   1.787 -0.2488  0.1340 -0.6944
  220MOL0     O30246   0.697   8.700   1.780 -0.9289  0.7724  0.3239
  220MOL0     C30247   0.788   8.704   1.886 -0.7761  0.7074 -0.5446
  220MOL0     C30248   0.863   8.590   1.899 -0.5535 -1.2095  0.6190
  220MOL0     C30249   0.977   8.590   1.980 -0.0289 -0.7194  0.3351
  220MOL0     C30250   1.040   8.456   2.004 -0.1641  0.4154 -0.5853
  220MOL0     C30251   1.011   8.707   2.046 -1.1236 -0.7164  0.1706
  220MOL0     C30252   1.135   8.722   2.122  0.2423  0.3759 -0.1834
  220MOL0     O30253   1.233   8.643   2.081 -0.5954 -0.3555 -0.2715
  220MOL0     C30254   1.333   8.611   2.185  0.5624  0.0944 -0.5612
  220MOL0     C30255   1.367   8.474   2.179  0.2330 -1.0489  0.3968
  220MOL0     C30256   1.457   8.419   2.272 -0.0825 -0.1640 -1.0646
  220MOL0     C30257   1.493   8.500   2.385 -0.8806 -0.9331  0.0682
  220MOL0     O30258   1.553   8.448   2.497  0.7894  0.7211  0.0397
  220MOL0     C30259   1.593   8.311   2.514 -0.0050  0.3846 -0.4241
  220MOL0     C30260   1.489   8.217   2.587  0.6069 -0.1152  0.3452
  220MOL0     C30261   1.546   8.069   2.601 -0.7701 -0.0842 -0.6504
  220MOL0     C30262   1.438   7.974   2.667 -0.4079  0.4159 -0.5065
  220MOL0     C30263   1.489   7.826   2.666 -0.2232  0.3733 -0.7370
  220MOL0     C30264   1.390   7.736   2.742  0.4659 -0.0140 -0.3243
  220MOL0     C30265   1.433   7.585   2.743 -0.7786  0.6085  0.3187
  220MOL0     C30266   1.356   7.487   2.847 -0.4306  0.2144 -0.0769
  220MOL0    Cl30267   1.410   7.537   3.013 -0.0515 -0.2458  0.1177
  220MOL0     C30268   1.459   8.638   2.382 -0.0443  0.7537  0.2612
  220MOL0     C30269   1.383   8.695   2.283 -1.1110  0.8322  0.6096
  220MOL0     O30270   1.131   8.796   2.215  0.2650 -0.0502 -0.2729
  220MOL0     C30271   0.932   8.823   2.046  0.8654  0.3359 -0.4113
  220MOL0     C30272   0.816   8.815   1.959 -0.5783 -0.0731 -0.7303
  220MOL0     N30273   0.019   8.634   1.749 -0.0171  0.9514  0.1761
  220MOL0     N30274  -0.088   8.567   1.753 -0.5269 -0.6541 -0.2459
  220MOL0     C30275   0.015   7.805   0.899 -0.1172  0.2375 -0.5920
  220MOL0     C30276   0.001   7.858   0.771  1.0156  0.5265 -0.0607
  220MOL0     C30277   0.157   8.037   0.406 -0.1129 -0.2569 -0.2823
  220MOL0     C30278   0.030   8.023   0.332 -0.6152 -0.4009 -1.2241
  220MOL0     C30279   0.010   8.061   0.202 -0.2070 -0.7487 -0.1867
  220MOL0     C30280   0.120   8.118   0.138  1.2028  0.1272  0.2115
  220MOL0     O30281   0.087   8.171   0.011  0.0539 -0.3056  0.6857
  220MOL0     C30282   0.156   8.285  -0.040 -0.4729  0.8140 -0.1997
  220MOL0     C30283   0.130   8.411   0.032  0.3352  0.1682  0.7040
  220MOL0     C30284  -0.018   8.426   0.079  0.9548 -0.5754  0.1387
  220MOL0     C30285  -0.108   8.472  -0.042  0.4611 -1.3536 -0.0760
  220MOL0     C30286  -0.243   8.504   0.010  0.1478 -0.1296 -1.3363
  220MOL0     C30287  -0.354   8.521   0.059 -0.7644 -0.5991  0.3698
  220MOL0     C30288   0.241   8.136   0.207  0.0318  0.0547  0.1741
  220MOL0     C30289   0.263   8.093   0.334 -0.1421 -0.1766 -0.3670
  220MOL0     C30290   0.397   8.109   0.390  0.0791 -0.1842 -0.5075
  220MOL0     H30291   0.211   8.124   0.803 -0.2524  0.6060  3.3783
  220MOL0     H30292   0.226   8.030   1.042 -1.9663 -2.1900  3.0464
  220MOL0     H30293   0.162   7.982   1.246  1.1273  0.2515 -3.6434
  220MOL0     H30294   0.273   7.839   1.225 -0.2818 -2.1074 -0.0940
  220MOL0     H30295   0.098   7.700   1.344  1.4619  0.4489 -0.4186
  220MOL0     H30296   0.213   7.803   1.425 -0.7478  1.5707 -0.2199
  220MOL0     H30297  -0.070   7.913   1.344  0.5161  1.4834 -0.1471
  220MOL0     H30298  -0.063   7.822   1.492 -0.0704 -2.8450 -1.3874
  220MOL0     H30299   0.114   7.989   1.582  0.0285  2.1729 -0.6733
  220MOL0     H30300   0.101   8.071   1.425  1.7969 -0.6145 -0.2524
  220MOL0     H30301  -0.157   8.017   1.581  1.7919  0.3993  4.9437
  220MOL0     H30302  -0.115   8.142   1.472 -2.0783 -2.7346 -0.5020
  220MOL0     H30303  -0.010   8.103   1.761 -0.0965 -0.0007  0.7797
  220MOL0     H30304   0.034   8.241   1.655  0.9977 -0.1850 -0.3563
  220MOL0     H30305  -0.248   8.172   1.748  2.1927 -0.7143  1.4963
  220MOL0     H30306  -0.201   8.298   1.620 -0.4705  3.9889  2.0923
  220MOL0     H30307  -0.258   8.377   1.831 -0.2306  2.1305 -1.4489
  220MOL0     H30308  -0.128   8.282   1.910  2.0260 -1.3266 -1.3932
  220MOL0     H30309   0.119   8.358   1.891  2.4006  0.5542 -3.2909
  220MOL0     H30310   0.286   8.571   1.918 -5.5401 -3.1494  0.3448
  220MOL0     H30311   0.258   8.727   1.833 -1.3719 -0.5939 -0.5853
  220MOL0     H30312   0.352   8.471   1.678  1.0019  0.6807 -2.2791
  220MOL0     H30313   0.293   8.606   1.603  3.2917 -1.3237 -2.4974
  220MOL0     H30314   0.518   8.631   1.585  1.4497 -0.3545  2.4702
  220MOL0     H30315   0.455   8.748   1.703 -0.3743  0.6365 -2.1543
  220MOL0     H30316   0.547   8.639   1.889  0.3036 -2.9027  0.3269
  220MOL0     H30317   0.589   8.507   1.804  0.2159  0.0801 -1.2923
  220MOL0     H30318   0.837   8.499   1.844  1.2084 -0.2551 -2.0148
  220MOL0     H30319   1.119   8.446   2.078 -0.5414  1.2673 -0.0503
  220MOL0     H30320   1.085   8.419   1.911 -1.6808  0.7589 -1.4994
  220MOL0     H30321   0.955   8.389   2.020 -0.4320  1.0248  0.6277
  220MOL0     H30322   1.331   8.403   2.105  1.7448  1.7873 -3.3628
  220MOL0     H30323   1.486   8.316   2.255 -0.5209 -0.0769 -2.4544
  220MOL0     H30324   1.626   8.266   2.420  0.0723  0.6578 -0.5290
  220MOL0     H30325   1.682   8.312   2.578  0.9513 -1.0355 -1.6371
  220MOL0     H30326   1.473   8.253   2.690  2.2716  4.7657 -0.8290
  220MOL0     H30327   1.402   8.204   2.523  0.2676 -0.9176  0.9471
  220MOL0     H30328   1.638   8.072   2.659 -1.1981 -2.5276  0.2534
  220MOL0     H30329   1.572   8.039   2.499 -0.9786 -1.1931 -0.3892
  220MOL0     H30330   1.348   7.980   2.606 -0.8278 -2.0905 -0.2374
  220MOL0     H30331   1.421   8.001   2.771  2.5553 -2.3029  0.8706
  220MOL0     H30332   1.487   7.779   2.567 -3.0206 -0.7654 -0.2325
  220MOL0     H30333   1.585   7.815   2.718 -0.7219 -0.8569 -0.0381
  220MOL0     H30334   1.284   7.744   2.716 -1.2987 -5.4386  3.3717
  220MOL0     H30335   1.388   7.775   2.845 -1.8140 -1.5642  0.3097
  220MOL0     H30336   1.541   7.570   2.753 -0.8428 -0.5485 -0.5389
  220MOL0     H30337   1.410   7.558   2.639  0.3626  1.6240 -0.2330
  220MOL0     H30338   1.381   7.382   2.833 -1.4459 -0.2389  1.2939
  220MOL0     H30339   1.249   7.498   2.827 -0.3064 -0.7677 -1.3703
  220MOL0     H30340   1.512   8.692   2.460  0.0206  0.9624  0.0743
  220MOL0     H30341   1.384   8.804   2.285  1.7581  0.8892  0.4672
  220MOL0     H30342   0.950   8.923   2.084 -1.2933  0.8623 -0.6456
  220MOL0     H30343   0.758   8.900   1.925 -0.8507 -0.3880 -1.0513
  220MOL0     H30344  -0.057   7.735   0.940  0.2262  0.5412  0.5842
  220MOL0     H30345  -0.067   7.813   0.700  0.9998  0.3173  0.0859
  220MOL0     H30346  -0.042   7.958   0.379 -0.1283 -2.1367 -2.7351
  220MOL0     H30347  -0.086   8.058   0.153 -0.5127  1.6251  0.1889
  220MOL0     H30348   0.265   8.279  -0.037 -0.3384  2.0568 -1.6072
  220MOL0     H30349   0.135   8.303  -0.146  0.2157 -0.5759 -0.6085
  220MOL0     H30350   0.182   8.498  -0.009  0.2325 -0.8487 -1.7303
  220MOL0     H30351   0.179   8.408   0.130 -0.3498 -2.0787  1.0209
  220MOL0     H30352  -0.062   8.335   0.121 -1.9356  0.5114 -0.2469
  220MOL0     H30353  -0.027   8.491   0.167  1.4250  0.2879 -0.4344
  220MOL0     H30354  -0.121   8.401  -0.124  2.1020 -1.5936 -0.1616
  220MOL0     H30355  -0.074   8.563  -0.094 -0.8439 -1.5035 -1.2265
  220MOL0     H30356  -0.454   8.545   0.089 -1.5124 -3.6780  0.6858
  220MOL0     H30357   0.324   8.183   0.156 -0.1454  2.0846  1.6263
  220MOL0     H30358   0.442   8.198   0.346 -1.5033  0.8355 -0.1561
  220MOL0     H30359   0.393   8.123   0.499  1.9996  0.1958 -0.4656
  220MOL0     H30360   0.447   8.014   0.369  0.4010 -0.0366 -0.4035
  221MOL0     O30361   4.412   3.304   1.938 -0.2236 -0.3797 -0.8379
  221MOL0     C30362   4.495   3.353   1.863  0.0235 -0.5027  0.4926
  221MOL0     O30363   4.623   3.310   1.843 -0.5932 -0.1163 -0.4672
  221MOL0     C30364   4.660   3.199   1.908 -0.0701  0.8195 -0.6077
  221MOL0     C30365   4.645   3.062   1.851 -0.2353  0.1528 -0.4215
  221MOL0     C30366   4.689   2.948   1.922 -0.1089  0.4692  0.4827
  221MOL0     C30367   4.767   2.958   2.040  0.2442  0.6201  0.1750
  221MOL0     O30368   4.802   2.835   2.097  1.6129  0.7096 -0.2824
  221MOL0     C30369   4.904   2.847   2.194 -0.4423  1.2580  0.8163
  221MOL0     C30370   4.954   2.709   2.245 -0.2563 -0.8522  0.5577
  221MOL0     C30371   4.981   2.710   2.379 -0.2064 -0.2457 -0.4481
  221MOL0     C30372   5.047   2.583   2.434 -0.7873 -0.1085  0.1111
  221MOL0     C30373   5.197   2.568   2.410  1.0193 -0.5563  0.3701
  221MOL0     C30374   5.244   2.416   2.415  0.2611 -0.4873  0.3359
  221MOL0     C30375   5.381   2.411   2.360 -0.0841 -0.4466 -0.0057
  221MOL0     C30376   5.505   2.489   2.413  0.1432 -0.3467 -0.2084
  221MOL0     N30377   5.567   2.427   2.533 -0.7280 -0.8611  1.3602
  221MOL0     C30378   5.658   2.317   2.522 -0.1969 -0.9783  1.1037
  221MOL0     C30379   5.699   2.303   2.650  0.0824  0.0694 -0.3764
  221MOL0     C30380   5.794   2.194   2.704  0.1390 -0.4779 -0.1153
  221MOL0     C30381   5.792   2.200   2.851 -0.1766 -0.9058 -0.4171
  221MOL0     C30382   5.885   2.078   2.901 -0.3623  0.0689  0.2446
  221MOL0     C30383   6.032   2.096   2.876  0.4627 -0.0796 -0.2881
  221MOL0     O30384   6.088   2.225   2.900  0.1754  0.0223 -0.1047
  221MOL0     C30385   6.231   2.225   2.907 -0.2570  1.5612  1.2405
  221MOL0     C30386   6.310   2.143   2.836  0.2448 -0.2254 -0.8817
  221MOL0     C30387   6.448   2.143   2.854  0.8539  0.4880  0.7064
  221MOL0     C30388   6.527   2.060   2.754 -0.0109  0.2379 -0.1205
  221MOL0     C30389   6.507   2.229   2.940  0.1636  0.1102  0.1590
  221MOL0     C30390   6.647   2.235   2.971 -0.1301  0.9384 -0.5659
  221MOL0     O30391   6.691   2.149   3.064  0.4533 -0.6476  0.2130
  221MOL0     C30392   6.824   2.112   3.039 -0.9365  0.7504  0.1025
  221MOL0     C30393   6.936   2.173   3.092  0.4131  0.1385  0.0553
  221MOL0     C30394   7.067   2.129   3.071  0.8659 -0.8560  1.3905
  221MOL0     C30395   7.093   2.031   2.973  0.8724  0.5731  0.6734
  221MOL0     O30396   7.204   1.992   2.920  0.0058 -0.0952  0.1757
  221MOL0     C30397   7.310   2.088   2.939  0.9537 -0.0018  0.3957
  221MOL0     C30398   7.415   2.065   2.838  0.5160  0.4226 -0.1846
  221MOL0     C30399   7.363   2.053   2.693 -0.3115  0.0494  0.8877
  221MOL0     C30400   7.291   2.170   2.629 -0.0809 -0.3484  0.2694
  221MOL0     C30401   7.377   2.293   2.614  0.1597 -0.9337 -0.8454
  221MOL0     C30402   7.316   2.401   2.516  0.2801 -0.6198 -0.7165
  221MOL0     C30403   7.321   2.360   2.370  0.2082 -0.1253 -0.0185
  221MOL0     C30404   7.269   2.475   2.280 -0.2564  0.8412 -0.0342
  221MOL0    Cl30405   7.397   2.607   2.284  0.2739  0.0262 -0.2256
  221MOL0     C30406   6.978   1.972   2.901 -0.0379 -0.1224 -0.5957
  221MOL0     C30407   6.847   2.006   2.947  0.9750  0.2630  0.7927
  221MOL0     O30408   6.715   2.308   2.903 -0.0506  0.3985 -0.0463
  221MOL0     C30409   6.427   2.315   3.017  1.2588  0.9352  0.0310
  221MOL0     C30410   6.294   2.321   2.989  0.3134  0.4625 -1.0204
  221MOL0     N30411   5.646   2.406   2.727 -0.0804  0.1323  0.4274
  221MOL0     N30412   5.558   2.474   2.658  0.0415  0.2802  0.5502
  221MOL0     C30413   4.790   3.086   2.089 -0.5834 -1.0155 -0.2634
  221MOL0     C30414   4.731   3.203   2.025 -0.0630  0.2989 -0.2795
  221MOL0     C30415   4.451   3.470   1.787  0.6254  0.0087  0.2446
  221MOL0     C30416   4.540   3.586   1.778  0.3628  0.2041 -0.4900
  221MOL0     C30417   4.504   3.693   1.696 -0.2018  0.4997  0.5972
  221MOL0     C30418   4.383   3.686   1.629  0.3811  0.0691  0.2909
  221MOL0     O30419   4.342   3.782   1.541  0.5754 -0.3910 -0.1338
  221MOL0     C30420   4.435   3.877   1.487  0.1450 -0.0999  0.3126
  221MOL0     C30421   4.447   4.008   1.567 -0.0577 -0.1112 -0.4609
  221MOL0     C30422   4.324   4.084   1.599  0.1260 -0.4442  0.2620
  221MOL0     C30423   4.245   4.015   1.706 -1.8477  0.0214  0.9113
  221MOL0     C30424   4.149   4.105   1.761 -0.1987 -0.4134 -0.9894
  221MOL0     C30425   4.055   4.173   1.812  0.4557  0.3713 -0.5288
  221MOL0     C30426   4.306   3.577   1.644  1.2067  0.5270 -0.0734
  221MOL0     C30427   4.329   3.467   1.718 -1.0933 -0.0162 -0.0023
  221MOL0     C30428   4.237   3.343   1.696 -0.4494  0.8397  0.1094
  221MOL0     H30429   4.603   3.060   1.751 -1.2810 -1.5324  0.0112
  221MOL0     H30430   4.681   2.854   1.867 -0.3757  0.7978 -0.0432
  221MOL0     H30431   4.881   2.905   2.284 -1.0755 -1.4988  2.5449
  221MOL0     H30432   4.983   2.900   2.140 -0.3916  3.6342  3.0096
  221MOL0     H30433   4.878   2.632   2.232 -0.2058 -0.7370 -0.5268
  221MOL0     H30434   5.035   2.673   2.181 -1.3949  0.7954 -1.9828
  221MOL0     H30435   5.040   2.796   2.410 -0.9325 -0.7850  2.7669
  221MOL0     H30436   4.891   2.728   2.438  2.0183 -0.3083  3.3240
  221MOL0     H30437   5.023   2.573   2.540 -0.9439 -1.3025 -0.0216
  221MOL0     H30438   4.994   2.501   2.384  1.4261 -0.4872 -1.7844
  221MOL0     H30439   5.258   2.624   2.482  0.7970 -1.1757  1.0620
  221MOL0     H30440   5.218   2.597   2.307 -3.6780 -1.2030 -0.9625
  221MOL0     H30441   5.260   2.385   2.519 -0.1505 -0.6804  0.3416
  221MOL0     H30442   5.170   2.358   2.360 -1.6208  2.2810 -0.2363
  221MOL0     H30443   5.367   2.447   2.258  1.4598 -2.0234 -0.8241
  221MOL0     H30444   5.417   2.308   2.350 -3.0585 -1.5809 -0.0744
  221MOL0     H30445   5.574   2.501   2.329  0.4557  0.0864  0.1060
  221MOL0     H30446   5.475   2.589   2.444 -0.7753 -0.5536 -0.4065
  221MOL0     H30447   5.662   2.249   2.437 -0.1052  0.5838 -0.2078
  221MOL0     H30448   5.893   2.199   2.658 -1.2629  2.6200 -3.1835
  221MOL0     H30449   5.771   2.093   2.668  1.0978  0.6959 -4.6337
  221MOL0     H30450   5.820   2.301   2.883 -2.3896 -0.5867  0.6934
  221MOL0     H30451   5.689   2.183   2.884 -0.3203 -2.8236 -1.6825
  221MOL0     H30452   5.872   2.044   3.004 -0.3211 -0.4864  0.0696
  221MOL0     H30453   5.843   1.992   2.847  0.6089  0.3705 -1.0404
  221MOL0     H30454   6.079   2.023   2.943 -0.1639  1.8720  2.4737
  221MOL0     H30455   6.033   2.082   2.768 -1.7379  0.5890 -0.4325
  221MOL0     H30456   6.262   2.068   2.774 -1.5340 -1.1174  1.3952
  221MOL0     H30457   6.506   1.955   2.778 -2.3990  1.6314  5.3268
  221MOL0     H30458   6.633   2.088   2.764 -0.0030  1.3368 -2.4820
  221MOL0     H30459   6.493   2.071   2.651 -0.7048 -6.6949 -1.1175
  221MOL0     H30460   6.915   2.254   3.161  0.3651 -0.6627  1.0019
  221MOL0     H30461   7.144   2.192   3.114 -2.2104  4.1502  0.3375
  221MOL0     H30462   7.276   2.189   2.917  0.9810  0.3079  1.6975
  221MOL0     H30463   7.341   2.069   3.042  1.9740  2.0162  0.5043
  221MOL0     H30464   7.505   2.127   2.831  1.3172 -0.6128  0.6700
  221MOL0     H30465   7.468   1.974   2.866  0.2166  0.7831  1.6690
  221MOL0     H30466   7.287   1.973   2.692 -1.5117  1.1554 -0.2426
  221MOL0     H30467   7.454   2.025   2.640 -0.6393  2.8180 -1.3244
  221MOL0     H30468   7.197   2.201   2.674  0.2660  2.6027 -0.8576
  221MOL0     H30469   7.265   2.122   2.534 -1.6049  0.3805  0.2971
  221MOL0     H30470   7.392   2.344   2.709  1.5627 -2.2814 -0.3195
  221MOL0     H30471   7.472   2.264   2.569 -0.2765  0.5425 -2.8895
  221MOL0     H30472   7.371   2.494   2.527  0.0609 -0.6357  0.6386
  221MOL0     H30473   7.213   2.421   2.547  1.2451  1.5624  1.3279
  221MOL0     H30474   7.266   2.270   2.341  1.1550 -0.2005 -1.6913
  221MOL0     H30475   7.424   2.363   2.335 -0.1790 -0.7787 -1.3099
  221MOL0     H30476   7.174   2.509   2.324 -0.1044  0.1505  0.8569
  221MOL0     H30477   7.265   2.441   2.177  1.2168 -4.8341  1.4452
  221MOL0     H30478   7.004   1.889   2.836 -0.0828 -0.1436 -0.5861
  221MOL0     H30479   6.763   1.954   2.901 -0.6886  2.5743  1.0563
  221MOL0     H30480   6.472   2.399   3.069  0.7411  0.3052  1.5650
  221MOL0     H30481   6.226   2.396   3.028 -0.9700 -1.3417  0.3432
  221MOL0     H30482   4.852   3.106   2.176  2.7143 -0.2389 -2.5640
  221MOL0     H30483   4.740   3.306   2.057 -2.9246  0.4770  0.2485
  221MOL0     H30484   4.637   3.590   1.828 -0.5180 -1.3069  1.4847
  221MOL0     H30485   4.565   3.783   1.693 -1.3384  1.3114 -2.7804
  221MOL0     H30486   4.531   3.829   1.464  0.5058  0.8315 -0.1990
  221MOL0     H30487   4.401   3.918   1.392  2.7423 -0.5240 -0.8916
  221MOL0     H30488   4.513   4.070   1.506  3.1179 -0.8350  1.9972
  221MOL0     H30489   4.487   3.996   1.668  1.3014 -1.3003 -1.0988
  221MOL0     H30490   4.349   4.185   1.634  1.3998 -0.5097 -0.3973
  221MOL0     H30491   4.266   4.104   1.508  0.1632 -0.1906  0.2910
  221MOL0     H30492   4.315   3.987   1.785  1.5672  3.6236 -0.4889
  221MOL0     H30493   4.188   3.929   1.669  2.0750 -2.1579 -0.6371
  221MOL0     H30494   3.982   4.240   1.853 -0.3869  0.4393 -2.0355
  221MOL0     H30495   4.209   3.576   1.594  0.4232 -1.4900  1.4073
  221MOL0     H30496   4.298   3.255   1.672 -1.3896 -0.8620  3.3686
  221MOL0     H30497   4.173   3.326   1.784 -1.7229 -1.3928 -1.1294
  221MOL0     H30498   4.167   3.353   1.612 -2.2839 -3.7939  0.7783
  222MOL0     O30499   5.686   8.599   1.562  0.0316 -0.6794  0.3886
  222MOL0     C30500   5.627   8.557   1.460  0.1160  0.0163 -0.4157
  222MOL0     O30501   5.515   8.487   1.463  0.0745 -0.5094 -0.4909
  222MOL0     C30502   5.468   8.413   1.571  0.8811  0.6220 -1.5250
  222MOL0     C30503   5.346   8.346   1.547  0.5096  0.5820 -0.3154
  222MOL0     C30504   5.292   8.260   1.644 -0.5558 -0.4695 -0.1313
  222MOL0     C30505   5.371   8.212   1.753  0.8906  0.7505  0.7592
  222MOL0     O30506   5.318   8.108   1.834  0.1744 -0.5382 -0.4421
  222MOL0     C30507   5.352   8.091   1.972 -0.6463 -0.4240 -1.1428
  222MOL0     C30508   5.232   8.017   2.022  0.8194  1.0969  0.0470
  222MOL0     C30509   5.233   8.027   2.179  0.1567  0.3117 -0.1445
  222MOL0     C30510   5.243   7.888   2.256  0.1637  0.9060 -0.1993
  222MOL0     C30511   5.363   7.806   2.222 -0.1965  0.2849  0.4261
  222MOL0     C30512   5.391   7.684   2.309 -0.4031 -0.1767 -0.8488
  222MOL0     C30513   5.313   7.562   2.264 -0.2819  0.1145  0.1700
  222MOL0     C30514   5.294   7.469   2.376 -0.0021  0.2081  0.9688
  222MOL0     N30515   5.424   7.442   2.435 -0.2403 -0.2470  0.4882
  222MOL0     C30516   5.470   7.474   2.562 -0.3110 -0.4732  0.9161
  222MOL0     C30517   5.576   7.409   2.597  0.0352  0.1250  0.0028
  222MOL0     C30518   5.653   7.409   2.724  0.0121 -0.2670  0.0034
  222MOL0     C30519   5.776   7.330   2.697 -0.3747 -0.0629 -0.9044
  222MOL0     C30520   5.888   7.352   2.797  0.6095  0.4766  0.1137
  222MOL0     C30521   6.031   7.308   2.734 -0.6566 -0.3972 -0.0682
  222MOL0     O30522   6.057   7.382   2.613 -0.4449  0.1943 -0.3765
  222MOL0     C30523   6.091   7.312   2.504  1.1879  0.5756  0.1016
  222MOL0     C30524   6.019   7.324   2.380  0.3800 -0.7508 -0.1474
  222MOL0     C30525   6.060   7.258   2.261 -0.1467  0.1457  0.1220
  222MOL0     C30526   5.985   7.300   2.136  0.9667 -0.0103 -0.3559
  222MOL0     C30527   6.156   7.156   2.274  0.4076 -0.3135  0.9280
  222MOL0     C30528   6.212   7.084   2.157  0.0977  0.3160  0.4824
  222MOL0     O30529   6.205   7.148   2.038  0.1969 -0.0050 -0.5821
  222MOL0     C30530   6.233   7.090   1.915  0.0701 -0.3044  0.2223
  222MOL0     C30531   6.310   7.160   1.816  0.1490  0.7361 -0.5381
  222MOL0     C30532   6.344   7.104   1.687  0.2428 -0.4510  0.2568
  222MOL0     C30533   6.287   6.976   1.654 -0.5291  0.0854  1.4770
  222MOL0     O30534   6.314   6.908   1.535  0.0245  0.7096 -0.3158
  222MOL0     C30535   6.445   6.922   1.488  0.2037 -0.0448  0.3963
  222MOL0     C30536   6.452   7.015   1.363  0.7053  0.3161 -0.1502
  222MOL0     C30537   6.578   6.971   1.281  0.5780 -0.5906 -0.2652
  222MOL0     C30538   6.609   7.030   1.142  0.9404  0.3335  0.5032
  222MOL0     C30539   6.742   6.997   1.084 -0.6744 -0.0637  0.1293
  222MOL0     C30540   6.764   7.058   0.946 -0.3500 -0.6053  1.0811
  222MOL0     C30541   6.898   7.014   0.894 -1.1135 -0.1332  0.4342
  222MOL0     C30542   6.934   7.038   0.749  0.4360 -0.2454 -0.5976
  222MOL0    Cl30543   6.911   7.200   0.701  0.3509  0.5451  0.0384
  222MOL0     C30544   6.212   6.906   1.745  0.2594 -0.1547  0.0079
  222MOL0     C30545   6.181   6.963   1.871 -0.5725  0.9660 -0.4338
  222MOL0     O30546   6.250   6.972   2.166  0.7837  0.8348 -0.8592
  222MOL0     C30547   6.212   7.123   2.400  0.0894 -0.5868 -0.0277
  222MOL0     C30548   6.186   7.203   2.512 -0.1992  0.2071  0.4904
  222MOL0     N30549   5.610   7.333   2.473 -1.0595  0.1304 -0.8765
  222MOL0     N30550   5.527   7.367   2.380  0.2933 -0.6416  0.3316
  222MOL0     C30551   5.480   8.293   1.787  0.3300  0.3714 -0.4879
  222MOL0     C30552   5.528   8.397   1.700 -0.2322  0.9276 -0.7984
  222MOL0     C30553   5.664   8.618   1.328 -0.2813  0.8623  0.3653
  222MOL0     C30554   5.715   8.747   1.318  0.7715  0.8058  0.3287
  222MOL0     C30555   5.732   8.807   1.192 -0.7183 -0.6454 -0.5116
  222MOL0     C30556   5.697   8.732   1.075  0.4241  0.4666 -1.0363
  222MOL0     O30557   5.678   8.782   0.949 -0.1486  0.0032  0.1682
  222MOL0     C30558   5.726   8.909   0.912  0.2687 -0.7217  0.4871
  222MOL0     C30559   5.698   8.941   0.767  1.4376 -0.1109  0.1707
  222MOL0     C30560   5.548   8.959   0.742 -0.7057  0.6474 -0.1773
  222MOL0     C30561   5.513   8.910   0.603 -0.1951 -0.3836  0.2597
  222MOL0     C30562   5.542   9.011   0.501  0.0663  0.1608 -0.1887
  222MOL0     C30563   5.567   9.089   0.416 -0.3617 -0.6601  0.3042
  222MOL0     C30564   5.671   8.599   1.091 -1.6327 -0.1616  0.9533
  222MOL0     C30565   5.652   8.542   1.210  0.1158  0.4083 -0.3767
  222MOL0     C30566   5.648   8.396   1.211 -0.6215  0.1599 -0.3799
  222MOL0     H30567   5.294   8.382   1.459  0.7397  0.9715 -0.2937
  222MOL0     H30568   5.193   8.219   1.625 -0.6637 -1.4816  2.2663
  222MOL0     H30569   5.362   8.183   2.030  0.2587  1.3389 -3.9150
  222MOL0     H30570   5.441   8.028   1.980  0.4956  1.2265 -0.1717
  222MOL0     H30571   5.150   8.073   1.977 -0.0512  0.8528  1.2560
  222MOL0     H30572   5.214   7.914   1.989 -1.0643  1.2522  0.4668
  222MOL0     H30573   5.312   8.092   2.218 -0.4634  2.2424 -1.9145
  222MOL0     H30574   5.142   8.078   2.213  1.8724  3.0956  0.6598
  222MOL0     H30575   5.246   7.894   2.365 -1.4956  3.1167 -0.1864
  222MOL0     H30576   5.157   7.824   2.230  0.7078 -0.0962  0.4314
  222MOL0     H30577   5.448   7.874   2.217 -0.1515  0.1757 -0.3010
  222MOL0     H30578   5.354   7.766   2.121 -5.4134  1.0265  0.2860
  222MOL0     H30579   5.498   7.666   2.293 -0.6616 -0.9651 -1.7694
  222MOL0     H30580   5.372   7.702   2.416  1.4175 -2.9832  0.0487
  222MOL0     H30581   5.350   7.514   2.174  0.2379  0.4767  0.1845
  222MOL0     H30582   5.212   7.596   2.240  0.1803  0.6487 -1.1139
  222MOL0     H30583   5.227   7.519   2.446  0.9830  1.4221  1.0729
  222MOL0     H30584   5.257   7.367   2.359  2.2096 -0.9881  2.7430
  222MOL0     H30585   5.409   7.527   2.635 -1.7418 -1.7135  0.6592
  222MOL0     H30586   5.594   7.355   2.798  0.5736  0.1624  0.7778
  222MOL0     H30587   5.674   7.513   2.750 -2.7530  0.6657 -1.0788
  222MOL0     H30588   5.745   7.225   2.704 -1.4555  0.1176 -2.5106
  222MOL0     H30589   5.813   7.352   2.597  0.2596  2.3901 -0.1879
  222MOL0     H30590   5.897   7.456   2.829 -0.8289  0.3199  1.1223
  222MOL0     H30591   5.869   7.300   2.891  1.0204 -2.8720 -1.4817
  222MOL0     H30592   6.113   7.319   2.806  0.2378 -0.0717 -1.1073
  222MOL0     H30593   6.020   7.203   2.707  0.2890 -1.2210  2.4474
  222MOL0     H30594   5.939   7.397   2.386 -0.4049 -1.3064 -2.7183
  222MOL0     H30595   5.944   7.217   2.078  3.8625 -1.4220 -0.5353
  222MOL0     H30596   6.054   7.353   2.070 -0.6652 -0.9085 -2.9258
  222MOL0     H30597   5.905   7.373   2.155  0.0232 -1.1872  0.3771
  222MOL0     H30598   6.362   7.247   1.856  0.4649 -0.4057  1.7283
  222MOL0     H30599   6.415   7.153   1.621  1.6290 -4.7376 -1.8067
  222MOL0     H30600   6.523   6.943   1.561 -1.2714  1.8315  1.5316
  222MOL0     H30601   6.461   6.825   1.439 -4.5828  0.6471 -3.3358
  222MOL0     H30602   6.367   7.000   1.297 -0.3780  2.2061  0.7264
  222MOL0     H30603   6.455   7.119   1.398 -1.4079 -0.1165  1.5060
  222MOL0     H30604   6.563   6.862   1.276 -1.0367 -0.6771  3.3082
  222MOL0     H30605   6.671   6.986   1.336  1.5864  2.2342 -2.4835
  222MOL0     H30606   6.595   7.138   1.160  1.4186  0.5862 -0.5759
  222MOL0     H30607   6.535   6.992   1.071  1.1822  1.0793 -0.1621
  222MOL0     H30608   6.826   7.025   1.148  1.0676 -4.3480  0.0824
  222MOL0     H30609   6.754   6.888   1.079 -1.2278 -0.1293  0.2207
  222MOL0     H30610   6.763   7.167   0.956  2.7002 -0.0508 -2.5359
  222MOL0     H30611   6.682   7.025   0.882 -1.5347 -1.3812  2.9374
  222MOL0     H30612   6.930   6.911   0.908 -2.8624 -0.6034  1.2157
  222MOL0     H30613   6.974   7.073   0.944 -0.0616  0.7835 -2.0627
  222MOL0     H30614   6.860   6.980   0.693  1.3647  0.0381 -2.1665
  222MOL0     H30615   7.040   7.016   0.733  1.0347 -0.6238  2.9713
  222MOL0     H30616   6.177   6.812   1.704  2.5236  0.1160 -2.9099
  222MOL0     H30617   6.116   6.918   1.945  2.3739 -0.5308  1.4800
  222MOL0     H30618   6.291   7.050   2.415  0.4425 -0.1256  0.3810
  222MOL0     H30619   6.235   7.184   2.607 -1.4775  1.2699  1.4134
  222MOL0     H30620   5.532   8.263   1.878  2.6600 -4.2098 -2.9669
  222MOL0     H30621   5.620   8.446   1.729 -1.5727  2.0876  1.8708
  222MOL0     H30622   5.742   8.803   1.407  4.1212 -0.9667  0.5994
  222MOL0     H30623   5.756   8.913   1.188  0.8951 -0.9747  0.0516
  222MOL0     H30624   5.688   8.984   0.982  3.8514 -1.0775  3.1050
  222MOL0     H30625   5.835   8.898   0.922  0.8532  1.2386 -2.2059
  222MOL0     H30626   5.739   8.863   0.702 -0.3221  1.0385 -2.4982
  222MOL0     H30627   5.746   9.038   0.752 -1.2889  1.3750  0.3783
  222MOL0     H30628   5.489   8.905   0.816 -2.6793  3.2539  0.3050
  222MOL0     H30629   5.524   9.066   0.744 -1.6513  0.4454 -0.1121
  222MOL0     H30630   5.408   8.881   0.592  0.2584 -2.1331  0.1964
  222MOL0     H30631   5.583   8.831   0.575 -0.1071  0.3370 -1.7213
  222MOL0     H30632   5.595   9.164   0.345 -1.0546  0.3967  1.1360
  222MOL0     H30633   5.674   8.544   0.997  0.3351  0.3034  0.6963
  222MOL0     H30634   5.571   8.354   1.145  0.5312  0.0888 -1.7223
  222MOL0     H30635   5.744   8.356   1.175 -0.3429 -2.4016  2.7708
  222MOL0     H30636   5.638   8.351   1.310 -1.9932  2.2869  0.4999
  223MOL0     O30637   1.003   2.656   5.637  0.3580 -0.5545  0.7239
  223MOL0     C30638   0.946   2.710   5.726  0.8842 -1.3675 -0.3746
  223MOL0     O30639   0.889   2.831   5.721 -0.0250 -0.0456  0.0114
  223MOL0     C30640   0.856   2.882   5.603  0.8637  0.0506  0.7732
  223MOL0     C30641   0.714   2.883   5.571 -0.2764 -0.8993  0.8427
  223MOL0     C30642   0.667   2.923   5.441  0.5621  0.3327 -0.3546
  223MOL0     C30643   0.759   2.983   5.349 -0.2401 -0.3571  0.6186
  223MOL0     O30644   0.710   3.017   5.223 -0.7726 -0.2357  0.4182
  223MOL0     C30645   0.768   3.141   5.172 -0.2494 -0.0725  0.1654
  223MOL0     C30646   0.660   3.225   5.101  0.7106 -0.9087  0.0476
  223MOL0     C30647   0.717   3.364   5.061  0.4809  0.2953  1.0332
  223MOL0     C30648   0.731   3.460   5.173 -1.5140  0.0458 -0.0098
  223MOL0     C30649   0.837   3.571   5.154  0.5712  0.6393  0.5071
  223MOL0     C30650   0.841   3.666   5.028  0.4370 -0.1028 -0.6453
  223MOL0     C30651   0.963   3.753   4.987 -1.2783 -0.6330  0.1347
  223MOL0     C30652   1.065   3.771   5.096 -0.7011  0.4950  0.6644
  223MOL0     N30653   1.166   3.866   5.046 -0.6681  0.1156  0.4389
  223MOL0     C30654   1.263   3.844   4.957 -0.7240 -0.3657 -0.1781
  223MOL0     C30655   1.328   3.967   4.940 -0.6879 -1.4042  0.1095
  223MOL0     C30656   1.441   4.002   4.850 -0.5644 -0.4934 -0.1709
  223MOL0     C30657   1.417   3.973   4.708  0.6628 -0.5810  0.4537
  223MOL0     C30658   1.532   4.015   4.628 -0.6792 -0.7767  0.1759
  223MOL0     C30659   1.512   3.966   4.486  0.1155 -0.6155  0.0889
  223MOL0     O30660   1.596   4.027   4.388 -0.2178 -1.4896 -0.2703
  223MOL0     C30661   1.618   3.944   4.286 -0.0940  0.3014  0.7963
  223MOL0     C30662   1.560   3.966   4.170  0.1302 -0.3502  0.3196
  223MOL0     C30663   1.561   3.869   4.069 -0.0666  0.3272  0.0450
  223MOL0     C30664   1.499   3.914   3.939 -1.0692 -0.4238 -0.5789
  223MOL0     C30665   1.651   3.755   4.084  0.3965  0.2345  0.6239
  223MOL0     C30666   1.683   3.647   3.987 -0.5094 -0.4462 -0.0193
  223MOL0     O30667   1.785   3.557   4.005 -0.8686  0.0074 -0.2297
  223MOL0     C30668   1.838   3.463   3.910 -0.1205 -0.2496 -1.0183
  223MOL0     C30669   1.937   3.369   3.956  0.1459  1.0869 -0.1046
  223MOL0     C30670   2.014   3.299   3.865  0.0154 -0.2047 -0.6016
  223MOL0     C30671   1.990   3.303   3.728 -0.2994 -0.1761 -0.3391
  223MOL0     O30672   2.073   3.254   3.631  0.1187 -0.9399  0.2431
  223MOL0     C30673   2.136   3.127   3.653 -0.1619  0.2961 -1.1243
  223MOL0     C30674   2.153   3.036   3.537  0.3423  0.0263 -0.0317
  223MOL0     C30675   2.026   2.957   3.509  0.1469  0.0350  0.9033
  223MOL0     C30676   2.051   2.865   3.388  0.5558  0.5089 -0.8794
  223MOL0     C30677   1.940   2.801   3.295  0.0545 -0.1097 -0.4672
  223MOL0     C30678   1.803   2.870   3.302  0.2355 -0.3707 -0.1612
  223MOL0     C30679   1.789   3.011   3.238 -0.6040 -0.5005  0.5940
  223MOL0     C30680   1.804   3.004   3.092 -0.2242  0.6627  0.1824
  223MOL0    Cl30681   1.758   3.151   3.011 -0.2258 -0.0012 -0.0748
  223MOL0     C30682   1.880   3.374   3.686 -1.0446 -0.7938 -0.0506
  223MOL0     C30683   1.808   3.455   3.779 -1.3613 -0.2782  0.0092
  223MOL0     O30684   1.595   3.624   3.914 -0.2232 -0.0084 -0.3878
  223MOL0     C30685   1.720   3.752   4.209 -0.6125  0.5229 -0.5072
  223MOL0     C30686   1.708   3.849   4.306 -0.1994 -0.4721  0.7996
  223MOL0     N30687   1.256   4.062   5.024 -1.0279 -0.6104 -0.4375
  223MOL0     N30688   1.158   3.999   5.074  0.3518 -0.4161  0.3179
  223MOL0     C30689   0.901   2.988   5.396 -0.0576 -0.9050  0.1332
  223MOL0     C30690   0.942   2.942   5.513 -0.0575 -0.1885  0.2233
  223MOL0     C30691   0.958   2.658   5.872 -0.3736  0.7327 -0.0158
  223MOL0     C30692   0.873   2.723   5.965  0.4471 -0.5954  0.0676
  223MOL0     C30693   0.871   2.704   6.107  0.1002 -0.0104  0.2579
  223MOL0     C30694   0.952   2.599   6.146 -1.9123  0.4389  1.0780
  223MOL0     O30695   0.920   2.544   6.263  0.6149  0.0644 -0.8432
  223MOL0     C30696   1.026   2.548   6.348 -0.3626  0.2901  0.1564
  223MOL0     C30697   1.029   2.673   6.429 -0.0179 -0.2859 -0.3754
  223MOL0     C30698   1.123   2.692   6.556 -1.1845 -1.3642  0.4330
  223MOL0     C30699   1.255   2.629   6.543 -0.2994 -0.8468 -0.1407
  223MOL0     C30700   1.330   2.665   6.663  0.3993 -0.3148  0.0077
  223MOL0     C30701   1.406   2.679   6.759  0.3110  0.2721  0.1974
  223MOL0     C30702   1.038   2.530   6.062 -0.3876  0.2227  0.1326
  223MOL0     C30703   1.048   2.554   5.920  0.9842 -0.4754  0.1744
  223MOL0     C30704   1.142   2.479   5.828  0.5909 -1.1399  0.4500
  223MOL0     H30705   0.641   2.859   5.647 -2.6104  4.1571  0.6543
  223MOL0     H30706   0.558   2.924   5.439  0.4104  0.5877  2.6962
  223MOL0     H30707   0.848   3.112   5.105 -2.1992 -0.9535 -1.9028
  223MOL0     H30708   0.828   3.197   5.244  2.8856 -3.4067  0.4598
  223MOL0     H30709   0.652   3.179   5.002  2.2188  0.2302 -0.6493
  223MOL0     H30710   0.564   3.228   5.154 -0.2184 -3.0160 -1.3879
  223MOL0     H30711   0.815   3.346   5.016  0.3468 -1.6271  1.4195
  223MOL0     H30712   0.653   3.407   4.983 -1.1118 -1.6857  1.1718
  223MOL0     H30713   0.635   3.506   5.198 -0.9427  0.2382  2.0048
  223MOL0     H30714   0.768   3.406   5.262  2.6625  4.0441  1.1000
  223MOL0     H30715   0.941   3.537   5.165  0.7188  0.1734 -1.8360
  223MOL0     H30716   0.823   3.641   5.237  0.6142  2.6951 -1.1185
  223MOL0     H30717   0.809   3.611   4.939  0.8031  0.0977 -0.9035
  223MOL0     H30718   0.757   3.735   5.042 -0.9225 -1.9348  0.6767
  223MOL0     H30719   0.945   3.851   4.941  0.3369 -0.8272 -0.9983
  223MOL0     H30720   1.017   3.698   4.909  0.3287  2.3405 -1.0304
  223MOL0     H30721   1.022   3.817   5.186  0.7304  2.0153  0.6313
  223MOL0     H30722   1.118   3.678   5.119  0.1817  0.7738 -0.1897
  223MOL0     H30723   1.293   3.750   4.913 -0.9432 -1.6205  2.2274
  223MOL0     H30724   1.534   3.954   4.880 -0.2203  1.3921  2.1175
  223MOL0     H30725   1.458   4.110   4.857 -2.4852  0.0023 -2.1497
  223MOL0     H30726   1.394   3.866   4.705 -2.7248  0.0278  0.4585
  223MOL0     H30727   1.336   4.035   4.669 -0.2041 -0.6439  2.0783
  223MOL0     H30728   1.542   4.124   4.634 -0.0654 -0.8059 -0.2253
  223MOL0     H30729   1.616   3.965   4.677 -0.2154 -1.4547 -1.2468
  223MOL0     H30730   1.524   3.857   4.489  4.8922 -0.2869  1.0127
  223MOL0     H30731   1.408   3.989   4.464 -0.6741 -2.2745  1.8005
  223MOL0     H30732   1.501   4.056   4.158 -0.2224 -0.3904  1.5783
  223MOL0     H30733   1.434   3.833   3.905 -0.0409 -1.5022 -0.0381
  223MOL0     H30734   1.577   3.932   3.864  0.3126 -3.0243  0.1208
  223MOL0     H30735   1.434   3.999   3.961  1.3510  1.1760  0.8959
  223MOL0     H30736   1.958   3.352   4.061 -1.0537 -1.8503 -0.2508
  223MOL0     H30737   2.093   3.236   3.906  0.8184  1.7155  0.9816
  223MOL0     H30738   2.235   3.143   3.695 -1.2888  4.1132  0.4577
  223MOL0     H30739   2.082   3.065   3.726 -2.4133 -0.1797 -3.0311
  223MOL0     H30740   2.167   3.113   3.460 -1.6806  2.7319  2.1098
  223MOL0     H30741   2.237   2.967   3.551  0.8821 -0.1979 -3.4795
  223MOL0     H30742   1.948   3.032   3.496  2.2277  1.8853 -2.0302
  223MOL0     H30743   1.992   2.899   3.595  2.2266 -2.4170  0.1985
  223MOL0     H30744   2.120   2.789   3.426  0.2731  1.6202  2.2107
  223MOL0     H30745   2.116   2.929   3.328  2.7678 -1.3362 -0.6248
  223MOL0     H30746   1.984   2.793   3.196  0.5162  0.5496 -0.3235
  223MOL0     H30747   1.930   2.705   3.346  2.1794  1.1572  2.6792
  223MOL0     H30748   1.770   2.868   3.406  0.0960  1.3780 -0.1389
  223MOL0     H30749   1.733   2.798   3.260 -0.8576  0.0069  0.9414
  223MOL0     H30750   1.873   3.070   3.277 -0.7767  0.4732 -0.4520
  223MOL0     H30751   1.701   3.067   3.269 -1.2883 -1.5750  0.6507
  223MOL0     H30752   1.748   2.918   3.055  3.7627 -1.8757 -0.6499
  223MOL0     H30753   1.908   2.984   3.063 -0.0221 -3.4568  2.8729
  223MOL0     H30754   1.858   3.387   3.581 -0.6616  0.7867  0.0422
  223MOL0     H30755   1.729   3.516   3.737 -0.4616  1.5033  0.8017
  223MOL0     H30756   1.790   3.669   4.219  1.3160  1.9459 -1.4677
  223MOL0     H30757   1.756   3.851   4.403  0.9579 -0.6613  0.2554
  223MOL0     H30758   0.973   3.023   5.323  2.4725 -3.8580  0.9931
  223MOL0     H30759   1.047   2.947   5.539 -0.0551 -1.4433  0.5208
  223MOL0     H30760   0.799   2.789   5.921  0.1996 -1.0664 -0.2215
  223MOL0     H30761   0.789   2.751   6.160 -0.4818  2.3291 -2.4756
  223MOL0     H30762   1.016   2.462   6.414 -1.8730  1.2159  1.2098
  223MOL0     H30763   1.125   2.544   6.301 -1.2220 -1.1061 -1.6443
  223MOL0     H30764   0.925   2.699   6.452 -0.2046 -1.7895  0.5843
  223MOL0     H30765   1.078   2.750   6.369  1.8190 -0.4601  0.8547
  223MOL0     H30766   1.126   2.801   6.564 -2.6609 -1.2110 -0.6967
  223MOL0     H30767   1.072   2.641   6.638 -0.6760 -1.5174  0.6615
  223MOL0     H30768   1.311   2.667   6.457  1.2387  0.7141  1.4634
  223MOL0     H30769   1.249   2.520   6.543  3.1084 -1.1888  1.6163
  223MOL0     H30770   1.474   2.705   6.838  1.8206  1.6427 -1.4902
  223MOL0     H30771   1.077   2.435   6.096 -1.6000 -0.7144 -0.9608
  223MOL0     H30772   1.206   2.549   5.775  0.3011 -1.3177 -0.1384
  223MOL0     H30773   1.208   2.420   5.892  0.7178 -0.3915  1.0249
  223MOL0     H30774   1.089   2.418   5.754  1.2237  0.6032 -1.5194
  224MOL0     O30775   9.435   3.561   1.006 -1.0419 -0.0369 -0.9431
  224MOL0     C30776   9.420   3.549   0.889  0.8621 -0.3202  0.1931
  224MOL0     O30777   9.516   3.571   0.798 -0.4684  0.4045  0.2367
  224MOL0     C30778   9.615   3.652   0.830 -0.2165 -0.5361  0.0243
  224MOL0     C30779   9.715   3.625   0.916  0.3805 -0.5004  0.3975
  224MOL0     C30780   9.803   3.733   0.939  0.0020  0.9509 -0.3132
  224MOL0     C30781   9.805   3.841   0.854 -0.0375  0.3398 -0.8253
  224MOL0     O30782   9.905   3.929   0.873  0.2303 -0.4636 -0.3577
  224MOL0     C30783   9.883   4.068   0.829 -0.1798 -0.2437 -0.0801
  224MOL0     C30784  10.019   4.144   0.811  0.4199 -0.1825  0.1788
  224MOL0     C30785  10.008   4.280   0.737  1.0958  0.4702 -0.6006
  224MOL0     C30786  10.145   4.329   0.702  0.1302 -0.1649 -1.2810
  224MOL0     C30787  10.205   4.422   0.812  1.1012  0.8566  0.6748
  224MOL0     C30788  10.292   4.533   0.739  0.3075 -0.1900 -0.2273
  224MOL0     C30789  10.316   4.641   0.838 -1.0086 -0.2743  0.6365
  224MOL0     C30790  10.417   4.601   0.936 -0.3621 -0.1498 -0.8909
  224MOL0     N30791  10.547   4.658   0.915 -0.5005  0.2808 -0.0818
  224MOL0     C30792  10.625   4.644   0.801  0.4179 -0.5310  0.3396
  224MOL0     C30793  10.742   4.693   0.827 -1.2890 -0.2584  0.6840
  224MOL0     C30794  10.848   4.688   0.718 -0.2420  0.4489  0.4129
  224MOL0     C30795  10.909   4.826   0.692  0.5070  0.2968  0.0039
  224MOL0     C30796  10.931   4.841   0.539  0.5910 -0.2322 -0.1047
  224MOL0     C30797  11.042   4.752   0.465  0.1916  0.3271  0.1851
  224MOL0     O30798  11.177   4.768   0.520 -0.5610 -0.4389 -0.0936
  224MOL0     C30799  11.269   4.711   0.432 -1.1277 -0.4763  0.1019
  224MOL0     C30800  11.251   4.595   0.347  1.3095  0.1865 -0.0173
  224MOL0     C30801  11.352   4.539   0.277 -0.3948  0.4840 -0.8130
  224MOL0     C30802  11.317   4.405   0.226 -0.8571 -0.3792  0.5170
  224MOL0     C30803  11.487   4.594   0.279  0.3466 -0.5034  0.3740
  224MOL0     C30804  11.609   4.534   0.219  0.2219 -0.1089  0.2501
  224MOL0     O30805  11.687   4.610   0.146 -0.3653 -1.7403  0.3169
  224MOL0     C30806  11.782   4.553   0.076  0.4548 -0.3381  0.1145
  224MOL0     C30807  11.914   4.590   0.096  0.0621 -0.1643  0.6852
  224MOL0     C30808  12.012   4.539   0.005 -0.1285  1.4077  1.0753
  224MOL0     C30809  11.973   4.465  -0.107  0.2022  0.0890 -1.1210
  224MOL0     O30810  12.063   4.456  -0.211  0.3873 -0.2464 -0.7304
  224MOL0     C30811  12.016   4.538  -0.322 -0.7205  0.0547 -0.8175
  224MOL0     C30812  12.126   4.562  -0.421  0.1452  0.4515 -1.1470
  224MOL0     C30813  12.085   4.681  -0.510 -0.0321  0.1462  0.2163
  224MOL0     C30814  12.208   4.707  -0.609  0.3412 -0.2901 -1.0448
  224MOL0     C30815  12.150   4.775  -0.736  0.0741 -0.2569 -1.7487
  224MOL0     C30816  12.252   4.791  -0.849  0.6350  1.1152 -0.3658
  224MOL0     C30817  12.195   4.873  -0.969  0.4491  0.6645  0.5012
  224MOL0     C30818  12.284   4.890  -1.094 -0.8697  0.0573 -0.2282
  224MOL0    Cl30819  12.237   5.034  -1.205 -0.0906 -0.3658  0.1419
  224MOL0     C30820  11.847   4.423  -0.113  0.2512  1.1390  0.0688
  224MOL0     C30821  11.747   4.465  -0.028 -0.1532  0.2892  0.6330
  224MOL0     O30822  11.618   4.412   0.235  0.1585 -0.7222 -0.4930
  224MOL0     C30823  11.503   4.709   0.353 -0.5389 -0.0307  0.4266
  224MOL0     C30824  11.396   4.777   0.420  0.6024  0.1748  0.4407
  224MOL0     N30825  10.746   4.738   0.954  0.8058 -0.1151 -0.6352
  224MOL0     N30826  10.630   4.730   1.000  0.2979  0.0949 -1.2824
  224MOL0     C30827   9.712   3.857   0.756  0.1098 -0.9946  0.1950
  224MOL0     C30828   9.603   3.767   0.760 -0.5257 -0.1177  0.8507
  224MOL0     C30829   9.305   3.484   0.828  0.6296  0.5077 -0.2037
  224MOL0     C30830   9.275   3.353   0.881  0.5310 -1.4299  0.4031
  224MOL0     C30831   9.163   3.281   0.843  0.7716 -0.3684 -1.6606
  224MOL0     C30832   9.071   3.349   0.758  0.3462  0.1650 -0.1837
  224MOL0     O30833   8.954   3.291   0.717  0.0234 -0.5836 -0.1783
  224MOL0     C30834   8.894   3.178   0.790  0.5099  0.1818  0.1455
  224MOL0     C30835   8.786   3.121   0.689 -0.2647 -0.0166  0.1506
  224MOL0     C30836   8.681   3.041   0.777 -0.7822 -1.0087 -0.9053
  224MOL0     C30837   8.564   3.003   0.685  0.8379  0.8613 -0.3797
  224MOL0     C30838   8.488   2.904   0.773 -0.8163  0.3069  0.7663
  224MOL0     C30839   8.420   2.852   0.857 -0.3134 -0.4871 -0.4818
  224MOL0     C30840   9.089   3.478   0.708  0.0859 -0.4268  0.7172
  224MOL0     C30841   9.210   3.547   0.734 -0.3476  0.0911 -0.2045
  224MOL0     C30842   9.209   3.697   0.710 -1.5623 -0.0052 -0.4848
  224MOL0     H30843   9.720   3.531   0.970 -0.6640  0.7546  2.8971
  224MOL0     H30844   9.878   3.730   1.018  0.2895 -3.0987 -0.5631
  224MOL0     H30845   9.819   4.128   0.894 -2.7849  0.7623 -3.2974
  224MOL0     H30846   9.842   4.082   0.729 -1.3938 -2.9050 -0.0521
  224MOL0     H30847  10.066   4.162   0.908 -1.9895  0.5555  1.3056
  224MOL0     H30848  10.084   4.086   0.746 -1.3904 -0.5138 -1.4360
  224MOL0     H30849   9.940   4.278   0.652  1.2154  2.8013 -0.7986
  224MOL0     H30850   9.963   4.342   0.815 -0.2337  0.6766 -1.5115
  224MOL0     H30851  10.211   4.258   0.652 -0.5031 -1.0680 -0.8663
  224MOL0     H30852  10.132   4.398   0.619  2.3466  1.2339 -0.5454
  224MOL0     H30853  10.261   4.373   0.892  0.9826  0.3584  0.4611
  224MOL0     H30854  10.119   4.462   0.866 -0.5391 -2.7469  1.0872
  224MOL0     H30855  10.391   4.493   0.712 -0.0005 -2.5125  1.7863
  224MOL0     H30856  10.241   4.569   0.649  1.2751  0.3956 -0.5648
  224MOL0     H30857  10.226   4.670   0.893  0.2521 -0.0691  2.7100
  224MOL0     H30858  10.351   4.733   0.791  1.9327 -1.2356  0.7352
  224MOL0     H30859  10.370   4.609   1.034 -1.5197  2.3056 -1.5586
  224MOL0     H30860  10.428   4.493   0.923  1.4304 -0.5894  2.9220
  224MOL0     H30861  10.591   4.598   0.709  1.1672  0.5567 -0.5028
  224MOL0     H30862  10.794   4.665   0.626  3.9644 -0.9632 -1.9822
  224MOL0     H30863  10.922   4.609   0.736 -1.3578 -1.0918 -1.4002
  224MOL0     H30864  10.842   4.904   0.728  0.9814  0.2413  1.0263
  224MOL0     H30865  11.001   4.843   0.748  0.1800  1.0131  0.3320
  224MOL0     H30866  10.835   4.828   0.488 -0.3929  5.5384 -0.3494
  224MOL0     H30867  10.964   4.943   0.517  0.4006 -0.3336 -0.8930
  224MOL0     H30868  11.014   4.646   0.461 -2.4554  0.9943 -0.9607
  224MOL0     H30869  11.037   4.798   0.366 -0.6363  1.6552  0.8282
  224MOL0     H30870  11.163   4.537   0.372  0.2114  1.8037  0.0277
  224MOL0     H30871  11.248   4.424   0.143  1.0291  0.1415 -1.0256
  224MOL0     H30872  11.263   4.344   0.299 -2.0426  1.3111  1.1259
  224MOL0     H30873  11.395   4.350   0.173  0.6776  0.3756  1.9194
  224MOL0     H30874  11.920   4.672   0.166 -3.8539 -0.4699  1.5787
  224MOL0     H30875  12.118   4.563   0.011  0.1935  2.0677 -3.6087
  224MOL0     H30876  11.930   4.484  -0.363 -2.2559  1.2310  0.6877
  224MOL0     H30877  11.987   4.633  -0.276  1.2998  0.1593  0.3447
  224MOL0     H30878  12.214   4.595  -0.365  0.2924 -0.1531 -1.0213
  224MOL0     H30879  12.151   4.469  -0.473  0.5884  0.4289 -0.9009
  224MOL0     H30880  12.058   4.772  -0.456  2.6724  0.8146  0.5953
  224MOL0     H30881  12.004   4.660  -0.580 -0.0670 -1.2316  0.6383
  224MOL0     H30882  12.258   4.614  -0.639  1.5992  0.4936 -1.4730
  224MOL0     H30883  12.281   4.768  -0.555 -0.7468  1.0243 -1.0116
  224MOL0     H30884  12.067   4.711  -0.770 -1.4370  0.1641  0.8413
  224MOL0     H30885  12.109   4.871  -0.705  1.2417  0.3570 -2.0600
  224MOL0     H30886  12.285   4.693  -0.886  1.9813  1.1203  0.7323
  224MOL0     H30887  12.344   4.836  -0.811  0.7779  0.6408 -0.1440
  224MOL0     H30888  12.193   4.972  -0.922  3.7038 -0.5860  3.7429
  224MOL0     H30889  12.101   4.828  -1.002  1.5560 -1.2685 -0.1220
  224MOL0     H30890  12.297   4.792  -1.140  0.7833 -0.3603  1.0077
  224MOL0     H30891  12.386   4.917  -1.065 -1.4054  0.9068  0.9912
  224MOL0     H30892  11.820   4.359  -0.197  0.5822 -0.5939  1.2272
  224MOL0     H30893  11.654   4.423  -0.064  0.2910  0.6861 -1.0883
  224MOL0     H30894  11.605   4.747   0.361 -0.8492  0.8254  0.3889
  224MOL0     H30895  11.400   4.869   0.477 -0.5027  2.9837 -3.5820
  224MOL0     H30896   9.709   3.941   0.688  0.1861 -1.0613  0.1087
  224MOL0     H30897   9.526   3.785   0.686  1.8256  2.1381 -1.2691
  224MOL0     H30898   9.333   3.317   0.965 -0.7453  1.7811  2.8530
  224MOL0     H30899   9.149   3.183   0.887 -0.5151  1.3093  2.1123
  224MOL0     H30900   8.976   3.106   0.799  1.0057  0.2546 -2.7234
  224MOL0     H30901   8.856   3.210   0.887 -1.8539  1.4036 -1.1121
  224MOL0     H30902   8.831   3.054   0.615  2.3374  1.0105  0.7259
  224MOL0     H30903   8.736   3.204   0.639 -0.9321 -0.4203  0.1234
  224MOL0     H30904   8.735   2.957   0.820  1.3653 -0.2614 -2.0014
  224MOL0     H30905   8.641   3.097   0.862 -2.2188 -0.2693 -2.0187
  224MOL0     H30906   8.601   2.959   0.592  1.4472 -0.6868  0.5404
  224MOL0     H30907   8.497   3.085   0.660  1.9976  1.2700 -2.3116
  224MOL0     H30908   8.364   2.811   0.938 -0.9664  2.7024  0.8381
  224MOL0     H30909   9.000   3.518   0.660  1.6847  0.8145 -1.4289
  224MOL0     H30910   9.112   3.741   0.685 -1.6448 -0.9522 -1.9289
  224MOL0     H30911   9.239   3.750   0.801  0.0936  0.6878 -1.3741
  224MOL0     H30912   9.269   3.720   0.622 -1.3267 -1.4372 -0.7302
  225MOL0     O30913   6.304   6.090   6.694  0.5361 -1.2480 -0.1571
  225MOL0     C30914   6.318   5.986   6.757  0.0378  0.1476  0.3829
  225MOL0     O30915   6.222   5.885   6.760  0.0193 -0.4330  0.0843
  225MOL0     C30916   6.111   5.918   6.678 -0.5233  0.2459  0.0852
  225MOL0     C30917   6.087   5.850   6.554  0.0294 -0.1110  0.2300
  225MOL0     C30918   5.966   5.872   6.497  0.0691  0.6471  1.5295
  225MOL0     C30919   5.862   5.946   6.558 -0.0419  0.3453 -0.2210
  225MOL0     O30920   5.737   5.946   6.498  0.4436  0.1713 -0.1652
  225MOL0     C30921   5.682   6.087   6.495  0.1143 -0.1888 -0.7443
  225MOL0     C30922   5.555   6.101   6.403 -0.3156  0.5655 -0.5075
  225MOL0     C30923   5.456   6.217   6.434 -0.0501 -0.2470 -0.2491
  225MOL0     C30924   5.546   6.347   6.438  0.3567 -0.6228  0.8137
  225MOL0     C30925   5.560   6.408   6.576 -0.5176 -0.4913 -0.3128
  225MOL0     C30926   5.674   6.516   6.589  0.2007 -0.1494 -0.0616
  225MOL0     C30927   5.689   6.582   6.731  0.3618  0.2539  0.8487
  225MOL0     C30928   5.594   6.703   6.752 -0.7052  0.0263 -1.0237
  225MOL0     N30929   5.477   6.675   6.842 -0.7625 -0.8201  0.2238
  225MOL0     C30930   5.465   6.716   6.975 -0.5464  0.3105  0.3286
  225MOL0     C30931   5.333   6.709   7.011  0.5749  0.0613  0.2064
  225MOL0     C30932   5.266   6.732   7.137  0.2006 -0.4706  1.8893
  225MOL0     C30933   5.131   6.670   7.153  0.5919  0.0826 -0.5486
  225MOL0     C30934   5.132   6.514   7.154  1.0926 -0.5673 -0.6513
  225MOL0     C30935   5.246   6.441   7.231  0.0366  0.9585  0.0839
  225MOL0     O30936   5.208   6.304   7.261  0.0215  0.3163  0.3442
  225MOL0     C30937   5.294   6.226   7.326 -0.1345 -0.5907 -0.4818
  225MOL0     C30938   5.331   6.095   7.286  0.0243 -0.4263 -0.5895
  225MOL0     C30939   5.431   6.021   7.351 -1.4559 -0.9644  0.6220
  225MOL0     C30940   5.471   5.888   7.297  0.2026  0.4907 -0.4663
  225MOL0     C30941   5.490   6.077   7.463  0.1554  0.0850 -0.3026
  225MOL0     C30942   5.579   6.000   7.542 -0.2656 -0.3156  0.1254
  225MOL0     O30943   5.699   5.973   7.494 -0.6590  0.4168 -0.0851
  225MOL0     C30944   5.762   5.862   7.535 -0.1385  0.4106  0.5597
  225MOL0     C30945   5.696   5.748   7.575  0.7622 -1.0811 -0.6539
  225MOL0     C30946   5.760   5.625   7.582 -0.2664 -0.5529  0.3097
  225MOL0     C30947   5.896   5.617   7.558 -1.0283 -0.2950 -0.3467
  225MOL0     O30948   5.965   5.503   7.563 -0.7596 -0.0759 -0.6311
  225MOL0     C30949   5.937   5.420   7.677  0.4171 -0.9304 -0.3065
  225MOL0     C30950   6.047   5.321   7.712  0.1475  0.1021 -0.1619
  225MOL0     C30951   6.009   5.232   7.829  0.0757  0.3479  0.0721
  225MOL0     C30952   6.093   5.106   7.834 -0.4477  0.0537  0.6323
  225MOL0     C30953   6.036   5.000   7.937  0.0662 -0.1241  0.2074
  225MOL0     C30954   6.148   4.890   7.950  0.1088 -0.3176  0.4295
  225MOL0     C30955   6.109   4.797   8.065 -0.9568  0.2604  0.3750
  225MOL0     C30956   6.026   4.675   8.027  0.1274  0.3050  0.0722
  225MOL0    Cl30957   5.865   4.718   7.975  0.3672 -0.1780  0.4307
  225MOL0     C30958   5.960   5.737   7.524 -0.5333  0.8591  0.6562
  225MOL0     C30959   5.896   5.858   7.522  0.6506  0.5328  0.0045
  225MOL0     O30960   5.542   5.983   7.660 -0.3685  0.3329 -0.1883
  225MOL0     C30961   5.448   6.207   7.516 -0.3053  0.6272 -0.5239
  225MOL0     C30962   5.356   6.279   7.440  0.3353 -0.7196  0.2462
  225MOL0     N30963   5.274   6.681   6.894  0.3382 -0.0843 -0.0719
  225MOL0     N30964   5.352   6.654   6.791  0.9607  0.4902  0.0096
  225MOL0     C30965   5.902   6.013   6.680 -0.5262 -0.3495  0.4095
  225MOL0     C30966   6.018   6.003   6.738 -0.2240 -0.2468 -0.5890
  225MOL0     C30967   6.428   5.966   6.852 -0.4489 -0.1838 -0.1059
  225MOL0     C30968   6.415   5.876   6.957 -0.8347 -0.0258 -0.3505
  225MOL0     C30969   6.507   5.866   7.058 -0.5831 -0.2350 -0.1910
  225MOL0     C30970   6.623   5.941   7.051 -0.0532 -0.1555  0.7278
  225MOL0     O30971   6.722   5.914   7.149 -0.2856  0.2401 -0.9304
  225MOL0     C30972   6.715   5.803   7.249  1.3712  0.2774 -0.3207
  225MOL0     C30973   6.620   5.837   7.380 -0.6215  0.1183 -0.1813
  225MOL0     C30974   6.625   5.715   7.484  0.4281  0.6054  0.1923
  225MOL0     C30975   6.533   5.741   7.600 -0.0079  0.7362 -0.1855
  225MOL0     C30976   6.569   5.637   7.705  0.0820 -0.2110  0.3196
  225MOL0     C30977   6.598   5.568   7.798  0.2241  0.9789 -0.2976
  225MOL0     C30978   6.644   6.033   6.954  0.0413  0.1113 -0.0662
  225MOL0     C30979   6.547   6.043   6.854  0.3910 -0.2305 -1.1301
  225MOL0     C30980   6.579   6.167   6.769  0.4606 -0.2552  0.6168
  225MOL0     H30981   6.176   5.807   6.511  1.6240  0.4630  2.7545
  225MOL0     H30982   5.958   5.831   6.397  4.2038 -0.2899  1.4137
  225MOL0     H30983   5.760   6.151   6.453 -0.1396  1.0253  0.5525
  225MOL0     H30984   5.641   6.118   6.592 -1.4540  2.3568 -2.0903
  225MOL0     H30985   5.585   6.108   6.298  2.9118  0.1604  0.2742
  225MOL0     H30986   5.500   6.010   6.429 -0.4670  0.7791 -0.0656
  225MOL0     H30987   5.381   6.226   6.355  1.5392 -0.2864 -1.8475
  225MOL0     H30988   5.398   6.198   6.524  0.1192 -1.4389 -0.3651
  225MOL0     H30989   5.646   6.326   6.398  1.3082  0.9763  2.2007
  225MOL0     H30990   5.509   6.426   6.372 -0.4661 -0.4056  1.5217
  225MOL0     H30991   5.569   6.340   6.661 -0.2372 -0.2289 -0.1337
  225MOL0     H30992   5.467   6.462   6.596  0.4862  0.0088  3.6799
  225MOL0     H30993   5.769   6.467   6.569  0.1981  0.7692 -2.7009
  225MOL0     H30994   5.654   6.593   6.515 -1.2089 -1.4402 -1.0807
  225MOL0     H30995   5.787   6.625   6.753  1.3947 -2.1162  1.1711
  225MOL0     H30996   5.664   6.502   6.801  1.6382 -0.3260  0.6679
  225MOL0     H30997   5.649   6.781   6.806 -2.0628 -1.4905  2.9537
  225MOL0     H30998   5.547   6.740   6.661  2.0606  0.4969 -2.3597
  225MOL0     H30999   5.548   6.733   7.044 -0.4880 -1.0596  0.6299
  225MOL0     H31000   5.279   6.838   7.162 -1.4595 -0.2374  1.8340
  225MOL0     H31001   5.323   6.685   7.217  0.8404  1.4106  2.5979
  225MOL0     H31002   5.089   6.702   7.249  1.5968  2.5851 -0.8716
  225MOL0     H31003   5.058   6.707   7.081 -1.9343 -0.0991  1.7461
  225MOL0     H31004   5.034   6.488   7.194  1.4582 -0.2399  0.5141
  225MOL0     H31005   5.138   6.485   7.049  1.4689 -0.3821 -0.6842
  225MOL0     H31006   5.337   6.442   7.170 -1.0313  2.6213 -1.6345
  225MOL0     H31007   5.264   6.505   7.318 -1.1262  1.6255 -0.1434
  225MOL0     H31008   5.273   6.056   7.203 -0.8512 -1.1327  0.3341
  225MOL0     H31009   5.382   5.835   7.262 -0.0543  1.1541 -0.8471
  225MOL0     H31010   5.507   5.813   7.368 -0.6798 -0.4812 -1.0310
  225MOL0     H31011   5.548   5.912   7.224 -0.8535  5.6712 -0.2971
  225MOL0     H31012   5.590   5.751   7.600  1.3822 -2.3477  2.6547
  225MOL0     H31013   5.716   5.534   7.623  1.1812 -2.8198 -2.7954
  225MOL0     H31014   5.913   5.486   7.761  0.3974  0.7534 -1.5980
  225MOL0     H31015   5.844   5.368   7.653  0.9278 -2.4753  0.8977
  225MOL0     H31016   6.054   5.261   7.621 -0.1876 -0.9440  0.4932
  225MOL0     H31017   6.135   5.383   7.728  0.5401  0.2598 -2.5828
  225MOL0     H31018   5.909   5.189   7.823  0.9725 -2.2959  2.0021
  225MOL0     H31019   6.007   5.294   7.920 -2.2981 -0.5249  0.6989
  225MOL0     H31020   6.194   5.134   7.864 -0.5448  2.9066 -1.3046
  225MOL0     H31021   6.085   5.061   7.734  1.5956 -0.6123  0.7077
  225MOL0     H31022   6.000   5.038   8.033  0.8703 -0.7494  0.7827
  225MOL0     H31023   5.952   4.956   7.884 -0.8026 -0.2025  1.5956
  225MOL0     H31024   6.239   4.936   7.990  0.2343 -0.0666 -0.1306
  225MOL0     H31025   6.171   4.841   7.855  0.0369  0.7722 -0.1691
  225MOL0     H31026   6.059   4.855   8.144  0.3129 -1.1231  2.2925
  225MOL0     H31027   6.203   4.765   8.111  0.1822  0.8047 -1.4814
  225MOL0     H31028   6.010   4.615   8.117  2.4032 -1.2389 -0.4428
  225MOL0     H31029   6.086   4.622   7.952 -0.2560  2.7163 -2.0894
  225MOL0     H31030   6.067   5.748   7.534 -0.8099  1.2389  4.2650
  225MOL0     H31031   5.964   5.940   7.503  2.2786 -0.6694  0.4531
  225MOL0     H31032   5.476   6.247   7.613  1.0733 -1.0915 -0.1621
  225MOL0     H31033   5.326   6.370   7.491 -2.5240 -0.3577 -1.8130
  225MOL0     H31034   5.823   6.061   6.737 -1.3870 -1.6954  0.3847
  225MOL0     H31035   6.045   6.041   6.837 -4.6124 -0.3263  0.8167
  225MOL0     H31036   6.328   5.811   6.963  0.8594 -2.7096 -2.6750
  225MOL0     H31037   6.486   5.805   7.146 -4.2371 -0.9409 -1.3388
  225MOL0     H31038   6.677   5.712   7.202  1.5380 -0.2063  0.4534
  225MOL0     H31039   6.813   5.778   7.291 -1.3525 -1.9538  5.8951
  225MOL0     H31040   6.519   5.833   7.339 -1.6773  1.3756  2.1454
  225MOL0     H31041   6.638   5.936   7.421 -2.3333 -0.0711  1.1159
  225MOL0     H31042   6.592   5.621   7.438  2.1847 -1.0054  1.9918
  225MOL0     H31043   6.725   5.699   7.526  1.0959  1.6134 -0.9560
  225MOL0     H31044   6.429   5.736   7.566  0.4552 -1.2629 -1.4664
  225MOL0     H31045   6.542   5.844   7.636  0.0309 -0.6240  4.1572
  225MOL0     H31046   6.625   5.524   7.893  1.9418  1.7256 -0.4083
  225MOL0     H31047   6.730   6.100   6.954  0.5736 -0.5436  0.9122
  225MOL0     H31048   6.682   6.202   6.770  0.1517  0.7545 -0.1796
  225MOL0     H31049   6.555   6.137   6.667 -0.4159 -2.1617  1.3436
  225MOL0     H31050   6.508   6.246   6.797 -3.3690 -2.7954 -0.9827
  226MOL0     O31051   7.849   5.586   5.506 -0.3074 -0.2441 -0.0531
  226MOL0     C31052   7.754   5.575   5.580  0.5827  1.0640 -0.9373
  226MOL0     O31053   7.655   5.670   5.596 -0.1851 -0.0938  0.6300
  226MOL0     C31054   7.672   5.790   5.517 -1.2166 -0.3174  1.7996
  226MOL0     C31055   7.569   5.840   5.437 -0.9346  0.8762 -0.9477
  226MOL0     C31056   7.594   5.953   5.360  0.2545  0.1874  1.0819
  226MOL0     C31057   7.711   6.018   5.355  0.0707  0.5505 -1.3687
  226MOL0     O31058   7.732   6.143   5.304 -0.0580 -0.1107 -0.3188
  226MOL0     C31059   7.645   6.162   5.190  0.0293  0.7322 -0.1367
  226MOL0     C31060   7.715   6.253   5.086 -0.1020 -0.5960 -0.4774
  226MOL0     C31061   7.864   6.236   5.078 -0.3955 -0.2328  0.4422
  226MOL0     C31062   7.906   6.099   5.015  0.3040  0.0659 -0.0420
  226MOL0     C31063   8.051   6.060   5.021 -1.1432 -0.4246 -1.2949
  226MOL0     C31064   8.068   5.907   5.024 -0.4930 -0.1933  0.2805
  226MOL0     C31065   8.198   5.867   4.956 -0.4361  1.1965 -0.5793
  226MOL0     C31066   8.210   5.713   4.975 -0.3662  0.5558 -0.1154
  226MOL0     N31067   8.323   5.647   4.905 -0.3898 -0.0593 -0.0123
  226MOL0     C31068   8.311   5.555   4.807 -0.8487  0.5499 -0.3038
  226MOL0     C31069   8.431   5.559   4.749 -0.5668  1.3282 -0.7261
  226MOL0     C31070   8.475   5.504   4.619  0.4392 -0.2988 -0.8608
  226MOL0     C31071   8.578   5.389   4.630  0.0527 -0.1518 -0.5572
  226MOL0     C31072   8.524   5.273   4.717  0.0624  0.1406  0.0889
  226MOL0     C31073   8.458   5.163   4.637  0.3653  0.6191  0.3700
  226MOL0     O31074   8.539   5.112   4.528  0.6470 -0.1563  0.5745
  226MOL0     C31075   8.475   5.049   4.427 -0.4270 -0.4847  0.2572
  226MOL0     C31076   8.465   4.909   4.435  0.1263 -0.5115 -0.4998
  226MOL0     C31077   8.390   4.831   4.342  0.1700 -0.5767  0.5678
  226MOL0     C31078   8.402   4.677   4.347  0.1229  1.5881  0.0126
  226MOL0     C31079   8.312   4.898   4.248 -0.0184 -0.6493  0.0795
  226MOL0     C31080   8.217   4.835   4.149  0.2236 -0.1907  0.0111
  226MOL0     O31081   8.103   4.906   4.119 -0.2658  0.2938  0.3574
  226MOL0     C31082   8.035   4.868   4.005 -0.5347  0.1309  0.8482
  226MOL0     C31083   8.081   4.875   3.879 -1.5514 -0.6310  0.0678
  226MOL0     C31084   8.007   4.833   3.776  0.7490  1.1105  0.2836
  226MOL0     C31085   7.871   4.788   3.785 -0.2276 -0.0977  0.2693
  226MOL0     O31086   7.785   4.729   3.695 -0.2207 -0.5095  0.2138
  226MOL0     C31087   7.826   4.740   3.565  0.4082 -0.0262  0.6288
  226MOL0     C31088   7.739   4.638   3.488  0.0994 -0.2635 -0.3030
  226MOL0     C31089   7.764   4.649   3.338 -0.0146 -0.3610  0.2960
  226MOL0     C31090   7.911   4.611   3.310 -0.5480 -0.1875 -0.1323
  226MOL0     C31091   7.923   4.614   3.162  0.4054 -0.1620 -0.6846
  226MOL0     C31092   8.057   4.542   3.117  0.1434 -1.2056 -0.4080
  226MOL0     C31093   8.064   4.503   2.971  0.9497 -0.3834  0.2164
  226MOL0     C31094   8.196   4.442   2.941  0.4810 -0.2427  0.2589
  226MOL0    Cl31095   8.186   4.361   2.778  0.1504  0.0577  0.2381
  226MOL0     C31096   7.822   4.777   3.910  0.3338  0.2044 -0.0715
  226MOL0     C31097   7.901   4.808   4.016 -0.0339 -1.0296 -0.0353
  226MOL0     O31098   8.258   4.735   4.092 -0.0795  0.7869 -0.4486
  226MOL0     C31099   8.319   5.038   4.251 -0.7119  0.2847 -0.3808
  226MOL0     C31100   8.402   5.114   4.333 -0.2370 -0.2272 -0.5989
  226MOL0     N31101   8.521   5.635   4.830  0.3870 -0.2755  0.9806
  226MOL0     N31102   8.457   5.683   4.924 -0.5014 -0.6414  0.0400
  226MOL0     C31103   7.820   5.963   5.424 -0.2706  0.5747 -0.5929
  226MOL0     C31104   7.795   5.850   5.502 -0.5664  0.1496  0.6054
  226MOL0     C31105   7.778   5.463   5.680 -0.0316 -0.1297 -1.0716
  226MOL0     C31106   7.866   5.360   5.644 -0.3858  0.5082 -0.0524
  226MOL0     C31107   7.880   5.243   5.736  0.7300 -0.4350 -0.3971
  226MOL0     C31108   7.795   5.229   5.845  1.0561 -0.2067  0.4069
  226MOL0     O31109   7.808   5.117   5.916 -0.2729  0.1004 -1.0399
  226MOL0     C31110   7.747   5.010   5.852  0.5258  0.2025  0.5732
  226MOL0     C31111   7.842   4.928   5.772 -0.3633 -0.2701  0.6672
  226MOL0     C31112   7.954   4.866   5.863  0.1385 -0.2585  0.5123
  226MOL0     C31113   8.077   4.810   5.793  0.3891  0.7745  0.8695
  226MOL0     C31114   8.036   4.706   5.694  0.2238  0.4909 -0.3405
  226MOL0     C31115   7.966   4.629   5.629 -0.9330  0.3829  0.1668
  226MOL0     C31116   7.712   5.338   5.882  0.2670 -0.5257  0.2447
  226MOL0     C31117   7.700   5.453   5.805 -0.4242 -0.4504  0.5996
  226MOL0     C31118   7.608   5.558   5.850 -0.1001 -0.3976 -0.3404
  226MOL0     H31119   7.476   5.784   5.442 -0.4890  0.1953 -0.0910
  226MOL0     H31120   7.509   5.986   5.301  0.3280 -0.5603  0.5467
  226MOL0     H31121   7.550   6.204   5.222  0.5740  0.3632  2.1919
  226MOL0     H31122   7.614   6.071   5.138 -1.7482 -0.5480  2.8905
  226MOL0     H31123   7.670   6.248   4.987 -0.5101 -0.7577 -0.2862
  226MOL0     H31124   7.694   6.358   5.106 -0.3111 -0.6707 -0.3008
  226MOL0     H31125   7.902   6.317   5.016 -3.9940 -0.9390 -3.0336
  226MOL0     H31126   7.912   6.236   5.177 -1.8705  0.1975  1.1858
  226MOL0     H31127   7.852   6.019   5.065  0.6980 -0.0106  0.2659
  226MOL0     H31128   7.864   6.111   4.914 -0.2075 -0.7363  0.0713
  226MOL0     H31129   8.101   6.104   5.108 -1.5922  0.4898 -1.4837
  226MOL0     H31130   8.101   6.094   4.930  0.7822 -2.2822 -1.0276
  226MOL0     H31131   8.064   5.863   5.124 -2.7349  1.6169  1.0721
  226MOL0     H31132   7.990   5.866   4.959  2.4577 -1.2990 -2.8786
  226MOL0     H31133   8.271   5.908   5.026 -1.0399  1.6761 -0.2178
  226MOL0     H31134   8.198   5.895   4.850 -1.6899  3.9919  0.0399
  226MOL0     H31135   8.211   5.683   5.080 -0.2721 -0.6384 -0.4505
  226MOL0     H31136   8.117   5.662   4.949  0.1824 -2.8387  3.6579
  226MOL0     H31137   8.221   5.496   4.788  0.3504 -2.5767  2.6720
  226MOL0     H31138   8.528   5.590   4.578  1.3829  1.4174  3.4268
  226MOL0     H31139   8.392   5.461   4.562  0.9940 -3.2785  0.3517
  226MOL0     H31140   8.592   5.349   4.529 -0.6130  2.2649 -1.6647
  226MOL0     H31141   8.670   5.433   4.670 -0.9050  1.1156  0.3275
  226MOL0     H31142   8.607   5.224   4.769 -3.3305 -2.6942  3.4056
  226MOL0     H31143   8.466   5.311   4.803  1.4252  0.0183  1.1023
  226MOL0     H31144   8.433   5.075   4.696  2.1971 -0.0247  0.2422
  226MOL0     H31145   8.359   5.197   4.603  1.2879  2.9417 -0.1702
  226MOL0     H31146   8.504   4.854   4.519 -0.9429 -0.9561 -0.2760
  226MOL0     H31147   8.467   4.636   4.425 -2.4142  0.2603  1.5684
  226MOL0     H31148   8.441   4.646   4.250 -2.5472  4.1542 -2.0747
  226MOL0     H31149   8.304   4.631   4.361 -0.5285  2.4304 -1.5193
  226MOL0     H31150   8.177   4.921   3.857 -2.5839  1.1996 -0.8782
  226MOL0     H31151   8.050   4.827   3.676 -1.2627 -2.7213 -0.5631
  226MOL0     H31152   7.797   4.839   3.527 -1.2645 -1.5237 -2.4200
  226MOL0     H31153   7.933   4.726   3.551  0.2314 -0.6238 -0.1822
  226MOL0     H31154   7.768   4.536   3.517 -0.1569 -0.7983 -1.8215
  226MOL0     H31155   7.635   4.656   3.518  1.2229  2.9995  2.2542
  226MOL0     H31156   7.730   4.744   3.296  1.7351  0.1502 -0.0336
  226MOL0     H31157   7.710   4.568   3.288  0.9514 -0.7447 -0.1530
  226MOL0     H31158   7.943   4.515   3.351  1.3944  0.3427 -0.3015
  226MOL0     H31159   7.985   4.681   3.350 -1.2397  1.5236 -1.7188
  226MOL0     H31160   7.839   4.557   3.121 -1.1971  0.1020  1.9918
  226MOL0     H31161   7.916   4.713   3.116  0.8569  0.4163  0.4677
  226MOL0     H31162   8.066   4.452   3.179 -2.0073 -0.8023  0.5836
  226MOL0     H31163   8.133   4.612   3.154  0.9784 -2.6830  0.7916
  226MOL0     H31164   8.047   4.593   2.911  2.4442 -0.3613 -0.2137
  226MOL0     H31165   7.981   4.432   2.965 -0.3875  1.1936 -0.5903
  226MOL0     H31166   8.231   4.373   3.018  0.2481 -1.9928 -1.1522
  226MOL0     H31167   8.276   4.517   2.944  1.6375 -1.4392  2.9677
  226MOL0     H31168   7.726   4.730   3.926  0.1179  1.4485  3.0472
  226MOL0     H31169   7.857   4.787   4.113 -3.1546 -2.3825 -1.6153
  226MOL0     H31170   8.257   5.084   4.175 -0.2165  1.3378 -0.1647
  226MOL0     H31171   8.400   5.221   4.314  1.2145 -0.0778 -0.0801
  226MOL0     H31172   7.919   6.004   5.409  0.2789 -0.1520  0.8643
  226MOL0     H31173   7.874   5.808   5.563  1.0269  2.8618  0.5493
  226MOL0     H31174   7.925   5.366   5.552  1.9493 -2.0983  1.1400
  226MOL0     H31175   7.951   5.171   5.697  0.3482 -0.6126 -0.7768
  226MOL0     H31176   7.697   4.948   5.928 -0.5940  0.8101  0.3424
  226MOL0     H31177   7.661   5.040   5.792 -0.0725  3.0490  2.6435
  226MOL0     H31178   7.900   4.974   5.691 -0.2503 -2.0367 -0.3187
  226MOL0     H31179   7.790   4.845   5.722  0.5898  0.8581 -2.4231
  226MOL0     H31180   7.999   4.943   5.927  2.2267 -0.6223 -0.4287
  226MOL0     H31181   7.909   4.787   5.925  0.5987  0.5217  1.8815
  226MOL0     H31182   8.147   4.762   5.863 -1.1107  0.1355  1.9806
  226MOL0     H31183   8.130   4.893   5.745 -0.9093 -0.1345 -2.3966
  226MOL0     H31184   7.896   4.560   5.587 -2.0360  0.3761  1.9381
  226MOL0     H31185   7.652   5.320   5.970  0.5375  1.3409  0.8594
  226MOL0     H31186   7.515   5.548   5.793 -2.0656  1.4581  2.3462
  226MOL0     H31187   7.568   5.543   5.950  1.3768  0.2570  0.3714
  226MOL0     H31188   7.656   5.655   5.837  2.7220 -1.6631 -0.1827
  227MOL0     O31189   1.884   9.195   8.370 -0.2363 -0.2667  0.1554
  227MOL0     C31190   1.974   9.131   8.327 -1.1406  0.1608  0.6880
  227MOL0     O31191   1.965   9.031   8.233 -0.4562  0.4928  0.0214
  227MOL0     C31192   1.853   8.957   8.226  0.2086 -0.0323 -1.2072
  227MOL0     C31193   1.858   8.820   8.267  0.0690 -0.2989 -0.4323
  227MOL0     C31194   1.750   8.733   8.263 -0.7026  0.0723 -0.2624
  227MOL0     C31195   1.629   8.783   8.204 -0.1057  0.0089 -0.7439
  227MOL0     O31196   1.540   8.678   8.184 -0.3330  0.1356  0.3053
  227MOL0     C31197   1.401   8.698   8.198  0.2956 -0.2192 -0.4428
  227MOL0     C31198   1.362   8.709   8.345 -0.0507  0.0726 -0.6206
  227MOL0     C31199   1.213   8.745   8.353 -0.4598  0.1226 -0.3511
  227MOL0     C31200   1.174   8.754   8.503  0.4324 -0.4497 -0.3299
  227MOL0     C31201   1.024   8.741   8.527 -1.0201  0.5747  0.3391
  227MOL0     C31202   0.946   8.840   8.440  0.5999 -0.1864  0.3159
  227MOL0     C31203   0.796   8.838   8.463 -0.1906  0.4048  1.0961
  227MOL0     C31204   0.712   8.972   8.475  0.5155  0.0085  0.1387
  227MOL0     N31205   0.768   9.045   8.594  0.7397  0.1124 -0.0055
  227MOL0     C31206   0.869   9.144   8.590 -0.6934  0.3851 -0.1250
  227MOL0     C31207   0.886   9.170   8.724 -0.3446 -0.2302  0.6642
  227MOL0     C31208   0.977   9.271   8.776  0.1477  0.2855  0.9729
  227MOL0     C31209   1.120   9.230   8.802  0.6327 -0.5569  0.6216
  227MOL0     C31210   1.194   9.172   8.676  0.4216  0.2728 -0.5794
  227MOL0     C31211   1.332   9.168   8.711 -0.0917  1.1839  0.4115
  227MOL0     O31212   1.382   9.060   8.621  0.5071 -0.8905 -0.2330
  227MOL0     C31213   1.386   9.102   8.492 -0.4672  0.3451 -0.1524
  227MOL0     C31214   1.281   9.084   8.405  0.2652 -0.4709  0.9584
  227MOL0     C31215   1.275   9.143   8.276  0.6683 -0.5920  0.3612
  227MOL0     C31216   1.136   9.121   8.206  0.3202  0.3324  0.3626
  227MOL0     C31217   1.378   9.223   8.230 -0.7100  0.1994 -0.1163
  227MOL0     C31218   1.394   9.293   8.104 -1.1061  0.2050 -0.0079
  227MOL0     O31219   1.512   9.363   8.093 -0.5609  0.6822  0.3364
  227MOL0     C31220   1.543   9.394   7.961 -0.3542 -0.8759 -0.4641
  227MOL0     C31221   1.542   9.522   7.928 -0.2379 -0.7253 -0.2634
  227MOL0     C31222   1.575   9.554   7.788  0.0668  0.2485  0.4824
  227MOL0     C31223   1.610   9.459   7.696 -0.3274  0.7408 -0.5675
  227MOL0     O31224   1.644   9.504   7.572  0.2842 -1.2054  0.0529
  227MOL0     C31225   1.747   9.436   7.500 -0.0051  0.1762 -0.5436
  227MOL0     C31226   1.780   9.508   7.370  0.2765 -0.4806 -0.6795
  227MOL0     C31227   1.897   9.439   7.314  1.0193  0.6975  1.2020
  227MOL0     C31228   1.915   9.474   7.169 -0.0973  0.3868  0.5477
  227MOL0     C31229   1.985   9.613   7.158 -0.9090  0.5604 -0.7412
  227MOL0     C31230   2.053   9.615   7.021 -0.5690 -0.5240  0.0252
  227MOL0     C31231   1.959   9.626   6.905  0.0908 -0.1199  0.3146
  227MOL0     C31232   2.029   9.655   6.770  0.0145 -0.0401 -0.5928
  227MOL0    Cl31233   1.908   9.599   6.648 -0.0292  0.5756 -0.4168
  227MOL0     C31234   1.623   9.331   7.740  0.2473  0.3770  0.1022
  227MOL0     C31235   1.590   9.295   7.874 -0.3237 -0.0391  0.4847
  227MOL0     O31236   1.308   9.292   8.022 -0.1496  0.5241  0.9142
  227MOL0     C31237   1.491   9.230   8.317  1.3486 -0.0157  0.3278
  227MOL0     C31238   1.490   9.170   8.439 -1.0028 -0.6597 -0.0445
  227MOL0     N31239   0.803   9.094   8.803 -0.3178 -0.3792 -0.2724
  227MOL0     N31240   0.732   9.025   8.725  0.2448  0.2276 -0.6063
  227MOL0     C31241   1.616   8.919   8.176  0.4916 -0.6378 -0.7418
  227MOL0     C31242   1.733   9.006   8.183  0.9501  0.4791  0.0153
  227MOL0     C31243   2.105   9.173   8.380  0.8159  0.0084  0.3192
  227MOL0     C31244   2.205   9.094   8.332 -1.0927 -0.2183  0.1468
  227MOL0     C31245   2.335   9.118   8.375  0.0004  0.3452  0.0014
  227MOL0     C31246   2.353   9.215   8.477 -0.1875  0.5344  0.0613
  227MOL0     O31247   2.472   9.237   8.539  0.3741  0.5143  0.0221
  227MOL0     C31248   2.584   9.250   8.444 -0.7903 -0.6695  0.1388
  227MOL0     C31249   2.709   9.306   8.502 -0.6014  0.1265 -1.5467
  227MOL0     C31250   2.686   9.442   8.579 -0.0271  0.1031  0.4104
  227MOL0     C31251   2.809   9.494   8.656  0.0107  0.2690 -0.0264
  227MOL0     C31252   2.924   9.520   8.571  0.2249 -0.9840  0.6577
  227MOL0     C31253   3.014   9.529   8.505 -1.4336 -0.2178  0.1398
  227MOL0     C31254   2.242   9.298   8.511 -0.7522 -0.4370  0.5124
  227MOL0     C31255   2.118   9.286   8.461 -0.6023 -0.5994  1.0198
  227MOL0     C31256   2.013   9.392   8.506 -0.0717  0.3728  0.4702
  227MOL0     H31257   1.955   8.792   8.307 -1.7337 -1.1605  3.9116
  227MOL0     H31258   1.751   8.629   8.291 -0.6884  0.6256  1.9421
  227MOL0     H31259   1.342   8.613   8.162 -4.2827  0.8788  3.4495
  227MOL0     H31260   1.395   8.784   8.131  3.1271  1.1442  0.9045
  227MOL0     H31261   1.385   8.617   8.399 -0.9350  0.2352  0.0708
  227MOL0     H31262   1.422   8.791   8.385 -1.4008  0.2211  1.2412
  227MOL0     H31263   1.187   8.834   8.296 -2.5166  0.2110  0.6174
  227MOL0     H31264   1.167   8.656   8.309  1.1774 -0.7439 -0.3767
  227MOL0     H31265   1.218   8.668   8.554  2.4947 -1.4011 -3.3940
  227MOL0     H31266   1.221   8.844   8.545 -1.7134 -0.4671  2.3459
  227MOL0     H31267   1.018   8.759   8.635  0.9723 -0.4834  0.6898
  227MOL0     H31268   0.995   8.642   8.489  4.3558 -0.6079 -1.6477
  227MOL0     H31269   0.977   8.942   8.465 -2.7392  1.6021 -2.0375
  227MOL0     H31270   0.983   8.813   8.341  0.1696 -3.4729  0.9469
  227MOL0     H31271   0.777   8.793   8.561  0.1913  4.0018  3.0031
  227MOL0     H31272   0.773   8.776   8.376  4.1667 -0.5029  0.3177
  227MOL0     H31273   0.744   9.032   8.389  2.6103  1.5985  1.9228
  227MOL0     H31274   0.603   8.960   8.475  0.4023  0.7445 -1.6578
  227MOL0     H31275   0.927   9.194   8.512 -1.8486 -0.9893 -1.9629
  227MOL0     H31276   0.938   9.314   8.869 -2.9996 -0.7603  0.2472
  227MOL0     H31277   0.979   9.355   8.706  1.5134 -0.8669 -0.4553
  227MOL0     H31278   1.173   9.314   8.848  2.2928 -0.8851 -0.5846
  227MOL0     H31279   1.101   9.162   8.885  1.5765  1.7870  2.8901
  227MOL0     H31280   1.148   9.073   8.665 -0.3317  0.5369  0.0707
  227MOL0     H31281   1.183   9.236   8.589  0.8657  3.7895  1.7345
  227MOL0     H31282   1.385   9.263   8.697  0.2975  0.7045 -1.6386
  227MOL0     H31283   1.338   9.129   8.813  0.5047  1.9669  0.6887
  227MOL0     H31284   1.196   9.042   8.458  1.0356  1.4289  3.9184
  227MOL0     H31285   1.129   9.097   8.100 -0.0605  0.9852  0.2372
  227MOL0     H31286   1.079   9.213   8.213 -2.5151 -0.9513 -3.0650
  227MOL0     H31287   1.085   9.043   8.263  3.4602 -0.5947  2.1844
  227MOL0     H31288   1.509   9.604   7.992 -0.4634 -1.6532  0.8373
  227MOL0     H31289   1.576   9.656   7.751 -1.3444 -1.1263 -4.0200
  227MOL0     H31290   1.836   9.436   7.562  0.3712  3.6042 -0.9104
  227MOL0     H31291   1.717   9.333   7.480 -1.8585  0.0467  2.3191
  227MOL0     H31292   1.693   9.518   7.306  2.0933 -0.6170 -3.3332
  227MOL0     H31293   1.806   9.613   7.392  1.1972 -0.4659 -1.7455
  227MOL0     H31294   1.878   9.331   7.313  2.9167  0.3288  1.7817
  227MOL0     H31295   1.976   9.470   7.382  2.3868  1.9669 -0.8237
  227MOL0     H31296   1.823   9.462   7.111 -1.6418  2.3501  2.4412
  227MOL0     H31297   1.986   9.405   7.122  1.3099  0.0571  2.9952
  227MOL0     H31298   1.906   9.688   7.168 -2.3546 -0.7410 -1.9953
  227MOL0     H31299   2.062   9.626   7.235 -1.4112 -1.1181  0.0903
  227MOL0     H31300   2.112   9.525   7.002 -1.7040 -0.9340 -1.8710
  227MOL0     H31301   2.110   9.708   7.023 -1.9158  0.3563 -1.0388
  227MOL0     H31302   1.888   9.703   6.934  0.9848  0.1512  1.8611
  227MOL0     H31303   1.890   9.541   6.903 -1.7889  1.3529 -0.6857
  227MOL0     H31304   2.116   9.589   6.774 -0.8064 -1.1022  1.2225
  227MOL0     H31305   2.054   9.761   6.762  2.7521 -0.6132 -0.4727
  227MOL0     H31306   1.649   9.251   7.672 -1.1197 -0.3617  0.4092
  227MOL0     H31307   1.593   9.194   7.912  2.5982  0.1724  1.0059
  227MOL0     H31308   1.569   9.304   8.299 -1.4042  3.6732  2.2289
  227MOL0     H31309   1.585   9.188   8.488 -1.1065  2.5042 -0.8040
  227MOL0     H31310   1.526   8.968   8.142  0.5813  0.7733  0.9452
  227MOL0     H31311   1.732   9.110   8.152  0.2644  0.4898  0.0514
  227MOL0     H31312   2.205   9.004   8.272  2.6282 -1.3355  1.5201
  227MOL0     H31313   2.422   9.063   8.342  1.6064  1.9525  1.3799
  227MOL0     H31314   2.616   9.156   8.398 -2.0681 -1.9102  1.6193
  227MOL0     H31315   2.547   9.317   8.367 -4.5420 -1.3563  1.1348
  227MOL0     H31316   2.783   9.330   8.425  1.9039  2.2307  1.2722
  227MOL0     H31317   2.749   9.231   8.571 -1.5118  0.8904 -0.1350
  227MOL0     H31318   2.642   9.518   8.514 -0.8827 -4.2366 -4.8412
  227MOL0     H31319   2.610   9.432   8.658 -0.2574  3.4096  0.7453
  227MOL0     H31320   2.836   9.415   8.726 -0.3046  0.6891  0.5748
  227MOL0     H31321   2.780   9.576   8.722  3.7569  1.3488  0.5080
  227MOL0     H31322   3.104   9.557   8.456 -1.6319 -1.0596 -0.7328
  227MOL0     H31323   2.272   9.368   8.588  0.8660 -2.0339  1.3918
  227MOL0     H31324   2.071   9.474   8.552  0.7787 -0.3733  0.7555
  227MOL0     H31325   1.967   9.444   8.422 -0.8799  0.9724  1.2606
  227MOL0     H31326   1.934   9.349   8.568 -2.0488  0.5471 -1.8059
  228MOL0     O31327   9.093   1.684   5.479 -0.6207  0.1039  0.2126
  228MOL0     C31328   9.017   1.673   5.380 -0.9919 -0.3772 -0.8647
  228MOL0     O31329   8.917   1.761   5.347  0.5880  0.2115  0.8244
  228MOL0     C31330   8.889   1.863   5.426 -0.4675 -1.4643  0.4644
  228MOL0     C31331   8.818   1.862   5.544 -0.7225  0.1307  0.2370
  228MOL0     C31332   8.790   1.976   5.617 -0.1332 -0.3176 -0.1206
  228MOL0     C31333   8.844   2.100   5.580 -0.8443 -0.0094  0.2041
  228MOL0     O31334   8.813   2.214   5.653  0.0839  0.2679 -0.2548
  228MOL0     C31335   8.900   2.329   5.641  0.1532  0.1319 -0.6981
  228MOL0     C31336   8.935   2.374   5.787 -0.2157  0.4717  0.3495
  228MOL0     C31337   9.023   2.495   5.794  0.3132  0.9423 -1.3540
  228MOL0     C31338   9.173   2.461   5.782 -0.8577 -0.5072  0.5736
  228MOL0     C31339   9.266   2.571   5.842  1.0376  0.7957 -0.5855
  228MOL0     C31340   9.416   2.527   5.821  0.4258 -0.1474  1.0845
  228MOL0     C31341   9.508   2.633   5.877  0.8341  0.7960  0.0575
  228MOL0     C31342   9.658   2.617   5.852  0.2063  0.7303 -0.1630
  228MOL0     N31343   9.698   2.577   5.712 -0.0366 -0.4519 -0.3464
  228MOL0     C31344   9.744   2.447   5.680  0.7063 -0.2653 -0.3511
  228MOL0     C31345   9.757   2.438   5.546 -1.4394 -1.0708 -0.2163
  228MOL0     C31346   9.811   2.334   5.463 -0.6346  0.6300  0.5449
  228MOL0     C31347   9.963   2.336   5.472 -1.0534 -0.7361  0.6230
  228MOL0     C31348  10.028   2.368   5.333 -0.7612 -0.5294  0.8145
  228MOL0     C31349  10.042   2.520   5.310  0.6967 -1.0954  0.2812
  228MOL0     O31350  10.162   2.578   5.362 -0.3705  0.0471  0.7658
  228MOL0     C31351  10.164   2.718   5.365 -0.1023  0.2525  0.2884
  228MOL0     C31352  10.057   2.815   5.385 -0.1221  0.3482  0.7577
  228MOL0     C31353  10.087   2.953   5.389 -0.9578 -0.3640  0.6836
  228MOL0     C31354   9.972   3.046   5.428  0.3003 -0.6158  0.4354
  228MOL0     C31355  10.216   2.998   5.353  0.0248 -0.6112  0.8292
  228MOL0     C31356  10.257   3.145   5.343  0.3824  0.5346  0.4762
  228MOL0     O31357  10.385   3.171   5.291 -0.3834  0.5505 -0.6040
  228MOL0     C31358  10.420   3.301   5.262  0.2707  0.0316  0.2074
  228MOL0     C31359  10.399   3.413   5.349 -0.0936 -0.1723  0.6854
  228MOL0     C31360  10.430   3.545   5.317  0.9178 -0.4408  0.0600
  228MOL0     C31361  10.489   3.564   5.199 -0.0618  0.2273  1.2373
  228MOL0     O31362  10.526   3.692   5.169  0.2480 -0.0423  0.3596
  228MOL0     C31363  10.600   3.715   5.051  0.1940  0.3652  0.8875
  228MOL0     C31364  10.631   3.867   5.043 -0.0750  0.9027 -1.2972
  228MOL0     C31365  10.518   3.955   5.009 -0.4600  0.2468 -0.1684
  228MOL0     C31366  10.460   4.001   5.141 -0.0875  0.7920 -0.4263
  228MOL0     C31367  10.311   4.046   5.128  0.0805  0.7499  0.5234
  228MOL0     C31368  10.248   4.073   5.266 -0.5164 -1.0478 -0.2641
  228MOL0     C31369  10.240   3.942   5.354 -0.4797 -0.5187 -0.3445
  228MOL0     C31370  10.196   3.807   5.283  1.0092  0.2694 -0.2249
  228MOL0    Cl31371  10.025   3.828   5.225  0.0359 -0.6025  0.1901
  228MOL0     C31372  10.514   3.464   5.110  0.9385 -0.2055  0.8315
  228MOL0     C31373  10.464   3.332   5.136 -0.0271  0.2063 -1.0014
  228MOL0     O31374  10.181   3.228   5.385 -0.1637 -0.2931 -0.6250
  228MOL0     C31375  10.324   2.899   5.345 -0.2728 -0.0682  0.3198
  228MOL0     C31376  10.300   2.763   5.342  0.0510 -0.6112  0.6439
  228MOL0     N31377   9.727   2.563   5.495  0.0518 -0.2329 -1.0345
  228MOL0     N31378   9.701   2.643   5.593  0.4974 -1.1384 -0.3839
  228MOL0     C31379   8.910   2.115   5.451 -0.1374 -0.4458 -0.4154
  228MOL0     C31380   8.935   1.996   5.390  0.3272 -0.4953 -0.1859
  228MOL0     C31381   9.028   1.541   5.299 -0.0049 -0.6874 -0.0751
  228MOL0     C31382   8.910   1.472   5.273 -0.1311  0.1007 -1.3763
  228MOL0     C31383   8.920   1.346   5.209  1.0103  0.1411  0.2424
  228MOL0     C31384   9.039   1.300   5.147  1.1976  0.5065  1.1231
  228MOL0     O31385   9.013   1.183   5.079 -0.2076 -0.1334 -0.2122
  228MOL0     C31386   9.107   1.081   5.085 -0.2325  0.4077 -0.4348
  228MOL0     C31387   9.059   0.935   5.056  0.3794 -0.5900  0.5212
  228MOL0     C31388   9.157   0.831   5.086  0.1341  0.1183  0.1818
  228MOL0     C31389   9.268   0.805   4.977 -0.7450 -0.7353  0.1364
  228MOL0     C31390   9.347   0.691   5.029 -0.1792 -0.9742 -0.4439
  228MOL0     C31391   9.408   0.614   5.087  0.2464  0.2855 -0.8025
  228MOL0     C31392   9.153   1.369   5.170 -0.3408  0.7301  1.3249
  228MOL0     C31393   9.148   1.491   5.237  0.2965  0.1086  0.3613
  228MOL0     C31394   9.275   1.569   5.243  1.1400  0.7229 -0.0709
  228MOL0     H31395   8.776   1.777   5.599 -0.0797 -0.7844 -0.6519
  228MOL0     H31396   8.743   1.975   5.715 -0.3460  1.0393 -0.1818
  228MOL0     H31397   8.848   2.413   5.593  3.9680  0.3385 -5.1677
  228MOL0     H31398   8.994   2.304   5.591  0.2664 -0.3616 -0.2425
  228MOL0     H31399   8.845   2.401   5.843  0.0592  0.9559  0.5576
  228MOL0     H31400   8.989   2.297   5.842  3.3907  3.7704  1.8365
  228MOL0     H31401   9.001   2.573   5.720 -1.6051 -0.4420 -2.3067
  228MOL0     H31402   9.016   2.533   5.896  1.8328  0.1892 -0.9480
  228MOL0     H31403   9.185   2.360   5.821 -1.1197 -0.1546  1.6030
  228MOL0     H31404   9.182   2.450   5.674 -2.3747  0.8402  0.2782
  228MOL0     H31405   9.233   2.583   5.946  1.4333  1.7481 -0.5568
  228MOL0     H31406   9.253   2.671   5.798  1.9563  0.0722 -2.6039
  228MOL0     H31407   9.432   2.422   5.850 -2.5803 -0.4821  1.8959
  228MOL0     H31408   9.432   2.528   5.713 -1.4584  4.8142  0.5968
  228MOL0     H31409   9.502   2.636   5.986  3.3230  2.9122  0.2266
  228MOL0     H31410   9.469   2.722   5.827  1.6518  1.4133  0.4890
  228MOL0     H31411   9.703   2.713   5.878  1.3185  0.6441 -1.6082
  228MOL0     H31412   9.697   2.536   5.915 -1.1413 -0.9387 -1.3770
  228MOL0     H31413   9.776   2.368   5.747  2.1879  0.9929  0.5252
  228MOL0     H31414   9.773   2.348   5.361  0.9480 -0.4870 -0.2419
  228MOL0     H31415   9.787   2.232   5.496 -0.7303  0.7181  0.7466
  228MOL0     H31416   9.997   2.410   5.544 -2.3645 -0.5062  1.0422
  228MOL0     H31417  10.010   2.240   5.494  0.8436  0.2107  0.8412
  228MOL0     H31418  10.131   2.331   5.327 -0.0174  1.6484 -1.2534
  228MOL0     H31419   9.972   2.329   5.247  0.9884 -2.1305  0.3341
  228MOL0     H31420  10.052   2.540   5.203 -3.2759  0.1431 -0.0147
  228MOL0     H31421   9.952   2.574   5.343 -0.0281 -0.4713 -2.5083
  228MOL0     H31422   9.957   2.789   5.419 -0.6286  0.2456 -0.7174
  228MOL0     H31423   9.879   2.988   5.437 -0.8309  0.7096 -1.8070
  228MOL0     H31424   9.953   3.116   5.346 -1.8853 -1.9547 -0.2873
  228MOL0     H31425   9.993   3.110   5.514  0.2001 -0.7229  0.5396
  228MOL0     H31426  10.349   3.398   5.444  0.4265  0.3997  1.0508
  228MOL0     H31427  10.420   3.629   5.385  1.3487 -1.8609  1.9574
  228MOL0     H31428  10.696   3.664   5.065 -0.7465 -2.1280 -0.9732
  228MOL0     H31429  10.554   3.684   4.956  0.5395  2.0179  0.1468
  228MOL0     H31430  10.676   3.878   5.143  0.5901  2.6127 -1.7408
  228MOL0     H31431  10.715   3.870   4.974  0.1316 -2.0390 -1.2751
  228MOL0     H31432  10.438   3.910   4.950 -1.0981 -1.7541  2.0551
  228MOL0     H31433  10.566   4.034   4.951  0.6870 -0.7060 -0.5641
  228MOL0     H31434  10.518   4.079   5.190 -2.7698  2.4074  0.3938
  228MOL0     H31435  10.478   3.931   5.223 -0.2930  0.8314 -0.3456
  228MOL0     H31436  10.309   4.134   5.063  1.1367  0.6527  0.3347
  228MOL0     H31437  10.252   3.969   5.079  1.5816 -0.2360  0.1911
  228MOL0     H31438  10.144   4.106   5.258 -0.3822 -1.0408 -2.8015
  228MOL0     H31439  10.301   4.150   5.323 -2.8517 -1.0277  2.0586
  228MOL0     H31440  10.180   3.967   5.442  1.4779  2.1479  0.3638
  228MOL0     H31441  10.343   3.932   5.388 -0.6884  0.1145  0.4904
  228MOL0     H31442  10.212   3.738   5.366  2.8164  0.1787 -0.6041
  228MOL0     H31443  10.257   3.765   5.202 -0.2787 -3.7588  0.6746
  228MOL0     H31444  10.546   3.477   5.007 -4.3323 -0.8496 -1.2028
  228MOL0     H31445  10.480   3.245   5.073 -1.0609  0.3933 -1.5385
  228MOL0     H31446  10.424   2.933   5.322  0.5587 -0.8303  2.5712
  228MOL0     H31447  10.374   2.686   5.319  1.7129  0.8757  0.8373
  228MOL0     H31448   8.936   2.207   5.400  2.1965 -1.6415 -1.5381
  228MOL0     H31449   8.985   1.996   5.294  4.4318  2.4767  1.6067
  228MOL0     H31450   8.815   1.508   5.309 -0.4814 -1.8818 -0.1492
  228MOL0     H31451   8.841   1.281   5.175 -0.1534  2.2266 -1.2392
  228MOL0     H31452   9.180   1.110   5.009 -0.0443 -0.7315 -0.7094
  228MOL0     H31453   9.159   1.074   5.181 -0.2566 -1.3153 -0.5150
  228MOL0     H31454   9.034   0.925   4.950  0.2806 -1.5588  0.6303
  228MOL0     H31455   8.965   0.915   5.109  1.4996 -2.6330  1.8090
  228MOL0     H31456   9.214   0.852   5.177  4.1292 -1.2585 -1.7402
  228MOL0     H31457   9.111   0.733   5.099  0.7806 -0.7354 -2.9760
  228MOL0     H31458   9.326   0.898   4.982  0.5167 -1.5514  1.2405
  228MOL0     H31459   9.231   0.790   4.875 -3.0439  3.1779  0.1846
  228MOL0     H31460   9.480   0.562   5.148  3.3495  2.1093 -2.6409
  228MOL0     H31461   9.247   1.330   5.132  1.7123  3.5769  3.0483
  228MOL0     H31462   9.262   1.676   5.227  0.0456  0.4794 -0.9472
  228MOL0     H31463   9.336   1.562   5.334  2.2146  2.3186 -0.6236
  228MOL0     H31464   9.339   1.530   5.164  1.1254 -0.6239  0.5554
  229MOL0     O31465  10.491  10.601   7.428  0.1216  0.8592  0.2594
  229MOL0     C31466  10.525  10.697   7.361  0.1065 -0.3355  0.6235
  229MOL0     O31467  10.634  10.772   7.379 -0.1075 -0.3469  0.7715
  229MOL0     C31468  10.692  10.761   7.498 -0.2693 -0.2316 -0.1353
  229MOL0     C31469  10.772  10.650   7.532  0.1909  0.8100 -0.4442
  229MOL0     C31470  10.826  10.629   7.656  0.0943  0.4244  1.1937
  229MOL0     C31471  10.813  10.728   7.760  0.1852  0.2232  0.1162
  229MOL0     O31472  10.849  10.726   7.890 -0.1980  0.7739  0.2710
  229MOL0     C31473  10.874  10.590   7.941 -0.3314  0.0222  0.2471
  229MOL0     C31474  10.841  10.586   8.089 -0.6620  0.6138  0.5638
  229MOL0     C31475  10.704  10.641   8.132  0.3125  0.3578  0.7994
  229MOL0     C31476  10.708  10.653   8.285 -0.0732 -0.1775  0.3916
  229MOL0     C31477  10.576  10.705   8.339  0.3936 -0.6065 -0.5056
  229MOL0     C31478  10.571  10.746   8.490 -0.2453 -0.6562 -0.0489
  229MOL0     C31479  10.440  10.815   8.523  0.0288  0.1019 -0.1720
  229MOL0     C31480  10.423  10.844   8.681 -0.4099 -0.6824  1.3086
  229MOL0     N31481  10.304  10.933   8.705 -0.3280 -0.6853  1.0304
  229MOL0     C31482  10.286  11.048   8.625  0.1726  0.3437  0.2280
  229MOL0     C31483  10.174  11.099   8.688 -0.4699 -0.3408 -0.3446
  229MOL0     C31484  10.126  11.232   8.642 -0.2299 -0.0263  0.1384
  229MOL0     C31485  10.057  11.310   8.762  1.4231  0.0433  0.6692
  229MOL0     C31486  10.042  11.454   8.724 -0.0745  0.1262  0.1643
  229MOL0     C31487   9.906  11.515   8.741  0.0946  0.4033 -1.1067
  229MOL0     O31488   9.806  11.433   8.667  0.3722  0.6821 -0.6828
  229MOL0     C31489   9.672  11.429   8.718 -0.1116  0.7174 -0.3719
  229MOL0     C31490   9.626  11.527   8.806  0.3973  0.1034 -0.0813
  229MOL0     C31491   9.494  11.525   8.853  0.2742  0.3643 -0.3994
  229MOL0     C31492   9.449  11.648   8.944 -0.3186  1.2447 -0.1363
  229MOL0     C31493   9.408  11.420   8.811 -0.1577  1.0682 -0.5581
  229MOL0     C31494   9.264  11.416   8.851  0.2547  0.6242  0.4164
  229MOL0     O31495   9.217  11.289   8.891 -0.4326  0.0796 -0.0849
  229MOL0     C31496   9.099  11.280   8.956  0.0988  0.3197 -0.2004
  229MOL0     C31497   9.084  11.213   9.081 -0.2439  0.4354 -0.3387
  229MOL0     C31498   8.953  11.190   9.138  0.2939 -1.2102  0.3446
  229MOL0     C31499   8.839  11.227   9.067  0.2389 -0.5022 -1.2447
  229MOL0     O31500   8.723  11.186   9.129  1.1096  0.6147 -0.2402
  229MOL0     C31501   8.603  11.193   9.051  0.7091  0.0119 -0.7571
  229MOL0     C31502   8.479  11.177   9.135 -0.3728 -0.7685 -0.7417
  229MOL0     C31503   8.357  11.196   9.040 -0.2363 -0.0725 -0.0169
  229MOL0     C31504   8.234  11.160   9.131 -0.4436 -0.4350 -1.3039
  229MOL0     C31505   8.191  11.270   9.236 -0.0178 -0.2840 -0.0349
  229MOL0     C31506   8.162  11.211   9.382 -0.5672  0.3731  0.3221
  229MOL0     C31507   8.150  11.334   9.481  0.2598  0.1931  0.9082
  229MOL0     C31508   8.239  11.312   9.602  0.6187  0.9276 -0.5214
  229MOL0    Cl31509   8.241  11.450   9.705 -0.2236  0.3992 -0.1469
  229MOL0     C31510   8.856  11.309   8.956  0.3857  0.6758 -0.1323
  229MOL0     C31511   8.980  11.327   8.899  0.3314  0.0308  0.6058
  229MOL0     O31512   9.203  11.521   8.854  0.6423  0.3696 -0.4804
  229MOL0     C31513   9.454  11.311   8.724  0.8597 -0.5988 -1.1707
  229MOL0     C31514   9.590  11.314   8.682  1.0039 -0.6889  0.2803
  229MOL0     N31515  10.134  11.014   8.789  0.3140 -0.8353 -0.1062
  229MOL0     N31516  10.202  10.916   8.793  0.2419 -0.5812  0.0849
  229MOL0     C31517  10.727  10.836   7.721 -0.9070 -0.1236 -0.8361
  229MOL0     C31518  10.689  10.859   7.585  0.7254  0.4031 -0.3770
  229MOL0     C31519  10.422  10.766   7.271 -0.9637  1.3706 -0.3486
  229MOL0     C31520  10.425  10.901   7.260  0.5169 -0.6294  0.4116
  229MOL0     C31521  10.336  10.971   7.180 -0.4508 -0.4571 -0.0378
  229MOL0     C31522  10.237  10.908   7.117 -1.0589 -0.7362 -0.4431
  229MOL0     O31523  10.146  10.991   7.064 -0.2719 -0.1411  0.4970
  229MOL0     C31524  10.063  10.930   6.962 -0.7754  0.0855  0.0970
  229MOL0     C31525   9.978  11.043   6.909  0.5529  0.4175  0.5937
  229MOL0     C31526   9.898  10.981   6.799 -0.0278 -0.5781 -0.4770
  229MOL0     C31527   9.774  10.898   6.853  0.6089  1.3566 -1.0331
  229MOL0     C31528   9.666  10.966   6.918  0.6239 -0.1463  0.4844
  229MOL0     C31529   9.580  11.037   6.967  0.1367 -0.2107 -0.4537
  229MOL0     C31530  10.237  10.761   7.115  1.0974 -0.0068 -0.7539
  229MOL0     C31531  10.323  10.691   7.204 -0.0983  0.0351 -0.0719
  229MOL0     C31532  10.327  10.537   7.185  0.2708 -1.0934 -0.0700
  229MOL0     H31533  10.773  10.569   7.459 -3.4578 -0.1191  0.2966
  229MOL0     H31534  10.872  10.532   7.666 -0.5501 -0.1881 -1.2714
  229MOL0     H31535  10.978  10.562   7.923  0.1615  1.1048  1.2284
  229MOL0     H31536  10.811  10.508   7.905 -0.8824 -0.8325  2.9268
  229MOL0     H31537  10.847  10.480   8.115  1.3679 -0.2421 -2.7692
  229MOL0     H31538  10.916  10.646   8.141 -0.6140  0.2388  0.9402
  229MOL0     H31539  10.679  10.739   8.091 -1.0170 -0.1003  0.4826
  229MOL0     H31540  10.634  10.565   8.096  0.9904  0.9867 -2.1681
  229MOL0     H31541  10.727  10.554   8.327 -2.0734 -0.2371  1.2325
  229MOL0     H31542  10.790  10.721   8.310  0.2223 -0.5193  0.3551
  229MOL0     H31543  10.492  10.640   8.313 -0.7644  0.4303  0.5085
  229MOL0     H31544  10.556  10.792   8.276 -1.3450 -1.0900 -0.6643
  229MOL0     H31545  10.586  10.666   8.563  1.9359 -0.8838 -0.6748
  229MOL0     H31546  10.662  10.798   8.524 -0.9716 -1.1414  2.9314
  229MOL0     H31547  10.349  10.766   8.489  0.0568  0.1212 -0.2742
  229MOL0     H31548  10.454  10.912   8.474  1.4221  0.0250  0.0138
  229MOL0     H31549  10.411  10.754   8.742  1.7821 -1.6837  0.3633
  229MOL0     H31550  10.507  10.901   8.723 -1.1762 -1.1966  3.7407
  229MOL0     H31551  10.354  11.080   8.546  2.8583 -0.3296  2.1194
  229MOL0     H31552  10.051  11.211   8.565 -0.1804 -1.0358  0.3476
  229MOL0     H31553  10.207  11.296   8.607 -1.5034  0.3489 -2.3544
  229MOL0     H31554   9.954  11.271   8.768  1.0527  0.7350 -0.7722
  229MOL0     H31555  10.121  11.301   8.850  1.0494  1.0085  1.0540
  229MOL0     H31556  10.113  11.527   8.763  1.0970 -0.3404 -1.0394
  229MOL0     H31557  10.058  11.458   8.616 -1.5120  1.5613 -0.0404
  229MOL0     H31558   9.892  11.512   8.850  1.6956  1.7293 -0.8197
  229MOL0     H31559   9.898  11.622   8.721 -1.6358  0.7303  1.0090
  229MOL0     H31560   9.688  11.615   8.820 -2.2304  2.0892 -0.0459
  229MOL0     H31561   9.526  11.726   8.951  2.8323 -1.6061 -0.1003
  229MOL0     H31562   9.423  11.613   9.044  1.5912  1.3095  0.4231
  229MOL0     H31563   9.360  11.694   8.900  0.5353  2.9309 -0.1941
  229MOL0     H31564   9.179  11.176   9.119  0.8740 -0.3608 -3.5314
  229MOL0     H31565   8.943  11.155   9.240 -0.7237  2.4443  1.6431
  229MOL0     H31566   8.593  11.289   9.000 -1.2653 -2.1337 -4.9755
  229MOL0     H31567   8.601  11.109   8.981  0.9666  0.0507 -0.8108
  229MOL0     H31568   8.475  11.081   9.186  0.7748 -0.5547 -0.2283
  229MOL0     H31569   8.474  11.251   9.216 -1.6510 -1.0392 -0.5474
  229MOL0     H31570   8.357  11.139   8.947  1.3778  0.8730 -0.6310
  229MOL0     H31571   8.352  11.298   9.000 -0.7878  0.7460  2.0345
  229MOL0     H31572   8.242  11.064   9.184 -0.4855 -0.3015 -1.0487
  229MOL0     H31573   8.146  11.135   9.071  1.2228 -0.4972 -3.8267
  229MOL0     H31574   8.262  11.354   9.234  0.2708 -0.5326 -1.4074
  229MOL0     H31575   8.094  11.300   9.196  0.4508 -0.2690 -1.2127
  229MOL0     H31576   8.242  11.141   9.409 -3.0326 -1.7947  2.5945
  229MOL0     H31577   8.070  11.152   9.386  0.7639 -1.8604 -0.5411
  229MOL0     H31578   8.051  11.338   9.526 -0.7660 -1.3526 -1.0677
  229MOL0     H31579   8.185  11.425   9.431  0.7134 -1.4652 -2.0607
  229MOL0     H31580   8.343  11.285   9.579  0.9289 -0.5950  2.2319
  229MOL0     H31581   8.193  11.227   9.654  0.6370 -0.1915 -2.2388
  229MOL0     H31582   8.767  11.356   8.916  0.6500  0.0790 -1.4799
  229MOL0     H31583   8.953  11.370   8.803 -3.1700 -1.3692  0.8059
  229MOL0     H31584   9.387  11.229   8.701  0.4150 -0.5747 -0.0501
  229MOL0     H31585   9.633  11.232   8.625 -1.7642 -1.1746 -1.2462
  229MOL0     H31586  10.685  10.905   7.794 -1.0099 -1.9861  0.9492
  229MOL0     H31587  10.634  10.947   7.554 -2.9074 -2.6035 -3.5546
  229MOL0     H31588  10.506  10.957   7.304  0.6780  1.4792 -2.3077
  229MOL0     H31589  10.335  11.079   7.166 -4.2045  0.6996  5.5565
  229MOL0     H31590  10.124  10.887   6.883  1.4498  1.3640  1.0359
  229MOL0     H31591   9.995  10.850   6.992 -1.0983  0.3214  0.0073
  229MOL0     H31592  10.036  11.125   6.866  0.7093 -1.7783 -3.9212
  229MOL0     H31593   9.907  11.092   6.977 -0.9425 -0.6198 -0.1648
  229MOL0     H31594   9.853  11.058   6.735 -2.1303 -2.1144 -0.9396
  229MOL0     H31595   9.959  10.924   6.728 -1.5244  1.3660 -3.5513
  229MOL0     H31596   9.808  10.819   6.921 -1.5170  1.9483  0.8221
  229MOL0     H31597   9.732  10.846   6.766 -1.1533  0.2627  0.4181
  229MOL0     H31598   9.516  11.105   7.018  0.5618 -0.9411  1.1177
  229MOL0     H31599  10.174  10.707   7.046 -0.2101  0.1522  0.2865
  229MOL0     H31600  10.236  10.496   7.139  1.4505 -0.6828 -3.0232
  229MOL0     H31601  10.409  10.511   7.116 -0.7060 -2.7252 -0.6825
  229MOL0     H31602  10.345  10.491   7.282  0.7848 -0.6830  0.0344
  230MOL0     O31603   7.670   1.249   3.488  0.0533  0.1254  0.3658
  230MOL0     C31604   7.600   1.158   3.531  0.0202 -0.2066 -0.5263
  230MOL0     O31605   7.530   1.159   3.653  0.0281 -0.4343  0.2403
  230MOL0     C31606   7.518   1.273   3.731 -0.0940 -0.1509 -0.5534
  230MOL0     C31607   7.522   1.253   3.872 -0.3104  0.6581 -0.7544
  230MOL0     C31608   7.526   1.361   3.962  0.3010  0.4982  0.7555
  230MOL0     C31609   7.523   1.494   3.918 -0.7663 -0.1775  0.4577
  230MOL0     O31610   7.495   1.603   3.994  0.2624 -0.5220  0.2088
  230MOL0     C31611   7.405   1.595   4.103 -0.0562 -0.9762  0.1913
  230MOL0     C31612   7.361   1.735   4.140 -0.1573 -0.9934  0.2873
  230MOL0     C31613   7.255   1.728   4.251  0.3269 -0.2984  0.6956
  230MOL0     C31614   7.162   1.852   4.249 -0.5780  1.2920 -0.0238
  230MOL0     C31615   7.073   1.853   4.378  0.2580  0.1560 -0.3056
  230MOL0     C31616   6.949   1.956   4.379  0.5197 -0.1988  0.1458
  230MOL0     C31617   6.849   1.911   4.490  0.7235 -0.6443  0.0990
  230MOL0     C31618   6.727   2.009   4.491 -0.8354  0.7576 -0.2330
  230MOL0     N31619   6.652   1.997   4.367 -0.5823  0.0746 -0.5757
  230MOL0     C31620   6.647   2.086   4.264 -0.2020  0.2188  0.4365
  230MOL0     C31621   6.544   2.051   4.181 -0.2437  0.7334  0.1755
  230MOL0     C31622   6.489   2.121   4.055 -0.5018 -0.0701  0.3158
  230MOL0     C31623   6.501   2.274   4.050 -0.2688  0.3365  0.2627
  230MOL0     C31624   6.426   2.350   3.943  0.3115 -0.1580 -0.7761
  230MOL0     C31625   6.445   2.500   3.947 -0.0033 -0.0196 -0.8824
  230MOL0     O31626   6.583   2.512   3.914  0.2455 -0.1187  0.1257
  230MOL0     C31627   6.614   2.567   3.785  0.2463 -0.1973 -0.2014
  230MOL0     C31628   6.558   2.679   3.732  1.0257 -0.1406 -0.9701
  230MOL0     C31629   6.590   2.733   3.609 -0.1735  0.9743 -1.2539
  230MOL0     C31630   6.508   2.838   3.544  0.2432  0.4436  0.2880
  230MOL0     C31631   6.683   2.668   3.537  0.6000 -0.3609  0.1329
  230MOL0     C31632   6.727   2.721   3.413 -0.2016  1.1709 -0.1691
  230MOL0     O31633   6.757   2.846   3.403 -1.0196 -0.2580  0.7362
  230MOL0     C31634   6.824   2.889   3.295 -0.0699 -0.2359  0.5004
  230MOL0     C31635   6.957   2.911   3.299 -1.1325 -0.0396  0.0817
  230MOL0     C31636   7.039   2.958   3.201  0.0077  0.3659  0.1896
  230MOL0     C31637   6.973   2.971   3.073 -1.1377  0.1520 -0.5313
  230MOL0     O31638   7.061   3.027   2.979 -0.5570 -0.2256  0.0330
  230MOL0     C31639   6.992   3.091   2.871 -0.1907 -0.0410 -0.1294
  230MOL0     C31640   7.075   3.160   2.764 -0.1614 -0.4276  0.2672
  230MOL0     C31641   7.102   3.308   2.792 -0.4764 -0.3043 -0.0210
  230MOL0     C31642   7.129   3.392   2.665 -0.0111  0.0311  0.4092
  230MOL0     C31643   7.111   3.542   2.685 -0.2384 -0.1325 -0.6052
  230MOL0     C31644   7.210   3.596   2.782 -0.0420 -0.4786  0.3376
  230MOL0     C31645   7.186   3.749   2.807 -0.6904  0.4158 -0.4435
  230MOL0     C31646   7.233   3.768   2.954 -0.3064 -1.1904  0.2763
  230MOL0    Cl31647   7.229   3.946   2.993 -0.5133  0.0927 -0.1067
  230MOL0     C31648   6.840   2.950   3.067  0.1254  0.9406 -0.3174
  230MOL0     C31649   6.767   2.917   3.180  0.5083  0.2746  0.0335
  230MOL0     O31650   6.751   2.638   3.323 -1.0631  0.1874  0.1192
  230MOL0     C31651   6.740   2.557   3.588  0.1179  0.8119  0.0134
  230MOL0     C31652   6.704   2.502   3.704  0.4946  0.7904 -1.3348
  230MOL0     N31653   6.486   1.942   4.235 -0.3733 -0.1537 -0.3499
  230MOL0     N31654   6.547   1.908   4.344  0.5055 -0.2766 -0.2492
  230MOL0     C31655   7.533   1.517   3.783 -0.0700 -0.0168 -0.6631
  230MOL0     C31656   7.520   1.410   3.688 -0.9928 -0.6042  0.0103
  230MOL0     C31657   7.564   1.049   3.426 -0.8674  0.0073 -0.0493
  230MOL0     C31658   7.576   1.081   3.295 -0.0812 -0.6270  0.1866
  230MOL0     C31659   7.544   0.981   3.199  0.1783 -0.0110 -0.0968
  230MOL0     C31660   7.514   0.848   3.239 -0.0786 -0.6622  1.0270
  230MOL0     O31661   7.486   0.750   3.144  0.5609 -0.2038  0.5703
  230MOL0     C31662   7.498   0.770   3.003  0.2276  0.3009  0.6517
  230MOL0     C31663   7.373   0.844   2.955 -1.3673 -0.4591  0.7903
  230MOL0     C31664   7.392   0.875   2.804  0.2005 -0.0183  0.7324
  230MOL0     C31665   7.274   0.950   2.738  0.2521  0.4841  0.7080
  230MOL0     C31666   7.278   0.964   2.592 -0.1199 -0.0927 -0.1860
  230MOL0     C31667   7.305   0.961   2.471  0.0047 -0.5344  0.3374
  230MOL0     C31668   7.504   0.820   3.368 -0.6555 -0.5132 -0.0387
  230MOL0     C31669   7.536   0.920   3.465 -0.3316  1.1736 -0.5888
  230MOL0     C31670   7.534   0.879   3.614 -0.2528 -0.2128  0.7495
  230MOL0     H31671   7.527   1.150   3.907  1.4885  0.6740 -0.8407
  230MOL0     H31672   7.522   1.340   4.068  3.0924  0.7529  0.9826
  230MOL0     H31673   7.443   1.543   4.191 -0.9030 -2.4559 -0.2869
  230MOL0     H31674   7.305   1.560   4.078 -2.1861  2.5929  2.8367
  230MOL0     H31675   7.442   1.796   4.181 -1.8650  1.2987  0.4488
  230MOL0     H31676   7.312   1.789   4.058  0.0879  0.1548  0.8693
  230MOL0     H31677   7.179   1.650   4.261 -2.4811  2.5745  4.9048
  230MOL0     H31678   7.309   1.745   4.345 -0.3923  0.3247  1.0076
  230MOL0     H31679   7.215   1.948   4.242 -0.4051  1.3399  1.5831
  230MOL0     H31680   7.110   1.839   4.154  3.8862 -3.4704 -2.3364
  230MOL0     H31681   7.129   1.882   4.467 -0.4614  0.7149 -0.0201
  230MOL0     H31682   7.045   1.747   4.375 -1.0749  0.3941  1.6817
  230MOL0     H31683   6.973   2.062   4.394 -4.9181  1.7230 -1.9945
  230MOL0     H31684   6.903   1.948   4.281  0.1658 -0.3054  0.3197
  230MOL0     H31685   6.908   1.903   4.582 -0.2616 -4.3789  0.5817
  230MOL0     H31686   6.819   1.809   4.464  2.8854 -2.0268  2.5256
  230MOL0     H31687   6.661   1.987   4.575  1.0726  2.9457  1.9928
  230MOL0     H31688   6.768   2.110   4.498 -0.3975  0.5347  0.4099
  230MOL0     H31689   6.714   2.171   4.250  0.5562  0.3239  3.7978
  230MOL0     H31690   6.384   2.093   4.040 -0.4122  0.6016 -1.9305
  230MOL0     H31691   6.532   2.071   3.968 -0.1030  1.0057 -0.1136
  230MOL0     H31692   6.465   2.307   4.147  1.6822 -1.8506  1.8386
  230MOL0     H31693   6.608   2.297   4.042 -0.6409  2.8785  1.6952
  230MOL0     H31694   6.459   2.311   3.847 -1.5229  0.6983 -1.8072
  230MOL0     H31695   6.318   2.331   3.947 -0.2029  2.4429 -0.2842
  230MOL0     H31696   6.377   2.537   3.870 -2.5453 -0.3155  1.1144
  230MOL0     H31697   6.420   2.548   4.042  2.7035 -3.1223  1.6261
  230MOL0     H31698   6.471   2.725   3.778 -0.9204 -0.5093 -3.9947
  230MOL0     H31699   6.465   2.811   3.448  0.0351  0.1487  0.4619
  230MOL0     H31700   6.551   2.939   3.548  1.0759  0.0793  0.7053
  230MOL0     H31701   6.423   2.855   3.612 -0.7817 -0.9644 -0.6008
  230MOL0     H31702   7.007   2.892   3.394  0.9822  1.2659 -0.7066
  230MOL0     H31703   7.142   2.986   3.219 -0.8393  4.2649 -0.1414
  230MOL0     H31704   6.952   3.007   2.814 -1.4118  1.8308 -2.1804
  230MOL0     H31705   6.913   3.159   2.903  0.1841 -0.2103  1.2394
  230MOL0     H31706   7.169   3.108   2.748 -0.9746 -2.9912  2.8874
  230MOL0     H31707   7.009   3.149   2.677 -3.1775 -0.5194  2.3935
  230MOL0     H31708   7.187   3.323   2.858 -1.4868 -0.4818  1.3555
  230MOL0     H31709   7.018   3.351   2.847  1.1605  1.0393  1.5649
  230MOL0     H31710   7.075   3.355   2.578  2.7936  0.1455 -1.5310
  230MOL0     H31711   7.234   3.372   2.640  0.8307  2.3320  1.7336
  230MOL0     H31712   7.129   3.603   2.596 -2.8151 -0.5271 -1.4816
  230MOL0     H31713   7.010   3.568   2.717 -0.8286 -3.0751  0.2289
  230MOL0     H31714   7.312   3.568   2.752 -0.7894 -2.2093 -0.7505
  230MOL0     H31715   7.190   3.542   2.875 -1.0592  2.0255  1.6678
  230MOL0     H31716   7.080   3.775   2.797 -0.9509  0.4640  1.9735
  230MOL0     H31717   7.241   3.810   2.735  0.1049  1.6853  1.1741
  230MOL0     H31718   7.334   3.727   2.958 -0.0559 -0.5759  0.1802
  230MOL0     H31719   7.159   3.715   3.016 -0.7320 -0.7487  0.1528
  230MOL0     H31720   6.794   2.952   2.968  3.2992 -2.0828 -2.0827
  230MOL0     H31721   6.660   2.899   3.166  0.2867 -1.1770  2.8984
  230MOL0     H31722   6.823   2.503   3.542  1.2375  0.8176  1.9174
  230MOL0     H31723   6.744   2.407   3.738  0.6259  0.3363 -2.6928
  230MOL0     H31724   7.525   1.621   3.755 -2.7008  0.6423  2.0587
  230MOL0     H31725   7.532   1.421   3.581  1.4492  0.0598  0.2933
  230MOL0     H31726   7.627   1.168   3.255 -2.0135 -0.0089 -1.0903
  230MOL0     H31727   7.559   1.020   3.099 -0.0354 -4.2287 -1.9963
  230MOL0     H31728   7.586   0.833   2.985  1.1058 -0.5509  1.8363
  230MOL0     H31729   7.510   0.678   2.945  1.0039  1.2906 -0.8187
  230MOL0     H31730   7.365   0.944   3.001  2.2167  1.0419 -1.5080
  230MOL0     H31731   7.279   0.789   2.969 -1.6924 -0.3486 -0.7963
  230MOL0     H31732   7.487   0.925   2.785 -0.4641  0.8340 -0.4053
  230MOL0     H31733   7.387   0.774   2.762 -1.1693  0.3733 -0.0995
  230MOL0     H31734   7.292   1.051   2.777  1.9774 -0.4720  2.5599
  230MOL0     H31735   7.171   0.923   2.764 -0.0615  1.2307  0.2835
  230MOL0     H31736   7.307   0.945   2.365 -0.6578  2.9224 -0.3219
  230MOL0     H31737   7.480   0.718   3.398 -2.1726 -0.0755  0.3443
  230MOL0     H31738   7.471   0.790   3.617 -0.2654 -0.7065 -4.6045
  230MOL0     H31739   7.636   0.865   3.651 -0.0874  2.5647  1.5765
  230MOL0     H31740   7.479   0.951   3.675 -0.1052  0.9740 -0.4551
  231MOL0     O31741   4.543   4.154   4.503  0.8450  0.5400  0.5485
  231MOL0     C31742   4.449   4.097   4.445 -0.3636 -0.4945 -0.6540
  231MOL0     O31743   4.335   4.064   4.509  0.2180 -0.2025  1.2391
  231MOL0     C31744   4.338   4.012   4.631  0.0186 -0.3344 -0.6922
  231MOL0     C31745   4.220   4.020   4.701 -0.4210  0.6477 -0.9161
  231MOL0     C31746   4.202   3.983   4.833  0.0229  0.4633 -0.3630
  231MOL0     C31747   4.312   3.933   4.908  0.5090  0.1904 -0.7388
  231MOL0     O31748   4.303   3.915   5.045  0.0955 -0.2435 -0.1339
  231MOL0     C31749   4.178   3.935   5.116  0.7033 -0.1753  0.8400
  231MOL0     C31750   4.173   3.895   5.263 -0.7565 -0.4528 -0.4456
  231MOL0     C31751   4.030   3.869   5.314  0.8250  0.2758  0.2802
  231MOL0     C31752   4.031   3.803   5.451 -0.0820  0.6080 -0.1445
  231MOL0     C31753   3.883   3.777   5.504  0.3471 -1.1212  0.2562
  231MOL0     C31754   3.873   3.761   5.651  0.3571 -1.0433  0.0727
  231MOL0     C31755   3.728   3.731   5.688 -0.6568 -0.5628 -0.0677
  231MOL0     C31756   3.689   3.583   5.668  0.6737 -0.4551 -0.0328
  231MOL0     N31757   3.544   3.571   5.713 -0.2518  0.8580  0.0860
  231MOL0     C31758   3.489   3.542   5.839 -0.9059 -0.2555  0.6205
  231MOL0     C31759   3.358   3.573   5.830  1.2745  0.0923 -0.1328
  231MOL0     C31760   3.254   3.572   5.947 -0.5444 -0.0234 -0.5240
  231MOL0     C31761   3.239   3.716   6.009 -0.2023  0.5542  0.4336
  231MOL0     C31762   3.158   3.822   5.926  0.1968 -1.4401 -0.2596
  231MOL0     C31763   3.039   3.765   5.839 -0.8202 -0.2277 -0.4350
  231MOL0     O31764   2.955   3.878   5.802 -0.3471  0.6750  0.2954
  231MOL0     C31765   2.897   3.887   5.677 -0.3766  0.8907  0.0323
  231MOL0     C31766   2.858   3.780   5.599  0.9986  0.0633 -0.4078
  231MOL0     C31767   2.804   3.795   5.469  0.0687  0.7950  0.2434
  231MOL0     C31768   2.768   3.670   5.384  0.2779  1.2030  0.5045
  231MOL0     C31769   2.771   3.929   5.423  0.2620 -0.4262  1.2212
  231MOL0     C31770   2.687   3.961   5.292  0.3016  0.9139  0.6435
  231MOL0     O31771   2.618   4.084   5.281 -0.2045 -0.7045  1.0333
  231MOL0     C31772   2.557   4.115   5.162  0.0590  0.9707  0.3559
  231MOL0     C31773   2.633   4.158   5.050  0.2372  0.2612 -0.7761
  231MOL0     C31774   2.564   4.174   4.922 -0.1849 -0.0555 -0.2129
  231MOL0     C31775   2.430   4.153   4.915 -0.7801 -0.0669  0.7931
  231MOL0     O31776   2.375   4.176   4.791 -0.4073  0.0581 -0.0159
  231MOL0     C31777   2.256   4.107   4.760  1.3096 -0.5665 -0.2455
  231MOL0     C31778   2.225   4.145   4.616 -0.5122 -0.3445  0.2535
  231MOL0     C31779   2.330   4.094   4.523 -0.1787 -0.6514 -0.0851
  231MOL0     C31780   2.273   4.088   4.370 -0.5468  0.3608  0.3031
  231MOL0     C31781   2.331   3.968   4.300 -0.4612  0.4352 -0.1954
  231MOL0     C31782   2.273   3.941   4.154  0.2188 -0.3701  0.8395
  231MOL0     C31783   2.119   3.924   4.139 -0.3748  0.2719  0.1475
  231MOL0     C31784   2.071   3.836   4.022 -0.3871  0.7934  0.5726
  231MOL0    Cl31785   2.146   3.895   3.867 -0.0889 -0.3077  0.3635
  231MOL0     C31786   2.359   4.096   5.024 -0.5198  0.5182  0.3284
  231MOL0     C31787   2.431   4.072   5.141 -0.2981  1.3047  1.1035
  231MOL0     O31788   2.690   3.875   5.201  1.4403 -0.6068 -0.4225
  231MOL0     C31789   2.829   4.037   5.492  0.6543  0.1458  0.6808
  231MOL0     C31790   2.889   4.011   5.611  0.5541  0.3629 -0.6827
  231MOL0     N31791   3.338   3.620   5.698 -0.4294 -0.4309 -0.5810
  231MOL0     N31792   3.448   3.618   5.629 -0.1229  0.3843 -0.5980
  231MOL0     C31793   4.431   3.915   4.835 -0.4628  0.6029  0.0041
  231MOL0     C31794   4.441   3.945   4.693 -0.5869 -0.0881 -0.1276
  231MOL0     C31795   4.465   4.060   4.309  0.3764 -0.0633  1.0035
  231MOL0     C31796   4.593   4.088   4.245  0.2136 -0.3729  0.4531
  231MOL0     C31797   4.615   4.060   4.111  0.7337 -0.4448  0.0260
  231MOL0     C31798   4.523   3.993   4.035  0.0846 -0.0937 -0.5380
  231MOL0     O31799   4.570   3.959   3.904 -0.2002 -0.2833 -0.5839
  231MOL0     C31800   4.503   3.868   3.824  0.5833  0.6452 -0.7792
  231MOL0     C31801   4.537   3.731   3.874 -0.6361  0.4812  0.5524
  231MOL0     C31802   4.500   3.616   3.788 -0.5996  0.3524  0.0095
  231MOL0     C31803   4.352   3.614   3.746 -0.2929 -0.3812  0.4514
  231MOL0     C31804   4.269   3.637   3.861 -0.5682  0.0944  0.4059
  231MOL0     C31805   4.214   3.660   3.965 -0.1053  0.5768  0.4986
  231MOL0     C31806   4.397   3.958   4.093 -0.5170 -0.4644 -0.1401
  231MOL0     C31807   4.360   3.996   4.231 -1.3315  0.1890  0.2925
  231MOL0     C31808   4.226   3.941   4.272 -0.1447  0.8676 -0.5474
  231MOL0     H31809   4.131   4.057   4.651 -0.3677 -0.1072 -1.5865
  231MOL0     H31810   4.108   3.980   4.887 -1.2787 -0.3042 -2.5536
  231MOL0     H31811   4.104   3.875   5.063  2.1294 -1.1653 -0.1267
  231MOL0     H31812   4.168   4.043   5.129 -0.2061 -0.4970  3.2201
  231MOL0     H31813   4.232   3.804   5.277  1.4408  0.0138 -4.7584
  231MOL0     H31814   4.210   3.974   5.328 -1.9802 -0.5412  0.3979
  231MOL0     H31815   3.974   3.962   5.329  0.9380  0.1647  1.4298
  231MOL0     H31816   3.963   3.812   5.249 -0.0063 -0.8911  2.1107
  231MOL0     H31817   4.086   3.710   5.437 -1.3804 -0.1490 -0.3632
  231MOL0     H31818   4.091   3.861   5.523  0.2397  1.3631 -1.0016
  231MOL0     H31819   3.836   3.701   5.441  1.0556 -1.4074  0.0655
  231MOL0     H31820   3.821   3.864   5.481 -1.4693 -2.0156  1.5532
  231MOL0     H31821   3.941   3.677   5.670 -0.3081 -1.5647  0.1995
  231MOL0     H31822   3.899   3.850   5.709  3.4104 -2.4670  1.1506
  231MOL0     H31823   3.664   3.799   5.632 -0.4106 -1.8478 -1.9950
  231MOL0     H31824   3.712   3.750   5.795  0.2025  0.1307 -0.0579
  231MOL0     H31825   3.701   3.562   5.561  1.6105 -2.8197  0.4744
  231MOL0     H31826   3.763   3.523   5.721  0.6178 -1.0698 -0.6287
  231MOL0     H31827   3.539   3.505   5.928 -1.0921 -0.0877  0.7957
  231MOL0     H31828   3.280   3.508   6.031 -1.9767  0.6980  0.5105
  231MOL0     H31829   3.160   3.531   5.910 -0.6237  2.7142 -3.9116
  231MOL0     H31830   3.185   3.707   6.104 -1.2772  2.4171  0.0441
  231MOL0     H31831   3.337   3.759   6.032 -0.9509  0.7206  3.9079
  231MOL0     H31832   3.107   3.898   5.986 -2.4148 -0.9795 -2.8773
  231MOL0     H31833   3.221   3.880   5.858 -0.9210 -1.8154 -1.6666
  231MOL0     H31834   3.074   3.714   5.748  0.8914 -3.9466  2.0671
  231MOL0     H31835   2.978   3.687   5.885 -0.1030  0.1526  1.2522
  231MOL0     H31836   2.855   3.680   5.642 -2.1907  0.4135  0.4130
  231MOL0     H31837   2.817   3.580   5.422  0.2242 -0.0817 -2.1793
  231MOL0     H31838   2.823   3.672   5.289  1.1042  1.1045  0.9683
  231MOL0     H31839   2.662   3.667   5.360  0.1541  1.8337  0.9453
  231MOL0     H31840   2.736   4.188   5.064 -0.1162  0.5173  1.7052
  231MOL0     H31841   2.624   4.210   4.839  1.7496  0.0659  1.1574
  231MOL0     H31842   2.269   4.002   4.788  0.8809 -0.2443  1.2444
  231MOL0     H31843   2.174   4.152   4.817 -0.8248 -0.7965 -2.9355
  231MOL0     H31844   2.128   4.107   4.583 -0.3127 -1.8059  1.2272
  231MOL0     H31845   2.228   4.254   4.611  3.0904 -0.3396 -0.6253
  231MOL0     H31846   2.377   4.000   4.555 -1.7106 -1.2307  0.5218
  231MOL0     H31847   2.417   4.158   4.542 -0.4843 -0.2396 -0.0779
  231MOL0     H31848   2.289   4.181   4.315 -4.2689 -0.6040 -2.8896
  231MOL0     H31849   2.164   4.082   4.376 -0.8091 -0.2565 -3.1221
  231MOL0     H31850   2.436   3.997   4.287 -0.4820  1.0828  0.9253
  231MOL0     H31851   2.327   3.880   4.364 -1.8534 -0.0984 -0.9896
  231MOL0     H31852   2.322   3.856   4.105  1.9112 -1.5146  4.2389
  231MOL0     H31853   2.302   4.026   4.091  1.7352 -0.9943  0.6605
  231MOL0     H31854   2.069   4.019   4.120  2.7185  1.9828 -0.1214
  231MOL0     H31855   2.085   3.877   4.232 -0.7643 -0.6149 -0.4307
  231MOL0     H31856   1.963   3.840   4.005  0.0046  2.4415 -2.0764
  231MOL0     H31857   2.091   3.731   4.045 -2.9872 -0.2090 -1.2771
  231MOL0     H31858   2.254   4.070   5.015  0.1199 -1.8258 -1.5047
  231MOL0     H31859   2.383   4.031   5.229 -1.3649  1.5833  0.6681
  231MOL0     H31860   2.822   4.138   5.453 -0.9959 -0.3235 -0.3237
  231MOL0     H31861   2.923   4.106   5.652  0.3449 -0.3963  1.4026
  231MOL0     H31862   4.525   3.879   4.876  0.2016 -0.7471 -2.5206
  231MOL0     H31863   4.536   3.939   4.640 -1.0185  2.0357 -1.2629
  231MOL0     H31864   4.669   4.143   4.298 -0.5354  0.2721  0.8866
  231MOL0     H31865   4.716   4.080   4.077  0.5946 -0.5265 -0.4425
  231MOL0     H31866   4.395   3.884   3.830  0.3401 -0.8313 -0.6398
  231MOL0     H31867   4.538   3.877   3.721  0.7551 -0.7962 -0.8723
  231MOL0     H31868   4.488   3.720   3.972  0.6804  1.0189  1.3024
  231MOL0     H31869   4.644   3.727   3.899 -0.2752 -0.2692 -1.0103
  231MOL0     H31870   4.571   3.597   3.708  0.2246 -1.1498  1.0590
  231MOL0     H31871   4.513   3.529   3.853  0.4786 -0.7738 -1.6536
  231MOL0     H31872   4.322   3.525   3.690 -2.2546 -0.8082  2.0624
  231MOL0     H31873   4.340   3.698   3.676  2.9139  1.1138  1.4979
  231MOL0     H31874   4.181   3.687   4.064 -3.4950  3.5523 -1.2227
  231MOL0     H31875   4.331   3.900   4.030  3.0937 -5.0740 -0.2315
  231MOL0     H31876   4.248   3.872   4.354  0.4854  1.7239  0.0173
  231MOL0     H31877   4.160   4.021   4.308 -0.7324  0.5613 -0.9294
  231MOL0     H31878   4.176   3.886   4.191  0.3121 -3.0880  1.6468
  232MOL0     O31879   9.537   4.743   9.244  0.5279  0.2463 -0.7413
  232MOL0     C31880   9.416   4.760   9.258  0.1128  0.1673  0.7313
  232MOL0     O31881   9.328   4.661   9.259 -0.7860  0.8259  0.3845
  232MOL0     C31882   9.385   4.536   9.237  0.5258  1.1159  0.1950
  232MOL0     C31883   9.350   4.466   9.122 -0.2658  0.4371  0.7237
  232MOL0     C31884   9.395   4.338   9.100  0.2570 -0.3226 -0.8252
  232MOL0     C31885   9.473   4.266   9.189 -0.1923 -0.7798  0.0451
  232MOL0     O31886   9.529   4.149   9.145  0.2400  0.7088 -0.0908
  232MOL0     C31887   9.634   4.075   9.216  0.1207 -0.7948 -0.4710
  232MOL0     C31888   9.767   4.146   9.223 -0.2260 -0.1516 -0.5275
  232MOL0     C31889   9.884   4.049   9.240 -0.4075  0.2099 -0.0160
  232MOL0     C31890  10.021   4.119   9.244 -0.2572 -0.1859 -0.5979
  232MOL0     C31891  10.141   4.026   9.231  0.3412 -0.0442 -0.0656
  232MOL0     C31892  10.163   4.000   9.082  0.2866  0.0462  0.2541
  232MOL0     C31893  10.209   3.856   9.060  0.3167  0.2664  0.0712
  232MOL0     C31894  10.091   3.763   9.073  0.7125  0.4682  1.1648
  232MOL0     N31895  10.146   3.627   9.065  0.2132  0.4071 -0.7313
  232MOL0     C31896  10.195   3.554   9.173 -0.3220  1.2177  0.1037
  232MOL0     C31897  10.241   3.438   9.113  0.3363  0.2651 -1.1636
  232MOL0     C31898  10.328   3.340   9.184 -0.2206 -0.6846  0.5707
  232MOL0     C31899  10.465   3.358   9.111 -0.8210  0.7902  0.5102
  232MOL0     C31900  10.568   3.269   9.181 -0.5526  0.2534  0.1086
  232MOL0     C31901  10.560   3.126   9.114  0.1686  1.0490 -1.1055
  232MOL0     O31902  10.658   3.033   9.153 -0.2590  0.1874  0.5860
  232MOL0     C31903  10.654   2.972   9.276  0.7437  0.5252  0.2247
  232MOL0     C31904  10.729   2.852   9.285  0.1260  0.0979 -0.2399
  232MOL0     C31905  10.733   2.776   9.407  0.4254 -0.1627 -0.7294
  232MOL0     C31906  10.834   2.660   9.405 -0.5578  0.2748 -0.1994
  232MOL0     C31907  10.654   2.810   9.515 -0.8949  0.3500 -0.7914
  232MOL0     C31908  10.648   2.720   9.638 -0.7667 -1.3096  0.6998
  232MOL0     O31909  10.599   2.775   9.752 -0.4551 -0.0698 -0.6706
  232MOL0     C31910  10.536   2.703   9.850  0.4040 -0.8250  0.7361
  232MOL0     C31911  10.491   2.573   9.840 -0.1149  0.6113  1.1586
  232MOL0     C31912  10.426   2.499   9.937 -0.1752  0.6486 -0.0925
  232MOL0     C31913  10.407   2.559  10.062  0.6724 -0.1317 -0.1583
  232MOL0     O31914  10.342   2.489  10.166 -0.4061  0.3200 -0.1561
  232MOL0     C31915  10.383   2.521  10.300  0.6138  0.5372 -0.9267
  232MOL0     C31916  10.347   2.392  10.377  0.4396  0.3386 -0.0222
  232MOL0     C31917  10.453   2.286  10.374 -0.0618 -0.3463 -0.4187
  232MOL0     C31918  10.400   2.152  10.435  0.1356 -0.3456 -0.2516
  232MOL0     C31919  10.418   2.143  10.586  0.6974  0.3192  0.2006
  232MOL0     C31920  10.563   2.124  10.635  0.7958 -1.2248  0.1275
  232MOL0     C31921  10.628   1.995  10.583  1.9449 -1.3855  0.1551
  232MOL0     C31922  10.772   2.003  10.615  0.1503  0.8970 -0.0571
  232MOL0    Cl31923  10.796   1.948  10.782 -0.2838 -0.2881 -0.2332
  232MOL0     C31924  10.451   2.685  10.079 -0.1571  0.1175  0.5754
  232MOL0     C31925  10.522   2.759   9.976  0.0872  0.4316  0.1900
  232MOL0     O31926  10.694   2.606   9.636 -0.1852 -0.8927 -0.2080
  232MOL0     C31927  10.579   2.924   9.511 -0.2725 -0.2610 -0.5329
  232MOL0     C31928  10.573   2.998   9.388 -0.0889  0.0758 -0.0877
  232MOL0     N31929  10.209   3.436   8.982 -0.2350  0.3671  0.3654
  232MOL0     N31930  10.144   3.551   8.956  0.1649  0.4388  0.0133
  232MOL0     C31931   9.507   4.336   9.302  0.4587 -0.1447  0.3176
  232MOL0     C31932   9.464   4.466   9.332 -0.0565 -0.0534  0.4483
  232MOL0     C31933   9.348   4.886   9.285 -0.8064 -0.8029 -0.3109
  232MOL0     C31934   9.209   4.900   9.271 -0.5240  0.7384 -0.4466
  232MOL0     C31935   9.136   5.014   9.300  0.1325  0.0421 -0.1482
  232MOL0     C31936   9.209   5.132   9.330 -0.0659 -1.0237 -0.8472
  232MOL0     O31937   9.132   5.247   9.349  0.7908 -0.1533 -0.5753
  232MOL0     C31938   9.177   5.353   9.440 -0.5808 -0.0410  1.1452
  232MOL0     C31939   9.094   5.365   9.561 -0.0541 -0.0145 -0.0400
  232MOL0     C31940   9.094   5.248   9.659 -0.4638  0.0709  1.8518
  232MOL0     C31941   8.963   5.234   9.732 -0.8856  0.9271 -0.6975
  232MOL0     C31942   8.942   5.335   9.836  0.3129 -0.7638 -0.0432
  232MOL0     C31943   8.918   5.420   9.926 -0.1586  0.5095  0.2935
  232MOL0     C31944   9.341   5.122   9.342  0.2688  0.0394  0.3314
  232MOL0     C31945   9.414   5.003   9.324  0.3578  0.1193 -0.8087
  232MOL0     C31946   9.567   4.997   9.353  0.5514  0.2963 -0.8117
  232MOL0     H31947   9.304   4.524   9.043 -2.8767 -1.3185  0.8012
  232MOL0     H31948   9.368   4.284   9.010 -0.3039  0.0605 -0.8859
  232MOL0     H31949   9.640   3.983   9.157  0.5935 -0.0442 -1.6307
  232MOL0     H31950   9.600   4.042   9.315  1.6536 -1.8313 -0.2677
  232MOL0     H31951   9.780   4.206   9.133  1.7469  0.7067  0.2673
  232MOL0     H31952   9.751   4.225   9.297 -1.4583 -1.2291  0.4210
  232MOL0     H31953   9.867   4.010   9.340  3.1745  0.2513  0.7160
  232MOL0     H31954   9.883   3.975   9.160 -1.5462 -1.2559  1.3031
  232MOL0     H31955  10.026   4.187   9.158  0.8216 -0.5003 -0.7976
  232MOL0     H31956  10.024   4.172   9.340  1.2456 -2.4423  0.6877
  232MOL0     H31957  10.143   3.932   9.287 -0.5743 -0.4193 -0.6378
  232MOL0     H31958  10.235   4.073   9.261  2.1034 -3.5055  0.3445
  232MOL0     H31959  10.070   4.020   9.028 -0.5636 -0.6395  1.4243
  232MOL0     H31960  10.244   4.061   9.041 -0.3069 -0.9725 -2.7060
  232MOL0     H31961  10.289   3.833   9.131 -2.9339 -0.4507  3.8633
  232MOL0     H31962  10.242   3.860   8.956  3.5989  2.3740  1.0377
  232MOL0     H31963  10.043   3.784   9.169  3.5836 -1.7463  3.2489
  232MOL0     H31964  10.015   3.785   8.996  0.4762 -1.0638  0.9261
  232MOL0     H31965  10.205   3.578   9.278 -0.7133 -1.0102  0.7040
  232MOL0     H31966  10.291   3.237   9.181 -0.3975 -0.6107 -0.0413
  232MOL0     H31967  10.354   3.355   9.289  0.1836 -5.5104  1.3484
  232MOL0     H31968  10.474   3.350   9.002  1.3887  0.4156  0.6679
  232MOL0     H31969  10.500   3.457   9.141  2.5186 -0.1215  0.0349
  232MOL0     H31970  10.667   3.315   9.174 -1.7016  2.6570 -5.2644
  232MOL0     H31971  10.548   3.247   9.286 -0.9230  0.0286 -0.0075
  232MOL0     H31972  10.465   3.080   9.144  1.1869 -1.8576 -1.9788
  232MOL0     H31973  10.561   3.121   9.005 -0.2669 -2.8972 -1.0593
  232MOL0     H31974  10.802   2.835   9.207  2.9228  1.6460  1.8755
  232MOL0     H31975  10.893   2.667   9.497 -0.1042  0.7027 -0.5140
  232MOL0     H31976  10.904   2.674   9.322 -3.3059  1.4032 -2.5037
  232MOL0     H31977  10.776   2.567   9.408 -0.8010  0.4444  2.3444
  232MOL0     H31978  10.487   2.530   9.741  0.5532  0.7304  1.0743
  232MOL0     H31979  10.381   2.402   9.917  1.9279 -0.0613 -1.6981
  232MOL0     H31980  10.491   2.538  10.303  0.9722 -0.9718 -3.0307
  232MOL0     H31981  10.326   2.601  10.348  0.4567  0.1299 -0.4237
  232MOL0     H31982  10.331   2.412  10.484 -1.2001  1.1156 -0.3806
  232MOL0     H31983  10.245   2.364  10.348  0.8706 -1.2352 -0.1005
  232MOL0     H31984  10.540   2.316  10.433 -0.2314 -1.5733  0.4860
  232MOL0     H31985  10.476   2.288  10.267 -0.4573  3.4010 -0.5667
  232MOL0     H31986  10.461   2.083  10.375  2.6945  1.8334 -0.3662
  232MOL0     H31987  10.294   2.140  10.410 -0.1467 -1.0698  1.1668
  232MOL0     H31988  10.380   2.235  10.630  1.1325  0.6840 -0.1798
  232MOL0     H31989  10.355   2.062  10.624 -1.8785  2.0167 -0.2244
  232MOL0     H31990  10.564   2.111  10.743 -1.2369  0.0010  0.3478
  232MOL0     H31991  10.618   2.215  10.609 -2.0176  1.2797  2.2002
  232MOL0     H31992  10.622   2.005  10.474  2.0742 -0.4565  0.2251
  232MOL0     H31993  10.579   1.901  10.611  2.8502 -1.3217  2.0951
  232MOL0     H31994  10.825   2.096  10.594 -2.1991  2.1050 -0.9449
  232MOL0     H31995  10.820   1.933  10.545 -1.1933  1.6534 -1.7923
  232MOL0     H31996  10.450   2.734  10.176  2.8231  0.0469  0.7324
  232MOL0     H31997  10.552   2.861   9.994 -2.4271  0.9388  1.9231
  232MOL0     H31998  10.517   2.950   9.597  2.4640 -1.2092  1.8942
  232MOL0     H31999  10.508   3.084   9.374 -0.4050 -0.3364 -1.3301
  232MOL0     H32000   9.570   4.276   9.367 -0.4306  1.1519  2.4651
  232MOL0     H32001   9.485   4.503   9.432  0.0405 -0.1153  0.4515
  232MOL0     H32002   9.156   4.816   9.228 -0.4126  1.0564 -1.2047
  232MOL0     H32003   9.028   5.015   9.311  0.1583 -0.8234  0.2853
  232MOL0     H32004   9.283   5.358   9.466 -0.7988  1.5535  1.8331
  232MOL0     H32005   9.168   5.444   9.380 -0.1384  1.0448  2.6678
  232MOL0     H32006   8.990   5.396   9.543 -0.6341 -1.3197  0.8981
  232MOL0     H32007   9.142   5.452   9.607 -1.9906  1.0692  0.0484
  232MOL0     H32008   9.106   5.157   9.599 -1.7747  0.0445  1.5895
  232MOL0     H32009   9.176   5.253   9.731 -0.7521 -2.6565  2.4767
  232MOL0     H32010   8.962   5.133   9.774  1.3328  1.5329  0.9689
  232MOL0     H32011   8.877   5.221   9.664  0.1597  0.2031 -1.9238
  232MOL0     H32012   8.885   5.488  10.001  0.0048 -0.0485  0.8824
  232MOL0     H32013   9.393   5.216   9.359 -1.3501  0.8965  0.7123
  232MOL0     H32014   9.623   4.968   9.264  1.3457 -2.8734  0.5403
  232MOL0     H32015   9.602   5.092   9.394  1.2501  0.5110 -1.8664
  232MOL0     H32016   9.590   4.927   9.434 -3.6593  1.7068  1.9437
  233MOL0     O32017   1.941   1.525   6.690  0.4539 -0.8902  0.0768
  233MOL0     C32018   2.008   1.622   6.674 -0.3450 -0.3897  0.3587
  233MOL0     O32019   1.968   1.752   6.695 -1.0628 -1.1066 -0.1725
  233MOL0     C32020   1.849   1.781   6.749 -0.1568  0.6673  0.0776
  233MOL0     C32021   1.819   1.725   6.877  0.2492  0.6094 -0.4862
  233MOL0     C32022   1.699   1.763   6.938 -1.2512 -0.3177 -1.5525
  233MOL0     C32023   1.609   1.844   6.875  0.5045  0.1026  0.2582
  233MOL0     O32024   1.494   1.872   6.954 -0.1386  0.4536  0.4071
  233MOL0     C32025   1.401   1.963   6.885  0.2513 -0.6258  0.7188
  233MOL0     C32026   1.270   1.960   6.957  0.0492 -0.4887 -0.4931
  233MOL0     C32027   1.190   1.826   6.931  0.0863 -0.1694 -0.2835
  233MOL0     C32028   1.059   1.823   7.008  0.4519 -0.9888  0.4241
  233MOL0     C32029   0.932   1.760   6.937  0.1279  0.4467  0.0000
  233MOL0     C32030   0.955   1.622   6.880 -1.3379 -0.4390 -0.4585
  233MOL0     C32031   0.858   1.514   6.926 -0.3255 -0.6282 -0.0363
  233MOL0     C32032   0.721   1.519   6.846  0.6782 -0.3721 -0.7685
  233MOL0     N32033   0.727   1.518   6.698 -0.4163  0.2030 -0.8951
  233MOL0     C32034   0.693   1.612   6.613 -0.3484 -0.3826 -1.4307
  233MOL0     C32035   0.695   1.555   6.495  0.6338  0.8032  0.0474
  233MOL0     C32036   0.657   1.629   6.364 -0.3089  0.4407  0.6075
  233MOL0     C32037   0.537   1.567   6.292  1.2704  0.1321  0.0750
  233MOL0     C32038   0.472   1.647   6.185 -0.3384  0.7203 -0.0612
  233MOL0     C32039   0.326   1.617   6.192  0.7709  0.2143 -0.4012
  233MOL0     O32040   0.270   1.672   6.068  0.4689 -0.2973  0.2260
  233MOL0     C32041   0.133   1.686   6.080  0.9066 -0.0959 -0.4224
  233MOL0     C32042   0.051   1.614   6.155 -0.2535 -0.0569  0.2901
  233MOL0     C32043  -0.091   1.630   6.154  0.3832 -0.1612  0.8441
  233MOL0     C32044  -0.172   1.546   6.249 -0.4052  0.2350 -0.1144
  233MOL0     C32045  -0.155   1.728   6.072  0.0765 -0.3445  0.6490
  233MOL0     C32046  -0.292   1.761   6.066  0.9283 -0.4159 -0.7063
  233MOL0     O32047  -0.349   1.795   5.949  0.1760  0.4814  0.4567
  233MOL0     C32048  -0.487   1.763   5.934  1.0193  0.3764  0.5138
  233MOL0     C32049  -0.554   1.865   5.871  0.1235  0.2412 -0.3343
  233MOL0     C32050  -0.692   1.870   5.869  0.0804  0.0945 -0.5436
  233MOL0     C32051  -0.765   1.760   5.919 -0.6343 -0.7576  0.2380
  233MOL0     O32052  -0.898   1.768   5.895 -0.1872 -0.6763 -0.5230
  233MOL0     C32053  -0.977   1.667   5.963 -0.4795 -0.6579 -0.6071
  233MOL0     C32054  -1.121   1.707   5.964  0.6699 -0.4347 -0.6989
  233MOL0     C32055  -1.179   1.688   5.830 -0.1360  0.9187 -0.3456
  233MOL0     C32056  -1.193   1.538   5.804  0.6031 -0.6839  0.1697
  233MOL0     C32057  -1.286   1.511   5.683  0.2561  0.4195  1.2526
  233MOL0     C32058  -1.424   1.534   5.738  0.7087 -0.3363  0.9662
  233MOL0     C32059  -1.530   1.503   5.637  0.5852  0.2767  0.3376
  233MOL0     C32060  -1.554   1.600   5.532  0.3744  0.9962 -0.2933
  233MOL0    Cl32061  -1.674   1.524   5.419 -0.3185 -0.1549 -0.1139
  233MOL0     C32062  -0.695   1.656   5.975  0.0707  0.8551 -1.3428
  233MOL0     C32063  -0.555   1.649   5.975  0.4955 -0.9355  0.3885
  233MOL0     O32064  -0.348   1.779   6.177 -0.6488 -0.3891  0.1584
  233MOL0     C32065  -0.067   1.802   5.999 -0.0115  0.1675  0.4640
  233MOL0     C32066   0.063   1.782   6.008 -0.5074 -0.1421  0.8303
  233MOL0     N32067   0.727   1.421   6.506 -0.3013 -0.0687 -0.6369
  233MOL0     N32068   0.750   1.399   6.628  0.1245  0.5385  0.3617
  233MOL0     C32069   1.635   1.882   6.740  0.4649  0.2357  0.4722
  233MOL0     C32070   1.756   1.859   6.672 -0.7321  0.9460  0.3909
  233MOL0     C32071   2.132   1.600   6.604 -0.3827  0.3008 -0.5648
  233MOL0     C32072   2.190   1.473   6.608  0.0410  0.4073  0.2614
  233MOL0     C32073   2.310   1.435   6.541 -0.7530  0.0555 -0.7589
  233MOL0     C32074   2.376   1.519   6.452  0.3204 -0.5566  0.1069
  233MOL0     O32075   2.478   1.481   6.373 -0.6928 -0.5694  0.6523
  233MOL0     C32076   2.461   1.352   6.299 -0.3036 -0.0770 -0.2747
  233MOL0     C32077   2.457   1.391   6.155 -0.2519 -0.5480 -0.6781
  233MOL0     C32078   2.592   1.367   6.077 -0.7696  0.1008  0.5172
  233MOL0     C32079   2.689   1.482   6.106 -0.6214 -0.3776 -0.1579
  233MOL0     C32080   2.793   1.481   5.997 -0.2404  0.5700 -0.2169
  233MOL0     C32081   2.879   1.475   5.904  0.5552 -0.4798  0.2355
  233MOL0     C32082   2.312   1.642   6.423 -0.0351  0.8747 -0.3639
  233MOL0     C32083   2.197   1.688   6.511 -0.5150  0.2698 -0.8230
  233MOL0     C32084   2.151   1.830   6.493 -0.0307 -0.8583 -0.5342
  233MOL0     H32085   1.893   1.658   6.920  0.5791 -1.3880 -3.7981
  233MOL0     H32086   1.681   1.719   7.035  0.2505 -1.5184 -1.7882
  233MOL0     H32087   1.392   1.933   6.780 -1.5304 -2.0656  1.2389
  233MOL0     H32088   1.431   2.068   6.894  0.5848 -0.6203 -0.3000
  233MOL0     H32089   1.295   1.958   7.063  0.3943  1.0099 -0.5249
  233MOL0     H32090   1.207   2.046   6.931 -1.7397 -1.2956  0.8951
  233MOL0     H32091   1.191   1.812   6.823 -3.8209  3.6141 -1.1026
  233MOL0     H32092   1.253   1.744   6.965  1.5194  0.4739 -1.2690
  233MOL0     H32093   1.073   1.768   7.101 -0.8377 -0.8720  0.7180
  233MOL0     H32094   1.036   1.929   7.025  0.5752 -0.1901 -3.4401
  233MOL0     H32095   0.896   1.831   6.861 -0.1653 -0.2255 -0.4959
  233MOL0     H32096   0.842   1.756   7.000  0.8522 -1.5506  0.9783
  233MOL0     H32097   0.959   1.621   6.771  0.6910  3.5274 -0.6183
  233MOL0     H32098   1.050   1.586   6.921  1.0823  2.9137 -2.6045
  233MOL0     H32099   0.842   1.534   7.032  0.3510  2.8345 -0.4526
  233MOL0     H32100   0.911   1.422   6.901  0.8493 -0.1797  0.7169
  233MOL0     H32101   0.674   1.424   6.875  0.6852 -0.0732  0.2744
  233MOL0     H32102   0.660   1.605   6.877  1.0784 -0.6135  0.7864
  233MOL0     H32103   0.669   1.717   6.630 -0.0686 -0.4980 -0.2129
  233MOL0     H32104   0.745   1.635   6.299 -2.6621  1.0568 -2.7307
  233MOL0     H32105   0.635   1.735   6.380  1.2618  0.6930  1.3188
  233MOL0     H32106   0.567   1.468   6.256 -2.4984 -0.0915 -3.2120
  233MOL0     H32107   0.456   1.554   6.364 -0.3763  1.1807 -1.4931
  233MOL0     H32108   0.492   1.753   6.198  1.8521  0.1509  1.8092
  233MOL0     H32109   0.516   1.610   6.092  0.6080  0.6508  0.4023
  233MOL0     H32110   0.315   1.509   6.189  4.6664 -0.4807  2.3705
  233MOL0     H32111   0.287   1.650   6.289  0.3809 -1.2851 -0.0317
  233MOL0     H32112   0.078   1.523   6.207 -0.1982  1.0854  2.3814
  233MOL0     H32113  -0.266   1.508   6.209  0.7676 -2.8831 -0.2318
  233MOL0     H32114  -0.198   1.607   6.336  2.1520  2.2297 -0.6429
  233MOL0     H32115  -0.121   1.453   6.276  1.1243  0.9956 -0.2712
  233MOL0     H32116  -0.494   1.950   5.839  0.5908  0.9107  2.1710
  233MOL0     H32117  -0.742   1.952   5.819 -1.4520  0.8510  2.0437
  233MOL0     H32118  -0.961   1.580   5.898 -1.1741 -0.4631 -1.0595
  233MOL0     H32119  -0.944   1.637   6.063  0.4955 -1.8389 -1.2592
  233MOL0     H32120  -1.185   1.663   6.042  0.0384 -0.9672 -1.5041
  233MOL0     H32121  -1.126   1.810   5.999  0.1914 -1.0785  1.2577
  233MOL0     H32122  -1.119   1.749   5.761  2.8298 -1.2644  0.0927
  233MOL0     H32123  -1.276   1.738   5.835  0.0266  1.1253  2.1868
  233MOL0     H32124  -1.224   1.485   5.895 -0.6496 -1.0552 -0.4379
  233MOL0     H32125  -1.095   1.495   5.782  0.4346 -2.8043  2.8926
  233MOL0     H32126  -1.251   1.582   5.608  0.3500 -0.4346  0.4759
  233MOL0     H32127  -1.274   1.407   5.653  0.5493  1.0140 -0.8003
  233MOL0     H32128  -1.439   1.641   5.759  0.4318 -0.8744  3.9529
  233MOL0     H32129  -1.442   1.483   5.834 -2.7103 -0.8841  0.1859
  233MOL0     H32130  -1.620   1.500   5.699  0.5675  0.6983  0.3312
  233MOL0     H32131  -1.508   1.403   5.598  1.3058  1.3573 -2.1736
  233MOL0     H32132  -1.460   1.611   5.477 -0.5395 -0.8250 -2.3821
  233MOL0     H32133  -1.593   1.691   5.576 -1.8771 -0.6765  1.4233
  233MOL0     H32134  -0.734   1.564   6.016  1.5592 -0.5727 -2.9443
  233MOL0     H32135  -0.500   1.570   6.025 -0.4642 -2.0483 -0.2746
  233MOL0     H32136  -0.106   1.875   5.929 -1.7409 -0.2602  0.9517
  233MOL0     H32137   0.130   1.823   5.933 -1.4972  1.2825  0.6897
  233MOL0     H32138   1.570   1.955   6.693  1.4591  2.1285  1.9022
  233MOL0     H32139   1.774   1.890   6.569  2.1903  0.5398  0.7120
  233MOL0     H32140   2.159   1.401   6.683 -2.5560 -1.0989 -2.0650
  233MOL0     H32141   2.373   1.349   6.560  0.1487  0.3676 -2.1085
  233MOL0     H32142   2.543   1.284   6.326 -1.7927 -0.1911  4.9828
  233MOL0     H32143   2.366   1.305   6.324  0.2262 -1.2165 -0.2892
  233MOL0     H32144   2.431   1.494   6.131 -2.0984 -0.1746  2.4472
  233MOL0     H32145   2.384   1.335   6.096 -0.0880  0.1685 -1.5881
  233MOL0     H32146   2.637   1.272   6.109 -0.5203  1.0315  3.1344
  233MOL0     H32147   2.568   1.355   5.971  0.8203  0.5218  0.0908
  233MOL0     H32148   2.731   1.483   6.207  0.3163  0.7747 -0.5273
  233MOL0     H32149   2.629   1.572   6.085  2.3877  1.6539 -0.6760
  233MOL0     H32150   2.952   1.465   5.826 -1.3884 -1.4708 -1.5638
  233MOL0     H32151   2.358   1.703   6.345 -2.4192  2.1421 -0.8639
  233MOL0     H32152   2.043   1.843   6.484 -0.5001 -4.1965 -0.9206
  233MOL0     H32153   2.193   1.893   6.572  2.1892 -1.4825 -1.1487
  233MOL0     H32154   2.199   1.860   6.399 -1.9035  2.7331 -0.5215
  234MOL0     O32155   3.557   7.810   5.113 -0.3337 -0.0637 -0.4779
  234MOL0     C32156   3.612   7.808   5.218 -0.9811  0.3600  0.3072
  234MOL0     O32157   3.555   7.825   5.340  0.4289 -0.5327 -0.5850
  234MOL0     C32158   3.420   7.819   5.344  0.0061 -0.1409 -0.9704
  234MOL0     C32159   3.337   7.710   5.306  0.0525 -0.4018 -0.6384
  234MOL0     C32160   3.197   7.722   5.320 -0.0271 -0.5579 -0.0327
  234MOL0     C32161   3.137   7.845   5.359  0.0438  0.3999 -0.3750
  234MOL0     O32162   2.997   7.837   5.372 -0.6753  0.2286 -0.2484
  234MOL0     C32163   2.929   7.915   5.469 -0.5945  0.5996  0.0150
  234MOL0     C32164   2.777   7.902   5.457  0.4203 -0.4020 -0.5500
  234MOL0     C32165   2.735   7.761   5.498  0.8197  0.2480 -0.2655
  234MOL0     C32166   2.577   7.748   5.499 -0.0549 -0.3550 -0.3819
  234MOL0     C32167   2.550   7.608   5.547  0.0776 -0.1531 -0.3425
  234MOL0     C32168   2.412   7.574   5.589 -0.3734 -0.1329 -0.2807
  234MOL0     C32169   2.349   7.659   5.706 -0.0089  0.2050 -0.0250
  234MOL0     C32170   2.267   7.568   5.803  0.8894 -1.0116  0.0290
  234MOL0     N32171   2.346   7.513   5.921  0.3361 -0.4420  0.2934
  234MOL0     C32172   2.462   7.451   5.898 -0.2469  0.5472 -0.5343
  234MOL0     C32173   2.499   7.393   6.017 -0.0746 -1.2540  0.6216
  234MOL0     C32174   2.620   7.310   6.039  0.6414 -0.2347  0.3696
  234MOL0     C32175   2.663   7.309   6.182  0.0001  0.7482 -0.3595
  234MOL0     C32176   2.785   7.223   6.212  0.2063  0.0861  0.4447
  234MOL0     C32177   2.786   7.078   6.161 -0.2346  0.6513  0.2510
  234MOL0     O32178   2.904   7.030   6.230 -0.2845  0.0697 -0.4904
  234MOL0     C32179   2.933   6.897   6.201  0.2319  0.2372 -0.7035
  234MOL0     C32180   2.885   6.819   6.098 -0.5123 -1.4778  1.0392
  234MOL0     C32181   2.935   6.696   6.065  0.0493 -0.5968 -1.2238
  234MOL0     C32182   2.885   6.621   5.951 -0.6998 -0.0244  0.0888
  234MOL0     C32183   3.047   6.653   6.132 -0.2932  0.3571 -1.2440
  234MOL0     C32184   3.126   6.527   6.113 -0.0292  0.5702  1.0740
  234MOL0     O32185   3.178   6.454   6.223 -0.1994 -0.0183 -0.0420
  234MOL0     C32186   3.310   6.414   6.216  0.2966 -0.1801  1.0368
  234MOL0     C32187   3.410   6.504   6.250 -0.2021 -0.1771 -0.4558
  234MOL0     C32188   3.543   6.480   6.226  0.6945  0.4018  0.3413
  234MOL0     C32189   3.582   6.354   6.182  0.3395  0.5585  0.0282
  234MOL0     O32190   3.710   6.307   6.167 -0.6141  0.5768 -0.2179
  234MOL0     C32191   3.811   6.317   6.265 -0.0389  0.4755 -0.1189
  234MOL0     C32192   3.798   6.196   6.346  0.0364 -0.7694  0.8398
  234MOL0     C32193   3.855   6.075   6.267  0.0050  0.5032  0.3416
  234MOL0     C32194   3.875   5.961   6.370  0.5337  0.1565  1.3214
  234MOL0     C32195   3.745   5.890   6.418  0.0976 -0.0308 -0.1098
  234MOL0     C32196   3.770   5.793   6.537  0.7328 -0.0434  0.5007
  234MOL0     C32197   3.778   5.874   6.667  0.5860  1.0154  0.3165
  234MOL0     C32198   3.814   5.795   6.790  0.3670  0.0533 -0.0162
  234MOL0    Cl32199   3.692   5.677   6.812  0.1761  0.0967  0.2782
  234MOL0     C32200   3.477   6.258   6.147 -0.3171 -0.0975  0.8886
  234MOL0     C32201   3.341   6.291   6.158  0.2039 -0.4605  0.3668
  234MOL0     O32202   3.142   6.488   5.998 -0.2472  0.9365 -0.5655
  234MOL0     C32203   3.087   6.721   6.249 -0.3409  1.0505 -0.6962
  234MOL0     C32204   3.031   6.839   6.284 -0.6547 -0.3752 -0.1557
  234MOL0     N32205   2.403   7.434   6.108 -0.0953 -0.8502  0.6405
  234MOL0     N32206   2.296   7.496   6.056 -0.7917  0.4311  0.0895
  234MOL0     C32207   3.214   7.951   5.395  0.1647  0.8151 -0.7846
  234MOL0     C32208   3.354   7.935   5.393 -0.0582  1.2657  0.3872
  234MOL0     C32209   3.762   7.793   5.219 -1.4709  0.2184  0.2174
  234MOL0     C32210   3.805   7.737   5.343  0.8364  0.2949  0.4807
  234MOL0     C32211   3.941   7.744   5.380  0.3479 -0.0630  0.2256
  234MOL0     C32212   4.028   7.775   5.283  0.0697  0.2401  0.8133
  234MOL0     O32213   4.163   7.758   5.321 -0.4944 -1.0566  0.4406
  234MOL0     C32214   4.208   7.623   5.306  0.0401  0.1402  0.0415
  234MOL0     C32215   4.348   7.587   5.361  0.3489  0.4805 -0.4918
  234MOL0     C32216   4.353   7.591   5.519  0.6795  0.8979  0.6127
  234MOL0     C32217   4.369   7.730   5.564 -0.3418 -0.3809 -0.5079
  234MOL0     C32218   4.341   7.745   5.706 -0.4510  0.2969  0.4850
  234MOL0     C32219   4.332   7.768   5.823  0.7333  0.7120 -0.6863
  234MOL0     C32220   3.988   7.827   5.161 -0.0502 -0.2484  0.4712
  234MOL0     C32221   3.858   7.834   5.121  0.7990  0.2882 -0.6095
  234MOL0     C32222   3.820   7.910   4.993  0.7718 -0.7355  0.3073
  234MOL0     H32223   3.374   7.612   5.276 -1.8123 -0.7402 -1.9786
  234MOL0     H32224   3.121   7.648   5.297 -1.6844  0.6237  1.3660
  234MOL0     H32225   2.965   8.018   5.466  1.7138 -0.0980  0.7231
  234MOL0     H32226   2.956   7.876   5.568  3.7119 -3.6235 -2.3823
  234MOL0     H32227   2.729   7.982   5.514  0.2745  0.3572 -1.7114
  234MOL0     H32228   2.753   7.915   5.351 -0.6256 -0.0946 -0.2883
  234MOL0     H32229   2.787   7.694   5.429  3.3760  1.2080  0.6144
  234MOL0     H32230   2.771   7.738   5.599 -1.0948 -2.0074 -0.0148
  234MOL0     H32231   2.544   7.833   5.559  2.4192  0.7982 -0.5502
  234MOL0     H32232   2.532   7.767   5.402 -2.2060  0.5859  0.7276
  234MOL0     H32233   2.611   7.591   5.635  0.9574  0.7011 -0.7625
  234MOL0     H32234   2.595   7.540   5.474  1.5918  1.5143 -1.0404
  234MOL0     H32235   2.344   7.580   5.504 -0.3730  0.7798 -0.2270
  234MOL0     H32236   2.415   7.471   5.627 -0.1990  0.6211  1.9257
  234MOL0     H32237   2.279   7.728   5.658 -2.0921 -1.6279  0.2131
  234MOL0     H32238   2.410   7.724   5.768 -2.0549 -0.1330  2.4753
  234MOL0     H32239   2.188   7.633   5.842 -0.3375 -0.1774 -3.4283
  234MOL0     H32240   2.216   7.482   5.760 -3.6533  1.7478 -0.7401
  234MOL0     H32241   2.532   7.457   5.815 -0.1604  1.6176 -0.4057
  234MOL0     H32242   2.703   7.344   5.977 -0.6311 -1.8165 -2.3905
  234MOL0     H32243   2.594   7.214   5.993 -2.1387  1.7406 -2.6412
  234MOL0     H32244   2.673   7.413   6.215  2.8694  0.8643 -1.3416
  234MOL0     H32245   2.583   7.251   6.230  0.7749  0.7200  0.9552
  234MOL0     H32246   2.874   7.272   6.173  0.7688  0.8911  2.5866
  234MOL0     H32247   2.810   7.233   6.318 -2.0324  2.0144  0.8560
  234MOL0     H32248   2.699   7.014   6.178 -1.9716  2.5913 -0.8108
  234MOL0     H32249   2.805   7.091   6.054  0.1479 -1.8081 -0.0250
  234MOL0     H32250   2.810   6.865   6.033  1.0447 -2.9822 -2.0529
  234MOL0     H32251   2.952   6.638   5.866  0.4474 -2.7789  0.3455
  234MOL0     H32252   2.787   6.656   5.916 -0.0825  2.0715  0.3578
  234MOL0     H32253   2.880   6.515   5.978 -0.7705 -0.5031 -1.6687
  234MOL0     H32254   3.364   6.595   6.288 -1.3564 -0.0313 -2.1004
  234MOL0     H32255   3.612   6.564   6.232 -1.1631  2.0204  0.0031
  234MOL0     H32256   3.907   6.321   6.214 -0.3024  3.1304 -0.5657
  234MOL0     H32257   3.785   6.407   6.322 -2.0805 -0.9384  1.3016
  234MOL0     H32258   3.854   6.212   6.439  3.9634  0.8499 -1.5462
  234MOL0     H32259   3.694   6.181   6.375  0.1691  0.7789  2.2874
  234MOL0     H32260   3.952   6.083   6.218  0.0193 -0.9825  0.0598
  234MOL0     H32261   3.781   6.055   6.188 -2.9114  0.8707  2.7959
  234MOL0     H32262   3.920   5.988   6.466 -1.9295  2.1443  2.0135
  234MOL0     H32263   3.940   5.886   6.323  1.9549  2.7413 -1.0886
  234MOL0     H32264   3.669   5.966   6.441 -1.5368 -1.9815  1.2695
  234MOL0     H32265   3.712   5.827   6.335 -1.0642 -1.7987  1.6321
  234MOL0     H32266   3.853   5.722   6.529  2.2897  1.5938  1.3413
  234MOL0     H32267   3.679   5.734   6.532  2.2324 -2.7779  2.7019
  234MOL0     H32268   3.685   5.931   6.676  1.1793  2.3081 -1.2187
  234MOL0     H32269   3.851   5.956   6.671  0.6196  0.9786  0.4920
  234MOL0     H32270   3.805   5.872   6.868  0.3054  1.5820 -1.4667
  234MOL0     H32271   3.918   5.762   6.785  0.0602 -0.7934 -3.3030
  234MOL0     H32272   3.499   6.163   6.099  0.9147  0.2729  0.7071
  234MOL0     H32273   3.261   6.226   6.126  0.5553 -0.3779 -0.7355
  234MOL0     H32274   3.165   6.684   6.314  0.1921  1.4037 -1.1245
  234MOL0     H32275   3.060   6.909   6.361 -1.7968  0.2608 -0.2794
  234MOL0     H32276   3.177   8.049   5.424 -1.2089 -0.6400  3.1438
  234MOL0     H32277   3.419   8.017   5.422  1.1484  0.7750 -0.8412
  234MOL0     H32278   3.732   7.699   5.414 -0.9351  2.8858  0.2102
  234MOL0     H32279   3.971   7.694   5.472  1.5031 -0.4500 -0.3321
  234MOL0     H32280   4.130   7.552   5.334  1.0221  0.1249  3.1277
  234MOL0     H32281   4.226   7.612   5.198 -0.0480  1.3269 -0.0974
  234MOL0     H32282   4.434   7.642   5.321  2.6153 -0.7090  2.3927
  234MOL0     H32283   4.368   7.482   5.342 -0.5115  0.0164  0.9968
  234MOL0     H32284   4.258   7.553   5.560  0.8591 -0.9797 -0.5563
  234MOL0     H32285   4.442   7.535   5.549  1.9691  1.9184 -1.1510
  234MOL0     H32286   4.286   7.774   5.508 -2.0735 -4.5638 -1.6042
  234MOL0     H32287   4.460   7.784   5.537 -0.3288 -0.4850 -0.6744
  234MOL0     H32288   4.311   7.773   5.928  0.0741 -2.1642 -0.6157
  234MOL0     H32289   4.080   7.835   5.103  2.2058  0.5935  3.8342
  234MOL0     H32290   3.885   7.998   4.987  1.0488 -0.9758 -0.3529
  234MOL0     H32291   3.837   7.849   4.904 -1.3142  0.9285 -1.3644
  234MOL0     H32292   3.718   7.950   4.995  1.4347  1.0567  2.0926
  235MOL0     O32293   9.712   2.700   6.145  0.4645  0.0285  1.0720
  235MOL0     C32294   9.797   2.782   6.180 -0.1324 -0.6126 -0.3876
  235MOL0     O32295   9.783   2.918   6.169 -0.8298 -0.5428 -0.2318
  235MOL0     C32296   9.684   2.967   6.091 -0.0707 -0.1176 -0.0346
  235MOL0     C32297   9.705   2.991   5.951  0.1690 -0.8550 -0.2617
  235MOL0     C32298   9.593   3.031   5.874 -0.0513  0.6239 -1.2311
  235MOL0     C32299   9.460   3.030   5.925 -0.1746  0.7691 -0.3189
  235MOL0     O32300   9.367   3.061   5.829 -0.6288 -0.2713 -0.4531
  235MOL0     C32301   9.233   3.088   5.869 -0.5583 -0.8811 -0.0876
  235MOL0     C32302   9.148   2.958   5.873 -0.5268 -0.3351 -0.0497
  235MOL0     C32303   9.006   2.976   5.925  0.4593  1.3942 -0.8142
  235MOL0     C32304   8.922   2.853   5.912  0.0899  0.0476  0.5127
  235MOL0     C32305   8.771   2.888   5.941  0.9159  0.7940  0.2974
  235MOL0     C32306   8.747   2.969   6.072 -0.8493 -0.6386 -0.2780
  235MOL0     C32307   8.603   2.986   6.111 -0.2610  0.9827 -0.0750
  235MOL0     C32308   8.598   3.047   6.250  0.5808 -0.1975  0.1209
  235MOL0     N32309   8.472   3.045   6.316  0.2018 -0.2266  0.4029
  235MOL0     C32310   8.403   2.930   6.353 -0.7569 -0.3063 -0.9861
  235MOL0     C32311   8.289   2.974   6.392 -0.0419 -0.4574 -0.4929
  235MOL0     C32312   8.180   2.877   6.415 -0.6699  0.7883  0.7080
  235MOL0     C32313   8.043   2.927   6.439  0.4098 -0.0503 -0.6406
  235MOL0     C32314   7.942   2.814   6.427 -0.0643 -1.2126 -0.4718
  235MOL0     C32315   7.805   2.878   6.429  0.4205  0.6370  0.3505
  235MOL0     O32316   7.700   2.780   6.408  0.1023  0.1785 -0.7913
  235MOL0     C32317   7.644   2.787   6.282  0.4924  0.4287  0.3426
  235MOL0     C32318   7.555   2.896   6.228 -0.0540  2.0498 -0.5494
  235MOL0     C32319   7.495   2.900   6.102 -0.4958  0.5323 -0.8325
  235MOL0     C32320   7.420   3.019   6.048 -1.0186  0.4537 -0.4135
  235MOL0     C32321   7.517   2.778   6.031 -1.1122  0.3960  0.2547
  235MOL0     C32322   7.460   2.758   5.893  0.1776 -0.3080 -0.4195
  235MOL0     O32323   7.510   2.643   5.827  0.3676  0.0612 -1.1258
  235MOL0     C32324   7.481   2.607   5.702 -0.0234  0.2229  0.6793
  235MOL0     C32325   7.362   2.628   5.627  0.3011  1.5225 -0.5868
  235MOL0     C32326   7.357   2.574   5.501  0.5820 -0.2919  0.2930
  235MOL0     C32327   7.455   2.493   5.442 -0.4151 -0.1876  0.2714
  235MOL0     O32328   7.448   2.453   5.311 -0.2617  0.4471 -0.8902
  235MOL0     C32329   7.540   2.349   5.259 -0.1393 -0.3777 -0.5817
  235MOL0     C32330   7.516   2.328   5.114 -0.1992  0.8663  0.4291
  235MOL0     C32331   7.373   2.282   5.078  0.1302  0.4653 -0.3432
  235MOL0     C32332   7.363   2.264   4.919  1.1181  0.7546 -0.2799
  235MOL0     C32333   7.256   2.149   4.887 -0.4139  0.3467 -0.7089
  235MOL0     C32334   7.139   2.200   4.799 -0.0055 -0.1107  0.7169
  235MOL0     C32335   7.036   2.107   4.760  0.5808  0.1993 -0.3625
  235MOL0     C32336   6.946   2.075   4.876  0.0928  0.3792  1.1608
  235MOL0    Cl32337   6.849   2.224   4.917 -0.4947  0.4118  0.1052
  235MOL0     C32338   7.569   2.470   5.518 -0.8518 -0.2081  0.8776
  235MOL0     C32339   7.586   2.535   5.638 -0.6875  0.2070  0.3815
  235MOL0     O32340   7.356   2.814   5.855 -0.0215 -0.0948 -0.5288
  235MOL0     C32341   7.601   2.672   6.073 -0.3181  0.2473  0.3642
  235MOL0     C32342   7.663   2.684   6.196 -0.3922  0.5516  0.5337
  235MOL0     N32343   8.282   3.111   6.391 -0.7533 -0.0512 -0.3826
  235MOL0     N32344   8.397   3.154   6.346  0.0688 -0.5871 -0.7708
  235MOL0     C32345   9.439   2.987   6.058 -0.8808  0.1915  0.8752
  235MOL0     C32346   9.553   2.956   6.138 -0.4896 -0.0134  0.1951
  235MOL0     C32347   9.907   2.741   6.267  0.7659  0.5195 -0.9117
  235MOL0     C32348  10.035   2.787   6.219  0.0329 -0.6074 -0.4733
  235MOL0     C32349  10.151   2.742   6.285 -0.7233 -0.4168  0.3005
  235MOL0     C32350  10.153   2.651   6.388  0.3996 -0.2835  0.1129
  235MOL0     O32351  10.271   2.605   6.442  0.9333 -0.5047  0.0689
  235MOL0     C32352  10.372   2.692   6.470 -0.7061  0.1013  0.3294
  235MOL0     C32353  10.510   2.635   6.436  0.0602  0.2717  0.5362
  235MOL0     C32354  10.618   2.739   6.460  1.0070 -0.0750  0.0903
  235MOL0     C32355  10.762   2.681   6.444 -0.0051 -0.4553 -0.2471
  235MOL0     C32356  10.838   2.809   6.443  0.8065  0.2120  0.1180
  235MOL0     C32357  10.898   2.908   6.428  0.3757 -0.2001 -0.6867
  235MOL0     C32358  10.024   2.613   6.435  0.5504  1.0317  0.9678
  235MOL0     C32359   9.907   2.644   6.373 -0.2772 -0.6398  0.9323
  235MOL0     C32360   9.781   2.587   6.442  0.3280  0.1984 -0.3200
  235MOL0     H32361   9.800   2.982   5.900 -0.2588 -1.0441 -1.0361
  235MOL0     H32362   9.578   3.067   5.772 -1.1440  0.4328 -1.1538
  235MOL0     H32363   9.191   3.144   5.785 -0.4003  0.9281  0.9842
  235MOL0     H32364   9.233   3.144   5.964  2.5142 -0.3121 -0.3119
  235MOL0     H32365   9.147   2.909   5.775  2.8414 -0.9151  0.0669
  235MOL0     H32366   9.204   2.887   5.935 -2.4540 -3.1774 -1.3193
  235MOL0     H32367   9.012   3.006   6.030 -0.8704 -2.9574  0.7056
  235MOL0     H32368   8.954   3.051   5.864  0.4430 -1.7856 -5.1557
  235MOL0     H32369   8.935   2.803   5.815  1.8855  3.9033 -1.4492
  235MOL0     H32370   8.943   2.781   5.992 -0.5787  0.3253  0.9517
  235MOL0     H32371   8.727   2.788   5.928 -0.5166  1.5153 -0.6752
  235MOL0     H32372   8.731   2.951   5.861  0.8300 -1.3116 -1.4296
  235MOL0     H32373   8.810   2.933   6.153  2.6969 -1.6834 -3.2441
  235MOL0     H32374   8.781   3.071   6.054 -1.4928  0.5784  4.1677
  235MOL0     H32375   8.548   2.891   6.114  1.2613  0.0355 -1.0548
  235MOL0     H32376   8.561   3.039   6.026 -1.3161 -1.3928 -1.1302
  235MOL0     H32377   8.670   2.997   6.316 -2.0231 -1.8787  1.8356
  235MOL0     H32378   8.632   3.151   6.238 -3.2489  1.0025 -1.8213
  235MOL0     H32379   8.441   2.832   6.329  1.7328  0.5741 -0.9537
  235MOL0     H32380   8.209   2.831   6.509  2.8647  2.3528  0.5209
  235MOL0     H32381   8.191   2.802   6.336  2.0458  0.1785  1.5534
  235MOL0     H32382   8.029   2.987   6.529 -3.2923  4.3040 -3.6570
  235MOL0     H32383   8.024   2.990   6.352  0.2219 -0.5008 -0.9294
  235MOL0     H32384   7.945   2.763   6.330  0.1806  1.8243 -2.1868
  235MOL0     H32385   7.940   2.747   6.513  1.6094 -1.4366 -0.5673
  235MOL0     H32386   7.787   2.927   6.525  1.5105  1.6987  0.0466
  235MOL0     H32387   7.797   2.960   6.357  4.1271 -0.9158 -2.1346
  235MOL0     H32388   7.540   2.974   6.302  1.2782  0.9496  0.9571
  235MOL0     H32389   7.439   3.032   5.942  1.2033  1.1326  0.0185
  235MOL0     H32390   7.444   3.110   6.103 -0.3304  0.0759 -0.0808
  235MOL0     H32391   7.311   3.015   6.054 -0.9747  1.2937  3.2839
  235MOL0     H32392   7.272   2.674   5.666 -2.1656 -0.1110 -3.8778
  235MOL0     H32393   7.271   2.590   5.436  1.9899 -1.3866 -1.9550
  235MOL0     H32394   7.645   2.377   5.274  0.1907 -1.8429  0.0069
  235MOL0     H32395   7.533   2.254   5.312 -3.5196  0.0438 -0.0852
  235MOL0     H32396   7.539   2.425   5.067  1.2669  1.4109  2.1311
  235MOL0     H32397   7.577   2.252   5.065 -0.1624  1.1225  0.0767
  235MOL0     H32398   7.300   2.357   5.110  0.8043  1.4919 -1.1394
  235MOL0     H32399   7.351   2.184   5.122  2.6642 -0.1412 -0.2679
  235MOL0     H32400   7.458   2.227   4.880  2.1853  1.5367  1.5019
  235MOL0     H32401   7.331   2.362   4.881  3.5344  2.6837  2.2704
  235MOL0     H32402   7.311   2.070   4.835  1.2569  0.0970  1.2739
  235MOL0     H32403   7.208   2.113   4.979 -2.8238  2.0775 -1.2008
  235MOL0     H32404   7.189   2.231   4.706  0.8397 -2.2791  0.3921
  235MOL0     H32405   7.084   2.287   4.836 -1.0370 -0.4368  0.0169
  235MOL0     H32406   7.084   2.013   4.729 -0.8264 -1.6300  2.5575
  235MOL0     H32407   6.986   2.150   4.672 -1.0996 -1.2939 -0.1868
  235MOL0     H32408   7.000   2.025   4.957  2.0001  0.6009  0.1019
  235MOL0     H32409   6.881   1.989   4.857 -2.3160  2.2317  0.5979
  235MOL0     H32410   7.654   2.418   5.474  0.6742  0.1736  3.1776
  235MOL0     H32411   7.678   2.536   5.695 -1.1364  0.5361  1.1218
  235MOL0     H32412   7.621   2.579   6.021 -0.6405  0.9582 -1.0773
  235MOL0     H32413   7.708   2.589   6.224 -1.6379 -2.0147 -4.8395
  235MOL0     H32414   9.343   2.976   6.108 -0.4592 -2.2371  1.2745
  235MOL0     H32415   9.539   2.924   6.240  0.0397 -0.9899 -0.0279
  235MOL0     H32416  10.060   2.845   6.131  0.1966 -0.4691 -0.3356
  235MOL0     H32417  10.248   2.775   6.250  0.3109 -2.5638  0.9265
  235MOL0     H32418  10.349   2.786   6.419  0.7713 -0.1673 -0.9010
  235MOL0     H32419  10.366   2.715   6.577  1.0867 -0.1593  0.5137
  235MOL0     H32420  10.505   2.595   6.334 -3.3289  0.4595  0.5073
  235MOL0     H32421  10.522   2.546   6.499 -1.2409  0.0258  0.4703
  235MOL0     H32422  10.605   2.827   6.396  1.3353 -0.1975 -0.1548
  235MOL0     H32423  10.611   2.775   6.562 -1.2794  1.0360 -0.4066
  235MOL0     H32424  10.776   2.616   6.357  3.7306  0.2474 -0.3353
  235MOL0     H32425  10.810   2.626   6.526  0.6860  3.2175  2.0219
  235MOL0     H32426  10.961   2.994   6.419  0.6891  0.1085  3.1136
  235MOL0     H32427  10.008   2.558   6.527 -0.8149  0.8915  0.6722
  235MOL0     H32428   9.794   2.492   6.495  1.1831  0.7140  0.4150
  235MOL0     H32429   9.750   2.669   6.506  0.7994  3.4207 -3.8982
  235MOL0     H32430   9.709   2.570   6.361  3.4084 -2.6039 -2.7700
  236MOL0     O32431   0.421  11.422  10.186 -0.1067  0.7759  0.0865
  236MOL0     C32432   0.499  11.500  10.136  0.0516 -0.6847 -0.2276
  236MOL0     O32433   0.605  11.564  10.203  0.1423  0.1899  0.1512
  236MOL0     C32434   0.591  11.620  10.329  0.5569  0.9156  0.1405
  236MOL0     C32435   0.478  11.615  10.414  0.4375 -0.6534  0.6632
  236MOL0     C32436   0.472  11.663  10.548 -0.1154  0.6936 -0.5768
  236MOL0     C32437   0.584  11.730  10.595  0.1683 -0.0584 -0.2113
  236MOL0     O32438   0.585  11.763  10.732 -0.0030  0.4250  0.3633
  236MOL0     C32439   0.603  11.649  10.812 -0.2935  1.3342 -0.7378
  236MOL0     C32440   0.562  11.672  10.956 -1.4487 -0.4808 -0.2223
  236MOL0     C32441   0.411  11.713  10.977 -0.0758  0.3003 -0.4333
  236MOL0     C32442   0.401  11.774  11.127  0.7220 -0.9326 -0.1561
  236MOL0     C32443   0.255  11.816  11.158 -0.7179  0.1918 -0.7445
  236MOL0     C32444   0.215  11.942  11.070  0.6184 -0.0740  0.2991
  236MOL0     C32445   0.288  12.063  11.126 -0.4369 -0.2846 -0.9177
  236MOL0     C32446   0.231  12.199  11.083 -0.3128  0.8726 -1.0038
  236MOL0     N32447   0.083  12.222  11.113 -0.4717 -0.5505 -0.4732
  236MOL0     C32448   0.024  12.247  11.230 -0.6088 -1.5192 -0.3869
  236MOL0     C32449  -0.111  12.277  11.209 -0.6917  0.8010 -0.1183
  236MOL0     C32450  -0.217  12.299  11.320 -0.2177  0.5106  0.7236
  236MOL0     C32451  -0.208  12.434  11.388  0.2906 -0.1853  0.1269
  236MOL0     C32452  -0.173  12.556  11.296  0.7458  0.0251 -0.4578
  236MOL0     C32453  -0.252  12.562  11.168 -0.0895  0.2958 -0.4607
  236MOL0     O32454  -0.208  12.675  11.087 -0.1181  0.3932 -0.7345
  236MOL0     C32455  -0.139  12.649  10.976 -0.7426 -0.2482 -0.0276
  236MOL0     C32456  -0.024  12.576  10.965  0.4868  0.1643  0.2661
  236MOL0     C32457   0.052  12.564  10.845 -0.5613  0.3043 -0.5217
  236MOL0     C32458   0.172  12.471  10.855 -0.9188 -0.4076  0.4363
  236MOL0     C32459   0.002  12.624  10.729 -1.6059  0.9425  0.2749
  236MOL0     C32460   0.081  12.604  10.606  0.3360 -0.1406  0.3310
  236MOL0     O32461   0.083  12.711  10.534  0.2409 -0.9425  0.0287
  236MOL0     C32462   0.174  12.744  10.436 -0.1872  0.8512 -0.5046
  236MOL0     C32463   0.157  12.864  10.371  0.0260  0.2584 -0.3177
  236MOL0     C32464   0.231  12.912  10.264  0.9612  0.8352 -0.4537
  236MOL0     C32465   0.348  12.845  10.231 -0.8935  0.5007  0.2417
  236MOL0     O32466   0.413  12.901  10.125  0.4463  0.0568  0.6090
  236MOL0     C32467   0.493  12.821  10.034  0.8082 -0.2771 -0.6214
  236MOL0     C32468   0.529  12.897   9.907  0.2647 -1.0609 -0.8007
  236MOL0     C32469   0.641  12.842   9.814  0.0658  0.0581  0.2341
  236MOL0     C32470   0.615  12.870   9.663  1.5636 -1.1597  0.1004
  236MOL0     C32471   0.724  12.854   9.566 -0.2920 -0.6061  0.3880
  236MOL0     C32472   0.688  12.857   9.419  0.2941 -0.5528 -0.4489
  236MOL0     C32473   0.808  12.797   9.335 -0.1390  0.0021  0.1320
  236MOL0     C32474   0.758  12.739   9.209 -0.3999 -0.1457 -0.1102
  236MOL0    Cl32475   0.643  12.844   9.115  0.1056  0.2076 -0.1523
  236MOL0     C32476   0.378  12.718  10.299 -0.2486 -0.3595  0.7900
  236MOL0     C32477   0.288  12.666  10.394 -0.1523  0.8230 -0.3351
  236MOL0     O32478   0.099  12.486  10.565 -0.7455  0.6615  0.7436
  236MOL0     C32479  -0.113  12.716  10.740  0.2918 -0.9634  0.4182
  236MOL0     C32480  -0.179  12.722  10.865  0.3382 -0.3549  0.2196
  236MOL0     N32481  -0.126  12.258  11.073  0.0696 -0.3695  1.1416
  236MOL0     N32482  -0.015  12.212  11.017 -0.5461 -0.5472  0.4857
  236MOL0     C32483   0.685  11.756  10.510  0.0723  0.5987 -0.4722
  236MOL0     C32484   0.700  11.682  10.383  0.0610 -0.4237  0.0504
  236MOL0     C32485   0.475  11.507   9.982  0.1218  0.4920 -0.2048
  236MOL0     C32486   0.359  11.454   9.926  0.3781  0.4838 -0.6364
  236MOL0     C32487   0.331  11.458   9.790 -0.0025  0.3610 -0.5967
  236MOL0     C32488   0.417  11.517   9.699  0.3061  0.5299  0.2762
  236MOL0     O32489   0.394  11.521   9.562 -0.7859 -1.0630 -0.8411
  236MOL0     C32490   0.518  11.502   9.481 -0.5812 -0.5980 -1.3850
  236MOL0     C32491   0.498  11.413   9.367 -0.2901  0.6547 -0.4838
  236MOL0     C32492   0.418  11.287   9.397 -0.2578 -0.7255 -0.6630
  236MOL0     C32493   0.451  11.156   9.310 -0.7622  0.4566 -0.2998
  236MOL0     C32494   0.460  11.192   9.168 -0.5068  0.4941  0.6727
  236MOL0     C32495   0.453  11.211   9.038  0.5241  0.2311 -0.3283
  236MOL0     C32496   0.525  11.588   9.756  0.5385  0.7620  0.9183
  236MOL0     C32497   0.556  11.582   9.896 -0.2893  1.0577  0.1076
  236MOL0     C32498   0.682  11.659   9.933  0.2504 -0.2336  0.0576
  236MOL0     H32499   0.392  11.558  10.381  1.9464 -1.5750 -1.9347
  236MOL0     H32500   0.393  11.638  10.617  1.4317 -2.6903  0.1522
  236MOL0     H32501   0.711  11.631  10.807  0.1718  3.7839 -0.5970
  236MOL0     H32502   0.553  11.558  10.776 -1.1671  0.4298  2.4741
  236MOL0     H32503   0.588  11.580  11.009 -3.1946 -1.4170 -0.8999
  236MOL0     H32504   0.634  11.746  10.991 -2.0923  0.3071 -0.5366
  236MOL0     H32505   0.391  11.793  10.905  0.0869  0.4392 -0.3276
  236MOL0     H32506   0.357  11.621  10.954 -0.4608  0.4571 -0.1748
  236MOL0     H32507   0.431  11.702  11.203 -3.5024 -1.0067  1.7229
  236MOL0     H32508   0.478  11.852  11.137 -0.9808  0.5636  2.2686
  236MOL0     H32509   0.248  11.842  11.264  0.4443 -1.2392 -0.2801
  236MOL0     H32510   0.178  11.739  11.146  0.0970 -0.6190 -0.9109
  236MOL0     H32511   0.249  11.931  10.966  0.9165  0.4746  0.3387
  236MOL0     H32512   0.106  11.938  11.067  0.6060 -2.9227  1.6224
  236MOL0     H32513   0.389  12.053  11.084 -0.6798 -1.0592 -1.3353
  236MOL0     H32514   0.290  12.065  11.235  0.4078  5.6650 -0.7068
  236MOL0     H32515   0.289  12.282  11.126  0.0849 -0.0617  0.3201
  236MOL0     H32516   0.240  12.204  10.974  0.9536  2.4618 -0.8712
  236MOL0     H32517   0.068  12.240  11.330 -0.9855 -0.8533 -0.1736
  236MOL0     H32518  -0.223  12.220  11.395  3.1757 -0.5577  0.0331
  236MOL0     H32519  -0.304  12.302  11.253  1.1674  0.2663 -1.1606
  236MOL0     H32520  -0.299  12.465  11.441  0.3688 -3.0626  2.1982
  236MOL0     H32521  -0.127  12.430  11.460  0.7970 -1.5626 -0.4892
  236MOL0     H32522  -0.200  12.652  11.342 -1.2689 -1.5159  1.8079
  236MOL0     H32523  -0.069  12.564  11.264  0.6154  0.0761 -0.8734
  236MOL0     H32524  -0.243  12.468  11.114 -2.8905 -1.0089  1.1404
  236MOL0     H32525  -0.359  12.565  11.188  0.1597 -3.1566  2.3404
  236MOL0     H32526   0.019  12.519  11.047  0.5534  0.4071  0.4016
  236MOL0     H32527   0.263  12.517  10.815  0.1515 -0.3846  2.7378
  236MOL0     H32528   0.149  12.379  10.800  2.8360 -0.6631 -0.9796
  236MOL0     H32529   0.200  12.460  10.960  0.5594  1.1209  0.2409
  236MOL0     H32530   0.067  12.915  10.403 -0.0828 -0.1361  0.0169
  236MOL0     H32531   0.202  12.999  10.207 -1.8304 -0.4666 -1.1847
  236MOL0     H32532   0.589  12.789  10.076  1.5190  1.4424 -0.8674
  236MOL0     H32533   0.432  12.733  10.008 -0.9705  1.0918 -1.3128
  236MOL0     H32534   0.434  12.905   9.854  0.0902  2.2669 -0.2082
  236MOL0     H32535   0.565  12.998   9.929  2.6718 -2.0819  0.3089
  236MOL0     H32536   0.648  12.733   9.816 -2.6452 -0.2609 -1.7398
  236MOL0     H32537   0.732  12.886   9.855  0.6843  1.7277 -2.6756
  236MOL0     H32538   0.565  12.967   9.654 -0.7730 -1.6938  4.4048
  236MOL0     H32539   0.539  12.797   9.633 -1.9403 -0.0339  4.9691
  236MOL0     H32540   0.809  12.915   9.600  0.2599  0.0181 -1.9384
  236MOL0     H32541   0.770  12.759   9.594  1.9913 -0.3684 -2.1150
  236MOL0     H32542   0.672  12.958   9.380 -0.3762  0.9664  3.2800
  236MOL0     H32543   0.597  12.803   9.393  1.2583 -2.0825 -0.7325
  236MOL0     H32544   0.854  12.722   9.401  3.3071  1.8358  0.0590
  236MOL0     H32545   0.867  12.885   9.308 -2.7082  0.5936 -4.7934
  236MOL0     H32546   0.707  12.647   9.236 -0.4444 -0.0755  0.0469
  236MOL0     H32547   0.849  12.733   9.148  1.8144 -1.1706  3.0421
  236MOL0     H32548   0.465  12.659  10.274  1.3973  0.8366  3.2946
  236MOL0     H32549   0.320  12.574  10.442 -2.7892 -0.7186 -1.3519
  236MOL0     H32550  -0.156  12.768  10.655 -1.0428  0.3423  1.8236
  236MOL0     H32551  -0.274  12.772  10.882  1.3153  1.1408  1.5831
  236MOL0     H32552   0.779  11.799  10.541  0.0784  0.4494 -0.2851
  236MOL0     H32553   0.789  11.691  10.322 -2.1072 -1.5969 -3.6207
  236MOL0     H32554   0.288  11.404   9.991  1.0867  0.1291 -0.1258
  236MOL0     H32555   0.248  11.399   9.753 -0.4854 -0.4985  1.7034
  236MOL0     H32556   0.548  11.596   9.433  2.0163 -1.0572 -0.8211
  236MOL0     H32557   0.594  11.454   9.544  0.6601  3.0012  0.0953
  236MOL0     H32558   0.591  11.382   9.319 -2.0424 -2.1483 -2.4212
  236MOL0     H32559   0.445  11.461   9.285 -2.7636 -1.6956 -0.4202
  236MOL0     H32560   0.444  11.261   9.501  2.3762  0.6212 -0.9153
  236MOL0     H32561   0.313  11.318   9.394 -0.0153  0.2407  0.2585
  236MOL0     H32562   0.377  11.077   9.324  1.5627 -1.7354  0.2672
  236MOL0     H32563   0.552  11.120   9.328 -1.7893 -3.9318 -1.9952
  236MOL0     H32564   0.450  11.220   8.932  2.0711 -1.6597 -0.5901
  236MOL0     H32565   0.593  11.640   9.689 -0.7486 -1.8911 -2.7346
  236MOL0     H32566   0.768  11.591   9.937 -1.5033 -2.5969  0.0068
  236MOL0     H32567   0.696  11.734   9.855 -1.2193 -0.3441 -0.3378
  236MOL0     H32568   0.666  11.714  10.026 -3.5727  2.9500 -2.1735
  237MOL0     O32569   5.785   1.581   6.563 -0.7334 -0.3839  0.7983
  237MOL0     C32570   5.668   1.614   6.576  0.0777 -0.5774  0.7887
  237MOL0     O32571   5.564   1.543   6.522  0.9163  0.0500 -0.7445
  237MOL0     C32572   5.589   1.461   6.426  1.0171 -1.0326  0.7483
  237MOL0     C32573   5.653   1.487   6.309  0.1842 -0.0845  0.2621
  237MOL0     C32574   5.677   1.390   6.205 -0.3993 -0.2916  0.0983
  237MOL0     C32575   5.638   1.262   6.221  0.0741  0.7019 -0.5736
  237MOL0     O32576   5.668   1.176   6.124 -0.5627 -0.8325  0.1914
  237MOL0     C32577   5.689   1.033   6.154 -0.6704 -0.6223  0.1557
  237MOL0     C32578   5.833   0.998   6.109 -0.6956 -0.1023 -0.0530
  237MOL0     C32579   5.868   0.847   6.103 -0.5548  0.7309  0.2443
  237MOL0     C32580   5.835   0.780   5.969 -0.3473 -0.3457 -0.0758
  237MOL0     C32581   5.867   0.637   5.935 -0.3061  0.6666  0.0020
  237MOL0     C32582   5.832   0.609   5.792 -0.6240 -0.4381  0.1684
  237MOL0     C32583   5.788   0.459   5.753 -1.4354 -0.6254  0.2332
  237MOL0     C32584   5.905   0.392   5.674  0.2965 -0.5704  0.1361
  237MOL0     N32585   5.889   0.389   5.522  0.1513  1.0345 -0.7201
  237MOL0     C32586   5.970   0.457   5.425  0.2290  0.7186 -0.1064
  237MOL0     C32587   5.910   0.444   5.313 -0.1700 -0.6347  0.4902
  237MOL0     C32588   5.951   0.529   5.190 -0.6019  0.3369 -0.4623
  237MOL0     C32589   5.908   0.493   5.046  0.5652  0.0966 -0.1792
  237MOL0     C32590   5.963   0.578   4.933  0.2119 -0.2480  0.5670
  237MOL0     C32591   6.089   0.523   4.872  0.8491  0.6216  0.0479
  237MOL0     O32592   6.057   0.393   4.817 -0.3730  0.2164  0.0157
  237MOL0     C32593   6.013   0.382   4.686 -0.8466  0.2027  1.0452
  237MOL0     C32594   5.999   0.246   4.639  0.1356 -0.4918 -0.0468
  237MOL0     C32595   5.955   0.215   4.507  0.5290  0.0326 -0.5438
  237MOL0     C32596   5.943   0.061   4.476  0.6227  0.1226  0.2934
  237MOL0     C32597   5.928   0.321   4.416 -0.5446  0.4024 -0.8245
  237MOL0     C32598   5.890   0.303   4.279  0.6948  0.0326 -0.6494
  237MOL0     O32599   5.832   0.409   4.222 -0.3303  0.7376  0.4519
  237MOL0     C32600   5.761   0.379   4.109  0.3053 -0.3171  0.0422
  237MOL0     C32601   5.637   0.443   4.100 -0.1562 -0.9032  0.6274
  237MOL0     C32602   5.568   0.443   3.984 -0.9580 -0.5929  0.2759
  237MOL0     C32603   5.619   0.373   3.872 -0.6701  0.4088  0.7941
  237MOL0     O32604   5.537   0.384   3.757 -0.4307 -0.0837 -0.0886
  237MOL0     C32605   5.588   0.326   3.627  0.2923  0.0523  0.4170
  237MOL0     C32606   5.491   0.378   3.518 -0.0430 -0.5223 -0.2582
  237MOL0     C32607   5.527   0.320   3.381 -0.0124  0.6365 -1.7493
  237MOL0     C32608   5.408   0.317   3.291 -0.1974  0.2486  0.1366
  237MOL0     C32609   5.397   0.185   3.212  0.7228 -0.0759 -0.3015
  237MOL0     C32610   5.383   0.060   3.310  0.7518 -0.1880  0.5787
  237MOL0     C32611   5.367  -0.064   3.210  0.5341 -1.0354  0.0349
  237MOL0     C32612   5.393  -0.191   3.284  0.6855  0.0784  0.4992
  237MOL0    Cl32613   5.365  -0.323   3.176 -0.3077 -0.2000  0.4124
  237MOL0     C32614   5.737   0.301   3.880 -0.1994  0.0939  1.6207
  237MOL0     C32615   5.814   0.309   3.988 -0.5116 -0.2997 -1.0689
  237MOL0     O32616   5.914   0.196   4.228 -0.0328 -0.9172  0.4804
  237MOL0     C32617   5.951   0.451   4.458  1.3018 -0.3658  0.3557
  237MOL0     C32618   5.997   0.478   4.586 -1.1073 -0.8728  0.6626
  237MOL0     N32619   5.802   0.358   5.333  0.4604 -0.6719  0.0250
  237MOL0     N32620   5.790   0.324   5.454  0.0418  1.1667  0.6520
  237MOL0     C32621   5.577   1.227   6.332  0.0671 -0.7745 -0.9331
  237MOL0     C32622   5.546   1.331   6.427 -0.7420  0.2342 -0.0503
  237MOL0     C32623   5.631   1.721   6.671  0.5438  0.1002  0.0429
  237MOL0     C32624   5.502   1.711   6.739 -1.3035  0.4450  0.6747
  237MOL0     C32625   5.453   1.805   6.830  0.0369 -0.8783  0.1549
  237MOL0     C32626   5.530   1.919   6.858  1.0159  0.2603 -0.1585
  237MOL0     O32627   5.500   2.021   6.941 -0.3905 -0.6901 -0.0624
  237MOL0     C32628   5.395   1.982   7.032 -0.4130  1.6398  0.2394
  237MOL0     C32629   5.363   2.093   7.136 -0.6810  0.5102 -0.1341
  237MOL0     C32630   5.230   2.053   7.202  0.1091  0.5196  0.4600
  237MOL0     C32631   5.162   2.156   7.279  0.6633 -1.0622 -0.0496
  237MOL0     C32632   5.235   2.187   7.399  0.1301 -0.1704 -0.2020
  237MOL0     C32633   5.311   2.219   7.492 -0.5269 -0.5973 -0.4126
  237MOL0     C32634   5.651   1.935   6.792 -0.5705 -0.2030  0.0502
  237MOL0     C32635   5.697   1.841   6.691 -0.1089 -0.1049 -0.3169
  237MOL0     C32636   5.825   1.875   6.622 -0.1952  0.2562  0.9995
  237MOL0     H32637   5.682   1.588   6.281 -1.2551  0.5250  0.8417
  237MOL0     H32638   5.732   1.417   6.115  2.4265  1.3229  2.1485
  237MOL0     H32639   5.619   0.976   6.092 -0.7093 -0.0095 -0.3857
  237MOL0     H32640   5.695   1.010   6.260 -0.5470 -1.8369 -0.1003
  237MOL0     H32641   5.842   1.029   6.004 -4.7103 -3.5376 -1.7038
  237MOL0     H32642   5.913   1.054   6.159 -1.4463  0.5023  0.4990
  237MOL0     H32643   5.974   0.842   6.130  0.0344  0.5246 -1.9054
  237MOL0     H32644   5.809   0.799   6.182  0.8588 -1.9046 -0.1752
  237MOL0     H32645   5.729   0.803   5.954 -0.4261 -0.7334 -0.1192
  237MOL0     H32646   5.896   0.831   5.894 -0.7806 -1.5721 -1.3110
  237MOL0     H32647   5.812   0.573   6.005 -0.3374 -1.3547 -1.7700
  237MOL0     H32648   5.972   0.613   5.958 -0.6670  0.3701  1.4276
  237MOL0     H32649   5.764   0.686   5.755  0.9229  1.2835  0.7531
  237MOL0     H32650   5.919   0.639   5.733 -0.5953 -1.5518 -0.3690
  237MOL0     H32651   5.703   0.438   5.687  0.6361 -3.8611 -1.7137
  237MOL0     H32652   5.767   0.412   5.850 -2.5955  2.6413  1.6874
  237MOL0     H32653   6.001   0.440   5.694  1.0048 -1.0207 -1.9796
  237MOL0     H32654   5.925   0.287   5.699  3.1762 -0.1566 -0.1610
  237MOL0     H32655   6.059   0.518   5.438  1.3297 -0.3732 -2.0790
  237MOL0     H32656   6.060   0.535   5.182 -0.4992 -2.2545 -2.5359
  237MOL0     H32657   5.928   0.632   5.219 -0.0968  0.5294 -0.7369
  237MOL0     H32658   5.927   0.387   5.030 -2.0154 -0.6767  1.2667
  237MOL0     H32659   5.801   0.520   5.047  0.9775  2.0758 -1.9268
  237MOL0     H32660   5.880   0.576   4.862 -1.6469  0.9778  2.5766
  237MOL0     H32661   5.977   0.679   4.971  1.0201  0.0825 -0.5478
  237MOL0     H32662   6.130   0.598   4.805 -1.0978  3.5064  1.8761
  237MOL0     H32663   6.159   0.497   4.953  0.1441 -1.3464  0.0881
  237MOL0     H32664   6.025   0.174   4.716 -1.1221 -2.7061 -1.5760
  237MOL0     H32665   5.969  -0.015   4.551 -0.7406 -0.8527 -0.1813
  237MOL0     H32666   6.011   0.050   4.391  0.1965  0.0990 -0.0485
  237MOL0     H32667   5.838   0.040   4.453  0.9255 -0.5180 -0.5281
  237MOL0     H32668   5.621   0.509   4.184  0.0541  1.8076 -1.3447
  237MOL0     H32669   5.482   0.507   3.973 -0.6402  0.0412  1.2864
  237MOL0     H32670   5.685   0.366   3.597  0.9899 -1.9674 -0.2457
  237MOL0     H32671   5.586   0.216   3.623  1.1701  0.0666 -1.5942
  237MOL0     H32672   5.395   0.345   3.559  1.2872 -2.2652  1.6802
  237MOL0     H32673   5.490   0.487   3.514  1.2235 -0.0894  4.9058
  237MOL0     H32674   5.574   0.222   3.388  0.3595  0.8727  3.5743
  237MOL0     H32675   5.589   0.401   3.342  0.1059  2.5302  1.8408
  237MOL0     H32676   5.431   0.403   3.227  0.6390 -0.1070 -0.0543
  237MOL0     H32677   5.318   0.343   3.348  0.0723 -1.8498  1.6338
  237MOL0     H32678   5.307   0.187   3.150 -0.1594 -1.5701  0.8588
  237MOL0     H32679   5.478   0.181   3.139  0.7473  1.5109 -0.3951
  237MOL0     H32680   5.297   0.068   3.377  0.2970  1.8304 -0.1881
  237MOL0     H32681   5.473   0.054   3.372 -0.8697  1.2268  3.2875
  237MOL0     H32682   5.428  -0.048   3.121 -3.6096 -0.8795 -3.0594
  237MOL0     H32683   5.271  -0.055   3.160  2.0008  1.7000 -2.6834
  237MOL0     H32684   5.323  -0.207   3.367 -0.0574  0.5207 -0.0407
  237MOL0     H32685   5.497  -0.191   3.318  1.7360 -0.3065 -2.4354
  237MOL0     H32686   5.777   0.238   3.802 -1.3169  1.3761 -0.0395
  237MOL0     H32687   5.914   0.267   3.985 -0.0413  0.8180 -2.4471
  237MOL0     H32688   5.941   0.536   4.392  2.2414 -0.3165  0.2631
  237MOL0     H32689   6.010   0.584   4.601  2.8390 -0.9278 -1.0735
  237MOL0     H32690   5.533   1.129   6.346 -2.0716  0.3039  0.4924
  237MOL0     H32691   5.519   1.301   6.528 -0.3115  2.5283  0.7989
  237MOL0     H32692   5.446   1.620   6.724 -0.2794  0.0232 -0.7491
  237MOL0     H32693   5.354   1.778   6.867 -0.3833 -0.7589 -0.8465
  237MOL0     H32694   5.306   1.951   6.978 -0.8854 -0.1012  1.9024
  237MOL0     H32695   5.430   1.894   7.086  0.8276 -0.3727 -3.5200
  237MOL0     H32696   5.359   2.188   7.081  0.6496  1.1408  0.8080
  237MOL0     H32697   5.441   2.097   7.213 -1.6768  1.5786  0.8648
  237MOL0     H32698   5.157   2.030   7.124  0.4322  3.6444 -0.9152
  237MOL0     H32699   5.238   1.963   7.263 -2.0489 -2.2907 -2.9972
  237MOL0     H32700   5.057   2.130   7.299  0.5143 -1.2747 -1.0894
  237MOL0     H32701   5.160   2.244   7.215  3.2001  1.0374  2.4705
  237MOL0     H32702   5.383   2.256   7.563  0.4294 -2.6738 -0.2465
  237MOL0     H32703   5.716   2.016   6.823 -2.5297  1.7357 -0.6592
  237MOL0     H32704   5.899   1.797   6.640 -1.3901 -1.1753 -0.0780
  237MOL0     H32705   5.819   1.885   6.513  3.3959  1.0000  0.7268
  237MOL0     H32706   5.881   1.963   6.656  1.1779 -0.4319  0.5823
  238MOL0     O32707  10.149   1.096   3.972 -0.8388 -0.4393  0.4153
  238MOL0     C32708  10.249   1.032   3.991  0.2152  0.1899  0.1252
  238MOL0     O32709  10.352   1.075   4.072  0.4191  0.5790  0.8646
  238MOL0     C32710  10.368   1.211   4.093  0.2867 -0.8162 -1.2641
  238MOL0     C32711  10.436   1.249   4.215  0.6216  0.5883  1.0787
  238MOL0     C32712  10.455   1.383   4.249  0.6432  0.0452 -0.1327
  238MOL0     C32713  10.414   1.480   4.162  0.4615 -0.6403  0.4711
  238MOL0     O32714  10.441   1.611   4.181  0.2694 -0.4192 -0.4251
  238MOL0     C32715  10.347   1.715   4.160 -0.0262  0.1745 -0.1262
  238MOL0     C32716  10.326   1.777   4.292  0.3723 -0.0538  0.4914
  238MOL0     C32717  10.221   1.892   4.303  0.2864 -0.2416 -0.5047
  238MOL0     C32718  10.198   1.915   4.453 -0.5556 -0.2924 -0.0781
  238MOL0     C32719  10.112   2.034   4.481  0.6253  0.0019 -0.0678
  238MOL0     C32720  10.041   2.039   4.614 -0.0133 -0.0881 -0.2004
  238MOL0     C32721   9.952   1.920   4.641 -0.4252 -0.1384 -0.7452
  238MOL0     C32722   9.839   1.895   4.529 -0.2315  0.1245  1.3531
  238MOL0     N32723   9.759   1.772   4.559 -0.1696  0.4318 -0.4494
  238MOL0     C32724   9.810   1.646   4.560  0.1873 -0.1323  0.5435
  238MOL0     C32725   9.727   1.571   4.630  0.5168  0.5745  0.4116
  238MOL0     C32726   9.758   1.424   4.660 -0.2623 -0.4926  0.2379
  238MOL0     C32727   9.845   1.418   4.784  0.1408 -0.4702  0.1024
  238MOL0     C32728   9.942   1.294   4.770  0.7043  0.5089 -0.3293
  238MOL0     C32729  10.042   1.318   4.874  0.5461 -0.5065 -0.3287
  238MOL0     O32730   9.988   1.271   5.007  0.1104 -0.6727  0.0344
  238MOL0     C32731  10.076   1.275   5.112 -0.3450  0.4420  0.4439
  238MOL0     C32732  10.203   1.335   5.113 -0.1366  1.1039 -0.3049
  238MOL0     C32733  10.289   1.323   5.222  0.5203 -0.5468 -0.9350
  238MOL0     C32734  10.423   1.401   5.214 -0.0768  0.0572  1.2155
  238MOL0     C32735  10.258   1.247   5.338 -0.2852  0.5492 -0.4078
  238MOL0     C32736  10.351   1.221   5.446  0.2839 -0.3956  0.1496
  238MOL0     O32737  10.470   1.295   5.463 -0.2275 -0.1035  0.0577
  238MOL0     C32738  10.574   1.255   5.547  0.0019 -0.5727 -0.1186
  238MOL0     C32739  10.705   1.279   5.500 -0.4983 -0.4411  0.3677
  238MOL0     C32740  10.814   1.253   5.577  1.1827  0.1283 -0.3433
  238MOL0     C32741  10.800   1.208   5.707 -0.6580 -0.8035 -0.0485
  238MOL0     O32742  10.914   1.189   5.791  0.5660 -0.7527  0.0304
  238MOL0     C32743  11.023   1.277   5.792 -0.3498 -0.5541  0.9705
  238MOL0     C32744  11.125   1.231   5.893  0.3057  0.2127 -0.2797
  238MOL0     C32745  11.245   1.321   5.913  0.9926  0.5097 -0.6025
  238MOL0     C32746  11.364   1.243   5.961  0.4097 -0.0713  0.4891
  238MOL0     C32747  11.350   1.187   6.104  0.2856 -0.8026 -0.0125
  238MOL0     C32748  11.480   1.191   6.186 -0.3701 -0.0959  0.4271
  238MOL0     C32749  11.458   1.160   6.333 -0.0818 -0.3303 -0.4385
  238MOL0     C32750  11.442   1.015   6.379  0.5702 -0.2745 -0.3839
  238MOL0    Cl32751  11.599   0.925   6.403  0.0780  0.2626  0.0578
  238MOL0     C32752  10.670   1.189   5.759  1.2710 -0.4356 -0.4248
  238MOL0     C32753  10.556   1.201   5.677  0.2347 -0.4405  0.1605
  238MOL0     O32754  10.308   1.128   5.512 -0.3731  0.3331 -1.0365
  238MOL0     C32755  10.129   1.189   5.336  0.2571  0.3695 -0.0135
  238MOL0     C32756  10.041   1.207   5.226  0.6147 -0.5101 -0.4142
  238MOL0     N32757   9.628   1.652   4.681  0.7978 -0.2968  0.1354
  238MOL0     N32758   9.648   1.774   4.640 -0.4953 -0.0010 -0.0690
  238MOL0     C32759  10.341   1.454   4.046 -0.3886  0.6256  0.5336
  238MOL0     C32760  10.313   1.323   4.012 -0.7278 -0.2208  0.2115
  238MOL0     C32761  10.244   0.899   3.940  0.0702  0.3406  0.3364
  238MOL0     C32762  10.148   0.872   3.837  0.2116 -0.3874 -0.1472
  238MOL0     C32763  10.125   0.744   3.781 -0.4483  0.1983 -0.4889
  238MOL0     C32764  10.199   0.637   3.833  1.0408  0.4564 -0.2390
  238MOL0     O32765  10.177   0.514   3.801  0.5416  1.1109  0.0077
  238MOL0     C32766  10.085   0.474   3.696  0.4402 -0.2956 -1.0422
  238MOL0     C32767   9.936   0.456   3.749 -0.3085 -0.1446  0.6503
  238MOL0     C32768   9.900   0.309   3.734 -0.3332 -0.2688  0.3664
  238MOL0     C32769   9.748   0.272   3.761  1.2205  0.1919  0.0496
  238MOL0     C32770   9.733   0.130   3.720 -0.1033 -0.0384 -0.1382
  238MOL0     C32771   9.719   0.013   3.672  0.6851  0.0410  0.2799
  238MOL0     C32772  10.291   0.665   3.942 -0.5436  0.0999 -0.1733
  238MOL0     C32773  10.310   0.789   3.999  0.4623 -1.8334 -0.2505
  238MOL0     C32774  10.379   0.790   4.141  0.5756  0.4509  0.1138
  238MOL0     H32775  10.467   1.170   4.283 -2.7237 -3.3019 -1.4579
  238MOL0     H32776  10.493   1.423   4.342 -2.3935  1.5453  0.5830
  238MOL0     H32777  10.246   1.679   4.141 -1.4085  3.0567  1.0525
  238MOL0     H32778  10.377   1.787   4.084 -2.7053  1.3803 -0.1585
  238MOL0     H32779  10.292   1.692   4.353  2.8018 -1.6652 -0.2485
  238MOL0     H32780  10.423   1.817   4.322  0.1573  0.9587 -0.1083
  238MOL0     H32781  10.243   1.990   4.259 -2.8152  1.2258  0.8734
  238MOL0     H32782  10.130   1.857   4.255  1.2653 -2.1656 -1.0204
  238MOL0     H32783  10.151   1.824   4.494  0.9106 -1.0923 -0.1080
  238MOL0     H32784  10.296   1.912   4.501 -0.8431 -2.3709  0.4906
  238MOL0     H32785  10.037   2.034   4.401  1.5960 -1.6233 -1.0305
  238MOL0     H32786  10.158   2.133   4.474 -1.7330  1.1230 -0.8833
  238MOL0     H32787  10.103   2.053   4.704 -0.5407  6.0487 -0.3948
  238MOL0     H32788   9.999   2.139   4.622 -1.5450 -0.7513  0.5255
  238MOL0     H32789   9.895   1.942   4.731 -1.2414 -0.5329 -1.1574
  238MOL0     H32790  10.012   1.831   4.663 -3.5678 -1.5924  3.0944
  238MOL0     H32791   9.776   1.985   4.528  0.9671  1.0427 -1.3896
  238MOL0     H32792   9.879   1.895   4.427  3.1639  4.1775  2.3838
  238MOL0     H32793   9.895   1.614   4.501 -0.1402  1.7505 -1.0716
  238MOL0     H32794   9.809   1.374   4.577  0.9119  0.4646  0.3482
  238MOL0     H32795   9.667   1.373   4.692  0.4381 -0.0986  3.0832
  238MOL0     H32796   9.913   1.504   4.784  0.6237 -0.8166  1.6119
  238MOL0     H32797   9.779   1.409   4.871 -3.3089 -2.6900 -2.5153
  238MOL0     H32798   9.903   1.192   4.776  0.7661  0.5768  1.8003
  238MOL0     H32799   9.988   1.307   4.672  0.7592 -1.8953 -0.6884
  238MOL0     H32800  10.130   1.255   4.853  0.4085 -1.4868  1.7130
  238MOL0     H32801  10.072   1.423   4.869 -1.1085 -0.0773 -2.6108
  238MOL0     H32802  10.240   1.387   5.025  4.9986 -1.2057  0.1190
  238MOL0     H32803  10.438   1.456   5.120  0.6302  0.5889  1.6316
  238MOL0     H32804  10.508   1.333   5.221 -0.4368 -1.2062 -3.2417
  238MOL0     H32805  10.422   1.471   5.297 -2.6937 -2.0329  3.1087
  238MOL0     H32806  10.718   1.328   5.403 -0.2392  0.2914  0.7633
  238MOL0     H32807  10.916   1.276   5.547  1.3048  1.7670  1.1524
  238MOL0     H32808  11.070   1.271   5.693  1.8992  2.1317  1.7533
  238MOL0     H32809  10.998   1.382   5.807 -1.0808  0.0615 -3.3268
  238MOL0     H32810  11.071   1.215   5.986 -2.0174  3.5249 -0.8995
  238MOL0     H32811  11.147   1.134   5.847 -2.3131  0.6272 -2.6504
  238MOL0     H32812  11.215   1.402   5.981 -3.4224  0.1410 -1.7743
  238MOL0     H32813  11.280   1.374   5.824 -0.0390  0.7265 -0.8876
  238MOL0     H32814  11.446   1.315   5.952 -0.4987  1.0032  0.5796
  238MOL0     H32815  11.387   1.159   5.896 -0.7144  0.7691 -1.0691
  238MOL0     H32816  11.277   1.254   6.150 -1.9243  0.1568 -4.3702
  238MOL0     H32817  11.310   1.086   6.104 -1.5528 -0.1284 -1.4197
  238MOL0     H32818  11.533   1.285   6.168  2.0303 -0.5131  4.2165
  238MOL0     H32819  11.543   1.113   6.144  0.9857  0.5963  1.1343
  238MOL0     H32820  11.366   1.207   6.369  0.9201 -1.3077  3.9346
  238MOL0     H32821  11.536   1.204   6.396 -2.5018 -0.8413  3.2278
  238MOL0     H32822  11.379   0.945   6.322  1.0212 -1.2734  0.3282
  238MOL0     H32823  11.398   1.028   6.478  0.7628  2.3490 -0.5741
  238MOL0     H32824  10.651   1.147   5.857 -0.7830  0.2321 -0.4808
  238MOL0     H32825  10.455   1.188   5.714 -1.2524  3.7804 -1.7349
  238MOL0     H32826  10.096   1.135   5.424  2.6016  2.6470  2.4695
  238MOL0     H32827   9.944   1.158   5.232 -0.1761  1.1438  1.4932
  238MOL0     H32828  10.299   1.529   3.980 -3.0006  0.9875  2.4949
  238MOL0     H32829  10.277   1.311   3.911 -0.4151 -0.5369  0.1377
  238MOL0     H32830  10.107   0.958   3.784  0.1044  0.0564  0.6414
  238MOL0     H32831  10.055   0.723   3.701 -0.4248  1.7190 -0.9454
  238MOL0     H32832  10.069   0.544   3.614  0.0893  1.8411  0.7744
  238MOL0     H32833  10.113   0.371   3.670  2.0115 -0.9132  2.5733
  238MOL0     H32834   9.869   0.519   3.690  0.0829 -0.6456 -0.3577
  238MOL0     H32835   9.921   0.481   3.854 -4.7466 -0.7799  0.3704
  238MOL0     H32836   9.925   0.285   3.630  0.0134 -0.3081  0.4588
  238MOL0     H32837   9.960   0.250   3.804  1.1284 -2.4144 -2.4658
  238MOL0     H32838   9.680   0.338   3.705  0.7414 -0.0481  0.3492
  238MOL0     H32839   9.716   0.290   3.864 -3.1287  1.4238 -1.2918
  238MOL0     H32840   9.713  -0.085   3.630  0.0253 -0.9753  2.5764
  238MOL0     H32841  10.329   0.575   3.989  0.9347  0.4207 -0.6803
  238MOL0     H32842  10.477   0.837   4.134  0.8481  0.5787  3.2215
  238MOL0     H32843  10.340   0.842   4.229  1.7908 -0.5776  1.2907
  238MOL0     H32844  10.381   0.683   4.166  1.8125  0.7663  1.5149
  239MOL0     O32845  10.210   8.644   0.623  0.1519 -0.3030  0.0384
  239MOL0     C32846  10.324   8.694   0.632 -0.2030  1.0859  0.9534
  239MOL0     O32847  10.384   8.745   0.530  0.1127 -0.8779 -0.2474
  239MOL0     C32848  10.328   8.767   0.414 -0.6741  0.1204 -0.1862
  239MOL0     C32849  10.339   8.668   0.318  0.2644  0.1991  0.1957
  239MOL0     C32850  10.286   8.684   0.189  0.8764 -0.1817  0.1492
  239MOL0     C32851  10.214   8.804   0.159  0.2060  0.1952  0.2300
  239MOL0     O32852  10.156   8.808   0.035  0.2256 -0.5000  0.0903
  239MOL0     C32853  10.118   8.931  -0.023  0.6671 -0.3570 -0.1489
  239MOL0     C32854  10.061   8.904  -0.162 -0.2337  0.3121 -0.4390
  239MOL0     C32855  10.159   8.864  -0.272  0.0447  0.2484  0.8953
  239MOL0     C32856  10.304   8.914  -0.273  0.4007  0.1831  0.5715
  239MOL0     C32857  10.392   8.833  -0.172 -0.3076 -0.3480  0.6222
  239MOL0     C32858  10.541   8.825  -0.211  0.5897 -0.2800  0.1299
  239MOL0     C32859  10.609   8.734  -0.109 -0.0762  0.8688  0.5942
  239MOL0     C32860  10.742   8.692  -0.164 -0.2940  0.9900 -0.2942
  239MOL0     N32861  10.849   8.791  -0.145 -0.2030 -0.7587  0.4349
  239MOL0     C32862  10.976   8.780  -0.086 -0.3080 -0.7001  0.4243
  239MOL0     C32863  11.042   8.903  -0.101 -0.2792  0.1331 -0.1754
  239MOL0     C32864  11.182   8.925  -0.049  0.0697 -0.7596  1.2830
  239MOL0     C32865  11.282   8.965  -0.165  0.2028  0.1852  0.0891
  239MOL0     C32866  11.426   8.975  -0.131  0.6283  0.2367 -0.3154
  239MOL0     C32867  11.450   9.090  -0.043 -0.7349 -0.3469 -0.4915
  239MOL0     O32868  11.583   9.093  -0.011 -0.5611 -0.4310  0.3838
  239MOL0     C32869  11.630   9.184   0.087 -0.6399 -0.8357  0.8654
  239MOL0     C32870  11.551   9.285   0.151 -0.2284 -0.4198  0.8832
  239MOL0     C32871  11.598   9.372   0.253 -0.1540  0.2889  0.6165
  239MOL0     C32872  11.505   9.488   0.285  0.7721  0.9528  0.4749
  239MOL0     C32873  11.742   9.358   0.286 -0.6560  0.0237 -0.0606
  239MOL0     C32874  11.806   9.467   0.366 -0.3301 -0.9956 -0.2115
  239MOL0     O32875  11.938   9.512   0.329  0.6581  0.2237  0.6243
  239MOL0     C32876  11.992   9.605   0.391 -0.2972  0.2446 -0.1761
  239MOL0     C32877  12.113   9.590   0.458 -1.1430  0.4675  0.2310
  239MOL0     C32878  12.183   9.704   0.512 -0.1218 -0.0519  0.3879
  239MOL0     C32879  12.123   9.830   0.500 -0.3505 -0.8688 -0.6149
  239MOL0     O32880  12.189   9.926   0.576 -0.3695  0.1361  0.5224
  239MOL0     C32881  12.164  10.065   0.559 -0.5418 -0.4887 -0.0908
  239MOL0     C32882  12.300  10.133   0.576  0.7625 -0.5563  0.1830
  239MOL0     C32883  12.348  10.137   0.726  0.2680 -0.9549 -0.4765
  239MOL0     C32884  12.494  10.190   0.733 -0.4505 -0.7086 -0.1725
  239MOL0     C32885  12.491  10.337   0.675  0.4046 -0.3304 -1.1258
  239MOL0     C32886  12.607  10.418   0.732 -0.8167 -0.0787  0.4366
  239MOL0     C32887  12.584  10.573   0.695  0.3524  0.2667  0.0614
  239MOL0     C32888  12.715  10.654   0.698 -0.6511 -0.7227 -0.2400
  239MOL0    Cl32889  12.721  10.801   0.594  0.0644 -0.1801  0.6500
  239MOL0     C32890  12.003   9.847   0.431  0.9179 -0.2059 -0.3415
  239MOL0     C32891  11.937   9.733   0.377 -0.0510 -0.6163 -0.5852
  239MOL0     O32892  11.741   9.525   0.448  0.0977  0.5035 -0.3915
  239MOL0     C32893  11.817   9.267   0.229  0.0862  1.0261 -0.0434
  239MOL0     C32894  11.771   9.188   0.117 -0.6581 -0.9409 -1.6242
  239MOL0     N32895  10.958   8.988  -0.174  0.1034  0.1202  0.2582
  239MOL0     N32896  10.849   8.919  -0.202 -0.7405  0.1628 -0.1329
  239MOL0     C32897  10.211   8.905   0.249 -0.3006 -0.6661 -0.5983
  239MOL0     C32898  10.269   8.893   0.382  0.6151  0.6046  0.5036
  239MOL0     C32899  10.420   8.644   0.732 -0.4642  1.1147  0.4521
  239MOL0     C32900  10.471   8.510   0.701 -0.1972 -0.0400 -0.0228
  239MOL0     C32901  10.561   8.448   0.782 -0.1835 -0.9460  1.0880
  239MOL0     C32902  10.616   8.507   0.893  0.3322  0.0723 -0.3527
  239MOL0     O32903  10.695   8.447   0.992 -0.1248  0.5692  0.2823
  239MOL0     C32904  10.707   8.305   0.996 -0.2818 -0.0399 -1.0586
  239MOL0     C32905  10.840   8.273   1.066  0.0838 -0.1334 -0.3232
  239MOL0     C32906  10.912   8.151   1.003  0.1465 -0.3308 -0.2823
  239MOL0     C32907  10.832   8.019   1.027 -0.2991 -0.4682  0.3872
  239MOL0     C32908  10.870   7.903   0.951 -0.7728 -0.5351 -0.7281
  239MOL0     C32909  10.904   7.799   0.889  0.9866 -1.1448 -0.1933
  239MOL0     C32910  10.577   8.646   0.921 -0.3607 -0.1134 -0.1767
  239MOL0     C32911  10.482   8.712   0.837 -0.3927 -0.6448  0.0817
  239MOL0     C32912  10.438   8.860   0.862  1.2747  0.1756 -0.6174
  239MOL0     H32913  10.385   8.576   0.354  0.7782  0.3897  0.0435
  239MOL0     H32914  10.298   8.612   0.109  0.3425 -0.3131  0.1829
  239MOL0     H32915  10.202   9.002  -0.019  0.0123  0.7055 -3.1449
  239MOL0     H32916  10.038   8.978   0.035  0.7464  0.1562 -0.4498
  239MOL0     H32917   9.993   8.818  -0.160  0.4569 -0.2788 -1.2868
  239MOL0     H32918  10.006   8.997  -0.179 -1.5368 -0.3325  0.1328
  239MOL0     H32919  10.161   8.755  -0.283 -0.1850  0.0406  2.6384
  239MOL0     H32920  10.118   8.889  -0.370  0.4165  1.2595  0.9899
  239MOL0     H32921  10.337   8.925  -0.377 -1.1189  2.8218  0.2953
  239MOL0     H32922  10.311   9.016  -0.236  2.2852 -0.4110  2.0451
  239MOL0     H32923  10.353   8.735  -0.146 -4.5728  1.4805  1.9430
  239MOL0     H32924  10.381   8.895  -0.082 -0.9721  0.4481  0.0045
  239MOL0     H32925  10.546   8.768  -0.304 -0.0371 -2.9846  1.6615
  239MOL0     H32926  10.592   8.922  -0.217  0.7749 -0.3996 -0.2350
  239MOL0     H32927  10.551   8.642  -0.096  3.6489 -1.5275  1.8753
  239MOL0     H32928  10.618   8.773  -0.008  0.6102  4.4152 -0.6689
  239MOL0     H32929  10.784   8.614  -0.099 -0.5938 -1.2544 -2.6290
  239MOL0     H32930  10.742   8.664  -0.270 -0.2389 -0.9027  0.1659
  239MOL0     H32931  11.011   8.690  -0.036  0.7039  0.3342  1.6640
  239MOL0     H32932  11.213   8.833   0.002 -0.3344 -2.3138 -1.1212
  239MOL0     H32933  11.186   9.012   0.018  4.4877 -0.3096  0.6956
  239MOL0     H32934  11.269   8.883  -0.237  1.9657  2.1945 -2.7495
  239MOL0     H32935  11.250   9.058  -0.214 -1.0098  0.7364  1.8446
  239MOL0     H32936  11.451   8.880  -0.083 -3.0981 -1.3117 -1.0423
  239MOL0     H32937  11.495   8.988  -0.215  2.0733 -3.4614  0.1182
  239MOL0     H32938  11.418   9.185  -0.086 -0.8132 -0.9743 -1.8633
  239MOL0     H32939  11.390   9.072   0.047  0.2648 -0.1169  0.2320
  239MOL0     H32940  11.445   9.288   0.127  0.4039  0.6015 -2.2235
  239MOL0     H32941  11.509   9.556   0.199 -1.7207  0.7464  0.1018
  239MOL0     H32942  11.502   9.532   0.386 -3.9352  0.7543  0.6693
  239MOL0     H32943  11.401   9.456   0.274  1.5593 -1.8421  0.4893
  239MOL0     H32944  12.146   9.487   0.452  2.5199  1.4288  0.8476
  239MOL0     H32945  12.281   9.699   0.559  0.5428  0.4655 -0.8657
  239MOL0     H32946  12.125  10.083   0.458  0.4514  3.7430  0.1090
  239MOL0     H32947  12.087  10.106   0.625  1.1588  0.0314  1.6383
  239MOL0     H32948  12.377  10.083   0.516 -0.5721 -2.3564 -0.1031
  239MOL0     H32949  12.301  10.238   0.545  4.0339  0.4703  3.0295
  239MOL0     H32950  12.355  10.034   0.763  2.0310 -0.9232 -0.6234
  239MOL0     H32951  12.278  10.197   0.784  1.4864  0.7766 -0.6997
  239MOL0     H32952  12.554  10.115   0.679 -2.6236 -6.4607  4.2938
  239MOL0     H32953  12.536  10.176   0.833 -0.6385 -0.7490 -0.0979
  239MOL0     H32954  12.496  10.335   0.566 -0.0839  0.7650 -1.1834
  239MOL0     H32955  12.402  10.387   0.713  2.2142  0.5367  2.5475
  239MOL0     H32956  12.701  10.379   0.691  0.0048 -0.3812  2.4473
  239MOL0     H32957  12.604  10.405   0.841 -0.7094 -1.9772  0.2602
  239MOL0     H32958  12.501  10.621   0.747  1.0218 -0.6647  2.0703
  239MOL0     H32959  12.552  10.562   0.591  0.5678  0.0214  0.0195
  239MOL0     H32960  12.792  10.584   0.664 -0.6913 -1.1704  0.5735
  239MOL0     H32961  12.747  10.675   0.800 -1.5220  0.5012 -0.2012
  239MOL0     H32962  11.955   9.944   0.433 -1.0859 -1.1192 -1.3853
  239MOL0     H32963  11.837   9.732   0.334 -0.4102 -1.5140  0.2137
  239MOL0     H32964  11.914   9.259   0.277 -0.8635 -2.7940  1.6459
  239MOL0     H32965  11.841   9.127   0.062  2.2862  1.4427 -0.7816
  239MOL0     H32966  10.162   9.000   0.228  1.0850  0.9603  2.9093
  239MOL0     H32967  10.267   8.963   0.465 -0.2812  1.4978 -0.2382
  239MOL0     H32968  10.422   8.460   0.617 -2.5294  0.2348  1.1002
  239MOL0     H32969  10.590   8.345   0.761 -0.7938 -1.0475  0.6926
  239MOL0     H32970  10.623   8.272   1.058 -0.3688  2.8775  0.5449
  239MOL0     H32971  10.699   8.256   0.899 -0.2699  0.2354 -1.1977
  239MOL0     H32972  10.826   8.258   1.174 -0.0329  0.2228 -0.2866
  239MOL0     H32973  10.908   8.358   1.061 -0.4758  0.2579 -1.4934
  239MOL0     H32974  10.945   8.179   0.902  0.9948 -0.9950 -0.1937
  239MOL0     H32975  11.009   8.140   1.052  0.4477 -0.3919 -0.8782
  239MOL0     H32976  10.725   8.034   1.014  0.0187  1.2183 -0.6106
  239MOL0     H32977  10.851   7.996   1.132  1.6575  0.1707  0.2175
  239MOL0     H32978  10.934   7.713   0.831  2.6143  0.3341 -1.6857
  239MOL0     H32979  10.609   8.706   1.006  0.7078  1.3557 -1.5505
  239MOL0     H32980  10.349   8.862   0.925 -0.3049  0.6442 -2.7472
  239MOL0     H32981  10.511   8.915   0.922 -0.0005  0.4305  0.7253
  239MOL0     H32982  10.413   8.914   0.770 -0.5541  0.7640  0.1931
  240MOL0     O32983   6.510   6.698  11.044  0.0685 -0.9623  0.1183
  240MOL0     C32984   6.623   6.657  11.021  0.5008 -0.2558  1.0716
  240MOL0     O32985   6.661   6.638  10.883 -0.1159  0.0289 -0.4690
  240MOL0     C32986   6.774   6.570  10.855 -0.2557 -0.6451 -0.1720
  240MOL0     C32987   6.891   6.631  10.811 -0.0331  0.0367 -0.2980
  240MOL0     C32988   7.004   6.565  10.753  0.3455 -0.7157  0.4822
  240MOL0     C32989   7.003   6.424  10.735  0.2225 -0.0018 -1.3180
  240MOL0     O32990   7.108   6.356  10.673  0.4138 -0.1021 -0.3498
  240MOL0     C32991   7.095   6.219  10.666 -0.2472 -0.6722  0.2177
  240MOL0     C32992   7.024   6.181  10.538  0.0400 -0.2607 -0.2599
  240MOL0     C32993   7.099   6.219  10.411  1.2140  0.3941  0.0459
  240MOL0     C32994   7.047   6.158  10.282 -0.0398  0.6959  0.2713
  240MOL0     C32995   7.071   6.010  10.270 -0.8221 -0.2208  0.0327
  240MOL0     C32996   6.963   5.942  10.189  0.0614  0.1575  0.0930
  240MOL0     C32997   6.832   5.907  10.280  0.6688  0.0695  1.1408
  240MOL0     C32998   6.722   6.022  10.310  0.1660  0.4042  0.2641
  240MOL0     N32999   6.602   5.974  10.374 -0.4140  0.0617 -0.5136
  240MOL0     C33000   6.501   5.901  10.313 -0.3570  0.2813 -0.3552
  240MOL0     C33001   6.427   5.852  10.412  0.4933 -1.0967 -0.2834
  240MOL0     C33002   6.301   5.764  10.388 -0.0944  0.5107  0.4631
  240MOL0     C33003   6.282   5.669  10.506 -0.9097 -0.0752 -0.6035
  240MOL0     C33004   6.202   5.734  10.621  0.7328 -0.1603 -0.2944
  240MOL0     C33005   6.219   5.679  10.760 -0.4809 -0.4699  0.2658
  240MOL0     O33006   6.346   5.712  10.828 -0.3761  0.2686  0.6922
  240MOL0     C33007   6.369   5.667  10.958 -0.6065  0.0545  0.5370
  240MOL0     C33008   6.494   5.690  11.018 -1.0056  0.2380  0.6045
  240MOL0     C33009   6.523   5.654  11.152  0.5042  0.0253 -0.0407
  240MOL0     C33010   6.664   5.660  11.206 -0.0677 -0.9147  0.3865
  240MOL0     C33011   6.417   5.608  11.239  0.3818 -0.6217  0.2565
  240MOL0     C33012   6.426   5.587  11.381  0.1707  0.9128  0.0719
  240MOL0     O33013   6.429   5.451  11.418  0.1106  0.3311 -0.5009
  240MOL0     C33014   6.419   5.424  11.551 -0.2695 -0.1064  1.2638
  240MOL0     C33015   6.291   5.423  11.604 -0.0481  0.3589 -0.0588
  240MOL0     C33016   6.271   5.396  11.732 -0.2215  0.3407  0.5834
  240MOL0     C33017   6.372   5.358  11.820  0.1839 -0.0227  0.0989
  240MOL0     O33018   6.335   5.299  11.942 -0.0254  0.4038  0.1737
  240MOL0     C33019   6.240   5.376  12.015  0.2065 -0.5500  0.2127
  240MOL0     C33020   6.246   5.291  12.140 -1.2183 -0.0291  0.3032
  240MOL0     C33021   6.381   5.283  12.201 -0.1898 -0.2847  0.0906
  240MOL0     C33022   6.464   5.157  12.167 -1.1399  0.0464  0.7660
  240MOL0     C33023   6.464   5.069  12.287  0.6184 -0.0821 -0.6883
  240MOL0     C33024   6.501   4.927  12.258  0.6894  1.5739  0.2906
  240MOL0     C33025   6.504   4.845  12.392 -0.0389  0.0449  0.4013
  240MOL0     C33026   6.581   4.721  12.382 -1.0611 -0.4963 -0.3612
  240MOL0    Cl33027   6.754   4.760  12.417  0.0632 -0.1184 -0.3467
  240MOL0     C33028   6.502   5.363  11.766  0.4593  1.0642  0.1813
  240MOL0     C33029   6.526   5.392  11.632  0.5237 -0.3503  0.2287
  240MOL0     O33030   6.439   5.688  11.450 -0.1481 -0.1382  0.8445
  240MOL0     C33031   6.292   5.592  11.170 -0.9834 -0.9067 -0.3198
  240MOL0     C33032   6.272   5.618  11.037  0.6890  0.5339  0.3784
  240MOL0     N33033   6.477   5.909  10.533  0.5541  0.9458  0.0028
  240MOL0     N33034   6.593   5.969  10.510  0.1690 -1.0016 -0.0337
  240MOL0     C33035   6.886   6.364  10.790 -0.2893  0.6968 -0.0121
  240MOL0     C33036   6.776   6.430  10.836  0.3284 -0.1824 -0.2798
  240MOL0     C33037   6.703   6.650  11.132 -0.2089 -0.2511 -0.3305
  240MOL0     C33038   6.775   6.770  11.164  1.0172  0.2760  0.0099
  240MOL0     C33039   6.867   6.762  11.278 -0.4694  0.6607  0.6863
  240MOL0     C33040   6.885   6.647  11.348  0.4808  0.0250 -0.7365
  240MOL0     O33041   6.976   6.655  11.456  0.6386 -0.4626 -0.3252
  240MOL0     C33042   6.993   6.535  11.542  0.6980  0.2128  0.6975
  240MOL0     C33043   6.870   6.499  11.641  0.0258 -0.2609  0.6814
  240MOL0     C33044   6.875   6.614  11.746 -0.7456  0.5643  0.5866
  240MOL0     C33045   6.747   6.627  11.821  0.9628  0.0708 -0.4998
  240MOL0     C33046   6.742   6.709  11.941 -0.4336 -0.0652 -0.7758
  240MOL0     C33047   6.753   6.789  12.033  0.1761  0.7366 -0.2290
  240MOL0     C33048   6.811   6.532  11.312  0.0044 -0.7443 -0.5057
  240MOL0     C33049   6.718   6.536  11.212 -0.5241  0.8691  0.4634
  240MOL0     C33050   6.657   6.406  11.181  0.4634 -0.3435  0.4428
  240MOL0     H33051   6.888   6.739  10.824 -1.6868  0.1913 -1.6471
  240MOL0     H33052   7.095   6.615  10.720  0.2170 -1.1762 -0.6030
  240MOL0     H33053   7.052   6.173  10.755  2.3556  0.9320  2.4791
  240MOL0     H33054   7.193   6.172  10.657  0.6698  1.0772  0.6369
  240MOL0     H33055   7.013   6.074  10.555 -1.1543  0.2601  3.0898
  240MOL0     H33056   6.930   6.237  10.531  0.8261  1.6400  2.4849
  240MOL0     H33057   7.095   6.328  10.414 -3.8848  0.4343  1.8704
  240MOL0     H33058   7.201   6.182  10.418  0.3346 -2.0479  1.1843
  240MOL0     H33059   6.940   6.180  10.289 -0.1093  1.5807 -2.3728
  240MOL0     H33060   7.067   6.207  10.186 -2.5932  0.7214 -0.3104
  240MOL0     H33061   7.096   5.959  10.364  1.4213 -1.4934 -1.1821
  240MOL0     H33062   7.159   6.000  10.206 -0.9853  3.1086 -0.8768
  240MOL0     H33063   6.933   6.003  10.103  1.7590  0.8575 -0.0552
  240MOL0     H33064   7.004   5.848  10.151  3.8244 -0.0282  3.8238
  240MOL0     H33065   6.877   5.880  10.376  1.3606  0.4916  0.9441
  240MOL0     H33066   6.799   5.821  10.222  4.5677  0.7799 -2.7184
  240MOL0     H33067   6.764   6.099  10.376 -3.5063  1.1034  2.0328
  240MOL0     H33068   6.695   6.068  10.215 -0.5755  1.4190  0.9403
  240MOL0     H33069   6.483   5.881  10.208 -0.7617  0.0025 -0.2368
  240MOL0     H33070   6.320   5.705  10.298  0.8377 -0.5180  1.3113
  240MOL0     H33071   6.215   5.830  10.377 -0.9101 -0.3524  1.4654
  240MOL0     H33072   6.225   5.586  10.463 -2.0731  0.9118 -1.0356
  240MOL0     H33073   6.380   5.646  10.547 -1.7131 -1.3524  0.6955
  240MOL0     H33074   6.218   5.843  10.625 -1.5054  0.2136 -0.0766
  240MOL0     H33075   6.096   5.716  10.600  0.1398 -1.1867  3.0948
  240MOL0     H33076   6.133   5.711  10.819 -0.5508  1.3769 -0.7669
  240MOL0     H33077   6.214   5.570  10.755 -1.2413 -0.5383  1.9367
  240MOL0     H33078   6.571   5.730  10.953 -0.8800 -2.1950 -0.8371
  240MOL0     H33079   6.701   5.763  11.199  2.2893 -1.7554 -0.7423
  240MOL0     H33080   6.730   5.603  11.140 -0.8976  0.5379 -1.8046
  240MOL0     H33081   6.685   5.633  11.310  1.5108 -1.5362 -0.0574
  240MOL0     H33082   6.204   5.462  11.552  0.3695 -0.1384 -1.1578
  240MOL0     H33083   6.167   5.399  11.760 -0.5135 -2.5337  0.1279
  240MOL0     H33084   6.262   5.480  12.042 -0.6554 -0.4700  0.6330
  240MOL0     H33085   6.139   5.360  11.975  0.2224  0.3207 -0.1995
  240MOL0     H33086   6.186   5.333  12.222 -1.5258 -0.2586  0.1953
  240MOL0     H33087   6.206   5.193  12.114 -1.7230  0.7436 -2.0646
  240MOL0     H33088   6.372   5.304  12.308  3.0596 -0.0859  0.4231
  240MOL0     H33089   6.442   5.359  12.152 -1.9369  0.6145 -0.7841
  240MOL0     H33090   6.564   5.168  12.125 -1.0819 -2.3514  0.1452
  240MOL0     H33091   6.413   5.099  12.089 -1.0786  0.9849  0.0146
  240MOL0     H33092   6.526   5.112  12.367 -0.4833  0.4049 -0.0658
  240MOL0     H33093   6.359   5.072  12.320 -0.0151  1.0965 -2.5968
  240MOL0     H33094   6.600   4.920  12.211 -0.7611  0.2698 -2.8509
  240MOL0     H33095   6.428   4.876  12.195  0.5402  0.3678  1.3866
  240MOL0     H33096   6.399   4.821  12.407 -1.4132  3.7435 -2.0643
  240MOL0     H33097   6.546   4.915  12.465  1.0156  0.7059 -0.7881
  240MOL0     H33098   6.579   4.675  12.282 -2.8119 -2.5884  0.5450
  240MOL0     H33099   6.546   4.647  12.455 -2.8958 -1.1056 -1.7631
  240MOL0     H33100   6.585   5.336  11.831  2.5308  0.0070 -2.6927
  240MOL0     H33101   6.627   5.405  11.594  1.2457 -0.7338  1.9186
  240MOL0     H33102   6.208   5.566  11.233 -1.9853  0.7174 -0.9327
  240MOL0     H33103   6.168   5.598  11.013  0.2203  2.5486  0.6088
  240MOL0     H33104   6.879   6.256  10.776  0.1233  0.7541 -0.7035
  240MOL0     H33105   6.686   6.376  10.862  1.4229 -2.7296 -1.4345
  240MOL0     H33106   6.778   6.845  11.086 -2.9662 -1.8032 -2.4821
  240MOL0     H33107   6.941   6.841  11.289  1.8774 -1.4605  1.2219
  240MOL0     H33108   7.010   6.445  11.482  2.3091 -0.3808  1.9640
  240MOL0     H33109   7.085   6.543  11.601  0.9459 -0.8482  0.4854
  240MOL0     H33110   6.880   6.401  11.687  0.3465 -2.9190 -4.3563
  240MOL0     H33111   6.777   6.486  11.585  0.5900 -2.3439  0.1643
  240MOL0     H33112   6.959   6.592  11.813  1.6648 -0.0916 -2.4033
  240MOL0     H33113   6.887   6.709  11.694 -3.2148  0.2037 -0.7696
  240MOL0     H33114   6.712   6.526  11.847  0.9432 -0.8341 -3.6878
  240MOL0     H33115   6.668   6.670  11.759 -0.4321 -1.2107  0.3229
  240MOL0     H33116   6.785   6.830  12.126 -1.3082  2.4679 -0.4265
  240MOL0     H33117   6.829   6.444  11.373 -0.6090 -1.0375 -0.7444
  240MOL0     H33118   6.697   6.345  11.099 -1.0261 -0.4857 -0.2113
  240MOL0     H33119   6.658   6.342  11.270 -0.9085 -0.1999  0.5917
  240MOL0     H33120   6.550   6.416  11.160  0.5172 -2.7320 -1.4644
  241MOL0     O33121   9.487   4.198  10.858  0.3216 -0.8530  0.3795
  241MOL0     C33122   9.574   4.162  10.938  0.0762 -0.1312  0.5446
  241MOL0     O33123   9.699   4.219  10.946  0.2621 -0.1042  0.7817
  241MOL0     C33124   9.729   4.336  10.889  0.0227  0.4774  0.5835
  241MOL0     C33125   9.798   4.331  10.767 -0.4717 -0.0005  1.1865
  241MOL0     C33126   9.841   4.452  10.700  0.0459  1.4448  0.5261
  241MOL0     C33127   9.828   4.575  10.768 -0.1274 -0.0689 -0.1617
  241MOL0     O33128   9.889   4.694  10.717  1.1568  0.2440  0.1013
  241MOL0     C33129   9.964   4.760  10.823  0.8065 -0.3009 -0.0473
  241MOL0     C33130  10.113   4.772  10.798  0.2051  0.3514  0.2648
  241MOL0     C33131  10.143   4.896  10.707  0.8602  0.3223 -0.6342
  241MOL0     C33132  10.292   4.912  10.693 -0.6965 -0.0583 -0.2537
  241MOL0     C33133  10.336   5.022  10.597  0.8146  0.6665  1.0859
  241MOL0     C33134  10.316   5.171  10.640 -0.5510 -0.6317  0.7991
  241MOL0     C33135  10.359   5.259  10.516 -0.3781 -1.0059 -0.1083
  241MOL0     C33136  10.353   5.410  10.533 -0.4063 -0.8111 -0.0107
  241MOL0     N33137  10.212   5.462  10.528  0.4615 -0.7523  0.1668
  241MOL0     C33138  10.177   5.573  10.448  1.3324 -0.3878 -0.4870
  241MOL0     C33139  10.057   5.608  10.502 -0.4984 -0.2912 -0.2347
  241MOL0     C33140   9.962   5.722  10.477 -0.5095 -0.4994  0.0164
  241MOL0     C33141   9.831   5.666  10.419  0.1629 -0.2363 -0.1478
  241MOL0     C33142   9.714   5.756  10.450  1.9567 -0.5884 -0.7669
  241MOL0     C33143   9.572   5.697  10.421  0.3571 -0.1354  0.0477
  241MOL0     O33144   9.453   5.771  10.459 -0.3477  0.3752  1.1852
  241MOL0     C33145   9.457   5.907  10.427  0.0030 -0.0481  0.8042
  241MOL0     C33146   9.500   5.967  10.313 -1.5067 -1.1874  0.2824
  241MOL0     C33147   9.501   6.110  10.289 -0.6906 -0.4536 -0.8396
  241MOL0     C33148   9.602   6.157  10.187  0.0008  0.1740  0.5139
  241MOL0     C33149   9.434   6.190  10.380  0.0445  0.5706 -0.4683
  241MOL0     C33150   9.434   6.334  10.374  0.7305 -1.8043 -0.2389
  241MOL0     O33151   9.384   6.388  10.491 -0.0783 -0.7399 -0.0288
  241MOL0     C33152   9.386   6.525  10.520 -0.9595 -0.5121  0.3084
  241MOL0     C33153   9.341   6.571  10.646  0.8127  0.0439  0.3467
  241MOL0     C33154   9.340   6.710  10.689  0.9911  1.0930  0.9927
  241MOL0     C33155   9.375   6.805  10.596  0.6768 -0.3868  1.3480
  241MOL0     O33156   9.367   6.938  10.617 -0.3049  0.2517  0.8070
  241MOL0     C33157   9.244   6.986  10.673  0.0388 -0.6448  0.1350
  241MOL0     C33158   9.235   7.133  10.627 -0.2204  0.2929  0.3285
  241MOL0     C33159   9.289   7.231  10.733 -0.3739  0.5841  0.1044
  241MOL0     C33160   9.443   7.226  10.759 -0.6947  0.2333  1.1673
  241MOL0     C33161   9.478   7.325  10.873 -0.0336  0.8631 -0.5064
  241MOL0     C33162   9.613   7.357  10.896 -0.2332 -0.3921 -0.3437
  241MOL0     C33163   9.617   7.444  11.010  0.6853 -0.1658  0.1401
  241MOL0     C33164   9.758   7.507  11.024  0.1353  0.1506 -1.0960
  241MOL0    Cl33165   9.774   7.621  10.894  0.5005 -0.2684 -0.3605
  241MOL0     C33166   9.427   6.762  10.473  0.4446 -0.1088 -1.7724
  241MOL0     C33167   9.442   6.629  10.442 -0.0878 -0.2409  0.5874
  241MOL0     O33168   9.471   6.395  10.277  0.2750  0.8782  0.0181
  241MOL0     C33169   9.367   6.125  10.487  0.5924 -0.5562  1.4650
  241MOL0     C33170   9.383   5.994  10.516 -0.5262  0.1031 -0.3321
  241MOL0     N33171  10.026   5.522  10.610  0.8946  0.7007  0.1400
  241MOL0     N33172  10.119   5.437  10.628 -0.8361 -0.5541 -0.0766
  241MOL0     C33173   9.759   4.572  10.889 -0.4163 -0.6923  0.5651
  241MOL0     C33174   9.711   4.458  10.952 -0.0860  0.5637 -0.0667
  241MOL0     C33175   9.545   4.038  11.009 -0.1027  0.2767  0.0827
  241MOL0     C33176   9.660   3.970  11.068 -0.0810 -1.0024 -0.5597
  241MOL0     C33177   9.646   3.847  11.121 -0.5038  0.7694  0.5722
  241MOL0     C33178   9.527   3.780  11.127 -0.1205  0.2379  0.2259
  241MOL0     O33179   9.511   3.662  11.198  0.0092 -0.3524 -0.3167
  241MOL0     C33180   9.396   3.574  11.159 -0.2799 -0.0974 -0.2520
  241MOL0     C33181   9.398   3.452  11.250  0.4769 -0.1833 -0.4885
  241MOL0     C33182   9.297   3.350  11.202 -0.1085 -0.2519  0.0521
  241MOL0     C33183   9.315   3.210  11.257 -0.8130 -1.0900  0.1254
  241MOL0     C33184   9.203   3.124  11.237 -0.2903 -0.5842  0.8097
  241MOL0     C33185   9.120   3.051  11.213  0.0440  0.5822  0.2772
  241MOL0     C33186   9.413   3.841  11.075 -0.8207 -0.4447 -1.0315
  241MOL0     C33187   9.418   3.969  11.016  0.2934 -0.6699  0.1914
  241MOL0     C33188   9.296   4.033  10.953 -0.2121 -0.1203  0.3166
  241MOL0     H33189   9.820   4.230  10.735 -0.7813 -0.0430  1.1050
  241MOL0     H33190   9.888   4.451  10.603 -1.3146  2.5387 -0.1797
  241MOL0     H33191   9.948   4.725  10.926  2.9727  2.6215  1.4336
  241MOL0     H33192   9.920   4.860  10.829  0.7784 -0.1613 -1.9932
  241MOL0     H33193  10.176   4.766  10.888  2.9144 -2.1561 -1.6222
  241MOL0     H33194  10.148   4.692  10.732  0.6717  0.3199  0.5405
  241MOL0     H33195  10.112   4.885  10.603 -0.2445 -2.7938 -0.0956
  241MOL0     H33196  10.105   4.993  10.741  3.2289  1.1194  0.0138
  241MOL0     H33197  10.332   4.939  10.791 -0.2333 -3.4749  0.6184
  241MOL0     H33198  10.332   4.815  10.662  1.5361 -0.4751  3.3793
  241MOL0     H33199  10.287   5.010  10.500  0.9465 -1.3547  1.2323
  241MOL0     H33200  10.438   4.989  10.574  0.5892 -0.2613  1.3849
  241MOL0     H33201  10.210   5.190  10.655 -0.4701  1.9227 -1.1498
  241MOL0     H33202  10.378   5.206  10.724  3.8138 -2.1545 -1.4432
  241MOL0     H33203  10.295   5.239  10.429 -2.1280  0.9013  0.6616
  241MOL0     H33204  10.464   5.232  10.507 -0.3906 -2.0533  2.2179
  241MOL0     H33205  10.394   5.430  10.632  1.8937 -1.0560 -0.8512
  241MOL0     H33206  10.414   5.462  10.458 -0.7748  0.8377  0.7787
  241MOL0     H33207  10.236   5.626  10.374 -0.6480  3.4717  0.4481
  241MOL0     H33208  10.020   5.792  10.417  3.9779 -3.2896  0.6749
  241MOL0     H33209   9.946   5.770  10.574  1.1984 -2.6976  1.4789
  241MOL0     H33210   9.858   5.656  10.313  0.3541 -1.0548 -0.0266
  241MOL0     H33211   9.823   5.566  10.462  0.1607  1.0895  3.2626
  241MOL0     H33212   9.700   5.779  10.556 -2.5688 -0.8828 -1.0773
  241MOL0     H33213   9.722   5.853  10.400 -2.5815  1.2378  1.3983
  241MOL0     H33214   9.562   5.683  10.313 -0.7131  0.0326  0.1128
  241MOL0     H33215   9.566   5.599  10.470 -1.2848  0.7773  1.8621
  241MOL0     H33216   9.554   5.911  10.237 -0.1380  4.3449 -3.4144
  241MOL0     H33217   9.566   6.192  10.090  0.8538  1.5990  0.6831
  241MOL0     H33218   9.655   6.068  10.152 -0.7832 -0.0591 -0.1035
  241MOL0     H33219   9.675   6.225  10.232  0.6945  0.5045 -1.0625
  241MOL0     H33220   9.308   6.495  10.716  3.1877  0.6380  2.2455
  241MOL0     H33221   9.289   6.741  10.780 -2.8704  3.0930 -1.5332
  241MOL0     H33222   9.147   6.942  10.649  1.5252 -2.9008 -2.2673
  241MOL0     H33223   9.261   6.987  10.781  0.7421 -0.9226  0.0345
  241MOL0     H33224   9.291   7.154  10.536 -0.5543  2.0240  0.4958
  241MOL0     H33225   9.131   7.164  10.609 -0.2379 -0.3824 -0.8498
  241MOL0     H33226   9.230   7.220  10.825  0.2864  3.4960  0.9701
  241MOL0     H33227   9.272   7.330  10.691  0.2063  1.0195  0.8820
  241MOL0     H33228   9.488   7.257  10.664  1.3098 -0.8993  1.6767
  241MOL0     H33229   9.489   7.131  10.790 -1.7820  0.1138  2.4807
  241MOL0     H33230   9.423   7.416  10.850  1.3576  1.6751 -0.7149
  241MOL0     H33231   9.429   7.291  10.965  0.0699 -3.4061 -1.8090
  241MOL0     H33232   9.643   7.418  10.810  0.6218 -3.0396 -2.0311
  241MOL0     H33233   9.666   7.263  10.910 -1.5754 -1.5395 -2.4807
  241MOL0     H33234   9.591   7.388  11.101  0.9983 -0.4656  0.0444
  241MOL0     H33235   9.547   7.528  11.015  0.9977  0.0458  2.0040
  241MOL0     H33236   9.832   7.427  11.021  1.5944  1.2321  1.9929
  241MOL0     H33237   9.779   7.567  11.113  0.5766 -2.1203  0.4163
  241MOL0     H33238   9.460   6.839  10.404 -0.5027  0.4617 -1.6103
  241MOL0     H33239   9.487   6.611  10.345 -0.4900 -0.6845  0.4803
  241MOL0     H33240   9.322   6.177  10.572  1.5647  1.0579  1.0335
  241MOL0     H33241   9.349   5.959  10.613 -3.5789 -0.1355 -1.3684
  241MOL0     H33242   9.727   4.665  10.936  2.0854 -0.8584  2.8063
  241MOL0     H33243   9.660   4.453  11.048 -0.2165  0.9676 -0.1152
  241MOL0     H33244   9.760   4.013  11.062  0.5055 -2.3476 -0.9312
  241MOL0     H33245   9.728   3.798  11.173 -2.7221 -0.8764  2.7320
  241MOL0     H33246   9.303   3.627  11.184 -0.2145 -0.2345  0.2967
  241MOL0     H33247   9.387   3.552  11.052 -1.8184 -1.8200  0.1709
  241MOL0     H33248   9.378   3.486  11.352  0.5207 -0.1862 -0.4792
  241MOL0     H33249   9.501   3.416  11.241  0.1697 -0.8218 -1.6267
  241MOL0     H33250   9.193   3.380  11.219 -0.0243 -0.9391  2.0517
  241MOL0     H33251   9.319   3.343  11.096 -0.2760  3.8295 -0.4164
  241MOL0     H33252   9.344   3.220  11.362  1.5925  3.2612 -0.7165
  241MOL0     H33253   9.400   3.167  11.203 -0.3156  0.6558 -0.5650
  241MOL0     H33254   9.051   2.984  11.165  0.3949 -0.0085  0.5725
  241MOL0     H33255   9.321   3.787  11.057 -0.8149 -0.0172 -2.4580
  241MOL0     H33256   9.201   3.996  10.994 -0.3668  1.2085  1.2395
  241MOL0     H33257   9.310   4.138  10.981  1.0977 -0.3251  0.5063
  241MOL0     H33258   9.286   4.024  10.844  1.4095  0.4029  0.0972
  242MOL0     O33259  10.821  10.547   0.813  0.4665  0.1680  0.1144
  242MOL0     C33260  10.901  10.640   0.846  0.3914  1.4617 -0.4764
  242MOL0     O33261  10.934  10.674   0.976 -0.2078  0.1407 -0.2034
  242MOL0     C33262  10.871  10.620   1.088  1.4577 -0.5961 -0.1629
  242MOL0     C33263  10.797  10.506   1.102 -0.3414 -0.7992  0.5549
  242MOL0     C33264  10.760  10.460   1.231 -0.1563  0.4470  0.2365
  242MOL0     C33265  10.787  10.523   1.345 -0.1360  0.0436 -0.3780
  242MOL0     O33266  10.750  10.472   1.470 -0.2042 -0.3090  0.3068
  242MOL0     C33267  10.795  10.538   1.596  0.1496 -0.4140 -0.0819
  242MOL0     C33268  10.774  10.448   1.713 -0.0882 -0.2762 -0.6911
  242MOL0     C33269  10.628  10.392   1.703 -0.1070  1.3315 -0.8717
  242MOL0     C33270  10.594  10.328   1.835  0.2900  0.2707  0.1590
  242MOL0     C33271  10.439  10.303   1.844 -0.2005 -0.5762  0.8355
  242MOL0     C33272  10.396  10.272   1.992  0.2774 -0.1853 -0.2231
  242MOL0     C33273  10.265  10.200   2.006  0.7416  1.0974  0.8109
  242MOL0     C33274  10.239  10.075   1.917  0.3148  0.7434  0.8639
  242MOL0     N33275  10.142   9.978   1.988 -0.6537 -0.1063  0.7686
  242MOL0     C33276  10.179   9.880   2.066  0.5952 -0.3217  0.9340
  242MOL0     C33277  10.069   9.812   2.108 -0.6189  0.2299 -0.2068
  242MOL0     C33278  10.077   9.675   2.178  0.0503  0.0998  0.5970
  242MOL0     C33279  10.086   9.560   2.071 -0.0549  0.4770  0.4582
  242MOL0     C33280  10.106   9.425   2.133 -0.6086  0.4117 -0.2271
  242MOL0     C33281  10.220   9.406   2.244  0.6538 -0.5191  0.6914
  242MOL0     O33282  10.339   9.451   2.189 -0.2523 -0.3888  0.0980
  242MOL0     C33283  10.450   9.386   2.225  0.4724  0.1279  0.2205
  242MOL0     C33284  10.551   9.368   2.128  0.1566  0.3710  0.0432
  242MOL0     C33285  10.667   9.300   2.159 -0.1890 -0.2699  0.2079
  242MOL0     C33286  10.770   9.279   2.059  0.0866  0.4200  0.4662
  242MOL0     C33287  10.690   9.249   2.290  0.0416  0.1037 -0.2232
  242MOL0     C33288  10.815   9.189   2.342 -0.2068  0.6460  0.4933
  242MOL0     O33289  10.846   9.200   2.474 -0.7209  0.1879  0.7846
  242MOL0     C33290  10.958   9.146   2.528  0.0748 -0.0436  0.6841
  242MOL0     C33291  10.941   9.119   2.662 -0.1388 -1.0708  0.6446
  242MOL0     C33292  11.053   9.114   2.737 -0.3637  0.1610 -0.9887
  242MOL0     C33293  11.184   9.139   2.689 -0.2035 -0.3701 -0.1536
  242MOL0     O33294  11.291   9.153   2.776 -0.7208 -0.5049 -0.6713
  242MOL0     C33295  11.409   9.087   2.730  0.0891 -0.3560  0.6307
  242MOL0     C33296  11.526   9.144   2.799 -0.9939  0.4038  0.1304
  242MOL0     C33297  11.556   9.287   2.779 -0.1771  0.2384 -0.5640
  242MOL0     C33298  11.706   9.308   2.807 -0.5540  0.0661  0.3724
  242MOL0     C33299  11.759   9.437   2.738 -0.7016  0.7431  0.4887
  242MOL0     C33300  11.736   9.551   2.843  0.0674 -1.3347  1.1762
  242MOL0     C33301  11.726   9.692   2.773  0.5800  0.3484  0.3989
  242MOL0     C33302  11.610   9.703   2.679  0.6395 -0.6440  0.0431
  242MOL0    Cl33303  11.587   9.879   2.648  0.1361  0.1538 -0.0223
  242MOL0     C33304  11.194   9.181   2.559 -0.5013  1.2475  1.2159
  242MOL0     C33305  11.081   9.180   2.476  0.8910  0.0151  0.1490
  242MOL0     O33306  10.883   9.119   2.261 -0.4068  0.1367  0.8692
  242MOL0     C33307  10.589   9.262   2.378 -0.3722  0.7846  0.5350
  242MOL0     C33308  10.469   9.330   2.353 -0.2412  0.2401  0.9166
  242MOL0     N33309   9.963   9.892   2.058  0.3811  0.1600 -0.5456
  242MOL0     N33310  10.009   9.988   1.983 -0.2729  0.0660 -0.1281
  242MOL0     C33311  10.846  10.653   1.328 -0.0810 -1.5703 -0.4445
  242MOL0     C33312  10.895  10.693   1.206 -0.8769 -1.2793  1.2069
  242MOL0     C33313  10.970  10.714   0.741  0.6221  0.1171  0.1130
  242MOL0     C33314  11.040  10.832   0.765 -0.7344 -1.1052  0.6416
  242MOL0     C33315  11.117  10.902   0.665 -0.1725  0.0997 -0.8661
  242MOL0     C33316  11.098  10.866   0.532  0.2618  0.3830 -0.5426
  242MOL0     O33317  11.165  10.950   0.449 -0.1721 -0.3073  0.4404
  242MOL0     C33318  11.161  10.932   0.307 -0.4778 -0.8280  0.0423
  242MOL0     C33319  11.210  11.056   0.235  0.8273  0.2629  0.7587
  242MOL0     C33320  11.106  11.172   0.222 -1.1939  1.0265  0.5656
  242MOL0     C33321  11.083  11.249   0.350  0.2240  1.1095 -0.5544
  242MOL0     C33322  11.199  11.292   0.424  0.8609 -0.0359 -0.2457
  242MOL0     C33323  11.302  11.331   0.481 -0.5881 -0.3280 -0.5517
  242MOL0     C33324  11.033  10.750   0.504  0.2358  0.3933 -1.5587
  242MOL0     C33325  10.972  10.674   0.605  1.0100  0.5728  1.0050
  242MOL0     C33326  10.915  10.541   0.548 -0.5750 -0.4979 -0.7359
  242MOL0     H33327  10.766  10.445   1.017 -1.1536  0.8751 -0.3898
  242MOL0     H33328  10.712  10.362   1.233  2.3175 -0.9253 -1.8270
  242MOL0     H33329  10.724  10.621   1.603  1.0865  0.3486  0.6098
  242MOL0     H33330  10.894  10.584   1.588 -1.0979  2.3627 -0.7232
  242MOL0     H33331  10.854  10.372   1.713  1.7742  1.5052  1.7666
  242MOL0     H33332  10.780  10.500   1.809  1.1255  2.2936 -2.0593
  242MOL0     H33333  10.559  10.469   1.669  1.1389  1.0337 -4.4563
  242MOL0     H33334  10.602  10.319   1.626 -4.5689  3.6410 -1.9222
  242MOL0     H33335  10.648  10.238   1.865 -1.2228  0.0059  2.2916
  242MOL0     H33336  10.606  10.398   1.918 -0.1417 -1.2156  1.5380
  242MOL0     H33337  10.406  10.229   1.769 -1.4533  2.3013 -1.6657
  242MOL0     H33338  10.379  10.391   1.818  0.5741 -0.8696 -2.4077
  242MOL0     H33339  10.479  10.210   2.026  0.8572 -0.9096 -2.6857
  242MOL0     H33340  10.398  10.371   2.037 -1.5143 -0.2713  0.1406
  242MOL0     H33341  10.189  10.277   1.990 -2.8981 -2.4478 -0.5758
  242MOL0     H33342  10.259  10.165   2.109  1.1018 -3.0183 -0.4091
  242MOL0     H33343  10.195  10.113   1.824 -0.2015  1.2475  1.3124
  242MOL0     H33344  10.336  10.027   1.900  1.3667  3.2727 -1.0230
  242MOL0     H33345  10.284   9.857   2.079  1.3805  0.7124 -2.5217
  242MOL0     H33346   9.985   9.664   2.237  0.9609 -1.5298  1.8030
  242MOL0     H33347  10.162   9.667   2.247  1.7920 -4.6126 -1.7086
  242MOL0     H33348   9.993   9.537   2.017 -0.3697 -1.1093  1.6246
  242MOL0     H33349  10.171   9.580   2.005  0.1055 -4.8387 -1.4265
  242MOL0     H33350  10.012   9.379   2.165 -0.5778 -1.0414 -2.0268
  242MOL0     H33351  10.140   9.356   2.055  2.4800 -0.0992  1.4059
  242MOL0     H33352  10.175   9.462   2.327 -1.5265 -0.8836 -0.1838
  242MOL0     H33353  10.227   9.297   2.250 -2.6597 -0.8035  1.0053
  242MOL0     H33354  10.537   9.402   2.026  0.8437  2.1386  0.5113
  242MOL0     H33355  10.758   9.349   1.976  1.5431 -0.7613 -0.7849
  242MOL0     H33356  10.784   9.173   2.036 -1.1864  0.2711  0.2807
  242MOL0     H33357  10.864   9.312   2.104  0.2728  1.3191 -0.5527
  242MOL0     H33358  10.837   9.138   2.686 -0.3367  0.8565 -1.3980
  242MOL0     H33359  11.045   9.103   2.844 -0.4031 -1.7784 -1.1424
  242MOL0     H33360  11.386   8.984   2.760  1.2879 -0.3830  1.5229
  242MOL0     H33361  11.427   9.093   2.622  0.8683 -2.4393  0.5988
  242MOL0     H33362  11.505   9.116   2.902  1.6288 -2.0926  0.0958
  242MOL0     H33363  11.614   9.086   2.770 -0.8205 -0.9555  3.0993
  242MOL0     H33364  11.497   9.343   2.852  1.2963 -1.0175  1.7135
  242MOL0     H33365  11.528   9.314   2.677 -0.0642  1.2223 -0.3423
  242MOL0     H33366  11.768   9.229   2.763 -4.1967 -1.9236 -1.6873
  242MOL0     H33367  11.722   9.323   2.915  0.1829  1.9583  0.0292
  242MOL0     H33368  11.864   9.432   2.707 -0.4041 -1.0141  1.6331
  242MOL0     H33369  11.694   9.461   2.654 -2.5708  1.0165  1.9438
  242MOL0     H33370  11.815   9.542   2.918  0.3336 -1.9699  0.8268
  242MOL0     H33371  11.640   9.534   2.894 -3.1626  2.2085 -2.9899
  242MOL0     H33372  11.815   9.704   2.710  0.6601 -5.0601 -1.0851
  242MOL0     H33373  11.720   9.775   2.844  1.7800  2.8243 -2.2077
  242MOL0     H33374  11.518   9.663   2.723  1.3586  0.2102  2.4872
  242MOL0     H33375  11.632   9.655   2.583 -0.3991 -2.3830  0.6269
  242MOL0     H33376  11.284   9.235   2.531  2.1478 -2.2040  2.3639
  242MOL0     H33377  11.091   9.231   2.381  1.9311  2.1818  1.3458
  242MOL0     H33378  10.603   9.236   2.482 -0.6942  0.4915  0.5075
  242MOL0     H33379  10.397   9.355   2.430 -1.2980 -0.8462  0.3030
  242MOL0     H33380  10.862  10.720   1.412 -1.8031 -2.4512  0.6542
  242MOL0     H33381  10.965  10.775   1.197  2.0197 -3.7609 -1.0476
  242MOL0     H33382  11.047  10.880   0.862 -1.2107 -1.8752  1.0702
  242MOL0     H33383  11.161  10.995   0.702  1.1502 -1.4198  1.6749
  242MOL0     H33384  11.228  10.853   0.272 -0.0713  0.3488 -2.0201
  242MOL0     H33385  11.065  10.894   0.272  0.7479 -1.3913 -3.0217
  242MOL0     H33386  11.244  11.030   0.135 -0.4493  0.3880  0.2800
  242MOL0     H33387  11.295  11.104   0.285  1.0262  0.7046 -0.0043
  242MOL0     H33388  11.145  11.242   0.147  1.3372  0.7250  1.5044
  242MOL0     H33389  11.012  11.130   0.185  0.1505 -1.6512 -0.0343
  242MOL0     H33390  11.030  11.187   0.422  2.6952 -1.3595 -0.6795
  242MOL0     H33391  11.026  11.331   0.305  0.4270 -0.2394 -3.5234
  242MOL0     H33392  11.390  11.369   0.529 -1.1840  0.6222 -0.1837
  242MOL0     H33393  11.030  10.718   0.400 -1.8154 -1.1871 -1.0816
  242MOL0     H33394  10.909  10.471   0.632  0.2679  2.7412  2.2556
  242MOL0     H33395  10.817  10.547   0.501 -0.2139  2.9669 -1.2803
  242MOL0     H33396  10.989  10.494   0.481 -1.7797  0.1265 -2.5794
  243MOL0     O33397   3.656  10.898   0.746 -0.3105 -0.0594 -0.0964
  243MOL0     C33398   3.577  10.951   0.812  0.1634  0.0751 -0.1254
  243MOL0     O33399   3.469  11.010   0.770 -0.2609  1.4874  0.5614
  243MOL0     C33400   3.468  11.044   0.639  0.6712 -0.6223  0.1039
  243MOL0     C33401   3.475  11.180   0.612  0.0405 -0.0332  0.2334
  243MOL0     C33402   3.468  11.227   0.483  0.3175 -0.7583  1.5898
  243MOL0     C33403   3.445  11.141   0.376  1.0380  0.7134 -0.7449
  243MOL0     O33404   3.468  11.179   0.247 -0.7117  0.4320 -0.3590
  243MOL0     C33405   3.403  11.295   0.190 -0.1001  0.8524  0.3398
  243MOL0     C33406   3.487  11.350   0.073 -0.3332 -0.3447 -0.0983
  243MOL0     C33407   3.503  11.255  -0.046  0.6913  0.6769  0.4231
  243MOL0     C33408   3.372  11.264  -0.136 -0.0185 -0.1773 -0.0741
  243MOL0     C33409   3.374  11.148  -0.240  0.1262  0.5057 -0.5312
  243MOL0     C33410   3.262  11.159  -0.345 -0.2840 -0.3176  0.4572
  243MOL0     C33411   3.219  11.029  -0.404  0.1074 -0.6449  1.0484
  243MOL0     C33412   3.158  10.936  -0.296 -0.5712  0.0709  0.2511
  243MOL0     N33413   3.051  10.861  -0.361  0.8900 -0.1538 -0.0984
  243MOL0     C33414   2.918  10.896  -0.356 -1.1527 -0.2147 -0.5627
  243MOL0     C33415   2.858  10.814  -0.452  0.2415 -0.4655  0.3596
  243MOL0     C33416   2.714  10.818  -0.452  0.6812  0.2752 -0.0966
  243MOL0     C33417   2.647  10.852  -0.594 -0.2085  0.1704 -0.2237
  243MOL0     C33418   2.501  10.897  -0.581  0.5827  0.6538 -0.7584
  243MOL0     C33419   2.383  10.790  -0.545  0.0642  0.4023  0.1283
  243MOL0     O33420   2.260  10.853  -0.566 -0.0296 -0.4312  0.4793
  243MOL0     C33421   2.204  10.860  -0.696  0.8695 -0.4615 -0.3863
  243MOL0     C33422   2.069  10.903  -0.699  0.1267 -0.2476  0.6635
  243MOL0     C33423   1.988  10.891  -0.808  0.9031  0.3867 -0.3715
  243MOL0     C33424   1.845  10.955  -0.794  0.0613 -0.3161 -0.2298
  243MOL0     C33425   2.034  10.828  -0.926 -0.4119 -0.0922 -1.2386
  243MOL0     C33426   1.954  10.808  -1.049  0.2583 -0.4362  0.2299
  243MOL0     O33427   1.966  10.685  -1.112  0.4252 -1.3178  0.1502
  243MOL0     C33428   1.951  10.677  -1.249 -0.3776 -0.0601  0.0476
  243MOL0     C33429   2.006  10.773  -1.337  0.0906  0.0880 -0.6108
  243MOL0     C33430   1.994  10.771  -1.466 -0.3087 -1.3038 -0.0943
  243MOL0     C33431   1.900  10.687  -1.526  0.0780 -0.2312  0.8400
  243MOL0     O33432   1.869  10.673  -1.656  0.3288 -0.2665 -0.3082
  243MOL0     C33433   1.984  10.671  -1.740  0.0080  0.0039 -0.0822
  243MOL0     C33434   1.960  10.661  -1.896 -0.0159  0.1010 -0.0940
  243MOL0     C33435   1.865  10.547  -1.929 -0.0003  0.1738  0.1107
  243MOL0     C33436   1.921  10.413  -1.880 -0.2803  0.0969  0.4769
  243MOL0     C33437   1.832  10.292  -1.936  0.1751 -0.3784  0.7934
  243MOL0     C33438   1.896  10.166  -1.880 -0.3821  0.7733 -0.6023
  243MOL0     C33439   1.871  10.039  -1.970 -0.0892  0.6311 -1.0303
  243MOL0     C33440   1.734  10.022  -2.040 -0.6818 -1.0593 -0.5491
  243MOL0    Cl33441   1.743   9.898  -2.173  0.1370  0.7661  0.0697
  243MOL0     C33442   1.847  10.574  -1.449 -0.1528 -0.6939  0.4673
  243MOL0     C33443   1.874  10.576  -1.307 -1.5417 -0.8231  0.4022
  243MOL0     O33444   1.872  10.895  -1.079  0.1754 -0.2645  0.3635
  243MOL0     C33445   2.170  10.793  -0.923  0.2747 -1.0611  0.4913
  243MOL0     C33446   2.258  10.804  -0.810  0.4074 -0.5009 -0.2971
  243MOL0     N33447   2.957  10.745  -0.519  0.3498  0.0275  0.0634
  243MOL0     N33448   3.070  10.767  -0.450 -0.1835 -0.5711  0.6967
  243MOL0     C33449   3.421  11.008   0.400  0.2562  0.9625 -0.5048
  243MOL0     C33450   3.429  10.959   0.533 -0.2437  0.6521  0.2997
  243MOL0     C33451   3.582  10.919   0.960 -0.3190 -0.3943  0.1802
  243MOL0     C33452   3.619  10.789   0.995 -1.2281 -0.2393  0.3759
  243MOL0     C33453   3.647  10.770   1.135  0.2902  0.8820  0.2549
  243MOL0     C33454   3.640  10.870   1.230 -0.0152 -0.4417 -0.5522
  243MOL0     O33455   3.675  10.855   1.367  0.7712 -0.8904  0.0239
  243MOL0     C33456   3.780  10.756   1.394  0.9812  0.2894 -0.7121
  243MOL0     C33457   3.919  10.802   1.364 -1.3650  0.1454 -0.1007
  243MOL0     C33458   4.037  10.717   1.415  0.5640  0.4604 -1.0061
  243MOL0     C33459   4.171  10.724   1.353 -0.0927  0.1749 -0.5074
  243MOL0     C33460   4.285  10.661   1.417  0.6779  0.2446  0.0090
  243MOL0     C33461   4.371  10.598   1.475 -0.0287  0.2861  0.8837
  243MOL0     C33462   3.598  10.996   1.187 -0.7441  0.4446  0.8396
  243MOL0     C33463   3.562  11.021   1.050  0.1640 -1.0035 -0.5548
  243MOL0     C33464   3.503  11.155   1.016  0.4501 -0.0726 -0.6963
  243MOL0     H33465   3.516  11.240   0.692  1.7652  0.5216 -1.0121
  243MOL0     H33466   3.491  11.331   0.461 -0.7389 -0.8848 -0.2119
  243MOL0     H33467   3.396  11.368   0.270 -3.0494  0.3160  0.6778
  243MOL0     H33468   3.297  11.285   0.166 -0.4959 -0.5711  2.4819
  243MOL0     H33469   3.450  11.447   0.037  0.3108 -0.6307 -1.5768
  243MOL0     H33470   3.589  11.358   0.112  0.2019 -0.0484 -1.5129
  243MOL0     H33471   3.587  11.293  -0.105  0.2995  1.6445  0.4692
  243MOL0     H33472   3.526  11.153  -0.015  2.1503  0.4078 -1.3947
  243MOL0     H33473   3.280  11.262  -0.077  2.1809  2.5055  3.8841
  243MOL0     H33474   3.384  11.355  -0.196 -2.6888 -1.2980 -2.5611
  243MOL0     H33475   3.350  11.059  -0.181 -1.5078  2.2065  1.5181
  243MOL0     H33476   3.469  11.141  -0.294  0.9563 -3.3249  1.1188
  243MOL0     H33477   3.173  11.208  -0.304 -0.0392  0.6280 -0.1007
  243MOL0     H33478   3.301  11.226  -0.423 -0.0834 -0.7659  0.1692
  243MOL0     H33479   3.308  10.990  -0.453 -1.7029 -1.9519 -1.4060
  243MOL0     H33480   3.140  11.067  -0.469  1.3868  2.0246  0.9158
  243MOL0     H33481   3.225  10.859  -0.257 -0.9670  0.0479  0.9000
  243MOL0     H33482   3.116  10.993  -0.213  3.6196 -3.6754  5.6395
  243MOL0     H33483   2.873  10.969  -0.290  1.6967  0.5473  0.6645
  243MOL0     H33484   2.688  10.884  -0.369  2.0845 -1.8529  2.1677
  243MOL0     H33485   2.680  10.717  -0.428 -2.1462  1.1356 -0.1007
  243MOL0     H33486   2.711  10.935  -0.623  1.0952 -1.2072 -1.4594
  243MOL0     H33487   2.659  10.774  -0.670 -0.8741 -0.3293  0.1725
  243MOL0     H33488   2.494  10.981  -0.512  0.6330  0.7473 -0.8655
  243MOL0     H33489   2.450  10.935  -0.670  0.1207 -3.3045 -2.4246
  243MOL0     H33490   2.402  10.711  -0.619 -1.7120 -0.0752  0.1427
  243MOL0     H33491   2.408  10.753  -0.445 -0.2859 -1.7914 -0.5259
  243MOL0     H33492   2.022  10.959  -0.619 -0.8453 -0.4610  0.2548
  243MOL0     H33493   1.809  10.956  -0.691 -0.7827 -0.0146 -0.5256
  243MOL0     H33494   1.766  10.895  -0.839 -1.6549  1.7501 -0.1031
  243MOL0     H33495   1.852  11.056  -0.834  0.3779 -0.9386 -1.8021
  243MOL0     H33496   2.064  10.842  -1.277 -0.1495 -1.9381  2.2167
  243MOL0     H33497   2.018  10.856  -1.530 -1.2546  0.8819  2.3099
  243MOL0     H33498   2.045  10.758  -1.716  1.3031 -1.0207  0.4819
  243MOL0     H33499   2.054  10.590  -1.716  3.5049  2.8583  0.2537
  243MOL0     H33500   1.911  10.755  -1.921 -1.2656 -0.2127  0.9967
  243MOL0     H33501   2.052  10.645  -1.953  0.9767 -3.9591  2.1816
  243MOL0     H33502   1.866  10.553  -2.039  2.0607 -2.8726 -0.1683
  243MOL0     H33503   1.765  10.574  -1.893 -1.4149 -0.7299 -2.8177
  243MOL0     H33504   1.897  10.416  -1.773 -1.0443  1.1338  0.2949
  243MOL0     H33505   2.027  10.405  -1.905 -0.5553  0.4729 -0.9139
  243MOL0     H33506   1.728  10.296  -1.904 -0.0720  1.9948 -0.0856
  243MOL0     H33507   1.846  10.298  -2.044  2.6358  0.7569  1.0897
  243MOL0     H33508   1.858  10.157  -1.778  1.2646 -0.7084 -0.0803
  243MOL0     H33509   2.004  10.171  -1.867 -0.3054 -0.3399 -0.7092
  243MOL0     H33510   1.880   9.957  -1.898  3.4546  2.3749  0.7913
  243MOL0     H33511   1.946  10.014  -2.046 -0.2703 -3.5861 -0.0451
  243MOL0     H33512   1.695  10.121  -2.066  1.1275  0.4444  1.9504
  243MOL0     H33513   1.664   9.997  -1.960 -1.4305  0.8691 -0.5455
  243MOL0     H33514   1.782  10.495  -1.486 -0.3955 -0.1532 -0.2951
  243MOL0     H33515   1.829  10.505  -1.238  0.7494 -0.9248  1.8820
  243MOL0     H33516   2.207  10.749  -1.015  2.7585  0.8768  0.4629
  243MOL0     H33517   2.362  10.775  -0.803  0.3582 -1.1577 -1.9360
  243MOL0     H33518   3.396  10.935   0.324 -0.2937  1.2266 -0.5875
  243MOL0     H33519   3.407  10.854   0.547  0.0405  0.3742 -1.1627
  243MOL0     H33520   3.631  10.714   0.917 -3.2337 -1.4285  1.1471
  243MOL0     H33521   3.655  10.669   1.174  0.1131  0.8597  0.2343
  243MOL0     H33522   3.766  10.722   1.497  2.0543  1.5669 -0.1137
  243MOL0     H33523   3.770  10.659   1.344  2.8299 -0.7801  0.8540
  243MOL0     H33524   3.935  10.905   1.398  2.6530  0.2279 -1.6212
  243MOL0     H33525   3.935  10.805   1.256 -1.1953  1.9296 -0.0637
  243MOL0     H33526   4.060  10.745   1.518  3.6529 -4.2318 -0.0702
  243MOL0     H33527   4.001  10.614   1.426 -2.4342  1.4957  0.0131
  243MOL0     H33528   4.192  10.831   1.355  1.2122  0.1238  4.9788
  243MOL0     H33529   4.162  10.696   1.248  2.8404  2.2129 -1.4212
  243MOL0     H33530   4.442  10.546   1.537 -2.8670 -2.2310  2.2696
  243MOL0     H33531   3.600  11.063   1.272  2.6608  0.5292  0.8365
  243MOL0     H33532   3.480  11.216   1.105  3.1709 -1.5179  1.1445
  243MOL0     H33533   3.578  11.199   0.951 -1.7409  0.9016 -2.7154
  243MOL0     H33534   3.413  11.139   0.956  2.3616 -0.2780 -3.6544
  244MOL0     O33535   6.822   3.034   8.536  0.9717  0.2043 -0.8904
  244MOL0     C33536   6.840   3.128   8.610 -0.7668 -0.2880  0.4292
  244MOL0     O33537   6.786   3.149   8.730 -0.4227 -1.0229  0.0588
  244MOL0     C33538   6.721   3.043   8.784 -0.9054  0.4468 -0.8974
  244MOL0     C33539   6.771   2.959   8.887  0.2160 -0.1393  0.1902
  244MOL0     C33540   6.683   2.858   8.941  0.7548  0.8370 -0.5030
  244MOL0     C33541   6.557   2.838   8.903  0.1376 -0.0029  0.1771
  244MOL0     O33542   6.477   2.740   8.963 -0.0073  0.6340  0.1584
  244MOL0     C33543   6.437   2.748   9.105 -0.5086  0.0448  0.0049
  244MOL0     C33544   6.349   2.633   9.136 -0.2548 -0.7622 -0.3181
  244MOL0     C33545   6.433   2.504   9.140  0.3167 -0.0803  0.1680
  244MOL0     C33546   6.549   2.517   9.237 -0.2429  1.2899  0.4621
  244MOL0     C33547   6.631   2.384   9.253  0.8127  0.2663  0.3208
  244MOL0     C33548   6.562   2.269   9.328 -0.2564  0.6891  0.0664
  244MOL0     C33549   6.531   2.303   9.478  0.6913 -0.4079  0.3128
  244MOL0     C33550   6.461   2.190   9.542 -0.2901  1.0590  0.0824
  244MOL0     N33551   6.410   2.231   9.680  0.3661  0.2058  0.0643
  244MOL0     C33552   6.484   2.208   9.789  0.3155  0.7510 -0.7792
  244MOL0     C33553   6.396   2.238   9.887  0.3633 -0.1665 -0.5254
  244MOL0     C33554   6.414   2.233  10.040 -0.5988  0.0512 -0.2704
  244MOL0     C33555   6.299   2.171  10.115 -0.2476  0.3881 -0.7326
  244MOL0     C33556   6.325   2.150  10.263 -0.3826 -0.1016  0.1690
  244MOL0     C33557   6.227   2.055  10.336  0.0598 -0.6887 -0.8667
  244MOL0     O33558   6.255   2.065  10.473 -0.5627  0.5072 -0.3754
  244MOL0     C33559   6.178   1.999  10.560 -0.3519 -0.0496 -0.8940
  244MOL0     C33560   6.054   1.944  10.545  0.7583 -0.2101 -0.1917
  244MOL0     C33561   5.981   1.888  10.651  0.1003  0.1721 -0.4803
  244MOL0     C33562   5.850   1.817  10.625 -0.5031 -0.6880 -0.5019
  244MOL0     C33563   6.033   1.897  10.782  0.8086 -0.7499 -0.3069
  244MOL0     C33564   5.960   1.866  10.912 -0.2373 -0.2095 -0.4943
  244MOL0     O33565   5.828   1.876  10.914  0.4638 -0.1513  0.2447
  244MOL0     C33566   5.758   1.877  11.033  0.2772 -1.0594  0.4531
  244MOL0     C33567   5.786   1.961  11.140 -0.2070  0.2181 -0.1234
  244MOL0     C33568   5.698   1.980  11.248  0.0682  0.2870  0.1206
  244MOL0     C33569   5.581   1.903  11.255  0.6428 -0.3501  0.1694
  244MOL0     O33570   5.505   1.931  11.361  0.2197  0.6402 -0.5503
  244MOL0     C33571   5.393   1.854  11.381  1.2899  0.3995 -0.2213
  244MOL0     C33572   5.331   1.912  11.505 -0.4910  0.1878  0.4678
  244MOL0     C33573   5.336   2.061  11.507  0.2547 -0.9824 -0.4411
  244MOL0     C33574   5.243   2.123  11.615 -0.4704  0.2655 -0.6967
  244MOL0     C33575   5.325   2.163  11.737 -0.9104 -0.0064  0.3488
  244MOL0     C33576   5.247   2.274  11.831  0.3146  1.0835  0.1829
  244MOL0     C33577   5.126   2.211  11.891 -0.3857  0.0438 -0.2159
  244MOL0     C33578   5.063   2.302  12.000  0.6280  0.3512 -0.2636
  244MOL0    Cl33579   5.133   2.296  12.167  0.1697 -0.2835  0.3150
  244MOL0     C33580   5.557   1.810  11.148  0.0083 -0.7705 -0.1808
  244MOL0     C33581   5.648   1.799  11.044 -0.7527 -1.3458 -0.0137
  244MOL0     O33582   6.034   1.848  11.005  0.0954 -0.1611 -0.7503
  244MOL0     C33583   6.161   1.955  10.797 -0.1528 -0.9457  0.3763
  244MOL0     C33584   6.225   2.000  10.688 -0.6612  0.6140 -0.4173
  244MOL0     N33585   6.274   2.279   9.828 -0.4331  0.3355 -0.0943
  244MOL0     N33586   6.284   2.271   9.705 -0.4350  0.1174  1.0446
  244MOL0     C33587   6.521   2.918   8.791 -0.4852  0.7057  0.2287
  244MOL0     C33588   6.600   3.008   8.727  0.7762 -0.1232  0.0829
  244MOL0     C33589   6.929   3.235   8.556  0.3831  0.2035  1.4972
  244MOL0     C33590   7.030   3.277   8.648  0.2840  0.5856  0.2668
  244MOL0     C33591   7.123   3.369   8.620  0.4856 -0.2651  0.9227
  244MOL0     C33592   7.130   3.416   8.486 -0.1673  0.3169 -0.3734
  244MOL0     O33593   7.224   3.512   8.460 -0.5636  0.2822 -0.0760
  244MOL0     C33594   7.291   3.588   8.564 -0.5459  1.1160 -1.0356
  244MOL0     C33595   7.306   3.733   8.525  0.2969  0.0028 -0.8839
  244MOL0     C33596   7.168   3.787   8.495  0.7077 -0.7833 -0.0487
  244MOL0     C33597   7.128   3.789   8.350 -0.0878 -0.4754 -0.1296
  244MOL0     C33598   7.026   3.885   8.320  0.8412 -0.3691  0.4426
  244MOL0     C33599   6.941   3.972   8.304 -0.0069 -0.8773 -0.3944
  244MOL0     C33600   7.037   3.370   8.394  0.2269  0.3570  1.0411
  244MOL0     C33601   6.935   3.281   8.426  0.0507  0.2143  0.3618
  244MOL0     C33602   6.817   3.268   8.334  0.4677 -1.0331 -0.3471
  244MOL0     H33603   6.870   2.967   8.929 -0.4513 -0.6392  1.9409
  244MOL0     H33604   6.715   2.796   9.024  0.1114 -2.5846 -2.6383
  244MOL0     H33605   6.371   2.835   9.117  0.1669  0.4603  0.7924
  244MOL0     H33606   6.510   2.782   9.179 -1.6617 -2.1154  2.2679
  244MOL0     H33607   6.293   2.633   9.231 -1.6677 -2.1355 -1.1014
  244MOL0     H33608   6.266   2.622   9.066 -1.9988 -2.0645  1.8048
  244MOL0     H33609   6.361   2.423   9.157 -0.8010  0.7192 -0.6319
  244MOL0     H33610   6.483   2.489   9.044  1.8672 -0.9732  1.0780
  244MOL0     H33611   6.617   2.596   9.202 -0.5475  0.2809 -2.7499
  244MOL0     H33612   6.513   2.546   9.336  0.1300 -0.6048  1.1878
  244MOL0     H33613   6.726   2.410   9.300  0.2837  1.5423  0.7435
  244MOL0     H33614   6.657   2.337   9.158 -2.4999 -1.1282 -0.0237
  244MOL0     H33615   6.471   2.239   9.273 -0.0512 -0.0936  0.1378
  244MOL0     H33616   6.625   2.180   9.338 -2.0552 -0.4507  2.3347
  244MOL0     H33617   6.463   2.388   9.469 -0.1954 -0.5971  3.8330
  244MOL0     H33618   6.613   2.333   9.544  0.9501  1.6861 -0.8367
  244MOL0     H33619   6.373   2.162   9.482  0.1530 -1.7580  0.6094
  244MOL0     H33620   6.524   2.101   9.552 -0.3522  0.5702 -2.9301
  244MOL0     H33621   6.581   2.159   9.791  1.9233  3.7348 -0.2809
  244MOL0     H33622   6.439   2.331  10.082 -0.2608  0.1104 -0.6045
  244MOL0     H33623   6.505   2.174  10.056  0.4404  1.6644 -0.0061
  244MOL0     H33624   6.202   2.217  10.094 -0.8454 -0.2541  0.4849
  244MOL0     H33625   6.278   2.070  10.079 -1.5401  0.1584  0.5863
  244MOL0     H33626   6.425   2.112  10.284 -0.2890 -0.0441 -0.1713
  244MOL0     H33627   6.309   2.248  10.309 -1.3168 -0.2640  0.2195
  244MOL0     H33628   6.125   2.094  10.326  1.1993  3.1004  0.5522
  244MOL0     H33629   6.226   1.954  10.293  0.3355 -0.8579 -0.4841
  244MOL0     H33630   6.010   1.933  10.447  0.7113 -2.8444  0.0583
  244MOL0     H33631   5.853   1.710  10.649 -0.1682 -0.6080 -0.1840
  244MOL0     H33632   5.815   1.834  10.523 -0.2745 -1.2651 -0.6826
  244MOL0     H33633   5.769   1.865  10.680  0.2646  2.4426 -1.8663
  244MOL0     H33634   5.875   2.023  11.138 -0.5017  0.6994  0.9332
  244MOL0     H33635   5.711   2.063  11.317 -1.2386  0.9061 -0.3588
  244MOL0     H33636   5.319   1.876  11.304  2.7024 -0.7377 -1.9926
  244MOL0     H33637   5.411   1.747  11.398  1.2013  0.8351  3.3360
  244MOL0     H33638   5.231   1.874  11.526 -1.9119  1.5243 -3.1019
  244MOL0     H33639   5.397   1.888  11.589  0.4525  0.5632 -0.1450
  244MOL0     H33640   5.303   2.090  11.406  3.1984 -0.0111 -1.2113
  244MOL0     H33641   5.438   2.097  11.521  0.2307 -1.4882  1.1780
  244MOL0     H33642   5.157   2.062  11.642 -2.7297  3.7590  0.6246
  244MOL0     H33643   5.192   2.204  11.562 -0.3294  1.4672  0.9601
  244MOL0     H33644   5.332   2.072  11.798 -1.8042 -0.4664 -0.2091
  244MOL0     H33645   5.422   2.207  11.713 -0.5531  0.2090  2.0495
  244MOL0     H33646   5.222   2.365  11.776  0.9612  0.8974 -0.4259
  244MOL0     H33647   5.314   2.309  11.911  3.4499 -0.7278 -1.4415
  244MOL0     H33648   5.170   2.123  11.940  2.6154  2.4570  1.8249
  244MOL0     H33649   5.047   2.187  11.819  0.7151 -0.8447 -1.1655
  244MOL0     H33650   4.961   2.269  12.018 -0.0842  2.4304 -0.2988
  244MOL0     H33651   5.065   2.402  11.955  2.8392  0.9820  1.0399
  244MOL0     H33652   5.469   1.746  11.143 -1.2393  0.7937  0.8242
  244MOL0     H33653   5.631   1.726  10.965 -0.7908 -1.1362 -0.2024
  244MOL0     H33654   6.224   1.954  10.885  2.6125 -1.2999 -1.4936
  244MOL0     H33655   6.326   2.027  10.715 -0.0573 -1.5758 -0.2264
  244MOL0     H33656   6.417   2.902   8.764 -0.1511 -0.0345 -0.7115
  244MOL0     H33657   6.565   3.066   8.641  2.3316 -0.4029 -0.7736
  244MOL0     H33658   7.033   3.228   8.745 -0.2282 -2.2219 -1.0272
  244MOL0     H33659   7.192   3.396   8.699 -1.2180 -1.0653  2.7767
  244MOL0     H33660   7.228   3.587   8.654 -1.1066 -1.1349 -1.3918
  244MOL0     H33661   7.390   3.550   8.591 -1.2557  1.2071  2.0646
  244MOL0     H33662   7.364   3.748   8.434  2.5755 -0.2988  0.4570
  244MOL0     H33663   7.347   3.780   8.615  0.5316  0.1464 -1.0646
  244MOL0     H33664   7.086   3.732   8.542  1.0408 -2.9712 -1.8281
  244MOL0     H33665   7.160   3.886   8.540  1.2885 -1.1431  0.8665
  244MOL0     H33666   7.089   3.691   8.322  0.6670 -0.1325 -2.6593
  244MOL0     H33667   7.206   3.836   8.289  0.8960  3.6409  3.7337
  244MOL0     H33668   6.865   4.047   8.299 -0.6913 -1.6427 -2.1772
  244MOL0     H33669   7.033   3.412   8.294 -1.9360 -0.1199  0.8808
  244MOL0     H33670   6.807   3.160   8.330 -0.2390 -0.9971  0.1676
  244MOL0     H33671   6.720   3.306   8.368  1.3280  0.2889  0.7390
  244MOL0     H33672   6.842   3.318   8.240 -0.2329  2.7764  1.2880
  245MOL0     O33673   4.303   7.736  11.201 -0.4659 -0.9433  1.2953
  245MOL0     C33674   4.384   7.714  11.109  0.0001 -0.2278 -0.4408
  245MOL0     O33675   4.419   7.590  11.075 -0.1732  0.4615 -0.3239
  245MOL0     C33676   4.401   7.482  11.160  0.3883  0.2402 -0.9564
  245MOL0     C33677   4.399   7.355  11.096  0.4145  0.3695  0.1061
  245MOL0     C33678   4.394   7.231  11.179 -0.1426  0.3726 -0.1034
  245MOL0     C33679   4.380   7.243  11.313  1.3682 -1.1652  0.2802
  245MOL0     O33680   4.345   7.133  11.384 -0.8296 -0.5461  0.2796
  245MOL0     C33681   4.288   7.153  11.511  0.8208 -0.5467 -1.2036
  245MOL0     C33682   4.251   7.025  11.594  0.3290  0.5317 -0.7298
  245MOL0     C33683   4.315   7.034  11.728 -0.5588 -0.0371 -1.2473
  245MOL0     C33684   4.316   6.907  11.802 -0.3860 -0.0929  0.4611
  245MOL0     C33685   4.359   6.917  11.951  0.3777 -0.4220 -0.1614
  245MOL0     C33686   4.333   6.789  12.033 -0.5150  0.1161 -0.7039
  245MOL0     C33687   4.423   6.665  11.982 -0.7722 -0.1866 -0.8361
  245MOL0     C33688   4.393   6.529  12.060  0.9350 -0.1631 -0.0267
  245MOL0     N33689   4.402   6.554  12.210  0.4676  0.5090 -0.5621
  245MOL0     C33690   4.331   6.492  12.304 -0.6570 -0.1639  0.3840
  245MOL0     C33691   4.398   6.517  12.419  0.5286 -0.3440 -0.4900
  245MOL0     C33692   4.338   6.473  12.550 -0.9113  0.1664  0.2663
  245MOL0     C33693   4.310   6.326  12.545  0.9874 -0.8085 -0.6261
  245MOL0     C33694   4.282   6.288  12.686  0.1874  0.1870 -0.1405
  245MOL0     C33695   4.306   6.138  12.695 -0.3473 -0.4512  0.3285
  245MOL0     O33696   4.284   6.084  12.821  0.1264  0.0572 -0.3989
  245MOL0     C33697   4.290   5.946  12.843 -0.1101 -0.1238 -0.6396
  245MOL0     C33698   4.411   5.881  12.828 -0.6857  0.5242  0.6925
  245MOL0     C33699   4.419   5.749  12.860  0.2601 -0.5409 -0.4813
  245MOL0     C33700   4.563   5.692  12.846  0.2422 -0.5512  0.2729
  245MOL0     C33701   4.314   5.670  12.903  1.0094 -0.0888  0.0419
  245MOL0     C33702   4.322   5.521  12.924  0.4677 -0.0361  0.6565
  245MOL0     O33703   4.441   5.460  12.982  0.4085 -0.2640  0.1234
  245MOL0     C33704   4.420   5.348  13.064  0.6502 -0.4282 -0.1017
  245MOL0     C33705   4.316   5.336  13.159 -0.5119 -0.1398 -0.8376
  245MOL0     C33706   4.315   5.228  13.248  0.2700 -0.2783  0.4515
  245MOL0     C33707   4.419   5.129  13.244  0.4116  0.8447  0.7735
  245MOL0     O33708   4.420   5.005  13.304 -0.6686 -0.2871 -0.3277
  245MOL0     C33709   4.342   4.968  13.417  0.2729  0.6913  0.2357
  245MOL0     C33710   4.404   5.041  13.533  0.1011  0.7086 -0.1026
  245MOL0     C33711   4.337   5.001  13.658 -0.5892  0.6072 -0.3334
  245MOL0     C33712   4.438   5.034  13.774  0.4371 -0.1912  0.4817
  245MOL0     C33713   4.379   5.010  13.913 -1.3073 -0.3444 -0.6769
  245MOL0     C33714   4.465   5.039  14.034 -0.4204 -0.5911  0.1819
  245MOL0     C33715   4.413   4.978  14.171 -0.0288  0.5677  0.2008
  245MOL0     C33716   4.420   4.816  14.170 -1.1193  0.0610 -0.5740
  245MOL0    Cl33717   4.594   4.763  14.119 -0.5744 -0.1178  0.3477
  245MOL0     C33718   4.511   5.134  13.140 -0.1443 -0.1017  0.1639
  245MOL0     C33719   4.514   5.240  13.055  0.4318 -0.6494 -0.2695
  245MOL0     O33720   4.222   5.454  12.901  0.0811 -0.5013  0.0848
  245MOL0     C33721   4.186   5.729  12.900 -0.2877  0.3661 -0.6910
  245MOL0     C33722   4.179   5.871  12.870 -0.2916  0.1730 -0.0264
  245MOL0     N33723   4.508   6.590  12.392  0.0940 -0.2449  1.5793
  245MOL0     N33724   4.505   6.616  12.270 -0.9841 -0.9050  0.1779
  245MOL0     C33725   4.377   7.370  11.372 -0.1619 -0.4421 -1.0624
  245MOL0     C33726   4.392   7.488  11.297  0.1228  0.5067  0.3401
  245MOL0     C33727   4.426   7.823  11.020 -1.2095 -0.0277 -0.7148
  245MOL0     C33728   4.336   7.917  10.991  0.2339 -0.0155  0.2867
  245MOL0     C33729   4.355   8.028  10.910 -0.7803 -1.1255 -0.9217
  245MOL0     C33730   4.484   8.054  10.856  0.9693 -0.1903  0.3294
  245MOL0     O33731   4.523   8.135  10.748  0.3864  0.2007 -0.4874
  245MOL0     C33732   4.417   8.205  10.678  0.3821 -0.1315  0.1129
  245MOL0     C33733   4.456   8.347  10.653 -0.1797 -0.9075  0.4242
  245MOL0     C33734   4.344   8.436  10.654  0.8321  0.5082  0.0762
  245MOL0     C33735   4.379   8.584  10.619  0.4531  0.0022  0.6042
  245MOL0     C33736   4.396   8.656  10.743 -0.0975 -1.4511  0.7808
  245MOL0     C33737   4.412   8.712  10.849  0.3522  0.6830 -0.3835
  245MOL0     C33738   4.588   7.969  10.900  0.1918 -0.2609  0.1240
  245MOL0     C33739   4.563   7.850  10.975 -0.1539  0.2150  0.0071
  245MOL0     C33740   4.671   7.757  11.018  0.1653 -0.4013 -0.5430
  245MOL0     H33741   4.423   7.336  10.992 -0.6404  2.8060 -0.6509
  245MOL0     H33742   4.398   7.132  11.134  0.8371 -0.9906  2.7894
  245MOL0     H33743   4.198   7.215  11.501  1.1761  0.0030 -1.0666
  245MOL0     H33744   4.361   7.213  11.566 -0.7826  0.1876  0.2319
  245MOL0     H33745   4.143   7.016  11.608 -0.1982  4.4906 -0.9751
  245MOL0     H33746   4.288   6.934  11.546 -0.4270  0.3121 -0.9100
  245MOL0     H33747   4.418   7.067  11.708 -0.3553  0.2515  0.1780
  245MOL0     H33748   4.249   7.102  11.782 -0.2619  0.4998 -1.5610
  245MOL0     H33749   4.223   6.851  11.785 -1.0930  0.6620  1.6981
  245MOL0     H33750   4.393   6.853  11.747  0.4318  0.8365  0.6464
  245MOL0     H33751   4.300   7.000  11.992 -1.7196 -0.0976 -3.4714
  245MOL0     H33752   4.464   6.949  11.950  0.1833  0.3605  1.2170
  245MOL0     H33753   4.349   6.811  12.139  1.9332  1.6978 -1.3197
  245MOL0     H33754   4.226   6.765  12.029 -1.0061  1.3703  2.2471
  245MOL0     H33755   4.528   6.696  11.987 -1.3264  2.2533 -2.6739
  245MOL0     H33756   4.403   6.639  11.878 -2.0291  0.1219 -0.6859
  245MOL0     H33757   4.292   6.494  12.036  2.0044 -2.1456 -1.9333
  245MOL0     H33758   4.452   6.447  12.017 -1.0045 -0.5937 -2.0654
  245MOL0     H33759   4.230   6.459  12.280 -0.4080  0.3166 -1.4750
  245MOL0     H33760   4.251   6.529  12.585 -0.2311  0.5042  1.4611
  245MOL0     H33761   4.422   6.485  12.618 -0.6256  1.0581 -0.2270
  245MOL0     H33762   4.222   6.308  12.483 -0.7250  1.4629  0.9961
  245MOL0     H33763   4.395   6.276  12.498  1.0060 -0.4557 -0.9817
  245MOL0     H33764   4.343   6.347  12.755 -0.6356  1.1651 -0.2315
  245MOL0     H33765   4.179   6.317  12.708  0.9970  1.4500  2.4411
  245MOL0     H33766   4.232   6.095  12.627  1.0415 -0.4339 -1.2639
  245MOL0     H33767   4.407   6.111  12.663 -0.0611  2.0717 -1.1912
  245MOL0     H33768   4.497   5.938  12.794 -0.1846 -1.3681 -1.4918
  245MOL0     H33769   4.547   5.606  12.781  0.3862  0.7084 -1.5190
  245MOL0     H33770   4.596   5.672  12.948 -1.1907  0.6035  1.0067
  245MOL0     H33771   4.630   5.766  12.802 -1.7447  4.1299  4.1218
  245MOL0     H33772   4.245   5.415  13.177  0.2400  0.0734  1.5434
  245MOL0     H33773   4.226   5.212  13.306 -1.7659  0.5816 -2.2126
  245MOL0     H33774   4.234   4.982  13.409  0.0501  0.0581  1.8104
  245MOL0     H33775   4.345   4.859  13.425 -0.2560  0.4612 -2.0350
  245MOL0     H33776   4.508   5.006  13.540  0.5668  2.2180  0.8883
  245MOL0     H33777   4.403   5.150  13.523 -1.7861  0.8704  1.3551
  245MOL0     H33778   4.318   4.894  13.660  0.7115  0.3398  2.0991
  245MOL0     H33779   4.252   5.068  13.673 -2.1081 -0.9551 -1.5940
  245MOL0     H33780   4.472   5.137  13.757  0.6145 -0.4785 -1.0459
  245MOL0     H33781   4.516   4.962  13.747  0.8825  0.4470  0.0201
  245MOL0     H33782   4.293   5.077  13.915  0.1816  1.6588 -0.4251
  245MOL0     H33783   4.348   4.906  13.927  3.7834 -1.8495  2.0239
  245MOL0     H33784   4.481   5.148  14.038 -2.8912 -0.1983  1.3681
  245MOL0     H33785   4.564   4.999  14.011 -0.5352 -2.0439  2.0230
  245MOL0     H33786   4.311   5.010  14.193  0.3652  3.6510 -1.8730
  245MOL0     H33787   4.470   5.009  14.259 -1.0792 -0.4946  1.3054
  245MOL0     H33788   4.356   4.775  14.091  1.0825 -1.4354 -1.7198
  245MOL0     H33789   4.402   4.778  14.270 -2.0526  1.9965  0.0331
  245MOL0     H33790   4.572   5.049  13.113 -0.9598 -0.8586  0.6493
  245MOL0     H33791   4.601   5.251  12.991 -1.1357 -0.0966 -2.4279
  245MOL0     H33792   4.103   5.663  12.919 -0.2407  0.7589  1.1063
  245MOL0     H33793   4.089   5.929  12.883 -0.7801 -0.0717 -1.9670
  245MOL0     H33794   4.369   7.397  11.477  1.3307  1.3622 -1.3515
  245MOL0     H33795   4.401   7.581  11.352 -1.9117 -0.0415  1.7274
  245MOL0     H33796   4.235   7.909  11.032  0.4819  0.2972  0.9870
  245MOL0     H33797   4.263   8.080  10.887 -0.1076  1.8450  2.3406
  245MOL0     H33798   4.385   8.159  10.583  1.0100 -2.5436  0.9853
  245MOL0     H33799   4.322   8.195  10.731 -0.9870  2.1779 -1.7254
  245MOL0     H33800   4.507   8.367  10.559  0.6639  3.1258  1.5150
  245MOL0     H33801   4.528   8.362  10.734 -1.7114 -0.3903  1.7533
  245MOL0     H33802   4.273   8.416  10.573 -1.2777  2.0992  1.4068
  245MOL0     H33803   4.288   8.426  10.747 -1.2403  1.7573 -0.9571
  245MOL0     H33804   4.299   8.626  10.557 -0.1781 -2.2996 -0.2802
  245MOL0     H33805   4.468   8.578  10.556  1.1793 -0.7726  1.6739
  245MOL0     H33806   4.443   8.733  10.949  3.3105 -1.3857 -0.7339
  245MOL0     H33807   4.688   7.999  10.870 -0.8876  2.9610 -0.5978
  245MOL0     H33808   4.660   7.721  11.121 -2.0070 -0.8352 -0.8678
  245MOL0     H33809   4.686   7.677  10.945 -2.1851 -0.4498 -1.0712
  245MOL0     H33810   4.762   7.816  11.023  0.6128 -1.1523  2.9140
  246MOL0     O33811   0.045   0.733   3.455 -0.1901  1.0584  0.1344
  246MOL0     C33812  -0.001   0.728   3.572 -0.7292  0.3457  0.8076
  246MOL0     O33813  -0.102   0.635   3.610 -0.4264 -0.2930  0.6818
  246MOL0     C33814  -0.143   0.548   3.512 -0.5059  0.1494 -0.1294
  246MOL0     C33815  -0.144   0.411   3.548 -0.3397 -0.4628  0.4714
  246MOL0     C33816  -0.190   0.304   3.461 -1.5323  0.6252  0.0452
  246MOL0     C33817  -0.238   0.336   3.333 -0.9288 -0.0057 -0.0432
  246MOL0     O33818  -0.294   0.243   3.248 -0.5236 -0.0979 -0.4319
  246MOL0     C33819  -0.333   0.118   3.300  0.3976 -0.4619 -0.7642
  246MOL0     C33820  -0.428   0.053   3.198 -0.1460 -0.0045  0.6932
  246MOL0     C33821  -0.386  -0.089   3.144  0.4305  0.4956 -0.3229
  246MOL0     C33822  -0.520  -0.163   3.099 -0.4502 -0.2225  0.1617
  246MOL0     C33823  -0.597  -0.099   2.990  0.6237 -0.1140  0.2175
  246MOL0     C33824  -0.521  -0.114   2.858  0.1834  1.3750  0.8765
  246MOL0     C33825  -0.582  -0.041   2.739 -0.3576  0.8524 -0.5047
  246MOL0     C33826  -0.483  -0.059   2.615  0.0620 -1.6892 -0.3742
  246MOL0     N33827  -0.439  -0.194   2.587 -0.2528  0.4601  0.6438
  246MOL0     C33828  -0.526  -0.295   2.557 -0.3157  0.5144 -0.1749
  246MOL0     C33829  -0.434  -0.393   2.510  0.9188 -0.6004 -0.7491
  246MOL0     C33830  -0.468  -0.531   2.460  1.4476 -0.0009  0.3357
  246MOL0     C33831  -0.455  -0.618   2.584  0.2676  0.1808  0.1011
  246MOL0     C33832  -0.465  -0.772   2.561  0.2837  0.2788  0.1750
  246MOL0     C33833  -0.399  -0.838   2.683 -0.1751  0.5220 -0.0136
  246MOL0     O33834  -0.453  -0.973   2.696 -0.2620  0.3720  0.2965
  246MOL0     C33835  -0.555  -0.984   2.778  0.6820 -0.2248 -0.4786
  246MOL0     C33836  -0.686  -0.984   2.735 -0.3181  0.8126 -0.2429
  246MOL0     C33837  -0.800  -0.992   2.821  0.5963 -0.6383 -0.9535
  246MOL0     C33838  -0.940  -0.996   2.768  0.2988  0.5391 -0.2448
  246MOL0     C33839  -0.767  -0.991   2.966  1.0278  1.4471 -0.6612
  246MOL0     C33840  -0.875  -1.017   3.069 -0.2619  0.3277  0.7522
  246MOL0     O33841  -0.860  -0.952   3.182  0.6055  0.1656 -0.0318
  246MOL0     C33842  -0.925  -0.993   3.295  0.1251 -0.5215  0.1929
  246MOL0     C33843  -1.006  -0.900   3.362 -1.5672 -0.1985 -0.3914
  246MOL0     C33844  -1.047  -0.917   3.491  0.3151 -0.1379  0.3366
  246MOL0     C33845  -1.015  -1.039   3.556 -0.3203 -0.4577 -0.5024
  246MOL0     O33846  -1.033  -1.044   3.691 -0.1289 -1.2108  0.8028
  246MOL0     C33847  -1.026  -1.167   3.764 -0.3940 -0.4851 -0.2958
  246MOL0     C33848  -1.145  -1.155   3.857 -0.2131 -0.1862  0.4631
  246MOL0     C33849  -1.168  -1.291   3.932  0.2466 -0.4951  0.7834
  246MOL0     C33850  -1.048  -1.336   4.009  0.1021 -0.6586 -0.2479
  246MOL0     C33851  -1.086  -1.457   4.101 -0.1984  0.2346  0.3729
  246MOL0     C33852  -0.968  -1.533   4.170  0.6411  0.6955  0.6197
  246MOL0     C33853  -1.006  -1.673   4.230  0.6052 -0.7360  0.1666
  246MOL0     C33854  -0.896  -1.726   4.316  0.5106  0.7709  0.1874
  246MOL0    Cl33855  -0.767  -1.781   4.202 -0.1427  0.3339 -0.1878
  246MOL0     C33856  -0.941  -1.131   3.484 -0.9978  0.8626  0.0650
  246MOL0     C33857  -0.892  -1.113   3.357 -0.0829  0.3084  0.4737
  246MOL0     O33858  -0.970  -1.086   3.040 -0.5790 -0.4130  0.0315
  246MOL0     C33859  -0.633  -0.992   3.005 -0.0953 -0.7406 -0.0150
  246MOL0     C33860  -0.530  -0.985   2.919  0.1647 -0.1486  1.0318
  246MOL0     N33861  -0.308  -0.351   2.530 -0.1929 -0.2024 -0.1512
  246MOL0     N33862  -0.312  -0.222   2.556  0.2789  0.9080 -0.2045
  246MOL0     C33863  -0.234   0.478   3.300 -0.4964  0.4744  0.1186
  246MOL0     C33864  -0.200   0.582   3.389 -0.2260  0.5000 -0.5419
  246MOL0     C33865   0.027   0.836   3.669 -0.4256 -0.2387 -0.4144
  246MOL0     C33866  -0.062   0.847   3.779  0.7738  0.8158  0.7204
  246MOL0     C33867  -0.037   0.940   3.880  0.8158 -0.3632 -0.4107
  246MOL0     C33868   0.068   1.024   3.871 -0.4118 -0.3482 -0.0212
  246MOL0     O33869   0.066   1.118   3.975  0.0152  0.8269  1.0994
  246MOL0     C33870   0.195   1.143   4.031 -0.4321 -0.6390  0.3456
  246MOL0     C33871   0.177   1.161   4.174 -0.8040 -0.7168 -0.1952
  246MOL0     C33872   0.312   1.192   4.254  0.3943 -0.1098 -0.1004
  246MOL0     C33873   0.279   1.206   4.406  0.1595 -0.6057  0.6298
  246MOL0     C33874   0.408   1.210   4.480  0.6798 -0.3473  0.5033
  246MOL0     C33875   0.508   1.223   4.542  0.3361  0.0512 -0.3273
  246MOL0     C33876   0.153   1.016   3.764  0.6649 -0.0303  1.3504
  246MOL0     C33877   0.142   0.922   3.661  0.1049 -0.0863  0.2961
  246MOL0     C33878   0.266   0.918   3.572  0.1944 -0.5201 -0.0062
  246MOL0     H33879  -0.120   0.392   3.652  2.6644  1.9494  0.3754
  246MOL0     H33880  -0.182   0.201   3.494  0.7474  0.0427 -2.0370
  246MOL0     H33881  -0.381   0.131   3.397  1.6923  1.9458 -0.3797
  246MOL0     H33882  -0.252   0.047   3.320 -3.1500 -4.5459  0.8558
  246MOL0     H33883  -0.526   0.036   3.243 -0.8598 -2.9364 -1.6243
  246MOL0     H33884  -0.437   0.121   3.113  0.9964 -1.6343 -0.7818
  246MOL0     H33885  -0.329  -0.072   3.051 -0.5255  0.2965 -0.9615
  246MOL0     H33886  -0.321  -0.144   3.212  0.9522 -0.4407 -1.5461
  246MOL0     H33887  -0.483  -0.260   3.065 -1.3659 -1.1086  1.5885
  246MOL0     H33888  -0.573  -0.176   3.193  1.1898  0.2693  1.1946
  246MOL0     H33889  -0.615   0.008   3.002 -1.7747 -0.5067  0.5684
  246MOL0     H33890  -0.697  -0.144   2.992  0.2732  0.6391 -0.1351
  246MOL0     H33891  -0.415  -0.087   2.863  0.5448  0.2981 -0.3905
  246MOL0     H33892  -0.516  -0.222   2.843  1.0574  1.4303  0.7308
  246MOL0     H33893  -0.601   0.063   2.765 -1.2458 -0.0325  2.9463
  246MOL0     H33894  -0.677  -0.087   2.711 -2.1404  2.0962  2.9070
  246MOL0     H33895  -0.536  -0.023   2.526 -0.7264 -0.6091  0.4997
  246MOL0     H33896  -0.391  -0.001   2.626 -1.6411  1.9910 -3.1452
  246MOL0     H33897  -0.631  -0.304   2.581 -0.0416 -3.1332  0.2888
  246MOL0     H33898  -0.405  -0.565   2.377 -2.1449 -2.4600 -1.6489
  246MOL0     H33899  -0.573  -0.530   2.429  1.1124  2.8113  1.2142
  246MOL0     H33900  -0.357  -0.615   2.635  0.3611  0.7746 -0.1147
  246MOL0     H33901  -0.537  -0.592   2.652 -1.0929 -3.3782  0.0536
  246MOL0     H33902  -0.566  -0.806   2.536 -1.0896  2.6708  2.1167
  246MOL0     H33903  -0.395  -0.802   2.482 -1.1724 -1.6339 -0.4622
  246MOL0     H33904  -0.290  -0.834   2.680 -0.0134 -0.1975  2.5611
  246MOL0     H33905  -0.422  -0.783   2.775 -0.3796  0.1924  0.1346
  246MOL0     H33906  -0.713  -0.980   2.630 -0.3577  1.3617 -0.2126
  246MOL0     H33907  -0.970  -1.096   2.738 -0.4829  1.5168 -3.0104
  246MOL0     H33908  -0.934  -0.928   2.682  0.7623  0.9312  0.0884
  246MOL0     H33909  -1.016  -0.960   2.838  1.7637 -0.5931  2.0684
  246MOL0     H33910  -1.029  -0.804   3.315 -0.2521  1.0305  1.3289
  246MOL0     H33911  -1.110  -0.846   3.544  0.4672  0.6269 -0.4872
  246MOL0     H33912  -1.037  -1.253   3.698  2.7029 -1.8265  0.7449
  246MOL0     H33913  -0.934  -1.179   3.822 -1.0699 -0.5439  0.7960
  246MOL0     H33914  -1.118  -1.086   3.937  3.8196  0.3518 -1.1166
  246MOL0     H33915  -1.237  -1.126   3.805  1.5142  1.1243 -2.1049
  246MOL0     H33916  -1.200  -1.358   3.852 -0.3469  2.3530 -1.5660
  246MOL0     H33917  -1.260  -1.279   3.991  0.8094  0.9828  1.4220
  246MOL0     H33918  -1.022  -1.256   4.079 -1.8446 -0.1989  0.0194
  246MOL0     H33919  -0.976  -1.355   3.929 -1.3555 -0.1561 -1.7515
  246MOL0     H33920  -1.149  -1.412   4.178  0.2741  1.9686 -0.1957
  246MOL0     H33921  -1.137  -1.531   4.039 -2.0487  0.9178  1.0329
  246MOL0     H33922  -0.917  -1.475   4.247 -1.5587  1.4350  1.6134
  246MOL0     H33923  -0.890  -1.551   4.095 -0.1553 -2.0236  0.3312
  246MOL0     H33924  -1.034  -1.742   4.150  0.5610  0.0356 -0.4895
  246MOL0     H33925  -1.096  -1.670   4.293  0.6255 -0.3010  0.1779
  246MOL0     H33926  -0.918  -1.812   4.379  2.3037  0.1052 -0.0424
  246MOL0     H33927  -0.869  -1.660   4.399  0.0062  1.5431 -0.2395
  246MOL0     H33928  -0.925  -1.226   3.535 -5.0501  1.3308  2.6198
  246MOL0     H33929  -0.843  -1.193   3.302 -0.2968  0.9047 -0.6102
  246MOL0     H33930  -0.613  -0.973   3.110  2.7872 -0.3518 -0.5491
  246MOL0     H33931  -0.435  -0.975   2.971 -0.4376 -0.4667  2.2261
  246MOL0     H33932  -0.265   0.497   3.197  1.5539  2.6541 -0.1852
  246MOL0     H33933  -0.204   0.685   3.356  0.6211 -0.3236 -3.5044
  246MOL0     H33934  -0.153   0.787   3.776  2.9371 -2.9486 -3.6539
  246MOL0     H33935  -0.109   0.950   3.961  1.0810 -1.5115 -0.0121
  246MOL0     H33936   0.264   1.059   4.021  1.1841  0.5300  1.0928
  246MOL0     H33937   0.246   1.225   3.978 -0.5200 -1.8966 -1.8171
  246MOL0     H33938   0.123   1.077   4.217  0.3786 -0.9882  0.8090
  246MOL0     H33939   0.116   1.251   4.189  0.2881  0.5236 -2.5857
  246MOL0     H33940   0.386   1.113   4.238  1.4355  0.9925 -0.9836
  246MOL0     H33941   0.354   1.288   4.220 -3.1800  1.5164 -0.3600
  246MOL0     H33942   0.227   1.120   4.449 -1.6300  1.5720  3.1741
  246MOL0     H33943   0.226   1.299   4.428 -2.0619 -1.6421 -0.1293
  246MOL0     H33944   0.599   1.242   4.596 -1.0713  2.6040  1.3654
  246MOL0     H33945   0.222   1.099   3.759  3.7159 -2.4510 -0.0572
  246MOL0     H33946   0.244   0.874   3.474  0.0684 -3.4803  1.2384
  246MOL0     H33947   0.302   1.018   3.547  0.3313 -0.0904  1.8024
  246MOL0     H33948   0.352   0.865   3.615  0.1396  2.0844  3.8050
  247MOL0     O33949   2.263  10.289   7.039  0.7708  0.0818 -0.0625
  247MOL0     C33950   2.284  10.188   6.968  0.2387 -0.2167 -0.6738
  247MOL0     O33951   2.295  10.061   7.022  0.1996  0.0789  0.2133
  247MOL0     C33952   2.276  10.024   7.150  0.0447 -0.7189  1.3162
  247MOL0     C33953   2.199  10.093   7.246 -0.2031 -0.7809  0.3610
  247MOL0     C33954   2.177  10.047   7.382 -0.3865 -0.7401 -0.4245
  247MOL0     C33955   2.228   9.925   7.410 -0.1967  0.2992  0.3227
  247MOL0     O33956   2.196   9.878   7.542 -0.7594 -0.0956  0.8805
  247MOL0     C33957   2.255   9.759   7.588 -0.0453  0.6441  0.2722
  247MOL0     C33958   2.213   9.724   7.719  0.1699 -0.0419 -0.4594
  247MOL0     C33959   2.270   9.828   7.823  0.4946  0.3219 -1.3776
  247MOL0     C33960   2.265   9.778   7.975 -0.6295 -0.0258 -0.9738
  247MOL0     C33961   2.344   9.863   8.071 -0.9866  0.5472 -0.1450
  247MOL0     C33962   2.329   9.804   8.216 -0.2544 -0.1235 -0.6561
  247MOL0     C33963   2.431   9.846   8.323  0.0129 -0.1462  0.5578
  247MOL0     C33964   2.513   9.740   8.385 -0.6200  1.0317 -0.5330
  247MOL0     N33965   2.602   9.803   8.479  0.3062 -0.8185 -0.0971
  247MOL0     C33966   2.721   9.841   8.451 -0.3824  0.7132 -0.2629
  247MOL0     C33967   2.773   9.876   8.566  0.2714 -0.1032  0.1355
  247MOL0     C33968   2.914   9.919   8.592 -0.0018  0.3680  0.2856
  247MOL0     C33969   2.917  10.062   8.652  0.6668  0.2265 -0.3336
  247MOL0     C33970   2.884  10.063   8.801 -0.4991 -0.1994  0.1805
  247MOL0     C33971   2.928  10.194   8.866 -0.8966 -0.3131  0.2436
  247MOL0     O33972   3.060  10.207   8.903 -0.2382 -0.5887  0.3054
  247MOL0     C33973   3.101  10.157   9.013  0.0922 -0.1309 -0.3875
  247MOL0     C33974   3.029  10.077   9.103  0.1866  0.2688  0.8400
  247MOL0     C33975   3.083  10.013   9.211 -0.7100  0.3313 -0.6832
  247MOL0     C33976   2.994   9.917   9.284  0.7154  0.1352  0.1051
  247MOL0     C33977   3.220  10.044   9.237  0.4292  0.1824 -0.7200
  247MOL0     C33978   3.293   9.988   9.357 -0.1102 -0.2183  0.3333
  247MOL0     O33979   3.422   9.945   9.330 -0.1951  0.9191  0.0424
  247MOL0     C33980   3.469   9.855   9.421 -1.5034 -0.7367 -0.0834
  247MOL0     C33981   3.507   9.732   9.377  1.1739 -0.2764  0.0525
  247MOL0     C33982   3.571   9.643   9.452 -0.6181  0.4479 -0.1136
  247MOL0     C33983   3.623   9.668   9.579  0.6384  0.1288  0.1469
  247MOL0     O33984   3.713   9.584   9.640 -0.0107  0.5129 -0.0672
  247MOL0     C33985   3.689   9.567   9.782  0.4687  0.5243 -0.7131
  247MOL0     C33986   3.809   9.621   9.863  0.6937  0.5838  0.6396
  247MOL0     C33987   3.770   9.620  10.013 -0.0574  0.3036  0.2665
  247MOL0     C33988   3.756   9.769  10.066  0.5471  0.2432  0.5988
  247MOL0     C33989   3.695   9.754  10.206  0.3311 -0.9668 -0.1969
  247MOL0     C33990   3.641   9.897  10.254 -0.1985  1.0623 -0.2601
  247MOL0     C33991   3.753  10.004  10.265  0.5121 -0.4061  0.2056
  247MOL0     C33992   3.751  10.084  10.131 -0.0475 -0.6603  0.0720
  247MOL0    Cl33993   3.602  10.185  10.112 -0.3588 -0.2444  0.3173
  247MOL0     C33994   3.586   9.801   9.633  0.5494 -0.1534 -0.2896
  247MOL0     C33995   3.515   9.891   9.547  0.2872  0.6675 -0.3084
  247MOL0     O33996   3.235   9.985   9.467 -0.1056  0.9028  0.6126
  247MOL0     C33997   3.297  10.125   9.151 -0.3518  0.1478  0.2822
  247MOL0     C33998   3.234  10.177   9.041 -0.1129  0.5623  0.3215
  247MOL0     N33999   2.679   9.848   8.661 -0.3683  0.0622  0.6570
  247MOL0     N34000   2.570   9.808   8.614  0.2333 -0.0520  0.3540
  247MOL0     C34001   2.310   9.853   7.325  0.6645 -0.0840 -0.0909
  247MOL0     C34002   2.334   9.902   7.196  0.4862  0.1461 -0.6944
  247MOL0     C34003   2.301  10.202   6.820 -0.9809 -0.6504  0.2126
  247MOL0     C34004   2.237  10.107   6.737  0.6288 -0.7291 -0.7594
  247MOL0     C34005   2.246  10.125   6.595 -0.5253  0.1614 -0.0689
  247MOL0     C34006   2.349  10.214   6.552 -0.5365 -0.0223  1.1865
  247MOL0     O34007   2.393  10.199   6.423  0.1986  0.7722 -0.5307
  247MOL0     C34008   2.336  10.288   6.329  0.2000  0.2916 -0.6291
  247MOL0     C34009   2.200  10.224   6.277  0.3281  0.4449 -0.5264
  247MOL0     C34010   2.210  10.079   6.237  0.2320 -0.8620  0.2129
  247MOL0     C34011   2.066  10.044   6.212 -0.0561  0.0479 -0.2471
  247MOL0     C34012   2.038   9.905   6.277  0.8226 -0.6035  0.3825
  247MOL0     C34013   2.033   9.796   6.334 -0.2462  0.1090  0.2056
  247MOL0     C34014   2.413  10.301   6.631  0.0892 -0.0835 -0.0813
  247MOL0     C34015   2.384  10.306   6.767  0.7493  0.4212 -0.9954
  247MOL0     C34016   2.478  10.398   6.849  0.5772 -0.8533  0.3722
  247MOL0     H34017   2.157  10.190   7.223 -1.8631 -1.6598 -0.5557
  247MOL0     H34018   2.121  10.113   7.448  1.4866 -0.4234  0.9432
  247MOL0     H34019   2.364   9.772   7.583 -0.2921  3.1803  0.0723
  247MOL0     H34020   2.233   9.678   7.518 -0.7005  0.7336  0.3672
  247MOL0     H34021   2.104   9.722   7.721  0.1158  0.8670 -1.5514
  247MOL0     H34022   2.242   9.625   7.755 -3.9800 -0.9094  1.0259
  247MOL0     H34023   2.369   9.858   7.787  0.3275  1.3696 -1.0060
  247MOL0     H34024   2.212   9.921   7.821  1.4830  1.0312  0.6833
  247MOL0     H34025   2.159   9.785   8.004 -0.9051 -1.3464 -1.5938
  247MOL0     H34026   2.306   9.678   7.990 -2.8991 -0.6538  2.3308
  247MOL0     H34027   2.310   9.967   8.065  0.9401  1.1947 -0.5420
  247MOL0     H34028   2.448   9.849   8.041 -0.9838 -3.4465  1.1857
  247MOL0     H34029   2.227   9.835   8.239 -0.9716 -2.4467 -0.5177
  247MOL0     H34030   2.326   9.695   8.211 -1.0445 -0.1547  0.2790
  247MOL0     H34031   2.370   9.889   8.403 -0.0479 -1.4212  1.2153
  247MOL0     H34032   2.502   9.916   8.279  1.1758 -0.3363  2.0665
  247MOL0     H34033   2.443   9.672   8.435  0.0747  0.0752 -0.8374
  247MOL0     H34034   2.581   9.682   8.323  0.4616  1.4240  0.2620
  247MOL0     H34035   2.773   9.838   8.356  0.1092  0.9205 -0.0036
  247MOL0     H34036   2.970   9.915   8.498  2.8123 -1.2348  1.9303
  247MOL0     H34037   2.970   9.849   8.655  3.5213  2.8532  0.1788
  247MOL0     H34038   3.011  10.114   8.637  1.5432 -1.7118 -1.9833
  247MOL0     H34039   2.838  10.117   8.601 -1.6130 -1.8626  0.7228
  247MOL0     H34040   2.779  10.042   8.822 -0.0484 -0.8423  2.0391
  247MOL0     H34041   2.936   9.985   8.857  0.3106  1.6404  2.1422
  247MOL0     H34042   2.905  10.283   8.807  0.2869  0.1768  0.5028
  247MOL0     H34043   2.869  10.205   8.957  0.2357  0.2749  0.9338
  247MOL0     H34044   2.929  10.037   9.089  0.7691 -1.4197  1.2945
  247MOL0     H34045   2.970   9.842   9.208 -0.9007 -0.8444  1.5039
  247MOL0     H34046   2.904   9.968   9.319  0.1232  0.3373 -1.6224
  247MOL0     H34047   3.033   9.871   9.375  0.2993 -2.6580 -1.0383
  247MOL0     H34048   3.467   9.711   9.278  2.1215  0.0087 -0.4036
  247MOL0     H34049   3.610   9.550   9.411 -2.3240  0.5318 -2.0865
  247MOL0     H34050   3.598   9.612   9.820  2.0336  3.5333 -0.2455
  247MOL0     H34051   3.673   9.460   9.799 -3.9464  0.6142 -2.9638
  247MOL0     H34052   3.902   9.566   9.849  1.3349  1.4439  1.3457
  247MOL0     H34053   3.821   9.727   9.838  0.8469  0.6480  0.9692
  247MOL0     H34054   3.858   9.581  10.065  0.0224  2.6110  2.0407
  247MOL0     H34055   3.683   9.555  10.028  0.6807 -1.5270 -2.5351
  247MOL0     H34056   3.694   9.827   9.998 -0.5026 -2.8126 -1.2320
  247MOL0     H34057   3.856   9.808  10.085  0.3683  1.1700 -0.2842
  247MOL0     H34058   3.614   9.680  10.201 -1.9880  1.4146 -0.2433
  247MOL0     H34059   3.768   9.724  10.281 -0.0013  0.5752  0.7859
  247MOL0     H34060   3.608   9.881  10.357  2.2708  0.8002  0.5523
  247MOL0     H34061   3.554   9.935  10.200 -1.0979  0.5951  0.8097
  247MOL0     H34062   3.854   9.972  10.289  1.4595  1.1190 -1.4776
  247MOL0     H34063   3.716  10.062  10.350 -0.9276 -1.3135  0.2376
  247MOL0     H34064   3.771  10.012  10.051  2.6477 -1.6212  1.4902
  247MOL0     H34065   3.837  10.151  10.122  0.6211 -1.2566  1.6838
  247MOL0     H34066   3.616   9.832   9.733  2.3061 -4.9392  0.9323
  247MOL0     H34067   3.480   9.987   9.581 -1.1253  0.0091  0.1879
  247MOL0     H34068   3.402  10.149   9.162 -0.6479  2.2041 -0.7895
  247MOL0     H34069   3.293  10.241   8.976  0.3856 -0.2493 -0.0510
  247MOL0     H34070   2.343   9.751   7.340 -0.1963 -0.9518 -3.2425
  247MOL0     H34071   2.399   9.849   7.126 -0.0186  0.9861 -1.8340
  247MOL0     H34072   2.185  10.030   6.793 -0.9574 -0.1405 -1.3565
  247MOL0     H34073   2.195  10.064   6.521  0.7261 -0.0868 -0.7512
  247MOL0     H34074   2.327  10.391   6.364  1.3237  0.7762 -1.6966
  247MOL0     H34075   2.413  10.284   6.252  4.1394 -1.0165  3.0110
  247MOL0     H34076   2.166  10.280   6.188 -1.4520  1.5490  0.7677
  247MOL0     H34077   2.120  10.243   6.349  0.8448  2.7841 -0.4878
  247MOL0     H34078   2.258  10.068   6.139 -1.4948 -0.2281 -0.7451
  247MOL0     H34079   2.267  10.006   6.296 -2.3438 -2.5750  0.7262
  247MOL0     H34080   2.052  10.032   6.105  0.1177  0.6720 -0.3439
  247MOL0     H34081   1.996  10.121   6.246  1.0712  2.2363 -2.5989
  247MOL0     H34082   2.016   9.708   6.393  2.5490 -0.1306  0.8183
  247MOL0     H34083   2.488  10.364   6.584  1.0588 -1.8463 -0.9976
  247MOL0     H34084   2.444  10.500   6.832  1.7671 -0.7075 -1.3692
  247MOL0     H34085   2.488  10.390   6.958  5.5087  1.8240  0.3645
  247MOL0     H34086   2.583  10.378   6.826  0.9763  0.0655  1.3378
  248MOL0     O34087   3.470   9.526   3.514 -0.4468 -0.7472  0.1093
  248MOL0     C34088   3.582   9.585   3.527  0.0475  1.2598  0.4081
  248MOL0     O34089   3.698   9.526   3.573  0.0797  0.5543  0.1137
  248MOL0     C34090   3.702   9.404   3.639 -0.1573  1.0361 -0.2076
  248MOL0     C34091   3.601   9.345   3.715 -0.2247 -0.6986  0.3366
  248MOL0     C34092   3.622   9.227   3.782  0.3463 -0.8120  0.3524
  248MOL0     C34093   3.738   9.146   3.758 -0.0764  1.2130  0.4404
  248MOL0     O34094   3.735   9.018   3.811  0.3104 -0.4230 -0.4553
  248MOL0     C34095   3.710   8.924   3.715  0.4055 -0.1534  0.4839
  248MOL0     C34096   3.729   8.784   3.775 -0.5572  0.3364 -0.1546
  248MOL0     C34097   3.735   8.666   3.671 -0.2157 -0.2332 -0.4853
  248MOL0     C34098   3.687   8.548   3.743  0.3101  0.9466  0.4325
  248MOL0     C34099   3.675   8.432   3.647  0.1072  0.8631  0.8572
  248MOL0     C34100   3.598   8.305   3.707 -0.3018  0.8003 -0.2888
  248MOL0     C34101   3.593   8.186   3.606  0.2640 -0.2480  0.1602
  248MOL0     C34102   3.494   8.081   3.661  0.8037 -0.9390  0.0694
  248MOL0     N34103   3.469   7.986   3.556 -0.0997 -0.1461  0.9791
  248MOL0     C34104   3.463   7.847   3.575 -0.1084  0.0735  0.1200
  248MOL0     C34105   3.414   7.806   3.458  0.5724  0.3127  0.7798
  248MOL0     C34106   3.387   7.667   3.406 -0.1241  0.1268  0.7133
  248MOL0     C34107   3.247   7.618   3.439 -0.3306  0.3044  0.1271
  248MOL0     C34108   3.151   7.676   3.337 -0.4810  0.2226 -0.3701
  248MOL0     C34109   3.005   7.628   3.363 -0.6897 -0.5176  0.8548
  248MOL0     O34110   2.921   7.721   3.297 -0.7494 -0.6466  1.4527
  248MOL0     C34111   2.819   7.660   3.227 -0.8650 -0.7807 -0.7220
  248MOL0     C34112   2.846   7.585   3.120 -0.2418 -0.2949  0.1136
  248MOL0     C34113   2.744   7.525   3.042 -0.1871  0.3012  0.2259
  248MOL0     C34114   2.783   7.424   2.938 -0.8159  0.0843  0.3858
  248MOL0     C34115   2.608   7.552   3.072  0.2698 -0.5902 -0.5891
  248MOL0     C34116   2.494   7.492   2.999 -0.5992 -0.1976 -0.3673
  248MOL0     O34117   2.517   7.398   2.892  0.7038  0.7971 -0.2976
  248MOL0     C34118   2.406   7.320   2.851 -0.4741 -0.3940  0.2010
  248MOL0     C34119   2.396   7.282   2.721  0.1724  0.0006  0.2818
  248MOL0     C34120   2.297   7.189   2.681  0.0502  0.0558  0.5233
  248MOL0     C34121   2.214   7.136   2.772 -0.5700  0.2367  0.2295
  248MOL0     O34122   2.135   7.031   2.719  0.7786 -0.0483  0.0418
  248MOL0     C34123   2.052   6.948   2.808  0.7694 -0.0287 -1.0136
  248MOL0     C34124   1.913   7.025   2.825  0.1430 -0.2633 -0.2475
  248MOL0     C34125   1.791   6.938   2.839 -0.4187 -0.1984 -0.0424
  248MOL0     C34126   1.667   7.021   2.884 -0.7683  0.5772  0.1021
  248MOL0     C34127   1.682   7.100   3.006 -0.1344 -0.6544  0.2474
  248MOL0     C34128   1.540   7.138   3.068 -0.1300 -1.0284  1.1064
  248MOL0     C34129   1.554   7.237   3.183 -0.4274  0.5073  0.2305
  248MOL0     C34130   1.655   7.212   3.295  0.5799 -0.1291  0.4607
  248MOL0    Cl34131   1.594   7.147   3.457  0.1426 -0.2052  0.3090
  248MOL0     C34132   2.210   7.188   2.898 -0.2187  0.0948  0.1917
  248MOL0     C34133   2.313   7.267   2.947  0.3624 -0.5258 -0.1923
  248MOL0     O34134   2.385   7.532   3.043  0.4800 -0.8282  0.9813
  248MOL0     C34135   2.584   7.641   3.184 -0.4957  0.2131  0.5769
  248MOL0     C34136   2.681   7.683   3.265 -0.2703 -0.1182 -0.0433
  248MOL0     N34137   3.401   7.915   3.372 -0.4875  1.1231  0.0896
  248MOL0     N34138   3.433   8.017   3.432 -0.6072  0.3112 -0.2929
  248MOL0     C34139   3.840   9.195   3.678 -0.0497 -0.7898  0.6743
  248MOL0     C34140   3.828   9.329   3.633 -0.6910  0.0319  0.0061
  248MOL0     C34141   3.587   9.724   3.479  0.7093 -0.1773 -0.5949
  248MOL0     C34142   3.707   9.773   3.417 -0.2962 -0.7167  0.3168
  248MOL0     C34143   3.704   9.906   3.380 -0.2057  0.4880 -0.8071
  248MOL0     C34144   3.589   9.992   3.393 -0.5763 -0.4234  0.3980
  248MOL0     O34145   3.597  10.121   3.352 -0.0648 -0.6246  0.2957
  248MOL0     C34146   3.487  10.195   3.294  0.2896  0.4096 -0.2387
  248MOL0     C34147   3.535  10.230   3.160 -0.5890 -0.5502  0.3145
  248MOL0     C34148   3.576  10.109   3.070 -0.0704  0.5065  0.4823
  248MOL0     C34149   3.632  10.151   2.933  0.2756  0.0078 -0.0561
  248MOL0     C34150   3.638  10.039   2.843 -0.3468  0.7600 -0.8962
  248MOL0     C34151   3.637   9.936   2.780  0.5791  0.2180 -0.5516
  248MOL0     C34152   3.479   9.938   3.452 -1.3307 -0.0627 -0.0372
  248MOL0     C34153   3.483   9.817   3.510 -0.3214 -0.0440 -0.2584
  248MOL0     C34154   3.366   9.780   3.595 -0.1887  0.4107  0.3320
  248MOL0     H34155   3.514   9.406   3.740 -1.1437  0.0830 -3.9632
  248MOL0     H34156   3.536   9.192   3.838 -0.9085  0.5174 -0.6948
  248MOL0     H34157   3.777   8.927   3.629  1.4558  0.9908  1.3037
  248MOL0     H34158   3.605   8.920   3.686  1.7046 -0.7683 -5.4829
  248MOL0     H34159   3.825   8.771   3.826  0.3177 -0.5145 -1.9080
  248MOL0     H34160   3.650   8.771   3.848 -0.6019  2.5156  0.2440
  248MOL0     H34161   3.665   8.690   3.590 -4.1827 -3.6932  1.5572
  248MOL0     H34162   3.836   8.644   3.632 -1.3263 -4.4839 -1.5005
  248MOL0     H34163   3.756   8.517   3.822 -1.0491 -1.4170  0.7973
  248MOL0     H34164   3.588   8.562   3.787 -2.1899 -0.2964 -4.2191
  248MOL0     H34165   3.771   8.399   3.609 -0.9486 -2.3026  0.6429
  248MOL0     H34166   3.639   8.477   3.554 -0.4491  1.3906  1.3202
  248MOL0     H34167   3.639   8.262   3.799 -1.7907 -1.2863 -0.5167
  248MOL0     H34168   3.502   8.342   3.745 -0.2856  0.8268 -0.2734
  248MOL0     H34169   3.689   8.136   3.592  0.3947  0.0320  0.0344
  248MOL0     H34170   3.570   8.221   3.505  0.1155  0.3769  0.4069
  248MOL0     H34171   3.533   8.027   3.748 -0.4067 -0.9629  0.6169
  248MOL0     H34172   3.399   8.126   3.693 -0.2022  1.6379 -5.3908
  248MOL0     H34173   3.494   7.795   3.665  3.4375  2.5274  0.5133
  248MOL0     H34174   3.463   7.604   3.451  1.4249 -0.5240 -2.4804
  248MOL0     H34175   3.399   7.655   3.298 -1.1795 -0.3694  0.6385
  248MOL0     H34176   3.245   7.509   3.428 -0.4520  0.4025 -0.9490
  248MOL0     H34177   3.226   7.657   3.539 -0.1982 -0.1696  0.3435
  248MOL0     H34178   3.160   7.785   3.338  1.6994  0.0978  0.4815
  248MOL0     H34179   3.179   7.638   3.238  2.0525  0.6958  0.0833
  248MOL0     H34180   2.993   7.523   3.334  3.8933 -0.5734 -1.8943
  248MOL0     H34181   2.992   7.635   3.471  0.5495  3.1485  0.8997
  248MOL0     H34182   2.949   7.566   3.094  0.2354  1.0437  0.9562
  248MOL0     H34183   2.733   7.440   2.842  1.1302  2.8791 -0.2858
  248MOL0     H34184   2.763   7.323   2.974  0.1632 -0.8171 -1.4291
  248MOL0     H34185   2.892   7.415   2.926 -0.7175 -0.3199  1.4601
  248MOL0     H34186   2.467   7.333   2.657 -1.1539  1.4104 -0.1415
  248MOL0     H34187   2.281   7.156   2.578  1.1007  0.0500  0.3579
  248MOL0     H34188   2.027   6.857   2.754  2.5870 -0.3018 -1.4733
  248MOL0     H34189   2.095   6.928   2.907 -1.2994  2.4333  0.5305
  248MOL0     H34190   1.924   7.104   2.899  2.7079  0.7556 -1.5786
  248MOL0     H34191   1.892   7.084   2.735  1.9045 -1.4140 -1.4812
  248MOL0     H34192   1.821   6.862   2.912  0.7923  1.0360  0.7867
  248MOL0     H34193   1.765   6.883   2.748 -1.8113  0.2232  0.0690
  248MOL0     H34194   1.591   6.944   2.902 -0.6357  0.7832  1.6534
  248MOL0     H34195   1.632   7.093   2.809 -0.9495  1.0123  0.5999
  248MOL0     H34196   1.744   7.042   3.076  2.4025  2.3684  0.7105
  248MOL0     H34197   1.727   7.199   2.992 -1.0873 -0.4436 -1.6647
  248MOL0     H34198   1.489   7.048   3.104 -1.4939 -0.1853  1.3869
  248MOL0     H34199   1.481   7.193   2.993  2.5141  2.9292  1.5989
  248MOL0     H34200   1.459   7.245   3.237 -1.0261 -3.7767  0.1594
  248MOL0     H34201   1.570   7.338   3.142  0.2718  0.4747  0.4025
  248MOL0     H34202   1.714   7.303   3.309  0.1578  0.4187 -1.1265
  248MOL0     H34203   1.723   7.130   3.273  2.3636  1.2948  0.3760
  248MOL0     H34204   2.133   7.171   2.974 -2.1794  0.5883 -1.5870
  248MOL0     H34205   2.338   7.286   3.051  1.8307 -0.9468 -0.4388
  248MOL0     H34206   2.484   7.679   3.204 -0.8622  0.9749 -2.3224
  248MOL0     H34207   2.658   7.727   3.362  1.6358 -1.5045  1.0973
  248MOL0     H34208   3.934   9.146   3.653 -0.1996 -1.3663  1.2266
  248MOL0     H34209   3.905   9.379   3.575  0.1845  1.7975  2.4895
  248MOL0     H34210   3.787   9.701   3.399 -0.2298 -0.7097  0.5819
  248MOL0     H34211   3.796   9.946   3.338 -0.5640  2.1106 -0.1351
  248MOL0     H34212   3.401  10.129   3.281  1.6511 -1.7111  0.8718
  248MOL0     H34213   3.461  10.280   3.359 -1.0383 -1.0570  1.2401
  248MOL0     H34214   3.625  10.289   3.182 -2.4912  1.9647  1.8851
  248MOL0     H34215   3.462  10.295   3.111 -0.4100 -2.3182 -2.5211
  248MOL0     H34216   3.653  10.046   3.116  1.4494  0.9790 -1.2892
  248MOL0     H34217   3.482  10.053   3.059  0.7961 -1.2541  1.5680
  248MOL0     H34218   3.734  10.190   2.938  0.9684 -1.5245 -1.1858
  248MOL0     H34219   3.565  10.229   2.896  2.1072  3.0620  2.5391
  248MOL0     H34220   3.647   9.848   2.719  1.5363  1.4882 -2.3240
  248MOL0     H34221   3.410  10.017   3.481  0.1097  0.0373  3.6022
  248MOL0     H34222   3.387   9.732   3.691 -1.9527  3.3076  2.3123
  248MOL0     H34223   3.325   9.876   3.627 -2.0645 -0.9839  2.3630
  248MOL0     H34224   3.288   9.738   3.531  2.1085  0.3098 -2.6171
  249MOL0     O34225  10.022   5.785   6.628  0.8099  0.2275 -0.0402
  249MOL0     C34226  10.088   5.830   6.719  0.1934  0.2407  0.5285
  249MOL0     O34227  10.115   5.768   6.836 -0.2462 -0.4430 -0.7218
  249MOL0     C34228  10.060   5.648   6.872 -0.0478 -1.1336 -0.1996
  249MOL0     C34229  10.102   5.608   7.001  0.1187 -0.2067  0.3064
  249MOL0     C34230  10.071   5.479   7.047 -0.4874 -0.9149 -0.5353
  249MOL0     C34231   9.999   5.388   6.974  0.2165 -0.0607  0.8712
  249MOL0     O34232   9.973   5.275   7.046 -0.0726  0.3365 -0.4180
  249MOL0     C34233   9.861   5.189   7.012  0.3005  0.3473  0.2726
  249MOL0     C34234   9.790   5.140   7.139 -0.5606 -0.7253 -0.4256
  249MOL0     C34235   9.862   5.024   7.217  0.3656  0.6898  0.8364
  249MOL0     C34236   9.768   4.939   7.306 -0.0774  0.4307 -0.0759
  249MOL0     C34237   9.840   4.876   7.431  0.2929  0.5421  0.8356
  249MOL0     C34238   9.732   4.841   7.541 -0.8449 -0.2048 -0.2403
  249MOL0     C34239   9.814   4.788   7.667  0.2214 -0.6963 -0.3321
  249MOL0     C34240   9.900   4.668   7.648 -0.2313 -0.6654 -0.0114
  249MOL0     N34241   9.924   4.598   7.774 -0.4522  0.2537 -0.0970
  249MOL0     C34242   9.831   4.568   7.868  0.0489 -0.3368  0.2301
  249MOL0     C34243   9.902   4.503   7.958 -0.1445  0.6241  0.1023
  249MOL0     C34244   9.846   4.455   8.093  0.3033 -0.0674  0.6843
  249MOL0     C34245   9.957   4.467   8.203  1.0378  0.9802  0.3884
  249MOL0     C34246   9.901   4.427   8.342 -1.1469 -0.8157 -0.8656
  249MOL0     C34247  10.018   4.402   8.453 -0.1167 -0.3377  0.7653
  249MOL0     O34248  10.095   4.284   8.411  0.1336 -0.0011  0.4919
  249MOL0     C34249  10.174   4.209   8.497  0.7585 -0.3172  0.3890
  249MOL0     C34250  10.275   4.133   8.444 -0.0974  0.2818  0.2116
  249MOL0     C34251  10.367   4.057   8.524 -0.6660  0.2462  0.5851
  249MOL0     C34252  10.487   3.995   8.454  0.0264 -0.0325 -0.3983
  249MOL0     C34253  10.344   4.052   8.664 -0.3759 -0.4938 -0.2289
  249MOL0     C34254  10.436   3.988   8.758 -0.5961  0.6949  0.0227
  249MOL0     O34255  10.469   3.855   8.733 -0.0878  0.6642  0.4177
  249MOL0     C34256  10.556   3.777   8.796 -0.0851  1.5021 -0.5433
  249MOL0     C34257  10.559   3.642   8.749 -1.1285 -0.5905  1.6615
  249MOL0     C34258  10.619   3.539   8.818  0.8695  0.1210  0.7733
  249MOL0     C34259  10.704   3.575   8.924  0.5982 -0.5923  0.4608
  249MOL0     O34260  10.781   3.470   8.971 -1.3303 -0.3975 -0.2313
  249MOL0     C34261  10.872   3.493   9.078 -0.1004 -1.1739  0.6492
  249MOL0     C34262  10.961   3.372   9.089  0.3628  0.1854  0.0560
  249MOL0     C34263  11.087   3.389   9.008  0.2915 -0.0226 -0.6581
  249MOL0     C34264  11.163   3.240   9.026  1.5406 -0.0791 -0.0273
  249MOL0     C34265  11.313   3.258   8.995  0.8901  0.0819 -0.2823
  249MOL0     C34266  11.341   3.277   8.846  0.2231 -0.6730  0.9464
  249MOL0     C34267  11.488   3.279   8.810  0.5127 -0.3340  0.3267
  249MOL0     C34268  11.503   3.284   8.654  0.1150  0.2818 -0.1890
  249MOL0    Cl34269  11.475   3.443   8.575 -0.2914 -0.2083  0.0213
  249MOL0     C34270  10.710   3.704   8.972  0.8585 -0.3965 -0.9182
  249MOL0     C34271  10.624   3.801   8.915 -0.9631 -0.0319 -0.4181
  249MOL0     O34272  10.467   4.057   8.855 -0.2063 -0.5720 -0.3034
  249MOL0     C34273  10.232   4.110   8.712  0.1524 -0.5005  0.0004
  249MOL0     C34274  10.159   4.192   8.632  0.9602 -0.4918  0.4951
  249MOL0     N34275  10.024   4.472   7.905 -0.5372 -0.9223 -0.4445
  249MOL0     N34276  10.044   4.535   7.794 -0.1283  0.2786 -0.5043
  249MOL0     C34277   9.944   5.425   6.852 -0.4529 -0.3261  0.0605
  249MOL0     C34278   9.979   5.558   6.798 -0.2182 -0.6742  0.2709
  249MOL0     C34279  10.141   5.971   6.693 -0.5080 -0.0853  0.6372
  249MOL0     C34280  10.185   6.020   6.574  0.9585 -0.0292  0.0096
  249MOL0     C34281  10.228   6.152   6.539 -0.1978 -0.9284  0.1644
  249MOL0     C34282  10.224   6.246   6.641 -0.2764 -0.3022  0.0575
  249MOL0     O34283  10.263   6.379   6.601 -0.2635 -0.7647 -0.4785
  249MOL0     C34284  10.260   6.490   6.705  0.5148 -0.0360  0.5778
  249MOL0     C34285  10.381   6.502   6.791  0.3525  0.5464  0.1669
  249MOL0     C34286  10.481   6.585   6.718 -0.7342 -0.0103 -0.4286
  249MOL0     C34287  10.551   6.519   6.591 -0.3263  0.3773 -0.2298
  249MOL0     C34288  10.585   6.375   6.606 -0.2094  0.0919  0.6291
  249MOL0     C34289  10.609   6.256   6.594  0.4105  0.1616 -0.4645
  249MOL0     C34290  10.190   6.204   6.769  0.3294  0.3539  0.2578
  249MOL0     C34291  10.147   6.065   6.801 -1.0973 -0.4621 -0.0770
  249MOL0     C34292  10.078   6.047   6.935 -0.1534 -1.1506 -0.8161
  249MOL0     H34293  10.164   5.664   7.070 -0.5514 -2.3374  2.7829
  249MOL0     H34294  10.098   5.438   7.143 -0.1581 -2.4492 -1.2437
  249MOL0     H34295   9.876   5.113   6.935 -0.6025  1.9317 -1.5308
  249MOL0     H34296   9.785   5.251   6.964 -1.7033 -2.3075 -0.2577
  249MOL0     H34297   9.790   5.227   7.206  1.5186  2.3070 -3.9581
  249MOL0     H34298   9.687   5.110   7.116  0.3024 -1.3244 -4.2291
  249MOL0     H34299   9.925   4.966   7.149 -2.2359 -1.4016  0.0402
  249MOL0     H34300   9.927   5.075   7.289  0.1378 -1.2453  2.5205
  249MOL0     H34301   9.689   5.008   7.338  1.3988  3.0546 -1.7013
  249MOL0     H34302   9.718   4.856   7.254 -0.5755  0.5719  0.1667
  249MOL0     H34303   9.894   4.962   7.472  0.4781 -0.0227  1.8019
  249MOL0     H34304   9.909   4.798   7.398 -0.2427  0.5419 -0.3542
  249MOL0     H34305   9.675   4.933   7.561 -1.5189 -0.5594 -0.5133
  249MOL0     H34306   9.664   4.767   7.499  0.1825 -2.4852  1.8500
  249MOL0     H34307   9.733   4.767   7.738  1.4572 -0.9832  1.0321
  249MOL0     H34308   9.877   4.871   7.700  1.4885 -0.3758 -3.2617
  249MOL0     H34309   9.849   4.593   7.587  3.5175 -2.7602 -0.8996
  249MOL0     H34310   9.995   4.687   7.597 -0.9946 -2.0101 -2.0520
  249MOL0     H34311   9.728   4.593   7.890  0.3592  0.3737  0.9518
  249MOL0     H34312   9.832   4.347   8.083 -0.4963  0.0472  0.5000
  249MOL0     H34313   9.753   4.498   8.131 -0.5339 -2.2094  1.1837
  249MOL0     H34314  10.046   4.409   8.176  0.4864 -0.5661  1.7746
  249MOL0     H34315   9.991   4.571   8.203  0.8918  1.1941 -3.6242
  249MOL0     H34316   9.823   4.498   8.371 -1.0177 -0.9006 -0.3010
  249MOL0     H34317   9.857   4.327   8.335  0.7320 -1.5745 -2.8295
  249MOL0     H34318  10.080   4.492   8.457 -1.0843  0.3086  1.7637
  249MOL0     H34319   9.977   4.388   8.554  0.7341  1.5188  1.4098
  249MOL0     H34320  10.294   4.139   8.338 -1.5848  0.3199 -0.0804
  249MOL0     H34321  10.570   3.990   8.525 -0.6324  0.4223  0.4070
  249MOL0     H34322  10.514   4.069   8.378  3.6192 -0.6210  0.1124
  249MOL0     H34323  10.474   3.896   8.407  0.4341 -1.0316  1.5083
  249MOL0     H34324  10.510   3.628   8.653 -0.5595 -0.5904  1.3678
  249MOL0     H34325  10.623   3.446   8.761 -2.2237  1.1588 -1.4122
  249MOL0     H34326  10.945   3.572   9.059 -0.6109 -0.2671  2.2429
  249MOL0     H34327  10.820   3.519   9.171  0.3836  1.1826  0.3250
  249MOL0     H34328  10.986   3.378   9.195 -1.0605  3.9667  0.3432
  249MOL0     H34329  10.908   3.285   9.050  1.2559  0.6953 -2.4898
  249MOL0     H34330  11.145   3.474   9.044 -0.0238  0.1614 -0.5864
  249MOL0     H34331  11.069   3.414   8.903 -0.7334 -1.9173 -0.9867
  249MOL0     H34332  11.096   3.167   8.980 -0.5998  2.1931 -0.7265
  249MOL0     H34333  11.163   3.205   9.130  1.8192 -1.2576 -0.4165
  249MOL0     H34334  11.358   3.341   9.050  0.2046  0.0344  0.3695
  249MOL0     H34335  11.366   3.168   9.026  1.4986  0.0735 -1.2942
  249MOL0     H34336  11.306   3.370   8.801  0.7455  0.3309  2.5310
  249MOL0     H34337  11.290   3.193   8.797  1.4345 -0.1604 -1.3067
  249MOL0     H34338  11.530   3.183   8.840  1.0318 -1.0920 -2.5315
  249MOL0     H34339  11.547   3.358   8.856 -2.3028  3.3754 -1.8372
  249MOL0     H34340  11.441   3.206   8.609  3.4176 -1.4069 -2.1767
  249MOL0     H34341  11.607   3.256   8.635 -0.1499 -2.8895  2.3162
  249MOL0     H34342  10.772   3.752   9.047 -1.5602  2.5948 -0.6381
  249MOL0     H34343  10.615   3.904   8.948  1.9716 -0.0499  0.7503
  249MOL0     H34344  10.210   4.123   8.817 -3.7765  0.9643 -0.8332
  249MOL0     H34345  10.087   4.255   8.684 -0.0613 -0.8118 -0.4942
  249MOL0     H34346   9.885   5.356   6.794  0.1760 -0.3641 -0.5481
  249MOL0     H34347   9.940   5.583   6.700  2.4390  0.4544 -0.6039
  249MOL0     H34348  10.161   5.951   6.493 -3.0565 -1.0410  1.8043
  249MOL0     H34349  10.253   6.179   6.437 -1.4808 -1.1980 -0.2493
  249MOL0     H34350  10.245   6.574   6.636 -2.0334 -1.9149 -1.3982
  249MOL0     H34351  10.168   6.483   6.764  1.0338 -0.9197  1.3057
  249MOL0     H34352  10.425   6.403   6.803 -3.6227 -1.6464 -1.5353
  249MOL0     H34353  10.351   6.537   6.891  3.7662 -1.6732  2.1744
  249MOL0     H34354  10.441   6.677   6.673  0.0523 -0.0168 -1.1715
  249MOL0     H34355  10.561   6.607   6.789  0.6801 -0.6046 -1.7896
  249MOL0     H34356  10.640   6.577   6.565 -0.0800 -0.9913 -2.7387
  249MOL0     H34357  10.486   6.525   6.503  0.8137  4.2051 -0.9989
  249MOL0     H34358  10.648   6.158   6.612  0.2717  0.2941  0.5934
  249MOL0     H34359  10.179   6.279   6.846 -3.7095  0.7197 -0.4435
  249MOL0     H34360   9.985   6.105   6.933  1.1854  1.0820 -1.7401
  249MOL0     H34361  10.051   5.945   6.964  0.5220 -0.8472  1.0452
  249MOL0     H34362  10.150   6.075   7.012 -1.8519 -1.7947  1.1080
  250MOL0     O34363   5.827   3.784   9.869 -0.0447  0.3142  0.1296
  250MOL0     C34364   5.873   3.857   9.781  0.2154 -0.3262 -1.0521
  250MOL0     O34365   6.001   3.873   9.757  0.0936 -0.4713  0.6337
  250MOL0     C34366   6.089   3.775   9.807 -0.0554 -0.2442 -0.1503
  250MOL0     C34367   6.131   3.670   9.728 -0.5197  0.7787 -0.1576
  250MOL0     C34368   6.240   3.598   9.783 -0.1337 -0.0280  0.2235
  250MOL0     C34369   6.303   3.623   9.899  0.2739 -0.7777 -1.0082
  250MOL0     O34370   6.382   3.541   9.971  0.1286 -0.4363  0.0986
  250MOL0     C34371   6.428   3.418   9.911 -0.1046 -0.1457  0.5362
  250MOL0     C34372   6.521   3.347  10.008  0.5105  0.4912  0.2208
  250MOL0     C34373   6.658   3.428  10.048 -0.1774 -0.4185 -0.6629
  250MOL0     C34374   6.708   3.378  10.186 -0.3320  0.3486  0.0354
  250MOL0     C34375   6.728   3.226  10.206 -0.6915 -0.6460  0.5195
  250MOL0     C34376   6.814   3.153  10.097 -0.6222  1.1389  0.0283
  250MOL0     C34377   6.854   3.005  10.132 -0.2266  0.2093  0.1321
  250MOL0     C34378   6.740   2.898  10.123  0.1872 -0.6577  0.0814
  250MOL0     N34379   6.794   2.766  10.110 -0.6090  0.2059  0.9133
  250MOL0     C34380   6.867   2.723   9.999 -0.3194  0.0550  0.2537
  250MOL0     C34381   6.903   2.596  10.032 -0.8557  0.2834 -0.6546
  250MOL0     C34382   7.003   2.506   9.948  1.0427 -0.2962 -0.0711
  250MOL0     C34383   7.131   2.579   9.939  1.1236  0.3826  0.7914
  250MOL0     C34384   7.237   2.537  10.046  0.6039 -0.1897  0.4486
  250MOL0     C34385   7.357   2.640  10.048  0.2329  0.3188  1.1009
  250MOL0     O34386   7.479   2.598   9.991 -0.6127  0.0347 -0.5188
  250MOL0     C34387   7.576   2.689   9.970 -0.4267 -0.0138 -0.6228
  250MOL0     C34388   7.554   2.803   9.894 -0.3389  0.7414  0.4957
  250MOL0     C34389   7.649   2.904   9.884  0.2507 -0.4206  0.0882
  250MOL0     C34390   7.613   3.027   9.796 -0.9760 -0.1356  0.1244
  250MOL0     C34391   7.778   2.893   9.948 -0.2476 -0.7592  0.0523
  250MOL0     C34392   7.892   2.993   9.953  0.0491  0.2571 -0.1593
  250MOL0     O34393   8.009   2.952  10.034  0.7195  0.5928  1.0360
  250MOL0     C34394   8.106   3.044  10.050 -0.8225 -0.7969 -0.2546
  250MOL0     C34395   8.232   3.059   9.979 -0.2430  0.0827 -0.4476
  250MOL0     C34396   8.325   3.156  10.020  0.1738 -0.3533  0.1303
  250MOL0     C34397   8.308   3.241  10.131  0.8473  0.4728 -0.0193
  250MOL0     O34398   8.405   3.321  10.183 -0.3308 -0.4033  0.3227
  250MOL0     C34399   8.535   3.272  10.164  0.5521  0.5401 -0.8788
  250MOL0     C34400   8.632   3.354  10.249  0.2700  0.1016  1.2450
  250MOL0     C34401   8.622   3.510  10.224  0.0034  0.5538  0.9909
  250MOL0     C34402   8.710   3.613  10.309  0.5658  0.4632 -0.3219
  250MOL0     C34403   8.841   3.558  10.364 -0.1355  0.1305 -0.2838
  250MOL0     C34404   8.907   3.612  10.496  0.5314 -0.3482  1.0679
  250MOL0     C34405   9.008   3.511  10.561  0.2419 -0.8419  0.5333
  250MOL0     C34406   9.050   3.556  10.698 -0.3848 -0.9209 -0.2080
  250MOL0    Cl34407   9.166   3.442  10.793 -0.3476 -0.1587 -0.0678
  250MOL0     C34408   8.182   3.223  10.198 -0.2207  0.2844  0.4563
  250MOL0     C34409   8.082   3.135  10.157 -0.2294  0.5022 -0.0702
  250MOL0     O34410   7.883   3.101   9.901  0.5500 -0.1594  0.0405
  250MOL0     C34411   7.797   2.778  10.019 -0.9416 -0.1140 -0.1043
  250MOL0     C34412   7.696   2.679  10.032 -0.1435 -0.6464  0.0284
  250MOL0     N34413   6.845   2.564  10.158  0.4573  0.3342  1.0551
  250MOL0     N34414   6.787   2.673  10.205 -0.0342  0.6487  0.1039
  250MOL0     C34415   6.262   3.732   9.975  0.3064  0.0919  0.1850
  250MOL0     C34416   6.152   3.811   9.937  0.8685  0.2973 -0.0732
  250MOL0     C34417   5.778   3.942   9.702  0.7032  0.6104  0.5206
  250MOL0     C34418   5.837   4.028   9.609 -0.7092  0.3892  0.3016
  250MOL0     C34419   5.764   4.117   9.531 -0.1011 -0.2285  0.5874
  250MOL0     C34420   5.626   4.128   9.550 -1.1824 -0.8488 -0.9640
  250MOL0     O34421   5.559   4.215   9.466 -0.7118  0.6463  0.1505
  250MOL0     C34422   5.537   4.345   9.510  0.3929 -0.6027 -0.4652
  250MOL0     C34423   5.657   4.433   9.485 -0.2735 -0.6045  0.4085
  250MOL0     C34424   5.601   4.563   9.449  0.1991 -0.4452  0.8491
  250MOL0     C34425   5.702   4.670   9.393 -0.6144  0.2736 -0.1861
  250MOL0     C34426   5.624   4.790   9.371 -0.3857 -0.6180 -0.4448
  250MOL0     C34427   5.580   4.902   9.351 -0.2241 -1.2105  0.0267
  250MOL0     C34428   5.565   4.044   9.640  0.1630 -0.8333  0.3687
  250MOL0     C34429   5.639   3.950   9.712 -0.3225 -0.7436  0.5985
  250MOL0     C34430   5.565   3.877   9.820  0.5035 -0.0602 -0.6355
  250MOL0     H34431   6.083   3.648   9.633 -1.8443 -1.8514  0.9815
  250MOL0     H34432   6.273   3.507   9.734 -1.0428 -0.0250 -0.4247
  250MOL0     H34433   6.478   3.427   9.814 -0.3488  2.3211  0.5829
  250MOL0     H34434   6.344   3.349   9.903  0.2342 -0.5331  0.3049
  250MOL0     H34435   6.456   3.332  10.094 -2.5297 -0.0034 -1.9835
  250MOL0     H34436   6.550   3.257   9.953 -1.8784 -0.9992  1.2468
  250MOL0     H34437   6.731   3.398   9.972 -2.5182 -0.4189 -3.0843
  250MOL0     H34438   6.639   3.536  10.055  0.9090 -0.2694  0.3643
  250MOL0     H34439   6.797   3.438  10.206 -0.6480  0.7853  0.1466
  250MOL0     H34440   6.620   3.405  10.246 -2.9459 -0.4171 -3.1488
  250MOL0     H34441   6.631   3.176  10.211 -1.8120  1.4226  0.7608
  250MOL0     H34442   6.790   3.215  10.296 -0.1756  4.1758  1.0556
  250MOL0     H34443   6.758   3.164  10.003  2.4361  0.2579 -2.0336
  250MOL0     H34444   6.901   3.217  10.080  0.5227  0.0283  1.4391
  250MOL0     H34445   6.921   2.998  10.218 -2.2774 -1.4356  1.7065
  250MOL0     H34446   6.912   2.986  10.041 -1.1870 -0.4417 -0.3704
  250MOL0     H34447   6.675   2.911  10.210 -1.7344  0.4703 -1.4430
  250MOL0     H34448   6.671   2.914  10.040  3.3083 -0.3877 -2.6648
  250MOL0     H34449   6.896   2.769   9.905 -1.9967 -0.7948 -0.7228
  250MOL0     H34450   6.966   2.499   9.846  1.0023  0.3420 -0.1047
  250MOL0     H34451   7.008   2.405   9.989 -0.3539 -0.4956 -0.3360
  250MOL0     H34452   7.169   2.560   9.838  2.3827 -2.0526  1.6468
  250MOL0     H34453   7.123   2.688   9.944  0.8559  0.6342 -2.6219
  250MOL0     H34454   7.189   2.534  10.144  1.6419  1.8559  1.0889
  250MOL0     H34455   7.268   2.434  10.030  1.9028  0.2445  0.0034
  250MOL0     H34456   7.329   2.738  10.009  1.2922  0.8320  1.5860
  250MOL0     H34457   7.380   2.664  10.152  0.5188 -1.2022  1.4199
  250MOL0     H34458   7.468   2.814   9.830  1.8055  4.3144 -2.1154
  250MOL0     H34459   7.698   3.089   9.765 -0.6526 -0.7867 -0.3194
  250MOL0     H34460   7.543   3.082   9.860  2.1276  1.0510  2.7863
  250MOL0     H34461   7.568   3.005   9.698 -0.0364  1.0645 -0.6144
  250MOL0     H34462   8.266   2.982   9.911 -0.2338 -0.0006 -0.3496
  250MOL0     H34463   8.406   3.166   9.949  2.2098  1.2966  2.5571
  250MOL0     H34464   8.544   3.165  10.185  1.5683  0.7241 -0.3018
  250MOL0     H34465   8.573   3.283  10.062  2.6235  1.8345 -0.0299
  250MOL0     H34466   8.606   3.333  10.353 -1.4489 -1.0056  0.6451
  250MOL0     H34467   8.734   3.319  10.229 -0.5391 -1.3763 -0.6373
  250MOL0     H34468   8.519   3.548  10.229 -0.0534  0.7103 -0.7045
  250MOL0     H34469   8.655   3.524  10.120  2.5790  1.0835  1.8063
  250MOL0     H34470   8.658   3.632  10.403  4.0836 -0.8424  2.0804
  250MOL0     H34471   8.721   3.704  10.250 -0.0420 -1.0337 -2.9039
  250MOL0     H34472   8.831   3.449  10.375  2.7560 -0.2251 -0.2305
  250MOL0     H34473   8.924   3.565  10.294 -1.4152  1.3846 -1.7503
  250MOL0     H34474   8.827   3.625  10.570 -0.8851  2.4318 -0.7864
  250MOL0     H34475   8.949   3.712  10.488 -0.3552  0.0957  1.7993
  250MOL0     H34476   9.100   3.503  10.502 -0.6308  0.3829 -1.0828
  250MOL0     H34477   8.967   3.410  10.575 -1.3933 -1.2604 -4.9970
  250MOL0     H34478   8.959   3.560  10.759  0.0508 -2.5421  0.6321
  250MOL0     H34479   9.095   3.655  10.701 -0.7859 -0.6801 -1.4826
  250MOL0     H34480   8.153   3.274  10.289  2.0878 -0.8005  1.8832
  250MOL0     H34481   7.992   3.132  10.217  1.5493 -0.7999  2.7730
  250MOL0     H34482   7.892   2.756  10.066  1.2343  2.2989 -2.9529
  250MOL0     H34483   7.711   2.593  10.097  1.7420  0.6638  1.4479
  250MOL0     H34484   6.309   3.748  10.071  1.4389 -1.5484 -0.0614
  250MOL0     H34485   6.118   3.887  10.006 -0.5529  0.9942 -1.4664
  250MOL0     H34486   5.944   4.041   9.599 -0.6724 -1.5832 -4.3346
  250MOL0     H34487   5.817   4.178   9.458  1.5512 -2.5023 -0.2343
  250MOL0     H34488   5.445   4.384   9.466  0.9670  0.0751 -1.0809
  250MOL0     H34489   5.525   4.340   9.619  1.8211 -2.6704 -0.3442
  250MOL0     H34490   5.714   4.405   9.396 -2.8549  0.4671 -1.7054
  250MOL0     H34491   5.726   4.438   9.570 -1.8214 -1.9128  1.8292
  250MOL0     H34492   5.523   4.551   9.373  0.3528  0.8501  0.4557
  250MOL0     H34493   5.550   4.612   9.532  1.2230  1.2699  0.5157
  250MOL0     H34494   5.746   4.646   9.296  0.1999 -0.9082  0.4487
  250MOL0     H34495   5.778   4.685   9.470 -3.1092  0.6686  2.3768
  250MOL0     H34496   5.534   4.997   9.335 -0.4263 -1.4919 -1.2238
  250MOL0     H34497   5.457   4.047   9.642  0.0983 -2.3390  0.7464
  250MOL0     H34498   5.567   3.925   9.918 -1.7900 -3.0477  1.0543
  250MOL0     H34499   5.459   3.885   9.794  1.4044  2.9376 -4.0539
  250MOL0     H34500   5.590   3.772   9.837  1.5394  0.2275 -0.2953
  251MOL0     O34501   2.070   9.712   3.978  0.7136  0.1682 -0.0314
  251MOL0     C34502   2.167   9.702   4.051 -0.2449  0.1434  0.6277
  251MOL0     O34503   2.194   9.782   4.154  0.0440 -0.6966 -0.0168
  251MOL0     C34504   2.093   9.834   4.225 -0.6603 -0.7761 -0.7101
  251MOL0     C34505   1.950   9.802   4.231  0.1065 -0.4932 -0.0233
  251MOL0     C34506   1.868   9.862   4.321 -0.1163 -0.2260 -0.2722
  251MOL0     C34507   1.927   9.944   4.425 -0.1104  1.0118 -0.5745
  251MOL0     O34508   1.842   9.998   4.518  0.1381  0.7993 -0.0995
  251MOL0     C34509   1.711   9.947   4.537 -0.3620  0.1863 -0.7327
  251MOL0     C34510   1.644  10.002   4.663  0.0352  0.0871 -1.2598
  251MOL0     C34511   1.703   9.934   4.797 -0.1505 -0.2497  0.5632
  251MOL0     C34512   1.673   9.789   4.807 -0.3471  0.4570  0.1758
  251MOL0     C34513   1.700   9.723   4.942  0.8815 -0.1395 -0.5769
  251MOL0     C34514   1.570   9.646   4.995  0.0383  1.0189  0.6684
  251MOL0     C34515   1.623   9.546   5.100 -0.2095  0.8393  0.0584
  251MOL0     C34516   1.517   9.507   5.199  0.7861 -0.6623  0.0925
  251MOL0     N34517   1.485   9.604   5.308  0.0930  0.9219 -0.8941
  251MOL0     C34518   1.372   9.682   5.319 -0.5371 -0.0498  0.3605
  251MOL0     C34519   1.387   9.756   5.427  0.1033  0.6398  0.4593
  251MOL0     C34520   1.280   9.851   5.462 -0.2284  0.3416  0.1274
  251MOL0     C34521   1.312   9.979   5.404 -0.4925 -1.0088  0.4036
  251MOL0     C34522   1.226  10.094   5.466  0.4135 -0.4546  0.4624
  251MOL0     C34523   1.213  10.107   5.616 -0.8477  0.8694 -0.2183
  251MOL0     O34524   1.333  10.128   5.683 -0.9267 -0.0402  0.3750
  251MOL0     C34525   1.351  10.256   5.743 -0.6683 -0.3928  0.2044
  251MOL0     C34526   1.484  10.313   5.730  0.5057 -0.0484  0.1347
  251MOL0     C34527   1.516  10.443   5.785 -0.7122  1.8132 -0.7462
  251MOL0     C34528   1.659  10.495   5.776 -0.1437 -0.0059  0.4952
  251MOL0     C34529   1.425  10.507   5.865  0.7010 -0.3676  1.0941
  251MOL0     C34530   1.462  10.626   5.948  0.0433  0.4347  0.2229
  251MOL0     O34531   1.567  10.621   6.027  0.4773 -0.6037  0.1564
  251MOL0     C34532   1.615  10.728   6.106  0.0973 -1.1642 -0.7159
  251MOL0     C34533   1.709  10.693   6.203  0.6867  0.3157 -0.0328
  251MOL0     C34534   1.764  10.788   6.289 -0.1157 -0.5251 -0.2419
  251MOL0     C34535   1.724  10.919   6.280  0.1681 -0.3290 -0.2372
  251MOL0     O34536   1.778  11.010   6.358  0.8739 -0.4916  0.1492
  251MOL0     C34537   1.683  11.080   6.434  0.0780  0.3423  0.7329
  251MOL0     C34538   1.741  11.210   6.487 -0.0014  0.1091  0.3975
  251MOL0     C34539   1.785  11.290   6.364 -0.2348 -0.6344 -0.1141
  251MOL0     C34540   1.783  11.441   6.390 -0.0846 -0.4425  0.4128
  251MOL0     C34541   1.812  11.541   6.279 -0.6363  0.1955 -0.9080
  251MOL0     C34542   1.853  11.682   6.323  0.4995  0.0490 -1.1959
  251MOL0     C34543   1.868  11.777   6.212  0.5401  0.7155 -0.1974
  251MOL0     C34544   1.919  11.910   6.255 -0.1844 -0.0202  0.0684
  251MOL0    Cl34545   1.798  12.012   6.320  0.2423  0.2774 -0.1503
  251MOL0     C34546   1.631  10.956   6.179 -0.5585 -0.0115  0.0682
  251MOL0     C34547   1.574  10.863   6.093 -0.1871 -0.4057  1.1048
  251MOL0     O34548   1.387  10.716   5.930 -0.5890 -0.5616  1.2138
  251MOL0     C34549   1.287  10.459   5.859  0.6256  0.4943  0.0468
  251MOL0     C34550   1.252  10.334   5.799 -0.7178 -0.5672 -0.6441
  251MOL0     N34551   1.509   9.741   5.479  0.2388  0.4569 -0.4398
  251MOL0     N34552   1.567   9.656   5.402  0.7606 -0.1437 -0.6719
  251MOL0     C34553   2.063   9.975   4.437  0.9227 -0.1377 -0.2894
  251MOL0     C34554   2.148   9.901   4.341  0.7424 -0.0270 -0.2174
  251MOL0     C34555   2.259   9.591   4.027  0.5972 -1.3113  0.3546
  251MOL0     C34556   2.292   9.563   3.889  0.6125 -0.9525 -0.1148
  251MOL0     C34557   2.366   9.458   3.854 -0.8010 -0.1974  0.3596
  251MOL0     C34558   2.426   9.382   3.952 -0.8423  0.8802 -0.4493
  251MOL0     O34559   2.504   9.266   3.932  0.0624  0.1694 -0.6019
  251MOL0     C34560   2.590   9.257   3.819 -1.1588 -0.4190  0.2209
  251MOL0     C34561   2.712   9.347   3.825  0.1621 -1.0777  0.4623
  251MOL0     C34562   2.829   9.290   3.746 -0.3878 -0.2995  0.1905
  251MOL0     C34563   2.910   9.189   3.818 -0.3412  0.0087  0.4613
  251MOL0     C34564   3.041   9.162   3.757 -0.1405  0.0936  0.2434
  251MOL0     C34565   3.155   9.126   3.733 -1.4252 -0.8744  0.2410
  251MOL0     C34566   2.399   9.414   4.090 -0.5379 -0.3526  0.2286
  251MOL0     C34567   2.322   9.523   4.127  0.2306 -0.0230 -0.1982
  251MOL0     C34568   2.299   9.546   4.272  0.2368  0.3338 -1.2508
  251MOL0     H34569   1.910   9.742   4.150 -1.1659 -0.9451  0.9073
  251MOL0     H34570   1.761   9.850   4.313  0.1591 -2.0932 -1.7023
  251MOL0     H34571   1.717   9.838   4.544 -0.9106  0.2661  3.8488
  251MOL0     H34572   1.645   9.965   4.451 -1.8663 -0.4761  0.2580
  251MOL0     H34573   1.651  10.111   4.668  1.6460 -0.0342  1.8597
  251MOL0     H34574   1.538   9.979   4.646 -0.3746  1.3947 -0.6397
  251MOL0     H34575   1.810   9.941   4.780 -0.0496  1.9005  1.7342
  251MOL0     H34576   1.676   9.990   4.887 -1.2069 -1.0572  0.7743
  251MOL0     H34577   1.570   9.763   4.780 -0.8171  0.8445  1.5130
  251MOL0     H34578   1.733   9.727   4.740 -0.1117  2.0224 -1.1062
  251MOL0     H34579   1.738   9.803   5.008 -0.7087  2.3692 -2.5052
  251MOL0     H34580   1.780   9.650   4.932  2.2814  1.4604 -1.7360
  251MOL0     H34581   1.498   9.716   5.038 -1.9626 -0.6658  0.1982
  251MOL0     H34582   1.526   9.592   4.911  0.0615 -0.0891  1.3457
  251MOL0     H34583   1.705   9.591   5.156 -1.0662  3.1352 -0.4284
  251MOL0     H34584   1.655   9.454   5.049 -1.9631  0.6139 -0.7204
  251MOL0     H34585   1.422   9.480   5.151  0.6554 -1.0562  0.5696
  251MOL0     H34586   1.530   9.407   5.241 -0.6562 -0.6139  0.7142
  251MOL0     H34587   1.275   9.692   5.271 -0.3730  0.4062  0.1226
  251MOL0     H34588   1.285   9.857   5.572  3.9699 -0.4232  0.1372
  251MOL0     H34589   1.180   9.816   5.435 -1.1055 -0.2911  3.6415
  251MOL0     H34590   1.420   9.996   5.415 -0.6254  0.7284 -0.6299
  251MOL0     H34591   1.289   9.972   5.297  3.3149 -2.8459 -0.4880
  251MOL0     H34592   1.274  10.183   5.425  0.5315 -0.1724  1.2042
  251MOL0     H34593   1.125  10.091   5.424  1.6343 -0.0407 -2.8469
  251MOL0     H34594   1.139  10.186   5.635 -2.1031  0.4897 -2.9671
  251MOL0     H34595   1.172  10.016   5.662 -0.7304  1.1505  0.4413
  251MOL0     H34596   1.553  10.271   5.658 -1.6522  0.6724 -2.5186
  251MOL0     H34597   1.717  10.446   5.697 -1.1189  1.8019 -1.4312
  251MOL0     H34598   1.698  10.500   5.878 -3.4355  3.5325  1.8422
  251MOL0     H34599   1.648  10.599   5.746 -0.9835 -0.3271 -0.3533
  251MOL0     H34600   1.765  10.600   6.210 -2.5487 -1.6377  3.7288
  251MOL0     H34601   1.831  10.746   6.363 -1.1470 -1.7012  0.0495
  251MOL0     H34602   1.599  11.104   6.369  0.4260  0.2854  0.2567
  251MOL0     H34603   1.655  11.017   6.519  0.1672  1.1528  1.3772
  251MOL0     H34604   1.658  11.257   6.542 -1.5604 -2.5856  0.5499
  251MOL0     H34605   1.829  11.201   6.551  0.2387 -0.3466  0.0102
  251MOL0     H34606   1.725  11.255   6.279 -2.0394 -1.1716  1.3295
  251MOL0     H34607   1.890  11.286   6.335  0.5349 -1.4879  2.5595
  251MOL0     H34608   1.854  11.458   6.472  0.5295 -1.8636  0.2138
  251MOL0     H34609   1.683  11.460   6.429 -2.2665  0.9197 -4.9254
  251MOL0     H34610   1.891  11.524   6.206  0.3035  3.1780 -0.7070
  251MOL0     H34611   1.719  11.541   6.221 -0.3772 -0.5594 -1.3353
  251MOL0     H34612   1.944  11.679   6.385 -0.3450  0.9851  0.1466
  251MOL0     H34613   1.772  11.720   6.386  0.7777  0.6484 -1.1985
  251MOL0     H34614   1.770  11.786   6.163  0.6707 -0.9146 -0.8288
  251MOL0     H34615   1.932  11.729   6.137 -0.0262 -2.8269  1.3703
  251MOL0     H34616   1.962  11.943   6.160 -1.5320  0.0487 -0.5441
  251MOL0     H34617   2.005  11.904   6.323 -1.8491  0.1228  2.2824
  251MOL0     H34618   1.612  11.062   6.163  1.0119  0.1483 -0.9500
  251MOL0     H34619   1.513  10.897   6.011  0.8550 -0.6583  0.1895
  251MOL0     H34620   1.208  10.504   5.917 -0.1735 -0.3526 -0.3637
  251MOL0     H34621   1.148  10.303   5.810 -0.4186 -0.5865  5.1557
  251MOL0     H34622   2.101  10.048   4.507 -0.6020 -0.6740  1.1748
  251MOL0     H34623   2.257   9.906   4.347  0.7750 -0.6701 -0.2104
  251MOL0     H34624   2.268   9.636   3.812  2.9018 -1.3641 -1.3068
  251MOL0     H34625   2.392   9.446   3.749 -2.5451  0.9574 -0.2580
  251MOL0     H34626   2.635   9.158   3.812  0.7257  0.4858 -1.8507
  251MOL0     H34627   2.534   9.283   3.730  0.3423 -2.6197 -1.4800
  251MOL0     H34628   2.738   9.353   3.931  2.3653 -0.0093 -0.0671
  251MOL0     H34629   2.680   9.446   3.791  0.6235 -0.3884  1.9349
  251MOL0     H34630   2.810   9.260   3.642  0.1519  2.5776 -0.8236
  251MOL0     H34631   2.884   9.384   3.738  1.5921 -1.5163 -2.2165
  251MOL0     H34632   2.850   9.098   3.814 -0.6739  0.2726 -1.2357
  251MOL0     H34633   2.942   9.217   3.919  3.6445 -0.1386 -0.5695
  251MOL0     H34634   3.261   9.110   3.727 -0.6000  3.1627  0.8666
  251MOL0     H34635   2.439   9.346   4.165 -1.1152 -0.7188  0.2137
  251MOL0     H34636   2.327   9.460   4.334 -0.4575  3.1448  3.4254
  251MOL0     H34637   2.362   9.629   4.303  0.2252 -0.0402 -0.2113
  251MOL0     H34638   2.191   9.558   4.277  0.1563 -0.5824  3.1320
  252MOL0     O34639   0.500   8.684   5.493  0.1770  0.3260  0.1192
  252MOL0     C34640   0.397   8.668   5.555  0.5206  0.7034  0.9817
  252MOL0     O34641   0.272   8.723   5.524 -0.2054  0.2780 -0.0239
  252MOL0     C34642   0.263   8.811   5.418  0.1714 -0.2150  0.2231
  252MOL0     C34643   0.205   8.926   5.456 -0.4568 -0.8807  1.0237
  252MOL0     C34644   0.175   9.027   5.363  1.0940 -0.5062 -1.1474
  252MOL0     C34645   0.209   9.017   5.234  1.3158  0.6471  0.3263
  252MOL0     O34646   0.184   9.127   5.149 -0.7166  0.5357 -0.2069
  252MOL0     C34647   0.122   9.090   5.031  1.0055 -0.1515  0.3205
  252MOL0     C34648   0.094   9.212   4.940  0.1815 -0.1079 -0.2696
  252MOL0     C34649   0.197   9.332   4.936  0.4252  0.3021  0.1404
  252MOL0     C34650   0.140   9.472   4.928 -0.5310 -0.0819  1.6788
  252MOL0     C34651   0.250   9.575   4.914  0.3783 -0.8314 -0.4511
  252MOL0     C34652   0.197   9.709   4.936  0.1390 -0.0374 -1.0462
  252MOL0     C34653   0.306   9.811   4.910  0.2171 -0.3108 -0.5528
  252MOL0     C34654   0.427   9.810   5.004  0.2403  0.6732  0.8280
  252MOL0     N34655   0.493   9.936   5.004  0.1165  0.6153 -0.2314
  252MOL0     C34656   0.578   9.974   4.902 -0.0966 -1.0737 -0.9444
  252MOL0     C34657   0.618  10.094   4.951 -0.1923 -0.8818 -0.3123
  252MOL0     C34658   0.714  10.179   4.865  0.1855 -0.2270  0.1687
  252MOL0     C34659   0.708  10.332   4.902  1.0472 -0.2986 -0.4640
  252MOL0     C34660   0.740  10.417   4.779  0.0763 -0.1485 -0.7964
  252MOL0     C34661   0.889  10.427   4.748  0.5695 -0.4031 -0.2386
  252MOL0     O34662   0.913  10.504   4.631 -0.1306  0.1649 -0.0217
  252MOL0     C34663   1.046  10.506   4.600  0.2642  0.6338 -0.5068
  252MOL0     C34664   1.139  10.397   4.615  0.8831 -0.7618 -1.4848
  252MOL0     C34665   1.268  10.403   4.560 -0.0743 -0.4150 -0.6848
  252MOL0     C34666   1.349  10.282   4.589  0.5433 -0.6494  0.7614
  252MOL0     C34667   1.302  10.510   4.477 -0.2792  0.7084 -1.2038
  252MOL0     C34668   1.423  10.519   4.399 -0.9444 -0.1463  0.1454
  252MOL0     O34669   1.417  10.617   4.300 -0.1646  0.0806  0.9924
  252MOL0     C34670   1.526  10.616   4.217 -0.0559 -0.4369  0.5968
  252MOL0     C34671   1.644  10.686   4.254  0.2850  0.3367  0.8760
  252MOL0     C34672   1.749  10.684   4.167  0.6507  0.7818 -0.8061
  252MOL0     C34673   1.757  10.601   4.051  0.4531  0.4715 -0.9489
  252MOL0     O34674   1.860  10.610   3.961 -0.1128 -0.2562 -0.3459
  252MOL0     C34675   1.931  10.497   3.924  0.2689 -0.2564 -0.2772
  252MOL0     C34676   1.933  10.491   3.768  0.6021  1.2936  0.8350
  252MOL0     C34677   1.994  10.353   3.729 -0.5340  0.5350 -0.2467
  252MOL0     C34678   1.894  10.234   3.719 -0.7805 -0.1960 -0.2354
  252MOL0     C34679   1.781  10.265   3.627  0.9782  0.0842  0.4709
  252MOL0     C34680   1.702  10.148   3.570  0.5671  0.4250 -0.5506
  252MOL0     C34681   1.791  10.065   3.473 -0.0728 -0.0909 -0.1239
  252MOL0     C34682   1.789  10.131   3.332  0.1042  0.0784 -0.4580
  252MOL0    Cl34683   1.890  10.053   3.207  0.1443 -0.2222 -0.1312
  252MOL0     C34684   1.637  10.535   4.019 -0.0443  1.0073 -0.0571
  252MOL0     C34685   1.520  10.538   4.099 -0.2012 -0.4778  0.3579
  252MOL0     O34686   1.536  10.469   4.436 -0.5256 -0.7817  0.0042
  252MOL0     C34687   1.208  10.619   4.479 -0.8155 -0.0663 -1.1556
  252MOL0     C34688   1.082  10.616   4.530 -0.0007 -0.3706  0.3251
  252MOL0     N34689   0.555  10.127   5.070  0.2094 -0.4116  0.5212
  252MOL0     N34690   0.470  10.036   5.092  0.9657 -0.1016 -0.2378
  252MOL0     C34691   0.274   8.899   5.197  0.0217 -0.2429  0.5890
  252MOL0     C34692   0.290   8.794   5.281 -0.0757  1.0367 -0.5900
  252MOL0     C34693   0.403   8.565   5.660  0.5823  0.0856 -0.2139
  252MOL0     C34694   0.346   8.586   5.781 -0.1925 -1.0002 -0.9591
  252MOL0     C34695   0.363   8.482   5.885 -0.1291 -0.4526 -0.0853
  252MOL0     C34696   0.428   8.359   5.851  0.7044 -0.8218  0.2195
  252MOL0     O34697   0.457   8.266   5.952 -0.1900 -0.0303 -0.2008
  252MOL0     C34698   0.345   8.174   5.961  0.3878  0.3983 -0.4609
  252MOL0     C34699   0.332   8.118   6.101 -0.0536 -0.0316 -0.8265
  252MOL0     C34700   0.472   8.097   6.167  0.6172 -0.3127  0.5213
  252MOL0     C34701   0.452   8.033   6.308 -0.6851  0.6500  0.1893
  252MOL0     C34702   0.588   8.008   6.363 -0.7403 -0.0260 -0.1706
  252MOL0     C34703   0.704   7.986   6.392 -0.1852  0.1781  0.4109
  252MOL0     C34704   0.477   8.348   5.726  0.4051 -0.4177 -0.5926
  252MOL0     C34705   0.479   8.444   5.632  0.2055  1.4746  0.9562
  252MOL0     C34706   0.510   8.383   5.478 -0.9675 -0.5339 -0.7503
  252MOL0     H34707   0.199   8.941   5.563 -1.2515  2.7357  0.6060
  252MOL0     H34708   0.126   9.117   5.398  1.3361 -1.0170  0.5569
  252MOL0     H34709   0.028   9.045   5.064  0.9451 -0.2115  0.0729
  252MOL0     H34710   0.172   9.010   4.975 -2.1357 -1.1790 -1.3072
  252MOL0     H34711   0.079   9.176   4.838  0.8330  1.3422 -0.9010
  252MOL0     H34712   0.003   9.260   4.977  0.0045 -0.5215 -0.1555
  252MOL0     H34713   0.271   9.325   5.016 -0.7805 -1.2421  1.1746
  252MOL0     H34714   0.256   9.310   4.846 -0.5810 -2.3199  0.0398
  252MOL0     H34715   0.070   9.480   4.844  2.0574 -1.9265 -0.8782
  252MOL0     H34716   0.078   9.498   5.014 -1.6444  1.6758  0.4155
  252MOL0     H34717   0.296   9.549   4.818 -1.1484 -1.2757 -1.1074
  252MOL0     H34718   0.327   9.557   4.989 -2.1406  1.1801  2.8480
  252MOL0     H34719   0.111   9.720   4.870  1.0412 -1.5359 -2.5653
  252MOL0     H34720   0.170   9.712   5.042  2.2079  2.8382 -0.4636
  252MOL0     H34721   0.259   9.908   4.927 -2.3065 -0.8940 -3.1787
  252MOL0     H34722   0.335   9.803   4.805  2.2365  3.1449 -0.3821
  252MOL0     H34723   0.388   9.787   5.104  1.5797 -3.2846  0.6237
  252MOL0     H34724   0.501   9.735   4.976  0.8462  1.5379  0.0830
  252MOL0     H34725   0.619   9.916   4.820 -0.5320 -2.9187  0.0814
  252MOL0     H34726   0.676  10.175   4.762  0.6318 -0.3698  0.0065
  252MOL0     H34727   0.814  10.137   4.874 -0.0157 -0.3021  2.4386
  252MOL0     H34728   0.614  10.358   4.953  0.8137 -1.2668 -0.3651
  252MOL0     H34729   0.780  10.343   4.984 -0.3135  0.0476  0.7336
  252MOL0     H34730   0.689  10.386   4.687 -0.3757  1.7233 -1.2271
  252MOL0     H34731   0.700  10.515   4.807 -0.3622 -0.7083  0.6256
  252MOL0     H34732   0.943  10.479   4.828  0.8330 -0.3087 -0.4781
  252MOL0     H34733   0.922  10.324   4.731  1.0216 -0.0742 -1.4112
  252MOL0     H34734   1.106  10.306   4.662  1.1092  0.4212  1.1240
  252MOL0     H34735   1.443  10.269   4.535  0.8636  0.0609  1.1501
  252MOL0     H34736   1.292  10.194   4.556  0.1575 -0.1198 -0.0170
  252MOL0     H34737   1.352  10.289   4.698 -2.4059 -1.2687  0.9823
  252MOL0     H34738   1.656  10.756   4.337 -0.9995  1.2244  0.3429
  252MOL0     H34739   1.830  10.744   4.208  0.8095 -0.3330  0.5437
  252MOL0     H34740   2.027  10.494   3.977 -0.8792 -0.0428  1.9202
  252MOL0     H34741   1.874  10.416   3.969 -0.4259 -0.7927 -2.0322
  252MOL0     H34742   1.832  10.500   3.728  0.3939  3.8666  1.7567
  252MOL0     H34743   1.978  10.577   3.716 -0.6169  2.0587  0.9957
  252MOL0     H34744   2.068  10.327   3.805 -0.8601 -1.5290 -0.5743
  252MOL0     H34745   2.049  10.374   3.636  3.5540  1.9350  2.2144
  252MOL0     H34746   1.855  10.211   3.819  0.9900  1.6259  0.9552
  252MOL0     H34747   1.959  10.151   3.691  1.4199  1.3726 -0.0111
  252MOL0     H34748   1.707  10.318   3.687 -3.0487 -0.9260 -3.1030
  252MOL0     H34749   1.813  10.324   3.540 -1.5384 -1.3961 -1.5693
  252MOL0     H34750   1.611  10.182   3.519  1.9327  1.7855 -2.1947
  252MOL0     H34751   1.679  10.082   3.654  4.4678 -1.1588 -0.5395
  252MOL0     H34752   1.773   9.957   3.476 -1.8350  0.1851  1.5318
  252MOL0     H34753   1.890  10.078   3.517 -0.4460 -2.1949  1.4948
  252MOL0     H34754   1.838  10.227   3.351  2.9659 -0.7540 -2.8450
  252MOL0     H34755   1.685  10.144   3.299 -0.0338 -2.8269 -1.4949
  252MOL0     H34756   1.633  10.490   3.920 -3.5462 -0.0986  0.4215
  252MOL0     H34757   1.427  10.491   4.070  0.6333 -0.8861 -1.8310
  252MOL0     H34758   1.238  10.709   4.425  0.6377  0.6949  0.8084
  252MOL0     H34759   1.004  10.692   4.525  1.6757  1.3381 -1.9477
  252MOL0     H34760   0.321   8.896   5.099 -2.4530 -0.5180 -0.6431
  252MOL0     H34761   0.346   8.706   5.251  0.2518  0.8034  0.6385
  252MOL0     H34762   0.281   8.670   5.807 -0.1773 -1.0226 -0.8462
  252MOL0     H34763   0.319   8.507   5.981  1.3139  3.5306 -0.3095
  252MOL0     H34764   0.247   8.205   5.923 -1.1358 -0.8294  2.1412
  252MOL0     H34765   0.369   8.100   5.884  0.6716  1.2529 -1.2070
  252MOL0     H34766   0.275   8.026   6.114  2.4775 -1.4119  1.4509
  252MOL0     H34767   0.280   8.196   6.158 -0.4391 -1.5791  1.0637
  252MOL0     H34768   0.537   8.026   6.116  1.0635 -0.6378  1.5070
  252MOL0     H34769   0.520   8.195   6.174 -0.6821  0.5215 -1.4021
  252MOL0     H34770   0.397   7.939   6.300 -0.0769  0.4295 -2.0234
  252MOL0     H34771   0.405   8.098   6.382 -0.3662 -0.4513  1.3903
  252MOL0     H34772   0.810   7.994   6.406  0.3511 -3.4353 -0.6977
  252MOL0     H34773   0.535   8.258   5.708  0.1907 -0.1659 -2.8375
  252MOL0     H34774   0.460   8.287   5.484 -1.2485 -0.4688 -1.8062
  252MOL0     H34775   0.466   8.436   5.393 -2.0168 -1.4287 -0.7762
  252MOL0     H34776   0.611   8.354   5.448 -0.9236 -0.4440 -0.6895
  253MOL0     O34777   4.031   5.080   1.886  0.1678  0.7861 -0.8644
  253MOL0     C34778   3.921   5.043   1.846  0.7804  0.6488 -0.1741
  253MOL0     O34779   3.883   4.915   1.824 -0.1705  0.2620 -0.2948
  253MOL0     C34780   3.953   4.820   1.746 -0.7405 -0.4922 -0.5437
  253MOL0     C34781   3.940   4.674   1.780 -0.2646 -0.2094 -0.1500
  253MOL0     C34782   3.997   4.581   1.690 -0.1179 -0.2242 -0.6119
  253MOL0     C34783   4.074   4.623   1.583 -0.6721  0.1555  0.1661
  253MOL0     O34784   4.106   4.517   1.497 -0.3279 -0.5847 -0.4809
  253MOL0     C34785   4.179   4.542   1.372 -0.5506 -0.0215 -0.3891
  253MOL0     C34786   4.152   4.418   1.285  1.5128  0.4733  0.0740
  253MOL0     C34787   4.254   4.416   1.168  0.4699  0.8140  0.4957
  253MOL0     C34788   4.188   4.344   1.054  0.8049  0.3216 -0.3178
  253MOL0     C34789   4.275   4.338   0.936 -0.1233  0.1649  0.0322
  253MOL0     C34790   4.187   4.303   0.807 -0.5540  0.2044 -0.1667
  253MOL0     C34791   4.156   4.435   0.730 -0.1009 -0.2747  0.5345
  253MOL0     C34792   4.051   4.530   0.786 -0.3166  0.2103  0.1445
  253MOL0     N34793   4.106   4.612   0.893  0.6220 -0.0490 -0.4105
  253MOL0     C34794   4.224   4.682   0.886  0.8640 -0.3852 -0.5215
  253MOL0     C34795   4.235   4.745   1.008 -0.4287 -0.2696  1.1435
  253MOL0     C34796   4.335   4.847   1.044 -0.1125  0.0435 -0.0974
  253MOL0     C34797   4.317   4.975   0.966  0.2762 -0.1109 -0.4108
  253MOL0     C34798   4.384   5.096   1.041 -0.5898  0.0291 -0.5264
  253MOL0     C34799   4.363   5.234   0.985  0.6917  0.5311 -0.5671
  253MOL0     O34800   4.448   5.270   0.877 -0.4623 -0.7030  0.1898
  253MOL0     C34801   4.553   5.363   0.912 -0.3618 -0.8842  0.1180
  253MOL0     C34802   4.623   5.366   1.035 -0.2514  0.0866 -0.0050
  253MOL0     C34803   4.720   5.471   1.065 -0.0194  0.9129  0.3265
  253MOL0     C34804   4.793   5.444   1.196  0.3121 -0.7172  1.1455
  253MOL0     C34805   4.748   5.562   0.953  0.6628 -0.3348 -0.1521
  253MOL0     C34806   4.847   5.678   0.965  0.1659  0.2602  0.2622
  253MOL0     O34807   4.891   5.741   0.850 -0.6917  0.5923  0.1788
  253MOL0     C34808   5.003   5.812   0.840  0.7055 -0.3018 -0.0154
  253MOL0     C34809   5.050   5.908   0.928 -0.2545 -0.4017  0.1473
  253MOL0     C34810   5.185   5.953   0.919 -0.3740 -1.0445  0.4028
  253MOL0     C34811   5.262   5.924   0.807  0.3048  0.3815  0.2375
  253MOL0     O34812   5.378   5.988   0.775  0.1205  0.3006 -0.0905
  253MOL0     C34813   5.361   6.128   0.736  0.0418 -0.3853  0.0895
  253MOL0     C34814   5.400   6.217   0.845 -0.0227 -0.3853  0.2796
  253MOL0     C34815   5.374   6.352   0.790  1.1743 -0.2749  0.6138
  253MOL0     C34816   5.368   6.458   0.894  0.2884  0.3564 -1.0090
  253MOL0     C34817   5.349   6.597   0.840 -0.5605 -1.7357 -0.2601
  253MOL0     C34818   5.372   6.692   0.951 -0.3832 -0.5218 -0.5529
  253MOL0     C34819   5.323   6.835   0.907 -0.2394 -0.2815  0.7312
  253MOL0     C34820   5.351   6.927   1.030 -0.1765  0.5585  0.2703
  253MOL0    Cl34821   5.261   6.876   1.176  0.0253 -0.1352 -0.2233
  253MOL0     C34822   5.204   5.833   0.717  0.9737 -0.1903  0.7659
  253MOL0     C34823   5.081   5.772   0.739 -0.3583  0.1477  0.5023
  253MOL0     O34824   4.854   5.724   1.078 -0.1162  0.2982 -0.0906
  253MOL0     C34825   4.673   5.549   0.836 -0.0798 -0.9324  0.5347
  253MOL0     C34826   4.586   5.449   0.811 -0.8263 -0.4196  0.4836
  253MOL0     N34827   4.122   4.717   1.079  1.4061  0.3415 -0.2273
  253MOL0     N34828   4.048   4.639   1.012 -0.3435  1.5953 -0.4894
  253MOL0     C34829   4.109   4.762   1.569 -0.1094  0.3059  0.5565
  253MOL0     C34830   4.039   4.862   1.649 -0.8509 -0.3731  0.4889
  253MOL0     C34831   3.809   5.141   1.853  0.5151 -0.3727 -0.0139
  253MOL0     C34832   3.679   5.098   1.838  1.1416 -0.5386  0.5013
  253MOL0     C34833   3.567   5.183   1.862  0.1909 -0.8475 -0.0885
  253MOL0     C34834   3.583   5.325   1.877 -0.6932  1.1108  0.2502
  253MOL0     O34835   3.474   5.406   1.880 -0.0876 -0.5443 -0.5466
  253MOL0     C34836   3.430   5.462   1.759  0.1865  0.0500  0.5388
  253MOL0     C34837   3.293   5.389   1.708 -0.7374 -0.4416 -0.5809
  253MOL0     C34838   3.168   5.413   1.797 -0.2197  0.8213  0.2074
  253MOL0     C34839   3.179   5.371   1.936  0.0712  0.4367  0.3663
  253MOL0     C34840   3.176   5.224   1.947 -0.3567 -0.0730  0.3870
  253MOL0     C34841   3.165   5.113   1.971 -0.5073  0.1596 -0.0489
  253MOL0     C34842   3.711   5.369   1.888 -0.0531  0.0632 -0.6107
  253MOL0     C34843   3.826   5.283   1.885  0.9517 -0.0126  0.0562
  253MOL0     C34844   3.963   5.346   1.912 -0.5780 -0.7173  0.3458
  253MOL0     H34845   3.881   4.637   1.863  0.9229  0.9592  1.2827
  253MOL0     H34846   3.983   4.474   1.704 -2.2675 -0.0983 -1.4700
  253MOL0     H34847   4.286   4.553   1.388 -0.9427  1.9423  1.4986
  253MOL0     H34848   4.144   4.633   1.322  0.4360  0.6992  0.1829
  253MOL0     H34849   4.157   4.325   1.342  2.3824  1.3686  1.5147
  253MOL0     H34850   4.054   4.419   1.236  1.6703  0.4393 -0.2429
  253MOL0     H34851   4.283   4.518   1.138  0.0675  0.5261 -0.9669
  253MOL0     H34852   4.351   4.373   1.192  0.8918  2.1651  1.3194
  253MOL0     H34853   4.164   4.243   1.089  1.3004  1.1760  2.7950
  253MOL0     H34854   4.088   4.383   1.035  1.0859  1.1874 -0.0669
  253MOL0     H34855   4.351   4.260   0.948  1.1683  1.2240 -0.8859
  253MOL0     H34856   4.331   4.427   0.905 -0.6568  1.5010  2.5635
  253MOL0     H34857   4.253   4.254   0.735 -0.1857 -0.1240  0.3898
  253MOL0     H34858   4.103   4.237   0.830 -2.1076  0.9735 -3.0530
  253MOL0     H34859   4.115   4.413   0.631 -0.6654 -2.9369  1.2727
  253MOL0     H34860   4.251   4.487   0.713 -0.2342 -0.4392 -0.7726
  253MOL0     H34861   4.008   4.599   0.714  1.4256  0.2004 -0.9414
  253MOL0     H34862   3.970   4.462   0.817 -0.0074  0.3954  1.4372
  253MOL0     H34863   4.292   4.695   0.802  0.1952 -0.4308 -1.0721
  253MOL0     H34864   4.432   4.801   1.023  0.7551  0.6887  2.2272
  253MOL0     H34865   4.322   4.863   1.151 -0.2315 -2.1305  0.2605
  253MOL0     H34866   4.357   4.972   0.864  1.7444 -0.7940  0.1583
  253MOL0     H34867   4.208   4.989   0.970  0.3990  1.0590 -0.9110
  253MOL0     H34868   4.366   5.104   1.149  0.7280  0.8175 -0.3453
  253MOL0     H34869   4.491   5.075   1.039 -0.2643  1.5554 -0.6458
  253MOL0     H34870   4.256   5.236   0.961 -0.1416 -0.6228  2.5133
  253MOL0     H34871   4.369   5.306   1.067 -3.0547  0.7354 -0.2965
  253MOL0     H34872   4.602   5.297   1.117  3.7915 -0.9990  0.3373
  253MOL0     H34873   4.837   5.528   1.250  1.4043 -2.5138  3.1972
  253MOL0     H34874   4.877   5.382   1.164 -0.0807  0.2008 -1.9527
  253MOL0     H34875   4.730   5.384   1.264  1.2027 -3.2958 -0.1522
  253MOL0     H34876   5.003   5.932   1.023  0.1510 -2.2942  0.8593
  253MOL0     H34877   5.231   6.019   0.992  1.6456 -2.2641  0.3040
  253MOL0     H34878   5.418   6.153   0.645  0.7011 -0.5777  0.4454
  253MOL0     H34879   5.256   6.149   0.713  0.2009  0.1739 -0.1463
  253MOL0     H34880   5.339   6.204   0.935 -1.1953  0.0801 -0.4246
  253MOL0     H34881   5.507   6.211   0.866 -0.0157  3.4526  2.2896
  253MOL0     H34882   5.279   6.347   0.735 -0.5778 -0.6539  3.4867
  253MOL0     H34883   5.456   6.378   0.722  1.2511  0.1989  0.8890
  253MOL0     H34884   5.454   6.435   0.958 -1.8076 -0.5236  1.7136
  253MOL0     H34885   5.279   6.437   0.955  1.5966  0.0421  0.9050
  253MOL0     H34886   5.402   6.624   0.748 -0.1378 -0.1512  0.4137
  253MOL0     H34887   5.243   6.608   0.816 -0.4588 -0.6515 -0.2514
  253MOL0     H34888   5.477   6.693   0.982 -1.1070 -2.8064  2.4301
  253MOL0     H34889   5.312   6.654   1.034  1.0780  0.5845  1.0719
  253MOL0     H34890   5.216   6.821   0.890 -0.1146 -0.7598  0.2999
  253MOL0     H34891   5.376   6.873   0.819 -0.8236 -0.3625  0.3411
  253MOL0     H34892   5.324   7.028   0.998  3.4169  0.8814 -2.3205
  253MOL0     H34893   5.456   6.933   1.059 -0.2577 -3.7304  2.1700
  253MOL0     H34894   5.260   5.796   0.632 -0.6253 -1.4531  0.2231
  253MOL0     H34895   5.055   5.682   0.686  1.4231  0.6146 -1.2764
  253MOL0     H34896   4.697   5.623   0.761 -2.0574  1.9233  2.5317
  253MOL0     H34897   4.520   5.433   0.726  0.4636 -0.7208 -0.4885
  253MOL0     H34898   4.185   4.788   1.496 -1.5611 -1.0698 -1.5444
  253MOL0     H34899   4.051   4.966   1.622 -0.9663 -0.5870 -0.4193
  253MOL0     H34900   3.656   4.992   1.829 -1.9794  0.1747 -1.9103
  253MOL0     H34901   3.467   5.140   1.865  0.1122 -1.4086 -4.2455
  253MOL0     H34902   3.418   5.570   1.767 -1.6519  0.3966 -3.9018
  253MOL0     H34903   3.496   5.443   1.673 -1.8544  0.2726 -1.1471
  253MOL0     H34904   3.316   5.285   1.683  0.9691  0.1866 -1.7921
  253MOL0     H34905   3.254   5.427   1.613 -1.7536  1.6459  0.6177
  253MOL0     H34906   3.143   5.519   1.782 -2.3668  1.0079  4.0414
  253MOL0     H34907   3.087   5.356   1.751 -1.2897  0.9039  1.9375
  253MOL0     H34908   3.109   5.415   2.008  1.2717  3.1403 -0.0247
  253MOL0     H34909   3.271   5.399   1.987  1.4719 -3.8818  0.5928
  253MOL0     H34910   3.145   5.021   2.023 -3.9041 -0.7804 -2.6820
  253MOL0     H34911   3.731   5.474   1.909 -0.5579  0.4358 -1.8621
  253MOL0     H34912   4.012   5.316   2.005  2.1065 -3.1702 -1.6619
  253MOL0     H34913   4.031   5.312   1.833  2.6365 -0.9791  2.9954
  253MOL0     H34914   3.953   5.454   1.904  3.1157  0.2501  4.8349
  254MOL0     O34915   3.412   0.257   8.374 -0.1714  0.0386 -0.6000
  254MOL0     C34916   3.466   0.255   8.261 -0.6987 -0.0267  0.2738
  254MOL0     O34917   3.601   0.230   8.234 -1.1380  1.5295 -0.3784
  254MOL0     C34918   3.677   0.186   8.341 -0.1356 -0.1774  1.0296
  254MOL0     C34919   3.705   0.270   8.445 -0.0164 -0.7132  0.9086
  254MOL0     C34920   3.791   0.220   8.553 -0.4829 -1.0896 -0.3586
  254MOL0     C34921   3.850   0.092   8.536  0.2387 -0.1717 -0.0145
  254MOL0     O34922   3.945   0.056   8.630  0.1664  0.8998  0.0549
  254MOL0     C34923   4.072  -0.009   8.583 -0.2991  1.4799  0.2110
  254MOL0     C34924   4.179   0.086   8.637 -0.0708 -0.2660  0.3774
  254MOL0     C34925   4.170   0.224   8.552 -1.1902  0.4896  0.3445
  254MOL0     C34926   4.199   0.225   8.399 -1.0692 -0.0483  0.1587
  254MOL0     C34927   4.172   0.366   8.341 -0.3206  0.5880  0.1509
  254MOL0     C34928   4.200   0.375   8.195 -0.1254  0.9798  0.2040
  254MOL0     C34929   4.066   0.354   8.109  0.5155 -0.5659 -0.1720
  254MOL0     C34930   4.021   0.210   8.082 -0.7040 -0.8502 -0.0549
  254MOL0     N34931   3.892   0.195   8.014 -0.2616 -0.1851  0.3232
  254MOL0     C34932   3.828   0.069   8.012  0.1203 -0.4201  0.4632
  254MOL0     C34933   3.728   0.095   7.926  0.2903  0.3104 -0.6309
  254MOL0     C34934   3.646  -0.011   7.859  0.5654  0.1632 -0.1487
  254MOL0     C34935   3.497  -0.009   7.889  0.1292  0.9123  1.0274
  254MOL0     C34936   3.421  -0.146   7.858  0.4495  0.9692 -0.3239
  254MOL0     C34937   3.266  -0.152   7.868 -1.3417 -0.6673  0.0494
  254MOL0     O34938   3.211  -0.048   7.792  0.7936 -0.3448 -0.4987
  254MOL0     C34939   3.208  -0.075   7.661  0.4241 -0.4493 -0.9595
  254MOL0     C34940   3.136  -0.182   7.602  0.4280 -0.7944 -0.4056
  254MOL0     C34941   3.129  -0.199   7.464 -0.3775 -0.4139  0.7369
  254MOL0     C34942   3.072  -0.326   7.419  0.6390 -0.6816  0.0940
  254MOL0     C34943   3.190  -0.097   7.384  0.8469  0.0461 -0.5325
  254MOL0     C34944   3.205  -0.103   7.237 -0.4494 -0.1156  0.5389
  254MOL0     O34945   3.316  -0.046   7.184 -0.2694  0.6649 -0.6001
  254MOL0     C34946   3.386  -0.101   7.085 -0.4207  0.4671 -0.1607
  254MOL0     C34947   3.520  -0.056   7.075  0.5423  0.1355 -0.0184
  254MOL0     C34948   3.611  -0.099   6.981 -0.2411  0.5849  0.0409
  254MOL0     C34949   3.574  -0.204   6.892 -0.5821  0.4175 -0.2388
  254MOL0     O34950   3.667  -0.245   6.796 -0.2730  0.0816 -0.3496
  254MOL0     C34951   3.814  -0.228   6.806  1.2140  0.0778  0.0407
  254MOL0     C34952   3.876  -0.305   6.695  0.1288 -0.2244  0.4539
  254MOL0     C34953   3.831  -0.250   6.561 -0.5721  0.4533  0.5416
  254MOL0     C34954   3.900  -0.325   6.453  0.4013  1.4598  0.8242
  254MOL0     C34955   3.850  -0.290   6.307  0.3210 -1.1230  0.1062
  254MOL0     C34956   3.914  -0.360   6.183 -0.0559  0.0597  1.5769
  254MOL0     C34957   3.866  -0.304   6.044  0.6095 -0.8213  0.2947
  254MOL0     C34958   3.897  -0.153   6.017  0.0643  0.0995 -0.3070
  254MOL0    Cl34959   4.060  -0.093   6.026 -0.5523 -0.1827 -0.0521
  254MOL0     C34960   3.446  -0.258   6.904  1.1720 -0.1203  0.4223
  254MOL0     C34961   3.351  -0.210   7.003 -0.3019 -0.5997  0.6362
  254MOL0     O34962   3.119  -0.167   7.168 -0.5317  1.2903 -0.8181
  254MOL0     C34963   3.262   0.012   7.446  0.9860  0.5153  0.4083
  254MOL0     C34964   3.256   0.021   7.585  0.2137 -0.6340 -0.3956
  254MOL0     N34965   3.711   0.230   7.907  0.1289  0.8355  0.2517
  254MOL0     N34966   3.823   0.283   7.950  0.8258 -0.4289 -0.7092
  254MOL0     C34967   3.812   0.010   8.433  0.0698 -0.4877  0.2118
  254MOL0     C34968   3.723   0.056   8.338  0.0226 -0.5413 -0.3439
  254MOL0     C34969   3.393   0.305   8.148 -0.3720  0.3053 -1.2829
  254MOL0     C34970   3.283   0.235   8.111  0.3810  0.2977  0.3840
  254MOL0     C34971   3.224   0.262   7.990  0.0032  0.1581  0.3310
  254MOL0     C34972   3.263   0.368   7.906 -0.3640  0.0863 -0.2522
  254MOL0     O34973   3.205   0.421   7.791 -0.1720  0.2754  0.5305
  254MOL0     C34974   3.086   0.365   7.734 -0.5682  0.3159  0.7860
  254MOL0     C34975   3.037   0.427   7.598  0.5155  0.4072 -0.4757
  254MOL0     C34976   3.150   0.407   7.492  1.1573 -0.3979  0.1263
  254MOL0     C34977   3.091   0.450   7.353 -0.8026 -1.0029 -0.0905
  254MOL0     C34978   3.193   0.403   7.257 -0.1643 -0.6738  0.1828
  254MOL0     C34979   3.292   0.383   7.184  0.5530  0.4471 -0.2654
  254MOL0     C34980   3.366   0.448   7.951 -0.1007 -1.0164 -0.8290
  254MOL0     C34981   3.433   0.418   8.077 -0.9652  0.5699  1.4565
  254MOL0     C34982   3.548   0.512   8.120 -0.0742 -0.3136 -0.5369
  254MOL0     H34983   3.675   0.375   8.440  0.4767 -0.2162  5.1921
  254MOL0     H34984   3.812   0.282   8.640  1.4715 -0.6673 -1.0628
  254MOL0     H34985   4.083  -0.021   8.475  0.8928  2.6683  0.1797
  254MOL0     H34986   4.079  -0.113   8.615  1.9187  2.4358  3.2300
  254MOL0     H34987   4.166   0.116   8.741 -0.7181  0.1923  0.1722
  254MOL0     H34988   4.272   0.029   8.636 -0.5136 -0.9926  0.4507
  254MOL0     H34989   4.078   0.279   8.569  0.1647  2.7820  0.6478
  254MOL0     H34990   4.259   0.277   8.587 -1.5410  1.8410 -0.7426
  254MOL0     H34991   4.305   0.219   8.373 -0.1029  3.5079  2.6243
  254MOL0     H34992   4.154   0.142   8.345  1.8679 -0.7009 -1.5212
  254MOL0     H34993   4.237   0.438   8.393 -0.6404 -1.2308  3.3567
  254MOL0     H34994   4.072   0.398   8.375 -0.0816 -1.0767  2.6602
  254MOL0     H34995   4.225   0.479   8.176 -3.9728  2.3667  1.8327
  254MOL0     H34996   4.276   0.304   8.160  1.9369  3.9036 -1.6104
  254MOL0     H34997   4.084   0.376   8.004  0.1982 -2.0660 -0.5683
  254MOL0     H34998   3.990   0.415   8.159  1.7430 -0.1430  1.2493
  254MOL0     H34999   4.096   0.158   8.021 -1.4192 -0.7606 -1.0403
  254MOL0     H35000   4.019   0.153   8.175  1.3158 -0.6626  0.1491
  254MOL0     H35001   3.876  -0.026   8.033 -1.0719 -0.4151  3.8206
  254MOL0     H35002   3.690  -0.106   7.890 -0.1607 -0.4114 -0.8353
  254MOL0     H35003   3.659   0.011   7.753  1.2004 -2.9086 -0.8049
  254MOL0     H35004   3.488  -0.002   7.998 -1.3209 -3.1470  1.3688
  254MOL0     H35005   3.450   0.084   7.857  0.6890  1.7974  2.6340
  254MOL0     H35006   3.447  -0.197   7.765 -0.3461  0.9147 -0.5254
  254MOL0     H35007   3.467  -0.221   7.923  0.4730  0.7969 -0.5396
  254MOL0     H35008   3.243  -0.258   7.850  0.5977 -1.3582  1.3500
  254MOL0     H35009   3.228  -0.118   7.965  0.7355  0.8412  0.3868
  254MOL0     H35010   3.075  -0.246   7.666  0.7899 -1.3633 -0.6235
  254MOL0     H35011   3.145  -0.377   7.355 -1.0672 -1.5002 -1.2769
  254MOL0     H35012   2.990  -0.293   7.355 -0.6620 -1.3246  1.3645
  254MOL0     H35013   3.038  -0.391   7.500  1.8191  0.1761  1.3291
  254MOL0     H35014   3.557   0.018   7.146 -0.6083 -1.2504  2.1666
  254MOL0     H35015   3.712  -0.058   6.981 -0.5466  1.4139  1.3740
  254MOL0     H35016   3.848  -0.124   6.810  1.8525 -0.1600  2.8200
  254MOL0     H35017   3.855  -0.277   6.895  2.9964 -1.0869 -1.3345
  254MOL0     H35018   3.985  -0.302   6.705 -0.0227  1.7154  2.4281
  254MOL0     H35019   3.832  -0.405   6.700  0.4831 -0.3622  0.8203
  254MOL0     H35020   3.865  -0.146   6.561  2.0411 -0.3178 -0.7858
  254MOL0     H35021   3.722  -0.253   6.549 -0.3820  0.0417 -1.4051
  254MOL0     H35022   3.876  -0.429   6.473  0.9743  1.2753  0.5629
  254MOL0     H35023   4.006  -0.299   6.452  1.8036 -3.3776  2.1368
  254MOL0     H35024   3.746  -0.323   6.310  0.0923 -0.3400  0.9993
  254MOL0     H35025   3.855  -0.183   6.287  2.0862 -1.2227 -0.2205
  254MOL0     H35026   3.880  -0.464   6.189  3.4882 -1.2705  1.1696
  254MOL0     H35027   4.023  -0.345   6.184  0.1740 -0.1629 -2.3345
  254MOL0     H35028   3.757  -0.314   6.040  0.1252  3.0085 -1.9814
  254MOL0     H35029   3.909  -0.360   5.961 -0.6645 -1.1816 -0.1396
  254MOL0     H35030   3.832  -0.090   6.077  0.1108 -0.9785  0.9413
  254MOL0     H35031   3.859  -0.143   5.916  1.7830 -3.8758 -1.5660
  254MOL0     H35032   3.422  -0.346   6.845 -1.2900  0.7473 -0.0038
  254MOL0     H35033   3.254  -0.257   6.987 -0.8808  0.8063 -0.1562
  254MOL0     H35034   3.307   0.096   7.395 -1.3421  1.1557 -0.7207
  254MOL0     H35035   3.306   0.103   7.636  1.3673 -2.5777  1.8307
  254MOL0     H35036   3.845  -0.093   8.436  0.7263 -0.2813  0.5735
  254MOL0     H35037   3.695  -0.020   8.266  0.6170  0.6746 -1.9246
  254MOL0     H35038   3.251   0.150   8.171 -1.4839  0.3837 -0.4157
  254MOL0     H35039   3.136   0.213   7.950 -0.6420  2.0331 -0.6637
  254MOL0     H35040   3.110   0.261   7.713 -0.7256  0.9360 -3.1548
  254MOL0     H35041   3.013   0.358   7.815  1.4971 -6.3541  2.7481
  254MOL0     H35042   3.033   0.535   7.613  2.0008  0.2931  1.0862
  254MOL0     H35043   2.938   0.388   7.577 -1.9981  4.8473  1.6899
  254MOL0     H35044   3.248   0.452   7.510  1.2002  0.8523 -2.7016
  254MOL0     H35045   3.168   0.300   7.507  0.0647 -0.3530  2.1616
  254MOL0     H35046   3.068   0.556   7.338 -0.1499 -1.0819 -1.9303
  254MOL0     H35047   3.000   0.396   7.325 -1.6367 -0.5021  1.5302
  254MOL0     H35048   3.383   0.366   7.130 -0.8533 -1.5049 -2.2137
  254MOL0     H35049   3.403   0.530   7.890  0.1839 -1.3180 -1.0587
  254MOL0     H35050   3.603   0.565   8.042 -2.9557  3.1847 -0.5080
  254MOL0     H35051   3.517   0.597   8.182  1.1655  0.2214 -0.6286
  254MOL0     H35052   3.620   0.459   8.183  0.3923 -0.0601 -0.8527
  255MOL0     O35053   6.706   4.422   4.341  0.4033  0.9159  0.0319
  255MOL0     C35054   6.731   4.312   4.289 -0.5054 -0.0589  0.1529
  255MOL0     O35055   6.822   4.222   4.326 -0.2635  0.1356  0.2052
  255MOL0     C35056   6.917   4.245   4.421  0.6051 -0.2154 -0.1720
  255MOL0     C35057   6.989   4.128   4.451  0.1378  0.5390 -1.1042
  255MOL0     C35058   7.096   4.126   4.548 -0.4592 -0.1963 -0.1790
  255MOL0     C35059   7.126   4.247   4.615 -0.5300 -0.4625  0.5388
  255MOL0     O35060   7.214   4.258   4.721  0.0844 -0.2156 -0.3340
  255MOL0     C35061   7.338   4.315   4.690 -0.2101 -0.8492  0.3755
  255MOL0     C35062   7.424   4.259   4.583 -0.4203  0.4034 -0.4991
  255MOL0     C35063   7.452   4.102   4.598 -0.3222  0.8261  0.0373
  255MOL0     C35064   7.559   4.071   4.709 -0.9750 -0.0404 -0.5662
  255MOL0     C35065   7.560   3.916   4.740  0.5006  0.6193 -0.2517
  255MOL0     C35066   7.689   3.870   4.786 -0.0690  0.3680  0.0573
  255MOL0     C35067   7.697   3.724   4.819 -0.6813 -0.1606  0.5701
  255MOL0     C35068   7.841   3.679   4.836 -0.3517  0.6483  0.2439
  255MOL0     N35069   7.841   3.533   4.831  0.1325  0.7660 -0.2111
  255MOL0     C35070   7.946   3.453   4.879  0.3617  0.1627  0.2847
  255MOL0     C35071   7.908   3.324   4.867  0.0335 -1.0480 -1.2684
  255MOL0     C35072   7.990   3.209   4.911  0.8110  0.4090 -0.7371
  255MOL0     C35073   7.997   3.086   4.812  0.1288 -0.4152 -0.4229
  255MOL0     C35074   8.052   3.122   4.674 -1.7375  0.4800  1.5153
  255MOL0     C35075   8.044   3.009   4.574  0.1926  1.4050  0.2249
  255MOL0     O35076   8.087   3.066   4.446  0.3737 -0.6648 -0.9012
  255MOL0     C35077   8.177   2.986   4.374 -0.0121 -0.7200  0.7110
  255MOL0     C35078   8.305   2.937   4.430 -0.6015  0.4126 -0.8375
  255MOL0     C35079   8.388   2.849   4.358  0.5173  1.0466 -0.7922
  255MOL0     C35080   8.526   2.808   4.416  1.3279  0.1699 -0.2321
  255MOL0     C35081   8.341   2.800   4.239  0.0214  0.2558  0.8055
  255MOL0     C35082   8.399   2.685   4.162 -0.2633  0.6437 -1.0254
  255MOL0     O35083   8.366   2.692   4.028  0.4844 -0.2053 -0.3776
  255MOL0     C35084   8.399   2.586   3.947  0.1520 -0.1693  0.2544
  255MOL0     C35085   8.309   2.479   3.947 -0.0529  0.4657  0.8017
  255MOL0     C35086   8.353   2.356   3.888  0.1007 -0.3441  0.0463
  255MOL0     C35087   8.470   2.349   3.817  0.3372  0.5748  0.2101
  255MOL0     O35088   8.501   2.227   3.771 -0.3228 -0.3505  0.0465
  255MOL0     C35089   8.598   2.214   3.661 -0.0225 -0.3630 -0.1635
  255MOL0     C35090   8.595   2.069   3.611  1.0688 -0.1098  0.1889
  255MOL0     C35091   8.650   1.969   3.726 -0.1689  0.2009  0.2841
  255MOL0     C35092   8.793   2.011   3.776  0.1192 -0.2313  0.6278
  255MOL0     C35093   8.832   1.937   3.900 -0.5085  0.3616 -0.4972
  255MOL0     C35094   8.977   1.963   3.932  0.5125  0.4031  0.6614
  255MOL0     C35095   9.077   1.991   3.811  0.0399  0.4922  0.2271
  255MOL0     C35096   9.230   2.005   3.830 -0.3911 -0.7668  0.0666
  255MOL0    Cl35097   9.317   2.004   3.667  0.6816  0.0507 -0.1829
  255MOL0     C35098   8.551   2.466   3.808 -0.5718 -0.8461  0.0196
  255MOL0     C35099   8.521   2.588   3.879 -0.6850  1.1286 -0.7614
  255MOL0     O35100   8.465   2.602   4.224  1.3953 -0.1728 -0.2945
  255MOL0     C35101   8.215   2.844   4.193 -0.2989 -0.6967 -1.0170
  255MOL0     C35102   8.136   2.937   4.256  0.2681 -0.6629  0.4547
  255MOL0     N35103   7.779   3.327   4.813 -0.9640 -0.4605  0.0119
  255MOL0     N35104   7.750   3.450   4.783  0.1221  0.2604  0.4126
  255MOL0     C35105   7.066   4.367   4.579 -0.2519 -0.6683  0.0379
  255MOL0     C35106   6.960   4.364   4.485 -0.1032 -1.0509 -0.1756
  255MOL0     C35107   6.647   4.276   4.168 -0.2941  0.0057 -0.5333
  255MOL0     C35108   6.522   4.328   4.167  0.3524  0.2842 -0.4907
  255MOL0     C35109   6.414   4.266   4.088 -1.4936 -0.8583 -0.4604
  255MOL0     C35110   6.447   4.159   4.004  0.1273  0.4480 -1.2009
  255MOL0     O35111   6.344   4.089   3.951 -0.2621  0.3097 -0.3038
  255MOL0     C35112   6.376   3.980   3.865 -0.8863  0.6824  0.7804
  255MOL0     C35113   6.266   3.900   3.800  0.1303  0.0210  1.2193
  255MOL0     C35114   6.153   3.973   3.719 -0.1223 -0.0196 -1.1145
  255MOL0     C35115   6.199   4.092   3.637 -0.4311 -0.1411 -0.3793
  255MOL0     C35116   6.089   4.174   3.584  0.2318 -0.8729  0.5576
  255MOL0     C35117   6.007   4.250   3.544  0.9855  0.0954  0.0270
  255MOL0     C35118   6.584   4.117   3.990 -0.1940  0.4740 -0.4388
  255MOL0     C35119   6.684   4.181   4.068  0.5429 -0.9992  0.3656
  255MOL0     C35120   6.826   4.131   4.048  0.1424 -0.4299 -0.2458
  255MOL0     H35121   6.955   4.041   4.397 -1.3448 -0.3322  1.0740
  255MOL0     H35122   7.130   4.027   4.575  0.9930 -0.0456 -1.3191
  255MOL0     H35123   7.402   4.306   4.779  1.7361  0.8680 -0.7682
  255MOL0     H35124   7.321   4.423   4.689 -2.2899 -1.1135  1.3510
  255MOL0     H35125   7.383   4.284   4.485  1.0763  1.3578 -0.9143
  255MOL0     H35126   7.527   4.296   4.579  0.1616 -1.1786 -0.8657
  255MOL0     H35127   7.361   4.047   4.625  0.2400  0.2498  0.7940
  255MOL0     H35128   7.475   4.061   4.499 -0.6006 -0.1104  0.3417
  255MOL0     H35129   7.661   4.103   4.686 -0.6144  0.6475  1.7016
  255MOL0     H35130   7.550   4.128   4.802 -1.9430 -0.1151 -0.6026
  255MOL0     H35131   7.532   3.853   4.655  0.8940  2.2038 -1.6026
  255MOL0     H35132   7.481   3.905   4.814  0.7600 -1.8003 -0.2703
  255MOL0     H35133   7.763   3.892   4.709  0.4586  0.3831  0.5639
  255MOL0     H35134   7.723   3.931   4.870  0.5430 -2.4387  1.9943
  255MOL0     H35135   7.658   3.669   4.733  1.7254  2.7033 -2.6376
  255MOL0     H35136   7.638   3.711   4.910  1.2568  1.2342  2.1232
  255MOL0     H35137   7.906   3.724   4.760 -1.7261  0.4170 -1.1231
  255MOL0     H35138   7.890   3.718   4.925 -1.1421 -2.0879  1.9949
  255MOL0     H35139   8.034   3.490   4.931 -0.3380 -1.8860  3.2038
  255MOL0     H35140   7.949   3.177   5.007  1.1977  2.1993  0.0695
  255MOL0     H35141   8.093   3.240   4.932  1.5130 -1.9700 -0.3456
  255MOL0     H35142   8.053   3.011   4.868  1.2463  2.3712  2.5241
  255MOL0     H35143   7.892   3.061   4.793 -0.3310  2.5825 -2.4038
  255MOL0     H35144   8.009   3.214   4.632  0.4976  0.4461 -1.1600
  255MOL0     H35145   8.156   3.155   4.669 -1.6971  0.1569 -1.1241
  255MOL0     H35146   8.110   2.925   4.600  2.1327  2.4298 -1.0774
  255MOL0     H35147   7.942   2.974   4.562  0.5621 -0.2093  1.4647
  255MOL0     H35148   8.327   2.973   4.529  0.3631 -0.6036 -0.6615
  255MOL0     H35149   8.606   2.803   4.342 -0.1215 -2.2469 -1.7571
  255MOL0     H35150   8.510   2.705   4.450 -1.4917 -0.5229 -3.1850
  255MOL0     H35151   8.545   2.871   4.503  3.2836  1.1819 -1.3165
  255MOL0     H35152   8.211   2.491   3.993 -0.8715 -2.6328  0.0836
  255MOL0     H35153   8.296   2.264   3.896 -2.1507  1.0865  1.4574
  255MOL0     H35154   8.567   2.274   3.576  0.7999 -2.4486 -2.0229
  255MOL0     H35155   8.704   2.239   3.675  0.1431 -1.9422  1.9603
  255MOL0     H35156   8.493   2.048   3.578  1.2604 -2.9204  1.0963
  255MOL0     H35157   8.654   2.054   3.520 -2.9985 -3.0928 -2.2870
  255MOL0     H35158   8.642   1.865   3.694 -1.0038  0.6368 -0.9798
  255MOL0     H35159   8.582   1.974   3.812 -3.0745  0.6721 -1.8812
  255MOL0     H35160   8.801   2.116   3.808  3.1512  0.8379 -2.9226
  255MOL0     H35161   8.853   2.007   3.685  2.4365  2.9457  1.8156
  255MOL0     H35162   8.762   1.963   3.980  0.7952 -1.1360  1.2154
  255MOL0     H35163   8.824   1.829   3.882  2.9206  0.2680 -2.3226
  255MOL0     H35164   9.010   1.886   4.002  2.8852 -0.1902 -0.9803
  255MOL0     H35165   8.976   2.060   3.982  2.3598  0.8844 -0.1427
  255MOL0     H35166   9.056   2.087   3.762 -0.5838 -1.1546 -3.0312
  255MOL0     H35167   9.061   1.913   3.736  0.7245 -2.7550  3.2128
  255MOL0     H35168   9.266   1.918   3.885  1.2022  0.1300  0.5033
  255MOL0     H35169   9.271   2.093   3.882  0.2622 -1.8166  1.3849
  255MOL0     H35170   8.653   2.449   3.773 -0.4809 -0.9025  0.3049
  255MOL0     H35171   8.599   2.663   3.879  1.1866 -0.7320 -1.0381
  255MOL0     H35172   8.154   2.794   4.119 -0.5317 -2.2025  0.1470
  255MOL0     H35173   8.044   2.958   4.202  0.9474 -1.8388 -1.2400
  255MOL0     H35174   7.088   4.466   4.617 -2.0676 -0.5456  0.8473
  255MOL0     H35175   6.906   4.453   4.454 -0.4353 -1.1706  0.0475
  255MOL0     H35176   6.484   4.402   4.237  2.6672  0.8880  0.2047
  255MOL0     H35177   6.313   4.306   4.083 -1.3999 -0.6563 -0.7717
  255MOL0     H35178   6.428   4.023   3.779  0.4879 -0.2449  1.1087
  255MOL0     H35179   6.448   3.910   3.908  0.8503 -0.2305 -3.1125
  255MOL0     H35180   6.212   3.853   3.882 -1.2916 -1.1451 -0.3153
  255MOL0     H35181   6.304   3.820   3.735  0.3109  1.9911 -1.2882
  255MOL0     H35182   6.096   3.914   3.648 -1.6568  1.5640 -1.2676
  255MOL0     H35183   6.079   4.009   3.791 -1.6888 -2.8168 -1.2335
  255MOL0     H35184   6.270   4.052   3.563 -2.0555 -4.1036 -0.0046
  255MOL0     H35185   6.263   4.155   3.699  1.2941 -4.5200  2.7907
  255MOL0     H35186   5.934   4.315   3.499  0.7848 -1.4266 -1.9803
  255MOL0     H35187   6.617   4.042   3.919  1.8840  1.1157 -0.2062
  255MOL0     H35188   6.901   4.200   4.089 -0.4676  1.6305 -2.3640
  255MOL0     H35189   6.848   4.038   4.102  1.9154 -0.6746 -1.3046
  255MOL0     H35190   6.850   4.119   3.942 -1.7291 -0.0402 -0.7506
  256MOL0     O35191   5.939  10.219   2.421 -0.3432 -0.2161  0.8462
  256MOL0     C35192   6.008  10.319   2.418 -0.8968  0.9825  0.2892
  256MOL0     O35193   6.101  10.353   2.329  0.1116  0.4817 -0.3398
  256MOL0     C35194   6.153  10.264   2.235 -1.4893 -0.6385  0.5510
  256MOL0     C35195   6.244  10.318   2.143  0.2013  0.0385 -1.0345
  256MOL0     C35196   6.302  10.250   2.032  0.3257 -0.4105 -0.1218
  256MOL0     C35197   6.267  10.112   2.007 -0.8135 -0.6014  0.3868
  256MOL0     O35198   6.326  10.025   1.920 -0.0403 -0.3919 -0.2008
  256MOL0     C35199   6.456  10.059   1.858  0.1307  0.2800 -0.1326
  256MOL0     C35200   6.479   9.948   1.754 -1.0252 -0.7197 -0.0250
  256MOL0     C35201   6.480   9.807   1.813 -0.5433 -0.1022  0.0048
  256MOL0     C35202   6.516   9.704   1.707  0.4373  0.4723 -0.0169
  256MOL0     C35203   6.521   9.554   1.764  0.5191 -0.2043 -0.4463
  256MOL0     C35204   6.651   9.530   1.856 -0.3520 -0.1499 -0.1090
  256MOL0     C35205   6.639   9.390   1.942  0.6694  0.2757  0.2260
  256MOL0     C35206   6.590   9.284   1.851 -0.8023  0.7531 -0.8935
  256MOL0     N35207   6.578   9.170   1.949  1.0123 -0.0552 -0.0538
  256MOL0     C35208   6.676   9.080   1.973 -0.8301 -1.4678  0.3782
  256MOL0     C35209   6.619   8.980   2.031  0.0155  0.1986 -0.0725
  256MOL0     C35210   6.696   8.864   2.086  0.6402 -0.0949 -0.4571
  256MOL0     C35211   6.639   8.735   2.044  0.6084  0.1837  0.3832
  256MOL0     C35212   6.720   8.611   2.086  0.1352  0.5846  0.4503
  256MOL0     C35213   6.674   8.484   2.011 -1.1399 -0.7540 -0.2144
  256MOL0     O35214   6.795   8.413   1.973  0.0724  0.2992  0.2621
  256MOL0     C35215   6.789   8.285   1.933 -1.4123 -0.7723 -0.7181
  256MOL0     C35216   6.902   8.219   1.897 -0.6833  0.2203  0.8117
  256MOL0     C35217   6.913   8.085   1.864  0.4249 -0.2114  0.9078
  256MOL0     C35218   7.048   8.024   1.812  0.5046  0.2986 -0.5483
  256MOL0     C35219   6.797   8.005   1.880  0.3705  0.5403  0.0907
  256MOL0     C35220   6.782   7.868   1.851  0.1599 -0.0484  0.9505
  256MOL0     O35221   6.661   7.823   1.819 -0.1412 -0.4863 -0.2995
  256MOL0     C35222   6.634   7.687   1.834  0.9494  0.0564  0.5561
  256MOL0     C35223   6.629   7.617   1.960 -0.5523 -0.3375 -0.7693
  256MOL0     C35224   6.629   7.478   1.969 -0.2911 -0.5385  0.5615
  256MOL0     C35225   6.620   7.396   1.855 -0.4147 -0.6127  0.8477
  256MOL0     O35226   6.598   7.266   1.858  0.2638  1.2382  0.6000
  256MOL0     C35227   6.652   7.180   1.961  0.3370 -0.0215  0.2205
  256MOL0     C35228   6.798   7.197   2.020 -0.0331  0.1077  0.7841
  256MOL0     C35229   6.921   7.133   1.934  0.6655 -1.0049 -0.2809
  256MOL0     C35230   6.947   7.206   1.797 -0.1487 -0.3180  0.1008
  256MOL0     C35231   7.006   7.342   1.814  0.2052 -0.6322  0.3337
  256MOL0     C35232   7.136   7.354   1.899  0.1057 -0.0671 -1.4229
  256MOL0     C35233   7.235   7.250   1.850 -0.4504  0.3148  0.9745
  256MOL0     C35234   7.364   7.255   1.935 -0.3566  0.4504 -0.1832
  256MOL0    Cl35235   7.306   7.222   2.104  0.2504  0.4223  0.0726
  256MOL0     C35236   6.626   7.469   1.737  0.9475  0.3950  0.0808
  256MOL0     C35237   6.639   7.604   1.729  0.3171  0.6712  0.8600
  256MOL0     O35238   6.879   7.800   1.864 -0.3219 -0.2861  0.3220
  256MOL0     C35239   6.678   8.077   1.901  0.8315  0.8572 -0.5864
  256MOL0     C35240   6.674   8.210   1.939 -0.6553  0.2145 -0.2514
  256MOL0     N35241   6.485   8.997   2.036  0.1805 -0.1627 -0.7912
  256MOL0     N35242   6.457   9.116   2.000 -0.1850 -0.6170 -0.1866
  256MOL0     C35243   6.183  10.055   2.105  0.5027  0.3241 -0.1267
  256MOL0     C35244   6.123  10.131   2.205 -0.9087  0.0759  0.9018
  256MOL0     C35245   5.995  10.404   2.537 -0.4331  0.7854  1.4087
  256MOL0     C35246   5.969  10.339   2.658  0.4067 -0.8996 -0.2218
  256MOL0     C35247   5.957  10.402   2.781  0.3075 -0.3824  0.4925
  256MOL0     C35248   5.980  10.535   2.787 -0.5718  0.3145  0.2862
  256MOL0     O35249   5.964  10.612   2.907 -0.6911 -0.5346 -0.2827
  256MOL0     C35250   5.864  10.561   2.999  1.1194 -0.0875 -0.4317
  256MOL0     C35251   5.821  10.660   3.114  0.7273 -0.4318 -0.4551
  256MOL0     C35252   5.681  10.639   3.169  0.6957 -0.9797 -0.8143
  256MOL0     C35253   5.636  10.747   3.277  0.3044  0.0204  0.5230
  256MOL0     C35254   5.669  10.701   3.418  0.6659 -0.2021  0.3446
  256MOL0     C35255   5.686  10.691   3.537 -0.1735  1.1714 -0.5493
  256MOL0     C35256   6.016  10.599   2.669 -0.4460  0.0455  1.7391
  256MOL0     C35257   6.020  10.544   2.541 -0.4077  0.0399 -0.1474
  256MOL0     C35258   6.065  10.634   2.421 -0.4094  1.3140  0.0198
  256MOL0     H35259   6.268  10.423   2.152  3.1280 -0.7142  1.9651
  256MOL0     H35260   6.366  10.307   1.964 -0.8536 -1.5001 -2.2507
  256MOL0     H35261   6.538  10.063   1.930 -1.3188  1.9102  1.5418
  256MOL0     H35262   6.455  10.154   1.804  1.4386  0.4902  0.1850
  256MOL0     H35263   6.399   9.940   1.680 -1.6116  0.1617  0.4764
  256MOL0     H35264   6.570   9.977   1.702 -0.5476 -2.4998 -0.2473
  256MOL0     H35265   6.555   9.813   1.892 -1.8377  5.4912  1.2874
  256MOL0     H35266   6.387   9.769   1.857  0.1488 -2.0592 -0.1079
  256MOL0     H35267   6.446   9.709   1.623 -1.6410  2.5184  1.7060
  256MOL0     H35268   6.615   9.723   1.663  1.0608 -3.3331 -0.5850
  256MOL0     H35269   6.532   9.484   1.681  3.0669 -1.4891  0.8482
  256MOL0     H35270   6.428   9.523   1.814  1.0127 -3.7894 -1.4308
  256MOL0     H35271   6.751   9.526   1.810 -0.0948 -2.5329  0.5158
  256MOL0     H35272   6.652   9.606   1.935  0.4156  1.1280 -1.3082
  256MOL0     H35273   6.565   9.401   2.022  1.3160 -2.6322  1.3842
  256MOL0     H35274   6.737   9.352   1.975 -0.0440  0.7879  3.2854
  256MOL0     H35275   6.494   9.313   1.808 -2.3759 -0.0013  1.8484
  256MOL0     H35276   6.670   9.264   1.779 -0.0616  0.1998  0.0544
  256MOL0     H35277   6.781   9.099   1.953 -0.4634 -1.8804  1.7697
  256MOL0     H35278   6.687   8.858   2.195  0.4376  1.1823 -0.3925
  256MOL0     H35279   6.804   8.865   2.069  0.5952 -0.0285 -0.7419
  256MOL0     H35280   6.535   8.740   2.075  0.4711  3.1323 -0.3367
  256MOL0     H35281   6.640   8.725   1.935 -3.5415  0.3336  0.1921
  256MOL0     H35282   6.827   8.630   2.081  0.3004  0.4699  2.6604
  256MOL0     H35283   6.695   8.592   2.191  1.9902 -1.5874  0.5611
  256MOL0     H35284   6.602   8.437   2.079 -1.4402  0.4755  0.3361
  256MOL0     H35285   6.618   8.509   1.921  0.7285  1.0348 -0.9370
  256MOL0     H35286   6.982   8.292   1.887 -1.4978  1.3872  2.2883
  256MOL0     H35287   7.043   7.958   1.726 -1.5619 -3.0564  1.8946
  256MOL0     H35288   7.072   7.961   1.898 -0.8125 -0.0990 -0.4539
  256MOL0     H35289   7.121   8.103   1.791 -0.6605  2.0828  1.5828
  256MOL0     H35290   6.640   7.670   2.054  2.3710 -0.6556 -0.8331
  256MOL0     H35291   6.621   7.425   2.064  1.4805 -1.0501  0.4612
  256MOL0     H35292   6.581   7.165   2.043 -3.0615  4.0441 -1.6087
  256MOL0     H35293   6.659   7.084   1.908  4.2419  0.1768  0.1048
  256MOL0     H35294   6.825   7.301   2.039  2.2098 -0.0491 -1.0874
  256MOL0     H35295   6.794   7.140   2.113  1.0540 -0.1788  0.6694
  256MOL0     H35296   6.921   7.026   1.911 -0.7198 -1.2404  0.6977
  256MOL0     H35297   7.007   7.144   2.000  1.4475 -0.6789 -1.3161
  256MOL0     H35298   6.849   7.218   1.750  0.9009  2.2560 -1.6491
  256MOL0     H35299   7.006   7.134   1.740  1.0208 -1.6306  2.7856
  256MOL0     H35300   7.021   7.380   1.712 -0.3822 -1.3582 -0.0280
  256MOL0     H35301   6.929   7.407   1.858 -0.5906 -1.5815  0.3682
  256MOL0     H35302   7.110   7.341   2.004  0.3565 -2.3439 -1.5989
  256MOL0     H35303   7.170   7.458   1.903 -1.9495  0.6655  2.6204
  256MOL0     H35304   7.265   7.270   1.746 -0.6823 -2.6494  0.2277
  256MOL0     H35305   7.188   7.151   1.856 -3.5342  1.5911 -0.3588
  256MOL0     H35306   7.418   7.348   1.919 -2.6405  1.6947 -1.0983
  256MOL0     H35307   7.434   7.172   1.918 -0.0728  0.5348  0.5527
  256MOL0     H35308   6.631   7.402   1.651  0.4730  1.7021 -1.0100
  256MOL0     H35309   6.653   7.655   1.634  1.5758  0.4462  0.8984
  256MOL0     H35310   6.582   8.028   1.911  1.6058 -0.2513  2.1115
  256MOL0     H35311   6.580   8.253   1.972 -0.8046 -0.3908  0.1165
  256MOL0     H35312   6.148   9.953   2.093 -1.8050  0.9181  1.0163
  256MOL0     H35313   6.056  10.079   2.273  0.9123 -1.6238  1.4856
  256MOL0     H35314   5.961  10.231   2.664  2.3507 -0.9891  3.3516
  256MOL0     H35315   5.931  10.342   2.867 -1.0603  0.0789  0.4205
  256MOL0     H35316   5.770  10.544   2.947  0.3847  4.7141 -1.0778
  256MOL0     H35317   5.894  10.465   3.042 -1.7442 -1.4076 -1.1880
  256MOL0     H35318   5.817  10.757   3.063  0.7735 -1.6879 -2.9813
  256MOL0     H35319   5.896  10.657   3.194  0.8530 -2.2610 -0.5970
  256MOL0     H35320   5.610  10.642   3.086 -2.6999  3.5526  1.8014
  256MOL0     H35321   5.666  10.542   3.217 -2.1353  0.0120  0.5279
  256MOL0     H35322   5.527  10.758   3.282 -0.0290 -2.9382  1.6751
  256MOL0     H35323   5.672  10.850   3.268 -1.2681  0.5225 -0.3296
  256MOL0     H35324   5.719  10.683   3.638  0.0664  1.3124 -0.6164
  256MOL0     H35325   6.036  10.706   2.676 -2.1805  0.4963  0.6660
  256MOL0     H35326   6.174  10.623   2.416 -0.6270 -1.2364 -0.3765
  256MOL0     H35327   6.011  10.596   2.333  1.8990 -1.7151 -0.2580
  256MOL0     H35328   6.041  10.741   2.422 -0.1729  1.4245 -1.8709
  257MOL0     O35329   9.548  11.117   2.527 -0.0647 -0.0241  0.7811
  257MOL0     C35330   9.559  11.039   2.434 -0.4204 -0.3299 -1.4287
  257MOL0     O35331   9.459  11.036   2.332  0.3953  0.3050 -0.2923
  257MOL0     C35332   9.465  10.926   2.249 -0.7268 -0.1742  0.1662
  257MOL0     C35333   9.387  10.817   2.287 -1.2855  0.7566 -0.6316
  257MOL0     C35334   9.389  10.696   2.214  0.4440 -0.2536  0.7019
  257MOL0     C35335   9.462  10.684   2.098  0.5768 -0.0555  1.0364
  257MOL0     O35336   9.462  10.566   2.015 -0.7404  0.5529  0.3031
  257MOL0     C35337   9.456  10.437   2.082 -0.3241 -0.9915  0.2551
  257MOL0     C35338   9.487  10.319   1.984 -0.4206 -0.1732  0.4377
  257MOL0     C35339   9.381  10.272   1.888 -0.0863 -0.9429 -0.3749
  257MOL0     C35340   9.289  10.170   1.956 -0.0968  0.7133 -1.0695
  257MOL0     C35341   9.186  10.114   1.851 -0.1982 -0.7238 -0.5171
  257MOL0     C35342   9.084  10.214   1.799  0.5057  0.0277  0.0785
  257MOL0     C35343   8.990  10.280   1.897  0.7675 -0.3928 -0.4389
  257MOL0     C35344   8.924  10.188   1.996  0.1286 -0.3740 -0.1484
  257MOL0     N35345   8.837  10.104   1.919 -1.5190  0.4500  0.0801
  257MOL0     C35346   8.709  10.141   1.885 -0.0511  0.0622 -0.5459
  257MOL0     C35347   8.667  10.045   1.796  0.2977  0.3650 -0.5719
  257MOL0     C35348   8.529  10.010   1.750 -0.2069  0.7117  0.2136
  257MOL0     C35349   8.419  10.083   1.830  1.0205  0.1175 -0.3448
  257MOL0     C35350   8.281  10.080   1.761 -0.6552 -0.2030 -0.9154
  257MOL0     C35351   8.169  10.119   1.851  0.3321 -0.7709  0.2351
  257MOL0     O35352   8.173  10.261   1.870 -0.1896 -0.6230 -0.2953
  257MOL0     C35353   8.089  10.304   1.978 -0.9263  0.8576  0.3421
  257MOL0     C35354   7.968  10.355   1.954  0.3946 -0.5355 -0.3008
  257MOL0     C35355   7.885  10.396   2.063  0.1910  0.3368  0.1343
  257MOL0     C35356   7.754  10.465   2.034  0.5638 -0.0431  0.9102
  257MOL0     C35357   7.935  10.387   2.198 -0.3698  0.5320 -0.1199
  257MOL0     C35358   7.865  10.440   2.315  0.1403  0.4423 -0.1912
  257MOL0     O35359   7.859  10.577   2.317  0.2682  0.5358 -0.3088
  257MOL0     C35360   7.768  10.626   2.406  0.0595  0.7386 -0.2005
  257MOL0     C35361   7.804  10.730   2.480 -0.4004  0.4488 -0.3474
  257MOL0     C35362   7.712  10.776   2.582 -0.5497  0.8822  1.0850
  257MOL0     C35363   7.588  10.722   2.598 -0.2006  0.2244 -1.0999
  257MOL0     O35364   7.515  10.764   2.708  0.1400 -0.6203 -0.7064
  257MOL0     C35365   7.387  10.692   2.734  1.0452  0.2210  0.6812
  257MOL0     C35366   7.375  10.572   2.839  0.9538 -0.4371 -0.1159
  257MOL0     C35367   7.237  10.556   2.899 -0.0250  0.0478 -0.3267
  257MOL0     C35368   7.230  10.443   3.012  0.0701 -0.0897 -0.0650
  257MOL0     C35369   7.092  10.435   3.069  0.2062 -0.0890 -0.5171
  257MOL0     C35370   7.074  10.327   3.169  0.1425  1.1961 -0.9371
  257MOL0     C35371   7.156  10.335   3.297  0.0291 -0.7660 -0.4240
  257MOL0     C35372   7.133  10.222   3.380 -0.0969  0.2969  0.1298
  257MOL0    Cl35373   7.254  10.236   3.508 -0.2572 -0.0660 -0.1775
  257MOL0     C35374   7.541  10.643   2.493 -1.0279  0.9830 -0.0206
  257MOL0     C35375   7.627  10.600   2.394  0.0186 -1.0655 -1.0470
  257MOL0     O35376   7.815  10.363   2.400  0.0081  0.6799  0.3380
  257MOL0     C35377   8.058  10.320   2.217 -0.1407 -0.2378  1.0065
  257MOL0     C35378   8.134  10.271   2.106  0.5578  0.2626 -0.4565
  257MOL0     N35379   8.771   9.964   1.765 -0.1266 -0.0930 -0.0068
  257MOL0     N35380   8.871   9.999   1.847  0.2868  1.5615  0.0637
  257MOL0     C35381   9.526  10.806   2.056 -0.6196  0.3771 -0.9038
  257MOL0     C35382   9.539  10.927   2.135  0.2959 -0.2441 -0.2854
  257MOL0     C35383   9.672  10.942   2.426 -0.3780  0.4719 -0.1124
  257MOL0     C35384   9.650  10.805   2.442 -0.8084  0.3414  0.2196
  257MOL0     C35385   9.760  10.717   2.413 -0.2069  0.3928  0.6346
  257MOL0     C35386   9.892  10.767   2.387 -0.8154  0.0481  0.0607
  257MOL0     O35387  10.005  10.696   2.367  0.1034  0.2922 -0.3916
  257MOL0     C35388  10.007  10.561   2.413  0.5571  0.4679  0.8600
  257MOL0     C35389  10.046  10.548   2.570  0.1461 -0.5208  0.4761
  257MOL0     C35390  10.035  10.408   2.641 -0.2748  0.5286  0.1218
  257MOL0     C35391  10.167  10.328   2.657  0.4997  0.6150 -0.3939
  257MOL0     C35392  10.269  10.402   2.729  0.5499  1.0365 -1.1882
  257MOL0     C35393  10.322  10.491   2.798 -0.5054 -1.3476  0.3622
  257MOL0     C35394   9.908  10.911   2.391 -0.1863  0.4217 -0.1268
  257MOL0     C35395   9.801  10.992   2.405 -1.2163  0.3586 -1.3421
  257MOL0     C35396   9.843  11.134   2.397  0.5159 -0.6667 -0.8761
  257MOL0     H35397   9.342  10.814   2.386  2.9843 -2.0757  1.5707
  257MOL0     H35398   9.343  10.605   2.251  1.9245 -3.7078 -4.7589
  257MOL0     H35399   9.354  10.421   2.116 -0.9917  1.2419 -0.4999
  257MOL0     H35400   9.539  10.424   2.152  0.1725  2.7523  0.5691
  257MOL0     H35401   9.568  10.353   1.920 -1.2015  1.5691  0.3004
  257MOL0     H35402   9.511  10.247   2.063  0.5283  0.7193  0.9841
  257MOL0     H35403   9.320  10.357   1.858  0.5635  0.6367  2.3809
  257MOL0     H35404   9.420  10.246   1.790 -0.7922 -1.0467 -0.6375
  257MOL0     H35405   9.346  10.084   1.993 -0.5261 -0.2828 -2.6088
  257MOL0     H35406   9.248  10.231   2.037  1.9548 -0.0504  0.6503
  257MOL0     H35407   9.131  10.030   1.896  0.4740  0.7196  3.3884
  257MOL0     H35408   9.236  10.079   1.761 -0.7952  4.3202 -3.1930
  257MOL0     H35409   9.140  10.294   1.750  0.9491  0.7021  1.6226
  257MOL0     H35410   9.020  10.162   1.728 -1.2256 -0.8722  2.1763
  257MOL0     H35411   8.907  10.336   1.852  0.8839 -0.1639 -0.3691
  257MOL0     H35412   9.035  10.357   1.960 -0.1040  1.1635 -1.6475
  257MOL0     H35413   9.007  10.137   2.044 -0.0561  1.6312  2.5577
  257MOL0     H35414   8.874  10.250   2.072  1.7362 -2.7725  3.0855
  257MOL0     H35415   8.655  10.227   1.922  1.1898  0.0276  1.5040
  257MOL0     H35416   8.510   9.903   1.766  1.6996  0.0324 -1.6860
  257MOL0     H35417   8.527  10.025   1.642  1.9377  2.3189  0.3339
  257MOL0     H35418   8.397  10.039   1.927 -0.4370  1.5533  0.0200
  257MOL0     H35419   8.449  10.187   1.850 -1.3901  0.2758  3.4387
  257MOL0     H35420   8.293  10.139   1.670 -0.3927  1.1557 -0.0272
  257MOL0     H35421   8.247   9.984   1.720  1.0753 -1.6469  0.8541
  257MOL0     H35422   8.071  10.093   1.811  0.5490 -3.3815  1.2553
  257MOL0     H35423   8.186  10.068   1.946 -1.2400 -1.6836  0.0562
  257MOL0     H35424   7.918  10.363   1.858 -2.7337  1.4095  1.3448
  257MOL0     H35425   7.682  10.427   2.107 -1.3787  1.5263 -0.0750
  257MOL0     H35426   7.723  10.443   1.932 -2.5911 -3.1303  2.3524
  257MOL0     H35427   7.756  10.574   2.043  0.4749  0.1355 -0.9137
  257MOL0     H35428   7.904  10.771   2.473 -0.5884  1.0028  0.0850
  257MOL0     H35429   7.751  10.844   2.657  1.9294  1.7349 -0.7920
  257MOL0     H35430   7.314  10.760   2.780 -0.0899 -1.8720  2.1353
  257MOL0     H35431   7.334  10.647   2.649  0.4337  0.8160  0.7346
  257MOL0     H35432   7.413  10.477   2.800 -2.5082 -1.9640 -0.1131
  257MOL0     H35433   7.434  10.606   2.925 -1.8332  0.3520  1.6128
  257MOL0     H35434   7.178  10.525   2.813  0.4140  0.1295 -0.6631
  257MOL0     H35435   7.197  10.654   2.924  0.5992  0.2940 -0.2556
  257MOL0     H35436   7.303  10.473   3.087 -2.1614  0.9744  1.8056
  257MOL0     H35437   7.269  10.356   2.958  0.6422  0.2506 -0.2104
  257MOL0     H35438   7.068  10.532   3.115 -2.4138  0.2396 -2.3393
  257MOL0     H35439   7.022  10.426   2.986 -0.8479 -1.4453  0.4606
  257MOL0     H35440   7.091  10.229   3.126 -0.2394  2.1023 -3.2771
  257MOL0     H35441   6.973  10.322   3.211  0.9524  1.8208  1.2457
  257MOL0     H35442   7.138  10.429   3.349 -0.8438 -2.2234  2.0966
  257MOL0     H35443   7.264  10.342   3.281 -0.2634  0.1345 -2.2906
  257MOL0     H35444   7.153  10.126   3.329 -1.1875 -0.8481  1.7664
  257MOL0     H35445   7.028  10.210   3.408 -0.7935 -1.2999 -2.7122
  257MOL0     H35446   7.435  10.626   2.480 -1.1137  0.2451  1.5621
  257MOL0     H35447   7.588  10.525   2.327  2.7958 -1.9664 -1.7792
  257MOL0     H35448   8.101  10.301   2.314  0.6176 -2.5147  0.2804
  257MOL0     H35449   8.225  10.214   2.121  0.1087 -0.0770  1.1283
  257MOL0     H35450   9.571  10.798   1.958 -4.4351  1.6138 -2.9467
  257MOL0     H35451   9.600  11.009   2.099 -0.4919  1.1342  1.3917
  257MOL0     H35452   9.558  10.759   2.475  0.0619 -3.6922 -2.2846
  257MOL0     H35453   9.743  10.612   2.394  3.2186  0.0005 -0.9199
  257MOL0     H35454   9.916  10.501   2.400 -0.4671  1.4526  2.8700
  257MOL0     H35455  10.084  10.511   2.355 -1.9521 -0.4341 -1.9576
  257MOL0     H35456   9.972  10.615   2.614 -1.7578 -1.5480 -1.0142
  257MOL0     H35457  10.140  10.595   2.601  0.0587 -0.7014  1.0295
  257MOL0     H35458  10.019  10.444   2.743  1.0532 -1.7144  1.2154
  257MOL0     H35459   9.959  10.348   2.590  2.3878 -0.2763 -3.2289
  257MOL0     H35460  10.212  10.302   2.561  1.7586 -1.5019  0.7085
  257MOL0     H35461  10.144  10.231   2.702  2.4476  0.6907  0.8966
  257MOL0     H35462  10.392  10.559   2.843 -1.6606 -1.2936  2.2114
  257MOL0     H35463  10.011  10.943   2.376  0.9691 -2.8174  0.0503
  257MOL0     H35464   9.945  11.159   2.366  0.7934  0.8052  1.0450
  257MOL0     H35465   9.774  11.175   2.323 -0.4086  0.2503  0.4521
  257MOL0     H35466   9.821  11.179   2.494 -0.1502 -0.8312 -0.9483
  258MOL0     O35467   9.408   4.073   2.360 -0.3422  0.0260 -0.2301
  258MOL0     C35468   9.295   4.069   2.422 -0.0599 -1.6073 -0.7528
  258MOL0     O35469   9.276   3.984   2.532  0.3936 -0.7326  0.9002
  258MOL0     C35470   9.371   3.911   2.598  0.1041  0.2392  0.2189
  258MOL0     C35471   9.499   3.951   2.601 -0.5139 -0.7500  0.3665
  258MOL0     C35472   9.584   3.869   2.662 -0.4148  0.7117  0.1813
  258MOL0     C35473   9.563   3.737   2.712  0.1503  0.3008 -0.3018
  258MOL0     O35474   9.664   3.657   2.767  0.8976 -0.8031  0.1072
  258MOL0     C35475   9.684   3.528   2.719 -0.6505  0.0801  1.3769
  258MOL0     C35476   9.831   3.493   2.735  0.1642 -0.4612 -0.6152
  258MOL0     C35477   9.891   3.517   2.874  0.5327 -0.3207 -0.7402
  258MOL0     C35478  10.027   3.572   2.867 -0.5274  0.1412  0.8833
  258MOL0     C35479  10.085   3.604   2.999  0.0420  0.1659 -0.5618
  258MOL0     C35480  10.214   3.685   2.997  1.7299 -0.3400  0.2778
  258MOL0     C35481  10.317   3.622   2.915 -1.2899 -0.0896  0.1721
  258MOL0     C35482  10.448   3.709   2.912  0.7555  0.5143  0.6004
  258MOL0     N35483  10.439   3.824   2.822  0.1999 -0.4976 -0.7519
  258MOL0     C35484  10.362   3.836   2.709  0.1513 -0.0917  0.5814
  258MOL0     C35485  10.372   3.959   2.676 -0.7396  0.0204  0.3391
  258MOL0     C35486  10.322   4.029   2.549  0.4193  0.1870  0.2690
  258MOL0     C35487  10.393   3.982   2.416  0.2265  0.9180  0.3421
  258MOL0     C35488  10.328   4.045   2.289  0.3285  0.6179  0.2818
  258MOL0     C35489  10.334   3.953   2.167  0.3727 -0.8391 -0.2063
  258MOL0     O35490  10.478   3.944   2.132  0.4305 -0.5777  0.1338
  258MOL0     C35491  10.501   3.912   2.001 -0.2644 -0.3609  0.4069
  258MOL0     C35492  10.566   4.006   1.926  0.2504 -0.4647  0.9030
  258MOL0     C35493  10.601   3.980   1.795 -0.1051  0.4830  1.0157
  258MOL0     C35494  10.664   4.098   1.725  0.4918 -0.2376 -0.6449
  258MOL0     C35495  10.567   3.858   1.737 -0.3752 -0.5851  1.0316
  258MOL0     C35496  10.590   3.830   1.585 -0.3006 -0.4496 -0.8146
  258MOL0     O35497  10.632   3.923   1.502  0.1488 -0.5064 -0.2060
  258MOL0     C35498  10.709   3.899   1.397  0.6929  0.6161 -0.6569
  258MOL0     C35499  10.716   4.007   1.304 -0.0977 -0.3359 -0.1482
  258MOL0     C35500  10.784   3.992   1.185 -0.2343  0.1098  1.1296
  258MOL0     C35501  10.851   3.866   1.151 -0.3129 -0.1593 -0.8244
  258MOL0     O35502  10.905   3.839   1.028 -0.2742  0.4189 -0.2047
  258MOL0     C35503  10.917   3.941   0.938 -0.0132  0.8507  0.0107
  258MOL0     C35504  10.967   3.892   0.809  0.5480  0.2092  0.3929
  258MOL0     C35505  11.021   4.001   0.718 -0.0514 -0.3687 -0.7758
  258MOL0     C35506  11.004   3.952   0.578 -0.0020  0.1556  1.1182
  258MOL0     C35507  11.083   3.825   0.546  0.0075  0.1981  0.5487
  258MOL0     C35508  11.236   3.829   0.535  0.8254 -0.8061  0.6815
  258MOL0     C35509  11.292   3.707   0.463  0.8869  0.9849 -0.2970
  258MOL0     C35510  11.397   3.737   0.352  0.0638 -0.1422  0.0056
  258MOL0    Cl35511  11.332   3.852   0.238  0.2751 -0.3663 -0.3615
  258MOL0     C35512  10.844   3.762   1.246 -0.6887  0.6892 -0.8587
  258MOL0     C35513  10.779   3.779   1.364  0.3867 -1.1716  0.0367
  258MOL0     O35514  10.551   3.721   1.545  0.1828 -0.8916 -0.2635
  258MOL0     C35515  10.508   3.757   1.825 -1.3799 -0.7618  0.6749
  258MOL0     C35516  10.476   3.784   1.949 -0.2931  0.3775  0.8043
  258MOL0     N35517  10.444   4.034   2.775  0.9397  0.0013 -0.1015
  258MOL0     N35518  10.482   3.944   2.869 -0.2997 -0.4446  0.3863
  258MOL0     C35519   9.427   3.698   2.708 -0.4265  0.1359  0.8649
  258MOL0     C35520   9.336   3.785   2.648 -0.8437 -0.1454  0.6161
  258MOL0     C35521   9.191   4.163   2.384  0.7308  0.5032 -0.5069
  258MOL0     C35522   9.194   4.221   2.253  1.2105 -0.7473  0.2138
  258MOL0     C35523   9.083   4.308   2.207 -0.0622 -0.6516 -0.1512
  258MOL0     C35524   8.990   4.340   2.301 -0.0508 -1.1486 -1.2735
  258MOL0     O35525   8.874   4.397   2.256  0.3956 -0.2113  0.0398
  258MOL0     C35526   8.902   4.530   2.218  0.2478 -0.1043 -0.4402
  258MOL0     C35527   8.770   4.606   2.206 -0.0569 -0.1216 -0.1223
  258MOL0     C35528   8.784   4.757   2.190  0.0948 -0.2829 -0.1875
  258MOL0     C35529   8.660   4.850   2.219 -0.9636  0.3260  0.0917
  258MOL0     C35530   8.712   4.983   2.233 -0.9736  0.0689  0.3404
  258MOL0     C35531   8.746   5.098   2.251 -0.1248  0.9723  0.9457
  258MOL0     C35532   8.986   4.291   2.428 -0.8774  0.5110  0.0998
  258MOL0     C35533   9.086   4.208   2.474  0.5434  1.2243  0.8166
  258MOL0     C35534   9.084   4.181   2.628  1.0761 -0.3016 -0.2130
  258MOL0     H35535   9.535   4.044   2.557  1.0954 -2.2405 -1.7379
  258MOL0     H35536   9.685   3.907   2.674 -0.3717  0.3966  0.9137
  258MOL0     H35537   9.670   3.517   2.611  0.4684 -1.3132  1.3449
  258MOL0     H35538   9.626   3.449   2.768  0.6420 -0.3045  2.3466
  258MOL0     H35539   9.825   3.385   2.715 -1.0494 -0.2265 -1.6610
  258MOL0     H35540   9.892   3.540   2.657  0.5986 -0.3265 -0.2001
  258MOL0     H35541   9.825   3.578   2.937  2.1172  0.7143 -0.0380
  258MOL0     H35542   9.882   3.423   2.930 -1.9137  1.3113  1.8812
  258MOL0     H35543  10.091   3.489   2.836 -1.8819 -0.6138  0.0387
  258MOL0     H35544  10.026   3.655   2.797 -1.8188 -0.1565  0.5250
  258MOL0     H35545  10.102   3.511   3.054  0.2012  2.0859  2.9689
  258MOL0     H35546  10.015   3.663   3.060  0.8784 -0.2376  0.8406
  258MOL0     H35547  10.181   3.777   2.948  1.9098 -0.9568 -1.0559
  258MOL0     H35548  10.254   3.713   3.094 -0.4961  1.4792  0.7437
  258MOL0     H35549  10.289   3.598   2.813  2.4725  1.0830 -1.3101
  258MOL0     H35550  10.365   3.539   2.967  3.3915  2.2821  0.1835
  258MOL0     H35551  10.485   3.730   3.013  0.3511 -1.4086  1.1802
  258MOL0     H35552  10.528   3.648   2.869  0.1831  0.7532 -0.8296
  258MOL0     H35553  10.339   3.758   2.637  1.5939  1.1430 -1.3453
  258MOL0     H35554  10.343   4.133   2.577  5.0253 -0.3585 -0.3185
  258MOL0     H35555  10.217   3.999   2.551  1.3273 -3.4332  0.7690
  258MOL0     H35556  10.501   4.000   2.417  0.4989 -0.3593 -1.5190
  258MOL0     H35557  10.385   3.873   2.417  0.3361  0.8967 -0.5877
  258MOL0     H35558  10.225   4.081   2.293 -0.0484 -0.4033  0.0148
  258MOL0     H35559  10.386   4.135   2.268  0.7296 -0.1685 -2.4184
  258MOL0     H35560  10.305   3.852   2.197  0.8398 -0.7652  0.5185
  258MOL0     H35561  10.273   3.995   2.087  2.6724  1.1219 -1.0470
  258MOL0     H35562  10.559   4.105   1.970 -0.8677 -0.2700  0.3391
  258MOL0     H35563  10.600   4.131   1.643 -1.0236  1.4646  1.1238
  258MOL0     H35564  10.767   4.075   1.697 -0.0508 -4.0167 -0.1665
  258MOL0     H35565  10.679   4.182   1.794 -3.0399 -3.1926  4.4486
  258MOL0     H35566  10.669   4.103   1.320 -0.8250 -0.1113 -3.0940
  258MOL0     H35567  10.786   4.080   1.121 -0.5347  0.5909  1.7705
  258MOL0     H35568  10.823   3.996   0.927 -0.0024  1.1611  1.2558
  258MOL0     H35569  10.993   4.012   0.973 -0.5828  1.8057 -0.6370
  258MOL0     H35570  11.059   3.838   0.834  0.3807  0.5163  1.7234
  258MOL0     H35571  10.883   3.837   0.767  1.2748 -0.5326 -0.1318
  258MOL0     H35572  11.124   4.032   0.736 -0.9869  1.1937  2.7973
  258MOL0     H35573  10.956   4.087   0.737  1.6886  1.0797 -1.1653
  258MOL0     H35574  11.029   4.027   0.503  3.0776  1.7896  3.5642
  258MOL0     H35575  10.897   3.942   0.553  0.1742  0.1500  0.3282
  258MOL0     H35576  11.066   3.746   0.619 -1.1489 -0.0774 -0.0082
  258MOL0     H35577  11.054   3.794   0.445  1.7566  3.9883 -1.3143
  258MOL0     H35578  11.268   3.828   0.639 -0.7561 -2.6515  1.2073
  258MOL0     H35579  11.272   3.923   0.493 -0.6438  0.9198  3.0291
  258MOL0     H35580  11.211   3.643   0.428 -0.5318  0.5980  3.3262
  258MOL0     H35581  11.346   3.639   0.529  3.1549  0.7919 -2.2324
  258MOL0     H35582  11.428   3.640   0.312  0.3759 -0.7708  1.6677
  258MOL0     H35583  11.485   3.786   0.394 -1.1154  0.1362  2.2912
  258MOL0     H35584  10.892   3.665   1.235  1.4051  1.1682  2.5117
  258MOL0     H35585  10.797   3.702   1.439  2.4609 -0.3455  0.4487
  258MOL0     H35586  10.487   3.654   1.798 -0.4914 -2.1641  4.6658
  258MOL0     H35587  10.452   3.702   2.016 -1.7029  3.0924  3.9854
  258MOL0     H35588   9.391   3.597   2.719  1.4570 -0.5901  0.6811
  258MOL0     H35589   9.231   3.759   2.636 -0.7862 -0.1865  0.1816
  258MOL0     H35590   9.282   4.209   2.191 -0.0506 -2.2882 -1.3721
  258MOL0     H35591   9.088   4.338   2.103  1.1246 -5.7865 -1.8880
  258MOL0     H35592   8.970   4.584   2.285  0.3380  1.0766 -1.4314
  258MOL0     H35593   8.956   4.527   2.123 -0.2962  0.3685 -0.7772
  258MOL0     H35594   8.714   4.594   2.300 -0.6655 -0.6525 -0.5465
  258MOL0     H35595   8.719   4.559   2.122 -0.8574 -1.0425  0.8501
  258MOL0     H35596   8.860   4.776   2.267  1.3016  0.5655 -1.5343
  258MOL0     H35597   8.824   4.780   2.091  1.0519  1.0550  0.4772
  258MOL0     H35598   8.592   4.805   2.292 -0.7294 -3.3456 -1.7581
  258MOL0     H35599   8.588   4.847   2.137  0.1652 -2.4988 -0.9105
  258MOL0     H35600   8.804   5.188   2.262  1.9612 -0.0933 -0.6012
  258MOL0     H35601   8.904   4.321   2.493  1.3051  2.4670  2.1793
  258MOL0     H35602   9.089   4.076   2.657  3.7885  0.0863  1.0073
  258MOL0     H35603   9.165   4.238   2.675 -2.3414  2.7210  2.7183
  258MOL0     H35604   8.995   4.228   2.672  0.3714 -0.9298 -0.9504
  259MOL0     O35605   9.324   2.416   0.986  0.0783 -0.1378 -0.6594
  259MOL0     C35606   9.400   2.432   1.084  0.1366 -0.0886 -0.3856
  259MOL0     O35607   9.446   2.554   1.146  0.0279  0.0783  0.1407
  259MOL0     C35608   9.441   2.681   1.091  0.6211  0.7681 -0.1049
  259MOL0     C35609   9.510   2.784   1.167  0.2770 -0.2945  0.2681
  259MOL0     C35610   9.533   2.912   1.113  0.1733 -0.1829  0.0747
  259MOL0     C35611   9.464   2.956   1.001 -0.9099 -0.5242 -0.6781
  259MOL0     O35612   9.490   3.087   0.946 -0.1872  0.2782  0.0347
  259MOL0     C35613   9.610   3.165   0.975 -0.1759 -0.3899 -0.2283
  259MOL0     C35614   9.724   3.148   0.864  0.1815 -0.4194 -0.0178
  259MOL0     C35615   9.853   3.216   0.901  0.2472  0.2529  0.1913
  259MOL0     C35616   9.970   3.185   0.798  0.2587 -0.2600 -0.2913
  259MOL0     C35617  10.001   3.300   0.717  0.3730 -0.2688 -0.5933
  259MOL0     C35618  10.067   3.423   0.779 -0.3125 -0.0416  0.3733
  259MOL0     C35619  10.021   3.561   0.722 -0.8246 -0.7755 -0.9682
  259MOL0     C35620  10.121   3.677   0.752 -0.0113  0.7576  0.3357
  259MOL0     N35621  10.258   3.674   0.708 -0.5052 -0.3736 -0.1694
  259MOL0     C35622  10.357   3.599   0.764 -0.0961 -0.0920 -0.6110
  259MOL0     C35623  10.474   3.655   0.713  0.5582  0.1050 -0.1748
  259MOL0     C35624  10.618   3.614   0.724  0.4832  0.4415  0.0622
  259MOL0     C35625  10.652   3.531   0.593 -0.6408  0.6986 -0.1415
  259MOL0     C35626  10.710   3.608   0.481  0.8809 -0.6280 -1.0396
  259MOL0     C35627  10.711   3.524   0.343  0.0100 -0.4579  0.4916
  259MOL0     O35628  10.750   3.609   0.238  0.2742  1.0494  0.3496
  259MOL0     C35629  10.843   3.551   0.155 -0.1140  0.3140  0.3967
  259MOL0     C35630  10.969   3.513   0.206 -0.2390  0.8448  0.1026
  259MOL0     C35631  11.050   3.427   0.130 -0.4654 -0.5124  0.4383
  259MOL0     C35632  11.196   3.423   0.182  0.2861 -0.1078  0.9370
  259MOL0     C35633  11.011   3.370   0.004 -0.2950 -0.9769 -0.8687
  259MOL0     C35634  11.080   3.262  -0.057  1.4611 -1.3640  0.6203
  259MOL0     O35635  11.123   3.160   0.010 -0.8738 -0.0823  0.2372
  259MOL0     C35636  11.179   3.059  -0.058  0.4324  0.4805 -0.0832
  259MOL0     C35637  11.315   3.083  -0.081 -0.0313 -0.6173 -0.2252
  259MOL0     C35638  11.396   2.986  -0.147  1.0621  0.1492 -0.5460
  259MOL0     C35639  11.328   2.874  -0.197  0.3425 -0.2013  0.4945
  259MOL0     O35640  11.390   2.787  -0.273  0.7174 -0.2589  0.0638
  259MOL0     C35641  11.486   2.713  -0.196  0.1096 -0.1885 -0.3871
  259MOL0     C35642  11.550   2.601  -0.278 -0.5267  0.1616  0.4054
  259MOL0     C35643  11.628   2.653  -0.395  0.9744  0.1369 -0.0104
  259MOL0     C35644  11.716   2.547  -0.460 -0.0794 -0.6340  1.0044
  259MOL0     C35645  11.774   2.586  -0.596 -0.5407  0.3143  0.0578
  259MOL0     C35646  11.877   2.694  -0.602  0.4910  0.1887 -0.2435
  259MOL0     C35647  11.979   2.665  -0.499 -0.2062 -1.5239 -0.0305
  259MOL0     C35648  12.109   2.733  -0.538 -0.7838 -0.2634 -0.7499
  259MOL0    Cl35649  12.204   2.637  -0.662 -0.0955  0.1504 -0.4418
  259MOL0     C35650  11.202   2.851  -0.174 -0.3287 -0.1901 -0.1766
  259MOL0     C35651  11.119   2.935  -0.100 -0.1025 -0.2982 -0.2429
  259MOL0     O35652  11.098   3.282  -0.177  0.4541  0.5751 -0.3083
  259MOL0     C35653  10.889   3.424  -0.048 -0.0440  0.2918  0.6626
  259MOL0     C35654  10.813   3.525   0.025 -0.2839 -1.2228  0.3837
  259MOL0     N35655  10.437   3.732   0.597 -0.1414 -0.4128 -1.4576
  259MOL0     N35656  10.311   3.757   0.613  0.2272 -0.3086  0.0514
  259MOL0     C35657   9.398   2.856   0.930 -0.3436  0.4220  0.9031
  259MOL0     C35658   9.384   2.720   0.975  0.2065 -0.6199 -0.2675
  259MOL0     C35659   9.444   2.299   1.145  0.6239 -0.1408 -0.1428
  259MOL0     C35660   9.498   2.207   1.062  1.0800 -0.6782 -0.0411
  259MOL0     C35661   9.532   2.078   1.101  0.2073  0.2957  0.2756
  259MOL0     C35662   9.522   2.034   1.230  0.0530 -0.0019 -0.1183
  259MOL0     O35663   9.573   1.914   1.284 -0.3493 -0.0442  0.2628
  259MOL0     C35664   9.528   1.790   1.224 -0.4318 -0.1915  0.6645
  259MOL0     C35665   9.379   1.759   1.266 -0.1322 -0.5310 -0.3910
  259MOL0     C35666   9.361   1.749   1.424 -0.6531  0.1464 -0.1619
  259MOL0     C35667   9.222   1.781   1.480 -0.1346  0.2437  0.2067
  259MOL0     C35668   9.161   1.905   1.441  0.3298  0.2335 -0.5915
  259MOL0     C35669   9.101   2.008   1.412  0.2054  0.1946 -0.4374
  259MOL0     C35670   9.489   2.131   1.322 -0.2649  0.3167  0.4389
  259MOL0     C35671   9.456   2.259   1.281  0.1497 -1.1870  0.0929
  259MOL0     C35672   9.414   2.352   1.394  0.1698  0.6984  0.1411
  259MOL0     H35673   9.562   2.739   1.251 -0.8133 -0.8182  0.6749
  259MOL0     H35674   9.599   2.977   1.170 -2.0670  1.5997  0.7414
  259MOL0     H35675   9.661   3.151   1.070  1.2001  0.2205 -0.8515
  259MOL0     H35676   9.580   3.270   0.975  0.7408 -0.1129 -1.1985
  259MOL0     H35677   9.740   3.041   0.855 -0.1051 -0.5052  0.4681
  259MOL0     H35678   9.694   3.200   0.772 -1.3706 -1.2303  0.0020
  259MOL0     H35679   9.838   3.322   0.921  0.0894  0.1572  0.5989
  259MOL0     H35680   9.882   3.173   0.997 -1.0470 -1.0778  0.0326
  259MOL0     H35681  10.056   3.165   0.863 -1.1015  1.6053  2.2524
  259MOL0     H35682   9.938   3.099   0.737  2.0549 -0.2234 -1.3310
  259MOL0     H35683   9.908   3.335   0.671 -0.6576 -0.1197  1.4930
  259MOL0     H35684  10.081   3.267   0.650  3.0917  0.9346  1.8471
  259MOL0     H35685  10.077   3.422   0.887 -2.5957 -1.4107  0.6387
  259MOL0     H35686  10.174   3.416   0.756 -0.2083  4.0371 -1.3343
  259MOL0     H35687   9.922   3.584   0.760  0.1351  3.0836 -0.4241
  259MOL0     H35688  10.028   3.552   0.613  4.0146  1.8350 -1.1560
  259MOL0     H35689  10.074   3.760   0.698 -0.5559  0.2767  0.0575
  259MOL0     H35690  10.113   3.698   0.860 -0.7798  0.8835  0.2665
  259MOL0     H35691  10.355   3.517   0.836  0.6974  0.8758  0.5562
  259MOL0     H35692  10.629   3.558   0.817  2.3956 -0.5095 -0.6802
  259MOL0     H35693  10.680   3.704   0.728 -0.4645  1.3348 -2.7119
  259MOL0     H35694  10.733   3.474   0.640 -0.9818  0.7875  0.5632
  259MOL0     H35695  10.571   3.465   0.560 -1.4512  2.4281 -1.8715
  259MOL0     H35696  10.663   3.702   0.451  0.9852 -1.0002 -2.4650
  259MOL0     H35697  10.811   3.633   0.512  1.2449 -2.5941 -0.4884
  259MOL0     H35698  10.769   3.431   0.351 -0.2145 -0.6737 -0.3204
  259MOL0     H35699  10.606   3.509   0.317  0.9264 -1.8122 -2.9631
  259MOL0     H35700  10.982   3.553   0.306 -0.2431 -0.7132  0.7616
  259MOL0     H35701  11.183   3.400   0.288  1.8092  1.9128  1.6424
  259MOL0     H35702  11.239   3.524   0.175 -1.6089  0.8972  2.5643
  259MOL0     H35703  11.262   3.348   0.139 -1.2746 -2.4597  2.4094
  259MOL0     H35704  11.351   3.182  -0.053 -0.1347 -1.3012  2.5649
  259MOL0     H35705  11.499   3.005  -0.176  1.6336 -2.4959 -0.5086
  259MOL0     H35706  11.569   2.774  -0.162  2.2524 -1.4313 -2.9687
  259MOL0     H35707  11.437   2.670  -0.108  0.1530 -0.7111 -0.6118
  259MOL0     H35708  11.619   2.542  -0.218  1.2383  0.0018 -1.6486
  259MOL0     H35709  11.469   2.545  -0.325 -1.2364  0.1098  1.6472
  259MOL0     H35710  11.677   2.740  -0.350  0.1485 -0.9007  3.1884
  259MOL0     H35711  11.560   2.678  -0.477  1.1627  0.1685 -0.1568
  259MOL0     H35712  11.670   2.449  -0.473  2.6090 -1.6918 -1.5858
  259MOL0     H35713  11.801   2.530  -0.394 -1.1472 -5.5162  1.4984
  259MOL0     H35714  11.823   2.494  -0.630  1.2770  1.9402 -2.0355
  259MOL0     H35715  11.700   2.611  -0.673 -0.0201  1.8337  0.0326
  259MOL0     H35716  11.823   2.785  -0.574  0.6418  0.6091 -1.2774
  259MOL0     H35717  11.926   2.694  -0.699  2.1466  0.4969  0.5627
  259MOL0     H35718  11.985   2.556  -0.493 -0.7464 -1.5978 -0.7746
  259MOL0     H35719  11.940   2.716  -0.410  0.7894 -0.6190 -0.0834
  259MOL0     H35720  12.161   2.747  -0.443  0.4652  0.9862 -1.5628
  259MOL0     H35721  12.108   2.829  -0.591  2.3113 -0.1512 -0.7890
  259MOL0     H35722  11.157   2.754  -0.195 -1.6747 -0.4577  3.2103
  259MOL0     H35723  11.017   2.905  -0.079 -0.7026  1.8153  0.0850
  259MOL0     H35724  10.850   3.381  -0.140  0.8193 -0.3117  0.5620
  259MOL0     H35725  10.726   3.567  -0.024 -0.4949 -2.4172 -0.3226
  259MOL0     H35726   9.371   2.872   0.826  0.6276 -0.9151  0.4174
  259MOL0     H35727   9.360   2.651   0.894 -0.6707  1.8937 -2.2771
  259MOL0     H35728   9.518   2.231   0.958  2.0770 -1.2357  0.0084
  259MOL0     H35729   9.556   1.999   1.031  0.6175  0.2711  0.4422
  259MOL0     H35730   9.533   1.787   1.114 -0.0791  2.0752  0.5692
  259MOL0     H35731   9.589   1.704   1.252 -2.1703 -2.6966 -2.5140
  259MOL0     H35732   9.359   1.661   1.220  3.0676 -1.0469 -0.9254
  259MOL0     H35733   9.313   1.833   1.220 -0.3792 -0.8058 -0.4815
  259MOL0     H35734   9.388   1.649   1.457  0.0134  0.4248  0.1340
  259MOL0     H35735   9.427   1.823   1.472  0.8105  0.3942 -2.4099
  259MOL0     H35736   9.224   1.782   1.589 -0.1660  5.9589  0.4175
  259MOL0     H35737   9.156   1.709   1.430 -0.7826  0.3539  0.8874
  259MOL0     H35738   9.066   2.095   1.361 -2.0887 -0.5873 -0.3205
  259MOL0     H35739   9.501   2.091   1.422  0.4424 -2.4587 -0.6578
  259MOL0     H35740   9.495   2.360   1.466 -0.7678  1.2346  1.1678
  259MOL0     H35741   9.374   2.449   1.360 -1.5189  0.0394  0.1184
  259MOL0     H35742   9.330   2.303   1.444 -1.1165 -0.2339 -2.7161
  260MOL0     O35743   5.490   9.412   4.134 -0.0039 -0.4398  0.0235
  260MOL0     C35744   5.395   9.417   4.058 -0.5153  0.6233 -0.7196
  260MOL0     O35745   5.405   9.410   3.920  0.0627 -0.2818 -0.4030
  260MOL0     C35746   5.524   9.419   3.850 -0.4782  0.0445  1.2238
  260MOL0     C35747   5.641   9.467   3.900  0.2388 -0.9994 -1.0898
  260MOL0     C35748   5.746   9.480   3.818  0.3984 -0.7977 -1.0695
  260MOL0     C35749   5.758   9.454   3.682 -0.0226 -0.8333  0.0756
  260MOL0     O35750   5.859   9.482   3.587  0.5436  0.0275  0.5724
  260MOL0     C35751   5.991   9.443   3.622 -0.2350  0.2915 -0.4433
  260MOL0     C35752   6.096   9.532   3.563 -0.0094  0.3266  0.8535
  260MOL0     C35753   6.074   9.681   3.611 -0.3870  0.4229 -1.1192
  260MOL0     C35754   6.051   9.777   3.488  0.2521  0.2821 -0.1226
  260MOL0     C35755   6.032   9.930   3.518  0.0312  0.5795 -0.6386
  260MOL0     C35756   6.144   9.988   3.609  0.9905  0.3373 -0.6375
  260MOL0     C35757   6.284   9.979   3.550 -0.0082 -0.5681  0.2895
  260MOL0     C35758   6.297  10.075   3.437 -0.8775 -0.6274 -0.3768
  260MOL0     N35759   6.434  10.133   3.423  0.1550 -0.2543  0.6331
  260MOL0     C35760   6.457  10.253   3.360  0.2135  1.0262 -0.3482
  260MOL0     C35761   6.586  10.286   3.379 -0.4416 -0.2699  0.0856
  260MOL0     C35762   6.673  10.395   3.323  1.2769  0.9831 -0.5056
  260MOL0     C35763   6.679  10.523   3.415 -0.3494 -0.9248  0.4582
  260MOL0     C35764   6.721  10.659   3.345  0.6224  0.1245  1.1863
  260MOL0     C35765   6.632  10.708   3.232  1.5681  0.5156  0.3576
  260MOL0     O35766   6.706  10.805   3.157  0.1670  0.5921 -0.1899
  260MOL0     C35767   6.764  10.772   3.039  0.8333  0.0524 -0.8231
  260MOL0     C35768   6.826  10.874   2.977  0.2020  0.2872 -1.1441
  260MOL0     C35769   6.900  10.860   2.863  0.3931 -0.0089  1.0415
  260MOL0     C35770   6.991  10.971   2.812  0.5991  0.2043 -0.3099
  260MOL0     C35771   6.901  10.731   2.791  0.8247 -0.1076 -0.3914
  260MOL0     C35772   6.982  10.688   2.672  0.3325 -0.1344 -0.1497
  260MOL0     O35773   6.984  10.553   2.623 -0.2813 -0.8069  0.2642
  260MOL0     C35774   7.077  10.515   2.523 -0.7125 -0.1405  0.0469
  260MOL0     C35775   7.137  10.393   2.546 -0.2812 -0.2720 -0.1311
  260MOL0     C35776   7.229  10.352   2.450 -0.2082  0.6770 -0.3696
  260MOL0     C35777   7.250  10.417   2.322 -0.1452  0.2995 -0.4857
  260MOL0     O35778   7.338  10.368   2.228  0.7792  1.0167  0.4026
  260MOL0     C35779   7.357  10.224   2.228  1.0500 -0.0280 -0.0026
  260MOL0     C35780   7.430  10.184   2.099 -0.0633  0.3563 -0.5903
  260MOL0     C35781   7.380  10.249   1.968 -0.4681  0.1728  0.4906
  260MOL0     C35782   7.474  10.202   1.857 -0.0624  0.4400 -0.2575
  260MOL0     C35783   7.489  10.300   1.738 -0.0488  0.1531  0.3484
  260MOL0     C35784   7.566  10.253   1.618 -1.0915 -0.2333  0.5232
  260MOL0     C35785   7.592  10.364   1.523 -0.0033  0.3012  0.6827
  260MOL0     C35786   7.637  10.322   1.381  1.0913 -0.0505 -0.5262
  260MOL0    Cl35787   7.803  10.263   1.383  0.2549 -0.2913 -0.1100
  260MOL0     C35788   7.181  10.539   2.300 -0.3043 -0.0539  0.0642
  260MOL0     C35789   7.104  10.585   2.409  0.2469 -1.1659  0.9156
  260MOL0     O35790   7.046  10.775   2.611 -0.2861  1.0175 -0.0417
  260MOL0     C35791   6.824  10.631   2.851  0.2463 -0.0105 -0.3011
  260MOL0     C35792   6.762  10.648   2.975 -0.1573  1.2229  0.4852
  260MOL0     N35793   6.645  10.171   3.422 -0.2297 -0.8963  0.7073
  260MOL0     N35794   6.555  10.081   3.444 -0.5089  0.2901  0.2116
  260MOL0     C35795   5.641   9.409   3.633  1.1508 -0.2157 -0.0889
  260MOL0     C35796   5.526   9.390   3.707  0.3490 -0.3591 -0.3656
  260MOL0     C35797   5.265   9.412   4.106 -0.2331 -0.4123 -0.0646
  260MOL0     C35798   5.167   9.501   4.054 -0.5775 -0.8617 -0.3504
  260MOL0     C35799   5.040   9.504   4.111 -0.0922 -0.5410  0.1682
  260MOL0     C35800   5.012   9.415   4.213  0.0480 -0.0508  0.5742
  260MOL0     O35801   4.892   9.410   4.277  0.0828  0.5343  0.1492
  260MOL0     C35802   4.771   9.423   4.200  1.0298  0.2112 -0.1025
  260MOL0     C35803   4.658   9.517   4.246 -0.7020 -0.8774  0.1236
  260MOL0     C35804   4.714   9.645   4.302  0.5695  0.9666  0.3541
  260MOL0     C35805   4.624   9.711   4.396 -1.5018  0.2259 -0.5124
  260MOL0     C35806   4.493   9.735   4.342 -0.6953 -0.0081 -0.7999
  260MOL0     C35807   4.377   9.745   4.315 -1.6480  0.2561  0.8580
  260MOL0     C35808   5.106   9.329   4.264 -0.2992 -0.8295  0.5571
  260MOL0     C35809   5.234   9.332   4.213 -0.5503 -0.1019 -0.2830
  260MOL0     C35810   5.329   9.231   4.288 -0.2422 -1.1296  0.1190
  260MOL0     H35811   5.652   9.496   4.004 -1.7968  1.2500 -1.4012
  260MOL0     H35812   5.833   9.536   3.851 -2.3873  2.6693  0.9817
  260MOL0     H35813   6.011   9.341   3.586  0.7508 -0.0097  0.8406
  260MOL0     H35814   6.011   9.426   3.728  0.1057  1.1779 -0.3597
  260MOL0     H35815   6.199   9.505   3.589 -0.0271  0.4647  1.0756
  260MOL0     H35816   6.089   9.524   3.455 -2.9149  0.8655  0.9285
  260MOL0     H35817   5.988   9.693   3.678  1.0576  3.6304  0.3880
  260MOL0     H35818   6.157   9.728   3.665  1.5330 -2.1020 -1.6939
  260MOL0     H35819   6.134   9.757   3.418 -0.0185 -3.5323  0.4629
  260MOL0     H35820   5.958   9.748   3.438  1.1307  0.3454 -1.8968
  260MOL0     H35821   5.935   9.946   3.565 -1.2387  1.6904 -3.3869
  260MOL0     H35822   6.029   9.980   3.421 -1.0084 -1.9556 -1.9969
  260MOL0     H35823   6.116  10.093   3.621 -0.6065 -0.2094  0.7620
  260MOL0     H35824   6.130   9.932   3.702 -3.0060 -0.1930 -1.4047
  260MOL0     H35825   6.322   9.879   3.524  4.5975  1.0417 -0.0026
  260MOL0     H35826   6.363  10.003   3.622  0.4333  0.6571 -0.5729
  260MOL0     H35827   6.251  10.034   3.347  0.4930 -1.7362 -0.6245
  260MOL0     H35828   6.242  10.164   3.468 -1.3189 -1.5084  1.5330
  260MOL0     H35829   6.382  10.295   3.295 -0.5037 -0.3793 -0.4665
  260MOL0     H35830   6.630  10.416   3.225 -2.2527 -0.3459  0.5944
  260MOL0     H35831   6.775  10.358   3.310  1.4678  1.5471 -0.6483
  260MOL0     H35832   6.583  10.536   3.464 -0.2971  0.9750  0.1381
  260MOL0     H35833   6.750  10.505   3.496 -1.0659  0.6605  1.4782
  260MOL0     H35834   6.745  10.744   3.410  0.3493  0.5217  0.7734
  260MOL0     H35835   6.819  10.630   3.305  0.4673 -2.1535  2.3341
  260MOL0     H35836   6.588  10.616   3.192  0.2301 -1.1761  4.9871
  260MOL0     H35837   6.544  10.764   3.266  1.5970 -0.3615  2.0261
  260MOL0     H35838   6.806  10.977   3.006 -2.7517  0.3969 -3.1051
  260MOL0     H35839   7.093  10.942   2.842 -0.1743 -1.3293  1.0165
  260MOL0     H35840   6.966  11.071   2.846 -0.8311  0.3105 -1.5484
  260MOL0     H35841   6.990  10.972   2.702  1.8921 -0.4190 -0.3559
  260MOL0     H35842   7.116  10.336   2.636  0.1622 -0.5993 -0.2327
  260MOL0     H35843   7.275  10.257   2.478 -1.1302  0.8302  1.9389
  260MOL0     H35844   7.421  10.190   2.310  3.0605  1.9515 -0.6353
  260MOL0     H35845   7.256  10.185   2.239  1.2338 -0.1185  1.4544
  260MOL0     H35846   7.539  10.184   2.103 -0.0813 -0.5816  0.0905
  260MOL0     H35847   7.412  10.077   2.085  1.8227 -0.4703  2.5277
  260MOL0     H35848   7.387  10.356   1.987 -3.0139  0.7990 -1.5001
  260MOL0     H35849   7.275  10.226   1.945 -1.1994  1.8421  1.8786
  260MOL0     H35850   7.454  10.100   1.825  2.6406 -0.6546  1.2644
  260MOL0     H35851   7.569  10.204   1.911  0.7509 -0.4175 -1.6054
  260MOL0     H35852   7.386  10.322   1.711 -0.2072 -0.1551  0.7020
  260MOL0     H35853   7.537  10.384   1.790 -3.7530  2.6842  0.0549
  260MOL0     H35854   7.514  10.177   1.558 -0.8444  0.9251 -1.2390
  260MOL0     H35855   7.666  10.221   1.646  0.3157  0.3089 -3.2842
  260MOL0     H35856   7.678  10.415   1.567  0.1842 -0.5999  1.3825
  260MOL0     H35857   7.510  10.435   1.507 -0.6566 -1.1918 -4.0078
  260MOL0     H35858   7.635  10.409   1.315  0.7685  1.1620  1.0221
  260MOL0     H35859   7.563  10.249   1.345 -2.4785  2.8636  0.3224
  260MOL0     H35860   7.194  10.590   2.206  2.4834 -2.3606 -0.9338
  260MOL0     H35861   7.057  10.680   2.384  0.2764 -0.8993  1.8495
  260MOL0     H35862   6.802  10.541   2.795 -2.1017  0.8285 -0.8587
  260MOL0     H35863   6.695  10.572   3.014  1.0363  1.4541  3.2047
  260MOL0     H35864   5.646   9.388   3.527  1.0037  0.4851 -0.2400
  260MOL0     H35865   5.435   9.355   3.661  1.1770 -3.6425  0.2157
  260MOL0     H35866   5.182   9.557   3.962 -0.7186  0.8744  0.6460
  260MOL0     H35867   4.958   9.563   4.069 -0.5179 -0.4924  1.0529
  260MOL0     H35868   4.780   9.466   4.100  1.0816  4.0965  1.4064
  260MOL0     H35869   4.741   9.318   4.194 -0.1792  0.5310  0.1312
  260MOL0     H35870   4.593   9.477   4.324 -1.0009 -1.6003 -0.4748
  260MOL0     H35871   4.595   9.537   4.158  2.2737 -0.5643 -2.1194
  260MOL0     H35872   4.809   9.617   4.349  0.6792 -2.1252 -1.4496
  260MOL0     H35873   4.722   9.720   4.223 -0.1975  0.5184 -0.1595
  260MOL0     H35874   4.664   9.796   4.452 -1.3465 -0.2568  0.1383
  260MOL0     H35875   4.615   9.649   4.486  0.3465  0.9811  0.2445
  260MOL0     H35876   4.275   9.749   4.282 -0.9597  0.2458 -1.4712
  260MOL0     H35877   5.072   9.259   4.340 -2.9405 -0.0098  0.2194
  260MOL0     H35878   5.387   9.178   4.212  1.5587  0.5970  0.2406
  260MOL0     H35879   5.401   9.278   4.355  1.7890  1.5648 -3.6151
  260MOL0     H35880   5.265   9.169   4.351  0.1587  0.3528  2.0502
  261MOL0     O35881   7.461   6.251  10.817 -0.0610 -0.7232  1.1860
  261MOL0     C35882   7.496   6.360  10.873 -0.3305  0.7584  0.3397
  261MOL0     O35883   7.555   6.466  10.800  0.6836 -0.3551  0.0550
  261MOL0     C35884   7.587   6.452  10.672  0.2680  0.9981 -0.1219
  261MOL0     C35885   7.485   6.462  10.573 -0.1051  1.0742 -0.0844
  261MOL0     C35886   7.513   6.438  10.438 -0.0271  0.1546 -0.7773
  261MOL0     C35887   7.652   6.410  10.413  0.2264  0.4937  0.3370
  261MOL0     O35888   7.697   6.381  10.290 -0.2845 -0.0684 -0.3570
  261MOL0     C35889   7.635   6.442  10.176 -0.4494  0.8807  0.5011
  261MOL0     C35890   7.709   6.426  10.042 -0.9444 -0.2725  0.1039
  261MOL0     C35891   7.793   6.299  10.037  0.8318 -0.7143 -0.0519
  261MOL0     C35892   7.876   6.290   9.911  0.2173  0.4358 -0.4276
  261MOL0     C35893   7.940   6.153   9.885 -0.1184  0.6791  0.2909
  261MOL0     C35894   8.042   6.163   9.771  0.2215  0.6264 -0.5360
  261MOL0     C35895   7.985   6.239   9.648  1.3051 -0.7664  0.0186
  261MOL0     C35896   8.035   6.167   9.515  0.4568 -0.1085  0.3393
  261MOL0     N35897   7.935   6.172   9.409 -0.3778  1.2757  0.2147
  261MOL0     C35898   7.813   6.117   9.431 -0.7311  0.3409 -0.5382
  261MOL0     C35899   7.743   6.151   9.316  0.4994 -0.2194 -0.2316
  261MOL0     C35900   7.605   6.106   9.283 -0.2274  0.2599 -0.3663
  261MOL0     C35901   7.495   6.213   9.299 -0.0997  0.2071 -0.6757
  261MOL0     C35902   7.493   6.261   9.443  0.9782 -0.9745 -0.2505
  261MOL0     C35903   7.365   6.361   9.458 -0.6200  0.2630 -0.2959
  261MOL0     O35904   7.370   6.467   9.365  0.1858  0.0482 -0.3468
  261MOL0     C35905   7.256   6.521   9.315  0.8380  0.2857 -0.4676
  261MOL0     C35906   7.132   6.508   9.377  0.1218 -0.5788  0.3692
  261MOL0     C35907   7.011   6.537   9.313 -0.6733  0.0137 -0.2620
  261MOL0     C35908   6.884   6.489   9.378 -0.4687 -0.2983  0.0998
  261MOL0     C35909   7.014   6.604   9.183 -0.2119  0.6358  0.3667
  261MOL0     C35910   6.888   6.668   9.125 -0.2711 -0.1123  0.8578
  261MOL0     O35911   6.771   6.650   9.189 -0.1912  0.0007 -0.3164
  261MOL0     C35912   6.653   6.700   9.158  0.3180 -0.8416 -0.2780
  261MOL0     C35913   6.592   6.685   9.038 -0.2088  0.6115 -0.3370
  261MOL0     C35914   6.460   6.746   9.018 -0.6789  0.0331 -1.0596
  261MOL0     C35915   6.395   6.810   9.118  0.7286  0.3711 -0.1665
  261MOL0     O35916   6.273   6.867   9.109  0.3444 -0.1781 -0.7643
  261MOL0     C35917   6.215   6.896   8.992  0.4740 -0.2892  1.7539
  261MOL0     C35918   6.077   6.966   9.024  1.3314  0.0702 -0.6319
  261MOL0     C35919   5.969   6.962   8.910  0.1524 -0.3396 -0.1279
  261MOL0     C35920   5.981   7.037   8.765  0.4215 -0.8026 -0.6584
  261MOL0     C35921   5.974   7.196   8.793  0.2950 -0.0131 -0.3319
  261MOL0     C35922   6.013   7.269   8.658 -1.7964 -0.3684  0.1801
  261MOL0     C35923   6.012   7.422   8.679 -0.0091 -0.2392  0.1895
  261MOL0     C35924   6.009   7.500   8.544 -0.4697  0.4790  0.3342
  261MOL0    Cl35925   6.152   7.476   8.455 -0.5865  0.6930  0.1927
  261MOL0     C35926   6.463   6.819   9.236 -0.2543  0.8434  0.3596
  261MOL0     C35927   6.584   6.761   9.256  0.3999 -0.5808 -0.8114
  261MOL0     O35928   6.913   6.744   9.029  0.6215 -0.5311 -0.4535
  261MOL0     C35929   7.141   6.614   9.118  0.1868 -1.4016  0.8023
  261MOL0     C35930   7.260   6.573   9.188 -0.0171 -0.2458 -0.1248
  261MOL0     N35931   7.817   6.233   9.238  0.9178  0.1191 -0.3839
  261MOL0     N35932   7.928   6.250   9.296 -0.3061  0.5068 -0.5590
  261MOL0     C35933   7.757   6.417  10.503  1.2900  0.1513 -0.4080
  261MOL0     C35934   7.720   6.441  10.634 -0.2294 -0.1699  0.8449
  261MOL0     C35935   7.465   6.382  11.018  0.6440 -0.0694  0.5579
  261MOL0     C35936   7.567   6.346  11.105  0.8770  0.9799 -0.3203
  261MOL0     C35937   7.537   6.377  11.240 -0.4429 -0.0367  0.3849
  261MOL0     C35938   7.420   6.436  11.286  0.4788  0.8553 -0.1838
  261MOL0     O35939   7.402   6.464  11.421  0.9723 -0.5766  0.0148
  261MOL0     C35940   7.521   6.512  11.494  0.1336 -0.3704  0.0572
  261MOL0     C35941   7.474   6.568  11.630 -0.9096 -0.4858 -0.4421
  261MOL0     C35942   7.407   6.449  11.709  0.6075 -1.0959 -0.3534
  261MOL0     C35943   7.341   6.499  11.834  0.9290 -1.0137 -0.1633
  261MOL0     C35944   7.439   6.563  11.925 -0.0100  0.2639  0.2241
  261MOL0     C35945   7.517   6.631  11.991 -0.2195  0.1193  0.0147
  261MOL0     C35946   7.324   6.462  11.191  0.7956  0.5709  0.0559
  261MOL0     C35947   7.340   6.437  11.059 -0.2686  0.7405  0.2084
  261MOL0     C35948   7.209   6.461  10.975 -0.7753  0.1397  0.2962
  261MOL0     H35949   7.383   6.477  10.607  0.6763  3.9429  1.3038
  261MOL0     H35950   7.441   6.440  10.357 -1.1247 -0.4234  0.1619
  261MOL0     H35951   7.603   6.545  10.195  1.3393  2.7510 -4.6094
  261MOL0     H35952   7.544   6.383  10.181 -1.0823  1.9812  3.8523
  261MOL0     H35953   7.640   6.433   9.957 -0.2171  1.3895 -0.4014
  261MOL0     H35954   7.787   6.503  10.039 -1.0628 -0.1220  0.8034
  261MOL0     H35955   7.856   6.318  10.124 -2.0549  1.3363  1.8048
  261MOL0     H35956   7.725   6.215  10.056 -0.3515  0.0024 -0.9244
  261MOL0     H35957   7.820   6.329   9.825 -3.9322 -1.8617  0.9302
  261MOL0     H35958   7.950   6.368   9.931  2.1251 -0.9630 -1.7325
  261MOL0     H35959   7.859   6.084   9.861 -0.4541  1.6978 -1.7427
  261MOL0     H35960   7.988   6.124   9.979 -0.9635  0.4745  0.6771
  261MOL0     H35961   8.122   6.223   9.813  2.5871 -1.7094 -1.4043
  261MOL0     H35962   8.070   6.059   9.748  2.3173  1.0073  0.0854
  261MOL0     H35963   8.025   6.341   9.653  0.0514 -0.3375  2.1065
  261MOL0     H35964   7.876   6.235   9.651  0.8350  1.4495 -4.7224
  261MOL0     H35965   8.131   6.215   9.493  0.4399  0.2898  1.0860
  261MOL0     H35966   8.062   6.061   9.523 -1.3847 -0.9814 -3.1043
  261MOL0     H35967   7.778   6.054   9.512  0.2422 -1.2318 -1.2831
  261MOL0     H35968   7.593   6.007   9.329  3.9441 -0.1794  0.1994
  261MOL0     H35969   7.601   6.073   9.178 -2.5890 -1.5731  0.2255
  261MOL0     H35970   7.517   6.292   9.227 -1.7413  2.2002  0.9052
  261MOL0     H35971   7.395   6.180   9.272  1.1646 -3.5918 -1.3907
  261MOL0     H35972   7.494   6.174   9.509 -1.2387  0.8985  2.4845
  261MOL0     H35973   7.578   6.324   9.470 -0.3941  0.7424  0.1941
  261MOL0     H35974   7.276   6.299   9.444  0.6340 -1.8550  0.6415
  261MOL0     H35975   7.364   6.401   9.560 -3.1758 -0.9349  0.2132
  261MOL0     H35976   7.143   6.464   9.475 -0.9013  1.0089  1.2403
  261MOL0     H35977   6.806   6.462   9.306  1.6477 -0.4978 -2.2265
  261MOL0     H35978   6.841   6.570   9.438 -1.5849 -1.0271  0.3242
  261MOL0     H35979   6.913   6.407   9.445  1.0984  1.6048  1.8605
  261MOL0     H35980   6.642   6.627   8.961 -1.3039  4.1457 -4.0911
  261MOL0     H35981   6.403   6.741   8.926 -1.2876  1.6614 -0.8087
  261MOL0     H35982   6.287   6.957   8.936  1.6006 -4.7061 -2.2400
  261MOL0     H35983   6.193   6.805   8.936 -2.7878 -0.3372  2.9348
  261MOL0     H35984   6.033   6.900   9.098 -1.1635  0.4893 -1.6398
  261MOL0     H35985   6.083   7.068   9.064 -5.0017  0.1630  1.0859
  261MOL0     H35986   5.869   6.971   8.955  1.3374 -2.1396  3.2215
  261MOL0     H35987   5.964   6.856   8.884 -2.4182  0.1257 -1.8497
  261MOL0     H35988   5.899   6.993   8.708  0.5938 -3.0208  0.6991
  261MOL0     H35989   6.072   7.005   8.714  1.3476 -0.0400  0.4546
  261MOL0     H35990   5.880   7.233   8.836 -0.5012 -1.4229 -0.7867
  261MOL0     H35991   6.043   7.237   8.867  0.4419 -1.6104  0.4592
  261MOL0     H35992   5.958   7.227   8.574 -2.4361  0.5975  0.1026
  261MOL0     H35993   6.115   7.242   8.627 -1.6518  1.7446 -1.4176
  261MOL0     H35994   6.106   7.448   8.729 -0.0668  1.1879 -0.4058
  261MOL0     H35995   5.931   7.459   8.742  0.1272  0.9472 -0.3140
  261MOL0     H35996   6.001   7.608   8.562 -2.3046  0.0700  2.3872
  261MOL0     H35997   5.928   7.481   8.474 -1.8269  2.2992  1.3359
  261MOL0     H35998   6.402   6.876   9.306  0.5178  2.0952  0.0254
  261MOL0     H35999   6.641   6.771   9.348  2.3327 -0.4052 -1.9586
  261MOL0     H36000   7.170   6.666   9.028 -0.4969  0.7345  1.7575
  261MOL0     H36001   7.359   6.596   9.150  0.4294  4.0754  2.9074
  261MOL0     H36002   7.861   6.399  10.479  0.8155  0.6568 -3.1412
  261MOL0     H36003   7.800   6.452  10.707 -0.1931 -3.1634  1.4187
  261MOL0     H36004   7.661   6.298  11.080 -0.2043 -0.8379 -1.0677
  261MOL0     H36005   7.610   6.337  11.310 -3.0084 -1.4521  2.4664
  261MOL0     H36006   7.589   6.429  11.515  1.2062  0.6675  0.7347
  261MOL0     H36007   7.576   6.591  11.443  2.1060  1.9555  5.1045
  261MOL0     H36008   7.402   6.650  11.624 -1.1765 -0.6648  0.2712
  261MOL0     H36009   7.564   6.594  11.687 -1.1753  1.6148 -0.9049
  261MOL0     H36010   7.324   6.408  11.651 -0.1403  0.1152 -0.1772
  261MOL0     H36011   7.484   6.376  11.739  1.5114  0.1504  0.4864
  261MOL0     H36012   7.295   6.414  11.887  1.7803  0.2123  2.7641
  261MOL0     H36013   7.266   6.571  11.801  1.0997 -0.3859  0.7740
  261MOL0     H36014   7.572   6.693  12.060 -1.7707 -0.0654  1.4844
  261MOL0     H36015   7.233   6.505  11.230 -1.4290 -3.8831  0.4275
  261MOL0     H36016   7.153   6.374  10.940  0.0076  0.8345 -3.0822
  261MOL0     H36017   7.141   6.525  11.033 -2.3047  0.8004 -2.0802
  261MOL0     H36018   7.233   6.521  10.887 -1.7302 -2.5819 -1.9577
  262MOL0     O36019   8.432   0.136  10.331 -0.0676  0.0266 -0.2432
  262MOL0     C36020   8.512   0.223  10.383  0.6869  1.3007  0.6085
  262MOL0     O36021   8.638   0.240  10.349 -0.6720  1.3286  0.3822
  262MOL0     C36022   8.670   0.155  10.237 -0.2593 -0.0449 -0.2731
  262MOL0     C36023   8.722   0.026  10.247 -0.2255 -0.2029 -0.1021
  262MOL0     C36024   8.769  -0.048  10.130 -0.7838 -0.3571  0.9517
  262MOL0     C36025   8.743   0.015   9.998 -0.3812 -0.5826 -0.4628
  262MOL0     O36026   8.787  -0.055   9.887  0.1462  0.6138 -0.0807
  262MOL0     C36027   8.721  -0.021   9.773 -0.0095 -0.5461  0.6210
  262MOL0     C36028   8.726  -0.145   9.678  0.3118  0.4465  0.3295
  262MOL0     C36029   8.641  -0.140   9.557 -0.3420  0.3414  0.2883
  262MOL0     C36030   8.701  -0.067   9.434  0.4541 -0.3990  0.6059
  262MOL0     C36031   8.631  -0.107   9.311  0.0488  0.2356  0.7388
  262MOL0     C36032   8.701  -0.046   9.179 -0.5492  0.2941 -0.0085
  262MOL0     C36033   8.737   0.095   9.196  0.0606  1.0928  0.3287
  262MOL0     C36034   8.779   0.150   9.057 -0.6408 -0.3859  0.3317
  262MOL0     N36035   8.894   0.234   9.085 -0.7591 -0.8587 -0.1353
  262MOL0     C36036   9.026   0.194   9.091  0.7179  0.9991 -0.0120
  262MOL0     C36037   9.100   0.313   9.103  0.0386 -0.1332  0.7218
  262MOL0     C36038   9.243   0.330   9.115 -0.5694 -0.1420 -0.0744
  262MOL0     C36039   9.302   0.386   8.983  0.0489  0.2492 -0.2560
  262MOL0     C36040   9.456   0.393   8.992 -0.8860  1.1774  0.0811
  262MOL0     C36041   9.515   0.515   9.061  0.5870  0.5384 -0.5641
  262MOL0     O36042   9.641   0.549   8.999  0.3681 -0.4363  0.0382
  262MOL0     C36043   9.747   0.467   9.023 -0.6056 -0.8007 -0.3027
  262MOL0     C36044   9.821   0.465   9.144  0.2956 -0.2713 -0.2417
  262MOL0     C36045   9.944   0.398   9.167 -0.3726 -0.0482 -0.1335
  262MOL0     C36046   9.997   0.422   9.310 -0.0017  0.1227  0.4567
  262MOL0     C36047   9.996   0.318   9.059 -1.2347 -0.0394 -0.5811
  262MOL0     C36048  10.126   0.239   9.067  0.5576 -0.6477 -0.3539
  262MOL0     O36049  10.208   0.282   9.174 -0.1127  0.5386 -0.5369
  262MOL0     C36050  10.326   0.220   9.184 -0.1922 -0.0507  0.0945
  262MOL0     C36051  10.415   0.237   9.080 -1.1038 -0.8127  0.4042
  262MOL0     C36052  10.542   0.178   9.086  0.1493  0.6924  0.6596
  262MOL0     C36053  10.583   0.093   9.186 -0.7620 -0.4444 -0.1540
  262MOL0     O36054  10.712   0.046   9.183 -0.6954  0.0191  0.0420
  262MOL0     C36055  10.765  -0.013   9.061  0.3779 -0.0609  0.1801
  262MOL0     C36056  10.903  -0.064   9.100  0.2679  0.1491  0.0952
  262MOL0     C36057  11.000   0.048   9.113  0.1680 -1.0451 -0.5732
  262MOL0     C36058  11.097   0.022   9.237  0.3450 -1.3980 -0.1777
  262MOL0     C36059  11.164   0.148   9.299  0.0695  0.3226 -0.6437
  262MOL0     C36060  11.054   0.252   9.327 -0.1808  0.4739 -0.2780
  262MOL0     C36061  11.083   0.337   9.447 -0.2401  0.1159 -0.5834
  262MOL0     C36062  11.163   0.467   9.408 -0.1464  0.4120 -0.0136
  262MOL0    Cl36063  11.342   0.435   9.389 -0.2025 -0.6622 -0.3003
  262MOL0     C36064  10.498   0.083   9.299  0.2539  0.2859  1.0788
  262MOL0     C36065  10.363   0.145   9.296 -1.0495 -0.4440  0.3123
  262MOL0     O36066  10.148   0.150   8.980 -0.6733 -1.0804 -0.2982
  262MOL0     C36067   9.910   0.313   8.941 -0.3171 -0.5701  0.8868
  262MOL0     C36068   9.795   0.384   8.921 -0.1254 -0.5650 -0.1789
  262MOL0     N36069   9.014   0.417   9.086  0.0309  0.8857 -1.0998
  262MOL0     N36070   8.894   0.373   9.081  0.3587  0.5299  0.9366
  262MOL0     C36071   8.679   0.136   9.997 -0.1706  0.3555 -0.1023
  262MOL0     C36072   8.638   0.205  10.106  0.2021 -0.4827 -0.1385
  262MOL0     C36073   8.448   0.320  10.483  0.6103 -0.2100  1.1601
  262MOL0     C36074   8.503   0.442  10.486  0.2880  0.4396  0.2893
  262MOL0     C36075   8.446   0.537  10.572 -0.3882 -0.0767  0.1866
  262MOL0     C36076   8.337   0.519  10.650  0.6153  0.8540  0.5535
  262MOL0     O36077   8.306   0.614  10.748  0.3681 -0.0203 -0.4661
  262MOL0     C36078   8.202   0.578  10.850 -1.1581  0.9220  0.1202
  262MOL0     C36079   8.214   0.663  10.974 -0.3567 -0.1610 -0.7959
  262MOL0     C36080   8.307   0.619  11.096 -0.4005  0.3553  0.6370
  262MOL0     C36081   8.318   0.716  11.207  0.4925  0.3087 -0.5189
  262MOL0     C36082   8.379   0.648  11.316 -0.0165 -1.1286  0.6881
  262MOL0     C36083   8.439   0.605  11.413 -0.1407 -0.3548  0.4310
  262MOL0     C36084   8.282   0.388  10.646  0.8647  0.3565  0.2345
  262MOL0     C36085   8.333   0.291  10.562 -0.0283 -0.1041  0.5793
  262MOL0     C36086   8.253   0.155  10.570 -0.4062 -1.4213 -0.1604
  262MOL0     H36087   8.729  -0.005  10.351  0.8111  2.8817  0.8474
  262MOL0     H36088   8.823  -0.142  10.133  2.5566  1.3018 -0.7611
  262MOL0     H36089   8.762   0.065   9.718 -4.2844  1.1759 -0.2668
  262MOL0     H36090   8.617   0.005   9.794  1.0472  2.1001  3.4323
  262MOL0     H36091   8.827  -0.184   9.663 -0.6405 -2.1334  0.0588
  262MOL0     H36092   8.686  -0.232   9.732  1.6557 -0.8408 -0.7011
  262MOL0     H36093   8.618  -0.245   9.534 -0.5970 -0.9935  5.4236
  262MOL0     H36094   8.541  -0.098   9.571 -0.5496 -0.5322  1.6721
  262MOL0     H36095   8.698   0.041   9.450  1.9037 -0.1411 -0.6110
  262MOL0     H36096   8.808  -0.087   9.427  1.0927  1.5507  3.1745
  262MOL0     H36097   8.530  -0.065   9.316 -0.9627 -2.1815  2.0736
  262MOL0     H36098   8.621  -0.216   9.310  0.6668  0.1651  1.5462
  262MOL0     H36099   8.783  -0.107   9.139 -0.6029  0.3378 -0.1833
  262MOL0     H36100   8.633  -0.053   9.093 -0.2838 -1.1072 -0.1386
  262MOL0     H36101   8.823   0.086   9.263  1.7936 -1.4264 -1.9955
  262MOL0     H36102   8.641   0.139   9.225 -0.8433 -2.3896  3.4667
  262MOL0     H36103   8.812   0.064   8.997  0.0178  0.7665 -1.0140
  262MOL0     H36104   8.699   0.207   9.011 -1.4208  1.2046  3.3821
  262MOL0     H36105   9.063   0.092   9.093  2.6739  1.5521  3.9778
  262MOL0     H36106   9.304   0.240   9.123  0.9530  1.0086  2.4447
  262MOL0     H36107   9.257   0.400   9.198  1.5257 -1.4236  0.7347
  262MOL0     H36108   9.264   0.326   8.900 -1.3068  0.4239  0.1998
  262MOL0     H36109   9.260   0.485   8.963  1.4692  0.5963 -1.6331
  262MOL0     H36110   9.507   0.302   9.027 -0.1244  1.2114 -0.8947
  262MOL0     H36111   9.479   0.400   8.885  1.5468 -0.4530  0.3955
  262MOL0     H36112   9.443   0.597   9.067  1.2257  1.0867 -0.2546
  262MOL0     H36113   9.540   0.477   9.160  1.2851  3.0775  0.3098
  262MOL0     H36114   9.785   0.535   9.220  1.3162 -0.1499  0.1378
  262MOL0     H36115   9.929   0.469   9.382  0.8227  0.7011  0.8760
  262MOL0     H36116  10.091   0.476   9.297  0.1669 -0.4085 -0.6208
  262MOL0     H36117  10.022   0.323   9.349  0.0344  0.9101  2.5592
  262MOL0     H36118  10.397   0.309   9.000 -0.7577 -1.3959 -0.2103
  262MOL0     H36119  10.616   0.211   9.014  1.3374  2.0513  2.4292
  262MOL0     H36120  10.702  -0.094   9.021  1.9950 -0.1739 -2.4008
  262MOL0     H36121  10.774   0.065   8.984  0.5205  0.5217  0.7814
  262MOL0     H36122  10.884  -0.123   9.190 -0.8072  1.1525  0.5626
  262MOL0     H36123  10.935  -0.142   9.030 -0.9689 -1.5996  1.3874
  262MOL0     H36124  10.949   0.144   9.105  1.7844 -0.1764 -0.9795
  262MOL0     H36125  11.071   0.043   9.029  0.7243 -3.7089 -0.0567
  262MOL0     H36126  11.182  -0.042   9.211 -0.3218 -3.2307  1.8366
  262MOL0     H36127  11.034  -0.016   9.317 -1.4614 -1.9658 -1.7875
  262MOL0     H36128  11.201   0.109   9.394 -1.7871 -1.6224 -0.6599
  262MOL0     H36129  11.245   0.193   9.240 -0.0243  1.1364 -0.1736
  262MOL0     H36130  10.969   0.186   9.346  0.2989 -0.6924 -2.0339
  262MOL0     H36131  11.036   0.321   9.244 -1.4465 -2.1850 -2.3368
  262MOL0     H36132  11.136   0.288   9.529 -3.0240 -0.4985  0.9535
  262MOL0     H36133  10.997   0.381   9.498  1.5753  0.8142  2.0544
  262MOL0     H36134  11.151   0.542   9.487 -0.7453 -1.6742  2.0000
  262MOL0     H36135  11.123   0.514   9.318 -0.5962 -1.5978 -0.9210
  262MOL0     H36136  10.535   0.019   9.379  3.3816 -3.3341 -2.8415
  262MOL0     H36137  10.298   0.138   9.383 -2.7599 -0.2197 -0.9110
  262MOL0     H36138   9.949   0.244   8.866 -4.0775 -2.7048  0.6359
  262MOL0     H36139   9.741   0.367   8.829 -2.8898 -0.0158  1.2318
  262MOL0     H36140   8.664   0.177   9.898 -5.0739 -0.3086  0.1282
  262MOL0     H36141   8.597   0.303  10.086  0.4025 -0.6093 -1.2082
  262MOL0     H36142   8.590   0.460  10.424  2.2777  3.8466  3.6331
  262MOL0     H36143   8.503   0.630  10.577 -1.4942  0.5502  2.2164
  262MOL0     H36144   8.104   0.590  10.803 -1.8687 -2.3420  0.5175
  262MOL0     H36145   8.223   0.473  10.874 -1.5370  1.3552  2.5734
  262MOL0     H36146   8.117   0.659  11.026 -0.1658 -1.7687 -0.5090
  262MOL0     H36147   8.244   0.765  10.948 -1.5180  0.9660  1.8771
  262MOL0     H36148   8.256   0.528  11.129 -0.4727  0.5249  1.0021
  262MOL0     H36149   8.407   0.598  11.056 -2.1387 -2.5759 -2.7640
  262MOL0     H36150   8.218   0.755  11.228  0.0813 -0.6536 -0.6309
  262MOL0     H36151   8.385   0.800  11.188  0.4641  0.5511  0.4063
  262MOL0     H36152   8.493   0.560  11.493  3.3913 -1.0378 -2.1037
  262MOL0     H36153   8.190   0.367  10.700  1.7899 -0.1541  1.6796
  262MOL0     H36154   8.167   0.168  10.636  2.2414 -0.0088  3.3463
  262MOL0     H36155   8.213   0.117  10.475  0.6757  2.7793 -2.5641
  262MOL0     H36156   8.312   0.075  10.614  2.6797 -1.0649 -3.2666
  263MOL0     O36157   7.289   1.974   7.413  0.4566 -0.2451  0.1518
  263MOL0     C36158   7.214   2.063   7.447 -0.4579  0.3926  0.6067
  263MOL0     O36159   7.250   2.187   7.469  0.1971 -0.5617  0.1022
  263MOL0     C36160   7.172   2.291   7.505  0.3729  0.4641  1.0392
  263MOL0     C36161   7.216   2.375   7.611  0.8079  0.1097  0.3019
  263MOL0     C36162   7.153   2.493   7.636  0.6914 -0.3424 -1.5606
  263MOL0     C36163   7.041   2.534   7.565 -0.3967  0.2472 -0.1186
  263MOL0     O36164   6.980   2.652   7.596  0.1216  0.0903  0.2139
  263MOL0     C36165   7.033   2.747   7.685  0.1123 -0.6950  0.4830
  263MOL0     C36166   6.948   2.869   7.697 -0.4291 -0.8343  0.3447
  263MOL0     C36167   6.970   2.931   7.833  0.3502 -0.0806 -0.3342
  263MOL0     C36168   6.861   3.039   7.853  0.1389  0.6376  0.0340
  263MOL0     C36169   6.885   3.123   7.982 -0.0494  0.5301  1.1049
  263MOL0     C36170   6.978   3.247   7.959  0.5935 -0.1700 -0.9971
  263MOL0     C36171   6.913   3.359   7.891 -0.1488 -0.0557  0.4849
  263MOL0     C36172   7.015   3.473   7.899 -0.0387  0.8564  0.4885
  263MOL0     N36173   6.951   3.595   7.840  0.3313  0.8721  0.5169
  263MOL0     C36174   6.938   3.620   7.702  0.2089 -0.5426 -0.7603
  263MOL0     C36175   6.896   3.744   7.692  0.8443  0.9496  0.0825
  263MOL0     C36176   6.877   3.812   7.555  0.5089  0.3049  0.7103
  263MOL0     C36177   6.733   3.780   7.492 -0.6331 -0.7096  0.3511
  263MOL0     C36178   6.627   3.868   7.556  0.5410  1.3508 -0.8960
  263MOL0     C36179   6.537   3.774   7.626  0.5275 -0.0433  0.0312
  263MOL0     O36180   6.416   3.856   7.679 -0.0574 -0.0801 -0.6890
  263MOL0     C36181   6.417   3.930   7.796  0.0983  0.7140 -0.5334
  263MOL0     C36182   6.525   3.965   7.879 -0.1291  1.6918  0.3895
  263MOL0     C36183   6.516   4.047   7.988  0.9749  0.6606 -0.7310
  263MOL0     C36184   6.639   4.061   8.069  0.5239  0.1943  0.7499
  263MOL0     C36185   6.391   4.093   8.030 -0.0438 -0.6185 -0.2135
  263MOL0     C36186   6.349   4.166   8.153  0.1904  0.3749 -0.9447
  263MOL0     O36187   6.217   4.207   8.168 -0.8010  0.2635 -0.5383
  263MOL0     C36188   6.192   4.301   8.266  0.0028  0.2926  0.7498
  263MOL0     C36189   6.259   4.425   8.255  0.7917  0.1967 -0.1368
  263MOL0     C36190   6.243   4.524   8.352 -0.4876  0.8336  0.5010
  263MOL0     C36191   6.167   4.499   8.465 -0.0068 -0.1358 -0.1837
  263MOL0     O36192   6.139   4.582   8.570  0.6073  0.3369  0.3521
  263MOL0     C36193   6.006   4.635   8.552  0.4278  0.5411 -0.5294
  263MOL0     C36194   5.999   4.755   8.625  0.3561 -0.9757 -0.3465
  263MOL0     C36195   6.091   4.866   8.569  0.1755 -0.7705  0.0424
  263MOL0     C36196   5.999   4.995   8.562 -0.0831 -1.8989  1.0578
  263MOL0     C36197   6.070   5.121   8.492  0.0150 -0.5343  0.2896
  263MOL0     C36198   5.974   5.235   8.447 -0.5781  0.9704 -1.4178
  263MOL0     C36199   6.052   5.362   8.417 -0.5710  0.1523 -0.6195
  263MOL0     C36200   6.166   5.361   8.315 -0.1130  0.2398 -0.3910
  263MOL0    Cl36201   6.221   5.528   8.295 -0.4112 -0.3955  0.0568
  263MOL0     C36202   6.104   4.375   8.482  0.8280 -0.7069  1.1206
  263MOL0     C36203   6.119   4.274   8.382 -0.8137 -0.2780  0.2075
  263MOL0     O36204   6.428   4.181   8.243 -0.3426  0.6730 -0.0215
  263MOL0     C36205   6.291   4.087   7.936  0.0547 -0.4961 -0.0510
  263MOL0     C36206   6.302   4.006   7.821  0.5194 -0.8966  0.0397
  263MOL0     N36207   6.882   3.800   7.816  0.1151  0.7199  0.4469
  263MOL0     N36208   6.912   3.704   7.906  0.1158  0.2965  0.0127
  263MOL0     C36209   6.993   2.455   7.466  0.0346 -0.2614  0.8515
  263MOL0     C36210   7.068   2.334   7.430 -0.3164  0.5468  0.1814
  263MOL0     C36211   7.077   2.018   7.469  0.4756  0.2790 -0.5141
  263MOL0     C36212   7.011   2.025   7.594  0.9022  0.7782 -0.3604
  263MOL0     C36213   6.880   1.995   7.616  0.0168  0.5201 -0.4277
  263MOL0     C36214   6.804   1.953   7.518 -0.0536  0.1873  0.6740
  263MOL0     O36215   6.682   1.892   7.528  0.2074  0.4574 -0.3684
  263MOL0     C36216   6.649   1.814   7.645  0.8892 -0.2621  0.5059
  263MOL0     C36217   6.560   1.892   7.741  0.1994 -0.2287 -0.8003
  263MOL0     C36218   6.459   1.798   7.826 -0.9203  0.6030 -0.0311
  263MOL0     C36219   6.435   1.870   7.967  0.3028  0.1569  0.1723
  263MOL0     C36220   6.556   1.894   8.037  0.0106 -0.3913  0.0992
  263MOL0     C36221   6.643   1.917   8.112 -0.2476  0.1038  0.2342
  263MOL0     C36222   6.856   1.939   7.395  0.4832 -0.5325 -0.0206
  263MOL0     C36223   6.993   1.957   7.367  0.5562 -0.0803  0.1207
  263MOL0     C36224   7.047   1.935   7.227 -0.6930  0.4323 -0.4049
  263MOL0     H36225   7.306   2.349   7.665 -0.5265 -0.8540  2.1411
  263MOL0     H36226   7.185   2.553   7.721  0.4014 -1.4717 -0.6218
  263MOL0     H36227   7.138   2.771   7.667 -0.3588  0.7839 -0.5422
  263MOL0     H36228   7.022   2.688   7.776  0.0723 -3.3066 -1.1086
  263MOL0     H36229   6.973   2.940   7.617 -2.1495  0.4077  0.8251
  263MOL0     H36230   6.841   2.844   7.692 -1.1029  1.4594  1.3874
  263MOL0     H36231   6.950   2.861   7.915 -4.9830  2.5782  1.0726
  263MOL0     H36232   7.066   2.981   7.846 -0.7442  2.1273 -0.2866
  263MOL0     H36233   6.846   3.108   7.768 -1.2288  0.5876  0.2062
  263MOL0     H36234   6.768   2.982   7.862  0.2171  0.3538 -0.8496
  263MOL0     H36235   6.918   3.050   8.056  1.2863  2.6052  2.6813
  263MOL0     H36236   6.789   3.155   8.023 -3.8185 -4.7285 -2.2835
  263MOL0     H36237   6.993   3.291   8.058  2.7887  3.0782 -2.5901
  263MOL0     H36238   7.071   3.219   7.909  0.5813 -1.0703 -0.5357
  263MOL0     H36239   6.811   3.369   7.930  0.1434 -2.2854  2.0020
  263MOL0     H36240   6.906   3.339   7.784 -3.4146  0.4843  0.5056
  263MOL0     H36241   7.032   3.491   8.006 -1.5141  0.6846  0.7776
  263MOL0     H36242   7.108   3.439   7.852 -0.8632 -1.5830  0.4814
  263MOL0     H36243   6.959   3.547   7.625 -1.5617 -1.6723 -0.2357
  263MOL0     H36244   6.954   3.780   7.484 -0.9128  0.9805 -1.2588
  263MOL0     H36245   6.889   3.921   7.552  1.6577  0.1856  0.3612
  263MOL0     H36246   6.737   3.782   7.383  1.3334  1.0296  0.3809
  263MOL0     H36247   6.718   3.673   7.508  0.5401 -1.3748 -2.3749
  263MOL0     H36248   6.662   3.938   7.632 -2.6566 -0.8566  2.9781
  263MOL0     H36249   6.583   3.913   7.466  0.3890  1.1982 -0.8986
  263MOL0     H36250   6.496   3.697   7.561 -1.2268 -0.4944  1.5899
  263MOL0     H36251   6.591   3.730   7.711 -0.9023  2.1883  2.2451
  263MOL0     H36252   6.627   3.937   7.855 -0.8409  2.2012 -4.2158
  263MOL0     H36253   6.662   4.167   8.083  1.4668 -0.1979  2.5814
  263MOL0     H36254   6.722   4.008   8.021 -0.9032 -0.8060 -0.7250
  263MOL0     H36255   6.643   4.027   8.173  1.9294 -2.7078 -0.1357
  263MOL0     H36256   6.317   4.437   8.165 -0.0663 -1.7885 -1.0065
  263MOL0     H36257   6.279   4.626   8.342 -0.1683  0.5402 -2.1245
  263MOL0     H36258   5.987   4.654   8.446 -2.9954  1.7474  0.1821
  263MOL0     H36259   5.930   4.567   8.590  0.7363  0.1046 -0.6809
  263MOL0     H36260   5.895   4.786   8.641  1.4563  2.6261  0.8697
  263MOL0     H36261   6.032   4.729   8.726  1.1901 -0.3003 -0.4311
  263MOL0     H36262   6.135   4.837   8.473  0.8156 -1.5706  0.5667
  263MOL0     H36263   6.175   4.890   8.635 -1.2817 -1.1142  2.1092
  263MOL0     H36264   5.959   5.014   8.661  2.1030 -3.3449  2.3031
  263MOL0     H36265   5.918   4.976   8.491  1.2018 -1.7496 -0.5232
  263MOL0     H36266   6.160   5.149   8.546 -1.3411  1.3380  1.6977
  263MOL0     H36267   6.105   5.087   8.394  0.6014 -1.1553  0.7039
  263MOL0     H36268   5.900   5.266   8.521  1.1777  2.6018 -0.2358
  263MOL0     H36269   5.920   5.205   8.357 -1.7880  0.0582 -0.4327
  263MOL0     H36270   6.082   5.401   8.515 -3.1027 -0.8633  0.6548
  263MOL0     H36271   5.977   5.429   8.376 -0.7186 -0.8329 -2.0007
  263MOL0     H36272   6.133   5.321   8.219  4.0717  2.9885 -3.3424
  263MOL0     H36273   6.249   5.301   8.353 -0.0791  0.0457 -0.7647
  263MOL0     H36274   6.061   4.342   8.576  1.1686  1.5845  2.1241
  263MOL0     H36275   6.068   4.180   8.398  0.3497 -0.7133  1.5555
  263MOL0     H36276   6.193   4.126   7.960 -0.5544 -2.5959  1.0775
  263MOL0     H36277   6.220   4.008   7.750 -0.3468 -2.4929  0.9367
  263MOL0     H36278   6.903   2.489   7.417  0.0829 -0.7854  0.3925
  263MOL0     H36279   7.036   2.278   7.343  0.6736 -0.2895  0.3266
  263MOL0     H36280   7.080   2.048   7.674  0.2380 -0.1582  0.5047
  263MOL0     H36281   6.837   1.996   7.715 -2.1207  1.8335 -1.3062
  263MOL0     H36282   6.596   1.721   7.624 -1.8750  1.1257  0.9641
  263MOL0     H36283   6.743   1.778   7.688  0.9244 -1.8018 -0.7538
  263MOL0     H36284   6.512   1.974   7.687  0.3065 -0.6377 -1.5224
  263MOL0     H36285   6.643   1.938   7.796 -1.2336  0.2586  1.0527
  263MOL0     H36286   6.366   1.782   7.771 -3.0115  0.0255  3.4171
  263MOL0     H36287   6.501   1.699   7.843 -1.6108  0.9341  5.0944
  263MOL0     H36288   6.379   1.799   8.029  0.3607  1.2542  1.5282
  263MOL0     H36289   6.389   1.968   7.956  0.8638  0.2822 -1.1903
  263MOL0     H36290   6.724   1.937   8.179 -1.4123  2.1505  1.1146
  263MOL0     H36291   6.786   1.918   7.314  1.2342  2.8029 -1.7346
  263MOL0     H36292   7.079   2.026   7.177 -1.4609 -0.4509 -2.6306
  263MOL0     H36293   7.130   1.864   7.237  0.6625  2.0800  0.4753
  263MOL0     H36294   6.965   1.883   7.176 -1.0887  0.7329 -0.0864
  264MOL0     O36295   4.533   0.212  10.714  0.1409  0.7334  0.2975
  264MOL0     C36296   4.407   0.227  10.732 -1.0115 -0.2340  0.2951
  264MOL0     O36297   4.331   0.175  10.823  0.3912  0.2841  0.1878
  264MOL0     C36298   4.385   0.121  10.935 -0.3989 -0.7753  0.1173
  264MOL0     C36299   4.470   0.012  10.942 -0.9065 -0.0777  0.3472
  264MOL0     C36300   4.518  -0.040  11.060 -0.3903 -0.0897 -0.4969
  264MOL0     C36301   4.463  -0.000  11.182 -0.1995 -0.4288 -0.5265
  264MOL0     O36302   4.520  -0.059  11.296 -0.0142 -0.3616 -0.3268
  264MOL0     C36303   4.516   0.009  11.420 -0.6230  0.7399 -0.9612
  264MOL0     C36304   4.610  -0.043  11.531 -0.6595  0.3076  0.0461
  264MOL0     C36305   4.557  -0.014  11.675 -0.0439  0.4703  0.2590
  264MOL0     C36306   4.680  -0.033  11.767  0.3284  0.0565 -0.0511
  264MOL0     C36307   4.644  -0.065  11.914 -0.3242 -0.1064 -0.2616
  264MOL0     C36308   4.588   0.048  11.996 -0.0142  0.8376  0.2172
  264MOL0     C36309   4.696   0.130  12.065 -0.7544  0.2741 -0.1674
  264MOL0     C36310   4.641   0.232  12.163  0.4350 -1.7456  0.0088
  264MOL0     N36311   4.741   0.308  12.251 -0.5343  0.2603  1.0789
  264MOL0     C36312   4.714   0.374  12.359 -0.0426 -0.6657  0.6977
  264MOL0     C36313   4.817   0.462  12.377 -1.1978  1.3033 -0.4511
  264MOL0     C36314   4.835   0.572  12.468 -0.0116  0.7455 -0.4399
  264MOL0     C36315   4.702   0.595  12.535 -0.1606 -0.2485  0.5223
  264MOL0     C36316   4.716   0.714  12.632  0.2372 -0.8135 -0.2459
  264MOL0     C36317   4.756   0.843  12.561 -0.0422 -0.0824 -0.1032
  264MOL0     O36318   4.793   0.945  12.661  0.4504  0.8804  0.2061
  264MOL0     C36319   4.820   1.067  12.617 -0.1995 -0.4737  0.6764
  264MOL0     C36320   4.836   1.152  12.726 -0.1010 -0.3011 -0.4743
  264MOL0     C36321   4.876   1.282  12.717 -0.0420 -0.1877 -0.9960
  264MOL0     C36322   4.851   1.367  12.843 -0.5016  0.1482  0.2898
  264MOL0     C36323   4.911   1.327  12.595  0.6179  0.2395  0.0432
  264MOL0     C36324   4.964   1.460  12.571  0.0902  0.1951 -0.7912
  264MOL0     O36325   5.069   1.475  12.486 -0.4240  0.7046  0.3745
  264MOL0     C36326   5.142   1.591  12.483 -0.2237 -0.4709 -0.3273
  264MOL0     C36327   5.268   1.577  12.534 -0.6355  0.1443  0.1333
  264MOL0     C36328   5.350   1.688  12.537  1.1448  0.5720  0.3637
  264MOL0     C36329   5.323   1.811  12.483  1.3013 -0.3470  0.1573
  264MOL0     O36330   5.408   1.912  12.491  0.3540  0.6763  0.3091
  264MOL0     C36331   5.372   2.048  12.475 -0.4009  0.3349 -0.8018
  264MOL0     C36332   5.481   2.149  12.524 -0.6811 -0.3710 -0.1822
  264MOL0     C36333   5.445   2.301  12.513 -0.5631 -1.4395 -0.2616
  264MOL0     C36334   5.401   2.361  12.650 -0.6239 -0.2461  0.3137
  264MOL0     C36335   5.256   2.319  12.667 -0.3619 -0.3043  0.6618
  264MOL0     C36336   5.216   2.365  12.802  1.2092  0.0555 -0.7588
  264MOL0     C36337   5.074   2.301  12.844  0.0758 -0.5349 -0.4036
  264MOL0     C36338   5.009   2.369  12.966  0.1884  0.9365 -0.1228
  264MOL0    Cl36339   4.847   2.304  12.966  0.4560 -0.9579  0.0771
  264MOL0     C36340   5.185   1.825  12.440 -0.4088 -0.8816 -0.9968
  264MOL0     C36341   5.096   1.717  12.449 -0.9561 -0.2279 -0.2919
  264MOL0     O36342   4.896   1.554  12.613  0.3336 -0.4139 -0.7582
  264MOL0     C36343   4.915   1.238  12.478  0.7624 -0.0698 -0.0682
  264MOL0     C36344   4.855   1.109  12.491 -0.1840 -0.8203  0.1998
  264MOL0     N36345   4.912   0.431  12.284  0.1203 -0.0783  0.4422
  264MOL0     N36346   4.858   0.347  12.203  0.0195 -0.0455  1.0290
  264MOL0     C36347   4.369   0.106  11.188  0.5041  0.1463  0.4700
  264MOL0     C36348   4.331   0.171  11.064  0.5500  0.8375 -1.1160
  264MOL0     C36349   4.340   0.326  10.642  0.0772 -0.0511 -0.1173
  264MOL0     C36350   4.199   0.316  10.627  0.7559  0.0033  0.0106
  264MOL0     C36351   4.128   0.415  10.550 -0.3767  0.7809  0.6400
  264MOL0     C36352   4.201   0.513  10.481 -0.9414  0.3106  1.1689
  264MOL0     O36353   4.148   0.609  10.399 -0.7147  0.1738  0.1059
  264MOL0     C36354   4.123   0.571  10.264 -0.2673  0.7556  0.2365
  264MOL0     C36355   4.250   0.571  10.182 -0.5765  0.2161  0.5382
  264MOL0     C36356   4.239   0.613  10.029  0.1529 -0.1338  0.4117
  264MOL0     C36357   4.368   0.607   9.941  0.5803 -0.4444 -0.5662
  264MOL0     C36358   4.345   0.686   9.824  0.1635 -0.1475 -1.2171
  264MOL0     C36359   4.338   0.743   9.721 -0.3149 -0.5897  0.3023
  264MOL0     C36360   4.336   0.518  10.494 -0.0045  0.0605 -0.4410
  264MOL0     C36361   4.406   0.428  10.565  0.7799  1.5909  0.0214
  264MOL0     C36362   4.559   0.466  10.571  0.2353 -0.2636  1.1742
  264MOL0     H36363   4.519  -0.037  10.858 -1.3065 -0.2986  0.2412
  264MOL0     H36364   4.588  -0.122  11.073  2.7035  2.6489  2.1474
  264MOL0     H36365   4.410   0.007  11.447 -0.1551 -1.4938  0.9719
  264MOL0     H36366   4.542   0.115  11.412  1.2165  0.5862  1.6149
  264MOL0     H36367   4.609  -0.150  11.513  1.6010 -0.2182  2.3513
  264MOL0     H36368   4.713  -0.014  11.506 -0.2414 -0.6559  0.5987
  264MOL0     H36369   4.526   0.090  11.686  1.7563  1.1334 -0.5933
  264MOL0     H36370   4.462  -0.068  11.683 -1.4892  2.3540 -2.3545
  264MOL0     H36371   4.741  -0.111  11.722  0.9604  0.6506 -0.2316
  264MOL0     H36372   4.740   0.057  11.752  1.9428 -1.2041 -1.6198
  264MOL0     H36373   4.737  -0.097  11.962 -0.4503  0.2872  0.2635
  264MOL0     H36374   4.580  -0.154  11.912 -0.1028 -0.2433 -1.6051
  264MOL0     H36375   4.532   0.107  11.923  3.9974  1.5725 -2.6442
  264MOL0     H36376   4.522   0.005  12.071  0.0022 -2.1442 -1.3263
  264MOL0     H36377   4.765   0.175  11.993  1.0164 -0.8526  0.7632
  264MOL0     H36378   4.755   0.065  12.129  1.9775  2.1157 -0.6301
  264MOL0     H36379   4.587   0.306  12.103  0.9938 -1.7556 -0.5210
  264MOL0     H36380   4.569   0.176  12.223 -1.1351 -1.0578 -1.1862
  264MOL0     H36381   4.617   0.367  12.407 -0.4742 -2.9312 -0.3719
  264MOL0     H36382   4.870   0.658  12.410 -0.3940  0.5458 -0.9746
  264MOL0     H36383   4.908   0.547  12.546 -1.2649 -1.5902  0.0742
  264MOL0     H36384   4.623   0.623  12.465  1.8672  0.7866 -1.4645
  264MOL0     H36385   4.671   0.503  12.584  3.1205 -1.6332  0.2465
  264MOL0     H36386   4.623   0.723  12.688  1.6743 -1.0903  2.3565
  264MOL0     H36387   4.784   0.682  12.712  1.0494  1.8910  0.2505
  264MOL0     H36388   4.839   0.816  12.496  1.8874 -0.3987  2.3398
  264MOL0     H36389   4.679   0.885  12.495  0.1058  3.2050  1.6036
  264MOL0     H36390   4.797   1.120  12.822  0.3154  0.1359 -0.1597
  264MOL0     H36391   4.824   1.471  12.822  0.2025  0.4534  0.8496
  264MOL0     H36392   4.939   1.358  12.906 -0.9968 -1.9551  0.7646
  264MOL0     H36393   4.764   1.330  12.898 -2.6906  2.9767 -1.0226
  264MOL0     H36394   5.310   1.486  12.576  1.1852 -0.0044 -1.8291
  264MOL0     H36395   5.450   1.666  12.574  0.9104 -1.7180 -0.2369
  264MOL0     H36396   5.348   2.073  12.372 -0.5496 -0.1732 -0.8953
  264MOL0     H36397   5.278   2.053  12.531  0.1596 -0.3009  0.2492
  264MOL0     H36398   5.510   2.118  12.625 -3.3025 -3.4898 -0.2472
  264MOL0     H36399   5.569   2.129  12.462  0.4593 -4.6085  2.4028
  264MOL0     H36400   5.375   2.314  12.430  0.0753  2.2766 -0.3817
  264MOL0     H36401   5.539   2.355  12.500 -1.3192 -0.0242 -0.0369
  264MOL0     H36402   5.421   2.468  12.658  0.2304 -0.4884  1.9659
  264MOL0     H36403   5.464   2.312  12.725  0.7142 -0.0320 -0.6347
  264MOL0     H36404   5.189   2.351  12.587 -1.6023 -3.0698  0.4569
  264MOL0     H36405   5.244   2.210  12.672 -0.5854 -0.2821  0.5958
  264MOL0     H36406   5.193   2.471  12.799 -3.5473 -0.7938 -1.8278
  264MOL0     H36407   5.293   2.329  12.872  2.2452  0.1312 -1.8306
  264MOL0     H36408   5.070   2.191  12.847 -0.7616 -0.6092 -2.4411
  264MOL0     H36409   4.997   2.326  12.770 -0.2876  2.7674  0.9354
  264MOL0     H36410   5.013   2.478  12.956 -2.4512  1.5324  3.5162
  264MOL0     H36411   5.062   2.339  13.056  0.3883  1.1312 -0.1729
  264MOL0     H36412   5.136   1.918  12.413 -1.4781 -0.9618  0.5474
  264MOL0     H36413   4.994   1.749  12.429  0.0413  3.3183 -0.4080
  264MOL0     H36414   4.941   1.272  12.378 -1.8754 -0.8091 -1.0941
  264MOL0     H36415   4.859   1.041  12.406 -0.8148 -1.2826  0.5298
  264MOL0     H36416   4.342   0.139  11.288 -0.7112 -0.1626  0.2516
  264MOL0     H36417   4.267   0.258  11.058 -0.5994  0.0189 -1.1649
  264MOL0     H36418   4.143   0.243  10.685 -1.2274  1.1647 -0.3602
  264MOL0     H36419   4.022   0.396  10.551 -0.1318 -1.3742  4.8054
  264MOL0     H36420   4.083   0.470  10.252  0.3186 -0.4008  5.5430
  264MOL0     H36421   4.047   0.641  10.229  0.4052 -0.2063 -3.6565
  264MOL0     H36422   4.304   0.476  10.182  2.4772  1.8138  2.0157
  264MOL0     H36423   4.312   0.648  10.228  1.1842 -0.9900  0.2816
  264MOL0     H36424   4.169   0.551   9.972  2.2063  0.4138 -3.0005
  264MOL0     H36425   4.195   0.712  10.038 -0.3582 -0.4381  1.3994
  264MOL0     H36426   4.403   0.505   9.927 -0.0962 -1.0059  1.4530
  264MOL0     H36427   4.450   0.653   9.998 -0.7801  2.9716 -1.0794
  264MOL0     H36428   4.347   0.817   9.644  0.4622 -0.5979  0.3755
  264MOL0     H36429   4.383   0.598  10.436  0.8694 -1.5189 -1.9986
  264MOL0     H36430   4.591   0.565  10.538  0.9955 -0.3313  1.6765
  264MOL0     H36431   4.578   0.475  10.678  1.8805  0.3553  0.8547
  264MOL0     H36432   4.633   0.394  10.535  1.2026  1.4435 -0.4317
  265MOL0     O36433   5.316   6.950   3.224  0.5951 -0.1019  0.4429
  265MOL0     C36434   5.315   7.069   3.249  0.6045  0.2647 -1.3394
  265MOL0     O36435   5.365   7.166   3.170  0.0184 -0.7727  0.3619
  265MOL0     C36436   5.393   7.130   3.038 -0.2293 -0.4307 -0.1364
  265MOL0     C36437   5.499   7.044   3.005  0.0083 -0.1137 -0.6212
  265MOL0     C36438   5.548   7.029   2.876 -0.4406  0.3016 -0.6224
  265MOL0     C36439   5.467   7.080   2.766 -0.2170 -0.1913 -0.2333
  265MOL0     O36440   5.509   7.055   2.633 -0.9210 -0.1058 -0.1571
  265MOL0     C36441   5.418   7.056   2.524 -0.1936  0.4620  0.3298
  265MOL0     C36442   5.478   7.018   2.387 -0.7589  0.4937 -0.4417
  265MOL0     C36443   5.510   6.867   2.364  0.2644 -0.9519  0.5079
  265MOL0     C36444   5.634   6.802   2.439  0.0515 -0.5986  0.1625
  265MOL0     C36445   5.769   6.869   2.412 -0.0909 -0.2180  0.4167
  265MOL0     C36446   5.888   6.781   2.464  0.0342 -0.1177  0.3614
  265MOL0     C36447   6.031   6.854   2.431 -0.7128  1.3607  0.5421
  265MOL0     C36448   6.162   6.791   2.486  0.2462 -0.2821  0.8142
  265MOL0     N36449   6.171   6.833   2.629 -0.3202  0.4866  0.5796
  265MOL0     C36450   6.280   6.877   2.696 -0.2036  0.0566 -0.0233
  265MOL0     C36451   6.241   6.878   2.824 -0.6234 -0.0955 -0.4758
  265MOL0     C36452   6.316   6.933   2.942  0.8323  1.1338  0.3420
  265MOL0     C36453   6.318   7.096   2.914  0.7567  1.0197 -0.9326
  265MOL0     C36454   6.438   7.178   2.974  0.2987 -0.3471  0.6357
  265MOL0     C36455   6.453   7.166   3.128  0.1704 -0.4873  0.1924
  265MOL0     O36456   6.581   7.196   3.169 -0.0203  0.0139  0.2725
  265MOL0     C36457   6.678   7.094   3.182 -0.0526  0.4837  0.5313
  265MOL0     C36458   6.782   7.084   3.092  0.2338 -0.3975 -0.7458
  265MOL0     C36459   6.866   6.967   3.093  0.5345 -0.5510 -0.6403
  265MOL0     C36460   6.975   6.970   2.981  0.0380  0.2560 -0.6872
  265MOL0     C36461   6.835   6.861   3.179 -0.1242 -0.2382 -0.2316
  265MOL0     C36462   6.910   6.728   3.180  0.7364  0.0511 -0.1315
  265MOL0     O36463   6.922   6.654   3.298  0.1041 -0.0782 -0.2564
  265MOL0     C36464   6.974   6.526   3.274  0.0872 -0.0921  0.7396
  265MOL0     C36465   6.891   6.414   3.242 -0.0373 -0.3245 -0.6990
  265MOL0     C36466   6.954   6.300   3.205  0.0781  0.3919  0.6438
  265MOL0     C36467   7.094   6.281   3.190 -0.2684  0.0314  0.7062
  265MOL0     O36468   7.165   6.165   3.165 -1.0035 -0.4543  1.3555
  265MOL0     C36469   7.094   6.043   3.176  0.1958  0.5747  0.1030
  265MOL0     C36470   7.198   5.934   3.159 -0.4161  0.3121 -0.1143
  265MOL0     C36471   7.151   5.785   3.161 -0.3559 -0.6131 -0.7172
  265MOL0     C36472   7.035   5.748   3.071  0.4558 -1.0061  0.6302
  265MOL0     C36473   7.080   5.714   2.930 -0.0702  0.7179  0.2967
  265MOL0     C36474   6.972   5.623   2.863  0.0612  0.1962 -0.6957
  265MOL0     C36475   7.045   5.552   2.742  0.0345  0.0161  1.2331
  265MOL0     C36476   6.972   5.426   2.698  0.5714 -0.8033 -0.2768
  265MOL0    Cl36477   7.074   5.340   2.569 -0.1234 -0.7430 -0.0170
  265MOL0     C36478   7.171   6.397   3.214  0.0029 -0.0300  0.2430
  265MOL0     C36479   7.109   6.511   3.262 -0.6639 -0.0738 -0.4704
  265MOL0     O36480   6.966   6.705   3.073  0.0872  0.3760 -0.2462
  265MOL0     C36481   6.740   6.878   3.276  0.0828 -0.0156 -0.2447
  265MOL0     C36482   6.665   6.996   3.287  0.7309 -0.5091 -0.1216
  265MOL0     N36483   6.113   6.846   2.834  0.4803  0.3409  0.3082
  265MOL0     N36484   6.077   6.805   2.718  0.0117 -0.0577 -0.7766
  265MOL0     C36485   5.350   7.157   2.803  0.2715 -0.1045  0.2078
  265MOL0     C36486   5.315   7.172   2.939  0.4434 -0.7876  0.3217
  265MOL0     C36487   5.279   7.099   3.393 -0.3068  1.4866 -0.0709
  265MOL0     C36488   5.294   6.999   3.491 -0.4622  0.1734 -1.0376
  265MOL0     C36489   5.261   7.009   3.627 -1.3290 -0.0383  0.4412
  265MOL0     C36490   5.209   7.136   3.668  0.3645 -1.1586  0.2105
  265MOL0     O36491   5.172   7.171   3.797 -0.4942 -0.1505 -0.3308
  265MOL0     C36492   5.066   7.096   3.840  0.2541 -0.8881  1.0254
  265MOL0     C36493   5.107   7.040   3.982  0.2376 -0.1598  0.2024
  265MOL0     C36494   5.082   7.151   4.095 -0.6203  0.1799 -0.2625
  265MOL0     C36495   5.065   7.089   4.235  1.0786  0.2004  0.3669
  265MOL0     C36496   4.963   7.163   4.311  0.0801  0.8034  0.3095
  265MOL0     C36497   4.890   7.235   4.365  0.5611  0.5551  0.2528
  265MOL0     C36498   5.187   7.228   3.570  1.1561 -0.0535  0.1050
  265MOL0     C36499   5.211   7.220   3.439 -0.0582 -0.0887 -0.0137
  265MOL0     C36500   5.192   7.344   3.355 -0.3071  0.6144  0.2972
  265MOL0     H36501   5.546   6.982   3.082 -0.2924 -2.4629 -2.2250
  265MOL0     H36502   5.630   6.965   2.847  0.1780 -0.6347  2.7755
  265MOL0     H36503   5.371   7.155   2.520  2.2842  1.6909 -0.5246
  265MOL0     H36504   5.338   6.983   2.535  1.0344 -0.6102  3.0686
  265MOL0     H36505   5.403   7.055   2.317 -2.7347  0.1838  1.3910
  265MOL0     H36506   5.570   7.076   2.376 -0.4977 -0.2724 -2.9020
  265MOL0     H36507   5.422   6.803   2.377 -2.1885  0.5131 -5.4087
  265MOL0     H36508   5.524   6.866   2.255 -0.8691  1.4804  0.2807
  265MOL0     H36509   5.613   6.808   2.546  2.8724 -2.1928  0.9212
  265MOL0     H36510   5.636   6.695   2.419  2.0660 -0.4990 -0.4543
  265MOL0     H36511   5.777   6.971   2.450  1.5941  0.1155 -0.7318
  265MOL0     H36512   5.773   6.890   2.305 -2.4638 -1.7670 -0.0712
  265MOL0     H36513   5.878   6.773   2.573 -0.3835  2.0387  0.5107
  265MOL0     H36514   5.878   6.680   2.422 -0.0955  0.8490 -2.0500
  265MOL0     H36515   6.026   6.951   2.482 -0.4728  0.6455  1.9967
  265MOL0     H36516   6.033   6.866   2.323 -3.8522 -1.9614 -0.0848
  265MOL0     H36517   6.152   6.682   2.486  2.2178 -0.5223 -0.6039
  265MOL0     H36518   6.241   6.814   2.415 -0.0851 -1.2610  0.1071
  265MOL0     H36519   6.380   6.904   2.664 -0.3335  2.2141  1.1719
  265MOL0     H36520   6.417   6.892   2.932 -0.0049 -0.4139 -3.0947
  265MOL0     H36521   6.272   6.907   3.039  0.1926 -0.7881 -0.4331
  265MOL0     H36522   6.317   7.110   2.806  1.5725 -3.2575 -1.6674
  265MOL0     H36523   6.225   7.145   2.942  1.5127  2.5143 -0.9174
  265MOL0     H36524   6.526   7.136   2.925 -1.5759  0.8081 -4.3542
  265MOL0     H36525   6.441   7.280   2.936  1.0053 -1.0630 -1.3902
  265MOL0     H36526   6.370   7.229   3.162 -0.3765 -1.9867  1.7433
  265MOL0     H36527   6.423   7.065   3.158 -3.5309  0.0930 -0.9313
  265MOL0     H36528   6.798   7.161   3.018  2.8771 -0.0925  0.0357
  265MOL0     H36529   6.952   6.893   2.906 -0.1811 -1.9332  1.4719
  265MOL0     H36530   7.074   6.945   3.021  0.4197 -0.5276 -2.0727
  265MOL0     H36531   6.991   7.066   2.931 -1.2600  0.6250 -0.4403
  265MOL0     H36532   6.789   6.442   3.215  1.1053  3.7825 -1.5049
  265MOL0     H36533   6.889   6.217   3.181 -2.2889  1.7303  1.9602
  265MOL0     H36534   7.057   6.029   3.278 -0.7846 -1.7206 -0.5060
  265MOL0     H36535   7.010   6.033   3.107 -0.9598  3.7771  0.8707
  265MOL0     H36536   7.245   5.946   3.061 -0.4438  1.3377 -0.0182
  265MOL0     H36537   7.272   5.941   3.239 -1.1492 -0.6948  0.6737
  265MOL0     H36538   7.125   5.775   3.267  0.7059  1.6938 -0.1915
  265MOL0     H36539   7.237   5.722   3.135 -0.1137  0.2864 -2.2208
  265MOL0     H36540   6.954   5.821   3.075  0.0505 -1.5083  1.8792
  265MOL0     H36541   6.990   5.663   3.122 -2.4721 -1.4879 -2.4455
  265MOL0     H36542   7.111   5.801   2.871  0.0792  0.4483 -0.0279
  265MOL0     H36543   7.164   5.647   2.951 -1.3055 -0.6899  0.9512
  265MOL0     H36544   6.892   5.685   2.822 -1.9210 -2.0562 -0.4423
  265MOL0     H36545   6.918   5.553   2.927 -1.1709  1.9898  0.3029
  265MOL0     H36546   7.149   5.540   2.775  2.0453  3.0893 -2.8781
  265MOL0     H36547   7.049   5.619   2.655 -0.2752 -1.0912  0.3360
  265MOL0     H36548   6.882   5.463   2.647 -0.5116 -1.0582  1.4010
  265MOL0     H36549   6.937   5.360   2.778  1.9811 -1.2475 -0.0015
  265MOL0     H36550   7.276   6.373   3.204 -0.3069 -2.0509  1.4139
  265MOL0     H36551   7.166   6.595   3.302  1.3137 -3.0515  3.7221
  265MOL0     H36552   6.719   6.789   3.335  5.2251 -0.0680  2.0549
  265MOL0     H36553   6.589   7.003   3.364  0.7964  1.0781 -0.1531
  265MOL0     H36554   5.304   7.218   2.726 -0.1756  2.0252  2.0469
  265MOL0     H36555   5.230   7.234   2.965  1.4117  0.1543  1.3606
  265MOL0     H36556   5.353   6.917   3.452  2.9061  1.6217  0.5452
  265MOL0     H36557   5.291   6.937   3.702  2.4465  2.7386  1.9446
  265MOL0     H36558   4.979   7.162   3.836 -0.9957 -2.5392 -1.3332
  265MOL0     H36559   5.057   7.010   3.773  1.5644  0.7719 -1.4170
  265MOL0     H36560   5.208   6.998   3.971 -0.6864 -1.8881 -2.7229
  265MOL0     H36561   5.050   6.948   3.996  0.5065 -0.2097  1.0034
  265MOL0     H36562   5.177   7.205   4.087 -0.7581  0.3250 -0.9480
  265MOL0     H36563   4.990   7.204   4.073 -0.7977  0.2449  0.5793
  265MOL0     H36564   5.153   7.081   4.300  1.5430 -2.2454 -0.4760
  265MOL0     H36565   5.030   6.985   4.228  0.6307  0.2139  1.9713
  265MOL0     H36566   4.821   7.307   4.404 -0.0457  0.6297 -0.9070
  265MOL0     H36567   5.151   7.324   3.605  1.5498  0.3916 -0.6801
  265MOL0     H36568   5.196   7.436   3.414  3.9220  0.4207  0.6164
  265MOL0     H36569   5.268   7.365   3.279 -1.6620  1.2290 -0.9616
  265MOL0     H36570   5.091   7.341   3.313 -0.7536  4.4899  0.7027
  266MOL0     O36571  10.811   2.070   6.557  0.2285 -0.2557 -0.9738
  266MOL0     C36572  10.832   2.035   6.443  0.3209  0.0210 -0.0058
  266MOL0     O36573  10.791   1.915   6.385  0.0899 -0.6388 -0.4373
  266MOL0     C36574  10.695   1.831   6.451 -0.2178 -0.2242 -0.0125
  266MOL0     C36575  10.592   1.866   6.531 -0.8317 -0.1162  0.2822
  266MOL0     C36576  10.485   1.785   6.581 -0.3392 -0.2873  0.0390
  266MOL0     C36577  10.481   1.651   6.548  0.8852 -0.0437  0.4154
  266MOL0     O36578  10.394   1.562   6.603  0.1494 -0.1719 -0.0268
  266MOL0     C36579  10.317   1.474   6.519  0.6256 -0.4011  0.2986
  266MOL0     C36580  10.182   1.441   6.572 -0.1562  0.5170  0.0174
  266MOL0     C36581  10.096   1.360   6.489  0.7509 -0.7156  0.2951
  266MOL0     C36582   9.944   1.395   6.491  0.1659  0.6873  0.1532
  266MOL0     C36583   9.873   1.327   6.369 -0.4630 -0.1905 -0.1559
  266MOL0     C36584   9.718   1.321   6.370  0.0720 -0.1545  0.3131
  266MOL0     C36585   9.643   1.272   6.248  0.8021 -0.8508 -0.5830
  266MOL0     C36586   9.668   1.130   6.193 -0.3219 -0.2329  0.1084
  266MOL0     N36587   9.579   1.106   6.082 -0.3416 -1.1602 -0.5289
  266MOL0     C36588   9.559   1.190   5.978 -0.3093  1.1699  0.1183
  266MOL0     C36589   9.462   1.142   5.895 -0.3287  0.6027 -0.1407
  266MOL0     C36590   9.405   1.208   5.779  0.7252  0.5933 -0.2668
  266MOL0     C36591   9.275   1.144   5.713 -1.2751 -0.7011  0.8899
  266MOL0     C36592   9.267   1.176   5.563 -0.5950  0.7132 -0.1052
  266MOL0     C36593   9.124   1.148   5.520  0.0068 -1.5287 -0.1235
  266MOL0     O36594   9.087   1.015   5.547  0.9592 -0.3279  0.4104
  266MOL0     C36595   8.978   0.965   5.475 -0.3880  0.3690  0.1976
  266MOL0     C36596   8.976   0.827   5.446  0.1940  0.2280  0.4354
  266MOL0     C36597   8.865   0.769   5.373 -0.2829  0.0543 -0.5142
  266MOL0     C36598   8.880   0.623   5.330 -0.6892  0.8827  0.0041
  266MOL0     C36599   8.758   0.852   5.326  0.8053  0.2572 -0.5212
  266MOL0     C36600   8.634   0.790   5.273  0.1428 -0.6258  0.1976
  266MOL0     O36601   8.600   0.658   5.301  0.1009  0.3248  0.4077
  266MOL0     C36602   8.501   0.593   5.237  0.1921 -0.0860 -0.4851
  266MOL0     C36603   8.487   0.468   5.300 -0.2455 -0.4291  0.7157
  266MOL0     C36604   8.405   0.375   5.246 -0.3732  0.4514  1.7687
  266MOL0     C36605   8.329   0.402   5.132 -0.3800  0.6006 -0.2752
  266MOL0     O36606   8.250   0.302   5.081  0.9191 -0.5336 -0.2125
  266MOL0     C36607   8.110   0.332   5.098 -0.7471  0.0402 -0.3861
  266MOL0     C36608   8.034   0.222   5.024  0.4903 -0.7226  1.2272
  266MOL0     C36609   8.066   0.238   4.865  0.7918 -0.1254 -0.2547
  266MOL0     C36610   7.947   0.196   4.774 -0.5848 -0.3167 -0.0523
  266MOL0     C36611   7.953   0.038   4.753 -0.5186 -0.8936 -0.3962
  266MOL0     C36612   7.830   0.003   4.664 -0.4453  0.4872  0.5399
  266MOL0     C36613   7.877  -0.009   4.514 -0.0400 -0.2790  0.3131
  266MOL0     C36614   7.762   0.041   4.425 -0.2774  0.0313 -2.0797
  266MOL0    Cl36615   7.798   0.027   4.244  0.1096  0.2646  0.3074
  266MOL0     C36616   8.350   0.525   5.067  0.3892  0.8609 -0.2538
  266MOL0     C36617   8.431   0.616   5.116  0.0577  0.4441 -0.0290
  266MOL0     O36618   8.586   0.862   5.185  0.1140 -0.2372  0.2032
  266MOL0     C36619   8.764   0.990   5.355  0.8001 -0.5136 -0.2942
  266MOL0     C36620   8.868   1.047   5.430  0.3116 -0.4656  0.1508
  266MOL0     N36621   9.408   1.025   5.956 -0.5097 -0.1861 -1.4666
  266MOL0     N36622   9.482   1.002   6.063 -0.1985 -0.9076  0.7704
  266MOL0     C36623  10.594   1.608   6.464  1.3602  1.4745 -0.1262
  266MOL0     C36624  10.687   1.697   6.408 -0.2543 -0.1156 -0.4199
  266MOL0     C36625  10.913   2.123   6.355 -0.2898  0.1130  0.9520
  266MOL0     C36626  10.973   2.054   6.244 -0.1779  0.2768 -0.3702
  266MOL0     C36627  11.075   2.119   6.178  1.4050 -0.4641  1.0516
  266MOL0     C36628  11.114   2.243   6.204 -0.2157 -0.5049 -0.7541
  266MOL0     O36629  11.224   2.305   6.146 -0.6806  0.3759 -0.5117
  266MOL0     C36630  11.340   2.287   6.230  0.9761 -0.0207  0.1816
  266MOL0     C36631  11.358   2.404   6.327 -0.0386 -0.3392  0.4778
  266MOL0     C36632  11.503   2.440   6.323 -0.9338  0.4914  0.2742
  266MOL0     C36633  11.539   2.517   6.446  1.0060 -0.2795 -1.3601
  266MOL0     C36634  11.682   2.529   6.461  0.5355  0.9059 -0.2478
  266MOL0     C36635  11.796   2.551   6.477 -0.1451 -0.7804  0.4222
  266MOL0     C36636  11.045   2.319   6.303  0.1290  0.3013  0.3736
  266MOL0     C36637  10.945   2.257   6.377  0.0196  0.2478 -0.4092
  266MOL0     C36638  10.880   2.323   6.488 -0.1206  0.9213 -0.0078
  266MOL0     H36639  10.594   1.974   6.546 -4.2128  0.2534 -1.1941
  266MOL0     H36640  10.412   1.818   6.654  0.5818  2.0078  0.0178
  266MOL0     H36641  10.380   1.385   6.515  1.3823 -0.2592  4.5101
  266MOL0     H36642  10.288   1.527   6.428  0.1496  3.4273  2.4484
  266MOL0     H36643  10.187   1.411   6.677 -3.0146 -0.3252 -0.0215
  266MOL0     H36644  10.127   1.535   6.577 -3.3883 -1.0708 -2.3549
  266MOL0     H36645  10.130   1.365   6.385 -1.3065 -2.0230 -0.5018
  266MOL0     H36646  10.097   1.254   6.516  0.4087 -0.3559  1.7870
  266MOL0     H36647   9.906   1.359   6.587 -0.1962 -0.7907 -0.5202
  266MOL0     H36648   9.923   1.503   6.493 -2.4657  0.2645 -0.4754
  266MOL0     H36649   9.915   1.226   6.365  0.2202 -0.0723  2.3506
  266MOL0     H36650   9.903   1.381   6.279 -0.3994 -0.8536 -0.5429
  266MOL0     H36651   9.687   1.269   6.462 -0.0281  2.4497  1.8435
  266MOL0     H36652   9.698   1.427   6.383 -1.4475 -0.4525  0.5346
  266MOL0     H36653   9.665   1.347   6.172  3.2277  1.9911  2.6403
  266MOL0     H36654   9.538   1.277   6.278  0.8379  2.3224 -0.7221
  266MOL0     H36655   9.770   1.119   6.155  0.2521 -3.1054  2.1089
  266MOL0     H36656   9.652   1.064   6.279 -0.8804  3.7394  3.3454
  266MOL0     H36657   9.618   1.281   5.972  1.9395 -0.0394  2.0011
  266MOL0     H36658   9.477   1.215   5.697  0.0396  0.5888 -0.8777
  266MOL0     H36659   9.396   1.312   5.811  5.8851  1.0941  0.3543
  266MOL0     H36660   9.278   1.036   5.729 -0.6110 -0.4730  2.5508
  266MOL0     H36661   9.182   1.182   5.756 -2.3516  0.0556 -1.9252
  266MOL0     H36662   9.295   1.277   5.532  2.8198  0.1526  0.6829
  266MOL0     H36663   9.334   1.111   5.506 -0.9020  1.4792 -1.3597
  266MOL0     H36664   9.061   1.224   5.568 -2.1820 -2.0870 -1.9240
  266MOL0     H36665   9.119   1.169   5.413 -2.0751  0.4090  0.2685
  266MOL0     H36666   9.062   0.763   5.461  1.3273  1.0350 -2.0166
  266MOL0     H36667   8.986   0.597   5.324 -0.7724  0.7893 -1.5087
  266MOL0     H36668   8.821   0.613   5.239 -0.9982 -1.3162  0.4020
  266MOL0     H36669   8.855   0.552   5.409  1.1075 -1.4824 -1.4095
  266MOL0     H36670   8.532   0.445   5.396  1.3727  1.2068  0.4140
  266MOL0     H36671   8.388   0.281   5.297 -2.7429  0.3307  0.9044
  266MOL0     H36672   8.084   0.321   5.203 -3.0720  1.9536 -0.6761
  266MOL0     H36673   8.083   0.434   5.068 -0.5093  0.5205  0.9597
  266MOL0     H36674   8.050   0.120   5.061  0.0165 -0.9171  0.9106
  266MOL0     H36675   7.928   0.244   5.037  0.5894  0.4897  0.1588
  266MOL0     H36676   8.156   0.182   4.837  0.6003  0.7129 -2.8551
  266MOL0     H36677   8.094   0.339   4.835  2.7231 -0.8589 -1.1416
  266MOL0     H36678   7.950   0.260   4.685 -1.0449 -0.1659  0.0332
  266MOL0     H36679   7.849   0.227   4.814  0.6391  4.6320 -0.1848
  266MOL0     H36680   8.045  -0.000   4.708 -0.1741  1.1969 -1.6137
  266MOL0     H36681   7.939   0.003   4.856  0.4184  1.7514  0.7290
  266MOL0     H36682   7.766   0.092   4.659 -0.7862  0.6799  4.6627
  266MOL0     H36683   7.771  -0.081   4.700  0.5675  0.3148  1.8617
  266MOL0     H36684   7.903  -0.111   4.482  1.0957  0.4624 -1.2947
  266MOL0     H36685   7.966   0.051   4.494  0.5928 -1.3738 -0.2653
  266MOL0     H36686   7.741   0.148   4.435  1.4907  0.5300 -3.2058
  266MOL0     H36687   7.670  -0.012   4.453 -0.8488  2.3256  0.9812
  266MOL0     H36688   8.290   0.544   4.979 -1.7423  0.9991  1.1512
  266MOL0     H36689   8.448   0.698   5.046 -2.1307  1.2883  0.3475
  266MOL0     H36690   8.685   1.062   5.334 -1.6394 -1.5429  4.1445
  266MOL0     H36691   8.862   1.153   5.453  1.3814 -0.5010  0.6909
  266MOL0     H36692  10.608   1.500   6.461  0.5870  1.3888 -0.9482
  266MOL0     H36693  10.759   1.671   6.331 -0.7495 -2.6193 -0.1305
  266MOL0     H36694  10.963   1.948   6.221  0.4327 -0.3505  2.0494
  266MOL0     H36695  11.127   2.079   6.091 -1.5877 -3.5762  0.4974
  266MOL0     H36696  11.331   2.185   6.269  0.2021 -0.2481 -0.5532
  266MOL0     H36697  11.429   2.287   6.167  1.2941  2.4365  0.5176
  266MOL0     H36698  11.322   2.371   6.424 -4.4818  0.7198 -0.6062
  266MOL0     H36699  11.307   2.494   6.291 -0.1588 -0.4980  0.2478
  266MOL0     H36700  11.562   2.348   6.313 -1.1193 -0.0860  3.5170
  266MOL0     H36701  11.521   2.499   6.232 -1.5421 -0.8061 -0.7254
  266MOL0     H36702  11.496   2.470   6.534 -0.2103  3.9274  0.5684
  266MOL0     H36703  11.494   2.617   6.448  2.5566  0.5256  2.6516
  266MOL0     H36704  11.891   2.584   6.514 -0.8301 -1.7266  3.2926
  266MOL0     H36705  11.092   2.411   6.338  1.7821  0.2716 -1.5497
  266MOL0     H36706  10.902   2.286   6.588  1.4309  3.2600  0.5993
  266MOL0     H36707  10.914   2.426   6.503 -1.6920  1.7934 -1.9558
  266MOL0     H36708  10.771   2.327   6.474 -0.1209 -1.1960 -0.9360
  267MOL0     O36709  10.945   4.292   9.868 -0.5476 -0.6667  0.4082
  267MOL0     C36710  10.848   4.349   9.927 -0.0655 -0.0379 -0.3445
  267MOL0     O36711  10.786   4.310  10.050  0.3625  0.0443  0.0492
  267MOL0     C36712  10.858   4.228  10.131  0.3526  0.3217  0.9348
  267MOL0     C36713  10.911   4.268  10.253  0.3484  0.2859 -0.5178
  267MOL0     C36714  10.987   4.185  10.332 -0.2163  1.1005  0.0866
  267MOL0     C36715  11.007   4.049  10.298  0.2752  0.0703  0.0325
  267MOL0     O36716  11.075   3.982  10.397 -0.2565  0.2258 -0.9497
  267MOL0     C36717  11.088   3.832  10.394  0.0660  0.3713 -1.0891
  267MOL0     C36718  11.194   3.796  10.499  0.7651  0.1211  0.4402
  267MOL0     C36719  11.146   3.809  10.638 -0.1885  0.2897  0.3354
  267MOL0     C36720  11.262   3.788  10.737 -0.5369 -0.1579  0.1193
  267MOL0     C36721  11.202   3.753  10.886  0.5098 -0.7734  0.2319
  267MOL0     C36722  11.308   3.687  10.978  1.0164  0.5417  0.0914
  267MOL0     C36723  11.441   3.769  10.976  1.3880  0.4313  0.4822
  267MOL0     C36724  11.538   3.689  11.067 -0.6658 -0.9672  0.6121
  267MOL0     N36725  11.514   3.703  11.210 -0.2080  0.4891 -0.1583
  267MOL0     C36726  11.472   3.603  11.302  0.3695 -0.0263  0.9554
  267MOL0     C36727  11.465   3.657  11.426 -0.1032 -0.0821  0.3557
  267MOL0     C36728  11.438   3.598  11.563 -0.8396  0.0550  0.3384
  267MOL0     C36729  11.545   3.495  11.611  0.7666  0.4585  0.3120
  267MOL0     C36730  11.692   3.520  11.610  0.6182  0.1587  0.9108
  267MOL0     C36731  11.751   3.429  11.714  0.2802  0.8205 -0.5091
  267MOL0     O36732  11.719   3.291  11.689 -0.6692  0.0785 -0.3858
  267MOL0     C36733  11.797   3.197  11.753 -0.3975 -0.0717 -0.1790
  267MOL0     C36734  11.757   3.067  11.734 -0.0004 -0.0307  0.1546
  267MOL0     C36735  11.824   2.956  11.776 -0.2426  1.3925  0.2108
  267MOL0     C36736  11.769   2.817  11.740  0.2919 -0.5642 -0.7936
  267MOL0     C36737  11.929   2.983  11.868  0.1063  0.2378 -0.8914
  267MOL0     C36738  11.985   2.877  11.951  0.3524 -0.3945  0.0022
  267MOL0     O36739  12.076   2.926  12.039  0.3850 -0.1497  0.3558
  267MOL0     C36740  12.167   2.835  12.091  0.4559 -0.1504  0.4766
  267MOL0     C36741  12.275   2.792  12.020 -0.2975 -1.2336 -0.4377
  267MOL0     C36742  12.347   2.685  12.076 -0.8277  0.0550  0.0141
  267MOL0     C36743  12.315   2.617  12.194  1.2949  0.6957 -0.1295
  267MOL0     O36744  12.389   2.503  12.222  0.9578 -0.4813 -0.0378
  267MOL0     C36745  12.353   2.426  12.337 -0.4898  1.3669  0.4817
  267MOL0     C36746  12.380   2.475  12.484  0.4865  0.3776  0.0840
  267MOL0     C36747  12.517   2.528  12.501  0.1065 -0.4211  0.1274
  267MOL0     C36748  12.615   2.408  12.528 -0.0888  0.4367 -0.0932
  267MOL0     C36749  12.767   2.448  12.537 -0.6053 -0.2784 -0.4159
  267MOL0     C36750  12.859   2.326  12.578  0.1433  0.6616  0.7888
  267MOL0     C36751  13.000   2.353  12.645  0.2005 -1.6320 -0.5434
  267MOL0     C36752  13.073   2.227  12.665 -0.3107 -0.1293 -0.7446
  267MOL0    Cl36753  13.244   2.252  12.631 -0.2361 -0.2555  0.1656
  267MOL0     C36754  12.199   2.655  12.254 -0.5299 -0.2699 -0.6408
  267MOL0     C36755  12.136   2.775  12.216 -0.4606  0.2523  0.1254
  267MOL0     O36756  11.959   2.758  11.932 -1.3068 -0.2099  0.2960
  267MOL0     C36757  11.970   3.116  11.894 -0.4641 -0.1272 -0.0189
  267MOL0     C36758  11.899   3.226  11.840  0.5228 -0.0207  0.3580
  267MOL0     N36759  11.507   3.795  11.412 -0.0887  0.5339  1.1790
  267MOL0     N36760  11.529   3.816  11.281  0.8160 -0.5375  0.3417
  267MOL0     C36761  10.954   4.000  10.182  0.3630  0.5072  0.2106
  267MOL0     C36762  10.884   4.088  10.099  1.4463 -0.1603 -0.2532
  267MOL0     C36763  10.785   4.458   9.846  0.5985 -0.6598  1.1245
  267MOL0     C36764  10.746   4.577   9.903 -0.0882 -0.9343  0.3010
  267MOL0     C36765  10.681   4.681   9.838 -0.5916 -0.7243 -0.3415
  267MOL0     C36766  10.655   4.668   9.701 -0.2126  0.5510 -0.0811
  267MOL0     O36767  10.598   4.771   9.627  0.2156  0.2128  0.6543
  267MOL0     C36768  10.543   4.884   9.702  0.7886  0.2945 -0.2573
  267MOL0     C36769  10.487   4.995   9.616  0.0819 -0.6925 -0.2528
  267MOL0     C36770  10.364   4.963   9.530  0.1125  0.0366 -0.1043
  267MOL0     C36771  10.327   5.065   9.414 -0.9947  0.3016  0.8898
  267MOL0     C36772  10.185   5.069   9.367 -0.0825 -0.3144  0.3590
  267MOL0     C36773  10.069   5.088   9.342 -0.9599  0.6056  0.3939
  267MOL0     C36774  10.700   4.549   9.646 -0.0900 -1.5040 -0.9083
  267MOL0     C36775  10.754   4.445   9.706 -0.6294 -0.1879 -0.6415
  267MOL0     C36776  10.787   4.325   9.615 -0.2570  0.9114 -1.1592
  267MOL0     H36777  10.868   4.363  10.285  1.5093 -0.1767  2.8813
  267MOL0     H36778  11.034   4.231  10.419 -0.2994  2.4301 -0.5547
  267MOL0     H36779  11.123   3.806  10.294 -0.4978 -1.3430 -0.8800
  267MOL0     H36780  10.994   3.780  10.415  0.2428  0.9903  1.5761
  267MOL0     H36781  11.206   3.687  10.495  1.8602  0.2185  0.5798
  267MOL0     H36782  11.293   3.839  10.479  0.8439  0.4488  1.4854
  267MOL0     H36783  11.111   3.911  10.656 -1.9483 -0.4006  1.0386
  267MOL0     H36784  11.064   3.739  10.653  1.1764 -1.4835 -0.1629
  267MOL0     H36785  11.327   3.711  10.697  0.0932 -0.4568  1.6288
  267MOL0     H36786  11.325   3.876  10.756 -0.9027 -0.1124  1.2376
  267MOL0     H36787  11.107   3.701  10.869 -1.3728  2.8042 -1.1878
  267MOL0     H36788  11.157   3.845  10.924 -2.7184 -1.1129 -2.3490
  267MOL0     H36789  11.255   3.677  11.073  0.9266 -0.3586 -0.0408
  267MOL0     H36790  11.333   3.585  10.945 -1.6432 -0.1901  0.1306
  267MOL0     H36791  11.416   3.865  11.021 -0.2384  1.0297 -1.5280
  267MOL0     H36792  11.478   3.788  10.875 -1.0502  1.7713 -0.2301
  267MOL0     H36793  11.541   3.586  11.031  2.8111 -0.3050 -1.4357
  267MOL0     H36794  11.635   3.739  11.057 -0.9718 -0.2002  1.3389
  267MOL0     H36795  11.461   3.499  11.271 -0.2341  0.0892  0.7638
  267MOL0     H36796  11.346   3.541  11.581  0.9904 -2.9406  1.0805
  267MOL0     H36797  11.442   3.684  11.631 -0.5851  1.0198 -0.8836
  267MOL0     H36798  11.516   3.501  11.716  2.6299 -2.7226  1.1260
  267MOL0     H36799  11.509   3.404  11.561  0.4540 -0.8326  2.7422
  267MOL0     H36800  11.734   3.507  11.510  0.8217  0.6367  0.9290
  267MOL0     H36801  11.712   3.624  11.636  1.7322  0.3887 -0.7081
  267MOL0     H36802  11.858   3.450  11.709  0.0827  1.6321 -2.6934
  267MOL0     H36803  11.714   3.464  11.810 -0.2683  0.0192 -0.4145
  267MOL0     H36804  11.659   3.058  11.689 -1.3319  0.7272  2.7520
  267MOL0     H36805  11.843   2.752  11.695  0.5436 -3.1125  2.8534
  267MOL0     H36806  11.681   2.827  11.676 -0.7119  2.4121  0.8480
  267MOL0     H36807  11.726   2.786  11.836 -2.0829  1.2402 -1.1681
  267MOL0     H36808  12.302   2.829  11.922 -2.0656  2.5201  0.3082
  267MOL0     H36809  12.427   2.635  12.022  0.1904 -0.3012  1.7819
  267MOL0     H36810  12.248   2.396  12.338  0.0065 -0.7237  3.3459
  267MOL0     H36811  12.406   2.331  12.331  3.3053  3.3489 -2.5626
  267MOL0     H36812  12.321   2.563  12.512  0.2386  0.3170 -0.2360
  267MOL0     H36813  12.362   2.392  12.553 -0.1262  0.1372 -0.3493
  267MOL0     H36814  12.518   2.600  12.584 -1.3346 -0.0653 -0.1413
  267MOL0     H36815  12.536   2.590  12.413 -1.2306  0.5661  0.4983
  267MOL0     H36816  12.604   2.327  12.455 -0.9035 -2.3371  2.8551
  267MOL0     H36817  12.591   2.363  12.625 -0.3184  1.3280  0.2775
  267MOL0     H36818  12.814   2.485  12.445  2.0327  1.3824  1.4625
  267MOL0     H36819  12.781   2.529  12.609  0.1502  0.2867 -1.1768
  267MOL0     H36820  12.869   2.273  12.483 -0.2554  4.0308 -1.2988
  267MOL0     H36821  12.795   2.271  12.648  0.7596  0.0626  0.8949
  267MOL0     H36822  12.990   2.405  12.740  3.6247 -1.7155 -0.0188
  267MOL0     H36823  13.065   2.419  12.585  2.0846 -3.6596 -0.8539
  267MOL0     H36824  13.030   2.153  12.597  2.7464 -1.3903 -1.4921
  267MOL0     H36825  13.073   2.187  12.767  2.1860 -0.4459 -0.7964
  267MOL0     H36826  12.163   2.600  12.341 -2.6576 -0.7978 -1.7750
  267MOL0     H36827  12.052   2.812  12.273  0.1526  2.3245 -0.2377
  267MOL0     H36828  12.043   3.140  11.970  0.3012  0.6101 -0.9534
  267MOL0     H36829  11.910   3.326  11.882 -0.3943  0.1005  0.3305
  267MOL0     H36830  10.957   3.894  10.158  2.4452  1.1100 -2.7109
  267MOL0     H36831  10.839   4.048  10.009  0.2907  0.0423  0.2173
  267MOL0     H36832  10.786   4.601  10.001  0.4332  2.2486 -0.5929
  267MOL0     H36833  10.658   4.775   9.887  1.0988 -0.3545 -0.1789
  267MOL0     H36834  10.459   4.843   9.759  0.8545 -1.7813 -1.5206
  267MOL0     H36835  10.617   4.933   9.764  5.1852 -1.9918 -3.1648
  267MOL0     H36836  10.574   5.024   9.555  0.1944 -0.7259 -0.1077
  267MOL0     H36837  10.449   5.079   9.674 -0.7891 -1.2047 -0.0807
  267MOL0     H36838  10.374   4.862   9.487 -2.5876 -0.5919  0.5545
  267MOL0     H36839  10.272   4.969   9.589 -1.8133  1.9964 -3.0466
  267MOL0     H36840  10.393   5.041   9.330 -0.6385  2.7557  0.4072
  267MOL0     H36841  10.361   5.163   9.447  0.8068  0.1736 -0.4303
  267MOL0     H36842   9.969   5.105   9.307 -1.3248  0.7976  1.4884
  267MOL0     H36843  10.701   4.538   9.538  2.0825 -1.0241 -0.9736
  267MOL0     H36844  10.862   4.351   9.541  0.4411 -2.6269 -1.8973
  267MOL0     H36845  10.825   4.237   9.668 -0.8865  0.8661 -0.7616
  267MOL0     H36846  10.695   4.287   9.570 -1.6811 -0.6458  2.6131
  268MOL0     O36847   4.731   1.273   2.615 -0.9519 -0.6057  0.0665
  268MOL0     C36848   4.673   1.278   2.508  0.6164 -0.5681  0.5468
  268MOL0     O36849   4.713   1.220   2.388  0.1048 -0.2187 -0.1906
  268MOL0     C36850   4.834   1.143   2.388 -0.0560 -0.5877  0.0005
  268MOL0     C36851   4.955   1.205   2.391  0.0355  0.1003 -0.3744
  268MOL0     C36852   5.074   1.129   2.376 -0.2922  0.2301 -0.8869
  268MOL0     C36853   5.071   0.991   2.380 -0.5595 -0.4280  1.4515
  268MOL0     O36854   5.176   0.909   2.375 -0.7405 -0.7268  0.3531
  268MOL0     C36855   5.303   0.947   2.434  1.4027  0.2770  0.3751
  268MOL0     C36856   5.391   0.818   2.462  0.2547 -0.1465 -0.4797
  268MOL0     C36857   5.355   0.715   2.582  1.1781 -0.9560 -0.6197
  268MOL0     C36858   5.214   0.650   2.568 -1.0696 -0.7163 -0.1667
  268MOL0     C36859   5.160   0.594   2.695  1.1034 -0.5869  0.1125
  268MOL0     C36860   5.089   0.455   2.687 -0.0386 -0.0980  0.6363
  268MOL0     C36861   4.988   0.430   2.574  0.8995  0.0074 -0.7446
  268MOL0     C36862   4.893   0.552   2.560 -0.2539  0.5592 -1.4101
  268MOL0     N36863   4.779   0.553   2.465 -0.0386  0.4145 -0.4226
  268MOL0     C36864   4.689   0.441   2.443 -0.1417 -0.5232 -0.5556
  268MOL0     C36865   4.581   0.497   2.388 -0.0243 -0.2616  0.2607
  268MOL0     C36866   4.460   0.419   2.329  0.0154 -0.1180 -0.1209
  268MOL0     C36867   4.377   0.357   2.449 -0.3988  0.2160 -0.5112
  268MOL0     C36868   4.238   0.300   2.401  0.8983 -0.5953 -0.1579
  268MOL0     C36869   4.128   0.404   2.384 -0.5927 -1.3347  0.0580
  268MOL0     O36870   4.105   0.463   2.523 -0.0844 -0.1063 -0.1450
  268MOL0     C36871   4.009   0.565   2.544 -0.1542  0.2462  1.0990
  268MOL0     C36872   3.995   0.616   2.666  0.2163  0.9895  0.5970
  268MOL0     C36873   3.916   0.725   2.697 -0.6628 -0.0609  0.0482
  268MOL0     C36874   3.928   0.777   2.834  0.4557 -0.7582 -0.1735
  268MOL0     C36875   3.846   0.781   2.581 -0.0146 -0.4144  0.0996
  268MOL0     C36876   3.754   0.902   2.585 -0.0051  0.0822 -1.2020
  268MOL0     O36877   3.690   0.947   2.465 -0.3191 -0.4658 -0.1410
  268MOL0     C36878   3.609   1.061   2.478 -0.7445 -0.0316  1.1783
  268MOL0     C36879   3.643   1.191   2.439 -0.1450  0.3351  0.1350
  268MOL0     C36880   3.544   1.292   2.444  0.6381 -0.9159 -0.5148
  268MOL0     C36881   3.408   1.263   2.483  0.0092 -0.1020 -0.5457
  268MOL0     O36882   3.324   1.374   2.494  0.4236 -0.6635 -0.0146
  268MOL0     C36883   3.195   1.357   2.428  0.1468 -0.3008  0.5490
  268MOL0     C36884   3.193   1.362   2.276  0.5947  0.8596 -1.2321
  268MOL0     C36885   3.126   1.484   2.230 -0.4961 -0.5675  0.1661
  268MOL0     C36886   3.165   1.537   2.089 -0.6566  0.2077  0.2129
  268MOL0     C36887   3.149   1.685   2.060  0.1851  0.0630  0.1257
  268MOL0     C36888   3.111   1.699   1.905  0.4461  0.2461  1.0403
  268MOL0     C36889   3.208   1.617   1.821  0.1088  1.2645  0.3943
  268MOL0     C36890   3.221   1.679   1.678  0.1834 -0.1601 -0.5186
  268MOL0    Cl36891   3.053   1.704   1.598 -0.2076  0.3353 -0.6589
  268MOL0     C36892   3.376   1.133   2.522 -0.4293  0.3962 -0.4166
  268MOL0     C36893   3.478   1.029   2.529 -0.2615 -0.4204  0.0244
  268MOL0     O36894   3.724   0.954   2.699  0.3484  0.1490  0.3893
  268MOL0     C36895   3.847   0.720   2.459 -0.7307  0.2390  0.2138
  268MOL0     C36896   3.929   0.613   2.437  0.3184  0.1928 -1.3273
  268MOL0     N36897   4.605   0.634   2.387 -0.3393  0.0364 -0.0158
  268MOL0     N36898   4.718   0.673   2.438 -0.1380  0.3928 -0.2142
  268MOL0     C36899   4.948   0.924   2.373 -0.4603 -0.2943 -1.2256
  268MOL0     C36900   4.825   1.003   2.382 -0.4219  0.9343  0.4724
  268MOL0     C36901   4.558   1.368   2.500  0.0156  0.4178 -0.0448
  268MOL0     C36902   4.551   1.459   2.395  0.8212  0.6612 -0.6853
  268MOL0     C36903   4.447   1.558   2.392 -0.6436  0.7178  0.0958
  268MOL0     C36904   4.357   1.567   2.499  0.0410 -0.2153 -0.2095
  268MOL0     O36905   4.269   1.668   2.519  0.2266 -0.9182 -0.3251
  268MOL0     C36906   4.189   1.698   2.403 -0.4555 -0.1960 -0.5975
  268MOL0     C36907   4.051   1.725   2.449  0.5203 -0.2062  0.9627
  268MOL0     C36908   3.962   1.797   2.351  0.9614  0.1420  0.1554
  268MOL0     C36909   3.820   1.838   2.402 -0.3518  0.3855  0.4388
  268MOL0     C36910   3.819   1.967   2.464  0.0181  0.2342 -0.2921
  268MOL0     C36911   3.828   2.086   2.500  0.1735  0.4115  0.3463
  268MOL0     C36912   4.377   1.474   2.602 -0.2941  0.3023  0.0772
  268MOL0     C36913   4.472   1.378   2.604  0.2108 -0.1199 -0.0200
  268MOL0     C36914   4.479   1.297   2.727 -0.3982 -0.4817  0.4950
  268MOL0     H36915   4.951   1.313   2.404  1.2499  0.3896 -2.1368
  268MOL0     H36916   5.167   1.183   2.365  0.5582 -1.0981 -0.4028
  268MOL0     H36917   5.282   0.986   2.534  1.4088 -1.1708  0.9731
  268MOL0     H36918   5.352   1.022   2.371  0.9753  1.6062  1.5692
  268MOL0     H36919   5.413   0.760   2.372  3.2082 -1.5619  1.0262
  268MOL0     H36920   5.492   0.855   2.480  0.2560 -0.3575 -0.0402
  268MOL0     H36921   5.443   0.650   2.588  0.9679 -1.3023 -1.2025
  268MOL0     H36922   5.347   0.776   2.672 -0.9063 -5.6499  2.7599
  268MOL0     H36923   5.145   0.729   2.538 -1.5781 -0.4780  1.5296
  268MOL0     H36924   5.219   0.577   2.487 -1.3909 -1.9596  0.9036
  268MOL0     H36925   5.092   0.666   2.741  0.4646 -2.1023  1.6547
  268MOL0     H36926   5.233   0.581   2.776 -0.0792 -1.0565  1.1377
  268MOL0     H36927   5.171   0.385   2.669  3.1172  3.6782 -1.2993
  268MOL0     H36928   5.046   0.451   2.787 -0.4854  1.9098  0.5716
  268MOL0     H36929   4.922   0.346   2.596 -2.6646  2.6264 -0.5805
  268MOL0     H36930   5.047   0.424   2.482  1.1193 -0.0228 -0.6002
  268MOL0     H36931   4.845   0.551   2.658  1.5267  0.7327 -0.4843
  268MOL0     H36932   4.948   0.646   2.553  0.3688  0.2589 -0.7367
  268MOL0     H36933   4.711   0.336   2.455 -0.9112 -0.9657 -2.6043
  268MOL0     H36934   4.510   0.352   2.258  0.7113  0.6898 -0.4195
  268MOL0     H36935   4.393   0.481   2.270 -2.6777 -2.3674  0.3818
  268MOL0     H36936   4.441   0.278   2.489  0.8791  0.9407 -1.0550
  268MOL0     H36937   4.374   0.431   2.530  0.3747 -2.7945  2.5129
  268MOL0     H36938   4.243   0.257   2.300 -0.0581  0.1401 -0.5265
  268MOL0     H36939   4.209   0.218   2.467  2.4061 -1.8490 -0.9737
  268MOL0     H36940   4.158   0.480   2.311  0.6504  0.0410  1.9180
  268MOL0     H36941   4.030   0.364   2.356 -2.2232  0.1292  3.0677
  268MOL0     H36942   4.044   0.567   2.750  1.6055  3.7822  1.5303
  268MOL0     H36943   3.963   0.880   2.842  0.5829 -0.5030 -2.8288
  268MOL0     H36944   3.991   0.708   2.890 -1.8463 -2.0211  1.0051
  268MOL0     H36945   3.844   0.774   2.903  1.6332  3.7391  1.7811
  268MOL0     H36946   3.743   1.198   2.397 -0.6046 -0.7552 -1.2403
  268MOL0     H36947   3.573   1.392   2.415  0.2269 -0.7612 -0.3901
  268MOL0     H36948   3.153   1.260   2.458  2.5574 -1.8254 -0.7204
  268MOL0     H36949   3.130   1.432   2.474  0.9900  0.3180  0.7678
  268MOL0     H36950   3.298   1.354   2.247  1.6589 -1.7216  2.6319
  268MOL0     H36951   3.139   1.274   2.241  4.3269 -3.1341  1.9652
  268MOL0     H36952   3.153   1.566   2.296 -2.9802  0.3212  0.1751
  268MOL0     H36953   3.020   1.459   2.230 -0.0578 -2.9176 -1.9237
  268MOL0     H36954   3.091   1.488   2.025  0.9003 -1.5111 -0.3723
  268MOL0     H36955   3.267   1.503   2.067 -0.7075 -0.7646  1.4066
  268MOL0     H36956   3.068   1.725   2.123  2.4148  2.2879  1.7599
  268MOL0     H36957   3.231   1.752   2.088 -0.5035 -0.1879  3.1572
  268MOL0     H36958   3.132   1.801   1.871  5.6544 -1.1509 -0.9223
  268MOL0     H36959   3.006   1.673   1.891  0.5923 -0.3615  1.0357
  268MOL0     H36960   3.167   1.516   1.817  0.6265  0.8872  2.8227
  268MOL0     H36961   3.301   1.609   1.878 -2.4626  0.0380  4.8978
  268MOL0     H36962   3.268   1.605   1.611 -0.7403 -0.1948 -1.1474
  268MOL0     H36963   3.279   1.772   1.678 -3.0739  2.0378  1.3617
  268MOL0     H36964   3.276   1.115   2.561  0.1708 -1.2927  0.4644
  268MOL0     H36965   3.463   0.932   2.575  1.9551 -0.4308  0.8328
  268MOL0     H36966   3.790   0.751   2.372  0.2480 -2.5185 -1.5710
  268MOL0     H36967   3.945   0.564   2.341 -0.9016 -0.1918 -1.3555
  268MOL0     H36968   4.947   0.816   2.366 -0.2287 -0.4288  0.3717
  268MOL0     H36969   4.729   0.954   2.395 -0.5504  0.7100 -1.0931
  268MOL0     H36970   4.614   1.435   2.310 -0.0769  1.2971 -1.5632
  268MOL0     H36971   4.428   1.635   2.318 -1.0727  1.1242  0.6184
  268MOL0     H36972   4.227   1.795   2.370  0.7088 -0.6652 -0.6518
  268MOL0     H36973   4.190   1.627   2.320 -0.1644 -0.5263 -0.3160
  268MOL0     H36974   4.061   1.783   2.541 -0.2732  3.9152 -1.3144
  268MOL0     H36975   4.016   1.625   2.478 -1.7388  1.0720  2.9679
  268MOL0     H36976   4.020   1.880   2.310  2.6532 -1.3938 -0.7686
  268MOL0     H36977   3.937   1.733   2.266 -1.0578  0.4672  0.4769
  268MOL0     H36978   3.794   1.759   2.473  3.0091 -1.5790 -0.3012
  268MOL0     H36979   3.744   1.832   2.324 -0.2638 -1.0582  0.4323
  268MOL0     H36980   3.843   2.187   2.531 -0.6982  0.1956  1.5513
  268MOL0     H36981   4.324   1.498   2.694  0.1179 -0.9590  0.6579
  268MOL0     H36982   4.378   1.281   2.765 -0.0712 -0.7843  1.2595
  268MOL0     H36983   4.515   1.194   2.714 -1.2438 -0.8934  1.3227
  268MOL0     H36984   4.542   1.341   2.805  0.4448 -1.2342  0.2648
  269MOL0     O36985   2.053   5.118   4.006  0.0932 -0.0091  0.2771
  269MOL0     C36986   1.957   5.126   4.091  0.2632  0.1788 -0.3009
  269MOL0     O36987   1.957   5.207   4.200 -0.1403  0.3082 -0.2648
  269MOL0     C36988   2.071   5.272   4.241 -0.2748  0.3143  0.1196
  269MOL0     C36989   2.166   5.338   4.158 -0.0371  0.4492  0.5118
  269MOL0     C36990   2.275   5.407   4.221  0.3821 -0.0813 -0.2984
  269MOL0     C36991   2.287   5.424   4.365 -1.0668  0.6025 -0.4272
  269MOL0     O36992   2.388   5.498   4.412  0.0821  0.5943  0.0588
  269MOL0     C36993   2.449   5.460   4.537  0.5100  0.2215 -0.6433
  269MOL0     C36994   2.579   5.546   4.565  0.0697  0.4414  0.5795
  269MOL0     C36995   2.649   5.515   4.696  1.2826  0.2728 -0.2540
  269MOL0     C36996   2.682   5.372   4.723 -0.1359 -1.5376 -0.4600
  269MOL0     C36997   2.767   5.381   4.851 -0.8955 -0.5722  0.4697
  269MOL0     C36998   2.840   5.253   4.895  0.0758  0.3453 -0.3798
  269MOL0     C36999   2.761   5.131   4.886 -0.0830  0.1522 -0.6175
  269MOL0     C37000   2.630   5.127   4.972  1.3140  0.1770 -0.3818
  269MOL0     N37001   2.577   4.991   5.004  0.4925  0.9130 -0.0779
  269MOL0     C37002   2.485   4.920   4.923  0.5432  0.3282 -0.7311
  269MOL0     C37003   2.431   4.832   5.018  0.3099 -0.4469 -0.5028
  269MOL0     C37004   2.328   4.742   4.997  0.9199  0.6358  0.5505
  269MOL0     C37005   2.363   4.585   5.021 -0.3141 -0.4201 -0.4963
  269MOL0     C37006   2.491   4.549   4.932 -0.5023 -0.4689 -0.6632
  269MOL0     C37007   2.467   4.569   4.789  0.3236 -0.2303  0.9972
  269MOL0     O37008   2.582   4.521   4.716  0.2857  1.2358 -0.0416
  269MOL0     C37009   2.572   4.488   4.583 -0.9234  0.3071  0.1216
  269MOL0     C37010   2.636   4.374   4.545 -0.2277  0.1577  0.0585
  269MOL0     C37011   2.637   4.322   4.411 -0.0329 -0.8567  0.1405
  269MOL0     C37012   2.741   4.223   4.369 -0.6916 -0.1839 -0.4102
  269MOL0     C37013   2.553   4.380   4.314 -0.6928  0.4266 -0.0170
  269MOL0     C37014   2.548   4.351   4.177  0.1173  0.5340  0.4914
  269MOL0     O37015   2.666   4.305   4.122  0.2302 -0.0819  0.4499
  269MOL0     C37016   2.682   4.241   4.001 -1.2924 -0.3791 -0.1814
  269MOL0     C37017   2.809   4.192   3.973  0.7587  0.9589  0.0589
  269MOL0     C37018   2.844   4.136   3.846 -0.2178  0.4296  0.2425
  269MOL0     C37019   2.750   4.086   3.764  0.3307  0.4607  1.1349
  269MOL0     O37020   2.768   4.017   3.649 -0.1399  0.2417  0.6655
  269MOL0     C37021   2.902   3.963   3.628  0.5205 -0.6525 -0.2048
  269MOL0     C37022   2.937   3.833   3.707 -0.4931  0.1061 -0.2244
  269MOL0     C37023   2.857   3.718   3.646 -0.9645  0.8420  0.6544
  269MOL0     C37024   2.710   3.727   3.675 -0.6981 -0.1441 -0.4869
  269MOL0     C37025   2.627   3.596   3.657 -0.6340  0.0683  1.3678
  269MOL0     C37026   2.494   3.626   3.707 -0.6507 -1.1070  0.1202
  269MOL0     C37027   2.406   3.513   3.667  0.0366 -0.0097 -0.5649
  269MOL0     C37028   2.261   3.536   3.724 -0.5241  0.0568 -0.1504
  269MOL0    Cl37029   2.261   3.487   3.905  0.0275 -0.1310 -0.2771
  269MOL0     C37030   2.615   4.113   3.794 -0.1544 -0.8148 -0.2108
  269MOL0     C37031   2.590   4.199   3.909  1.1015  0.7348 -0.2376
  269MOL0     O37032   2.444   4.363   4.115 -0.0754 -0.6455  0.9674
  269MOL0     C37033   2.470   4.490   4.354  0.4220  0.0584 -0.0539
  269MOL0     C37034   2.484   4.543   4.488  0.5652 -0.9312  0.7027
  269MOL0     N37035   2.500   4.845   5.139 -0.1583 -0.1523 -0.9083
  269MOL0     N37036   2.566   4.953   5.128 -0.3265 -0.5940 -0.8428
  269MOL0     C37037   2.195   5.348   4.441  0.7919 -0.4219 -0.1607
  269MOL0     C37038   2.093   5.283   4.379  0.0480  0.6700  0.7381
  269MOL0     C37039   1.831   5.045   4.054 -0.4788 -0.1856 -0.1624
  269MOL0     C37040   1.715   5.077   4.129  0.3822 -0.3434  0.9490
  269MOL0     C37041   1.599   5.006   4.113  0.0603  0.7207 -0.3834
  269MOL0     C37042   1.584   4.902   4.014 -0.0760 -0.3316  0.1886
  269MOL0     O37043   1.467   4.839   3.984 -1.2658  0.5304  0.5150
  269MOL0     C37044   1.358   4.837   4.075 -0.2891  0.1958 -0.9781
  269MOL0     C37045   1.236   4.783   4.006  0.1622  0.1645 -0.2542
  269MOL0     C37046   1.116   4.749   4.093 -0.7680 -0.2498 -1.7921
  269MOL0     C37047   1.004   4.692   4.009  0.7014 -0.4619  0.4114
  269MOL0     C37048   0.905   4.616   4.088  0.6637  0.0290  0.1237
  269MOL0     C37049   0.818   4.551   4.151 -0.1284 -0.1141 -0.8563
  269MOL0     C37050   1.701   4.865   3.937 -0.3034 -1.1003  0.9749
  269MOL0     C37051   1.828   4.935   3.961 -0.8386  0.2864 -0.5448
  269MOL0     C37052   1.940   4.908   3.868 -0.0098  0.0488  0.3959
  269MOL0     H37053   2.168   5.314   4.052  0.1990 -2.2827  1.0684
  269MOL0     H37054   2.346   5.457   4.156 -1.0406  2.6282  0.1097
  269MOL0     H37055   2.463   5.352   4.526 -3.3253 -0.4405 -0.2293
  269MOL0     H37056   2.392   5.484   4.628  0.5233  2.3408 -1.1434
  269MOL0     H37057   2.661   5.527   4.494 -0.1081  1.5483  0.0586
  269MOL0     H37058   2.553   5.651   4.550 -0.8845  0.1226 -0.0716
  269MOL0     H37059   2.742   5.572   4.692  2.3393 -1.4114 -1.7642
  269MOL0     H37060   2.578   5.552   4.771  2.0793  2.4068 -0.5106
  269MOL0     H37061   2.598   5.302   4.728 -3.2980  2.0088  1.9739
  269MOL0     H37062   2.737   5.339   4.634  2.3839  3.6448 -1.2064
  269MOL0     H37063   2.700   5.418   4.929 -0.2700  0.0410  0.7214
  269MOL0     H37064   2.842   5.454   4.821 -3.0215  2.2340  1.4991
  269MOL0     H37065   2.930   5.244   4.833  1.4294 -0.6114  1.6208
  269MOL0     H37066   2.869   5.261   5.000 -0.3393  3.1623 -0.4101
  269MOL0     H37067   2.831   5.052   4.919  2.2684  0.2964 -4.6334
  269MOL0     H37068   2.735   5.099   4.785  1.5511 -0.7898 -0.7811
  269MOL0     H37069   2.637   5.190   5.061  1.4104  0.4007 -0.5470
  269MOL0     H37070   2.544   5.169   4.918  0.2623 -0.5169  0.7041
  269MOL0     H37071   2.450   4.946   4.823  2.6876  1.9294 -1.1397
  269MOL0     H37072   2.283   4.766   4.900  1.8630 -0.3777 -0.1667
  269MOL0     H37073   2.249   4.767   5.069  1.5571  0.7058  1.2304
  269MOL0     H37074   2.386   4.553   5.123 -1.3248  0.4424  0.0173
  269MOL0     H37075   2.289   4.508   4.994  1.1040 -2.7688  1.7932
  269MOL0     H37076   2.576   4.609   4.966 -0.2397 -0.2928 -1.6134
  269MOL0     H37077   2.516   4.446   4.960 -0.1873 -0.5277 -1.1421
  269MOL0     H37078   2.377   4.523   4.745  1.1405  0.2230 -1.2792
  269MOL0     H37079   2.453   4.676   4.771  2.0340 -0.2577 -0.8557
  269MOL0     H37080   2.708   4.321   4.607 -0.1839 -0.9584 -0.9163
  269MOL0     H37081   2.794   4.183   4.456 -0.2365  1.5106  0.1253
  269MOL0     H37082   2.813   4.277   4.307 -3.0783  0.8743 -2.4460
  269MOL0     H37083   2.689   4.142   4.317 -0.6238 -1.3557  1.2525
  269MOL0     H37084   2.897   4.206   4.034  2.6855  0.0640 -2.3525
  269MOL0     H37085   2.950   4.114   3.837  0.2588  1.5323  2.4824
  269MOL0     H37086   2.913   3.932   3.524  0.7615 -6.2693  1.1824
  269MOL0     H37087   2.975   4.044   3.636  1.5449 -1.5736  0.0923
  269MOL0     H37088   3.045   3.818   3.705 -0.5373 -0.4722  0.9033
  269MOL0     H37089   2.915   3.839   3.814 -1.3814  1.2836 -0.4542
  269MOL0     H37090   2.902   3.631   3.696  0.0764 -0.0016 -1.6109
  269MOL0     H37091   2.862   3.713   3.537 -0.9116  1.4054  0.6275
  269MOL0     H37092   2.672   3.789   3.594  2.1264 -0.1499 -1.9501
  269MOL0     H37093   2.707   3.770   3.776 -0.4974 -0.7841 -0.1964
  269MOL0     H37094   2.610   3.570   3.552 -0.5852 -4.6695  2.2794
  269MOL0     H37095   2.674   3.512   3.709 -0.1763 -0.1140  0.6634
  269MOL0     H37096   2.453   3.724   3.680  2.7471  0.4142 -0.0640
  269MOL0     H37097   2.501   3.623   3.816  1.5109 -0.5677  0.0426
  269MOL0     H37098   2.436   3.414   3.703  0.9407  0.0792 -1.0761
  269MOL0     H37099   2.398   3.507   3.558  0.3853  0.9714 -0.6570
  269MOL0     H37100   2.192   3.478   3.663 -2.4940 -1.4358  3.2046
  269MOL0     H37101   2.231   3.639   3.706 -3.4811 -0.6154  0.4003
  269MOL0     H37102   2.546   4.073   3.721  2.3674  0.5057 -3.5524
  269MOL0     H37103   2.483   4.212   3.921  0.7116  1.1821 -3.3998
  269MOL0     H37104   2.408   4.550   4.288 -1.0000 -1.7716 -0.4649
  269MOL0     H37105   2.431   4.635   4.513  4.0008  2.5636 -3.2203
  269MOL0     H37106   2.183   5.350   4.548 -7.2019 -3.5504 -0.3072
  269MOL0     H37107   2.027   5.226   4.443 -2.5008  1.0497 -1.4001
  269MOL0     H37108   1.730   5.155   4.203  1.1682  0.9910 -0.5415
  269MOL0     H37109   1.522   5.040   4.182  0.4844  0.9688 -0.0333
  269MOL0     H37110   1.382   4.776   4.162 -0.8447  0.4022 -0.6776
  269MOL0     H37111   1.317   4.933   4.107 -0.5587  0.5055 -2.1820
  269MOL0     H37112   1.270   4.693   3.953 -4.1580 -1.1473 -1.2811
  269MOL0     H37113   1.198   4.861   3.939 -3.0031 -0.1521  0.9903
  269MOL0     H37114   1.146   4.678   4.171  0.6770  2.4763  0.3153
  269MOL0     H37115   1.089   4.844   4.140  2.3143 -0.0255 -0.2210
  269MOL0     H37116   1.058   4.626   3.940  2.1563 -0.0240  1.0799
  269MOL0     H37117   0.952   4.774   3.959 -2.0717 -2.2708  0.1076
  269MOL0     H37118   0.752   4.493   4.212  0.2661  1.9650  1.7443
  269MOL0     H37119   1.680   4.805   3.849 -0.0868 -0.4890  0.4963
  269MOL0     H37120   2.038   4.901   3.916  0.1169 -2.7971 -0.0861
  269MOL0     H37121   1.926   4.809   3.824 -2.9588  0.2184  0.7411
  269MOL0     H37122   1.943   4.988   3.793 -1.3135  0.9569  1.2723
  270MOL0     O37123   5.911   7.243   7.331  0.1373  1.1147  0.7267
  270MOL0     C37124   6.007   7.307   7.372  0.2295 -0.4210  0.8482
  270MOL0     O37125   6.135   7.327   7.312 -0.0399  0.9246 -0.5623
  270MOL0     C37126   6.180   7.248   7.210  0.2849 -0.3381  0.1512
  270MOL0     C37127   6.106   7.177   7.108 -0.6274  0.4762 -0.6117
  270MOL0     C37128   6.179   7.116   7.015 -0.1766  0.4678  0.3309
  270MOL0     C37129   6.313   7.122   7.003  0.2649 -0.3653 -0.8329
  270MOL0     O37130   6.371   7.068   6.894  0.3167  0.4033  0.4513
  270MOL0     C37131   6.370   6.927   6.890  0.9822  0.8965 -0.6928
  270MOL0     C37132   6.512   6.874   6.865  0.4752  0.5277 -0.4173
  270MOL0     C37133   6.541   6.723   6.913 -0.1850 -0.0947  0.1315
  270MOL0     C37134   6.568   6.711   7.063 -0.2704 -0.1467  0.1056
  270MOL0     C37135   6.616   6.567   7.104  0.5200  0.1418  0.6687
  270MOL0     C37136   6.767   6.534   7.059  0.6953 -1.1226  0.5465
  270MOL0     C37137   6.859   6.649   7.091 -1.0900 -0.3873 -0.6270
  270MOL0     C37138   7.006   6.607   7.063  0.0978  0.0281 -0.3997
  270MOL0     N37139   7.098   6.689   7.142 -0.4701 -0.0600 -0.0024
  270MOL0     C37140   7.121   6.670   7.277 -0.4926 -0.2533  0.2112
  270MOL0     C37141   7.171   6.790   7.320 -0.4560  0.0575 -0.0677
  270MOL0     C37142   7.243   6.815   7.457 -0.4471 -0.6906  0.5576
  270MOL0     C37143   7.387   6.853   7.448 -0.8659  0.0749 -0.7898
  270MOL0     C37144   7.480   6.744   7.386 -1.0769  1.0218  0.2797
  270MOL0     C37145   7.610   6.715   7.456 -0.0856  0.5717  0.3088
  270MOL0     O37146   7.713   6.817   7.437 -0.1907 -0.5073  0.8685
  270MOL0     C37147   7.827   6.780   7.505  0.2443  0.7322  0.0506
  270MOL0     C37148   7.879   6.657   7.540  0.0820  0.3916  0.9116
  270MOL0     C37149   7.993   6.624   7.613 -0.3217 -0.5201 -0.4114
  270MOL0     C37150   8.015   6.478   7.648 -0.3793 -0.4660 -0.4020
  270MOL0     C37151   8.075   6.726   7.656  0.2698 -1.2234 -1.0073
  270MOL0     C37152   8.188   6.719   7.742 -0.5674  0.5538  0.3671
  270MOL0     O37153   8.230   6.834   7.808 -0.1436 -0.5436  0.2350
  270MOL0     C37154   8.338   6.823   7.890 -0.7872  1.1611  1.2788
  270MOL0     C37155   8.322   6.769   8.011 -0.5161  1.2580  0.0778
  270MOL0     C37156   8.433   6.758   8.100 -0.0870 -0.1756  0.1391
  270MOL0     C37157   8.554   6.823   8.065 -0.0462  0.8540 -0.3395
  270MOL0     O37158   8.662   6.815   8.152  0.1371  0.6281  0.1844
  270MOL0     C37159   8.794   6.834   8.101 -0.6745  0.2789  0.3155
  270MOL0     C37160   8.925   6.795   8.179  0.7809 -0.6101 -0.0998
  270MOL0     C37161   8.937   6.859   8.312 -0.8158 -0.0494 -0.3023
  270MOL0     C37162   9.004   6.996   8.328  0.1779  0.0913  0.0594
  270MOL0     C37163   8.987   7.051   8.474  0.3451 -0.4050 -0.6716
  270MOL0     C37164   9.001   7.209   8.491 -0.0176 -0.5016 -0.4573
  270MOL0     C37165   8.946   7.233   8.631 -0.2897 -0.5234 -1.0436
  270MOL0     C37166   8.929   7.384   8.648 -0.0374 -0.9166 -0.4460
  270MOL0    Cl37167   8.941   7.429   8.826 -0.0657 -0.0831 -0.3419
  270MOL0     C37168   8.564   6.889   7.944  0.1516  0.1810 -0.2976
  270MOL0     C37169   8.457   6.888   7.854 -0.8734  0.2468 -1.1306
  270MOL0     O37170   8.242   6.606   7.747 -0.4827 -0.0211  0.0286
  270MOL0     C37171   8.028   6.853   7.615  0.6859 -0.7239 -0.4017
  270MOL0     C37172   7.903   6.876   7.562 -0.0001 -0.5073 -1.7143
  270MOL0     N37173   7.191   6.871   7.212  0.9170 -0.0260  0.3032
  270MOL0     N37174   7.139   6.819   7.106  0.0372  0.1884 -0.4814
  270MOL0     C37175   6.390   7.197   7.084 -0.2232 -0.7063  0.2353
  270MOL0     C37176   6.317   7.267   7.191  0.4910  0.1893 -1.0463
  270MOL0     C37177   5.981   7.389   7.495 -0.1902 -0.0870 -0.5914
  270MOL0     C37178   6.067   7.497   7.517  0.3253  0.3953 -0.5715
  270MOL0     C37179   6.049   7.585   7.618  1.0490 -0.8793  0.4003
  270MOL0     C37180   5.961   7.547   7.725  0.3979 -0.4583  0.1833
  270MOL0     O37181   5.975   7.623   7.832  0.1854  0.3396 -0.3361
  270MOL0     C37182   5.848   7.632   7.909 -0.2716  0.0294 -0.2425
  270MOL0     C37183   5.852   7.757   8.002 -0.0447 -0.5395 -0.3656
  270MOL0     C37184   5.823   7.884   7.927 -0.2150  1.0623  0.2264
  270MOL0     C37185   5.697   7.965   7.966 -0.2496 -0.3382  0.5755
  270MOL0     C37186   5.687   8.012   8.099 -0.2896 -0.4596 -0.9970
  270MOL0     C37187   5.691   8.058   8.213 -0.2923  0.4281  0.1434
  270MOL0     C37188   5.882   7.435   7.707  0.1342  0.0536 -0.7300
  270MOL0     C37189   5.888   7.362   7.590  0.3034 -0.5879 -0.1655
  270MOL0     C37190   5.786   7.245   7.574  0.1847  1.1202 -0.1614
  270MOL0     H37191   5.999   7.188   7.101 -0.8782 -0.6912  0.9010
  270MOL0     H37192   6.112   7.075   6.940 -2.1390  1.6007  1.3988
  270MOL0     H37193   6.309   6.886   6.809  0.6267 -1.8149  0.8604
  270MOL0     H37194   6.332   6.877   6.980 -0.7559  2.0690 -0.7236
  270MOL0     H37195   6.539   6.889   6.760 -0.8012  0.0402 -0.8417
  270MOL0     H37196   6.579   6.941   6.919  1.5978 -0.4910 -0.4999
  270MOL0     H37197   6.463   6.656   6.877 -3.8218  3.2065  1.0720
  270MOL0     H37198   6.635   6.695   6.866 -0.8522  1.6607 -2.4545
  270MOL0     H37199   6.635   6.790   7.101 -0.7217 -0.4681  1.6150
  270MOL0     H37200   6.477   6.723   7.122  1.2620 -0.1490  2.5991
  270MOL0     H37201   6.555   6.490   7.055  0.4544 -0.2279  1.3269
  270MOL0     H37202   6.623   6.555   7.212  2.7041 -2.1641  0.3857
  270MOL0     H37203   6.795   6.447   7.118  1.0045 -1.6246 -0.3325
  270MOL0     H37204   6.768   6.504   6.954 -0.3348 -0.8601  0.4443
  270MOL0     H37205   6.850   6.685   7.193 -0.1248  0.6641 -0.8998
  270MOL0     H37206   6.833   6.734   7.028 -0.1213 -0.6607 -1.4187
  270MOL0     H37207   7.009   6.503   7.096  0.4273  0.2967  0.4478
  270MOL0     H37208   7.026   6.617   6.956  0.1100  3.0200 -0.1830
  270MOL0     H37209   7.100   6.580   7.332  0.6784 -0.0693  0.9890
  270MOL0     H37210   7.223   6.733   7.526 -0.6259  0.7521  2.2821
  270MOL0     H37211   7.194   6.902   7.502 -3.8920 -1.4421 -1.3651
  270MOL0     H37212   7.415   6.943   7.394 -0.8041  0.3894 -0.2450
  270MOL0     H37213   7.420   6.880   7.549  0.2678  1.7424 -1.5524
  270MOL0     H37214   7.426   6.650   7.371 -0.7353  0.2799  3.0222
  270MOL0     H37215   7.508   6.774   7.285 -1.4495  1.5213  0.3199
  270MOL0     H37216   7.591   6.698   7.562  2.6392 -1.8594  0.5317
  270MOL0     H37217   7.627   6.613   7.422 -2.3345 -0.2926  1.5617
  270MOL0     H37218   7.832   6.571   7.494 -3.2668  3.0154 -0.9509
  270MOL0     H37219   7.985   6.466   7.753 -0.5558 -1.1487 -0.5261
  270MOL0     H37220   8.119   6.450   7.629 -0.9444 -2.1538 -1.2506
  270MOL0     H37221   7.963   6.408   7.583 -2.7430  3.4321 -3.1186
  270MOL0     H37222   8.223   6.732   8.036 -0.9466  1.5822 -1.0537
  270MOL0     H37223   8.425   6.708   8.196 -1.6010 -0.6794 -0.2118
  270MOL0     H37224   8.798   6.780   8.006 -0.3110  0.9819 -0.0739
  270MOL0     H37225   8.796   6.941   8.082 -0.4107  0.0631 -0.9862
  270MOL0     H37226   8.926   6.687   8.194 -0.8250 -0.8144 -1.2384
  270MOL0     H37227   9.016   6.813   8.120  1.2044 -1.3939  0.2914
  270MOL0     H37228   8.987   6.795   8.386 -0.0967  0.7122 -0.1207
  270MOL0     H37229   8.831   6.872   8.339 -0.6261  0.2107  0.3453
  270MOL0     H37230   8.957   7.071   8.263 -0.4702  0.3947  0.8487
  270MOL0     H37231   9.110   6.983   8.305  0.4840  3.3209 -0.9315
  270MOL0     H37232   8.889   7.014   8.507 -0.0516  1.3309  0.2464
  270MOL0     H37233   9.061   7.003   8.539  0.3460  1.9933  1.2486
  270MOL0     H37234   8.939   7.274   8.429  3.1976  1.4513 -1.9103
  270MOL0     H37235   9.104   7.244   8.476 -0.4538  0.4805 -1.2606
  270MOL0     H37236   9.012   7.207   8.715  2.1683  4.2482 -1.1985
  270MOL0     H37237   8.846   7.193   8.650 -0.7512  2.0674  3.1400
  270MOL0     H37238   8.834   7.419   8.607  1.0388  1.4274 -1.0887
  270MOL0     H37239   9.010   7.435   8.595 -0.2385  0.0918  0.1846
  270MOL0     H37240   8.655   6.938   7.911  1.4861 -0.6187  1.9194
  270MOL0     H37241   8.466   6.930   7.754  1.6864  1.8190 -0.3602
  270MOL0     H37242   8.084   6.933   7.663  0.1744 -0.8399  0.4083
  270MOL0     H37243   7.860   6.975   7.551 -1.1565 -0.8318 -0.4704
  270MOL0     H37244   6.496   7.207   7.067  0.0406  1.8245  2.6127
  270MOL0     H37245   6.365   7.328   7.266 -0.2326 -1.8329  1.1642
  270MOL0     H37246   6.120   7.523   7.426  1.1594 -1.6862 -0.7331
  270MOL0     H37247   6.108   7.675   7.633 -1.1887  0.2712  3.0356
  270MOL0     H37248   5.758   7.631   7.847 -1.2644 -2.1942  1.0989
  270MOL0     H37249   5.850   7.544   7.973 -1.1661 -0.7326 -1.2341
  270MOL0     H37250   5.952   7.760   8.046  0.6725  0.8735 -1.9442
  270MOL0     H37251   5.780   7.766   8.084 -1.6719  2.2858 -1.9298
  270MOL0     H37252   5.914   7.943   7.937  0.2596  0.0966  1.9524
  270MOL0     H37253   5.809   7.851   7.823  0.1326  1.9611 -0.1176
  270MOL0     H37254   5.618   7.896   7.935 -0.8464  1.2249 -1.6525
  270MOL0     H37255   5.704   8.053   7.902  0.3338 -0.4860  0.4202
  270MOL0     H37256   5.694   8.102   8.311 -0.2460  4.1955 -1.3578
  270MOL0     H37257   5.831   7.393   7.793 -1.9545  1.9258 -0.9759
  270MOL0     H37258   5.716   7.228   7.657 -0.3395  1.7323 -0.4690
  270MOL0     H37259   5.721   7.265   7.487  0.5321  0.0343 -0.6871
  270MOL0     H37260   5.843   7.152   7.572 -0.3910  0.7254  0.9506
  271MOL0     O37261   7.859   0.290  11.297  0.8136  0.2631 -0.1222
  271MOL0     C37262   7.974   0.255  11.259  0.1189 -0.9098  1.0857
  271MOL0     O37263   8.087   0.283  11.335 -0.3010 -0.3099 -0.4420
  271MOL0     C37264   8.094   0.399  11.412 -0.9136 -0.0492 -0.5563
  271MOL0     C37265   8.046   0.529  11.373 -0.2763  0.1211  1.3936
  271MOL0     C37266   8.063   0.639  11.454  0.0329 -0.6265  0.2538
  271MOL0     C37267   8.109   0.624  11.585 -0.4140 -1.1348 -0.3227
  271MOL0     O37268   8.099   0.736  11.661  0.3869 -0.8326  0.1666
  271MOL0     C37269   8.192   0.754  11.769  0.0137  0.0910  0.4954
  271MOL0     C37270   8.178   0.898  11.824  0.3476 -0.5186  0.4475
  271MOL0     C37271   8.190   1.005  11.713  0.9537 -0.5166  0.1368
  271MOL0     C37272   8.121   1.134  11.767 -0.6918  1.1457 -0.0737
  271MOL0     C37273   8.141   1.268  11.702 -0.4899 -0.2784  0.5781
  271MOL0     C37274   8.085   1.270  11.564 -0.5864  0.1927  0.5668
  271MOL0     C37275   8.101   1.415  11.487  0.0084  0.8611 -0.3510
  271MOL0     C37276   8.098   1.410  11.337  0.4045 -0.0297  0.2108
  271MOL0     N37277   8.028   1.529  11.281 -0.4233 -0.0495  0.7428
  271MOL0     C37278   7.961   1.524  11.165  1.1531  0.5048  0.3507
  271MOL0     C37279   7.938   1.652  11.130  0.4793  0.3297  0.6717
  271MOL0     C37280   7.860   1.685  11.010  0.4570 -0.2408  0.5486
  271MOL0     C37281   7.815   1.830  10.996  0.1332 -0.0921 -0.5921
  271MOL0     C37282   7.728   1.844  10.870 -0.2362 -0.0362  0.2799
  271MOL0     C37283   7.627   1.960  10.891 -0.1192 -0.2845 -0.4245
  271MOL0     O37284   7.706   2.078  10.860 -0.3070  0.0736 -0.9865
  271MOL0     C37285   7.647   2.198  10.869 -0.4350 -1.0947  0.0360
  271MOL0     C37286   7.529   2.237  10.919  0.5812  0.1029  0.1102
  271MOL0     C37287   7.480   2.364  10.932  0.6316 -1.5688  0.9658
  271MOL0     C37288   7.347   2.397  10.989  0.8605  0.5616  0.7635
  271MOL0     C37289   7.563   2.471  10.880  0.7613  0.1818 -0.8565
  271MOL0     C37290   7.533   2.620  10.865 -1.0657 -0.8566 -0.1220
  271MOL0     O37291   7.621   2.688  10.788  0.2775  0.0519 -0.0543
  271MOL0     C37292   7.588   2.819  10.762 -0.2183  0.8108  1.5923
  271MOL0     C37293   7.665   2.917  10.806  0.1135 -0.3184 -0.1620
  271MOL0     C37294   7.637   3.052  10.769  0.1183 -0.5473  0.2822
  271MOL0     C37295   7.535   3.087  10.685 -0.4763 -0.3055 -0.5459
  271MOL0     O37296   7.516   3.217  10.651 -0.1645 -0.4608 -0.9061
  271MOL0     C37297   7.384   3.270  10.626  0.6000  1.0693  1.0500
  271MOL0     C37298   7.407   3.420  10.632  1.1515 -0.1068  0.3579
  271MOL0     C37299   7.290   3.500  10.562 -0.7671  0.1468  0.1738
  271MOL0     C37300   7.249   3.456  10.414  0.3697  0.0998  0.4085
  271MOL0     C37301   7.126   3.509  10.353  0.2397 -0.6346  0.4471
  271MOL0     C37302   7.096   3.464  10.209 -0.2095 -0.2880  0.2798
  271MOL0     C37303   7.204   3.491  10.108  0.5168  0.3425  0.3622
  271MOL0     C37304   7.180   3.434   9.967 -0.4727 -0.0809 -0.3362
  271MOL0    Cl37305   7.343   3.422   9.887  0.5909  0.1208 -0.3004
  271MOL0     C37306   7.468   2.982  10.627 -0.3530 -0.4734  0.0722
  271MOL0     C37307   7.480   2.850  10.672  0.4122 -0.2893 -0.5758
  271MOL0     O37308   7.447   2.667  10.927 -0.0441 -0.1017  0.1327
  271MOL0     C37309   7.692   2.439  10.838  1.1867 -0.6304  1.0754
  271MOL0     C37310   7.728   2.303  10.814  0.6831  0.5580  0.5827
  271MOL0     N37311   8.003   1.741  11.218 -1.0058 -0.4320  0.3846
  271MOL0     N37312   8.052   1.663  11.307 -0.5019  0.7961  0.7270
  271MOL0     C37313   8.161   0.495  11.625 -0.4708 -0.8220  0.0829
  271MOL0     C37314   8.148   0.384  11.541 -0.4181  0.0724 -0.1570
  271MOL0     C37315   7.983   0.194  11.117 -0.7712  0.4066  0.2947
  271MOL0     C37316   7.864   0.159  11.049 -0.8881  0.1267  0.1450
  271MOL0     C37317   7.867   0.080  10.936  0.2185  0.9957  0.3340
  271MOL0     C37318   7.991   0.060  10.867  0.2501  1.1361  0.8607
  271MOL0     O37319   7.991  -0.018  10.754  0.3100 -0.3610  0.6658
  271MOL0     C37320   8.078  -0.128  10.751 -0.5772  0.7499  0.2625
  271MOL0     C37321   8.005  -0.252  10.689  0.0619 -0.2511 -0.1821
  271MOL0     C37322   7.872  -0.294  10.763  0.0544  0.1273  0.2980
  271MOL0     C37323   7.883  -0.309  10.920 -1.0076  0.2339 -0.9282
  271MOL0     C37324   7.750  -0.330  10.983  0.6908 -1.4486  0.6383
  271MOL0     C37325   7.646  -0.318  11.043  0.1833 -0.4955 -0.9212
  271MOL0     C37326   8.108   0.093  10.934 -0.5296 -0.2297 -0.3146
  271MOL0     C37327   8.107   0.163  11.054  1.2914  0.0662 -0.4206
  271MOL0     C37328   8.246   0.157  11.136 -0.0600 -0.8193 -0.1518
  271MOL0     H37329   8.008   0.538  11.273  0.8238  1.0056  1.0291
  271MOL0     H37330   8.048   0.739  11.415  0.1213 -1.2841 -1.5772
  271MOL0     H37331   8.295   0.742  11.734 -0.8380 -2.8764 -1.3599
  271MOL0     H37332   8.176   0.680  11.849  0.2603  1.0777  1.4887
  271MOL0     H37333   8.081   0.904  11.874  0.0824 -1.6916  0.1067
  271MOL0     H37334   8.255   0.928  11.896  0.1152  2.6939 -0.4798
  271MOL0     H37335   8.296   1.026  11.701  0.9928 -1.9106 -2.7856
  271MOL0     H37336   8.159   0.973  11.613 -2.6613 -0.7444  1.1791
  271MOL0     H37337   8.014   1.113  11.774 -0.3252 -0.5324  1.2902
  271MOL0     H37338   8.155   1.164  11.866  0.3837  2.6505 -0.8657
  271MOL0     H37339   8.248   1.291  11.712 -0.9328  1.7284  1.1803
  271MOL0     H37340   8.084   1.341  11.761  0.3299  1.2342 -0.4200
  271MOL0     H37341   8.145   1.205  11.499 -2.9193  0.5430 -2.1220
  271MOL0     H37342   7.984   1.228  11.561 -0.2267 -0.9623  2.7374
  271MOL0     H37343   8.188   1.473  11.517 -0.1954  2.4550 -2.5879
  271MOL0     H37344   8.016   1.476  11.521 -0.2410  0.2373  0.1702
  271MOL0     H37345   8.193   1.396  11.286  0.5231  1.4248 -0.0068
  271MOL0     H37346   8.027   1.331  11.312 -0.8631  1.1693 -0.1676
  271MOL0     H37347   7.932   1.429  11.120 -1.9431  1.1705  0.7333
  271MOL0     H37348   7.768   1.628  10.999  0.0138  0.9237 -3.3952
  271MOL0     H37349   7.932   1.650  10.935  0.8991  1.4286  0.1451
  271MOL0     H37350   7.749   1.846  11.082 -0.6000 -2.4205 -0.6454
  271MOL0     H37351   7.899   1.898  11.008  1.0555 -1.3493  0.3750
  271MOL0     H37352   7.789   1.866  10.781 -1.0217  2.6668  0.3330
  271MOL0     H37353   7.675   1.751  10.846  2.8086 -2.1479  1.1831
  271MOL0     H37354   7.532   1.946  10.840 -1.3309 -1.3963  1.9772
  271MOL0     H37355   7.590   1.964  10.993 -2.2120 -2.3043 -1.0305
  271MOL0     H37356   7.459   2.163  10.954  0.5043  0.8214  1.5426
  271MOL0     H37357   7.281   2.310  10.993 -1.5580  1.9566 -2.7231
  271MOL0     H37358   7.291   2.478  10.941  1.4438 -0.2251 -1.3695
  271MOL0     H37359   7.362   2.426  11.093  0.0233 -0.7543  1.2804
  271MOL0     H37360   7.760   2.898  10.855  0.2099  4.0439  1.7786
  271MOL0     H37361   7.706   3.124  10.813  2.4012 -1.4265 -1.6445
  271MOL0     H37362   7.351   3.232  10.529 -1.6746  1.9913  1.4044
  271MOL0     H37363   7.298   3.236  10.684 -0.2920 -0.2191 -0.9023
  271MOL0     H37364   7.400   3.453  10.736 -1.4455  1.2365 -0.1538
  271MOL0     H37365   7.507   3.440  10.592  0.5816 -1.0845 -1.6523
  271MOL0     H37366   7.327   3.603  10.564  2.5352 -0.9277  1.0709
  271MOL0     H37367   7.196   3.497  10.618 -0.8086 -1.0626  0.0559
  271MOL0     H37368   7.248   3.347  10.407 -0.5150  0.0892  0.6542
  271MOL0     H37369   7.332   3.479  10.347  1.7483 -1.7541  1.3642
  271MOL0     H37370   7.034   3.488  10.409 -1.2270  1.6966 -0.9131
  271MOL0     H37371   7.136   3.617  10.341 -0.1530 -0.8301 -2.4054
  271MOL0     H37372   7.011   3.524  10.177  0.1278 -0.2687 -0.6015
  271MOL0     H37373   7.081   3.356  10.212 -0.9871 -0.2186  3.7755
  271MOL0     H37374   7.305   3.461  10.138  2.2219  2.7172 -2.4294
  271MOL0     H37375   7.212   3.599  10.093  3.0195  0.4758  2.0031
  271MOL0     H37376   7.119   3.505   9.910 -3.3303 -1.5120  0.7467
  271MOL0     H37377   7.117   3.344   9.970  1.5214 -1.5252  0.5743
  271MOL0     H37378   7.393   3.006  10.552 -1.0762  2.3288  1.5450
  271MOL0     H37379   7.415   2.770  10.638  0.3468 -0.4312 -0.1361
  271MOL0     H37380   7.758   2.516  10.801 -0.7198  1.5192  1.9065
  271MOL0     H37381   7.827   2.281  10.776 -0.1944  0.0078 -1.5569
  271MOL0     H37382   8.220   0.475  11.714  3.1761 -1.1780 -2.1760
  271MOL0     H37383   8.176   0.284  11.571 -0.2251  0.2240  0.1830
  271MOL0     H37384   7.769   0.178  11.097  0.1900  0.2252  2.3325
  271MOL0     H37385   7.775   0.030  10.908  1.1747 -0.6864  0.0252
  271MOL0     H37386   8.166  -0.103  10.691 -0.8412 -2.9210 -1.8851
  271MOL0     H37387   8.121  -0.151  10.849  1.2578 -1.3423 -0.9602
  271MOL0     H37388   8.077  -0.334  10.683  1.1379  0.6005  0.6828
  271MOL0     H37389   7.985  -0.236  10.583 -1.2833 -1.9521 -0.2327
  271MOL0     H37390   7.799  -0.218  10.733  2.1421  2.1432  0.0518
  271MOL0     H37391   7.849  -0.395  10.726  4.9069 -0.6613 -1.2527
  271MOL0     H37392   7.931  -0.221  10.964 -2.7960  0.2421  1.1782
  271MOL0     H37393   7.943  -0.399  10.940 -2.7214 -0.1366  3.8070
  271MOL0     H37394   7.554  -0.298  11.094  1.8213  0.3009  1.9424
  271MOL0     H37395   8.205   0.058  10.902  1.1349  3.3248  0.3087
  271MOL0     H37396   8.321   0.142  11.058  1.6204  0.3613  1.1806
  271MOL0     H37397   8.266   0.256  11.178  1.1149 -0.4333 -1.5550
  271MOL0     H37398   8.254   0.081  11.214 -3.1652 -0.3175  0.8059
  272MOL0     O37399   2.645   3.853  10.073 -0.4409 -0.0940  0.6643
  272MOL0     C37400   2.728   3.850   9.982 -0.0135  0.3221 -0.7172
  272MOL0     O37401   2.843   3.774   9.983  0.5202  0.3839 -0.5398
  272MOL0     C37402   2.871   3.663  10.057  0.5744 -0.2321  0.7620
  272MOL0     C37403   2.772   3.585  10.122  0.2378 -0.6374  0.5444
  272MOL0     C37404   2.801   3.462  10.175 -0.8956  0.0686  1.0530
  272MOL0     C37405   2.922   3.398  10.135  0.4316 -1.2611 -0.2410
  272MOL0     O37406   2.939   3.269  10.169  0.1537  0.0251  0.5987
  272MOL0     C37407   2.848   3.177  10.108  0.5325 -0.0878 -1.3181
  272MOL0     C37408   2.900   3.031  10.101  0.0132  0.3210 -0.4712
  272MOL0     C37409   2.805   2.936  10.024 -0.3055 -0.9005 -0.2857
  272MOL0     C37410   2.831   2.786  10.063 -0.2085 -0.1048  0.4281
  272MOL0     C37411   2.751   2.745  10.174 -0.5626 -0.4568 -0.3996
  272MOL0     C37412   2.768   2.586  10.204 -0.4348  0.1452  0.6465
  272MOL0     C37413   2.678   2.528  10.309  0.1333  0.3212 -0.8903
  272MOL0     C37414   2.711   2.377  10.342 -0.4899 -0.9267  0.3741
  272MOL0     N37415   2.639   2.327  10.460 -0.2328  0.3724  0.6177
  272MOL0     C37416   2.668   2.369  10.588 -0.1800  0.5941  0.2622
  272MOL0     C37417   2.574   2.310  10.661  0.8988  0.5349 -0.0178
  272MOL0     C37418   2.547   2.328  10.812  0.0310  0.7027 -1.1772
  272MOL0     C37419   2.547   2.190  10.871  0.1941 -0.9207 -0.3894
  272MOL0     C37420   2.553   2.184  11.026 -1.6039  0.4840 -0.4026
  272MOL0     C37421   2.589   2.045  11.083  1.3494  0.2182  0.4100
  272MOL0     O37422   2.727   2.021  11.065  0.2085 -0.4205  0.7902
  272MOL0     C37423   2.764   1.903  11.112  0.4411  0.3200  0.2770
  272MOL0     C37424   2.825   1.806  11.027  0.7468 -0.6106  0.2971
  272MOL0     C37425   2.885   1.694  11.068  0.3505  0.9227 -0.5160
  272MOL0     C37426   2.947   1.604  10.970  0.3386 -0.1987  0.2163
  272MOL0     C37427   2.905   1.670  11.208 -0.1180 -0.9215 -0.1936
  272MOL0     C37428   2.964   1.547  11.254 -0.2005 -0.0773  1.0981
  272MOL0     O37429   2.908   1.429  11.211  0.0378 -0.0761 -0.1563
  272MOL0     C37430   2.924   1.320  11.286  0.6175  0.3691 -1.0961
  272MOL0     C37431   2.895   1.320  11.424  0.1033 -0.0624 -0.3719
  272MOL0     C37432   2.901   1.198  11.492  0.1734 -0.5504  0.5559
  272MOL0     C37433   2.925   1.079  11.427  0.1462  0.2362  1.1313
  272MOL0     O37434   2.925   0.961  11.501 -0.0547  0.2251  0.7269
  272MOL0     C37435   2.855   0.848  11.449 -0.2015 -1.0251  0.5086
  272MOL0     C37436   2.797   0.780  11.577 -0.2544 -0.4305 -0.3095
  272MOL0     C37437   2.923   0.697  11.635  0.8226  0.6061 -0.1707
  272MOL0     C37438   2.885   0.635  11.767  0.3831 -0.4673 -0.0958
  272MOL0     C37439   2.813   0.501  11.740 -0.4233 -0.1692 -0.0008
  272MOL0     C37440   2.887   0.377  11.780 -0.0142 -0.0504  0.3606
  272MOL0     C37441   2.799   0.245  11.764  0.8900 -0.0198  0.7762
  272MOL0     C37442   2.888   0.118  11.795 -0.9573  0.2483  0.0284
  272MOL0    Cl37443   2.773  -0.014  11.783 -0.2077 -0.1178  0.4545
  272MOL0     C37444   2.954   1.074  11.291 -0.9175 -0.0632  0.1797
  272MOL0     C37445   2.945   1.200  11.225 -0.0543  0.2480  0.2715
  272MOL0     O37446   3.063   1.568  11.322  0.6046  0.3783  0.0266
  272MOL0     C37447   2.846   1.757  11.303 -0.2124 -0.3950 -0.1428
  272MOL0     C37448   2.789   1.875  11.249 -1.0029  0.0185 -0.3878
  272MOL0     N37449   2.492   2.239  10.574  0.4753 -0.2956 -0.1639
  272MOL0     N37450   2.529   2.245  10.456  1.0075 -0.4644 -0.0461
  272MOL0     C37451   3.023   3.470  10.078 -0.0733 -0.7767 -1.0420
  272MOL0     C37452   2.995   3.602  10.030 -0.6976  0.0051 -0.5427
  272MOL0     C37453   2.722   3.953   9.880  0.3890 -0.2973  0.6351
  272MOL0     C37454   2.607   3.943   9.797 -0.3909 -0.5413  0.4647
  272MOL0     C37455   2.612   4.014   9.672 -0.2586  0.6019 -0.4783
  272MOL0     C37456   2.721   4.105   9.637  0.1302  1.0480  0.0169
  272MOL0     O37457   2.721   4.165   9.512 -0.4719  0.5397 -0.7011
  272MOL0     C37458   2.717   4.077   9.404 -0.5403  0.0341  0.8298
  272MOL0     C37459   2.674   4.143   9.268  0.0974 -0.9515 -0.6406
  272MOL0     C37460   2.559   4.241   9.283  0.1275  0.5653 -0.4512
  272MOL0     C37461   2.545   4.332   9.162  0.7361 -0.1683  0.5851
  272MOL0     C37462   2.409   4.394   9.176  0.2102 -0.1155 -0.2449
  272MOL0     C37463   2.299   4.433   9.195 -0.6513 -0.0516 -0.3932
  272MOL0     C37464   2.825   4.114   9.732 -0.1061 -0.0665 -0.3304
  272MOL0     C37465   2.830   4.040   9.854  0.2045 -0.1612 -0.9831
  272MOL0     C37466   2.947   4.059   9.947  0.3305 -0.0645 -0.2341
  272MOL0     H37467   2.669   3.618  10.133  0.2404 -0.1091 -0.7885
  272MOL0     H37468   2.721   3.408  10.225  0.0399 -2.8629 -0.3979
  272MOL0     H37469   2.836   3.205  10.003 -0.7724  2.6192 -0.5220
  272MOL0     H37470   2.758   3.169  10.170  1.0254 -0.5565 -0.6501
  272MOL0     H37471   2.990   3.048  10.041  1.9516  0.6964  2.2856
  272MOL0     H37472   2.907   2.996  10.205 -2.6152  0.9771 -0.0042
  272MOL0     H37473   2.705   2.960  10.061  0.5082  0.6315  1.0174
  272MOL0     H37474   2.813   2.952   9.916 -4.1490 -1.3026 -0.7444
  272MOL0     H37475   2.803   2.714   9.985  2.2509 -4.4550  3.1732
  272MOL0     H37476   2.940   2.775  10.071  0.7858  4.4869 -2.4205
  272MOL0     H37477   2.645   2.764  10.158 -0.7132 -2.8540 -3.1072
  272MOL0     H37478   2.785   2.793  10.266 -1.6464  0.8674 -0.6559
  272MOL0     H37479   2.743   2.523  10.119 -1.2876  1.2543  0.0429
  272MOL0     H37480   2.875   2.569  10.224 -0.4975 -0.1279  0.7489
  272MOL0     H37481   2.573   2.525  10.275 -0.9966 -0.7097  2.3624
  272MOL0     H37482   2.672   2.584  10.403  1.2977 -1.0517  0.0375
  272MOL0     H37483   2.682   2.305  10.265  4.2297 -4.1927  1.1796
  272MOL0     H37484   2.818   2.359  10.355 -0.8613 -4.0420 -0.2680
  272MOL0     H37485   2.740   2.447  10.610 -1.3873  2.4415 -1.9327
  272MOL0     H37486   2.451   2.371  10.840  1.3674  0.7997  4.3156
  272MOL0     H37487   2.626   2.389  10.857  2.6684 -4.3441  1.9518
  272MOL0     H37488   2.451   2.149  10.839 -0.5489  1.0409 -0.8434
  272MOL0     H37489   2.623   2.134  10.815  0.2215  0.4325 -1.7634
  272MOL0     H37490   2.637   2.241  11.066  1.2919 -0.7367 -4.2055
  272MOL0     H37491   2.459   2.225  11.066 -2.7618 -2.3889  0.0468
  272MOL0     H37492   2.568   2.044  11.190  1.9343  2.0182  0.5805
  272MOL0     H37493   2.530   1.978  11.020  3.3534 -2.5069  1.2594
  272MOL0     H37494   2.808   1.832  10.922  1.3808  0.6123  0.4718
  272MOL0     H37495   2.967   1.501  11.000  1.8641  0.0806  0.2445
  272MOL0     H37496   3.046   1.644  10.947 -0.0299  0.3142 -0.5351
  272MOL0     H37497   2.898   1.595  10.872 -1.7912 -2.1073  1.3671
  272MOL0     H37498   2.866   1.417  11.464 -1.7083  0.7545 -3.3321
  272MOL0     H37499   2.882   1.195  11.599  1.5349  1.6325  0.9362
  272MOL0     H37500   2.781   0.884  11.376 -0.9645 -1.2944  1.1369
  272MOL0     H37501   2.909   0.768  11.397 -0.3370 -0.5190 -0.4451
  272MOL0     H37502   2.754   0.846  11.653 -2.0308 -1.5609 -0.2909
  272MOL0     H37503   2.724   0.708  11.539  0.5385 -1.6500  0.4048
  272MOL0     H37504   3.006   0.767  11.647 -1.5835  3.6586 -0.1122
  272MOL0     H37505   2.958   0.628  11.557 -0.5934  1.8231 -1.9715
  272MOL0     H37506   2.848   0.703  11.845  1.3739 -0.8003  0.6873
  272MOL0     H37507   2.969   0.593  11.823 -0.5699 -1.6621  0.4846
  272MOL0     H37508   2.714   0.505  11.786 -0.1415 -1.9878  0.8348
  272MOL0     H37509   2.779   0.480  11.638  3.4550 -0.7153 -1.3472
  272MOL0     H37510   2.921   0.392  11.883 -0.7459 -0.9512  0.7595
  272MOL0     H37511   2.973   0.366  11.714 -0.7302  1.9402 -0.9857
  272MOL0     H37512   2.774   0.233  11.658  2.3340  0.3925  0.3750
  272MOL0     H37513   2.710   0.254  11.828 -1.5197  1.1441 -2.4358
  272MOL0     H37514   2.940   0.128  11.891 -0.0776 -2.5700 -0.0651
  272MOL0     H37515   2.970   0.096  11.726 -0.1737 -1.9045  1.5428
  272MOL0     H37516   2.943   0.977  11.243 -1.4351 -1.7589  3.3860
  272MOL0     H37517   2.966   1.217  11.120  1.0008  0.5710  0.5152
  272MOL0     H37518   2.861   1.733  11.408 -0.3896 -0.2109 -0.0755
  272MOL0     H37519   2.747   1.957  11.309 -0.1532  1.3690 -1.5791
  272MOL0     H37520   3.117   3.430  10.040  0.3545  0.8163 -1.7568
  272MOL0     H37521   3.065   3.650   9.964  1.4032 -0.3535  1.3057
  272MOL0     H37522   2.523   3.879   9.823 -2.2490  0.4311 -2.6719
  272MOL0     H37523   2.519   4.004   9.616  0.0055  0.0252 -0.8201
  272MOL0     H37524   2.821   4.045   9.393  0.5662  3.3145  0.7906
  272MOL0     H37525   2.645   3.997   9.422 -2.2307  1.5864  1.3082
  272MOL0     H37526   2.645   4.067   9.195  1.9882  2.6438 -5.7272
  272MOL0     H37527   2.761   4.199   9.230  0.3715 -1.8557 -1.3814
  272MOL0     H37528   2.473   4.176   9.304  2.1560 -3.5381 -3.2805
  272MOL0     H37529   2.566   4.307   9.369 -1.7439  0.1641  0.0603
  272MOL0     H37530   2.537   4.277   9.068  2.5896  2.6331 -1.3713
  272MOL0     H37531   2.619   4.412   9.162  0.4124  0.1705  2.4226
  272MOL0     H37532   2.202   4.461   9.229  0.5918 -0.0930  3.7490
  272MOL0     H37533   2.910   4.177   9.707  3.5270 -2.9097  3.3415
  272MOL0     H37534   2.914   4.116  10.034 -4.7328 -2.2772 -0.3398
  272MOL0     H37535   2.985   3.959   9.968  1.3598 -0.5328 -3.7297
  272MOL0     H37536   3.021   4.116   9.890 -0.9481  1.5932 -0.3231
  273MOL0     O37537   0.222   8.484   2.159 -1.1069  0.7226  0.1488
  273MOL0     C37538   0.168   8.398   2.237 -1.0919 -0.2177  0.4207
  273MOL0     O37539   0.035   8.377   2.249 -0.2858 -0.6469 -0.4933
  273MOL0     C37540  -0.063   8.440   2.168  0.5658  0.4214  0.2121
  273MOL0     C37541  -0.056   8.572   2.125  0.3835  0.9479 -0.7034
  273MOL0     C37542  -0.164   8.632   2.059  0.5356 -0.0459  0.1837
  273MOL0     C37543  -0.284   8.567   2.061  0.1244 -1.2846 -0.8703
  273MOL0     O37544  -0.397   8.631   2.043 -0.6085 -0.5562  0.5869
  273MOL0     C37545  -0.403   8.713   1.923  1.0383  0.1422 -1.1149
  273MOL0     C37546  -0.506   8.650   1.829 -0.3945  0.9001 -0.6338
  273MOL0     C37547  -0.651   8.634   1.883  0.1345  0.5846 -0.2251
  273MOL0     C37548  -0.713   8.769   1.912 -1.2464  0.3956 -0.2253
  273MOL0     C37549  -0.868   8.763   1.914 -0.0899  0.4440 -0.1786
  273MOL0     C37550  -0.930   8.888   1.970  0.1730  0.0094  0.3180
  273MOL0     C37551  -1.079   8.888   1.987  0.0031 -0.0711  0.3438
  273MOL0     C37552  -1.131   9.027   2.027 -0.6679  1.2245  0.1355
  273MOL0     N37553  -1.260   9.013   2.096 -0.0075 -0.1187  0.6460
  273MOL0     C37554  -1.272   8.995   2.228  0.2337  0.2315  0.8970
  273MOL0     C37555  -1.407   9.023   2.268  0.1102 -0.3888  0.6066
  273MOL0     C37556  -1.455   9.048   2.402 -0.1260  0.6881 -1.0261
  273MOL0     C37557  -1.485   8.915   2.477 -0.2086 -0.7496 -0.0208
  273MOL0     C37558  -1.548   8.944   2.611 -0.5032  0.7570 -1.0315
  273MOL0     C37559  -1.614   8.830   2.680  0.1617  0.0611 -0.5623
  273MOL0     O37560  -1.523   8.730   2.722 -0.0222 -0.6160  0.3482
  273MOL0     C37561  -1.434   8.761   2.824  0.1267 -0.1534 -0.8330
  273MOL0     C37562  -1.305   8.738   2.777  0.1881 -0.2564 -0.0161
  273MOL0     C37563  -1.193   8.766   2.856  0.7013  0.1316  0.6023
  273MOL0     C37564  -1.058   8.722   2.800  1.1492 -0.0352  0.1225
  273MOL0     C37565  -1.212   8.819   2.985  0.0197  0.2947 -0.0720
  273MOL0     C37566  -1.104   8.861   3.074  0.2448  0.3370 -0.8808
  273MOL0     O37567  -0.976   8.869   3.019 -0.6041  0.0938  0.1586
  273MOL0     C37568  -0.863   8.897   3.100  0.2578 -0.2983 -0.0450
  273MOL0     C37569  -0.839   8.814   3.216 -0.1789  0.4216 -0.4890
  273MOL0     C37570  -0.726   8.849   3.298  0.8587  1.0054 -0.2130
  273MOL0     C37571  -0.632   8.939   3.260  0.0878  1.1124 -1.1219
  273MOL0     O37572  -0.519   8.980   3.335 -0.5827 -0.8711 -1.1181
  273MOL0     C37573  -0.395   8.927   3.302  0.2971  0.0635 -0.1261
  273MOL0     C37574  -0.312   9.024   3.223 -0.3621 -0.9352  0.1905
  273MOL0     C37575  -0.293   9.149   3.302 -0.2540  0.3712  0.4951
  273MOL0     C37576  -0.209   9.252   3.232 -1.4859 -0.0999 -0.3074
  273MOL0     C37577  -0.146   9.348   3.332 -0.0314  0.1038 -1.0995
  273MOL0     C37578  -0.114   9.466   3.233  0.3685 -0.5491  0.6078
  273MOL0     C37579  -0.027   9.570   3.304  0.2737 -0.4039  0.0878
  273MOL0     C37580  -0.008   9.695   3.223  0.1167 -0.9717  0.9601
  273MOL0    Cl37581  -0.074   9.857   3.292 -0.0827  0.3452  0.0749
  273MOL0     C37582  -0.657   9.005   3.141  0.4829 -0.4058 -0.1079
  273MOL0     C37583  -0.774   8.993   3.063 -0.6154 -0.2190  0.8667
  273MOL0     O37584  -1.129   8.896   3.187 -1.0585 -0.4350 -0.5904
  273MOL0     C37585  -1.351   8.849   3.025  1.2106  0.1037 -0.2200
  273MOL0     C37586  -1.457   8.829   2.942  0.5696  0.0011 -0.3215
  273MOL0     N37587  -1.469   9.051   2.150 -0.6753 -1.0560 -1.2223
  273MOL0     N37588  -1.384   9.047   2.046  0.5708  0.0598 -0.5232
  273MOL0     C37589  -0.296   8.442   2.112 -0.4933  0.1450  0.0234
  273MOL0     C37590  -0.185   8.376   2.152 -0.4711  0.2535  0.5510
  273MOL0     C37591   0.255   8.325   2.342  1.0748 -0.2866 -0.5761
  273MOL0     C37592   0.184   8.252   2.435  0.0207 -0.5862  0.0982
  273MOL0     C37593   0.266   8.191   2.543  0.3235  0.7180  0.7821
  273MOL0     C37594   0.407   8.179   2.538  0.9525  1.4433  0.2771
  273MOL0     O37595   0.499   8.118   2.616 -0.0178  0.6152 -0.8312
  273MOL0     C37596   0.449   8.010   2.694 -0.9493  0.5310 -0.4559
  273MOL0     C37597   0.398   7.895   2.619  0.0224 -0.0791  0.3132
  273MOL0     C37598   0.466   7.759   2.630  0.1139 -0.2531  0.6497
  273MOL0     C37599   0.624   7.778   2.634 -0.9782 -0.2365 -0.5949
  273MOL0     C37600   0.675   7.866   2.532  0.5456  0.2696 -0.4474
  273MOL0     C37601   0.710   7.950   2.454 -0.1475  0.0490  0.3443
  273MOL0     C37602   0.472   8.238   2.430 -1.0044 -0.2523  0.2552
  273MOL0     C37603   0.401   8.327   2.344  0.2163  0.5611 -0.0793
  273MOL0     C37604   0.497   8.418   2.253 -0.4714 -0.3060  0.9706
  273MOL0     H37605   0.032   8.631   2.147 -0.4459  0.9132  3.3273
  273MOL0     H37606  -0.156   8.736   2.029  3.0024 -0.6448 -1.5891
  273MOL0     H37607  -0.303   8.713   1.879  2.5131 -1.0201  1.9399
  273MOL0     H37608  -0.435   8.816   1.942 -2.0197 -1.0987  1.3836
  273MOL0     H37609  -0.505   8.708   1.736 -3.5350 -0.6677 -1.7831
  273MOL0     H37610  -0.476   8.548   1.803 -1.2427 -1.5788  6.1777
  273MOL0     H37611  -0.728   8.601   1.813 -0.9227  0.4812  0.9553
  273MOL0     H37612  -0.657   8.577   1.976 -1.2207  0.0150 -0.6404
  273MOL0     H37613  -0.664   8.814   1.999  0.7543  2.9093 -2.4661
  273MOL0     H37614  -0.687   8.833   1.827 -1.9921 -1.2161 -1.7127
  273MOL0     H37615  -0.889   8.685   1.988  0.5774  0.8324  0.4201
  273MOL0     H37616  -0.900   8.730   1.814 -0.6740  1.7617 -0.4477
  273MOL0     H37617  -0.880   8.913   2.064 -1.8808  4.1588  0.5232
  273MOL0     H37618  -0.894   8.972   1.909 -0.6119 -0.3882 -0.7137
  273MOL0     H37619  -1.101   8.818   2.068 -1.3183  0.9192  0.8722
  273MOL0     H37620  -1.124   8.860   1.891  1.7906 -0.2470 -0.4855
  273MOL0     H37621  -1.049   9.066   2.089 -0.9500  1.6552  0.2452
  273MOL0     H37622  -1.137   9.091   1.938  0.3710 -1.8848 -2.3541
  273MOL0     H37623  -1.196   8.985   2.305 -0.4928  2.3885  2.0051
  273MOL0     H37624  -1.540   9.118   2.400 -0.8173  0.0891  2.1040
  273MOL0     H37625  -1.376   9.086   2.466 -1.7454 -1.0633  2.2492
  273MOL0     H37626  -1.548   8.843   2.424 -0.2614 -0.4352 -0.3830
  273MOL0     H37627  -1.391   8.862   2.498  0.7772  1.2601  0.8899
  273MOL0     H37628  -1.476   8.979   2.685 -1.6061 -0.5037  0.7395
  273MOL0     H37629  -1.616   9.029   2.603  1.5304  2.2832 -3.4697
  273MOL0     H37630  -1.665   8.871   2.768 -2.3366  0.8967 -2.2758
  273MOL0     H37631  -1.683   8.788   2.606 -0.0033 -0.6446 -0.0159
  273MOL0     H37632  -1.303   8.705   2.673 -2.7309  0.7382 -0.4862
  273MOL0     H37633  -0.988   8.803   2.781  3.0587 -2.0106 -1.8499
  273MOL0     H37634  -1.065   8.679   2.700 -1.3666  0.2730  0.1081
  273MOL0     H37635  -1.005   8.651   2.865  1.2505 -0.8299 -0.8199
  273MOL0     H37636  -0.902   8.730   3.242  0.8231  0.0334  0.7770
  273MOL0     H37637  -0.703   8.792   3.387 -2.4421  1.8026  1.3102
  273MOL0     H37638  -0.351   8.896   3.397 -1.6103 -0.7302  0.5660
  273MOL0     H37639  -0.400   8.832   3.248  1.9254 -0.7645  1.0872
  273MOL0     H37640  -0.217   8.971   3.206  1.8412  2.1345  2.0260
  273MOL0     H37641  -0.361   9.045   3.127  0.5519 -0.2232 -0.1403
  273MOL0     H37642  -0.260   9.120   3.403  2.5997  2.0460  0.1678
  273MOL0     H37643  -0.395   9.182   3.324 -1.2100 -0.5064 -2.3171
  273MOL0     H37644  -0.269   9.294   3.151 -2.2413  0.3976  0.4949
  273MOL0     H37645  -0.123   9.204   3.182 -0.6316 -0.1470  1.1692
  273MOL0     H37646  -0.207   9.364   3.421  3.8674  0.7454  1.7006
  273MOL0     H37647  -0.053   9.313   3.376  0.5655  2.6309 -0.1771
  273MOL0     H37648  -0.201   9.519   3.194  1.5576  0.9256 -0.0894
  273MOL0     H37649  -0.061   9.432   3.144 -0.2314 -3.1362  1.1423
  273MOL0     H37650   0.072   9.526   3.323  0.3602 -0.0058  0.5766
  273MOL0     H37651  -0.063   9.596   3.404 -3.1098  0.1833 -1.1643
  273MOL0     H37652  -0.061   9.678   3.129 -2.3938 -1.9051  2.4560
  273MOL0     H37653   0.101   9.709   3.229  0.2511 -1.8888  0.8855
  273MOL0     H37654  -0.580   9.079   3.117  2.3701 -2.3739 -0.4363
  273MOL0     H37655  -0.764   9.054   2.974  1.2966  0.1972  1.3151
  273MOL0     H37656  -1.366   8.909   3.114 -3.7740 -1.1458  0.0401
  273MOL0     H37657  -1.554   8.862   2.977  0.3796  0.0350 -0.8729
  273MOL0     H37658  -0.393   8.393   2.110  0.4279 -1.7734  0.1037
  273MOL0     H37659  -0.192   8.274   2.187  0.2543  0.3475  0.9899
  273MOL0     H37660   0.078   8.230   2.444 -0.4125  1.6894  1.3130
  273MOL0     H37661   0.213   8.140   2.623  2.1112  0.1852  1.6555
  273MOL0     H37662   0.508   7.984   2.782 -2.8908  0.8109  0.9762
  273MOL0     H37663   0.367   8.040   2.760 -1.3687  0.6766 -1.0343
  273MOL0     H37664   0.389   7.919   2.513  0.5481 -0.6772  0.1283
  273MOL0     H37665   0.292   7.879   2.642 -1.1008 -1.1736 -4.5029
  273MOL0     H37666   0.425   7.710   2.719  1.7473 -1.3375  0.8639
  273MOL0     H37667   0.448   7.698   2.541  2.5617 -2.2258  1.3914
  273MOL0     H37668   0.658   7.677   2.611 -0.2539 -0.7697  2.4903
  273MOL0     H37669   0.659   7.813   2.731 -1.9426  5.5626 -1.9766
  273MOL0     H37670   0.739   8.026   2.385 -0.8132 -0.0229 -0.0208
  273MOL0     H37671   0.579   8.221   2.422 -0.9060  0.1464  0.6896
  273MOL0     H37672   0.592   8.442   2.301 -0.2012 -0.2659  0.4226
  273MOL0     H37673   0.526   8.364   2.162 -2.3736 -0.9416  0.6837
  273MOL0     H37674   0.444   8.507   2.216 -2.3715 -1.5768  0.4688
  274MOL0     O37675   5.339   1.976   9.798 -0.3926  0.7278  0.3383
  274MOL0     C37676   5.378   2.087   9.817 -1.0962 -0.2304 -0.1765
  274MOL0     O37677   5.461   2.121   9.928  0.9025  0.2131 -0.5604
  274MOL0     C37678   5.473   2.025  10.023  0.5143  0.4486 -0.2106
  274MOL0     C37679   5.403   2.029  10.138  0.3544 -0.8517 -1.1878
  274MOL0     C37680   5.421   1.938  10.241 -0.4192  0.0915  0.7252
  274MOL0     C37681   5.508   1.827  10.226  0.9506 -0.2452  0.3511
  274MOL0     O37682   5.523   1.737  10.337  0.1232 -0.3251  1.1661
  274MOL0     C37683   5.595   1.615  10.320  0.6361  0.0946 -0.8556
  274MOL0     C37684   5.504   1.509  10.252 -0.0583 -0.1379 -0.1628
  274MOL0     C37685   5.595   1.391  10.205  0.0123  0.3033 -0.4482
  274MOL0     C37686   5.524   1.275  10.129  0.0896  0.7718 -0.4875
  274MOL0     C37687   5.628   1.167  10.109 -0.1053  0.2847  0.3445
  274MOL0     C37688   5.578   1.046  10.034 -0.1325 -0.8774 -0.4251
  274MOL0     C37689   5.683   0.993   9.931 -0.4499  0.6134  0.1750
  274MOL0     C37690   5.793   0.915  10.002 -0.6209  0.3678 -0.4375
  274MOL0     N37691   5.863   0.845   9.891  0.2915  0.2569  0.2126
  274MOL0     C37692   5.838   0.725   9.830  0.2239 -1.2034  0.3659
  274MOL0     C37693   5.920   0.714   9.727  0.1476 -0.7871  0.0332
  274MOL0     C37694   5.923   0.621   9.612  0.0690 -0.0298  0.2029
  274MOL0     C37695   5.989   0.490   9.651 -0.5860  0.0825 -0.3994
  274MOL0     C37696   6.003   0.385   9.534  0.9895  0.1074 -0.2222
  274MOL0     C37697   6.064   0.247   9.587  0.4136  0.1410  0.2744
  274MOL0     O37698   5.959   0.170   9.646  0.7182 -0.2362  0.1969
  274MOL0     C37699   5.927   0.055   9.575  0.4025 -0.2792 -1.0883
  274MOL0     C37700   5.807   0.036   9.501 -0.6003  0.1802 -0.5117
  274MOL0     C37701   5.785  -0.080   9.423  0.4921  1.0643 -0.6084
  274MOL0     C37702   5.673  -0.095   9.331 -0.7861 -0.3119  0.3824
  274MOL0     C37703   5.870  -0.193   9.442 -0.4083 -0.5563 -0.7202
  274MOL0     C37704   5.851  -0.330   9.389 -0.5769 -0.8481  0.4701
  274MOL0     O37705   5.946  -0.427   9.433  0.4397  0.0559  0.0114
  274MOL0     C37706   5.917  -0.553   9.393  0.0927  1.1042 -0.2400
  274MOL0     C37707   5.916  -0.616   9.269  0.2029  0.0662 -1.1448
  274MOL0     C37708   5.869  -0.742   9.257  0.5243 -0.8126  0.7617
  274MOL0     C37709   5.839  -0.819   9.375 -0.2266 -1.0848  0.0428
  274MOL0     O37710   5.803  -0.945   9.352  0.2528 -0.3915 -0.1410
  274MOL0     C37711   5.741  -1.021   9.458 -0.8176 -0.2638 -0.1780
  274MOL0     C37712   5.693  -1.152   9.398 -1.0639  0.0416  0.3273
  274MOL0     C37713   5.547  -1.190   9.437 -0.4914  0.1952  1.0370
  274MOL0     C37714   5.536  -1.344   9.435  1.0325 -0.7014  0.3441
  274MOL0     C37715   5.389  -1.394   9.414  0.2101 -0.3131 -0.3344
  274MOL0     C37716   5.302  -1.353   9.524  0.1027  0.2092  0.0197
  274MOL0     C37717   5.194  -1.468   9.553 -0.4770 -0.0104 -0.7402
  274MOL0     C37718   5.056  -1.437   9.609  0.1043  0.4975 -0.9259
  274MOL0    Cl37719   5.095  -1.375   9.765  0.0991 -0.2069 -0.2570
  274MOL0     C37720   5.851  -0.758   9.503  0.4384  0.3720  0.0564
  274MOL0     C37721   5.889  -0.630   9.511 -0.1745 -1.0836 -0.0504
  274MOL0     O37722   5.770  -0.352   9.301  0.2301 -1.0650 -0.1153
  274MOL0     C37723   5.991  -0.174   9.505 -0.2428 -0.9794 -0.0916
  274MOL0     C37724   6.017  -0.052   9.577  0.3274  0.7086 -0.4946
  274MOL0     N37725   6.011   0.822   9.735 -0.5916 -0.1550  1.3724
  274MOL0     N37726   5.975   0.895   9.834 -0.2776  0.1626 -0.5453
  274MOL0     C37727   5.588   1.829  10.115 -0.6536 -0.0303 -0.0717
  274MOL0     C37728   5.554   1.916  10.004 -1.2714  0.0952 -0.6485
  274MOL0     C37729   5.358   2.186   9.710  0.5592  0.4693 -0.5993
  274MOL0     C37730   5.363   2.134   9.578 -1.1184 -0.7236 -0.8066
  274MOL0     C37731   5.361   2.235   9.476 -0.2266 -0.0670  0.1791
  274MOL0     C37732   5.354   2.366   9.496 -0.9034  0.0846 -0.2742
  274MOL0     O37733   5.337   2.464   9.400 -0.0137  0.3068 -0.4103
  274MOL0     C37734   5.246   2.435   9.288  0.2210  0.6768  0.7069
  274MOL0     C37735   5.104   2.446   9.337 -0.8589 -0.5003  0.3118
  274MOL0     C37736   5.058   2.559   9.432  0.2260  0.5538 -0.3977
  274MOL0     C37737   5.006   2.487   9.562  0.8789  0.4047  0.8266
  274MOL0     C37738   5.033   2.573   9.675  0.0599 -0.5985  0.0298
  274MOL0     C37739   5.036   2.662   9.762 -0.6547 -0.2276 -0.4531
  274MOL0     C37740   5.351   2.409   9.623 -0.2227 -0.8240 -0.9719
  274MOL0     C37741   5.350   2.324   9.739 -0.0391  0.1033  0.5601
  274MOL0     C37742   5.341   2.381   9.875 -0.2449  0.3272 -0.6404
  274MOL0     H37743   5.345   2.117  10.162  2.2957  0.2710 -0.3409
  274MOL0     H37744   5.361   1.933  10.331  1.1723 -1.4137  1.7878
  274MOL0     H37745   5.631   1.583  10.419  0.7376 -0.8656 -1.1951
  274MOL0     H37746   5.677   1.639  10.253  0.5412  0.3332 -0.8880
  274MOL0     H37747   5.434   1.458  10.318 -1.5503 -0.1295 -1.6784
  274MOL0     H37748   5.455   1.565  10.171 -0.5378  0.8452  0.7856
  274MOL0     H37749   5.669   1.433  10.135  0.3338  0.3766 -0.0708
  274MOL0     H37750   5.666   1.351  10.279  1.0115  0.7726 -1.1318
  274MOL0     H37751   5.452   1.226  10.196  1.8818 -1.0997  0.1677
  274MOL0     H37752   5.471   1.300  10.037 -1.5390  4.2869  1.1796
  274MOL0     H37753   5.674   1.139  10.204 -2.7280 -0.9056  1.3459
  274MOL0     H37754   5.708   1.219  10.056  0.9946  0.0877  1.7495
  274MOL0     H37755   5.568   0.962  10.104  0.5309 -1.6420 -1.2251
  274MOL0     H37756   5.495   1.072   9.967 -0.4197 -1.1406 -0.1750
  274MOL0     H37757   5.727   1.064   9.860  4.4245 -0.2182  1.9690
  274MOL0     H37758   5.638   0.916   9.867  0.4477 -1.7419  2.2121
  274MOL0     H37759   5.863   0.982  10.051 -1.1666 -0.5005  1.6394
  274MOL0     H37760   5.758   0.859  10.089  0.9314 -0.3628 -0.2628
  274MOL0     H37761   5.755   0.660   9.853 -0.9717  0.4803  0.9780
  274MOL0     H37762   5.972   0.670   9.528 -1.3109  0.3681 -0.3954
  274MOL0     H37763   5.825   0.593   9.572 -0.4315  2.1709 -0.2166
  274MOL0     H37764   6.086   0.515   9.696  0.2679 -0.8524 -1.6472
  274MOL0     H37765   5.938   0.434   9.730  2.7129 -0.3841  1.6189
  274MOL0     H37766   5.901   0.355   9.508  0.1244  1.1586  1.6790
  274MOL0     H37767   6.043   0.437   9.447 -2.4031  0.3230 -1.8268
  274MOL0     H37768   6.116   0.195   9.506  4.1314 -0.6227  2.8893
  274MOL0     H37769   6.144   0.266   9.659  1.0915 -0.2828 -0.3549
  274MOL0     H37770   5.735   0.116   9.492 -0.4607  0.3246 -0.3393
  274MOL0     H37771   5.610  -0.006   9.339 -1.2430 -0.7385  1.9076
  274MOL0     H37772   5.616  -0.177   9.378  0.7068 -1.0477  0.9713
  274MOL0     H37773   5.709  -0.115   9.230  0.0980 -0.5496  0.7339
  274MOL0     H37774   5.937  -0.547   9.188 -3.5817 -0.2706 -2.6224
  274MOL0     H37775   5.863  -0.791   9.160  0.5089  0.1514  0.2615
  274MOL0     H37776   5.818  -1.047   9.531 -0.2472  1.2190 -0.2207
  274MOL0     H37777   5.653  -0.968   9.495  0.4207  1.2852  0.6640
  274MOL0     H37778   5.687  -1.139   9.290 -1.2945  3.1411  0.6376
  274MOL0     H37779   5.751  -1.238   9.434 -0.3868 -0.4144 -1.7080
  274MOL0     H37780   5.468  -1.145   9.376 -0.4695  1.1863  1.7288
  274MOL0     H37781   5.528  -1.159   9.540  1.8961  1.0355  1.2959
  274MOL0     H37782   5.572  -1.384   9.530  1.9379  1.5565  1.0119
  274MOL0     H37783   5.591  -1.389   9.352  1.4757 -1.2884  0.9438
  274MOL0     H37784   5.343  -1.357   9.322 -7.6607 -3.7296  1.4141
  274MOL0     H37785   5.395  -1.503   9.423 -1.8665 -0.4001  0.5079
  274MOL0     H37786   5.259  -1.255   9.504 -2.5138 -1.2224 -2.1261
  274MOL0     H37787   5.360  -1.346   9.616  0.4301 -1.4987 -0.0172
  274MOL0     H37788   5.240  -1.525   9.634  0.2325  4.1210  2.0959
  274MOL0     H37789   5.181  -1.528   9.462  0.1433 -0.9228 -0.2335
  274MOL0     H37790   4.996  -1.528   9.618  1.6483 -0.3841  1.0531
  274MOL0     H37791   5.011  -1.358   9.549 -0.5838 -0.4086 -1.6190
  274MOL0     H37792   5.830  -0.806   9.598 -0.2016 -2.2727 -1.3362
  274MOL0     H37793   5.894  -0.579   9.607 -0.9877  0.3114 -0.7039
  274MOL0     H37794   6.073  -0.244   9.497 -0.9612 -2.1413  1.9292
  274MOL0     H37795   6.109  -0.040   9.634 -1.6472  0.8001  2.9907
  274MOL0     H37796   5.670   1.763  10.090  0.0177  0.8481 -0.2244
  274MOL0     H37797   5.614   1.907   9.914  1.4134 -1.8576  1.1707
  274MOL0     H37798   5.380   2.028   9.565 -0.1230 -0.6069 -0.5209
  274MOL0     H37799   5.366   2.188   9.378  0.7502 -2.4119  1.2820
  274MOL0     H37800   5.264   2.504   9.206  1.1231  0.9543  1.1135
  274MOL0     H37801   5.251   2.336   9.243  0.4728  1.4106 -0.9252
  274MOL0     H37802   5.078   2.354   9.392 -0.9635 -0.3592  0.5008
  274MOL0     H37803   5.031   2.453   9.256  0.3945  1.2195 -0.7254
  274MOL0     H37804   5.142   2.618   9.470  0.1827 -1.5958  3.4993
  274MOL0     H37805   4.983   2.629   9.393 -1.8475 -1.6157 -0.5551
  274MOL0     H37806   5.029   2.384   9.589  3.6753  0.3688 -1.2047
  274MOL0     H37807   4.899   2.481   9.540  1.0130 -0.7962  0.4338
  274MOL0     H37808   5.047   2.745   9.830  0.8879  1.9536 -3.1609
  274MOL0     H37809   5.335   2.516   9.634 -2.1454 -1.1736  0.0898
  274MOL0     H37810   5.308   2.484   9.855  1.6994  1.2744  0.7042
  274MOL0     H37811   5.265   2.330   9.935 -1.4064  3.5219  0.8605
  274MOL0     H37812   5.445   2.381   9.911  1.5419 -5.7881 -4.3596
  275MOL0     O37813   6.035   8.358   6.394 -0.3304  0.0164 -0.2613
  275MOL0     C37814   6.057   8.348   6.273  0.4459  0.5655 -0.1468
  275MOL0     O37815   6.136   8.258   6.216  0.1835 -0.3062 -0.4572
  275MOL0     C37816   6.144   8.134   6.263 -0.5670  1.0919 -0.0978
  275MOL0     C37817   6.254   8.053   6.212  0.3979  0.0823  0.4447
  275MOL0     C37818   6.280   7.927   6.267  1.3140  0.3319 -0.2819
  275MOL0     C37819   6.184   7.868   6.359 -1.0819  0.2008 -0.5898
  275MOL0     O37820   6.216   7.745   6.410 -0.0748 -0.6148 -0.0913
  275MOL0     C37821   6.188   7.724   6.552  0.3515 -0.1776  0.2057
  275MOL0     C37822   6.281   7.611   6.603  0.1651  0.7177  1.9948
  275MOL0     C37823   6.424   7.660   6.603  0.3579 -0.1646 -0.5431
  275MOL0     C37824   6.535   7.559   6.643  0.1732 -0.3829  0.2918
  275MOL0     C37825   6.523   7.502   6.781  0.5632 -0.7124 -0.4830
  275MOL0     C37826   6.572   7.597   6.896 -1.5817 -0.0612  0.4843
  275MOL0     C37827   6.732   7.610   6.888  0.2479  0.3639  0.0468
  275MOL0     C37828   6.792   7.655   7.016  0.3871  0.6126 -0.0799
  275MOL0     N37829   6.795   7.538   7.092 -0.7585  0.2300  0.1737
  275MOL0     C37830   6.916   7.474   7.131  0.3251 -0.4550 -0.0420
  275MOL0     C37831   6.882   7.381   7.224 -1.4790 -0.9746 -0.6473
  275MOL0     C37832   6.956   7.256   7.260  0.2921  0.0832 -0.1801
  275MOL0     C37833   7.075   7.293   7.337 -0.3493 -0.0576 -0.5474
  275MOL0     C37834   7.048   7.358   7.470 -0.4762 -0.4995  0.5933
  275MOL0     C37835   7.177   7.440   7.515  1.0295 -0.9345  0.8563
  275MOL0     O37836   7.221   7.547   7.430 -0.3891 -0.2478  0.0353
  275MOL0     C37837   7.126   7.645   7.387 -0.0712 -0.6514  0.3683
  275MOL0     C37838   7.154   7.718   7.273  0.7715 -0.5042  0.6364
  275MOL0     C37839   7.066   7.815   7.223  1.2241 -0.3844  0.4100
  275MOL0     C37840   7.123   7.895   7.107 -0.3250 -0.1279 -0.4412
  275MOL0     C37841   6.955   7.855   7.293  0.4782  0.9413  0.9463
  275MOL0     C37842   6.853   7.953   7.247 -0.0903 -0.8108 -1.2377
  275MOL0     O37843   6.857   7.978   7.106 -0.3870  0.2755  0.4273
  275MOL0     C37844   6.795   8.094   7.070 -0.8298  1.2337 -1.3832
  275MOL0     C37845   6.880   8.203   7.040 -0.4395  0.4323 -0.4929
  275MOL0     C37846   6.820   8.318   7.002 -0.5387  0.0836 -0.7878
  275MOL0     C37847   6.683   8.326   6.985  0.2148  0.3754  0.4753
  275MOL0     O37848   6.622   8.440   6.951  0.8499  0.2576 -0.2617
  275MOL0     C37849   6.686   8.568   6.964 -0.0879  0.4811  0.3270
  275MOL0     C37850   6.586   8.685   6.957  0.2385 -0.1570 -0.4716
  275MOL0     C37851   6.495   8.694   7.082  0.0008  0.2765  0.4481
  275MOL0     C37852   6.413   8.820   7.075 -0.3428 -0.2745  0.4142
  275MOL0     C37853   6.307   8.828   7.180  1.2084 -0.4789 -0.6621
  275MOL0     C37854   6.250   8.973   7.196  0.0201 -0.3870 -0.1682
  275MOL0     C37855   6.166   9.019   7.076  0.8069  1.0629  0.1288
  275MOL0     C37856   6.111   9.163   7.082  0.3512  0.0002 -0.1041
  275MOL0    Cl37857   5.979   9.181   7.208 -0.0239  0.8410  0.4020
  275MOL0     C37858   6.603   8.217   7.022 -0.8140 -0.3792  0.3226
  275MOL0     C37859   6.661   8.100   7.060 -0.3620 -0.6693  0.4768
  275MOL0     O37860   6.771   8.008   7.327 -0.6218 -0.3603  0.3385
  275MOL0     C37861   6.932   7.801   7.420  0.3553  0.5738 -0.2348
  275MOL0     C37862   7.004   7.688   7.461 -0.4480  0.8298  0.4987
  275MOL0     N37863   6.745   7.394   7.247 -0.2014  0.0493 -0.0978
  275MOL0     N37864   6.694   7.480   7.168 -0.3271  0.2740  0.3056
  275MOL0     C37865   6.072   7.939   6.384  0.1455 -0.5613 -0.0067
  275MOL0     C37866   6.054   8.070   6.339  1.1791  0.0162  0.1186
  275MOL0     C37867   6.008   8.453   6.181 -0.7335  0.2485  0.1397
  275MOL0     C37868   5.879   8.490   6.208  0.0827 -0.5080 -0.7919
  275MOL0     C37869   5.818   8.582   6.132  0.3314 -0.4019  1.3196
  275MOL0     C37870   5.883   8.628   6.016 -0.9101  0.1383 -0.9531
  275MOL0     O37871   5.846   8.717   5.927 -0.8453 -0.2520  0.3791
  275MOL0     C37872   5.735   8.807   5.949 -0.2222  1.3553  0.3116
  275MOL0     C37873   5.618   8.722   5.912 -0.1209  0.8831 -0.4306
  275MOL0     C37874   5.496   8.785   5.842  0.4231 -0.3739  0.6655
  275MOL0     C37875   5.522   8.881   5.737 -0.0722  0.2551 -0.1357
  275MOL0     C37876   5.400   8.910   5.672  1.1930 -0.3020 -0.0378
  275MOL0     C37877   5.290   8.930   5.628 -0.6809 -0.3566 -0.7657
  275MOL0     C37878   6.014   8.582   6.001 -0.0848  1.0814  0.9221
  275MOL0     C37879   6.086   8.502   6.085  0.2050 -0.0423  0.4093
  275MOL0     C37880   6.222   8.463   6.048  0.2095  0.5550  0.4619
  275MOL0     H37881   6.309   8.092   6.127 -0.4884 -1.9381 -1.1500
  275MOL0     H37882   6.368   7.869   6.240 -0.0789 -2.0024 -0.1515
  275MOL0     H37883   6.082   7.704   6.569  0.4622 -2.6597 -1.5446
  275MOL0     H37884   6.207   7.817   6.607  2.4952 -0.8198  0.6520
  275MOL0     H37885   6.251   7.565   6.698  2.8021 -2.3912  1.4920
  275MOL0     H37886   6.289   7.527   6.534  0.7732  2.5584 -0.2942
  275MOL0     H37887   6.453   7.689   6.502  1.8285 -0.1880 -0.1560
  275MOL0     H37888   6.422   7.748   6.668 -0.8266  0.1114 -0.9373
  275MOL0     H37889   6.539   7.482   6.566  0.4385  0.5188 -0.6263
  275MOL0     H37890   6.627   7.617   6.635  0.7748 -1.3039  0.4069
  275MOL0     H37891   6.584   7.411   6.785 -0.7009 -1.6405 -1.7281
  275MOL0     H37892   6.419   7.485   6.811  0.7709  1.0037  1.4829
  275MOL0     H37893   6.512   7.687   6.883 -0.8177  1.1046  3.9493
  275MOL0     H37894   6.540   7.556   6.992 -1.5820 -0.2269  0.4144
  275MOL0     H37895   6.750   7.683   6.809 -1.1782  1.9621  1.0959
  275MOL0     H37896   6.775   7.518   6.848 -1.4081  0.4557 -2.1485
  275MOL0     H37897   6.891   7.700   7.006  0.2677  0.8123 -0.3951
  275MOL0     H37898   6.733   7.735   7.061 -0.5903  1.8019 -3.2142
  275MOL0     H37899   7.015   7.474   7.087  1.6692 -2.3819  2.6673
  275MOL0     H37900   6.989   7.216   7.164 -2.7692  1.3039 -1.8954
  275MOL0     H37901   6.900   7.192   7.329  1.0634  0.2210  0.5998
  275MOL0     H37902   7.133   7.200   7.342 -0.8882 -0.3169  1.7435
  275MOL0     H37903   7.131   7.362   7.273 -0.8811  0.3457 -0.5770
  275MOL0     H37904   6.968   7.432   7.461  1.4652  1.4048 -2.3609
  275MOL0     H37905   7.012   7.283   7.542  3.0379 -2.2682  0.7292
  275MOL0     H37906   7.160   7.478   7.616  2.3657 -1.2708  1.2354
  275MOL0     H37907   7.265   7.375   7.521  0.6332 -1.7397 -1.3649
  275MOL0     H37908   7.242   7.696   7.214  1.1919  2.3031  0.0605
  275MOL0     H37909   7.123   8.001   7.135 -1.2465 -0.9841  3.3402
  275MOL0     H37910   7.062   7.883   7.017  0.8243  1.1301 -1.4416
  275MOL0     H37911   7.224   7.860   7.083  1.5214  4.1121  0.2256
  275MOL0     H37912   6.985   8.190   7.062 -0.4519 -1.9962 -1.4963
  275MOL0     H37913   6.882   8.403   6.979 -0.1673 -0.0444 -0.2722
  275MOL0     H37914   6.737   8.564   7.061 -2.1350  0.0892  1.4480
  275MOL0     H37915   6.768   8.566   6.892 -1.3066  0.8093 -1.1044
  275MOL0     H37916   6.633   8.783   6.943  0.4647 -0.1574  0.2920
  275MOL0     H37917   6.532   8.673   6.862  1.3937 -0.1742 -1.1541
  275MOL0     H37918   6.572   8.693   7.160  0.6746 -1.0390 -0.1921
  275MOL0     H37919   6.432   8.607   7.102  3.0676 -1.9406  1.2439
  275MOL0     H37920   6.358   8.833   6.981 -1.1205 -2.7784  0.4475
  275MOL0     H37921   6.482   8.905   7.076  0.7653 -0.8952 -3.4219
  275MOL0     H37922   6.221   8.768   7.150 -0.2786  0.6482  1.1257
  275MOL0     H37923   6.356   8.804   7.274  1.5592  0.6322 -0.5451
  275MOL0     H37924   6.338   9.036   7.209  1.9286 -2.9320 -0.1063
  275MOL0     H37925   6.183   8.978   7.282  0.5928 -0.1563  0.2683
  275MOL0     H37926   6.086   8.948   7.052  0.6482  1.2532  0.0980
  275MOL0     H37927   6.233   9.027   6.990  0.1207 -0.1465 -0.5487
  275MOL0     H37928   6.069   9.182   6.982  5.7827  1.4275 -2.4696
  275MOL0     H37929   6.189   9.239   7.088  1.5012 -1.0981 -0.6669
  275MOL0     H37930   6.494   8.225   7.026 -0.7298  4.2495 -0.9065
  275MOL0     H37931   6.603   8.011   7.084  0.3459 -0.3995  3.6191
  275MOL0     H37932   6.862   7.831   7.497 -0.7087  2.3062 -1.8057
  275MOL0     H37933   6.984   7.654   7.562 -2.4643  0.9826  0.1883
  275MOL0     H37934   5.989   7.900   6.443 -2.6306  1.1791 -2.4640
  275MOL0     H37935   5.960   8.120   6.363  0.4694 -1.3673  0.3030
  275MOL0     H37936   5.830   8.465   6.302 -0.5262  4.2642  0.4592
  275MOL0     H37937   5.718   8.620   6.146  0.7440  1.4522 -0.3080
  275MOL0     H37938   5.719   8.832   6.055  0.7030 -1.9246  1.3597
  275MOL0     H37939   5.742   8.887   5.876 -4.3553 -0.8075 -2.9333
  275MOL0     H37940   5.586   8.664   5.999 -0.5594  1.2062 -0.3729
  275MOL0     H37941   5.653   8.642   5.846 -2.3600 -0.2494 -0.3705
  275MOL0     H37942   5.440   8.704   5.796 -0.3595  0.5577 -0.0459
  275MOL0     H37943   5.445   8.838   5.924 -2.2683 -0.8762 -0.5979
  275MOL0     H37944   5.598   8.832   5.675  1.3195 -0.4841  2.0711
  275MOL0     H37945   5.563   8.975   5.775 -0.1721  1.3162 -2.4413
  275MOL0     H37946   5.197   8.956   5.583  0.1391  0.6554 -1.9272
  275MOL0     H37947   6.067   8.618   5.913 -1.0330  1.6310  0.5590
  275MOL0     H37948   6.228   8.357   6.023  0.1594  1.0036 -1.6379
  275MOL0     H37949   6.253   8.517   5.958 -0.5649  0.5749  0.2019
  275MOL0     H37950   6.293   8.494   6.126  0.7730  1.0533 -0.2272
  276MOL0     O37951   1.416   7.707   7.531 -0.2856  0.6399 -0.0919
  276MOL0     C37952   1.458   7.720   7.645  0.0840  0.1118 -0.6161
  276MOL0     O37953   1.373   7.765   7.745 -0.6445 -0.4228 -0.7066
  276MOL0     C37954   1.235   7.766   7.728 -0.0174 -0.0034  0.0556
  276MOL0     C37955   1.155   7.664   7.663 -0.1408  0.4011 -0.2085
  276MOL0     C37956   1.015   7.656   7.672 -1.2211  0.2002 -0.0718
  276MOL0     C37957   0.943   7.747   7.744  0.2214 -0.1852  0.3786
  276MOL0     O37958   0.813   7.748   7.761  0.0616  0.5742  1.5058
  276MOL0     C37959   0.744   7.838   7.679  0.1797  0.1102 -0.4338
  276MOL0     C37960   0.655   7.937   7.761 -0.5230 -0.1469 -0.2442
  276MOL0     C37961   0.536   7.862   7.814 -0.5563  0.4806 -0.4668
  276MOL0     C37962   0.426   7.979   7.830 -0.9216  0.7576 -1.3065
  276MOL0     C37963   0.308   7.934   7.919  0.1251 -0.9130  0.3553
  276MOL0     C37964   0.344   7.910   8.067  0.4573  0.5184  0.2885
  276MOL0     C37965   0.222   7.856   8.147 -0.3199  0.3741 -0.5685
  276MOL0     C37966   0.281   7.804   8.287  0.0830  0.1541  0.5256
  276MOL0     N37967   0.173   7.728   8.361  0.0710 -0.6505  0.4444
  276MOL0     C37968   0.045   7.705   8.323 -0.1868 -0.9529 -0.1634
  276MOL0     C37969  -0.009   7.617   8.418 -0.2391  1.1864  0.2221
  276MOL0     C37970  -0.145   7.578   8.422  0.3495  1.0569  0.3394
  276MOL0     C37971  -0.176   7.498   8.536 -0.8062 -0.4329 -0.3758
  276MOL0     C37972  -0.324   7.458   8.545 -0.9820 -0.0439  0.6036
  276MOL0     C37973  -0.438   7.559   8.538  0.1248  1.0037  0.4764
  276MOL0     O37974  -0.458   7.613   8.402  0.0124  0.9453 -0.1218
  276MOL0     C37975  -0.565   7.576   8.326  0.0247  0.2216  0.2005
  276MOL0     C37976  -0.588   7.661   8.221 -0.0041  0.3401  1.5920
  276MOL0     C37977  -0.690   7.634   8.127 -0.3597 -0.5748  0.9494
  276MOL0     C37978  -0.710   7.730   8.007 -1.3688  0.0759 -0.4954
  276MOL0     C37979  -0.779   7.515   8.151  0.3163 -0.9020  0.1508
  276MOL0     C37980  -0.859   7.468   8.033 -0.4686 -1.7379 -0.4362
  276MOL0     O37981  -0.915   7.548   7.938 -0.6066  0.5028 -0.2306
  276MOL0     C37982  -1.024   7.502   7.867 -0.0359 -0.0351 -0.5284
  276MOL0     C37983  -1.117   7.401   7.892 -0.1415  0.1957  0.1205
  276MOL0     C37984  -1.223   7.381   7.810  0.1621  0.3116  0.3793
  276MOL0     C37985  -1.245   7.464   7.700  0.3665  0.2939  0.4630
  276MOL0     O37986  -1.354   7.461   7.621  1.0586 -0.2677  0.7283
  276MOL0     C37987  -1.458   7.369   7.661 -0.9879 -1.2073  0.2082
  276MOL0     C37988  -1.545   7.335   7.543  0.3062 -0.2796  0.6778
  276MOL0     C37989  -1.450   7.324   7.421 -0.5565  0.2311 -0.4040
  276MOL0     C37990  -1.496   7.213   7.318  0.7695  1.2167 -0.5232
  276MOL0     C37991  -1.650   7.228   7.282 -0.1073  0.9331  0.5341
  276MOL0     C37992  -1.670   7.355   7.192  0.6975  0.1382 -0.3909
  276MOL0     C37993  -1.576   7.367   7.077 -0.2759  0.3466  0.9717
  276MOL0     C37994  -1.618   7.472   6.962  0.0819  0.8897 -0.3615
  276MOL0    Cl37995  -1.787   7.434   6.906 -0.6657  0.5213 -0.0943
  276MOL0     C37996  -1.144   7.554   7.672 -0.1941 -0.4597  0.2509
  276MOL0     C37997  -1.039   7.579   7.752  0.1273 -0.6835  0.4349
  276MOL0     O37998  -0.875   7.348   8.040  0.0512  0.0900  0.6034
  276MOL0     C37999  -0.753   7.438   8.259 -1.0789  0.3327  0.6679
  276MOL0     C38000  -0.655   7.463   8.345 -0.5123 -0.3173 -0.6100
  276MOL0     N38001   0.095   7.575   8.498 -0.0457 -0.1266 -0.4279
  276MOL0     N38002   0.195   7.647   8.464 -0.0318  0.0138 -0.3580
  276MOL0     C38003   1.018   7.842   7.824  0.2730  1.3119 -0.4603
  276MOL0     C38004   1.157   7.842   7.819 -0.1133  0.1432 -0.2320
  276MOL0     C38005   1.598   7.685   7.673 -0.0945  0.4267  1.0801
  276MOL0     C38006   1.680   7.613   7.574  0.7714 -0.9261 -0.1195
  276MOL0     C38007   1.811   7.588   7.598  0.0295 -1.3185 -0.1088
  276MOL0     C38008   1.876   7.624   7.719  0.1015  1.0989  0.0813
  276MOL0     O38009   2.008   7.582   7.743  0.2132 -0.6387 -0.9186
  276MOL0     C38010   2.091   7.536   7.638  0.3627  0.3774 -0.1032
  276MOL0     C38011   2.241   7.574   7.668  0.2442 -0.4909 -0.5052
  276MOL0     C38012   2.272   7.718   7.635 -0.2336  0.2195 -0.2115
  276MOL0     C38013   2.411   7.754   7.673 -0.2630 -0.0218  0.6069
  276MOL0     C38014   2.430   7.890   7.639 -0.4212 -0.3432  0.2254
  276MOL0     C38015   2.438   8.009   7.613  0.0130 -0.5493 -0.0362
  276MOL0     C38016   1.792   7.690   7.807 -1.3993  0.3826  0.2690
  276MOL0     C38017   1.657   7.719   7.795 -0.5428  1.3800 -0.3539
  276MOL0     C38018   1.612   7.825   7.886  0.1183  0.4918 -0.2539
  276MOL0     H38019   1.197   7.596   7.589 -3.4664 -2.5263  0.2942
  276MOL0     H38020   0.958   7.593   7.604 -0.8083 -1.7921  1.3309
  276MOL0     H38021   0.684   7.782   7.607  1.1874  1.3109 -2.2938
  276MOL0     H38022   0.816   7.899   7.624 -0.9722  2.3995  0.4343
  276MOL0     H38023   0.720   7.986   7.834 -0.1180  1.3911 -1.5736
  276MOL0     H38024   0.628   8.016   7.689  3.1340  2.0723  0.5698
  276MOL0     H38025   0.507   7.782   7.745 -1.5479  0.5127 -0.0976
  276MOL0     H38026   0.566   7.806   7.903  0.7447 -1.7137 -2.1784
  276MOL0     H38027   0.472   8.068   7.875  1.8401  0.2090 -2.8328
  276MOL0     H38028   0.375   8.004   7.736 -2.7488  4.4031  0.4422
  276MOL0     H38029   0.289   7.837   7.873  0.1870  0.3776 -2.5555
  276MOL0     H38030   0.222   7.996   7.893  2.2415  1.5757 -1.1082
  276MOL0     H38031   0.431   7.844   8.069  1.4780  1.6695 -2.1255
  276MOL0     H38032   0.369   8.004   8.116  1.7184  1.3292 -1.7799
  276MOL0     H38033   0.173   7.768   8.105  3.7956 -3.6713  2.1493
  276MOL0     H38034   0.156   7.943   8.150 -0.8943 -0.0845  0.4239
  276MOL0     H38035   0.370   7.743   8.273  0.2258  0.2103  1.1952
  276MOL0     H38036   0.305   7.894   8.344 -3.4724  2.8786 -1.7760
  276MOL0     H38037  -0.005   7.732   8.230  3.4054  2.9968 -1.2828
  276MOL0     H38038  -0.173   7.532   8.327  0.2941  2.3561 -0.2911
  276MOL0     H38039  -0.201   7.670   8.438 -1.8573 -0.2916  0.9308
  276MOL0     H38040  -0.114   7.410   8.517  3.8104  2.3301  0.2891
  276MOL0     H38041  -0.139   7.542   8.629  1.4404  2.0130 -2.2372
  276MOL0     H38042  -0.346   7.382   8.471  0.6990  1.9170 -2.0906
  276MOL0     H38043  -0.322   7.425   8.650  2.1515  3.7999  2.0431
  276MOL0     H38044  -0.518   7.492   8.572  1.4197 -0.5846  0.5052
  276MOL0     H38045  -0.430   7.645   8.606 -1.1408  0.3830  1.4622
  276MOL0     H38046  -0.526   7.748   8.203 -0.9535  0.8085  0.4922
  276MOL0     H38047  -0.632   7.807   8.010 -0.6737 -0.6221 -0.6224
  276MOL0     H38048  -0.804   7.783   8.027 -2.3456  0.2232 -4.7222
  276MOL0     H38049  -0.705   7.676   7.913  2.1837  1.7781 -1.4617
  276MOL0     H38050  -1.111   7.341   7.982  0.8327  1.4997  0.9713
  276MOL0     H38051  -1.299   7.312   7.845 -1.1087  1.3227 -0.3259
  276MOL0     H38052  -1.420   7.270   7.689  0.7483 -0.5565  0.2424
  276MOL0     H38053  -1.520   7.414   7.738 -0.1869  0.2637  0.0211
  276MOL0     H38054  -1.598   7.242   7.568 -0.4274  0.5483  2.3583
  276MOL0     H38055  -1.628   7.405   7.531  0.2423 -0.4072  0.3646
  276MOL0     H38056  -1.346   7.306   7.450 -0.0605  0.6635 -1.8414
  276MOL0     H38057  -1.442   7.420   7.368 -2.9991  1.2910  0.9452
  276MOL0     H38058  -1.489   7.107   7.342 -2.7777  0.3148 -2.6665
  276MOL0     H38059  -1.427   7.221   7.233  1.0157  1.4630 -0.3027
  276MOL0     H38060  -1.682   7.139   7.227 -2.7821  1.4782  1.0364
  276MOL0     H38061  -1.718   7.221   7.368 -1.6898  0.3358 -0.7274
  276MOL0     H38062  -1.658   7.440   7.261  0.1353 -0.5700  0.6025
  276MOL0     H38063  -1.770   7.354   7.148 -0.2721  1.1838  1.6336
  276MOL0     H38064  -1.558   7.278   7.017 -0.2315  1.3877 -0.6248
  276MOL0     H38065  -1.481   7.404   7.116  0.8667 -0.0524 -1.2871
  276MOL0     H38066  -1.553   7.477   6.874 -0.0848 -0.5071 -0.5787
  276MOL0     H38067  -1.623   7.572   7.008 -0.5179  0.5532  0.3358
  276MOL0     H38068  -1.139   7.617   7.584 -0.8950 -2.2233 -1.1252
  276MOL0     H38069  -0.964   7.644   7.708 -1.8013  1.0575 -0.4603
  276MOL0     H38070  -0.807   7.348   8.287  0.2967  0.3248  3.6262
  276MOL0     H38071  -0.650   7.393   8.428  0.4274 -0.0356 -0.4194
  276MOL0     H38072   0.976   7.886   7.914 -0.3342  0.8883 -0.5252
  276MOL0     H38073   1.195   7.912   7.893  0.6511 -0.3761 -0.1213
  276MOL0     H38074   1.629   7.569   7.489  1.6944  0.7869 -1.6371
  276MOL0     H38075   1.863   7.522   7.530 -0.2387 -1.0340 -0.5979
  276MOL0     H38076   2.079   7.428   7.630 -4.4413  0.7946 -1.5808
  276MOL0     H38077   2.069   7.572   7.537  1.4748  0.9259 -0.1678
  276MOL0     H38078   2.309   7.515   7.605 -0.0201 -2.0654  0.6319
  276MOL0     H38079   2.265   7.554   7.772 -1.8060  1.3299  0.3886
  276MOL0     H38080   2.260   7.728   7.526  0.3156  1.2306 -0.1950
  276MOL0     H38081   2.196   7.775   7.689  0.2845  0.2501  0.4975
  276MOL0     H38082   2.489   7.687   7.635 -0.2816 -0.3299  1.1071
  276MOL0     H38083   2.413   7.756   7.782 -0.8494 -2.6463  0.7398
  276MOL0     H38084   2.436   8.112   7.583 -0.9521  0.0783  1.9978
  276MOL0     H38085   1.850   7.696   7.899  0.3575 -1.1208 -0.6690
  276MOL0     H38086   1.527   7.783   7.941  0.1837  0.2042 -0.3745
  276MOL0     H38087   1.678   7.859   7.966 -1.8996 -2.5327  3.0014
  276MOL0     H38088   1.582   7.910   7.823 -3.2263 -1.2140 -1.1965
  277MOL0     O38089  10.606   3.211   0.479 -0.9680  0.0193  0.4183
  277MOL0     C38090  10.514   3.191   0.561 -0.4554 -0.3291  0.5890
  277MOL0     O38091  10.379   3.220   0.531 -0.0164  0.7199  0.4210
  277MOL0     C38092  10.360   3.300   0.420 -0.3989  0.2318  0.0052
  277MOL0     C38093  10.333   3.435   0.437 -0.1620 -0.6909  0.1415
  277MOL0     C38094  10.321   3.522   0.327 -0.4192 -0.0487  0.6550
  277MOL0     C38095  10.355   3.474   0.204 -0.5717  1.3029 -0.2790
  277MOL0     O38096  10.354   3.548   0.085 -0.3866  0.2623  0.2494
  277MOL0     C38097  10.416   3.674   0.103  0.1621  0.3605 -0.3117
  277MOL0     C38098  10.407   3.769  -0.020  0.1460 -0.6433  0.1765
  277MOL0     C38099  10.469   3.701  -0.140  0.5747  0.1184  0.9434
  277MOL0     C38100  10.415   3.786  -0.264 -0.8773 -0.2658  1.3422
  277MOL0     C38101  10.466   3.705  -0.391 -0.0277 -1.1792 -0.9521
  277MOL0     C38102  10.415   3.572  -0.417 -0.2638  0.7763 -0.7612
  277MOL0     C38103  10.272   3.583  -0.480  0.0221 -0.6925  0.4385
  277MOL0     C38104  10.260   3.635  -0.620  0.3779 -0.6002  0.4868
  277MOL0     N38105  10.125   3.702  -0.655 -0.1698  0.6883 -1.0673
  277MOL0     C38106  10.070   3.697  -0.779  0.6020 -0.5535 -0.9317
  277MOL0     C38107   9.966   3.791  -0.775 -0.2605  0.2464 -0.0224
  277MOL0     C38108   9.863   3.812  -0.874 -0.6894 -0.8691 -0.3479
  277MOL0     C38109   9.860   3.957  -0.908 -0.5427 -0.2277 -0.6273
  277MOL0     C38110   9.946   4.001  -1.016  0.7541 -0.1380  0.0096
  277MOL0     C38111  10.079   4.052  -0.966  0.9631 -0.1113  0.0140
  277MOL0     O38112  10.048   4.157  -0.872  0.2856  0.1372  0.0877
  277MOL0     C38113  10.153   4.232  -0.820 -0.3097 -0.1553  1.1771
  277MOL0     C38114  10.293   4.224  -0.856 -0.3912  0.4641 -0.3336
  277MOL0     C38115  10.388   4.313  -0.797  1.0242 -0.5046 -0.2446
  277MOL0     C38116  10.526   4.306  -0.856  0.5915  0.7280  0.6507
  277MOL0     C38117  10.357   4.406  -0.695  1.1271 -0.0875 -0.2714
  277MOL0     C38118  10.448   4.497  -0.629 -0.1478 -0.3413  0.9754
  277MOL0     O38119  10.587   4.478  -0.646 -0.1022  0.1703  0.1781
  277MOL0     C38120  10.668   4.566  -0.590  0.6984  0.3698  0.5400
  277MOL0     C38121  10.694   4.563  -0.456  0.1620  1.4502  0.3425
  277MOL0     C38122  10.781   4.659  -0.401 -1.2127 -0.5102 -0.6778
  277MOL0     C38123  10.849   4.752  -0.490  0.3126  0.1674 -0.2139
  277MOL0     O38124  10.930   4.853  -0.458 -0.3307  0.3953 -0.1261
  277MOL0     C38125  11.017   4.824  -0.345  0.5153  0.2651  0.5888
  277MOL0     C38126  11.142   4.756  -0.398  0.0175 -0.5830  0.0541
  277MOL0     C38127  11.215   4.838  -0.496 -1.1904 -0.8612  0.2587
  277MOL0     C38128  11.339   4.769  -0.545  0.0387  0.8644  1.1192
  277MOL0     C38129  11.421   4.856  -0.656  0.1351 -0.2170 -0.8894
  277MOL0     C38130  11.553   4.783  -0.689  0.0722  0.4996 -1.0919
  277MOL0     C38131  11.639   4.857  -0.783 -0.0506 -0.1163  0.6777
  277MOL0     C38132  11.787   4.805  -0.792 -0.3612 -0.5057  0.0642
  277MOL0    Cl38133  11.792   4.635  -0.815 -0.0102  0.6396  0.0153
  277MOL0     C38134  10.826   4.746  -0.621  0.0855 -0.1066  0.1759
  277MOL0     C38135  10.735   4.654  -0.675 -0.4007 -0.2404  0.2169
  277MOL0     O38136  10.391   4.592  -0.572  0.3254 -0.3225  0.3996
  277MOL0     C38137  10.221   4.409  -0.660 -0.0917  0.6878 -0.1248
  277MOL0     C38138  10.126   4.328  -0.721 -0.3768 -0.5672 -0.2989
  277MOL0     N38139   9.950   3.837  -0.643 -0.2910  0.1680  0.3118
  277MOL0     N38140  10.049   3.786  -0.582  0.6111 -0.7558 -0.3039
  277MOL0     C38141  10.387   3.342   0.178  0.7662  0.3267 -0.1139
  277MOL0     C38142  10.394   3.246   0.288 -0.0850 -0.2883  0.3692
  277MOL0     C38143  10.539   3.116   0.689  0.0265 -0.7180  0.0319
  277MOL0     C38144  10.433   3.100   0.775  0.4392 -0.4938  0.8835
  277MOL0     C38145  10.449   3.031   0.891  0.3783 -0.3776 -0.3212
  277MOL0     C38146  10.563   2.962   0.931  0.1072 -0.6480  0.0390
  277MOL0     O38147  10.552   2.888   1.045  0.1947  0.0331 -0.1525
  277MOL0     C38148  10.633   2.775   1.059 -0.6672  0.0626  0.1607
  277MOL0     C38149  10.599   2.695   1.180 -0.4129  0.1858  0.3113
  277MOL0     C38150  10.711   2.610   1.222  0.4183  0.2677 -0.6913
  277MOL0     C38151  10.672   2.556   1.349  0.9774  0.1446 -0.5438
  277MOL0     C38152  10.781   2.458   1.383  0.1518 -0.1895 -0.8094
  277MOL0     C38153  10.869   2.392   1.439  0.9980  0.0651 -0.5914
  277MOL0     C38154  10.673   2.977   0.847  0.4898 -0.1558 -1.6039
  277MOL0     C38155  10.667   3.052   0.728  0.7616  0.0060 -0.0932
  277MOL0     C38156  10.791   3.048   0.642  0.4785  0.2629  0.3677
  277MOL0     H38157  10.326   3.473   0.538  2.9592 -0.4536  0.3390
  277MOL0     H38158  10.305   3.628   0.341 -1.2072 -0.3234  1.9757
  277MOL0     H38159  10.519   3.668   0.140  0.3197  0.4784 -0.7291
  277MOL0     H38160  10.361   3.725   0.182 -0.0442 -1.9667  1.1320
  277MOL0     H38161  10.300   3.783  -0.038  0.3039 -2.9517 -3.4716
  277MOL0     H38162  10.459   3.864  -0.002  3.6225 -2.2789 -0.4305
  277MOL0     H38163  10.577   3.701  -0.127  0.8962  4.2218 -0.3213
  277MOL0     H38164  10.432   3.598  -0.147  2.8456 -0.8408  1.9698
  277MOL0     H38165  10.308   3.804  -0.268 -0.2532  4.6394  0.4148
  277MOL0     H38166  10.447   3.891  -0.258 -1.7831  0.1500 -0.3107
  277MOL0     H38167  10.574   3.696  -0.376 -0.1891  0.0257  1.4698
  277MOL0     H38168  10.449   3.764  -0.481 -2.4297 -3.0927 -1.8882
  277MOL0     H38169  10.479   3.533  -0.497  1.3377  1.7131  0.0094
  277MOL0     H38170  10.416   3.494  -0.340 -4.8890 -1.6997 -2.8092
  277MOL0     H38171  10.209   3.651  -0.421  0.2333  0.2067 -0.3468
  277MOL0     H38172  10.226   3.484  -0.489  2.4999 -1.7868 -1.1534
  277MOL0     H38173  10.336   3.712  -0.636  2.2463 -2.0389  2.1330
  277MOL0     H38174  10.290   3.558  -0.691 -0.4382 -0.1712 -0.3661
  277MOL0     H38175  10.108   3.640  -0.863  0.1427  0.5049 -1.8875
  277MOL0     H38176   9.760   3.789  -0.844 -0.6855 -0.3809  0.0536
  277MOL0     H38177   9.893   3.758  -0.964 -1.7868 -0.6561 -0.8480
  277MOL0     H38178   9.758   3.980  -0.941 -0.8929 -2.1301 -0.9925
  277MOL0     H38179   9.877   4.013  -0.816 -0.5849 -0.5106 -0.4468
  277MOL0     H38180   9.951   3.923  -1.092  0.0622 -1.1421  0.9572
  277MOL0     H38181   9.897   4.085  -1.065  1.4712  1.7532  2.3239
  277MOL0     H38182  10.134   3.966  -0.925  0.0637 -3.0753 -4.2422
  277MOL0     H38183  10.137   4.080  -1.054  0.3669 -3.2366 -1.5360
  277MOL0     H38184  10.322   4.152  -0.933 -1.2305  1.8667 -2.0473
  277MOL0     H38185  10.564   4.396  -0.906  1.2253 -0.5117 -1.2428
  277MOL0     H38186  10.525   4.241  -0.944 -1.9329  1.6613 -0.0971
  277MOL0     H38187  10.603   4.268  -0.788  0.0400  1.5146  1.7273
  277MOL0     H38188  10.636   4.498  -0.391  0.2933  0.7347 -0.2525
  277MOL0     H38189  10.767   4.657  -0.294 -0.2579  3.6033 -0.3331
  277MOL0     H38190  11.034   4.926  -0.308 -0.2204  0.9921 -0.9696
  277MOL0     H38191  10.993   4.752  -0.267  3.8745 -1.3353  0.3069
  277MOL0     H38192  11.211   4.755  -0.314 -0.1267 -0.1705  0.1835
  277MOL0     H38193  11.105   4.657  -0.424  0.5728 -0.6723 -0.4243
  277MOL0     H38194  11.246   4.934  -0.452  0.6812  0.3407 -3.3016
  277MOL0     H38195  11.142   4.858  -0.574  0.1842  2.3256 -0.3680
  277MOL0     H38196  11.311   4.678  -0.599  0.0705  1.3435  0.2900
  277MOL0     H38197  11.394   4.746  -0.453  0.3348  1.6771  1.1523
  277MOL0     H38198  11.351   4.892  -0.732  1.5012 -0.2264 -2.2129
  277MOL0     H38199  11.446   4.943  -0.595 -1.9264 -0.7075  0.7808
  277MOL0     H38200  11.537   4.687  -0.738 -0.9410  2.2440 -4.5219
  277MOL0     H38201  11.610   4.771  -0.596 -1.0721  2.2820 -0.0948
  277MOL0     H38202  11.644   4.961  -0.751 -1.3244  0.1572  0.0271
  277MOL0     H38203  11.586   4.853  -0.879  0.7647 -0.2268  0.2175
  277MOL0     H38204  11.844   4.827  -0.702  0.4989 -2.8515  0.1688
  277MOL0     H38205  11.835   4.851  -0.879 -0.1252 -1.1854 -0.1707
  277MOL0     H38206  10.878   4.816  -0.686  0.5602  0.8200  1.5259
  277MOL0     H38207  10.716   4.662  -0.782  1.0669  3.1372  0.0851
  277MOL0     H38208  10.178   4.470  -0.580  0.5348 -1.2353  1.7670
  277MOL0     H38209  10.023   4.335  -0.686  0.2746  0.0802  1.5677
  277MOL0     H38210  10.410   3.307   0.077 -0.6852 -1.4476  0.0966
  277MOL0     H38211  10.428   3.143   0.282  1.6143  0.2926 -0.9160
  277MOL0     H38212  10.339   3.147   0.750  0.5300 -1.8664 -2.4990
  277MOL0     H38213  10.356   3.028   0.946  0.7571 -1.8064  0.2887
  277MOL0     H38214  10.636   2.724   0.962 -2.0455 -0.4590  0.3772
  277MOL0     H38215  10.730   2.818   1.086 -0.0547 -2.0817  1.5968
  277MOL0     H38216  10.511   2.635   1.155 -0.8084  1.5411 -1.7920
  277MOL0     H38217  10.579   2.773   1.254  1.0114  2.0286 -1.1350
  277MOL0     H38218  10.723   2.526   1.153 -0.5163 -0.0036 -0.5391
  277MOL0     H38219  10.809   2.658   1.232  1.6960 -2.4186  0.5831
  277MOL0     H38220  10.573   2.510   1.347  1.3582 -1.0423  2.6773
  277MOL0     H38221  10.674   2.630   1.429  2.1864 -0.8831  0.4307
  277MOL0     H38222  10.953   2.337   1.475 -0.0715 -2.2250 -1.3916
  277MOL0     H38223  10.759   2.922   0.883 -0.4477 -1.4987 -1.3839
  277MOL0     H38224  10.752   3.016   0.544  0.6180 -1.2290  0.7736
  277MOL0     H38225  10.847   3.141   0.626 -2.9061  2.3141 -0.6379
  277MOL0     H38226  10.843   2.962   0.685 -1.9904 -0.9161  1.2309
  278MOL0     O38227  11.063   8.591  10.996 -0.0530  0.3613  0.3181
  278MOL0     C38228  10.963   8.524  11.030  0.2052  0.5151 -0.3430
  278MOL0     O38229  10.868   8.479  10.934 -0.1527  0.5750  0.1271
  278MOL0     C38230  10.838   8.574  10.835 -0.5230 -0.2274  0.9921
  278MOL0     C38231  10.904   8.553  10.715 -0.0195 -0.3369 -0.2135
  278MOL0     C38232  10.859   8.614  10.593  0.3018 -0.5380 -0.3175
  278MOL0     C38233  10.766   8.710  10.605  0.0180 -0.3870 -0.0738
  278MOL0     O38234  10.719   8.768  10.498 -0.1954  0.3020 -0.0880
  278MOL0     C38235  10.697   8.907  10.494 -0.5941 -0.6982 -0.6642
  278MOL0     C38236  10.821   8.995  10.509  0.1024 -0.3183 -0.2631
  278MOL0     C38237  10.802   9.140  10.490  0.2387 -0.8684 -0.2700
  278MOL0     C38238  10.938   9.207  10.487  0.6198 -1.2718 -0.2676
  278MOL0     C38239  10.926   9.352  10.423  0.9029 -0.0431 -0.0913
  278MOL0     C38240  11.018   9.450  10.490 -0.1503  0.7376 -0.6880
  278MOL0     C38241  11.012   9.587  10.406  0.2971 -0.4842 -0.5694
  278MOL0     C38242  11.067   9.698  10.497  0.0547 -0.3255 -0.4318
  278MOL0     N38243  11.018   9.827  10.440 -0.6903  0.6852  0.1405
  278MOL0     C38244  11.086   9.932  10.381  0.2381 -0.0485 -1.0164
  278MOL0     C38245  10.991  10.034  10.359 -0.4140  0.4646 -0.0013
  278MOL0     C38246  11.031  10.166  10.296  0.2728  0.9443  0.5042
  278MOL0     C38247  10.991  10.175  10.152 -0.4112 -0.0293  0.5804
  278MOL0     C38248  11.086  10.095  10.047  0.6669  0.7075  0.0449
  278MOL0     C38249  11.037   9.943  10.019  0.2403 -0.3367  0.0817
  278MOL0     O38250  10.897   9.969   9.984 -0.0487 -0.3230  0.1727
  278MOL0     C38251  10.809   9.871  10.009 -0.0404  0.2562  0.5260
  278MOL0     C38252  10.838   9.740  10.050 -0.0093 -0.2715  0.1829
  278MOL0     C38253  10.740   9.640  10.072 -0.9464  0.1275 -0.3876
  278MOL0     C38254  10.778   9.509  10.129  0.0803  0.0202 -0.5366
  278MOL0     C38255  10.609   9.675  10.039 -0.7116  0.8888  0.0698
  278MOL0     C38256  10.492   9.589  10.056  0.2259  0.5809  0.8428
  278MOL0     O38257  10.476   9.488   9.963 -0.5514  0.2678 -0.3013
  278MOL0     C38258  10.357   9.420   9.966 -0.3655 -0.6532 -0.0415
  278MOL0     C38259  10.359   9.293   9.979  0.5915  0.0177 -0.5207
  278MOL0     C38260  10.243   9.221   9.953  0.2160  0.5094 -0.4797
  278MOL0     C38261  10.129   9.288   9.913 -0.2247  1.1349 -0.5713
  278MOL0     O38262  10.011   9.236   9.865  0.5700  0.3064 -0.7726
  278MOL0     C38263   9.991   9.098   9.841  0.5816  0.9572 -0.6318
  278MOL0     C38264   9.848   9.067   9.782  0.1558  0.4132 -0.2775
  278MOL0     C38265   9.840   9.100   9.632 -0.0712  0.1676  0.3832
  278MOL0     C38266   9.698   9.096   9.573 -0.3214  0.2369 -0.3420
  278MOL0     C38267   9.706   9.088   9.413  0.5799  0.4913 -0.7027
  278MOL0     C38268   9.707   8.947   9.357 -0.1645 -0.1720 -1.7806
  278MOL0     C38269   9.579   8.862   9.364  0.3714 -0.7574  1.1789
  278MOL0     C38270   9.595   8.748   9.279  0.6393  1.0188  0.2635
  278MOL0    Cl38271   9.423   8.686   9.255  0.2291 -0.2226 -0.1367
  278MOL0     C38272  10.125   9.424   9.898  0.3117 -1.0207 -0.1545
  278MOL0     C38273  10.242   9.495   9.933 -0.6655  0.2724  0.2838
  278MOL0     O38274  10.430   9.611  10.155  0.4834  0.1846 -0.2426
  278MOL0     C38275  10.581   9.800   9.978 -0.4746 -1.4239  0.5699
  278MOL0     C38276  10.682   9.893   9.961 -0.0540 -1.1762  0.7453
  278MOL0     N38277  10.871   9.993  10.412  0.5103 -0.0753 -0.1822
  278MOL0     N38278  10.893   9.877  10.449 -1.2906 -0.2384  0.9638
  278MOL0     C38279  10.704   8.739  10.730  0.2008  0.4849 -0.0144
  278MOL0     C38280  10.739   8.669  10.850  0.2988  0.2555  0.1464
  278MOL0     C38281  10.931   8.471  11.167 -0.2218 -1.2862  0.1531
  278MOL0     C38282  10.804   8.410  11.179  0.4194 -0.4119 -0.2125
  278MOL0     C38283  10.757   8.370  11.305 -0.6331  0.9137 -0.3083
  278MOL0     C38284  10.836   8.385  11.420 -0.8304  0.5083  0.3303
  278MOL0     O38285  10.810   8.335  11.546 -0.2826 -0.0764  0.7866
  278MOL0     C38286  10.696   8.250  11.570  1.0865  0.4840 -0.1789
  278MOL0     C38287  10.681   8.208  11.716 -0.2455  0.4876  0.0974
  278MOL0     C38288  10.670   8.317  11.827  0.4229  0.0594  0.6775
  278MOL0     C38289  10.588   8.269  11.950 -0.5344 -0.3442  1.4605
  278MOL0     C38290  10.648   8.170  12.033 -0.0594 -0.8845 -0.7328
  278MOL0     C38291  10.692   8.089  12.112 -0.0646  0.3689 -0.9379
  278MOL0     C38292  10.967   8.439  11.401  0.6207 -0.0482 -0.0604
  278MOL0     C38293  11.011   8.493  11.281 -0.6058 -0.3143 -0.4641
  278MOL0     C38294  11.150   8.561  11.278 -0.2884 -0.3903  1.0928
  278MOL0     H38295  10.981   8.477  10.714 -1.3370 -1.7774  1.3707
  278MOL0     H38296  10.906   8.606  10.496  1.2575  2.3040 -0.1931
  278MOL0     H38297  10.620   8.943  10.563 -0.7351  2.2998 -2.2172
  278MOL0     H38298  10.657   8.928  10.394  0.8933  1.4002 -0.8947
  278MOL0     H38299  10.865   8.976  10.608  1.4833  1.0541 -0.5627
  278MOL0     H38300  10.883   8.964  10.425 -0.0433  0.8380 -0.8117
  278MOL0     H38301  10.751   9.164  10.396  0.5225  0.5010 -0.0953
  278MOL0     H38302  10.751   9.178  10.579 -0.4182 -5.2741  1.5083
  278MOL0     H38303  10.965   9.216  10.592  2.3199  2.3631 -0.8519
  278MOL0     H38304  11.017   9.158  10.429  3.1295 -1.8836  3.3828
  278MOL0     H38305  10.820   9.377  10.437 -0.2970 -1.4956 -4.8200
  278MOL0     H38306  10.952   9.350  10.317  1.5486  1.2742  0.0204
  278MOL0     H38307  10.986   9.456  10.594 -0.3182 -0.2052 -0.6777
  278MOL0     H38308  11.115   9.401  10.498 -1.1645 -1.3899 -0.6821
  278MOL0     H38309  10.909   9.616  10.386  0.5922 -0.3819 -1.9860
  278MOL0     H38310  11.070   9.594  10.314  0.0818  0.7246 -0.6344
  278MOL0     H38311  11.038   9.685  10.602 -1.1005 -1.3570 -0.8518
  278MOL0     H38312  11.175   9.712  10.492  0.0332  1.4012  2.0661
  278MOL0     H38313  11.183   9.941  10.334 -1.3749  1.7967 -4.3933
  278MOL0     H38314  11.138  10.183  10.311  0.9252 -2.7073  1.0353
  278MOL0     H38315  10.969  10.243  10.343 -1.2627  0.4574 -0.6076
  278MOL0     H38316  10.885  10.153  10.136 -0.1320 -0.4556 -0.8248
  278MOL0     H38317  10.996  10.280  10.124 -1.8754  0.0650  0.6182
  278MOL0     H38318  11.106  10.160   9.961 -0.2114  1.6922  0.5602
  278MOL0     H38319  11.188  10.083  10.087 -0.2396  1.2696  2.7077
  278MOL0     H38320  11.092   9.903   9.933  1.8595 -0.7979  1.3012
  278MOL0     H38321  11.057   9.878  10.105 -0.8315  1.1167  1.4888
  278MOL0     H38322  10.937   9.700  10.071  0.0570 -0.0161  0.3688
  278MOL0     H38323  10.838   9.512  10.220 -0.8504 -1.9533  0.2038
  278MOL0     H38324  10.839   9.451  10.058 -0.2512  0.2912 -1.0510
  278MOL0     H38325  10.693   9.441  10.140 -0.3397  0.2476 -2.0535
  278MOL0     H38326  10.444   9.245  10.028 -0.1837  0.9886  1.9652
  278MOL0     H38327  10.244   9.113   9.947  4.6387  0.4313 -2.4605
  278MOL0     H38328  10.065   9.054   9.774  2.0244 -0.8685  2.0098
  278MOL0     H38329  10.002   9.045   9.936  0.2958  1.4121 -0.3394
  278MOL0     H38330   9.833   8.960   9.794 -2.2024  0.2898 -3.0654
  278MOL0     H38331   9.773   9.130   9.832 -1.9186 -0.7261 -1.7936
  278MOL0     H38332   9.896   9.017   9.588 -1.3282 -0.7539  0.4398
  278MOL0     H38333   9.890   9.195   9.613  1.5723 -0.9097 -1.0040
  278MOL0     H38334   9.646   9.190   9.593 -0.6875  0.0700 -0.4885
  278MOL0     H38335   9.648   9.010   9.619  1.8107 -0.6429  0.4800
  278MOL0     H38336   9.630   9.152   9.367  1.9713  3.5366  0.9785
  278MOL0     H38337   9.800   9.138   9.390  2.2970 -1.7052  1.1297
  278MOL0     H38338   9.773   8.886   9.419 -0.0670  0.1900 -1.5241
  278MOL0     H38339   9.741   8.958   9.253 -0.5897  2.7770 -1.6992
  278MOL0     H38340   9.493   8.919   9.326 -0.3764 -0.2600  3.4405
  278MOL0     H38341   9.549   8.837   9.467  3.0171  0.6460  2.3941
  278MOL0     H38342   9.668   8.679   9.323 -0.8400 -0.2315  0.8595
  278MOL0     H38343   9.636   8.772   9.181  2.6921 -0.2938  0.7354
  278MOL0     H38344  10.042   9.474   9.850 -0.2762 -0.7141  1.1332
  278MOL0     H38345  10.234   9.602   9.919  2.1095  0.2515 -2.8711
  278MOL0     H38346  10.478   9.824   9.952 -1.0751 -1.8304  2.4338
  278MOL0     H38347  10.676   9.991   9.913 -0.3414 -2.5069 -2.1648
  278MOL0     H38348  10.616   8.802  10.742 -0.8747 -1.1384  1.0654
  278MOL0     H38349  10.696   8.697  10.945 -0.0938 -0.1155  0.0824
  278MOL0     H38350  10.744   8.382  11.094  1.0952 -2.8227  0.0205
  278MOL0     H38351  10.659   8.328  11.330 -1.1015  1.6065 -0.9618
  278MOL0     H38352  10.607   8.300  11.533  0.6620 -0.5547 -0.5909
  278MOL0     H38353  10.701   8.153  11.519  0.3782 -0.0603  0.7529
  278MOL0     H38354  10.756   8.130  11.734  3.5300  3.4236 -1.3384
  278MOL0     H38355  10.580   8.168  11.704 -1.4286  2.0841  3.5636
  278MOL0     H38356  10.771   8.351  11.853  1.0230 -2.4863  1.9224
  278MOL0     H38357  10.628   8.405  11.776  2.0435  0.3262 -0.2511
  278MOL0     H38358  10.486   8.240  11.922 -1.0986  2.4905  0.2304
  278MOL0     H38359  10.564   8.360  12.005 -1.9879  0.5177 -0.4430
  278MOL0     H38360  10.734   8.047  12.201 -2.3435  2.7092  1.4510
  278MOL0     H38361  11.035   8.443  11.486  0.8518  3.8284 -0.2824
  278MOL0     H38362  11.231   8.498  11.239  0.7184  1.3384  0.2506
  278MOL0     H38363  11.153   8.655  11.222  0.2003 -2.4300 -2.6049
  278MOL0     H38364  11.178   8.579  11.382  2.9705  0.5518  0.1795
  279MOL0     O38365  11.139   9.887  10.841 -0.6274 -0.5193 -0.0267
  279MOL0     C38366  11.174   9.992  10.788  0.7941 -1.0621 -0.0414
  279MOL0     O38367  11.303  10.006  10.742 -0.4820  0.4951 -0.2578
  279MOL0     C38368  11.391   9.903  10.777 -0.4898 -0.4332 -0.0726
  279MOL0     C38369  11.471   9.833  10.694  0.0316  0.2260 -1.0830
  279MOL0     C38370  11.558   9.745  10.750 -0.5996 -0.1131 -0.3564
  279MOL0     C38371  11.588   9.717  10.888  0.4909 -1.0559 -0.0585
  279MOL0     O38372  11.686   9.631  10.920  0.4526  0.3491  0.3643
  279MOL0     C38373  11.676   9.567  11.055 -0.8853  0.3284  0.5025
  279MOL0     C38374  11.807   9.505  11.106  0.5096 -0.1938 -0.6692
  279MOL0     C38375  11.907   9.620  11.126 -0.1019 -0.1249 -0.8232
  279MOL0     C38376  12.040   9.577  11.195 -0.3824 -0.4217 -0.1999
  279MOL0     C38377  12.137   9.692  11.228 -0.4729 -0.7003  0.1019
  279MOL0     C38378  12.281   9.650  11.271  0.2539 -0.1334  0.4281
  279MOL0     C38379  12.290   9.578  11.411  0.2942 -0.2057  0.1364
  279MOL0     C38380  12.439   9.518  11.417  0.1786 -0.1833 -0.6660
  279MOL0     N38381  12.462   9.412  11.319 -0.9054  1.0568 -0.7281
  279MOL0     C38382  12.542   9.404  11.199  0.4191  0.5172 -0.5064
  279MOL0     C38383  12.548   9.267  11.179 -0.1465  0.1877  0.6586
  279MOL0     C38384  12.630   9.190  11.074 -0.2806 -0.6415 -1.2115
  279MOL0     C38385  12.782   9.201  11.082  0.7758  0.0849 -0.3753
  279MOL0     C38386  12.850   9.101  10.990  0.2473 -0.3228 -0.8745
  279MOL0     C38387  13.000   9.108  11.011 -0.8663 -0.0939  0.9643
  279MOL0     O38388  13.055   9.243  11.008  0.2867 -0.7087 -0.3232
  279MOL0     C38389  13.177   9.276  11.052 -0.2576  0.4046  0.6784
  279MOL0     C38390  13.276   9.184  11.039 -0.8334 -0.2194  0.0587
  279MOL0     C38391  13.407   9.224  11.084  0.5299  0.7079  0.0948
  279MOL0     C38392  13.514   9.135  11.022  0.2217 -0.5676 -0.6613
  279MOL0     C38393  13.426   9.325  11.184  0.1585 -0.0416 -0.0689
  279MOL0     C38394  13.540   9.347  11.267  0.5144 -0.7265 -0.5922
  279MOL0     O38395  13.531   9.446  11.363  0.3608  0.6345 -0.4837
  279MOL0     C38396  13.622   9.453  11.467 -0.0228  0.3311  0.1063
  279MOL0     C38397  13.681   9.571  11.479  0.2889  0.0687  1.1222
  279MOL0     C38398  13.764   9.603  11.582  0.3239  0.9161  0.2224
  279MOL0     C38399  13.797   9.507  11.671  0.4375 -0.3413  0.4698
  279MOL0     O38400  13.873   9.519  11.781  0.5684  0.2296  0.4112
  279MOL0     C38401  13.986   9.599  11.777 -0.8243 -0.7626  0.2393
  279MOL0     C38402  14.025   9.679  11.908 -0.6051 -1.0339 -0.2518
  279MOL0     C38403  13.989   9.834  11.903 -0.0488  0.3262 -0.7537
  279MOL0     C38404  13.830   9.847  11.900  0.0857  0.7229 -0.1198
  279MOL0     C38405  13.801   9.984  11.955  0.4955 -0.5690  0.2548
  279MOL0     C38406  13.651  10.001  11.970 -0.8420  1.1536 -0.0694
  279MOL0     C38407  13.608  10.148  11.968  1.0887 -0.1781  0.5051
  279MOL0     C38408  13.456  10.158  11.979 -0.1190 -0.5239 -0.0313
  279MOL0    Cl38409  13.395  10.035  12.095  0.1297 -0.0616 -0.4983
  279MOL0     C38410  13.744   9.381  11.643  1.3877  0.3325  0.6714
  279MOL0     C38411  13.655   9.354  11.550  0.9281 -0.3140  0.4449
  279MOL0     O38412  13.634   9.281  11.242 -0.5434  0.3283  0.0301
  279MOL0     C38413  13.306   9.394  11.218  0.1004  0.4925 -0.4833
  279MOL0     C38414  13.191   9.374  11.141  0.1581 -1.1875 -0.3673
  279MOL0     N38415  12.455   9.209  11.259 -0.6212  0.1547 -0.1273
  279MOL0     N38416  12.398   9.290  11.341 -0.3482  0.6303  0.7650
  279MOL0     C38417  11.504   9.795  10.975 -1.1070 -0.2927  0.0467
  279MOL0     C38418  11.422   9.890  10.916  0.4875 -0.1566 -0.0161
  279MOL0     C38419  11.068  10.092  10.753 -0.1123  0.5783 -0.4430
  279MOL0     C38420  10.932  10.061  10.785 -0.2992 -0.6765 -0.1082
  279MOL0     C38421  10.826  10.153  10.764 -1.4264  0.4644  0.6344
  279MOL0     C38422  10.860  10.276  10.703  1.3115 -0.2158 -0.5020
  279MOL0     O38423  10.761  10.370  10.660  0.7057  0.9691  0.0408
  279MOL0     C38424  10.613  10.348  10.690  0.1751  0.5081  0.6601
  279MOL0     C38425  10.578  10.462  10.781 -0.4646  0.2127  0.4355
  279MOL0     C38426  10.606  10.426  10.930  0.0984  0.6280 -0.0296
  279MOL0     C38427  10.516  10.517  11.007  1.2181 -0.6449  0.9473
  279MOL0     C38428  10.527  10.495  11.149  0.3112  0.5200  0.7893
  279MOL0     C38429  10.549  10.484  11.272  0.4682 -0.9978 -0.4423
  279MOL0     C38430  10.991  10.305  10.674  0.1903 -0.4310 -0.2305
  279MOL0     C38431  11.099  10.220  10.700  0.6627 -0.3608  0.7943
  279MOL0     C38432  11.233  10.268  10.654  0.2838  0.9046  0.3644
  279MOL0     H38433  11.474   9.841  10.586 -3.5557  3.2493 -1.1526
  279MOL0     H38434  11.621   9.698  10.675 -2.4696 -3.4097 -0.0099
  279MOL0     H38435  11.598   9.490  11.053 -0.9031  0.3350  0.9567
  279MOL0     H38436  11.645   9.640  11.130  0.4436  0.9080  0.5101
  279MOL0     H38437  11.801   9.445  11.197 -0.4240 -1.1009 -1.3015
  279MOL0     H38438  11.838   9.441  11.023  0.4015  0.1362 -0.9662
  279MOL0     H38439  11.929   9.674  11.033 -0.4599  1.5742  0.0334
  279MOL0     H38440  11.852   9.687  11.192 -0.6317 -0.5948 -0.7832
  279MOL0     H38441  12.011   9.520  11.284  0.5867 -0.7289 -0.0733
  279MOL0     H38442  12.093   9.497  11.143 -0.1817 -2.7430  3.2378
  279MOL0     H38443  12.093   9.756  11.305 -1.4039  0.8402 -1.6145
  279MOL0     H38444  12.148   9.756  11.139 -1.4965 -0.7673 -0.0781
  279MOL0     H38445  12.313   9.597  11.182  0.9684  1.5541 -0.3633
  279MOL0     H38446  12.333   9.746  11.282 -4.2573  2.5175  1.4326
  279MOL0     H38447  12.226   9.490  11.418 -1.2513  1.0188  3.4894
  279MOL0     H38448  12.264   9.641  11.496 -0.4880  1.1649 -1.0673
  279MOL0     H38449  12.513   9.596  11.397  0.0664  0.3002  0.6691
  279MOL0     H38450  12.445   9.474  11.517 -1.7615  2.3617  0.6967
  279MOL0     H38451  12.595   9.490  11.161 -0.4423  0.1414 -2.7158
  279MOL0     H38452  12.596   9.218  10.973  2.3995  1.0826 -1.7315
  279MOL0     H38453  12.606   9.084  11.088 -1.9707 -0.0262  1.1646
  279MOL0     H38454  12.797   9.309  11.068  1.7098 -0.0020 -0.1397
  279MOL0     H38455  12.826   9.191  11.182  3.4412  4.2945 -0.8656
  279MOL0     H38456  12.809   9.003  11.018 -1.0506  0.6302  0.7598
  279MOL0     H38457  12.830   9.126  10.885  0.6300 -0.0096 -0.8729
  279MOL0     H38458  13.012   9.058  11.108 -3.4430 -1.4650  0.6491
  279MOL0     H38459  13.058   9.050  10.940 -1.3559 -0.2338  0.6763
  279MOL0     H38460  13.264   9.104  10.967  3.9670 -1.7096  0.5820
  279MOL0     H38461  13.477   9.060  10.951  1.5067 -2.4959  0.5923
  279MOL0     H38462  13.559   9.072  11.100  0.3793 -1.4380 -1.4269
  279MOL0     H38463  13.597   9.195  10.982 -0.3127  1.9716  1.7720
  279MOL0     H38464  13.650   9.651  11.412 -2.9038  0.5294  2.9573
  279MOL0     H38465  13.799   9.705  11.585  1.1612  0.8818 -3.4599
  279MOL0     H38466  14.073   9.533  11.785 -0.2957 -0.2483 -1.0077
  279MOL0     H38467  13.988   9.667  11.691  1.1205  0.4839  1.2177
  279MOL0     H38468  13.982   9.620  11.989 -0.1327 -0.5642  0.3535
  279MOL0     H38469  14.134   9.669  11.914 -0.2344  2.3370  0.6060
  279MOL0     H38470  14.037   9.882  11.818  2.0142 -0.8044 -0.3184
  279MOL0     H38471  14.021   9.886  11.994  0.4536 -2.5086  0.7955
  279MOL0     H38472  13.793   9.774  11.972  2.9210 -0.9596 -0.2066
  279MOL0     H38473  13.788   9.830  11.801 -1.4133 -2.1281  0.8932
  279MOL0     H38474  13.850  10.012  12.048  2.6547  0.1237 -1.0119
  279MOL0     H38475  13.835  10.052  11.876 -0.6335 -1.0824 -0.7182
  279MOL0     H38476  13.627   9.950  12.063  2.1556  1.8478  1.1990
  279MOL0     H38477  13.599   9.951  11.887 -0.5620 -0.3392  0.6299
  279MOL0     H38478  13.643  10.200  11.878 -2.8297  3.5210  0.7750
  279MOL0     H38479  13.648  10.195  12.059 -0.3924 -0.3635  1.2768
  279MOL0     H38480  13.401  10.155  11.884 -0.1698 -1.6186  0.0207
  279MOL0     H38481  13.435  10.258  12.018  3.5409  0.5924 -0.5869
  279MOL0     H38482  13.776   9.301  11.709  0.1492 -1.9935 -1.4001
  279MOL0     H38483  13.613   9.255  11.535  0.3296  0.1822 -1.5094
  279MOL0     H38484  13.283   9.467  11.295 -0.6749 -1.3928  1.1455
  279MOL0     H38485  13.100   9.433  11.145  0.5622 -0.5620 -0.3092
  279MOL0     H38486  11.507   9.791  11.084  2.4836 -2.3580  0.0481
  279MOL0     H38487  11.373   9.946  10.994  2.3867  3.4667 -1.2060
  279MOL0     H38488  10.898   9.968  10.830 -0.3819 -1.2589 -1.3236
  279MOL0     H38489  10.728  10.112  10.786 -0.8041 -1.7070 -0.4476
  279MOL0     H38490  10.579  10.362  10.587  2.9387  1.4214 -0.2346
  279MOL0     H38491  10.579  10.251  10.727  2.4620 -1.5478 -2.0565
  279MOL0     H38492  10.470  10.470  10.764 -0.5875  0.0354  1.1146
  279MOL0     H38493  10.628  10.556  10.756  0.4724 -0.5653 -0.7144
  279MOL0     H38494  10.580  10.322  10.950  0.2710  0.1396 -2.0757
  279MOL0     H38495  10.711  10.452  10.950  0.1878 -1.2181  2.2079
  279MOL0     H38496  10.409  10.497  10.999  1.0775  0.5266 -0.5095
  279MOL0     H38497  10.548  10.620  10.987  3.0814 -1.4112 -0.1642
  279MOL0     H38498  10.557  10.472  11.378  1.2011 -1.2960 -0.5178
  279MOL0     H38499  11.019  10.406  10.643  2.1786 -1.4476 -2.0154
  279MOL0     H38500  11.279  10.203  10.579 -3.5021 -0.9751 -0.5660
  279MOL0     H38501  11.227  10.373  10.623  1.0902  1.3041  1.5310
  279MOL0     H38502  11.300  10.275  10.740  3.0113  3.3192 -1.7644
  280MOL0     O38503  10.692   0.584   2.332 -0.5603 -0.4382  1.0760
  280MOL0     C38504  10.577   0.619   2.325 -0.2692  0.7517  0.5490
  280MOL0     O38505  10.466   0.540   2.318 -0.1429 -0.0344 -0.0761
  280MOL0     C38506  10.496   0.408   2.296 -0.2159 -0.2153 -0.8555
  280MOL0     C38507  10.491   0.320   2.415 -0.0992 -0.4244  0.3847
  280MOL0     C38508  10.478   0.182   2.390  0.1809 -0.1579 -0.7142
  280MOL0     C38509  10.479   0.126   2.258  0.0118 -0.3868 -0.0133
  280MOL0     O38510  10.495  -0.016   2.234  0.0791  0.1466 -0.2957
  280MOL0     C38511  10.439  -0.107   2.323  0.1854 -0.1559 -1.4023
  280MOL0     C38512  10.396  -0.220   2.242  0.3619 -0.4838 -0.8636
  280MOL0     C38513  10.327  -0.337   2.320  0.5584  0.4544  0.5115
  280MOL0     C38514  10.207  -0.301   2.409 -0.3149  0.7507 -0.1863
  280MOL0     C38515  10.241  -0.258   2.548 -0.2861  0.5509 -0.7264
  280MOL0     C38516  10.145  -0.163   2.603  0.3846 -0.6721  0.1339
  280MOL0     C38517  10.016  -0.230   2.655 -0.5334 -0.0598  0.1243
  280MOL0     C38518   9.923  -0.132   2.706  0.0444  0.6082 -0.5714
  280MOL0     N38519   9.961  -0.060   2.831 -1.2445  0.0631  0.7989
  280MOL0     C38520  10.044  -0.101   2.935  0.2427  0.1003  0.4542
  280MOL0     C38521  10.056   0.015   3.014  0.3063  0.0786 -0.5621
  280MOL0     C38522  10.114   0.028   3.151 -0.0327  0.8631  0.0273
  280MOL0     C38523  10.055  -0.048   3.273 -0.5997 -0.2821 -0.9311
  280MOL0     C38524  10.140   0.006   3.395  0.1663  0.5325  0.1311
  280MOL0     C38525  10.086  -0.056   3.528  0.1688  0.0422 -0.1411
  280MOL0     O38526  10.133  -0.197   3.519 -0.4395 -0.3566  0.0574
  280MOL0     C38527  10.056  -0.308   3.508 -0.4555 -0.1765 -0.5705
  280MOL0     C38528   9.924  -0.319   3.547 -0.0906 -0.3067  0.6971
  280MOL0     C38529   9.834  -0.424   3.510  0.7493  0.0623 -0.3055
  280MOL0     C38530   9.700  -0.429   3.577  0.1719 -0.0524  0.0494
  280MOL0     C38531   9.883  -0.516   3.421 -0.4272  0.0399  0.3825
  280MOL0     C38532   9.798  -0.626   3.367 -1.3635 -0.0413  1.2632
  280MOL0     O38533   9.656  -0.615   3.364 -1.0232 -0.0539  0.0157
  280MOL0     C38534   9.600  -0.723   3.303  0.1585 -0.1399 -0.7600
  280MOL0     C38535   9.511  -0.688   3.203  0.5166  0.8527  0.1646
  280MOL0     C38536   9.417  -0.785   3.165 -0.1426  1.5758 -1.0124
  280MOL0     C38537   9.405  -0.921   3.214  0.9061 -0.0685 -0.3451
  280MOL0     O38538   9.300  -1.005   3.199 -0.2333 -0.5394  1.1444
  280MOL0     C38539   9.263  -1.114   3.284  0.2180  0.6244 -0.2001
  280MOL0     C38540   9.242  -1.069   3.433  0.5951  0.4861  0.2653
  280MOL0     C38541   9.184  -0.935   3.454  0.2822 -0.1541  0.9553
  280MOL0     C38542   9.204  -0.906   3.601  0.7079 -0.4712 -0.3058
  280MOL0     C38543   9.103  -0.800   3.660  0.8489  0.2302  0.7069
  280MOL0     C38544   9.128  -0.788   3.816 -0.0059  1.2384  0.4754
  280MOL0     C38545   9.210  -0.654   3.823  0.5124  0.5955 -0.6887
  280MOL0     C38546   9.269  -0.656   3.964  0.1653  0.1777 -0.2932
  280MOL0    Cl38547   9.417  -0.751   3.981  0.2971  0.0142 -0.5185
  280MOL0     C38548   9.513  -0.951   3.297 -0.1864  0.7066  0.2649
  280MOL0     C38549   9.601  -0.857   3.353  0.3127  0.1930  0.0777
  280MOL0     O38550   9.863  -0.725   3.327 -0.0707  1.3359 -0.5235
  280MOL0     C38551  10.015  -0.503   3.385 -0.7310  0.3238 -0.5429
  280MOL0     C38552  10.104  -0.403   3.428  0.3967 -0.2832 -0.8193
  280MOL0     N38553   9.997   0.124   2.952 -0.7956  0.4056  0.1447
  280MOL0     N38554   9.946   0.072   2.847 -0.5144 -0.1363 -0.8831
  280MOL0     C38555  10.490   0.213   2.148 -0.4540 -0.0527  0.0241
  280MOL0     C38556  10.501   0.352   2.163  0.4631 -0.3031 -0.6339
  280MOL0     C38557  10.547   0.763   2.328  0.7526 -0.0303  0.5754
  280MOL0     C38558  10.432   0.799   2.399 -0.3048 -0.6271  0.8609
  280MOL0     C38559  10.373   0.929   2.403 -1.5717 -0.5011 -0.3898
  280MOL0     C38560  10.440   1.039   2.341  0.5073 -0.6623 -0.2362
  280MOL0     O38561  10.369   1.156   2.325 -0.7182 -0.1213 -0.6146
  280MOL0     C38562  10.455   1.272   2.313  0.2233  0.7730 -0.3124
  280MOL0     C38563  10.391   1.397   2.371  0.3132 -0.0214 -0.3706
  280MOL0     C38564  10.372   1.386   2.522 -0.3705 -0.4899 -0.1912
  280MOL0     C38565  10.363   1.523   2.596  0.3200 -0.9107  0.0203
  280MOL0     C38566  10.228   1.586   2.563 -0.6484 -0.2136 -0.4930
  280MOL0     C38567  10.123   1.619   2.521  0.8972  0.4105 -0.0890
  280MOL0     C38568  10.559   1.009   2.262 -0.8704 -1.5443 -0.3858
  280MOL0     C38569  10.615   0.875   2.260 -0.2041 -0.8386  0.4199
  280MOL0     C38570  10.730   0.836   2.170  0.0227 -0.6872 -0.1861
  280MOL0     H38571  10.481   0.360   2.515 -1.4550  0.0193  0.0915
  280MOL0     H38572  10.469   0.123   2.480 -4.8679  1.1535 -0.0557
  280MOL0     H38573  10.365  -0.057   2.386 -0.7686 -1.7606 -1.1671
  280MOL0     H38574  10.497  -0.145   2.408 -3.6376  0.5271  1.8098
  280MOL0     H38575  10.320  -0.183   2.173  0.4265 -1.7708 -1.6688
  280MOL0     H38576  10.487  -0.258   2.196  1.0314 -0.4707  0.3901
  280MOL0     H38577  10.286  -0.399   2.239  0.4756 -0.7159  1.4298
  280MOL0     H38578  10.407  -0.391   2.370 -0.6952 -0.1195  1.9472
  280MOL0     H38579  10.146  -0.221   2.366  0.2116  1.6967  0.8076
  280MOL0     H38580  10.155  -0.397   2.421  1.5369  0.0002  2.9328
  280MOL0     H38581  10.341  -0.214   2.537 -0.0285  0.1108 -0.2348
  280MOL0     H38582  10.267  -0.343   2.612  3.4587  2.6248  0.8305
  280MOL0     H38583  10.182  -0.111   2.692 -2.3626  2.4396 -0.3671
  280MOL0     H38584  10.114  -0.094   2.524  0.6994 -2.3267 -1.5224
  280MOL0     H38585  10.052  -0.299   2.732  0.9354  2.3791  1.7680
  280MOL0     H38586   9.974  -0.288   2.572 -0.8760  1.3729 -0.7278
  280MOL0     H38587   9.912  -0.053   2.631 -2.3297  1.7471  0.8577
  280MOL0     H38588   9.825  -0.172   2.735 -0.2548  2.8137  1.8528
  280MOL0     H38589  10.078  -0.204   2.933 -0.6869 -0.2076 -0.4805
  280MOL0     H38590  10.115   0.134   3.180  1.9270  0.6407  0.9299
  280MOL0     H38591  10.219  -0.005   3.153 -0.1953  0.3609  0.1996
  280MOL0     H38592   9.950  -0.029   3.298 -0.1737  0.7003  0.1736
  280MOL0     H38593  10.065  -0.157   3.269 -0.1800 -0.5077  2.5795
  280MOL0     H38594  10.246  -0.014   3.378 -0.9349 -3.6357 -4.0538
  280MOL0     H38595  10.124   0.114   3.394 -1.6087  0.3509  1.8453
  280MOL0     H38596  10.128  -0.019   3.621  2.0918 -2.9497  0.3006
  280MOL0     H38597   9.977  -0.048   3.530  0.2474  2.8515 -1.6671
  280MOL0     H38598   9.896  -0.239   3.615 -0.3229  0.5556 -0.3720
  280MOL0     H38599   9.627  -0.386   3.508  1.4537 -0.8082 -1.8603
  280MOL0     H38600   9.689  -0.379   3.674 -2.1053 -2.3907  1.0862
  280MOL0     H38601   9.671  -0.529   3.611 -1.5880  0.9994  1.8644
  280MOL0     H38602   9.491  -0.592   3.156 -1.8465 -1.1048 -3.2474
  280MOL0     H38603   9.355  -0.757   3.081 -1.9075  3.6928  0.8815
  280MOL0     H38604   9.170  -1.156   3.243  0.1867  0.9666 -0.4856
  280MOL0     H38605   9.342  -1.189   3.292  0.2464  0.8583  3.6823
  280MOL0     H38606   9.184  -1.144   3.487 -0.9951  3.1579  2.5242
  280MOL0     H38607   9.343  -1.076   3.476  0.5414 -1.6520  0.1243
  280MOL0     H38608   9.085  -0.935   3.409  0.9023 -0.0379 -0.4547
  280MOL0     H38609   9.248  -0.854   3.419 -0.4966  0.5636  1.1481
  280MOL0     H38610   9.311  -0.888   3.611  1.3362 -3.1225 -1.3722
  280MOL0     H38611   9.191  -0.998   3.658  1.6837  0.5867  1.7189
  280MOL0     H38612   9.109  -0.709   3.598 -0.0319  0.8786  1.5345
  280MOL0     H38613   9.001  -0.836   3.646  1.2028 -0.4916 -0.0276
  280MOL0     H38614   9.183  -0.878   3.847 -0.5455 -0.8180 -3.8263
  280MOL0     H38615   9.036  -0.786   3.875  1.2923 -2.9655  3.0535
  280MOL0     H38616   9.151  -0.562   3.826 -0.2798  0.0723  1.2779
  280MOL0     H38617   9.283  -0.645   3.743  0.3854  0.1549 -0.8536
  280MOL0     H38618   9.199  -0.685   4.042  0.2209  0.5443 -0.1069
  280MOL0     H38619   9.303  -0.553   3.978 -0.2168  0.0249  2.2101
  280MOL0     H38620   9.505  -1.054   3.332 -2.5465  0.7636  0.0789
  280MOL0     H38621   9.674  -0.881   3.429 -0.0336  0.4017  0.4801
  280MOL0     H38622  10.056  -0.583   3.325 -0.3272  1.4261 -1.7618
  280MOL0     H38623  10.206  -0.393   3.394 -0.3589  2.4702 -2.6922
  280MOL0     H38624  10.505   0.158   2.056 -1.2042 -0.8749  0.3725
  280MOL0     H38625  10.488   0.420   2.079 -2.1625  0.2309  0.1151
  280MOL0     H38626  10.370   0.719   2.439  1.0300 -1.5620  1.1258
  280MOL0     H38627  10.279   0.935   2.458  0.0921 -1.4864  2.8181
  280MOL0     H38628  10.559   1.261   2.343  0.1273  0.4668 -0.0792
  280MOL0     H38629  10.469   1.303   2.209  1.2424  3.7755  0.6349
  280MOL0     H38630  10.299   1.415   2.315 -1.8089  1.6695  3.2520
  280MOL0     H38631  10.453   1.486   2.357  0.8027 -0.4280 -0.8249
  280MOL0     H38632  10.281   1.329   2.542  0.1330 -0.8104  1.3356
  280MOL0     H38633  10.456   1.335   2.570 -0.6850 -1.0394 -0.2122
  280MOL0     H38634  10.449   1.585   2.572  1.2040 -2.1377 -0.0839
  280MOL0     H38635  10.370   1.515   2.705 -0.4084  1.0676  0.2618
  280MOL0     H38636  10.028   1.659   2.494 -1.0651  0.3162  5.3752
  280MOL0     H38637  10.606   1.073   2.188  0.8129 -2.2804  0.0059
  280MOL0     H38638  10.690   0.780   2.085  1.8194 -2.3328 -0.0171
  280MOL0     H38639  10.779   0.927   2.134 -0.6232  0.8332  2.4771
  280MOL0     H38640  10.802   0.771   2.221 -2.2673 -1.6257  2.1078
  281MOL0     O38641   1.342   2.828   1.020  0.9640 -0.3956  1.1109
  281MOL0     C38642   1.384   2.803   1.132 -0.9274 -0.1470 -0.2352
  281MOL0     O38643   1.318   2.803   1.248  0.0740  0.1268  0.1423
  281MOL0     C38644   1.200   2.875   1.253  0.6663  0.2602 -0.4072
  281MOL0     C38645   1.090   2.818   1.194  0.3549  0.1365 -0.4955
  281MOL0     C38646   0.965   2.880   1.179  0.7058  0.5371  0.3307
  281MOL0     C38647   0.947   3.000   1.240  0.6005 -0.2760 -0.6956
  281MOL0     O38648   0.834   3.066   1.227  0.0615  0.2859  0.6793
  281MOL0     C38649   0.787   3.124   1.343 -0.0509 -0.0516 -0.0115
  281MOL0     C38650   0.788   3.274   1.329 -0.1757 -0.0871  0.2604
  281MOL0     C38651   0.695   3.339   1.430 -0.0041 -1.1141 -0.5352
  281MOL0     C38652   0.742   3.306   1.569  0.1561  0.0309 -0.3135
  281MOL0     C38653   0.692   3.397   1.677  0.3746 -0.3544  0.3955
  281MOL0     C38654   0.541   3.420   1.681  1.1006 -0.6681 -0.0343
  281MOL0     C38655   0.450   3.296   1.699 -0.3666  0.3147  0.4232
  281MOL0     C38656   0.456   3.233   1.841 -0.8861 -0.2066  0.5893
  281MOL0     N38657   0.422   3.334   1.948 -0.3228  0.0720 -0.7028
  281MOL0     C38658   0.510   3.397   2.043 -0.9292  0.4944 -0.5261
  281MOL0     C38659   0.440   3.504   2.083 -0.5702  0.4181 -0.2192
  281MOL0     C38660   0.472   3.602   2.191  0.0246 -0.1144  0.4950
  281MOL0     C38661   0.506   3.530   2.322 -0.1284 -1.0107 -0.5539
  281MOL0     C38662   0.412   3.581   2.441  0.2025  0.6038 -0.8053
  281MOL0     C38663   0.431   3.729   2.462 -0.1467 -0.0403  1.0125
  281MOL0     O38664   0.567   3.755   2.491 -0.8187  1.2684  0.1481
  281MOL0     C38665   0.590   3.880   2.538 -0.3846  0.2716 -1.4869
  281MOL0     C38666   0.731   3.922   2.554  0.0672  1.1743  0.5665
  281MOL0     C38667   0.768   4.038   2.608  0.2271 -0.6716 -0.1261
  281MOL0     C38668   0.915   4.051   2.617 -1.0192  0.3391 -0.4671
  281MOL0     C38669   0.675   4.128   2.643  0.1275 -0.8863 -0.5583
  281MOL0     C38670   0.712   4.268   2.700  0.1561 -0.5239 -0.6574
  281MOL0     O38671   0.838   4.330   2.670 -0.0360 -0.7379 -0.3091
  281MOL0     C38672   0.843   4.465   2.671 -0.5415  0.5527 -0.1911
  281MOL0     C38673   0.815   4.544   2.778  0.7483  0.0527  0.1383
  281MOL0     C38674   0.845   4.683   2.778 -0.5576  0.6009 -0.2191
  281MOL0     C38675   0.895   4.739   2.665 -0.2226  0.6054 -0.1023
  281MOL0     O38676   0.906   4.872   2.668  0.2450  0.9116 -0.4363
  281MOL0     C38677   1.031   4.918   2.610  0.5385 -0.4714 -0.0035
  281MOL0     C38678   0.997   5.026   2.521 -0.5823 -0.8287 -0.7873
  281MOL0     C38679   1.115   5.086   2.456 -0.0319  0.4230 -0.0240
  281MOL0     C38680   1.180   5.007   2.333  0.3352  1.1394  0.0033
  281MOL0     C38681   1.310   5.068   2.278 -0.7349  0.1354  0.1795
  281MOL0     C38682   1.282   5.201   2.204  1.0706 -0.1780 -0.7746
  281MOL0     C38683   1.397   5.236   2.113  0.4616 -0.3022  0.0923
  281MOL0     C38684   1.353   5.331   1.986 -0.2438 -0.8255  0.7486
  281MOL0    Cl38685   1.257   5.472   2.024  0.3125 -0.3364  0.5125
  281MOL0     C38686   0.908   4.659   2.550  0.0759  1.0702 -0.0440
  281MOL0     C38687   0.891   4.526   2.557  0.8203  0.3068  0.5814
  281MOL0     O38688   0.632   4.315   2.784 -0.2168 -0.0217  0.9376
  281MOL0     C38689   0.539   4.099   2.627  0.2311 -0.0806 -0.2611
  281MOL0     C38690   0.493   3.981   2.578  0.2079  0.0356  0.3486
  281MOL0     N38691   0.313   3.503   2.017 -1.0523  0.4758 -0.3289
  281MOL0     N38692   0.306   3.397   1.944 -0.2111 -0.5435  0.3679
  281MOL0     C38693   1.061   3.065   1.306  0.3312 -0.1585  0.0449
  281MOL0     C38694   1.185   3.004   1.312  0.1937 -0.3356 -1.0685
  281MOL0     C38695   1.529   2.762   1.153 -0.5922 -0.4192  0.3622
  281MOL0     C38696   1.591   2.783   1.277  1.2004 -0.0293  0.3197
  281MOL0     C38697   1.724   2.754   1.295 -0.1703  0.0541  0.6378
  281MOL0     C38698   1.799   2.722   1.189 -0.0188  0.0163  0.5927
  281MOL0     O38699   1.929   2.690   1.189 -0.1400  0.4416  0.0057
  281MOL0     C38700   2.020   2.753   1.285  0.3830 -0.1492  0.4267
  281MOL0     C38701   2.041   2.900   1.247  0.3491 -0.9410  0.7837
  281MOL0     C38702   2.125   2.985   1.347 -0.3913 -0.3532 -0.7350
  281MOL0     C38703   2.037   3.003   1.475  0.5699  0.8573  0.1403
  281MOL0     C38704   2.125   3.043   1.585  0.4818  0.1138  1.0512
  281MOL0     C38705   2.199   3.092   1.668 -0.4541 -0.1417  0.6825
  281MOL0     C38706   1.744   2.708   1.061  0.0970  0.3614 -0.8811
  281MOL0     C38707   1.607   2.729   1.044 -0.9069 -0.2069  0.3362
  281MOL0     C38708   1.553   2.690   0.904 -0.3586  1.0954 -0.7175
  281MOL0     H38709   1.103   2.726   1.137  0.6490  0.9845 -1.8513
  281MOL0     H38710   0.886   2.836   1.119  0.1818  1.6427  0.1683
  281MOL0     H38711   0.841   3.094   1.432 -2.1023  0.1879  1.3889
  281MOL0     H38712   0.683   3.104   1.370  0.2317 -0.9461  0.4255
  281MOL0     H38713   0.883   3.323   1.350 -1.3788  1.0479  3.6168
  281MOL0     H38714   0.753   3.308   1.231 -0.3792  0.8405  0.6448
  281MOL0     H38715   0.717   3.446   1.422  5.6959 -2.0290 -1.5427
  281MOL0     H38716   0.589   3.311   1.421  1.0439 -5.4351 -2.2872
  281MOL0     H38717   0.726   3.200   1.591 -0.1341 -0.3510 -2.1659
  281MOL0     H38718   0.850   3.323   1.567 -0.1206  3.1850  2.8541
  281MOL0     H38719   0.747   3.491   1.684  0.6014 -0.5813  2.2631
  281MOL0     H38720   0.701   3.360   1.780  0.0739 -1.5294  0.0232
  281MOL0     H38721   0.525   3.484   1.768 -2.1114 -1.6736  0.2189
  281MOL0     H38722   0.511   3.490   1.603  4.3511  1.5784  0.5162
  281MOL0     H38723   0.485   3.219   1.629  1.0582  0.6298  0.7408
  281MOL0     H38724   0.348   3.313   1.667 -0.0617  3.1159  0.6941
  281MOL0     H38725   0.379   3.158   1.860  0.0354 -1.2291  0.3833
  281MOL0     H38726   0.554   3.187   1.860  0.5149  2.7826  1.1501
  281MOL0     H38727   0.610   3.375   2.078 -2.0971 -1.4098  1.8996
  281MOL0     H38728   0.382   3.662   2.204 -0.6484 -1.3962  2.1045
  281MOL0     H38729   0.547   3.675   2.159  2.3796 -3.2022 -1.6049
  281MOL0     H38730   0.495   3.423   2.303  3.3590 -1.5715 -0.0361
  281MOL0     H38731   0.611   3.546   2.347  0.3337 -0.2219 -2.8256
  281MOL0     H38732   0.312   3.537   2.427 -0.0712 -0.2954  2.9012
  281MOL0     H38733   0.443   3.525   2.530  1.4850  1.2317 -0.8424
  281MOL0     H38734   0.394   3.788   2.377  1.9663  0.6367  0.4996
  281MOL0     H38735   0.362   3.763   2.540 -1.9065 -1.8795  0.3238
  281MOL0     H38736   0.794   3.846   2.511 -2.7971 -1.1510  0.1487
  281MOL0     H38737   0.957   3.952   2.592 -1.3116  0.2652 -0.6724
  281MOL0     H38738   0.943   4.061   2.722  1.3599  0.2752 -1.0344
  281MOL0     H38739   0.961   4.131   2.559  0.2599  0.2101  0.3248
  281MOL0     H38740   0.771   4.513   2.872  0.7062 -0.2588  0.0177
  281MOL0     H38741   0.842   4.746   2.866 -0.1180 -0.1888  0.3746
  281MOL0     H38742   1.104   4.942   2.688 -0.2084 -0.3816  0.6864
  281MOL0     H38743   1.085   4.844   2.551  2.3382  0.8421 -0.0942
  281MOL0     H38744   0.924   4.991   2.447  0.9569 -1.1405 -2.2077
  281MOL0     H38745   0.951   5.099   2.589  0.8814 -0.4354 -0.1749
  281MOL0     H38746   1.188   5.102   2.536  0.2871 -0.8663 -0.0485
  281MOL0     H38747   1.071   5.176   2.410 -0.4123  0.0279 -0.4422
  281MOL0     H38748   1.105   5.000   2.253 -1.3312  2.8665  1.3236
  281MOL0     H38749   1.211   4.907   2.364 -2.4747  0.0422 -0.4131
  281MOL0     H38750   1.381   5.075   2.361  0.6676 -0.2065 -0.9339
  281MOL0     H38751   1.358   4.994   2.213  2.2376  0.0562  2.2775
  281MOL0     H38752   1.268   5.292   2.263  0.5951 -0.5843 -0.2470
  281MOL0     H38753   1.197   5.187   2.136 -2.6656 -1.0044  3.5039
  281MOL0     H38754   1.446   5.145   2.077 -3.8019 -1.9720 -2.2476
  281MOL0     H38755   1.469   5.283   2.180  0.0287 -0.6551  0.8207
  281MOL0     H38756   1.285   5.274   1.921 -0.2253 -0.0261  0.0040
  281MOL0     H38757   1.427   5.369   1.915 -0.8193  0.2831  0.7303
  281MOL0     H38758   0.935   4.713   2.460  2.4516 -2.0220 -1.3887
  281MOL0     H38759   0.903   4.466   2.468 -0.3969  0.6850  0.1565
  281MOL0     H38760   0.468   4.179   2.646  1.3522  0.4490  2.1936
  281MOL0     H38761   0.389   3.982   2.547  0.6730  0.8361 -1.3521
  281MOL0     H38762   1.039   3.168   1.335  3.4687  0.6091 -0.0031
  281MOL0     H38763   1.270   3.055   1.357 -0.0823 -0.3722 -0.5045
  281MOL0     H38764   1.530   2.804   1.364 -0.3668 -0.8617 -0.5329
  281MOL0     H38765   1.771   2.769   1.391 -2.8930 -0.0331  2.0936
  281MOL0     H38766   1.994   2.744   1.391  3.2317 -1.2349  1.1325
  281MOL0     H38767   2.121   2.712   1.278 -0.2337 -2.0596  1.7659
  281MOL0     H38768   1.945   2.953   1.237  1.2240  0.6034  0.3484
  281MOL0     H38769   2.083   2.901   1.146 -1.5630  0.1643 -0.0509
  281MOL0     H38770   2.224   2.944   1.370 -1.0769 -1.2474  0.7940
  281MOL0     H38771   2.136   3.084   1.302  0.0325 -0.2638 -0.4492
  281MOL0     H38772   1.974   2.917   1.500  0.7328  1.4714  2.9606
  281MOL0     H38773   1.958   3.076   1.455  0.6447  0.6029 -1.1721
  281MOL0     H38774   2.262   3.139   1.741 -0.8792 -0.2846  1.1467
  281MOL0     H38775   1.813   2.682   0.981 -0.1453  0.2350 -1.0516
  281MOL0     H38776   1.625   2.623   0.857  0.6699  1.9383 -0.3768
  281MOL0     H38777   1.459   2.633   0.907  0.3581 -0.2514 -2.4102
  281MOL0     H38778   1.551   2.789   0.858 -1.4062  1.5348  0.2237
  282MOL0     O38779   3.002   3.348   6.008  0.5375 -0.1194  0.7432
  282MOL0     C38780   3.008   3.248   5.936 -0.4837  0.1164  0.2361
  282MOL0     O38781   3.086   3.143   5.961 -0.2717 -0.4572 -1.0211
  282MOL0     C38782   3.163   3.143   6.075 -0.6679  0.2939  0.7510
  282MOL0     C38783   3.114   3.074   6.182 -1.4454 -0.1429 -0.3807
  282MOL0     C38784   3.175   3.066   6.305  0.6162 -0.1333  0.2980
  282MOL0     C38785   3.278   3.158   6.329  0.2864  0.6389  0.1626
  282MOL0     O38786   3.344   3.178   6.443  0.0302  0.3628 -0.7724
  282MOL0     C38787   3.329   3.075   6.554  0.6966  0.7177 -0.0591
  282MOL0     C38788   3.364   3.147   6.681 -1.0573 -1.0133 -1.1669
  282MOL0     C38789   3.289   3.098   6.807  0.5996  0.3512 -0.0100
  282MOL0     C38790   3.162   3.189   6.835  0.1069  0.6029 -0.7571
  282MOL0     C38791   3.057   3.135   6.940 -0.4672  0.3295  0.5796
  282MOL0     C38792   2.992   3.255   7.018 -0.2753 -0.3244 -0.0805
  282MOL0     C38793   2.918   3.354   6.934  0.3591 -0.0881 -0.2448
  282MOL0     C38794   2.807   3.290   6.849 -0.5555 -1.0666 -0.6184
  282MOL0     N38795   2.677   3.249   6.914 -0.0003 -0.2900 -0.6231
  282MOL0     C38796   2.597   3.295   7.019 -1.0283 -0.8603  0.2447
  282MOL0     C38797   2.505   3.200   7.044 -0.6796  0.0650 -0.0276
  282MOL0     C38798   2.391   3.211   7.140  0.0576  0.3441 -0.0752
  282MOL0     C38799   2.270   3.242   7.056 -0.4988  0.5239  0.3570
  282MOL0     C38800   2.146   3.259   7.139 -0.6807  0.1505  0.2931
  282MOL0     C38801   2.017   3.310   7.071 -0.8111  0.2987  0.5892
  282MOL0     O38802   1.988   3.242   6.947 -0.1252  0.2894  0.2398
  282MOL0     C38803   1.853   3.245   6.915 -0.0967  0.8232  0.2662
  282MOL0     C38804   1.746   3.306   6.988 -0.0503 -0.0340  0.1913
  282MOL0     C38805   1.608   3.303   6.942  0.0019  0.2839 -0.2730
  282MOL0     C38806   1.519   3.389   7.023 -0.1531 -0.0493 -0.7673
  282MOL0     C38807   1.583   3.225   6.831 -0.4245 -0.3526  0.3059
  282MOL0     C38808   1.447   3.205   6.806 -0.6649 -0.0042 -0.3601
  282MOL0     O38809   1.365   3.294   6.746 -1.0266  0.7255  0.6012
  282MOL0     C38810   1.255   3.243   6.686 -0.8360 -0.3499  0.0287
  282MOL0     C38811   1.247   3.219   6.555  0.2486  1.1742  0.3885
  282MOL0     C38812   1.123   3.186   6.491  0.3005  0.1340  0.1415
  282MOL0     C38813   1.010   3.168   6.575 -0.0263  0.3300 -0.2250
  282MOL0     O38814   0.887   3.125   6.531  0.3298  0.1474 -0.1403
  282MOL0     C38815   0.881   3.024   6.427  0.6846  0.4618  0.1816
  282MOL0     C38816   0.734   2.979   6.401  0.5989 -0.1707  0.2459
  282MOL0     C38817   0.655   2.941   6.526 -0.7095  0.7591 -0.0227
  282MOL0     C38818   0.517   2.867   6.501  0.3039  0.0942 -0.0770
  282MOL0     C38819   0.526   2.724   6.448 -0.0682 -1.1791  0.1967
  282MOL0     C38820   0.562   2.641   6.576  0.3809 -0.2882  0.9581
  282MOL0     C38821   0.598   2.496   6.539  0.6207 -0.5801  0.5241
  282MOL0     C38822   0.602   2.404   6.665  0.6413  0.9532  0.0331
  282MOL0    Cl38823   0.439   2.401   6.728 -0.0582  0.3887  0.1744
  282MOL0     C38824   1.021   3.189   6.709  0.5740 -0.7005 -1.3174
  282MOL0     C38825   1.142   3.227   6.769 -0.1021  0.3751 -0.4089
  282MOL0     O38826   1.405   3.104   6.852 -0.7220 -0.2959  0.0167
  282MOL0     C38827   1.686   3.179   6.747 -0.2325  0.5748 -0.0930
  282MOL0     C38828   1.822   3.197   6.790 -0.5206  0.2777  0.1409
  282MOL0     N38829   2.528   3.106   6.942 -0.7834 -0.3814 -0.1767
  282MOL0     N38830   2.626   3.135   6.868  0.1398  0.9471  0.3821
  282MOL0     C38831   3.331   3.233   6.222  0.3679  0.0092 -0.5029
  282MOL0     C38832   3.273   3.225   6.088  0.5033  0.7859 -0.4742
  282MOL0     C38833   2.929   3.252   5.813 -0.2903 -0.4208  0.7004
  282MOL0     C38834   2.876   3.383   5.774 -0.5238  0.1178  0.1076
  282MOL0     C38835   2.796   3.391   5.660 -0.3365 -0.9373  0.4519
  282MOL0     C38836   2.792   3.284   5.573 -0.4576 -0.3270 -0.3441
  282MOL0     O38837   2.734   3.315   5.454 -0.0483 -0.4538 -0.7039
  282MOL0     C38838   2.814   3.282   5.345  0.5901 -0.1629  1.1351
  282MOL0     C38839   2.732   3.338   5.224 -0.1849  0.3230  1.1402
  282MOL0     C38840   2.827   3.332   5.105 -0.3838  0.2050  0.1538
  282MOL0     C38841   2.762   3.382   4.977 -0.5227  0.0296 -0.0425
  282MOL0     C38842   2.850   3.353   4.865  0.3396 -0.0492 -1.7088
  282MOL0     C38843   2.947   3.343   4.793 -0.5476 -1.1044 -0.5750
  282MOL0     C38844   2.845   3.159   5.614 -0.3597  0.0646  0.0041
  282MOL0     C38845   2.911   3.140   5.731  1.4861  0.4786  0.6938
  282MOL0     C38846   2.943   2.994   5.775  0.1444 -0.0650 -0.1200
  282MOL0     H38847   3.026   3.015   6.162 -0.3309 -2.0675  0.1031
  282MOL0     H38848   3.126   3.010   6.384  2.0615 -2.0076 -0.0616
  282MOL0     H38849   3.386   2.982   6.547 -3.9409 -2.5802  1.3502
  282MOL0     H38850   3.221   3.056   6.560  0.7822 -1.4913 -2.9998
  282MOL0     H38851   3.472   3.135   6.691 -0.9259  0.2685 -0.8222
  282MOL0     H38852   3.348   3.255   6.668 -1.8464 -1.1009 -1.0053
  282MOL0     H38853   3.254   2.996   6.792  0.9077  0.2742 -0.1885
  282MOL0     H38854   3.355   3.113   6.893  1.2422  0.4152 -0.5091
  282MOL0     H38855   3.198   3.290   6.860  1.6408  0.1003 -0.8220
  282MOL0     H38856   3.104   3.199   6.743 -0.4171  0.0910 -0.4909
  282MOL0     H38857   3.105   3.065   7.010  3.8214  3.9246  1.6992
  282MOL0     H38858   2.980   3.078   6.886 -0.3090  2.2448 -1.8714
  282MOL0     H38859   2.922   3.205   7.085 -4.3068  3.2369 -1.1998
  282MOL0     H38860   3.077   3.302   7.068  1.7891 -1.3114 -2.4152
  282MOL0     H38861   2.986   3.408   6.867  3.0104 -2.6678  0.1582
  282MOL0     H38862   2.878   3.430   7.002  1.9875  0.8370 -0.2780
  282MOL0     H38863   2.780   3.369   6.777  4.3352  1.2327 -0.3686
  282MOL0     H38864   2.852   3.208   6.792  0.5113  0.5274 -2.1833
  282MOL0     H38865   2.600   3.396   7.058  0.8307 -1.2035  1.1290
  282MOL0     H38866   2.408   3.293   7.210  0.5552  1.0017 -0.9444
  282MOL0     H38867   2.386   3.117   7.197  0.9267  0.0045 -0.5436
  282MOL0     H38868   2.289   3.337   7.006 -0.0623 -0.5301 -1.5723
  282MOL0     H38869   2.253   3.166   6.979 -2.6041  0.4424  0.8323
  282MOL0     H38870   2.125   3.154   7.163 -3.4422  0.0628 -1.9081
  282MOL0     H38871   2.166   3.311   7.232  0.0750 -0.3776  0.4298
  282MOL0     H38872   1.940   3.308   7.149  0.1230  2.9478  1.6855
  282MOL0     H38873   2.041   3.415   7.054  1.2129 -0.3401 -0.8235
  282MOL0     H38874   1.762   3.363   7.080 -1.8179  1.1392 -0.1871
  282MOL0     H38875   1.413   3.381   6.997 -0.1194 -2.0584 -0.4114
  282MOL0     H38876   1.564   3.488   7.010  2.5838 -1.0987  0.1046
  282MOL0     H38877   1.535   3.352   7.125  0.2078 -0.7643 -1.0825
  282MOL0     H38878   1.340   3.220   6.498  0.9325  0.0711  1.4381
  282MOL0     H38879   1.130   3.180   6.383  1.5948  2.7798 -0.0159
  282MOL0     H38880   0.928   3.068   6.339  0.4212 -1.9527 -1.2516
  282MOL0     H38881   0.941   2.938   6.459  1.9546 -0.1460 -3.3785
  282MOL0     H38882   0.693   3.047   6.325  0.9131 -3.7950 -3.5370
  282MOL0     H38883   0.749   2.884   6.348 -0.0566 -1.0824  1.6584
  282MOL0     H38884   0.641   3.027   6.592  1.2976  0.9872  0.1539
  282MOL0     H38885   0.722   2.877   6.585 -1.7902  1.2390  1.8058
  282MOL0     H38886   0.458   2.935   6.439  1.2199  0.0838 -0.9780
  282MOL0     H38887   0.469   2.877   6.599 -1.2822 -1.9002 -0.5591
  282MOL0     H38888   0.428   2.693   6.411 -0.2506  0.6415 -0.9712
  282MOL0     H38889   0.597   2.724   6.365 -0.5268  0.5284 -0.2356
  282MOL0     H38890   0.472   2.636   6.638 -0.4413  2.6231  0.1497
  282MOL0     H38891   0.646   2.686   6.630  2.1908  2.4903 -3.5931
  282MOL0     H38892   0.692   2.495   6.484  0.6874  2.2923  0.4617
  282MOL0     H38893   0.511   2.457   6.485  0.3643 -1.8661  1.7798
  282MOL0     H38894   0.676   2.447   6.733  2.8346  0.0495 -1.6395
  282MOL0     H38895   0.633   2.304   6.636  0.5721  0.9325  0.0307
  282MOL0     H38896   0.931   3.174   6.766  0.1303  2.1059 -1.1223
  282MOL0     H38897   1.141   3.230   6.878 -1.4318 -0.9564 -0.3440
  282MOL0     H38898   1.673   3.143   6.646  0.8533  1.0745 -0.4298
  282MOL0     H38899   1.897   3.166   6.719 -1.3340 -2.5642  0.3956
  282MOL0     H38900   3.414   3.300   6.245 -0.2885  0.6050  0.2023
  282MOL0     H38901   3.306   3.269   5.995 -3.7690  1.4739 -1.8629
  282MOL0     H38902   2.885   3.463   5.846 -2.5403  1.0179 -0.5697
  282MOL0     H38903   2.755   3.490   5.639  0.1592 -0.8034  0.0852
  282MOL0     H38904   2.910   3.334   5.357  1.0011 -0.6913  0.2685
  282MOL0     H38905   2.824   3.174   5.332  1.4543  0.1971 -2.0262
  282MOL0     H38906   2.702   3.442   5.237  2.0561  1.2630 -0.7122
  282MOL0     H38907   2.646   3.272   5.208  0.7380 -1.1387  1.9481
  282MOL0     H38908   2.927   3.374   5.112  0.0237 -0.8684  1.0216
  282MOL0     H38909   2.834   3.223   5.091  0.7582  0.6187 -3.6205
  282MOL0     H38910   2.726   3.485   4.989 -0.3891  0.0115  0.5861
  282MOL0     H38911   2.664   3.335   4.970 -1.4676  2.0451 -5.1962
  282MOL0     H38912   3.038   3.323   4.741 -0.4779 -1.5742 -0.2754
  282MOL0     H38913   2.828   3.070   5.555 -1.8006 -0.6935  1.4943
  282MOL0     H38914   2.909   2.979   5.878 -3.3706  0.8364 -1.0341
  282MOL0     H38915   2.902   2.922   5.704 -1.0046 -1.0667  1.4881
  282MOL0     H38916   3.050   2.973   5.770 -0.0221 -0.9025 -0.2678
  283MOL0     O38917   5.174   1.511   7.259 -0.3611 -0.6314 -0.0020
  283MOL0     C38918   5.144   1.580   7.163  0.0352  0.2965  0.1870
  283MOL0     O38919   5.065   1.695   7.180 -0.2265 -0.3849 -0.4008
  283MOL0     C38920   5.046   1.749   7.312  0.5376 -1.0235  0.2352
  283MOL0     C38921   5.130   1.741   7.421 -0.1244  0.1522 -0.2929
  283MOL0     C38922   5.101   1.794   7.544  0.0219  0.7212  0.0217
  283MOL0     C38923   4.986   1.858   7.565  0.5374 -0.5842  1.0484
  283MOL0     O38924   4.979   1.917   7.690 -0.4567  0.5830  1.1792
  283MOL0     C38925   4.865   1.997   7.730 -0.1466 -0.2471 -0.2693
  283MOL0     C38926   4.914   2.044   7.858 -0.1786  0.5881  0.8089
  283MOL0     C38927   4.883   1.937   7.960  0.6113 -0.4557  0.2280
  283MOL0     C38928   4.900   1.981   8.104  0.0376  0.3777  0.4615
  283MOL0     C38929   5.043   1.983   8.141  0.2152 -0.6071 -0.0460
  283MOL0     C38930   5.074   2.039   8.274  0.2340  0.1618 -0.8755
  283MOL0     C38931   5.218   2.034   8.328  0.3148 -0.0991 -0.0362
  283MOL0     C38932   5.304   2.132   8.268  0.7769 -0.1117 -0.2737
  283MOL0     N38933   5.251   2.270   8.288  0.3702 -0.2250 -0.6523
  283MOL0     C38934   5.220   2.330   8.411  0.5838  0.6272  0.5341
  283MOL0     C38935   5.172   2.456   8.375  0.0022 -0.3269 -0.0016
  283MOL0     C38936   5.140   2.550   8.478 -1.1157 -1.1941  0.1558
  283MOL0     C38937   5.013   2.638   8.456  0.5691 -0.5173 -0.9253
  283MOL0     C38938   4.896   2.548   8.470  0.7888 -0.2952 -0.4890
  283MOL0     C38939   4.763   2.624   8.445  0.3270 -1.2936  0.8768
  283MOL0     O38940   4.755   2.706   8.328  0.0184 -1.0710  0.0098
  283MOL0     C38941   4.731   2.649   8.211  0.3533 -0.6089 -0.1152
  283MOL0     C38942   4.828   2.575   8.140  0.0214  0.3484  0.2729
  283MOL0     C38943   4.797   2.506   8.014  0.0312 -0.1582 -0.5283
  283MOL0     C38944   4.903   2.427   7.950 -0.3795 -0.6612  0.7658
  283MOL0     C38945   4.664   2.516   7.966 -0.0761 -0.2100 -0.0295
  283MOL0     C38946   4.620   2.452   7.837  0.5320  0.1861 -0.9160
  283MOL0     O38947   4.489   2.465   7.812  0.4398  0.4418 -0.5799
  283MOL0     C38948   4.434   2.419   7.695  0.0962  0.4127 -0.4779
  283MOL0     C38949   4.467   2.474   7.570 -0.1130  0.3177  0.7604
  283MOL0     C38950   4.416   2.398   7.448 -0.2841 -0.1058  0.2921
  283MOL0     C38951   4.319   2.296   7.464  0.1807 -1.4688  0.2895
  283MOL0     O38952   4.256   2.236   7.357  0.5663  0.0472 -0.3994
  283MOL0     C38953   4.171   2.319   7.280 -0.0008 -0.2074  0.2818
  283MOL0     C38954   4.100   2.246   7.175  0.8151  0.6787  0.0225
  283MOL0     C38955   3.955   2.276   7.154  0.3269 -0.5063 -0.3948
  283MOL0     C38956   3.904   2.189   7.037  0.5553  0.1507  0.5589
  283MOL0     C38957   3.953   2.229   6.901  0.7858 -0.2000  0.5786
  283MOL0     C38958   3.866   2.178   6.785  0.2186  0.4994  0.3236
  283MOL0     C38959   3.896   2.211   6.636  0.4564  0.4134 -0.7707
  283MOL0     C38960   3.916   2.352   6.618 -0.6545  0.8737  0.0084
  283MOL0    Cl38961   3.765   2.442   6.660  0.0760 -0.4712  0.3540
  283MOL0     C38962   4.266   2.273   7.591  0.6421  0.6463 -0.4636
  283MOL0     C38963   4.332   2.321   7.705 -0.2696  0.5539 -0.5719
  283MOL0     O38964   4.704   2.390   7.766  0.1071 -0.4919  0.7040
  283MOL0     C38965   4.570   2.586   8.043  1.4442 -0.4995 -0.3520
  283MOL0     C38966   4.605   2.646   8.160 -0.8374  0.6416  0.9438
  283MOL0     N38967   5.165   2.468   8.235 -0.8893  0.7965 -0.3398
  283MOL0     N38968   5.209   2.355   8.194  0.3617 -0.8445  0.9135
  283MOL0     C38969   4.885   1.855   7.463  1.0281  0.3237  1.0643
  283MOL0     C38970   4.913   1.798   7.336  0.4270 -0.8478 -0.4347
  283MOL0     C38971   5.176   1.519   7.037  0.1294 -0.3513  0.2315
  283MOL0     C38972   5.306   1.476   7.013 -0.4615  0.4566  0.0416
  283MOL0     C38973   5.335   1.421   6.886 -0.6888 -0.8746 -0.5829
  283MOL0     C38974   5.244   1.414   6.785 -0.1120  0.7937  0.8274
  283MOL0     O38975   5.299   1.344   6.675 -0.0835  0.4210  0.3787
  283MOL0     C38976   5.212   1.296   6.569  0.2611  0.4087  0.3076
  283MOL0     C38977   5.169   1.152   6.599 -0.0332 -0.4403  0.1742
  283MOL0     C38978   5.274   1.050   6.573 -0.4674 -0.6986 -0.3353
  283MOL0     C38979   5.215   0.915   6.568 -0.4656  0.2933  0.1584
  283MOL0     C38980   5.123   0.888   6.455  0.0576  0.1806  0.4984
  283MOL0     C38981   5.032   0.858   6.388 -0.5674  1.0488  0.2921
  283MOL0     C38982   5.114   1.461   6.809  0.1846  1.2882  0.4605
  283MOL0     C38983   5.074   1.508   6.934  0.2803  0.5234 -1.2575
  283MOL0     C38984   4.930   1.542   6.964  0.4837 -0.0472  0.4280
  283MOL0     H38985   5.226   1.693   7.405  0.4495  2.0701 -3.6529
  283MOL0     H38986   5.182   1.790   7.616 -0.7379  2.5541  1.0549
  283MOL0     H38987   4.774   1.938   7.745  1.3402 -1.9329  3.1098
  283MOL0     H38988   4.865   2.086   7.666  4.8908  0.0227 -0.2423
  283MOL0     H38989   5.022   2.058   7.859 -0.0706  0.8750 -2.6634
  283MOL0     H38990   4.867   2.141   7.877  1.8889  1.2279  3.1187
  283MOL0     H38991   4.779   1.907   7.941  1.1183 -0.4104 -3.0243
  283MOL0     H38992   4.934   1.842   7.948 -0.0732 -0.9393  0.9940
  283MOL0     H38993   4.855   2.079   8.117  0.7268  0.4862  2.3324
  283MOL0     H38994   4.854   1.906   8.170 -0.3756  0.0590 -0.1757
  283MOL0     H38995   5.107   2.042   8.075  1.6509  0.3346  2.0957
  283MOL0     H38996   5.070   1.877   8.134  0.9866 -0.5100  1.2165
  283MOL0     H38997   5.045   2.144   8.266 -2.0457 -0.3916 -0.5423
  283MOL0     H38998   5.007   1.997   8.350  1.5236  0.9487  0.7689
  283MOL0     H38999   5.250   1.932   8.308 -0.1211 -0.0650 -0.9450
  283MOL0     H39000   5.193   2.049   8.433 -3.0790  1.1778 -0.9012
  283MOL0     H39001   5.401   2.123   8.318  0.4720  4.8535  1.8031
  283MOL0     H39002   5.306   2.108   8.161 -2.5375  1.8455 -0.9186
  283MOL0     H39003   5.243   2.278   8.503  0.9516 -4.1311 -1.9787
  283MOL0     H39004   5.226   2.617   8.485 -0.3118 -1.8785 -2.3253
  283MOL0     H39005   5.130   2.494   8.571  0.1882 -1.5307  0.1176
  283MOL0     H39006   5.008   2.723   8.525 -0.1363 -0.4396 -1.0757
  283MOL0     H39007   5.019   2.679   8.355 -0.0053  3.2868  0.4311
  283MOL0     H39008   4.916   2.470   8.397  0.5501  0.6148 -1.5505
  283MOL0     H39009   4.901   2.507   8.571 -4.4452 -0.3038  0.0385
  283MOL0     H39010   4.692   2.545   8.418  1.0928 -1.1138 -1.9216
  283MOL0     H39011   4.721   2.684   8.526  2.2090 -0.2516  1.1545
  283MOL0     H39012   4.930   2.586   8.177 -1.1274  0.4713  3.8084
  283MOL0     H39013   4.938   2.469   7.855 -0.5707 -1.9861  0.0910
  283MOL0     H39014   4.880   2.323   7.927  0.1325 -0.0791 -2.8584
  283MOL0     H39015   4.992   2.424   8.014  0.6946 -1.1454 -0.6865
  283MOL0     H39016   4.535   2.558   7.562  0.5708 -0.3411 -1.0156
  283MOL0     H39017   4.446   2.425   7.348 -1.1900  0.5222  0.1830
  283MOL0     H39018   4.094   2.364   7.343 -0.7218 -1.5684  0.3981
  283MOL0     H39019   4.227   2.406   7.242  1.0159 -0.9044  0.1580
  283MOL0     H39020   4.163   2.266   7.087  3.1102  0.9249  1.6354
  283MOL0     H39021   4.102   2.139   7.195 -0.9083  0.3364 -1.4500
  283MOL0     H39022   3.939   2.382   7.133 -2.8433 -0.7581  0.2479
  283MOL0     H39023   3.901   2.254   7.246  1.8968  0.1206  0.7239
  283MOL0     H39024   3.796   2.204   7.041  0.4213 -0.3280 -0.6163
  283MOL0     H39025   3.908   2.084   7.067 -2.6800 -0.2452 -0.0093
  283MOL0     H39026   3.948   2.338   6.897  0.4627 -0.2157  0.5231
  283MOL0     H39027   4.054   2.195   6.874 -0.0330 -0.5819 -2.2393
  283MOL0     H39028   3.765   2.210   6.808 -1.1408 -3.3754  0.5115
  283MOL0     H39029   3.873   2.069   6.793  2.2366  0.5468 -0.0902
  283MOL0     H39030   3.820   2.163   6.574  0.2974 -1.7290  0.9503
  283MOL0     H39031   3.991   2.164   6.608  0.2115 -2.0437  1.9945
  283MOL0     H39032   3.948   2.380   6.518  2.3833  1.4960  1.0553
  283MOL0     H39033   4.000   2.388   6.678  0.8503 -0.4715 -1.2093
  283MOL0     H39034   4.183   2.203   7.595  1.5620 -0.4606 -0.0035
  283MOL0     H39035   4.300   2.281   7.801 -0.7993 -3.0978 -2.0958
  283MOL0     H39036   4.469   2.598   8.006  2.0308  1.0255 -1.5857
  283MOL0     H39037   4.525   2.699   8.212  0.5262  1.5876  2.1603
  283MOL0     H39038   4.793   1.908   7.483  0.4995  0.8043 -2.1212
  283MOL0     H39039   4.832   1.802   7.264  1.7910 -0.9383 -2.0338
  283MOL0     H39040   5.377   1.480   7.096 -0.5522 -0.9307  0.2052
  283MOL0     H39041   5.435   1.386   6.862  0.1308  2.0380 -1.9081
  283MOL0     H39042   5.125   1.362   6.569 -0.4837 -0.5036 -1.7003
  283MOL0     H39043   5.265   1.301   6.474  2.8387  0.6410  1.6549
  283MOL0     H39044   5.094   1.134   6.520  1.4742  0.7615 -1.6228
  283MOL0     H39045   5.120   1.141   6.696 -1.4058 -0.6578 -0.5153
  283MOL0     H39046   5.327   1.070   6.480  0.7660 -0.8666  0.3163
  283MOL0     H39047   5.355   1.052   6.647  0.5763 -0.6533 -1.4560
  283MOL0     H39048   5.161   0.899   6.662  0.4273 -2.2490  0.3325
  283MOL0     H39049   5.299   0.844   6.572  1.2019  2.2126  3.7211
  283MOL0     H39050   4.940   0.818   6.350 -1.5005  1.2683  2.1942
  283MOL0     H39051   5.040   1.466   6.730 -2.6829 -3.5259  2.4174
  283MOL0     H39052   4.896   1.460   7.028 -1.0714  0.6108  0.4965
  283MOL0     H39053   4.908   1.638   7.012 -1.3721 -0.2295  0.0037
  283MOL0     H39054   4.865   1.543   6.876 -0.3989 -0.7888  1.0575
  284MOL0     O39055   6.201   5.579   6.343 -0.6054 -0.4775  0.9937
  284MOL0     C39056   6.168   5.480   6.273  0.2164 -0.6111  0.8689
  284MOL0     O39057   6.101   5.493   6.157 -0.3193 -0.0594 -0.1906
  284MOL0     C39058   6.073   5.620   6.109 -0.0194  0.0561  0.9231
  284MOL0     C39059   6.171   5.679   6.022  0.1927 -0.5952 -0.2722
  284MOL0     C39060   6.152   5.793   5.967  0.4012  0.5261  0.1088
  284MOL0     C39061   6.031   5.865   5.981 -0.3780 -0.5078 -0.3443
  284MOL0     O39062   6.017   5.988   5.918  0.1840  0.1658 -0.4463
  284MOL0     C39063   5.936   5.983   5.797 -0.6013  0.2061  0.3081
  284MOL0     C39064   6.012   5.958   5.666 -0.8908 -0.0960 -0.2330
  284MOL0     C39065   5.925   5.928   5.540  0.0763 -0.0242 -0.7957
  284MOL0     C39066   6.013   5.864   5.425 -0.0743 -0.5511 -0.1752
  284MOL0     C39067   6.110   5.961   5.365  0.7931 -0.2958 -0.5978
  284MOL0     C39068   6.206   5.883   5.276  0.7542  0.8756  0.0242
  284MOL0     C39069   6.293   5.957   5.168  0.8221 -0.3392 -0.1813
  284MOL0     C39070   6.210   5.969   5.035 -0.0013  1.0841 -0.1596
  284MOL0     N39071   6.283   6.050   4.934 -0.2368  0.3863  0.4647
  284MOL0     C39072   6.419   6.044   4.902  0.5621  0.8397 -0.5668
  284MOL0     C39073   6.442   6.136   4.807 -0.0052 -0.4549 -0.2451
  284MOL0     C39074   6.561   6.170   4.724  0.7356 -0.7654  0.3707
  284MOL0     C39075   6.559   6.325   4.723 -0.1696  0.2160 -0.7664
  284MOL0     C39076   6.593   6.390   4.866  0.0259 -0.1232 -0.3017
  284MOL0     C39077   6.558   6.546   4.868 -0.2545 -1.1469  0.0479
  284MOL0     O39078   6.557   6.606   4.997 -0.3908  0.4437 -0.2486
  284MOL0     C39079   6.465   6.564   5.100 -0.4564 -0.2724  0.5425
  284MOL0     C39080   6.356   6.482   5.075  0.0819 -0.2285 -1.0785
  284MOL0     C39081   6.273   6.440   5.181  0.2106 -0.1780 -1.0008
  284MOL0     C39082   6.149   6.365   5.152 -0.4118 -0.0840  1.1038
  284MOL0     C39083   6.290   6.499   5.310  0.0617  1.4312 -1.0313
  284MOL0     C39084   6.193   6.487   5.427  0.7034 -0.1132  0.8136
  284MOL0     O39085   6.183   6.593   5.511 -0.5897 -0.8386 -0.1487
  284MOL0     C39086   6.115   6.588   5.633  0.3289  0.1539 -0.9011
  284MOL0     C39087   6.004   6.669   5.652 -1.1433 -0.2792 -0.4565
  284MOL0     C39088   5.925   6.664   5.767  0.5929 -0.3370 -0.6603
  284MOL0     C39089   5.971   6.589   5.879  0.0747 -0.0570  0.1823
  284MOL0     O39090   5.925   6.592   6.006  0.9602  0.0753  0.5489
  284MOL0     C39091   5.856   6.706   6.052 -0.0642 -0.2695 -0.8131
  284MOL0     C39092   5.766   6.676   6.173 -0.9332  0.5786  0.5955
  284MOL0     C39093   5.718   6.801   6.243 -0.7750  0.6105  0.3221
  284MOL0     C39094   5.804   6.837   6.366  0.4196  0.5134 -0.6897
  284MOL0     C39095   5.745   6.952   6.447  0.6951  0.0606  0.0498
  284MOL0     C39096   5.820   6.952   6.586 -0.3945  0.3067 -0.1435
  284MOL0     C39097   5.764   7.074   6.662  0.2089 -1.0787 -0.3664
  284MOL0     C39098   5.850   7.104   6.783 -0.8451 -0.4862 -0.0858
  284MOL0    Cl39099   5.801   6.986   6.916 -0.1618 -0.2967  0.6446
  284MOL0     C39100   6.068   6.493   5.851  0.9477 -0.2834 -1.2884
  284MOL0     C39101   6.139   6.496   5.736  1.0889  0.4733 -0.3465
  284MOL0     O39102   6.134   6.376   5.451  0.4936  0.2282  1.0799
  284MOL0     C39103   6.416   6.565   5.337  0.3023 -0.6216  0.7575
  284MOL0     C39104   6.497   6.607   5.229  0.4877  0.5376 -0.1852
  284MOL0     N39105   6.314   6.196   4.788  0.2142  0.4556 -0.1701
  284MOL0     N39106   6.226   6.153   4.864 -0.0156  0.6742  0.1619
  284MOL0     C39107   5.934   5.817   6.081  0.2785 -0.6398  1.2390
  284MOL0     C39108   5.958   5.693   6.136 -1.4647 -0.3815 -0.3412
  284MOL0     C39109   6.197   5.341   6.335 -0.2212  0.8676 -0.0564
  284MOL0     C39110   6.209   5.343   6.470 -0.2640  0.7617 -0.2045
  284MOL0     C39111   6.257   5.231   6.535  0.2684  0.0451 -0.1691
  284MOL0     C39112   6.259   5.110   6.476  0.9946 -0.2039  0.1511
  284MOL0     O39113   6.286   4.989   6.540  0.5908 -0.3171  0.1632
  284MOL0     C39114   6.373   4.997   6.652 -0.6343  0.1637 -0.0842
  284MOL0     C39115   6.300   4.995   6.784 -0.6670 -0.4268  0.1764
  284MOL0     C39116   6.237   4.855   6.805 -0.9285 -1.1651 -0.0586
  284MOL0     C39117   6.215   4.818   6.956 -0.1543  0.4772 -0.0744
  284MOL0     C39118   6.327   4.795   7.042 -0.4256 -0.4203 -0.5073
  284MOL0     C39119   6.436   4.785   7.107  0.5856  0.6521  0.3757
  284MOL0     C39120   6.231   5.102   6.333  0.4704  0.4344  0.0549
  284MOL0     C39121   6.202   5.218   6.261  0.0974  0.1932 -0.0264
  284MOL0     C39122   6.176   5.211   6.110  0.2397  0.5366  0.1887
  284MOL0     H39123   6.267   5.629   6.020  0.9530  0.8301 -1.5773
  284MOL0     H39124   6.225   5.836   5.899 -0.7996  1.3001 -0.7161
  284MOL0     H39125   5.863   6.064   5.791 -3.2748 -2.1420 -1.6469
  284MOL0     H39126   5.874   5.894   5.814  1.1801 -1.1793 -0.1495
  284MOL0     H39127   6.076   6.046   5.655 -0.7657 -0.2153 -0.4572
  284MOL0     H39128   6.082   5.877   5.686 -0.5203  0.3787  0.4457
  284MOL0     H39129   5.852   5.853   5.571 -1.1854  1.9716  1.3212
  284MOL0     H39130   5.869   6.018   5.512 -2.0622 -0.2267  2.3653
  284MOL0     H39131   6.077   5.783   5.462 -1.0449 -1.1023  0.3212
  284MOL0     H39132   5.949   5.816   5.351 -0.4567 -1.7933  0.9351
  284MOL0     H39133   6.170   6.021   5.434 -0.8787  1.4517 -0.5690
  284MOL0     H39134   6.050   6.033   5.308 -0.8267 -0.2586  1.0680
  284MOL0     H39135   6.261   5.808   5.334 -0.7543 -1.6035 -1.5471
  284MOL0     H39136   6.138   5.832   5.206  1.9087  1.2558 -1.4254
  284MOL0     H39137   6.388   5.907   5.147  1.3466  1.0407 -1.3117
  284MOL0     H39138   6.322   6.060   5.195 -0.8018  0.5779 -1.7414
  284MOL0     H39139   6.171   5.875   4.993  5.9975 -0.9207 -2.3298
  284MOL0     H39140   6.126   6.030   5.068 -0.3020  0.5621  0.0465
  284MOL0     H39141   6.478   5.963   4.944  0.1705  0.4645 -0.7332
  284MOL0     H39142   6.547   6.124   4.626 -0.9815 -2.3142  1.2869
  284MOL0     H39143   6.649   6.124   4.770 -0.6317 -2.9092  0.9782
  284MOL0     H39144   6.635   6.361   4.653 -0.5697 -1.3887 -2.0944
  284MOL0     H39145   6.461   6.352   4.682  0.0714  1.5242 -0.5321
  284MOL0     H39146   6.540   6.334   4.944 -1.8641 -0.6830 -1.9068
  284MOL0     H39147   6.700   6.380   4.887  0.7828  1.0602 -3.1647
  284MOL0     H39148   6.639   6.596   4.815 -1.7867  1.6208  0.1184
  284MOL0     H39149   6.471   6.573   4.808  0.9036 -0.3652 -1.3264
  284MOL0     H39150   6.329   6.444   4.977 -4.0680 -0.8093  0.1043
  284MOL0     H39151   6.051   6.410   5.170 -0.1990  1.1082 -0.4681
  284MOL0     H39152   6.160   6.267   5.200 -1.9178 -1.2322 -0.7777
  284MOL0     H39153   6.143   6.343   5.045 -1.8118 -2.7000  1.6479
  284MOL0     H39154   5.973   6.728   5.566 -0.8080  1.8727  0.8284
  284MOL0     H39155   5.838   6.728   5.776  1.5432  0.9579 -0.4306
  284MOL0     H39156   5.938   6.768   6.089 -0.2151  0.5294 -1.7855
  284MOL0     H39157   5.791   6.761   5.984  2.1358  0.6748 -2.2403
  284MOL0     H39158   5.680   6.620   6.135  1.1273 -2.2924 -0.1714
  284MOL0     H39159   5.821   6.608   6.238 -1.4393 -0.5426 -0.1161
  284MOL0     H39160   5.622   6.766   6.281 -1.0927 -1.8738 -2.4526
  284MOL0     H39161   5.698   6.878   6.168  0.4221 -1.3124 -2.1207
  284MOL0     H39162   5.906   6.859   6.333  0.6242  2.7319  1.1260
  284MOL0     H39163   5.808   6.753   6.436  2.2427  0.4285 -0.8304
  284MOL0     H39164   5.756   7.038   6.381 -0.9172  0.4166  0.2071
  284MOL0     H39165   5.637   6.943   6.461  0.2236  4.2228  0.1189
  284MOL0     H39166   5.929   6.959   6.581 -0.1334 -0.7628  2.6501
  284MOL0     H39167   5.800   6.861   6.644 -1.9850  1.3357  1.0070
  284MOL0     H39168   5.664   7.055   6.701  0.5594 -1.5343  0.3378
  284MOL0     H39169   5.748   7.159   6.595 -0.9278 -0.0036  1.1732
  284MOL0     H39170   5.828   7.206   6.817  0.8235 -0.6212  1.5378
  284MOL0     H39171   5.956   7.089   6.764 -0.6138 -1.0542  1.5031
  284MOL0     H39172   6.093   6.426   5.933 -1.6341  0.5745  0.3330
  284MOL0     H39173   6.212   6.417   5.718  0.5311  0.0050 -0.6046
  284MOL0     H39174   6.457   6.602   5.430  2.5239 -2.1460  0.4550
  284MOL0     H39175   6.576   6.678   5.249  1.0418 -0.6887  2.4248
  284MOL0     H39176   5.845   5.875   6.104 -0.0769 -0.1793 -1.0440
  284MOL0     H39177   5.880   5.664   6.205  0.2269 -3.9738  0.3001
  284MOL0     H39178   6.191   5.433   6.528 -0.2681  2.0817 -2.1676
  284MOL0     H39179   6.299   5.254   6.632 -1.1176  1.1344  0.2156
  284MOL0     H39180   6.447   4.918   6.636  1.5266  2.5472 -3.0013
  284MOL0     H39181   6.428   5.091   6.648 -0.9857  0.3405 -0.7571
  284MOL0     H39182   6.213   5.061   6.774  0.4243  0.8806 -1.1070
  284MOL0     H39183   6.361   5.030   6.867 -1.9483 -0.3804  1.1244
  284MOL0     H39184   6.145   4.857   6.746 -2.6400  1.3627  2.4466
  284MOL0     H39185   6.300   4.777   6.761  0.7699 -1.2448  2.2910
  284MOL0     H39186   6.151   4.730   6.966 -1.4387  1.3874  0.0492
  284MOL0     H39187   6.151   4.895   7.000  1.1678  3.0892 -2.4214
  284MOL0     H39188   6.528   4.768   7.158  0.7594  1.4090  0.3218
  284MOL0     H39189   6.227   5.005   6.286 -0.9301  1.0866 -1.2619
  284MOL0     H39190   6.071   5.212   6.082  0.7334 -1.6883 -2.1209
  284MOL0     H39191   6.220   5.291   6.049 -2.3689 -0.0208 -2.6725
  284MOL0     H39192   6.206   5.111   6.078  1.3530  0.7251  0.5865
  285MOL0     O39193   1.147   0.534   6.333 -0.2082 -0.4938 -0.4492
  285MOL0     C39194   1.252   0.548   6.265  1.5860 -0.3935 -0.9735
  285MOL0     O39195   1.365   0.601   6.317  0.3412  0.3135 -0.6175
  285MOL0     C39196   1.379   0.625   6.457  0.1305 -0.9663 -0.0693
  285MOL0     C39197   1.297   0.687   6.552 -0.0089  0.1729 -0.3622
  285MOL0     C39198   1.338   0.685   6.683 -0.7852  0.6038 -0.4283
  285MOL0     C39199   1.465   0.636   6.721  0.0009 -0.5040  0.5764
  285MOL0     O39200   1.480   0.663   6.853  0.0883  0.4395 -0.6168
  285MOL0     C39201   1.605   0.649   6.930  0.2051 -0.3536 -0.3716
  285MOL0     C39202   1.608   0.771   7.022 -0.4952  0.1512  0.3406
  285MOL0     C39203   1.493   0.776   7.130  0.7233 -0.1102  0.3426
  285MOL0     C39204   1.486   0.896   7.222  0.2145 -0.0117 -0.5664
  285MOL0     C39205   1.442   1.027   7.163  1.4372 -1.1157 -0.0225
  285MOL0     C39206   1.315   1.032   7.073  0.2848 -0.2658  0.0665
  285MOL0     C39207   1.306   1.162   6.998 -0.6667 -0.1825 -1.1318
  285MOL0     C39208   1.178   1.175   6.908  0.5280 -0.6782 -0.0661
  285MOL0     N39209   1.054   1.179   6.997  0.3454  0.8261  0.0268
  285MOL0     C39210   1.014   1.257   7.106 -0.9666 -1.0662  0.2481
  285MOL0     C39211   0.924   1.179   7.172  0.0364  0.0111 -0.0154
  285MOL0     C39212   0.867   1.203   7.312 -0.0442  0.5468  0.2315
  285MOL0     C39213   0.749   1.303   7.342 -0.2562 -0.3031  0.9112
  285MOL0     C39214   0.730   1.318   7.495  0.7395 -0.5402 -1.1597
  285MOL0     C39215   0.641   1.210   7.551  0.0539  0.0538 -0.0695
  285MOL0     O39216   0.520   1.198   7.472 -0.1332  0.6016 -0.2624
  285MOL0     C39217   0.399   1.254   7.499  0.1407 -0.1466  0.1405
  285MOL0     C39218   0.288   1.204   7.428 -0.6274  0.2391 -1.0091
  285MOL0     C39219   0.162   1.238   7.459 -0.1211 -0.0201  0.9222
  285MOL0     C39220   0.053   1.134   7.408  0.0567  0.1744 -0.2333
  285MOL0     C39221   0.140   1.343   7.544  0.4518  0.3468 -0.4442
  285MOL0     C39222   0.012   1.398   7.579  0.5508 -0.9879  0.0823
  285MOL0     O39223  -0.009   1.436   7.704 -0.2416  0.4767  0.0985
  285MOL0     C39224  -0.136   1.479   7.738  0.4312  0.4030  0.1955
  285MOL0     C39225  -0.168   1.608   7.727 -0.3914  0.0879  0.5767
  285MOL0     C39226  -0.292   1.649   7.764  0.2230 -0.4747 -0.0546
  285MOL0     C39227  -0.384   1.566   7.811  0.0971 -0.2424  0.0250
  285MOL0     O39228  -0.506   1.624   7.826  0.5553  0.5339  0.4888
  285MOL0     C39229  -0.612   1.566   7.911  0.2194  0.6273  0.0594
  285MOL0     C39230  -0.694   1.687   7.947  0.2194  0.2998 -0.4241
  285MOL0     C39231  -0.845   1.689   7.924 -0.3979  0.7140  0.0322
  285MOL0     C39232  -0.902   1.836   7.925 -0.2860 -0.1232  0.4179
  285MOL0     C39233  -1.058   1.842   7.896 -0.4045 -0.5875  0.6390
  285MOL0     C39234  -1.097   1.991   7.920 -0.3093  0.7466 -0.4011
  285MOL0     C39235  -1.240   2.009   7.871  0.0021  0.4473  1.1268
  285MOL0     C39236  -1.290   2.152   7.861  0.0179  0.1406 -0.8065
  285MOL0    Cl39237  -1.218   2.218   7.706 -0.6844 -0.0850 -0.0415
  285MOL0     C39238  -0.353   1.427   7.822 -0.5663 -1.2256  0.2545
  285MOL0     C39239  -0.237   1.388   7.773  0.9063 -0.1525  0.8269
  285MOL0     O39240  -0.077   1.400   7.493 -0.5218  0.0219 -0.5158
  285MOL0     C39241   0.248   1.397   7.617 -0.0221 -0.8580 -0.1180
  285MOL0     C39242   0.376   1.358   7.592 -0.3440 -0.4596  0.2547
  285MOL0     N39243   0.905   1.064   7.103  0.3239 -0.3383  0.4292
  285MOL0     N39244   0.975   1.061   6.998 -0.0899 -0.7844 -0.9328
  285MOL0     C39245   1.549   0.588   6.629  0.9135  0.6568 -0.6291
  285MOL0     C39246   1.506   0.587   6.500 -0.6085 -0.6271 -0.0489
  285MOL0     C39247   1.249   0.515   6.125 -0.3251  0.3260 -0.3674
  285MOL0     C39248   1.360   0.448   6.071 -0.5071 -0.2649 -0.2713
  285MOL0     C39249   1.357   0.398   5.939 -0.5837  1.4579  0.6443
  285MOL0     C39250   1.246   0.417   5.856 -0.6083  0.0803  0.0183
  285MOL0     O39251   1.227   0.372   5.722  0.2489 -0.4028  0.0468
  285MOL0     C39252   1.316   0.270   5.679  1.3166  0.7279 -0.1797
  285MOL0     C39253   1.261   0.211   5.544  0.6138  0.1404 -0.3747
  285MOL0     C39254   1.305   0.279   5.415 -0.2880  0.8304 -0.8753
  285MOL0     C39255   1.232   0.218   5.308  0.5236  0.0980 -0.0137
  285MOL0     C39256   1.276   0.073   5.275  0.2702 -0.1977 -1.2188
  285MOL0     C39257   1.301  -0.041   5.248  0.3898 -0.1953 -1.0832
  285MOL0     C39258   1.138   0.486   5.914  1.1027 -0.6676  1.4381
  285MOL0     C39259   1.137   0.542   6.036 -0.2736 -0.5124 -0.7007
  285MOL0     C39260   1.023   0.633   6.061  0.7744  0.6347 -0.3603
  285MOL0     H39261   1.198   0.722   6.524  0.1493 -1.2579 -3.0195
  285MOL0     H39262   1.277   0.731   6.760 -0.3965  1.2895 -0.5186
  285MOL0     H39263   1.694   0.646   6.866 -2.0417  1.8266 -3.9165
  285MOL0     H39264   1.607   0.561   6.995  0.8927 -2.6339 -3.3006
  285MOL0     H39265   1.700   0.763   7.080 -2.0048 -3.3343  2.6633
  285MOL0     H39266   1.599   0.851   6.948 -2.3889 -2.1204 -2.1027
  285MOL0     H39267   1.399   0.767   7.075  0.6423  0.6405  0.3559
  285MOL0     H39268   1.512   0.692   7.199  2.3624 -1.2711 -1.4179
  285MOL0     H39269   1.419   0.874   7.305  0.8624  3.3497  1.0319
  285MOL0     H39270   1.583   0.915   7.269 -1.0362  3.1423  1.0765
  285MOL0     H39271   1.526   1.057   7.100  1.8851  1.8565  1.7810
  285MOL0     H39272   1.425   1.097   7.245 -2.0721  0.6829 -2.0670
  285MOL0     H39273   1.320   0.961   6.990  0.2868  1.7535 -1.7360
  285MOL0     H39274   1.227   1.025   7.138 -1.2592  2.1325 -1.6297
  285MOL0     H39275   1.390   1.159   6.928  0.6456  0.1583  0.3568
  285MOL0     H39276   1.311   1.244   7.071 -2.6854 -2.3295  1.6271
  285MOL0     H39277   1.185   1.273   6.859  0.4428 -1.2387 -1.2526
  285MOL0     H39278   1.180   1.096   6.832  1.0291 -1.7699  1.0694
  285MOL0     H39279   1.057   1.350   7.141 -0.3649 -1.7140  1.2676
  285MOL0     H39280   0.944   1.244   7.379 -0.8223 -1.5829  2.5970
  285MOL0     H39281   0.836   1.105   7.350  0.8918 -0.1178 -0.6814
  285MOL0     H39282   0.779   1.402   7.307  0.4794  0.2187  2.8645
  285MOL0     H39283   0.653   1.282   7.293  0.3191  0.7779 -0.7759
  285MOL0     H39284   0.826   1.314   7.547  0.5314 -3.8083 -0.8143
  285MOL0     H39285   0.692   1.420   7.503 -1.3629 -1.1318 -2.5901
  285MOL0     H39286   0.687   1.112   7.532  2.5242  0.5789  2.5104
  285MOL0     H39287   0.625   1.211   7.659  0.1143  0.1632 -0.0616
  285MOL0     H39288   0.314   1.140   7.344  1.9624  0.5519 -0.5213
  285MOL0     H39289   0.047   1.053   7.480  1.0980 -1.3660 -1.7845
  285MOL0     H39290   0.101   1.093   7.318  2.3924 -2.4296  2.0254
  285MOL0     H39291  -0.042   1.186   7.392  1.3639  2.0851 -2.6978
  285MOL0     H39292  -0.093   1.675   7.687 -0.2624  0.0200  0.7027
  285MOL0     H39293  -0.321   1.752   7.750 -0.6905 -0.3830  2.0705
  285MOL0     H39294  -0.677   1.486   7.875 -0.6706  0.5252  1.7829
  285MOL0     H39295  -0.580   1.527   8.009 -0.9093 -0.7035 -0.0691
  285MOL0     H39296  -0.680   1.719   8.051  0.3729 -0.1578 -0.3007
  285MOL0     H39297  -0.643   1.763   7.886 -1.9232  0.4396 -2.1797
  285MOL0     H39298  -0.886   1.621   7.999 -0.2177  3.1219  2.4958
  285MOL0     H39299  -0.861   1.669   7.818 -4.1070 -1.0621  0.7709
  285MOL0     H39300  -0.851   1.903   7.856 -0.1189 -0.3615  0.3093
  285MOL0     H39301  -0.865   1.870   8.023  2.1184 -1.1655 -0.0710
  285MOL0     H39302  -1.069   1.812   7.792 -1.2310  1.6630  0.0221
  285MOL0     H39303  -1.111   1.772   7.961 -1.6822  0.9921  1.3390
  285MOL0     H39304  -1.031   2.046   7.853  2.8007 -1.7980  0.2771
  285MOL0     H39305  -1.084   2.022   8.024  0.0338 -2.4818  0.6542
  285MOL0     H39306  -1.296   1.944   7.939 -4.5123  0.6945 -1.8995
  285MOL0     H39307  -1.248   1.969   7.770  0.0358 -0.6946  1.5618
  285MOL0     H39308  -1.250   2.219   7.939 -1.6422 -0.1734  0.3508
  285MOL0     H39309  -1.399   2.158   7.856  0.1127  1.5821 -2.0095
  285MOL0     H39310  -0.425   1.355   7.860 -2.6995  0.6843  0.0473
  285MOL0     H39311  -0.233   1.280   7.766 -2.5276 -0.2528 -1.8284
  285MOL0     H39312   0.230   1.471   7.694  1.4017  2.9358 -3.1183
  285MOL0     H39313   0.457   1.411   7.642 -2.6146  2.1617  1.3861
  285MOL0     H39314   1.649   0.550   6.644  1.4778  2.2899 -0.0297
  285MOL0     H39315   1.589   0.561   6.434 -0.9162 -1.5141 -0.0946
  285MOL0     H39316   1.447   0.422   6.132 -0.3977 -1.6840 -0.9938
  285MOL0     H39317   1.439   0.337   5.903 -0.4672  1.6500  0.5796
  285MOL0     H39318   1.409   0.318   5.646  1.6574  0.5578  0.5123
  285MOL0     H39319   1.328   0.198   5.761 -0.4005 -0.6962 -1.1211
  285MOL0     H39320   1.152   0.208   5.551  0.5838  1.7754  0.1966
  285MOL0     H39321   1.293   0.106   5.541  0.8607  0.1559  0.9252
  285MOL0     H39322   1.260   0.378   5.409  3.0053  2.3706 -3.8487
  285MOL0     H39323   1.414   0.270   5.407 -0.1037  1.1880  0.8233
  285MOL0     H39324   1.233   0.280   5.218 -1.8909 -0.7978 -0.7524
  285MOL0     H39325   1.126   0.208   5.332  0.1109  2.7640 -0.4408
  285MOL0     H39326   1.315  -0.141   5.212 -3.6136 -1.1132 -0.5854
  285MOL0     H39327   1.064   0.521   5.843  2.1004 -0.5432  0.4351
  285MOL0     H39328   0.926   0.595   6.028  0.6789  1.1513 -0.6913
  285MOL0     H39329   1.020   0.677   6.161  1.6712  0.4873 -0.2618
  285MOL0     H39330   1.026   0.722   5.997  1.1798  2.6354  2.3039
  286MOL0     O39331   0.147  10.508   6.969  0.0314  1.0595  0.8596
  286MOL0     C39332   0.127  10.622   6.934  1.3439 -0.2128  0.1433
  286MOL0     O39333   0.036  10.668   6.846  0.1314 -0.0268 -0.7029
  286MOL0     C39334  -0.036  10.575   6.770 -0.3702 -0.1434  0.9305
  286MOL0     C39335  -0.030  10.591   6.631 -0.4664  0.7647  1.1876
  286MOL0     C39336  -0.086  10.505   6.542  0.0530  0.6892 -0.1881
  286MOL0     C39337  -0.160  10.388   6.594  0.0096 -0.6537 -0.0795
  286MOL0     O39338  -0.225  10.295   6.510 -0.3987  0.1469 -0.1502
  286MOL0     C39339  -0.165  10.279   6.378 -0.6024 -0.1442  0.2283
  286MOL0     C39340  -0.239  10.175   6.299  0.2752  0.3299 -0.1420
  286MOL0     C39341  -0.238  10.209   6.149  0.3218  0.0471 -0.1932
  286MOL0     C39342  -0.099  10.214   6.073  0.4603  0.5582 -0.4586
  286MOL0     C39343  -0.020  10.076   6.083 -0.4505  0.1664 -0.8034
  286MOL0     C39344   0.104  10.076   5.990  0.6589 -1.0160 -0.3310
  286MOL0     C39345   0.220   9.988   6.045  0.6216 -0.0765  0.5689
  286MOL0     C39346   0.301  10.024   6.175  0.2052  0.1276  0.1044
  286MOL0     N39347   0.291  10.162   6.217 -0.6534  0.3807 -0.5416
  286MOL0     C39348   0.293  10.202   6.349  0.6821 -0.0710  0.8713
  286MOL0     C39349   0.332  10.330   6.351  0.1838 -0.1140  0.4639
  286MOL0     C39350   0.355  10.415   6.477 -0.4742  0.0974 -0.4475
  286MOL0     C39351   0.512  10.436   6.510 -0.1694 -0.7450  0.7157
  286MOL0     C39352   0.535  10.557   6.600  0.4919  0.4908  0.7394
  286MOL0     C39353   0.684  10.586   6.633  0.1828 -0.7575 -1.2044
  286MOL0     O39354   0.685  10.693   6.735  0.6124  0.3086 -0.2950
  286MOL0     C39355   0.795  10.694   6.821  0.2977 -0.4108 -0.1542
  286MOL0     C39356   0.769  10.745   6.946  0.2594  0.4041 -0.6013
  286MOL0     C39357   0.872  10.749   7.047  0.4318 -1.5053 -0.4866
  286MOL0     C39358   0.839  10.814   7.173 -0.4851  0.8506  1.4687
  286MOL0     C39359   0.996  10.689   7.020 -0.2647 -0.2960 -0.0449
  286MOL0     C39360   1.118  10.701   7.107  0.5434  0.4077 -0.1447
  286MOL0     O39361   1.216  10.606   7.094  0.3622 -0.0611 -0.2367
  286MOL0     C39362   1.318  10.613   7.174 -0.8287  0.0794 -0.4591
  286MOL0     C39363   1.443  10.658   7.120 -0.5204  0.0000 -0.3507
  286MOL0     C39364   1.545  10.703   7.207  0.6445 -0.4851  0.1177
  286MOL0     C39365   1.533  10.678   7.341  0.0294  0.2092  0.1478
  286MOL0     O39366   1.631  10.694   7.430 -0.0597 -0.1713 -0.8254
  286MOL0     C39367   1.756  10.752   7.388  1.0625 -0.3396 -0.7058
  286MOL0     C39368   1.843  10.628   7.365 -1.0982 -0.0089 -0.0880
  286MOL0     C39369   1.989  10.661   7.380  0.0241  0.0547 -0.9899
  286MOL0     C39370   2.093  10.553   7.341  0.0963  0.1481  0.3345
  286MOL0     C39371   2.234  10.609   7.366  0.7695 -0.0653 -0.1007
  286MOL0     C39372   2.352  10.522   7.337  0.5758  0.8518  0.0540
  286MOL0     C39373   2.353  10.385   7.408  0.9844 -0.3538 -0.4448
  286MOL0     C39374   2.468  10.311   7.360 -0.1380 -0.3004 -1.0868
  286MOL0    Cl39375   2.622  10.400   7.426 -0.8191 -0.2141  0.8196
  286MOL0     C39376   1.422  10.609   7.392  0.8297 -0.0688  0.2739
  286MOL0     C39377   1.312  10.581   7.311 -0.2898  1.0544 -0.9815
  286MOL0     O39378   1.127  10.796   7.191 -0.1587  0.1844  0.1978
  286MOL0     C39379   1.015  10.630   6.898  0.2977  0.4853 -0.0667
  286MOL0     C39380   0.918  10.635   6.803 -0.4977 -0.2472  0.1715
  286MOL0     N39381   0.367  10.371   6.221 -0.1973  0.0214  0.6456
  286MOL0     N39382   0.340  10.276   6.143 -0.1362 -0.7837  0.6409
  286MOL0     C39383  -0.165  10.374   6.726 -1.6582 -0.3961  0.0779
  286MOL0     C39384  -0.095  10.464   6.811 -0.1334  0.9277 -1.6551
  286MOL0     C39385   0.207  10.728   6.992 -0.8936 -0.1275 -0.5655
  286MOL0     C39386   0.167  10.765   7.129 -0.0074  0.1508  1.2728
  286MOL0     C39387   0.228  10.870   7.193 -0.2976 -0.2654  0.6577
  286MOL0     C39388   0.329  10.941   7.135 -0.5931 -0.6620  0.8069
  286MOL0     O39389   0.385  11.057   7.189 -1.1768  0.3409 -0.4201
  286MOL0     C39390   0.529  11.030   7.207  0.2748 -0.4736  0.8370
  286MOL0     C39391   0.615  11.146   7.274  0.3053 -0.2679  0.4207
  286MOL0     C39392   0.568  11.161   7.428  0.5665  0.2010  0.9106
  286MOL0     C39393   0.639  11.268   7.507  0.2841 -0.1120  0.0170
  286MOL0     C39394   0.567  11.392   7.505 -0.1672  0.1201  0.0663
  286MOL0     C39395   0.478  11.473   7.497  0.1225  0.0939 -0.7314
  286MOL0     C39396   0.368  10.909   7.002  0.6932  0.7767  0.1239
  286MOL0     C39397   0.298  10.811   6.931  0.4830  0.3143  1.2631
  286MOL0     C39398   0.329  10.788   6.785  0.3975 -0.0949 -0.9608
  286MOL0     H39399   0.006  10.681   6.583 -1.7207 -0.0862 -1.5615
  286MOL0     H39400  -0.052  10.524   6.441  1.6510 -4.1135 -0.8201
  286MOL0     H39401  -0.065  10.238   6.393  0.9405  2.1392 -2.9697
  286MOL0     H39402  -0.173  10.367   6.315  1.0661 -2.0527 -2.8816
  286MOL0     H39403  -0.188  10.081   6.317 -2.1730 -0.8262  1.4218
  286MOL0     H39404  -0.344  10.171   6.332  0.6812 -0.2415  1.1656
  286MOL0     H39405  -0.308  10.138   6.105  0.3786  1.1418 -2.1686
  286MOL0     H39406  -0.285  10.307   6.159  0.9834  0.3139  0.4209
  286MOL0     H39407  -0.130  10.237   5.970 -0.9256  0.7905 -0.0050
  286MOL0     H39408  -0.045  10.301   6.110 -0.4597  2.0290 -2.4127
  286MOL0     H39409  -0.086   9.990   6.065  0.1279  0.0399 -2.5585
  286MOL0     H39410   0.031  10.061   6.178  4.5522  1.4317 -2.9523
  286MOL0     H39411   0.072  10.036   5.893 -3.7290 -1.1328  0.9591
  286MOL0     H39412   0.130  10.182   5.977 -0.8806 -0.4668  0.7505
  286MOL0     H39413   0.295   9.974   5.967 -2.6612  3.0320 -3.5909
  286MOL0     H39414   0.176   9.889   6.060  0.8781 -0.4776 -1.1216
  286MOL0     H39415   0.258   9.968   6.258 -0.7513 -2.4046 -1.9455
  286MOL0     H39416   0.408  10.000   6.167  1.0321  2.0571  3.3369
  286MOL0     H39417   0.244  10.154   6.434 -4.6178 -1.6976 -2.6033
  286MOL0     H39418   0.316  10.366   6.566  0.0231  1.2875  0.4495
  286MOL0     H39419   0.308  10.514   6.474  0.6218  0.6196 -1.3373
  286MOL0     H39420   0.554  10.339   6.539  2.1325  0.3593  1.3436
  286MOL0     H39421   0.553  10.461   6.412 -0.5086 -4.2027 -0.4519
  286MOL0     H39422   0.471  10.638   6.563  0.5847  1.0430  1.7235
  286MOL0     H39423   0.499  10.527   6.699  3.6080 -1.1173  1.5464
  286MOL0     H39424   0.733  10.496   6.672  1.8698  1.4509  2.2050
  286MOL0     H39425   0.737  10.627   6.547 -2.4071  0.0818 -2.5059
  286MOL0     H39426   0.677  10.800   6.960 -0.2873  1.3683 -5.8765
  286MOL0     H39427   0.820  10.920   7.154  0.3910  0.6336 -0.8936
  286MOL0     H39428   0.928  10.818   7.237  0.5601  0.9372  0.0485
  286MOL0     H39429   0.757  10.765   7.227 -1.9386  4.0236  2.4134
  286MOL0     H39430   1.466  10.676   7.015 -0.5897 -4.5405 -1.3135
  286MOL0     H39431   1.627  10.753   7.157 -0.9246  1.4115 -0.6666
  286MOL0     H39432   1.740  10.824   7.307  1.9142  4.8637  3.2169
  286MOL0     H39433   1.807  10.812   7.463  2.6666 -2.0257 -0.3872
  286MOL0     H39434   1.838  10.558   7.448  1.7056  1.3212  1.3391
  286MOL0     H39435   1.818  10.582   7.269 -1.8262 -2.3804  1.1614
  286MOL0     H39436   2.006  10.680   7.487 -1.4514 -0.1720 -0.6974
  286MOL0     H39437   2.019  10.748   7.322 -0.8493  0.2117 -1.2200
  286MOL0     H39438   2.081  10.524   7.236  1.8879 -0.8840  0.3763
  286MOL0     H39439   2.086  10.463   7.402 -0.2818 -1.8557 -2.4401
  286MOL0     H39440   2.241  10.700   7.305 -0.0503 -0.6002 -1.0230
  286MOL0     H39441   2.237  10.639   7.471  0.8876  1.2128 -0.4534
  286MOL0     H39442   2.437  10.584   7.365  3.0339 -2.2648  0.1040
  286MOL0     H39443   2.353  10.505   7.229  0.4182 -1.3305  0.3558
  286MOL0     H39444   2.258  10.339   7.379  1.4298 -0.2499 -2.1756
  286MOL0     H39445   2.345  10.412   7.513 -0.8170  0.5940 -0.7713
  286MOL0     H39446   2.462  10.302   7.252 -1.4717 -1.2908 -0.9380
  286MOL0     H39447   2.464  10.210   7.402  1.6673 -0.8347 -2.0600
  286MOL0     H39448   1.417  10.580   7.497 -0.0445 -1.5688 -0.1679
  286MOL0     H39449   1.221  10.541   7.353 -0.2600  1.6074 -0.3779
  286MOL0     H39450   1.112  10.584   6.884  1.1355  1.5409  1.7929
  286MOL0     H39451   0.945  10.595   6.706  2.8974 -0.7862  1.2108
  286MOL0     H39452  -0.210  10.292   6.780 -0.9747 -1.0971 -0.4009
  286MOL0     H39453  -0.081  10.443   6.917  0.2503 -0.8924 -2.0291
  286MOL0     H39454   0.082  10.712   7.170  1.5132 -3.0572  0.6053
  286MOL0     H39455   0.191  10.895   7.292  3.1847 -1.5422  2.4529
  286MOL0     H39456   0.531  10.948   7.279  0.0223 -0.9388  0.3131
  286MOL0     H39457   0.591  10.999   7.123  1.7987  0.8078  1.4365
  286MOL0     H39458   0.580  11.238   7.228 -2.3477 -0.6488  1.4758
  286MOL0     H39459   0.721  11.127   7.257  0.1718 -0.0971 -0.6952
  286MOL0     H39460   0.461  11.182   7.428  0.0243 -2.1629 -1.0085
  286MOL0     H39461   0.589  11.067   7.478  3.0134 -1.1224 -2.2594
  286MOL0     H39462   0.735  11.289   7.458  1.1152 -2.8404  0.3344
  286MOL0     H39463   0.659  11.250   7.613  0.7631  2.1751  0.3677
  286MOL0     H39464   0.411  11.556   7.490  0.5036  0.3030 -2.5445
  286MOL0     H39465   0.438  10.973   6.949 -2.4856  2.0818 -2.8194
  286MOL0     H39466   0.313  10.880   6.729 -0.8069 -1.0255 -2.2117
  286MOL0     H39467   0.428  10.742   6.775  0.5410  0.0661 -0.3200
  286MOL0     H39468   0.268  10.709   6.741 -1.0638  0.4800 -0.0267
  287MOL0     O39469   6.057   9.692  10.427  0.3917  0.5641 -0.0241
  287MOL0     C39470   5.982   9.713  10.516 -0.0050 -1.0021 -1.5825
  287MOL0     O39471   5.931   9.837  10.561  0.8305  0.7300  0.6483
  287MOL0     C39472   5.948   9.947  10.484  1.6279 -0.6158 -0.7885
  287MOL0     C39473   5.889   9.943  10.362 -0.4350 -0.6589  0.3438
  287MOL0     C39474   5.919  10.047  10.273  1.2020  0.3318 -0.9559
  287MOL0     C39475   5.994  10.156  10.315  0.1525  0.2180 -0.3732
  287MOL0     O39476   6.041  10.255  10.228  0.6711 -0.6919  0.2251
  287MOL0     C39477   5.935  10.328  10.166  0.0629 -0.5974  0.3401
  287MOL0     C39478   5.979  10.445  10.081  0.2272 -0.5184 -0.9229
  287MOL0     C39479   6.003  10.392   9.934 -1.0116 -0.2803  0.1595
  287MOL0     C39480   6.068  10.506   9.846 -0.1371 -0.6015 -0.3831
  287MOL0     C39481   6.068  10.467   9.698 -0.0981 -0.3016 -0.0104
  287MOL0     C39482   6.123  10.588   9.621  0.1695 -0.1695 -0.8285
  287MOL0     C39483   6.125  10.565   9.473  0.0331 -0.6431  0.8345
  287MOL0     C39484   6.187  10.679   9.398 -0.3151  0.2661  0.8017
  287MOL0     N39485   6.324  10.650   9.349  0.7689  0.5532  0.3479
  287MOL0     C39486   6.364  10.576   9.237  1.2005  0.0960 -0.0559
  287MOL0     C39487   6.499  10.598   9.224  0.0380 -1.2088 -1.5477
  287MOL0     C39488   6.589  10.560   9.110  1.2120  0.9841 -0.9096
  287MOL0     C39489   6.690  10.463   9.162  1.7261 -0.6491 -0.0298
  287MOL0     C39490   6.800  10.530   9.244 -0.9296  0.3692 -0.5114
  287MOL0     C39491   6.907  10.432   9.292 -0.0417  0.4083 -0.2075
  287MOL0     O39492   6.974  10.391   9.178  0.7608  0.0731 -0.8228
  287MOL0     C39493   7.086  10.315   9.196 -0.3371  0.0838  0.3051
  287MOL0     C39494   7.161  10.272   9.088 -0.1285 -0.4436  0.2945
  287MOL0     C39495   7.286  10.203   9.101  0.6582 -1.0376 -0.8768
  287MOL0     C39496   7.348  10.165   8.963  0.8868 -0.3843 -0.4903
  287MOL0     C39497   7.339  10.170   9.237  0.1848  0.0847  0.0352
  287MOL0     C39498   7.472  10.113   9.265 -0.3885  0.0360 -0.6901
  287MOL0     O39499   7.502  10.008   9.185 -0.0448  0.2783  0.0743
  287MOL0     C39500   7.626   9.950   9.201 -0.5486 -0.9534 -0.7347
  287MOL0     C39501   7.750  10.014   9.228  0.8420  0.6316  0.2460
  287MOL0     C39502   7.861   9.937   9.250 -0.8258 -0.6749  0.3313
  287MOL0     C39503   7.858   9.798   9.239 -0.8273  0.3131  0.5188
  287MOL0     O39504   7.978   9.731   9.260  0.5149 -0.5998  0.5466
  287MOL0     C39505   7.996   9.587   9.280 -1.2855 -0.2768 -0.6957
  287MOL0     C39506   8.030   9.506   9.143  0.2529 -0.1838 -0.7316
  287MOL0     C39507   8.011   9.349   9.158  0.1429  0.3301 -0.1910
  287MOL0     C39508   8.102   9.281   9.065 -1.1103  0.3256  0.7680
  287MOL0     C39509   8.060   9.137   9.031  0.0069  0.1163 -0.6357
  287MOL0     C39510   8.098   9.035   9.136 -0.3560 -0.8284  0.1596
  287MOL0     C39511   8.045   8.897   9.099 -0.0926 -0.5458  0.5781
  287MOL0     C39512   8.142   8.784   9.150  0.1538  0.4098 -0.6499
  287MOL0    Cl39513   8.303   8.792   9.078  0.0382  0.2990 -0.1520
  287MOL0     C39514   7.739   9.733   9.214 -1.1894 -0.1473 -0.4912
  287MOL0     C39515   7.629   9.814   9.192 -0.4511  0.4031 -0.5596
  287MOL0     O39516   7.533  10.139   9.370 -0.0870  0.0346 -0.2795
  287MOL0     C39517   7.267  10.218   9.347  0.9670  0.3776  0.1103
  287MOL0     C39518   7.143  10.279   9.324  0.2319  0.2660  0.7165
  287MOL0     N39519   6.528  10.690   9.330  0.6730  0.9884  0.3496
  287MOL0     N39520   6.423  10.724   9.402  0.7097 -0.3298 -0.4089
  287MOL0     C39521   6.040  10.169  10.441  0.5859 -0.0743  0.3502
  287MOL0     C39522   6.016  10.062  10.534  0.6209  0.2217  0.6890
  287MOL0     C39523   5.967   9.601  10.613  0.1163  1.2126  0.2860
  287MOL0     C39524   5.965   9.621  10.752 -0.2645 -0.5880  0.1699
  287MOL0     C39525   5.938   9.521  10.837 -0.7026  0.3181  0.1204
  287MOL0     C39526   5.943   9.397  10.791  0.4496  0.6433 -0.6834
  287MOL0     O39527   5.942   9.279  10.864 -0.5389 -0.1773  0.3072
  287MOL0     C39528   5.935   9.287  11.004 -0.1406 -0.0941 -0.5208
  287MOL0     C39529   6.074   9.324  11.076  0.1603  0.5019 -0.5870
  287MOL0     C39530   6.201   9.235  11.039 -0.2297 -0.1968  0.4104
  287MOL0     C39531   6.305   9.302  10.947  0.4065  0.1175 -0.3813
  287MOL0     C39532   6.323   9.450  10.981  0.6729  0.1237  0.6868
  287MOL0     C39533   6.331   9.572  10.974 -0.2758  0.2685 -0.0457
  287MOL0     C39534   5.930   9.373  10.655  0.8101 -0.6411 -1.5970
  287MOL0     C39535   5.937   9.473  10.562 -0.7343  0.7037 -0.4124
  287MOL0     C39536   5.926   9.428  10.418  0.2102  0.0519 -0.7709
  287MOL0     H39537   5.828   9.856  10.340 -1.1961 -0.5811  2.0052
  287MOL0     H39538   5.887  10.042  10.170 -0.5972 -2.2200 -0.3825
  287MOL0     H39539   5.880  10.378  10.246 -2.4128 -3.5240  0.6178
  287MOL0     H39540   5.853  10.281  10.112 -1.4705  1.2817  0.9270
  287MOL0     H39541   5.901  10.520  10.097 -0.1760 -1.2658  0.8837
  287MOL0     H39542   6.069  10.483  10.130  0.8409 -1.2399 -1.4578
  287MOL0     H39543   6.067  10.305   9.916 -1.3918 -0.4642 -0.3563
  287MOL0     H39544   5.905  10.364   9.895  0.1904 -4.4191 -0.3789
  287MOL0     H39545   5.999  10.591   9.856 -1.4239 -1.8932  3.9129
  287MOL0     H39546   6.169  10.538   9.872 -1.5188  3.5177  0.7303
  287MOL0     H39547   5.970  10.433   9.663 -1.5849  0.7247  2.8224
  287MOL0     H39548   6.131  10.379   9.680  1.2133  0.9892 -2.3202
  287MOL0     H39549   6.076  10.682   9.651 -2.7852 -2.1840  1.5130
  287MOL0     H39550   6.227  10.604   9.652  0.5745  1.3009 -2.7940
  287MOL0     H39551   6.024  10.551   9.435  0.4196 -3.2864  0.6354
  287MOL0     H39552   6.171  10.468   9.452 -1.9184 -1.6067  0.7931
  287MOL0     H39553   6.135  10.698   9.304  3.0880 -0.6225 -1.4471
  287MOL0     H39554   6.171  10.768   9.459 -3.2694  2.6494 -2.9852
  287MOL0     H39555   6.292  10.531   9.169  1.5588 -2.5633  1.1759
  287MOL0     H39556   6.628  10.646   9.055 -2.0582  3.3067  0.0305
  287MOL0     H39557   6.539  10.513   9.025 -1.1657  0.5949  0.5746
  287MOL0     H39558   6.635  10.389   9.223 -0.0180  0.3791 -0.2914
  287MOL0     H39559   6.722  10.407   9.073 -3.9208 -0.5880 -2.5313
  287MOL0     H39560   6.846  10.606   9.180 -0.4110  0.3492 -0.1676
  287MOL0     H39561   6.763  10.598   9.322  1.3460  3.2428 -1.7553
  287MOL0     H39562   6.979  10.478   9.361  1.2512 -2.7585  0.7287
  287MOL0     H39563   6.859  10.351   9.347  1.4214 -1.4099 -1.4717
  287MOL0     H39564   7.129  10.286   8.985 -1.4427  0.2091  0.7663
  287MOL0     H39565   7.451  10.131   8.971  1.3925  1.2321  0.2070
  287MOL0     H39566   7.361  10.253   8.900  1.8436 -0.7762 -0.8584
  287MOL0     H39567   7.291  10.086   8.913  1.5323 -0.6276 -0.8462
  287MOL0     H39568   7.752  10.122   9.230 -1.1577  0.6981  0.4227
  287MOL0     H39569   7.952   9.991   9.272 -1.2337  0.3355 -0.3418
  287MOL0     H39570   8.077   9.566   9.350  1.2339 -1.4465 -3.7360
  287MOL0     H39571   7.903   9.545   9.321 -2.2072  3.4880  1.5492
  287MOL0     H39572   7.962   9.542   9.066  2.2447  1.3001 -1.8913
  287MOL0     H39573   8.133   9.532   9.120  0.1167  0.4745 -0.5983
  287MOL0     H39574   7.904   9.325   9.156  0.4596 -1.3269 -2.6481
  287MOL0     H39575   8.050   9.330   9.258 -1.9639  1.5290  0.9349
  287MOL0     H39576   8.201   9.281   9.111 -0.8109  0.6660  0.1405
  287MOL0     H39577   8.111   9.341   8.974 -1.6266  3.3621  2.5696
  287MOL0     H39578   7.954   9.126   9.010  0.5462 -1.8644 -2.6873
  287MOL0     H39579   8.104   9.103   8.937  4.3358 -0.5107  1.3384
  287MOL0     H39580   8.078   9.069   9.238 -1.0883  1.3907 -0.6742
  287MOL0     H39581   8.208   9.039   9.141 -0.4438  1.6328  1.8179
  287MOL0     H39582   8.041   8.876   8.991 -0.3223 -4.2758  1.1749
  287MOL0     H39583   7.946   8.880   9.141 -0.3576 -0.8907 -0.1581
  287MOL0     H39584   8.106   8.684   9.125 -1.5474  0.6363  0.7958
  287MOL0     H39585   8.142   8.781   9.259  2.5123 -0.5524 -0.6011
  287MOL0     H39586   7.748   9.625   9.207  3.1549  0.0064  0.1608
  287MOL0     H39587   7.535   9.765   9.171  1.4316 -3.0050 -1.8107
  287MOL0     H39588   7.295  10.215   9.452 -2.0970 -0.1811  0.9902
  287MOL0     H39589   7.082  10.295   9.412 -1.8494 -1.6106 -0.2815
  287MOL0     H39590   6.099  10.257  10.466  0.7230 -0.6694  2.2712
  287MOL0     H39591   6.064  10.053  10.631  0.4181 -0.3850  0.7310
  287MOL0     H39592   5.981   9.724  10.783 -3.9823 -0.7058  3.3894
  287MOL0     H39593   5.937   9.543  10.944  0.4274 -1.6704  0.6068
  287MOL0     H39594   5.849   9.351  11.025  0.4262  1.0235 -1.5126
  287MOL0     H39595   5.907   9.187  11.039  0.9147 -0.8722 -1.8414
  287MOL0     H39596   6.072   9.307  11.184  1.1912  0.6671 -0.5253
  287MOL0     H39597   6.091   9.431  11.086  0.2108  0.2962  3.2196
  287MOL0     H39598   6.250   9.197  11.130  2.7361 -2.0630 -1.7849
  287MOL0     H39599   6.153   9.150  10.989  0.2366  0.7298 -1.6911
  287MOL0     H39600   6.282   9.296  10.841  1.6113  1.6298 -0.7752
  287MOL0     H39601   6.399   9.248  10.961  0.1877 -0.1277  0.1916
  287MOL0     H39602   6.344   9.676  10.951 -0.7796  1.2434  3.4888
  287MOL0     H39603   5.937   9.269  10.623  3.4043 -1.2439  0.5873
  287MOL0     H39604   6.014   9.382  10.372 -0.6202  0.8479 -3.3269
  287MOL0     H39605   5.836   9.368  10.402  0.0537 -0.7768  2.5303
  287MOL0     H39606   5.914   9.508  10.345 -2.5353 -0.7359 -1.2735
  288MOL0     O39607   4.505   0.779  10.313 -0.5955  0.5966 -0.4276
  288MOL0     C39608   4.536   0.846  10.220  0.7561  0.6082  0.5787
  288MOL0     O39609   4.653   0.832  10.146 -0.8228  0.6928  0.0217
  288MOL0     C39610   4.743   0.736  10.189 -0.0200  0.6507  1.1473
  288MOL0     C39611   4.876   0.762  10.201  0.6475 -0.8642 -0.1980
  288MOL0     C39612   4.967   0.676  10.261 -0.3762  0.3803  0.0424
  288MOL0     C39613   4.930   0.554  10.308  0.7935  0.5208  0.4533
  288MOL0     O39614   5.026   0.483  10.383 -0.0973 -0.1810  0.3101
  288MOL0     C39615   4.979   0.383  10.475  0.3126  1.2208 -0.6659
  288MOL0     C39616   4.997   0.241  10.412 -0.0959 -0.1317  0.3830
  288MOL0     C39617   5.139   0.192  10.380  0.5303 -1.2189 -0.1252
  288MOL0     C39618   5.195   0.249  10.247  0.1792 -0.1419  0.5561
  288MOL0     C39619   5.342   0.216  10.240 -0.6382  0.2598  0.3640
  288MOL0     C39620   5.353   0.069  10.209 -0.3482  0.1839 -0.1864
  288MOL0     C39621   5.491   0.019  10.248 -0.3574  1.1473  0.6569
  288MOL0     C39622   5.502   0.022  10.400 -0.0163  0.4834  0.8666
  288MOL0     N39623   5.630  -0.040  10.433 -0.2721 -0.1522 -0.3167
  288MOL0     C39624   5.744   0.034  10.455  0.3491 -0.4692  0.3243
  288MOL0     C39625   5.831  -0.062  10.489 -0.8467  0.3477 -0.1364
  288MOL0     C39626   5.974  -0.032  10.526  0.7657 -0.9700 -0.3219
  288MOL0     C39627   5.992  -0.017  10.678 -0.3169  0.1433  0.1489
  288MOL0     C39628   6.101   0.083  10.743 -0.1775 -0.4332  0.0548
  288MOL0     C39629   6.067   0.100  10.892 -1.2192 -0.8985 -0.8786
  288MOL0     O39630   5.924   0.113  10.914  0.1707 -0.5040  0.3643
  288MOL0     C39631   5.882   0.099  11.048  0.6037  0.2160 -0.1920
  288MOL0     C39632   5.964   0.105  11.160 -0.5301  0.0023 -0.1713
  288MOL0     C39633   5.918   0.086  11.284  0.4759 -0.8173 -1.4467
  288MOL0     C39634   6.005   0.108  11.403 -0.3725  1.2776 -0.4541
  288MOL0     C39635   5.778   0.057  11.301 -0.7611  0.3471 -0.2577
  288MOL0     C39636   5.717   0.027  11.433 -0.4056 -1.0564 -0.6621
  288MOL0     O39637   5.608   0.094  11.461  0.2596  0.0025  0.8225
  288MOL0     C39638   5.561   0.096  11.585 -0.8612 -1.3963 -0.5761
  288MOL0     C39639   5.421   0.128  11.594 -0.4597 -0.8402  0.6633
  288MOL0     C39640   5.356   0.162  11.713 -0.5410  0.1876  0.3302
  288MOL0     C39641   5.434   0.154  11.833  0.0599 -0.5699  1.0294
  288MOL0     O39642   5.390   0.173  11.960 -0.6849  0.7745  0.0839
  288MOL0     C39643   5.247   0.149  11.995  0.3305 -0.0127  0.6731
  288MOL0     C39644   5.218   0.190  12.139 -0.6844  0.1077 -0.5686
  288MOL0     C39645   5.286   0.122  12.258 -0.3764  0.2171 -0.7443
  288MOL0     C39646   5.417   0.190  12.299 -0.7437 -0.2454 -0.4925
  288MOL0     C39647   5.468   0.169  12.444 -0.2929  0.7149  0.9323
  288MOL0     C39648   5.429   0.031  12.506  0.1176  0.2613 -1.0024
  288MOL0     C39649   5.515   0.012  12.638 -0.1968  0.4528  1.0814
  288MOL0     C39650   5.461  -0.115  12.705 -0.7711 -0.0241 -0.0232
  288MOL0    Cl39651   5.500  -0.261  12.593  0.3494 -0.0951  0.2181
  288MOL0     C39652   5.565   0.112  11.819  0.0936  0.7042 -0.4511
  288MOL0     C39653   5.631   0.089  11.697  0.9061  0.1507 -0.4258
  288MOL0     O39654   5.759  -0.067  11.490  0.9276  0.2986 -0.1361
  288MOL0     C39655   5.700   0.040  11.190  0.2952 -0.4405 -0.3569
  288MOL0     C39656   5.753   0.065  11.058  0.1381 -0.1010  0.4747
  288MOL0     N39657   5.779  -0.185  10.456 -0.3520 -0.0177 -0.6362
  288MOL0     N39658   5.654  -0.174  10.429  0.0757 -0.2330  0.1205
  288MOL0     C39659   4.796   0.506  10.285  0.8243 -1.4404  0.6896
  288MOL0     C39660   4.706   0.601  10.224  0.4999 -0.8957 -0.3454
  288MOL0     C39661   4.433   0.938  10.162  1.0985 -0.2648  0.3252
  288MOL0     C39662   4.334   0.998  10.249 -1.0121  0.3118  0.4185
  288MOL0     C39663   4.233   1.077  10.198  1.2057 -0.7542  0.1804
  288MOL0     C39664   4.227   1.112  10.064  0.1042  0.1570  0.5721
  288MOL0     O39665   4.129   1.207  10.033 -0.2432  0.2965  0.2957
  288MOL0     C39666   4.151   1.284   9.912  0.2248  0.4733 -1.3814
  288MOL0     C39667   4.044   1.383   9.884 -0.7572 -0.5402  0.5218
  288MOL0     C39668   4.038   1.505   9.977 -0.9155  0.2822 -0.4933
  288MOL0     C39669   3.907   1.574   9.948  0.0932  0.4028 -0.3412
  288MOL0     C39670   3.907   1.635   9.818  0.4931  0.1999 -0.4793
  288MOL0     C39671   3.916   1.691   9.712  0.5002 -0.9421 -0.1247
  288MOL0     C39672   4.329   1.062   9.982  0.7840 -0.6443 -0.2338
  288MOL0     C39673   4.438   0.990  10.027  0.6827  0.2224  0.6109
  288MOL0     C39674   4.549   0.937   9.922 -0.1957 -0.7133 -0.8433
  288MOL0     H39675   4.912   0.860  10.170 -0.4844 -0.2356  0.3824
  288MOL0     H39676   5.065   0.718  10.283  0.7405 -1.7344 -0.6276
  288MOL0     H39677   4.872   0.400  10.490  0.4556  1.2891  0.3391
  288MOL0     H39678   5.034   0.399  10.568  0.0077  0.6839 -0.3923
  288MOL0     H39679   4.954   0.156  10.466  0.0149 -0.4980 -0.0930
  288MOL0     H39680   4.934   0.243  10.322  1.5403 -0.5747 -0.8254
  288MOL0     H39681   5.197   0.231  10.464 -2.3780 -0.7075  1.7768
  288MOL0     H39682   5.146   0.083  10.384  0.0267 -1.2818 -0.7190
  288MOL0     H39683   5.136   0.197  10.171  1.7068 -1.6989  0.3665
  288MOL0     H39684   5.185   0.358  10.239  1.6620 -0.0652 -0.7157
  288MOL0     H39685   5.385   0.252  10.334 -3.1805  0.0418  1.7231
  288MOL0     H39686   5.383   0.273  10.157 -2.5534  1.6526  0.3217
  288MOL0     H39687   5.283   0.002  10.260 -0.3621  1.3071  1.3461
  288MOL0     H39688   5.332   0.074  10.102  4.0399  2.5439 -1.1784
  288MOL0     H39689   5.577   0.072  10.207  1.4190 -2.3852 -0.6422
  288MOL0     H39690   5.502  -0.085  10.214 -2.2964  0.8014  0.9500
  288MOL0     H39691   5.502   0.127  10.431 -3.4909  1.6809 -2.3968
  288MOL0     H39692   5.415  -0.028  10.445 -1.6519  0.4255 -2.1301
  288MOL0     H39693   5.760   0.140  10.440 -4.1142  0.4905  0.9865
  288MOL0     H39694   6.005   0.061  10.478 -2.4926  0.3230 -0.1636
  288MOL0     H39695   6.036  -0.113  10.485  1.0653  0.3813 -2.6750
  288MOL0     H39696   5.890  -0.001  10.715  0.3482  1.5131  1.5321
  288MOL0     H39697   6.014  -0.117  10.717  0.8256  1.4610  3.2668
  288MOL0     H39698   6.206   0.054  10.734 -0.4535 -1.3982 -0.1540
  288MOL0     H39699   6.075   0.177  10.693 -0.4670 -1.1013 -1.0960
  288MOL0     H39700   6.091   0.004  10.939 -1.0274 -0.4345 -0.0028
  288MOL0     H39701   6.131   0.180  10.931  0.0215 -2.0162 -0.5540
  288MOL0     H39702   6.068   0.131  11.141 -0.4577  1.8674  2.2562
  288MOL0     H39703   6.063   0.016  11.412 -2.2598  0.0075 -0.8985
  288MOL0     H39704   5.951   0.122  11.497 -0.2311 -1.2208  0.0682
  288MOL0     H39705   6.068   0.195  11.382  1.8618 -0.1446 -0.0179
  288MOL0     H39706   5.373   0.128  11.497  2.3188  1.5035 -0.8817
  288MOL0     H39707   5.249   0.178  11.715 -0.7584 -0.7126 -1.3507
  288MOL0     H39708   5.178   0.210  11.935  1.5504  3.1643  2.2968
  288MOL0     H39709   5.224   0.042  11.983 -1.3330  0.2995  0.8261
  288MOL0     H39710   5.242   0.296  12.150 -0.5396 -0.0191  0.3485
  288MOL0     H39711   5.109   0.191  12.149 -0.5588 -0.6354  1.3019
  288MOL0     H39712   5.316   0.022  12.226  3.2809  0.9961 -0.1372
  288MOL0     H39713   5.221   0.114  12.346 -0.9913  0.9307 -1.1222
  288MOL0     H39714   5.408   0.299  12.286  0.0677  0.0041  0.8874
  288MOL0     H39715   5.497   0.165  12.229 -1.5148 -3.3785 -0.4140
  288MOL0     H39716   5.577   0.167  12.442 -0.2122 -3.6063 -0.1712
  288MOL0     H39717   5.434   0.235  12.524  2.3209 -0.2112  2.9432
  288MOL0     H39718   5.444  -0.050  12.434  0.9164 -3.1112  2.6696
  288MOL0     H39719   5.325   0.032  12.540  0.4131 -0.2543 -0.0629
  288MOL0     H39720   5.511   0.087  12.717  1.5941 -0.4045  2.0589
  288MOL0     H39721   5.625   0.014  12.630 -0.0742 -1.3921  1.6534
  288MOL0     H39722   5.353  -0.102  12.719 -0.9120 -2.2678  1.7218
  288MOL0     H39723   5.511  -0.120  12.802  1.0170  0.3109 -0.9002
  288MOL0     H39724   5.624   0.112  11.910 -2.3174 -3.6108  1.4259
  288MOL0     H39725   5.738   0.075  11.696  1.3945  3.0735 -2.8944
  288MOL0     H39726   5.599   0.003  11.208  0.2723 -1.4533 -2.2924
  288MOL0     H39727   5.689   0.059  10.970  0.7357  4.2481 -0.4685
  288MOL0     H39728   4.755   0.410  10.313 -0.8928 -0.8564  0.3161
  288MOL0     H39729   4.602   0.575  10.210  0.5888 -0.5237 -1.8468
  288MOL0     H39730   4.352   0.981  10.355  2.4612  1.3065  0.0778
  288MOL0     H39731   4.147   1.102  10.258 -2.2408 -5.2877 -2.2294
  288MOL0     H39732   4.250   1.329   9.922 -0.1882  1.1027  0.1856
  288MOL0     H39733   4.153   1.209   9.832 -2.2614  1.1230 -2.1500
  288MOL0     H39734   3.957   1.317   9.886 -1.7180  0.6187 -1.0154
  288MOL0     H39735   4.054   1.412   9.779  3.8881  0.3438  0.9770
  288MOL0     H39736   4.025   1.475  10.082 -1.6042  3.5599  0.4574
  288MOL0     H39737   4.126   1.569   9.975 -0.1620 -0.6442  0.9845
  288MOL0     H39738   3.886   1.652  10.022  2.0962  0.3411  0.3354
  288MOL0     H39739   3.840   1.487   9.957  1.6917 -0.7051  2.1840
  288MOL0     H39740   3.915   1.743   9.619 -0.2016  1.6349  1.2274
  288MOL0     H39741   4.335   1.094   9.879  2.8138 -0.3923 -0.0593
  288MOL0     H39742   4.573   0.831   9.930  4.4327  0.2322  0.5477
  288MOL0     H39743   4.523   0.957   9.818  0.0639  0.0701 -0.7629
  288MOL0     H39744   4.630   1.001   9.958 -2.2013  0.3601  2.1835
  289MOL0     O39745   2.513   3.870   5.914  0.2786  0.0106  0.5593
  289MOL0     C39746   2.551   3.798   5.823  0.3066 -0.4595 -0.0913
  289MOL0     O39747   2.630   3.686   5.830 -0.5963  0.4629  0.4429
  289MOL0     C39748   2.669   3.651   5.959  0.1116  0.8838  0.3204
  289MOL0     C39749   2.604   3.524   5.996  0.8691 -1.2130  0.3126
  289MOL0     C39750   2.635   3.467   6.115  0.2710  0.3777 -0.0532
  289MOL0     C39751   2.735   3.522   6.196 -0.0684  0.8755 -0.0909
  289MOL0     O39752   2.762   3.444   6.308 -0.5529 -0.7550  0.1218
  289MOL0     C39753   2.902   3.409   6.338  0.1421  1.1064 -0.4278
  289MOL0     C39754   2.910   3.307   6.450  0.2300 -0.4844  0.4603
  289MOL0     C39755   2.837   3.177   6.414 -1.1106  0.1410  0.4162
  289MOL0     C39756   2.851   3.070   6.536 -0.2665 -0.7834  0.1331
  289MOL0     C39757   2.850   2.914   6.505 -0.0910 -0.1513 -0.6311
  289MOL0     C39758   2.723   2.867   6.430  0.1913 -0.3132  0.1734
  289MOL0     C39759   2.587   2.907   6.494 -0.1144  0.0146  0.4986
  289MOL0     C39760   2.469   2.857   6.406 -0.7559 -0.2191 -0.4327
  289MOL0     N39761   2.458   2.956   6.292 -0.5533 -0.2313 -0.0577
  289MOL0     C39762   2.443   2.923   6.155 -0.0805  0.1202  1.2711
  289MOL0     C39763   2.457   3.042   6.091 -0.5289  0.1897  0.7121
  289MOL0     C39764   2.440   3.054   5.945  1.0898 -1.0734 -0.4577
  289MOL0     C39765   2.535   2.966   5.872  0.1999  0.3907  1.1538
  289MOL0     C39766   2.526   2.983   5.721  0.1138 -0.3693 -0.1213
  289MOL0     C39767   2.542   2.857   5.640  0.2697 -0.3088  0.4760
  289MOL0     O39768   2.414   2.789   5.637  0.0865  0.8075  0.4437
  289MOL0     C39769   2.395   2.702   5.529 -0.2632 -0.3581 -0.1542
  289MOL0     C39770   2.493   2.667   5.440  0.3926  0.1479  0.7799
  289MOL0     C39771   2.467   2.565   5.333 -0.8208 -2.3074 -1.7947
  289MOL0     C39772   2.589   2.525   5.253 -0.0640 -0.1652  0.0836
  289MOL0     C39773   2.345   2.506   5.330 -0.7144  0.8440 -0.0703
  289MOL0     C39774   2.310   2.401   5.228 -0.3000 -0.6647  0.5891
  289MOL0     O39775   2.217   2.297   5.278 -0.4108  0.1875 -0.4923
  289MOL0     C39776   2.174   2.213   5.183 -0.3158 -0.5467  0.8404
  289MOL0     C39777   2.246   2.086   5.161 -0.1180 -0.7563  0.8307
  289MOL0     C39778   2.202   1.996   5.063 -0.1784  0.3593 -0.3044
  289MOL0     C39779   2.119   2.048   4.962  0.4535  0.0293  0.3407
  289MOL0     O39780   2.058   1.972   4.869 -0.2085  0.2749  0.2536
  289MOL0     C39781   2.135   1.862   4.818  0.2389  1.0521 -0.0415
  289MOL0     C39782   2.037   1.758   4.751 -0.0525  0.5699 -0.2307
  289MOL0     C39783   1.934   1.708   4.850 -0.6766 -0.7537  0.3568
  289MOL0     C39784   1.838   1.629   4.760  0.6055  0.1288  0.5752
  289MOL0     C39785   1.745   1.544   4.841  0.6756  0.3077  0.7179
  289MOL0     C39786   1.811   1.418   4.898 -0.4706  0.4446  0.8161
  289MOL0     C39787   1.723   1.302   4.961  1.0348 -0.1024 -0.7316
  289MOL0     C39788   1.794   1.222   5.070  0.1173 -0.5867 -0.1352
  289MOL0    Cl39789   1.775   1.294   5.235 -0.3345 -0.0375  0.1380
  289MOL0     C39790   2.052   2.165   4.965 -0.7541 -0.9590 -0.5532
  289MOL0     C39791   2.079   2.253   5.083  0.0678 -0.0451  0.6460
  289MOL0     O39792   2.368   2.404   5.116  0.3929  0.7816 -0.0069
  289MOL0     C39793   2.244   2.549   5.424 -0.3548  0.5465 -0.9088
  289MOL0     C39794   2.273   2.646   5.514 -1.1141  0.0673  0.2511
  289MOL0     N39795   2.472   3.138   6.185 -0.1513  0.8089 -0.1251
  289MOL0     N39796   2.482   3.090   6.303 -0.4462 -0.3731 -0.8605
  289MOL0     C39797   2.797   3.644   6.156  0.3054  0.9038 -0.6990
  289MOL0     C39798   2.754   3.721   6.046  0.1496 -0.0871  0.3582
  289MOL0     C39799   2.497   3.807   5.687  1.1802  0.3687  0.7067
  289MOL0     C39800   2.436   3.690   5.632 -0.0587 -0.2354  1.1879
  289MOL0     C39801   2.358   3.690   5.510 -0.9001  0.4901 -0.6697
  289MOL0     C39802   2.349   3.807   5.437  0.2212  1.4524 -0.0937
  289MOL0     O39803   2.277   3.812   5.315 -0.2498  0.5654 -0.5148
  289MOL0     C39804   2.222   3.701   5.248  0.5227 -1.2775  0.8103
  289MOL0     C39805   2.320   3.627   5.155 -0.2303 -0.4257 -0.4137
  289MOL0     C39806   2.350   3.709   5.021  0.0158  0.1685 -0.2175
  289MOL0     C39807   2.221   3.717   4.934 -0.8271  0.4119 -0.9834
  289MOL0     C39808   2.183   3.600   4.865  1.3060 -0.9040  0.5046
  289MOL0     C39809   2.150   3.514   4.788 -1.1241  0.5904  0.0464
  289MOL0     C39810   2.414   3.920   5.490  0.0354  0.1189 -0.7110
  289MOL0     C39811   2.486   3.921   5.607  0.5106 -0.4748 -1.1539
  289MOL0     C39812   2.537   4.052   5.661  0.7798  0.4684  0.2098
  289MOL0     H39813   2.539   3.477   5.922 -0.3428  0.2463  0.4012
  289MOL0     H39814   2.591   3.373   6.148  2.9655 -0.5735  1.0642
  289MOL0     H39815   2.966   3.490   6.373 -0.0078  0.6564  0.9431
  289MOL0     H39816   2.951   3.372   6.247  1.1797  2.7765 -0.5984
  289MOL0     H39817   3.017   3.289   6.458  0.3977 -0.0692 -0.7098
  289MOL0     H39818   2.868   3.352   6.541 -2.7640 -1.5941 -0.2642
  289MOL0     H39819   2.732   3.196   6.393 -1.1133 -2.6066 -2.9575
  289MOL0     H39820   2.883   3.125   6.330 -0.1070 -1.0217  1.6159
  289MOL0     H39821   2.944   3.104   6.581  1.2541 -1.1736 -2.5139
  289MOL0     H39822   2.770   3.106   6.600  0.7143  0.1420  0.8728
  289MOL0     H39823   2.860   2.855   6.596  2.5951  0.7140 -0.2491
  289MOL0     H39824   2.938   2.891   6.444  1.6225  2.2014  0.7761
  289MOL0     H39825   2.712   2.899   6.326 -1.9919 -2.6271 -0.4170
  289MOL0     H39826   2.726   2.759   6.414  0.2068  0.0623 -2.8494
  289MOL0     H39827   2.588   3.011   6.527  0.2105  0.3600 -0.5749
  289MOL0     H39828   2.586   2.848   6.586  0.1757 -2.1100 -0.7930
  289MOL0     H39829   2.489   2.760   6.360  0.9225 -0.3618  0.5040
  289MOL0     H39830   2.386   2.846   6.476 -0.9235  2.4519 -0.1142
  289MOL0     H39831   2.421   2.826   6.112  3.2758 -0.5953  0.8685
  289MOL0     H39832   2.462   3.158   5.918  2.4094 -1.4862 -1.0636
  289MOL0     H39833   2.338   3.026   5.917  0.9330 -0.0322 -0.9947
  289MOL0     H39834   2.638   2.994   5.896 -0.0016  3.9056 -1.1935
  289MOL0     H39835   2.512   2.864   5.903  1.5649 -0.3008 -0.0090
  289MOL0     H39836   2.430   3.029   5.696  0.6292  1.4371  1.0678
  289MOL0     H39837   2.612   3.049   5.707 -0.1283  0.0417  0.3171
  289MOL0     H39838   2.575   2.886   5.540  4.5312  0.4364  1.8541
  289MOL0     H39839   2.615   2.794   5.692  3.2865  3.3392  1.1066
  289MOL0     H39840   2.592   2.711   5.435  0.2399  0.3630 -2.1939
  289MOL0     H39841   2.603   2.589   5.166  0.0610  1.6171  1.3641
  289MOL0     H39842   2.585   2.420   5.222  0.6211 -0.8189  2.0626
  289MOL0     H39843   2.675   2.542   5.319 -0.3855  0.7286  0.2865
  289MOL0     H39844   2.307   2.049   5.243 -1.2234 -3.7831  0.4010
  289MOL0     H39845   2.238   1.894   5.071  1.1547  0.8833  0.7688
  289MOL0     H39846   2.203   1.899   4.740 -0.6692  1.2949 -0.7243
  289MOL0     H39847   2.193   1.799   4.887  0.4935  1.0099 -0.2925
  289MOL0     H39848   1.983   1.808   4.670 -2.3579  0.3162  1.0551
  289MOL0     H39849   2.098   1.675   4.714 -0.3360  1.6004 -3.3133
  289MOL0     H39850   1.869   1.789   4.882 -1.3902 -1.0909 -0.2137
  289MOL0     H39851   1.984   1.653   4.930  1.4033  2.7347  1.6865
  289MOL0     H39852   1.890   1.562   4.690  1.7269  0.9812  0.5562
  289MOL0     H39853   1.789   1.707   4.702  2.2658  0.1467 -0.9093
  289MOL0     H39854   1.693   1.593   4.924 -2.8191 -1.7248 -0.0482
  289MOL0     H39855   1.657   1.518   4.781  2.4211 -1.9809 -1.0238
  289MOL0     H39856   1.895   1.440   4.965  1.3662 -3.2862  0.0182
  289MOL0     H39857   1.864   1.370   4.816  1.2121  1.9050  0.9827
  289MOL0     H39858   1.701   1.228   4.883  3.9829 -1.9844  0.0811
  289MOL0     H39859   1.630   1.336   5.008  1.4796 -1.8677  1.5813
  289MOL0     H39860   1.896   1.202   5.039 -0.3940  0.1301 -2.4394
  289MOL0     H39861   1.737   1.128   5.080 -0.6152 -0.3026 -1.3806
  289MOL0     H39862   1.976   2.202   4.898 -0.6657  1.5028  0.6147
  289MOL0     H39863   2.042   2.355   5.094  4.1712  1.6919  0.1205
  289MOL0     H39864   2.147   2.501   5.416  0.9470 -2.0601 -3.4323
  289MOL0     H39865   2.196   2.688   5.578 -2.3096  2.7666 -2.6570
  289MOL0     H39866   2.881   3.676   6.216 -0.1687 -0.8475  0.9802
  289MOL0     H39867   2.795   3.815   6.011  0.5971  0.4601  2.2217
  289MOL0     H39868   2.440   3.597   5.688 -0.3616  0.3752  2.2430
  289MOL0     H39869   2.314   3.599   5.469 -0.9647  0.1262  0.1861
  289MOL0     H39870   2.172   3.638   5.322 -2.2356 -0.2796 -0.0601
  289MOL0     H39871   2.140   3.741   5.188  0.7077 -0.5786  1.0112
  289MOL0     H39872   2.271   3.532   5.130  2.0724 -1.5103 -1.1240
  289MOL0     H39873   2.410   3.602   5.211 -0.0174 -1.7958 -1.3090
  289MOL0     H39874   2.397   3.805   5.044  2.9440 -1.8976  3.5599
  289MOL0     H39875   2.419   3.647   4.963 -2.0443 -2.8087  0.2848
  289MOL0     H39876   2.245   3.797   4.863 -0.2878  0.7305 -0.4470
  289MOL0     H39877   2.137   3.767   4.982 -2.0667  0.3200 -2.9557
  289MOL0     H39878   2.104   3.444   4.721  0.1659 -0.0699 -0.1928
  289MOL0     H39879   2.424   4.011   5.432  2.3223 -1.1240 -2.5128
  289MOL0     H39880   2.579   4.116   5.583 -1.8970  0.5604 -1.2376
  289MOL0     H39881   2.440   4.091   5.690 -0.3475 -1.4011 -0.8486
  289MOL0     H39882   2.610   4.051   5.743  1.4331  3.1254 -0.2576
  290MOL0     O39883   4.556   4.554   5.946 -0.1915  0.1125 -0.5893
  290MOL0     C39884   4.534   4.478   6.047  0.0264  0.0253 -0.1572
  290MOL0     O39885   4.406   4.459   6.101  0.1832  1.0057  0.0168
  290MOL0     C39886   4.294   4.518   6.067  0.1571  0.4683  0.0889
  290MOL0     C39887   4.278   4.655   6.030 -0.1271  0.4822 -1.0486
  290MOL0     C39888   4.154   4.711   6.006  0.1292 -0.1013  0.4432
  290MOL0     C39889   4.039   4.632   6.019 -0.0053  0.4121  0.6447
  290MOL0     O39890   3.910   4.655   5.979 -0.7084  0.5036  0.4117
  290MOL0     C39891   3.855   4.793   5.984  0.7005 -0.5289 -0.1981
  290MOL0     C39892   3.808   4.837   6.126 -0.2148 -0.3225  0.1835
  290MOL0     C39893   3.904   4.829   6.253 -0.4943  0.7843  0.4730
  290MOL0     C39894   3.808   4.813   6.381  0.3005 -0.2310  0.5060
  290MOL0     C39895   3.883   4.775   6.507  0.2575  0.4460 -0.0693
  290MOL0     C39896   3.803   4.778   6.637 -0.8182  0.3351  1.1482
  290MOL0     C39897   3.911   4.774   6.755  0.2922 -0.8755 -0.7315
  290MOL0     C39898   3.986   4.640   6.780  0.5921  0.5278  0.4131
  290MOL0     N39899   3.884   4.535   6.801 -0.3377  0.0004 -0.3696
  290MOL0     C39900   3.819   4.520   6.921 -0.0358  0.1991 -0.0168
  290MOL0     C39901   3.743   4.408   6.912  0.4258  0.2490  0.2953
  290MOL0     C39902   3.668   4.344   7.016  0.7744 -0.2443  0.3194
  290MOL0     C39903   3.566   4.231   6.961 -0.4241 -0.0551  0.1579
  290MOL0     C39904   3.445   4.268   6.870  0.1860 -0.5171 -0.4766
  290MOL0     C39905   3.351   4.380   6.935  0.7364 -0.9645  0.6950
  290MOL0     O39906   3.401   4.514   6.914 -0.1002 -0.8328 -0.1435
  290MOL0     C39907   3.391   4.566   6.785  1.1467 -1.0415 -1.1850
  290MOL0     C39908   3.306   4.509   6.688 -0.5729 -0.4464 -0.4179
  290MOL0     C39909   3.307   4.559   6.556  0.5763  0.3718 -0.3382
  290MOL0     C39910   3.208   4.491   6.468  0.0968 -0.0269  0.0933
  290MOL0     C39911   3.386   4.669   6.524 -1.6457  0.3924 -0.5539
  290MOL0     C39912   3.411   4.717   6.386 -0.5719 -0.9415 -0.1267
  290MOL0     O39913   3.363   4.652   6.270 -0.1165  0.7262 -0.1772
  290MOL0     C39914   3.385   4.704   6.147 -0.7332 -1.5171 -0.3736
  290MOL0     C39915   3.464   4.630   6.063 -0.2199  0.8740  0.6658
  290MOL0     C39916   3.487   4.673   5.925  0.7579  0.0819  0.7836
  290MOL0     C39917   3.424   4.793   5.880  0.7870  1.1817  0.4766
  290MOL0     O39918   3.460   4.818   5.750 -0.2039 -0.2037  0.1358
  290MOL0     C39919   3.394   4.935   5.694 -0.8855  0.2193  0.7625
  290MOL0     C39920   3.464   4.959   5.556 -1.2054  0.0304 -0.3677
  290MOL0     C39921   3.610   4.991   5.579 -0.3639  0.1752 -0.0154
  290MOL0     C39922   3.690   4.998   5.445  0.0337  0.8066  0.2700
  290MOL0     C39923   3.840   5.014   5.455  0.0939 -0.2865 -0.2524
  290MOL0     C39924   3.895   5.135   5.550 -0.0086 -0.0025 -0.5696
  290MOL0     C39925   3.926   5.086   5.692  0.5212 -0.3729  0.1075
  290MOL0     C39926   3.895   5.198   5.791  0.8991  0.4792  0.4688
  290MOL0    Cl39927   3.713   5.220   5.832 -0.0421 -0.3640  0.5396
  290MOL0     C39928   3.328   4.863   5.964 -0.0887 -1.4064  0.2860
  290MOL0     C39929   3.322   4.817   6.096 -0.7893 -0.2622 -0.8925
  290MOL0     O39930   3.486   4.818   6.384 -0.2965 -0.3172  0.2837
  290MOL0     C39931   3.468   4.720   6.624 -0.0488 -0.2536 -0.1676
  290MOL0     C39932   3.465   4.683   6.757  0.3563 -0.5915  0.4557
  290MOL0     N39933   3.757   4.361   6.783 -1.3331 -0.1397  0.1798
  290MOL0     N39934   3.850   4.435   6.719  0.3730 -1.2263 -0.4911
  290MOL0     C39935   4.058   4.501   6.064  0.9206  0.6187 -0.4481
  290MOL0     C39936   4.177   4.437   6.082  0.0131 -0.4195 -0.2756
  290MOL0     C39937   4.652   4.404   6.109  0.3478 -0.4694  0.7378
  290MOL0     C39938   4.636   4.332   6.226 -0.1001  0.5317  0.3523
  290MOL0     C39939   4.742   4.267   6.290 -0.1614  0.2476  0.8020
  290MOL0     C39940   4.871   4.264   6.231  0.0139 -0.3910 -0.5082
  290MOL0     O39941   4.974   4.207   6.297  0.2452 -0.0737  0.4132
  290MOL0     C39942   4.960   4.077   6.353  0.3037  0.2120  0.3416
  290MOL0     C39943   5.066   3.974   6.294 -0.7793  0.3316 -0.6265
  290MOL0     C39944   5.209   4.006   6.320  0.3613 -0.3679 -0.1272
  290MOL0     C39945   5.316   3.932   6.227  0.8440  0.0091  0.7659
  290MOL0     C39946   5.333   3.790   6.263  0.1381  0.5943  0.6764
  290MOL0     C39947   5.347   3.676   6.291 -0.3114 -0.3486  0.0747
  290MOL0     C39948   4.887   4.329   6.105  0.0447  0.9473 -0.3064
  290MOL0     C39949   4.774   4.387   6.039  0.3786  0.0631 -0.1952
  290MOL0     C39950   4.789   4.411   5.885 -0.1594 -0.0259  0.4663
  290MOL0     H39951   4.369   4.713   6.032 -1.0815  2.0218  0.2129
  290MOL0     H39952   4.139   4.813   5.972 -0.2294 -0.6908 -1.2185
  290MOL0     H39953   3.766   4.792   5.921  0.8167 -4.0527 -0.4862
  290MOL0     H39954   3.923   4.868   5.942 -0.4984  1.1091  0.6259
  290MOL0     H39955   3.788   4.942   6.102 -3.1862 -1.2029 -1.8384
  290MOL0     H39956   3.720   4.780   6.157  1.6532 -1.6226  3.6858
  290MOL0     H39957   3.966   4.738   6.251 -1.4650  0.1200 -0.3654
  290MOL0     H39958   3.978   4.910   6.256  1.1271 -0.5428 -1.1216
  290MOL0     H39959   3.753   4.903   6.408  0.4808 -0.2084  0.8067
  290MOL0     H39960   3.731   4.737   6.367  1.3970 -1.1768 -0.6886
  290MOL0     H39961   3.960   4.853   6.516  1.1220 -0.4815  0.8068
  290MOL0     H39962   3.939   4.684   6.484  2.8194  2.2968 -1.6986
  290MOL0     H39963   3.758   4.877   6.631 -1.7014 -0.1595 -1.9737
  290MOL0     H39964   3.734   4.693   6.629 -1.3804  0.7476  1.5194
  290MOL0     H39965   3.862   4.785   6.851 -1.8251 -0.8514 -1.7634
  290MOL0     H39966   3.988   4.852   6.757 -0.4770 -0.0906  2.5458
  290MOL0     H39967   4.056   4.623   6.697 -0.5856  2.4472 -1.0478
  290MOL0     H39968   4.043   4.649   6.873  1.4018 -5.4023  0.9093
  290MOL0     H39969   3.838   4.565   7.018  1.3621  2.6450 -1.3092
  290MOL0     H39970   3.622   4.421   7.079  0.3639 -2.4123  2.8604
  290MOL0     H39971   3.724   4.286   7.090  0.7078 -2.2585 -1.1269
  290MOL0     H39972   3.613   4.147   6.910 -5.9754 -2.9045 -1.1201
  290MOL0     H39973   3.524   4.193   7.054  0.9553 -0.0044  0.8184
  290MOL0     H39974   3.477   4.303   6.771  0.9675 -0.6509 -0.2758
  290MOL0     H39975   3.375   4.186   6.857  0.3613 -0.6771 -0.4107
  290MOL0     H39976   3.248   4.370   6.898 -0.0429  0.6772  2.2550
  290MOL0     H39977   3.342   4.362   7.042  0.4717 -1.3326  0.6132
  290MOL0     H39978   3.245   4.422   6.711  0.2457 -0.6184  1.3091
  290MOL0     H39979   3.266   4.468   6.379 -1.1805  1.9828 -1.3179
  290MOL0     H39980   3.131   4.557   6.427  0.4389  1.6660  1.9883
  290MOL0     H39981   3.175   4.399   6.518 -1.3316  1.0624  1.2934
  290MOL0     H39982   3.514   4.542   6.103  4.1000  0.3210 -4.6939
  290MOL0     H39983   3.559   4.623   5.862  1.0132 -0.2726  1.3433
  290MOL0     H39984   3.288   4.925   5.669 -0.7719  0.8712 -0.0152
  290MOL0     H39985   3.414   5.033   5.738  0.6254  0.6578 -0.7930
  290MOL0     H39986   3.455   4.865   5.501 -1.7939 -1.1713  1.6584
  290MOL0     H39987   3.415   5.046   5.511  0.5366  1.0684 -0.3465
  290MOL0     H39988   3.656   4.912   5.639  0.1157  2.0456  2.2347
  290MOL0     H39989   3.621   5.086   5.633  1.1130 -0.0270  0.0869
  290MOL0     H39990   3.646   5.081   5.390 -0.3820  0.1506 -0.4110
  290MOL0     H39991   3.681   4.919   5.370 -0.9007  1.1498  0.0063
  290MOL0     H39992   3.893   4.929   5.500  0.9832  1.2173  1.7262
  290MOL0     H39993   3.879   5.019   5.354  0.9181 -0.4351  0.0500
  290MOL0     H39994   3.821   5.216   5.554  0.2811  0.3151 -1.3597
  290MOL0     H39995   3.984   5.183   5.507 -0.6994  0.8474 -1.0778
  290MOL0     H39996   4.033   5.066   5.705  0.5464 -0.2061  0.1744
  290MOL0     H39997   3.893   4.991   5.734  3.2713 -1.1091  0.8243
  290MOL0     H39998   3.924   5.299   5.760  1.4366  0.0731 -0.3808
  290MOL0     H39999   3.944   5.169   5.884  0.2034  0.9473  0.9884
  290MOL0     H40000   3.299   4.964   5.940  3.4565 -0.9959 -3.2132
  290MOL0     H40001   3.252   4.867   6.162 -1.1393 -1.6836 -0.1505
  290MOL0     H40002   3.531   4.806   6.600 -1.4179  0.5213 -1.0969
  290MOL0     H40003   3.535   4.729   6.827 -0.6583  0.5997  0.7228
  290MOL0     H40004   3.974   4.432   6.074  0.0754  1.3642 -2.0922
  290MOL0     H40005   4.205   4.333   6.095 -0.3388 -0.8149 -2.3853
  290MOL0     H40006   4.537   4.332   6.270 -0.0660  3.0625  0.6031
  290MOL0     H40007   4.727   4.217   6.386 -0.5346 -2.3312 -0.4944
  290MOL0     H40008   4.965   4.085   6.462  0.2213 -2.1744  0.5615
  290MOL0     H40009   4.859   4.042   6.332  0.6021 -0.2918 -0.2952
  290MOL0     H40010   5.053   3.960   6.186 -0.8963 -1.0818 -0.4493
  290MOL0     H40011   5.040   3.876   6.334 -1.2545  0.1152 -1.4395
  290MOL0     H40012   5.208   4.112   6.291  2.5207 -0.9190 -2.5803
  290MOL0     H40013   5.236   3.995   6.425  0.4212  3.8583  0.4864
  290MOL0     H40014   5.407   3.993   6.227 -0.7153  2.5275 -0.5140
  290MOL0     H40015   5.287   3.923   6.122  2.3596 -3.4649  0.5388
  290MOL0     H40016   5.362   3.578   6.331 -3.4079 -1.8461 -2.0198
  290MOL0     H40017   4.977   4.309   6.048 -0.1585  0.0637 -0.3270
  290MOL0     H40018   4.752   4.321   5.835  1.1422 -0.6148  0.5224
  290MOL0     H40019   4.762   4.511   5.849  3.1751  0.4394 -1.1679
  290MOL0     H40020   4.896   4.404   5.863 -0.3556 -3.9166  0.0711
  291MOL0     O40021   4.202   2.034  11.398 -0.3139  0.2530  0.1747
  291MOL0     C40022   4.312   2.024  11.453  0.4630  0.6200  0.1274
  291MOL0     O40023   4.344   1.926  11.540  0.0135  0.3541  0.0988
  291MOL0     C40024   4.284   1.814  11.519  1.3596  0.3246 -0.3675
  291MOL0     C40025   4.217   1.752  11.632 -0.1229 -0.2242  0.5226
  291MOL0     C40026   4.168   1.622  11.619 -0.2607  0.2086  0.1265
  291MOL0     C40027   4.150   1.552  11.500 -0.1782 -0.4162  0.4289
  291MOL0     O40028   4.092   1.426  11.481 -0.5411  0.5617 -0.3450
  291MOL0     C40029   4.168   1.323  11.536 -0.3377 -0.4249  0.5293
  291MOL0     C40030   4.105   1.191  11.499 -0.0853  0.8371  0.0501
  291MOL0     C40031   3.984   1.180  11.585 -0.3279 -0.3294 -0.4560
  291MOL0     C40032   3.886   1.070  11.549  0.5062 -0.3718 -0.3864
  291MOL0     C40033   3.826   1.077  11.416  1.0178  0.6351  0.6323
  291MOL0     C40034   3.702   0.981  11.401  0.5079 -0.9869 -0.4412
  291MOL0     C40035   3.750   0.833  11.384  1.1119 -0.5121 -0.6973
  291MOL0     C40036   3.687   0.730  11.479  0.0554  0.5188 -0.0190
  291MOL0     N40037   3.746   0.591  11.483 -0.2752 -0.4743  0.2546
  291MOL0     C40038   3.869   0.560  11.435  0.3955 -0.2460  0.1615
  291MOL0     C40039   3.892   0.432  11.485 -0.4324 -0.1724  0.4795
  291MOL0     C40040   4.020   0.353  11.481 -0.3491  0.1598 -0.0882
  291MOL0     C40041   4.126   0.399  11.589  0.7210 -0.5237 -0.2811
  291MOL0     C40042   4.256   0.324  11.590  0.1216  0.6950  0.3071
  291MOL0     C40043   4.369   0.394  11.659 -0.1829  0.1828  0.3400
  291MOL0     O40044   4.330   0.454  11.781 -0.8150  0.0523 -0.1847
  291MOL0     C40045   4.423   0.513  11.861 -0.5706  0.5485 -1.1980
  291MOL0     C40046   4.391   0.538  11.997  0.5158 -0.2163 -0.2685
  291MOL0     C40047   4.486   0.603  12.084  1.0235  0.0123 -0.9624
  291MOL0     C40048   4.423   0.652  12.223 -0.6171  0.8390  1.0161
  291MOL0     C40049   4.617   0.639  12.038  0.7828  0.0860 -0.1874
  291MOL0     C40050   4.709   0.731  12.106 -1.0343  0.4792 -0.2334
  291MOL0     O40051   4.815   0.778  12.033 -0.7163 -0.0804 -0.7405
  291MOL0     C40052   4.912   0.866  12.089  0.3774  0.6253 -0.4446
  291MOL0     C40053   4.921   0.990  12.044 -1.1546 -0.2749  0.0112
  291MOL0     C40054   5.028   1.073  12.093 -0.4799 -0.5827 -1.2848
  291MOL0     C40055   5.119   1.019  12.175 -0.5720 -0.2634 -0.5602
  291MOL0     O40056   5.209   1.105  12.224 -0.0140 -0.4847  0.7492
  291MOL0     C40057   5.248   1.241  12.181 -0.2142  0.2068  1.8178
  291MOL0     C40058   5.364   1.284  12.258 -0.1025  0.0557  0.3238
  291MOL0     C40059   5.435   1.412  12.206 -0.1632 -0.6197  0.4739
  291MOL0     C40060   5.532   1.456  12.316 -0.5123  0.0965  0.5143
  291MOL0     C40061   5.654   1.356  12.336 -1.2132  0.0372  0.6893
  291MOL0     C40062   5.746   1.352  12.206  0.0058 -0.9281  0.4550
  291MOL0     C40063   5.859   1.241  12.227  0.3374  1.1959  0.1100
  291MOL0     C40064   5.965   1.253  12.123  0.4228  0.3633  0.4719
  291MOL0    Cl40065   5.895   1.237  11.962  0.3925 -0.2432 -0.1138
  291MOL0     C40066   5.104   0.894  12.220 -0.6941 -0.1541 -0.5699
  291MOL0     C40067   4.999   0.812  12.175  0.2394 -0.8629 -0.3170
  291MOL0     O40068   4.689   0.767  12.223  0.1432  0.4662 -0.2264
  291MOL0     C40069   4.657   0.572  11.919 -0.6534 -0.3897 -0.8271
  291MOL0     C40070   4.565   0.512  11.839  0.6142  0.5985  0.6530
  291MOL0     N40071   3.776   0.381  11.531  0.5174 -0.1785 -0.1761
  291MOL0     N40072   3.691   0.480  11.540 -0.0666  0.1011 -0.5709
  291MOL0     C40073   4.214   1.619  11.389  0.4697 -0.3479 -0.1380
  291MOL0     C40074   4.279   1.744  11.401 -0.1101 -0.1897 -0.2846
  291MOL0     C40075   4.400   2.137  11.438 -0.4895 -0.0604 -0.5555
  291MOL0     C40076   4.538   2.100  11.423 -0.3289  0.1921  0.4432
  291MOL0     C40077   4.631   2.198  11.394 -0.2578 -1.2785  0.2684
  291MOL0     C40078   4.597   2.339  11.377  0.8897  0.5577  0.2872
  291MOL0     O40079   4.679   2.444  11.365 -0.8042 -0.3449  0.3270
  291MOL0     C40080   4.819   2.422  11.319  0.2024 -0.0517  0.3077
  291MOL0     C40081   4.902   2.406  11.450  0.2616  0.7300  1.1639
  291MOL0     C40082   4.938   2.527  11.538 -0.2270 -0.2647  1.0560
  291MOL0     C40083   5.063   2.597  11.490 -0.2597  0.3112 -0.9089
  291MOL0     C40084   5.044   2.672  11.365  0.8486 -0.1314 -0.0386
  291MOL0     C40085   5.025   2.734  11.259 -0.1545 -0.4229  0.6972
  291MOL0     C40086   4.464   2.365  11.392  0.6124 -0.3727 -0.5482
  291MOL0     C40087   4.358   2.275  11.421 -0.0870 -0.2726  0.4151
  291MOL0     C40088   4.218   2.337  11.432 -0.6034 -0.0230  0.1197
  291MOL0     H40089   4.212   1.808  11.724 -0.9480  1.8118 -0.7008
  291MOL0     H40090   4.130   1.569  11.706 -1.9355 -0.6244 -1.0393
  291MOL0     H40091   4.190   1.334  11.643  1.5663  1.9298 -0.0332
  291MOL0     H40092   4.261   1.315  11.481 -1.0414 -0.4674 -0.6807
  291MOL0     H40093   4.076   1.174  11.395 -2.1910 -2.6121  1.0294
  291MOL0     H40094   4.161   1.101  11.525 -0.8132  0.1470 -0.6961
  291MOL0     H40095   4.018   1.177  11.689 -0.8476 -1.5612 -0.2998
  291MOL0     H40096   3.926   1.272  11.573  0.6903  0.2209 -1.4002
  291MOL0     H40097   3.930   0.971  11.558 -0.5986 -1.0464 -1.8728
  291MOL0     H40098   3.812   1.081  11.629 -0.6126  2.7120 -1.6730
  291MOL0     H40099   3.899   1.041  11.343  1.5603  1.3829  0.7961
  291MOL0     H40100   3.805   1.181  11.387 -0.8001  0.2301  0.3498
  291MOL0     H40101   3.630   0.992  11.482  0.6908 -2.6406 -0.0320
  291MOL0     H40102   3.650   1.016  11.311  1.1316  0.9361 -0.0965
  291MOL0     H40103   3.860   0.831  11.385  1.1154 -0.3549  0.4567
  291MOL0     H40104   3.707   0.800  11.289  1.0775  1.3945 -1.3871
  291MOL0     H40105   3.691   0.778  11.578 -2.4612 -0.2088  0.4857
  291MOL0     H40106   3.582   0.728  11.449  0.5142 -1.0057 -1.6959
  291MOL0     H40107   3.926   0.628  11.373 -1.7159  0.9483 -0.5697
  291MOL0     H40108   4.081   0.362  11.391  2.0731 -0.4000  1.4029
  291MOL0     H40109   3.996   0.247  11.495  0.7698 -0.3470 -1.7941
  291MOL0     H40110   4.141   0.502  11.557  1.5687 -0.0232  1.6175
  291MOL0     H40111   4.079   0.397  11.688 -2.9562 -1.0280 -1.8388
  291MOL0     H40112   4.238   0.232  11.647 -0.8756  0.5344 -0.2370
  291MOL0     H40113   4.286   0.315  11.486 -1.4112  2.4205 -0.3418
  291MOL0     H40114   4.453   0.325  11.667 -2.2577 -2.2378  3.2012
  291MOL0     H40115   4.411   0.474  11.596 -0.7018  1.1310  1.1600
  291MOL0     H40116   4.296   0.499  12.032  0.9439  0.7109  2.1446
  291MOL0     H40117   4.324   0.620  12.258 -1.7340  1.0823 -1.6702
  291MOL0     H40118   4.432   0.760  12.231  0.9207  0.8664 -0.4403
  291MOL0     H40119   4.499   0.612  12.290  0.7606 -1.3445 -1.6062
  291MOL0     H40120   4.839   1.020  11.979  1.5305  0.7946 -3.1744
  291MOL0     H40121   5.025   1.177  12.060 -0.0385  0.3625  1.3962
  291MOL0     H40122   5.275   1.241  12.075  0.7295  1.4107  2.0433
  291MOL0     H40123   5.158   1.301  12.196 -2.0222 -1.3148 -1.7703
  291MOL0     H40124   5.334   1.298  12.363 -1.4211  1.3403 -0.1998
  291MOL0     H40125   5.429   1.196  12.255  1.9200  1.5072 -1.4102
  291MOL0     H40126   5.361   1.484  12.169 -0.3148 -0.8929  0.2350
  291MOL0     H40127   5.475   1.379  12.109 -2.8195 -1.4769 -0.4184
  291MOL0     H40128   5.476   1.462  12.410 -1.3585  4.5326 -0.0556
  291MOL0     H40129   5.580   1.552  12.295 -1.4727  0.0981 -1.9754
  291MOL0     H40130   5.716   1.396  12.416 -0.4588  4.0228 -1.6184
  291MOL0     H40131   5.613   1.258  12.363  0.2215  0.0055  3.0520
  291MOL0     H40132   5.801   1.446  12.195  1.4617 -1.8294 -0.2346
  291MOL0     H40133   5.689   1.334  12.114  1.2009 -1.7951 -0.1457
  291MOL0     H40134   5.812   1.142  12.221 -0.1811  1.3679  1.1235
  291MOL0     H40135   5.910   1.258  12.322  0.4275 -0.6801  0.4251
  291MOL0     H40136   6.038   1.174  12.144  0.9181  0.8602  0.6542
  291MOL0     H40137   6.016   1.349  12.132  0.2525  0.2756  3.2308
  291MOL0     H40138   5.169   0.852  12.296 -0.6989  0.9281  0.0569
  291MOL0     H40139   4.985   0.707  12.201  0.2815 -1.2678 -1.8450
  291MOL0     H40140   4.759   0.568  11.882  0.4337 -0.6316  1.9021
  291MOL0     H40141   4.608   0.482  11.744  2.2971  1.9712  0.9505
  291MOL0     H40142   4.208   1.577  11.290 -2.1707  0.3565 -0.3440
  291MOL0     H40143   4.320   1.784  11.308  2.2317  1.3231  1.2761
  291MOL0     H40144   4.577   2.000  11.433  0.8669  0.5574 -0.2429
  291MOL0     H40145   4.737   2.173  11.387  0.0598 -0.9807  2.8593
  291MOL0     H40146   4.825   2.335  11.253 -0.2903  0.1039  0.0522
  291MOL0     H40147   4.850   2.506  11.256 -0.9983 -0.0219 -0.2653
  291MOL0     H40148   4.991   2.352  11.415  1.1027  2.0072  1.2652
  291MOL0     H40149   4.840   2.338  11.509  0.6899  1.1556  2.1453
  291MOL0     H40150   4.851   2.593  11.532 -0.3676 -0.5685 -3.1238
  291MOL0     H40151   4.938   2.492  11.642 -1.7041 -0.4773  1.0036
  291MOL0     H40152   5.136   2.527  11.448  0.4012  1.0956 -1.1030
  291MOL0     H40153   5.106   2.646  11.578  2.8704 -4.0639  0.3757
  291MOL0     H40154   5.005   2.774  11.162  0.6316  0.2974  0.8122
  291MOL0     H40155   4.449   2.472  11.392  1.2794 -0.2120 -3.3823
  291MOL0     H40156   4.222   2.401  11.521  0.8974  1.2243 -0.7898
  291MOL0     H40157   4.192   2.405  11.350  0.6029  0.3195 -0.0002
  291MOL0     H40158   4.149   2.255  11.453  1.1874 -1.0429  2.4406
  292MOL0     O40159   3.714   6.165   6.998  0.6071 -0.3397  0.5070
  292MOL0     C40160   3.679   6.227   7.100 -0.4066 -1.0174 -0.4599
  292MOL0     O40161   3.779   6.290   7.185  0.5458  0.5895  0.1616
  292MOL0     C40162   3.909   6.246   7.176  0.5272  0.7246  0.3031
  292MOL0     C40163   4.000   6.342   7.155 -0.3986 -0.1366  0.2064
  292MOL0     C40164   4.132   6.312   7.132 -0.8086 -0.2330  0.0762
  292MOL0     C40165   4.182   6.187   7.123  0.7935 -0.1296  0.8341
  292MOL0     O40166   4.314   6.145   7.108  0.2083 -0.6875  0.2943
  292MOL0     C40167   4.378   6.242   7.017 -0.3009 -0.5634  0.6943
  292MOL0     C40168   4.517   6.195   6.984  0.9653 -0.1446 -0.3633
  292MOL0     C40169   4.597   6.268   6.879 -0.0526  0.3864 -0.4596
  292MOL0     C40170   4.739   6.196   6.880 -0.4950 -0.4917  0.0689
  292MOL0     C40171   4.830   6.287   6.780  0.6865  0.0612 -0.5935
  292MOL0     C40172   4.982   6.258   6.791  0.7102 -0.3729 -1.2971
  292MOL0     C40173   5.067   6.382   6.769 -0.7484  0.4477 -0.5096
  292MOL0     C40174   5.205   6.344   6.720  0.8455  0.8246 -0.3986
  292MOL0     N40175   5.281   6.257   6.818  0.1340 -0.9023 -0.3929
  292MOL0     C40176   5.396   6.302   6.869  0.0619 -0.3296  0.5273
  292MOL0     C40177   5.464   6.201   6.912  0.2492  0.0766 -0.2281
  292MOL0     C40178   5.607   6.196   6.962  0.7437  0.5249 -0.0084
  292MOL0     C40179   5.611   6.233   7.106  0.0117  0.1689 -0.3852
  292MOL0     C40180   5.756   6.279   7.136 -0.0198  0.8417 -0.2228
  292MOL0     C40181   5.769   6.289   7.284  0.1570  0.4534  0.0710
  292MOL0     O40182   5.900   6.333   7.319 -0.1771  0.3739 -0.5991
  292MOL0     C40183   5.956   6.287   7.435 -0.9626  0.7324 -0.3543
  292MOL0     C40184   5.886   6.241   7.544  0.8575  0.1064  0.1025
  292MOL0     C40185   5.943   6.172   7.649 -0.3577 -1.1024 -0.1960
  292MOL0     C40186   5.846   6.136   7.756  1.1750  0.3202 -0.6553
  292MOL0     C40187   6.087   6.151   7.646  0.3449  0.8742  0.1502
  292MOL0     C40188   6.154   6.072   7.753 -0.0952  0.9426 -0.4043
  292MOL0     O40189   6.284   6.027   7.724  0.5009  0.7763 -0.3111
  292MOL0     C40190   6.368   5.988   7.827 -0.1619 -0.4142  0.2693
  292MOL0     C40191   6.330   5.878   7.915  0.8861 -1.1645 -0.1226
  292MOL0     C40192   6.415   5.853   8.023 -0.9407 -0.4701  0.7976
  292MOL0     C40193   6.534   5.931   8.041 -0.0496 -0.3873  0.6018
  292MOL0     O40194   6.620   5.909   8.143 -0.4754 -0.1614  0.4555
  292MOL0     C40195   6.631   5.771   8.188 -0.7887  0.7368 -0.3805
  292MOL0     C40196   6.781   5.742   8.225  0.4776 -0.3924 -0.5307
  292MOL0     C40197   6.843   5.835   8.320  0.3395  0.2725 -1.0792
  292MOL0     C40198   6.744   5.878   8.431  0.2432 -1.2331  0.1309
  292MOL0     C40199   6.814   5.980   8.523  0.5514 -0.0809 -0.5013
  292MOL0     C40200   6.838   6.126   8.464 -0.1261 -0.2271  0.6276
  292MOL0     C40201   6.734   6.188   8.364 -0.0742  0.1885 -0.2588
  292MOL0     C40202   6.593   6.223   8.424  0.4389 -0.3795  0.6410
  292MOL0    Cl40203   6.634   6.331   8.580 -0.1416 -0.3809  0.2443
  292MOL0     C40204   6.584   6.019   7.947  0.6477 -0.7408  0.6966
  292MOL0     C40205   6.499   6.042   7.839  0.0154  0.2468  1.6447
  292MOL0     O40206   6.101   6.065   7.864  0.6358  0.7386  0.5574
  292MOL0     C40207   6.154   6.196   7.544 -0.3190 -0.3711  0.2193
  292MOL0     C40208   6.099   6.261   7.441 -0.2173  0.2077  0.3585
  292MOL0     N40209   5.387   6.086   6.893 -0.8540  0.0454 -0.0195
  292MOL0     N40210   5.278   6.123   6.834 -0.3749 -0.6957 -0.0737
  292MOL0     C40211   4.091   6.086   7.127 -0.3370 -0.4176  0.4541
  292MOL0     C40212   3.957   6.111   7.151 -0.1880  0.3767  0.1051
  292MOL0     C40213   3.545   6.260   7.133  0.2704 -0.6682  0.5534
  292MOL0     C40214   3.531   6.381   7.214  0.3241  1.0559 -0.2389
  292MOL0     C40215   3.417   6.421   7.281 -0.0796  0.4139  0.5982
  292MOL0     C40216   3.303   6.340   7.257 -0.4785  0.9281 -0.8515
  292MOL0     O40217   3.176   6.366   7.300 -0.2480 -0.3393 -1.1692
  292MOL0     C40218   3.147   6.488   7.388  0.2410  1.5861  0.0282
  292MOL0     C40219   3.158   6.610   7.305  0.0482 -0.5851  0.5259
  292MOL0     C40220   3.101   6.725   7.373  0.4371 -0.1210 -0.1142
  292MOL0     C40221   3.211   6.793   7.450  0.4638  0.2494 -0.0508
  292MOL0     C40222   3.174   6.927   7.495 -0.5560 -0.0285  0.9327
  292MOL0     C40223   3.136   7.034   7.529 -0.0195  0.0078  0.0852
  292MOL0     C40224   3.309   6.235   7.164  0.0106 -0.2477 -0.1841
  292MOL0     C40225   3.424   6.190   7.099 -1.1264 -0.4163  0.4789
  292MOL0     C40226   3.423   6.070   6.999  0.9276 -0.7810  0.1228
  292MOL0     H40227   3.966   6.445   7.153 -0.1928 -0.0600 -2.3072
  292MOL0     H40228   4.199   6.398   7.127  1.1626 -1.7783 -2.1835
  292MOL0     H40229   4.379   6.337   7.070 -0.9324 -0.9320  1.3803
  292MOL0     H40230   4.317   6.237   6.927 -0.4352  0.1679  0.7431
  292MOL0     H40231   4.574   6.192   7.078 -0.4945  0.4030  0.5792
  292MOL0     H40232   4.511   6.091   6.953 -1.7060 -0.2470  0.3262
  292MOL0     H40233   4.547   6.269   6.781 -0.1424  1.7912 -0.4311
  292MOL0     H40234   4.620   6.370   6.912 -1.7650  0.0726  1.9760
  292MOL0     H40235   4.782   6.213   6.979 -1.4507  4.5274 -0.1076
  292MOL0     H40236   4.741   6.089   6.855 -2.4712 -0.1565 -1.9090
  292MOL0     H40237   4.811   6.391   6.806 -2.1105 -0.9717  2.2631
  292MOL0     H40238   4.795   6.266   6.679 -0.2124  4.6197 -1.4489
  292MOL0     H40239   5.007   6.220   6.891  2.2927 -1.2265 -1.9809
  292MOL0     H40240   5.000   6.173   6.724  1.3712  0.1007 -1.7384
  292MOL0     H40241   5.067   6.467   6.838 -1.4506  0.0338  0.0132
  292MOL0     H40242   5.017   6.437   6.689 -1.7757  0.1212 -0.1111
  292MOL0     H40243   5.198   6.291   6.624 -4.4664 -1.5316  0.9404
  292MOL0     H40244   5.271   6.430   6.707  0.5541  1.5227  2.1940
  292MOL0     H40245   5.427   6.404   6.846  0.8004 -0.5105  0.6779
  292MOL0     H40246   5.677   6.250   6.898 -0.1272  0.2832 -1.1915
  292MOL0     H40247   5.634   6.091   6.945 -1.1625 -0.4616  2.3694
  292MOL0     H40248   5.543   6.313   7.137 -0.9381 -1.6613  2.6146
  292MOL0     H40249   5.580   6.148   7.167 -1.9096 -0.2295 -1.8270
  292MOL0     H40250   5.831   6.206   7.106 -0.4869 -1.0873  2.8671
  292MOL0     H40251   5.783   6.379   7.101  0.8453  1.4319  1.9337
  292MOL0     H40252   5.700   6.360   7.331  0.0863  1.2848 -1.2298
  292MOL0     H40253   5.747   6.189   7.323 -0.6349  0.3368 -0.6485
  292MOL0     H40254   5.778   6.257   7.537  0.1891 -3.3717  0.8176
  292MOL0     H40255   5.889   6.154   7.855  3.3312 -0.1479 -1.4348
  292MOL0     H40256   5.832   6.028   7.752  3.5223 -0.2614  2.6327
  292MOL0     H40257   5.752   6.190   7.746  2.6408  3.3554  0.5589
  292MOL0     H40258   6.230   5.837   7.904  0.7750 -0.9228 -0.0156
  292MOL0     H40259   6.381   5.781   8.098  0.2002  0.4559  2.2626
  292MOL0     H40260   6.571   5.746   8.275  0.2300 -2.1887 -0.4136
  292MOL0     H40261   6.609   5.701   8.107  0.1648 -2.9930  2.3103
  292MOL0     H40262   6.772   5.646   8.277 -3.0001 -1.3294 -2.5440
  292MOL0     H40263   6.838   5.743   8.131 -3.9393  1.7565 -3.5401
  292MOL0     H40264   6.875   5.921   8.259  2.3884  1.3201  1.2828
  292MOL0     H40265   6.931   5.796   8.371 -1.9019 -3.2924  0.3950
  292MOL0     H40266   6.714   5.795   8.496  1.0866  1.1245  3.8524
  292MOL0     H40267   6.660   5.930   8.384  2.4707 -0.3306 -3.2365
  292MOL0     H40268   6.740   5.998   8.602  0.2618  0.6424 -0.9323
  292MOL0     H40269   6.909   5.948   8.567  1.7258  1.8239 -1.4765
  292MOL0     H40270   6.937   6.119   8.419 -1.2131 -1.0829 -1.7999
  292MOL0     H40271   6.845   6.200   8.545  3.2348  0.6663 -0.3209
  292MOL0     H40272   6.724   6.114   8.284 -0.6538 -3.4661  2.8841
  292MOL0     H40273   6.779   6.274   8.313  0.2598 -2.1322 -4.2659
  292MOL0     H40274   6.537   6.131   8.444 -2.2990  1.0058 -0.1723
  292MOL0     H40275   6.547   6.293   8.354  0.5574  1.0261  1.9089
  292MOL0     H40276   6.678   6.073   7.952  0.5979 -0.5582 -0.1924
  292MOL0     H40277   6.543   6.107   7.765 -1.8137 -1.3367 -0.9974
  292MOL0     H40278   6.263   6.188   7.541  0.1621  3.9041  0.7876
  292MOL0     H40279   6.158   6.305   7.362 -1.9543  1.6253 -0.2259
  292MOL0     H40280   4.146   5.999   7.094 -0.0833  0.7596 -2.4934
  292MOL0     H40281   3.889   6.029   7.130  0.7053 -0.0571 -1.2113
  292MOL0     H40282   3.609   6.456   7.222  0.3671  1.0460 -0.5484
  292MOL0     H40283   3.416   6.515   7.336 -0.7970  2.1656 -2.2007
  292MOL0     H40284   3.047   6.469   7.427  1.2085 -0.2853  1.8090
  292MOL0     H40285   3.211   6.490   7.477 -0.8639 -1.3480  0.9969
  292MOL0     H40286   3.100   6.587   7.214 -1.7565 -1.9087  1.9369
  292MOL0     H40287   3.263   6.634   7.284  0.1697  0.8327  2.5471
  292MOL0     H40288   3.053   6.778   7.290 -1.2430 -0.9149  0.3011
  292MOL0     H40289   3.018   6.693   7.436 -0.0917  3.5519  1.3168
  292MOL0     H40290   3.299   6.804   7.385  1.0791 -1.9099  0.3385
  292MOL0     H40291   3.241   6.728   7.533  2.5392 -0.1578 -1.0562
  292MOL0     H40292   3.108   7.132   7.559  0.2937  0.2961 -0.5267
  292MOL0     H40293   3.212   6.185   7.155  0.8303 -2.5496  2.2481
  292MOL0     H40294   3.464   5.973   7.029  2.3185 -1.4700 -3.5689
  292MOL0     H40295   3.318   6.045   6.981  0.7313  1.0675 -1.6480
  292MOL0     H40296   3.481   6.094   6.910  1.7955 -0.7870  0.6775
  293MOL0     O40297   4.439   6.971   2.188  0.2124  0.2820 -0.0628
  293MOL0     C40298   4.486   7.084   2.195  0.1737  0.1122  0.3931
  293MOL0     O40299   4.622   7.114   2.173 -0.5222  0.8735  0.2993
  293MOL0     C40300   4.689   7.041   2.075  0.3958  0.5493  0.0036
  293MOL0     C40301   4.725   6.905   2.087  0.1661  0.8561 -0.7372
  293MOL0     C40302   4.794   6.834   1.999 -0.4290 -0.0214  0.9971
  293MOL0     C40303   4.819   6.898   1.876 -0.1245  0.2085 -0.1708
  293MOL0     O40304   4.873   6.815   1.782  0.3785 -0.5825  0.2132
  293MOL0     C40305   4.785   6.767   1.685 -0.1644  0.1206  0.1358
  293MOL0     C40306   4.801   6.830   1.549  0.5505 -0.0922 -0.0735
  293MOL0     C40307   4.944   6.797   1.505 -0.2548 -0.2065 -0.8221
  293MOL0     C40308   4.963   6.857   1.365 -0.0211 -0.5533  0.0483
  293MOL0     C40309   4.920   6.998   1.335  0.0782  0.2581 -0.8892
  293MOL0     C40310   4.983   7.109   1.429 -0.2272 -0.2490 -0.3109
  293MOL0     C40311   5.034   7.222   1.351 -0.8467  0.5322  1.0156
  293MOL0     C40312   5.112   7.312   1.449  1.1111  0.3397  0.2263
  293MOL0     N40313   5.031   7.362   1.567 -0.1683 -0.6198  0.1546
  293MOL0     C40314   4.927   7.451   1.554  0.4162  0.3878  0.2885
  293MOL0     C40315   4.866   7.455   1.673  0.7056 -0.0572 -0.1862
  293MOL0     C40316   4.733   7.520   1.695 -0.6355  0.3921  0.3623
  293MOL0     C40317   4.743   7.671   1.664  0.1355  0.0890 -0.1655
  293MOL0     C40318   4.606   7.730   1.642  1.1997 -0.3972  0.7810
  293MOL0     C40319   4.599   7.882   1.614  0.1116  0.4149  0.6746
  293MOL0     O40320   4.454   7.909   1.607  0.2894 -0.5264 -0.3781
  293MOL0     C40321   4.415   8.026   1.541 -0.3419 -0.2054  0.8009
  293MOL0     C40322   4.469   8.152   1.573 -0.0525  0.1585 -0.3003
  293MOL0     C40323   4.447   8.276   1.511 -0.7458  0.4887  0.3580
  293MOL0     C40324   4.523   8.402   1.550 -0.8547 -0.3922 -0.2043
  293MOL0     C40325   4.355   8.267   1.399  0.1663  0.6681 -0.3161
  293MOL0     C40326   4.333   8.384   1.316 -0.2332  0.2143  0.7371
  293MOL0     O40327   4.385   8.374   1.187 -0.4874  0.5505 -0.4854
  293MOL0     C40328   4.348   8.454   1.081  0.5631 -0.4969 -1.3329
  293MOL0     C40329   4.248   8.558   1.084 -0.6619  0.6082  0.2002
  293MOL0     C40330   4.222   8.629   0.965  0.8186  0.2672  0.3101
  293MOL0     C40331   4.304   8.616   0.853 -0.2143  0.1341 -0.2213
  293MOL0     O40332   4.288   8.703   0.750  0.0868  0.3577 -0.3312
  293MOL0     C40333   4.251   8.656   0.620  0.2165  0.4388 -0.3087
  293MOL0     C40334   4.317   8.756   0.513  0.1879  0.0219  0.7308
  293MOL0     C40335   4.296   8.907   0.542 -0.1455 -0.4872  0.6095
  293MOL0     C40336   4.153   8.940   0.506  1.0107 -1.1261 -0.0358
  293MOL0     C40337   4.125   8.938   0.359 -0.4698  1.6672 -0.3871
  293MOL0     C40338   3.984   8.985   0.336 -0.3098  0.3073 -0.4200
  293MOL0     C40339   3.969   9.136   0.349  0.2498  0.6177 -0.5905
  293MOL0     C40340   4.026   9.221   0.234  0.2835  0.0761 -0.0017
  293MOL0    Cl40341   3.997   9.382   0.257  0.2581 -0.0338  0.4965
  293MOL0     C40342   4.412   8.517   0.853  0.9800 -0.6280  0.0180
  293MOL0     C40343   4.435   8.445   0.971 -0.5567 -0.4566 -0.1192
  293MOL0     O40344   4.282   8.483   1.361 -0.5998 -0.1921 -0.4485
  293MOL0     C40345   4.311   8.145   1.360 -0.4584 -0.0883 -0.1436
  293MOL0     C40346   4.337   8.024   1.426 -0.1275  0.4602 -0.8918
  293MOL0     N40347   4.934   7.367   1.762  0.0657 -0.1433 -0.4812
  293MOL0     N40348   5.031   7.325   1.696 -0.1672 -0.7822 -0.1513
  293MOL0     C40349   4.785   7.030   1.853 -0.9054 -0.2322  1.0106
  293MOL0     C40350   4.713   7.100   1.947 -0.7904 -0.5956  0.5805
  293MOL0     C40351   4.403   7.210   2.200  0.1134 -0.4944 -0.5222
  293MOL0     C40352   4.461   7.341   2.190  0.5212  0.6840 -0.3379
  293MOL0     C40353   4.390   7.454   2.171  0.1278 -0.4805 -0.1565
  293MOL0     C40354   4.256   7.452   2.179  0.0158 -0.1136 -0.1478
  293MOL0     O40355   4.179   7.566   2.165  0.0256  0.8930  0.3469
  293MOL0     C40356   4.216   7.676   2.252 -0.9640  0.4480  0.0959
  293MOL0     C40357   4.160   7.797   2.194  1.0643 -0.1392  0.3325
  293MOL0     C40358   4.198   7.926   2.272 -0.7302  0.7283  0.0414
  293MOL0     C40359   4.096   8.040   2.282 -1.0680  0.1896  0.9842
  293MOL0     C40360   4.129   8.124   2.394  0.4536  0.5446 -0.2762
  293MOL0     C40361   4.159   8.189   2.489 -0.1663 -0.4707  0.3619
  293MOL0     C40362   4.194   7.332   2.191  0.5631 -0.2671 -0.1007
  293MOL0     C40363   4.259   7.210   2.199  0.3586  0.2955  0.5391
  293MOL0     C40364   4.165   7.082   2.202  0.0904 -0.4974 -1.1048
  293MOL0     H40365   4.713   6.854   2.182  3.0219 -2.2395 -1.8303
  293MOL0     H40366   4.835   6.734   2.006  1.3491  0.5295 -0.5934
  293MOL0     H40367   4.678   6.777   1.706 -0.1119  1.7503 -0.2817
  293MOL0     H40368   4.802   6.659   1.688  1.5003  0.3801  2.3942
  293MOL0     H40369   4.732   6.774   1.484 -0.2463  1.7409 -0.8615
  293MOL0     H40370   4.771   6.935   1.557 -1.2007 -0.6478  1.3315
  293MOL0     H40371   5.018   6.839   1.574  1.1059 -0.2165 -2.2322
  293MOL0     H40372   4.972   6.692   1.496 -3.3680 -1.0872 -1.5114
  293MOL0     H40373   5.072   6.860   1.354 -0.2493  2.0175 -3.8852
  293MOL0     H40374   4.900   6.793   1.302 -1.5554  1.9051 -1.0807
  293MOL0     H40375   4.812   6.989   1.351  0.2644 -1.8973 -0.6528
  293MOL0     H40376   4.932   7.023   1.229  0.8920 -2.4286 -1.5056
  293MOL0     H40377   4.907   7.155   1.492 -0.7509 -1.3277 -0.1151
  293MOL0     H40378   5.067   7.072   1.489  0.3032  0.5091 -0.5803
  293MOL0     H40379   4.951   7.264   1.293 -2.1769 -0.5502  2.0741
  293MOL0     H40380   5.115   7.181   1.290  2.5422  0.0267  5.3237
  293MOL0     H40381   5.186   7.246   1.497  0.5339 -0.5676 -0.1008
  293MOL0     H40382   5.155   7.393   1.389  1.2207 -1.7714 -2.7745
  293MOL0     H40383   4.897   7.503   1.463 -0.8966 -0.6718  0.0906
  293MOL0     H40384   4.677   7.511   1.788 -0.0576  2.8152  1.0093
  293MOL0     H40385   4.665   7.485   1.617 -0.4275 -2.9738  1.5165
  293MOL0     H40386   4.767   7.716   1.761 -1.1214  0.3394  0.0577
  293MOL0     H40387   4.815   7.686   1.584 -2.2082  0.1527 -2.4137
  293MOL0     H40388   4.570   7.682   1.550  1.1693 -2.4350  1.8068
  293MOL0     H40389   4.538   7.712   1.726  0.7959  1.7581  0.9619
  293MOL0     H40390   4.654   7.942   1.688  0.1699  1.0671  0.1108
  293MOL0     H40391   4.649   7.899   1.518  2.2468 -1.2304  1.3966
  293MOL0     H40392   4.535   8.158   1.659  1.0013 -2.0120 -0.8895
  293MOL0     H40393   4.457   8.442   1.628 -4.3609 -4.4840 -0.6613
  293MOL0     H40394   4.532   8.467   1.463  1.4183  0.1178  0.3552
  293MOL0     H40395   4.621   8.373   1.588 -0.7225  0.6511  0.2911
  293MOL0     H40396   4.187   8.548   1.174  1.8233  1.5545  2.1012
  293MOL0     H40397   4.132   8.689   0.960  1.0045  0.4378 -1.7425
  293MOL0     H40398   4.284   8.553   0.606 -1.6272 -0.0589 -1.3001
  293MOL0     H40399   4.141   8.659   0.625  0.2330  2.4411  4.8370
  293MOL0     H40400   4.426   8.762   0.521  0.3290  2.8560 -1.4928
  293MOL0     H40401   4.292   8.712   0.416  1.8104 -3.6597  1.8228
  293MOL0     H40402   4.365   8.966   0.482  2.1154  1.0724  4.4114
  293MOL0     H40403   4.323   8.934   0.645  3.3233  0.3473 -0.4031
  293MOL0     H40404   4.135   9.036   0.555  0.3393 -3.0807  3.9849
  293MOL0     H40405   4.084   8.875   0.561  1.3468 -0.8418  0.7378
  293MOL0     H40406   4.189   8.990   0.286 -0.2458 -3.5541 -4.5075
  293MOL0     H40407   4.133   8.834   0.326  2.1691  2.3523 -2.2247
  293MOL0     H40408   3.921   8.934   0.410  1.6981 -1.8399 -0.0788
  293MOL0     H40409   3.950   8.949   0.238 -4.0430 -3.8151  2.0309
  293MOL0     H40410   4.016   9.154   0.447 -0.2464 -0.0017 -0.2348
  293MOL0     H40411   3.861   9.152   0.350  0.1862  0.6185 -3.0270
  293MOL0     H40412   3.965   9.190   0.149 -1.8689  0.6352  1.2601
  293MOL0     H40413   4.132   9.205   0.211 -0.0433 -0.1568 -1.4160
  293MOL0     H40414   4.473   8.498   0.766  3.8726  2.2025  1.2180
  293MOL0     H40415   4.520   8.378   0.983  1.1807  0.8398 -3.7560
  293MOL0     H40416   4.267   8.138   1.261  1.2154  1.0999 -1.0152
  293MOL0     H40417   4.301   7.932   1.381 -1.7422  0.1541  0.9148
  293MOL0     H40418   4.802   7.064   1.752 -0.5873  1.0775  1.4792
  293MOL0     H40419   4.687   7.205   1.936 -0.2960 -0.5027  0.2581
  293MOL0     H40420   4.567   7.358   2.177  0.4066  1.0215 -0.8698
  293MOL0     H40421   4.441   7.546   2.145 -0.1466 -0.2221  0.2144
  293MOL0     H40422   4.178   7.663   2.353  2.2842 -1.6250  1.2178
  293MOL0     H40423   4.325   7.687   2.258 -1.0475  4.0865 -1.7287
  293MOL0     H40424   4.052   7.783   2.190  1.1106 -0.1123 -2.3673
  293MOL0     H40425   4.194   7.805   2.091 -0.9998 -2.9353 -0.7025
  293MOL0     H40426   4.216   7.888   2.373  1.1598  1.4533  0.0088
  293MOL0     H40427   4.291   7.960   2.226  0.0421  0.3272  1.2705
  293MOL0     H40428   3.992   8.006   2.290 -1.3734  1.0362  0.6554
  293MOL0     H40429   4.111   8.101   2.193 -1.7338 -0.9988  0.0121
  293MOL0     H40430   4.193   8.242   2.576 -0.1482 -1.8555  1.2319
  293MOL0     H40431   4.088   7.347   2.209  0.8639  1.6091  0.2271
  293MOL0     H40432   4.152   7.033   2.105 -1.6357  0.6711 -1.5074
  293MOL0     H40433   4.199   7.015   2.281 -3.7290 -1.0848  0.2347
  293MOL0     H40434   4.065   7.114   2.233 -0.6951 -2.7507 -1.1779
  294MOL0     O40435   4.938   4.024   7.819 -0.1902 -1.1860  0.4547
  294MOL0     C40436   4.999   4.100   7.899  0.5665  0.5614  1.2420
  294MOL0     O40437   5.123   4.075   7.954 -0.1145  0.5124 -0.8405
  294MOL0     C40438   5.200   3.966   7.940 -0.5881  0.0186 -0.1761
  294MOL0     C40439   5.337   4.000   7.934 -0.8656  0.1051 -0.1757
  294MOL0     C40440   5.422   3.897   7.903 -1.1837 -0.1480 -0.4864
  294MOL0     C40441   5.390   3.765   7.903 -0.1405 -0.6050 -0.6879
  294MOL0     O40442   5.498   3.684   7.879 -0.6209 -1.0099 -0.1712
  294MOL0     C40443   5.484   3.613   7.757  0.1412 -0.6327 -0.6116
  294MOL0     C40444   5.610   3.529   7.738  0.3921  0.5208 -0.7094
  294MOL0     C40445   5.602   3.407   7.823 -0.0663  0.9547 -0.0769
  294MOL0     C40446   5.721   3.309   7.801 -0.1387  0.0702 -0.3870
  294MOL0     C40447   5.861   3.355   7.861  0.3605 -0.8011 -0.1148
  294MOL0     C40448   5.867   3.335   8.009 -0.0667  0.7571 -0.0177
  294MOL0     C40449   6.005   3.387   8.064  1.1950  0.5465  0.0432
  294MOL0     C40450   6.016   3.376   8.217  0.2523  0.4791 -0.3238
  294MOL0     N40451   6.141   3.435   8.272 -0.4439 -0.9341  0.0226
  294MOL0     C40452   6.170   3.570   8.249  0.4069  0.4514 -0.0225
  294MOL0     C40453   6.279   3.586   8.329 -1.2620 -0.1037  0.0064
  294MOL0     C40454   6.346   3.713   8.375  0.2535 -0.7546 -0.4645
  294MOL0     C40455   6.260   3.802   8.464 -0.1810  0.0890 -0.5403
  294MOL0     C40456   6.253   3.758   8.604 -0.2126 -0.7254 -0.8220
  294MOL0     C40457   6.197   3.618   8.626 -0.0039 -0.3528  0.2901
  294MOL0     O40458   6.134   3.620   8.756 -0.3128 -0.1399 -0.2591
  294MOL0     C40459   6.130   3.499   8.817 -0.7759 -0.2112  0.3062
  294MOL0     C40460   6.112   3.381   8.748 -1.1850  0.7690  0.0882
  294MOL0     C40461   6.119   3.257   8.804 -0.4993  0.5878 -0.1917
  294MOL0     C40462   6.131   3.148   8.706  0.9426  0.0764 -0.3282
  294MOL0     C40463   6.153   3.241   8.943 -0.4596 -0.4283  0.1320
  294MOL0     C40464   6.168   3.119   9.016  0.0125 -0.3347 -0.1501
  294MOL0     O40465   6.202   3.135   9.147  0.1571 -0.0118  0.4296
  294MOL0     C40466   6.195   3.040   9.242 -0.2531  0.8368  0.6343
  294MOL0     C40467   6.283   3.044   9.345 -0.3736 -0.4186 -0.3942
  294MOL0     C40468   6.293   2.936   9.432  0.4522  0.0237  0.1500
  294MOL0     C40469   6.191   2.831   9.442 -0.0041 -1.4322 -0.0362
  294MOL0     O40470   6.215   2.747   9.543 -0.7045 -0.1037 -0.4593
  294MOL0     C40471   6.123   2.645   9.580  0.6741  0.9786 -0.0929
  294MOL0     C40472   6.144   2.593   9.724 -0.4563  0.6875  0.2470
  294MOL0     C40473   6.033   2.494   9.766 -0.4377 -0.2125  0.3890
  294MOL0     C40474   6.009   2.489   9.922 -0.5252  0.2520  0.2110
  294MOL0     C40475   5.911   2.386   9.946 -0.8296 -0.4366  0.5444
  294MOL0     C40476   5.890   2.353  10.097 -0.2046  0.5023  0.3272
  294MOL0     C40477   5.806   2.223  10.091 -0.7236  0.1744  0.0252
  294MOL0     C40478   5.739   2.188  10.232  0.0611 -0.6572 -0.4093
  294MOL0    Cl40479   5.844   2.102  10.345 -0.3994 -0.2622 -0.1751
  294MOL0     C40480   6.095   2.841   9.342 -0.2050  0.2836  0.3611
  294MOL0     C40481   6.095   2.944   9.243  0.2071 -0.8324  0.0463
  294MOL0     O40482   6.140   3.013   8.964  0.1748  0.0261  0.2991
  294MOL0     C40483   6.182   3.364   9.015  1.2026 -0.6776 -0.8833
  294MOL0     C40484   6.162   3.486   8.951 -0.0213 -0.0638  1.1595
  294MOL0     N40485   6.319   3.469   8.388  0.0388 -0.5055  0.0372
  294MOL0     N40486   6.234   3.382   8.357 -0.2188 -0.9440 -0.5647
  294MOL0     C40487   5.258   3.727   7.905 -0.2103  0.7604 -0.0712
  294MOL0     C40488   5.164   3.836   7.926  0.1892  0.2584  0.2561
  294MOL0     C40489   4.951   4.233   7.951 -0.5994 -0.1349  0.5089
  294MOL0     C40490   4.969   4.264   8.089 -0.0268  0.6864  1.6977
  294MOL0     C40491   4.943   4.390   8.132 -0.5150  0.2602  0.1035
  294MOL0     C40492   4.886   4.490   8.048  0.2229 -0.9471 -0.3286
  294MOL0     O40493   4.851   4.618   8.092  0.0351  0.1398  0.6496
  294MOL0     C40494   4.896   4.665   8.217 -0.1297 -0.5244  0.2646
  294MOL0     C40495   4.907   4.820   8.195  0.0915  0.0815 -0.3686
  294MOL0     C40496   4.782   4.902   8.163 -0.2297 -0.4816 -0.2125
  294MOL0     C40497   4.693   4.896   8.296  0.2861  0.7167  0.2399
  294MOL0     C40498   4.595   5.000   8.314 -1.2074 -0.1075 -0.9783
  294MOL0     C40499   4.508   5.083   8.326  0.2268  0.6400 -1.4982
  294MOL0     C40500   4.855   4.449   7.913  0.2666 -0.9313 -0.6800
  294MOL0     C40501   4.884   4.330   7.862  0.1468  0.5493  0.1934
  294MOL0     C40502   4.863   4.301   7.710 -0.1566 -0.7314  0.0505
  294MOL0     H40503   5.376   4.098   7.960 -0.6441 -0.6242  2.5426
  294MOL0     H40504   5.528   3.911   7.883 -1.4970 -1.5160 -3.7601
  294MOL0     H40505   5.481   3.695   7.685 -0.9847  0.0726  0.1975
  294MOL0     H40506   5.396   3.548   7.754 -0.4345 -0.3419  3.3339
  294MOL0     H40507   5.625   3.518   7.630  1.2569  1.4591 -0.7040
  294MOL0     H40508   5.689   3.592   7.780  0.4592  1.3819 -2.0618
  294MOL0     H40509   5.598   3.442   7.927 -0.3799  2.7542 -0.6625
  294MOL0     H40510   5.510   3.354   7.795  1.2006 -1.7470  0.6007
  294MOL0     H40511   5.691   3.212   7.841  3.4414 -2.2146 -2.7427
  294MOL0     H40512   5.733   3.294   7.694  1.0569 -0.7810 -0.1469
  294MOL0     H40513   5.871   3.458   7.825  0.4521  0.0412  2.1418
  294MOL0     H40514   5.935   3.289   7.814  0.0312 -0.7702 -0.6938
  294MOL0     H40515   5.784   3.395   8.046 -1.4352 -0.1546 -1.4875
  294MOL0     H40516   5.854   3.231   8.043  1.2014  0.9971  1.3189
  294MOL0     H40517   6.005   3.495   8.047  0.5210  0.8179  1.6577
  294MOL0     H40518   6.091   3.334   8.020 -0.5727 -2.3887 -0.1701
  294MOL0     H40519   5.929   3.432   8.250 -0.9333  0.4240 -3.0727
  294MOL0     H40520   5.994   3.276   8.257 -0.6169  0.3907 -0.9787
  294MOL0     H40521   6.111   3.646   8.199  0.1206 -0.2020 -0.6965
  294MOL0     H40522   6.372   3.770   8.285 -2.6749 -0.5139 -1.2431
  294MOL0     H40523   6.443   3.697   8.422  0.6063  1.9081 -0.0983
  294MOL0     H40524   6.301   3.903   8.457 -2.2396  0.9489 -0.6249
  294MOL0     H40525   6.159   3.799   8.422 -0.5443 -4.3735  0.1396
  294MOL0     H40526   6.356   3.760   8.638 -0.6472 -4.3662  1.2060
  294MOL0     H40527   6.195   3.832   8.661 -1.3618 -2.6084  0.5769
  294MOL0     H40528   6.128   3.591   8.546  0.3798 -3.0545  0.7647
  294MOL0     H40529   6.282   3.549   8.624  2.3243  2.2396  2.5474
  294MOL0     H40530   6.085   3.396   8.644  2.4153  1.6443 -0.8307
  294MOL0     H40531   6.072   3.173   8.618  1.8952  0.6191 -0.8250
  294MOL0     H40532   6.099   3.049   8.740 -2.4806  1.1691 -0.0133
  294MOL0     H40533   6.231   3.153   8.663  0.9060  0.3459 -0.3860
  294MOL0     H40534   6.356   3.122   9.329  1.5820 -2.3889 -1.7594
  294MOL0     H40535   6.376   2.935   9.501  0.6526  0.8530 -0.0696
  294MOL0     H40536   6.020   2.682   9.582  0.8670  1.5749 -0.8029
  294MOL0     H40537   6.124   2.565   9.505 -0.1875  0.2475  0.6418
  294MOL0     H40538   6.241   2.542   9.731 -0.1602  0.9556 -1.5084
  294MOL0     H40539   6.154   2.683   9.785 -2.3981 -0.9424  3.1762
  294MOL0     H40540   6.028   2.399   9.713 -2.4121  1.7833 -3.3839
  294MOL0     H40541   5.945   2.549   9.732  2.1248  4.4553  0.4892
  294MOL0     H40542   5.980   2.590   9.952 -0.5161 -0.3821  2.5753
  294MOL0     H40543   6.104   2.455   9.966 -0.2969 -2.7283 -2.3063
  294MOL0     H40544   5.813   2.417   9.911 -1.8253  0.1085  3.5535
  294MOL0     H40545   5.945   2.294   9.898  0.8439  0.0536  0.6901
  294MOL0     H40546   5.846   2.431  10.160 -0.2893 -0.7920  1.9352
  294MOL0     H40547   5.979   2.312  10.144  0.5972 -0.4156 -1.8613
  294MOL0     H40548   5.870   2.140  10.061  6.1124  4.5378  0.1450
  294MOL0     H40549   5.733   2.246  10.014 -0.9754 -1.0984 -0.1347
  294MOL0     H40550   5.651   2.124  10.227  0.5062 -1.1464 -2.9287
  294MOL0     H40551   5.710   2.287  10.270 -2.7208 -0.1295 -3.4815
  294MOL0     H40552   6.019   2.764   9.340 -0.6491  0.7305 -0.1929
  294MOL0     H40553   6.010   2.935   9.175 -0.4949  1.5128  0.5131
  294MOL0     H40554   6.194   3.378   9.122  2.0016  0.6562 -1.1118
  294MOL0     H40555   6.178   3.573   9.013  1.9497  0.9125 -0.5724
  294MOL0     H40556   5.220   3.627   7.885 -2.9121  1.5114  0.8130
  294MOL0     H40557   5.057   3.820   7.915 -0.4957  4.3697 -0.7156
  294MOL0     H40558   5.006   4.183   8.151  0.7302 -2.1739 -2.1044
  294MOL0     H40559   4.957   4.396   8.240  4.2561 -1.9176 -0.1354
  294MOL0     H40560   4.821   4.639   8.291  2.8581 -5.3375  2.0889
  294MOL0     H40561   4.987   4.625   8.263 -1.5774 -2.5250  1.5573
  294MOL0     H40562   4.968   4.818   8.104 -0.0520 -1.3664 -0.4557
  294MOL0     H40563   4.964   4.872   8.273 -1.8717  0.9920  0.5261
  294MOL0     H40564   4.803   5.006   8.134 -2.8260  0.1567 -0.0680
  294MOL0     H40565   4.722   4.857   8.083  1.3048  0.5372 -2.0042
  294MOL0     H40566   4.760   4.895   8.383 -0.6365 -0.8957  0.9845
  294MOL0     H40567   4.650   4.795   8.298 -0.6567  0.9215 -3.3828
  294MOL0     H40568   4.420   5.143   8.340  0.2492  0.1176  1.4732
  294MOL0     H40569   4.815   4.531   7.855  2.4620  1.3713  0.7968
  294MOL0     H40570   4.953   4.313   7.649 -0.9805  3.4264 -0.6541
  294MOL0     H40571   4.816   4.203   7.699 -0.8533 -0.2148 -2.0547
  294MOL0     H40572   4.796   4.373   7.663  2.1652  1.1334 -0.6139
  295MOL0     O40573   6.788   0.870  11.473  0.7615 -0.7026  0.1278
  295MOL0     C40574   6.664   0.874  11.463 -1.3015  0.5016  0.5367
  295MOL0     O40575   6.591   0.887  11.349  0.9263  0.7541  0.0024
  295MOL0     C40576   6.650   0.896  11.231  0.2760  0.1685 -0.0768
  295MOL0     C40577   6.616   0.791  11.141  1.1632  0.1781 -0.0304
  295MOL0     C40578   6.664   0.799  11.009 -0.8294  0.2825  0.5386
  295MOL0     C40579   6.747   0.912  10.965 -0.3723 -0.1201 -0.0816
  295MOL0     O40580   6.796   0.920  10.845  0.2520  0.4804  1.5578
  295MOL0     C40581   6.778   1.052  10.776 -0.2134  0.1864  0.0445
  295MOL0     C40582   6.632   1.085  10.735 -0.4957  0.9657  0.4930
  295MOL0     C40583   6.647   1.239  10.700 -0.2915 -0.4797  0.8429
  295MOL0     C40584   6.514   1.286  10.652 -0.5051  0.2403 -0.0236
  295MOL0     C40585   6.530   1.437  10.631 -0.3888 -0.0899 -0.1154
  295MOL0     C40586   6.409   1.534  10.595 -0.1043 -1.0088 -0.3269
  295MOL0     C40587   6.283   1.490  10.662  0.6770 -0.1977  0.4877
  295MOL0     C40588   6.172   1.574  10.613  0.7426  0.2760  0.1714
  295MOL0     N40589   6.127   1.560  10.470  0.4869 -1.2039  0.4412
  295MOL0     C40590   6.098   1.436  10.422  0.3990  0.4188  0.2002
  295MOL0     C40591   6.063   1.443  10.294  0.3290  0.6768  0.0802
  295MOL0     C40592   6.018   1.335  10.191  0.2384  0.0708  0.0221
  295MOL0     C40593   6.134   1.297  10.103 -0.1059  0.1647 -0.3950
  295MOL0     C40594   6.090   1.189  10.013  0.1689  0.0321  0.5623
  295MOL0     C40595   6.206   1.098   9.966  0.1831 -0.2119 -0.4847
  295MOL0     O40596   6.298   1.187   9.921  0.4433  0.1492  0.4320
  295MOL0     C40597   6.388   1.156   9.818 -0.0014 -0.2260 -0.0473
  295MOL0     C40598   6.433   1.028   9.793 -0.2691  0.6920  0.0422
  295MOL0     C40599   6.535   1.004   9.697 -0.5641 -0.3892 -0.2165
  295MOL0     C40600   6.584   0.860   9.673 -0.4689  0.1389  0.0910
  295MOL0     C40601   6.600   1.129   9.634 -0.1543 -0.0308  0.3001
  295MOL0     C40602   6.725   1.135   9.556  0.2919 -0.2160 -0.5486
  295MOL0     O40603   6.785   1.021   9.534 -0.2585  0.8498 -0.2371
  295MOL0     C40604   6.883   0.984   9.450 -0.7992 -0.1842 -0.3375
  295MOL0     C40605   6.954   0.863   9.474  0.4514  0.2312 -0.2454
  295MOL0     C40606   7.061   0.821   9.383  0.1089 -0.0427  0.7609
  295MOL0     C40607   7.094   0.894   9.263 -0.0588  0.5237  1.2480
  295MOL0     O40608   7.170   0.843   9.161 -1.1555 -0.6611 -0.1514
  295MOL0     C40609   7.297   0.770   9.188 -0.2933 -0.2554 -0.0579
  295MOL0     C40610   7.309   0.664   9.079  0.6702 -0.2451 -0.6075
  295MOL0     C40611   7.451   0.592   9.079  1.5600 -0.5768 -0.0526
  295MOL0     C40612   7.474   0.495   8.957  0.3578 -0.5706 -0.4224
  295MOL0     C40613   7.613   0.435   8.958  0.3426  0.6138 -0.2491
  295MOL0     C40614   7.616   0.296   8.884  0.3714  0.7811 -0.2358
  295MOL0     C40615   7.729   0.199   8.936 -0.4081  0.8235 -0.4441
  295MOL0     C40616   7.695   0.154   9.083 -0.9258  0.2367  0.9122
  295MOL0    Cl40617   7.845   0.075   9.137  0.1789 -0.3606  0.5743
  295MOL0     C40618   7.012   1.006   9.239  0.8114  0.1235  0.4602
  295MOL0     C40619   6.912   1.054   9.326 -0.4554  0.0522  0.2627
  295MOL0     O40620   6.756   1.240   9.503  0.2531 -0.0372  0.5435
  295MOL0     C40621   6.548   1.258   9.665 -0.5613  0.8260  0.2302
  295MOL0     C40622   6.447   1.265   9.761 -0.4989  0.3167  0.8556
  295MOL0     N40623   6.094   1.573  10.259  0.2665  0.2991  1.2266
  295MOL0     N40624   6.126   1.647  10.367 -0.1425  0.3940  0.2494
  295MOL0     C40625   6.779   1.011  11.062 -0.7859 -0.2570 -0.5771
  295MOL0     C40626   6.732   0.999  11.197 -0.0173 -0.2473  0.8551
  295MOL0     C40627   6.584   0.875  11.584  0.0360 -0.0256 -0.5283
  295MOL0     C40628   6.443   0.872  11.568 -0.2684 -0.2295 -0.3526
  295MOL0     C40629   6.365   0.876  11.678 -0.4888  0.5981  1.8159
  295MOL0     C40630   6.415   0.878  11.812  0.2093  0.2705  0.7218
  295MOL0     O40631   6.344   0.879  11.927  0.2575 -0.1525 -0.6144
  295MOL0     C40632   6.201   0.859  11.922  0.8639 -0.3118  0.0366
  295MOL0     C40633   6.158   0.713  11.883 -0.2307  0.3885 -1.1505
  295MOL0     C40634   6.005   0.711  11.868  0.2810  0.1826 -0.2427
  295MOL0     C40635   5.941   0.582  11.934  0.3321 -0.2396 -0.5216
  295MOL0     C40636   5.802   0.566  11.898 -0.5819 -1.6403  0.9294
  295MOL0     C40637   5.695   0.547  11.848 -0.3021  0.4397  0.3615
  295MOL0     C40638   6.554   0.878  11.828 -0.4144  0.2428 -0.3381
  295MOL0     C40639   6.640   0.892  11.722  0.1339 -0.9041  1.1286
  295MOL0     C40640   6.788   0.904  11.748  0.0330 -0.5898 -0.0709
  295MOL0     H40641   6.545   0.716  11.176  0.5280  1.4393  1.5206
  295MOL0     H40642   6.633   0.723  10.939 -0.7202  3.0022 -2.7400
  295MOL0     H40643   6.834   1.039  10.683  2.0372 -3.3990  1.6748
  295MOL0     H40644   6.828   1.136  10.825  2.0535 -0.4070 -1.1077
  295MOL0     H40645   6.612   1.019  10.651 -0.7112  0.3138  1.0488
  295MOL0     H40646   6.558   1.057  10.811 -0.7277  0.1147 -0.0461
  295MOL0     H40647   6.671   1.290  10.794  0.4524 -0.1504  0.4878
  295MOL0     H40648   6.730   1.257  10.632  2.1192 -1.7442  3.2323
  295MOL0     H40649   6.482   1.220  10.571 -1.3701  0.0816  0.4350
  295MOL0     H40650   6.443   1.272  10.734  1.5800 -1.0796  1.7022
  295MOL0     H40651   6.610   1.453  10.558 -0.3548  0.1962 -0.0148
  295MOL0     H40652   6.573   1.478  10.722  2.4781 -0.8244 -1.0396
  295MOL0     H40653   6.451   1.632  10.621  1.1178 -1.9115  1.3407
  295MOL0     H40654   6.401   1.527  10.486  0.7859 -4.1596 -0.3050
  295MOL0     H40655   6.291   1.507  10.769 -1.4069 -3.0675  1.2357
  295MOL0     H40656   6.253   1.386  10.643 -0.5526  0.5519 -2.1432
  295MOL0     H40657   6.082   1.548  10.670  1.1364  0.8873  1.1034
  295MOL0     H40658   6.200   1.679  10.621 -1.8808  1.1897 -1.2270
  295MOL0     H40659   6.100   1.341  10.476 -1.7440 -1.3720 -2.5781
  295MOL0     H40660   5.934   1.384  10.142  1.0018  2.2710  0.7972
  295MOL0     H40661   5.976   1.250  10.247  1.6881 -1.2260 -0.7832
  295MOL0     H40662   6.182   1.377  10.045  0.8878 -0.2747 -0.2047
  295MOL0     H40663   6.211   1.259  10.171  1.3260  0.0738 -1.9830
  295MOL0     H40664   6.015   1.132  10.068 -1.4377  1.0711 -0.4672
  295MOL0     H40665   6.046   1.221   9.919  0.5417 -2.9638 -0.7628
  295MOL0     H40666   6.250   1.031  10.041  2.2710  1.7034  0.1180
  295MOL0     H40667   6.164   1.036   9.886 -0.8730 -0.7800  0.4828
  295MOL0     H40668   6.385   0.954   9.856 -0.9035  1.8649  0.9834
  295MOL0     H40669   6.524   0.790   9.731 -2.0459  1.1434 -0.2674
  295MOL0     H40670   6.690   0.857   9.703  0.2962 -2.2824 -2.4568
  295MOL0     H40671   6.586   0.823   9.571 -3.6140 -0.8970  0.2999
  295MOL0     H40672   6.931   0.817   9.569 -0.0857 -0.7780 -0.8557
  295MOL0     H40673   7.112   0.727   9.401 -1.7238 -1.0817  0.7039
  295MOL0     H40674   7.387   0.830   9.207  0.1282 -1.7853  3.4409
  295MOL0     H40675   7.292   0.713   9.281  3.9090 -1.2531 -0.2531
  295MOL0     H40676   7.224   0.596   9.073 -0.4999  1.1194 -0.0406
  295MOL0     H40677   7.302   0.713   8.981 -2.1821 -0.8521 -0.7988
  295MOL0     H40678   7.464   0.532   9.170  0.3285 -1.9529 -0.7341
  295MOL0     H40679   7.530   0.667   9.085 -1.4601  2.9164 -0.3030
  295MOL0     H40680   7.457   0.559   8.870 -6.7523  2.0770  2.2090
  295MOL0     H40681   7.398   0.417   8.965 -0.1642  0.0708  1.3992
  295MOL0     H40682   7.691   0.505   8.929  3.8105 -1.1381  3.7835
  295MOL0     H40683   7.640   0.430   9.064  3.3700  2.3571 -0.8212
  295MOL0     H40684   7.635   0.311   8.777  0.1790  0.3534 -0.3297
  295MOL0     H40685   7.519   0.245   8.883  0.6226  0.3061 -0.4766
  295MOL0     H40686   7.820   0.260   8.942 -0.1335  0.2633  1.8576
  295MOL0     H40687   7.750   0.117   8.867 -1.7335  2.1483 -2.5653
  295MOL0     H40688   7.605   0.093   9.095  0.9267 -3.2405 -1.2050
  295MOL0     H40689   7.681   0.241   9.147  0.7272  1.4252 -0.2635
  295MOL0     H40690   7.031   1.072   9.155 -2.2701  4.8164  3.0034
  295MOL0     H40691   6.858   1.143   9.297 -0.4502 -0.1789 -0.4879
  295MOL0     H40692   6.579   1.355   9.627 -1.7223  1.0581 -0.1688
  295MOL0     H40693   6.416   1.367   9.782  1.5713  1.2051 -0.0649
  295MOL0     H40694   6.836   1.103  11.053 -0.1476 -0.1335  3.0657
  295MOL0     H40695   6.751   1.081  11.266  1.3413  0.3410 -0.1513
  295MOL0     H40696   6.407   0.888  11.467 -1.4742  1.0324  0.2312
  295MOL0     H40697   6.260   0.854  11.662 -0.3661  0.1861  1.5583
  295MOL0     H40698   6.161   0.888  12.020  2.1196  1.2278  0.1249
  295MOL0     H40699   6.147   0.928  11.857  0.5719  2.0534  2.6053
  295MOL0     H40700   6.196   0.655  11.968  0.2371  2.2020 -0.0560
  295MOL0     H40701   6.205   0.667  11.796 -0.4784  0.8287 -1.5204
  295MOL0     H40702   5.957   0.804  11.898 -0.0606 -0.3335  0.8490
  295MOL0     H40703   5.991   0.698  11.760 -0.8416 -2.2953  0.1290
  295MOL0     H40704   5.937   0.590  12.043  1.9552 -2.7234 -0.1999
  295MOL0     H40705   5.996   0.489  11.918  0.8709  0.1638 -1.0429
  295MOL0     H40706   5.596   0.533  11.809  0.0538 -0.5350 -0.2436
  295MOL0     H40707   6.596   0.897  11.927  2.6428  0.2239 -1.5302
  295MOL0     H40708   6.833   0.984  11.688 -0.4592  1.4896  2.1667
  295MOL0     H40709   6.801   0.915  11.856  0.1898  2.2633 -0.3001
  295MOL0     H40710   6.834   0.809  11.718 -1.9527 -1.8031  0.5742
  296MOL0     O40711   8.715   2.814   8.165 -0.1167 -0.3086 -0.2942
  296MOL0     C40712   8.751   2.879   8.260 -0.4109  0.9581  0.6124
  296MOL0     O40713   8.878   2.911   8.292  0.3540  0.5675 -0.5443
  296MOL0     C40714   8.985   2.871   8.228  0.3710 -0.4519 -0.0076
  296MOL0     C40715   9.099   2.945   8.265  0.2495 -1.1123  0.5400
  296MOL0     C40716   9.219   2.923   8.197 -0.3451  0.0672 -1.5309
  296MOL0     C40717   9.221   2.832   8.087 -0.3260 -0.0800  0.0821
  296MOL0     O40718   9.342   2.830   8.023  0.4763 -0.1365 -0.0143
  296MOL0     C40719   9.369   2.701   7.971  0.2216  0.1835  0.7008
  296MOL0     C40720   9.514   2.674   7.937 -0.2483  0.2753 -0.6973
  296MOL0     C40721   9.566   2.535   7.968 -0.2032 -0.1845 -0.8459
  296MOL0     C40722   9.713   2.542   7.996 -0.3495  0.2584  0.5346
  296MOL0     C40723   9.811   2.550   7.872  0.0160 -0.4851  0.3718
  296MOL0     C40724   9.947   2.598   7.916 -0.5814  0.3895  0.5378
  296MOL0     C40725  10.046   2.493   7.973 -0.5509 -0.1991  0.8143
  296MOL0     C40726  10.169   2.559   8.025  0.4461 -0.1939  0.1544
  296MOL0     N40727  10.266   2.608   7.924  0.7510  0.3287  0.2236
  296MOL0     C40728  10.265   2.735   7.880 -0.4757  0.5063 -0.6639
  296MOL0     C40729  10.391   2.758   7.830  0.3352 -1.0988 -1.0362
  296MOL0     C40730  10.448   2.887   7.773 -0.7770 -0.3143  0.5850
  296MOL0     C40731  10.484   2.866   7.627  0.5554 -0.0940 -0.3012
  296MOL0     C40732  10.538   3.000   7.559 -0.1772 -0.2903  0.1294
  296MOL0     C40733  10.563   2.984   7.418 -0.5930  0.6497 -0.3395
  296MOL0     O40734  10.668   2.890   7.395  0.8030 -0.5924  0.4190
  296MOL0     C40735  10.799   2.940   7.380  1.1563 -0.4483  0.2397
  296MOL0     C40736  10.897   2.851   7.337 -0.0859 -0.0126  0.6672
  296MOL0     C40737  11.031   2.886   7.312  0.5672 -0.0608  0.1165
  296MOL0     C40738  11.103   2.781   7.237  0.1383  0.2140 -0.0048
  296MOL0     C40739  11.075   3.019   7.340  0.2072  0.1209  0.4289
  296MOL0     C40740  11.217   3.066   7.312 -0.1122 -0.4515 -1.0765
  296MOL0     O40741  11.220   3.185   7.250 -0.0979 -0.3298 -0.5010
  296MOL0     C40742  11.336   3.260   7.237 -0.1311  0.0793 -0.2776
  296MOL0     C40743  11.420   3.231   7.136  0.6387  0.1329 -0.4331
  296MOL0     C40744  11.546   3.305   7.119  0.4454  1.0719  1.0992
  296MOL0     C40745  11.587   3.399   7.215 -0.4018 -0.0514  0.6696
  296MOL0     O40746  11.721   3.452   7.214 -0.4325 -0.3758  0.6067
  296MOL0     C40747  11.789   3.483   7.338 -0.2565  0.8256  0.0462
  296MOL0     C40748  11.933   3.545   7.323  0.1834  0.6489 -0.7816
  296MOL0     C40749  11.995   3.567   7.456  0.2380 -0.1135 -0.3210
  296MOL0     C40750  12.106   3.665   7.441 -0.4179  0.1784  0.1589
  296MOL0     C40751  12.204   3.669   7.563 -0.5684 -0.3084 -0.5081
  296MOL0     C40752  12.291   3.805   7.576  0.6973  0.1768 -1.3915
  296MOL0     C40753  12.420   3.775   7.477  0.2187  1.1619 -0.7707
  296MOL0     C40754  12.501   3.903   7.439  0.6657  0.5122  0.5254
  296MOL0    Cl40755  12.662   3.884   7.369  0.1292 -0.2876  0.0006
  296MOL0     C40756  11.498   3.428   7.314 -0.4792 -0.0821  0.0418
  296MOL0     C40757  11.373   3.362   7.325 -0.7626 -0.1417  0.3399
  296MOL0     O40758  11.314   3.000   7.347  0.0785  0.3296 -0.4974
  296MOL0     C40759  10.979   3.110   7.387 -0.4654  0.5309 -1.2197
  296MOL0     C40760  10.840   3.075   7.405  0.8778 -0.0826  0.3332
  296MOL0     N40761  10.463   2.636   7.838 -0.3199 -0.9830  0.2676
  296MOL0     N40762  10.375   2.544   7.876 -0.3597  0.4997 -0.5911
  296MOL0     C40763   9.105   2.762   8.051  0.4996 -0.5020  0.2440
  296MOL0     C40764   8.986   2.770   8.121 -1.3474  0.4000  0.9078
  296MOL0     C40765   8.644   2.903   8.356 -0.0145 -0.6752  1.0806
  296MOL0     C40766   8.679   2.964   8.480 -0.6588 -0.3628  0.7760
  296MOL0     C40767   8.587   2.992   8.572  0.0055 -0.4060 -0.1971
  296MOL0     C40768   8.446   2.970   8.561 -0.3019 -0.6586 -0.1342
  296MOL0     O40769   8.360   2.998   8.664 -0.2371  0.2691  0.1870
  296MOL0     C40770   8.220   2.996   8.626  0.3551  0.5509  0.7958
  296MOL0     C40771   8.149   3.048   8.743  0.1212 -0.4208  0.4383
  296MOL0     C40772   8.167   3.196   8.762 -0.0990  0.2762  0.3939
  296MOL0     C40773   8.054   3.247   8.852 -0.1425 -0.7426 -0.2660
  296MOL0     C40774   7.925   3.274   8.785  0.1487  0.7187 -0.6966
  296MOL0     C40775   7.823   3.311   8.739 -0.1826  0.3197 -0.3537
  296MOL0     C40776   8.407   2.932   8.431  1.1159  1.0328 -0.4382
  296MOL0     C40777   8.501   2.900   8.326 -0.4051 -0.0652 -0.5966
  296MOL0     C40778   8.451   2.848   8.193 -0.5809 -1.4829 -0.7990
  296MOL0     H40779   9.081   3.020   8.342  1.7623  1.3059 -1.2952
  296MOL0     H40780   9.302   2.983   8.233 -1.2914 -0.1208  1.2001
  296MOL0     H40781   9.320   2.686   7.874  1.1203 -1.5923  0.4860
  296MOL0     H40782   9.335   2.613   8.027 -2.2074 -1.9441 -3.5759
  296MOL0     H40783   9.546   2.715   7.841  5.0664  0.3285  0.7776
  296MOL0     H40784   9.574   2.742   7.998 -0.8184  0.1208  0.0546
  296MOL0     H40785   9.518   2.489   8.055 -0.1535  1.3939  0.0499
  296MOL0     H40786   9.550   2.466   7.885  1.1781 -0.2209 -1.1075
  296MOL0     H40787   9.725   2.618   8.074 -1.2066  1.9388 -0.8806
  296MOL0     H40788   9.750   2.448   8.039  2.2236  1.0775  0.3020
  296MOL0     H40789   9.772   2.617   7.795  1.1573  0.0586  0.2473
  296MOL0     H40790   9.826   2.456   7.819  1.5424 -1.4345  2.3454
  296MOL0     H40791   9.990   2.650   7.830  2.8841 -1.2755  1.0779
  296MOL0     H40792   9.924   2.666   7.999 -4.0216 -0.9312  0.8571
  296MOL0     H40793  10.061   2.415   7.898 -0.3716 -0.0502  0.6948
  296MOL0     H40794   9.991   2.452   8.058  0.0508 -1.1511  0.7645
  296MOL0     H40795  10.139   2.648   8.081 -1.5345 -0.8822  0.2714
  296MOL0     H40796  10.213   2.491   8.099 -0.6163 -0.4233  0.5936
  296MOL0     H40797  10.181   2.804   7.883 -1.7867 -1.0533  2.2433
  296MOL0     H40798  10.537   2.906   7.834 -1.5700  2.4191  1.0451
  296MOL0     H40799  10.369   2.962   7.782 -1.3887 -0.2937 -3.4870
  296MOL0     H40800  10.562   2.790   7.626 -0.6747 -1.4009 -0.6773
  296MOL0     H40801  10.397   2.817   7.582  1.6608 -3.4349  0.8809
  296MOL0     H40802  10.451   3.066   7.560 -0.6703 -0.9150  1.7920
  296MOL0     H40803  10.625   3.040   7.612 -1.3254  2.3679  0.2124
  296MOL0     H40804  10.482   2.939   7.360  0.0361 -1.1481  0.0857
  296MOL0     H40805  10.593   3.083   7.385  0.7352  0.2933 -0.2876
  296MOL0     H40806  10.868   2.748   7.317 -2.6095  0.9021 -0.9878
  296MOL0     H40807  11.062   2.776   7.135 -1.0376  1.8299  0.3445
  296MOL0     H40808  11.084   2.683   7.281 -0.9475  0.3263 -0.1950
  296MOL0     H40809  11.212   2.790   7.233 -0.0112  1.9361 -1.1491
  296MOL0     H40810  11.392   3.154   7.066  1.3726  0.7712 -1.4499
  296MOL0     H40811  11.623   3.281   7.046 -1.8610 -2.6708 -0.4741
  296MOL0     H40812  11.734   3.538   7.414  1.8142  1.7814  0.9289
  296MOL0     H40813  11.805   3.384   7.382  0.2614  0.0597 -1.7472
  296MOL0     H40814  11.998   3.477   7.267  1.2687 -0.5877  1.8198
  296MOL0     H40815  11.921   3.640   7.271 -2.5321  1.6099  1.3614
  296MOL0     H40816  12.038   3.468   7.474 -1.5096 -1.1147 -1.5012
  296MOL0     H40817  11.928   3.599   7.537  1.0915  0.0917  0.3251
  296MOL0     H40818  12.073   3.768   7.423  2.4298  1.6173  2.3988
  296MOL0     H40819  12.165   3.641   7.352  0.1761  1.4059  0.1966
  296MOL0     H40820  12.126   3.683   7.639 -2.4296 -4.1794 -1.4284
  296MOL0     H40821  12.265   3.579   7.577 -0.9557 -0.5303 -0.2078
  296MOL0     H40822  12.314   3.845   7.676 -1.6088  0.1080 -0.7818
  296MOL0     H40823  12.221   3.880   7.541 -0.4917 -1.3927 -2.4785
  296MOL0     H40824  12.395   3.732   7.380 -0.2064 -1.1551  0.2948
  296MOL0     H40825  12.492   3.704   7.519 -1.0504  1.6712  2.5826
  296MOL0     H40826  12.508   3.958   7.533 -1.1433 -0.0408  1.0156
  296MOL0     H40827  12.434   3.959   7.373  3.3586  2.0926 -1.0461
  296MOL0     H40828  11.531   3.504   7.383  0.6228  1.3200 -1.9312
  296MOL0     H40829  11.309   3.382   7.410 -1.7786  1.6575 -0.7737
  296MOL0     H40830  11.008   3.211   7.415 -2.2146  0.1836  2.3702
  296MOL0     H40831  10.767   3.145   7.443  1.0050  1.5658 -2.2041
  296MOL0     H40832   9.106   2.702   7.961 -0.9529 -1.3084  0.7282
  296MOL0     H40833   8.910   2.705   8.081  0.0865 -2.0968  1.9912
  296MOL0     H40834   8.781   2.986   8.509  0.7617 -2.6158 -2.0160
  296MOL0     H40835   8.614   3.043   8.665 -2.9677  0.8307  0.0877
  296MOL0     H40836   8.206   3.051   8.533  0.4626 -0.0711  0.4065
  296MOL0     H40837   8.183   2.895   8.607  0.9345  0.0892  2.0013
  296MOL0     H40838   8.182   2.992   8.830  1.5421 -2.2327 -1.1921
  296MOL0     H40839   8.047   3.018   8.718  1.0169 -1.1627 -2.7591
  296MOL0     H40840   8.264   3.209   8.812 -0.3557 -2.3659  1.7534
  296MOL0     H40841   8.173   3.244   8.664  0.4117 -0.7736 -0.0958
  296MOL0     H40842   8.100   3.341   8.886  3.6215 -1.3005 -3.1482
  296MOL0     H40843   8.040   3.182   8.940 -2.1167  0.2062  0.1721
  296MOL0     H40844   7.734   3.343   8.689 -0.1080  0.8458 -0.1547
  296MOL0     H40845   8.306   2.919   8.394  0.6869 -0.5946  1.1283
  296MOL0     H40846   8.489   2.910   8.111 -1.4352 -0.3199 -0.3398
  296MOL0     H40847   8.478   2.742   8.185  2.8385 -0.8107 -0.0007
  296MOL0     H40848   8.343   2.852   8.204 -0.2825  0.5458  2.8938
  297MOL0     O40849   4.674   1.990  10.950  0.6499 -0.9032  0.5534
  297MOL0     C40850   4.595   2.039  11.022 -0.5150  0.4614  0.4649
  297MOL0     O40851   4.494   1.972  11.086  0.3392 -0.1617  0.2369
  297MOL0     C40852   4.494   1.836  11.079 -0.2829 -0.1385 -0.0493
  297MOL0     C40853   4.451   1.768  10.967 -0.3303  0.5519 -0.1721
  297MOL0     C40854   4.446   1.627  10.965 -0.2898  0.3369 -0.4882
  297MOL0     C40855   4.487   1.557  11.073  0.3872  0.5052  0.4602
  297MOL0     O40856   4.463   1.421  11.087 -0.9707 -0.5023 -0.4871
  297MOL0     C40857   4.506   1.347  10.973  0.1231  0.1664 -0.5138
  297MOL0     C40858   4.504   1.201  11.000 -0.4734 -0.5557  0.0749
  297MOL0     C40859   4.550   1.159  11.133 -0.4468 -0.7842  0.0055
  297MOL0     C40860   4.556   1.013  11.156 -0.3275  0.5294 -0.4214
  297MOL0     C40861   4.650   0.978  11.274  0.3687 -0.2551 -0.6239
  297MOL0     C40862   4.624   0.828  11.302 -0.8029 -0.8438 -0.8987
  297MOL0     C40863   4.744   0.756  11.373 -0.0738  0.8037  0.1644
  297MOL0     C40864   4.732   0.599  11.382 -0.3605 -0.1160 -0.9202
  297MOL0     N40865   4.830   0.529  11.472  0.3610  0.3564 -0.3936
  297MOL0     C40866   4.963   0.544  11.451 -0.0209  0.0713  0.2361
  297MOL0     C40867   5.016   0.487  11.561  0.2452 -0.3367 -0.9840
  297MOL0     C40868   5.165   0.465  11.593  0.6916  0.1675 -0.3957
  297MOL0     C40869   5.203   0.475  11.742 -0.0630  0.9261 -0.2721
  297MOL0     C40870   5.181   0.604  11.815  1.8239 -0.6148  1.6038
  297MOL0     C40871   5.194   0.588  11.969  0.5667  0.2320 -0.7147
  297MOL0     O40872   5.309   0.503  12.004  0.7316 -0.8542 -0.3717
  297MOL0     C40873   5.348   0.532  12.135  0.3028  0.0027  0.5502
  297MOL0     C40874   5.480   0.523  12.161  0.6266 -0.0724  0.3922
  297MOL0     C40875   5.521   0.522  12.300  0.3877 -0.5097 -0.2783
  297MOL0     C40876   5.661   0.494  12.332 -0.2448 -0.3564 -0.1104
  297MOL0     C40877   5.427   0.542  12.404 -0.5083 -0.3525 -0.0042
  297MOL0     C40878   5.469   0.549  12.542 -0.2792 -0.7941  0.0535
  297MOL0     O40879   5.529   0.668  12.591  0.5693 -0.3502  0.7825
  297MOL0     C40880   5.585   0.677  12.719 -0.0060 -0.1589 -1.1312
  297MOL0     C40881   5.711   0.645  12.740 -0.2672 -0.1460 -0.1900
  297MOL0     C40882   5.768   0.682  12.867 -0.8566  1.1782 -0.5424
  297MOL0     C40883   5.698   0.731  12.979  0.8233  0.0150  0.2623
  297MOL0     O40884   5.745   0.770  13.100 -0.2704 -0.2518 -0.2796
  297MOL0     C40885   5.886   0.746  13.129  0.0721 -0.0918  0.5999
  297MOL0     C40886   5.926   0.807  13.271 -0.9641 -1.3558 -0.3580
  297MOL0     C40887   6.038   0.737  13.349  0.0356 -1.1089 -0.2168
  297MOL0     C40888   6.035   0.781  13.494  0.4073 -0.0021  0.8373
  297MOL0     C40889   6.157   0.731  13.563  0.0985  0.1636  0.0673
  297MOL0     C40890   6.148   0.757  13.714 -0.2818  0.2997 -0.0320
  297MOL0     C40891   6.270   0.704  13.783  0.4080 -0.1379  0.7609
  297MOL0     C40892   6.384   0.806  13.796 -0.3735 -0.2294  0.3542
  297MOL0    Cl40893   6.513   0.730  13.892 -0.4335  0.5426 -0.0491
  297MOL0     C40894   5.566   0.768  12.945 -1.2767  0.6905  0.0897
  297MOL0     C40895   5.509   0.739  12.820 -0.7517  0.6565  0.5875
  297MOL0     O40896   5.447   0.453  12.615  0.9295  0.3259 -0.4056
  297MOL0     C40897   5.304   0.577  12.369 -0.4701  0.1637  0.4115
  297MOL0     C40898   5.255   0.561  12.242 -0.0751 -0.2564  1.1516
  297MOL0     N40899   4.912   0.440  11.642 -0.2199  0.3995  0.3917
  297MOL0     N40900   4.797   0.470  11.589 -0.2651 -0.9174 -0.3693
  297MOL0     C40901   4.547   1.630  11.183  0.3266  1.1254 -0.3598
  297MOL0     C40902   4.549   1.772  11.194  0.4074  0.7661  0.5175
  297MOL0     C40903   4.599   2.189  11.019 -0.2905 -0.1912 -0.4572
  297MOL0     C40904   4.722   2.263  10.979 -0.0005  0.5731 -0.2139
  297MOL0     C40905   4.731   2.396  10.968  0.6043 -0.2679  0.3019
  297MOL0     C40906   4.620   2.476  10.988  0.7641  0.3029 -0.6217
  297MOL0     O40907   4.625   2.611  11.000  1.1056 -0.2281  0.5042
  297MOL0     C40908   4.746   2.686  10.983  0.1431 -0.3928 -0.1568
  297MOL0     C40909   4.695   2.830  10.943 -0.9763 -0.1217  0.2937
  297MOL0     C40910   4.827   2.914  10.927 -0.4122  0.1555 -0.4402
  297MOL0     C40911   4.811   3.041  10.842  0.2663  0.0858 -0.1271
  297MOL0     C40912   4.939   3.092  10.806 -0.4041  1.0782  0.9886
  297MOL0     C40913   5.048   3.123  10.763 -0.0301  0.1173 -0.2071
  297MOL0     C40914   4.503   2.417  11.022 -0.7817 -0.4287 -0.4207
  297MOL0     C40915   4.491   2.284  11.037  0.3896  0.4245 -0.2643
  297MOL0     C40916   4.345   2.239  11.060 -0.4495  0.0220  0.2726
  297MOL0     H40917   4.413   1.821  10.880 -0.1632 -0.1691 -0.6910
  297MOL0     H40918   4.398   1.591  10.875 -1.9561  0.5651  0.2626
  297MOL0     H40919   4.609   1.372  10.944  0.4398  1.0458  1.2351
  297MOL0     H40920   4.436   1.362  10.890 -1.6720  0.5184  1.0132
  297MOL0     H40921   4.406   1.153  10.994 -0.6681 -0.1723  0.1873
  297MOL0     H40922   4.571   1.162  10.922  0.7782  1.7408 -0.0901
  297MOL0     H40923   4.645   1.209  11.157 -0.7243  0.4499 -1.2965
  297MOL0     H40924   4.470   1.186  11.202 -0.0378 -1.5836  0.8175
  297MOL0     H40925   4.456   0.978  11.183 -0.0105 -0.2051 -0.1763
  297MOL0     H40926   4.596   0.954  11.074 -0.7154 -0.1280 -0.1486
  297MOL0     H40927   4.616   1.035  11.361  0.1500  0.3471 -1.1007
  297MOL0     H40928   4.757   1.000  11.268  0.1872  0.9634  0.2687
  297MOL0     H40929   4.529   0.814  11.353 -1.4341 -3.6967 -2.6356
  297MOL0     H40930   4.619   0.776  11.206 -1.4861 -0.8224 -0.8742
  297MOL0     H40931   4.749   0.793  11.476 -1.4865 -5.2676  2.8406
  297MOL0     H40932   4.836   0.775  11.318  0.4174  0.8783  1.0007
  297MOL0     H40933   4.639   0.576  11.435  1.4109 -0.6702  2.1912
  297MOL0     H40934   4.727   0.557  11.281 -0.6051 -1.1860 -0.4769
  297MOL0     H40935   5.019   0.568  11.362 -0.0968 -3.3197 -0.8529
  297MOL0     H40936   5.225   0.541  11.543  1.1203 -1.3050 -2.2522
  297MOL0     H40937   5.190   0.363  11.564  2.9336  0.8336 -0.9830
  297MOL0     H40938   5.138   0.408  11.799 -0.2815  0.6956 -0.7899
  297MOL0     H40939   5.310   0.451  11.753 -0.6465 -1.2107  1.3734
  297MOL0     H40940   5.254   0.679  11.784  0.3323  0.5589  0.7670
  297MOL0     H40941   5.083   0.646  11.789  2.8332  0.5467 -0.5241
  297MOL0     H40942   5.203   0.688  12.012 -1.6809  1.0386 -1.9013
  297MOL0     H40943   5.103   0.545  12.012  1.8568 -2.6303 -0.5801
  297MOL0     H40944   5.552   0.500  12.083  0.1664 -0.2162 -0.0005
  297MOL0     H40945   5.666   0.416  12.408 -0.4758 -1.8734 -1.5774
  297MOL0     H40946   5.703   0.591  12.356  2.1496 -0.6649 -2.5219
  297MOL0     H40947   5.725   0.464  12.248  0.6323  2.6315 -0.6287
  297MOL0     H40948   5.779   0.593  12.673  1.8025 -0.3772  1.9623
  297MOL0     H40949   5.874   0.662  12.874 -0.9742  0.1538 -1.4555
  297MOL0     H40950   5.891   0.637  13.144 -2.5410 -0.2011  1.3054
  297MOL0     H40951   5.956   0.784  13.055 -0.5165  0.5263  0.3497
  297MOL0     H40952   5.954   0.912  13.258  1.0365 -1.2451  3.5714
  297MOL0     H40953   5.836   0.791  13.331  0.2968 -5.6178  0.7115
  297MOL0     H40954   6.132   0.765  13.300  0.6010 -3.0153 -0.3217
  297MOL0     H40955   6.031   0.632  13.320  2.5433 -0.8310 -2.1159
  297MOL0     H40956   5.944   0.730  13.525 -0.4691  1.4843  0.8124
  297MOL0     H40957   6.028   0.890  13.487  1.1335 -0.0605 -1.7887
  297MOL0     H40958   6.176   0.628  13.529  3.7634  0.5514  0.5893
  297MOL0     H40959   6.246   0.782  13.526 -0.1692  1.2028  0.8210
  297MOL0     H40960   6.062   0.709  13.761 -1.3022  3.6293  1.8175
  297MOL0     H40961   6.153   0.865  13.726  4.4171  0.4968 -1.6466
  297MOL0     H40962   6.302   0.611  13.733 -1.7630  0.3946 -1.8360
  297MOL0     H40963   6.247   0.686  13.888  0.8745 -2.4494  0.5235
  297MOL0     H40964   6.352   0.903  13.837  1.4934  0.9093 -0.7422
  297MOL0     H40965   6.406   0.836  13.693 -0.4137 -0.5695  0.2465
  297MOL0     H40966   5.514   0.807  13.032  0.2321 -0.9634  1.8261
  297MOL0     H40967   5.403   0.759  12.821 -1.8547 -4.0048  2.3750
  297MOL0     H40968   5.224   0.614  12.432 -2.4364  0.1861 -1.9519
  297MOL0     H40969   5.148   0.556  12.224  0.5033 -3.1497 -2.5676
  297MOL0     H40970   4.598   1.565  11.253 -0.2533  1.3693  0.3001
  297MOL0     H40971   4.600   1.812  11.281 -0.5080 -2.5106  2.7722
  297MOL0     H40972   4.808   2.199  10.965 -0.6982 -0.3128 -0.5887
  297MOL0     H40973   4.825   2.443  10.941  0.8937 -1.7161 -1.3298
  297MOL0     H40974   4.816   2.689  11.067 -0.0460 -0.5944  0.0080
  297MOL0     H40975   4.804   2.638  10.903 -0.5306 -1.3020 -0.1056
  297MOL0     H40976   4.620   2.873  11.010  1.9019  4.4660  1.0053
  297MOL0     H40977   4.659   2.831  10.840  1.5631  1.3234 -0.6719
  297MOL0     H40978   4.864   2.941  11.027 -0.4599 -0.2836 -0.2994
  297MOL0     H40979   4.904   2.857  10.875 -0.0460 -0.9274  1.1928
  297MOL0     H40980   4.768   3.124  10.899 -1.4683 -0.5366 -0.4630
  297MOL0     H40981   4.729   3.028  10.770  0.8332 -0.6453 -0.6649
  297MOL0     H40982   5.150   3.153  10.747 -0.6563  1.4798 -1.8718
  297MOL0     H40983   4.426   2.490  11.043  1.5687  1.8926  0.8022
  297MOL0     H40984   4.333   2.155  10.991  2.9900  0.4060 -1.0043
  297MOL0     H40985   4.329   2.213  11.165  0.3049  1.9014  0.9025
  297MOL0     H40986   4.269   2.309  11.025  0.4692  1.6256  1.3322
  298MOL0     O40987   4.753   4.640   7.571 -0.7058 -1.3118 -0.1742
  298MOL0     C40988   4.713   4.711   7.477 -0.8280 -0.0038  0.1954
  298MOL0     O40989   4.696   4.664   7.347  0.3592 -0.0608 -0.2933
  298MOL0     C40990   4.730   4.530   7.323 -0.2667  0.0983 -0.5986
  298MOL0     C40991   4.633   4.461   7.249 -0.0646  0.1674  0.1466
  298MOL0     C40992   4.649   4.319   7.229  0.6642 -0.6911  0.8546
  298MOL0     C40993   4.750   4.242   7.281  0.4557  0.2128 -0.7222
  298MOL0     O40994   4.746   4.102   7.263 -0.3773  0.2044 -0.5789
  298MOL0     C40995   4.761   4.017   7.378 -0.5412  0.0143  1.3613
  298MOL0     C40996   4.866   3.914   7.320  0.1062 -0.2415 -0.7983
  298MOL0     C40997   4.924   3.840   7.440 -1.3067 -0.6468 -0.6545
  298MOL0     C40998   5.054   3.771   7.394  0.4023 -0.4349  0.4640
  298MOL0     C40999   5.113   3.680   7.510 -0.1236 -0.0040 -0.6284
  298MOL0     C41000   5.260   3.649   7.497  0.3216 -0.3308  0.1046
  298MOL0     C41001   5.271   3.572   7.374 -0.7628  0.7551 -0.1102
  298MOL0     C41002   5.408   3.501   7.362 -0.8158  0.5109  0.1991
  298MOL0     N41003   5.393   3.365   7.419  0.0519  0.1998 -0.4971
  298MOL0     C41004   5.390   3.244   7.354  0.4512 -0.0777 -0.3734
  298MOL0     C41005   5.385   3.145   7.447  1.0818 -0.4840 -0.2558
  298MOL0     C41006   5.389   3.003   7.417 -0.7868  0.0525  0.4338
  298MOL0     C41007   5.522   2.941   7.358  0.4885  0.2176  1.2347
  298MOL0     C41008   5.639   2.942   7.454 -0.3920  1.0807 -0.4211
  298MOL0     C41009   5.745   2.859   7.400 -0.3721 -0.2336  0.8378
  298MOL0     O41010   5.866   2.864   7.484 -0.6273  0.7010 -0.0926
  298MOL0     C41011   5.895   2.735   7.529  0.3619  0.0783  1.0455
  298MOL0     C41012   5.825   2.682   7.641  0.3055  0.8973  0.5474
  298MOL0     C41013   5.848   2.549   7.686  1.0007 -0.8213  0.6143
  298MOL0     C41014   5.773   2.503   7.808  0.4755  0.5087  0.0867
  298MOL0     C41015   5.942   2.470   7.608 -0.4396  0.4882 -0.5470
  298MOL0     C41016   5.987   2.330   7.640  0.9970 -0.5107 -0.4001
  298MOL0     O41017   5.932   2.275   7.750 -0.0484 -0.4151  0.2589
  298MOL0     C41018   5.941   2.137   7.740 -0.1707 -1.1739 -0.4212
  298MOL0     C41019   5.866   2.055   7.658 -0.2454 -0.5436 -0.0372
  298MOL0     C41020   5.862   1.918   7.685  0.3227  0.4734  0.0351
  298MOL0     C41021   5.947   1.865   7.779  1.0909  0.1025  0.4387
  298MOL0     O41022   5.956   1.735   7.786 -0.1101  0.4777 -0.5765
  298MOL0     C41023   6.088   1.676   7.816  0.2175  0.1149  0.2561
  298MOL0     C41024   6.077   1.523   7.805 -0.3059 -0.4299  0.1297
  298MOL0     C41025   6.216   1.457   7.824 -0.5736  1.1837  0.0437
  298MOL0     C41026   6.313   1.454   7.707  0.6110 -0.2200  0.0263
  298MOL0     C41027   6.294   1.352   7.594  0.2959  0.6588 -0.6708
  298MOL0     C41028   6.360   1.386   7.453  0.1740 -0.7308  0.4929
  298MOL0     C41029   6.334   1.270   7.359 -0.6377  0.1547  0.0368
  298MOL0     C41030   6.191   1.275   7.295  0.2956 -0.1724 -0.2607
  298MOL0    Cl41031   6.139   1.433   7.226  0.1499 -0.0725  0.1915
  298MOL0     C41032   6.026   1.943   7.850  0.1427  0.0403 -0.1217
  298MOL0     C41033   6.026   2.084   7.831  0.0195 -0.6144 -0.6664
  298MOL0     O41034   6.082   2.285   7.566 -0.0784 -0.7210 -0.1693
  298MOL0     C41035   5.985   2.512   7.479  0.1208 -0.4074 -0.4698
  298MOL0     C41036   5.975   2.648   7.449 -0.4484  0.3393  0.0792
  298MOL0     N41037   5.378   3.215   7.568  0.2478 -0.0098 -0.1220
  298MOL0     N41038   5.385   3.342   7.550 -0.3385  0.0920  0.2271
  298MOL0     C41039   4.849   4.307   7.351 -0.3577  0.6224 -0.0708
  298MOL0     C41040   4.832   4.450   7.368 -0.1522 -0.2335  0.0412
  298MOL0     C41041   4.704   4.860   7.498 -0.7388  0.1542  1.2751
  298MOL0     C41042   4.687   4.942   7.381 -0.3558 -0.5713 -0.5170
  298MOL0     C41043   4.678   5.088   7.384 -0.3735 -0.0906 -0.1145
  298MOL0     C41044   4.708   5.154   7.509  0.3719  0.2130 -0.5173
  298MOL0     O41045   4.697   5.289   7.509 -0.5739  1.2466 -0.3988
  298MOL0     C41046   4.807   5.359   7.573  0.5786  0.4130 -0.1961
  298MOL0     C41047   4.739   5.423   7.695  0.2705  0.2379 -0.5462
  298MOL0     C41048   4.835   5.517   7.774 -0.3652  0.0515  0.8059
  298MOL0     C41049   4.757   5.607   7.866 -0.6667 -0.0823 -0.1830
  298MOL0     C41050   4.675   5.691   7.781 -0.1985  0.8392 -0.5016
  298MOL0     C41051   4.614   5.765   7.709 -0.5997 -0.8227  0.1876
  298MOL0     C41052   4.732   5.078   7.625 -0.2250  0.2729 -0.6666
  298MOL0     C41053   4.730   4.936   7.615 -1.1344 -0.0928  0.8129
  298MOL0     C41054   4.755   4.854   7.742  0.3896  0.2652  0.2556
  298MOL0     H41055   4.547   4.521   7.220 -1.7403 -2.6125 -1.0343
  298MOL0     H41056   4.568   4.276   7.172  1.3722 -0.6835 -0.1903
  298MOL0     H41057   4.663   3.988   7.417 -0.7494 -0.1113  0.7553
  298MOL0     H41058   4.811   4.071   7.459  1.1003 -0.3639  0.6340
  298MOL0     H41059   4.822   3.840   7.253  0.1061  0.5561 -1.7079
  298MOL0     H41060   4.937   3.982   7.271  0.9591  0.1683  0.9087
  298MOL0     H41061   4.962   3.891   7.529  4.1445 -3.7105 -0.7498
  298MOL0     H41062   4.855   3.765   7.480 -1.1139 -2.7256 -3.8499
  298MOL0     H41063   5.036   3.713   7.303  2.0938 -1.2033  0.5660
  298MOL0     H41064   5.124   3.852   7.372 -0.0361 -0.2747 -0.3510
  298MOL0     H41065   5.053   3.589   7.508  1.1965 -0.8925 -1.8007
  298MOL0     H41066   5.105   3.723   7.611 -1.8338 -2.0178  0.1490
  298MOL0     H41067   5.321   3.740   7.504  2.6597 -1.8696  1.3122
  298MOL0     H41068   5.275   3.585   7.585  1.0344 -2.5410 -1.5277
  298MOL0     H41069   5.245   3.646   7.298 -2.0040 -1.1042 -1.5796
  298MOL0     H41070   5.194   3.495   7.368  0.2652 -0.2968 -0.2212
  298MOL0     H41071   5.448   3.494   7.260 -2.4756 -1.5670 -0.3826
  298MOL0     H41072   5.484   3.561   7.413  0.9689 -0.2514 -1.4379
  298MOL0     H41073   5.391   3.237   7.246  1.9861  1.1485 -0.4729
  298MOL0     H41074   5.308   3.000   7.343 -1.0219 -0.9249  0.7149
  298MOL0     H41075   5.359   2.951   7.508  0.7203  3.1163  2.8255
  298MOL0     H41076   5.492   2.838   7.335  1.4547 -0.4459  2.7809
  298MOL0     H41077   5.552   3.001   7.272 -2.1598  1.6587  1.2049
  298MOL0     H41078   5.679   3.044   7.456 -0.2321  1.0160 -0.3100
  298MOL0     H41079   5.613   2.905   7.554  0.9307  1.6754  0.1752
  298MOL0     H41080   5.710   2.758   7.378  2.3743 -1.3762  1.3504
  298MOL0     H41081   5.780   2.904   7.307  1.8180 -4.3949 -0.6172
  298MOL0     H41082   5.761   2.741   7.705  0.0447 -0.9421  2.0763
  298MOL0     H41083   5.708   2.576   7.858 -1.4862  0.1551 -1.7832
  298MOL0     H41084   5.843   2.466   7.883  0.8584  0.3200 -0.3594
  298MOL0     H41085   5.712   2.418   7.778  2.3569  0.0018 -2.5784
  298MOL0     H41086   5.816   2.095   7.571  1.6478  2.9295  0.3099
  298MOL0     H41087   5.809   1.860   7.610  1.4535  2.6574 -2.6402
  298MOL0     H41088   6.166   1.715   7.750  0.6431  2.2756  1.9481
  298MOL0     H41089   6.115   1.709   7.916  2.9181  0.2735 -0.4678
  298MOL0     H41090   6.001   1.488   7.875 -0.8158 -1.0583 -0.7317
  298MOL0     H41091   6.038   1.485   7.710  5.9818 -1.2169 -2.7113
  298MOL0     H41092   6.194   1.351   7.844 -1.1143  1.1717 -0.5806
  298MOL0     H41093   6.268   1.503   7.909  1.1726 -2.6531  1.3196
  298MOL0     H41094   6.405   1.415   7.751  1.0482 -0.2448 -0.8984
  298MOL0     H41095   6.316   1.553   7.660 -2.0343 -0.4951 -0.8977
  298MOL0     H41096   6.327   1.255   7.632  1.0124  0.7797 -0.9777
  298MOL0     H41097   6.186   1.339   7.579  0.2305 -0.0874  0.3725
  298MOL0     H41098   6.466   1.412   7.453  1.2514 -4.5034  1.3283
  298MOL0     H41099   6.307   1.471   7.410 -1.3382 -3.0780 -2.7051
  298MOL0     H41100   6.357   1.173   7.405 -2.0395 -0.1252  0.1806
  298MOL0     H41101   6.400   1.288   7.273  0.4965  0.9865  1.0555
  298MOL0     H41102   6.117   1.256   7.374 -1.3276  0.5674 -1.5326
  298MOL0     H41103   6.194   1.186   7.232  0.3319 -1.5122  1.5455
  298MOL0     H41104   6.094   1.908   7.926  0.8262  0.5290 -0.4935
  298MOL0     H41105   6.084   2.149   7.896 -3.4911  1.3760  0.7350
  298MOL0     H41106   6.032   2.441   7.411  0.6280 -1.2659  0.7365
  298MOL0     H41107   6.005   2.677   7.349  1.8805 -0.5980  0.4477
  298MOL0     H41108   4.944   4.259   7.370  0.4392  1.9785 -0.4956
  298MOL0     H41109   4.913   4.487   7.428 -0.3359 -0.7432  0.6169
  298MOL0     H41110   4.676   4.897   7.282  2.1234  1.4726 -1.8650
  298MOL0     H41111   4.642   5.146   7.299  1.6275  0.7917 -0.4060
  298MOL0     H41112   4.883   5.290   7.610 -0.9422  0.0354  2.4750
  298MOL0     H41113   4.859   5.439   7.519 -0.5827  1.1350 -0.2760
  298MOL0     H41114   4.695   5.354   7.767 -0.5121  1.3510  0.0683
  298MOL0     H41115   4.651   5.473   7.653 -0.0454 -0.6819 -1.0054
  298MOL0     H41116   4.898   5.464   7.846  0.8869  3.0348  2.0758
  298MOL0     H41117   4.910   5.559   7.707 -0.8567 -2.5525 -1.5287
  298MOL0     H41118   4.815   5.684   7.917 -0.9249  1.0623 -1.5628
  298MOL0     H41119   4.699   5.551   7.939  0.2011 -1.2050 -0.3174
  298MOL0     H41120   4.555   5.823   7.641 -0.3586 -0.8221 -0.0253
  298MOL0     H41121   4.753   5.114   7.726  0.4258 -3.1063  0.5516
  298MOL0     H41122   4.858   4.815   7.747  0.9591  1.8169  1.5946
  298MOL0     H41123   4.738   4.921   7.826 -2.5528 -0.8737  0.6983
  298MOL0     H41124   4.688   4.768   7.750 -0.8723  1.2239  0.1722
  299MOL0     O41125   6.122   0.463   9.112 -0.4656 -0.4780 -0.5916
  299MOL0     C41126   6.142   0.355   9.050  0.0158 -0.7284  0.0283
  299MOL0     O41127   6.059   0.299   8.953  1.6753  0.9943  0.0490
  299MOL0     C41128   5.941   0.362   8.922  0.0341 -0.0553 -0.0268
  299MOL0     C41129   5.828   0.329   8.997 -0.0100 -0.2785 -0.4767
  299MOL0     C41130   5.707   0.396   8.982 -0.2277 -1.7953 -0.2606
  299MOL0     C41131   5.702   0.504   8.890  1.2524  0.8310 -0.7906
  299MOL0     O41132   5.583   0.574   8.903 -0.2820  0.0584  0.1078
  299MOL0     C41133   5.472   0.506   8.839 -0.6069 -0.1133 -0.1329
  299MOL0     C41134   5.342   0.563   8.895 -0.4789 -0.5117 -0.2495
  299MOL0     C41135   5.316   0.714   8.875  0.4039  0.0555  0.0098
  299MOL0     C41136   5.172   0.750   8.928  0.4473  0.9266  1.3810
  299MOL0     C41137   5.145   0.902   8.945 -0.5442  0.9307  0.5490
  299MOL0     C41138   5.005   0.945   8.951  0.6201 -0.1077  0.8798
  299MOL0     C41139   4.939   0.929   8.805 -0.6624 -0.6184  0.1708
  299MOL0     C41140   5.013   1.018   8.699  0.3179  0.4805 -0.3004
  299MOL0     N41141   4.958   1.000   8.568 -0.5882 -0.9909 -0.2114
  299MOL0     C41142   4.835   1.051   8.522  0.9289 -0.5722  0.8339
  299MOL0     C41143   4.824   0.997   8.396 -0.1341 -1.0344 -0.3828
  299MOL0     C41144   4.708   1.021   8.304 -1.5644 -0.6716 -0.0680
  299MOL0     C41145   4.573   0.963   8.365  0.6787  0.5594 -0.4865
  299MOL0     C41146   4.582   0.808   8.407 -0.8110  0.4419  0.5647
  299MOL0     C41147   4.598   0.718   8.287 -0.5159 -0.3035  0.0602
  299MOL0     O41148   4.482   0.727   8.206  0.3847  0.5747  0.6718
  299MOL0     C41149   4.465   0.641   8.101  0.2804 -0.2699 -0.1499
  299MOL0     C41150   4.344   0.647   8.034  0.5525  0.0492 -0.7762
  299MOL0     C41151   4.316   0.564   7.924  0.7293 -0.0595 -0.3781
  299MOL0     C41152   4.199   0.601   7.844 -0.2944 -0.1258  0.4635
  299MOL0     C41153   4.405   0.449   7.903  0.7379 -0.2322  0.3736
  299MOL0     C41154   4.386   0.326   7.800 -0.6520  0.1200 -0.3384
  299MOL0     O41155   4.257   0.267   7.785  0.5519 -0.2270  0.3278
  299MOL0     C41156   4.231   0.140   7.750  0.0088  0.5326  0.3547
  299MOL0     C41157   4.330   0.044   7.708  0.2793 -0.0642  0.8722
  299MOL0     C41158   4.295  -0.083   7.666 -0.8192  0.4659 -0.3044
  299MOL0     C41159   4.156  -0.121   7.661 -0.6186 -0.0274 -0.0789
  299MOL0     O41160   4.117  -0.247   7.630  0.2356 -0.1265  0.2016
  299MOL0     C41161   4.157  -0.284   7.492  0.9406  0.2256 -0.0637
  299MOL0     C41162   4.058  -0.226   7.392 -0.7613  0.5985 -0.0457
  299MOL0     C41163   3.930  -0.312   7.391  0.4654  1.2138  0.2161
  299MOL0     C41164   3.816  -0.259   7.294 -0.3170 -0.5961 -1.0128
  299MOL0     C41165   3.692  -0.361   7.288 -0.4410 -0.8167  0.1371
  299MOL0     C41166   3.607  -0.346   7.421  0.3353  0.0449 -1.3656
  299MOL0     C41167   3.504  -0.457   7.429  0.4783  0.1587 -0.0851
  299MOL0     C41168   3.407  -0.441   7.550 -0.3503 -0.8007  0.1454
  299MOL0    Cl41169   3.345  -0.601   7.608 -0.0273 -0.7787  0.3580
  299MOL0     C41170   4.065  -0.025   7.704  0.3231  0.1807  0.0324
  299MOL0     C41171   4.100   0.102   7.734 -0.9156 -1.5708 -0.4881
  299MOL0     O41172   4.490   0.296   7.729  0.6480  0.3027  0.4029
  299MOL0     C41173   4.523   0.440   7.977 -0.2004 -0.1408 -0.2841
  299MOL0     C41174   4.559   0.539   8.068  1.3337 -0.2194  0.8321
  299MOL0     N41175   4.929   0.908   8.373  0.6751  0.5653  0.1160
  299MOL0     N41176   5.002   0.908   8.480  0.7763  0.6444 -0.1795
  299MOL0     C41177   5.809   0.544   8.823  0.4576 -0.1321 -0.7836
  299MOL0     C41178   5.934   0.469   8.835  0.2950 -0.1854  0.3889
  299MOL0     C41179   6.260   0.285   9.088 -0.6083 -0.3002 -1.1340
  299MOL0     C41180   6.383   0.349   9.068 -0.8376 -0.6770 -0.0629
  299MOL0     C41181   6.505   0.303   9.117 -0.4159 -0.7323  0.1445
  299MOL0     C41182   6.516   0.176   9.168 -0.1679  0.1255 -0.3970
  299MOL0     O41183   6.647   0.140   9.193  0.6564  0.5967 -0.1374
  299MOL0     C41184   6.665   0.015   9.260  0.5419  0.1232 -0.7475
  299MOL0     C41185   6.808  -0.035   9.254  0.4430 -0.6118 -0.2879
  299MOL0     C41186   6.857  -0.033   9.108  1.0736 -0.1299 -0.7998
  299MOL0     C41187   6.763  -0.077   8.990  0.0428 -0.1360  0.6238
  299MOL0     C41188   6.701  -0.204   9.002  0.0754  0.3355 -0.0295
  299MOL0     C41189   6.656  -0.315   9.025  1.3261  0.6100  0.0922
  299MOL0     C41190   6.394   0.113   9.204 -0.3085  0.9854  0.2136
  299MOL0     C41191   6.266   0.166   9.166 -0.9181 -0.6890  0.3313
  299MOL0     C41192   6.133   0.098   9.205 -0.1894 -0.0372  0.7576
  299MOL0     H41193   5.840   0.250   9.071  2.6963 -0.2038 -0.7027
  299MOL0     H41194   5.630   0.361   9.051 -0.6701  1.9564  1.3580
  299MOL0     H41195   5.479   0.404   8.880  2.2714  0.0250 -0.0710
  299MOL0     H41196   5.478   0.510   8.730 -0.2219 -0.4686 -0.1272
  299MOL0     H41197   5.259   0.507   8.851 -1.6641  0.3937  0.7596
  299MOL0     H41198   5.352   0.542   9.002  1.7008 -1.8095 -0.6260
  299MOL0     H41199   5.386   0.774   8.934  0.6466 -0.6548  0.4481
  299MOL0     H41200   5.329   0.742   8.770 -0.9913 -0.4903 -0.3365
  299MOL0     H41201   5.108   0.710   8.849  1.2100  1.2486  0.5833
  299MOL0     H41202   5.147   0.702   9.023 -0.1408 -0.7575  0.4359
  299MOL0     H41203   5.212   0.961   8.883  0.5484  2.8350  3.3674
  299MOL0     H41204   5.187   0.931   9.041 -1.9873 -1.6994  2.0961
  299MOL0     H41205   4.944   0.886   9.020  2.2898 -2.0501  0.7938
  299MOL0     H41206   5.004   1.052   8.973 -1.2541 -0.1629  1.2657
  299MOL0     H41207   4.835   0.961   8.795  0.0145  1.4473 -0.8249
  299MOL0     H41208   4.942   0.827   8.767 -1.4941 -0.8690  0.7512
  299MOL0     H41209   5.029   1.124   8.722  1.1304  0.7900 -2.1655
  299MOL0     H41210   5.116   0.982   8.701 -0.4627 -2.3475 -3.4247
  299MOL0     H41211   4.770   1.124   8.569  4.7609  2.2469  2.3033
  299MOL0     H41212   4.727   0.984   8.203 -3.6859 -1.3355 -0.2644
  299MOL0     H41213   4.695   1.129   8.293  0.0089 -0.4045  0.3636
  299MOL0     H41214   4.546   1.007   8.462 -3.3012 -1.3760 -0.4974
  299MOL0     H41215   4.487   0.971   8.298  0.1334  4.1602  0.4238
  299MOL0     H41216   4.665   0.794   8.477  0.1427 -3.2217 -1.0275
  299MOL0     H41217   4.483   0.783   8.445 -1.1273  1.3068  0.3368
  299MOL0     H41218   4.679   0.745   8.220 -0.1973 -1.1755  0.0735
  299MOL0     H41219   4.612   0.616   8.326 -0.1217  0.2300  1.3874
  299MOL0     H41220   4.273   0.721   8.070  3.2258  2.4354 -0.1069
  299MOL0     H41221   4.109   0.628   7.901 -2.4629 -2.9885 -1.3703
  299MOL0     H41222   4.175   0.522   7.772 -1.5256 -1.1374  1.9025
  299MOL0     H41223   4.221   0.684   7.777  0.8811 -1.3486 -0.7032
  299MOL0     H41224   4.437   0.059   7.715  0.3468  0.5675 -0.9293
  299MOL0     H41225   4.375  -0.145   7.629 -2.5317 -0.9791 -1.7665
  299MOL0     H41226   4.257  -0.250   7.466  1.8938 -1.9751  0.4897
  299MOL0     H41227   4.161  -0.394   7.493 -1.2120  0.0542 -1.4870
  299MOL0     H41228   4.031  -0.124   7.420  1.5369  1.5404 -1.0074
  299MOL0     H41229   4.106  -0.236   7.294 -1.1556  1.5150 -0.3465
  299MOL0     H41230   3.884  -0.312   7.490  2.6168 -1.8267  1.3628
  299MOL0     H41231   3.947  -0.418   7.371 -0.5386  1.1728 -0.4577
  299MOL0     H41232   3.861  -0.247   7.195  1.4425  3.6552  0.0680
  299MOL0     H41233   3.778  -0.163   7.330  3.2338  0.6452 -0.1485
  299MOL0     H41234   3.641  -0.341   7.193 -0.3489  3.0591  0.7487
  299MOL0     H41235   3.734  -0.462   7.284 -2.7367 -1.8018 -1.5289
  299MOL0     H41236   3.556  -0.250   7.415  0.4802  0.1598 -0.8647
  299MOL0     H41237   3.663  -0.352   7.515 -1.8826 -2.5858 -0.0692
  299MOL0     H41238   3.554  -0.552   7.447  0.0664  0.6428  5.3237
  299MOL0     H41239   3.443  -0.466   7.338  0.5035  0.6119 -0.1470
  299MOL0     H41240   3.332  -0.366   7.523 -0.2795  0.3474  2.8191
  299MOL0     H41241   3.471  -0.394   7.625  1.1577  0.5155 -1.8603
  299MOL0     H41242   3.961  -0.055   7.696  1.0139 -2.2224 -0.5968
  299MOL0     H41243   4.033   0.186   7.752  0.6186  0.5323 -3.5551
  299MOL0     H41244   4.592   0.359   7.951 -0.6514 -1.2336  1.6652
  299MOL0     H41245   4.656   0.531   8.115  1.5286  0.8757  0.6489
  299MOL0     H41246   5.814   0.635   8.764  0.2353 -1.7930 -3.5601
  299MOL0     H41247   6.014   0.526   8.789  0.6735 -0.4227  0.7549
  299MOL0     H41248   6.391   0.446   9.020 -2.3974 -0.4874  0.0243
  299MOL0     H41249   6.598   0.358   9.109  0.8237 -2.2907  2.4863
  299MOL0     H41250   6.638   0.025   9.365  0.6294  2.0816 -0.8815
  299MOL0     H41251   6.606  -0.069   9.220 -0.1005  0.0455  0.3294
  299MOL0     H41252   6.817  -0.135   9.297  1.1104 -0.0424  0.9774
  299MOL0     H41253   6.862   0.040   9.314 -0.5754  0.5386 -0.7758
  299MOL0     H41254   6.891   0.068   9.083  1.2791 -0.0751 -0.2971
  299MOL0     H41255   6.938  -0.106   9.106  3.3953  2.3337 -2.2925
  299MOL0     H41256   6.822  -0.080   8.898 -0.1259  1.1977  0.4514
  299MOL0     H41257   6.684  -0.001   8.983 -0.3924 -0.6847 -0.5790
  299MOL0     H41258   6.637  -0.420   9.021  2.8250  0.3180  0.1056
  299MOL0     H41259   6.402   0.037   9.282  0.8766  0.9307  0.0613
  299MOL0     H41260   6.156   0.008   9.264  3.0625 -0.8511 -1.4943
  299MOL0     H41261   6.073   0.163   9.269 -2.0979 -1.3276  0.3484
  299MOL0     H41262   6.076   0.071   9.116  3.3465 -1.3380 -1.3353
  300MOL0     O41263   5.767   9.572   7.464  0.0641  0.1620  0.0651
  300MOL0     C41264   5.642   9.586   7.481 -1.0123 -0.4312  0.7487
  300MOL0     O41265   5.589   9.701   7.541 -0.0312 -0.4125 -0.4419
  300MOL0     C41266   5.637   9.827   7.561 -0.9314 -0.6308  0.2048
  300MOL0     C41267   5.743   9.874   7.481  0.8729 -0.0501 -0.2988
  300MOL0     C41268   5.788  10.005   7.491 -0.5843 -0.2181  0.6859
  300MOL0     C41269   5.730  10.089   7.585  0.1762  0.4321  0.1706
  300MOL0     O41270   5.786  10.193   7.646  0.5706  0.0128  0.2436
  300MOL0     C41271   5.779  10.317   7.567 -0.3957  0.1142 -0.1334
  300MOL0     C41272   5.772  10.438   7.656 -0.5715  0.6201 -0.9045
  300MOL0     C41273   5.805  10.565   7.567 -0.2713  0.1308  0.1958
  300MOL0     C41274   5.695  10.605   7.464  0.5368 -0.3960  0.2666
  300MOL0     C41275   5.745  10.613   7.320  0.0563  0.5646 -0.5445
  300MOL0     C41276   5.643  10.670   7.228  1.0142  0.0452  1.4828
  300MOL0     C41277   5.682  10.682   7.072  0.6624  0.1344  0.4677
  300MOL0     C41278   5.563  10.717   6.982 -0.5980 -0.1375 -0.5658
  300MOL0     N41279   5.465  10.608   6.981 -0.2188  0.0129  0.4420
  300MOL0     C41280   5.485  10.483   6.929  0.4762 -0.3590  1.6536
  300MOL0     C41281   5.366  10.416   6.947  0.3722  0.1632 -0.2849
  300MOL0     C41282   5.335  10.275   6.907  0.1760 -0.5671 -0.6973
  300MOL0     C41283   5.270  10.269   6.762  1.0101  0.3332 -0.0334
  300MOL0     C41284   5.218  10.118   6.723 -0.5908  0.1734  1.0170
  300MOL0     C41285   5.333  10.026   6.685  0.5787 -0.2399  0.8823
  300MOL0     O41286   5.301   9.889   6.710  0.1868  0.1829  0.7455
  300MOL0     C41287   5.192   9.827   6.643  0.8072  0.1067  0.0639
  300MOL0     C41288   5.139   9.870   6.513  0.5931 -0.8153 -0.5669
  300MOL0     C41289   5.020   9.823   6.457 -0.9547  0.3403  1.1649
  300MOL0     C41290   4.966   9.888   6.328 -0.3168 -1.0186  0.3352
  300MOL0     C41291   4.950   9.721   6.526  0.2529  0.8641  0.3848
  300MOL0     C41292   4.803   9.695   6.497  0.8109  0.8471 -0.6872
  300MOL0     O41293   4.701   9.704   6.588  0.8444  0.2975 -0.3871
  300MOL0     C41294   4.740   9.755   6.703  0.6507 -0.0337 -0.4536
  300MOL0     C41295   4.776   9.683   6.828  0.3683  0.0338  0.0808
  300MOL0     C41296   4.826   9.748   6.942  0.0450  0.0596  0.8981
  300MOL0     C41297   4.847   9.885   6.940 -0.2460 -0.4010  0.0302
  300MOL0     O41298   4.892   9.956   7.046  0.2426 -0.7262 -0.9965
  300MOL0     C41299   4.823  10.082   7.085 -0.3452 -0.0999 -0.3431
  300MOL0     C41300   4.885  10.144   7.206  0.0668  0.3729  0.2133
  300MOL0     C41301   4.865  10.060   7.337 -0.7309  0.2571 -0.1052
  300MOL0     C41302   4.966  10.087   7.440  1.0430 -0.7144  0.3352
  300MOL0     C41303   4.932  10.022   7.576  0.2733 -0.1720  0.8214
  300MOL0     C41304   4.968   9.870   7.577  0.0460 -0.0501  0.2102
  300MOL0     C41305   5.118   9.859   7.587 -0.0645 -0.2866 -0.9403
  300MOL0     C41306   5.173   9.709   7.586  0.2569 -0.7079 -1.6208
  300MOL0    Cl41307   5.317   9.693   7.698  0.1591 -0.0823  0.0372
  300MOL0     C41308   4.818   9.960   6.816  0.2984  0.2390  0.1938
  300MOL0     C41309   4.761   9.899   6.708  0.4928  0.6607  0.0605
  300MOL0     O41310   4.795   9.639   6.387  0.7839  1.2767  0.6336
  300MOL0     C41311   5.008   9.661   6.642 -0.4072 -0.7922  0.4738
  300MOL0     C41312   5.125   9.718   6.704 -0.0364 -0.1092 -0.1143
  300MOL0     N41313   5.270  10.516   6.992  0.6815  1.0833  0.2453
  300MOL0     N41314   5.329  10.624   7.005  0.4343  0.0238  0.1305
  300MOL0     C41315   5.616  10.040   7.659  0.7864 -0.3983  0.5210
  300MOL0     C41316   5.565   9.910   7.641 -0.0500  0.1679 -0.6253
  300MOL0     C41317   5.556   9.470   7.450  0.3678 -1.0551  0.3427
  300MOL0     C41318   5.428   9.489   7.393  0.8113  0.2678  0.4094
  300MOL0     C41319   5.348   9.379   7.363  0.5536 -0.6735 -0.5753
  300MOL0     C41320   5.379   9.247   7.402  0.3620 -0.3752 -0.0635
  300MOL0     O41321   5.304   9.137   7.393 -0.0550  0.3098 -0.3456
  300MOL0     C41322   5.168   9.157   7.357 -0.2283 -0.0202  0.1860
  300MOL0     C41323   5.067   9.203   7.465  0.1454  0.1123  0.1049
  300MOL0     C41324   5.085   9.140   7.603  0.4955  0.5726  0.5283
  300MOL0     C41325   4.968   9.043   7.639  0.6769 -0.1964  0.2902
  300MOL0     C41326   4.932   8.954   7.524 -0.4251  0.7477 -0.4849
  300MOL0     C41327   4.903   8.884   7.428 -0.5555 -0.5502  0.2409
  300MOL0     C41328   5.498   9.228   7.460 -0.0707 -0.4784  1.0026
  300MOL0     C41329   5.595   9.336   7.493  0.0221 -0.2677 -0.8420
  300MOL0     C41330   5.729   9.288   7.551  0.1046 -0.7642  1.9382
  300MOL0     H41331   5.800   9.800   7.425 -0.8191 -1.7657  0.1244
  300MOL0     H41332   5.878  10.034   7.438 -2.1871  0.6228 -1.7237
  300MOL0     H41333   5.696  10.313   7.495 -0.3006 -0.5585 -0.2145
  300MOL0     H41334   5.867  10.319   7.502  0.6118 -1.9237  1.0596
  300MOL0     H41335   5.672  10.444   7.700 -0.8345 -1.3640 -1.1449
  300MOL0     H41336   5.844  10.430   7.738 -0.4784  1.0871 -0.9387
  300MOL0     H41337   5.819  10.658   7.622 -1.5903  1.2956 -1.3415
  300MOL0     H41338   5.901  10.548   7.517  0.3964 -0.2209  1.5588
  300MOL0     H41339   5.602  10.550   7.481  1.1980 -1.6471 -0.0772
  300MOL0     H41340   5.674  10.710   7.488 -3.2141 -0.6893 -1.0546
  300MOL0     H41341   5.768  10.510   7.293  0.7088  0.0387  1.7431
  300MOL0     H41342   5.835  10.675   7.310  1.5717 -1.6197 -1.0980
  300MOL0     H41343   5.544  10.622   7.223  1.2279 -0.3101 -1.8212
  300MOL0     H41344   5.625  10.774   7.257 -1.9002 -0.0923  0.5083
  300MOL0     H41345   5.725  10.586   7.042 -2.2719 -0.1533 -3.7675
  300MOL0     H41346   5.760  10.754   7.045  0.3913  0.4132  0.4333
  300MOL0     H41347   5.510  10.800   7.030 -1.9271 -0.4187 -1.4963
  300MOL0     H41348   5.594  10.743   6.881  0.1903 -1.0797 -0.5845
  300MOL0     H41349   5.573  10.430   6.896  0.3392  0.7649 -0.6987
  300MOL0     H41350   5.261  10.233   6.975  0.9173  2.1791  2.0515
  300MOL0     H41351   5.422  10.211   6.921 -0.9165 -1.4273  3.7468
  300MOL0     H41352   5.182  10.334   6.750  0.9285  1.0221  3.2780
  300MOL0     H41353   5.345  10.299   6.689  0.3242 -2.5304 -2.0646
  300MOL0     H41354   5.162  10.083   6.811 -0.7447 -1.7545  0.1878
  300MOL0     H41355   5.143  10.126   6.644  1.0694  1.1018 -0.5132
  300MOL0     H41356   5.359  10.057   6.583  2.2996  0.3727  1.4662
  300MOL0     H41357   5.430  10.042   6.733  1.2553  5.1188 -1.5718
  300MOL0     H41358   5.180   9.954   6.456  1.6940 -0.5851  0.5236
  300MOL0     H41359   4.939   9.990   6.357 -0.9248 -1.4834  1.4613
  300MOL0     H41360   4.885   9.840   6.273 -1.3011 -0.4294  1.2218
  300MOL0     H41361   5.054   9.884   6.264 -0.4932  2.1828 -0.3019
  300MOL0     H41362   4.765   9.576   6.848  2.9055 -0.0150  1.6007
  300MOL0     H41363   4.849   9.695   7.034  1.1665  1.9009  1.7317
  300MOL0     H41364   4.832  10.158   7.006  1.5469  2.0356  1.7614
  300MOL0     H41365   4.716  10.065   7.103 -0.5314  2.6510  1.7288
  300MOL0     H41366   4.991  10.165   7.189 -0.0388  0.5253 -0.2555
  300MOL0     H41367   4.845  10.243   7.229 -0.0470  0.5184 -0.5828
  300MOL0     H41368   4.859   9.952   7.321  0.3867  0.3627 -1.4742
  300MOL0     H41369   4.770  10.106   7.364 -0.4792 -0.8564  3.0735
  300MOL0     H41370   4.964  10.195   7.460  0.8314 -0.8444  1.0532
  300MOL0     H41371   5.061  10.059   7.392 -0.7987 -2.4933 -2.6110
  300MOL0     H41372   4.999  10.070   7.649 -3.1670  3.4690  1.9170
  300MOL0     H41373   4.826  10.032   7.601  0.1311  2.9175 -0.5282
  300MOL0     H41374   4.937   9.827   7.481 -0.3283  0.4071  0.1247
  300MOL0     H41375   4.935   9.803   7.656  2.5620  1.4697  2.7417
  300MOL0     H41376   5.143   9.893   7.688 -1.5579  1.5115 -1.1177
  300MOL0     H41377   5.172   9.931   7.526 -0.9937 -0.7183 -2.3290
  300MOL0     H41378   5.201   9.662   7.492  4.9931 -2.6962  0.4629
  300MOL0     H41379   5.096   9.650   7.637  0.9070  0.8841  1.4446
  300MOL0     H41380   4.840  10.065   6.805 -2.6441  0.8908 -0.3204
  300MOL0     H41381   4.743   9.961   6.621  0.9885 -0.6662 -1.0230
  300MOL0     H41382   4.959   9.574   6.685 -0.8129 -0.4716  0.6547
  300MOL0     H41383   5.171   9.689   6.798  1.4535  1.1160 -0.4279
  300MOL0     H41384   5.576  10.088   7.747 -1.5297 -0.5710 -0.3724
  300MOL0     H41385   5.488   9.879   7.711 -2.6395  4.7568 -1.0603
  300MOL0     H41386   5.377   9.581   7.363 -0.1650 -0.3483  0.1072
  300MOL0     H41387   5.250   9.394   7.319  0.0507 -0.6362  0.5179
  300MOL0     H41388   5.139   9.218   7.271  2.5236  2.5668  0.9190
  300MOL0     H41389   5.131   9.057   7.332 -1.4842 -0.5382  3.4953
  300MOL0     H41390   4.968   9.171   7.430  0.4890 -2.2667  1.1122
  300MOL0     H41391   5.049   9.311   7.468  0.8139  0.2244  0.2087
  300MOL0     H41392   5.174   9.078   7.604  0.1836  0.0452 -1.3248
  300MOL0     H41393   5.105   9.230   7.663 -2.4015  2.6094 -1.2589
  300MOL0     H41394   4.877   9.095   7.673 -1.0607 -0.6466 -3.1661
  300MOL0     H41395   5.003   8.980   7.721 -1.8179  0.1303  1.7174
  300MOL0     H41396   4.874   8.834   7.338 -0.6579 -0.7266  0.3720
  300MOL0     H41397   5.530   9.127   7.484 -0.3345  0.0171  3.8741
  300MOL0     H41398   5.811   9.302   7.480 -2.4581 -0.3437 -1.1940
  300MOL0     H41399   5.763   9.343   7.639  1.6829  0.3443  0.7006
  300MOL0     H41400   5.725   9.183   7.581  1.2293 -1.0923  1.0047
  301MOL0     O41401   3.261  10.288   2.861  0.5717 -0.4766  0.2724
  301MOL0     C41402   3.170  10.249   2.786  0.1441  0.8677  1.3814
  301MOL0     O41403   3.196  10.181   2.667  0.4676 -0.1490 -0.3389
  301MOL0     C41404   3.317  10.161   2.614 -0.7695  0.8385  0.8720
  301MOL0     C41405   3.321  10.045   2.542  0.3263  0.4704 -0.3586
  301MOL0     C41406   3.443  10.004   2.472  0.0037 -0.3849  0.6045
  301MOL0     C41407   3.557  10.083   2.492 -0.7482 -0.9391 -0.3745
  301MOL0     O41408   3.670  10.037   2.422  0.8867 -0.3429  0.1192
  301MOL0     C41409   3.760  10.141   2.393 -0.5953  0.8449  0.9027
  301MOL0     C41410   3.698  10.241   2.293 -0.6887 -0.0203  0.3361
  301MOL0     C41411   3.793  10.325   2.211  0.4517 -0.0848 -0.6727
  301MOL0     C41412   3.852  10.445   2.287  0.3702  0.8046  0.0348
  301MOL0     C41413   3.910  10.554   2.193  0.8706  0.8315 -0.2759
  301MOL0     C41414   3.996  10.638   2.281 -0.5968 -0.7996  0.3702
  301MOL0     C41415   4.046  10.760   2.208  0.4579  0.3624  0.1159
  301MOL0     C41416   4.158  10.818   2.295 -0.9980  0.9772  0.2338
  301MOL0     N41417   4.205  10.949   2.245 -0.1333 -0.3610 -0.2665
  301MOL0     C41418   4.229  10.975   2.118  0.7199  0.2133  0.0843
  301MOL0     C41419   4.278  11.097   2.108 -0.6179 -0.3754 -1.4570
  301MOL0     C41420   4.331  11.171   1.990 -0.0086  0.1107  0.4444
  301MOL0     C41421   4.215  11.203   1.890  0.8422 -0.1733 -0.3426
  301MOL0     C41422   4.107  11.283   1.948 -0.3947 -0.1396 -0.5442
  301MOL0     C41423   4.000  11.310   1.837 -0.2846  0.5785 -0.0865
  301MOL0     O41424   3.920  11.424   1.882  0.2578  0.2898 -0.0414
  301MOL0     C41425   3.928  11.539   1.807 -0.4798  0.9130 -0.3685
  301MOL0     C41426   4.041  11.585   1.745  0.5823  0.7114  0.3543
  301MOL0     C41427   4.054  11.707   1.675  1.4052 -0.5007  0.7198
  301MOL0     C41428   4.182  11.746   1.615 -0.4732 -0.3362  0.8840
  301MOL0     C41429   3.935  11.792   1.661 -0.7468  0.2417 -0.1791
  301MOL0     C41430   3.910  11.911   1.573 -0.9744  0.4432 -0.0252
  301MOL0     O41431   4.002  11.932   1.473 -0.5583  0.3704 -0.4677
  301MOL0     C41432   4.024  12.051   1.407 -0.0405  0.3492 -0.1219
  301MOL0     C41433   4.085  12.039   1.285 -0.0766 -0.0928  0.9794
  301MOL0     C41434   4.119  12.160   1.212 -0.7926  0.0664 -0.2234
  301MOL0     C41435   4.090  12.289   1.263 -0.4231 -0.4755 -0.0005
  301MOL0     O41436   4.116  12.397   1.192 -0.0164 -0.6731 -0.5118
  301MOL0     C41437   4.080  12.533   1.231  0.3185 -0.2271  0.0431
  301MOL0     C41438   4.067  12.617   1.101  0.3617  0.1927  0.2714
  301MOL0     C41439   3.935  12.599   1.017  0.7558  0.1447 -0.2021
  301MOL0     C41440   3.816  12.648   1.087  0.3687  0.0348 -0.2800
  301MOL0     C41441   3.696  12.654   0.996  0.5933 -0.4589  0.9560
  301MOL0     C41442   3.582  12.722   1.067 -0.1962 -0.8444 -0.2312
  301MOL0     C41443   3.469  12.744   0.964  0.6748  0.2282 -0.2859
  301MOL0     C41444   3.337  12.798   1.029 -0.7164 -0.2528  0.7239
  301MOL0    Cl41445   3.357  12.954   1.126  0.2837  0.1713 -0.7168
  301MOL0     C41446   4.042  12.290   1.391  0.4264  0.1026 -0.1196
  301MOL0     C41447   4.012  12.181   1.463  1.0133  0.7682 -0.1533
  301MOL0     O41448   3.820  11.990   1.601 -0.1033  0.7976  0.3822
  301MOL0     C41449   3.824  11.748   1.742  0.3536 -0.0867 -0.7667
  301MOL0     C41450   3.820  11.628   1.810 -0.4909 -0.1438  0.6739
  301MOL0     N41451   4.290  11.147   2.238  0.2159 -0.4914 -0.5038
  301MOL0     N41452   4.251  11.054   2.320 -0.3946 -0.1789  0.2773
  301MOL0     C41453   3.558  10.202   2.568 -0.1209  0.0333  0.3208
  301MOL0     C41454   3.438  10.233   2.638  0.4414 -0.1508 -0.0211
  301MOL0     C41455   3.026  10.246   2.823 -0.2118 -0.0453  0.1426
  301MOL0     C41456   2.947  10.137   2.775  0.1751  0.5923 -0.9607
  301MOL0     C41457   2.817  10.122   2.829  0.1240 -0.2403 -0.2630
  301MOL0     C41458   2.767  10.223   2.913 -0.0605 -0.9865  0.8714
  301MOL0     O41459   2.635  10.200   2.959  0.2126  0.0179  0.1901
  301MOL0     C41460   2.589  10.290   3.060 -0.9117 -0.6150  0.0176
  301MOL0     C41461   2.484  10.241   3.152 -0.1035  0.6182  0.5776
  301MOL0     C41462   2.341  10.273   3.108  0.7883  1.1198  1.3102
  301MOL0     C41463   2.307  10.232   2.964 -1.2958 -0.3582  0.9037
  301MOL0     C41464   2.294  10.086   2.956 -0.4383 -1.1383 -0.0604
  301MOL0     C41465   2.256   9.971   2.953 -0.0369  0.6688 -0.9416
  301MOL0     C41466   2.851  10.336   2.950  0.9307 -0.3008  0.1627
  301MOL0     C41467   2.978  10.349   2.904  0.4643  0.0320  0.8517
  301MOL0     C41468   3.055  10.468   2.942  0.8389  0.7463 -0.2924
  301MOL0     H41469   3.226   9.993   2.531  0.6307 -0.6392  1.7884
  301MOL0     H41470   3.460   9.909   2.422 -0.1176 -0.5215  0.8240
  301MOL0     H41471   3.844  10.095   2.339 -0.5855  2.3805 -0.4598
  301MOL0     H41472   3.808  10.185   2.481 -0.1681  3.2918 -0.4850
  301MOL0     H41473   3.660  10.173   2.216 -0.2774 -1.2542  1.1895
  301MOL0     H41474   3.615  10.303   2.326 -0.0637  0.8152  0.3521
  301MOL0     H41475   3.869  10.263   2.162  0.5354  1.3708 -2.5030
  301MOL0     H41476   3.730  10.362   2.130 -2.3313  0.8495  1.7610
  301MOL0     H41477   3.776  10.490   2.351  0.3231  1.8004 -0.6972
  301MOL0     H41478   3.930  10.412   2.356 -1.6575  2.4856  3.3823
  301MOL0     H41479   3.828  10.606   2.143  0.4151 -1.0184 -1.5903
  301MOL0     H41480   3.974  10.507   2.118 -0.4381 -0.2030 -0.7947
  301MOL0     H41481   3.948  10.668   2.374 -0.5904  2.0434 -0.4383
  301MOL0     H41482   4.093  10.595   2.309  0.3930 -0.1754 -1.8299
  301MOL0     H41483   3.967  10.836   2.204 -0.0019 -0.0758  0.6267
  301MOL0     H41484   4.082  10.734   2.108  2.9271  0.8799  0.8228
  301MOL0     H41485   4.122  10.824   2.398  0.3188 -1.2831  0.8941
  301MOL0     H41486   4.241  10.748   2.283 -1.1612  0.3433  2.3828
  301MOL0     H41487   4.204  10.914   2.032  3.2851 -0.6500 -0.1092
  301MOL0     H41488   4.416  11.124   1.940 -1.0852  0.2625 -1.6350
  301MOL0     H41489   4.364  11.267   2.030 -2.0790  0.6211  1.0512
  301MOL0     H41490   4.257  11.244   1.798  1.3152 -0.6392 -0.3449
  301MOL0     H41491   4.159  11.111   1.868 -2.7981  1.6015  0.7745
  301MOL0     H41492   4.051  11.228   2.024  1.9740 -3.7508 -1.2027
  301MOL0     H41493   4.153  11.375   1.986 -0.1843 -0.7911  0.8571
  301MOL0     H41494   4.050  11.322   1.740  1.9256 -3.5928  0.2974
  301MOL0     H41495   3.941  11.218   1.824  0.8425  0.2045 -3.6434
  301MOL0     H41496   4.133  11.528   1.751 -0.9295 -1.8140  2.7700
  301MOL0     H41497   4.183  11.738   1.506  2.3468 -0.9119  0.8557
  301MOL0     H41498   4.255  11.671   1.650  0.6554 -0.8094 -2.1754
  301MOL0     H41499   4.223  11.843   1.644 -2.7709  0.6984  0.8831
  301MOL0     H41500   4.105  11.944   1.236 -1.1647  0.4039 -0.5000
  301MOL0     H41501   4.164  12.158   1.114  0.3499  2.0017  0.1967
  301MOL0     H41502   3.975  12.539   1.263  0.4629  2.1365  0.2664
  301MOL0     H41503   4.141  12.582   1.307  0.8209 -1.8059  0.6804
  301MOL0     H41504   4.071  12.721   1.134  0.3179  1.0365 -2.1820
  301MOL0     H41505   4.154  12.587   1.042 -0.1164 -1.4609  0.3512
  301MOL0     H41506   3.927  12.492   0.991  1.3296 -0.9156  3.4562
  301MOL0     H41507   3.962  12.661   0.931 -0.5153  0.1144 -0.6394
  301MOL0     H41508   3.827  12.747   1.132 -5.4171  0.7519  0.4231
  301MOL0     H41509   3.786  12.586   1.172  3.0928 -0.5834  0.2960
  301MOL0     H41510   3.727  12.718   0.913  0.4609  0.6304  1.7187
  301MOL0     H41511   3.665  12.558   0.953 -0.0517 -0.4918  1.4796
  301MOL0     H41512   3.619  12.820   1.100 -3.5527 -0.1246  1.9130
  301MOL0     H41513   3.540  12.667   1.152 -1.7880 -0.4913 -0.7478
  301MOL0     H41514   3.451  12.658   0.899 -0.2993  0.8676 -0.8895
  301MOL0     H41515   3.514  12.824   0.904 -1.5519  3.3883  1.8888
  301MOL0     H41516   3.282  12.728   1.091 -1.6232 -1.1444 -1.0193
  301MOL0     H41517   3.266  12.814   0.948 -0.9689 -1.7062  0.6421
  301MOL0     H41518   4.031  12.381   1.449  3.2408 -0.5238  1.5741
  301MOL0     H41519   3.968  12.191   1.562  1.8408  3.1987  0.0157
  301MOL0     H41520   3.723  11.789   1.736  0.4977  0.3457 -0.2814
  301MOL0     H41521   3.734  11.582   1.858 -3.1025  0.3798 -3.0759
  301MOL0     H41522   3.648  10.259   2.589 -0.3035  0.5534 -0.2868
  301MOL0     H41523   3.430  10.317   2.706 -1.0037  0.7006 -1.1785
  301MOL0     H41524   2.995  10.060   2.714  1.0584  0.4329 -0.0879
  301MOL0     H41525   2.760  10.033   2.808 -0.6139 -0.0317  0.8186
  301MOL0     H41526   2.675  10.323   3.119 -1.3838  1.1879 -0.2461
  301MOL0     H41527   2.550  10.379   3.009 -0.6504  1.6314  3.4024
  301MOL0     H41528   2.497  10.299   3.244  3.1131  2.0171 -0.6376
  301MOL0     H41529   2.496  10.133   3.169 -0.9613  0.2431 -1.0063
  301MOL0     H41530   2.270  10.219   3.172 -3.3763  3.4638 -0.9060
  301MOL0     H41531   2.310  10.375   3.134 -2.2850  0.6053  0.1560
  301MOL0     H41532   2.380  10.253   2.885 -2.0504  1.5168  0.6656
  301MOL0     H41533   2.211  10.275   2.935 -1.1146 -0.7200 -0.2887
  301MOL0     H41534   2.259   9.865   2.941 -0.3585  0.6477 -0.8399
  301MOL0     H41535   2.824  10.418   3.016  1.6330 -1.9219  2.6161
  301MOL0     H41536   3.140  10.447   3.007  0.3402 -0.1635  0.0888
  301MOL0     H41537   3.096  10.529   2.861  0.3038  0.2662 -0.9405
  301MOL0     H41538   2.994  10.533   3.006  2.3709  0.7355  1.2339
  302MOL0     O41539   3.023   4.574   1.451  0.7262 -0.0850 -0.5929
  302MOL0     C41540   3.016   4.460   1.406 -0.7700 -0.0591 -0.0474
  302MOL0     O41541   3.031   4.349   1.478  0.0201 -0.0698  0.0733
  302MOL0     C41542   3.065   4.359   1.610 -0.5214  1.0697  0.0252
  302MOL0     C41543   3.202   4.376   1.646 -0.9569  0.2711  1.0842
  302MOL0     C41544   3.244   4.391   1.777 -0.3386 -0.0574  0.0181
  302MOL0     C41545   3.151   4.394   1.874 -0.4056  0.2076 -0.4411
  302MOL0     O41546   3.208   4.413   1.997  0.5646  0.1085 -0.0897
  302MOL0     C41547   3.120   4.400   2.113 -0.0954 -0.3514  0.5775
  302MOL0     C41548   3.176   4.511   2.199  0.8248 -0.6087 -0.0785
  302MOL0     C41549   3.110   4.530   2.341  0.5752  0.6558 -0.1158
  302MOL0     C41550   2.958   4.507   2.331 -0.5853 -0.0320 -0.3707
  302MOL0     C41551   2.872   4.555   2.450  0.5700  0.7436 -0.2207
  302MOL0     C41552   2.854   4.704   2.443 -0.9172  0.9875  0.2825
  302MOL0     C41553   2.813   4.775   2.572  0.2660 -0.1098 -0.6271
  302MOL0     C41554   2.693   4.736   2.645  0.4692  0.5139  0.6637
  302MOL0     N41555   2.663   4.823   2.755  0.4656 -0.6763 -0.0330
  302MOL0     C41556   2.742   4.819   2.869  0.4373  0.0823 -0.2116
  302MOL0     C41557   2.662   4.890   2.954  0.7993  0.5590  0.0532
  302MOL0     C41558   2.686   4.897   3.100 -0.7412 -0.4365 -0.3688
  302MOL0     C41559   2.606   5.019   3.170  0.6631  0.7939  0.5377
  302MOL0     C41560   2.648   5.029   3.317  0.0998  2.0881  0.1162
  302MOL0     C41561   2.572   5.136   3.401  0.3605 -1.1509  0.0881
  302MOL0     O41562   2.638   5.266   3.384 -0.6224 -0.2392 -1.2012
  302MOL0     C41563   2.746   5.306   3.471 -0.1136 -0.4045  0.6153
  302MOL0     C41564   2.802   5.428   3.431 -0.1084 -0.2043 -0.6318
  302MOL0     C41565   2.915   5.490   3.497 -0.0524 -0.3749 -0.5661
  302MOL0     C41566   2.956   5.619   3.435  0.8374  0.1410  0.5125
  302MOL0     C41567   2.971   5.427   3.615 -0.8825  0.0404 -0.2124
  302MOL0     C41568   3.072   5.482   3.706  0.1542 -0.5468  0.1703
  302MOL0     O41569   3.072   5.429   3.836 -0.1996 -0.2982  0.4338
  302MOL0     C41570   3.165   5.461   3.928 -0.2949 -1.3161  0.0497
  302MOL0     C41571   3.301   5.473   3.890 -0.5793 -0.9543  0.0952
  302MOL0     C41572   3.409   5.508   3.976  0.3945 -0.5688 -0.0998
  302MOL0     C41573   3.374   5.562   4.103 -0.5437  0.2209 -0.0920
  302MOL0     O41574   3.457   5.617   4.188 -0.3546  0.5468  0.1055
  302MOL0     C41575   3.602   5.582   4.175  0.5094 -1.6016 -0.7954
  302MOL0     C41576   3.690   5.657   4.263 -1.0270 -0.4187  0.1057
  302MOL0     C41577   3.718   5.575   4.390  0.1694  0.0898  0.2463
  302MOL0     C41578   3.811   5.637   4.484 -0.1880 -0.7289 -0.2773
  302MOL0     C41579   3.829   5.553   4.606  0.3149  0.9195  0.2537
  302MOL0     C41580   3.921   5.434   4.577 -0.0121 -0.1463 -0.1012
  302MOL0     C41581   3.930   5.346   4.696 -0.3756  0.3653  0.0024
  302MOL0     C41582   3.924   5.417   4.828 -0.6058 -0.0985  0.2953
  302MOL0    Cl41583   3.947   5.303   4.957 -0.6750  0.0201  0.4160
  302MOL0     C41584   3.244   5.558   4.144 -0.4277  0.1475  0.2763
  302MOL0     C41585   3.146   5.508   4.060  0.1743 -0.4384 -0.1328
  302MOL0     O41586   3.135   5.573   3.669  0.5019 -0.3768 -1.3154
  302MOL0     C41587   2.923   5.299   3.644 -0.1588  0.0088 -0.6357
  302MOL0     C41588   2.809   5.245   3.574  0.0217  0.1441 -0.0751
  302MOL0     N41589   2.554   4.946   2.882 -0.8231  0.3127  0.4686
  302MOL0     N41590   2.560   4.905   2.761 -0.2508 -0.2074  0.4200
  302MOL0     C41591   3.011   4.380   1.849  0.0074 -0.7008 -0.0836
  302MOL0     C41592   2.970   4.357   1.717 -0.8086 -0.3371 -0.2991
  302MOL0     C41593   2.994   4.432   1.257  0.6444 -1.1372  0.3187
  302MOL0     C41594   3.057   4.322   1.206 -0.5574 -0.0013  0.6702
  302MOL0     C41595   3.048   4.294   1.074  0.1966  0.2775 -0.7124
  302MOL0     C41596   2.975   4.364   0.984 -0.7426 -0.3775  0.3581
  302MOL0     O41597   2.967   4.337   0.853  0.1360 -0.8303 -0.1902
  302MOL0     C41598   2.907   4.432   0.763 -0.6075 -0.8744  0.7705
  302MOL0     C41599   2.954   4.404   0.621  0.6053  0.0699  0.7512
  302MOL0     C41600   2.885   4.280   0.559  0.1184 -0.6589 -0.6908
  302MOL0     C41601   2.900   4.296   0.406 -0.0563  0.1225  0.2769
  302MOL0     C41602   2.801   4.215   0.335  0.4345  0.8125  0.3030
  302MOL0     C41603   2.705   4.167   0.278  0.0041 -0.5298  0.1545
  302MOL0     C41604   2.905   4.473   1.035  0.8472  0.5479  0.1087
  302MOL0     C41605   2.920   4.514   1.171 -0.2797 -0.0673  0.1545
  302MOL0     C41606   2.845   4.642   1.215  0.0608  0.2810 -1.2877
  302MOL0     H41607   3.270   4.368   1.562 -2.5488  1.3672 -0.3767
  302MOL0     H41608   3.348   4.389   1.809 -1.3719 -1.9500  3.7561
  302MOL0     H41609   3.142   4.301   2.155  1.1177  0.8013  2.8161
  302MOL0     H41610   3.013   4.403   2.092  0.6917  2.3960 -4.6019
  302MOL0     H41611   3.284   4.494   2.209  0.2174 -5.5638  0.6895
  302MOL0     H41612   3.154   4.604   2.146 -3.1825 -1.1205  0.3518
  302MOL0     H41613   3.166   4.461   2.404 -0.2466  0.3945  0.3516
  302MOL0     H41614   3.135   4.630   2.378  3.2405  0.2722 -0.7415
  302MOL0     H41615   2.918   4.536   2.233 -1.0395  1.4270  0.2184
  302MOL0     H41616   2.958   4.398   2.327 -0.1704 -0.2310  2.6651
  302MOL0     H41617   2.923   4.522   2.541 -0.3081  2.5305  0.9655
  302MOL0     H41618   2.774   4.508   2.462  0.1539  2.3458  4.2509
  302MOL0     H41619   2.952   4.746   2.418 -1.7588  1.8049 -1.8040
  302MOL0     H41620   2.785   4.723   2.361 -3.3360 -3.4392  1.0133
  302MOL0     H41621   2.786   4.876   2.540  2.7998  0.9952  0.4459
  302MOL0     H41622   2.899   4.791   2.638 -0.6122 -2.4918  1.2311
  302MOL0     H41623   2.608   4.726   2.578  0.6244 -0.2264  0.5719
  302MOL0     H41624   2.713   4.634   2.679  1.8307  1.1965  2.0875
  302MOL0     H41625   2.829   4.757   2.886 -1.7147 -3.6458 -1.6584
  302MOL0     H41626   2.794   4.895   3.115 -0.8527 -0.7839  0.4406
  302MOL0     H41627   2.647   4.803   3.142  0.8337 -0.6282  0.7858
  302MOL0     H41628   2.638   5.108   3.116  4.1255 -0.3687  0.4182
  302MOL0     H41629   2.498   5.003   3.165  0.3913  2.8492 -2.6463
  302MOL0     H41630   2.645   4.927   3.358  1.8770  1.7620 -0.4837
  302MOL0     H41631   2.754   5.055   3.326  2.0292 -4.0295 -0.5223
  302MOL0     H41632   2.472   5.147   3.359 -0.1115 -2.1879  0.8901
  302MOL0     H41633   2.570   5.125   3.510  0.9516  1.0066  0.3710
  302MOL0     H41634   2.755   5.481   3.349 -2.1806 -2.4880 -1.0096
  302MOL0     H41635   3.062   5.641   3.446  0.3895  2.3685  0.8910
  302MOL0     H41636   2.898   5.701   3.478 -2.1162 -0.6865 -1.5412
  302MOL0     H41637   2.931   5.623   3.328  1.9434  1.5523  0.2838
  302MOL0     H41638   3.330   5.456   3.787 -1.4489  0.5125 -0.4158
  302MOL0     H41639   3.509   5.521   3.934  0.0822  1.8842 -0.2215
  302MOL0     H41640   3.614   5.476   4.198 -1.9949 -2.9746 -4.7896
  302MOL0     H41641   3.633   5.592   4.071  3.8344 -2.6841 -0.0254
  302MOL0     H41642   3.778   5.699   4.214 -2.9533  3.7095 -0.1742
  302MOL0     H41643   3.646   5.747   4.306  0.2078  0.0511  0.4284
  302MOL0     H41644   3.765   5.484   4.352 -0.5124  0.1022 -0.6687
  302MOL0     H41645   3.629   5.552   4.450 -0.3402  1.9006  0.2556
  302MOL0     H41646   3.763   5.729   4.519  1.6037  0.1003  0.1391
  302MOL0     H41647   3.901   5.670   4.430  1.0095 -1.9692  0.9042
  302MOL0     H41648   3.878   5.625   4.673  1.3635  1.7212 -1.3110
  302MOL0     H41649   3.734   5.518   4.648  1.3567 -1.6958  0.5652
  302MOL0     H41650   4.023   5.471   4.560 -0.6549  1.2102 -1.2309
  302MOL0     H41651   3.905   5.372   4.488  1.8408 -0.5604 -0.1836
  302MOL0     H41652   4.022   5.290   4.682  0.1422  1.6398 -2.1848
  302MOL0     H41653   3.865   5.258   4.691 -0.6390  0.4568  1.4868
  302MOL0     H41654   3.823   5.460   4.825 -1.6095 -2.3418 -2.4625
  302MOL0     H41655   4.006   5.488   4.842  0.0336 -0.8742  0.5729
  302MOL0     H41656   3.237   5.595   4.246  0.8784  1.9951 -0.2558
  302MOL0     H41657   3.051   5.515   4.112  1.8868 -2.9003  3.7594
  302MOL0     H41658   2.960   5.242   3.728 -3.3210  0.5357  1.2876
  302MOL0     H41659   2.771   5.148   3.605  1.1580 -0.0943  0.6472
  302MOL0     H41660   2.928   4.389   1.919  1.0141 -2.2843  1.4196
  302MOL0     H41661   2.863   4.346   1.705 -1.0569  1.5141 -0.0614
  302MOL0     H41662   3.123   4.252   1.255  1.4487  0.3486 -1.3772
  302MOL0     H41663   3.093   4.198   1.052 -0.3145 -0.9760  2.9915
  302MOL0     H41664   2.798   4.425   0.772 -0.8833  0.8026 -0.8327
  302MOL0     H41665   2.935   4.536   0.783 -2.6625 -0.6332  2.8457
  302MOL0     H41666   3.063   4.393   0.628  0.7988  2.4720  3.2076
  302MOL0     H41667   2.931   4.496   0.568 -0.7840 -0.2000  0.8449
  302MOL0     H41668   2.934   4.187   0.591  0.4487 -0.1927  0.2146
  302MOL0     H41669   2.788   4.261   0.605 -0.5863 -0.0109 -1.8716
  302MOL0     H41670   3.003   4.268   0.383  0.8793  0.1990  3.8062
  302MOL0     H41671   2.891   4.402   0.381 -0.1812  0.5180  1.8904
  302MOL0     H41672   2.608   4.142   0.241 -0.0546 -0.6813  0.4106
  302MOL0     H41673   2.845   4.538   0.971  1.1932  1.2297  0.4654
  302MOL0     H41674   2.745   4.607   1.244 -0.1614  0.4842 -1.7980
  302MOL0     H41675   2.883   4.693   1.304 -5.4010 -0.4580  1.9745
  302MOL0     H41676   2.835   4.722   1.141  1.9249  3.4104  1.5604
  303MOL0     O41677   4.452   4.099   6.400 -0.0090 -0.2710  0.4995
  303MOL0     C41678   4.351   4.075   6.459  1.1135 -0.4493  0.1586
  303MOL0     O41679   4.339   4.057   6.595  0.5779 -0.1941 -0.5388
  303MOL0     C41680   4.455   4.041   6.655 -0.4924 -0.5843 -0.7518
  303MOL0     C41681   4.507   3.917   6.695 -0.1719 -0.4099 -0.3938
  303MOL0     C41682   4.632   3.902   6.740 -0.0291  0.8474  0.7316
  303MOL0     C41683   4.719   4.007   6.752 -0.0133  0.2806  0.0727
  303MOL0     O41684   4.853   3.978   6.786  0.2367  0.1051  0.2251
  303MOL0     C41685   4.898   4.057   6.890 -0.2025 -0.2025 -0.8017
  303MOL0     C41686   5.041   4.019   6.933  0.1893  0.4554 -1.0663
  303MOL0     C41687   5.098   4.115   7.041 -0.8290 -0.4702  0.1821
  303MOL0     C41688   5.173   4.241   6.992  0.4032  0.1752  0.0485
  303MOL0     C41689   5.100   4.362   6.923 -0.1380 -0.0958  0.8435
  303MOL0     C41690   4.973   4.417   6.986  0.0191  0.9351  0.3532
  303MOL0     C41691   4.935   4.555   6.922  0.8460  0.2517  0.2462
  303MOL0     C41692   4.839   4.630   6.996  0.7894 -1.1811  0.2920
  303MOL0     N41693   4.847   4.765   6.949 -0.3700 -0.1072 -0.2725
  303MOL0     C41694   4.825   4.809   6.823 -0.3249 -0.4342 -0.4892
  303MOL0     C41695   4.847   4.939   6.822 -0.1674  0.3231  0.3362
  303MOL0     C41696   4.856   5.028   6.699 -0.6189 -0.0721  0.0137
  303MOL0     C41697   4.997   5.026   6.634 -0.6026  0.3507 -0.5732
  303MOL0     C41698   5.121   5.002   6.726  0.9987 -0.6142  0.1003
  303MOL0     C41699   5.138   4.852   6.757 -0.8925 -1.4191  0.2213
  303MOL0     O41700   5.271   4.813   6.730  0.2679  0.2613  0.3559
  303MOL0     C41701   5.315   4.688   6.756 -0.0848 -0.2176 -0.3891
  303MOL0     C41702   5.308   4.587   6.666  0.2087  1.6695  0.1582
  303MOL0     C41703   5.381   4.468   6.685 -0.2499 -0.5717 -0.0419
  303MOL0     C41704   5.381   4.364   6.583  0.9411 -0.1416 -0.3660
  303MOL0     C41705   5.447   4.438   6.810  0.6165  0.3461  0.1342
  303MOL0     C41706   5.511   4.307   6.831  0.4919  0.1459 -0.2866
  303MOL0     O41707   5.568   4.239   6.719  0.8942 -0.4112 -0.8370
  303MOL0     C41708   5.630   4.111   6.724  0.1608 -0.3797  0.9591
  303MOL0     C41709   5.657   4.036   6.836 -0.4095 -0.2869 -0.5450
  303MOL0     C41710   5.762   3.942   6.843  0.1558  0.3519 -0.2963
  303MOL0     C41711   5.824   3.898   6.730 -0.2523  0.6130  0.4244
  303MOL0     O41712   5.924   3.794   6.719 -0.4327 -0.9710  0.0674
  303MOL0     C41713   5.931   3.700   6.828  0.4437 -0.6880 -0.3742
  303MOL0     C41714   5.960   3.558   6.785  0.4179 -0.2242  0.1876
  303MOL0     C41715   5.826   3.481   6.754  0.5970 -0.5831 -0.0218
  303MOL0     C41716   5.724   3.531   6.641 -1.1759  0.5838 -0.2925
  303MOL0     C41717   5.798   3.568   6.513  0.2124 -0.9357  0.1799
  303MOL0     C41718   5.707   3.568   6.392 -0.0074  0.1695  0.4872
  303MOL0     C41719   5.792   3.614   6.264 -0.1395  0.0959 -0.3669
  303MOL0     C41720   5.700   3.683   6.162  0.0526  0.0920  0.0877
  303MOL0    Cl41721   5.588   3.559   6.081  0.2693  0.2079  0.0736
  303MOL0     C41722   5.789   3.963   6.611  0.1601  0.0806  0.7525
  303MOL0     C41723   5.702   4.080   6.603  0.5455 -0.8996 -0.2999
  303MOL0     O41724   5.513   4.266   6.946 -0.6305 -0.4126  0.7143
  303MOL0     C41725   5.429   4.539   6.911 -0.0296  0.5384  0.9937
  303MOL0     C41726   5.358   4.659   6.882 -0.5259 -0.8443  0.2879
  303MOL0     N41727   4.889   4.981   6.949  0.0634 -0.0854 -0.5415
  303MOL0     N41728   4.896   4.875   7.022 -0.6768  0.1908 -0.0560
  303MOL0     C41729   4.662   4.138   6.714 -0.7209 -0.2217 -1.1736
  303MOL0     C41730   4.533   4.158   6.663  0.5819 -0.2413  0.4026
  303MOL0     C41731   4.218   4.123   6.406  1.0282 -0.1905  0.0125
  303MOL0     C41732   4.113   4.031   6.363  1.2299  0.7879 -0.0170
  303MOL0     C41733   3.979   4.080   6.345  0.0351  0.2109  0.8400
  303MOL0     C41734   3.947   4.216   6.364  1.2417  0.1426 -0.4554
  303MOL0     O41735   3.810   4.251   6.351 -0.0110  0.1953 -0.1737
  303MOL0     C41736   3.769   4.385   6.377  0.8936 -0.4118 -0.1690
  303MOL0     C41737   3.626   4.391   6.422  0.6654  0.1440 -0.5420
  303MOL0     C41738   3.528   4.311   6.329 -0.3218 -1.1731  0.0114
  303MOL0     C41739   3.507   4.152   6.340  0.4252 -0.6762  1.0402
  303MOL0     C41740   3.460   4.089   6.220 -0.3668 -0.3294 -0.5046
  303MOL0     C41741   3.410   4.041   6.122 -0.0544 -0.6407  0.5610
  303MOL0     C41742   4.053   4.301   6.397 -0.2060 -0.2185  1.2145
  303MOL0     C41743   4.190   4.263   6.421 -0.8311  0.7803 -0.7141
  303MOL0     C41744   4.294   4.362   6.463  0.1674 -0.5308  0.1894
  303MOL0     H41745   4.445   3.828   6.696 -2.7540  1.1948  2.8961
  303MOL0     H41746   4.677   3.806   6.764  0.8461  0.6210 -1.5389
  303MOL0     H41747   4.830   4.046   6.975 -1.0342 -0.9417 -1.5539
  303MOL0     H41748   4.889   4.163   6.864 -0.1868  0.8054  2.7247
  303MOL0     H41749   5.041   3.931   6.998 -0.4131  0.4237 -1.1004
  303MOL0     H41750   5.110   3.994   6.852 -0.7407  0.5331 -1.9018
  303MOL0     H41751   5.016   4.155   7.101  0.7640  0.5553  1.7702
  303MOL0     H41752   5.159   4.056   7.111  0.6849 -0.7400 -1.2951
  303MOL0     H41753   5.222   4.287   7.078  0.0540 -0.8961  0.8305
  303MOL0     H41754   5.242   4.208   6.914 -2.2832 -2.1047 -1.5762
  303MOL0     H41755   5.090   4.324   6.821  5.1155 -2.6092  0.9059
  303MOL0     H41756   5.174   4.438   6.899  0.8708 -1.5612 -0.9658
  303MOL0     H41757   4.898   4.340   6.963  1.7256 -0.9216  0.7189
  303MOL0     H41758   4.981   4.425   7.095 -2.0285 -2.7755  0.9737
  303MOL0     H41759   4.904   4.532   6.819  0.4433 -0.9152  0.6105
  303MOL0     H41760   5.019   4.624   6.918 -1.5749  3.4354 -0.1010
  303MOL0     H41761   4.738   4.597   6.969  0.4210  0.9917 -1.2966
  303MOL0     H41762   4.847   4.627   7.106 -2.1317  2.2900  0.8069
  303MOL0     H41763   4.817   4.753   6.730  0.5558  2.9080 -2.7387
  303MOL0     H41764   4.828   5.132   6.718 -0.5522 -0.4812  2.8610
  303MOL0     H41765   4.786   4.985   6.627 -0.1529 -0.2637 -0.3332
  303MOL0     H41766   5.006   4.956   6.550 -0.8192  0.2739 -0.5332
  303MOL0     H41767   5.016   5.127   6.596  2.3374  1.0709  2.3677
  303MOL0     H41768   5.215   5.042   6.687  0.6910  1.1089  1.0386
  303MOL0     H41769   5.109   5.050   6.824  1.9423  4.5174 -1.9698
  303MOL0     H41770   5.124   4.834   6.864  0.3536 -1.7151  0.3420
  303MOL0     H41771   5.068   4.791   6.699  0.2036  0.1154 -2.9116
  303MOL0     H41772   5.279   4.606   6.563  1.4655  0.4544 -0.4662
  303MOL0     H41773   5.321   4.396   6.497 -2.9743 -1.0408  1.7806
  303MOL0     H41774   5.340   4.270   6.621 -0.4021 -0.7619 -3.0778
  303MOL0     H41775   5.483   4.357   6.543  1.0497  1.6032 -0.4543
  303MOL0     H41776   5.621   4.067   6.934 -0.2928  0.9326 -0.8670
  303MOL0     H41777   5.776   3.887   6.935 -2.8570  1.4618  0.9616
  303MOL0     H41778   6.016   3.736   6.887 -0.4040 -0.4964  0.7706
  303MOL0     H41779   5.848   3.707   6.898 -0.2742  2.4285 -1.3742
  303MOL0     H41780   6.032   3.548   6.703  0.6625  0.7364  0.2678
  303MOL0     H41781   6.008   3.510   6.870  2.6747  2.4687  0.5893
  303MOL0     H41782   5.772   3.478   6.849  6.3778  1.0948  3.8729
  303MOL0     H41783   5.874   3.385   6.737 -0.6945 -1.2446 -0.0494
  303MOL0     H41784   5.675   3.620   6.682  3.2993  2.5999  1.2704
  303MOL0     H41785   5.666   3.441   6.622  2.2009 -2.9724  4.1364
  303MOL0     H41786   5.823   3.674   6.527 -1.0152  0.0715 -3.9498
  303MOL0     H41787   5.892   3.519   6.486 -0.1795 -0.5921 -1.9808
  303MOL0     H41788   5.617   3.627   6.411 -0.3832 -0.4980  0.8451
  303MOL0     H41789   5.669   3.467   6.375 -0.1611  0.6225 -2.3414
  303MOL0     H41790   5.857   3.537   6.221 -1.1010 -0.3594 -1.0415
  303MOL0     H41791   5.855   3.701   6.289 -0.2536  0.3626 -0.9892
  303MOL0     H41792   5.758   3.727   6.080 -3.3607  4.7234 -0.2835
  303MOL0     H41793   5.651   3.770   6.207  1.5464  0.2391  1.5119
  303MOL0     H41794   5.831   3.935   6.515 -1.4867 -0.8228  0.2576
  303MOL0     H41795   5.701   4.125   6.504 -1.0320 -0.1065  0.0538
  303MOL0     H41796   5.460   4.501   7.008  2.1338 -1.5867 -0.4287
  303MOL0     H41797   5.339   4.738   6.954 -2.3993  1.8230 -2.8784
  303MOL0     H41798   4.724   4.223   6.739 -0.5000  0.6418 -4.2800
  303MOL0     H41799   4.494   4.251   6.623 -2.1043 -0.9959  1.0697
  303MOL0     H41800   4.149   3.931   6.345  0.7275  0.9070 -1.8492
  303MOL0     H41801   3.905   4.007   6.312  0.6409 -0.4508  0.9171
  303MOL0     H41802   3.845   4.427   6.444  2.7507 -0.9383 -1.8404
  303MOL0     H41803   3.764   4.445   6.286 -0.7546  1.7491  1.2382
  303MOL0     H41804   3.600   4.497   6.428  3.4162  1.0012 -1.9745
  303MOL0     H41805   3.618   4.360   6.527 -2.1789 -0.7250 -0.9412
  303MOL0     H41806   3.435   4.368   6.332  1.0432  1.1504  0.2192
  303MOL0     H41807   3.560   4.327   6.226 -2.0561  3.0029 -0.0619
  303MOL0     H41808   3.423   4.144   6.410  1.4481 -0.7020  2.2895
  303MOL0     H41809   3.599   4.104   6.374  0.9753  0.4147  1.1106
  303MOL0     H41810   3.379   3.984   6.037 -1.1039 -0.2697  0.6806
  303MOL0     H41811   4.044   4.409   6.402  2.5459  0.2636 -1.1656
  303MOL0     H41812   4.267   4.465   6.439  1.8090 -0.1012  0.0757
  303MOL0     H41813   4.280   4.355   6.571 -0.2933  3.2937  0.5017
  303MOL0     H41814   4.397   4.350   6.427 -0.2663 -0.2918 -1.1929
  304MOL0     O41815   9.604   1.978   6.947 -0.3635  0.2356  1.1699
  304MOL0     C41816   9.621   2.041   7.049  0.1474  0.6074  0.3707
  304MOL0     O41817   9.734   2.108   7.090 -0.8674  0.1285 -0.2495
  304MOL0     C41818   9.830   2.137   6.998  1.1243  0.1524 -0.6517
  304MOL0     C41819   9.906   2.047   6.934 -0.6638 -0.1830 -0.3655
  304MOL0     C41820   9.984   2.091   6.831 -0.5285 -0.0730 -0.2625
  304MOL0     C41821   9.996   2.227   6.800 -0.6733 -0.0389 -0.1288
  304MOL0     O41822  10.090   2.273   6.709 -0.3302  1.0256  0.4922
  304MOL0     C41823  10.189   2.182   6.653  0.7923  0.7492  0.8963
  304MOL0     C41824  10.308   2.261   6.591  0.9588  0.3869 -0.6783
  304MOL0     C41825  10.427   2.265   6.684 -0.0621  0.2097  1.0511
  304MOL0     C41826  10.422   2.378   6.779 -0.2570  0.1629 -1.1913
  304MOL0     C41827  10.548   2.365   6.872 -0.6704 -0.0786 -0.6478
  304MOL0     C41828  10.585   2.493   6.940  0.3977 -0.9426 -1.3995
  304MOL0     C41829  10.654   2.601   6.858  0.4447 -0.2313 -0.3830
  304MOL0     C41830  10.776   2.661   6.928 -1.5608  0.5841 -0.0509
  304MOL0     N41831  10.840   2.767   6.841 -0.2842 -0.0014 -0.4212
  304MOL0     C41832  10.971   2.805   6.845 -0.1930  0.4748 -0.1394
  304MOL0     C41833  10.970   2.937   6.811  0.2893 -0.2931  0.2206
  304MOL0     C41834  11.092   3.034   6.826  0.5599 -0.4383  0.9578
  304MOL0     C41835  11.231   2.969   6.840  0.3016 -0.4855  0.8549
  304MOL0     C41836  11.296   2.906   6.723  0.3352 -0.5466  0.6383
  304MOL0     C41837  11.276   2.973   6.586  0.2503 -0.5324 -0.4609
  304MOL0     O41838  11.356   2.905   6.487  0.5794  0.5667  0.6853
  304MOL0     C41839  11.472   2.967   6.443  0.1895  0.2327  0.1691
  304MOL0     C41840  11.535   3.073   6.508  0.2280  0.3518 -0.2744
  304MOL0     C41841  11.656   3.122   6.465 -0.3066 -0.3210  0.0873
  304MOL0     C41842  11.720   3.233   6.544 -0.4983  1.1418  0.2973
  304MOL0     C41843  11.731   3.065   6.360 -0.3078  0.2513  0.3587
  304MOL0     C41844  11.854   3.117   6.288  0.1064 -0.3993 -0.3412
  304MOL0     O41845  11.869   3.070   6.164  0.1459 -0.8867  0.8811
  304MOL0     C41846  11.996   3.062   6.122  0.9142  0.9051 -0.6034
  304MOL0     C41847  12.078   3.170   6.096 -0.2329 -0.0331  0.5240
  304MOL0     C41848  12.209   3.161   6.056 -0.2574  1.2591 -0.0040
  304MOL0     C41849  12.261   3.032   6.036  0.9976  0.3446 -1.2831
  304MOL0     O41850  12.392   3.001   6.015 -0.4679 -0.0495  0.0262
  304MOL0     C41851  12.483   3.101   5.971  0.5608 -0.9461 -0.8695
  304MOL0     C41852  12.623   3.050   5.956 -0.8532 -0.2653 -0.2515
  304MOL0     C41853  12.675   3.012   6.089 -0.5902  0.5972 -0.2878
  304MOL0     C41854  12.824   2.976   6.074 -0.2630 -0.6428  0.2165
  304MOL0     C41855  12.894   2.961   6.217 -0.3040  0.2785 -0.7454
  304MOL0     C41856  13.039   2.925   6.213 -0.4116  0.1379 -0.3132
  304MOL0     C41857  13.099   2.941   6.355 -0.0525 -0.2435 -0.8738
  304MOL0     C41858  13.218   2.853   6.369  0.3596  0.0568  0.4521
  304MOL0    Cl41859  13.297   2.902   6.514 -0.5108 -0.5985 -0.1722
  304MOL0     C41860  12.178   2.915   6.068  0.7698 -0.4148 -0.4097
  304MOL0     C41861  12.054   2.931   6.117  0.2099 -0.1909  0.6153
  304MOL0     O41862  11.936   3.185   6.351  0.1990 -0.5941  1.0057
  304MOL0     C41863  11.667   2.952   6.299  0.0952 -0.0546  0.9630
  304MOL0     C41864  11.547   2.895   6.347  0.3857 -1.4788 -0.3416
  304MOL0     N41865  10.837   2.973   6.781 -0.6314  0.4105  0.9895
  304MOL0     N41866  10.761   2.871   6.800  0.2182  0.1598  0.2240
  304MOL0     C41867   9.920   2.318   6.862  0.5702 -0.1615  0.7315
  304MOL0     C41868   9.827   2.278   6.961  0.4042  0.1270 -0.4825
  304MOL0     C41869   9.511   2.051   7.146 -0.5384  0.3885  0.0939
  304MOL0     C41870   9.522   2.171   7.223  0.6632  0.0384  0.1778
  304MOL0     C41871   9.423   2.195   7.312 -0.9807  0.6298 -0.7326
  304MOL0     C41872   9.338   2.091   7.354 -0.5450 -0.0513  0.4329
  304MOL0     O41873   9.248   2.113   7.461 -0.2607  0.2080 -0.5974
  304MOL0     C41874   9.304   2.058   7.581 -0.1625  0.1922  0.2047
  304MOL0     C41875   9.264   2.159   7.692  0.6994  0.8538  0.6228
  304MOL0     C41876   9.266   2.301   7.666  0.4502 -1.6884  0.6405
  304MOL0     C41877   9.224   2.387   7.783 -0.1651  0.1048  0.3716
  304MOL0     C41878   9.143   2.506   7.744 -1.0021  1.3194  0.3354
  304MOL0     C41879   9.099   2.608   7.716  0.3043 -0.9932 -0.1160
  304MOL0     C41880   9.336   1.968   7.289 -0.2834  0.3524 -0.8425
  304MOL0     C41881   9.417   1.948   7.178 -0.5106  0.5686 -0.5760
  304MOL0     C41882   9.401   1.815   7.105  0.2821 -1.0156  0.1114
  304MOL0     H41883   9.905   1.942   6.961 -1.0956 -0.3879 -1.1713
  304MOL0     H41884  10.041   2.024   6.768  0.0689  1.6551 -1.6757
  304MOL0     H41885  10.148   2.116   6.575  0.6375  0.6836  1.0320
  304MOL0     H41886  10.217   2.114   6.734 -2.3364 -0.1323  1.3754
  304MOL0     H41887  10.334   2.196   6.508  2.0495 -2.5566  1.7534
  304MOL0     H41888  10.272   2.356   6.553  0.0803  0.3505  0.0206
  304MOL0     H41889  10.445   2.162   6.719  0.4916 -0.2942 -0.6138
  304MOL0     H41890  10.508   2.283   6.612 -1.6258 -1.1721 -1.1949
  304MOL0     H41891  10.425   2.470   6.720  0.7678  2.0791  1.6430
  304MOL0     H41892  10.328   2.367   6.834  0.8738  2.0156  1.3189
  304MOL0     H41893  10.621   2.323   6.802 -0.1585 -1.0468  0.4351
  304MOL0     H41894  10.525   2.300   6.957 -0.5413  2.9488  1.8665
  304MOL0     H41895  10.489   2.535   6.972  2.2165  0.8971  2.3620
  304MOL0     H41896  10.653   2.475   7.024  2.3074  0.5964 -2.5398
  304MOL0     H41897  10.597   2.682   6.813 -1.3004 -1.7839 -1.0703
  304MOL0     H41898  10.678   2.556   6.762  0.7434 -1.5494  0.2882
  304MOL0     H41899  10.753   2.709   7.023 -2.6181  0.6333 -0.3084
  304MOL0     H41900  10.843   2.577   6.946 -2.2493  0.1841  0.6797
  304MOL0     H41901  11.051   2.752   6.897  1.9123  0.4541 -3.1259
  304MOL0     H41902  11.094   3.086   6.923 -0.9322  0.9120  0.3146
  304MOL0     H41903  11.087   3.112   6.749  0.3376 -2.8680 -1.6378
  304MOL0     H41904  11.306   3.038   6.880  2.0092  0.5127 -3.5099
  304MOL0     H41905  11.227   2.894   6.919 -0.1044 -0.8494  0.4950
  304MOL0     H41906  11.405   2.912   6.729  0.3690  2.1910 -0.9212
  304MOL0     H41907  11.279   2.798   6.721 -1.0321 -0.3809 -2.0874
  304MOL0     H41908  11.169   2.957   6.567  0.2566 -0.3124 -0.6755
  304MOL0     H41909  11.291   3.080   6.600  0.4962 -0.6712  0.4576
  304MOL0     H41910  11.485   3.129   6.587 -1.0845 -1.6981  0.4194
  304MOL0     H41911  11.790   3.179   6.608  2.0204 -1.0208 -3.8695
  304MOL0     H41912  11.644   3.279   6.609 -1.0032 -0.4749  0.9153
  304MOL0     H41913  11.762   3.315   6.485  0.8264 -0.4903 -1.1324
  304MOL0     H41914  12.029   3.261   6.128 -3.0136 -0.7988 -1.2197
  304MOL0     H41915  12.268   3.252   6.049  1.0816  0.3895 -0.3511
  304MOL0     H41916  12.447   3.149   5.879 -0.1787  1.0981  0.4088
  304MOL0     H41917  12.489   3.184   6.042 -0.1027 -0.7647 -1.0177
  304MOL0     H41918  12.629   2.962   5.892  3.9525 -0.8703  0.6724
  304MOL0     H41919  12.687   3.124   5.907  1.0380 -0.3379  1.9572
  304MOL0     H41920  12.612   2.938   6.139 -1.9096  2.4386  0.8633
  304MOL0     H41921  12.679   3.090   6.165  0.4720 -0.6489  1.0010
  304MOL0     H41922  12.884   3.053   6.026 -0.7031 -1.5469 -1.9129
  304MOL0     H41923  12.824   2.880   6.022 -0.8173 -0.5739  0.0849
  304MOL0     H41924  12.871   3.055   6.269 -1.8161 -1.6753  2.3964
  304MOL0     H41925  12.840   2.883   6.272  0.5809 -0.2274 -0.5846
  304MOL0     H41926  13.088   2.999   6.149 -0.0216 -0.8704 -1.2090
  304MOL0     H41927  13.033   2.823   6.175 -2.5713 -0.6553  1.9235
  304MOL0     H41928  13.031   2.908   6.434  2.1227  1.1018  1.7364
  304MOL0     H41929  13.118   3.046   6.376 -2.7961  0.2782 -0.6573
  304MOL0     H41930  13.281   2.878   6.283  0.0668  1.9774  0.7381
  304MOL0     H41931  13.204   2.745   6.375  2.5782 -0.2128  1.6582
  304MOL0     H41932  12.215   2.813   6.060 -0.9720 -1.3270  1.9331
  304MOL0     H41933  11.998   2.843   6.146  2.5887 -1.0151  3.0910
  304MOL0     H41934  11.700   2.901   6.210 -2.8063  1.2336 -1.0150
  304MOL0     H41935  11.502   2.807   6.303 -0.1228 -2.4860  2.0676
  304MOL0     H41936   9.920   2.420   6.826 -6.7947 -0.3992 -1.7048
  304MOL0     H41937   9.766   2.357   7.004  0.0128 -1.0067  1.1303
  304MOL0     H41938   9.602   2.239   7.192  1.4523 -1.4604 -1.2096
  304MOL0     H41939   9.422   2.297   7.350 -2.5944  0.3121  0.1657
  304MOL0     H41940   9.254   1.963   7.600 -0.5723 -0.0479 -1.9107
  304MOL0     H41941   9.412   2.046   7.575 -0.4474 -2.0507 -1.8533
  304MOL0     H41942   9.330   2.128   7.773  0.1799 -0.8560  0.4337
  304MOL0     H41943   9.167   2.120   7.726 -0.6157  0.3880 -3.1533
  304MOL0     H41944   9.364   2.338   7.635 -0.8543  0.7952 -0.7763
  304MOL0     H41945   9.201   2.312   7.579  3.1640 -0.3207 -1.3399
  304MOL0     H41946   9.324   2.414   7.819  0.8721 -2.4172 -0.3423
  304MOL0     H41947   9.171   2.329   7.860 -2.9100  2.1212  0.1617
  304MOL0     H41948   9.044   2.699   7.700 -0.0690 -1.7796 -4.3845
  304MOL0     H41949   9.257   1.898   7.315 -2.3109  2.3080 -1.4367
  304MOL0     H41950   9.306   1.814   7.050  0.9850 -3.4046 -1.1702
  304MOL0     H41951   9.482   1.795   7.034  0.0826  0.9501 -0.7535
  304MOL0     H41952   9.397   1.728   7.171  1.5651 -1.7120 -0.6910
  305MOL0     O41953   9.506   3.436  10.541  0.0489  0.6529 -0.1840
  305MOL0     C41954   9.480   3.323  10.579 -0.3933 -0.5614 -0.4924
  305MOL0     O41955   9.402   3.226  10.516  0.5019 -0.3474  0.1040
  305MOL0     C41956   9.352   3.277  10.395 -0.8688  0.0314 -0.2366
  305MOL0     C41957   9.208   3.297  10.391 -1.0317 -0.8096  0.1115
  305MOL0     C41958   9.150   3.327  10.268  1.0198  0.9729 -1.0384
  305MOL0     C41959   9.228   3.356  10.155  0.2656  1.2909 -1.5925
  305MOL0     O41960   9.170   3.398  10.044  0.1840  0.3468  0.0470
  305MOL0     C41961   9.135   3.533  10.027 -0.0460  0.0151  0.8139
  305MOL0     C41962   9.191   3.588   9.896  0.2346  0.0854  0.0764
  305MOL0     C41963   9.348   3.596   9.884  0.0497 -0.9924  0.5517
  305MOL0     C41964   9.406   3.688   9.986 -0.4356 -0.7109 -0.9316
  305MOL0     C41965   9.557   3.717   9.960 -0.0310 -0.3071 -0.2200
  305MOL0     C41966   9.656   3.757  10.070 -0.1228  0.8614 -0.3180
  305MOL0     C41967   9.688   3.648  10.171  0.3006  0.4666 -0.7853
  305MOL0     C41968   9.776   3.699  10.294  0.1382 -0.0883 -0.0138
  305MOL0     N41969   9.690   3.790  10.379  0.7047  0.2283 -0.6481
  305MOL0     C41970   9.604   3.742  10.478 -0.5307  0.5743 -1.1327
  305MOL0     C41971   9.556   3.852  10.540 -0.4454 -0.4094 -1.3170
  305MOL0     C41972   9.464   3.854  10.649 -0.7228 -0.1002 -0.6270
  305MOL0     C41973   9.329   3.789  10.622  0.0278 -0.0312 -0.7370
  305MOL0     C41974   9.238   3.865  10.526 -0.2130  0.2671 -0.1910
  305MOL0     C41975   9.253   3.810  10.383 -0.6902 -0.4528  1.2559
  305MOL0     O41976   9.166   3.891  10.303  0.0770  0.1444  0.2198
  305MOL0     C41977   9.226   3.960  10.201  0.4221 -0.9167  0.2391
  305MOL0     C41978   9.158   3.956  10.081  0.3098 -1.0013  0.2664
  305MOL0     C41979   9.203   4.030   9.970  0.1795 -0.1236 -1.1689
  305MOL0     C41980   9.133   4.007   9.837  0.3212  0.3287  0.3561
  305MOL0     C41981   9.334   4.093   9.971  1.2574  0.4398  0.0569
  305MOL0     C41982   9.415   4.128   9.852 -0.2359  0.4584  1.0391
  305MOL0     O41983   9.502   4.229   9.874  0.5438 -0.3343  0.2281
  305MOL0     C41984   9.585   4.273   9.776  0.0678  0.6528 -0.7262
  305MOL0     C41985   9.690   4.199   9.726 -0.5905 -0.1732 -0.8103
  305MOL0     C41986   9.768   4.249   9.626 -0.8160 -0.6655  0.3567
  305MOL0     C41987   9.738   4.384   9.574 -0.4737 -0.5988  0.2721
  305MOL0     O41988   9.822   4.425   9.474 -0.0107 -0.6922 -0.0445
  305MOL0     C41989   9.807   4.548   9.405  0.6383 -0.1313 -0.2663
  305MOL0     C41990   9.930   4.576   9.329 -0.7381  0.1199  0.7479
  305MOL0     C41991   9.947   4.486   9.195 -0.0949  0.0491 -0.1745
  305MOL0     C41992   9.847   4.543   9.090  0.3579  0.1662 -0.2781
  305MOL0     C41993   9.849   4.464   8.954  0.3623 -0.6681 -0.7309
  305MOL0     C41994   9.724   4.488   8.862 -0.2532  0.1350 -0.3108
  305MOL0     C41995   9.712   4.388   8.750 -0.3026  0.2872  0.4433
  305MOL0     C41996   9.589   4.401   8.657  0.5685  0.1473 -0.0341
  305MOL0    Cl41997   9.443   4.349   8.748 -0.1615 -0.1454 -0.3127
  305MOL0     C41998   9.632   4.455   9.629  0.0598  0.2422 -0.3377
  305MOL0     C41999   9.554   4.394   9.727 -0.5745  0.0434 -0.4473
  305MOL0     O42000   9.416   4.056   9.752 -0.1858  0.2495 -0.4959
  305MOL0     C42001   9.392   4.104  10.102  0.1069  0.1769 -0.7523
  305MOL0     C42002   9.346   4.029  10.213  0.0880 -1.4091 -0.0583
  305MOL0     N42003   9.605   3.963  10.473  0.1329 -0.2333  0.1149
  305MOL0     N42004   9.684   3.922  10.383 -0.4416  0.0477 -0.0714
  305MOL0     C42005   9.364   3.337  10.163 -0.1674  0.6884  0.7977
  305MOL0     C42006   9.431   3.288  10.281 -0.0564  0.1538 -1.0889
  305MOL0     C42007   9.529   3.292  10.721  0.4176  0.1087  0.9837
  305MOL0     C42008   9.479   3.167  10.774 -0.2208 -0.6285 -0.1142
  305MOL0     C42009   9.507   3.139  10.911 -0.2470  0.4386 -0.0125
  305MOL0     C42010   9.588   3.215  10.997  0.5005  0.9003 -0.3061
  305MOL0     O42011   9.623   3.177  11.129  0.5295  0.3930  0.4755
  305MOL0     C42012   9.671   3.034  11.149 -0.0433  0.1427 -0.0588
  305MOL0     C42013   9.702   3.020  11.301  0.0714  0.3325  0.1405
  305MOL0     C42014   9.591   3.068  11.403 -0.2745  0.2957 -0.3146
  305MOL0     C42015   9.640   3.043  11.549 -0.6272  0.2968 -1.0798
  305MOL0     C42016   9.534   3.066  11.653 -0.7888  0.4007  0.0298
  305MOL0     C42017   9.443   3.056  11.730 -0.7077  0.1532  0.9674
  305MOL0     C42018   9.635   3.326  10.939  0.5729 -0.2821  0.5239
  305MOL0     C42019   9.607   3.369  10.806  0.4524  0.2459  0.3296
  305MOL0     C42020   9.670   3.492  10.752  0.9549  0.7928  0.4065
  305MOL0     H42021   9.137   3.271  10.469 -2.7638 -0.6374 -1.3431
  305MOL0     H42022   9.042   3.341  10.264  0.4224 -2.2420  0.4851
  305MOL0     H42023   9.167   3.591  10.114  2.0367 -2.0981  1.5639
  305MOL0     H42024   9.026   3.535  10.014 -0.0155  1.7319  0.6067
  305MOL0     H42025   9.160   3.519   9.817  1.8178 -0.8417  0.2402
  305MOL0     H42026   9.145   3.685   9.876  0.1579 -0.2619 -1.5051
  305MOL0     H42027   9.403   3.502   9.889  1.1028 -0.5618 -1.5093
  305MOL0     H42028   9.362   3.642   9.785 -3.5262  1.1215  0.8666
  305MOL0     H42029   9.349   3.780   9.972 -1.3254 -1.4605 -2.5211
  305MOL0     H42030   9.390   3.651  10.088  1.5052 -1.0825 -0.7288
  305MOL0     H42031   9.568   3.785   9.875  0.7328  0.3032  0.3504
  305MOL0     H42032   9.611   3.632   9.917  4.5773  3.2052 -2.3500
  305MOL0     H42033   9.747   3.792  10.019  0.6891 -0.6773 -0.0079
  305MOL0     H42034   9.605   3.841  10.117 -2.1191  0.7250 -2.0859
  305MOL0     H42035   9.739   3.567  10.119  1.0888 -1.2510  2.3918
  305MOL0     H42036   9.599   3.610  10.223  0.3810  1.6151  0.2459
  305MOL0     H42037   9.810   3.610  10.348  0.0837  0.2436  0.5828
  305MOL0     H42038   9.873   3.736  10.262  0.3272 -1.6070 -1.2856
  305MOL0     H42039   9.585   3.637  10.501 -2.0190  1.2910  1.2366
  305MOL0     H42040   9.443   3.960  10.665 -1.2579 -0.2310 -0.4619
  305MOL0     H42041   9.507   3.798  10.732 -0.7649  0.8267  0.0212
  305MOL0     H42042   9.341   3.684  10.593 -0.1344 -0.3602  0.3538
  305MOL0     H42043   9.274   3.781  10.716  0.1595  1.2191 -0.5447
  305MOL0     H42044   9.134   3.872  10.561 -1.4548  1.3487 -3.6431
  305MOL0     H42045   9.271   3.969  10.530 -1.9896  0.8294  3.0515
  305MOL0     H42046   9.354   3.791  10.347 -0.6543 -0.9072  1.5868
  305MOL0     H42047   9.205   3.712  10.376 -2.4014  0.4052  0.3860
  305MOL0     H42048   9.065   3.900  10.091  1.5098 -3.0467  0.6092
  305MOL0     H42049   9.180   3.919   9.793 -1.8927 -1.4880  1.3621
  305MOL0     H42050   9.138   4.085   9.761 -0.9499 -1.5193 -1.7841
  305MOL0     H42051   9.026   3.986   9.848  0.3503 -0.3219 -0.5208
  305MOL0     H42052   9.710   4.096   9.754  2.8306  0.7371  0.5986
  305MOL0     H42053   9.858   4.196   9.595  1.2059  2.5633  0.3002
  305MOL0     H42054   9.723   4.547   9.335 -1.9981 -0.5257  2.6899
  305MOL0     H42055   9.788   4.639   9.463 -1.6811  1.3332 -3.0606
  305MOL0     H42056   9.940   4.679   9.295 -0.5759  0.2573  1.2083
  305MOL0     H42057  10.008   4.563   9.404 -1.0173  0.2839  1.0664
  305MOL0     H42058   9.914   4.385   9.222  0.1923  0.4675  1.9904
  305MOL0     H42059  10.053   4.501   9.174 -0.1744  1.7140  0.4631
  305MOL0     H42060   9.872   4.649   9.077  1.8894  0.0561  1.3531
  305MOL0     H42061   9.744   4.539   9.128 -0.8767  1.1726 -3.2044
  305MOL0     H42062   9.948   4.489   8.915  0.6541 -0.4480  0.1357
  305MOL0     H42063   9.850   4.355   8.967 -3.3273 -0.5883  1.6208
  305MOL0     H42064   9.749   4.590   8.830  3.4856  0.0578  1.8608
  305MOL0     H42065   9.628   4.487   8.914  0.0681  2.5119  0.4503
  305MOL0     H42066   9.729   4.285   8.781 -0.1311  0.8932  2.5096
  305MOL0     H42067   9.799   4.407   8.686 -1.2453 -1.5387 -1.5259
  305MOL0     H42068   9.610   4.315   8.593  1.7258 -1.7545  2.6961
  305MOL0     H42069   9.574   4.504   8.623 -1.6592  0.3402  1.3116
  305MOL0     H42070   9.616   4.554   9.589  2.4051  0.3325 -1.2176
  305MOL0     H42071   9.470   4.447   9.769  0.8433  1.7541  0.3777
  305MOL0     H42072   9.471   4.177  10.115  1.0073 -1.1278  1.6061
  305MOL0     H42073   9.393   4.044  10.309  0.8518 -0.2170 -0.5802
  305MOL0     H42074   9.425   3.341  10.074  0.9920 -0.7171  1.4685
  305MOL0     H42075   9.532   3.249  10.271 -0.4996 -1.0655 -0.9318
  305MOL0     H42076   9.427   3.091  10.717 -1.5722 -0.2014  0.4891
  305MOL0     H42077   9.477   3.044  10.953  0.6142 -0.1833 -0.7688
  305MOL0     H42078   9.589   2.967  11.120 -0.9266  0.8200  0.7920
  305MOL0     H42079   9.765   3.009  11.099  0.6133 -0.2490  1.3282
  305MOL0     H42080   9.787   3.088  11.314  0.6169 -0.4259  0.6108
  305MOL0     H42081   9.732   2.916  11.319  1.6001  0.3956 -1.6817
  305MOL0     H42082   9.563   3.172  11.388 -1.4424 -0.0746 -0.7702
  305MOL0     H42083   9.513   2.998  11.373 -1.1611 -0.2136  2.8132
  305MOL0     H42084   9.730   3.097  11.582  0.1207  0.3740 -3.0813
  305MOL0     H42085   9.666   2.937  11.556  2.6948  1.1260  1.7651
  305MOL0     H42086   9.380   3.032  11.812 -0.9143 -0.1960  0.7120
  305MOL0     H42087   9.684   3.390  11.011  0.2729 -1.5329  1.8717
  305MOL0     H42088   9.589   3.564  10.737 -3.0729 -3.3350 -0.3674
  305MOL0     H42089   9.738   3.535  10.825  1.6229  2.4968 -1.1561
  305MOL0     H42090   9.728   3.464  10.664 -2.5591  1.3918 -2.3373
  306MOL0     O42091   8.307   5.154   7.285 -0.8279  0.0757  0.7485
  306MOL0     C42092   8.430   5.144   7.290  1.0546  0.2168 -0.1189
  306MOL0     O42093   8.524   5.236   7.328 -0.2457 -0.8304  1.2941
  306MOL0     C42094   8.502   5.349   7.385  0.4290  0.0255 -0.1736
  306MOL0     C42095   8.380   5.430   7.371  0.3134  1.3252 -0.5364
  306MOL0     C42096   8.376   5.553   7.445  0.0536 -0.2916  0.7581
  306MOL0     C42097   8.487   5.593   7.511 -1.6538  0.0230 -0.1785
  306MOL0     O42098   8.474   5.716   7.575  0.0781  0.2997  0.1024
  306MOL0     C42099   8.591   5.778   7.624  0.0237 -0.2750  0.7677
  306MOL0     C42100   8.553   5.929   7.661 -0.0973  0.0403  0.1132
  306MOL0     C42101   8.416   5.937   7.743  0.2169  1.0964  0.3443
  306MOL0     C42102   8.370   6.083   7.719  0.3644 -0.7540  0.9559
  306MOL0     C42103   8.266   6.130   7.829  0.0374 -0.6135 -0.4437
  306MOL0     C42104   8.321   6.207   7.953 -0.7596  0.7166 -0.4852
  306MOL0     C42105   8.372   6.346   7.915  0.5845 -0.0974  0.5423
  306MOL0     C42106   8.482   6.413   8.007 -1.0806  0.5872 -0.6166
  306MOL0     N42107   8.455   6.405   8.151 -0.1795  0.0056 -0.1736
  306MOL0     C42108   8.331   6.409   8.200  0.8061  0.3439  0.4950
  306MOL0     C42109   8.335   6.353   8.322  0.3496 -0.4769 -0.4469
  306MOL0     C42110   8.216   6.344   8.409 -0.1498 -0.4497 -0.3697
  306MOL0     C42111   8.178   6.477   8.480  0.1860  0.0839 -1.1306
  306MOL0     C42112   8.111   6.456   8.617  0.0985 -0.1946  0.5248
  306MOL0     C42113   8.059   6.583   8.681 -0.2428  0.6443 -0.0758
  306MOL0     O42114   8.050   6.585   8.830 -0.0557  0.3127 -0.3821
  306MOL0     C42115   7.969   6.674   8.896  0.1106  0.6690  0.7830
  306MOL0     C42116   7.928   6.644   9.024 -0.0865  0.0794  0.5290
  306MOL0     C42117   7.815   6.709   9.078 -1.1156 -0.0557 -0.3307
  306MOL0     C42118   7.791   6.671   9.222  0.2512 -0.8145 -0.9999
  306MOL0     C42119   7.759   6.818   9.012  0.5995 -0.6070 -0.7435
  306MOL0     C42120   7.649   6.897   9.058  0.6163  0.3233  0.2113
  306MOL0     O42121   7.596   6.996   8.970  1.1281  0.7788  0.5112
  306MOL0     C42122   7.461   7.034   8.987 -0.6011 -1.2906 -0.0531
  306MOL0     C42123   7.430   7.174   8.976  0.2019  0.1265 -0.7827
  306MOL0     C42124   7.305   7.223   9.009 -0.3938 -0.1479  0.2265
  306MOL0     C42125   7.204   7.129   9.052 -0.3641 -1.1551  0.1665
  306MOL0     O42126   7.073   7.172   9.069 -0.2564 -0.8338  0.2907
  306MOL0     C42127   6.991   7.106   8.969 -0.2508 -0.4334  0.0854
  306MOL0     C42128   6.850   7.168   8.967 -0.2989  0.2737  0.0998
  306MOL0     C42129   6.750   7.059   9.008 -0.8006 -0.0750 -0.8613
  306MOL0     C42130   6.617   7.112   9.052 -0.5389  0.0965  0.6317
  306MOL0     C42131   6.622   7.183   9.182  0.0094  0.7373 -0.4702
  306MOL0     C42132   6.491   7.268   9.194 -0.6540 -0.3220 -0.3882
  306MOL0     C42133   6.470   7.318   9.340  0.0741 -0.2645  1.2913
  306MOL0     C42134   6.322   7.345   9.355 -0.4846 -0.3069  0.0576
  306MOL0    Cl42135   6.264   7.511   9.317  0.2868  0.4825 -0.0263
  306MOL0     C42136   7.233   6.991   9.049  0.7677  0.6139  0.3273
  306MOL0     C42137   7.363   6.944   9.028 -0.5097 -0.1433  0.5868
  306MOL0     O42138   7.607   6.881   9.173  0.6012  0.0217 -0.1734
  306MOL0     C42139   7.830   6.866   8.895  0.0920 -0.4335 -0.6530
  306MOL0     C42140   7.923   6.781   8.834 -0.2827  0.3516  0.3593
  306MOL0     N42141   8.459   6.311   8.349  0.5419  0.2742  0.2968
  306MOL0     N42142   8.527   6.350   8.244 -0.3679  0.4189 -0.2252
  306MOL0     C42143   8.612   5.524   7.516 -0.4050  0.3005 -0.2365
  306MOL0     C42144   8.614   5.409   7.447 -0.3946  0.2312 -0.4595
  306MOL0     C42145   8.492   5.022   7.239  0.2765 -0.4290  0.8693
  306MOL0     C42146   8.612   5.043   7.171  0.4867 -0.2394 -0.1562
  306MOL0     C42147   8.681   4.942   7.104  0.8139  0.0549 -0.6085
  306MOL0     C42148   8.616   4.815   7.093 -0.5910  0.0971  0.0811
  306MOL0     O42149   8.661   4.703   7.032 -0.4594 -1.5486 -0.1256
  306MOL0     C42150   8.774   4.708   6.942 -0.0203  0.5598 -0.1942
  306MOL0     C42151   8.764   4.743   6.790  0.4449  0.3634 -0.5075
  306MOL0     C42152   8.734   4.898   6.767 -0.1655  0.2665  1.1837
  306MOL0     C42153   8.742   4.958   6.626 -0.0789 -0.8238  0.3114
  306MOL0     C42154   8.880   4.932   6.568  0.0224 -0.8391  1.1183
  306MOL0     C42155   8.994   4.917   6.534  0.3932  0.3266 -0.1210
  306MOL0     C42156   8.503   4.793   7.168  0.1624  0.3645 -0.0656
  306MOL0     C42157   8.440   4.893   7.234 -0.6692 -0.1217 -0.4086
  306MOL0     C42158   8.304   4.861   7.294 -0.2316  0.1274 -0.0753
  306MOL0     H42159   8.290   5.404   7.316  2.3671 -2.4427 -2.4841
  306MOL0     H42160   8.285   5.612   7.433  0.7621  0.4791 -1.2274
  306MOL0     H42161   8.673   5.768   7.553 -2.3394 -1.8231 -1.9378
  306MOL0     H42162   8.623   5.724   7.713  1.3672 -3.1092 -1.3029
  306MOL0     H42163   8.632   5.975   7.721  1.2430 -0.0870 -1.4724
  306MOL0     H42164   8.537   5.983   7.567  0.3632 -2.5969 -1.6093
  306MOL0     H42165   8.341   5.861   7.718 -2.1810  3.3655  0.1504
  306MOL0     H42166   8.441   5.925   7.849  1.9575 -0.1365 -0.1616
  306MOL0     H42167   8.454   6.154   7.722 -0.6443  0.6463 -1.1612
  306MOL0     H42168   8.313   6.087   7.626 -0.9484 -0.4749  1.7557
  306MOL0     H42169   8.200   6.047   7.855 -0.4476 -0.0952 -0.0059
  306MOL0     H42170   8.203   6.207   7.784  0.4534 -1.7980 -3.3179
  306MOL0     H42171   8.237   6.221   8.022 -1.2699  0.8309 -1.1210
  306MOL0     H42172   8.409   6.154   7.988 -1.0734  0.1833 -0.4957
  306MOL0     H42173   8.287   6.413   7.900 -0.3117 -1.6626 -1.9482
  306MOL0     H42174   8.419   6.340   7.817 -3.0684 -0.0126 -1.3623
  306MOL0     H42175   8.567   6.347   7.987 -0.6989  0.8243  0.2181
  306MOL0     H42176   8.507   6.517   7.984 -2.1364  1.3619  1.5358
  306MOL0     H42177   8.250   6.453   8.143  0.3147 -0.5810  0.4602
  306MOL0     H42178   8.247   6.271   8.485  0.1312 -0.2275 -0.2720
  306MOL0     H42179   8.126   6.309   8.356 -1.1757  3.1082 -1.2220
  306MOL0     H42180   8.267   6.539   8.496  0.5282  0.1030 -2.8857
  306MOL0     H42181   8.104   6.525   8.414  2.3689  1.8504 -2.4740
  306MOL0     H42182   8.033   6.379   8.612  0.9989 -1.1106  0.0913
  306MOL0     H42183   8.186   6.402   8.676  0.2552  1.7541  2.1929
  306MOL0     H42184   8.118   6.669   8.649 -1.2903  2.5189  2.6683
  306MOL0     H42185   7.954   6.597   8.653 -1.1239 -0.1278  2.4741
  306MOL0     H42186   7.979   6.569   9.084 -0.4275  2.4020  4.0348
  306MOL0     H42187   7.870   6.612   9.269  1.3906  1.4162  0.0090
  306MOL0     H42188   7.693   6.623   9.223 -1.0093  1.3820  3.4354
  306MOL0     H42189   7.778   6.752   9.293 -3.4875 -2.6157  0.6411
  306MOL0     H42190   7.509   7.236   8.934  0.4532 -0.3003 -0.9487
  306MOL0     H42191   7.299   7.332   9.003 -0.3067  0.0544  2.6146
  306MOL0     H42192   7.038   7.118   8.871  0.0639 -0.6010  0.2151
  306MOL0     H42193   6.980   6.999   8.993  0.2529 -1.0253 -2.1017
  306MOL0     H42194   6.855   7.257   9.030  0.0247  0.5673 -0.3296
  306MOL0     H42195   6.820   7.193   8.865 -0.7076 -0.2114  0.0939
  306MOL0     H42196   6.794   7.023   9.102 -1.4626  1.8753  0.2606
  306MOL0     H42197   6.737   6.983   8.931 -3.3051  0.1101 -0.6803
  306MOL0     H42198   6.551   7.025   9.060 -0.8696 -0.1147 -2.9310
  306MOL0     H42199   6.581   7.178   8.974 -0.2379  1.1403  1.3526
  306MOL0     H42200   6.625   7.107   9.261 -0.8486 -0.6680 -1.7468
  306MOL0     H42201   6.713   7.244   9.190 -0.5704  1.4076  1.5442
  306MOL0     H42202   6.418   7.196   9.155  1.5194 -2.3854 -0.8982
  306MOL0     H42203   6.501   7.354   9.127  1.0781  0.0470  0.2994
  306MOL0     H42204   6.528   7.408   9.362 -0.8651  0.6512  0.1908
  306MOL0     H42205   6.504   7.242   9.410  2.6215  0.0606  0.5048
  306MOL0     H42206   6.319   7.342   9.465 -0.1003  2.1197  0.1824
  306MOL0     H42207   6.251   7.280   9.303 -2.2382  1.7612 -0.2525
  306MOL0     H42208   7.163   6.913   9.077  0.5640  0.5230 -0.4140
  306MOL0     H42209   7.384   6.838   9.037  2.8037  0.2234 -1.2379
  306MOL0     H42210   7.788   6.951   8.842  0.7270 -1.3872 -2.7934
  306MOL0     H42211   7.948   6.796   8.730  0.6300 -2.5524  0.0788
  306MOL0     H42212   8.703   5.542   7.571 -0.4428 -4.2737  1.7943
  306MOL0     H42213   8.708   5.355   7.444  2.2158  4.3893 -0.2911
  306MOL0     H42214   8.666   5.137   7.174  2.6223 -1.3706 -1.3028
  306MOL0     H42215   8.768   4.966   7.044 -1.9307  2.2818 -4.1722
  306MOL0     H42216   8.848   4.779   6.980  0.5254 -0.6641  1.1133
  306MOL0     H42217   8.825   4.611   6.936 -2.0780 -0.5228 -1.6484
  306MOL0     H42218   8.700   4.671   6.738  1.1972  0.0661 -1.0438
  306MOL0     H42219   8.863   4.714   6.754 -0.7680 -2.2161 -2.1210
  306MOL0     H42220   8.634   4.917   6.805 -0.3495  2.6207 -0.2830
  306MOL0     H42221   8.795   4.971   6.820  3.8506  0.1029 -2.5810
  306MOL0     H42222   8.732   5.066   6.634  0.1259 -0.7787 -0.0243
  306MOL0     H42223   8.658   4.910   6.576 -1.4217  0.3808  1.3328
  306MOL0     H42224   9.099   4.897   6.523  0.0685 -0.6609 -1.7597
  306MOL0     H42225   8.458   4.696   7.183 -1.9445  1.2081 -0.5261
  306MOL0     H42226   8.290   4.753   7.288  0.9630 -0.2198  2.1588
  306MOL0     H42227   8.299   4.895   7.399 -0.0686 -1.4571  0.4682
  306MOL0     H42228   8.224   4.913   7.239 -1.2251 -1.0891  0.1781
  307MOL0     O42229   2.403   8.948   8.093 -0.6739  0.0900 -0.0147
  307MOL0     C42230   2.357   8.956   7.980  1.0011  0.6055  0.8866
  307MOL0     O42231   2.343   9.073   7.912 -0.3303 -0.9309  0.5729
  307MOL0     C42232   2.421   9.176   7.955  1.0288 -0.3261  0.3637
  307MOL0     C42233   2.551   9.203   7.922  0.2117  0.6563  0.1787
  307MOL0     C42234   2.615   9.318   7.969 -0.7786 -0.3032 -0.0825
  307MOL0     C42235   2.536   9.418   8.033 -0.4746 -0.5243  0.8044
  307MOL0     O42236   2.576   9.543   8.063 -0.2947 -0.8026 -0.2085
  307MOL0     C42237   2.709   9.595   8.035 -0.7873  1.0126 -0.2791
  307MOL0     C42238   2.703   9.713   7.960  0.9587  0.0792  0.2629
  307MOL0     C42239   2.829   9.754   7.889 -0.2523 -0.9828 -0.1604
  307MOL0     C42240   2.957   9.754   7.978 -0.5096  0.7885 -0.8021
  307MOL0     C42241   3.079   9.761   7.900 -0.9691 -1.1362  0.4258
  307MOL0     C42242   3.107   9.900   7.840 -0.1807 -0.7368 -0.2217
  307MOL0     C42243   3.042   9.933   7.701  0.0476 -0.6005  0.1179
  307MOL0     C42244   3.033   9.819   7.595  0.1136 -0.4211  0.0899
  307MOL0     N42245   3.028   9.874   7.462  0.2692 -0.3370  1.4022
  307MOL0     C42246   2.914   9.895   7.389 -0.4150 -0.3187  0.9899
  307MOL0     C42247   2.964   9.933   7.264  0.1000  0.5342  0.1471
  307MOL0     C42248   2.884   9.980   7.150 -0.1181  0.1268  0.5027
  307MOL0     C42249   2.902  10.123   7.098  0.1790 -0.5399 -0.2558
  307MOL0     C42250   2.894  10.229   7.217 -0.3746  0.3715  0.4804
  307MOL0     C42251   2.819  10.351   7.178  0.0286 -0.1357  0.2601
  307MOL0     O42252   2.874  10.403   7.054  0.5551  0.1302 -0.0981
  307MOL0     C42253   2.815  10.510   6.990  0.6204 -0.3343  0.2647
  307MOL0     C42254   2.712  10.582   7.042  0.3002  0.0257  0.5880
  307MOL0     C42255   2.650  10.687   6.974  0.5115  1.2080 -0.5966
  307MOL0     C42256   2.516  10.737   7.041  0.9159  0.0314  0.0564
  307MOL0     C42257   2.702  10.734   6.853 -0.0062  0.1900  0.6447
  307MOL0     C42258   2.668  10.847   6.762 -0.5415 -0.4782  0.6770
  307MOL0     O42259   2.711  10.848   6.633 -0.0480 -1.3453  0.2313
  307MOL0     C42260   2.682  10.947   6.540 -0.0283  0.8789 -0.8602
  307MOL0     C42261   2.558  10.970   6.494  0.3582  0.1980  0.2788
  307MOL0     C42262   2.532  11.055   6.385 -0.7230 -0.2972  0.1233
  307MOL0     C42263   2.632  11.137   6.328  0.9757  1.3391 -0.2628
  307MOL0     O42264   2.606  11.238   6.243 -0.3917  0.0220  0.4269
  307MOL0     C42265   2.541  11.196   6.118 -0.5213 -1.4162 -0.0200
  307MOL0     C42266   2.574  11.291   6.005 -0.6362  0.0074  0.6589
  307MOL0     C42267   2.546  11.241   5.863  0.2792  0.6884 -0.3040
  307MOL0     C42268   2.403  11.264   5.818  0.0167  0.4679  0.2835
  307MOL0     C42269   2.393  11.220   5.673  0.3040 -0.8618  0.2637
  307MOL0     C42270   2.244  11.197   5.651 -1.5608  0.5751 -0.4597
  307MOL0     C42271   2.200  11.228   5.506  0.9151  0.5120  0.1510
  307MOL0     C42272   2.207  11.372   5.460 -0.5468 -0.4311 -0.2317
  307MOL0    Cl42273   2.129  11.395   5.297 -0.1560  0.3940 -0.1633
  307MOL0     C42274   2.765  11.095   6.360  0.3802 -0.1665 -0.0231
  307MOL0     C42275   2.785  10.993   6.458 -0.2588 -0.3647  0.6242
  307MOL0     O42276   2.612  10.944   6.811  0.2318  0.1605  0.1238
  307MOL0     C42277   2.818  10.659   6.801 -1.4204  0.7267 -0.0938
  307MOL0     C42278   2.874  10.551   6.867 -0.4103 -0.7183  0.4188
  307MOL0     N42279   3.100   9.927   7.265 -0.5857 -0.1863 -0.3196
  307MOL0     N42280   3.135   9.882   7.384  0.4100  0.1258 -0.3293
  307MOL0     C42281   2.405   9.395   8.064  0.3842 -0.9757 -0.3680
  307MOL0     C42282   2.348   9.272   8.030  0.6434 -0.3057 -0.4164
  307MOL0     C42283   2.309   8.837   7.907 -0.3114 -0.7661 -0.6447
  307MOL0     C42284   2.371   8.809   7.783 -0.2390  1.1104  0.0158
  307MOL0     C42285   2.323   8.695   7.717 -0.1606 -0.4175  0.2898
  307MOL0     C42286   2.220   8.608   7.764 -0.2565  0.8468  0.4698
  307MOL0     O42287   2.173   8.506   7.687  0.6739 -0.3442 -0.5538
  307MOL0     C42288   2.233   8.380   7.718  0.4466 -0.8127  0.1298
  307MOL0     C42289   2.174   8.263   7.639  0.4190  0.0084 -0.5718
  307MOL0     C42290   2.025   8.228   7.667 -0.3993  0.2069  0.6119
  307MOL0     C42291   2.001   8.076   7.625  0.0916 -0.1323 -0.1758
  307MOL0     C42292   1.853   8.059   7.615  0.6288  0.5582  0.3760
  307MOL0     C42293   1.738   8.036   7.609  0.9331 -1.3725 -0.1513
  307MOL0     C42294   2.171   8.634   7.900  0.4935  0.5345  0.7356
  307MOL0     C42295   2.222   8.747   7.969 -0.0240  0.7554 -0.7576
  307MOL0     C42296   2.169   8.771   8.116 -0.5685  0.6394  0.7720
  307MOL0     H42297   2.593   9.124   7.861 -1.7254 -0.8681  0.7046
  307MOL0     H42298   2.719   9.327   7.940 -0.4217 -2.8946  0.1379
  307MOL0     H42299   2.773   9.523   7.983 -0.7518  1.3161 -0.6593
  307MOL0     H42300   2.764   9.615   8.128  1.7841  3.2142 -2.1130
  307MOL0     H42301   2.625   9.695   7.885  0.1029 -5.8029  2.0113
  307MOL0     H42302   2.670   9.786   8.034  1.0379 -2.6025  3.1868
  307MOL0     H42303   2.848   9.694   7.800  3.6145 -1.0801  0.5531
  307MOL0     H42304   2.805   9.852   7.847  1.7274 -0.9810 -1.4236
  307MOL0     H42305   2.947   9.836   8.051 -3.3746 -1.0878  1.1583
  307MOL0     H42306   2.964   9.663   8.039  0.2512 -0.0709 -2.1351
  307MOL0     H42307   3.066   9.688   7.819 -2.8652 -1.6822  1.1738
  307MOL0     H42308   3.165   9.741   7.964  0.8995 -1.6530 -2.1122
  307MOL0     H42309   3.071   9.984   7.900 -0.9878 -0.0089 -1.6746
  307MOL0     H42310   3.216   9.908   7.837 -0.0121 -0.4419  3.2205
  307MOL0     H42311   3.116  10.009   7.672  0.0968  0.6267  3.1310
  307MOL0     H42312   2.949   9.987   7.718  1.1754  1.0168  1.4079
  307MOL0     H42313   3.130   9.769   7.591  0.0164 -0.6004 -0.0699
  307MOL0     H42314   2.954   9.744   7.605 -0.3606 -0.0649 -0.8475
  307MOL0     H42315   2.811   9.907   7.421 -1.0917 -1.0577 -0.7707
  307MOL0     H42316   2.778   9.958   7.166  0.1032 -1.6237 -0.1690
  307MOL0     H42317   2.909   9.909   7.071 -0.9415  0.2547  0.1155
  307MOL0     H42318   3.006  10.123   7.064 -0.1016 -2.6298 -1.2593
  307MOL0     H42319   2.826  10.148   7.024  0.4481 -2.0818 -1.0734
  307MOL0     H42320   2.839  10.181   7.299 -0.6816 -0.9134 -0.4380
  307MOL0     H42321   2.995  10.252   7.253  0.5633 -0.4093 -1.4865
  307MOL0     H42322   2.713  10.324   7.175  0.0648 -0.2756 -3.4341
  307MOL0     H42323   2.838  10.418   7.263  3.7688 -0.8751  0.1390
  307MOL0     H42324   2.665  10.557   7.136  3.6360  1.3056  2.7699
  307MOL0     H42325   2.505  10.722   7.149  3.6240 -0.4260  0.3660
  307MOL0     H42326   2.429  10.691   6.994  1.6615 -1.5850  0.1827
  307MOL0     H42327   2.508  10.844   7.021 -0.0106  0.5650  2.8191
  307MOL0     H42328   2.479  10.915   6.543  0.7117 -1.4417 -0.8809
  307MOL0     H42329   2.429  11.052   6.352 -1.8474 -1.4876  3.3431
  307MOL0     H42330   2.582  11.099   6.089  3.7887 -0.1817  1.2450
  307MOL0     H42331   2.432  11.194   6.131 -1.0045  2.1160 -2.1544
  307MOL0     H42332   2.521  11.383   6.031 -1.1471 -0.4486  1.2310
  307MOL0     H42333   2.681  11.305   6.021 -0.5735 -1.8524  2.1030
  307MOL0     H42334   2.570  11.134   5.860  2.6919  1.1691 -3.2402
  307MOL0     H42335   2.620  11.265   5.786 -0.6830  1.7803 -0.9159
  307MOL0     H42336   2.374  11.369   5.814 -1.6176 -0.0063 -1.4883
  307MOL0     H42337   2.327  11.217   5.881 -2.6914  3.0977 -0.7551
  307MOL0     H42338   2.424  11.296   5.601  0.7630 -0.6642  0.6656
  307MOL0     H42339   2.443  11.126   5.650  2.0643  0.3913 -1.2740
  307MOL0     H42340   2.179  11.264   5.709  0.5174  0.4432  2.2298
  307MOL0     H42341   2.222  11.093   5.675  2.3414 -0.1912  0.4396
  307MOL0     H42342   2.096  11.194   5.497  0.5585  1.2758  1.2027
  307MOL0     H42343   2.262  11.167   5.440  1.1603  0.2463  0.6240
  307MOL0     H42344   2.313  11.399   5.461 -1.1000  2.2031  2.6493
  307MOL0     H42345   2.166  11.433   5.541 -0.7077 -0.8789  0.0297
  307MOL0     H42346   2.850  11.153   6.326  1.0511  1.6877  4.2102
  307MOL0     H42347   2.883  10.950   6.475  1.1792  1.5456 -1.9055
  307MOL0     H42348   2.865  10.695   6.710 -1.7385  2.3426  0.3550
  307MOL0     H42349   2.972  10.517   6.834  0.2077 -1.0754  2.4939
  307MOL0     H42350   2.348   9.481   8.099 -0.3284 -0.5645 -2.4054
  307MOL0     H42351   2.242   9.280   8.051  0.3302 -0.9341 -1.6617
  307MOL0     H42352   2.450   8.874   7.748 -1.9094  1.6555 -3.1226
  307MOL0     H42353   2.368   8.686   7.618  1.5917  1.0051  0.9076
  307MOL0     H42354   2.338   8.377   7.689  0.7235 -0.0328  0.9862
  307MOL0     H42355   2.209   8.359   7.823 -2.0098 -0.2924 -0.2570
  307MOL0     H42356   2.231   8.174   7.663  1.2491  0.1570 -1.9263
  307MOL0     H42357   2.186   8.280   7.532 -1.8019 -1.4938 -1.1388
  307MOL0     H42358   1.999   8.232   7.773  2.1444 -2.8606  1.4942
  307MOL0     H42359   1.962   8.298   7.610  2.1819 -0.1564 -3.0420
  307MOL0     H42360   2.057   8.002   7.683 -0.6653 -1.8759 -1.6054
  307MOL0     H42361   2.044   8.070   7.525 -1.6876 -2.0317 -0.8881
  307MOL0     H42362   1.632   8.028   7.614  0.7190  1.0003  0.7940
  307MOL0     H42363   2.098   8.575   7.954  0.9713 -0.3709  0.4092
  307MOL0     H42364   2.253   8.759   8.185 -1.2086 -1.4306  1.2799
  307MOL0     H42365   2.125   8.870   8.107 -0.9769  0.4144  0.2410
  307MOL0     H42366   2.103   8.686   8.138 -1.0076  0.5408 -0.7972
  308MOL0     O42367   6.643  10.140   4.552  0.4539 -0.0892 -0.2242
  308MOL0     C42368   6.636  10.073   4.653 -0.1419 -0.5915 -0.0859
  308MOL0     O42369   6.569   9.959   4.666 -0.5663  0.0457 -0.1249
  308MOL0     C42370   6.534   9.879   4.567  0.3751 -0.0577  0.9172
  308MOL0     C42371   6.405   9.831   4.575 -0.6216 -0.6749 -0.0451
  308MOL0     C42372   6.362   9.745   4.469  0.0461  0.5030 -0.2259
  308MOL0     C42373   6.446   9.703   4.368 -0.1996  0.7713  0.3581
  308MOL0     O42374   6.415   9.614   4.267 -0.2581 -0.6115 -0.3930
  308MOL0     C42375   6.311   9.517   4.276 -0.5098 -0.6141 -0.1089
  308MOL0     C42376   6.344   9.398   4.180  0.1362  0.8195  0.3109
  308MOL0     C42377   6.386   9.451   4.040  0.2949  1.0815 -0.0822
  308MOL0     C42378   6.368   9.348   3.931 -0.4993 -0.1793 -0.5058
  308MOL0     C42379   6.469   9.225   3.920  0.4825 -0.2983 -0.2460
  308MOL0     C42380   6.404   9.111   3.837 -0.2722  0.1778 -0.0539
  308MOL0     C42381   6.359   9.141   3.696 -0.0927  0.3606 -0.2041
  308MOL0     C42382   6.298   9.021   3.617 -0.5527  0.1247  0.4384
  308MOL0     N42383   6.286   8.891   3.684 -0.0787 -0.0424 -0.0863
  308MOL0     C42384   6.386   8.803   3.679  0.1194 -0.7667  0.4546
  308MOL0     C42385   6.337   8.700   3.749 -0.3759  0.0379  0.0147
  308MOL0     C42386   6.406   8.579   3.783  0.2508 -1.3013 -0.6501
  308MOL0     C42387   6.485   8.515   3.667 -0.7900 -0.6157  0.6214
  308MOL0     C42388   6.402   8.513   3.538  0.0276 -0.4909 -0.8596
  308MOL0     C42389   6.458   8.412   3.446 -0.6144 -0.1524  0.1248
  308MOL0     O42390   6.593   8.449   3.426  0.7941  0.1822 -0.6200
  308MOL0     C42391   6.680   8.360   3.361  0.5414  1.0423 -0.4249
  308MOL0     C42392   6.815   8.390   3.370 -1.2587 -1.5077  0.8651
  308MOL0     C42393   6.920   8.298   3.321  0.3309 -0.2954  0.1561
  308MOL0     C42394   7.075   8.327   3.355  1.2844 -0.6993  0.3165
  308MOL0     C42395   6.880   8.174   3.250  0.3772  0.6469 -0.8895
  308MOL0     C42396   6.972   8.086   3.176 -0.4136 -1.0380 -0.4990
  308MOL0     O42397   6.919   7.972   3.138 -0.7293  0.9365  1.3579
  308MOL0     C42398   7.003   7.871   3.094  0.0829 -0.2641 -0.3568
  308MOL0     C42399   7.050   7.884   2.959  1.0981 -0.0025 -0.0320
  308MOL0     C42400   7.122   7.783   2.899  0.6329 -0.2940 -2.0426
  308MOL0     C42401   7.150   7.663   2.972 -0.1093 -0.5304  0.3424
  308MOL0     O42402   7.217   7.555   2.917  0.7941 -0.1580  0.2863
  308MOL0     C42403   7.313   7.573   2.813 -0.9789 -0.6009 -0.3860
  308MOL0     C42404   7.413   7.456   2.837  0.5490  1.4265 -0.2476
  308MOL0     C42405   7.351   7.309   2.821 -0.1259 -1.3664  0.8936
  308MOL0     C42406   7.281   7.302   2.680 -0.2029 -0.1201 -0.2826
  308MOL0     C42407   7.289   7.152   2.638  0.5493  0.7509  0.4625
  308MOL0     C42408   7.204   7.129   2.515  0.2951  0.2263 -0.5490
  308MOL0     C42409   7.174   6.988   2.467  0.6149  0.3789 -0.0087
  308MOL0     C42410   7.177   6.985   2.314 -0.7515  0.1445  0.1637
  308MOL0    Cl42411   7.250   6.814   2.293  0.0657 -0.0315  0.3671
  308MOL0     C42412   7.085   7.652   3.094 -0.0798 -0.5220  0.3419
  308MOL0     C42413   7.015   7.756   3.160 -0.3013 -0.9425  0.4155
  308MOL0     O42414   7.097   8.116   3.171  0.4037  0.1925  0.0531
  308MOL0     C42415   6.744   8.137   3.263 -1.4193 -0.0103  0.4832
  308MOL0     C42416   6.652   8.232   3.310  0.9290  0.4892  0.2252
  308MOL0     N42417   6.213   8.733   3.788  0.0517 -0.1685 -0.4755
  308MOL0     N42418   6.174   8.844   3.751  0.2632  0.1702 -0.3508
  308MOL0     C42419   6.579   9.756   4.360  0.3864  0.3692  0.0000
  308MOL0     C42420   6.619   9.847   4.457 -0.3296 -0.0828  0.5319
  308MOL0     C42421   6.730  10.110   4.759 -0.3360  1.0557 -0.7478
  308MOL0     C42422   6.836  10.201   4.729  0.0471 -0.3713 -0.1417
  308MOL0     C42423   6.932  10.246   4.823  0.1472 -0.3892 -0.1531
  308MOL0     C42424   6.906  10.210   4.952 -0.7496 -0.6851  0.9869
  308MOL0     O42425   6.984  10.271   5.041  0.0239  0.3841 -0.2648
  308MOL0     C42426   7.044  10.203   5.161  0.2509 -0.5580  0.1982
  308MOL0     C42427   7.200  10.190   5.136 -0.0670 -0.0045 -0.9514
  308MOL0     C42428   7.247  10.093   5.024  0.5127 -0.9995 -0.2983
  308MOL0     C42429   7.208   9.953   5.042 -0.0725  1.0360 -0.8676
  308MOL0     C42430   7.267   9.891   5.159 -0.2982 -0.0021 -0.3812
  308MOL0     C42431   7.352   9.857   5.242 -0.2052 -0.7532  1.1203
  308MOL0     C42432   6.805  10.125   4.986 -0.9854 -0.0014 -0.2407
  308MOL0     C42433   6.720  10.070   4.898 -0.1404 -0.4748  0.1566
  308MOL0     C42434   6.619   9.973   4.949 -0.7096 -1.2094 -0.0573
  308MOL0     H42435   6.335   9.876   4.644 -0.8086 -1.1017  0.0449
  308MOL0     H42436   6.267   9.694   4.457  1.2845 -2.0829  0.2025
  308MOL0     H42437   6.211   9.555   4.255  0.3429  1.3987 -0.7173
  308MOL0     H42438   6.309   9.482   4.379 -3.0532  0.6646  0.3353
  308MOL0     H42439   6.420   9.332   4.221  2.6165  2.5665 -1.2282
  308MOL0     H42440   6.261   9.327   4.175  0.1692  0.6659  1.6466
  308MOL0     H42441   6.338   9.544   4.010  2.1658  1.6896 -1.3578
  308MOL0     H42442   6.494   9.466   4.047  0.7298 -1.4983 -0.2091
  308MOL0     H42443   6.265   9.317   3.952 -0.0884 -0.7217  0.7987
  308MOL0     H42444   6.360   9.396   3.833  0.9124 -1.1410 -1.1192
  308MOL0     H42445   6.481   9.178   4.018 -3.1930  0.9246  0.9653
  308MOL0     H42446   6.569   9.255   3.886 -1.4902  3.7368 -3.3805
  308MOL0     H42447   6.477   9.031   3.845  3.0027  3.0333  1.3501
  308MOL0     H42448   6.312   9.087   3.892 -0.9573 -1.3563 -1.7807
  308MOL0     H42449   6.444   9.178   3.638 -0.6089 -0.2662 -1.4046
  308MOL0     H42450   6.285   9.220   3.709  0.9879  1.0862  2.0700
  308MOL0     H42451   6.197   9.047   3.586 -0.3945  1.2743  0.8096
  308MOL0     H42452   6.346   9.018   3.518  3.0996 -2.0727  2.0875
  308MOL0     H42453   6.470   8.822   3.613 -2.4011  0.9776 -2.5835
  308MOL0     H42454   6.347   8.502   3.833  1.5217 -3.4601 -2.3009
  308MOL0     H42455   6.473   8.621   3.859 -1.6749  3.0419 -1.0566
  308MOL0     H42456   6.578   8.572   3.658 -0.5269 -1.1263 -0.0526
  308MOL0     H42457   6.516   8.416   3.701 -2.3309 -1.1416  0.5418
  308MOL0     H42458   6.295   8.499   3.551 -0.8834  2.2665 -3.8002
  308MOL0     H42459   6.414   8.615   3.500  1.0451 -0.5002 -0.6046
  308MOL0     H42460   6.446   8.312   3.490  2.4194 -1.9928 -2.7350
  308MOL0     H42461   6.404   8.413   3.351 -0.0210  0.7600 -0.2189
  308MOL0     H42462   6.843   8.482   3.419 -0.0156  1.2471 -4.3112
  308MOL0     H42463   7.114   8.264   3.435  2.2564 -2.5818 -1.5335
  308MOL0     H42464   7.087   8.435   3.368  1.5627 -0.7454  0.4202
  308MOL0     H42465   7.136   8.308   3.266  2.9854 -2.9901  1.8824
  308MOL0     H42466   7.039   7.984   2.916  1.9760 -0.7029 -2.0230
  308MOL0     H42467   7.146   7.795   2.794  3.0387  1.4779 -1.3783
  308MOL0     H42468   7.246   7.585   2.728 -1.5252 -0.1286  0.1075
  308MOL0     H42469   7.374   7.663   2.829  0.6894 -1.0459 -3.4739
  308MOL0     H42470   7.511   7.461   2.789  1.5768  3.0049  1.8518
  308MOL0     H42471   7.435   7.452   2.944  1.3416  0.3820 -0.4406
  308MOL0     H42472   7.271   7.292   2.893 -3.6255 -3.6659 -3.0383
  308MOL0     H42473   7.434   7.239   2.830  2.6266  1.1547 -1.9960
  308MOL0     H42474   7.331   7.358   2.600 -2.7996  0.4881 -1.5906
  308MOL0     H42475   7.179   7.341   2.694 -1.5685 -2.5078 -2.5449
  308MOL0     H42476   7.397   7.139   2.624  0.6416  1.9699 -0.1218
  308MOL0     H42477   7.253   7.086   2.717 -4.2595 -1.1626 -2.8546
  308MOL0     H42478   7.246   7.186   2.432 -0.5262  0.5766 -0.7320
  308MOL0     H42479   7.109   7.172   2.546  0.6448 -0.0264  0.9613
  308MOL0     H42480   7.083   6.948   2.512  0.5607  0.2175 -0.2612
  308MOL0     H42481   7.263   6.932   2.498 -1.0953 -0.6365  3.4524
  308MOL0     H42482   7.250   7.053   2.269  0.2238 -0.7132  0.4428
  308MOL0     H42483   7.078   6.995   2.268 -1.7469  0.7901  2.2905
  308MOL0     H42484   7.092   7.554   3.142  0.5767 -1.0271 -0.7400
  308MOL0     H42485   6.974   7.736   3.259  1.8602  1.2121  1.8261
  308MOL0     H42486   6.715   8.040   3.225  1.9188 -0.6958 -0.6241
  308MOL0     H42487   6.548   8.202   3.305  0.1750  3.0112 -1.3153
  308MOL0     H42488   6.647   9.729   4.280 -0.6144  2.1460 -1.5240
  308MOL0     H42489   6.719   9.890   4.457  0.4717 -1.7349  2.6605
  308MOL0     H42490   6.843  10.248   4.631  0.0019 -2.5052 -1.2302
  308MOL0     H42491   7.001  10.325   4.796 -0.9179 -0.0238 -1.9816
  308MOL0     H42492   7.028  10.259   5.253  0.8127 -3.1562  1.9975
  308MOL0     H42493   6.987  10.111   5.178  1.9865 -2.3004 -2.6443
  308MOL0     H42494   7.246  10.153   5.229  2.4598  1.9281 -1.3211
  308MOL0     H42495   7.236  10.284   5.094 -1.5429  0.0431 -2.1873
  308MOL0     H42496   7.210  10.132   4.929  1.8360  0.6434 -0.2056
  308MOL0     H42497   7.356  10.108   5.015  0.0857  5.6262  0.2528
  308MOL0     H42498   7.240   9.900   4.952 -0.1495 -1.2092  0.3494
  308MOL0     H42499   7.100   9.942   5.028  0.0122  1.3501 -1.8296
  308MOL0     H42500   7.427   9.827   5.312 -0.5939 -1.0632  1.4090
  308MOL0     H42501   6.786  10.099   5.090 -0.1745 -1.7600 -0.4956
  308MOL0     H42502   6.641   9.871   4.915 -1.5891 -1.7276  0.8724
  308MOL0     H42503   6.623   9.976   5.058 -0.1913  2.5578 -0.0746
  308MOL0     H42504   6.519  10.007   4.920 -1.0019  0.5950  2.7827
  309MOL0     O42505   0.884   0.068   4.187  0.7170 -0.5422  0.3218
  309MOL0     C42506   0.939   0.134   4.105  0.9544 -0.6203  0.4457
  309MOL0     O42507   0.916   0.268   4.090  0.5004 -0.4935 -0.6342
  309MOL0     C42508   0.823   0.333   4.171 -0.4886 -0.6368 -0.0509
  309MOL0     C42509   0.700   0.281   4.225  0.5877  0.6600  0.4454
  309MOL0     C42510   0.614   0.362   4.302 -0.1727 -0.6394 -0.0987
  309MOL0     C42511   0.662   0.478   4.351 -0.6703  0.8570  0.8589
  309MOL0     O42512   0.590   0.548   4.438 -0.2084 -0.0020  0.4196
  309MOL0     C42513   0.657   0.565   4.564  0.4336 -0.3891  1.0442
  309MOL0     C42514   0.587   0.662   4.665  0.1549 -0.4227  0.7075
  309MOL0     C42515   0.429   0.674   4.668 -0.2178  0.4681 -0.3724
  309MOL0     C42516   0.404   0.782   4.778 -0.6466 -0.1181  1.0333
  309MOL0     C42517   0.255   0.820   4.791  0.2389 -0.0266  0.2228
  309MOL0     C42518   0.188   0.890   4.664  0.1521  0.4171 -0.8864
  309MOL0     C42519   0.044   0.921   4.707 -0.3294  0.6927  0.8919
  309MOL0     C42520  -0.036   0.950   4.577  0.8555  0.0040  0.8993
  309MOL0     N42521  -0.072   1.091   4.552  0.0833 -0.7884 -0.4827
  309MOL0     C42522   0.009   1.198   4.566  0.1304 -0.6721  0.3266
  309MOL0     C42523  -0.063   1.300   4.508  0.4650  0.3830 -0.5749
  309MOL0     C42524  -0.020   1.445   4.511  1.3718 -0.0197  0.3208
  309MOL0     C42525  -0.132   1.529   4.584 -0.4133  0.3730  0.5595
  309MOL0     C42526  -0.075   1.659   4.639  0.1900  0.1125  0.4005
  309MOL0     C42527  -0.155   1.708   4.765 -0.2950  0.0146  0.8831
  309MOL0     O42528  -0.114   1.645   4.888  0.2958  0.5861 -0.3862
  309MOL0     C42529  -0.013   1.706   4.961  0.4383 -0.4390  0.5631
  309MOL0     C42530   0.074   1.819   4.923 -0.4189  0.3538  0.0993
  309MOL0     C42531   0.168   1.874   5.023  0.5859  0.6986  0.5784
  309MOL0     C42532   0.236   2.006   4.988 -0.2993  0.6925 -0.0325
  309MOL0     C42533   0.185   1.801   5.146 -0.8577 -0.4561  0.0457
  309MOL0     C42534   0.285   1.835   5.248 -0.1425  0.4818  0.5184
  309MOL0     O42535   0.377   1.919   5.209 -0.5395 -0.0820 -0.2649
  309MOL0     C42536   0.455   1.974   5.307  0.6915  0.0893  0.5780
  309MOL0     C42537   0.405   2.099   5.361 -0.1997 -0.0353 -0.0143
  309MOL0     C42538   0.480   2.156   5.470 -0.9967  0.7565 -0.2822
  309MOL0     C42539   0.617   2.106   5.500 -0.1806  0.7102  0.8735
  309MOL0     O42540   0.685   2.169   5.595 -0.0330  0.7758 -0.4927
  309MOL0     C42541   0.762   2.281   5.557 -0.3822 -0.6213  0.0995
  309MOL0     C42542   0.738   2.413   5.640 -0.6973  0.1065 -0.0483
  309MOL0     C42543   0.598   2.454   5.656 -0.4821  0.9142  0.7790
  309MOL0     C42544   0.577   2.547   5.778  0.0950 -0.2932  0.1096
  309MOL0     C42545   0.583   2.483   5.923  0.0245  0.0366  0.3051
  309MOL0     C42546   0.455   2.401   5.963  0.3210 -0.2891  0.2933
  309MOL0     C42547   0.333   2.501   5.994 -0.6475  0.8852 -0.6556
  309MOL0     C42548   0.267   2.482   6.129  0.4423  0.9693  0.7074
  309MOL0    Cl42549   0.165   2.617   6.165 -0.1179 -0.1424 -0.3829
  309MOL0     C42550   0.662   1.997   5.431 -0.3675 -0.1336  0.2135
  309MOL0     C42551   0.587   1.928   5.341  1.6181  0.4122 -0.0983
  309MOL0     O42552   0.283   1.783   5.359  0.1596  0.5290  0.0470
  309MOL0     C42553   0.114   1.682   5.167  0.1429  0.4564 -1.6637
  309MOL0     C42554   0.008   1.642   5.081 -0.9536  0.2162 -0.1796
  309MOL0     N42555  -0.193   1.252   4.473 -0.3526  0.3172 -0.2495
  309MOL0     N42556  -0.190   1.121   4.499 -0.2250 -0.4287 -0.0414
  309MOL0     C42557   0.780   0.539   4.301 -0.2902 -0.2173  0.9497
  309MOL0     C42558   0.857   0.471   4.205  0.4832  0.4124  0.0080
  309MOL0     C42559   1.045   0.067   4.031 -0.8269  0.3945  0.7041
  309MOL0     C42560   1.039  -0.077   4.017 -0.1102 -0.5086  0.2366
  309MOL0     C42561   1.126  -0.144   3.933  0.8522  0.6187 -0.3192
  309MOL0     C42562   1.238  -0.079   3.884 -0.5431  0.1556  1.1257
  309MOL0     O42563   1.329  -0.145   3.815  1.4231  0.3057 -0.1359
  309MOL0     C42564   1.455  -0.091   3.762  0.3120  0.8191 -0.1423
  309MOL0     C42565   1.532  -0.208   3.714  0.4516 -0.6590  0.4830
  309MOL0     C42566   1.561  -0.316   3.823 -0.7973 -0.4160 -0.4042
  309MOL0     C42567   1.695  -0.381   3.800 -0.9764 -0.8378  0.3227
  309MOL0     C42568   1.731  -0.504   3.864 -0.2815  0.4961  0.2871
  309MOL0     C42569   1.778  -0.606   3.910 -1.1334  0.0539 -0.8378
  309MOL0     C42570   1.249   0.058   3.893  0.4060  0.5261 -0.7699
  309MOL0     C42571   1.148   0.129   3.961  0.3808 -0.8503 -0.0043
  309MOL0     C42572   1.175   0.276   3.967 -0.4947  0.7358 -0.4364
  309MOL0     H42573   0.665   0.179   4.210  2.5603  0.2425 -1.8564
  309MOL0     H42574   0.513   0.337   4.333 -1.7669  2.0156 -2.6212
  309MOL0     H42575   0.763   0.595   4.558  0.2019  0.7902  2.2754
  309MOL0     H42576   0.650   0.463   4.603 -1.7011 -1.0711 -0.9448
  309MOL0     H42577   0.629   0.631   4.761 -2.6705 -0.0630  2.1420
  309MOL0     H42578   0.616   0.765   4.641 -0.4997  0.0254  1.7864
  309MOL0     H42579   0.385   0.701   4.571  2.8220  1.8660 -1.4811
  309MOL0     H42580   0.384   0.580   4.698 -0.7183  0.3307 -1.4878
  309MOL0     H42581   0.452   0.767   4.875  1.1584  2.0604  0.5468
  309MOL0     H42582   0.452   0.869   4.733 -2.9657 -1.3163 -4.6154
  309MOL0     H42583   0.239   0.890   4.873  3.3641 -1.3039  2.0858
  309MOL0     H42584   0.200   0.734   4.831  0.4566  1.3301  3.7363
  309MOL0     H42585   0.258   0.974   4.652  0.6774  0.3281  1.2225
  309MOL0     H42586   0.187   0.837   4.568  1.1199  0.9202 -1.1948
  309MOL0     H42587   0.046   1.006   4.777  0.0174  0.6948  0.8828
  309MOL0     H42588  -0.004   0.830   4.744 -1.7743  0.5507 -1.2124
  309MOL0     H42589   0.013   0.927   4.483  0.4178  2.7313 -0.0893
  309MOL0     H42590  -0.128   0.890   4.578  0.9259 -0.4589 -3.5484
  309MOL0     H42591   0.115   1.194   4.589  0.6369 -4.4099 -1.8207
  309MOL0     H42592  -0.019   1.478   4.406 -2.0834  1.3752  0.5851
  309MOL0     H42593   0.071   1.451   4.571  0.7812  0.2109  1.2150
  309MOL0     H42594  -0.219   1.539   4.519  0.6173  1.5672 -0.6793
  309MOL0     H42595  -0.151   1.473   4.677  2.5334 -1.0852  0.4202
  309MOL0     H42596   0.032   1.652   4.662  0.2267  0.7107  0.4292
  309MOL0     H42597  -0.086   1.736   4.562 -0.9929 -2.9497 -2.7431
  309MOL0     H42598  -0.145   1.817   4.777  2.8047 -0.1795  0.8001
  309MOL0     H42599  -0.259   1.689   4.738  0.3612  0.4097 -2.4052
  309MOL0     H42600   0.073   1.875   4.830  3.2362  3.6063  1.7155
  309MOL0     H42601   0.188   2.046   4.898  1.5467  0.3585 -1.2203
  309MOL0     H42602   0.341   1.978   4.974 -0.4827 -0.6173  1.0420
  309MOL0     H42603   0.225   2.069   5.076  1.4019 -0.4975  1.1023
  309MOL0     H42604   0.319   2.150   5.320  1.3092  2.0458 -0.7376
  309MOL0     H42605   0.437   2.245   5.514 -1.3636  2.3253 -3.5302
  309MOL0     H42606   0.865   2.252   5.581 -0.3094 -1.0276 -0.6775
  309MOL0     H42607   0.743   2.303   5.452  1.5146 -1.7797 -0.5369
  309MOL0     H42608   0.776   2.395   5.741 -2.1974  2.0692  0.9254
  309MOL0     H42609   0.795   2.493   5.593 -0.3197 -0.8232 -1.2365
  309MOL0     H42610   0.525   2.375   5.674 -1.1136  1.4137  0.4408
  309MOL0     H42611   0.580   2.516   5.568 -1.0290  0.5185  0.6044
  309MOL0     H42612   0.485   2.606   5.777 -0.5937 -1.3446 -0.0644
  309MOL0     H42613   0.651   2.627   5.784  2.2483 -2.2239  0.8729
  309MOL0     H42614   0.672   2.419   5.916 -1.1299 -1.4199 -3.0222
  309MOL0     H42615   0.613   2.557   5.999  0.3966  1.6911 -1.3654
  309MOL0     H42616   0.477   2.364   6.063  0.1945  2.8298  1.5740
  309MOL0     H42617   0.427   2.322   5.892 -0.7293  0.4406 -0.1392
  309MOL0     H42618   0.256   2.489   5.918 -0.0423 -0.4692 -1.0862
  309MOL0     H42619   0.371   2.603   5.984  4.6834 -0.4025  2.3959
  309MOL0     H42620   0.342   2.477   6.209 -1.4883  0.5276  2.5948
  309MOL0     H42621   0.204   2.392   6.127  1.2480  0.3538  1.7365
  309MOL0     H42622   0.761   1.964   5.460  1.9394  4.5771 -1.2801
  309MOL0     H42623   0.627   1.841   5.290  1.1733  0.1599 -0.0178
  309MOL0     H42624   0.127   1.612   5.249 -0.2187  0.1103 -1.8987
  309MOL0     H42625  -0.051   1.559   5.120  2.4198 -2.2931  0.0547
  309MOL0     H42626   0.820   0.632   4.340  0.5749 -0.8223  1.5243
  309MOL0     H42627   0.941   0.520   4.157  1.1040 -2.9097 -2.7067
  309MOL0     H42628   0.969  -0.137   4.075 -0.6532  0.5677  0.7103
  309MOL0     H42629   1.112  -0.251   3.924 -3.4336  1.1949 -3.3132
  309MOL0     H42630   1.445  -0.022   3.678  4.3027  0.5823 -1.0354
  309MOL0     H42631   1.513  -0.041   3.840  1.9938  0.8137 -1.3301
  309MOL0     H42632   1.633  -0.192   3.675 -0.4834 -1.9039 -2.7806
  309MOL0     H42633   1.476  -0.259   3.634  0.7601 -0.1869 -0.0425
  309MOL0     H42634   1.583  -0.260   3.915  1.6028 -1.5627 -0.1991
  309MOL0     H42635   1.470  -0.375   3.835 -0.8220  0.0799  2.5154
  309MOL0     H42636   1.776  -0.314   3.828  0.3958 -2.3988  0.2334
  309MOL0     H42637   1.696  -0.399   3.692 -0.0950 -0.7054  0.3077
  309MOL0     H42638   1.806  -0.706   3.937  0.7772  0.0440 -2.6007
  309MOL0     H42639   1.332   0.117   3.853  0.4039  0.4731 -0.8522
  309MOL0     H42640   1.091   0.332   3.925 -1.4200  0.4048  0.8822
  309MOL0     H42641   1.174   0.303   4.073 -0.6515  1.5714 -0.6486
  309MOL0     H42642   1.273   0.300   3.926 -1.8649  1.8270 -3.3822
  310MOL0     O42643   2.362   6.577   2.560 -0.9221  1.7207 -0.5106
  310MOL0     C42644   2.288   6.530   2.469 -0.4919  0.2544 -1.5119
  310MOL0     O42645   2.224   6.407   2.475 -0.7124  0.0363  0.2934
  310MOL0     C42646   2.229   6.345   2.594  0.6017  1.4480 -0.5483
  310MOL0     C42647   2.347   6.272   2.625  0.7671 -0.1141 -0.0247
  310MOL0     C42648   2.364   6.215   2.749  0.0794 -0.2512 -0.4327
  310MOL0     C42649   2.257   6.208   2.840  0.3871 -1.2848  1.1409
  310MOL0     O42650   2.281   6.124   2.949 -0.4141 -0.1993  0.7086
  310MOL0     C42651   2.263   6.181   3.080 -0.6236 -1.0125 -0.1176
  310MOL0     C42652   2.372   6.285   3.107  0.0140 -0.7745 -0.2373
  310MOL0     C42653   2.519   6.224   3.114 -0.0883  0.6132 -0.0698
  310MOL0     C42654   2.630   6.327   3.085 -0.3513  0.6717 -0.5999
  310MOL0     C42655   2.621   6.374   2.943 -0.6155  0.6846  0.0304
  310MOL0     C42656   2.696   6.507   2.924  0.3633 -0.2548 -0.1041
  310MOL0     C42657   2.656   6.580   2.800  0.1096 -0.3665  0.3914
  310MOL0     C42658   2.711   6.546   2.662 -1.5203  0.3754 -0.3234
  310MOL0     N42659   2.862   6.581   2.646  0.5041  0.8536 -0.2608
  310MOL0     C42660   2.968   6.509   2.697 -0.1181 -0.2310 -0.0634
  310MOL0     C42661   3.078   6.589   2.669  0.3927  1.0343 -0.3314
  310MOL0     C42662   3.215   6.555   2.712  0.6237 -0.0625  0.5225
  310MOL0     C42663   3.317   6.658   2.661  0.2932  0.2871  0.4363
  310MOL0     C42664   3.294   6.797   2.713 -0.9730  0.7916 -0.1622
  310MOL0     C42665   3.291   6.802   2.864 -0.2232  0.1382 -0.2832
  310MOL0     O42666   3.325   6.926   2.931  0.4854  0.8399 -0.0339
  310MOL0     C42667   3.463   6.946   2.944  0.1257  0.4125  0.1719
  310MOL0     C42668   3.500   7.060   3.018 -0.3450 -0.0780  0.8829
  310MOL0     C42669   3.632   7.077   3.059 -0.4981 -0.6991  0.0770
  310MOL0     C42670   3.674   7.177   3.170  0.6176 -0.7906 -0.4872
  310MOL0     C42671   3.740   6.997   3.009 -1.2030  0.7865 -0.5550
  310MOL0     C42672   3.889   7.009   3.028  0.4022 -0.6781 -0.1785
  310MOL0     O42673   3.975   6.909   2.999  0.4720  0.2574  0.4062
  310MOL0     C42674   4.083   6.953   2.927 -0.7044 -0.5642  0.1260
  310MOL0     C42675   4.206   6.969   2.995 -0.1991  1.1052  1.4755
  310MOL0     C42676   4.321   7.010   2.919  0.3990 -0.0208 -0.8947
  310MOL0     C42677   4.311   7.039   2.789  0.2954 -0.8326 -1.1960
  310MOL0     O42678   4.418   7.086   2.719  0.0439  0.9444 -0.0077
  310MOL0     C42679   4.393   7.168   2.599  0.5258 -0.1865 -0.3567
  310MOL0     C42680   4.512   7.261   2.573  0.2216  0.0814  0.0807
  310MOL0     C42681   4.501   7.380   2.672 -0.0036 -1.7241  0.4284
  310MOL0     C42682   4.517   7.521   2.595 -0.2392  0.4304 -0.6741
  310MOL0     C42683   4.454   7.625   2.690 -0.1702 -0.8251 -0.7471
  310MOL0     C42684   4.499   7.775   2.663  0.3486  0.0172  0.1054
  310MOL0     C42685   4.453   7.806   2.521  0.0509 -0.0262 -0.2974
  310MOL0     C42686   4.489   7.955   2.503 -0.4612 -0.0304  0.2543
  310MOL0    Cl42687   4.433   8.064   2.638  0.1540 -0.2066 -0.4058
  310MOL0     C42688   4.185   7.025   2.722 -1.3351 -0.0851  0.2970
  310MOL0     C42689   4.074   6.977   2.790 -0.3851 -1.1110 -0.2041
  310MOL0     O42690   3.930   7.119   3.054 -0.1586 -0.2998 -0.6140
  310MOL0     C42691   3.709   6.902   2.915 -0.6585 -0.1856  0.2334
  310MOL0     C42692   3.573   6.881   2.884 -0.6684  0.4300 -0.7025
  310MOL0     N42693   3.027   6.677   2.585 -0.2906  0.8152 -0.0189
  310MOL0     N42694   2.904   6.669   2.554 -0.9722 -1.1232  0.7801
  310MOL0     C42695   2.144   6.270   2.804  0.9542 -0.3996  0.9282
  310MOL0     C42696   2.125   6.341   2.683  0.6090 -0.9350  0.1858
  310MOL0     C42697   2.276   6.606   2.341 -0.4142 -0.7428 -0.2393
  310MOL0     C42698   2.256   6.537   2.230 -1.3241  1.0857  0.2702
  310MOL0     C42699   2.248   6.599   2.104 -0.3236  0.1511 -0.2534
  310MOL0     C42700   2.250   6.737   2.096  1.3185 -0.9786 -0.7961
  310MOL0     O42701   2.231   6.799   1.979 -0.6354 -0.2984  0.2873
  310MOL0     C42702   2.189   6.737   1.862 -0.1953 -0.1453 -0.8828
  310MOL0     C42703   2.153   6.843   1.764  0.0911 -0.7288  0.3260
  310MOL0     C42704   2.271   6.869   1.668 -0.0956  0.7883 -0.2759
  310MOL0     C42705   2.227   6.938   1.541  0.2964  0.7446  0.0863
  310MOL0     C42706   2.332   7.004   1.473 -1.1270 -0.1851  0.0319
  310MOL0     C42707   2.422   7.059   1.405 -0.1314  1.0109 -1.0156
  310MOL0     C42708   2.277   6.809   2.209 -0.2624 -1.6044  0.6948
  310MOL0     C42709   2.300   6.748   2.329 -0.2360  0.1099 -0.4267
  310MOL0     C42710   2.331   6.834   2.441 -0.2708  0.0633  0.2879
  310MOL0     H42711   2.439   6.270   2.567  2.1819  0.4013  2.0833
  310MOL0     H42712   2.456   6.160   2.769 -0.3785 -0.1900  2.0569
  310MOL0     H42713   2.263   6.097   3.150 -0.4896  0.2933  1.5089
  310MOL0     H42714   2.163   6.225   3.082  0.2925  1.1726  0.9784
  310MOL0     H42715   2.353   6.359   3.028 -0.2082 -1.7437 -1.1131
  310MOL0     H42716   2.350   6.344   3.196  1.5228  2.6325 -1.9284
  310MOL0     H42717   2.534   6.197   3.219 -1.6405  0.3294  0.0997
  310MOL0     H42718   2.525   6.137   3.048  1.9808  1.4760 -1.1177
  310MOL0     H42719   2.608   6.413   3.149 -1.2586 -0.2061  0.2805
  310MOL0     H42720   2.728   6.293   3.120 -1.5415 -2.0625  0.2801
  310MOL0     H42721   2.518   6.396   2.915 -0.0502  3.0438 -0.4318
  310MOL0     H42722   2.661   6.299   2.874  2.7785 -1.5667  3.9808
  310MOL0     H42723   2.660   6.567   3.008 -1.9878  0.3424 -1.4654
  310MOL0     H42724   2.805   6.503   2.928  0.5788  2.0536 -1.6776
  310MOL0     H42725   2.670   6.688   2.807 -0.2910 -0.3639  1.3940
  310MOL0     H42726   2.548   6.567   2.792  0.4022 -2.1564 -1.3240
  310MOL0     H42727   2.698   6.437   2.662  0.5849  0.0709 -0.3502
  310MOL0     H42728   2.650   6.578   2.578  1.2951 -1.8598 -3.5142
  310MOL0     H42729   2.950   6.418   2.753 -1.3665 -0.5914 -0.9985
  310MOL0     H42730   3.245   6.455   2.680 -0.1268  0.3350 -1.6214
  310MOL0     H42731   3.212   6.553   2.821 -4.1749 -1.4630  0.5879
  310MOL0     H42732   3.417   6.615   2.675  1.1837  0.4294 -4.0174
  310MOL0     H42733   3.318   6.651   2.552  0.9759 -0.1565  0.4618
  310MOL0     H42734   3.373   6.861   2.674 -0.2448 -0.9139 -1.6083
  310MOL0     H42735   3.205   6.842   2.668 -0.4480  2.0711  0.0320
  310MOL0     H42736   3.191   6.781   2.902 -0.2279  1.0269  0.2312
  310MOL0     H42737   3.361   6.724   2.896  1.4805  0.7008 -2.3947
  310MOL0     H42738   3.420   7.124   3.053 -1.2461 -1.5239  1.5945
  310MOL0     H42739   3.589   7.207   3.233  1.6155  1.6669 -0.1827
  310MOL0     H42740   3.719   7.267   3.127 -3.4436  1.3014 -0.8789
  310MOL0     H42741   3.738   7.125   3.242 -1.8162 -2.4384  0.6435
  310MOL0     H42742   4.225   6.955   3.101  2.3928 -1.8431  0.7778
  310MOL0     H42743   4.422   7.025   2.956 -0.0296  2.1351 -0.4300
  310MOL0     H42744   4.370   7.094   2.521 -0.5270 -1.5274  1.1577
  310MOL0     H42745   4.305   7.232   2.605  0.6642  0.2731 -2.4150
  310MOL0     H42746   4.600   7.201   2.597 -1.5423 -2.6705  0.1300
  310MOL0     H42747   4.514   7.282   2.466  1.8758  0.2455  0.1193
  310MOL0     H42748   4.573   7.367   2.754 -0.5607 -2.0769  0.8652
  310MOL0     H42749   4.406   7.372   2.725  1.0404  2.6210  3.4999
  310MOL0     H42750   4.476   7.516   2.494  0.3383  0.3235 -0.9121
  310MOL0     H42751   4.622   7.547   2.574 -0.0904  2.5021  2.0847
  310MOL0     H42752   4.345   7.620   2.691 -0.2100 -0.3215  1.2861
  310MOL0     H42753   4.492   7.604   2.790 -1.5360  0.5627  0.1100
  310MOL0     H42754   4.608   7.783   2.668  0.3711 -0.3984  0.2797
  310MOL0     H42755   4.454   7.839   2.739 -3.5404  0.8786 -2.5841
  310MOL0     H42756   4.344   7.802   2.509 -0.2487  2.8330  0.6993
  310MOL0     H42757   4.508   7.759   2.440  2.4906  2.1218 -0.0051
  310MOL0     H42758   4.443   7.991   2.410 -2.2850  1.4645  1.6351
  310MOL0     H42759   4.597   7.970   2.495 -0.2179 -0.4550  2.2793
  310MOL0     H42760   4.181   7.027   2.614  4.1060 -2.4504 -0.3035
  310MOL0     H42761   3.979   6.955   2.743 -0.4240 -2.6078  0.5205
  310MOL0     H42762   3.773   6.845   2.849 -4.7057 -2.7797 -1.8672
  310MOL0     H42763   3.547   6.804   2.812  1.0203  0.5287 -1.4654
  310MOL0     H42764   2.054   6.256   2.864 -0.0781 -3.4622 -1.1055
  310MOL0     H42765   2.035   6.399   2.668 -0.5294 -2.8611 -0.7405
  310MOL0     H42766   2.242   6.430   2.229  0.1017  0.8360 -2.4815
  310MOL0     H42767   2.228   6.546   2.012  0.9942  0.3880 -0.7075
  310MOL0     H42768   2.269   6.672   1.827  1.6778  1.7547 -0.3450
  310MOL0     H42769   2.099   6.682   1.889 -1.2283  1.9135  0.0907
  310MOL0     H42770   2.115   6.936   1.807 -0.8188  1.4047 -4.4518
  310MOL0     H42771   2.074   6.803   1.700  1.9621 -3.1657 -0.6300
  310MOL0     H42772   2.342   6.933   1.721  3.1739 -0.3176 -2.9874
  310MOL0     H42773   2.327   6.779   1.642 -0.2854  0.4936  0.3195
  310MOL0     H42774   2.139   6.996   1.571 -0.1809  0.6116 -1.0248
  310MOL0     H42775   2.189   6.860   1.475 -1.1159  1.5581 -0.1017
  310MOL0     H42776   2.500   7.085   1.336 -1.1148 -3.6287 -4.4118
  310MOL0     H42777   2.295   6.916   2.204 -0.5192 -1.5629  0.6381
  310MOL0     H42778   2.292   6.934   2.423  0.1594  0.4050  1.2062
  310MOL0     H42779   2.268   6.812   2.527 -0.7070 -0.9932 -0.2837
  310MOL0     H42780   2.440   6.840   2.453  0.2956  0.9675 -3.6794
  311MOL0     O42781   9.179   6.022   3.594 -0.3750  0.5980  1.1462
  311MOL0     C42782   9.099   5.966   3.522  0.6116  0.2979 -0.7290
  311MOL0     O42783   9.119   5.860   3.445 -0.4899 -0.9798  0.0945
  311MOL0     C42784   9.225   5.772   3.446  0.5502 -0.3918  0.4222
  311MOL0     C42785   9.279   5.727   3.563 -0.6055  1.4031  0.0863
  311MOL0     C42786   9.386   5.635   3.566  0.0235 -0.8244  1.2529
  311MOL0     C42787   9.436   5.576   3.443 -0.4628  0.9503 -0.0668
  311MOL0     O42788   9.544   5.489   3.471 -0.2590  0.9155  0.4545
  311MOL0     C42789   9.626   5.440   3.363  0.2894 -0.3652 -1.0497
  311MOL0     C42790   9.727   5.337   3.399 -0.0257  0.6865 -0.3067
  311MOL0     C42791   9.822   5.377   3.504  0.0282  0.9504  0.1353
  311MOL0     C42792   9.916   5.257   3.564  0.6122 -0.8963  0.1436
  311MOL0     C42793  10.036   5.302   3.642 -0.1784  0.9731  0.0533
  311MOL0     C42794  10.081   5.228   3.764  0.6493 -0.5670 -0.0262
  311MOL0     C42795  10.158   5.101   3.732 -0.4895 -0.4264  0.7789
  311MOL0     C42796  10.201   5.025   3.857 -0.3589  0.0991 -0.2455
  311MOL0     N42797  10.097   4.954   3.930  0.3476 -0.6737  0.2596
  311MOL0     C42798   9.990   5.008   3.998 -0.9336  0.0227  1.1849
  311MOL0     C42799   9.933   4.907   4.065  0.5700  0.9798  0.1481
  311MOL0     C42800   9.816   4.940   4.150  0.4087 -0.3752 -0.1274
  311MOL0     C42801   9.829   4.836   4.261  1.5542 -0.1563 -0.5136
  311MOL0     C42802   9.798   4.892   4.406  0.3044  0.5525 -0.0342
  311MOL0     C42803   9.852   4.785   4.513 -0.2172  0.0936  0.0032
  311MOL0     O42804   9.809   4.821   4.644 -1.0775  0.1948  1.0468
  311MOL0     C42805   9.864   4.937   4.698  0.4784 -0.0150 -0.3916
  311MOL0     C42806   9.962   5.011   4.641 -0.1314 -1.1880 -0.2227
  311MOL0     C42807   9.995   5.141   4.681 -0.4394  0.1471  0.1925
  311MOL0     C42808  10.109   5.207   4.598  0.1808 -0.5377 -0.0640
  311MOL0     C42809   9.936   5.194   4.793 -0.1351 -0.3343 -0.7104
  311MOL0     C42810   9.976   5.332   4.849 -0.4627 -0.5303 -0.3736
  311MOL0     O42811  10.092   5.393   4.820 -0.3871  0.7194  0.0877
  311MOL0     C42812  10.109   5.521   4.868  0.3144  0.5128 -0.4183
  311MOL0     C42813  10.203   5.535   4.974  0.1660 -0.4606  0.8321
  311MOL0     C42814  10.229   5.663   5.030 -0.0770 -0.0326  0.3504
  311MOL0     C42815  10.178   5.784   4.976 -0.4042  0.0725  0.5144
  311MOL0     O42816  10.207   5.902   5.030  0.1260  0.1552  0.6218
  311MOL0     C42817  10.315   5.927   5.122  0.7897 -0.1829  0.3877
  311MOL0     C42818  10.320   6.079   5.149 -0.5239  0.0914 -0.0689
  311MOL0     C42819  10.411   6.103   5.277  0.2778  0.3155  0.1617
  311MOL0     C42820  10.465   6.248   5.288  0.3232  0.2650  0.2349
  311MOL0     C42821  10.493   6.286   5.437 -0.0697 -0.1295 -0.5206
  311MOL0     C42822  10.588   6.405   5.448 -0.8263 -0.0616 -0.0509
  311MOL0     C42823  10.512   6.540   5.446 -0.1880 -1.3914 -1.1469
  311MOL0     C42824  10.599   6.653   5.511 -0.1410  0.0443 -0.5773
  311MOL0    Cl42825  10.666   6.606   5.677  0.5441  0.2731 -0.1444
  311MOL0     C42826  10.103   5.774   4.856 -0.1111  0.4981  0.5644
  311MOL0     C42827  10.059   5.642   4.810 -0.0603 -0.0507  0.1478
  311MOL0     O42828   9.896   5.369   4.932 -0.2301 -0.4900 -0.1705
  311MOL0     C42829   9.834   5.121   4.857  0.4541 -0.0406 -0.4839
  311MOL0     C42830   9.798   4.996   4.805 -0.9122 -0.6367 -0.5238
  311MOL0     N42831   9.999   4.787   4.031  0.1051  0.3147 -0.3614
  311MOL0     N42832  10.100   4.823   3.954 -0.5352  0.2235 -0.3835
  311MOL0     C42833   9.378   5.622   3.318 -0.0769 -0.0904  0.0944
  311MOL0     C42834   9.278   5.728   3.320 -0.1073  0.2215  0.1048
  311MOL0     C42835   8.963   6.031   3.513  0.2285  0.7938  0.2035
  311MOL0     C42836   8.859   5.944   3.499  0.1252 -0.4212 -0.1262
  311MOL0     C42837   8.727   6.000   3.487  0.5533 -1.0089  0.6707
  311MOL0     C42838   8.706   6.134   3.497  0.3463 -0.2281  0.3902
  311MOL0     O42839   8.574   6.180   3.481  0.3497 -0.4985 -0.3500
  311MOL0     C42840   8.538   6.321   3.497  0.2938  0.4777  0.0762
  311MOL0     C42841   8.567   6.366   3.639 -0.6081  0.5407  0.5243
  311MOL0     C42842   8.456   6.468   3.681  0.2143 -0.3333  0.2632
  311MOL0     C42843   8.508   6.533   3.806  0.0541 -0.5479 -0.9581
  311MOL0     C42844   8.418   6.640   3.846  0.4248  0.7611 -0.7290
  311MOL0     C42845   8.324   6.712   3.875 -0.3753  0.1663 -0.0798
  311MOL0     C42846   8.819   6.219   3.513  1.1723 -0.1316  1.0049
  311MOL0     C42847   8.945   6.168   3.518 -0.0569 -0.4156  0.6310
  311MOL0     C42848   9.053   6.267   3.548  0.3542  0.3930 -1.5109
  311MOL0     H42849   9.243   5.764   3.659  0.6395  3.6244 -0.2147
  311MOL0     H42850   9.421   5.599   3.662 -1.2465 -2.4760  1.1291
  311MOL0     H42851   9.682   5.524   3.321 -1.8061  0.7174 -1.8179
  311MOL0     H42852   9.555   5.399   3.291  1.7199 -0.3322 -2.5456
  311MOL0     H42853   9.666   5.249   3.420 -1.3272  1.1544 -1.8970
  311MOL0     H42854   9.783   5.310   3.309 -0.3074 -2.3789  0.3100
  311MOL0     H42855   9.878   5.460   3.461 -3.1565  2.4579 -1.4514
  311MOL0     H42856   9.774   5.404   3.598  1.5460  1.7386  0.7114
  311MOL0     H42857   9.842   5.194   3.614 -1.8093 -1.6703 -3.9973
  311MOL0     H42858   9.944   5.182   3.490 -0.1548 -2.1555  1.0758
  311MOL0     H42859  10.006   5.399   3.682 -0.5749  0.6062  0.6480
  311MOL0     H42860  10.115   5.319   3.568 -1.0050 -0.8877 -1.3591
  311MOL0     H42861  10.136   5.305   3.819 -2.5770  2.7197 -0.9483
  311MOL0     H42862   9.986   5.207   3.815  0.2549 -1.7295 -1.1949
  311MOL0     H42863  10.251   5.138   3.688 -1.3793 -1.4127 -2.1592
  311MOL0     H42864  10.104   5.036   3.663 -0.5923 -0.1959  0.6415
  311MOL0     H42865  10.275   4.953   3.821 -0.7996  0.4993 -2.0540
  311MOL0     H42866  10.257   5.094   3.921 -0.0442  1.9329 -2.3839
  311MOL0     H42867   9.948   5.107   3.981 -1.1008 -0.3082 -0.4771
  311MOL0     H42868   9.722   4.917   4.100  1.5541 -4.1169 -0.8874
  311MOL0     H42869   9.826   5.040   4.191  2.8777 -1.2502  1.6855
  311MOL0     H42870   9.761   4.755   4.234 -1.1423  1.5567  0.7538
  311MOL0     H42871   9.927   4.786   4.266  1.1853 -1.0889 -1.9267
  311MOL0     H42872   9.840   4.993   4.414 -1.2552  1.1082  2.2631
  311MOL0     H42873   9.691   4.912   4.413  0.4251  1.2480 -0.0927
  311MOL0     H42874   9.810   4.691   4.477 -1.0077  0.8460 -1.1221
  311MOL0     H42875   9.961   4.770   4.507 -0.3342 -0.5719 -0.6308
  311MOL0     H42876  10.011   4.969   4.554  1.2120  1.7289 -1.0003
  311MOL0     H42877  10.209   5.198   4.640  0.9057  2.1596 -0.9898
  311MOL0     H42878  10.107   5.315   4.578 -1.5845 -0.9997 -2.9559
  311MOL0     H42879  10.109   5.156   4.501 -1.0510  1.7647 -1.3558
  311MOL0     H42880  10.251   5.442   5.003 -0.7959 -1.6204 -1.0943
  311MOL0     H42881  10.300   5.644   5.110 -1.4417 -3.1522  0.9460
  311MOL0     H42882  10.296   5.883   5.219  1.3766  1.9800  1.5650
  311MOL0     H42883  10.409   5.893   5.076  1.1247  2.2981 -0.9562
  311MOL0     H42884  10.359   6.124   5.058 -1.8387 -0.4980 -0.9658
  311MOL0     H42885  10.217   6.111   5.169 -0.0531 -0.5592  4.4237
  311MOL0     H42886  10.494   6.033   5.283 -1.7741 -2.6954 -3.2312
  311MOL0     H42887  10.335   6.083   5.353 -0.1895 -0.7994 -0.5823
  311MOL0     H42888  10.393   6.320   5.245 -2.0785 -1.0137  1.8936
  311MOL0     H42889  10.556   6.255   5.229  1.6142 -2.0141  1.8421
  311MOL0     H42890  10.401   6.304   5.493 -0.0087  0.1012 -0.4942
  311MOL0     H42891  10.542   6.199   5.480 -0.4666 -0.0656  0.0674
  311MOL0     H42892  10.657   6.398   5.364  1.0171  1.7417  1.2279
  311MOL0     H42893  10.647   6.400   5.540  0.3377  0.5513 -0.7499
  311MOL0     H42894  10.434   6.537   5.522  0.2555  0.3003 -0.5986
  311MOL0     H42895  10.457   6.569   5.356 -1.9207 -0.1375  0.2439
  311MOL0     H42896  10.540   6.743   5.529  1.1472  0.3038  3.5174
  311MOL0     H42897  10.681   6.687   5.446  0.0179  0.2025 -0.2986
  311MOL0     H42898  10.063   5.857   4.798  4.0173 -0.3169 -4.0744
  311MOL0     H42899   9.994   5.634   4.724 -0.8095  1.4648  0.5266
  311MOL0     H42900   9.785   5.162   4.945 -2.7583  2.0399 -2.9627
  311MOL0     H42901   9.724   4.939   4.861  0.7291 -3.8788 -1.4028
  311MOL0     H42902   9.421   5.594   3.223  1.0253 -2.4703  1.2012
  311MOL0     H42903   9.243   5.768   3.226 -1.8334  2.3084  1.5474
  311MOL0     H42904   8.856   5.836   3.499 -2.1561 -0.4538  2.1183
  311MOL0     H42905   8.647   5.927   3.495  0.1826 -0.4520  2.7243
  311MOL0     H42906   8.599   6.389   3.438 -2.3886  2.9690 -0.0221
  311MOL0     H42907   8.434   6.332   3.462  0.8622 -1.3438 -2.5195
  311MOL0     H42908   8.666   6.410   3.655  1.6314 -2.7528 -2.6221
  311MOL0     H42909   8.562   6.283   3.710 -3.4099 -0.5133 -0.7285
  311MOL0     H42910   8.438   6.534   3.596 -0.2802  1.2779  1.5706
  311MOL0     H42911   8.361   6.418   3.703 -0.3227  0.4927 -0.1365
  311MOL0     H42912   8.608   6.576   3.808  0.0835 -0.5792  0.9534
  311MOL0     H42913   8.511   6.468   3.895  1.1799  0.6697 -0.0749
  311MOL0     H42914   8.238   6.775   3.891  0.2692  2.4822 -4.1199
  311MOL0     H42915   8.808   6.324   3.535 -0.8733  0.0809 -0.6436
  311MOL0     H42916   9.124   6.276   3.464 -0.9582  2.5695 -2.4754
  311MOL0     H42917   9.009   6.366   3.559 -1.2525 -0.6259  3.1164
  311MOL0     H42918   9.102   6.254   3.645  0.1643 -1.9732 -1.6783
  312MOL0     O42919   2.147   5.594   0.812 -0.1080  0.4233  0.6896
  312MOL0     C42920   2.068   5.507   0.834  0.2491 -0.6005  0.1337
  312MOL0     O42921   2.091   5.403   0.906  0.4105  0.0905 -0.0516
  312MOL0     C42922   2.214   5.388   0.967  0.3720 -0.7789 -0.0187
  312MOL0     C42923   2.252   5.492   1.061 -0.5591 -0.0734 -0.2097
  312MOL0     C42924   2.367   5.478   1.134 -0.6183  0.3500  0.8577
  312MOL0     C42925   2.454   5.372   1.112 -0.5542  0.3324 -0.8849
  312MOL0     O42926   2.572   5.363   1.178  0.4346  0.2451 -0.1011
  312MOL0     C42927   2.696   5.379   1.109  0.5467 -0.3209 -0.3376
  312MOL0     C42928   2.804   5.278   1.171 -0.1388 -0.5983  0.3301
  312MOL0     C42929   2.942   5.298   1.110  0.8682  0.3879  0.8032
  312MOL0     C42930   2.945   5.221   0.974  0.4110  0.1330  0.8523
  312MOL0     C42931   3.081   5.221   0.903  0.6545  1.6442 -0.0100
  312MOL0     C42932   3.163   5.110   0.975  0.7922  0.2202 -0.7387
  312MOL0     C42933   3.297   5.079   0.906  0.1516  0.4618 -1.3996
  312MOL0     C42934   3.391   5.037   1.014  0.6415  0.0459  0.1159
  312MOL0     N42935   3.519   5.002   0.957  0.8016 -0.4638 -0.2759
  312MOL0     C42936   3.552   4.887   0.889 -0.1991 -0.0558 -0.3555
  312MOL0     C42937   3.666   4.918   0.825  0.2199 -0.0311 -1.0361
  312MOL0     C42938   3.714   4.842   0.698  0.2782  0.3080 -0.3462
  312MOL0     C42939   3.828   4.919   0.624 -0.2175  0.2397  0.0909
  312MOL0     C42940   3.965   4.939   0.683 -0.0107 -0.4562 -0.2392
  312MOL0     C42941   4.038   5.058   0.614  0.2644  0.3515 -0.1815
  312MOL0     O42942   4.174   5.019   0.605  0.0975 -0.2017 -0.3475
  312MOL0     C42943   4.261   5.120   0.581  0.0544 -0.9877 -0.5435
  312MOL0     C42944   4.393   5.072   0.559  0.1418  0.5547  0.2062
  312MOL0     C42945   4.500   5.151   0.520 -0.3831 -0.2073  0.4385
  312MOL0     C42946   4.634   5.089   0.508  0.0482  1.3472  0.5436
  312MOL0     C42947   4.482   5.290   0.505 -0.0813 -0.0855 -0.9008
  312MOL0     C42948   4.594   5.385   0.469  0.1400 -0.3476 -0.7533
  312MOL0     O42949   4.563   5.514   0.501 -0.1315  0.1886 -0.0345
  312MOL0     C42950   4.638   5.617   0.440 -1.1300  0.4731 -0.4965
  312MOL0     C42951   4.575   5.685   0.335  0.6893 -0.0669  0.6269
  312MOL0     C42952   4.641   5.786   0.264  0.4339  1.0481  0.0587
  312MOL0     C42953   4.762   5.836   0.311 -1.1593  0.1085 -0.9987
  312MOL0     O42954   4.823   5.926   0.227  0.9190 -0.3400 -0.1554
  312MOL0     C42955   4.958   5.973   0.246 -0.1279  0.0671 -0.8418
  312MOL0     C42956   5.060   5.899   0.156 -0.1245 -0.3103 -0.8069
  312MOL0     C42957   5.055   5.941   0.009  0.2609 -0.3978  0.3419
  312MOL0     C42958   4.982   5.844  -0.068  0.4887 -0.7439 -0.2348
  312MOL0     C42959   4.961   5.912  -0.210  0.0286  0.3805  1.0893
  312MOL0     C42960   4.899   5.796  -0.308 -0.8365  0.1902  0.8418
  312MOL0     C42961   4.861   5.849  -0.448 -0.2055 -0.9717  0.1806
  312MOL0     C42962   4.796   5.747  -0.534  0.9191  0.4643  0.4438
  312MOL0    Cl42963   4.915   5.672  -0.626 -0.2427 -0.2455  0.4043
  312MOL0     C42964   4.817   5.781   0.427 -0.0663  0.1581 -0.3388
  312MOL0     C42965   4.764   5.668   0.493 -0.7561  0.1333 -0.4875
  312MOL0     O42966   4.696   5.353   0.408 -0.9446  0.3017  0.1097
  312MOL0     C42967   4.355   5.342   0.542 -0.4077 -0.0893  0.6946
  312MOL0     C42968   4.248   5.261   0.574 -0.3956  0.7910 -0.7281
  312MOL0     N42969   3.714   5.039   0.880 -0.1389  0.1502 -0.1235
  312MOL0     N42970   3.624   5.089   0.954 -0.9074  0.7524  0.7331
  312MOL0     C42971   2.423   5.278   1.004 -1.5339 -0.4461 -0.1902
  312MOL0     C42972   2.307   5.293   0.927 -0.7935  0.0454  0.4258
  312MOL0     C42973   1.934   5.537   0.772 -1.3035  0.1878 -0.7358
  312MOL0     C42974   1.909   5.651   0.688 -0.0310  0.4565 -0.8840
  312MOL0     C42975   1.783   5.679   0.654 -0.4095  0.1720 -0.1550
  312MOL0     C42976   1.673   5.618   0.696  0.1192  0.2608  1.2471
  312MOL0     O42977   1.553   5.684   0.681 -0.0815 -0.2696  0.0677
  312MOL0     C42978   1.441   5.629   0.750  0.2916  1.1712  0.1683
  312MOL0     C42979   1.451   5.664   0.902  0.7099 -0.0469 -0.9870
  312MOL0     C42980   1.369   5.792   0.913  0.2597  0.6408  0.2709
  312MOL0     C42981   1.447   5.922   0.863 -0.8051  0.7863  0.2002
  312MOL0     C42982   1.369   5.970   0.748 -0.5432 -0.3373 -0.3017
  312MOL0     C42983   1.299   6.011   0.659 -0.6656  0.3277  0.0128
  312MOL0     C42984   1.698   5.502   0.768 -0.6418 -0.0950  0.2679
  312MOL0     C42985   1.822   5.452   0.804 -0.6879 -0.2613  0.1715
  312MOL0     C42986   1.831   5.322   0.887 -0.4593 -0.0809 -0.2859
  312MOL0     H42987   2.183   5.575   1.075 -0.2628  0.1131  0.1578
  312MOL0     H42988   2.383   5.557   1.206 -2.6792  0.3677  1.3599
  312MOL0     H42989   2.727   5.483   1.123 -0.8378 -0.1843  2.3197
  312MOL0     H42990   2.697   5.345   1.005  2.9382  2.2605 -1.2732
  312MOL0     H42991   2.819   5.293   1.279  0.3289 -0.7641  0.2903
  312MOL0     H42992   2.777   5.174   1.152 -0.5404 -0.5300  0.5136
  312MOL0     H42993   2.974   5.403   1.107 -1.2696  1.0610 -0.2831
  312MOL0     H42994   3.002   5.247   1.187 -0.3694 -0.8608  0.9741
  312MOL0     H42995   2.910   5.120   0.997  0.0982  0.7186  3.2538
  312MOL0     H42996   2.875   5.259   0.899 -0.6904 -2.3783  0.5326
  312MOL0     H42997   3.131   5.319   0.909  1.0434  1.3889  1.1797
  312MOL0     H42998   3.075   5.199   0.796  0.7648  4.0181 -0.5617
  312MOL0     H42999   3.170   5.151   1.076 -2.0249 -0.6447 -0.1069
  312MOL0     H43000   3.096   5.024   0.988  1.2231 -0.1088 -0.6740
  312MOL0     H43001   3.329   5.171   0.857  3.8805  2.3485  3.6802
  312MOL0     H43002   3.277   4.994   0.840  0.6378 -1.2520  0.5695
  312MOL0     H43003   3.410   5.126   1.075 -0.0314 -0.4353  1.0611
  312MOL0     H43004   3.352   4.970   1.091 -0.4039  1.5070  0.9163
  312MOL0     H43005   3.476   4.816   0.858 -0.1921 -0.1978 -0.0506
  312MOL0     H43006   3.629   4.835   0.630  0.5136 -0.9179 -0.5232
  312MOL0     H43007   3.742   4.739   0.721 -0.1356  0.4124  0.6773
  312MOL0     H43008   3.848   4.861   0.534  1.3513 -0.3746  0.8002
  312MOL0     H43009   3.800   5.021   0.599  1.7812  2.0191  4.0904
  312MOL0     H43010   3.968   4.944   0.792  1.2345 -0.6602 -0.2492
  312MOL0     H43011   4.022   4.852   0.649  3.0027  0.8677  1.0954
  312MOL0     H43012   4.000   5.062   0.512  0.5163 -0.1785 -0.3034
  312MOL0     H43013   4.016   5.156   0.657  1.0084  1.4137 -2.1080
  312MOL0     H43014   4.410   4.965   0.548 -0.9578  0.4037 -0.0994
  312MOL0     H43015   4.655   5.077   0.401  0.6595  3.3929  0.3911
  312MOL0     H43016   4.641   4.989   0.552 -0.5914  0.5552 -1.0828
  312MOL0     H43017   4.713   5.153   0.549 -0.0090  1.9139 -0.2109
  312MOL0     H43018   4.488   5.645   0.283  1.9252  1.4354 -2.8292
  312MOL0     H43019   4.609   5.824   0.167 -1.3994 -0.7307 -0.1004
  312MOL0     H43020   4.959   6.079   0.220 -0.5791 -0.5967 -3.9801
  312MOL0     H43021   4.977   5.956   0.353  1.3496 -0.9243 -1.2296
  312MOL0     H43022   5.162   5.920   0.190 -1.1869  3.4461  0.5524
  312MOL0     H43023   5.028   5.795   0.164  1.6353 -1.0131 -2.1183
  312MOL0     H43024   5.155   5.939  -0.034 -0.5215 -2.7017 -1.5847
  312MOL0     H43025   5.010   6.040  -0.003 -3.8554 -1.7983  2.3683
  312MOL0     H43026   4.883   5.818  -0.029 -0.9770  2.6240 -1.3685
  312MOL0     H43027   5.028   5.744  -0.065  2.4003 -0.0561 -2.7946
  312MOL0     H43028   4.893   5.997  -0.207 -0.0941  0.3345  0.1020
  312MOL0     H43029   5.054   5.954  -0.250  0.1808  0.1043  1.1492
  312MOL0     H43030   4.806   5.752  -0.272 -1.5015  1.0174  0.1682
  312MOL0     H43031   4.982   5.725  -0.317  0.6729  2.0850 -1.7003
  312MOL0     H43032   4.947   5.892  -0.499 -1.2867  3.1765  1.4655
  312MOL0     H43033   4.791   5.929  -0.423  0.8401 -0.4504  1.5842
  312MOL0     H43034   4.721   5.791  -0.600  1.2636 -0.3400 -0.5073
  312MOL0     H43035   4.742   5.673  -0.474  0.3826  0.7053  0.2651
  312MOL0     H43036   4.917   5.806   0.462 -0.7639 -0.6821  2.5337
  312MOL0     H43037   4.807   5.620   0.580 -2.3767  0.4869  0.5410
  312MOL0     H43038   4.334   5.449   0.543  2.1268  0.5964 -2.2273
  312MOL0     H43039   4.157   5.317   0.593 -0.2926  0.5825  0.4565
  312MOL0     H43040   2.500   5.206   0.981  0.3126  1.4151 -0.1299
  312MOL0     H43041   2.303   5.217   0.849  0.6210 -0.8441  1.1837
  312MOL0     H43042   1.994   5.710   0.655  1.2871 -0.5217  0.5988
  312MOL0     H43043   1.770   5.780   0.616  1.9989  0.7695  0.4446
  312MOL0     H43044   1.343   5.652   0.706  1.6700  2.6742 -2.3951
  312MOL0     H43045   1.445   5.520   0.742 -1.7620  0.9665  1.2631
  312MOL0     H43046   1.554   5.670   0.939  0.6225  1.3671 -0.9142
  312MOL0     H43047   1.408   5.578   0.954  0.5984  0.2631 -0.5626
  312MOL0     H43048   1.275   5.768   0.862  0.3710 -2.0712  1.1974
  312MOL0     H43049   1.329   5.799   1.015  1.4294 -0.1047  0.8036
  312MOL0     H43050   1.554   5.922   0.841 -0.4665  1.9037  1.6649
  312MOL0     H43051   1.438   5.992   0.946  1.3005  0.3079  0.9026
  312MOL0     H43052   1.255   6.077   0.587 -0.1467  1.1238  0.4007
  312MOL0     H43053   1.611   5.440   0.787 -1.9743  2.0208  1.5375
  312MOL0     H43054   1.879   5.345   0.983  0.6345  0.8007 -1.0132
  312MOL0     H43055   1.728   5.294   0.910 -0.4176  0.1527  0.1898
  312MOL0     H43056   1.888   5.241   0.841 -0.2222 -1.2491  1.9184
  313MOL0     O43057   5.383   2.162   4.381 -0.6599 -0.3150 -0.1046
  313MOL0     C43058   5.484   2.223   4.345 -0.2906 -1.0021 -1.0363
  313MOL0     O43059   5.549   2.317   4.425 -0.3595 -0.5302 -0.1508
  313MOL0     C43060   5.514   2.326   4.563 -0.4107  0.6850  0.5402
  313MOL0     C43061   5.486   2.209   4.639 -0.5254 -0.2138  0.1037
  313MOL0     C43062   5.466   2.218   4.778 -0.6987  0.0261  0.0512
  313MOL0     C43063   5.500   2.339   4.844 -0.1816 -0.1755 -0.2766
  313MOL0     O43064   5.500   2.355   4.983 -0.1577  1.0152  0.1639
  313MOL0     C43065   5.542   2.241   5.061  0.2046 -0.7454 -0.6111
  313MOL0     C43066   5.526   2.269   5.211 -0.2463  0.3430 -0.2938
  313MOL0     C43067   5.615   2.388   5.252 -0.5724  0.1738  0.1283
  313MOL0     C43068   5.558   2.449   5.381  0.5593  0.4771  0.3284
  313MOL0     C43069   5.563   2.347   5.491  0.3147 -1.1022  0.1863
  313MOL0     C43070   5.518   2.421   5.621  0.9666 -0.8055 -0.3871
  313MOL0     C43071   5.436   2.315   5.708  0.0815  0.2378  0.3673
  313MOL0     C43072   5.517   2.196   5.759 -0.4327 -0.1418  0.5560
  313MOL0     N43073   5.636   2.229   5.846  0.7558 -0.1029 -0.2434
  313MOL0     C43074   5.633   2.205   5.979 -0.6830 -0.6637 -0.3066
  313MOL0     C43075   5.753   2.252   6.019 -0.1532  0.5719 -1.9725
  313MOL0     C43076   5.830   2.204   6.143 -0.4727  0.0310 -0.0711
  313MOL0     C43077   5.743   2.236   6.270 -0.1381  0.7115  1.4273
  313MOL0     C43078   5.816   2.198   6.389  0.1761 -0.0273 -0.0675
  313MOL0     C43079   5.755   2.230   6.515  0.5947 -0.2598  0.1420
  313MOL0     O43080   5.712   2.368   6.538 -0.3246  0.6973  0.7038
  313MOL0     C43081   5.818   2.449   6.583  0.1384  0.5291 -0.1879
  313MOL0     C43082   5.813   2.577   6.539  0.0709 -0.2304  1.0909
  313MOL0     C43083   5.912   2.672   6.557  0.2954 -0.1486 -0.1602
  313MOL0     C43084   5.886   2.815   6.499 -0.3686 -0.5448 -0.7837
  313MOL0     C43085   6.025   2.633   6.625 -0.5513 -0.1823 -0.2665
  313MOL0     C43086   6.145   2.716   6.651  0.7633 -1.0342  0.0335
  313MOL0     O43087   6.237   2.671   6.745  0.2320  0.1403  0.3002
  313MOL0     C43088   6.365   2.715   6.728  0.4328  0.1329  1.3642
  313MOL0     C43089   6.412   2.797   6.821 -0.5786  0.2226 -0.7825
  313MOL0     C43090   6.548   2.836   6.827 -0.5613  0.2685 -0.3406
  313MOL0     C43091   6.648   2.775   6.746  0.1471  0.2054 -0.4234
  313MOL0     O43092   6.782   2.806   6.754  0.1043 -0.0914 -1.0077
  313MOL0     C43093   6.819   2.930   6.821 -0.3961  0.1650 -0.3286
  313MOL0     C43094   6.972   2.937   6.832  0.2664  0.1725  0.2152
  313MOL0     C43095   7.033   3.072   6.885 -0.4237  0.8581 -0.6124
  313MOL0     C43096   7.008   3.099   7.038 -0.7072 -0.2691  0.5303
  313MOL0     C43097   7.076   3.237   7.063 -0.3812 -0.0957 -0.0134
  313MOL0     C43098   7.077   3.268   7.218  0.6687  0.5665 -0.2283
  313MOL0     C43099   6.944   3.240   7.296  0.6008  0.0845 -0.6807
  313MOL0     C43100   6.947   3.308   7.441  0.8526  0.9319  0.2756
  313MOL0    Cl43101   7.063   3.205   7.533 -0.2247  0.3082 -0.1295
  313MOL0     C43102   6.587   2.678   6.655  0.4427  0.1971 -0.3911
  313MOL0     C43103   6.458   2.647   6.645  1.0072  1.2032 -0.1442
  313MOL0     O43104   6.164   2.816   6.582  0.2286  0.1972  0.7961
  313MOL0     C43105   6.036   2.499   6.674  0.0209  0.1777 -0.6402
  313MOL0     C43106   5.942   2.409   6.642 -0.5893  0.3609  0.9016
  313MOL0     N43107   5.816   2.323   5.914  0.1633 -0.3070  0.3507
  313MOL0     N43108   5.738   2.312   5.817  0.1881 -0.2041 -0.1847
  313MOL0     C43109   5.530   2.454   4.770  0.0600  0.1215  0.5432
  313MOL0     C43110   5.530   2.454   4.630  0.1717 -1.0927  0.4068
  313MOL0     C43111   5.545   2.168   4.221  0.4613  0.1818  0.7218
  313MOL0     C43112   5.464   2.111   4.122  0.3308  0.2550  0.8262
  313MOL0     C43113   5.522   2.075   4.000  0.4868  0.4770 -0.2088
  313MOL0     C43114   5.657   2.089   3.973  1.1481 -0.5828 -0.0581
  313MOL0     O43115   5.725   2.082   3.851  0.2116  0.0915  0.8016
  313MOL0     C43116   5.651   2.072   3.722  0.5412 -0.3440 -0.2077
  313MOL0     C43117   5.579   1.933   3.693 -0.2098 -0.9148  0.5177
  313MOL0     C43118   5.671   1.808   3.733  0.0718  0.1765 -0.5526
  313MOL0     C43119   5.628   1.728   3.854 -0.8070  0.0333  0.3204
  313MOL0     C43120   5.501   1.667   3.848  0.2219  1.3479  0.1305
  313MOL0     C43121   5.393   1.605   3.848 -0.3641  0.4258 -0.2524
  313MOL0     C43122   5.732   2.137   4.074  0.2915  0.6999  0.9579
  313MOL0     C43123   5.682   2.182   4.201 -0.5747 -0.8441 -0.1238
  313MOL0     C43124   5.786   2.214   4.322  0.2764  0.6320  0.1081
  313MOL0     H43125   5.469   2.110   4.597 -4.2939  0.5030 -0.3967
  313MOL0     H43126   5.423   2.135   4.832 -1.9865 -0.3246 -1.4631
  313MOL0     H43127   5.650   2.234   5.045  0.4777  2.4330 -0.7538
  313MOL0     H43128   5.476   2.156   5.041 -0.1492 -0.5814 -0.1586
  313MOL0     H43129   5.423   2.287   5.244 -1.2545 -4.2694 -0.2075
  313MOL0     H43130   5.553   2.182   5.272 -3.3339 -1.4313 -1.2526
  313MOL0     H43131   5.710   2.334   5.268 -0.5648  0.5194  1.3997
  313MOL0     H43132   5.613   2.467   5.177  2.3948  2.4048  2.1791
  313MOL0     H43133   5.612   2.540   5.408  3.2275 -1.1600  0.9229
  313MOL0     H43134   5.454   2.475   5.359  0.1970  0.4612  1.8995
  313MOL0     H43135   5.664   2.311   5.513 -0.4393 -0.9377  5.0628
  313MOL0     H43136   5.491   2.267   5.474 -3.9043  2.3262  0.0242
  313MOL0     H43137   5.595   2.476   5.675 -1.0103  0.0307  1.7581
  313MOL0     H43138   5.448   2.502   5.596  1.4579 -0.2129  0.1221
  313MOL0     H43139   5.352   2.280   5.647  0.2820 -0.5164  0.5226
  313MOL0     H43140   5.397   2.360   5.800 -0.9315  1.5824 -0.6753
  313MOL0     H43141   5.447   2.124   5.803  0.3636 -0.6636  0.9923
  313MOL0     H43142   5.543   2.151   5.662 -0.7649 -1.7827  1.1992
  313MOL0     H43143   5.573   2.138   6.040  1.0525 -0.5109  1.7411
  313MOL0     H43144   5.911   2.277   6.152 -0.1206 -0.2533 -0.8506
  313MOL0     H43145   5.865   2.101   6.137  2.5968  0.7414  2.9924
  313MOL0     H43146   5.693   2.334   6.276  1.1844  1.6183 -1.0229
  313MOL0     H43147   5.657   2.168   6.266  1.6322 -1.5884 -1.0086
  313MOL0     H43148   5.823   2.090   6.407 -1.5562 -0.2267 -0.4211
  313MOL0     H43149   5.913   2.247   6.373 -0.8976  2.0312 -0.5592
  313MOL0     H43150   5.664   2.170   6.529 -2.3689  3.4397 -1.3965
  313MOL0     H43151   5.809   2.189   6.600 -1.8395 -3.6488  0.2612
  313MOL0     H43152   5.733   2.616   6.478  0.7934 -0.0035  0.2603
  313MOL0     H43153   5.898   2.885   6.582 -0.5000  0.3152 -1.4738
  313MOL0     H43154   5.782   2.807   6.465 -0.4710  1.7006 -1.1021
  313MOL0     H43155   5.956   2.827   6.415  2.5926 -2.1399  1.2741
  313MOL0     H43156   6.333   2.850   6.874 -0.9629  0.1260 -1.2510
  313MOL0     H43157   6.587   2.908   6.898 -0.2022  0.1378 -0.3991
  313MOL0     H43158   6.779   3.012   6.761  2.6330  1.5867 -0.5839
  313MOL0     H43159   6.792   2.951   6.925  2.2955  1.6898  0.1642
  313MOL0     H43160   7.003   2.857   6.899  0.9290 -1.9669 -2.4888
  313MOL0     H43161   7.029   2.915   6.742 -1.1634 -0.1632 -0.6353
  313MOL0     H43162   6.990   3.159   6.835  0.4919  0.8167 -1.4882
  313MOL0     H43163   7.137   3.071   6.852 -0.7457  1.2525 -1.6565
  313MOL0     H43164   7.056   3.024   7.101  1.0349 -0.6888 -1.2217
  313MOL0     H43165   6.899   3.093   7.044 -0.7347 -1.0313 -0.4996
  313MOL0     H43166   7.180   3.234   7.032 -0.5502 -1.9632 -0.5471
  313MOL0     H43167   7.022   3.307   6.999 -4.2199 -2.5598  0.1817
  313MOL0     H43168   7.129   3.361   7.240  1.7031 -0.1723  0.5378
  313MOL0     H43169   7.149   3.203   7.268  0.6713  0.9161  0.2250
  313MOL0     H43170   6.923   3.134   7.315  2.1492  0.3164  3.0220
  313MOL0     H43171   6.865   3.294   7.244  0.1392  1.7583  1.6193
  313MOL0     H43172   6.844   3.304   7.476  1.0358 -1.9033  0.7494
  313MOL0     H43173   6.983   3.411   7.434 -1.8958  2.0328  1.1897
  313MOL0     H43174   6.648   2.627   6.581  1.6931 -1.7300  1.8350
  313MOL0     H43175   6.429   2.563   6.583 -0.7639  1.7004 -0.0586
  313MOL0     H43176   6.133   2.466   6.710 -0.2886 -1.6308 -1.3694
  313MOL0     H43177   5.973   2.307   6.662  0.7379  0.6953  0.6241
  313MOL0     H43178   5.560   2.549   4.813 -1.3293  0.7140  0.2729
  313MOL0     H43179   5.529   2.538   4.562 -0.5565 -1.4225 -0.0077
  313MOL0     H43180   5.357   2.093   4.129 -0.1791  0.1397 -3.8220
  313MOL0     H43181   5.460   2.037   3.920 -0.3186 -2.2053  1.5382
  313MOL0     H43182   5.573   2.149   3.724  1.2637  0.5182 -2.3437
  313MOL0     H43183   5.716   2.083   3.635  3.1647 -4.8663  0.8495
  313MOL0     H43184   5.560   1.928   3.586  1.6389 -4.9671  0.2071
  313MOL0     H43185   5.482   1.937   3.743 -1.5734  1.7719 -2.0457
  313MOL0     H43186   5.685   1.728   3.660  3.6337 -1.3534  1.5152
  313MOL0     H43187   5.774   1.844   3.742  0.4606 -0.4813 -2.1161
  313MOL0     H43188   5.625   1.791   3.943  0.6384 -1.2622  1.3578
  313MOL0     H43189   5.695   1.643   3.874  0.4877  1.3883  2.0117
  313MOL0     H43190   5.300   1.551   3.844 -1.0275  1.4325  0.9659
  313MOL0     H43191   5.839   2.138   4.054 -0.0335 -1.5765 -1.3371
  313MOL0     H43192   5.879   2.162   4.297 -0.3297  1.1019 -3.6478
  313MOL0     H43193   5.809   2.320   4.310 -3.5571  1.9505  2.5701
  313MOL0     H43194   5.759   2.181   4.423  2.0630  2.8469  1.4036
  314MOL0     O43195   1.230   0.496   3.721 -0.3554  0.4257 -0.3210
  314MOL0     C43196   1.118   0.526   3.672 -0.0671  0.5764  0.4610
  314MOL0     O43197   1.054   0.452   3.579  0.5907  0.5314  0.3911
  314MOL0     C43198   1.122   0.337   3.535  0.0115 -0.1101 -0.3363
  314MOL0     C43199   1.093   0.221   3.602  0.8061  0.6169 -0.2272
  314MOL0     C43200   1.169   0.108   3.567 -0.2591  0.1820  0.3143
  314MOL0     C43201   1.262   0.106   3.464  0.9390  0.2862  0.3503
  314MOL0     O43202   1.340  -0.016   3.458  0.0880 -0.8725 -0.6760
  314MOL0     C43203   1.431  -0.040   3.354 -1.2791  1.2533  0.5139
  314MOL0     C43204   1.588  -0.056   3.390  0.1978 -0.6519 -0.3598
  314MOL0     C43205   1.656   0.074   3.376 -0.7048  0.5338  0.0187
  314MOL0     C43206   1.809   0.054   3.364  0.1535  0.0063 -0.4941
  314MOL0     C43207   1.895   0.183   3.353  1.2083 -0.5314 -0.3906
  314MOL0     C43208   1.865   0.264   3.223 -0.5052 -0.3267  0.4560
  314MOL0     C43209   1.956   0.372   3.190 -0.5186 -1.6640 -0.3547
  314MOL0     C43210   2.107   0.355   3.194  0.1956  0.5696  0.8013
  314MOL0     N43211   2.173   0.473   3.123  0.2128  0.1390 -0.5850
  314MOL0     C43212   2.235   0.575   3.192 -0.4966  0.7128 -0.0958
  314MOL0     C43213   2.266   0.658   3.095  0.3866 -0.7634  0.2558
  314MOL0     C43214   2.356   0.766   3.139  0.4631 -0.2603  0.7084
  314MOL0     C43215   2.448   0.812   3.034  0.9766 -0.7044  0.4772
  314MOL0     C43216   2.538   0.694   2.986  0.4969 -0.7506  0.0431
  314MOL0     C43217   2.648   0.741   2.895 -0.3426 -0.0673  0.3572
  314MOL0     O43218   2.726   0.838   2.978 -0.0453  0.2886 -0.0805
  314MOL0     C43219   2.834   0.807   3.050  0.3011 -0.4321  1.1821
  314MOL0     C43220   2.872   0.882   3.162  0.1251 -0.0941 -0.4458
  314MOL0     C43221   2.996   0.873   3.220 -0.9523  0.3518 -0.4353
  314MOL0     C43222   3.022   0.954   3.338  0.2007 -0.4031  0.4815
  314MOL0     C43223   3.091   0.783   3.170 -0.2852 -0.8389  0.4302
  314MOL0     C43224   3.229   0.756   3.213  0.2110  0.0200  0.4120
  314MOL0     O43225   3.314   0.714   3.112  0.0792 -0.4196 -0.6847
  314MOL0     C43226   3.445   0.699   3.149  0.2015 -0.7110  0.6806
  314MOL0     C43227   3.476   0.589   3.235  0.1476 -0.9738 -1.0377
  314MOL0     C43228   3.606   0.565   3.283  0.2311 -0.5866 -0.0869
  314MOL0     C43229   3.710   0.665   3.265 -0.0112  0.8322 -0.0619
  314MOL0     O43230   3.835   0.660   3.316  0.0659 -0.5325  0.6303
  314MOL0     C43231   3.889   0.541   3.370 -0.6499  0.0796  0.5220
  314MOL0     C43232   3.956   0.456   3.260 -0.2764 -0.5388 -0.4126
  314MOL0     C43233   3.993   0.311   3.307 -0.4026  0.1637  0.2184
  314MOL0     C43234   3.868   0.231   3.294  0.7183 -0.6958 -0.9006
  314MOL0     C43235   3.883   0.094   3.358 -0.1921  0.2495  0.4428
  314MOL0     C43236   3.741   0.025   3.359  0.7205 -0.3576  0.1932
  314MOL0     C43237   3.718  -0.081   3.467  0.4041 -0.4489 -0.4499
  314MOL0     C43238   3.778  -0.221   3.429 -0.1128 -0.3905 -0.3134
  314MOL0    Cl43239   3.745  -0.325   3.580  0.2707 -0.2629 -0.2053
  314MOL0     C43240   3.680   0.766   3.169 -0.8881 -0.9038  0.9200
  314MOL0     C43241   3.552   0.787   3.113  0.2807  1.0411  0.1191
  314MOL0     O43242   3.265   0.786   3.323 -0.7532  0.7769 -1.2068
  314MOL0     C43243   3.054   0.721   3.051  0.2688  0.0443 -0.3767
  314MOL0     C43244   2.932   0.737   2.986 -0.7208 -0.6285 -0.0627
  314MOL0     N43245   2.237   0.608   2.970  0.3201 -0.8577  0.6218
  314MOL0     N43246   2.180   0.500   2.989 -0.7633 -0.5595 -0.4115
  314MOL0     C43247   1.282   0.231   3.400 -1.0768  0.5722 -0.1756
  314MOL0     C43248   1.230   0.349   3.446  1.4935  0.5532 -0.2536
  314MOL0     C43249   1.055   0.646   3.734 -0.0053 -0.1286 -0.9231
  314MOL0     C43250   1.131   0.763   3.767 -0.5105  0.0593  0.3463
  314MOL0     C43251   1.067   0.876   3.814  0.0654 -0.5764 -0.1541
  314MOL0     C43252   0.930   0.875   3.839  0.8865 -0.0045  0.5009
  314MOL0     O43253   0.879   0.992   3.885 -0.4864 -0.2265  0.0466
  314MOL0     C43254   0.852   0.980   4.025  0.6780  0.8929 -0.1094
  314MOL0     C43255   0.699   0.977   4.051 -1.4462  0.7662  0.3931
  314MOL0     C43256   0.635   1.107   3.997  0.1949  0.2833 -0.3257
  314MOL0     C43257   0.572   1.090   3.858 -0.4715  0.3866  0.6166
  314MOL0     C43258   0.529   1.218   3.808  0.9088  0.2215  0.2286
  314MOL0     C43259   0.490   1.328   3.763 -0.2856  0.4504 -0.7672
  314MOL0     C43260   0.845   0.773   3.802  0.2401  0.2777 -1.1187
  314MOL0     C43261   0.911   0.655   3.747  0.3203  0.6460 -0.6611
  314MOL0     C43262   0.810   0.547   3.714  0.5123  0.7423 -0.1252
  314MOL0     H43263   1.027   0.205   3.686  0.0421  2.6905 -0.3737
  314MOL0     H43264   1.144   0.014   3.615 -0.1196  0.3423  0.7101
  314MOL0     H43265   1.413   0.029   3.271  0.3176  3.7769  2.1485
  314MOL0     H43266   1.404  -0.138   3.313  1.1711  1.1432 -1.0523
  314MOL0     H43267   1.602  -0.093   3.493  2.4990 -0.9837 -0.7356
  314MOL0     H43268   1.631  -0.136   3.328  1.2504  0.4845 -1.1396
  314MOL0     H43269   1.608   0.122   3.291 -0.1414 -0.4815 -0.9006
  314MOL0     H43270   1.631   0.126   3.468 -1.3443 -2.0118  1.3903
  314MOL0     H43271   1.844   0.009   3.458 -0.5620 -2.9032 -1.5392
  314MOL0     H43272   1.831  -0.024   3.291 -1.2292  1.0127 -2.0437
  314MOL0     H43273   2.000   0.158   3.366  0.5061 -2.4276  2.6966
  314MOL0     H43274   1.863   0.255   3.429 -0.6420  2.1342 -3.4469
  314MOL0     H43275   1.868   0.204   3.132 -2.0867  2.5625 -1.6732
  314MOL0     H43276   1.765   0.308   3.227 -0.7692 -0.9687  3.5039
  314MOL0     H43277   1.934   0.456   3.256 -4.5785 -3.6750  1.2070
  314MOL0     H43278   1.932   0.400   3.087 -1.3493 -1.6774 -0.1732
  314MOL0     H43279   2.152   0.366   3.294  1.8365  3.8234 -0.1512
  314MOL0     H43280   2.135   0.259   3.150  0.1636  1.5637 -1.5147
  314MOL0     H43281   2.264   0.586   3.296 -1.4425  0.9266  0.1567
  314MOL0     H43282   2.415   0.729   3.224 -1.2133 -1.6647  1.3195
  314MOL0     H43283   2.297   0.849   3.179 -2.0986 -2.9731  2.9878
  314MOL0     H43284   2.380   0.852   2.958 -0.2411 -3.0121  0.2703
  314MOL0     H43285   2.505   0.899   3.070 -2.4742  2.1163 -0.2494
  314MOL0     H43286   2.579   0.630   3.065 -1.7554 -3.1796 -0.6140
  314MOL0     H43287   2.464   0.636   2.931 -0.8239  0.9130 -0.0029
  314MOL0     H43288   2.710   0.662   2.852 -1.5101 -0.6007 -0.3865
  314MOL0     H43289   2.611   0.789   2.804  0.0113 -2.0557 -0.8963
  314MOL0     H43290   2.803   0.955   3.204  2.8136  1.7056  1.2141
  314MOL0     H43291   3.005   0.881   3.417 -0.5237  0.5741  1.2640
  314MOL0     H43292   2.963   1.046   3.352 -0.0000 -0.5121  0.3469
  314MOL0     H43293   3.125   0.992   3.328 -1.0276  3.2998  0.0728
  314MOL0     H43294   3.388   0.535   3.269  0.3748  0.7374  2.8624
  314MOL0     H43295   3.615   0.478   3.347 -3.1844  0.8041  2.5361
  314MOL0     H43296   3.967   0.568   3.441  0.0402 -0.5831  0.0223
  314MOL0     H43297   3.817   0.478   3.424  0.6219 -0.7664  1.2873
  314MOL0     H43298   3.900   0.449   3.166 -1.1990  0.6911  0.0133
  314MOL0     H43299   4.053   0.503   3.242 -1.0720  1.5796  0.4893
  314MOL0     H43300   4.021   0.305   3.413 -2.9998 -0.0603  0.9506
  314MOL0     H43301   4.072   0.263   3.248  0.3861  0.2878  1.1512
  314MOL0     H43302   3.834   0.214   3.192 -0.6819 -1.0278 -0.4032
  314MOL0     H43303   3.785   0.281   3.344  2.7361  1.6771  0.3162
  314MOL0     H43304   3.967   0.037   3.318 -2.0840 -0.3770 -2.9598
  314MOL0     H43305   3.913   0.118   3.461  1.4090  5.1114 -0.8991
  314MOL0     H43306   3.727  -0.021   3.261  0.5207 -1.6275  0.8051
  314MOL0     H43307   3.658   0.095   3.371 -0.4325 -1.8453  1.0938
  314MOL0     H43308   3.611  -0.102   3.476  0.9603 -4.2051 -0.8793
  314MOL0     H43309   3.770  -0.041   3.554  3.5184  0.8671 -2.7396
  314MOL0     H43310   3.887  -0.226   3.416  0.0992 -1.0024  1.3997
  314MOL0     H43311   3.732  -0.270   3.343 -1.4658  0.4597 -0.1029
  314MOL0     H43312   3.759   0.836   3.144 -0.3173 -1.9177 -0.1908
  314MOL0     H43313   3.545   0.863   3.035 -0.0414 -0.6565 -1.5955
  314MOL0     H43314   3.125   0.662   2.994 -2.6062 -1.1340 -2.9740
  314MOL0     H43315   2.914   0.694   2.888  2.0176  0.1743 -1.0094
  314MOL0     H43316   1.348   0.229   3.314 -0.1515 -2.8399  0.4471
  314MOL0     H43317   1.270   0.444   3.411 -0.9012  0.4360 -3.8638
  314MOL0     H43318   1.236   0.772   3.743 -0.8517  1.3275 -0.7690
  314MOL0     H43319   1.123   0.968   3.824  2.9837 -2.4316  2.6173
  314MOL0     H43320   0.894   0.891   4.072 -0.9358  1.3783  2.4395
  314MOL0     H43321   0.889   1.071   4.074  1.0187  0.2934  0.7710
  314MOL0     H43322   0.677   0.963   4.157  0.1674 -1.0772  0.5423
  314MOL0     H43323   0.658   0.888   4.003  4.0368 -1.2652 -1.2460
  314MOL0     H43324   0.548   1.142   4.054 -0.1582  1.5883 -1.5826
  314MOL0     H43325   0.712   1.185   3.988  1.4098 -0.8330  0.1002
  314MOL0     H43326   0.484   1.025   3.863 -0.2655 -0.4745 -3.4098
  314MOL0     H43327   0.641   1.044   3.787  1.3961 -0.9604  3.1241
  314MOL0     H43328   0.473   1.407   3.693 -1.4413  0.1575 -0.8393
  314MOL0     H43329   0.737   0.786   3.809  0.2558 -0.0739  0.0768
  314MOL0     H43330   0.706   0.579   3.720 -0.0919 -1.3195  1.8142
  314MOL0     H43331   0.833   0.512   3.613 -2.4701  5.0029 -2.5984
  314MOL0     H43332   0.833   0.476   3.794 -0.8932 -0.0231 -0.3787
  315MOL0     O43333   5.675  11.124  11.161 -0.2788 -0.5460  0.0226
  315MOL0     C43334   5.591  11.049  11.204  0.1925  0.6990  0.2861
  315MOL0     O43335   5.471  11.080  11.263 -0.1745  0.0017 -0.6482
  315MOL0     C43336   5.441  11.208  11.266 -0.8954 -0.4486  0.1933
  315MOL0     C43337   5.433  11.275  11.384  0.1126  0.3331 -0.1449
  315MOL0     C43338   5.417  11.408  11.387 -0.8011 -0.3522  0.0843
  315MOL0     C43339   5.390  11.478  11.272  1.0096 -1.0339  1.2517
  315MOL0     O43340   5.369  11.619  11.278  0.5772  0.3449 -0.2162
  315MOL0     C43341   5.331  11.693  11.159  0.2889  1.1040  0.4613
  315MOL0     C43342   5.314  11.833  11.197 -0.0130  0.1861 -0.6345
  315MOL0     C43343   5.454  11.897  11.199 -0.4376  0.8825 -0.4143
  315MOL0     C43344   5.450  12.043  11.258 -0.2808  0.6657  0.1283
  315MOL0     C43345   5.599  12.094  11.260 -0.1246 -0.0091 -0.0423
  315MOL0     C43346   5.614  12.229  11.328 -0.4983  0.8361 -0.4475
  315MOL0     C43347   5.609  12.223  11.481 -1.5666  0.5985 -0.5639
  315MOL0     C43348   5.616  12.358  11.554  0.8930  0.1854 -0.4172
  315MOL0     N43349   5.714  12.443  11.486  0.7643 -0.5575  0.6256
  315MOL0     C43350   5.846  12.442  11.518  0.4555  1.0352 -0.3674
  315MOL0     C43351   5.901  12.537  11.441 -0.8147 -0.6406 -0.3185
  315MOL0     C43352   6.043  12.569  11.420 -0.2369  0.7223 -0.2962
  315MOL0     C43353   6.078  12.719  11.449 -0.1184 -0.0487 -0.3417
  315MOL0     C43354   6.071  12.743  11.603  0.4706  0.4844  0.1786
  315MOL0     C43355   6.078  12.892  11.644  0.5457  0.6515  0.1954
  315MOL0     O43356   6.213  12.949  11.610 -0.4230  0.7432  0.2754
  315MOL0     C43357   6.314  12.940  11.702 -1.1572 -0.3452 -0.4204
  315MOL0     C43358   6.293  12.943  11.839  0.3456  0.6030  1.0097
  315MOL0     C43359   6.390  12.918  11.936  1.2203 -0.3876  0.4646
  315MOL0     C43360   6.352  12.899  12.078 -0.5346  0.5723 -0.7126
  315MOL0     C43361   6.522  12.906  11.889  0.4423 -0.5100  0.0227
  315MOL0     C43362   6.636  12.858  11.971  0.1751 -0.3467 -0.6421
  315MOL0     O43363   6.746  12.933  11.951 -0.4395 -0.1320 -0.2400
  315MOL0     C43364   6.852  12.935  12.040  0.7314  0.4700  0.5433
  315MOL0     C43365   6.836  12.928  12.182 -0.4129  1.1883 -0.1835
  315MOL0     C43366   6.945  12.934  12.270  0.1403  1.4395 -0.0155
  315MOL0     C43367   7.066  12.941  12.220 -0.2253 -0.5180  0.2000
  315MOL0     O43368   7.164  12.957  12.314 -0.0416 -0.3196  0.2429
  315MOL0     C43369   7.291  13.009  12.252  0.3742 -0.1798 -0.4941
  315MOL0     C43370   7.402  13.024  12.350  0.7070 -0.8027  0.5782
  315MOL0     C43371   7.446  12.894  12.413  0.0640  0.4485 -0.4694
  315MOL0     C43372   7.568  12.904  12.487  0.7044 -0.2103 -0.6086
  315MOL0     C43373   7.601  12.769  12.569 -0.1898 -0.8130  0.8679
  315MOL0     C43374   7.525  12.763  12.708 -0.0059  0.5513 -0.0832
  315MOL0     C43375   7.556  12.634  12.784  0.6650  0.7178  0.0744
  315MOL0     C43376   7.678  12.640  12.885  0.8786  0.1194  0.4036
  315MOL0    Cl43377   7.689  12.475  12.969 -0.5845  0.1204 -0.0870
  315MOL0     C43378   7.085  12.950  12.079 -0.2739  0.0748 -0.4626
  315MOL0     C43379   6.984  12.954  11.989  1.0186 -0.1340 -0.8944
  315MOL0     O43380   6.621  12.756  12.037 -0.2549 -0.2300  0.6176
  315MOL0     C43381   6.547  12.907  11.746  0.3626  0.5042  0.5814
  315MOL0     C43382   6.442  12.921  11.653 -0.1771 -0.1844  1.3084
  315MOL0     N43383   5.806  12.617  11.374  0.1159  0.7356 -0.1642
  315MOL0     N43384   5.695  12.560  11.403  0.3425 -0.6105  0.4240
  315MOL0     C43385   5.391  11.413  11.147 -0.0170  0.2528  0.0271
  315MOL0     C43386   5.411  11.277  11.148 -0.8599 -0.6757  0.5758
  315MOL0     C43387   5.622  10.899  11.198 -0.4309 -0.1541 -0.1901
  315MOL0     C43388   5.565  10.806  11.287 -0.5536  0.8211  0.0661
  315MOL0     C43389   5.606  10.672  11.295 -0.9013  0.1138 -0.1276
  315MOL0     C43390   5.695  10.617  11.196  0.1248 -0.9132 -0.8273
  315MOL0     O43391   5.764  10.502  11.206  0.1719 -0.2379  0.5185
  315MOL0     C43392   5.766  10.431  11.332  0.2866 -0.2254  0.0895
  315MOL0     C43393   5.836  10.497  11.449 -0.3404 -0.4342 -1.3633
  315MOL0     C43394   5.996  10.460  11.469  0.3374  0.2573 -0.4404
  315MOL0     C43395   6.048  10.534  11.593 -0.2533 -0.5393  0.2906
  315MOL0     C43396   6.002  10.485  11.717  0.1547  0.0611 -0.1224
  315MOL0     C43397   5.975  10.457  11.829 -0.6059  0.7424 -1.0146
  315MOL0     C43398   5.744  10.703  11.101  0.4906  0.5930  0.3617
  315MOL0     C43399   5.709  10.843  11.101 -0.8321 -0.2385 -0.2399
  315MOL0     C43400   5.771  10.911  10.984 -0.0759  0.6646 -0.0632
  315MOL0     H43401   5.451  11.215  11.473 -2.8238 -0.7049 -0.1249
  315MOL0     H43402   5.422  11.475  11.472  1.7845 -0.8367  0.3892
  315MOL0     H43403   5.233  11.664  11.122  1.4256 -2.0309 -0.3830
  315MOL0     H43404   5.406  11.673  11.082 -0.5281 -1.4817  0.2544
  315MOL0     H43405   5.260  11.876  11.113 -1.3807  0.1999  0.2241
  315MOL0     H43406   5.260  11.844  11.292  0.1088 -1.8346 -0.3006
  315MOL0     H43407   5.517  11.831  11.260  1.0307  1.4513 -1.2779
  315MOL0     H43408   5.501  11.909  11.101 -0.2275  3.2103 -0.0737
  315MOL0     H43409   5.399  12.104  11.183 -2.8914  1.0568  2.0749
  315MOL0     H43410   5.405  12.052  11.357  2.7970 -0.5092  1.7599
  315MOL0     H43411   5.640  12.114  11.161  2.5630  0.4663  1.0843
  315MOL0     H43412   5.666  12.020  11.306 -0.1002  0.6333  0.9888
  315MOL0     H43413   5.707  12.277  11.297 -1.2975  1.4759 -1.9227
  315MOL0     H43414   5.535  12.301  11.304 -0.4849  1.6462  1.7216
  315MOL0     H43415   5.679  12.149  11.521 -4.0457 -1.3525  0.4814
  315MOL0     H43416   5.511  12.181  11.506 -0.9639  0.8167  2.4721
  315MOL0     H43417   5.514  12.396  11.543  0.4865 -1.4459 -3.0395
  315MOL0     H43418   5.639  12.354  11.661 -1.6239  2.1473  0.3022
  315MOL0     H43419   5.888  12.366  11.584 -1.0383  1.5659  1.2521
  315MOL0     H43420   6.068  12.538  11.318 -0.6089  0.1256 -0.2139
  315MOL0     H43421   6.101  12.502  11.485 -0.5919  0.1582 -0.5556
  315MOL0     H43422   6.181  12.733  11.415  0.5050  2.9201  2.2972
  315MOL0     H43423   6.003  12.783  11.402 -1.8832 -1.6216  0.1943
  315MOL0     H43424   5.975  12.708  11.643 -1.0177  1.1187 -2.5948
  315MOL0     H43425   6.148  12.688  11.658  0.6088  0.5341  0.0330
  315MOL0     H43426   5.999  12.948  11.593 -0.5931 -1.5793 -0.5948
  315MOL0     H43427   6.050  12.902  11.750 -1.7669  0.8783 -0.3819
  315MOL0     H43428   6.189  12.960  11.868  0.1938 -0.1778  0.9436
  315MOL0     H43429   6.411  12.966  12.142  0.4291 -0.3316 -0.6221
  315MOL0     H43430   6.388  12.799  12.104 -3.7123 -1.1607 -2.4605
  315MOL0     H43431   6.246  12.907  12.103 -0.6686 -0.4731 -0.9064
  315MOL0     H43432   6.740  12.919  12.230  0.3120 -3.4695  0.8732
  315MOL0     H43433   6.931  12.939  12.377  1.2753  4.7556  0.0953
  315MOL0     H43434   7.331  12.938  12.179 -0.1787  2.0446 -3.1448
  315MOL0     H43435   7.281  13.100  12.191  2.1416 -0.8163 -1.8420
  315MOL0     H43436   7.484  13.077  12.301 -1.9379  1.8418 -1.3406
  315MOL0     H43437   7.368  13.088  12.431 -0.3881  0.7618 -1.0235
  315MOL0     H43438   7.447  12.814  12.338 -0.8410  1.0220 -1.1139
  315MOL0     H43439   7.359  12.861  12.470 -1.5911 -2.0369 -4.0030
  315MOL0     H43440   7.573  12.981  12.564 -0.7144 -1.3073  0.6394
  315MOL0     H43441   7.655  12.913  12.422  0.6740 -0.3937 -0.6752
  315MOL0     H43442   7.582  12.681  12.507 -0.2659 -1.7101  2.1206
  315MOL0     H43443   7.708  12.771  12.590  0.1326  0.0745 -0.6435
  315MOL0     H43444   7.420  12.749  12.679  0.4430  0.1583 -1.5859
  315MOL0     H43445   7.547  12.857  12.760 -0.9059  1.8021 -1.8686
  315MOL0     H43446   7.581  12.559  12.708 -1.7213  0.0590 -0.1627
  315MOL0     H43447   7.465  12.610  12.840 -0.3095  2.7906 -0.5447
  315MOL0     H43448   7.643  12.719  12.952 -2.8895 -0.8856 -0.1865
  315MOL0     H43449   7.774  12.678  12.848  0.7559  2.3337  2.1685
  315MOL0     H43450   7.176  12.987  12.033 -1.9127  0.0990 -4.1136
  315MOL0     H43451   6.994  12.988  11.886  0.1569 -1.1363 -1.3304
  315MOL0     H43452   6.648  12.894  11.709  0.4233 -2.0529  1.4575
  315MOL0     H43453   6.474  12.906  11.551  2.8638 -2.5343  2.4686
  315MOL0     H43454   5.365  11.470  11.058  0.5708 -0.7454 -0.8137
  315MOL0     H43455   5.434  11.219  11.059 -1.5626  0.6071 -0.4794
  315MOL0     H43456   5.492  10.841  11.359  2.0581  4.1932  1.3512
  315MOL0     H43457   5.552  10.612  11.367 -1.7108 -0.5404 -1.2521
  315MOL0     H43458   5.662  10.427  11.367 -0.2384 -1.3840 -1.4930
  315MOL0     H43459   5.809  10.331  11.320  3.5228  0.9224  1.2304
  315MOL0     H43460   5.790  10.464  11.542 -1.3645 -0.6136 -1.9187
  315MOL0     H43461   5.818  10.604  11.436 -0.8474 -0.5331 -1.4903
  315MOL0     H43462   6.002  10.351  11.469  0.6335  0.2341  2.0481
  315MOL0     H43463   6.058  10.487  11.383 -0.1610  1.6635 -0.3853
  315MOL0     H43464   6.016  10.638  11.600 -1.9507 -1.0584  0.7604
  315MOL0     H43465   6.158  10.528  11.594 -0.1304 -0.8103  4.4140
  315MOL0     H43466   5.939  10.435  11.928 -0.6826  0.9080 -1.0056
  315MOL0     H43467   5.799  10.653  11.021  0.6105 -0.5681  1.1433
  315MOL0     H43468   5.875  10.922  11.017 -0.4519  0.9348  1.0877
  315MOL0     H43469   5.760  10.852  10.893 -3.7139  1.0645 -0.0206
  315MOL0     H43470   5.735  11.013  10.965 -2.1932  0.1562  0.9462
  316MOL0     O43471   8.067   8.913   0.538 -0.5102 -0.0739  0.1450
  316MOL0     C43472   7.998   8.961   0.626 -0.5329  0.6903 -0.2205
  316MOL0     O43473   7.872   8.926   0.649 -0.4230  0.5296  0.0912
  316MOL0     C43474   7.794   8.824   0.590 -0.7843  0.7692  0.0211
  316MOL0     C43475   7.842   8.692   0.573  0.4027 -0.5488 -0.3613
  316MOL0     C43476   7.753   8.595   0.519  0.6737 -0.1494 -0.9750
  316MOL0     C43477   7.616   8.614   0.526  0.5859 -0.2332  0.1986
  316MOL0     O43478   7.540   8.504   0.490  0.3381 -1.2634  0.1626
  316MOL0     C43479   7.453   8.455   0.588  0.1992 -0.6941 -0.6567
  316MOL0     C43480   7.535   8.396   0.700 -0.5436  0.1095 -0.1443
  316MOL0     C43481   7.432   8.361   0.821 -1.0168  0.1525  0.4821
  316MOL0     C43482   7.420   8.477   0.928 -0.0059  0.2623  0.4369
  316MOL0     C43483   7.356   8.427   1.061  0.6898  0.1788  0.5291
  316MOL0     C43484   7.338   8.535   1.169  0.4228  1.1763 -0.2522
  316MOL0     C43485   7.224   8.636   1.136  0.1841 -0.6493 -0.5931
  316MOL0     C43486   7.212   8.741   1.249  0.0199  0.4289  1.7712
  316MOL0     N43487   7.079   8.821   1.233 -0.8592  0.7299 -0.2524
  316MOL0     C43488   6.958   8.781   1.270  0.2347 -0.7847 -0.1937
  316MOL0     C43489   6.881   8.891   1.231 -0.0983 -0.2036 -0.8751
  316MOL0     C43490   6.736   8.906   1.230  0.2450  0.2826 -0.0382
  316MOL0     C43491   6.680   8.851   1.096  0.2067 -0.2968 -1.1402
  316MOL0     C43492   6.526   8.842   1.110  0.0334 -0.4374  0.0308
  316MOL0     C43493   6.481   8.698   1.144 -0.2401  0.1780 -0.9439
  316MOL0     O43494   6.558   8.642   1.255  0.5540  0.3832  0.3407
  316MOL0     C43495   6.506   8.531   1.320 -0.1500 -0.3127  0.3879
  316MOL0     C43496   6.449   8.424   1.251  0.2434  0.5496 -0.1841
  316MOL0     C43497   6.395   8.308   1.318  0.1986  0.0713 -0.3200
  316MOL0     C43498   6.337   8.192   1.246  0.3887 -0.2824  1.1426
  316MOL0     C43499   6.387   8.311   1.465 -0.7075 -1.2693 -0.2839
  316MOL0     C43500   6.351   8.194   1.541  0.0574  0.4883 -0.9323
  316MOL0     O43501   6.234   8.130   1.518 -0.0012 -0.1078  1.4507
  316MOL0     C43502   6.210   8.000   1.562 -1.0560 -0.1351 -1.7541
  316MOL0     C43503   6.075   7.964   1.588  0.1121  0.7633  0.1772
  316MOL0     C43504   6.036   7.834   1.636  0.3988 -1.1575 -0.4222
  316MOL0     C43505   6.132   7.739   1.671  0.1363 -0.7176  0.5795
  316MOL0     O43506   6.109   7.611   1.716 -0.2057 -0.1007 -0.0715
  316MOL0     C43507   5.976   7.561   1.708 -0.2492  0.2142 -0.1190
  316MOL0     C43508   5.976   7.406   1.714  0.7321  0.1420 -0.3033
  316MOL0     C43509   5.837   7.340   1.694 -0.3350  0.1012  0.4042
  316MOL0     C43510   5.848   7.180   1.664 -0.4754 -1.1102 -0.0081
  316MOL0     C43511   5.889   7.159   1.509  0.4185 -0.3853  0.4866
  316MOL0     C43512   5.950   7.016   1.493 -0.5190 -0.0414  0.8278
  316MOL0     C43513   5.984   6.971   1.347  0.3374  0.3674 -0.4729
  316MOL0     C43514   6.083   7.071   1.276 -0.2381  0.6823  0.6402
  316MOL0    Cl43515   5.978   7.198   1.196  0.4665 -0.3621 -0.1667
  316MOL0     C43516   6.265   7.780   1.657  0.1259  0.0840 -0.7682
  316MOL0     C43517   6.312   7.898   1.594 -0.6332  0.3316 -0.2880
  316MOL0     O43518   6.431   8.161   1.634  0.1382  0.0608 -0.0593
  316MOL0     C43519   6.455   8.416   1.529 -0.0371  0.5777 -0.7431
  316MOL0     C43520   6.504   8.523   1.457  0.6548  0.0749 -0.0996
  316MOL0     N43521   6.958   8.984   1.174 -0.3775  0.4512  0.6824
  316MOL0     N43522   7.080   8.955   1.187  0.0480  0.8779 -0.0741
  316MOL0     C43523   7.561   8.747   0.550  0.9109 -0.1250 -0.3197
  316MOL0     C43524   7.653   8.847   0.578  0.4814 -0.5294 -0.6293
  316MOL0     C43525   8.057   9.058   0.722  0.5238 -0.5335  0.1732
  316MOL0     C43526   7.974   9.126   0.812  0.5057 -0.2658 -0.1070
  316MOL0     C43527   8.004   9.243   0.888 -0.2780 -0.8074  0.8540
  316MOL0     C43528   8.141   9.283   0.880 -0.1376 -1.5565  0.3038
  316MOL0     O43529   8.193   9.396   0.951 -0.0971  0.2000 -0.5753
  316MOL0     C43530   8.132   9.525   0.933 -0.1771 -0.7716  0.5763
  316MOL0     C43531   8.234   9.617   1.009 -0.1725 -0.0996 -0.7050
  316MOL0     C43532   8.184   9.759   1.050  0.2937 -0.1381  0.2816
  316MOL0     C43533   8.232   9.855   0.941  0.4422  0.1263 -0.4284
  316MOL0     C43534   8.368   9.906   0.969  0.9334 -0.5167 -0.5674
  316MOL0     C43535   8.474   9.948   0.996  0.4515 -0.7801 -0.2231
  316MOL0     C43536   8.230   9.214   0.804 -0.3136 -0.5620 -0.7584
  316MOL0     C43537   8.185   9.106   0.731  0.1372  0.5626 -1.2217
  316MOL0     C43538   8.295   9.035   0.654  0.8810 -0.0268  0.0225
  316MOL0     H43539   7.947   8.666   0.562  0.6973  0.5080 -0.1252
  316MOL0     H43540   7.792   8.500   0.485  2.6795 -1.0441  3.1877
  316MOL0     H43541   7.391   8.378   0.540 -0.4242 -0.4445 -0.2610
  316MOL0     H43542   7.390   8.535   0.629 -2.1012 -2.4803 -0.5368
  316MOL0     H43543   7.590   8.308   0.663 -0.2018  0.2134  0.1112
  316MOL0     H43544   7.596   8.477   0.742 -0.7944  0.1157  0.2147
  316MOL0     H43545   7.335   8.341   0.775  0.0940  0.2225 -2.0131
  316MOL0     H43546   7.460   8.269   0.872 -0.6151  0.2821  0.4995
  316MOL0     H43547   7.519   8.510   0.958  0.7249  0.1153 -1.6120
  316MOL0     H43548   7.365   8.559   0.881 -1.0303 -1.8896 -2.4882
  316MOL0     H43549   7.414   8.344   1.101  1.8007  1.4522  1.6767
  316MOL0     H43550   7.261   8.373   1.054  1.8665 -1.8784 -0.6387
  316MOL0     H43551   7.317   8.489   1.266 -3.0436  1.2160 -0.8521
  316MOL0     H43552   7.435   8.586   1.177  0.5820  0.8105  0.2090
  316MOL0     H43553   7.134   8.574   1.129 -0.5269  0.5140 -2.3842
  316MOL0     H43554   7.246   8.692   1.046  4.8529  0.2269  0.8553
  316MOL0     H43555   7.221   8.700   1.350 -2.3356  2.2474  2.8252
  316MOL0     H43556   7.281   8.823   1.226  0.1754 -0.0841  0.3302
  316MOL0     H43557   6.919   8.687   1.310  1.3054 -0.2503  2.2908
  316MOL0     H43558   6.696   8.999   1.271 -5.1136 -1.8483  0.3144
  316MOL0     H43559   6.705   8.837   1.308  1.2604 -0.9988 -0.7164
  316MOL0     H43560   6.711   8.910   1.009  1.0231  1.3811  0.2248
  316MOL0     H43561   6.723   8.752   1.078  0.4409 -1.0578  2.6304
  316MOL0     H43562   6.490   8.918   1.180 -0.1770 -1.6775  1.3242
  316MOL0     H43563   6.483   8.872   1.014  1.4455  3.8326  0.5312
  316MOL0     H43564   6.375   8.698   1.169  0.1073 -1.2921  0.7102
  316MOL0     H43565   6.501   8.645   1.050  0.9476  0.2120 -0.7297
  316MOL0     H43566   6.456   8.443   1.145 -0.7782  0.2540 -0.3159
  316MOL0     H43567   6.365   8.094   1.286  2.8319 -1.3041 -2.5655
  316MOL0     H43568   6.375   8.186   1.144  0.3918 -0.4915  1.1572
  316MOL0     H43569   6.230   8.205   1.231  0.7257  2.0016  0.2314
  316MOL0     H43570   5.992   8.034   1.586 -1.2914 -0.6473  3.1555
  316MOL0     H43571   5.932   7.820   1.661  0.7879 -2.2811  0.6847
  316MOL0     H43572   5.900   7.591   1.781 -5.1191 -2.7136 -3.3671
  316MOL0     H43573   5.921   7.580   1.615 -1.4100 -1.9116  0.0625
  316MOL0     H43574   6.045   7.374   1.636 -2.2666  0.4081 -3.2502
  316MOL0     H43575   6.016   7.377   1.812 -1.2476 -2.6549 -0.2227
  316MOL0     H43576   5.782   7.388   1.612 -0.1856 -2.2748 -1.2117
  316MOL0     H43577   5.784   7.350   1.789 -1.0956  0.1869 -0.0239
  316MOL0     H43578   5.768   7.108   1.683  0.1499 -2.4337 -2.1043
  316MOL0     H43579   5.927   7.153   1.734 -0.9184 -1.8905  0.2003
  316MOL0     H43580   5.804   7.179   1.443 -0.1665  1.6089  1.7395
  316MOL0     H43581   5.976   7.224   1.498 -0.1894  0.3298 -0.2315
  316MOL0     H43582   5.873   6.950   1.535 -1.9045  1.9936  1.6436
  316MOL0     H43583   6.043   7.029   1.551 -2.0159  1.5288  3.0557
  316MOL0     H43584   5.891   6.971   1.290  1.9505  0.1005 -3.3060
  316MOL0     H43585   6.019   6.867   1.340 -2.2916 -0.9448  3.0117
  316MOL0     H43586   6.141   7.017   1.201  1.5003  2.0640  0.9284
  316MOL0     H43587   6.161   7.110   1.342 -0.7355  2.5194  0.2028
  316MOL0     H43588   6.341   7.709   1.689 -1.4139 -1.8117 -1.1388
  316MOL0     H43589   6.418   7.920   1.591  0.5284 -4.2532 -0.1948
  316MOL0     H43590   6.474   8.406   1.635  0.6720  0.6454 -0.8587
  316MOL0     H43591   6.546   8.610   1.508  1.2384  0.0983 -0.6141
  316MOL0     H43592   7.453   8.760   0.552  0.9513  0.1909  1.2809
  316MOL0     H43593   7.609   8.941   0.611 -2.4928 -1.1795 -2.4115
  316MOL0     H43594   7.875   9.086   0.828  0.6122 -0.7766 -0.6749
  316MOL0     H43595   7.918   9.280   0.942 -1.4750 -0.9320 -0.8714
  316MOL0     H43596   8.117   9.554   0.829 -3.4029 -1.9930  0.5887
  316MOL0     H43597   8.033   9.527   0.977 -1.2393  2.9227 -1.5466
  316MOL0     H43598   8.334   9.617   0.964  1.1627 -0.8043  2.0441
  316MOL0     H43599   8.251   9.571   1.107  1.7063  1.4636 -0.2346
  316MOL0     H43600   8.076   9.761   1.065  0.3160  1.6923  0.4942
  316MOL0     H43601   8.232   9.792   1.142  3.1761  1.9297 -1.7732
  316MOL0     H43602   8.153   9.931   0.934  0.2030 -0.1755 -1.0111
  316MOL0     H43603   8.227   9.801   0.846  1.5567  2.2452 -1.7536
  316MOL0     H43604   8.569   9.991   1.025  1.4527 -1.9988 -1.5531
  316MOL0     H43605   8.334   9.244   0.803  0.3425 -2.6671 -2.5065
  316MOL0     H43606   8.277   9.074   0.553 -2.1189  1.1236  0.8899
  316MOL0     H43607   8.397   9.063   0.682  0.2063 -0.2756  3.0193
  316MOL0     H43608   8.289   8.926   0.662  2.8118 -0.1482  0.5211
  317MOL0     O43609   7.382   6.555   7.653  0.3003 -0.5152 -0.5136
  317MOL0     C43610   7.435   6.482   7.737  0.8214 -0.2439  0.3449
  317MOL0     O43611   7.519   6.383   7.713 -0.3351  0.7235 -0.1510
  317MOL0     C43612   7.523   6.343   7.583 -0.2948  0.5035  0.4109
  317MOL0     C43613   7.403   6.311   7.511  0.0870  0.0672  0.0485
  317MOL0     C43614   7.418   6.240   7.382 -0.3943 -0.3146 -0.2521
  317MOL0     C43615   7.551   6.218   7.345  0.3015 -0.5444 -0.4651
  317MOL0     O43616   7.570   6.149   7.232  0.3910  0.2497  0.1762
  317MOL0     C43617   7.529   6.015   7.219  0.4688 -0.1636 -0.0742
  317MOL0     C43618   7.646   5.929   7.174 -0.1957 -0.8422  0.5279
  317MOL0     C43619   7.704   5.971   7.040 -0.5170 -0.8061 -0.8045
  317MOL0     C43620   7.626   5.927   6.920  1.0583 -0.7862  0.4324
  317MOL0     C43621   7.696   5.958   6.786 -0.0937 -0.3358 -0.2620
  317MOL0     C43622   7.727   6.108   6.771 -0.1862 -0.2959  1.3919
  317MOL0     C43623   7.824   6.139   6.660  0.2385  0.1290 -0.3529
  317MOL0     C43624   7.760   6.107   6.526 -1.4858  0.7141 -0.0084
  317MOL0     N43625   7.648   6.197   6.491  0.6546 -0.3321  0.4084
  317MOL0     C43626   7.656   6.329   6.442 -0.1049  0.1984  0.5405
  317MOL0     C43627   7.527   6.374   6.444 -0.0730  0.3416  1.0088
  317MOL0     C43628   7.481   6.508   6.394 -0.0678 -0.7514  0.3294
  317MOL0     C43629   7.373   6.494   6.283  0.6577 -0.1490  0.3542
  317MOL0     C43630   7.393   6.373   6.193 -0.0862  0.8281  0.6657
  317MOL0     C43631   7.312   6.390   6.062  0.2841 -0.8866  0.2518
  317MOL0     O43632   7.171   6.428   6.080  0.7217 -0.0188 -0.7320
  317MOL0     C43633   7.111   6.514   5.986 -0.0190 -0.2504 -0.1870
  317MOL0     C43634   7.189   6.585   5.893 -0.3985 -0.2500 -0.2236
  317MOL0     C43635   7.128   6.652   5.786  0.1091  0.8060  0.6510
  317MOL0     C43636   7.197   6.724   5.666  0.3595  0.2357  0.4184
  317MOL0     C43637   6.978   6.654   5.786 -0.8590 -0.7866 -1.2464
  317MOL0     C43638   6.896   6.712   5.673 -0.3963  0.3988  0.6763
  317MOL0     O43639   6.770   6.759   5.715 -0.8880  0.0791 -0.1690
  317MOL0     C43640   6.679   6.812   5.626 -0.2572 -0.2398 -0.2991
  317MOL0     C43641   6.549   6.788   5.654 -0.6218  0.1619 -0.4953
  317MOL0     C43642   6.451   6.827   5.567  0.5251 -0.8925 -0.0221
  317MOL0     C43643   6.484   6.900   5.445  0.4977 -0.3317  0.3047
  317MOL0     O43644   6.399   6.946   5.348 -0.1242 -0.1534 -0.2576
  317MOL0     C43645   6.266   6.974   5.391  0.2780 -0.3165 -0.7748
  317MOL0     C43646   6.212   7.070   5.288  0.5706 -0.1546  0.3000
  317MOL0     C43647   6.196   7.011   5.146  0.7159  0.7191 -0.0197
  317MOL0     C43648   6.129   7.108   5.063 -0.1458  0.4704 -0.5812
  317MOL0     C43649   6.196   7.257   5.058 -0.0802  1.1352 -0.4429
  317MOL0     C43650   6.150   7.339   4.939 -0.2791 -0.5941  0.5971
  317MOL0     C43651   6.003   7.383   4.952  0.4549 -0.4941  0.1902
  317MOL0     C43652   5.951   7.403   4.805 -0.0373  0.0891  0.2449
  317MOL0    Cl43653   5.782   7.423   4.811  0.3882 -0.2857 -0.3701
  317MOL0     C43654   6.621   6.928   5.429  0.4435  0.9788  0.2060
  317MOL0     C43655   6.719   6.894   5.520  0.0721 -0.3066 -0.6554
  317MOL0     O43656   6.924   6.690   5.555  1.1377 -0.8052  0.0575
  317MOL0     C43657   6.907   6.591   5.889 -0.6395  0.3094 -0.2801
  317MOL0     C43658   6.973   6.530   5.998  0.4209  0.2368 -0.2736
  317MOL0     N43659   7.451   6.273   6.485  0.0887 -0.0672 -0.4742
  317MOL0     N43660   7.510   6.163   6.511  0.3918 -0.4073  0.9403
  317MOL0     C43661   7.664   6.253   7.415  0.5339 -0.8910 -0.0885
  317MOL0     C43662   7.649   6.320   7.538  0.2119 -0.2977  0.1093
  317MOL0     C43663   7.398   6.520   7.878  0.0460  0.6982 -0.1062
  317MOL0     C43664   7.432   6.428   7.970 -0.4845  1.6919  1.0812
  317MOL0     C43665   7.396   6.433   8.103  0.2500  0.8537  0.4681
  317MOL0     C43666   7.342   6.545   8.157  0.8139 -1.1113  0.4140
  317MOL0     O43667   7.313   6.555   8.291  0.0935 -0.2613 -1.2103
  317MOL0     C43668   7.275   6.437   8.371  0.7535 -0.2380 -0.9768
  317MOL0     C43669   7.124   6.393   8.342  0.6078 -0.2055  0.3566
  317MOL0     C43670   7.013   6.482   8.399 -0.2751  0.6757  1.3538
  317MOL0     C43671   7.018   6.630   8.345  0.2484  0.0142 -0.5666
  317MOL0     C43672   6.985   6.633   8.199 -0.6524 -0.5408 -0.4307
  317MOL0     C43673   6.947   6.642   8.085  0.1917  0.0399  0.2495
  317MOL0     C43674   7.314   6.648   8.060  1.0707 -0.8168 -1.1649
  317MOL0     C43675   7.341   6.641   7.928  0.4782  1.3673 -0.8606
  317MOL0     C43676   7.303   6.766   7.849 -1.5946 -0.2486  0.1104
  317MOL0     H43677   7.303   6.313   7.553  0.2301  2.0054  0.4180
  317MOL0     H43678   7.332   6.191   7.337  0.6857 -2.3108 -0.2629
  317MOL0     H43679   7.452   6.025   7.142  0.6414 -1.2495 -0.3999
  317MOL0     H43680   7.487   5.974   7.311 -2.4730 -2.2632 -2.1586
  317MOL0     H43681   7.727   5.942   7.246  0.3834 -2.5363  0.2324
  317MOL0     H43682   7.616   5.824   7.167  0.1677 -0.8444 -2.7451
  317MOL0     H43683   7.708   6.080   7.036 -2.5019 -0.7299 -3.1776
  317MOL0     H43684   7.808   5.941   7.030  0.1495  0.8970  0.5261
  317MOL0     H43685   7.611   5.819   6.928 -0.6778 -0.6817 -0.8549
  317MOL0     H43686   7.528   5.974   6.914  0.3959 -2.0279  1.2661
  317MOL0     H43687   7.630   5.923   6.706 -1.8846  1.1471  0.4986
  317MOL0     H43688   7.793   5.908   6.785  0.8331  1.4106  0.0414
  317MOL0     H43689   7.640   6.171   6.748 -0.2053  0.3011  3.0216
  317MOL0     H43690   7.774   6.139   6.864 -0.8304 -2.1508  2.3908
  317MOL0     H43691   7.916   6.084   6.683 -0.7564 -0.8029  1.6918
  317MOL0     H43692   7.849   6.245   6.661  3.2150 -0.4512  1.3657
  317MOL0     H43693   7.832   6.104   6.443 -0.3012  1.3546  0.9696
  317MOL0     H43694   7.718   6.006   6.529 -1.8762  0.8733 -0.0289
  317MOL0     H43695   7.746   6.380   6.410  0.2113 -0.2626  0.6994
  317MOL0     H43696   7.559   6.567   6.345 -1.1144  0.4613  0.0616
  317MOL0     H43697   7.448   6.567   6.480 -0.6366  0.1629 -0.4839
  317MOL0     H43698   7.279   6.490   6.339  1.0561 -1.3092  0.9679
  317MOL0     H43699   7.379   6.588   6.226  1.3188 -0.1253  0.4469
  317MOL0     H43700   7.497   6.369   6.160 -0.6574  1.7572 -1.4184
  317MOL0     H43701   7.349   6.278   6.226  2.2212 -1.3155 -1.9138
  317MOL0     H43702   7.358   6.474   6.010 -2.8552  1.7971  1.4763
  317MOL0     H43703   7.315   6.302   5.997 -1.6300  0.4576 -1.8137
  317MOL0     H43704   7.296   6.580   5.880 -0.1857  2.6429 -0.1477
  317MOL0     H43705   7.181   6.660   5.579  1.3881  0.6839 -0.1250
  317MOL0     H43706   7.305   6.735   5.684  0.3850  0.8282 -0.0695
  317MOL0     H43707   7.156   6.825   5.662  1.9505  0.9111  0.3469
  317MOL0     H43708   6.520   6.731   5.742  3.4780 -1.5867 -0.0477
  317MOL0     H43709   6.348   6.795   5.582  0.4206  0.3649  2.3503
  317MOL0     H43710   6.208   6.883   5.410  2.3256 -1.0553  2.9396
  317MOL0     H43711   6.270   7.024   5.488 -1.8359 -2.3796  0.4911
  317MOL0     H43712   6.117   7.107   5.330  2.8108  1.1943  4.8260
  317MOL0     H43713   6.271   7.161   5.282  0.3686 -0.0585 -0.2794
  317MOL0     H43714   6.142   6.916   5.155 -1.2659  1.7951 -0.1142
  317MOL0     H43715   6.297   7.005   5.105  1.3374  3.5723  0.8699
  317MOL0     H43716   6.026   7.124   5.095 -0.4483 -0.6097 -0.9701
  317MOL0     H43717   6.108   7.066   4.964 -2.5259  0.6503 -0.1982
  317MOL0     H43718   6.189   7.322   5.146  1.0019  3.3909 -1.9440
  317MOL0     H43719   6.304   7.241   5.046 -0.6503 -2.8120 -1.7527
  317MOL0     H43720   6.155   7.286   4.843 -1.6392  3.2125 -1.8038
  317MOL0     H43721   6.208   7.431   4.929 -0.3759 -0.6506 -0.6311
  317MOL0     H43722   5.988   7.476   5.009  1.4513 -1.5829  2.3621
  317MOL0     H43723   5.945   7.298   4.990  0.0245 -2.0177 -3.5273
  317MOL0     H43724   5.963   7.311   4.747  0.9564 -1.4579  2.7475
  317MOL0     H43725   5.997   7.478   4.740 -1.0488 -1.2484 -2.1782
  317MOL0     H43726   6.654   6.974   5.336  0.1633  1.1250  0.1773
  317MOL0     H43727   6.821   6.918   5.493  1.0181 -2.5839  0.6562
  317MOL0     H43728   6.800   6.610   5.895 -0.9513 -1.4570  0.0913
  317MOL0     H43729   6.925   6.486   6.085  3.1441 -0.7975  0.8081
  317MOL0     H43730   7.760   6.215   7.382 -0.8180 -3.8591 -0.9166
  317MOL0     H43731   7.730   6.348   7.604 -0.2125 -1.1032  0.9810
  317MOL0     H43732   7.483   6.339   7.935 -3.1364  1.1678 -1.9185
  317MOL0     H43733   7.430   6.348   8.163 -1.7597 -0.0857  0.3517
  317MOL0     H43734   7.329   6.349   8.337  0.6950 -0.4891 -0.4333
  317MOL0     H43735   7.291   6.447   8.479 -2.4644 -0.6080 -0.3598
  317MOL0     H43736   7.120   6.287   8.366 -0.3494  0.1589  1.9640
  317MOL0     H43737   7.103   6.397   8.235 -2.7412 -1.7377  0.8409
  317MOL0     H43738   6.918   6.432   8.377  0.7478 -1.0003  0.5967
  317MOL0     H43739   7.018   6.497   8.508  0.0204 -1.0536  1.6097
  317MOL0     H43740   7.116   6.674   8.363 -0.1748  0.3918  0.9750
  317MOL0     H43741   6.941   6.687   8.398  0.9502  1.1989 -0.7892
  317MOL0     H43742   6.903   6.639   7.987  1.3376  2.2294 -0.4104
  317MOL0     H43743   7.266   6.738   8.097 -0.3029 -2.6265  1.8035
  317MOL0     H43744   7.321   6.856   7.907  3.1402 -1.2733  0.6240
  317MOL0     H43745   7.372   6.778   7.765 -1.5928 -0.9311  0.0074
  317MOL0     H43746   7.199   6.753   7.818 -3.0005  1.5103  3.5590
  318MOL0     O43747   2.285   8.715   5.781  0.1828 -0.3966  0.6343
  318MOL0     C43748   2.319   8.778   5.686 -0.5020  0.8165 -0.7105
  318MOL0     O43749   2.244   8.866   5.615 -0.0146 -1.0586 -0.1770
  318MOL0     C43750   2.107   8.842   5.603  0.0946  0.0416  0.9443
  318MOL0     C43751   2.014   8.945   5.566 -0.7360 -0.0144  0.5109
  318MOL0     C43752   1.873   8.926   5.553  0.4980  0.0337 -0.0746
  318MOL0     C43753   1.829   8.792   5.540 -1.0305  0.2623 -0.1843
  318MOL0     O43754   1.698   8.767   5.506  0.2506 -0.2260 -1.3136
  318MOL0     C43755   1.611   8.872   5.466  0.3408  0.2770 -0.8650
  318MOL0     C43756   1.502   8.819   5.368 -0.8457 -0.1285  0.3947
  318MOL0     C43757   1.436   8.694   5.420  0.4187 -0.0942 -0.4642
  318MOL0     C43758   1.375   8.710   5.562  0.8276 -0.0325  0.8424
  318MOL0     C43759   1.285   8.595   5.601 -0.5368 -0.0796  0.4795
  318MOL0     C43760   1.150   8.594   5.528 -0.1430 -0.2877  0.2936
  318MOL0     C43761   1.094   8.455   5.505 -0.0762 -0.5880 -1.5089
  318MOL0     C43762   0.993   8.395   5.606  0.6736 -0.4149 -0.2183
  318MOL0     N43763   0.940   8.261   5.562  0.3326 -0.5373  0.4067
  318MOL0     C43764   1.017   8.155   5.544  0.1224  0.1061 -0.1500
  318MOL0     C43765   0.934   8.057   5.520  0.0346 -0.1936  0.1350
  318MOL0     C43766   0.969   7.918   5.509  0.2272 -0.5359 -0.3620
  318MOL0     C43767   1.042   7.858   5.623  0.4023  0.8218  0.7766
  318MOL0     C43768   1.104   7.718   5.587 -0.7887 -0.3846 -1.9163
  318MOL0     C43769   1.237   7.737   5.510 -0.4055 -0.3061 -0.8744
  318MOL0     O43770   1.335   7.795   5.593 -0.9145  0.8350  0.3896
  318MOL0     C43771   1.416   7.893   5.529 -0.3075  0.7909 -0.4376
  318MOL0     C43772   1.446   8.015   5.594  0.0263 -0.2101  0.1216
  318MOL0     C43773   1.514   8.120   5.537 -1.5263 -1.5137 -0.0909
  318MOL0     C43774   1.536   8.240   5.627 -0.1160 -0.7911 -0.0346
  318MOL0     C43775   1.557   8.106   5.405 -0.7643  0.3943  0.5511
  318MOL0     C43776   1.640   8.200   5.330 -0.8347 -0.2816 -0.4718
  318MOL0     O43777   1.695   8.303   5.399 -0.0563  0.0131 -0.4238
  318MOL0     C43778   1.768   8.403   5.337 -0.0868 -0.4441 -0.2503
  318MOL0     C43779   1.701   8.506   5.271  0.8988  0.8832 -0.0301
  318MOL0     C43780   1.772   8.585   5.193  0.0916  1.9189 -0.8931
  318MOL0     C43781   1.906   8.575   5.181 -0.2455 -0.5819 -0.5893
  318MOL0     O43782   1.984   8.673   5.101  0.6739  0.2664 -0.1024
  318MOL0     C43783   2.010   8.803   5.162  0.6882 -0.7958 -0.5015
  318MOL0     C43784   2.159   8.839   5.149 -0.7160  0.4575  0.2830
  318MOL0     C43785   2.196   8.991   5.151 -0.1573  0.2416  0.4192
  318MOL0     C43786   2.341   9.017   5.184  0.1217  0.9584 -0.1331
  318MOL0     C43787   2.366   9.160   5.226  0.3492  0.1421 -0.1140
  318MOL0     C43788   2.467   9.229   5.124 -0.4095  0.3046  0.5386
  318MOL0     C43789   2.403   9.294   4.998  0.1930  0.2223  0.9228
  318MOL0     C43790   2.493   9.374   4.909 -0.3079  0.7337 -0.2619
  318MOL0    Cl43791   2.553   9.508   5.009  0.6680 -0.3349 -0.1654
  318MOL0     C43792   1.975   8.478   5.245  0.4837  0.2024  0.4072
  318MOL0     C43793   1.906   8.396   5.332 -0.1714 -0.1569 -0.0055
  318MOL0     O43794   1.657   8.177   5.208  0.1027 -0.4058  0.3296
  318MOL0     C43795   1.527   7.985   5.330 -0.6745 -0.4611  0.3516
  318MOL0     C43796   1.464   7.879   5.395 -0.3035  0.0897  0.1053
  318MOL0     N43797   0.810   8.117   5.501  0.4349 -0.8771 -0.2844
  318MOL0     N43798   0.811   8.245   5.521  0.2075  0.1474  0.0716
  318MOL0     C43799   1.919   8.687   5.574  0.8783 -0.7159  0.7745
  318MOL0     C43800   2.052   8.714   5.604 -0.7222 -0.6621 -0.3911
  318MOL0     C43801   2.456   8.754   5.637  0.3977 -0.3988  0.3649
  318MOL0     C43802   2.514   8.836   5.536 -0.8389  0.0971 -0.3180
  318MOL0     C43803   2.653   8.833   5.502  0.3487  0.3318 -1.1873
  318MOL0     C43804   2.741   8.742   5.562  0.0911  0.6390 -0.2961
  318MOL0     O43805   2.870   8.726   5.542 -1.0342  0.3439  0.6393
  318MOL0     C43806   2.911   8.769   5.414 -0.5946 -0.0575 -0.5652
  318MOL0     C43807   3.060   8.736   5.411 -0.1485 -0.1051  0.3685
  318MOL0     C43808   3.142   8.833   5.504  0.3022 -0.2529 -0.4523
  318MOL0     C43809   3.277   8.758   5.527 -0.2992  0.0158  0.2426
  318MOL0     C43810   3.349   8.831   5.638  0.2236  0.3648 -0.7597
  318MOL0     C43811   3.426   8.893   5.705 -0.4176  0.2674 -0.1827
  318MOL0     C43812   2.684   8.644   5.651 -0.4406 -1.0173 -0.6287
  318MOL0     C43813   2.554   8.655   5.699 -0.3211  0.9003  0.7248
  318MOL0     C43814   2.510   8.545   5.802  0.4223 -0.3222  0.5372
  318MOL0     H43815   2.056   9.044   5.556  2.2201 -0.9651  2.1531
  318MOL0     H43816   1.813   9.013   5.530  1.5328  0.2349 -2.2049
  318MOL0     H43817   1.667   8.951   5.414 -2.0451  2.6364 -0.0546
  318MOL0     H43818   1.565   8.914   5.556 -3.5578  0.1063 -2.5878
  318MOL0     H43819   1.433   8.903   5.357  0.4408  0.9064 -0.0552
  318MOL0     H43820   1.547   8.801   5.270  0.0701 -2.6458  1.1922
  318MOL0     H43821   1.363   8.651   5.350 -1.1414 -0.4632  1.2960
  318MOL0     H43822   1.515   8.621   5.440  1.6714  2.1304  3.7374
  318MOL0     H43823   1.456   8.720   5.636  1.7763  0.4689 -0.2425
  318MOL0     H43824   1.314   8.800   5.560  0.9462  0.0442  0.7636
  318MOL0     H43825   1.279   8.581   5.710 -2.5484 -2.7406  0.1526
  318MOL0     H43826   1.337   8.503   5.573  4.7030  1.2674  4.1775
  318MOL0     H43827   1.082   8.667   5.574  1.0323 -0.5034  2.5104
  318MOL0     H43828   1.180   8.637   5.432  2.9942 -0.4003  1.1183
  318MOL0     H43829   1.174   8.388   5.472  0.4266 -0.4181 -0.6707
  318MOL0     H43830   1.035   8.457   5.412 -0.1445  0.0823 -1.4593
  318MOL0     H43831   1.040   8.399   5.705 -0.5935 -1.0767  0.4409
  318MOL0     H43832   0.899   8.449   5.621 -0.4386 -2.4886  0.7104
  318MOL0     H43833   1.121   8.142   5.571  0.3599  1.4803 -0.3486
  318MOL0     H43834   1.035   7.913   5.422 -1.1322 -1.3687 -1.4017
  318MOL0     H43835   0.879   7.858   5.491 -0.0234 -0.5195  0.8015
  318MOL0     H43836   1.112   7.930   5.668  0.9692  0.0062  1.2398
  318MOL0     H43837   0.959   7.849   5.694  3.0361  0.3805  4.0996
  318MOL0     H43838   1.132   7.665   5.679  1.6390 -1.7927 -3.3695
  318MOL0     H43839   1.034   7.656   5.531 -3.9506 -1.0938  2.2895
  318MOL0     H43840   1.267   7.645   5.461 -0.7627 -1.9683  1.8109
  318MOL0     H43841   1.217   7.815   5.436  1.2857  2.9457  1.8069
  318MOL0     H43842   1.425   8.013   5.700  1.2680 -1.9131  0.3939
  318MOL0     H43843   1.509   8.315   5.552  3.3778  2.1245  1.3049
  318MOL0     H43844   1.642   8.244   5.652  0.0261 -0.0423 -0.7132
  318MOL0     H43845   1.465   8.241   5.710  0.4276 -2.4728  0.4917
  318MOL0     H43846   1.594   8.526   5.274  1.0858  2.0001 -0.3816
  318MOL0     H43847   1.708   8.662   5.150 -3.0336 -0.8778 -1.7025
  318MOL0     H43848   1.943   8.874   5.111 -0.4031 -0.7228  0.9807
  318MOL0     H43849   1.985   8.803   5.268 -1.0916 -0.7155 -0.8788
  318MOL0     H43850   2.203   8.797   5.240 -1.0646  3.0504  1.7455
  318MOL0     H43851   2.190   8.814   5.047  1.4124  1.1168  0.7190
  318MOL0     H43852   2.144   9.046   5.229  2.5106 -0.6606  3.0032
  318MOL0     H43853   2.186   9.029   5.049 -1.6314 -3.3848 -0.9636
  318MOL0     H43854   2.394   8.994   5.091  0.7408  2.0129 -0.0531
  318MOL0     H43855   2.366   8.947   5.263 -4.4454 -1.8755 -0.8110
  318MOL0     H43856   2.276   9.220   5.242  0.9963  0.2900  4.4017
  318MOL0     H43857   2.409   9.143   5.326 -0.4897 -2.2480 -0.1011
  318MOL0     H43858   2.544   9.160   5.087  0.3724  0.9307  0.9772
  318MOL0     H43859   2.520   9.307   5.179  0.7181  1.8539 -2.5336
  318MOL0     H43860   2.324   9.366   5.022  0.1264  1.4604 -2.5676
  318MOL0     H43861   2.361   9.215   4.934  0.8305  0.3581  0.3385
  318MOL0     H43862   2.429   9.411   4.828 -1.6784 -1.9220 -0.5136
  318MOL0     H43863   2.578   9.328   4.859 -0.0800 -0.8150  1.4446
  318MOL0     H43864   2.083   8.479   5.233  1.0899  2.9937  4.2760
  318MOL0     H43865   1.960   8.317   5.385  0.8097 -1.0692 -2.2412
  318MOL0     H43866   1.587   7.962   5.243 -0.1002 -0.4365  0.7372
  318MOL0     H43867   1.435   7.794   5.334 -2.0760 -0.7681  2.0270
  318MOL0     H43868   1.871   8.591   5.557 -2.2265  1.1407 -2.2378
  318MOL0     H43869   2.111   8.626   5.625  0.2329 -0.2517 -1.2435
  318MOL0     H43870   2.467   8.917   5.481 -0.2169 -0.9213 -2.4338
  318MOL0     H43871   2.686   8.919   5.445  0.8675 -0.1237 -1.5929
  318MOL0     H43872   2.847   8.723   5.338  0.3780 -1.6014 -0.4903
  318MOL0     H43873   2.897   8.877   5.412 -2.4063 -0.2132  0.4433
  318MOL0     H43874   3.088   8.748   5.306  1.4831 -0.3707  0.7327
  318MOL0     H43875   3.087   8.633   5.434  0.7563 -0.0399 -0.3404
  318MOL0     H43876   3.160   8.931   5.460 -0.0020  0.3553  0.7441
  318MOL0     H43877   3.089   8.837   5.599  0.4537  2.5915 -0.4118
  318MOL0     H43878   3.328   8.761   5.430 -0.2829  1.4705  0.2729
  318MOL0     H43879   3.267   8.658   5.570 -1.4475 -1.2189 -2.6218
  318MOL0     H43880   3.503   8.952   5.753 -2.0181  1.4582  1.0405
  318MOL0     H43881   2.746   8.569   5.700  1.1458 -0.1387 -1.2079
  318MOL0     H43882   2.568   8.452   5.797 -2.0963 -2.2250  2.8992
  318MOL0     H43883   2.516   8.577   5.907 -0.4509  0.8570  0.2456
  318MOL0     H43884   2.409   8.509   5.780 -0.9762  4.0534 -1.1900
  319MOL0     O43885   1.472   1.058   5.031  0.5652  0.1080  0.0692
  319MOL0     C43886   1.364   1.034   5.074  0.8875  0.4455 -0.0427
  319MOL0     O43887   1.284   0.936   5.007  0.2733  0.5033  0.1209
  319MOL0     C43888   1.337   0.851   4.899  0.2598 -0.1232 -0.0997
  319MOL0     C43889   1.450   0.765   4.917  0.7917  0.9154 -1.0748
  319MOL0     C43890   1.499   0.697   4.805  1.1782  0.4245  0.3936
  319MOL0     C43891   1.432   0.700   4.682  0.0688 -0.1130  0.2660
  319MOL0     O43892   1.462   0.644   4.562  1.0708  0.3034  0.2699
  319MOL0     C43893   1.542   0.520   4.577  0.8370  0.2349  0.2467
  319MOL0     C43894   1.688   0.561   4.537 -0.2079  0.3837  1.1360
  319MOL0     C43895   1.704   0.602   4.386 -0.5063  1.1741  0.1590
  319MOL0     C43896   1.841   0.664   4.375 -0.2697  0.0436 -0.4994
  319MOL0     C43897   1.905   0.646   4.239 -0.1773 -0.2319  0.1050
  319MOL0     C43898   1.977   0.517   4.208 -0.8225  0.1241 -0.3847
  319MOL0     C43899   2.058   0.520   4.081  0.1198 -1.0689 -0.3901
  319MOL0     C43900   2.126   0.382   4.044  0.7772  0.3918 -0.4016
  319MOL0     N43901   2.156   0.375   3.897 -0.1662 -0.8213  0.0524
  319MOL0     C43902   2.278   0.406   3.852 -0.3231 -0.5061 -0.0335
  319MOL0     C43903   2.265   0.372   3.714 -0.1059 -1.0797 -0.2922
  319MOL0     C43904   2.376   0.378   3.606  0.1404  0.0806  0.5077
  319MOL0     C43905   2.340   0.275   3.493 -1.2586 -0.7456  0.9976
  319MOL0     C43906   2.368   0.135   3.541  0.7880  0.3510 -0.5722
  319MOL0     C43907   2.356   0.023   3.426 -0.3624 -0.3368  0.3280
  319MOL0     O43908   2.446   0.065   3.319  0.5021  0.5805 -0.0392
  319MOL0     C43909   2.391   0.056   3.191 -0.5134  0.1818 -0.4146
  319MOL0     C43910   2.306  -0.045   3.139  0.5969 -0.0587 -0.0701
  319MOL0     C43911   2.249  -0.024   3.004  0.8196  0.4879 -0.5225
  319MOL0     C43912   2.161  -0.134   2.944 -0.3065 -0.7271 -0.3428
  319MOL0     C43913   2.280   0.091   2.935  0.4421  0.7701 -0.1173
  319MOL0     C43914   2.234   0.108   2.795 -0.1784 -0.1611 -0.3750
  319MOL0     O43915   2.110   0.151   2.783  0.5524 -0.3711  0.7691
  319MOL0     C43916   2.071   0.203   2.663 -0.9896  0.2163 -1.1262
  319MOL0     C43917   2.110   0.329   2.654  0.0904 -1.0591 -0.0514
  319MOL0     C43918   2.064   0.422   2.557 -0.8536  0.0659 -0.0000
  319MOL0     C43919   1.987   0.354   2.457  0.2906  0.5477  0.0639
  319MOL0     O43920   1.934   0.411   2.342  1.0000 -0.3277 -0.0095
  319MOL0     C43921   1.999   0.533   2.295 -0.8697  0.2741 -0.2039
  319MOL0     C43922   2.083   0.508   2.166  0.2539  1.5423 -0.4053
  319MOL0     C43923   2.122   0.610   2.068 -1.0452 -0.7376  0.2227
  319MOL0     C43924   2.257   0.571   2.003 -0.0613 -0.9399 -0.0273
  319MOL0     C43925   2.317   0.682   1.925 -0.3944  0.6585 -0.2399
  319MOL0     C43926   2.429   0.620   1.840 -0.0572 -0.1385  0.1761
  319MOL0     C43927   2.544   0.720   1.813  0.3662  0.4423 -0.5785
  319MOL0     C43928   2.669   0.635   1.793 -0.0741  0.1034  1.6791
  319MOL0    Cl43929   2.757   0.577   1.937 -0.0233 -0.1518 -0.0142
  319MOL0     C43930   1.969   0.215   2.459 -0.1121 -0.0620  0.4187
  319MOL0     C43931   2.003   0.138   2.564  0.3130  1.3702  0.0947
  319MOL0     O43932   2.315   0.078   2.708  0.1968  0.1017  0.4098
  319MOL0     C43933   2.366   0.187   2.987 -0.1100 -1.2515  0.0917
  319MOL0     C43934   2.416   0.170   3.116 -0.4485 -0.3927  0.6091
  319MOL0     N43935   2.134   0.348   3.688  0.4474  1.0053  0.2267
  319MOL0     N43936   2.070   0.332   3.798  0.1396 -0.7777  0.6419
  319MOL0     C43937   1.314   0.776   4.669 -0.2694 -1.0878  0.9152
  319MOL0     C43938   1.264   0.849   4.778 -0.1240 -1.3939  0.5454
  319MOL0     C43939   1.303   1.122   5.178 -1.0678  0.4404  0.5557
  319MOL0     C43940   1.382   1.155   5.291  0.2515 -0.1382  0.2630
  319MOL0     C43941   1.346   1.243   5.387  0.1885 -0.4411 -0.7054
  319MOL0     C43942   1.208   1.274   5.394  0.2951 -0.1971 -0.2416
  319MOL0     O43943   1.166   1.364   5.487 -0.0564  0.1080  0.3300
  319MOL0     C43944   1.088   1.307   5.589 -1.1812 -0.8510 -0.5108
  319MOL0     C43945   0.968   1.388   5.639 -1.2682 -0.2909 -0.7862
  319MOL0     C43946   1.012   1.512   5.719  0.3056 -0.5931 -0.2432
  319MOL0     C43947   0.879   1.590   5.783  0.5379  0.0482  0.8019
  319MOL0     C43948   0.817   1.518   5.888  0.7288 -0.3204 -0.7565
  319MOL0     C43949   0.757   1.459   5.977 -0.1413  0.1080 -0.7947
  319MOL0     C43950   1.118   1.229   5.292  0.2065 -0.5340 -0.0473
  319MOL0     C43951   1.163   1.152   5.186 -0.2258 -0.8675  0.2594
  319MOL0     C43952   1.063   1.112   5.082  0.1760 -0.3237  1.0350
  319MOL0     H43953   1.500   0.769   5.013 -1.3476  5.2316  0.1511
  319MOL0     H43954   1.577   0.623   4.819  0.6300 -0.0772  0.8494
  319MOL0     H43955   1.495   0.454   4.503 -0.0448  1.5590 -0.4102
  319MOL0     H43956   1.537   0.466   4.671  0.9060 -0.4095 -0.1140
  319MOL0     H43957   1.713   0.652   4.593 -1.2007  0.1426  1.9914
  319MOL0     H43958   1.759   0.481   4.560  3.3135  2.8155 -0.3896
  319MOL0     H43959   1.684   0.510   4.331 -1.2302  2.2944 -1.5212
  319MOL0     H43960   1.631   0.676   4.353 -0.5377  0.5979 -1.0965
  319MOL0     H43961   1.830   0.771   4.394 -1.5346 -0.0815 -0.3889
  319MOL0     H43962   1.905   0.632   4.458  1.1896  1.5778 -0.9797
  319MOL0     H43963   1.974   0.729   4.224  0.6665 -0.5035  2.2574
  319MOL0     H43964   1.823   0.655   4.166  1.1098  0.4909 -1.3305
  319MOL0     H43965   2.040   0.482   4.290 -0.7242 -1.9113 -1.2734
  319MOL0     H43966   1.901   0.439   4.196 -1.4810  0.7823 -0.5623
  319MOL0     H43967   2.136   0.597   4.083  1.1254 -2.0633  0.0353
  319MOL0     H43968   1.989   0.545   4.000 -0.0476  1.0642  0.3386
  319MOL0     H43969   2.220   0.368   4.099 -1.3148  1.6712  3.9121
  319MOL0     H43970   2.050   0.308   4.069 -0.8308  1.5040 -1.7951
  319MOL0     H43971   2.372   0.438   3.895 -1.2279  2.5625 -0.1442
  319MOL0     H43972   2.473   0.347   3.645  0.6442  0.7395 -0.1995
  319MOL0     H43973   2.388   0.482   3.574  2.8800 -0.6924 -1.3424
  319MOL0     H43974   2.236   0.277   3.459 -0.9277  1.9488 -0.1627
  319MOL0     H43975   2.408   0.286   3.408 -2.9883  0.4166 -0.3064
  319MOL0     H43976   2.468   0.126   3.585  0.0569 -1.8225  0.7831
  319MOL0     H43977   2.308   0.099   3.624 -0.4537 -1.6025 -2.2348
  319MOL0     H43978   2.398  -0.073   3.459 -3.8980 -2.4916 -0.8897
  319MOL0     H43979   2.249   0.017   3.402  0.1413  1.9422 -3.2132
  319MOL0     H43980   2.279  -0.130   3.201  0.9647  0.0906  0.3020
  319MOL0     H43981   2.098  -0.168   3.027  1.7876  3.1396  3.2073
  319MOL0     H43982   2.237  -0.209   2.923 -0.5954 -0.7131 -1.5128
  319MOL0     H43983   2.105  -0.102   2.855 -0.3147 -0.0076 -0.0849
  319MOL0     H43984   2.164   0.371   2.738 -0.5142 -0.1190 -0.1229
  319MOL0     H43985   2.094   0.525   2.572 -1.1277 -0.2190  3.2912
  319MOL0     H43986   1.920   0.603   2.263 -1.7257 -0.7505 -0.3905
  319MOL0     H43987   2.052   0.591   2.371 -2.0384 -0.0033  0.8610
  319MOL0     H43988   2.170   0.452   2.202 -0.8398 -1.5882 -2.2369
  319MOL0     H43989   2.015   0.440   2.113 -0.6623  1.3570  0.9404
  319MOL0     H43990   2.133   0.714   2.100 -0.1324  0.4875 -3.5712
  319MOL0     H43991   2.038   0.606   1.998 -2.8080 -0.1489  2.2284
  319MOL0     H43992   2.234   0.480   1.946 -3.4436 -0.4897  0.3912
  319MOL0     H43993   2.331   0.531   2.073  0.3681 -1.6809 -0.8739
  319MOL0     H43994   2.246   0.732   1.859 -1.1759  2.1738  1.6614
  319MOL0     H43995   2.361   0.755   1.993 -0.3905 -0.7745  1.3781
  319MOL0     H43996   2.401   0.586   1.740  2.3804  0.7240 -0.8801
  319MOL0     H43997   2.462   0.528   1.889 -1.9234 -0.9952 -0.0899
  319MOL0     H43998   2.566   0.802   1.882  1.2930  0.6547 -1.1014
  319MOL0     H43999   2.526   0.760   1.712  2.0320 -2.3134 -2.0910
  319MOL0     H44000   2.738   0.702   1.741 -0.3064  0.9654  2.4629
  319MOL0     H44001   2.661   0.549   1.726  1.8002 -1.6062  3.4879
  319MOL0     H44002   1.906   0.177   2.379 -1.0835  2.5845 -0.2041
  319MOL0     H44003   1.979   0.033   2.577  3.6285  0.3985 -0.6979
  319MOL0     H44004   2.372   0.280   2.932 -2.8125 -1.3254 -0.5029
  319MOL0     H44005   2.473   0.248   3.164 -1.0183  1.0969 -1.0439
  319MOL0     H44006   1.262   0.788   4.574  0.6283 -1.6288  0.3495
  319MOL0     H44007   1.177   0.910   4.756  0.1391 -0.8835  0.8986
  319MOL0     H44008   1.483   1.118   5.273  1.2821  1.9537  1.3041
  319MOL0     H44009   1.416   1.278   5.463 -0.8132 -2.5324  1.3079
  319MOL0     H44010   1.048   1.207   5.567 -0.7767 -1.0931 -0.1510
  319MOL0     H44011   1.141   1.305   5.684 -1.9997  0.1211 -0.0113
  319MOL0     H44012   0.899   1.321   5.690 -1.9610  0.4467 -0.7299
  319MOL0     H44013   0.902   1.426   5.561 -1.3966  2.5564  0.5668
  319MOL0     H44014   1.098   1.510   5.786  0.3493  2.3229 -0.0566
  319MOL0     H44015   1.038   1.584   5.641 -0.4932 -0.6217 -0.5425
  319MOL0     H44016   0.804   1.599   5.704 -2.7812 -0.9784  3.5878
  319MOL0     H44017   0.913   1.680   5.834 -0.4529  0.6100  0.4815
  319MOL0     H44018   0.702   1.416   6.058 -1.1815  2.8835  0.1257
  319MOL0     H44019   1.015   1.264   5.300  0.7996  1.3089  0.0944
  319MOL0     H44020   1.103   1.115   4.980  0.9641  4.0786  1.2530
  319MOL0     H44021   1.006   1.021   5.104 -1.8094  0.1768 -1.5537
  319MOL0     H44022   0.981   1.185   5.079 -0.9075 -1.4362 -3.4200
  320MOL0     O44023   6.558  10.627   0.076 -0.3676 -0.1207 -0.2573
  320MOL0     C44024   6.494  10.528   0.105  0.0125 -0.8259  0.1189
  320MOL0     O44025   6.461  10.497   0.230 -0.7869 -0.3707  0.2481
  320MOL0     C44026   6.477  10.590   0.337 -0.5593 -0.4756  0.4543
  320MOL0     C44027   6.367  10.640   0.398 -0.3579  0.4271  0.2329
  320MOL0     C44028   6.376  10.741   0.495 -0.0849 -1.4605  0.0040
  320MOL0     C44029   6.503  10.799   0.529  0.7114  0.9397 -0.6966
  320MOL0     O44030   6.510  10.903   0.618 -1.0202  0.3992  0.7817
  320MOL0     C44031   6.640  10.952   0.666 -0.7786  0.8196  0.2413
  320MOL0     C44032   6.619  11.062   0.762 -0.7843 -0.1014 -0.3607
  320MOL0     C44033   6.740  11.159   0.783  0.3897 -0.6900 -0.8164
  320MOL0     C44034   6.702  11.265   0.888 -0.0738  1.1661  0.9814
  320MOL0     C44035   6.827  11.345   0.899  0.3567  0.5214  0.4576
  320MOL0     C44036   6.795  11.469   0.986 -0.1998  0.4643  0.9003
  320MOL0     C44037   6.755  11.449   1.138  0.1681  0.6436  1.0955
  320MOL0     C44038   6.693  11.580   1.200 -0.1845  0.0497  0.6101
  320MOL0     N44039   6.557  11.613   1.156 -0.1925 -0.4295 -0.5042
  320MOL0     C44040   6.441  11.543   1.176 -1.0554 -0.8690  0.0650
  320MOL0     C44041   6.348  11.635   1.156 -0.0548  0.4850 -0.0864
  320MOL0     C44042   6.204  11.615   1.172 -0.0907 -0.8161 -1.0885
  320MOL0     C44043   6.124  11.522   1.087 -0.5144  0.4934  0.5811
  320MOL0     C44044   5.980  11.496   1.141  0.2069 -0.9103 -0.9384
  320MOL0     C44045   5.900  11.377   1.088  0.0231  0.0508 -0.1087
  320MOL0     O44046   5.951  11.335   0.966  0.2600  0.1206  0.1499
  320MOL0     C44047   5.936  11.201   0.931  0.3861 -0.2489 -0.6331
  320MOL0     C44048   6.041  11.150   0.862 -0.4345 -0.2511 -0.0792
  320MOL0     C44049   6.051  11.017   0.818  0.8410 -0.1452 -0.0874
  320MOL0     C44050   6.181  10.976   0.757  0.2940  0.0396  1.2724
  320MOL0     C44051   5.943  10.935   0.846  0.7360 -0.2118 -0.9076
  320MOL0     C44052   5.935  10.789   0.818 -0.0179 -0.6817  0.4497
  320MOL0     O44053   6.049  10.725   0.791 -0.2367 -0.3145  0.4186
  320MOL0     C44054   6.035  10.588   0.794  0.2603  0.5074  0.4966
  320MOL0     C44055   6.089  10.511   0.685  1.0385  0.1872  0.5572
  320MOL0     C44056   6.115  10.379   0.694  0.9635  0.4660 -0.1228
  320MOL0     C44057   6.086  10.308   0.806  1.3645  0.2631 -0.6269
  320MOL0     O44058   6.121  10.177   0.808 -0.0832  0.3959  0.4327
  320MOL0     C44059   6.163  10.126   0.934  0.1757 -0.1110 -0.2731
  320MOL0     C44060   6.246  10.002   0.897  0.4572  0.0921 -0.5313
  320MOL0     C44061   6.383  10.026   0.835 -0.2788 -0.6383  0.3007
  320MOL0     C44062   6.433   9.903   0.756 -0.1619 -0.8240 -0.2931
  320MOL0     C44063   6.563   9.930   0.686 -0.5826 -0.9885  0.1505
  320MOL0     C44064   6.542   9.993   0.547  1.0964  0.0346  0.2715
  320MOL0     C44065   6.678  10.012   0.479  0.0118 -0.2688  0.7189
  320MOL0     C44066   6.659  10.078   0.337 -0.4593 -0.5124 -0.2736
  320MOL0    Cl44067   6.624   9.940   0.232  0.2519  0.1981  0.1635
  320MOL0     C44068   6.013  10.377   0.913 -0.9707  0.6337  0.5439
  320MOL0     C44069   5.995  10.517   0.903 -0.2909 -0.8817 -0.5691
  320MOL0     O44070   5.822  10.744   0.790 -0.3899  0.2827  0.6652
  320MOL0     C44071   5.834  10.985   0.917  1.0739 -0.1181 -0.0374
  320MOL0     C44072   5.833  11.113   0.962 -0.2115  0.7236 -0.6746
  320MOL0     N44073   6.396  11.743   1.093 -0.0027  0.6618  0.4808
  320MOL0     N44074   6.528  11.727   1.083 -0.1229 -0.4049  0.4181
  320MOL0     C44075   6.608  10.737   0.463  0.3111 -0.6338 -0.7488
  320MOL0     C44076   6.598  10.642   0.363 -0.4411  0.0257 -0.5898
  320MOL0     C44077   6.445  10.433   0.003 -0.9931 -0.0357  0.4235
  320MOL0     C44078   6.443  10.298   0.035 -0.1525 -0.7311 -0.2560
  320MOL0     C44079   6.427  10.202  -0.066  1.4407 -0.0207 -0.4776
  320MOL0     C44080   6.404  10.231  -0.202  0.2708  0.0707 -0.0650
  320MOL0     O44081   6.378  10.136  -0.298 -1.1125  0.2201  0.3674
  320MOL0     C44082   6.255  10.152  -0.371 -0.3914  0.4037 -0.0378
  320MOL0     C44083   6.274  10.180  -0.519  0.4751 -0.8863 -0.3131
  320MOL0     C44084   6.401  10.097  -0.573 -0.4608  0.2305  1.0678
  320MOL0     C44085   6.347  10.002  -0.678  0.0991  0.2356  1.1031
  320MOL0     C44086   6.248   9.914  -0.612  0.3802 -0.5934  0.4796
  320MOL0     C44087   6.167   9.833  -0.565 -0.2432 -0.2987  0.4271
  320MOL0     C44088   6.385  10.370  -0.229  0.0166  0.1986 -0.0035
  320MOL0     C44089   6.423  10.472  -0.134  0.9054  0.0231 -0.5208
  320MOL0     C44090   6.465  10.605  -0.184 -0.2123  0.5650 -0.1788
  320MOL0     H44091   6.269  10.601   0.372 -0.6193  0.1647  1.5809
  320MOL0     H44092   6.283  10.768   0.543 -0.4694 -0.5951 -1.2030
  320MOL0     H44093   6.706  10.980   0.583  1.8277 -1.7578  1.2276
  320MOL0     H44094   6.693  10.868   0.712 -1.2845  0.0619 -0.5262
  320MOL0     H44095   6.538  11.123   0.721 -0.9737  0.7233  1.1739
  320MOL0     H44096   6.594  11.017   0.858 -0.8708 -1.6913 -1.0913
  320MOL0     H44097   6.837  11.116   0.809  0.6607  0.1591 -0.3633
  320MOL0     H44098   6.761  11.212   0.690 -0.7960  2.0545  0.3497
  320MOL0     H44099   6.618  11.328   0.857 -1.0624  0.1719  1.5479
  320MOL0     H44100   6.667  11.212   0.977 -1.6128 -0.6831 -0.6083
  320MOL0     H44101   6.868  11.385   0.806  5.4284 -1.7521  1.3314
  320MOL0     H44102   6.913  11.290   0.938  0.0360  0.5741  1.2712
  320MOL0     H44103   6.880  11.538   0.985  1.6782 -1.7114  1.4796
  320MOL0     H44104   6.710  11.513   0.933 -1.3663 -1.8344  0.7785
  320MOL0     H44105   6.848  11.434   1.192  1.1117 -2.2381 -1.0509
  320MOL0     H44106   6.696  11.358   1.156  0.6366  0.0631 -0.1493
  320MOL0     H44107   6.680  11.577   1.309 -3.0522 -1.0517  0.3257
  320MOL0     H44108   6.755  11.660   1.157 -0.5763 -1.9463 -4.2775
  320MOL0     H44109   6.425  11.443   1.214 -0.4024 -1.4079 -1.0346
  320MOL0     H44110   6.142  11.705   1.176 -0.9699 -1.4517  0.8845
  320MOL0     H44111   6.202  11.568   1.271 -2.0016 -0.1540 -0.7775
  320MOL0     H44112   6.119  11.549   0.981  3.0227  0.3786  0.2948
  320MOL0     H44113   6.190  11.435   1.076 -0.5970  0.6293 -1.4382
  320MOL0     H44114   5.993  11.469   1.246  2.8617 -2.0472 -1.4936
  320MOL0     H44115   5.913  11.583   1.147  0.4796 -0.7928  2.9823
  320MOL0     H44116   5.897  11.286   1.148  0.3072  1.0482  1.4854
  320MOL0     H44117   5.794  11.402   1.094 -0.0337 -0.3783  0.7208
  320MOL0     H44118   6.124  11.219   0.851 -2.3146  2.4516  1.4077
  320MOL0     H44119   6.237  10.921   0.833  2.7182  2.4151  1.3682
  320MOL0     H44120   6.248  11.058   0.728  1.1628 -1.6290 -2.0171
  320MOL0     H44121   6.158  10.919   0.667  1.0698 -0.3250  1.2980
  320MOL0     H44122   6.118  10.560   0.593 -5.2506  0.8667 -1.5958
  320MOL0     H44123   6.162  10.332   0.608  0.2068  0.7911 -0.7358
  320MOL0     H44124   6.237  10.199   0.969  1.8908 -1.3307 -1.1997
  320MOL0     H44125   6.091  10.100   1.011  1.0200 -0.8677  0.2842
  320MOL0     H44126   6.266   9.948   0.991  0.0659 -2.0088 -1.5997
  320MOL0     H44127   6.196   9.928   0.835  0.5974  1.6383 -2.5835
  320MOL0     H44128   6.468  10.050   0.900  2.6082 -0.6329 -3.1724
  320MOL0     H44129   6.367  10.110   0.767  1.9395  1.0367  1.7009
  320MOL0     H44130   6.360   9.881   0.678  1.3020 -0.0641 -1.9347
  320MOL0     H44131   6.427   9.816   0.822 -0.8005  0.5508  1.5449
  320MOL0     H44132   6.640   9.968   0.755  2.2058 -2.4745 -1.9477
  320MOL0     H44133   6.604   9.833   0.657  0.4513 -0.0038 -1.8027
  320MOL0     H44134   6.517  10.098   0.565  2.5972  0.3936  0.4604
  320MOL0     H44135   6.471   9.948   0.478  2.4784 -0.9845 -0.5466
  320MOL0     H44136   6.733   9.919   0.457 -0.2823  0.1457 -2.2025
  320MOL0     H44137   6.741  10.075   0.542 -0.5612  2.3347 -1.1871
  320MOL0     H44138   6.750  10.129   0.304 -1.1966 -0.5652 -2.5425
  320MOL0     H44139   6.585  10.158   0.337  1.2484  1.1455  0.9966
  320MOL0     H44140   5.975  10.315   0.994 -0.0999 -0.6902 -0.0161
  320MOL0     H44141   5.946  10.571   0.983  1.2256 -0.7245  0.2676
  320MOL0     H44142   5.746  10.921   0.926  1.3567 -0.7156 -1.2912
  320MOL0     H44143   5.745  11.160   1.005 -1.2399  0.0757 -1.9818
  320MOL0     H44144   6.704  10.782   0.488 -2.1472  4.4444  0.9553
  320MOL0     H44145   6.685  10.609   0.308 -2.0729  0.5781 -3.6948
  320MOL0     H44146   6.465  10.252   0.131  3.8003  0.3771 -0.4569
  320MOL0     H44147   6.418  10.098  -0.035 -4.8475 -0.9793 -3.6583
  320MOL0     H44148   6.193  10.063  -0.361  1.2287 -0.6961  0.6692
  320MOL0     H44149   6.194  10.233  -0.327 -2.5308 -0.6256 -0.9654
  320MOL0     H44150   6.292  10.285  -0.546  1.5615 -2.2083 -6.1929
  320MOL0     H44151   6.178  10.145  -0.558 -0.7002  1.8970 -0.1954
  320MOL0     H44152   6.474  10.167  -0.615 -1.2749  0.6293  0.2916
  320MOL0     H44153   6.446  10.025  -0.504  0.5169 -1.9525 -1.6392
  320MOL0     H44154   6.424   9.932  -0.712  0.3795  0.5201  1.1344
  320MOL0     H44155   6.305  10.041  -0.772  5.4293  0.4669 -1.5900
  320MOL0     H44156   6.091   9.766  -0.529 -0.1964 -1.7358 -1.9554
  320MOL0     H44157   6.362  10.399  -0.331  2.1037  3.5256  0.3301
  320MOL0     H44158   6.570  10.619  -0.156 -0.3372 -2.9230  2.7879
  320MOL0     H44159   6.452  10.617  -0.291 -1.0468  3.2180  0.1531
  320MOL0     H44160   6.406  10.681  -0.130 -0.5932  0.9262 -1.0920
  321MOL0     O44161  11.440   2.140   1.236  0.1445  0.2898 -0.0174
  321MOL0     C44162  11.461   2.121   1.117 -0.9480  0.6232 -0.0966
  321MOL0     O44163  11.517   2.011   1.063  0.6550 -0.1074  0.2453
  321MOL0     C44164  11.543   1.898   1.130 -0.3792  0.4469 -0.2575
  321MOL0     C44165  11.669   1.838   1.104  1.9726 -0.6882 -0.4721
  321MOL0     C44166  11.713   1.716   1.169  0.7599  0.1393 -0.4907
  321MOL0     C44167  11.617   1.650   1.251 -1.3035  0.1805 -0.4276
  321MOL0     O44168  11.638   1.530   1.308 -0.1282  0.1934  0.3880
  321MOL0     C44169  11.769   1.508   1.355 -0.0287  0.2850  0.0097
  321MOL0     C44170  11.745   1.381   1.453  0.0493 -0.4083 -0.0712
  321MOL0     C44171  11.719   1.245   1.391 -0.7747  0.8042 -0.6030
  321MOL0     C44172  11.707   1.141   1.492 -0.6050 -0.1715 -0.2781
  321MOL0     C44173  11.664   1.010   1.415  0.5196  0.5024  0.4993
  321MOL0     C44174  11.602   0.906   1.504 -0.0534  0.1783  0.4527
  321MOL0     C44175  11.619   0.766   1.442 -0.1338  0.2088 -0.2124
  321MOL0     C44176  11.555   0.666   1.519 -0.3765 -0.0715 -0.4452
  321MOL0     N44177  11.409   0.660   1.538 -0.0921 -0.0138 -0.3480
  321MOL0     C44178  11.317   0.712   1.438  0.0161  0.6615  0.3608
  321MOL0     C44179  11.214   0.635   1.453  1.3505  0.1634 -0.1764
  321MOL0     C44180  11.077   0.653   1.387  0.5095 -0.2061  0.1630
  321MOL0     C44181  10.951   0.714   1.463 -0.5314 -0.7673 -0.3130
  321MOL0     C44182  10.994   0.848   1.531  0.7110 -1.3464  0.3766
  321MOL0     C44183  10.886   0.959   1.528 -0.2226  0.3394 -0.2480
  321MOL0     O44184  10.876   1.037   1.408 -0.2649 -0.1168 -0.5032
  321MOL0     C44185  10.793   1.017   1.305  0.5057  0.5795 -0.4124
  321MOL0     C44186  10.817   1.097   1.191  0.0211  0.7620  0.4655
  321MOL0     C44187  10.745   1.079   1.077  0.2455 -0.3876 -0.0870
  321MOL0     C44188  10.776   1.170   0.956 -0.3193  0.0552  0.7506
  321MOL0     C44189  10.634   0.992   1.069 -0.6327  0.2949 -0.2776
  321MOL0     C44190  10.563   0.955   0.946  0.0215 -0.1447 -0.5341
  321MOL0     O44191  10.451   0.871   0.951 -0.8566 -0.4960  0.0526
  321MOL0     C44192  10.395   0.824   0.831 -0.5933 -0.8358 -0.3954
  321MOL0     C44193  10.478   0.764   0.738 -0.0949 -0.6030  0.3681
  321MOL0     C44194  10.422   0.694   0.634  1.0058  1.0952  0.0378
  321MOL0     C44195  10.278   0.683   0.622 -0.0537  0.3345  0.0392
  321MOL0     O44196  10.208   0.622   0.523 -0.6404  0.2847 -0.0799
  321MOL0     C44197  10.234   0.647   0.385  0.5581  0.4463 -1.2211
  321MOL0     C44198  10.161   0.560   0.278 -0.7493 -0.9414  0.6863
  321MOL0     C44199  10.223   0.431   0.282  0.9600  0.3485  1.3813
  321MOL0     C44200  10.142   0.338   0.188 -0.1474  0.0167 -0.2204
  321MOL0     C44201  10.229   0.215   0.146 -0.2439 -0.3013  0.4498
  321MOL0     C44202  10.132   0.108   0.081  0.4655 -0.1797 -0.5528
  321MOL0     C44203  10.204  -0.028   0.069 -0.0308  0.3230 -0.6177
  321MOL0     C44204  10.146  -0.091  -0.057  0.0072  0.4256 -0.5645
  321MOL0    Cl44205  10.223  -0.003  -0.202  0.1713  0.1223  0.0565
  321MOL0     C44206  10.204   0.738   0.727 -0.1931 -0.3988 -0.4774
  321MOL0     C44207  10.260   0.824   0.821  0.0627 -0.4804  0.4828
  321MOL0     O44208  10.610   0.996   0.841  0.0172 -0.3922 -0.1009
  321MOL0     C44209  10.607   0.919   1.186 -0.1581  0.1566 -0.9980
  321MOL0     C44210  10.684   0.933   1.310  0.8232  0.3301  0.3641
  321MOL0     N44211  11.239   0.540   1.541  0.3390 -0.1013 -0.4223
  321MOL0     N44212  11.357   0.545   1.589  0.1472  0.3562  0.3211
  321MOL0     C44213  11.490   1.712   1.272 -0.3206  0.1138  0.3607
  321MOL0     C44214  11.454   1.832   1.207 -0.6610 -0.2412 -1.5327
  321MOL0     C44215  11.422   2.214   1.013 -0.8287 -0.5454 -0.6057
  321MOL0     C44216  11.358   2.157   0.902 -0.4736 -0.2626 -0.3704
  321MOL0     C44217  11.307   2.237   0.795 -1.0184  0.3917 -0.4489
  321MOL0     C44218  11.346   2.370   0.794  0.1280  1.1390 -0.0691
  321MOL0     O44219  11.345   2.444   0.676  0.1296 -0.4285 -0.5529
  321MOL0     C44220  11.406   2.386   0.566  0.3465  0.8318  0.1745
  321MOL0     C44221  11.495   2.475   0.491  0.7417  0.4730  0.8404
  321MOL0     C44222  11.407   2.579   0.420  0.5737 -0.5587  0.1034
  321MOL0     C44223  11.467   2.607   0.282 -0.2857  1.2262 -0.5201
  321MOL0     C44224  11.431   2.733   0.233  0.5520 -0.6924  0.1640
  321MOL0     C44225  11.405   2.844   0.179 -0.3997  0.0842  0.3582
  321MOL0     C44226  11.400   2.431   0.909 -0.5221 -0.5243  0.2089
  321MOL0     C44227  11.442   2.354   1.019  0.1744 -0.0619  0.2930
  321MOL0     C44228  11.519   2.428   1.124 -0.1613 -0.0868  0.2826
  321MOL0     H44229  11.737   1.900   1.047  0.5070  2.1620  0.6245
  321MOL0     H44230  11.816   1.688   1.150  0.2804 -1.3142 -1.1097
  321MOL0     H44231  11.806   1.602   1.398  0.0219  1.4413 -2.3826
  321MOL0     H44232  11.850   1.484   1.285 -0.7712 -3.5864  0.2993
  321MOL0     H44233  11.823   1.366   1.529 -1.0691 -0.5346  1.0939
  321MOL0     H44234  11.662   1.416   1.516  3.6892  1.6034  4.2544
  321MOL0     H44235  11.630   1.240   1.327  0.9019  1.0975 -3.1081
  321MOL0     H44236  11.796   1.239   1.313 -1.5163  1.4592 -1.4062
  321MOL0     H44237  11.805   1.119   1.537 -1.2446  0.3994  1.5019
  321MOL0     H44238  11.634   1.159   1.572 -1.3247 -0.6736 -0.8114
  321MOL0     H44239  11.751   0.972   1.361 -1.8374 -0.1350 -3.2218
  321MOL0     H44240  11.592   1.052   1.344 -0.0694  2.4179  2.1330
  321MOL0     H44241  11.658   0.907   1.598  2.6661 -1.7919 -1.0018
  321MOL0     H44242  11.499   0.929   1.533  0.5483  0.6246  2.3857
  321MOL0     H44243  11.725   0.741   1.441  0.6697  3.1771  0.0680
  321MOL0     H44244  11.579   0.769   1.340 -3.4371  1.7907  0.9620
  321MOL0     H44245  11.583   0.570   1.475  0.2595 -0.1148  0.0447
  321MOL0     H44246  11.581   0.665   1.625 -1.4210 -1.1127 -0.1753
  321MOL0     H44247  11.320   0.795   1.369  0.4177 -0.8629 -1.5463
  321MOL0     H44248  11.036   0.561   1.344  1.7773 -1.4725  1.5518
  321MOL0     H44249  11.095   0.723   1.304 -1.0017  3.4774  2.6686
  321MOL0     H44250  10.871   0.716   1.389 -1.1090  0.2415  0.3216
  321MOL0     H44251  10.895   0.655   1.536 -2.9934  1.8501  0.0956
  321MOL0     H44252  11.011   0.824   1.637 -4.1158  1.5902  2.1649
  321MOL0     H44253  11.083   0.879   1.477 -0.6742  2.5507 -0.0228
  321MOL0     H44254  10.789   0.923   1.563  0.8901 -0.2779  2.4547
  321MOL0     H44255  10.912   1.019   1.615  1.6755  1.1094 -1.2754
  321MOL0     H44256  10.903   1.164   1.190  0.3246  0.3852  1.0687
  321MOL0     H44257  10.688   1.227   0.925 -1.9804 -1.2709  2.8204
  321MOL0     H44258  10.806   1.097   0.879 -2.3191  0.6463 -0.6652
  321MOL0     H44259  10.850   1.248   0.975 -0.3837 -0.1743  2.0355
  321MOL0     H44260  10.585   0.776   0.743 -0.3757  2.4785  0.7012
  321MOL0     H44261  10.482   0.653   0.554 -0.4647 -1.1065 -0.0243
  321MOL0     H44262  10.204   0.751   0.367 -0.8328 -0.3380 -4.0343
  321MOL0     H44263  10.343   0.655   0.372  0.7609  0.1131  0.1695
  321MOL0     H44264  10.056   0.549   0.305 -0.6471 -2.2207  0.6213
  321MOL0     H44265  10.180   0.606   0.181 -0.1565 -0.5155  0.9965
  321MOL0     H44266  10.242   0.407   0.387  3.5098  1.1491  1.1558
  321MOL0     H44267  10.310   0.434   0.216 -0.4850 -0.4914 -0.6999
  321MOL0     H44268  10.102   0.381   0.096  0.1976 -0.5690 -0.6566
  321MOL0     H44269  10.052   0.310   0.244 -1.2940  0.9780 -1.5123
  321MOL0     H44270  10.307   0.242   0.075 -0.0782  1.1697  1.1668
  321MOL0     H44271  10.271   0.162   0.232 -0.1452 -1.7827 -0.4794
  321MOL0     H44272  10.094   0.140  -0.017  1.6200 -2.4462 -1.8127
  321MOL0     H44273  10.054   0.089   0.155  3.4983 -1.4565  2.6063
  321MOL0     H44274  10.185  -0.091   0.156  0.9177  0.8314 -0.0287
  321MOL0     H44275  10.311  -0.012   0.051 -0.3645  1.9264 -1.3315
  321MOL0     H44276  10.038  -0.074  -0.063  0.4203  3.3200 -1.1478
  321MOL0     H44277  10.159  -0.200  -0.059 -1.6756  0.1940 -0.2566
  321MOL0     H44278  10.096   0.734   0.721 -0.1046 -2.0266 -1.6208
  321MOL0     H44279  10.192   0.866   0.894 -0.6316  1.8426 -1.3620
  321MOL0     H44280  10.530   0.843   1.178  2.5560 -2.8340 -0.7991
  321MOL0     H44281  10.645   0.868   1.388 -4.4899  0.0460 -2.1341
  321MOL0     H44282  11.417   1.650   1.324  0.8887 -1.2248  0.5081
  321MOL0     H44283  11.349   1.856   1.217 -0.1606  1.6994 -0.4389
  321MOL0     H44284  11.330   2.052   0.896  0.0632 -0.4992  0.9312
  321MOL0     H44285  11.260   2.186   0.710 -1.0616  3.3664 -2.3378
  321MOL0     H44286  11.468   2.300   0.596 -0.6911  0.2334  0.6393
  321MOL0     H44287  11.322   2.353   0.505  0.1332  0.0380  0.8738
  321MOL0     H44288  11.556   2.411   0.426 -1.5870  0.7734 -1.8681
  321MOL0     H44289  11.565   2.523   0.559  1.0143 -0.1040  0.9770
  321MOL0     H44290  11.302   2.552   0.403  0.0511  1.3118  0.1496
  321MOL0     H44291  11.408   2.668   0.484  2.5303 -1.9375  2.1692
  321MOL0     H44292  11.437   2.526   0.215 -3.1501 -0.2265  2.1882
  321MOL0     H44293  11.575   2.602   0.298 -0.4975 -4.2616  1.3741
  321MOL0     H44294  11.393   2.941   0.134  0.0993 -0.1174 -0.2200
  321MOL0     H44295  11.440   2.531   0.894  2.3001 -1.7389 -1.2506
  321MOL0     H44296  11.614   2.384   1.154  0.0928  0.4464  0.2801
  321MOL0     H44297  11.530   2.531   1.088  1.1661 -1.1134 -2.5413
  321MOL0     H44298  11.460   2.433   1.216  1.7404 -1.2217  1.6190
  322MOL0     O44299  11.189   5.302  10.978  0.1837 -0.3166  0.2242
  322MOL0     C44300  11.144   5.353  10.875 -0.0687 -0.6465 -0.8689
  322MOL0     O44301  11.219   5.387  10.764 -0.0143 -0.3083  0.0244
  322MOL0     C44302  11.356   5.379  10.759  0.8427 -0.2343  0.3285
  322MOL0     C44303  11.418   5.474  10.676 -0.5347 -0.3155  0.5383
  322MOL0     C44304  11.562   5.469  10.650  0.3257 -0.6850  0.5602
  322MOL0     C44305  11.632   5.374  10.723  0.2471 -0.6375 -0.3242
  322MOL0     O44306  11.770   5.368  10.704  0.9502  0.2854  0.1023
  322MOL0     C44307  11.845   5.252  10.750  0.2380 -0.2962 -0.4620
  322MOL0     C44308  11.977   5.249  10.658  0.6160  0.5388  0.9325
  322MOL0     C44309  12.022   5.398  10.652 -0.6940  0.3362 -0.0402
  322MOL0     C44310  12.164   5.393  10.578  0.2963  0.1712 -0.3641
  322MOL0     C44311  12.206   5.534  10.531  1.2636  0.1961  0.3130
  322MOL0     C44312  12.141   5.581  10.400  0.4898 -0.4909  0.8467
  322MOL0     C44313  12.207   5.717  10.362  0.5293 -0.7981 -0.3501
  322MOL0     C44314  12.148   5.764  10.230  0.2780 -0.0800 -0.2623
  322MOL0     N44315  12.191   5.902  10.202 -0.2993 -0.6630  0.3240
  322MOL0     C44316  12.131   5.991  10.115  0.0933  1.2196  0.2367
  322MOL0     C44317  12.231   6.082  10.089 -0.5471  0.3644 -0.1288
  322MOL0     C44318  12.231   6.196   9.994 -0.0226 -0.4657 -0.0204
  322MOL0     C44319  12.300   6.158   9.862 -0.2417 -0.4818  1.0518
  322MOL0     C44320  12.446   6.200   9.852  0.9291  1.0113 -0.2713
  322MOL0     C44321  12.499   6.176   9.708  0.3488  1.2029 -0.3119
  322MOL0     O44322  12.497   6.309   9.644 -0.2871 -0.2602  0.5309
  322MOL0     C44323  12.578   6.343   9.545  0.1788  0.1678 -0.3482
  322MOL0     C44324  12.623   6.473   9.541  1.0055 -0.1223  0.7509
  322MOL0     C44325  12.712   6.515   9.441  0.2929 -0.2978  0.7614
  322MOL0     C44326  12.754   6.654   9.451  0.6419 -0.0290 -0.1713
  322MOL0     C44327  12.725   6.431   9.326 -0.6798 -0.9623  0.2375
  322MOL0     C44328  12.808   6.470   9.200  0.5408  0.0003  0.9297
  322MOL0     O44329  12.781   6.387   9.092 -0.8448  0.0450 -0.1724
  322MOL0     C44330  12.830   6.432   8.969  0.7175  0.5973 -0.5937
  322MOL0     C44331  12.787   6.553   8.913 -0.1833 -0.2714  0.1882
  322MOL0     C44332  12.845   6.613   8.789  0.7964 -0.3500 -0.5601
  322MOL0     C44333  12.932   6.519   8.724  0.9738 -0.8897  0.5761
  322MOL0     O44334  12.980   6.556   8.600  0.6833 -0.5232  0.3807
  322MOL0     C44335  12.989   6.448   8.510 -0.1518 -0.1380  1.1095
  322MOL0     C44336  13.014   6.504   8.369 -0.1451  0.2530  0.0026
  322MOL0     C44337  12.964   6.406   8.265  0.0020 -0.2486  1.0697
  322MOL0     C44338  13.069   6.296   8.228  0.1343  0.1142  0.8644
  322MOL0     C44339  13.062   6.248   8.083 -0.3830 -0.5384 -0.4197
  322MOL0     C44340  13.152   6.122   8.073  0.3629 -0.7235 -0.8681
  322MOL0     C44341  13.163   6.052   7.938  1.3969 -0.4340  0.5504
  322MOL0     C44342  13.277   5.963   7.949 -0.4328 -0.4053 -0.3390
  322MOL0    Cl44343  13.293   5.863   7.813 -0.3262  0.6491 -0.1985
  322MOL0     C44344  12.967   6.396   8.776 -0.5186 -0.7990  0.6677
  322MOL0     C44345  12.919   6.354   8.902 -1.0569 -0.3427  0.4776
  322MOL0     O44346  12.895   6.548   9.200  0.2072  0.0972  0.4661
  322MOL0     C44347  12.681   6.297   9.329 -0.6430 -0.7537  0.6462
  322MOL0     C44348  12.611   6.252   9.442 -1.5860 -0.2628 -0.3939
  322MOL0     N44349  12.348   6.053  10.159 -0.1617  0.9269 -0.5154
  322MOL0     N44350  12.316   5.953  10.235 -0.3625 -0.1086  0.6707
  322MOL0     C44351  11.571   5.293  10.827  0.5535 -0.3235 -0.0473
  322MOL0     C44352  11.434   5.293  10.834  0.2018  0.8792  0.3963
  322MOL0     C44353  10.996   5.360  10.849  0.1939 -0.6593  0.1605
  322MOL0     C44354  10.957   5.478  10.785  0.0551 -0.2476  0.0585
  322MOL0     C44355  10.828   5.520  10.771 -0.2183  0.1390  0.7210
  322MOL0     C44356  10.725   5.433  10.816 -0.2071 -0.1851  0.2941
  322MOL0     O44357  10.588   5.452  10.794 -0.0206  0.6303 -0.2144
  322MOL0     C44358  10.545   5.582  10.837 -0.3212  0.2583 -0.8558
  322MOL0     C44359  10.469   5.550  10.960  0.0665 -0.1590 -0.0101
  322MOL0     C44360  10.324   5.519  10.932  0.0604 -0.9297  0.2196
  322MOL0     C44361  10.236   5.635  10.876  0.6780  0.2295 -0.4293
  322MOL0     C44362  10.244   5.771  10.936 -0.1466  0.1792  0.1439
  322MOL0     C44363  10.243   5.891  10.969 -0.7513 -0.3883  0.1307
  322MOL0     C44364  10.757   5.317  10.893 -0.5262  0.6574 -0.4077
  322MOL0     C44365  10.896   5.288  10.916 -0.2403 -0.0623 -0.1359
  322MOL0     C44366  10.937   5.156  10.976 -0.1347 -0.1012 -0.6302
  322MOL0     H44367  11.359   5.553  10.630  0.8660 -1.2478 -3.1972
  322MOL0     H44368  11.615   5.537  10.585  0.3300  0.1079  1.3669
  322MOL0     H44369  11.799   5.154  10.731 -0.2279  0.2093 -2.1048
  322MOL0     H44370  11.900   5.246  10.844  0.1386  0.0458 -0.3787
  322MOL0     H44371  12.054   5.181  10.695  2.3420  2.1727  0.4974
  322MOL0     H44372  11.952   5.221  10.555 -4.8880  0.7172  1.9160
  322MOL0     H44373  11.953   5.471  10.610  0.4407  1.5128  0.0641
  322MOL0     H44374  12.053   5.427  10.753 -0.9157  0.3686  0.0170
  322MOL0     H44375  12.238   5.366  10.654 -1.8446 -2.4099  0.9728
  322MOL0     H44376  12.181   5.326  10.494  4.4089  1.5703 -0.8592
  322MOL0     H44377  12.312   5.544  10.509  0.9818  0.3522 -1.0601
  322MOL0     H44378  12.186   5.597  10.618  1.4795 -0.5312  0.8953
  322MOL0     H44379  12.140   5.500  10.327 -1.9317  1.0898 -1.0354
  322MOL0     H44380  12.036   5.599  10.428  0.5989 -1.6363  2.0882
  322MOL0     H44381  12.315   5.711  10.344  0.8292  1.6915  0.2055
  322MOL0     H44382  12.189   5.804  10.427  0.4267  1.7284 -3.4875
  322MOL0     H44383  12.183   5.709  10.142 -1.5677 -0.7879 -0.6012
  322MOL0     H44384  12.039   5.755  10.239  0.3695 -1.9297 -0.5464
  322MOL0     H44385  12.034   5.980  10.068  0.1931  1.0538  0.0714
  322MOL0     H44386  12.284   6.276  10.046 -2.4583  0.1109  1.7587
  322MOL0     H44387  12.130   6.230   9.968  1.9437  3.9401 -3.2812
  322MOL0     H44388  12.298   6.051   9.839  1.6073  0.0027 -1.8140
  322MOL0     H44389  12.258   6.209   9.775  0.8464  0.5378  1.1082
  322MOL0     H44390  12.452   6.306   9.877 -2.7017  1.8861 -2.4279
  322MOL0     H44391  12.510   6.132   9.909 -0.7638 -0.6264 -0.2551
  322MOL0     H44392  12.604   6.145   9.714  0.5468  2.0669  1.6011
  322MOL0     H44393  12.450   6.098   9.649  3.0295 -1.3451  0.5992
  322MOL0     H44394  12.599   6.546   9.617  2.5944  1.7949 -0.4913
  322MOL0     H44395  12.739   6.701   9.548 -0.4708 -1.7777  0.5326
  322MOL0     H44396  12.693   6.697   9.371  0.4670 -0.1128 -0.0827
  322MOL0     H44397  12.859   6.660   9.420  1.7810  0.5953  3.3794
  322MOL0     H44398  12.712   6.607   8.971 -1.1059 -0.8931 -0.4092
  322MOL0     H44399  12.818   6.707   8.743 -1.2060  1.9768  4.6096
  322MOL0     H44400  13.078   6.386   8.520  2.3691  3.1294  0.4555
  322MOL0     H44401  12.891   6.400   8.512 -0.3421  0.2339  0.7815
  322MOL0     H44402  12.951   6.591   8.349 -1.1460 -0.7945 -1.6541
  322MOL0     H44403  13.117   6.530   8.344 -0.5016  1.1517 -0.6059
  322MOL0     H44404  12.929   6.458   8.175  0.0124 -0.5613  0.8819
  322MOL0     H44405  12.870   6.362   8.301 -2.5181  0.5428 -3.6561
  322MOL0     H44406  13.070   6.213   8.298  2.9497  0.6982  1.6612
  322MOL0     H44407  13.161   6.352   8.248  0.5004 -0.9384  2.2783
  322MOL0     H44408  12.967   6.200   8.060 -0.1617 -1.9252  1.3107
  322MOL0     H44409  13.088   6.329   8.013 -0.8933 -1.5936 -1.8666
  322MOL0     H44410  13.122   6.053   8.152  3.1931  1.3671  2.2911
  322MOL0     H44411  13.248   6.162   8.108 -0.0298 -0.7595  0.3001
  322MOL0     H44412  13.172   6.125   7.857 -2.7966  0.1483  0.4217
  322MOL0     H44413  13.088   5.977   7.914  2.3938 -1.7350  1.3578
  322MOL0     H44414  13.254   5.894   8.031 -0.7199 -0.3718 -0.3918
  322MOL0     H44415  13.369   6.019   7.973  0.1330 -1.7613  0.8159
  322MOL0     H44416  13.030   6.323   8.728 -1.0255 -1.6322  1.2362
  322MOL0     H44417  12.953   6.263   8.951 -1.8770 -0.0745  1.5861
  322MOL0     H44418  12.703   6.234   9.243  1.3900  0.5964  0.0921
  322MOL0     H44419  12.576   6.149   9.440 -2.1129 -0.2337  2.5391
  322MOL0     H44420  11.625   5.224  10.892  0.0542  0.0664  0.7983
  322MOL0     H44421  11.407   5.210  10.899  4.0100  0.8874  2.2651
  322MOL0     H44422  11.030   5.553  10.756  0.6544 -1.1207 -0.7862
  322MOL0     H44423  10.813   5.624  10.743  0.4542 -0.3564 -1.6787
  322MOL0     H44424  10.633   5.640  10.868 -0.1174  0.2661 -1.4361
  322MOL0     H44425  10.473   5.634  10.773 -3.0916 -0.6627  1.3069
  322MOL0     H44426  10.477   5.640  11.022 -0.6144  0.5743 -0.9473
  322MOL0     H44427  10.503   5.464  11.017 -3.7953 -1.0057  1.2961
  322MOL0     H44428  10.327   5.431  10.868 -0.6386 -2.0480  1.6581
  322MOL0     H44429  10.271   5.495  11.025  0.6262  1.6918  1.3055
  322MOL0     H44430  10.132   5.603  10.891  1.0914 -0.0950  2.1525
  322MOL0     H44431  10.254   5.637  10.768 -1.6064  0.0056 -0.8656
  322MOL0     H44432  10.248   5.995  10.996  3.7309  0.5282 -3.0500
  322MOL0     H44433  10.680   5.252  10.931  0.8939 -0.9582 -0.1653
  322MOL0     H44434  10.854   5.087  10.958  1.1541 -2.3626  1.5291
  322MOL0     H44435  11.023   5.108  10.928  0.2181 -1.1719  1.0026
  322MOL0     H44436  10.947   5.161  11.084 -0.4523 -0.0765 -0.5998
  323MOL0     O44437   1.301   3.244   0.240 -0.2255  0.3960  0.4977
  323MOL0     C44438   1.390   3.296   0.299 -0.4839 -0.2900 -0.1607
  323MOL0     O44439   1.518   3.266   0.287  0.4791 -0.2647  0.1587
  323MOL0     C44440   1.552   3.204   0.172  0.5554 -0.5127 -0.5666
  323MOL0     C44441   1.610   3.281   0.075 -0.0323  0.1612 -0.6571
  323MOL0     C44442   1.667   3.211  -0.019  0.7626  0.3678  1.1363
  323MOL0     C44443   1.665   3.063  -0.024  0.4416 -0.7392  0.1763
  323MOL0     O44444   1.715   3.014  -0.140 -0.3484 -0.0263  0.0635
  323MOL0     C44445   1.696   2.877  -0.175 -0.4490 -0.1651  0.4940
  323MOL0     C44446   1.624   2.888  -0.312 -0.8878  0.0261 -0.8318
  323MOL0     C44447   1.637   2.751  -0.373 -0.1256  0.1491  0.4685
  323MOL0     C44448   1.618   2.762  -0.524  0.0713  0.1988 -0.6679
  323MOL0     C44449   1.696   2.656  -0.587 -0.6637 -0.0474 -1.0581
  323MOL0     C44450   1.655   2.654  -0.729  0.3300  0.5186  0.1113
  323MOL0     C44451   1.697   2.529  -0.813  0.3970  0.1355  0.3031
  323MOL0     C44452   1.834   2.463  -0.817 -0.7572 -0.7433 -0.4991
  323MOL0     N44453   1.943   2.538  -0.885  1.0337 -0.2955  0.2242
  323MOL0     C44454   2.002   2.651  -0.832 -0.1956 -1.0070 -0.8658
  323MOL0     C44455   2.103   2.682  -0.912  0.7445  0.0272  1.0674
  323MOL0     C44456   2.192   2.800  -0.907 -0.1497 -0.9560 -0.4119
  323MOL0     C44457   2.339   2.770  -0.891 -0.5360  0.5147 -0.5033
  323MOL0     C44458   2.421   2.854  -0.790  0.8916 -0.7073 -0.0352
  323MOL0     C44459   2.445   3.000  -0.837 -0.1938 -0.6501  0.0730
  323MOL0     O44460   2.475   3.070  -0.725 -0.5779  0.0574 -0.6340
  323MOL0     C44461   2.532   3.189  -0.743 -1.1554  0.2281 -0.6189
  323MOL0     C44462   2.568   3.249  -0.628  0.5864 -0.3779  0.8632
  323MOL0     C44463   2.639   3.370  -0.627 -0.9628 -0.4565 -0.5779
  323MOL0     C44464   2.671   3.437  -0.486  0.3301  0.2392 -0.2240
  323MOL0     C44465   2.665   3.440  -0.743 -0.2107  0.3336 -0.7465
  323MOL0     C44466   2.722   3.576  -0.752  0.3399  0.4472 -0.0622
  323MOL0     O44467   2.806   3.619  -0.652 -0.3382 -0.1444 -0.0739
  323MOL0     C44468   2.863   3.748  -0.671  0.3118 -0.1681 -0.7018
  323MOL0     C44469   2.819   3.863  -0.601 -1.0577  0.2810 -1.1995
  323MOL0     C44470   2.889   3.983  -0.618  0.4230  0.3725 -0.1662
  323MOL0     C44471   2.996   3.987  -0.706 -0.5622 -0.8020 -0.3799
  323MOL0     O44472   3.071   4.098  -0.707  0.3118 -0.4841 -0.5787
  323MOL0     C44473   3.072   4.174  -0.824 -0.2507 -0.0330  0.3546
  323MOL0     C44474   2.969   4.294  -0.811 -0.6263  0.3413  0.0097
  323MOL0     C44475   3.000   4.379  -0.686  0.1484 -0.1003  0.0523
  323MOL0     C44476   2.910   4.502  -0.704 -0.6032 -1.0140  0.7241
  323MOL0     C44477   2.934   4.594  -0.582  1.2386  0.1710  0.4355
  323MOL0     C44478   2.855   4.724  -0.598  0.9329 -0.2373 -0.5768
  323MOL0     C44479   2.855   4.819  -0.468  0.6028 -0.2077  0.1159
  323MOL0     C44480   3.000   4.874  -0.460 -1.0029 -0.7025 -1.0717
  323MOL0    Cl44481   3.004   4.974  -0.307  0.1770 -0.2949  0.1170
  323MOL0     C44482   3.037   3.874  -0.781 -0.1209  0.3062  0.3106
  323MOL0     C44483   2.970   3.752  -0.755 -0.1934 -1.2595  0.4792
  323MOL0     O44484   2.708   3.636  -0.862 -0.9644  0.6577 -0.0374
  323MOL0     C44485   2.629   3.373  -0.863  0.1007  0.0313 -0.4862
  323MOL0     C44486   2.559   3.253  -0.866 -0.4616  0.4955 -0.6421
  323MOL0     N44487   2.119   2.571  -0.995 -0.8508  0.9187  0.8203
  323MOL0     N44488   2.024   2.488  -0.981 -0.3521 -0.5115  0.3253
  323MOL0     C44489   1.603   2.995   0.085  0.2091  0.6987  0.3598
  323MOL0     C44490   1.551   3.067   0.181 -0.8434 -0.6194 -0.5500
  323MOL0     C44491   1.362   3.377   0.423 -0.8623 -0.0245  0.2671
  323MOL0     C44492   1.394   3.336   0.553  0.6696 -0.0316 -0.0476
  323MOL0     C44493   1.374   3.423   0.666 -0.9578 -0.1581 -0.7299
  323MOL0     C44494   1.320   3.552   0.645 -0.1300 -0.0672  0.6242
  323MOL0     O44495   1.271   3.634   0.753 -0.2673  0.7740  0.4909
  323MOL0     C44496   1.286   3.598   0.890 -0.0595  0.5881 -0.7296
  323MOL0     C44497   1.426   3.623   0.952  0.0326  0.4008  0.4256
  323MOL0     C44498   1.424   3.632   1.105 -0.0108 -0.1620  1.3144
  323MOL0     C44499   1.553   3.698   1.148  0.5294 -0.2216 -0.8264
  323MOL0     C44500   1.539   3.840   1.153  0.7083 -0.6677 -0.3931
  323MOL0     C44501   1.526   3.959   1.172  0.4771  1.1118 -1.3028
  323MOL0     C44502   1.285   3.592   0.517 -0.2047  0.1651 -0.0837
  323MOL0     C44503   1.294   3.503   0.406 -0.3828  0.6936  0.1106
  323MOL0     C44504   1.249   3.562   0.274  0.1769  0.4997  0.7916
  323MOL0     H44505   1.622   3.388   0.086  1.1558  0.3971 -3.4294
  323MOL0     H44506   1.723   3.254  -0.101 -0.3104  1.7436  1.0906
  323MOL0     H44507   1.631   2.828  -0.102  0.9987 -0.4085  1.6395
  323MOL0     H44508   1.793   2.827  -0.173  1.1286  2.6466 -0.5878
  323MOL0     H44509   1.520   2.922  -0.310 -0.7039  1.2178 -4.3405
  323MOL0     H44510   1.661   2.965  -0.380 -1.4307  1.8795  0.8526
  323MOL0     H44511   1.735   2.707  -0.355  0.3316 -0.3609 -2.6683
  323MOL0     H44512   1.568   2.680  -0.326 -2.5154  1.9397 -0.1738
  323MOL0     H44513   1.516   2.743  -0.559  0.3766 -1.8284 -0.5673
  323MOL0     H44514   1.658   2.856  -0.562  0.4052 -0.5611 -2.2707
  323MOL0     H44515   1.702   2.556  -0.544 -0.0763  0.0914 -0.8078
  323MOL0     H44516   1.802   2.684  -0.586 -0.7981  0.4766 -0.8846
  323MOL0     H44517   1.551   2.677  -0.755 -0.3351 -0.3366  1.8650
  323MOL0     H44518   1.712   2.730  -0.782 -0.6642 -0.0281 -1.8115
  323MOL0     H44519   1.667   2.554  -0.915  1.1448 -3.5862 -0.9768
  323MOL0     H44520   1.629   2.454  -0.771 -0.1072  0.5506  0.2527
  323MOL0     H44521   1.887   2.453  -0.722 -0.6054  0.4092 -0.4486
  323MOL0     H44522   1.825   2.364  -0.862 -1.9891 -2.9051  3.9631
  323MOL0     H44523   1.968   2.711  -0.748  1.6354 -1.0545 -0.0543
  323MOL0     H44524   2.156   2.868  -0.830 -0.6516 -0.1462 -1.3422
  323MOL0     H44525   2.179   2.848  -1.005 -1.6128  0.0114  0.2368
  323MOL0     H44526   2.359   2.665  -0.870  1.8132  1.4125  2.4324
  323MOL0     H44527   2.386   2.794  -0.986 -2.9142  3.2808 -1.1496
  323MOL0     H44528   2.370   2.858  -0.694 -0.6085 -0.4230 -0.8107
  323MOL0     H44529   2.516   2.798  -0.784 -1.1468 -4.6237 -0.6225
  323MOL0     H44530   2.526   3.002  -0.911  1.0066  2.1557  1.2987
  323MOL0     H44531   2.353   3.041  -0.879 -0.9497 -1.1141  1.2140
  323MOL0     H44532   2.561   3.196  -0.533  0.4924 -2.2637 -0.1561
  323MOL0     H44533   2.778   3.454  -0.473  0.0741 -0.0908  3.4422
  323MOL0     H44534   2.635   3.366  -0.411  1.6239 -1.5711 -1.2505
  323MOL0     H44535   2.612   3.529  -0.477  0.0114 -0.1088  1.6673
  323MOL0     H44536   2.728   3.871  -0.542 -0.7369  0.8243 -0.7685
  323MOL0     H44537   2.859   4.074  -0.567 -0.1150 -1.6067  3.3321
  323MOL0     H44538   3.172   4.217  -0.834  0.5482 -1.3237  2.2489
  323MOL0     H44539   3.025   4.118  -0.906 -0.6382  0.3017  0.3471
  323MOL0     H44540   3.000   4.353  -0.898  1.9250  1.2988  1.4710
  323MOL0     H44541   2.869   4.252  -0.830 -1.1109  0.9042  1.2038
  323MOL0     H44542   3.107   4.399  -0.676 -0.0134  0.7135  0.1671
  323MOL0     H44543   2.974   4.333  -0.590  0.4227  0.0946  0.2216
  323MOL0     H44544   2.809   4.459  -0.709  0.3702 -3.4588  0.8565
  323MOL0     H44545   2.929   4.549  -0.801 -0.9836  1.6232  1.8418
  323MOL0     H44546   2.899   4.536  -0.496 -1.2561 -2.5410 -2.1624
  323MOL0     H44547   3.039   4.620  -0.597  1.1647 -1.0477 -3.2195
  323MOL0     H44548   2.749   4.702  -0.611  0.7617  0.0492  0.2568
  323MOL0     H44549   2.875   4.782  -0.689 -1.5065  0.6965 -0.5840
  323MOL0     H44550   2.834   4.759  -0.379  0.5545 -0.3659 -0.0017
  323MOL0     H44551   2.774   4.893  -0.473  0.2014 -0.5425  1.2713
  323MOL0     H44552   3.010   4.937  -0.550  2.4717  1.5884  0.6597
  323MOL0     H44553   3.081   4.801  -0.462 -0.5812 -0.2429 -1.1796
  323MOL0     H44554   3.116   3.862  -0.855  0.0590 -0.6063  0.6290
  323MOL0     H44555   3.011   3.660  -0.795 -0.2438 -1.0504 -0.0538
  323MOL0     H44556   2.664   3.410  -0.958  3.2668 -1.5612 -0.0766
  323MOL0     H44557   2.525   3.214  -0.961  2.9186  2.2926 -2.7716
  323MOL0     H44558   1.589   2.888   0.074  1.7161  0.7312 -3.2632
  323MOL0     H44559   1.500   3.022   0.266 -1.6962 -1.0630 -1.2793
  323MOL0     H44560   1.434   3.237   0.568  1.3229  0.2563  0.1255
  323MOL0     H44561   1.407   3.395   0.766  1.8544  1.4597 -1.0801
  323MOL0     H44562   1.207   3.647   0.949  1.5091  2.2098  0.1426
  323MOL0     H44563   1.264   3.492   0.906  1.9505  0.6320  4.6794
  323MOL0     H44564   1.458   3.722   0.917  0.9266 -0.4862 -1.3828
  323MOL0     H44565   1.486   3.542   0.909 -0.2458 -1.1901  2.8259
  323MOL0     H44566   1.343   3.684   1.157  0.4826 -0.7900  2.7619
  323MOL0     H44567   1.423   3.532   1.150  0.7638  0.4694  2.8065
  323MOL0     H44568   1.640   3.667   1.089  0.3817 -3.0246  0.2558
  323MOL0     H44569   1.572   3.658   1.248 -0.7215 -0.9785 -0.8648
  323MOL0     H44570   1.497   4.062   1.172 -2.0620  0.4789  0.0025
  323MOL0     H44571   1.237   3.689   0.517  0.0423  0.2877 -0.3641
  323MOL0     H44572   1.141   3.550   0.266  0.0967  1.4451  0.3306
  323MOL0     H44573   1.271   3.669   0.276 -1.9260  0.9796  2.6377
  323MOL0     H44574   1.299   3.517   0.188  1.2612 -2.7695  2.9497
  324MOL0     O44575   2.244   4.785   4.588 -0.6212 -1.3489 -0.1759
  324MOL0     C44576   2.195   4.898   4.563 -0.2566 -0.1662 -0.6425
  324MOL0     O44577   2.164   4.951   4.435  0.9001 -1.2130 -0.3560
  324MOL0     C44578   2.149   4.866   4.329 -0.3775  0.1324 -0.1312
  324MOL0     C44579   2.261   4.809   4.268  0.2236  0.3447  0.2660
  324MOL0     C44580   2.259   4.727   4.145  0.1017  0.9160 -1.0142
  324MOL0     C44581   2.121   4.694   4.107  1.7393  0.0842 -0.4441
  324MOL0     O44582   2.077   4.599   4.011  0.4414 -0.0747 -0.5312
  324MOL0     C44583   2.158   4.484   3.972 -0.2009 -1.1115  0.1744
  324MOL0     C44584   2.115   4.439   3.824  1.0832 -0.7037  0.3601
  324MOL0     C44585   2.191   4.317   3.773 -0.7009  0.2334 -0.3053
  324MOL0     C44586   2.118   4.234   3.668 -0.3523 -0.6225  0.9281
  324MOL0     C44587   2.203   4.130   3.586  0.1103  0.0979  0.0153
  324MOL0     C44588   2.319   4.204   3.508 -0.6346  0.5618 -0.1539
  324MOL0     C44589   2.363   4.146   3.381 -0.0566 -0.4737  0.1046
  324MOL0     C44590   2.464   4.034   3.401 -0.5641  0.1823 -0.7546
  324MOL0     N44591   2.520   3.986   3.273  0.0820 -0.2178 -0.6520
  324MOL0     C44592   2.446   3.928   3.170 -0.3153 -0.0943 -0.4172
  324MOL0     C44593   2.527   3.871   3.091 -0.1126  0.2782 -0.4145
  324MOL0     C44594   2.488   3.780   2.984 -0.1784  0.0866  1.4716
  324MOL0     C44595   2.408   3.836   2.860 -0.3097 -0.6382 -0.1760
  324MOL0     C44596   2.483   3.938   2.774 -0.2941  0.7325 -0.4054
  324MOL0     C44597   2.633   3.903   2.744 -0.5926 -0.0190  0.2495
  324MOL0     O44598   2.625   3.792   2.660  0.8579 -0.6034  0.1499
  324MOL0     C44599   2.746   3.758   2.606 -0.5763  0.3860  0.0187
  324MOL0     C44600   2.758   3.733   2.467 -0.0466 -0.0887  0.4409
  324MOL0     C44601   2.885   3.701   2.427  0.1852  0.8171  0.3761
  324MOL0     C44602   2.898   3.663   2.274  0.3386  1.0153  0.5865
  324MOL0     C44603   3.006   3.702   2.516  1.2835 -0.4005  0.0308
  324MOL0     C44604   3.144   3.670   2.471  0.5597 -0.2984  0.7929
  324MOL0     O44605   3.152   3.625   2.349 -0.5071 -0.2196 -0.4849
  324MOL0     C44606   3.270   3.565   2.300 -0.2308 -0.3238 -0.7577
  324MOL0     C44607   3.327   3.617   2.178 -0.6693  0.3506 -0.5862
  324MOL0     C44608   3.437   3.559   2.124 -0.2498  0.1280  1.0026
  324MOL0     C44609   3.505   3.459   2.201  0.5619  0.6030  1.5306
  324MOL0     O44610   3.624   3.415   2.145  0.6959  0.3161  0.0917
  324MOL0     C44611   3.676   3.287   2.180  0.0635  0.0015  0.4006
  324MOL0     C44612   3.752   3.220   2.063  0.3651 -0.7072  0.0752
  324MOL0     C44613   3.848   3.103   2.103 -0.4464  0.6131  1.1577
  324MOL0     C44614   3.936   3.065   1.981  0.3858  0.3855 -1.1412
  324MOL0     C44615   4.062   2.974   2.031  0.4680  0.1838  0.3928
  324MOL0     C44616   4.171   2.956   1.918 -0.7917 -0.0380  0.3651
  324MOL0     C44617   4.319   2.929   1.974 -1.0469  0.3474  0.5456
  324MOL0     C44618   4.330   2.791   2.044  0.5987 -0.4369 -0.9074
  324MOL0    Cl44619   4.328   2.643   1.935 -0.0776 -0.0701 -0.4175
  324MOL0     C44620   3.451   3.406   2.320 -0.3912  0.5155 -0.4770
  324MOL0     C44621   3.322   3.451   2.369  1.3169  0.0108  1.1260
  324MOL0     O44622   3.237   3.696   2.543  1.1166 -0.1162 -0.5079
  324MOL0     C44623   2.976   3.720   2.650  0.3378 -0.8163 -0.3403
  324MOL0     C44624   2.849   3.753   2.698 -0.3349 -0.5576 -0.1160
  324MOL0     N44625   2.647   3.901   3.148  0.1051 -0.6248 -0.0431
  324MOL0     N44626   2.650   3.962   3.248 -0.0812 -0.2148 -1.2561
  324MOL0     C44627   2.009   4.735   4.186  0.2718  0.6136  0.0741
  324MOL0     C44628   2.029   4.821   4.290 -0.9187  0.2651 -0.5326
  324MOL0     C44629   2.204   5.000   4.664 -0.4638 -0.4517 -0.3310
  324MOL0     C44630   2.304   5.091   4.660 -0.2761  0.1289 -0.6803
  324MOL0     C44631   2.317   5.190   4.764  1.2118  0.1394 -0.3108
  324MOL0     C44632   2.234   5.195   4.875  0.6168  0.4704  0.9154
  324MOL0     O44633   2.276   5.284   4.970 -0.5974  0.3152 -0.2737
  324MOL0     C44634   2.198   5.310   5.089 -0.8088  0.8796 -0.0599
  324MOL0     C44635   2.237   5.231   5.213  0.5736 -0.5600  0.5692
  324MOL0     C44636   2.181   5.083   5.226 -0.3861 -0.1700 -0.6490
  324MOL0     C44637   2.256   5.007   5.342 -0.0343 -0.2612 -0.0254
  324MOL0     C44638   2.208   4.874   5.368  0.0573 -0.3769 -0.4272
  324MOL0     C44639   2.156   4.773   5.407 -0.0263  0.4569 -0.6691
  324MOL0     C44640   2.128   5.099   4.878 -0.0434 -0.4063 -0.5506
  324MOL0     C44641   2.116   5.001   4.769 -0.9744  0.3119  0.4160
  324MOL0     C44642   2.012   4.894   4.777  1.2106  0.2317 -0.6813
  324MOL0     H44643   2.360   4.828   4.309  0.0426  0.1423  0.7966
  324MOL0     H44644   2.347   4.684   4.097 -0.1004 -2.6256  1.4118
  324MOL0     H44645   2.140   4.400   4.039 -0.0861  0.4209  2.2330
  324MOL0     H44646   2.264   4.508   3.987 -0.5265  0.0607  0.7744
  324MOL0     H44647   2.012   4.402   3.826  0.6809 -0.5840 -5.0520
  324MOL0     H44648   2.118   4.528   3.761  0.1187 -2.8974 -3.0219
  324MOL0     H44649   2.288   4.356   3.739 -0.3961 -0.3427 -0.1041
  324MOL0     H44650   2.201   4.267   3.869 -1.8594  2.6605  1.1753
  324MOL0     H44651   2.037   4.182   3.720  1.8136 -1.0749  4.1628
  324MOL0     H44652   2.064   4.305   3.605 -0.2188 -3.1599 -2.2549
  324MOL0     H44653   2.144   4.077   3.512  2.2183 -3.3878  0.6195
  324MOL0     H44654   2.242   4.056   3.656  0.3542 -1.5770 -1.8441
  324MOL0     H44655   2.283   4.302   3.476 -5.1479 -0.5055  0.9713
  324MOL0     H44656   2.403   4.222   3.576  0.3132 -0.8212 -0.8841
  324MOL0     H44657   2.415   4.224   3.324  0.2208 -2.7705 -3.0690
  324MOL0     H44658   2.282   4.114   3.314 -3.0240  1.4559  2.4826
  324MOL0     H44659   2.544   4.079   3.461  0.3152  1.9544 -3.1093
  324MOL0     H44660   2.427   3.946   3.456  0.7348 -1.8421 -2.9548
  324MOL0     H44661   2.340   3.914   3.152 -1.1276  3.1835  1.0886
  324MOL0     H44662   2.434   3.691   3.018 -1.6752  0.6902  0.8113
  324MOL0     H44663   2.580   3.746   2.937 -2.4354  0.2829 -3.8741
  324MOL0     H44664   2.396   3.752   2.791  1.3931 -0.5096 -0.6700
  324MOL0     H44665   2.311   3.879   2.885  0.8021  1.1494  1.3408
  324MOL0     H44666   2.435   3.942   2.677 -2.5850  0.8001  0.6710
  324MOL0     H44667   2.473   4.039   2.816  1.9665  0.6983  0.3846
  324MOL0     H44668   2.673   3.987   2.686  0.2859 -1.6812 -1.6736
  324MOL0     H44669   2.701   3.897   2.830  0.2980 -2.0652 -0.5119
  324MOL0     H44670   2.676   3.734   2.395 -0.5616 -0.8968  1.0026
  324MOL0     H44671   2.974   3.719   2.219  3.3843 -5.2149 -2.6798
  324MOL0     H44672   2.803   3.666   2.218  0.6335 -2.4123 -0.3478
  324MOL0     H44673   2.928   3.558   2.271  1.6799  1.4076 -0.4342
  324MOL0     H44674   3.285   3.697   2.117  1.0860  2.8710  1.2693
  324MOL0     H44675   3.478   3.583   2.026 -2.1906 -1.5789 -0.2979
  324MOL0     H44676   3.735   3.301   2.271 -0.0904  3.8593  0.0571
  324MOL0     H44677   3.594   3.215   2.194  0.4671 -0.3009  1.3165
  324MOL0     H44678   3.669   3.190   1.998  0.9703 -0.0233 -1.0662
  324MOL0     H44679   3.813   3.288   2.002  2.6286 -2.7305 -0.0698
  324MOL0     H44680   3.777   3.023   2.127  0.7634  0.2111  3.8870
  324MOL0     H44681   3.909   3.133   2.190  1.1908 -0.4381  0.4344
  324MOL0     H44682   3.971   3.164   1.947  0.6171  1.6228  2.3570
  324MOL0     H44683   3.879   3.018   1.900 -0.6287 -2.6473  1.1805
  324MOL0     H44684   4.112   3.021   2.117  0.8254  0.9586 -0.2319
  324MOL0     H44685   4.031   2.872   2.058  3.2347 -0.5550  1.1108
  324MOL0     H44686   4.176   3.042   1.850  0.6974 -0.1038  0.3529
  324MOL0     H44687   4.138   2.869   1.862  0.7748 -0.8632  0.6760
  324MOL0     H44688   4.351   3.010   2.040  1.0200  2.1184 -2.3707
  324MOL0     H44689   4.392   2.937   1.893 -2.7739 -0.4487 -1.1613
  324MOL0     H44690   4.244   2.766   2.108  0.1710  1.2812 -0.7767
  324MOL0     H44691   4.423   2.784   2.101  1.0579 -2.9116 -1.8097
  324MOL0     H44692   3.488   3.310   2.356  1.1133  1.0187 -0.6114
  324MOL0     H44693   3.253   3.406   2.441  1.5857  1.4231  2.3194
  324MOL0     H44694   3.058   3.701   2.719  0.1515 -0.9124 -0.1423
  324MOL0     H44695   2.836   3.773   2.804 -0.5650  1.1183 -0.4322
  324MOL0     H44696   1.917   4.684   4.161 -0.0518 -0.1590  2.6241
  324MOL0     H44697   1.947   4.846   4.357  0.4288  0.4428  1.1240
  324MOL0     H44698   2.373   5.086   4.576  1.4728  2.1519  0.5659
  324MOL0     H44699   2.394   5.267   4.758 -0.2005  1.6174 -0.1491
  324MOL0     H44700   2.216   5.416   5.107 -0.2545  0.6523  0.7987
  324MOL0     H44701   2.091   5.287   5.084 -0.6471 -0.5261  1.7754
  324MOL0     H44702   2.208   5.293   5.298 -0.0060 -2.4299  1.8177
  324MOL0     H44703   2.346   5.237   5.216  0.4705  1.4087  3.3743
  324MOL0     H44704   2.075   5.091   5.255 -0.5827 -0.8746 -1.1480
  324MOL0     H44705   2.189   5.022   5.136  0.3885 -2.1082  0.6734
  324MOL0     H44706   2.233   5.073   5.427  0.8951  1.0252 -0.7275
  324MOL0     H44707   2.362   4.990   5.321 -0.1236 -1.7873  0.6648
  324MOL0     H44708   2.110   4.682   5.439  3.2091 -0.1766  2.8629
  324MOL0     H44709   2.058   5.106   4.960 -1.1627  2.0182 -1.6158
  324MOL0     H44710   1.943   4.907   4.693 -1.6105  2.5074  1.7734
  324MOL0     H44711   2.049   4.791   4.784 -0.5555 -0.3367  2.0472
  324MOL0     H44712   1.944   4.908   4.862  0.7077 -3.2887 -0.3239
  325MOL0     O44713   9.981   3.118   3.067 -0.3470  0.7496 -0.4246
  325MOL0     C44714   9.959   2.998   3.088  0.9372  1.1215  1.0472
  325MOL0     O44715   9.891   2.920   3.008 -0.3900  0.3699 -0.2140
  325MOL0     C44716   9.828   2.968   2.898  0.0784 -0.9282 -0.1413
  325MOL0     C44717   9.820   2.894   2.779  0.8305 -0.6505 -0.8607
  325MOL0     C44718   9.748   2.942   2.665  0.0143 -0.3003  0.6604
  325MOL0     C44719   9.680   3.057   2.677  0.4636 -0.1762  0.6362
  325MOL0     O44720   9.620   3.090   2.557 -0.1933 -0.8729 -0.2446
  325MOL0     C44721   9.484   3.068   2.537 -0.2689 -0.2171 -0.2198
  325MOL0     C44722   9.436   2.920   2.557  0.4502 -0.0895  0.6345
  325MOL0     C44723   9.288   2.925   2.523 -0.5289  0.2086  0.1412
  325MOL0     C44724   9.229   2.788   2.502 -0.3365  0.6922  0.0279
  325MOL0     C44725   9.085   2.771   2.494  0.7149  0.0864  0.0483
  325MOL0     C44726   9.013   2.838   2.621 -0.4576 -0.3540  0.1011
  325MOL0     C44727   8.924   2.966   2.582 -0.6810 -0.2808 -0.4515
  325MOL0     C44728   8.876   3.042   2.703  0.3419 -0.8769 -0.2498
  325MOL0     N44729   8.788   3.152   2.650  0.6136 -0.3625 -0.7301
  325MOL0     C44730   8.797   3.283   2.697  0.6566 -0.4757 -0.4196
  325MOL0     C44731   8.693   3.348   2.631  0.6372 -0.2838 -0.1332
  325MOL0     C44732   8.679   3.503   2.649  0.5007  0.3165 -0.1266
  325MOL0     C44733   8.633   3.514   2.795  0.1626  0.5753 -0.8502
  325MOL0     C44734   8.606   3.661   2.848 -0.2476 -0.1755 -0.2341
  325MOL0     C44735   8.717   3.768   2.822  0.1586  0.5781 -0.9181
  325MOL0     O44736   8.690   3.886   2.898 -0.3893  0.1755  0.2071
  325MOL0     C44737   8.795   3.949   2.963  0.3011 -0.1480 -0.4107
  325MOL0     C44738   8.923   3.945   2.922  0.5352  0.5414 -0.2900
  325MOL0     C44739   9.024   4.039   2.972  0.3015 -0.4345  0.4874
  325MOL0     C44740   9.168   4.014   2.917  0.9338 -0.0007  0.5922
  325MOL0     C44741   8.981   4.141   3.054  0.8937 -0.1594 -0.1920
  325MOL0     C44742   9.075   4.242   3.091 -0.0932  1.0539  0.2734
  325MOL0     O44743   9.093   4.260   3.226 -0.4661 -0.0432 -0.5442
  325MOL0     C44744   9.230   4.269   3.263  0.3935 -0.2802  0.1817
  325MOL0     C44745   9.271   4.402   3.262 -1.3580  0.0272  0.2651
  325MOL0     C44746   9.409   4.425   3.292  1.0756 -0.3805  0.0200
  325MOL0     C44747   9.503   4.320   3.311  0.1689 -0.6244  0.2497
  325MOL0     O44748   9.628   4.346   3.354 -0.4324 -0.8133 -0.4787
  325MOL0     C44749   9.733   4.256   3.349  0.0745 -0.2144 -0.2493
  325MOL0     C44750   9.856   4.313   3.421  0.2497  0.7927  0.7729
  325MOL0     C44751   9.985   4.217   3.418  0.6310  1.1599  0.3162
  325MOL0     C44752  10.081   4.245   3.298  0.5575  0.4684  0.3215
  325MOL0     C44753  10.197   4.152   3.316  1.2621  0.0405 -0.0873
  325MOL0     C44754  10.323   4.217   3.274  0.2900 -0.3867 -0.1380
  325MOL0     C44755  10.428   4.115   3.245  0.0926  0.4621 -0.0242
  325MOL0     C44756  10.540   4.158   3.147  0.3753 -0.3052 -0.1779
  325MOL0    Cl44757  10.671   4.255   3.229  0.7946 -0.4750  0.3374
  325MOL0     C44758   9.452   4.195   3.289  0.1871 -0.7621 -0.6864
  325MOL0     C44759   9.321   4.168   3.265  1.1771 -0.6008  0.2027
  325MOL0     O44760   9.127   4.310   2.998 -1.1039  0.0355 -0.1660
  325MOL0     C44761   8.846   4.133   3.114 -0.2928  0.2988 -0.2608
  325MOL0     C44762   8.753   4.045   3.060  0.4278  1.1378  0.6957
  325MOL0     N44763   8.619   3.253   2.559  0.0885 -0.0329 -0.2907
  325MOL0     N44764   8.689   3.146   2.554 -0.7933 -0.3120  0.4322
  325MOL0     C44765   9.674   3.129   2.790 -0.3006 -0.9650 -0.5566
  325MOL0     C44766   9.752   3.091   2.896 -0.4487 -0.9696 -0.4265
  325MOL0     C44767  10.021   2.948   3.215  0.5228  0.0733  0.3379
  325MOL0     C44768  10.006   2.809   3.247  0.4553  0.1265  0.1555
  325MOL0     C44769  10.074   2.740   3.345 -0.3072  0.5573  0.7840
  325MOL0     C44770  10.156   2.812   3.422 -0.1836  0.0186 -0.3520
  325MOL0     O44771  10.238   2.733   3.508  0.3484  0.6137  0.0875
  325MOL0     C44772  10.249   2.776   3.643  0.2066 -0.5249  0.2326
  325MOL0     C44773  10.387   2.853   3.659  0.0560  0.7363  0.0954
  325MOL0     C44774  10.411   2.895   3.800 -0.1388 -0.6762  0.2140
  325MOL0     C44775  10.553   2.969   3.835 -0.1533 -0.4986 -0.4830
  325MOL0     C44776  10.651   2.865   3.853 -0.3153 -0.4942  0.1019
  325MOL0     C44777  10.747   2.795   3.867 -0.9491 -0.3996  0.0852
  325MOL0     C44778  10.153   2.951   3.406 -0.2210  0.0695 -0.0822
  325MOL0     C44779  10.092   3.026   3.311 -0.4121  0.2437 -0.1827
  325MOL0     C44780  10.114   3.172   3.302 -0.7178 -0.0578  0.4948
  325MOL0     H44781   9.866   2.798   2.760  3.7896  0.0934  1.6376
  325MOL0     H44782   9.751   2.894   2.568  0.2297  0.0483  0.4938
  325MOL0     H44783   9.454   3.095   2.435 -3.5882  0.7355  0.8917
  325MOL0     H44784   9.420   3.133   2.596  2.3129  3.2337 -0.8700
  325MOL0     H44785   9.476   2.834   2.501 -2.2369 -5.3711  5.7133
  325MOL0     H44786   9.450   2.894   2.663 -3.7503 -0.6012  1.2116
  325MOL0     H44787   9.236   2.991   2.593  0.2921 -1.7211  2.7436
  325MOL0     H44788   9.269   2.974   2.427  2.9404  2.7666  0.5664
  325MOL0     H44789   9.276   2.741   2.415 -2.2279  0.1466 -0.7622
  325MOL0     H44790   9.276   2.726   2.578  0.4747  0.7723 -0.3961
  325MOL0     H44791   9.060   2.665   2.487 -1.5617  0.6365 -1.2703
  325MOL0     H44792   9.047   2.810   2.399  0.1772 -0.1799  0.1494
  325MOL0     H44793   8.954   2.768   2.681  0.6248  1.7173  3.9144
  325MOL0     H44794   9.086   2.872   2.695  1.4567 -0.0894 -1.8068
  325MOL0     H44795   8.831   2.922   2.545 -1.6576 -1.0033  2.5180
  325MOL0     H44796   8.971   3.038   2.515 -2.4298  1.5768  0.2035
  325MOL0     H44797   8.829   2.986   2.784 -0.8516  0.8790  0.3440
  325MOL0     H44798   8.969   3.084   2.743  1.7859 -2.4420 -1.7674
  325MOL0     H44799   8.859   3.326   2.775 -0.7623 -2.1798  1.7621
  325MOL0     H44800   8.600   3.546   2.586 -1.1594 -3.6317 -1.0543
  325MOL0     H44801   8.773   3.556   2.640  2.0271 -1.8483  1.9244
  325MOL0     H44802   8.551   3.448   2.822  1.3160  0.0556  1.6336
  325MOL0     H44803   8.718   3.478   2.853 -0.0402 -0.0420 -0.9317
  325MOL0     H44804   8.516   3.693   2.796  0.9887 -1.2248 -3.2364
  325MOL0     H44805   8.582   3.674   2.954  1.0465 -0.6943  0.1489
  325MOL0     H44806   8.798   3.711   2.870 -1.1086 -0.8230 -0.3441
  325MOL0     H44807   8.730   3.785   2.715 -3.7299  2.4128 -1.2501
  325MOL0     H44808   8.951   3.865   2.854  1.5454  0.7346 -0.1167
  325MOL0     H44809   9.169   3.935   2.840  0.7493  1.1953 -0.6783
  325MOL0     H44810   9.245   4.001   2.993  0.1971 -1.4011  1.1382
  325MOL0     H44811   9.195   4.110   2.872  0.2590  0.1233  0.4325
  325MOL0     H44812   9.203   4.486   3.250 -0.6945  1.1485  3.3688
  325MOL0     H44813   9.429   4.532   3.298 -1.3146  0.1729 -0.9225
  325MOL0     H44814   9.711   4.161   3.399 -1.8112 -0.1130 -0.8128
  325MOL0     H44815   9.753   4.238   3.243  2.3304 -0.9728  0.2539
  325MOL0     H44816   9.887   4.408   3.377  0.6244 -0.1915 -1.1914
  325MOL0     H44817   9.840   4.327   3.529  2.2321  1.8661  0.9773
  325MOL0     H44818   9.952   4.112   3.422 -2.2958  1.9763  0.0563
  325MOL0     H44819  10.043   4.230   3.510  1.4914  0.2894 -0.0830
  325MOL0     H44820  10.096   4.353   3.293  1.4347  0.3197 -0.6758
  325MOL0     H44821  10.027   4.211   3.209 -3.7992  0.8530  2.5496
  325MOL0     H44822  10.208   4.132   3.423  0.9713 -1.0302 -0.2529
  325MOL0     H44823  10.190   4.055   3.268 -1.8692 -2.1934  4.2409
  325MOL0     H44824  10.350   4.292   3.349  1.0879  1.0036 -1.7576
  325MOL0     H44825  10.302   4.280   3.188  1.4400  1.4724  0.8824
  325MOL0     H44826  10.369   4.035   3.198 -1.3498  1.1454  0.5655
  325MOL0     H44827  10.480   4.068   3.329  1.8793 -3.4829 -2.9960
  325MOL0     H44828  10.500   4.218   3.065 -0.1830  0.5876  0.7198
  325MOL0     H44829  10.586   4.070   3.101  0.6665  1.4236 -3.4812
  325MOL0     H44830   9.523   4.113   3.289  0.9392 -0.3088  3.4409
  325MOL0     H44831   9.288   4.064   3.263 -0.9156  0.0143  0.9052
  325MOL0     H44832   8.807   4.197   3.193 -1.4797 -2.2372  1.3522
  325MOL0     H44833   8.649   4.048   3.091 -0.1329  0.1980 -0.9564
  325MOL0     H44834   9.616   3.221   2.789 -0.5407 -1.1160 -1.4896
  325MOL0     H44835   9.748   3.151   2.986  2.5215  1.9522 -2.0538
  325MOL0     H44836   9.922   2.769   3.191 -0.3897  2.3786 -0.3265
  325MOL0     H44837  10.079   2.632   3.351 -2.6972  0.2692 -1.0229
  325MOL0     H44838  10.177   2.849   3.680  0.5407  0.5303 -1.1406
  325MOL0     H44839  10.252   2.689   3.709  0.6206  0.6647  1.8565
  325MOL0     H44840  10.384   2.939   3.591  0.4014 -1.5634 -3.0446
  325MOL0     H44841  10.458   2.781   3.618  1.2283  1.0768  1.4614
  325MOL0     H44842  10.336   2.970   3.827  2.0053  2.0815 -0.9794
  325MOL0     H44843  10.401   2.806   3.863  0.8487 -1.5247 -0.7953
  325MOL0     H44844  10.537   3.021   3.931  0.0875  1.0862 -1.2737
  325MOL0     H44845  10.595   3.027   3.753  0.4914  0.6297  0.6122
  325MOL0     H44846  10.842   2.746   3.881 -1.3255 -1.1006  0.2460
  325MOL0     H44847  10.190   3.015   3.485 -0.3319 -0.8093  0.7048
  325MOL0     H44848  10.141   3.211   3.401 -0.7220 -2.2272  1.4116
  325MOL0     H44849  10.186   3.210   3.229 -2.9106  2.3646 -0.6047
  325MOL0     H44850  10.022   3.217   3.263  1.2544  0.6336 -3.9721
  326MOL0     O44851   4.998   8.109   7.723  0.0913 -0.5359 -0.7637
  326MOL0     C44852   4.939   8.024   7.665 -0.5823  0.3506  1.0188
  326MOL0     O44853   4.957   7.987   7.539  0.6031  0.5115  0.2330
  326MOL0     C44854   5.055   8.045   7.461  0.3081  0.2114  0.1492
  326MOL0     C44855   5.012   8.121   7.353  0.1246 -0.2933 -0.0505
  326MOL0     C44856   5.108   8.172   7.266  0.3765 -1.3960  0.0058
  326MOL0     C44857   5.244   8.143   7.286  0.4135 -0.9652 -0.0045
  326MOL0     O44858   5.344   8.189   7.210 -0.2004  0.1143  0.1032
  326MOL0     C44859   5.334   8.130   7.078 -0.5923  0.3223 -0.1067
  326MOL0     C44860   5.240   8.192   6.972  0.9421  0.5115  0.2873
  326MOL0     C44861   5.290   8.134   6.833  0.2233  0.0282  0.1363
  326MOL0     C44862   5.237   8.228   6.716  0.2096 -0.7539  0.3061
  326MOL0     C44863   5.255   8.170   6.570  0.5433 -0.3704 -1.0313
  326MOL0     C44864   5.161   8.052   6.536  0.2306  0.1937  1.0664
  326MOL0     C44865   5.023   8.100   6.527  0.9223  0.2103 -0.3286
  326MOL0     C44866   4.920   8.010   6.462  0.4365 -0.7941 -0.0465
  326MOL0     N44867   4.782   8.074   6.435 -0.2296  0.8999  0.9098
  326MOL0     C44868   4.759   8.173   6.350  0.0944 -0.0876  0.6164
  326MOL0     C44869   4.627   8.186   6.354 -0.8804 -0.0030  0.4479
  326MOL0     C44870   4.532   8.280   6.275 -0.6358 -0.1418 -0.3155
  326MOL0     C44871   4.453   8.220   6.157  0.0368 -0.2624  0.4494
  326MOL0     C44872   4.529   8.147   6.042 -0.3602 -0.5097  0.1324
  326MOL0     C44873   4.597   8.242   5.941  0.4979 -0.2569  0.0770
  326MOL0     O44874   4.732   8.254   5.987 -0.8375 -0.1633 -0.5164
  326MOL0     C44875   4.833   8.171   5.937  0.2301 -0.0804  0.5940
  326MOL0     C44876   4.879   8.052   5.990 -0.5688  0.3050  0.3457
  326MOL0     C44877   4.996   7.989   5.943 -0.6842 -0.3530 -0.1901
  326MOL0     C44878   5.037   7.871   6.024 -0.3175  1.1713  1.1019
  326MOL0     C44879   5.062   8.038   5.828  0.3152  0.8772  0.2607
  326MOL0     C44880   5.193   7.987   5.778 -0.7954 -0.5603 -0.4859
  326MOL0     O44881   5.275   8.074   5.711 -0.6866 -0.5370 -0.5592
  326MOL0     C44882   5.397   8.030   5.665 -0.4700  0.7808 -0.2203
  326MOL0     C44883   5.478   7.923   5.730 -0.0579 -0.1847 -0.1873
  326MOL0     C44884   5.609   7.894   5.681 -0.0633 -0.2060  0.0378
  326MOL0     C44885   5.658   7.963   5.564  0.2076  0.6256  0.5253
  326MOL0     O44886   5.774   7.923   5.496 -0.1429 -0.6489  0.4899
  326MOL0     C44887   5.829   7.790   5.513  0.4754 -0.0698  0.6441
  326MOL0     C44888   5.929   7.744   5.403 -0.5294  0.2650  0.1311
  326MOL0     C44889   5.853   7.732   5.269  0.7369  0.4817 -0.7679
  326MOL0     C44890   5.930   7.778   5.156  0.0417  0.5787  0.7312
  326MOL0     C44891   5.913   7.924   5.121  0.2557  0.8423 -0.1462
  326MOL0     C44892   5.784   7.967   5.043 -0.9356 -0.5093 -0.6118
  326MOL0     C44893   5.779   8.102   4.974 -0.3782 -0.3010  0.6770
  326MOL0     C44894   5.694   8.100   4.843  0.2980  0.3440  0.0684
  326MOL0    Cl44895   5.512   8.104   4.872  0.5712  0.2256  0.0994
  326MOL0     C44896   5.573   8.055   5.499  0.0629  0.3478 -0.5133
  326MOL0     C44897   5.453   8.093   5.554 -0.8311 -0.3529  0.4829
  326MOL0     O44898   5.217   7.869   5.797 -0.0541  1.0565  0.0064
  326MOL0     C44899   5.013   8.156   5.779 -0.4128  0.4850  0.0519
  326MOL0     C44900   4.901   8.215   5.828 -0.1557 -0.7379 -0.3917
  326MOL0     N44901   4.570   8.089   6.444  0.2969  0.5941  0.3698
  326MOL0     N44902   4.671   8.027   6.501 -0.2441  0.2701  1.2152
  326MOL0     C44903   5.279   8.061   7.396  0.3916  0.1634 -0.6370
  326MOL0     C44904   5.184   8.014   7.483  0.3471  0.5376 -0.6923
  326MOL0     C44905   4.816   7.944   7.725  0.7197  0.1842  0.3447
  326MOL0     C44906   4.749   7.846   7.651 -0.2653 -0.3029 -0.6436
  326MOL0     C44907   4.649   7.765   7.691  0.6508  0.6088  0.6950
  326MOL0     C44908   4.601   7.773   7.821 -0.0405 -0.4981 -0.5355
  326MOL0     O44909   4.504   7.700   7.884 -0.0030 -0.1598  0.4809
  326MOL0     C44910   4.459   7.573   7.830 -0.1536  0.2310 -0.5996
  326MOL0     C44911   4.341   7.598   7.735 -1.7147  0.4427  0.1621
  326MOL0     C44912   4.225   7.674   7.788  0.2765 -0.2893 -0.2806
  326MOL0     C44913   4.108   7.678   7.683  0.3806  0.2188  0.8428
  326MOL0     C44914   4.119   7.726   7.549 -0.6760 -0.0811  0.7548
  326MOL0     C44915   4.121   7.781   7.439  0.6495  0.0866  1.0034
  326MOL0     C44916   4.659   7.871   7.908 -0.3532 -0.1210  0.0925
  326MOL0     C44917   4.755   7.961   7.858 -1.6170  0.0032  0.7633
  326MOL0     C44918   4.801   8.070   7.952 -0.4497 -0.2704  0.1542
  326MOL0     H44919   4.904   8.120   7.340  0.2167 -4.2322 -1.6340
  326MOL0     H44920   5.065   8.245   7.198  0.5701  0.3299  1.6413
  326MOL0     H44921   5.301   8.025   7.085 -0.1751 -0.0489 -2.6798
  326MOL0     H44922   5.439   8.134   7.047 -0.6409  0.6122 -0.2297
  326MOL0     H44923   5.135   8.168   6.992  1.3458 -0.7564  0.9826
  326MOL0     H44924   5.255   8.301   6.965 -1.0647  0.9969  2.3009
  326MOL0     H44925   5.399   8.123   6.841 -0.0674 -2.9622  1.0380
  326MOL0     H44926   5.253   8.035   6.805 -0.7406  0.3928  0.1060
  326MOL0     H44927   5.132   8.249   6.740  0.3626 -0.4362  0.7074
  326MOL0     H44928   5.288   8.324   6.700 -0.8343 -0.4443 -1.4339
  326MOL0     H44929   5.359   8.139   6.559  1.3335  1.4605  0.6924
  326MOL0     H44930   5.250   8.255   6.502  1.2378  1.6711  1.2918
  326MOL0     H44931   5.198   8.007   6.444  0.9462  1.0637  0.9199
  326MOL0     H44932   5.152   7.967   6.605 -0.3318  0.8339  1.7987
  326MOL0     H44933   5.028   8.197   6.476 -3.6600  1.2948  0.7993
  326MOL0     H44934   4.988   8.120   6.629 -1.7643 -1.1557 -0.8762
  326MOL0     H44935   4.957   7.967   6.369  0.7379 -1.4667  0.3820
  326MOL0     H44936   4.912   7.923   6.527  1.3580 -1.1431 -0.3890
  326MOL0     H44937   4.828   8.235   6.294  2.0123 -0.8248  2.0661
  326MOL0     H44938   4.592   8.364   6.239 -2.5699  1.7394  0.5433
  326MOL0     H44939   4.451   8.300   6.347  0.1833 -4.8806  2.3347
  326MOL0     H44940   4.403   8.133   6.201  3.2586 -0.8415  3.3570
  326MOL0     H44941   4.379   8.287   6.112 -1.5038 -2.1736 -0.0459
  326MOL0     H44942   4.602   8.082   6.091  1.0659  0.8215 -0.1484
  326MOL0     H44943   4.452   8.094   5.986  1.0018  1.6836 -4.2436
  326MOL0     H44944   4.594   8.213   5.835  1.4409  1.7891 -0.5761
  326MOL0     H44945   4.539   8.335   5.945 -0.1317 -0.3461 -3.4048
  326MOL0     H44946   4.827   8.016   6.078 -1.2840 -4.9009 -1.8498
  326MOL0     H44947   5.139   7.895   6.054  0.6920 -1.1142 -0.2737
  326MOL0     H44948   5.025   7.782   5.962 -1.9216  1.3205  1.1525
  326MOL0     H44949   4.973   7.866   6.112 -1.4104  6.1189  0.9049
  326MOL0     H44950   5.452   7.867   5.819 -0.5126 -0.1885 -0.3197
  326MOL0     H44951   5.669   7.817   5.728 -2.6992 -1.6744  1.1877
  326MOL0     H44952   5.867   7.772   5.614  0.0728 -1.4641  0.5697
  326MOL0     H44953   5.739   7.729   5.495 -0.7463  1.6228  0.7963
  326MOL0     H44954   6.012   7.815   5.402  2.5123 -2.9175 -2.9568
  326MOL0     H44955   5.963   7.643   5.430 -0.1791 -0.1485 -1.7243
  326MOL0     H44956   5.748   7.760   5.279 -0.4993 -3.4910 -0.7851
  326MOL0     H44957   5.840   7.625   5.251 -2.3043  0.5925  0.2937
  326MOL0     H44958   5.893   7.716   5.074 -0.1582  1.2764  0.2859
  326MOL0     H44959   6.034   7.758   5.181  0.1998  1.3804  0.7378
  326MOL0     H44960   5.930   7.981   5.213  1.8428 -2.0874  1.5153
  326MOL0     H44961   5.994   7.946   5.051  1.8281 -2.2334  0.5311
  326MOL0     H44962   5.691   7.950   5.099 -0.5516  2.7516  1.2490
  326MOL0     H44963   5.775   7.895   4.962 -0.1161 -2.9741  1.3359
  326MOL0     H44964   5.881   8.128   4.943 -0.4372  0.0054  0.7359
  326MOL0     H44965   5.742   8.176   5.046 -0.0813 -1.7826  2.3984
  326MOL0     H44966   5.725   8.012   4.786  1.2032 -1.3466  2.9906
  326MOL0     H44967   5.722   8.188   4.783  1.8887 -0.4447 -0.4162
  326MOL0     H44968   5.620   8.084   5.406  1.5279  0.6804  0.2935
  326MOL0     H44969   5.403   8.178   5.509 -1.9231 -1.4679 -0.5100
  326MOL0     H44970   5.069   8.207   5.702  1.6307 -0.5124  0.7847
  326MOL0     H44971   4.861   8.311   5.797 -0.3147 -0.0086  1.9189
  326MOL0     H44972   5.385   8.039   7.406  0.0063 -1.5242  0.1124
  326MOL0     H44973   5.216   7.940   7.556 -1.3752  1.6399  1.2990
  326MOL0     H44974   4.777   7.826   7.548  2.2751 -0.4758 -0.0018
  326MOL0     H44975   4.603   7.702   7.616 -1.0079 -1.7083  3.4483
  326MOL0     H44976   4.534   7.509   7.781 -0.2890 -0.8430  0.5442
  326MOL0     H44977   4.423   7.503   7.906  1.1209 -3.4652 -3.1155
  326MOL0     H44978   4.313   7.502   7.689 -2.1423  1.2975 -1.4356
  326MOL0     H44979   4.364   7.660   7.648  1.4065 -2.2412 -1.1757
  326MOL0     H44980   4.189   7.622   7.877 -2.2484  1.7203 -0.0206
  326MOL0     H44981   4.241   7.773   7.831 -2.8558  0.6095 -0.9454
  326MOL0     H44982   4.034   7.747   7.724  1.0476  0.4363  1.7130
  326MOL0     H44983   4.074   7.574   7.679  0.6888  0.1132  0.9297
  326MOL0     H44984   4.107   7.834   7.347  0.8099 -0.9633  0.3638
  326MOL0     H44985   4.624   7.877   8.011 -1.4774 -1.2202 -0.1973
  326MOL0     H44986   4.754   8.165   7.925 -3.9963 -1.5288  1.2467
  326MOL0     H44987   4.764   8.069   8.055  1.4275  1.6685  0.9319
  326MOL0     H44988   4.910   8.078   7.953 -0.0061 -3.3975 -3.2677
  327MOL0     O44989   2.409   7.286   0.959 -0.3454 -0.4636  1.0760
  327MOL0     C44990   2.338   7.240   0.876 -0.5221 -0.1889  0.4200
  327MOL0     O44991   2.299   7.305   0.754  0.2367 -0.0092  0.1740
  327MOL0     C44992   2.326   7.441   0.726  0.5414 -0.1054 -0.5762
  327MOL0     C44993   2.261   7.489   0.609 -0.2462  0.1962 -0.0044
  327MOL0     C44994   2.279   7.618   0.563 -0.4142  0.1296  1.4481
  327MOL0     C44995   2.364   7.710   0.627  0.7897  0.1374 -0.1952
  327MOL0     O44996   2.374   7.827   0.567  0.5387 -0.5086 -1.5393
  327MOL0     C44997   2.500   7.890   0.580  0.7472 -0.3723 -1.4430
  327MOL0     C44998   2.508   8.029   0.509  0.3595 -0.4337 -0.0751
  327MOL0     C44999   2.491   8.002   0.365 -0.6076  0.1729  0.2560
  327MOL0     C45000   2.551   8.122   0.279  0.2089  0.8664 -0.1568
  327MOL0     C45001   2.510   8.114   0.139  0.0268 -0.4560  0.0979
  327MOL0     C45002   2.554   8.245   0.059  1.0087 -0.7586  0.1800
  327MOL0     C45003   2.496   8.245  -0.079  0.5823  0.1319  0.6952
  327MOL0     C45004   2.349   8.289  -0.087  0.0997 -0.4293 -0.3426
  327MOL0     N45005   2.287   8.249  -0.215 -0.0786  0.5826 -0.2900
  327MOL0     C45006   2.172   8.309  -0.275 -0.1188 -0.4689  0.0972
  327MOL0     C45007   2.189   8.281  -0.407 -0.4307  0.2755  0.4205
  327MOL0     C45008   2.082   8.330  -0.498 -0.1742  0.6718 -0.7482
  327MOL0     C45009   1.971   8.220  -0.514  0.8849 -0.4918  0.0044
  327MOL0     C45010   1.868   8.242  -0.625 -0.6008  0.6304 -1.2828
  327MOL0     C45011   1.807   8.116  -0.671  0.3962  0.8511 -0.0700
  327MOL0     O45012   1.721   8.050  -0.569  0.1414 -0.7157 -0.7265
  327MOL0     C45013   1.769   7.965  -0.471 -0.5538  0.3478 -0.4562
  327MOL0     C45014   1.889   7.892  -0.482 -0.1176  0.2610  0.2241
  327MOL0     C45015   1.930   7.799  -0.384  1.0022 -0.0205 -0.4087
  327MOL0     C45016   2.062   7.731  -0.398  0.7478  0.7312  0.3958
  327MOL0     C45017   1.847   7.774  -0.267  0.3033  1.1248  0.6163
  327MOL0     C45018   1.863   7.681  -0.154  0.4629 -1.0799 -0.5126
  327MOL0     O45019   1.766   7.684  -0.050 -0.3556 -0.6882  0.5373
  327MOL0     C45020   1.792   7.598   0.057  0.8416 -0.4931 -0.1943
  327MOL0     C45021   1.797   7.647   0.182  0.1429  0.1070 -0.0020
  327MOL0     C45022   1.814   7.568   0.294 -0.5663  0.4562  0.2339
  327MOL0     C45023   1.815   7.431   0.272 -0.6642  0.6994  0.3906
  327MOL0     O45024   1.836   7.344   0.375 -0.5717 -0.4884 -0.4121
  327MOL0     C45025   1.930   7.375   0.480  0.1951  0.0689 -0.3638
  327MOL0     C45026   1.832   7.385   0.607  0.1006  0.2898  0.6798
  327MOL0     C45027   1.925   7.375   0.732 -0.4763  0.0686  0.7449
  327MOL0     C45028   1.874   7.466   0.852 -0.4116 -0.7189 -0.0652
  327MOL0     C45029   1.976   7.444   0.969 -0.3008  0.6132 -0.3329
  327MOL0     C45030   1.935   7.304   1.036 -1.0830  0.4212 -0.4106
  327MOL0     C45031   1.980   7.294   1.187 -0.9837  0.0689 -0.1193
  327MOL0     C45032   2.089   7.188   1.205  0.5922 -0.3522 -0.0580
  327MOL0    Cl45033   2.025   7.026   1.179 -0.3195 -0.5265 -0.1616
  327MOL0     C45034   1.799   7.374   0.142 -0.2975  0.4824 -0.9205
  327MOL0     C45035   1.786   7.463   0.032  1.9377 -0.2861  0.3148
  327MOL0     O45036   1.964   7.620  -0.146 -0.1140  0.1458 -0.4563
  327MOL0     C45037   1.723   7.846  -0.251 -0.0658  0.4738 -0.3546
  327MOL0     C45038   1.687   7.933  -0.353 -0.9615  0.2296  0.4898
  327MOL0     N45039   2.307   8.216  -0.432 -0.0126  0.2069 -0.2499
  327MOL0     N45040   2.354   8.182  -0.315 -0.0766  0.9715  0.0173
  327MOL0     C45041   2.433   7.661   0.745  0.3420  0.2286 -0.0469
  327MOL0     C45042   2.405   7.526   0.788 -0.2971  0.0051 -0.8302
  327MOL0     C45043   2.307   7.099   0.901 -0.5855 -0.9073  0.4244
  327MOL0     C45044   2.176   7.052   0.870 -0.8463 -0.2062 -0.8218
  327MOL0     C45045   2.148   6.915   0.891 -0.2827  0.5676  0.3897
  327MOL0     C45046   2.244   6.825   0.934  0.6560  0.4898 -0.4246
  327MOL0     O45047   2.193   6.708   0.969  0.2523  0.6786  0.2008
  327MOL0     C45048   2.268   6.594   1.010  0.2711 -0.5367  0.0265
  327MOL0     C45049   2.293   6.589   1.160 -0.2696 -0.3484  0.3716
  327MOL0     C45050   2.157   6.582   1.228  0.2376 -1.1236  1.0720
  327MOL0     C45051   2.170   6.574   1.375  0.4823 -0.9005  0.1720
  327MOL0     C45052   2.173   6.445   1.438 -1.7156  0.2993 -0.1330
  327MOL0     C45053   2.169   6.334   1.488 -0.5658  0.3511  0.4268
  327MOL0     C45054   2.368   6.869   0.958 -0.5322  0.3209 -0.2659
  327MOL0     C45055   2.404   7.002   0.937  0.0824  0.4718  0.0153
  327MOL0     C45056   2.549   7.024   0.956 -0.8810 -1.2562  0.8861
  327MOL0     H45057   2.206   7.418   0.549  0.1948  1.6146 -2.1713
  327MOL0     H45058   2.240   7.650   0.467  2.2933  0.9047  0.5114
  327MOL0     H45059   2.578   7.821   0.544  0.3897 -0.1050 -2.7628
  327MOL0     H45060   2.514   7.908   0.687 -0.0197 -0.1962 -1.3668
  327MOL0     H45061   2.443   8.110   0.544  0.3281 -0.8386  0.8142
  327MOL0     H45062   2.608   8.071   0.519  0.8540 -0.9356 -2.3431
  327MOL0     H45063   2.533   7.903   0.346 -1.7887 -0.5331  1.1970
  327MOL0     H45064   2.385   8.019   0.344 -0.6224  2.9593  2.0555
  327MOL0     H45065   2.551   8.224   0.318  1.9493  1.2747 -1.1102
  327MOL0     H45066   2.659   8.101   0.274  0.2522  1.0428  0.0314
  327MOL0     H45067   2.402   8.113   0.156  0.0492 -0.2119  0.2706
  327MOL0     H45068   2.530   8.017   0.093 -2.4198 -0.0058 -2.1377
  327MOL0     H45069   2.522   8.340   0.104  1.7485  0.1938 -1.2403
  327MOL0     H45070   2.663   8.248   0.058  0.9970  1.0030 -1.3788
  327MOL0     H45071   2.514   8.143  -0.115 -2.5855 -1.5492  3.3273
  327MOL0     H45072   2.548   8.318  -0.142 -0.1710 -0.5886 -0.8323
  327MOL0     H45073   2.303   8.241  -0.001  0.8224 -3.0543 -1.3092
  327MOL0     H45074   2.338   8.397  -0.074 -0.6491 -0.7450  1.9859
  327MOL0     H45075   2.100   8.359  -0.211 -0.3852  1.7837 -1.8139
  327MOL0     H45076   2.134   8.340  -0.594 -2.1532 -1.4190 -2.1380
  327MOL0     H45077   2.044   8.430  -0.476 -4.0103 -0.5051 -1.3297
  327MOL0     H45078   2.022   8.128  -0.545  1.3570  0.1517 -1.1976
  327MOL0     H45079   1.919   8.204  -0.420 -2.8926  1.6848 -1.4966
  327MOL0     H45080   1.788   8.308  -0.589 -0.1864  0.5595 -0.1872
  327MOL0     H45081   1.919   8.301  -0.701  0.3521  3.2609  1.2120
  327MOL0     H45082   1.743   8.145  -0.755 -1.2506 -1.0704  0.4453
  327MOL0     H45083   1.879   8.051  -0.722  0.5044  1.4416 -0.6903
  327MOL0     H45084   1.951   7.893  -0.572  0.3467  0.4013  0.5400
  327MOL0     H45085   2.040   7.624  -0.409 -1.0425  1.0101  0.9359
  327MOL0     H45086   2.132   7.748  -0.316 -1.4207  0.6018  2.3606
  327MOL0     H45087   2.117   7.746  -0.491  0.8890 -2.7326 -0.2215
  327MOL0     H45088   1.786   7.752   0.205 -0.9497 -0.0834  0.4408
  327MOL0     H45089   1.811   7.603   0.397 -2.0372  2.0359 -0.3095
  327MOL0     H45090   1.994   7.287   0.492  1.5343  0.7027 -2.3342
  327MOL0     H45091   1.997   7.462   0.477  1.1631 -0.6854 -2.2644
  327MOL0     H45092   1.775   7.478   0.617 -0.6784 -0.0197 -0.6675
  327MOL0     H45093   1.764   7.301   0.590  2.4966 -1.6502  0.1039
  327MOL0     H45094   2.029   7.399   0.708 -0.8819 -0.0012 -1.2338
  327MOL0     H45095   1.921   7.271   0.764  0.2670  0.4294  2.0878
  327MOL0     H45096   1.769   7.449   0.876  0.2310 -2.2042  1.9707
  327MOL0     H45097   1.876   7.567   0.811 -1.8720 -1.6894 -2.7308
  327MOL0     H45098   2.079   7.440   0.932 -0.3361  0.0679 -0.3812
  327MOL0     H45099   1.962   7.524   1.043  0.3949  2.6920 -2.3507
  327MOL0     H45100   1.989   7.227   0.980  3.0701  2.0072  1.0094
  327MOL0     H45101   1.827   7.288   1.045 -1.1833  1.0370 -0.4631
  327MOL0     H45102   1.887   7.280   1.244 -1.1451 -0.0909 -0.4183
  327MOL0     H45103   2.022   7.391   1.214 -0.3710  0.2712 -1.7412
  327MOL0     H45104   2.132   7.220   1.300  2.9222 -1.0968 -0.7905
  327MOL0     H45105   2.169   7.196   1.131  3.7226 -3.3438  2.6221
  327MOL0     H45106   1.803   7.266   0.140  2.3465  0.4321  0.9604
  327MOL0     H45107   1.780   7.406  -0.061 -0.2380  0.0602  0.1838
  327MOL0     H45108   1.650   7.831  -0.171 -0.2312  2.4230 -0.0854
  327MOL0     H45109   1.589   7.979  -0.342 -1.9281 -1.3251 -1.1578
  327MOL0     H45110   2.514   7.710   0.798  1.8087  0.7841 -2.6130
  327MOL0     H45111   2.461   7.506   0.879  0.7661 -1.7358 -1.8008
  327MOL0     H45112   2.101   7.121   0.832  0.7903  1.3789 -1.3077
  327MOL0     H45113   2.053   6.873   0.861  1.7224 -2.6461 -2.2279
  327MOL0     H45114   2.208   6.506   0.989 -0.7828  0.7382 -2.6636
  327MOL0     H45115   2.360   6.589   0.950  0.5669 -2.6142  0.5814
  327MOL0     H45116   2.345   6.682   1.184  0.9760 -0.1855 -2.4916
  327MOL0     H45117   2.363   6.510   1.190  0.6096 -0.2621 -1.2696
  327MOL0     H45118   2.079   6.647   1.187  0.3409 -1.2058  0.7440
  327MOL0     H45119   2.113   6.487   1.194  0.3138 -0.6997 -0.2693
  327MOL0     H45120   2.075   6.615   1.409 -0.5853 -2.7042 -0.4597
  327MOL0     H45121   2.245   6.637   1.423 -0.6089  1.3921 -1.0044
  327MOL0     H45122   2.155   6.247   1.548 -0.6083  0.1984  0.1972
  327MOL0     H45123   2.448   6.801   0.984 -1.5152 -1.3926 -1.5047
  327MOL0     H45124   2.556   7.063   1.058 -1.4872  0.9141  0.1452
  327MOL0     H45125   2.625   6.947   0.939 -0.1072 -0.2360 -0.5285
  327MOL0     H45126   2.586   7.102   0.888 -3.2510 -0.4978  0.3676
  328MOL0     O45127   2.482   5.940   9.032 -0.1469  0.6035 -1.2656
  328MOL0     C45128   2.596   5.974   9.065 -0.0466 -0.0732 -0.8477
  328MOL0     O45129   2.663   6.075   9.011  0.3262  0.0003  0.3260
  328MOL0     C45130   2.602   6.176   8.938  0.5060 -1.0108  1.0716
  328MOL0     C45131   2.672   6.253   8.846  0.2395  1.1311 -0.6396
  328MOL0     C45132   2.622   6.360   8.774 -0.0723  0.2269  0.3551
  328MOL0     C45133   2.500   6.414   8.804 -0.0811 -1.3711 -0.5285
  328MOL0     O45134   2.445   6.517   8.735 -0.3534 -0.5398  0.5709
  328MOL0     C45135   2.315   6.569   8.756  1.0699  0.9711 -0.5372
  328MOL0     C45136   2.294   6.702   8.686 -0.6916 -0.7289  0.5112
  328MOL0     C45137   2.328   6.709   8.533  0.0852  0.1681 -0.7120
  328MOL0     C45138   2.299   6.837   8.462 -0.9880 -0.3675  0.5393
  328MOL0     C45139   2.427   6.868   8.376 -0.7611 -0.9313  0.0818
  328MOL0     C45140   2.443   7.012   8.309  0.6292  0.4246 -0.2012
  328MOL0     C45141   2.569   7.087   8.328 -0.4761  0.7068  0.5099
  328MOL0     C45142   2.688   7.020   8.251 -0.9926  0.8472  0.0462
  328MOL0     N45143   2.812   7.089   8.290  0.3175 -1.0789  0.2974
  328MOL0     C45144   2.859   7.210   8.240  0.2632  0.3023 -0.4362
  328MOL0     C45145   2.989   7.210   8.284 -0.8600  0.1713 -0.3719
  328MOL0     C45146   3.108   7.300   8.243  0.2957  0.5433 -0.2396
  328MOL0     C45147   3.202   7.240   8.144 -0.3792 -0.4062  0.2260
  328MOL0     C45148   3.132   7.265   8.007  1.1223  0.3476 -0.4880
  328MOL0     C45149   3.230   7.208   7.898  0.6021 -0.0991 -0.1367
  328MOL0     O45150   3.299   7.090   7.942  0.7551 -1.1535  0.5363
  328MOL0     C45151   3.360   7.016   7.840 -0.2556  0.2570  1.0845
  328MOL0     C45152   3.356   6.875   7.829  0.4085  0.1736  0.0137
  328MOL0     C45153   3.426   6.805   7.736  1.0249 -0.8593  0.9566
  328MOL0     C45154   3.417   6.656   7.762 -0.2659 -0.0799 -0.3283
  328MOL0     C45155   3.486   6.872   7.629 -0.6837 -1.0620  0.3892
  328MOL0     C45156   3.543   6.809   7.508 -0.0202  0.0556 -0.3807
  328MOL0     O45157   3.610   6.886   7.423 -0.3054 -0.9263 -0.2459
  328MOL0     C45158   3.651   6.841   7.301  0.5770  0.5259 -0.0051
  328MOL0     C45159   3.582   6.869   7.185  0.6292  0.5596  0.4463
  328MOL0     C45160   3.620   6.821   7.055 -0.4887 -0.1557  0.3652
  328MOL0     C45161   3.722   6.734   7.039 -0.4114 -0.8362 -0.2833
  328MOL0     O45162   3.750   6.684   6.913 -1.7126 -0.5422  1.3938
  328MOL0     C45163   3.833   6.564   6.913 -0.1671 -0.7521 -0.2953
  328MOL0     C45164   3.826   6.512   6.771  0.3486 -0.1645 -0.9229
  328MOL0     C45165   3.886   6.379   6.755 -0.2924  0.0509  0.0061
  328MOL0     C45166   4.043   6.395   6.763  0.2002 -0.2180  0.4935
  328MOL0     C45167   4.125   6.266   6.763  0.1679 -0.4800 -0.8783
  328MOL0     C45168   4.073   6.160   6.671 -0.2957  0.7652  0.5867
  328MOL0     C45169   4.140   6.027   6.696 -1.2026  0.8784  0.8557
  328MOL0     C45170   4.295   6.038   6.694 -0.4458  0.2654 -0.0216
  328MOL0    Cl45171   4.363   5.879   6.707  0.5609  0.0418  0.3686
  328MOL0     C45172   3.792   6.699   7.162  0.2123  0.7816 -0.6217
  328MOL0     C45173   3.757   6.743   7.291 -1.1143 -0.3879 -0.1333
  328MOL0     O45174   3.512   6.699   7.481 -0.3976  0.7694 -0.9719
  328MOL0     C45175   3.497   7.018   7.643  0.6558  0.5985  0.8072
  328MOL0     C45176   3.433   7.086   7.742 -0.5759 -0.1620  0.6924
  328MOL0     N45177   3.010   7.096   8.358  0.5486 -0.7837 -0.9547
  328MOL0     N45178   2.898   7.035   8.374 -0.6436 -0.5806 -0.5382
  328MOL0     C45179   2.428   6.339   8.897 -0.3619  0.8117 -0.3205
  328MOL0     C45180   2.471   6.226   8.964  0.1554  1.3489 -0.1136
  328MOL0     C45181   2.664   5.926   9.185  0.0509  0.4125 -0.2266
  328MOL0     C45182   2.589   5.882   9.295  0.3749  0.8705 -0.0636
  328MOL0     C45183   2.640   5.815   9.408 -0.0489  0.9451 -0.1261
  328MOL0     C45184   2.774   5.796   9.427  1.0088 -0.1827  0.0413
  328MOL0     O45185   2.841   5.721   9.521 -0.4181  0.0173 -1.2845
  328MOL0     C45186   2.778   5.648   9.633 -0.8895  0.9435  0.2792
  328MOL0     C45187   2.876   5.617   9.736  0.2466 -0.3620  0.0209
  328MOL0     C45188   2.970   5.727   9.777 -0.3547 -0.1598 -0.1128
  328MOL0     C45189   3.043   5.705   9.913  0.5895  0.5542 -0.7654
  328MOL0     C45190   3.147   5.609   9.890 -0.5540 -0.0124  0.6269
  328MOL0     C45191   3.245   5.539   9.872 -0.4189 -0.2246  0.4654
  328MOL0     C45192   2.852   5.840   9.320  1.2339 -0.2404  0.5770
  328MOL0     C45193   2.804   5.908   9.207  0.4488  0.2168  0.4694
  328MOL0     C45194   2.907   5.936   9.089 -0.7176 -0.0063 -0.0791
  328MOL0     H45195   2.775   6.229   8.821  1.3018  4.3388  0.1390
  328MOL0     H45196   2.679   6.404   8.693 -0.4718  0.4500  0.1884
  328MOL0     H45197   2.310   6.599   8.861  2.7645 -2.3066  0.6379
  328MOL0     H45198   2.242   6.491   8.730 -0.1788  1.3639  1.5518
  328MOL0     H45199   2.191   6.726   8.713 -0.2392 -0.8165  2.4769
  328MOL0     H45200   2.361   6.771   8.738  1.2185 -2.0957 -0.0376
  328MOL0     H45201   2.423   6.661   8.508  0.0229 -1.2187  1.3818
  328MOL0     H45202   2.254   6.648   8.480  1.3588  0.7676 -3.3186
  328MOL0     H45203   2.206   6.842   8.404 -0.3015 -0.5754 -0.6080
  328MOL0     H45204   2.285   6.913   8.540  0.6550 -0.8322  1.3350
  328MOL0     H45205   2.441   6.787   8.304 -0.7925 -1.8897  1.1356
  328MOL0     H45206   2.516   6.858   8.438 -1.2606 -2.3893  0.6066
  328MOL0     H45207   2.418   7.012   8.203 -1.4734 -5.0420 -0.0002
  328MOL0     H45208   2.376   7.089   8.349  3.0344  2.2855  0.4957
  328MOL0     H45209   2.578   7.091   8.437  0.3562  0.0732  0.4743
  328MOL0     H45210   2.565   7.188   8.285 -1.4398 -0.0563 -1.2875
  328MOL0     H45211   2.689   6.912   8.267 -2.0942  0.9668  1.0736
  328MOL0     H45212   2.666   7.036   8.145  2.2996  0.5344 -0.7843
  328MOL0     H45213   2.813   7.286   8.179 -2.7389  2.6028  4.0841
  328MOL0     H45214   3.161   7.331   8.334 -1.1795  1.1686  0.4459
  328MOL0     H45215   3.069   7.395   8.205  2.6927  0.8330 -2.2132
  328MOL0     H45216   3.301   7.282   8.158 -0.4578 -1.0248  3.4646
  328MOL0     H45217   3.202   7.132   8.160  2.4899 -0.3843  0.7385
  328MOL0     H45218   3.034   7.219   7.994  1.2929 -0.6737  1.4507
  328MOL0     H45219   3.111   7.370   7.982  0.6841  0.1502 -0.9640
  328MOL0     H45220   3.186   7.208   7.798  2.1269 -0.6028 -0.8422
  328MOL0     H45221   3.302   7.289   7.887  0.3164  0.4677  1.9283
  328MOL0     H45222   3.309   6.803   7.896  1.6217 -1.8357 -1.2032
  328MOL0     H45223   3.466   6.624   7.854 -1.2488  1.2893  0.7000
  328MOL0     H45224   3.463   6.594   7.684  0.7952 -1.8080  1.5919
  328MOL0     H45225   3.312   6.627   7.766 -0.9399  2.2991  3.2518
  328MOL0     H45226   3.490   6.927   7.195 -1.8533 -2.9876  0.2675
  328MOL0     H45227   3.573   6.848   6.961  0.9271  2.2042  0.2652
  328MOL0     H45228   3.939   6.581   6.933 -0.4742  0.8864  0.0498
  328MOL0     H45229   3.800   6.495   6.992 -2.1663  0.1910 -0.2291
  328MOL0     H45230   3.723   6.507   6.734  0.8034  1.3564 -2.5461
  328MOL0     H45231   3.880   6.580   6.704  1.3485 -0.9361 -0.9069
  328MOL0     H45232   3.856   6.344   6.656  0.4772  0.4300 -0.3688
  328MOL0     H45233   3.846   6.311   6.831  2.6382 -3.7698 -1.5418
  328MOL0     H45234   4.086   6.468   6.832  1.5072 -0.4543 -0.0387
  328MOL0     H45235   4.061   6.433   6.662 -2.6854  0.8576  0.2800
  328MOL0     H45236   4.227   6.297   6.737  0.6331 -0.2671  1.0930
  328MOL0     H45237   4.122   6.240   6.869  1.0469 -0.3972 -0.8248
  328MOL0     H45238   4.085   6.211   6.575 -0.4616 -1.4337 -0.6750
  328MOL0     H45239   3.968   6.142   6.697 -0.9274 -0.6085 -2.4943
  328MOL0     H45240   4.104   5.956   6.621 -4.4640  1.5956  1.5879
  328MOL0     H45241   4.114   5.985   6.794 -3.2516  0.0121 -0.0040
  328MOL0     H45242   4.339   6.088   6.782 -2.8579 -0.3848  1.6506
  328MOL0     H45243   4.343   6.086   6.608  1.6718 -1.3456  0.1688
  328MOL0     H45244   3.871   6.626   7.171  0.0397  0.6494 -0.1691
  328MOL0     H45245   3.816   6.707   7.374 -1.4011 -2.1443 -0.6480
  328MOL0     H45246   3.535   7.082   7.564  1.3597 -0.9591 -0.1619
  328MOL0     H45247   3.444   7.194   7.742  0.6265 -0.2625  1.4973
  328MOL0     H45248   2.328   6.370   8.927 -1.1518 -1.2275 -0.7352
  328MOL0     H45249   2.406   6.189   9.042 -0.9795  2.6675 -0.3938
  328MOL0     H45250   2.484   5.903   9.282  0.3638  1.7056  1.1887
  328MOL0     H45251   2.574   5.789   9.490  1.5523  1.5343  1.3996
  328MOL0     H45252   2.698   5.710   9.675 -1.1212  1.9258 -1.5050
  328MOL0     H45253   2.729   5.559   9.591  2.1748  1.2393 -4.7772
  328MOL0     H45254   2.940   5.534   9.706  0.9442 -1.2667  3.5278
  328MOL0     H45255   2.827   5.580   9.827  1.7167 -1.8014  0.2665
  328MOL0     H45256   3.051   5.734   9.703 -0.3352  0.6683 -0.0247
  328MOL0     H45257   2.911   5.819   9.788  0.1164  1.0430 -5.1938
  328MOL0     H45258   2.981   5.667   9.995 -0.4043 -0.9222 -2.1355
  328MOL0     H45259   3.095   5.792   9.954  0.1825  0.5513 -0.2323
  328MOL0     H45260   3.329   5.477   9.849 -1.1871  0.1858 -4.3129
  328MOL0     H45261   2.959   5.823   9.309  0.7729 -1.7292 -7.3500
  328MOL0     H45262   2.994   5.870   9.083 -0.4022  0.3309  0.6286
  328MOL0     H45263   2.856   5.927   8.993  0.1461  1.9304 -0.7699
  328MOL0     H45264   2.945   6.039   9.095  0.0657 -0.1964 -1.5641
  329MOL0     O45265   3.474  11.149   7.882 -0.4423  0.6455  0.0867
  329MOL0     C45266   3.538  11.107   7.982 -0.6962 -0.0009 -0.4333
  329MOL0     O45267   3.487  11.033   8.083  0.1335 -0.4607  0.2980
  329MOL0     C45268   3.353  11.009   8.067 -0.5231  0.3468 -0.2413
  329MOL0     C45269   3.305  10.885   8.038  0.7604 -0.4454  0.5325
  329MOL0     C45270   3.171  10.847   8.016 -0.0139 -0.8169  0.9987
  329MOL0     C45271   3.075  10.950   8.021 -0.0730 -0.2653 -0.6569
  329MOL0     O45272   2.945  10.923   7.983 -0.7238 -0.8057  1.0079
  329MOL0     C45273   2.845  10.955   8.076  0.1261  0.1678 -0.5644
  329MOL0     C45274   2.869  10.875   8.210 -0.8956 -0.0983 -0.3422
  329MOL0     C45275   2.747  10.870   8.311 -0.1458  0.1179 -0.6337
  329MOL0     C45276   2.791  10.792   8.433  0.7947 -0.6366  1.0056
  329MOL0     C45277   2.819  10.644   8.391 -0.7706  1.1110  0.4076
  329MOL0     C45278   2.804  10.554   8.516 -0.1224 -0.0656 -0.0343
  329MOL0     C45279   2.863  10.417   8.509  0.0212  0.4427  0.2446
  329MOL0     C45280   3.010  10.395   8.466  1.2795  0.3813  0.1386
  329MOL0     N45281   3.095  10.487   8.533  0.1980  0.4047 -0.1807
  329MOL0     C45282   3.109  10.501   8.665 -0.1719 -0.0093 -0.3837
  329MOL0     C45283   3.207  10.586   8.687 -0.5923 -0.6516  0.1330
  329MOL0     C45284   3.265  10.631   8.829 -0.4436 -0.5873  0.5147
  329MOL0     C45285   3.351  10.750   8.809  0.3802  0.0324 -0.0658
  329MOL0     C45286   3.505  10.729   8.782  0.3534 -0.4634  0.0387
  329MOL0     C45287   3.576  10.678   8.919 -0.5122  1.2986  0.8381
  329MOL0     O45288   3.720  10.664   8.907  0.0218 -0.1959  0.7302
  329MOL0     C45289   3.789  10.643   9.022 -0.2713 -0.7920 -0.3460
  329MOL0     C45290   3.747  10.685   9.152  0.0684  0.5690  0.5377
  329MOL0     C45291   3.812  10.653   9.265 -1.1368  0.5723  0.1600
  329MOL0     C45292   3.754  10.720   9.391  1.1054 -0.2945  0.8420
  329MOL0     C45293   3.924  10.574   9.271 -0.1826  0.8220  0.4710
  329MOL0     C45294   3.998  10.531   9.400 -0.5739  0.7813  0.1979
  329MOL0     O45295   3.926  10.518   9.521 -0.5992 -0.4027 -0.2372
  329MOL0     C45296   3.984  10.464   9.627  0.8164  0.6998 -0.8369
  329MOL0     C45297   4.117  10.490   9.663 -0.7696 -0.1844  0.5860
  329MOL0     C45298   4.176  10.444   9.777 -0.7859  0.1273 -0.9920
  329MOL0     C45299   4.096  10.377   9.870  0.0372  0.4767 -1.0250
  329MOL0     O45300   4.157  10.324   9.979 -0.1150  0.1737 -1.4652
  329MOL0     C45301   4.177  10.185   9.973  0.6654 -0.2671  0.2082
  329MOL0     C45302   4.222  10.120  10.107 -0.3068 -0.0634  0.7132
  329MOL0     C45303   4.212   9.966  10.094 -0.3897  0.1656  0.2382
  329MOL0     C45304   4.226   9.898  10.225  0.2763  0.0785  1.0310
  329MOL0     C45305   4.217   9.746  10.227 -0.3267  0.9126  0.1411
  329MOL0     C45306   4.179   9.675  10.354 -0.0327  0.6909 -1.1162
  329MOL0     C45307   4.266   9.700  10.478  0.2080  0.6829 -0.1441
  329MOL0     C45308   4.331   9.572  10.538 -0.9967  0.9005  1.2095
  329MOL0    Cl45309   4.439   9.507  10.401  0.2543  0.1519  0.1264
  329MOL0     C45310   3.958  10.355   9.843  1.1199  0.8273  0.8323
  329MOL0     C45311   3.897  10.406   9.721  0.9332  0.0944 -0.5801
  329MOL0     O45312   4.119  10.512   9.386 -0.1051  0.4110 -0.2436
  329MOL0     C45313   3.972  10.527   9.148 -0.2704  0.5236  0.3367
  329MOL0     C45314   3.909  10.559   9.027  0.6866 -0.1756  0.5778
  329MOL0     N45315   3.266  10.622   8.567 -0.3212  0.2276  0.1997
  329MOL0     N45316   3.199  10.562   8.484  0.4228 -0.1767  0.0574
  329MOL0     C45317   3.112  11.080   8.062 -0.9692 -0.2550  0.7869
  329MOL0     C45318   3.254  11.108   8.091 -0.2375  0.2586 -0.1961
  329MOL0     C45319   3.671  11.173   8.014 -0.4855 -0.2179 -0.1198
  329MOL0     C45320   3.712  11.166   8.147 -0.0212 -0.1440 -0.2188
  329MOL0     C45321   3.838  11.230   8.187 -0.2460 -0.0926  1.1333
  329MOL0     C45322   3.924  11.283   8.089  1.2260 -0.1414 -0.2782
  329MOL0     O45323   4.053  11.317   8.132  0.4160  0.5427  0.6844
  329MOL0     C45324   4.149  11.343   8.023  0.4363  0.1451 -0.1852
  329MOL0     C45325   4.289  11.349   8.069  1.0344  0.9664  0.1740
  329MOL0     C45326   4.308  11.468   8.169  0.5444 -0.9895  0.4548
  329MOL0     C45327   4.328  11.600   8.104  0.1479 -0.0417 -0.1052
  329MOL0     C45328   4.465  11.642   8.073 -0.2079  0.3184  0.2225
  329MOL0     C45329   4.565  11.705   8.047  0.5675  0.7889 -0.6652
  329MOL0     C45330   3.879  11.280   7.961 -0.5500 -0.7478  0.1502
  329MOL0     C45331   3.760  11.226   7.914 -0.1160  1.1978 -0.1702
  329MOL0     C45332   3.722  11.238   7.771  0.3676  0.3281  0.0142
  329MOL0     H45333   3.378  10.815   8.000 -1.8038 -2.6173 -0.7779
  329MOL0     H45334   3.137  10.746   7.996  1.7124 -1.3817  0.7630
  329MOL0     H45335   2.746  10.931   8.038  0.5513 -0.3973 -1.3324
  329MOL0     H45336   2.853  11.060   8.107  0.5584  0.1310 -0.5459
  329MOL0     H45337   2.908  10.778   8.180  0.1919  0.5269 -1.0206
  329MOL0     H45338   2.956  10.911   8.265  0.8043 -1.9203 -1.7086
  329MOL0     H45339   2.720  10.975   8.326  1.6965  0.8249 -1.8845
  329MOL0     H45340   2.664  10.824   8.256 -0.5918  2.1068 -1.7074
  329MOL0     H45341   2.875  10.838   8.486  1.2467 -0.1122 -0.1314
  329MOL0     H45342   2.704  10.785   8.500  0.0715  2.0223  0.4622
  329MOL0     H45343   2.924  10.653   8.360 -1.1441  3.6440 -0.3511
  329MOL0     H45344   2.750  10.599   8.320  1.1532 -4.1324  1.4165
  329MOL0     H45345   2.854  10.611   8.594 -1.5146  0.6502  0.3732
  329MOL0     H45346   2.698  10.549   8.542 -0.3940  0.5173 -0.9708
  329MOL0     H45347   2.798  10.360   8.441 -1.6094  0.5720  1.6208
  329MOL0     H45348   2.859  10.381   8.612  2.2594  0.0324  0.2243
  329MOL0     H45349   3.037  10.293   8.494 -2.9126 -0.1374  3.1430
  329MOL0     H45350   3.009  10.403   8.357 -2.6919  1.7257  0.1205
  329MOL0     H45351   3.056  10.449   8.744  1.1627 -1.6117 -0.4830
  329MOL0     H45352   3.320  10.549   8.875 -1.1018 -2.5517 -1.9737
  329MOL0     H45353   3.183  10.670   8.890 -1.4336 -1.6203 -0.1278
  329MOL0     H45354   3.297  10.819   8.744 -0.8354  0.2649  1.1707
  329MOL0     H45355   3.345  10.791   8.910 -1.5417 -1.6359  0.5463
  329MOL0     H45356   3.526  10.666   8.695 -4.4475  2.0384 -3.3974
  329MOL0     H45357   3.541  10.827   8.747 -1.7757  0.2705 -0.2524
  329MOL0     H45358   3.544  10.739   9.004 -3.0642  2.4498 -0.8192
  329MOL0     H45359   3.553  10.575   8.949  3.2057  0.9170  3.0800
  329MOL0     H45360   3.663  10.753   9.165 -0.3505  0.6268 -2.0299
  329MOL0     H45361   3.656  10.766   9.374  0.4044 -1.7152  0.8290
  329MOL0     H45362   3.827  10.783   9.442  0.3738  0.0108  1.5439
  329MOL0     H45363   3.726  10.645   9.466 -2.4991 -0.3407 -0.3586
  329MOL0     H45364   4.186  10.547   9.601 -0.9603  1.9095  2.1691
  329MOL0     H45365   4.281  10.454   9.802 -0.5493 -1.9892 -0.9686
  329MOL0     H45366   4.094  10.130   9.926  2.4464 -2.0853 -0.9792
  329MOL0     H45367   4.271  10.167   9.921  0.2387 -1.0533 -0.3217
  329MOL0     H45368   4.322  10.154  10.133 -0.6206  0.5687  1.1231
  329MOL0     H45369   4.154  10.158  10.184 -2.6830  1.1691 -1.8121
  329MOL0     H45370   4.298   9.928  10.038  0.5408 -0.8273  2.2499
  329MOL0     H45371   4.117   9.947  10.042 -2.0147  0.7294  2.8149
  329MOL0     H45372   4.146   9.943  10.285 -2.1796 -1.2532 -1.0253
  329MOL0     H45373   4.319   9.931  10.270 -1.0061  2.3048  2.2395
  329MOL0     H45374   4.135   9.718  10.160 -0.1430 -0.5396  0.4995
  329MOL0     H45375   4.313   9.709  10.191 -1.4870  0.4578 -2.8031
  329MOL0     H45376   4.156   9.569  10.345 -0.4174  0.9102 -3.4074
  329MOL0     H45377   4.078   9.717  10.363 -0.8383 -0.7793 -2.7763
  329MOL0     H45378   4.216   9.750  10.562  1.6795 -3.2670  3.4295
  329MOL0     H45379   4.351   9.761  10.447  0.5800  0.9062  1.2181
  329MOL0     H45380   4.256   9.496  10.558 -2.1958  0.9611 -2.4388
  329MOL0     H45381   4.388   9.606  10.626  3.4746  1.7584 -1.7064
  329MOL0     H45382   3.898  10.304   9.917 -2.4780  1.2422 -1.5597
  329MOL0     H45383   3.790  10.410   9.703  0.9416 -0.0824 -0.6720
  329MOL0     H45384   4.063  10.470   9.134 -0.0445  0.8825  0.3147
  329MOL0     H45385   3.957  10.532   8.934  4.0401  2.4304  1.3210
  329MOL0     H45386   3.034  11.153   8.084 -0.2077  0.1797  2.1456
  329MOL0     H45387   3.284  11.208   8.121  0.0896 -0.5554  2.5094
  329MOL0     H45388   3.648  11.117   8.219 -0.1248 -2.2906 -1.6606
  329MOL0     H45389   3.856  11.246   8.293 -1.0210  3.5165  0.8323
  329MOL0     H45390   4.156  11.269   7.943 -0.0835  0.9527 -0.9912
  329MOL0     H45391   4.126  11.436   7.971 -0.5213  0.1330  0.1917
  329MOL0     H45392   4.358  11.349   7.984  2.9652 -2.4680  1.5453
  329MOL0     H45393   4.303  11.255   8.123 -1.0471  0.4654 -0.0573
  329MOL0     H45394   4.228  11.476   8.243  0.4221  0.1178  0.2195
  329MOL0     H45395   4.402  11.445   8.221  1.5674 -0.6538 -1.1722
  329MOL0     H45396   4.281  11.677   8.165  2.7180  1.0754  0.6043
  329MOL0     H45397   4.277  11.589   8.008 -0.7223 -0.4285  0.3844
  329MOL0     H45398   4.661  11.749   8.025  1.7966 -0.6866  1.4469
  329MOL0     H45399   3.929  11.319   7.873 -1.6927 -0.8779 -0.5798
  329MOL0     H45400   3.816  11.253   7.718  0.8276 -0.6151  0.5418
  329MOL0     H45401   3.678  11.145   7.735 -2.9015 -0.8290  5.6133
  329MOL0     H45402   3.653  11.322   7.754 -0.5880 -0.1117  1.5348
  330MOL0     O45403  11.002   7.857   5.603  0.4343  0.2383  0.5278
  330MOL0     C45404  11.024   7.913   5.710  0.8456  0.1715  0.4381
  330MOL0     O45405  11.126   7.889   5.800  0.1840 -0.1951 -0.7495
  330MOL0     C45406  11.184   7.764   5.811 -0.8101 -0.7633  0.1937
  330MOL0     C45407  11.314   7.750   5.868  0.7344  1.3532  0.2014
  330MOL0     C45408  11.386   7.622   5.876 -0.1869 -0.9310  0.1763
  330MOL0     C45409  11.309   7.509   5.843 -0.3728 -1.2367 -0.0348
  330MOL0     O45410  11.372   7.386   5.836 -0.4594 -0.3591 -0.3147
  330MOL0     C45411  11.332   7.303   5.951 -0.1929 -0.2026  0.1880
  330MOL0     C45412  11.379   7.366   6.090 -0.2722 -0.5449  0.5345
  330MOL0     C45413  11.518   7.342   6.113  0.1947 -0.0398 -0.6225
  330MOL0     C45414  11.545   7.349   6.268  0.2090 -0.6196  0.6711
  330MOL0     C45415  11.683   7.306   6.304 -0.6684 -0.4149  0.2096
  330MOL0     C45416  11.737   7.358   6.440 -0.6113  0.5877 -0.5475
  330MOL0     C45417  11.637   7.315   6.539 -0.4102  0.7008 -0.4303
  330MOL0     C45418  11.691   7.334   6.684  0.7772 -0.8131 -0.3851
  330MOL0     N45419  11.607   7.254   6.781 -0.2379 -0.6508  1.3977
  330MOL0     C45420  11.482   7.205   6.747 -1.2717  0.7153  0.0914
  330MOL0     C45421  11.471   7.099   6.835 -0.3207 -0.0634 -0.3867
  330MOL0     C45422  11.360   6.996   6.833 -0.4538 -0.3245  0.7656
  330MOL0     C45423  11.253   7.034   6.935 -0.0566  1.3100 -0.9915
  330MOL0     C45424  11.126   6.954   6.905 -0.0634  0.3663  0.8001
  330MOL0     C45425  11.048   6.994   6.782 -0.1524 -0.6544 -0.0507
  330MOL0     O45426  10.909   6.958   6.811 -0.0762 -0.2781 -0.1809
  330MOL0     C45427  10.834   6.980   6.699 -0.2235 -0.0409 -1.1103
  330MOL0     C45428  10.786   7.102   6.656 -0.0113  0.6290  0.0915
  330MOL0     C45429  10.730   7.107   6.522  0.3042  0.3633  0.4388
  330MOL0     C45430  10.691   7.232   6.467 -0.3501  0.9614 -0.3774
  330MOL0     C45431  10.708   6.993   6.444 -0.0122  0.1663 -1.1086
  330MOL0     C45432  10.645   6.989   6.309 -0.8746 -0.6108 -0.0473
  330MOL0     O45433  10.673   7.086   6.221 -0.4724 -1.1524  0.0566
  330MOL0     C45434  10.655   7.078   6.090  0.6216  0.6048  0.9593
  330MOL0     C45435  10.532   7.020   6.027  0.1915  0.6514 -0.8691
  330MOL0     C45436  10.533   6.999   5.888  0.2871 -0.0661 -0.3620
  330MOL0     C45437  10.617   7.074   5.812  0.2573  0.1486  0.2270
  330MOL0     O45438  10.598   7.076   5.677 -0.2013 -0.7151  0.3105
  330MOL0     C45439  10.695   7.026   5.585 -0.8368  1.0711 -0.0092
  330MOL0     C45440  10.650   7.051   5.439 -0.0498 -0.0575 -0.5440
  330MOL0     C45441  10.773   7.012   5.346  0.2812  0.4704  1.6247
  330MOL0     C45442  10.736   7.027   5.195  0.3874 -0.0264  1.4963
  330MOL0     C45443  10.672   6.886   5.159  0.0300 -0.1103 -0.4451
  330MOL0     C45444  10.614   6.893   5.013  0.3391  0.8310  0.5426
  330MOL0     C45445  10.517   6.769   4.990 -0.6860 -1.1847 -0.6869
  330MOL0     C45446  10.590   6.630   4.995 -0.3270 -0.6712  0.3481
  330MOL0    Cl45447  10.748   6.624   4.886 -0.0533 -0.2626  0.3751
  330MOL0     C45448  10.728   7.138   5.867 -0.7676  0.2459  0.8002
  330MOL0     C45449  10.749   7.123   6.003 -0.0888 -0.5589 -0.6300
  330MOL0     O45450  10.568   6.892   6.287 -0.9264  1.2658  0.2965
  330MOL0     C45451  10.757   6.874   6.497  0.8593 -1.1013 -0.1791
  330MOL0     C45452  10.820   6.864   6.623 -0.3319 -0.2158 -0.0441
  330MOL0     N45453  11.586   7.085   6.920  0.2641 -0.7211 -0.8522
  330MOL0     N45454  11.667   7.180   6.882  0.3045 -0.7201 -0.0729
  330MOL0     C45455  11.170   7.518   5.804 -0.2917  0.5604  0.0257
  330MOL0     C45456  11.117   7.642   5.780 -0.1604 -0.9777 -0.4774
  330MOL0     C45457  10.935   8.022   5.751 -0.1278 -0.1788  0.3496
  330MOL0     C45458  10.867   8.094   5.647 -0.3050  0.2357 -0.2192
  330MOL0     C45459  10.781   8.206   5.674  0.2721  0.9581 -0.3810
  330MOL0     C45460  10.770   8.256   5.800 -1.2526 -0.6371 -0.0017
  330MOL0     O45461  10.718   8.378   5.832  0.3223 -0.1248 -0.3877
  330MOL0     C45462  10.732   8.486   5.744 -0.4825 -0.1653  0.0362
  330MOL0     C45463  10.695   8.619   5.803  0.2344 -0.3143  0.4548
  330MOL0     C45464  10.547   8.657   5.783 -0.2598 -0.1627  0.1280
  330MOL0     C45465  10.511   8.727   5.648 -0.1432 -0.1385 -0.5761
  330MOL0     C45466  10.454   8.636   5.547  0.5585  0.9000 -0.2671
  330MOL0     C45467  10.388   8.574   5.457 -0.8420 -0.0746 -1.4236
  330MOL0     C45468  10.828   8.173   5.901 -0.7527 -0.8130  0.3250
  330MOL0     C45469  10.911   8.064   5.882 -0.0675  0.1102 -0.0539
  330MOL0     C45470  10.947   7.992   6.009 -0.4307  0.1751 -0.3034
  330MOL0     H45471  11.361   7.842   5.903  2.9027  1.0895 -1.7340
  330MOL0     H45472  11.491   7.619   5.906  0.0303  1.5713 -0.0849
  330MOL0     H45473  11.378   7.205   5.941 -1.0391 -0.9308  2.8683
  330MOL0     H45474  11.223   7.292   5.953 -0.1409 -0.5769  0.9701
  330MOL0     H45475  11.351   7.472   6.088  0.4307 -0.1899 -4.3601
  330MOL0     H45476  11.327   7.310   6.168  1.4126 -1.9962  0.6883
  330MOL0     H45477  11.541   7.240   6.083  0.7028  0.5395 -2.2849
  330MOL0     H45478  11.584   7.402   6.050  0.1765 -1.2105 -1.7898
  330MOL0     H45479  11.529   7.450   6.307 -0.5621 -1.0999  1.6289
  330MOL0     H45480  11.479   7.275   6.313  0.2106 -0.4640  0.9309
  330MOL0     H45481  11.751   7.342   6.226  0.0528  1.7523  1.7582
  330MOL0     H45482  11.676   7.197   6.302 -3.9317 -0.3371  1.3861
  330MOL0     H45483  11.841   7.324   6.448  0.4450  3.6214  0.1491
  330MOL0     H45484  11.744   7.467   6.440  1.8853  0.5339 -2.9203
  330MOL0     H45485  11.608   7.211   6.523  2.6621 -0.2922 -0.2590
  330MOL0     H45486  11.546   7.373   6.526  0.9865  3.6054  1.5213
  330MOL0     H45487  11.786   7.282   6.693 -0.4363 -3.2539 -0.7890
  330MOL0     H45488  11.700   7.439   6.713  1.0789 -0.7533 -0.7064
  330MOL0     H45489  11.405   7.236   6.677  1.8493  2.4165 -2.9137
  330MOL0     H45490  11.403   6.899   6.860 -0.2650 -0.5891 -0.4089
  330MOL0     H45491  11.329   6.996   6.728  1.7954  0.6733  0.0416
  330MOL0     H45492  11.290   7.028   7.037  3.2094  1.0975 -2.0883
  330MOL0     H45493  11.236   7.141   6.915 -0.4958  1.0059 -2.3740
  330MOL0     H45494  11.154   6.850   6.890  0.4829  0.8011 -1.4625
  330MOL0     H45495  11.070   6.944   6.999  3.0371 -1.9382  2.6049
  330MOL0     H45496  11.061   7.102   6.772  2.2134 -0.5947  2.3298
  330MOL0     H45497  11.094   6.948   6.694  0.5614 -0.4811  0.2243
  330MOL0     H45498  10.801   7.185   6.724  0.5397 -0.6323  1.5846
  330MOL0     H45499  10.586   7.248   6.439  0.3696  1.8605 -2.8346
  330MOL0     H45500  10.740   7.247   6.370 -0.1231 -2.9324 -1.0159
  330MOL0     H45501  10.715   7.311   6.538  0.2003 -0.5039  1.1158
  330MOL0     H45502  10.460   6.972   6.093  0.7009 -0.8578 -1.3610
  330MOL0     H45503  10.443   6.946   5.861  0.7556 -2.5366  2.4315
  330MOL0     H45504  10.793   7.067   5.611 -0.7081  0.7086  0.0837
  330MOL0     H45505  10.699   6.917   5.593 -0.2765  1.0172 -0.9063
  330MOL0     H45506  10.571   6.985   5.402  0.3531 -2.7264  2.8135
  330MOL0     H45507  10.630   7.157   5.455 -2.2611 -0.1657 -2.0977
  330MOL0     H45508  10.805   6.910   5.370 -2.9446 -1.2881 -0.8122
  330MOL0     H45509  10.863   7.073   5.362  1.7473 -0.7145 -1.2470
  330MOL0     H45510  10.822   7.030   5.128 -3.4976 -0.4699 -4.2041
  330MOL0     H45511  10.667   7.106   5.167  0.0819 -1.2655 -1.6192
  330MOL0     H45512  10.748   6.808   5.164 -0.1862 -0.2961 -0.0589
  330MOL0     H45513  10.590   6.860   5.226 -2.1847 -0.0874 -2.9712
  330MOL0     H45514  10.691   6.890   4.936 -0.8046  1.8871 -0.6912
  330MOL0     H45515  10.578   6.993   4.987 -2.5097 -0.6589 -1.7557
  330MOL0     H45516  10.461   6.786   4.898 -1.8333  2.0524  0.4968
  330MOL0     H45517  10.438   6.770   5.064 -1.0821  2.1625 -1.0139
  330MOL0     H45518  10.517   6.560   4.952  0.2557 -0.2626 -1.3906
  330MOL0     H45519  10.603   6.593   5.097 -1.2928 -1.0669  0.3400
  330MOL0     H45520  10.803   7.184   5.802 -0.5570 -1.3926 -0.1712
  330MOL0     H45521  10.842   7.159   6.046  0.2780 -1.3865 -0.6990
  330MOL0     H45522  10.743   6.775   6.455 -0.5899 -1.9769  2.1446
  330MOL0     H45523  10.843   6.766   6.665 -1.4130 -0.0484  0.9872
  330MOL0     H45524  11.110   7.430   5.780  0.5313 -1.2269  3.8189
  330MOL0     H45525  11.015   7.644   5.745 -1.0996 -0.3772  2.0457
  330MOL0     H45526  10.890   8.060   5.547 -0.6938  0.3285 -0.3434
  330MOL0     H45527  10.732   8.253   5.589 -0.0081  0.2163 -0.6411
  330MOL0     H45528  10.831   8.508   5.701 -0.5127  1.5731  0.7540
  330MOL0     H45529  10.671   8.456   5.658  2.2049 -0.8893 -1.7370
  330MOL0     H45530  10.749   8.698   5.751 -0.5375 -1.2350 -1.8731
  330MOL0     H45531  10.714   8.631   5.910 -0.4901  1.0008  0.4685
  330MOL0     H45532  10.478   8.577   5.810 -0.8696 -0.3136 -1.6856
  330MOL0     H45533  10.541   8.743   5.850  1.6271 -2.0805  2.9611
  330MOL0     H45534  10.597   8.785   5.610  0.9485  0.1245  2.1070
  330MOL0     H45535  10.445   8.810   5.676  2.3750  1.0935  2.1767
  330MOL0     H45536  10.350   8.512   5.379 -1.7293 -0.1310 -0.9665
  330MOL0     H45537  10.827   8.224   5.997 -1.1854 -0.7642  0.2978
  330MOL0     H45538  10.925   7.886   6.022 -0.3334  0.5112  4.6721
  330MOL0     H45539  11.053   7.995   6.033 -0.5077 -0.3419  0.1223
  330MOL0     H45540  10.900   8.034   6.099  0.2648 -0.8157  0.5578
  331MOL0     O45541   5.648   3.836  11.476 -0.0498  0.0848  0.1843
  331MOL0     C45542   5.689   3.726  11.452 -1.1453  0.4217  0.5652
  331MOL0     O45543   5.823   3.692  11.436 -0.4377 -0.2742  0.7353
  331MOL0     C45544   5.923   3.789  11.464  0.4565  0.0209 -0.6544
  331MOL0     C45545   6.013   3.809  11.364 -0.5126  0.0485 -0.2318
  331MOL0     C45546   6.126   3.891  11.376 -0.9828  0.1049  0.4548
  331MOL0     C45547   6.138   3.974  11.484 -0.1759  0.0013 -0.2744
  331MOL0     O45548   6.249   4.053  11.492 -0.0687 -0.3907 -0.0937
  331MOL0     C45549   6.240   4.167  11.583 -0.0912 -0.5422  0.5416
  331MOL0     C45550   6.334   4.279  11.554 -0.6956 -0.5870  0.6996
  331MOL0     C45551   6.474   4.229  11.583 -0.1802  0.2143 -0.4812
  331MOL0     C45552   6.575   4.341  11.571  0.1833 -0.0200  0.5835
  331MOL0     C45553   6.600   4.357  11.422 -0.3675  0.0868 -0.3900
  331MOL0     C45554   6.717   4.454  11.387  0.4775  0.1125 -0.0714
  331MOL0     C45555   6.706   4.602  11.451 -0.1554  0.4202 -0.3493
  331MOL0     C45556   6.833   4.681  11.450  0.0413 -0.2174 -0.3695
  331MOL0     N45557   6.892   4.703  11.313  0.5791 -0.3742  0.8865
  331MOL0     C45558   6.820   4.755  11.199 -0.6158  0.2112 -0.1962
  331MOL0     C45559   6.920   4.764  11.100  0.2774  1.7385 -0.7640
  331MOL0     C45560   6.895   4.807  10.950  0.5620 -0.5233  0.8557
  331MOL0     C45561   6.915   4.963  10.930  0.7942 -0.1990  0.8468
  331MOL0     C45562   7.046   5.009  10.859  0.0261  0.2205  0.1349
  331MOL0     C45563   7.040   5.154  10.832  0.4884  0.0524  0.5781
  331MOL0     O45564   7.155   5.209  10.763  0.6060  1.0151  0.3806
  331MOL0     C45565   7.158   5.182  10.626  0.3107 -0.2887  0.8898
  331MOL0     C45566   7.263   5.247  10.556 -0.0428  0.0469 -0.1321
  331MOL0     C45567   7.288   5.238  10.418  0.3899  0.1732  0.4051
  331MOL0     C45568   7.400   5.311  10.354 -0.5429  0.5009 -0.5289
  331MOL0     C45569   7.200   5.149  10.344 -0.3033  0.1617  0.5013
  331MOL0     C45570   7.199   5.139  10.196  0.2087 -0.0919 -0.0810
  331MOL0     O45571   7.261   5.030  10.147 -0.2531 -0.7297  1.0526
  331MOL0     C45572   7.223   4.977  10.023  0.5510  1.1609 -0.2572
  331MOL0     C45573   7.092   4.941   9.991  0.6275 -0.3272 -0.4663
  331MOL0     C45574   7.051   4.883   9.874 -0.7729  0.4854 -0.4009
  331MOL0     C45575   7.154   4.838   9.786 -1.2991 -0.4715 -0.1128
  331MOL0     O45576   7.112   4.762   9.672 -0.2898 -0.7364 -0.4126
  331MOL0     C45577   7.204   4.770   9.558 -0.7508 -0.1626  0.1899
  331MOL0     C45578   7.156   4.664   9.463  0.7178  0.0957 -0.6141
  331MOL0     C45579   7.153   4.520   9.516 -0.1043 -0.4729 -0.4150
  331MOL0     C45580   7.293   4.483   9.586  0.0751  0.1282 -0.8154
  331MOL0     C45581   7.287   4.338   9.624 -0.0689 -0.3876  0.5149
  331MOL0     C45582   7.411   4.311   9.706 -0.4752 -0.2497 -0.0393
  331MOL0     C45583   7.428   4.163   9.740 -0.9224  0.1299  0.2079
  331MOL0     C45584   7.520   4.144   9.865  0.1874 -0.0012  0.1289
  331MOL0    Cl45585   7.686   4.197   9.838 -0.4490 -0.1130  0.2033
  331MOL0     C45586   7.290   4.875   9.813 -1.4678 -0.8317  0.7464
  331MOL0     C45587   7.325   4.927   9.936 -0.0990 -0.8772 -0.4777
  331MOL0     O45588   7.124   5.211  10.130  0.8107  0.5884 -0.0019
  331MOL0     C45589   7.102   5.071  10.415 -0.1228 -0.5073 -0.5537
  331MOL0     C45590   7.069   5.095  10.547  0.2099 -0.1045 -0.9931
  331MOL0     N45591   7.040   4.732  11.156  0.1883  0.8790 -0.0406
  331MOL0     N45592   7.028   4.709  11.286  0.0498  0.0598  0.6165
  331MOL0     C45593   6.044   3.949  11.587 -0.5748  0.1179 -0.9482
  331MOL0     C45594   5.935   3.861  11.578  0.5046  0.1428 -0.0548
  331MOL0     C45595   5.616   3.600  11.471 -0.1675 -0.0255 -0.6142
  331MOL0     C45596   5.646   3.490  11.397  0.2945  0.1930  0.5378
  331MOL0     C45597   5.591   3.363  11.415  0.8457 -0.1957  0.3526
  331MOL0     C45598   5.488   3.350  11.511 -0.8406 -0.5775  0.0062
  331MOL0     O45599   5.433   3.227  11.531  0.5056  0.0493  0.2358
  331MOL0     C45600   5.465   3.160  11.652 -0.0187 -0.6454 -0.5606
  331MOL0     C45601   5.438   3.014  11.647  0.1228  0.4040 -0.1472
  331MOL0     C45602   5.505   2.951  11.529  0.4025 -0.1211  1.4492
  331MOL0     C45603   5.408   2.845  11.467  0.0194 -0.0118 -1.0140
  331MOL0     C45604   5.395   2.732  11.559 -0.3044  0.1643 -0.1350
  331MOL0     C45605   5.382   2.632  11.628 -0.1152 -1.0625  0.0872
  331MOL0     C45606   5.463   3.458  11.594 -0.8499  0.3309 -0.3816
  331MOL0     C45607   5.513   3.590  11.570 -0.7258  0.7606 -0.1570
  331MOL0     C45608   5.459   3.702  11.645 -0.3607 -0.0712  0.1342
  331MOL0     H45609   5.989   3.755  11.273 -3.6110 -1.6451  1.4385
  331MOL0     H45610   6.211   3.891  11.309  0.7295  1.4267  2.5315
  331MOL0     H45611   6.246   4.131  11.686  3.4305 -1.2397  0.2289
  331MOL0     H45612   6.144   4.215  11.562  1.4976  2.2672 -0.7928
  331MOL0     H45613   6.330   4.314  11.451 -0.7158  0.7056  1.1223
  331MOL0     H45614   6.310   4.365  11.617 -0.9516 -1.6926  2.1692
  331MOL0     H45615   6.491   4.206  11.689 -1.4470  0.0442 -0.3006
  331MOL0     H45616   6.485   4.139  11.522  0.4772 -3.8245  4.8451
  331MOL0     H45617   6.522   4.431  11.602 -0.8020 -0.8338  1.3137
  331MOL0     H45618   6.672   4.325  11.620  1.7709 -1.1253 -2.5962
  331MOL0     H45619   6.514   4.411  11.383 -0.3510 -0.5969 -1.4079
  331MOL0     H45620   6.604   4.266  11.362 -0.4315  0.9921 -1.8239
  331MOL0     H45621   6.814   4.418  11.425  0.9963  3.3863  2.1340
  331MOL0     H45622   6.719   4.471  11.279 -1.0671  1.9159  0.1453
  331MOL0     H45623   6.667   4.601  11.553 -1.3038 -1.2091 -0.7686
  331MOL0     H45624   6.630   4.652  11.390 -0.0509  0.1021 -0.7476
  331MOL0     H45625   6.805   4.777  11.494  0.7472 -0.1882  0.0247
  331MOL0     H45626   6.905   4.631  11.515  0.7733 -0.1117 -1.0866
  331MOL0     H45627   6.714   4.776  11.195 -0.4098  1.9448  1.6957
  331MOL0     H45628   6.793   4.780  10.919  0.3597 -0.1089  1.1526
  331MOL0     H45629   6.966   4.762  10.881 -0.4920 -0.6291 -0.1977
  331MOL0     H45630   6.841   5.012  10.866  2.2613  1.6894  0.5221
  331MOL0     H45631   6.907   5.002  11.032 -3.9090 -0.0849  0.6511
  331MOL0     H45632   7.131   4.979  10.921 -0.7149 -1.4372  0.4273
  331MOL0     H45633   7.048   4.963  10.760  1.2230  3.9680 -1.7569
  331MOL0     H45634   6.957   5.179  10.765  0.7810 -5.0785 -2.2503
  331MOL0     H45635   7.023   5.216  10.920  1.6695 -0.8020  1.4483
  331MOL0     H45636   7.326   5.303  10.623 -0.3598 -2.3306  2.3187
  331MOL0     H45637   7.483   5.240  10.362 -0.6762  0.4504  0.5949
  331MOL0     H45638   7.421   5.406  10.405  1.2472  0.4263 -1.0540
  331MOL0     H45639   7.378   5.331  10.249  0.7454 -3.9349 -1.8719
  331MOL0     H45640   7.018   4.970  10.064  0.1547 -3.5782  0.5109
  331MOL0     H45641   6.946   4.865   9.852  0.0744 -1.1876 -3.8336
  331MOL0     H45642   7.177   4.864   9.510  1.1014  2.6518  4.1229
  331MOL0     H45643   7.309   4.755   9.584 -1.0320 -1.4300  0.6877
  331MOL0     H45644   7.050   4.691   9.459  0.5267 -0.6048 -0.4593
  331MOL0     H45645   7.196   4.669   9.362  0.2317  1.0803 -0.7712
  331MOL0     H45646   7.128   4.455   9.432  0.0771 -0.7346 -0.2675
  331MOL0     H45647   7.078   4.510   9.596  2.5470 -2.8747  1.9664
  331MOL0     H45648   7.312   4.546   9.674  0.4240 -2.5596  1.1557
  331MOL0     H45649   7.380   4.500   9.522  2.9243 -0.7647  2.5099
  331MOL0     H45650   7.206   4.315   9.694  0.5848  0.3767  1.5525
  331MOL0     H45651   7.268   4.271   9.539 -1.3480 -1.3604  1.5322
  331MOL0     H45652   7.396   4.361   9.802  0.3741  1.1889 -0.6236
  331MOL0     H45653   7.497   4.350   9.650  0.4515  1.3392  2.3199
  331MOL0     H45654   7.470   4.119   9.649  1.0994  1.7727  0.2719
  331MOL0     H45655   7.345   4.096   9.764  1.2184 -3.6246 -1.9442
  331MOL0     H45656   7.531   4.042   9.905  0.1580 -0.2271 -0.4318
  331MOL0     H45657   7.483   4.210   9.944  1.1261  0.1224  0.4729
  331MOL0     H45658   7.367   4.861   9.738 -1.0487  1.6279  0.6207
  331MOL0     H45659   7.427   4.948   9.967 -0.4528  0.2650 -0.0457
  331MOL0     H45660   7.041   4.993  10.371 -1.0828 -1.3771  2.1291
  331MOL0     H45661   6.983   5.041  10.584  1.0101 -0.7162  0.0352
  331MOL0     H45662   6.045   4.024  11.666  0.4964  1.4042 -2.1373
  331MOL0     H45663   5.861   3.842  11.655 -0.2195  1.7388 -0.3082
  331MOL0     H45664   5.715   3.510  11.315  0.1291  0.5211  0.4786
  331MOL0     H45665   5.596   3.280  11.346  0.8020  1.7788 -2.1576
  331MOL0     H45666   5.570   3.170  11.677  0.2773  0.1960 -2.0074
  331MOL0     H45667   5.411   3.209  11.733  1.8865  0.9814 -0.2096
  331MOL0     H45668   5.330   2.998  11.634 -0.0285  1.3328 -0.1537
  331MOL0     H45669   5.462   2.958  11.737 -2.1947  0.2157  0.4177
  331MOL0     H45670   5.538   3.033  11.465 -0.3690  0.8622  2.2898
  331MOL0     H45671   5.596   2.892  11.547  1.9216  1.2529 -1.0770
  331MOL0     H45672   5.437   2.789  11.378 -1.5335  1.4079 -2.4928
  331MOL0     H45673   5.317   2.891  11.427  0.8996  0.9207 -2.0111
  331MOL0     H45674   5.355   2.550  11.691  0.6336 -2.1772 -1.0073
  331MOL0     H45675   5.388   3.448  11.673 -0.5388 -2.7887 -0.3606
  331MOL0     H45676   5.369   3.675  11.701 -0.5825 -0.2882 -0.3136
  331MOL0     H45677   5.536   3.725  11.719  1.8253  2.3469 -2.6168
  331MOL0     H45678   5.430   3.789  11.586  0.9001  0.9770  1.0006
  332MOL0     O45679   2.897   1.852   3.976 -0.3843 -0.2774 -0.0778
  332MOL0     C45680   2.780   1.863   3.948 -0.9261 -0.1147  0.4425
  332MOL0     O45681   2.704   1.975   3.974 -0.2054 -0.0855 -0.6630
  332MOL0     C45682   2.767   2.087   4.032 -0.0680 -0.2095  1.3643
  332MOL0     C45683   2.847   2.178   3.961 -0.2111 -0.3050  0.9892
  332MOL0     C45684   2.877   2.294   4.025 -1.0381 -0.9624 -0.2687
  332MOL0     C45685   2.845   2.314   4.160  0.2938 -0.0583  0.3149
  332MOL0     O45686   2.885   2.437   4.218 -0.3874  0.2007  0.2766
  332MOL0     C45687   2.884   2.455   4.365 -0.2571 -0.8850  0.4465
  332MOL0     C45688   2.953   2.596   4.390 -1.1666 -0.5062 -0.0039
  332MOL0     C45689   2.893   2.718   4.305  0.7710 -0.7174 -0.3364
  332MOL0     C45690   2.974   2.844   4.334  1.0968 -0.2524  0.9050
  332MOL0     C45691   2.967   2.953   4.209  1.1783 -1.0227 -0.3987
  332MOL0     C45692   2.821   3.008   4.196  0.5051 -0.4222  0.1946
  332MOL0     C45693   2.787   3.092   4.325 -0.9390  0.4626 -0.4754
  332MOL0     C45694   2.667   3.185   4.312 -0.4507  0.4181 -0.6794
  332MOL0     N45695   2.641   3.259   4.439  0.3905  0.4358  0.0435
  332MOL0     C45696   2.720   3.358   4.480 -0.5266 -0.4837 -0.1312
  332MOL0     C45697   2.649   3.426   4.573  0.1678  0.7542 -0.3869
  332MOL0     C45698   2.679   3.559   4.643 -0.3741  0.3998 -0.0459
  332MOL0     C45699   2.661   3.692   4.558  0.1859 -0.1091 -0.5328
  332MOL0     C45700   2.599   3.816   4.639 -0.7268  0.2436  0.3679
  332MOL0     C45701   2.691   3.865   4.741  0.0951 -0.1996 -0.4338
  332MOL0     O45702   2.801   3.923   4.672  0.9230  0.3537 -0.9280
  332MOL0     C45703   2.909   3.947   4.743 -0.0658 -1.0401  0.1282
  332MOL0     C45704   2.910   3.944   4.889 -0.7342 -0.1244  0.1391
  332MOL0     C45705   3.032   3.960   4.957  0.5866 -0.5868 -0.2809
  332MOL0     C45706   3.016   3.959   5.105  0.8535 -0.0883  0.7026
  332MOL0     C45707   3.146   3.995   4.888 -0.0260 -0.2313  0.9753
  332MOL0     C45708   3.276   3.995   4.955 -1.0218 -1.2203  0.4082
  332MOL0     O45709   3.347   4.113   4.944 -0.8955 -0.0699  0.1604
  332MOL0     C45710   3.479   4.113   4.988  0.8414  0.4181  0.2302
  332MOL0     C45711   3.585   4.078   4.905  0.7191  0.1432 -0.4794
  332MOL0     C45712   3.714   4.099   4.951  0.7913  0.0454  0.6561
  332MOL0     C45713   3.736   4.154   5.084  0.1634 -0.9105 -0.0071
  332MOL0     O45714   3.855   4.177   5.140 -0.2905  0.3973  0.4187
  332MOL0     C45715   3.962   4.217   5.058  0.6363  0.5110  0.0358
  332MOL0     C45716   3.921   4.347   4.981 -0.1008  0.4954 -0.0417
  332MOL0     C45717   4.015   4.375   4.864 -0.1844 -0.8932  0.4254
  332MOL0     C45718   3.951   4.502   4.789 -0.4879  0.4548  0.5667
  332MOL0     C45719   3.829   4.482   4.696 -0.1126 -0.4316  0.4058
  332MOL0     C45720   3.849   4.572   4.568  0.0084 -0.2436 -1.4670
  332MOL0     C45721   3.848   4.730   4.608 -0.9791 -0.7184 -0.2854
  332MOL0     C45722   3.763   4.801   4.503  0.2572 -0.1551 -0.3015
  332MOL0    Cl45723   3.749   4.981   4.537  0.0435  0.2705 -0.1631
  332MOL0     C45724   3.621   4.184   5.162  0.1594 -0.2237  0.4613
  332MOL0     C45725   3.494   4.172   5.113  0.1783 -0.6387 -0.7195
  332MOL0     O45726   3.305   3.898   5.020 -1.0340 -0.2240  0.0056
  332MOL0     C45727   3.139   4.018   4.751 -0.4454 -0.6742 -0.4106
  332MOL0     C45728   3.023   3.992   4.678 -0.7877 -0.1542 -0.7513
  332MOL0     N45729   2.528   3.359   4.593 -0.1846  0.6224  0.2019
  332MOL0     N45730   2.528   3.264   4.508  0.4677 -0.2040  0.9655
  332MOL0     C45731   2.784   2.219   4.236 -0.6712  0.3135 -0.8698
  332MOL0     C45732   2.738   2.106   4.164  0.6845 -0.8974 -0.9960
  332MOL0     C45733   2.711   1.737   3.883  0.1854 -0.0611 -0.4862
  332MOL0     C45734   2.570   1.741   3.881 -0.3440  1.1821  0.3920
  332MOL0     C45735   2.489   1.634   3.835 -1.0359 -0.2247  0.9429
  332MOL0     C45736   2.540   1.516   3.782  0.0059  0.3523  0.4203
  332MOL0     O45737   2.440   1.425   3.736  0.3889  0.4022  0.0181
  332MOL0     C45738   2.500   1.307   3.680 -0.0912 -0.1975 -0.1321
  332MOL0     C45739   2.398   1.195   3.666  0.9960  0.1604  0.7856
  332MOL0     C45740   2.302   1.212   3.551  0.2202  0.2874 -0.2010
  332MOL0     C45741   2.311   1.100   3.446 -0.0594  0.0677 -0.4871
  332MOL0     C45742   2.440   1.120   3.376  0.5850 -0.1910 -1.3829
  332MOL0     C45743   2.547   1.138   3.317  0.5898  0.6220  0.1396
  332MOL0     C45744   2.677   1.510   3.772 -0.8279 -0.0676 -0.3435
  332MOL0     C45745   2.764   1.617   3.818 -1.2700 -0.1873  0.9797
  332MOL0     C45746   2.914   1.597   3.796 -0.5327  0.5306 -0.0315
  332MOL0     H45747   2.863   2.158   3.855 -0.6905  0.0535  0.8505
  332MOL0     H45748   2.937   2.369   3.974 -0.7783 -0.2253  1.0639
  332MOL0     H45749   2.956   2.381   4.401  1.9665  0.6510 -0.5710
  332MOL0     H45750   2.794   2.467   4.426  0.4066  1.5246  1.0736
  332MOL0     H45751   2.949   2.610   4.498 -0.5238 -1.9522  0.2313
  332MOL0     H45752   3.058   2.588   4.359 -1.1738 -1.2563  0.1381
  332MOL0     H45753   2.903   2.705   4.196 -0.2735  3.3115 -1.0510
  332MOL0     H45754   2.790   2.731   4.340  0.9001  1.8465 -0.7304
  332MOL0     H45755   2.942   2.890   4.427  1.3595  2.9461 -0.4659
  332MOL0     H45756   3.080   2.822   4.348  0.8386 -3.7881 -1.3555
  332MOL0     H45757   2.992   2.900   4.117 -2.1875 -0.2291 -1.9495
  332MOL0     H45758   3.024   3.046   4.221 -1.3861  0.3133  3.5726
  332MOL0     H45759   2.816   3.067   4.104 -2.1474  1.6792  1.5684
  332MOL0     H45760   2.748   2.926   4.194  0.5877 -0.5995  2.1428
  332MOL0     H45761   2.877   3.154   4.332  1.5744 -2.2145 -4.6686
  332MOL0     H45762   2.769   3.020   4.405  3.4990 -1.1962 -0.6643
  332MOL0     H45763   2.693   3.271   4.250 -0.5305  3.0332  2.6142
  332MOL0     H45764   2.581   3.144   4.258 -0.4844  0.9236 -1.0158
  332MOL0     H45765   2.821   3.386   4.450  0.1740 -1.6044  1.0304
  332MOL0     H45766   2.768   3.543   4.704 -1.0117 -3.1108  0.2119
  332MOL0     H45767   2.606   3.565   4.724  2.8029  1.3451  2.9819
  332MOL0     H45768   2.749   3.718   4.500  0.5330 -2.3093 -1.1096
  332MOL0     H45769   2.584   3.663   4.485 -0.7209  0.7750  0.0465
  332MOL0     H45770   2.580   3.891   4.562 -1.6340 -1.4726 -1.1669
  332MOL0     H45771   2.510   3.776   4.689 -0.9414 -1.0445 -0.9514
  332MOL0     H45772   2.638   3.934   4.808  0.5571 -1.2188  1.0518
  332MOL0     H45773   2.721   3.776   4.798 -0.9107  0.4661  1.2321
  332MOL0     H45774   2.822   3.939   4.953 -1.9591  2.3417 -1.2391
  332MOL0     H45775   2.944   4.034   5.137 -0.5904 -1.6159  1.2042
  332MOL0     H45776   3.112   3.991   5.147 -0.9589  0.9363  4.4497
  332MOL0     H45777   2.989   3.859   5.140  0.8357 -0.6281 -0.7821
  332MOL0     H45778   3.563   4.022   4.814 -5.5414  0.4738  0.3787
  332MOL0     H45779   3.796   4.062   4.891 -0.3917 -2.8137  0.6441
  332MOL0     H45780   4.052   4.234   5.118  0.6305  2.9336 -0.5687
  332MOL0     H45781   3.996   4.144   4.983  0.2706  1.1406 -0.7590
  332MOL0     H45782   3.820   4.337   4.940  0.2962  0.2751 -1.0106
  332MOL0     H45783   3.923   4.425   5.057  0.0600 -2.7547  3.6490
  332MOL0     H45784   4.015   4.292   4.794 -4.3039  0.7165 -1.8667
  332MOL0     H45785   4.119   4.395   4.891 -0.2707  1.2514 -0.6512
  332MOL0     H45786   4.031   4.543   4.727 -0.6248  3.0226  1.9454
  332MOL0     H45787   3.939   4.574   4.871  0.9137  2.3123 -0.7923
  332MOL0     H45788   3.830   4.378   4.662  1.6622 -1.0929  2.2157
  332MOL0     H45789   3.729   4.500   4.736 -1.9166  1.0590 -4.1794
  332MOL0     H45790   3.766   4.536   4.507 -1.7784 -1.1439  1.3071
  332MOL0     H45791   3.940   4.540   4.517  0.7701  0.0230 -0.3269
  332MOL0     H45792   3.951   4.768   4.608 -1.1184 -0.2241  1.8111
  332MOL0     H45793   3.813   4.751   4.709  0.5964  2.2744 -0.2481
  332MOL0     H45794   3.666   4.753   4.509 -0.7468  1.7197 -0.7391
  332MOL0     H45795   3.801   4.787   4.401 -1.5987  2.8891 -1.5680
  332MOL0     H45796   3.651   4.225   5.257 -4.5952  0.4111  1.9676
  332MOL0     H45797   3.407   4.198   5.171 -1.5992  1.1861 -3.8997
  332MOL0     H45798   3.224   4.050   4.692  1.4534 -2.8168  1.0066
  332MOL0     H45799   3.015   4.003   4.571 -0.2726  0.0552 -0.7695
  332MOL0     H45800   2.747   2.244   4.335  1.3419  2.3825 -0.5627
  332MOL0     H45801   2.675   2.031   4.209 -2.3399  0.5392 -2.5380
  332MOL0     H45802   2.509   1.813   3.935  0.8552  2.6559 -0.1308
  332MOL0     H45803   2.380   1.631   3.832 -1.1167  2.0568 -1.8089
  332MOL0     H45804   2.556   1.335   3.591 -1.5631  0.3522 -0.9231
  332MOL0     H45805   2.564   1.270   3.761 -0.7908  2.4120  1.7386
  332MOL0     H45806   2.331   1.193   3.752  0.4330  2.3302  0.4539
  332MOL0     H45807   2.455   1.102   3.661  0.6540 -0.0199  0.0434
  332MOL0     H45808   2.200   1.216   3.591 -0.4988 -0.5030 -1.8377
  332MOL0     H45809   2.315   1.309   3.504  0.0431 -0.1649 -1.2242
  332MOL0     H45810   2.235   1.096   3.367  1.9386  0.1096 -2.5413
  332MOL0     H45811   2.298   0.999   3.487 -1.6398  0.5282  0.2292
  332MOL0     H45812   2.632   1.167   3.258 -0.2795 -0.6953 -1.8980
  332MOL0     H45813   2.724   1.423   3.727 -0.8167  1.2185 -3.0168
  332MOL0     H45814   2.943   1.635   3.698 -2.1014 -1.2110 -1.2264
  332MOL0     H45815   2.982   1.637   3.872  1.0945  1.6988 -1.9866
  332MOL0     H45816   2.936   1.491   3.788 -2.9958  0.0407 -1.1833
  333MOL0     O45817   1.132  10.863   1.950 -0.0323  0.3293 -0.5768
  333MOL0     C45818   1.143  10.745   1.912 -0.0398  0.2594  0.2832
  333MOL0     O45819   1.043  10.652   1.922  0.0686 -0.4658 -0.2239
  333MOL0     C45820   0.921  10.694   1.958  0.8697 -0.6023 -0.2596
  333MOL0     C45821   0.889  10.712   2.091 -0.4584 -0.2430 -0.2273
  333MOL0     C45822   0.754  10.729   2.126 -0.2304  0.8836  1.0297
  333MOL0     C45823   0.657  10.745   2.034 -1.1324  0.3169 -0.1530
  333MOL0     O45824   0.545  10.791   2.084 -0.0014  0.2023 -0.0820
  333MOL0     C45825   0.450  10.689   2.135 -0.2445 -0.0729  0.1144
  333MOL0     C45826   0.426  10.576   2.036  0.4956  0.5895 -0.0972
  333MOL0     C45827   0.301  10.502   2.082  0.2079  0.1221  0.2180
  333MOL0     C45828   0.282  10.374   1.993 -0.5105  0.8115 -0.9321
  333MOL0     C45829   0.189  10.285   2.069 -0.2960 -0.5052  0.4161
  333MOL0     C45830   0.118  10.175   1.994  0.6625 -0.1481  0.0546
  333MOL0     C45831   0.011  10.233   1.901  0.0110 -0.9861  0.0432
  333MOL0     C45832  -0.049  10.123   1.813 -0.3450  0.3121 -1.2642
  333MOL0     N45833   0.058  10.080   1.728  0.2291  0.3117  1.0561
  333MOL0     C45834   0.086   9.952   1.688  0.1424 -0.2933 -0.3944
  333MOL0     C45835   0.208   9.953   1.633  0.3404  0.3425 -0.1285
  333MOL0     C45836   0.292   9.832   1.605  0.4146 -0.0701 -0.5405
  333MOL0     C45837   0.349   9.825   1.468  0.8259  0.6481 -0.9842
  333MOL0     C45838   0.240   9.802   1.366  0.4283 -0.2252  0.3242
  333MOL0     C45839   0.293   9.765   1.230  0.4924 -1.6766 -0.0654
  333MOL0     O45840   0.363   9.638   1.229  0.6661  1.0415  0.5277
  333MOL0     C45841   0.291   9.537   1.181  0.4739 -0.4416  0.3689
  333MOL0     C45842   0.157   9.495   1.220 -0.3336 -0.2195 -0.0634
  333MOL0     C45843   0.086   9.403   1.144  0.0832  0.0097 -0.8084
  333MOL0     C45844  -0.057   9.383   1.186  0.7197 -0.3353 -0.4270
  333MOL0     C45845   0.158   9.341   1.035  0.7452  0.6393 -0.3384
  333MOL0     C45846   0.089   9.246   0.938  0.4997  0.1780  0.5367
  333MOL0     O45847   0.143   9.240   0.817 -0.1687  0.6159  0.4113
  333MOL0     C45848   0.115   9.139   0.730 -0.4553 -0.4144 -1.0980
  333MOL0     C45849   0.077   9.178   0.609  0.5323  0.1133  0.7371
  333MOL0     C45850   0.042   9.071   0.524  0.0773  0.1660 -0.0531
  333MOL0     C45851   0.046   8.932   0.564  0.2623  0.0233 -0.7721
  333MOL0     O45852   0.014   8.822   0.488 -0.3371  0.0102  0.2204
  333MOL0     C45853  -0.032   8.843   0.355 -1.2711 -0.0692 -0.5311
  333MOL0     C45854  -0.183   8.891   0.369  0.3025 -0.2566  0.2367
  333MOL0     C45855  -0.287   8.785   0.404 -0.7311  0.2480 -0.2149
  333MOL0     C45856  -0.421   8.839   0.403  0.6957  0.1389 -0.5972
  333MOL0     C45857  -0.505   8.738   0.475 -0.2610  0.0065  0.1344
  333MOL0     C45858  -0.655   8.773   0.469  0.7073 -0.4833 -0.2296
  333MOL0     C45859  -0.731   8.663   0.550 -0.9005  0.1027  0.3424
  333MOL0     C45860  -0.875   8.660   0.510  0.0474 -0.0523  0.2896
  333MOL0    Cl45861  -0.883   8.610   0.343 -0.0314  0.2959 -0.2683
  333MOL0     C45862   0.105   8.907   0.686 -0.3402 -0.2437 -0.7458
  333MOL0     C45863   0.131   9.014   0.763  0.2552  0.7166 -1.0668
  333MOL0     O45864  -0.015   9.193   0.973 -0.7853  0.5821 -0.3410
  333MOL0     C45865   0.288   9.375   1.001  0.4768  0.3323  0.1467
  333MOL0     C45866   0.352   9.468   1.076 -0.3527 -0.4877  0.2611
  333MOL0     N45867   0.255  10.085   1.634 -0.3926  0.0841 -0.2854
  333MOL0     N45868   0.162  10.157   1.683  0.0427 -0.4589 -0.5372
  333MOL0     C45869   0.691  10.728   1.900 -0.8510 -0.5039  0.3446
  333MOL0     C45870   0.819  10.698   1.857 -0.2936 -0.1996 -0.2459
  333MOL0     C45871   1.274  10.693   1.858  0.2737  0.3680  0.9443
  333MOL0     C45872   1.294  10.551   1.876 -0.0761  0.5658  1.0245
  333MOL0     C45873   1.406  10.493   1.827 -0.1468  0.2481 -0.6442
  333MOL0     C45874   1.516  10.563   1.781  0.3472 -0.4782 -0.2858
  333MOL0     O45875   1.630  10.510   1.730  0.3218 -0.3925 -0.4281
  333MOL0     C45876   1.626  10.387   1.658 -0.3017 -0.4779 -0.8734
  333MOL0     C45877   1.525  10.412   1.539 -1.0656  0.4285  0.3039
  333MOL0     C45878   1.558  10.314   1.424 -0.4069  0.4096  0.6189
  333MOL0     C45879   1.554  10.155   1.448 -0.1455 -0.4381  0.1593
  333MOL0     C45880   1.591  10.092   1.317  0.1676  0.5899  0.1681
  333MOL0     C45881   1.634  10.042   1.207 -0.0797 -0.7867 -0.2917
  333MOL0     C45882   1.501  10.702   1.767  0.6262  0.3095 -0.4508
  333MOL0     C45883   1.384  10.766   1.800 -0.0813 -0.1499 -0.2296
  333MOL0     C45884   1.376  10.914   1.784  0.6251  0.5094 -0.1077
  333MOL0     H45885   0.963  10.686   2.166  1.0104 -3.9646 -2.6462
  333MOL0     H45886   0.723  10.746   2.228 -3.4831 -0.3311  0.3669
  333MOL0     H45887   0.352  10.736   2.144 -1.1240 -0.8764 -3.6790
  333MOL0     H45888   0.467  10.655   2.238 -1.6029 -0.0909  0.3423
  333MOL0     H45889   0.416  10.620   1.936  4.0317 -0.6008 -1.1269
  333MOL0     H45890   0.512  10.509   2.032 -0.5697 -1.0145  1.8032
  333MOL0     H45891   0.318  10.473   2.186  0.8133  1.5846  0.5485
  333MOL0     H45892   0.213  10.564   2.065  0.9094  1.2846  0.6795
  333MOL0     H45893   0.240  10.410   1.899 -0.4521  0.2961 -1.1565
  333MOL0     H45894   0.382  10.332   1.980  0.4781  1.1774  3.6830
  333MOL0     H45895   0.116  10.348   2.122 -0.7928 -1.8926  1.4208
  333MOL0     H45896   0.256  10.243   2.145 -2.0166 -1.6308  1.3594
  333MOL0     H45897   0.189  10.116   1.935  1.5583 -1.6558  2.4792
  333MOL0     H45898   0.074  10.117   2.076 -1.2867  1.2520  0.0832
  333MOL0     H45899   0.063  10.305   1.838  4.1619 -0.6001  3.4230
  333MOL0     H45900  -0.064  10.288   1.959  0.4844  1.5193 -1.5647
  333MOL0     H45901  -0.085  10.038   1.872  0.6516  0.2339 -0.7631
  333MOL0     H45902  -0.132  10.159   1.750 -1.9104 -1.2443 -0.1989
  333MOL0     H45903   0.038   9.857   1.708 -2.2046  1.4364  3.3622
  333MOL0     H45904   0.240   9.745   1.646  0.4402  0.1535 -0.0291
  333MOL0     H45905   0.376   9.844   1.674  0.9079 -1.0235 -0.9467
  333MOL0     H45906   0.399   9.919   1.444  4.8643 -1.5948 -2.2473
  333MOL0     H45907   0.425   9.747   1.469  0.3906  0.2215 -0.4808
  333MOL0     H45908   0.173   9.719   1.387 -0.5333 -0.4338 -2.9835
  333MOL0     H45909   0.183   9.895   1.368  3.5116  1.7934  1.0852
  333MOL0     H45910   0.206   9.765   1.163  0.1014 -3.1506  0.4012
  333MOL0     H45911   0.359   9.848   1.202  0.5110 -1.1975  1.3395
  333MOL0     H45912   0.110   9.558   1.294  0.7808  2.0303 -1.1695
  333MOL0     H45913  -0.068   9.284   1.231  0.1491 -0.4458 -0.7967
  333MOL0     H45914  -0.123   9.384   1.099  0.5454 -0.0025 -0.2952
  333MOL0     H45915  -0.088   9.455   1.263 -4.5073 -2.2220 -0.3804
  333MOL0     H45916   0.061   9.284   0.593  4.9763  0.8736  0.0317
  333MOL0     H45917  -0.014   9.089   0.432  0.7474 -1.2268 -0.7608
  333MOL0     H45918   0.023   8.912   0.290 -2.0622 -1.7075 -3.0828
  333MOL0     H45919  -0.027   8.753   0.293 -1.6489 -0.8967  0.5966
  333MOL0     H45920  -0.190   8.958   0.455 -1.6282 -3.0786  2.4938
  333MOL0     H45921  -0.198   8.944   0.274  0.6116  2.6162  1.6795
  333MOL0     H45922  -0.262   8.753   0.506 -2.5548 -0.9945 -0.1200
  333MOL0     H45923  -0.273   8.693   0.346  0.5466  0.1452  0.2209
  333MOL0     H45924  -0.457   8.839   0.299 -1.5264 -1.0965  0.0950
  333MOL0     H45925  -0.431   8.940   0.444 -1.3384 -0.8160  1.4665
  333MOL0     H45926  -0.488   8.632   0.450 -0.0848  0.1140 -0.2054
  333MOL0     H45927  -0.469   8.723   0.577 -2.8932  1.7520  1.4366
  333MOL0     H45928  -0.671   8.784   0.361 -0.7176 -1.6877 -0.1798
  333MOL0     H45929  -0.677   8.869   0.517 -1.9687  0.2998 -2.7589
  333MOL0     H45930  -0.717   8.681   0.657  1.0035  3.1289 -0.3244
  333MOL0     H45931  -0.699   8.564   0.514 -0.1853  0.4115  0.1236
  333MOL0     H45932  -0.922   8.758   0.521 -2.6923 -0.9618 -1.8698
  333MOL0     H45933  -0.939   8.598   0.574  0.4853 -0.5152  0.2843
  333MOL0     H45934   0.113   8.807   0.727  0.5998 -0.4616 -1.4306
  333MOL0     H45935   0.157   8.985   0.864 -3.4991  0.4678 -0.0565
  333MOL0     H45936   0.354   9.326   0.930  1.2212 -0.1479  1.1400
  333MOL0     H45937   0.452   9.497   1.046 -1.7370  0.5481 -3.9578
  333MOL0     H45938   0.609  10.739   1.830 -0.7219  4.6329  0.5834
  333MOL0     H45939   0.845  10.685   1.752  1.6221 -1.0877  0.2810
  333MOL0     H45940   1.208  10.495   1.911 -1.0007 -0.5194 -2.5889
  333MOL0     H45941   1.416  10.387   1.846 -1.3521  0.3510  0.7062
  333MOL0     H45942   1.729  10.367   1.626  1.2702 -0.6060  3.6027
  333MOL0     H45943   1.595  10.294   1.706 -0.1183 -0.2170 -0.2447
  333MOL0     H45944   1.540  10.517   1.512 -0.0454  0.4447  0.9187
  333MOL0     H45945   1.419  10.408   1.567 -0.8476  1.2068  1.2548
  333MOL0     H45946   1.480  10.330   1.349 -1.0663 -0.7984  1.0243
  333MOL0     H45947   1.646  10.355   1.374 -2.8924  4.6089 -0.8233
  333MOL0     H45948   1.450  10.124   1.463 -0.1990 -0.1914  0.2998
  333MOL0     H45949   1.623  10.115   1.523 -0.3452 -0.3529  0.3919
  333MOL0     H45950   1.668   9.995   1.117  4.6697 -0.1026  0.8746
  333MOL0     H45951   1.592  10.747   1.729  0.8348 -1.4896 -2.2425
  333MOL0     H45952   1.363  10.961   1.882  1.5972  0.9575 -0.1848
  333MOL0     H45953   1.467  10.956   1.740  0.4550  1.0367  0.0338
  333MOL0     H45954   1.287  10.922   1.720  2.2362 -4.4278 -3.5256
  334MOL0     O45955   2.980   6.735  10.711 -0.6727  0.1614  0.3282
  334MOL0     C45956   3.090   6.690  10.679  0.8083  0.2410  0.1085
  334MOL0     O45957   3.150   6.596  10.750 -0.0634 -0.3774 -0.2378
  334MOL0     C45958   3.108   6.568  10.873 -0.3307 -0.3531 -0.8274
  334MOL0     C45959   3.201   6.589  10.973 -1.2526 -0.2909  0.6683
  334MOL0     C45960   3.166   6.580  11.110  0.8992 -0.1675  0.2086
  334MOL0     C45961   3.037   6.529  11.147  0.6730  0.7657  0.3143
  334MOL0     O45962   3.006   6.541  11.277  0.0069  0.2837 -0.2514
  334MOL0     C45963   2.861   6.547  11.300 -0.1260  0.4366  0.1568
  334MOL0     C45964   2.833   6.522  11.451  0.1406 -0.0411  0.6191
  334MOL0     C45965   2.885   6.634  11.543 -0.1510  0.6129  0.3394
  334MOL0     C45966   2.823   6.620  11.681 -0.5658  0.2517  0.3204
  334MOL0     C45967   2.882   6.724  11.766 -0.4649  0.1647  0.5215
  334MOL0     C45968   2.824   6.725  11.901 -0.0299  0.3366 -0.6155
  334MOL0     C45969   2.893   6.811  11.996  0.3024 -0.3331 -0.4246
  334MOL0     C45970   2.878   6.963  11.973  0.5289  0.8514  0.7497
  334MOL0     N45971   2.938   7.006  11.856 -1.2643 -0.7945  1.4816
  334MOL0     C45972   2.876   7.090  11.766 -0.6276  0.0061 -0.3121
  334MOL0     C45973   2.973   7.106  11.669  0.5423  0.3190  0.1217
  334MOL0     C45974   2.948   7.187  11.547  0.7933 -0.2821 -0.2237
  334MOL0     C45975   2.832   7.295  11.545 -0.9503  0.0773 -0.0890
  334MOL0     C45976   2.887   7.419  11.625  0.2213  0.3984 -0.0620
  334MOL0     C45977   2.790   7.534  11.651  0.3273 -0.5922  0.9070
  334MOL0     O45978   2.670   7.487  11.713 -0.0216 -0.2364  0.0891
  334MOL0     C45979   2.556   7.566  11.724 -0.0219  0.7900 -0.2226
  334MOL0     C45980   2.441   7.494  11.767  0.2341  0.5332 -0.3328
  334MOL0     C45981   2.319   7.551  11.778  0.1212 -1.3268  0.5597
  334MOL0     C45982   2.201   7.464  11.833  0.5077  0.7840 -0.8507
  334MOL0     C45983   2.304   7.685  11.731  0.8842 -0.4447  0.6953
  334MOL0     C45984   2.179   7.753  11.757 -0.3329  0.7662  0.6040
  334MOL0     O45985   2.154   7.848  11.663 -0.5222  0.8933 -0.2992
  334MOL0     C45986   2.053   7.942  11.672 -0.6134  0.2564  0.2103
  334MOL0     C45987   2.052   8.025  11.564 -0.4176 -0.8413  0.1733
  334MOL0     C45988   1.958   8.126  11.551 -0.1987  0.1307 -0.9334
  334MOL0     C45989   1.860   8.147  11.647 -1.0601 -0.0736  0.1809
  334MOL0     O45990   1.762   8.237  11.616 -0.2449 -0.3151 -0.0246
  334MOL0     C45991   1.635   8.197  11.668  0.4639 -0.0977  0.5205
  334MOL0     C45992   1.515   8.286  11.605 -0.9415  0.8301  0.5869
  334MOL0     C45993   1.536   8.300  11.451 -0.5018  0.9496 -0.8495
  334MOL0     C45994   1.464   8.422  11.398 -0.1370  0.4408 -0.3026
  334MOL0     C45995   1.475   8.436  11.252 -0.5115 -0.3574  1.1482
  334MOL0     C45996   1.387   8.336  11.178  1.2826 -0.3828  0.0650
  334MOL0     C45997   1.356   8.350  11.028  0.0768 -0.7300 -0.1926
  334MOL0     C45998   1.393   8.230  10.950  0.5843  0.3349  0.0176
  334MOL0    Cl45999   1.285   8.221  10.811 -0.1592  0.1736 -0.5014
  334MOL0     C46000   1.861   8.067  11.757 -0.5396  0.8223  0.0923
  334MOL0     C46001   1.963   7.969  11.779  0.3182  0.1969  0.0321
  334MOL0     O46002   2.119   7.737  11.859  0.3404  0.3465 -0.7753
  334MOL0     C46003   2.417   7.757  11.679  1.3409 -0.7790  0.7916
  334MOL0     C46004   2.542   7.694  11.668  0.2431 -0.0888  1.3054
  334MOL0     N46005   3.086   7.024  11.693  0.4264 -0.5187  0.2070
  334MOL0     N46006   3.066   6.984  11.820 -0.3375  0.3867  1.0779
  334MOL0     C46007   2.957   6.479  11.041 -0.3803 -0.6878  0.4867
  334MOL0     C46008   2.991   6.504  10.905 -0.3376 -0.1752  0.0044
  334MOL0     C46009   3.155   6.739  10.555  0.1593 -0.6428 -0.2123
  334MOL0     C46010   3.278   6.683  10.504  0.8071  0.3915  0.1693
  334MOL0     C46011   3.315   6.709  10.370 -0.5262  1.0496 -0.1966
  334MOL0     C46012   3.253   6.806  10.282 -0.1607  0.8703 -0.1173
  334MOL0     O46013   3.277   6.826  10.156 -0.1852 -0.0281  0.2760
  334MOL0     C46014   3.352   6.730  10.082 -0.9694 -0.8611  0.0447
  334MOL0     C46015   3.400   6.818   9.973 -0.3800 -0.2804  0.2052
  334MOL0     C46016   3.497   6.729   9.878  0.1348 -0.6137  0.4306
  334MOL0     C46017   3.553   6.824   9.767  1.0793 -0.0684  0.8864
  334MOL0     C46018   3.642   6.935   9.811  0.3734 -0.0790 -0.2776
  334MOL0     C46019   3.706   7.044   9.828 -0.7629 -0.3132 -0.3668
  334MOL0     C46020   3.137   6.855  10.329 -0.7273 -0.1122  0.0690
  334MOL0     C46021   3.085   6.828  10.459  0.4012 -0.0729 -0.0918
  334MOL0     C46022   2.971   6.920  10.503  0.0304 -0.2998 -0.2295
  334MOL0     H46023   3.301   6.625  10.951 -0.6417 -0.4695  2.9137
  334MOL0     H46024   3.238   6.622  11.179 -0.1699 -1.4405  2.1933
  334MOL0     H46025   2.805   6.475  11.240 -1.6149  0.6353  1.2425
  334MOL0     H46026   2.830   6.649  11.276  2.1090  0.8115 -1.3917
  334MOL0     H46027   2.726   6.541  11.465  0.4722  5.6032 -1.6170
  334MOL0     H46028   2.869   6.424  11.482 -1.3213 -2.3195 -3.9994
  334MOL0     H46029   2.993   6.621  11.552 -0.5916 -2.6266  5.5289
  334MOL0     H46030   2.857   6.727  11.494 -0.4626  0.0856 -0.4953
  334MOL0     H46031   2.716   6.642  11.673 -0.6681 -0.8781 -4.3429
  334MOL0     H46032   2.845   6.520  11.719 -1.9430 -0.5094 -0.7789
  334MOL0     H46033   2.868   6.821  11.716 -1.4241  0.2992  1.0356
  334MOL0     H46034   2.990   6.709  11.781 -0.6739 -0.2011  1.7570
  334MOL0     H46035   2.717   6.746  11.898  0.0219  0.7081  0.0410
  334MOL0     H46036   2.837   6.620  11.928  1.9606  0.8952  0.8798
  334MOL0     H46037   2.996   6.776  12.005  0.5508  0.7570  1.4547
  334MOL0     H46038   2.852   6.798  12.096  3.8550  1.0995  1.3913
  334MOL0     H46039   2.770   6.982  11.975  0.5584  0.9536  2.0845
  334MOL0     H46040   2.912   7.023  12.058  2.2402  1.7323 -0.4973
  334MOL0     H46041   2.774   7.125  11.756 -1.4662 -2.4644 -1.0997
  334MOL0     H46042   2.942   7.118  11.462 -1.3667  2.1706 -2.2366
  334MOL0     H46043   3.030   7.255  11.526 -0.4714  1.6942  0.8964
  334MOL0     H46044   2.807   7.313  11.440 -1.8906 -0.0286  0.1059
  334MOL0     H46045   2.738   7.252  11.582 -0.5555 -0.0148  0.8566
  334MOL0     H46046   2.921   7.378  11.720  1.0204  1.5596  0.1628
  334MOL0     H46047   2.981   7.465  11.594  2.3755 -0.7712  3.9913
  334MOL0     H46048   2.824   7.620  11.711  0.6862 -1.0754  1.4059
  334MOL0     H46049   2.767   7.574  11.552  0.1136 -2.1721  0.2920
  334MOL0     H46050   2.452   7.390  11.793  3.8030  0.8302 -0.1932
  334MOL0     H46051   2.115   7.463  11.765  0.2251  1.5931 -0.5157
  334MOL0     H46052   2.150   7.488  11.927 -1.6153  1.0404 -2.0124
  334MOL0     H46053   2.233   7.359  11.840 -1.9322 -0.0001 -0.1968
  334MOL0     H46054   2.122   8.020  11.481 -2.0661  1.7181 -1.5302
  334MOL0     H46055   1.970   8.185  11.461  1.9496  1.5399  0.1690
  334MOL0     H46056   1.610   8.097  11.632 -1.6918  1.1640 -1.9003
  334MOL0     H46057   1.624   8.198  11.776 -1.0194 -2.2264  0.4467
  334MOL0     H46058   1.418   8.239  11.622  0.5911 -2.0202  2.2361
  334MOL0     H46059   1.516   8.383  11.656  1.3712  1.4838 -0.5296
  334MOL0     H46060   1.499   8.209  11.403 -1.5523  0.3015  1.1031
  334MOL0     H46061   1.643   8.311  11.427 -0.7182 -0.7166 -2.8062
  334MOL0     H46062   1.511   8.512  11.438 -0.4762 -0.4102  2.2581
  334MOL0     H46063   1.357   8.425  11.420  0.0849  1.8359  0.7777
  334MOL0     H46064   1.441   8.532  11.211 -0.1466 -0.8525 -0.3452
  334MOL0     H46065   1.572   8.415  11.207 -2.2028 -2.9391 -1.5764
  334MOL0     H46066   1.286   8.341  11.219  0.0948 -0.4225 -2.7075
  334MOL0     H46067   1.432   8.238  11.197 -1.3473 -2.1168 -1.9438
  334MOL0     H46068   1.402   8.443  10.992 -0.2989  0.5487  2.3835
  334MOL0     H46069   1.248   8.355  11.012  0.3705  1.9684 -2.1965
  334MOL0     H46070   1.375   8.142  11.013  1.9343  0.1066  0.1172
  334MOL0     H46071   1.494   8.217  10.912  0.4331 -2.7925  0.3739
  334MOL0     H46072   1.793   8.075  11.841 -1.3415  2.8201 -0.6951
  334MOL0     H46073   1.976   7.923  11.876 -0.3670  2.7520  1.4131
  334MOL0     H46074   2.407   7.862  11.654  2.4280 -0.4388  1.7139
  334MOL0     H46075   2.622   7.751  11.620  0.2004  3.1391  4.5915
  334MOL0     H46076   2.855   6.442  11.033 -0.1800 -1.2499  0.5143
  334MOL0     H46077   2.928   6.465  10.825  0.6428 -1.8356  0.0063
  334MOL0     H46078   3.348   6.626  10.565  1.4055 -0.3780 -1.2104
  334MOL0     H46079   3.411   6.669  10.340 -0.1481  2.2884 -0.7166
  334MOL0     H46080   3.436   6.692  10.141  3.6758  2.4489 -3.6705
  334MOL0     H46081   3.286   6.650  10.049 -2.3562 -1.3904  3.6550
  334MOL0     H46082   3.453   6.909  10.005 -0.9624 -0.0603  0.5630
  334MOL0     H46083   3.305   6.838   9.921 -1.2435 -1.9358  1.0923
  334MOL0     H46084   3.581   6.691   9.935 -2.3466 -1.6688  3.6832
  334MOL0     H46085   3.436   6.646   9.839 -0.2115  0.2809 -1.0079
  334MOL0     H46086   3.471   6.870   9.710  1.2717  2.1247  2.2451
  334MOL0     H46087   3.605   6.769   9.688 -1.6604 -2.3126  0.4707
  334MOL0     H46088   3.750   7.141   9.816 -2.5697  0.3640 -2.0849
  334MOL0     H46089   3.081   6.908  10.253 -0.3468 -3.0879 -2.5013
  334MOL0     H46090   2.985   6.956  10.605 -0.0956 -0.7289 -0.0611
  334MOL0     H46091   2.960   7.008  10.438  1.0325 -0.5199 -0.7112
  334MOL0     H46092   2.874   6.870  10.492  0.3805 -0.6161 -2.3437
  335MOL0     O46093   7.737   5.700   3.501 -0.7545 -0.8385  0.0163
  335MOL0     C46094   7.658   5.772   3.441 -0.5516  0.0770  0.0616
  335MOL0     O46095   7.619   5.757   3.306  0.3341 -0.4722 -0.5353
  335MOL0     C46096   7.698   5.696   3.208 -0.2039  0.1440 -0.7865
  335MOL0     C46097   7.662   5.565   3.167 -0.2888  0.2891  0.2578
  335MOL0     C46098   7.748   5.504   3.071  0.8955 -0.2869  0.3254
  335MOL0     C46099   7.872   5.559   3.026  0.7168  0.3647  0.0117
  335MOL0     O46100   7.961   5.504   2.937 -0.0646  0.0402 -0.0172
  335MOL0     C46101   7.931   5.371   2.891 -0.0375 -1.3301 -0.3384
  335MOL0     C46102   8.035   5.331   2.788 -0.2433 -0.0697  0.0106
  335MOL0     C46103   8.047   5.441   2.689  0.5826  0.7908  0.5357
  335MOL0     C46104   8.168   5.434   2.597  0.4688 -0.1162 -0.3288
  335MOL0     C46105   8.208   5.557   2.530  0.4139 -0.1695  0.0856
  335MOL0     C46106   8.353   5.586   2.526  0.8582  0.0662  0.1607
  335MOL0     C46107   8.394   5.704   2.436 -0.4224  0.0030 -0.1839
  335MOL0     C46108   8.386   5.697   2.282 -0.0087  0.0986 -0.0451
  335MOL0     N46109   8.448   5.569   2.232 -0.6577 -0.4656  0.3671
  335MOL0     C46110   8.379   5.474   2.175 -0.2375  0.4576  0.8376
  335MOL0     C46111   8.468   5.384   2.138  0.2296  0.9038 -0.0989
  335MOL0     C46112   8.445   5.263   2.042 -0.1739 -0.0259 -0.2155
  335MOL0     C46113   8.404   5.300   1.903  0.0366 -0.0493 -0.8038
  335MOL0     C46114   8.491   5.397   1.830 -0.3916 -0.6957 -0.0221
  335MOL0     C46115   8.643   5.360   1.817  1.0324 -0.9271 -0.7878
  335MOL0     O46116   8.668   5.252   1.731 -0.2126  0.7562  0.2096
  335MOL0     C46117   8.786   5.187   1.758 -0.2406  0.5838  0.0404
  335MOL0     C46118   8.896   5.253   1.708 -0.6803 -0.2886  0.2665
  335MOL0     C46119   9.021   5.210   1.749 -0.5427 -0.2504 -0.0169
  335MOL0     C46120   9.143   5.288   1.690  0.3091  0.0731  0.3700
  335MOL0     C46121   9.029   5.100   1.840 -0.1566 -0.6843 -0.3486
  335MOL0     C46122   9.160   5.036   1.880  0.1249  0.0689 -0.3684
  335MOL0     O46123   9.169   4.974   2.003  0.3059  0.0056 -0.4908
  335MOL0     C46124   9.268   4.887   2.049 -0.0556 -1.0756  0.4748
  335MOL0     C46125   9.366   4.824   1.970  0.5739  0.2680  0.4652
  335MOL0     C46126   9.459   4.741   2.031 -0.2033  0.1072  0.9502
  335MOL0     C46127   9.459   4.733   2.171 -0.3358 -0.6548  0.0183
  335MOL0     O46128   9.562   4.655   2.237  0.0296  1.3626 -0.1482
  335MOL0     C46129   9.528   4.542   2.313  0.5171 -0.7350  0.8052
  335MOL0     C46130   9.575   4.544   2.460 -0.3878 -0.0895 -0.8499
  335MOL0     C46131   9.508   4.424   2.544 -0.3118 -1.0383  0.4632
  335MOL0     C46132   9.512   4.440   2.692 -0.9043 -0.5806  0.6487
  335MOL0     C46133   9.489   4.305   2.757 -0.7492  0.2086 -0.4257
  335MOL0     C46134   9.493   4.319   2.910  0.0223  0.1526 -1.2694
  335MOL0     C46135   9.630   4.374   2.970 -0.3786  1.1713 -0.2046
  335MOL0     C46136   9.628   4.520   3.012 -0.1392 -1.4242 -0.2902
  335MOL0    Cl46137   9.791   4.577   3.043 -0.0513 -0.3241  0.4451
  335MOL0     C46138   9.372   4.795   2.246  0.3092  0.4205  0.0101
  335MOL0     C46139   9.261   4.861   2.185  0.7187 -0.1616  0.3020
  335MOL0     O46140   9.242   5.027   1.790 -0.0185 -0.3993  0.0394
  335MOL0     C46141   8.913   5.044   1.887  0.3463  0.1518  0.6292
  335MOL0     C46142   8.792   5.084   1.845  0.1593 -0.0953  0.6702
  335MOL0     N46143   8.590   5.424   2.188  0.3298 -0.2283 -0.7877
  335MOL0     N46144   8.578   5.541   2.244  0.2072 -0.1416 -0.0667
  335MOL0     C46145   7.906   5.690   3.071  0.5579  0.8894 -0.4962
  335MOL0     C46146   7.816   5.759   3.163 -0.0150  0.5216  0.2052
  335MOL0     C46147   7.577   5.865   3.528 -0.0799  0.1245  0.2712
  335MOL0     C46148   7.440   5.886   3.486 -0.7113  0.2963  0.9327
  335MOL0     C46149   7.364   5.991   3.536 -0.0636 -0.0985  0.2333
  335MOL0     C46150   7.409   6.064   3.646 -0.0528  0.9424 -0.3649
  335MOL0     O46151   7.346   6.170   3.710  0.5978  0.2362 -0.0948
  335MOL0     C46152   7.208   6.201   3.668  0.0782  0.6640  0.2825
  335MOL0     C46153   7.208   6.305   3.549  0.3139 -0.0397  0.2349
  335MOL0     C46154   7.226   6.454   3.592 -1.7768 -0.6021  0.2917
  335MOL0     C46155   7.121   6.503   3.690 -0.4484 -0.6935 -0.5042
  335MOL0     C46156   6.985   6.475   3.652  0.1739 -0.0720 -0.0865
  335MOL0     C46157   6.868   6.474   3.636  0.3184  0.0559  0.6016
  335MOL0     C46158   7.539   6.031   3.698  0.3813  0.0877 -0.1924
  335MOL0     C46159   7.625   5.937   3.641  0.9846  0.2290  1.1300
  335MOL0     C46160   7.761   5.922   3.691 -0.2810  0.7375  0.2360
  335MOL0     H46161   7.575   5.516   3.208 -1.4100  0.9757 -1.2288
  335MOL0     H46162   7.704   5.421   3.016  2.3281 -0.3878 -0.7151
  335MOL0     H46163   7.829   5.370   2.851 -1.5240 -2.4672  3.0825
  335MOL0     H46164   7.932   5.295   2.970  0.6040 -1.9211 -0.9000
  335MOL0     H46165   8.136   5.322   2.831  0.2704  3.2487 -0.3066
  335MOL0     H46166   8.012   5.232   2.747  1.3306  0.3241 -1.9440
  335MOL0     H46167   7.953   5.446   2.633  0.9182  0.3535 -0.0912
  335MOL0     H46168   8.049   5.544   2.725 -2.9127 -0.0051  3.5303
  335MOL0     H46169   8.249   5.389   2.655 -1.1232 -0.4987  1.6798
  335MOL0     H46170   8.148   5.353   2.526 -1.6853  0.5531 -0.5601
  335MOL0     H46171   8.175   5.656   2.563  0.4139  1.1641 -3.4558
  335MOL0     H46172   8.176   5.554   2.425  2.9791  0.9670 -0.8029
  335MOL0     H46173   8.400   5.604   2.623  0.1675 -3.0395  1.1633
  335MOL0     H46174   8.395   5.494   2.486 -1.3388 -1.9434  2.1695
  335MOL0     H46175   8.500   5.717   2.458 -0.4192 -0.8255  0.3400
  335MOL0     H46176   8.353   5.802   2.463  0.8386  0.1459  1.3317
  335MOL0     H46177   8.294   5.726   2.231  0.2263 -0.6112 -0.9030
  335MOL0     H46178   8.459   5.768   2.242  0.3028 -1.5743 -2.6925
  335MOL0     H46179   8.273   5.483   2.153 -0.5569  0.6024  2.3244
  335MOL0     H46180   8.367   5.200   2.085  0.1707  0.6256  1.4388
  335MOL0     H46181   8.535   5.201   2.036  2.5514  3.6632 -1.1812
  335MOL0     H46182   8.412   5.204   1.850  3.8591  0.8897 -2.2783
  335MOL0     H46183   8.303   5.341   1.898  0.0076  0.0804  0.4854
  335MOL0     H46184   8.460   5.400   1.725  2.9951  0.5832 -1.1270
  335MOL0     H46185   8.486   5.491   1.886  1.2945 -1.6325  1.8002
  335MOL0     H46186   8.699   5.448   1.785  0.5115 -1.3515 -3.0509
  335MOL0     H46187   8.686   5.346   1.917 -2.6396  0.1299  1.1255
  335MOL0     H46188   8.882   5.337   1.640 -0.4229 -2.7582 -3.1000
  335MOL0     H46189   9.164   5.256   1.587 -0.3768  0.5781  0.0620
  335MOL0     H46190   9.241   5.283   1.737  2.0353  3.4505 -2.4096
  335MOL0     H46191   9.119   5.391   1.663 -0.1563 -0.3608 -0.9493
  335MOL0     H46192   9.364   4.818   1.862  0.0204 -0.6672  0.5200
  335MOL0     H46193   9.532   4.699   1.962 -0.7987  0.6583 -0.0416
  335MOL0     H46194   9.418   4.533   2.312  0.4649 -0.0973  0.1187
  335MOL0     H46195   9.569   4.448   2.275 -0.1495 -2.1112  3.2037
  335MOL0     H46196   9.683   4.532   2.473 -0.5838 -0.2525  0.7366
  335MOL0     H46197   9.540   4.635   2.510  0.3452 -1.2197  1.9056
  335MOL0     H46198   9.575   4.343   2.514  1.3863  0.0658  1.1510
  335MOL0     H46199   9.401   4.410   2.524 -1.0798  3.1786  0.7484
  335MOL0     H46200   9.427   4.502   2.724 -1.0264 -1.8477  3.0131
  335MOL0     H46201   9.604   4.486   2.730 -1.6444  0.2724  1.4581
  335MOL0     H46202   9.386   4.273   2.739 -1.3009  2.1686 -0.9057
  335MOL0     H46203   9.554   4.226   2.717 -2.7746 -1.0629 -1.3333
  335MOL0     H46204   9.464   4.220   2.949  0.8748 -0.3721 -1.9558
  335MOL0     H46205   9.411   4.389   2.929  0.2927 -0.0651  1.0071
  335MOL0     H46206   9.705   4.370   2.891  0.0614  1.2971  0.2030
  335MOL0     H46207   9.661   4.313   3.056  1.0628 -1.1838 -2.2531
  335MOL0     H46208   9.574   4.529   3.106  1.2745  0.5332  0.4179
  335MOL0     H46209   9.589   4.582   2.930  2.2369  0.0602 -0.4114
  335MOL0     H46210   9.398   4.799   2.351  3.2403 -1.5304 -0.5176
  335MOL0     H46211   9.181   4.918   2.231  0.1665  0.1915 -1.0415
  335MOL0     H46212   8.911   4.974   1.969  1.7989  2.1656  2.5134
  335MOL0     H46213   8.702   5.041   1.887  2.8149 -1.9708  5.3128
  335MOL0     H46214   7.995   5.742   3.036  0.1449  0.2968 -2.5581
  335MOL0     H46215   7.831   5.854   3.215 -2.2059  0.7745  0.4514
  335MOL0     H46216   7.405   5.838   3.396 -0.2062  3.5227 -1.1290
  335MOL0     H46217   7.268   5.997   3.487  2.0085  1.4361 -4.1960
  335MOL0     H46218   7.154   6.113   3.633  1.3797 -0.5299  1.1613
  335MOL0     H46219   7.151   6.237   3.755 -0.3971 -0.4453  0.4504
  335MOL0     H46220   7.116   6.293   3.491  1.3785 -0.2623 -1.4764
  335MOL0     H46221   7.286   6.276   3.478 -0.0527 -0.7338  0.1006
  335MOL0     H46222   7.328   6.460   3.630 -1.4727 -0.1044 -0.5804
  335MOL0     H46223   7.214   6.498   3.493 -3.0299 -0.1377  0.6223
  335MOL0     H46224   7.145   6.609   3.698  3.0840 -1.5164  2.1158
  335MOL0     H46225   7.139   6.468   3.792  0.4968  1.5769  0.1695
  335MOL0     H46226   6.763   6.486   3.620 -0.1218 -3.7160 -0.2031
  335MOL0     H46227   7.567   6.080   3.791  0.4190 -0.5630  0.1457
  335MOL0     H46228   7.783   5.996   3.769 -0.3194 -0.9402  1.9003
  335MOL0     H46229   7.766   5.830   3.749  0.5740  0.2852 -0.5381
  335MOL0     H46230   7.843   5.922   3.619  0.3090 -0.5727  0.8659
  336MOL0     O46231   0.982   9.468   3.625 -0.2657 -0.7397  0.6207
  336MOL0     C46232   1.042   9.449   3.523  0.8479 -0.4704  0.8081
  336MOL0     O46233   1.168   9.480   3.503  0.4300 -0.2183  0.1197
  336MOL0     C46234   1.244   9.556   3.588 -0.7530 -0.0703 -1.1199
  336MOL0     C46235   1.263   9.538   3.718  1.0363  0.4212 -0.4385
  336MOL0     C46236   1.345   9.612   3.793 -0.1045  0.0086 -0.5783
  336MOL0     C46237   1.419   9.709   3.729  0.4793 -0.5490  0.8751
  336MOL0     O46238   1.503   9.800   3.786 -0.6765 -0.0999  0.2369
  336MOL0     C46239   1.569   9.751   3.901  0.2986  0.6989  0.1106
  336MOL0     C46240   1.652   9.870   3.950  0.4068 -0.6012 -0.2499
  336MOL0     C46241   1.568   9.994   3.971 -0.4790 -0.3593 -0.3249
  336MOL0     C46242   1.590  10.070   4.098 -0.1395  0.1313 -0.2891
  336MOL0     C46243   1.728  10.132   4.107 -0.2349 -0.7657  0.1807
  336MOL0     C46244   1.738  10.208   4.245  0.3793  0.0710 -0.2901
  336MOL0     C46245   1.886  10.255   4.267  0.6452 -0.2029 -0.3958
  336MOL0     C46246   1.882  10.341   4.399 -0.0958  0.6211 -0.3200
  336MOL0     N46247   1.991  10.437   4.418 -0.1233 -1.5123 -0.5103
  336MOL0     C46248   2.102  10.398   4.486 -0.4952 -0.1998 -0.1230
  336MOL0     C46249   2.132  10.510   4.550 -0.2614  0.3758 -0.2065
  336MOL0     C46250   2.273  10.531   4.602 -0.2983 -0.3126 -0.6452
  336MOL0     C46251   2.286  10.460   4.740 -0.4792 -0.5790  0.1249
  336MOL0     C46252   2.432  10.457   4.789  0.8752  0.1736 -0.0897
  336MOL0     C46253   2.525  10.374   4.700  0.4470  0.0822  0.1222
  336MOL0     O46254   2.643  10.342   4.765 -0.5064  0.0121  0.3217
  336MOL0     C46255   2.738  10.277   4.696 -0.3289 -0.1696 -0.0277
  336MOL0     C46256   2.765  10.289   4.559  0.8775 -0.3591 -0.8265
  336MOL0     C46257   2.872  10.222   4.502 -0.9571 -0.0045  1.2910
  336MOL0     C46258   2.873  10.217   4.359 -0.0567 -0.1703  1.1916
  336MOL0     C46259   2.966  10.154   4.582 -0.9552 -0.6091 -0.0547
  336MOL0     C46260   3.094  10.081   4.534  0.4130  0.4575 -0.4351
  336MOL0     O46261   3.099  10.037   4.414 -0.7648 -0.3466 -0.3369
  336MOL0     C46262   3.216   9.990   4.360 -0.7052  0.1249 -0.5861
  336MOL0     C46263   3.247   9.852   4.351  1.1775 -0.4829 -0.2086
  336MOL0     C46264   3.348   9.795   4.275 -0.2859  0.2881 -0.4917
  336MOL0     C46265   3.444   9.877   4.219  0.4961 -0.4570 -0.7110
  336MOL0     O46266   3.555   9.849   4.152  0.3334 -0.3761  0.0235
  336MOL0     C46267   3.585   9.706   4.144  0.8899 -0.2633  0.6083
  336MOL0     C46268   3.669   9.681   4.017  0.2188 -1.2046  0.7664
  336MOL0     C46269   3.814   9.725   4.028  0.3912 -0.4970  0.5255
  336MOL0     C46270   3.827   9.877   4.037 -0.0689  0.0238 -0.5445
  336MOL0     C46271   3.969   9.925   3.993 -0.2599 -0.3640  0.1745
  336MOL0     C46272   4.069   9.909   4.115 -0.5502  0.1161  1.1345
  336MOL0     C46273   4.202   9.972   4.075 -0.5520  0.2877  0.9990
  336MOL0     C46274   4.263  10.066   4.182 -0.8796 -0.4853 -0.0566
  336MOL0    Cl46275   4.403  10.164   4.109 -0.4050  0.5045  0.0795
  336MOL0     C46276   3.427  10.016   4.238 -0.4921  0.0382  0.1131
  336MOL0     C46277   3.320  10.072   4.309  0.3002 -0.5956  0.1953
  336MOL0     O46278   3.179  10.055   4.625 -0.1118 -0.7972 -0.5300
  336MOL0     C46279   2.945  10.176   4.723 -1.3711  0.2195  0.0261
  336MOL0     C46280   2.830  10.232   4.779  0.1117  0.2736 -0.2040
  336MOL0     N46281   2.050  10.613   4.522  0.2476 -1.1372 -0.0035
  336MOL0     N46282   1.966  10.567   4.444  0.6282 -0.5887 -0.0203
  336MOL0     C46283   1.408   9.730   3.589  0.2366 -0.7004 -0.1742
  336MOL0     C46284   1.322   9.654   3.522 -0.1866 -0.1883 -0.2837
  336MOL0     C46285   0.990   9.344   3.425 -0.3179  0.0969 -0.2554
  336MOL0     C46286   1.044   9.336   3.287 -0.1726  0.0814  0.2478
  336MOL0     C46287   0.990   9.247   3.190 -0.8630 -1.0278  0.2480
  336MOL0     C46288   0.899   9.158   3.221  0.7050  0.3887  0.1741
  336MOL0     O46289   0.843   9.060   3.150  0.9530 -0.2001 -0.0168
  336MOL0     C46290   0.909   9.003   3.038  0.8603 -0.2505  0.0249
  336MOL0     C46291   0.920   8.844   3.037  0.1047 -0.5494  0.4379
  336MOL0     C46292   0.985   8.800   2.910 -0.2024 -0.3130  0.4488
  336MOL0     C46293   0.993   8.652   2.902  0.5573 -0.1229  0.2648
  336MOL0     C46294   1.052   8.573   3.012 -0.5163  0.0097 -0.7153
  336MOL0     C46295   1.106   8.500   3.091 -0.3660  0.4253 -0.2955
  336MOL0     C46296   0.841   9.163   3.352 -0.4648 -0.0605  1.2073
  336MOL0     C46297   0.888   9.251   3.451 -0.4151 -1.0832  0.6608
  336MOL0     C46298   0.818   9.245   3.584  0.1407  0.0415  0.3825
  336MOL0     H46299   1.207   9.470   3.780 -1.1505  1.7298 -0.8842
  336MOL0     H46300   1.339   9.605   3.901 -3.3914  1.9310 -0.5002
  336MOL0     H46301   1.631   9.664   3.880 -2.3369 -1.3229  0.1224
  336MOL0     H46302   1.493   9.727   3.977 -1.7592  0.7636 -1.8265
  336MOL0     H46303   1.700   9.834   4.041 -0.2388 -1.2338 -0.1554
  336MOL0     H46304   1.733   9.882   3.877  0.9598 -0.8825  0.3130
  336MOL0     H46305   1.588  10.063   3.889 -2.0850  1.7988  0.9857
  336MOL0     H46306   1.461   9.969   3.962 -0.6719  0.1340  0.4521
  336MOL0     H46307   1.508  10.138   4.120  0.0149  1.3654 -3.0752
  336MOL0     H46308   1.574  10.000   4.180 -1.8841  3.2147  2.1702
  336MOL0     H46309   1.745  10.210   4.032 -0.0954  1.2489  2.1872
  336MOL0     H46310   1.809  10.060   4.110  0.2821 -0.2130 -0.3309
  336MOL0     H46311   1.664  10.288   4.244 -1.4006 -1.4484 -3.0090
  336MOL0     H46312   1.705  10.138   4.323  2.5597  0.6965  1.2952
  336MOL0     H46313   1.905  10.330   4.190 -2.3916  2.2015  0.9784
  336MOL0     H46314   1.969  10.183   4.258  0.8114 -0.2388  1.1212
  336MOL0     H46315   1.779  10.380   4.400 -0.3881  0.1432 -3.3712
  336MOL0     H46316   1.907  10.262   4.470  2.7284  2.2990  0.7119
  336MOL0     H46317   2.141  10.297   4.490  3.9458  1.2999 -0.2885
  336MOL0     H46318   2.315  10.631   4.614 -2.8010  0.9397 -1.4842
  336MOL0     H46319   2.342  10.493   4.526 -1.6149 -1.2160 -1.4299
  336MOL0     H46320   2.227  10.513   4.816  0.5917 -1.1072  1.3669
  336MOL0     H46321   2.252  10.357   4.733 -3.4295  0.2613  0.6481
  336MOL0     H46322   2.469  10.561   4.789  0.2008  0.4254 -1.1680
  336MOL0     H46323   2.438  10.418   4.891 -1.0918  1.7472  0.6937
  336MOL0     H46324   2.470  10.282   4.680  2.3927 -1.2778  0.7001
  336MOL0     H46325   2.533  10.426   4.604 -3.5702 -3.3548 -2.3910
  336MOL0     H46326   2.687  10.332   4.498  0.7123 -1.5241 -1.4621
  336MOL0     H46327   2.872  10.112   4.328  3.1819 -0.1517  0.7244
  336MOL0     H46328   2.974  10.249   4.331  0.5303 -0.4724  2.8659
  336MOL0     H46329   2.809  10.286   4.303 -1.0682 -1.1499  1.1010
  336MOL0     H46330   3.174   9.781   4.389  1.2167 -1.2899 -1.5529
  336MOL0     H46331   3.358   9.687   4.267 -1.5519 -0.0430  1.5531
  336MOL0     H46332   3.632   9.684   4.240  1.6201  0.2241  0.3698
  336MOL0     H46333   3.504   9.633   4.135  3.4317 -3.2873  0.7277
  336MOL0     H46334   3.672   9.575   3.989 -0.2877 -0.9541 -0.2870
  336MOL0     H46335   3.623   9.729   3.931  0.1543 -0.6708  1.0951
  336MOL0     H46336   3.845   9.686   3.931 -0.5360  0.0210  0.0087
  336MOL0     H46337   3.858   9.669   4.111 -1.3837 -2.4699  0.2086
  336MOL0     H46338   3.804   9.904   4.140 -3.4657 -0.6014 -1.0455
  336MOL0     H46339   3.747   9.923   3.978 -0.5380  2.9405  2.0916
  336MOL0     H46340   4.002   9.864   3.909 -0.9170 -0.3306 -0.1115
  336MOL0     H46341   3.954  10.030   3.964  2.9674  0.9710  2.6138
  336MOL0     H46342   4.069   9.800   4.123  0.8487 -0.6501 -4.5442
  336MOL0     H46343   4.018   9.972   4.188 -0.3418  3.4132 -1.2769
  336MOL0     H46344   4.190  10.036   3.987 -0.0171  1.4860  1.7765
  336MOL0     H46345   4.281   9.900   4.052 -3.4964 -3.0046  0.3591
  336MOL0     H46346   4.302  10.015   4.271  0.4692  3.4590  1.8420
  336MOL0     H46347   4.185  10.133   4.218  0.8921  1.3432  0.6377
  336MOL0     H46348   3.505  10.084   4.205  0.5719 -1.9381 -1.8079
  336MOL0     H46349   3.312  10.180   4.317 -0.9297 -0.5907 -0.7982
  336MOL0     H46350   3.011  10.126   4.793  0.3027  1.5321 -0.5454
  336MOL0     H46351   2.807  10.224   4.884  0.7881  0.2971 -0.0536
  336MOL0     H46352   1.470   9.806   3.544 -2.3584  0.6301 -1.7377
  336MOL0     H46353   1.300   9.667   3.416  2.2171 -0.0965 -0.8190
  336MOL0     H46354   1.121   9.410   3.265 -0.1251 -0.8899 -3.4323
  336MOL0     H46355   1.025   9.250   3.087 -1.7647  2.2623 -0.0568
  336MOL0     H46356   0.879   9.043   2.941  0.5249 -2.3947 -0.8242
  336MOL0     H46357   1.013   9.035   3.050  0.3290  2.8716 -2.4834
  336MOL0     H46358   0.830   8.783   3.042  0.6357 -1.3938 -0.1288
  336MOL0     H46359   0.981   8.811   3.122  3.7947 -2.0342 -2.5341
  336MOL0     H46360   0.937   8.841   2.821  0.8200  0.8269  0.3903
  336MOL0     H46361   1.084   8.846   2.901  0.4113 -0.7671  3.6343
  336MOL0     H46362   1.040   8.614   2.811 -0.2743 -1.6979  0.4709
  336MOL0     H46363   0.891   8.622   2.878  0.2740  1.0063  0.0057
  336MOL0     H46364   1.166   8.437   3.153 -0.9074 -1.0620 -1.2275
  336MOL0     H46365   0.778   9.076   3.369 -0.4532 -0.3194 -0.0162
  336MOL0     H46366   0.878   9.180   3.649 -1.5279  1.6970  3.8538
  336MOL0     H46367   0.790   9.335   3.639 -1.0613  0.9695 -1.6709
  336MOL0     H46368   0.720   9.203   3.562 -1.2668  3.7354 -1.1545
  337MOL0     O46369   4.275   8.399   9.356 -0.1828 -0.1277 -0.5599
  337MOL0     C46370   4.302   8.485   9.435 -0.9504 -0.7770  0.6409
  337MOL0     O46371   4.381   8.476   9.540  0.3032 -0.6600 -0.1938
  337MOL0     C46372   4.483   8.377   9.538  0.1794 -0.1594  0.3827
  337MOL0     C46373   4.515   8.285   9.440 -0.3955 -0.5695  0.7306
  337MOL0     C46374   4.610   8.185   9.461  0.1855  0.0718  0.1058
  337MOL0     C46375   4.678   8.161   9.577 -0.4857 -0.0142  0.2590
  337MOL0     O46376   4.792   8.079   9.592  0.6649 -0.6226 -0.4062
  337MOL0     C46377   4.784   7.959   9.667  0.7011  0.0958 -0.1237
  337MOL0     C46378   4.921   7.898   9.697 -0.9642  0.1272  1.0330
  337MOL0     C46379   5.007   7.874   9.573  0.5950 -0.5359  0.3042
  337MOL0     C46380   5.112   7.753   9.580  0.3625 -0.1285  0.1884
  337MOL0     C46381   5.205   7.751   9.455  0.2066  0.2532 -0.4205
  337MOL0     C46382   5.313   7.642   9.465 -0.2080  0.0965 -0.5932
  337MOL0     C46383   5.401   7.621   9.345 -0.5291  0.3237 -0.3982
  337MOL0     C46384   5.498   7.749   9.321 -0.0107 -0.0673  0.5716
  337MOL0     N46385   5.589   7.708   9.211  0.1786 -0.1559  0.3428
  337MOL0     C46386   5.715   7.668   9.235 -0.5800  0.8112  0.1232
  337MOL0     C46387   5.768   7.618   9.117  0.1728  0.5928 -0.1831
  337MOL0     C46388   5.900   7.547   9.100 -0.1366  0.5015  0.2937
  337MOL0     C46389   5.911   7.422   9.192 -0.3848 -1.4811  0.0933
  337MOL0     C46390   5.797   7.323   9.174 -1.0084 -0.9154  0.0264
  337MOL0     C46391   5.812   7.204   9.269 -0.1915  0.7747 -0.1423
  337MOL0     O46392   5.825   7.259   9.405 -0.0979  0.5281 -0.0849
  337MOL0     C46393   5.717   7.265   9.492 -0.4065 -0.2250  0.3567
  337MOL0     C46394   5.751   7.279   9.624 -0.2166  0.6992  0.6601
  337MOL0     C46395   5.656   7.296   9.735  0.3577 -0.0574  0.3284
  337MOL0     C46396   5.705   7.299   9.876 -0.0716 -0.1337 -0.3481
  337MOL0     C46397   5.519   7.295   9.702  0.3146  0.2435 -0.7452
  337MOL0     C46398   5.405   7.307   9.797  0.5982 -0.1724  0.7238
  337MOL0     O46399   5.280   7.287   9.741 -0.5882  0.7890  0.3143
  337MOL0     C46400   5.169   7.302   9.817 -0.5832  0.0994 -0.8863
  337MOL0     C46401   5.089   7.411   9.803  0.0143  0.5880  0.6040
  337MOL0     C46402   4.974   7.427   9.874 -0.2336 -0.8166  0.2362
  337MOL0     C46403   4.930   7.325   9.966  0.1165 -0.5789 -0.3612
  337MOL0     O46404   4.811   7.317  10.033  0.1944 -0.3883 -0.3554
  337MOL0     C46405   4.755   7.444  10.072 -0.6679 -0.0593 -0.4082
  337MOL0     C46406   4.684   7.429  10.200 -0.0067  0.7598  0.3211
  337MOL0     C46407   4.611   7.561  10.239 -0.7378  1.0511  0.0150
  337MOL0     C46408   4.514   7.554  10.362  0.1223 -0.3587  0.3434
  337MOL0     C46409   4.580   7.568  10.492 -0.1432 -0.0103  0.0325
  337MOL0     C46410   4.505   7.505  10.614 -0.3474  0.0697  0.5558
  337MOL0     C46411   4.360   7.538  10.613  1.1189 -0.2425  0.1126
  337MOL0     C46412   4.299   7.486  10.740 -0.2814  0.3599 -0.3165
  337MOL0    Cl46413   4.153   7.571  10.795 -0.2763 -0.2378  0.4316
  337MOL0     C46414   5.011   7.215   9.975  0.1106  0.4596  0.3843
  337MOL0     C46415   5.133   7.198   9.902  0.4263 -0.3432  0.0754
  337MOL0     O46416   5.425   7.344   9.916  0.1634  0.0347 -0.0019
  337MOL0     C46417   5.491   7.285   9.563  0.2075 -0.8875 -0.4447
  337MOL0     C46418   5.587   7.279   9.455  0.5752 -0.2161  0.2376
  337MOL0     N46419   5.657   7.626   9.030 -0.4029 -0.6011  0.3501
  337MOL0     N46420   5.556   7.683   9.090  0.5102  0.0285  0.0613
  337MOL0     C46421   4.648   8.259   9.679 -0.9158  0.2431 -0.5593
  337MOL0     C46422   4.553   8.370   9.658  0.1993 -0.1131 -0.6568
  337MOL0     C46423   4.203   8.595   9.438 -0.1800  0.2478  0.2843
  337MOL0     C46424   4.200   8.687   9.552 -0.0266 -0.0387 -0.0108
  337MOL0     C46425   4.099   8.788   9.554 -0.5697  0.0169  0.2457
  337MOL0     C46426   3.996   8.798   9.464 -1.3291  0.4949  0.4432
  337MOL0     O46427   3.894   8.882   9.468 -0.3783  0.1582  0.1547
  337MOL0     C46428   3.887   8.974   9.576  0.0175 -0.0523 -0.7884
  337MOL0     C46429   3.738   9.036   9.582 -0.0697 -0.1426 -0.5370
  337MOL0     C46430   3.649   8.939   9.667 -0.7574  0.1682  0.1490
  337MOL0     C46431   3.504   8.976   9.686  0.7059  0.6942 -1.0266
  337MOL0     C46432   3.499   9.101   9.768  1.1810  0.7661 -0.6036
  337MOL0     C46433   3.499   9.202   9.833  0.0677  0.2199 -0.4904
  337MOL0     C46434   4.002   8.717   9.351 -0.3975  0.5416  0.4665
  337MOL0     C46435   4.098   8.617   9.336 -0.2497 -0.4712 -0.9081
  337MOL0     C46436   4.087   8.530   9.212 -0.7690 -0.4028  0.3423
  337MOL0     H46437   4.471   8.281   9.341  1.2169 -0.1870 -0.0513
  337MOL0     H46438   4.635   8.122   9.377  2.9212  1.2320 -0.0539
  337MOL0     H46439   4.721   7.883   9.619 -0.2362  2.0178 -2.1362
  337MOL0     H46440   4.737   7.965   9.765  0.3869 -1.3598 -0.1539
  337MOL0     H46441   4.979   7.961   9.765  2.2227 -0.0310 -1.3154
  337MOL0     H46442   4.907   7.804   9.750 -0.2115 -0.7509 -0.2564
  337MOL0     H46443   4.933   7.852   9.495 -0.4967  1.5765  0.6613
  337MOL0     H46444   5.053   7.971   9.552  0.7610 -0.0152  2.8033
  337MOL0     H46445   5.178   7.747   9.667 -1.8078  1.4328  2.0605
  337MOL0     H46446   5.052   7.661   9.583  0.2628 -0.0766 -0.1789
  337MOL0     H46447   5.251   7.850   9.448  1.2958 -0.3176 -1.8454
  337MOL0     H46448   5.151   7.742   9.361  0.4313  2.6689 -0.8236
  337MOL0     H46449   5.369   7.661   9.557 -0.2423  0.9868 -0.7481
  337MOL0     H46450   5.262   7.549   9.492  0.2257  0.2945  1.0244
  337MOL0     H46451   5.343   7.580   9.262  2.0678 -3.4617 -0.6153
  337MOL0     H46452   5.459   7.535   9.381 -0.4869  1.5180  2.7536
  337MOL0     H46453   5.428   7.829   9.296  0.0775  0.0046  0.5552
  337MOL0     H46454   5.556   7.772   9.411 -1.0670  0.5483  1.1235
  337MOL0     H46455   5.759   7.674   9.334 -1.0368  3.8802  0.2654
  337MOL0     H46456   5.968   7.628   9.129 -0.0991  0.6717 -0.2689
  337MOL0     H46457   5.915   7.525   8.994  1.4393  3.2018 -0.1254
  337MOL0     H46458   6.010   7.384   9.167  0.5502  0.9351 -0.1564
  337MOL0     H46459   5.911   7.448   9.299  1.7020 -0.5230 -0.0873
  337MOL0     H46460   5.700   7.361   9.206 -1.0019 -3.2343  3.3489
  337MOL0     H46461   5.787   7.297   9.069 -1.6923 -3.9426  0.7440
  337MOL0     H46462   5.720   7.145   9.258  0.1288 -0.3199  2.3221
  337MOL0     H46463   5.887   7.133   9.235 -0.6798  0.7081 -1.0982
  337MOL0     H46464   5.853   7.299   9.655 -0.4414  0.2897  1.7124
  337MOL0     H46465   5.692   7.401   9.912 -3.5835  0.7889 -3.5884
  337MOL0     H46466   5.814   7.294   9.869  0.0029 -0.6459  0.9029
  337MOL0     H46467   5.667   7.223   9.944  2.0232 -0.9040  0.0540
  337MOL0     H46468   5.113   7.475   9.718 -2.1050 -1.4075 -1.6666
  337MOL0     H46469   4.911   7.513   9.854 -1.9803 -1.9115  0.8804
  337MOL0     H46470   4.830   7.524  10.081 -0.8010  0.1807 -1.3981
  337MOL0     H46471   4.683   7.484  10.000  1.1711  2.7217 -0.8661
  337MOL0     H46472   4.618   7.342  10.191  2.8028 -1.4477 -0.0266
  337MOL0     H46473   4.761   7.398  10.270 -0.3050 -0.5117  0.0964
  337MOL0     H46474   4.561   7.591  10.147  1.1301  1.4066 -0.9299
  337MOL0     H46475   4.686   7.640  10.246  0.6752 -0.2651  0.2596
  337MOL0     H46476   4.475   7.452  10.371 -0.5722  0.0789  3.2968
  337MOL0     H46477   4.448   7.639  10.344  2.0268  0.5563 -3.2002
  337MOL0     H46478   4.679   7.521  10.492 -1.2344 -2.5941  2.7266
  337MOL0     H46479   4.585   7.675  10.515 -0.4691  0.5148 -2.0726
  337MOL0     H46480   4.558   7.541  10.703 -4.6276  2.7815  2.3654
  337MOL0     H46481   4.523   7.397  10.614  1.3053  0.2636 -1.9008
  337MOL0     H46482   4.317   7.501  10.519 -0.9589 -2.5469  1.8642
  337MOL0     H46483   4.360   7.648  10.614  3.1109 -0.1773 -1.3419
  337MOL0     H46484   4.368   7.500  10.824 -0.7781 -1.4468  0.4295
  337MOL0     H46485   4.281   7.379  10.728 -0.5702  0.3262  0.3681
  337MOL0     H46486   4.970   7.132  10.032 -2.8959  0.6337 -1.3191
  337MOL0     H46487   5.186   7.104   9.901 -0.5181 -0.9438  1.8502
  337MOL0     H46488   5.389   7.300   9.529 -0.5074  0.5351  2.0360
  337MOL0     H46489   5.539   7.293   9.358 -5.6036  0.0674  2.8921
  337MOL0     H46490   4.703   8.242   9.771  1.4382  1.2210 -1.6733
  337MOL0     H46491   4.525   8.444   9.731  2.2039  0.5974 -0.5595
  337MOL0     H46492   4.282   8.684   9.624  0.6341  1.5773 -0.6432
  337MOL0     H46493   4.113   8.855   9.638  2.0515 -0.3436  0.1631
  337MOL0     H46494   3.897   8.919   9.669 -3.0788 -1.1683 -1.0030
  337MOL0     H46495   3.972   9.042   9.570  1.3953 -1.7379 -1.2322
  337MOL0     H46496   3.701   9.055   9.481  0.6179  2.9356 -0.2931
  337MOL0     H46497   3.741   9.129   9.639 -2.7590  0.1941 -0.8357
  337MOL0     H46498   3.650   8.838   9.625 -0.7058  0.0971  0.3215
  337MOL0     H46499   3.695   8.926   9.766 -6.7943 -2.5258  3.1665
  337MOL0     H46500   3.452   8.902   9.747  3.2132  3.0603  4.7653
  337MOL0     H46501   3.461   8.984   9.586  0.6817 -2.6923 -1.3903
  337MOL0     H46502   3.478   9.281   9.903 -0.1633 -0.7583  0.5760
  337MOL0     H46503   3.922   8.738   9.281 -1.2678  1.4578  1.6824
  337MOL0     H46504   4.009   8.565   9.144 -0.3848 -0.9171 -0.3792
  337MOL0     H46505   4.173   8.532   9.144 -0.5298  0.5750  0.6523
  337MOL0     H46506   4.078   8.425   9.240  3.6794 -0.8270  0.9320
  338MOL0     O46507   9.776   9.705   0.623 -0.5958  0.6416 -0.5188
  338MOL0     C46508   9.894   9.675   0.657  0.5402  0.6353  0.0866
  338MOL0     O46509  10.011   9.718   0.595  0.3904  0.3066  0.4848
  338MOL0     C46510   9.999   9.818   0.513  0.3834  0.0419  0.4890
  338MOL0     C46511  10.013   9.952   0.561 -0.3328 -0.3666 -0.5953
  338MOL0     C46512   9.997  10.060   0.472  0.4083 -0.1505  0.6349
  338MOL0     C46513   9.967  10.031   0.335 -0.1068  0.3804 -0.2525
  338MOL0     O46514   9.954  10.129   0.243  0.5585  0.1569 -0.1481
  338MOL0     C46515  10.071  10.210   0.207 -0.2619  1.3007 -0.1417
  338MOL0     C46516  10.177  10.124   0.122  0.5547  0.5212  0.0259
  338MOL0     C46517  10.136  10.093  -0.017 -0.8311 -0.4290 -0.0384
  338MOL0     C46518  10.144  10.217  -0.116  0.6917  0.1475 -0.6737
  338MOL0     C46519  10.112  10.207  -0.259 -0.5960  0.2584 -0.8460
  338MOL0     C46520  10.210  10.117  -0.343 -0.0176  0.2816  0.4665
  338MOL0     C46521  10.235  10.158  -0.487 -0.4688  0.3010 -0.5842
  338MOL0     C46522  10.342  10.072  -0.561 -0.5751  0.5792  0.1325
  338MOL0     N46523  10.328  10.093  -0.708  0.5193  0.8650 -0.4206
  338MOL0     C46524  10.274  10.002  -0.793  0.0711 -0.3942 -0.1392
  338MOL0     C46525  10.253  10.063  -0.908 -0.7742  0.1023  1.4800
  338MOL0     C46526  10.168  10.009  -1.029  0.1263  0.3118 -0.5843
  338MOL0     C46527  10.020  10.067  -1.018  0.5238  0.8769 -0.2885
  338MOL0     C46528   9.939  10.007  -0.902  0.3266 -1.1245  0.2884
  338MOL0     C46529   9.805  10.074  -0.864  0.3132 -0.1369 -0.4358
  338MOL0     O46530   9.722  10.095  -0.975  0.4893  0.3244  0.6385
  338MOL0     C46531   9.604  10.170  -0.959 -0.1467  0.6137  0.3284
  338MOL0     C46532   9.557  10.229  -0.840  0.2984 -0.2772 -1.2966
  338MOL0     C46533   9.429  10.284  -0.830 -0.2157 -0.1409 -0.2369
  338MOL0     C46534   9.379  10.330  -0.700  0.2650  0.3910 -0.5659
  338MOL0     C46535   9.348  10.291  -0.944 -0.3062  0.0985  0.2694
  338MOL0     C46536   9.217  10.353  -0.955  0.2043  0.0496 -0.8367
  338MOL0     O46537   9.197  10.455  -0.870 -0.4178  0.4152 -0.3888
  338MOL0     C46538   9.069  10.499  -0.848  0.6280  0.6488 -0.3817
  338MOL0     C46539   9.052  10.559  -0.724  0.1392 -0.0718 -0.2113
  338MOL0     C46540   8.923  10.589  -0.677 -0.2572  0.7838 -0.2448
  338MOL0     C46541   8.826  10.592  -0.770  0.1026 -0.5380  1.2336
  338MOL0     O46542   8.694  10.609  -0.730 -0.0609  0.3468 -0.3562
  338MOL0     C46543   8.664  10.670  -0.601  0.3166 -0.0284 -0.1134
  338MOL0     C46544   8.525  10.695  -0.565  0.1849 -0.2631 -0.2131
  338MOL0     C46545   8.455  10.561  -0.556 -0.2556  0.5414 -0.4933
  338MOL0     C46546   8.302  10.583  -0.545  0.5929 -0.1358  0.8244
  338MOL0     C46547   8.230  10.453  -0.549 -0.5250 -0.2525  0.0900
  338MOL0     C46548   8.076  10.482  -0.540 -1.4727 -0.1652  0.1916
  338MOL0     C46549   8.012  10.352  -0.546 -0.0377  0.3855  0.3121
  338MOL0     C46550   7.860  10.372  -0.528  0.1503 -0.4948 -0.1591
  338MOL0    Cl46551   7.795  10.205  -0.480  0.1448  0.0241  0.0786
  338MOL0     C46552   8.839  10.561  -0.905 -0.8884 -1.1518  1.0538
  338MOL0     C46553   8.960  10.509  -0.943  0.6473  0.0573 -0.6436
  338MOL0     O46554   9.139  10.309  -1.037  0.2005 -0.7302 -0.0036
  338MOL0     C46555   9.397  10.231  -1.068 -0.0316 -0.4411 -1.0979
  338MOL0     C46556   9.521  10.169  -1.073 -0.3596 -0.9358  0.0961
  338MOL0     N46557  10.299  10.190  -0.906  0.1268 -0.6689 -0.4318
  338MOL0     N46558  10.348  10.206  -0.785  0.3853  0.0347  0.3086
  338MOL0     C46559   9.957   9.895   0.285  1.2185  0.9224  0.0773
  338MOL0     C46560   9.984   9.787   0.373  0.2753 -0.4611 -0.4664
  338MOL0     C46561   9.890   9.558   0.758 -0.9955 -0.1774 -0.0663
  338MOL0     C46562   9.789   9.461   0.761  0.2425 -0.0477 -0.0185
  338MOL0     C46563   9.795   9.358   0.850 -0.0028  1.1803  0.4693
  338MOL0     C46564   9.895   9.340   0.944 -0.3049  0.4790  0.1025
  338MOL0     O46565   9.899   9.247   1.047  0.0424 -0.5556 -0.5777
  338MOL0     C46566   9.781   9.163   1.046 -0.3574 -0.2300 -0.6344
  338MOL0     C46567   9.795   9.045   1.155 -1.1637  0.1249  0.7687
  338MOL0     C46568   9.917   8.948   1.110  1.1391 -0.5825  0.0480
  338MOL0     C46569   9.913   8.810   1.173 -0.2620  1.1872  0.3145
  338MOL0     C46570  10.051   8.755   1.160  0.1427 -0.1830 -0.7321
  338MOL0     C46571  10.156   8.704   1.145  0.5646  0.4657  0.4180
  338MOL0     C46572   9.999   9.428   0.941 -0.9886  0.9343  0.4978
  338MOL0     C46573  10.000   9.536   0.852 -0.3354 -0.1390  0.0483
  338MOL0     C46574  10.115   9.629   0.862 -1.0791 -0.4390 -0.7537
  338MOL0     H46575  10.046   9.957   0.664  1.2865  0.5348 -1.1191
  338MOL0     H46576  10.008  10.164   0.499  1.5775  0.2331 -1.1660
  338MOL0     H46577  10.117  10.248   0.298  2.2804 -0.8740 -0.4145
  338MOL0     H46578  10.036  10.303   0.160 -0.2738  2.6273  2.3468
  338MOL0     H46579  10.280  10.160   0.126  1.7908 -2.8408  1.4775
  338MOL0     H46580  10.182  10.029   0.176  0.2900 -0.7399 -2.0731
  338MOL0     H46581  10.212  10.021  -0.048 -0.7024 -0.4556  0.3287
  338MOL0     H46582  10.044  10.035  -0.016 -1.5267  0.5373 -2.1064
  338MOL0     H46583  10.079  10.292  -0.070  0.8400  1.1493 -2.0474
  338MOL0     H46584  10.248  10.249  -0.113  1.5653 -2.4029  2.7927
  338MOL0     H46585  10.129  10.313  -0.279 -1.5350  1.2388  2.8507
  338MOL0     H46586  10.004  10.190  -0.268 -0.7359  1.4642 -1.6758
  338MOL0     H46587  10.308  10.128  -0.295  0.8994  2.0727 -1.6141
  338MOL0     H46588  10.181  10.012  -0.343  4.6454 -1.2304  0.6462
  338MOL0     H46589  10.281  10.256  -0.472  1.3752 -0.2988 -1.9514
  338MOL0     H46590  10.146  10.170  -0.549  0.5552  1.3206 -1.9384
  338MOL0     H46591  10.443  10.098  -0.528  0.0725 -1.9159  0.2986
  338MOL0     H46592  10.330   9.966  -0.537  0.4716  1.1867  4.2570
  338MOL0     H46593  10.230   9.907  -0.765 -1.8126  0.9167  1.7078
  338MOL0     H46594  10.171   9.901  -1.046  1.2200  0.2808 -0.2764
  338MOL0     H46595  10.212  10.047  -1.122  2.7265  0.2341  0.5328
  338MOL0     H46596  10.037  10.175  -1.011 -2.6909  1.4157  0.6353
  338MOL0     H46597   9.969  10.045  -1.113  0.6000  2.5763 -0.7598
  338MOL0     H46598   9.904   9.906  -0.925 -1.5306 -0.8949  1.9302
  338MOL0     H46599  10.001  10.004  -0.812  1.6696 -1.1109 -0.6048
  338MOL0     H46600   9.744  10.027  -0.786 -2.6882  2.3058 -1.1075
  338MOL0     H46601   9.825  10.166  -0.808  2.1221 -1.1740  0.7406
  338MOL0     H46602   9.611  10.209  -0.748 -2.8942  1.5147  1.2080
  338MOL0     H46603   9.366  10.438  -0.694  0.8355  0.4150  0.4444
  338MOL0     H46604   9.437  10.290  -0.616  0.3615  0.5733 -0.5473
  338MOL0     H46605   9.278  10.292  -0.684 -0.4687 -0.6280 -5.7363
  338MOL0     H46606   9.145  10.577  -0.670  0.3523  0.1078 -0.6358
  338MOL0     H46607   8.905  10.620  -0.575  1.1551 -1.3162  0.7032
  338MOL0     H46608   8.699  10.605  -0.519 -3.6612 -4.2720 -1.3372
  338MOL0     H46609   8.716  10.765  -0.591 -2.1486  1.7707 -2.8690
  338MOL0     H46610   8.520  10.741  -0.466  0.3229 -1.1334  0.2020
  338MOL0     H46611   8.482  10.758  -0.643 -0.2114 -1.0294 -0.6237
  338MOL0     H46612   8.497  10.512  -0.467  2.2906  0.6653 -1.5416
  338MOL0     H46613   8.477  10.497  -0.642 -2.5010 -2.9601  1.3015
  338MOL0     H46614   8.265  10.633  -0.635 -0.1258 -1.0406  0.5943
  338MOL0     H46615   8.264  10.635  -0.457  0.3579 -1.1825  1.3628
  338MOL0     H46616   8.240  10.417  -0.652  0.4614  0.2664 -0.0092
  338MOL0     H46617   8.266  10.381  -0.476 -0.6526  0.6409  1.0600
  338MOL0     H46618   8.049  10.526  -0.637  2.1206 -1.0167 -1.3620
  338MOL0     H46619   8.045  10.544  -0.454  0.5309 -1.0507  1.6313
  338MOL0     H46620   8.042  10.295  -0.457 -1.3919 -1.3820 -0.3087
  338MOL0     H46621   8.046  10.294  -0.632 -0.9581  0.0408  0.1661
  338MOL0     H46622   7.810  10.409  -0.617 -1.0660  1.9397  1.4247
  338MOL0     H46623   7.835  10.448  -0.453 -0.1833  1.7370 -2.4093
  338MOL0     H46624   8.768  10.590  -0.982  0.6123 -3.6415 -1.4208
  338MOL0     H46625   8.983  10.488  -1.047 -0.3777 -0.6614 -0.7449
  338MOL0     H46626   9.341  10.234  -1.161 -1.6914  0.4719 -0.1139
  338MOL0     H46627   9.546  10.109  -1.160 -0.3758  1.5479 -1.7138
  338MOL0     H46628   9.943   9.866   0.181  0.0040  1.0729  0.1862
  338MOL0     H46629   9.988   9.681   0.351  1.0133 -0.1523 -1.9849
  338MOL0     H46630   9.710   9.466   0.687  3.0642  0.1422 -3.3268
  338MOL0     H46631   9.715   9.286   0.832  0.7086  0.0928  1.4725
  338MOL0     H46632   9.698   9.232   1.064  1.3061  1.4185  1.2004
  338MOL0     H46633   9.780   9.102   0.955 -0.2714 -1.3904  0.1138
  338MOL0     H46634   9.705   8.986   1.171  0.5342 -1.9578  3.5085
  338MOL0     H46635   9.832   9.093   1.246 -0.9546 -0.4213  0.9773
  338MOL0     H46636   9.926   8.938   1.002 -3.1279 -4.1140 -0.2717
  338MOL0     H46637  10.004   9.001   1.149 -0.2941  2.4918 -0.5741
  338MOL0     H46638   9.841   8.755   1.112 -0.3384  1.8463 -0.2055
  338MOL0     H46639   9.881   8.801   1.278  1.4392  0.7302  0.8307
  338MOL0     H46640  10.244   8.644   1.137  2.0074  2.4137  1.1719
  338MOL0     H46641  10.077   9.423   1.017 -0.5109 -1.4699 -0.0662
  338MOL0     H46642  10.200   9.582   0.913 -1.8715  0.4463  1.5081
  338MOL0     H46643  10.153   9.652   0.762  2.1463  0.9262  0.6419
  338MOL0     H46644  10.089   9.719   0.918  2.3914  0.0142  0.3687
  339MOL0     O46645   1.208   3.918  11.601 -0.3295  0.2800 -1.1339
  339MOL0     C46646   1.254   3.861  11.501 -0.6398  0.1001 -0.1749
  339MOL0     O46647   1.338   3.913  11.416  0.7477  0.8243 -0.2374
  339MOL0     C46648   1.344   4.047  11.400  0.4058 -0.7718  0.1327
  339MOL0     C46649   1.469   4.115  11.437 -0.1032 -0.1804  0.5799
  339MOL0     C46650   1.479   4.246  11.397  0.0840 -0.5071 -0.6597
  339MOL0     C46651   1.374   4.327  11.346 -0.1862  0.6714 -0.1822
  339MOL0     O46652   1.389   4.455  11.321  0.3676  0.2992  0.1529
  339MOL0     C46653   1.462   4.481  11.195  0.7632 -0.3170 -0.2341
  339MOL0     C46654   1.455   4.630  11.165 -0.9582  0.0219 -0.8787
  339MOL0     C46655   1.319   4.684  11.147  0.7392  1.1671 -0.5172
  339MOL0     C46656   1.279   4.782  11.260 -0.9375 -0.2209  0.3217
  339MOL0     C46657   1.138   4.842  11.230  0.2555 -0.0158 -0.0259
  339MOL0     C46658   1.031   4.738  11.228 -0.2508  0.5375  0.5158
  339MOL0     C46659   0.891   4.804  11.227  0.1918 -0.4377  0.5141
  339MOL0     C46660   0.862   4.865  11.368 -0.3409  0.4076  0.1713
  339MOL0     N46661   0.718   4.874  11.399 -0.4478  0.1148  0.3098
  339MOL0     C46662   0.638   4.976  11.374  0.2096  0.4069 -0.2919
  339MOL0     C46663   0.513   4.935  11.390  0.3365 -0.7357 -0.5014
  339MOL0     C46664   0.379   5.001  11.363 -0.0794  0.4348 -0.2378
  339MOL0     C46665   0.263   4.914  11.389  0.4862 -1.2234 -0.6317
  339MOL0     C46666   0.238   4.899  11.543  0.0807 -0.0415 -0.1554
  339MOL0     C46667   0.208   5.033  11.614  0.7205  0.5879 -0.1752
  339MOL0     O46668   0.167   5.018  11.760  0.3057 -0.0270  0.7209
  339MOL0     C46669   0.263   4.996  11.855  0.0116 -0.3503  0.0363
  339MOL0     C46670   0.235   5.004  11.993 -0.5517 -1.0922  0.6875
  339MOL0     C46671   0.329   5.000  12.099  0.0901 -1.1590  0.0916
  339MOL0     C46672   0.271   5.033  12.227  0.0235  0.2248  0.1971
  339MOL0     C46673   0.458   4.988  12.069 -0.1515 -0.1770  0.9544
  339MOL0     C46674   0.568   4.967  12.169  0.5025  0.4333  0.3096
  339MOL0     O46675   0.690   4.989  12.116  0.5243  0.3595 -0.5067
  339MOL0     C46676   0.798   4.980  12.190 -0.0017  0.3684  0.0231
  339MOL0     C46677   0.827   4.878  12.280 -0.1930  0.8338  0.3590
  339MOL0     C46678   0.950   4.857  12.339  0.0084  0.7767 -0.5142
  339MOL0     C46679   1.054   4.943  12.318 -0.8171  0.2069  0.3471
  339MOL0     O46680   1.165   4.922  12.397  0.5414  0.4343  0.2076
  339MOL0     C46681   1.272   5.011  12.383 -0.3959 -0.0835  0.6098
  339MOL0     C46682   1.363   4.993  12.262 -0.2939 -0.1499 -0.4666
  339MOL0     C46683   1.454   5.111  12.229 -0.4637 -0.1638  0.1046
  339MOL0     C46684   1.371   5.246  12.176 -0.5745  0.7679 -0.5294
  339MOL0     C46685   1.454   5.356  12.102 -1.0544 -0.0582 -0.2549
  339MOL0     C46686   1.367   5.475  12.051 -0.1631  0.3682  0.4111
  339MOL0     C46687   1.446   5.584  11.976  1.5217  0.3084  0.4675
  339MOL0     C46688   1.350   5.702  11.951 -0.1932 -0.0553  1.0973
  339MOL0    Cl46689   1.194   5.633  11.881 -0.6036 -0.0266  0.1959
  339MOL0     C46690   1.037   5.035  12.212 -0.3184 -0.1221 -0.0266
  339MOL0     C46691   0.911   5.053  12.156 -1.0071 -0.5200  0.5931
  339MOL0     O46692   0.541   4.920  12.276  0.6777 -0.6967  1.0084
  339MOL0     C46693   0.495   4.974  11.932  0.0037  0.0560  0.0196
  339MOL0     C46694   0.405   4.988  11.825  0.6322  1.0863 -0.2778
  339MOL0     N46695   0.519   4.806  11.432 -0.0926 -0.2824 -0.4394
  339MOL0     N46696   0.644   4.767  11.442  0.0280 -0.1286 -0.2594
  339MOL0     C46697   1.248   4.264  11.308 -0.5969 -0.2566 -0.4691
  339MOL0     C46698   1.242   4.124  11.332 -0.1927 -0.1161  0.9365
  339MOL0     C46699   1.238   3.714  11.488  0.1030  0.3893 -0.1276
  339MOL0     C46700   1.111   3.661  11.505  0.1119 -0.0616 -1.1841
  339MOL0     C46701   1.092   3.524  11.501 -0.0576  0.3396 -0.6295
  339MOL0     C46702   1.195   3.434  11.492 -1.1190 -1.0816  0.7711
  339MOL0     O46703   1.158   3.306  11.493  0.0748 -0.6483 -0.1575
  339MOL0     C46704   1.259   3.205  11.478 -0.5858  0.9433  1.1286
  339MOL0     C46705   1.210   3.057  11.478 -0.5406 -0.0780 -0.1962
  339MOL0     C46706   1.139   3.011  11.614 -0.1778  0.3958  0.1606
  339MOL0     C46707   1.138   2.865  11.643 -0.6073 -0.2543  0.0417
  339MOL0     C46708   1.027   2.789  11.588  0.4088  0.4910  0.1619
  339MOL0     C46709   0.918   2.739  11.546  0.2378 -0.7910 -0.4577
  339MOL0     C46710   1.326   3.486  11.496 -0.7644 -0.1790 -1.2703
  339MOL0     C46711   1.343   3.626  11.483 -1.4491 -0.7290 -0.2251
  339MOL0     C46712   1.479   3.683  11.510  0.0926 -0.0403  0.8450
  339MOL0     H46713   1.550   4.062  11.486  1.1650  0.2418 -0.9771
  339MOL0     H46714   1.578   4.289  11.407  0.3332 -1.4542  1.4982
  339MOL0     H46715   1.420   4.426  11.110 -0.0909  0.5006 -0.3661
  339MOL0     H46716   1.566   4.450  11.206  0.7287 -0.8150 -1.2162
  339MOL0     H46717   1.507   4.696  11.235 -0.7343  0.4491 -1.4389
  339MOL0     H46718   1.505   4.638  11.068  1.2667  2.0860  0.3238
  339MOL0     H46719   1.305   4.732  11.050  1.4849  1.3352 -0.5474
  339MOL0     H46720   1.244   4.606  11.164  0.8998  1.2738  0.7802
  339MOL0     H46721   1.268   4.743  11.361 -0.9476  0.6098  0.6489
  339MOL0     H46722   1.355   4.861  11.256 -0.1793 -0.9098  0.8667
  339MOL0     H46723   1.123   4.903  11.140  2.2403  0.8349  0.1656
  339MOL0     H46724   1.112   4.914  11.308  2.6858 -1.3708  2.2094
  339MOL0     H46725   1.042   4.673  11.140  1.3654 -0.6026  1.5009
  339MOL0     H46726   1.034   4.675  11.318 -1.5364  0.9787  0.8870
  339MOL0     H46727   0.819   4.723  11.211 -0.1240 -0.0451 -0.0869
  339MOL0     H46728   0.883   4.876  11.145 -1.8791 -1.2462 -0.0414
  339MOL0     H46729   0.912   4.798  11.439  2.5735 -1.3268 -3.2449
  339MOL0     H46730   0.907   4.965  11.369  0.5564  0.0119 -0.4506
  339MOL0     H46731   0.675   5.075  11.349  1.4988 -0.2968 -1.3481
  339MOL0     H46732   0.376   5.029  11.257 -1.0430  0.4184 -0.2206
  339MOL0     H46733   0.368   5.095  11.416  0.2605  0.4644 -0.2213
  339MOL0     H46734   0.174   4.959  11.344  1.3070  0.4382 -0.6667
  339MOL0     H46735   0.265   4.817  11.338  0.7534 -0.2112 -2.6865
  339MOL0     H46736   0.149   4.839  11.564  0.3375 -0.3607  0.0310
  339MOL0     H46737   0.323   4.842  11.583 -0.1150 -0.1208  0.1507
  339MOL0     H46738   0.292   5.103  11.601  0.7610  0.0696 -3.5561
  339MOL0     H46739   0.119   5.074  11.565  0.3940  3.1003  2.2421
  339MOL0     H46740   0.130   5.018  12.014 -0.2307  1.0795  1.0768
  339MOL0     H46741   0.332   5.102  12.285 -0.8692 -0.1897  1.6664
  339MOL0     H46742   0.261   4.936  12.278  3.0935  0.5246  1.5483
  339MOL0     H46743   0.170   5.073  12.214 -0.5540 -0.2363  2.7787
  339MOL0     H46744   0.759   4.798  12.310  1.2748 -2.0257 -3.2159
  339MOL0     H46745   0.961   4.777  12.411  0.6217  3.6876  2.9410
  339MOL0     H46746   1.231   5.112  12.387 -0.5155 -0.1565  2.2659
  339MOL0     H46747   1.326   5.003  12.478 -2.9695  0.6674  2.2315
  339MOL0     H46748   1.424   4.903  12.270  0.0775  0.0594 -0.9204
  339MOL0     H46749   1.303   4.981  12.171 -1.9755 -2.7588  0.8578
  339MOL0     H46750   1.527   5.070  12.158 -1.2264  1.4895 -1.7400
  339MOL0     H46751   1.491   5.146  12.325 -0.3889 -1.3499  0.5228
  339MOL0     H46752   1.308   5.284  12.257 -2.1356  2.4561 -2.4262
  339MOL0     H46753   1.290   5.232  12.104 -0.3634 -0.8734 -0.4886
  339MOL0     H46754   1.546   5.388  12.152 -1.1616  0.7858 -0.5864
  339MOL0     H46755   1.485   5.309  12.008  2.1451 -2.1279  1.6484
  339MOL0     H46756   1.331   5.523  12.143  0.4795  0.4365  0.6333
  339MOL0     H46757   1.287   5.427  11.994  0.4772  0.1903 -0.3488
  339MOL0     H46758   1.481   5.552  11.877 -0.3487  0.5734 -0.3213
  339MOL0     H46759   1.530   5.620  12.036 -0.4231  0.9712  2.9194
  339MOL0     H46760   1.388   5.766  11.871 -4.0501  0.7877 -0.2828
  339MOL0     H46761   1.337   5.753  12.047  2.3779 -3.6534  3.6080
  339MOL0     H46762   1.118   5.100  12.179 -1.1409  0.3206 -1.2585
  339MOL0     H46763   0.901   5.119  12.071 -1.0118  0.8477  1.6280
  339MOL0     H46764   0.593   4.948  11.893  0.5147  3.3632 -1.2635
  339MOL0     H46765   0.439   4.970  11.724  1.4666 -2.6105  0.5222
  339MOL0     H46766   1.174   4.330  11.262  1.4777  1.7970 -1.1024
  339MOL0     H46767   1.154   4.065  11.306  0.6506 -2.5662  3.2625
  339MOL0     H46768   1.028   3.727  11.529 -0.0711 -1.1213  1.4699
  339MOL0     H46769   0.995   3.476  11.510  0.2582 -0.1649  0.2241
  339MOL0     H46770   1.313   3.227  11.385  1.3132 -0.7753  1.7645
  339MOL0     H46771   1.329   3.216  11.561  2.2425  1.4218 -1.1214
  339MOL0     H46772   1.295   2.994  11.453  0.3842  1.2251 -0.4487
  339MOL0     H46773   1.131   3.052  11.402 -0.6288 -2.9401 -0.0136
  339MOL0     H46774   1.197   3.053  11.697 -1.2821 -3.6977  3.3949
  339MOL0     H46775   1.042   3.060  11.627 -1.7153 -1.4410 -2.9890
  339MOL0     H46776   1.142   2.851  11.751 -3.5099 -0.8353  0.1523
  339MOL0     H46777   1.229   2.823  11.598 -0.3649  0.7582 -0.4432
  339MOL0     H46778   0.826   2.706  11.502 -0.8741 -0.2783  1.3241
  339MOL0     H46779   1.412   3.422  11.511 -1.7112 -1.2887 -0.3032
  339MOL0     H46780   1.475   3.740  11.603  1.0954  2.4094 -0.4898
  339MOL0     H46781   1.555   3.604  11.514 -1.3939 -1.7886 -2.0853
  339MOL0     H46782   1.513   3.755  11.435 -0.6212 -0.4152  0.1535
  340MOL0     O46783   7.036   8.162   3.676 -0.0708  0.4869 -0.7203
  340MOL0     C46784   6.963   8.073   3.711  1.0279  0.7948 -0.0762
  340MOL0     O46785   6.994   7.945   3.698  0.0288  1.1131  0.2517
  340MOL0     C46786   7.100   7.907   3.626 -0.1912  0.4780  0.3603
  340MOL0     C46787   7.197   7.835   3.694 -0.2478  0.2533 -0.1952
  340MOL0     C46788   7.310   7.788   3.630 -0.2122 -0.7081 -0.2968
  340MOL0     C46789   7.316   7.797   3.494  0.0695  0.2845 -0.0956
  340MOL0     O46790   7.428   7.754   3.436  0.1015 -0.1988 -0.0680
  340MOL0     C46791   7.419   7.638   3.343  0.2397 -0.2255 -0.0988
  340MOL0     C46792   7.569   7.592   3.322  0.4965 -0.7208 -1.2498
  340MOL0     C46793   7.591   7.565   3.178 -0.0544  0.2351  0.5902
  340MOL0     C46794   7.741   7.563   3.141  0.0289 -0.3138  0.3207
  340MOL0     C46795   7.758   7.638   3.015  0.6104 -0.6439 -1.1175
  340MOL0     C46796   7.894   7.593   2.959  0.1636  0.9931 -0.3659
  340MOL0     C46797   8.022   7.665   3.012  0.7048 -0.1967 -0.1022
  340MOL0     C46798   8.003   7.814   2.987 -0.1117 -1.8058 -0.2847
  340MOL0     N46799   8.126   7.879   3.044  0.0450 -0.0344 -0.1800
  340MOL0     C46800   8.252   7.872   2.988  1.7550 -0.4605  0.1309
  340MOL0     C46801   8.329   7.917   3.086 -0.4382 -0.6890  0.3202
  340MOL0     C46802   8.478   7.949   3.090  0.6695  0.3982  0.2725
  340MOL0     C46803   8.547   7.870   3.199 -0.1602 -0.3693 -0.0148
  340MOL0     C46804   8.566   7.972   3.322  0.6740  0.1402 -0.3194
  340MOL0     C46805   8.573   7.898   3.448  0.6511  0.2175 -0.5967
  340MOL0     O46806   8.627   7.968   3.565  0.3302 -0.7355 -0.2145
  340MOL0     C46807   8.549   8.022   3.664  0.7416  0.2532  0.2357
  340MOL0     C46808   8.613   8.124   3.738  0.5097 -0.3140  0.0281
  340MOL0     C46809   8.553   8.187   3.846  0.3805  0.3602 -0.8229
  340MOL0     C46810   8.625   8.288   3.932  0.4976  0.7114  0.0317
  340MOL0     C46811   8.425   8.135   3.885 -0.1088 -0.4081 -0.4732
  340MOL0     C46812   8.358   8.199   4.003  0.2656  0.3481 -0.0738
  340MOL0     O46813   8.305   8.326   3.987  0.3968 -0.2226 -0.6682
  340MOL0     C46814   8.257   8.377   4.105  0.3139  0.5724 -0.1684
  340MOL0     C46815   8.325   8.469   4.179  0.6820 -0.6233 -0.1061
  340MOL0     C46816   8.283   8.500   4.310 -0.8151 -0.2573 -0.6158
  340MOL0     C46817   8.161   8.455   4.362  0.1700 -0.4598 -1.2862
  340MOL0     O46818   8.117   8.498   4.484  0.0322 -0.6531 -0.0262
  340MOL0     C46819   7.978   8.521   4.520  1.1955 -0.2193 -0.3927
  340MOL0     C46820   7.904   8.613   4.421  0.4759 -0.8084  0.9067
  340MOL0     C46821   7.749   8.612   4.435 -0.5369  0.8537 -0.2586
  340MOL0     C46822   7.684   8.730   4.355 -0.4456 -0.2351 -0.7910
  340MOL0     C46823   7.723   8.868   4.397 -0.2711 -0.4850 -0.0358
  340MOL0     C46824   7.633   8.989   4.346 -0.4465 -0.3719 -0.6471
  340MOL0     C46825   7.677   9.118   4.415  0.1848 -0.4949 -0.6611
  340MOL0     C46826   7.599   9.237   4.358  0.3390  0.9430 -0.9896
  340MOL0    Cl46827   7.595   9.372   4.469 -0.0353  0.0630 -0.1718
  340MOL0     C46828   8.087   8.371   4.277  0.1277 -0.4838 -1.2267
  340MOL0     C46829   8.135   8.340   4.155 -0.0669 -0.5574 -0.2887
  340MOL0     O46830   8.343   8.121   4.096 -0.4311  0.3390  0.6991
  340MOL0     C46831   8.369   8.022   3.824 -0.1696 -0.0797  0.2061
  340MOL0     C46832   8.428   7.971   3.708 -0.3454 -0.3796  0.3296
  340MOL0     N46833   8.257   7.940   3.207  0.7428  1.0030 -0.6476
  340MOL0     N46834   8.131   7.917   3.174  0.4983 -0.3835  0.5653
  340MOL0     C46835   7.221   7.870   3.415  1.4047 -0.2330 -0.2793
  340MOL0     C46836   7.111   7.925   3.484  0.6947  0.2697 -1.2585
  340MOL0     C46837   6.836   8.116   3.793 -0.4961  0.2668  0.0387
  340MOL0     C46838   6.770   8.013   3.858  0.7260 -1.1053  0.3480
  340MOL0     C46839   6.637   8.032   3.910  1.0459 -0.2711  0.2737
  340MOL0     C46840   6.586   8.165   3.916  0.1630 -0.0444  0.3348
  340MOL0     O46841   6.465   8.191   3.979 -0.7409  0.0174 -0.2550
  340MOL0     C46842   6.387   8.076   4.010  1.0906 -1.5845  0.1792
  340MOL0     C46843   6.234   8.124   4.021 -0.4843  0.0585  0.6216
  340MOL0     C46844   6.217   8.223   4.136 -0.0007 -0.1220 -0.4900
  340MOL0     C46845   6.075   8.267   4.155 -0.7669 -0.1244 -0.6385
  340MOL0     C46846   6.061   8.385   4.073  0.0935  1.0960 -0.1907
  340MOL0     C46847   6.037   8.487   4.004 -0.0598 -0.3684  0.6157
  340MOL0     C46848   6.663   8.266   3.866  0.2156  0.2211  0.0930
  340MOL0     C46849   6.781   8.246   3.794 -0.2366  0.2872  0.5671
  340MOL0     C46850   6.848   8.368   3.728 -0.0453  0.3003 -0.3151
  340MOL0     H46851   7.198   7.831   3.803 -0.1188  0.6037 -0.1819
  340MOL0     H46852   7.397   7.751   3.684  1.1747  1.1461 -1.1180
  340MOL0     H46853   7.362   7.672   3.256  0.0080 -1.7389 -0.5555
  340MOL0     H46854   7.362   7.555   3.386 -0.8961  1.1766  1.2092
  340MOL0     H46855   7.639   7.657   3.377 -1.3141 -0.3150  0.6854
  340MOL0     H46856   7.568   7.496   3.374 -3.3250  0.7002  1.7539
  340MOL0     H46857   7.547   7.471   3.145  3.1026 -1.5835  1.1190
  340MOL0     H46858   7.545   7.641   3.114 -1.7521  0.5972  2.1505
  340MOL0     H46859   7.788   7.609   3.228 -6.9662  0.4792  4.4654
  340MOL0     H46860   7.760   7.456   3.129 -0.9278 -0.3346 -1.2293
  340MOL0     H46861   7.749   7.745   3.037  0.2620 -0.6166 -1.3782
  340MOL0     H46862   7.674   7.617   2.948 -1.7895 -0.3455  1.6085
  340MOL0     H46863   7.904   7.487   2.980  2.7118  1.0245 -1.0538
  340MOL0     H46864   7.892   7.604   2.850  1.2907 -1.3132 -0.6706
  340MOL0     H46865   8.101   7.641   2.940  0.5543 -0.6224 -0.1242
  340MOL0     H46866   8.044   7.641   3.117 -3.3661  1.2450  1.2560
  340MOL0     H46867   7.995   7.823   2.878 -0.2866  0.5367 -0.1149
  340MOL0     H46868   7.918   7.864   3.035  1.4207 -1.0171  1.7419
  340MOL0     H46869   8.280   7.840   2.888  0.3040  0.5489 -0.6438
  340MOL0     H46870   8.483   8.058   3.092 -0.5933  0.6110 -3.0223
  340MOL0     H46871   8.519   7.927   2.991 -0.8527  2.9476 -1.0429
  340MOL0     H46872   8.489   7.780   3.221 -1.7274 -0.3132 -3.2592
  340MOL0     H46873   8.647   7.856   3.156  1.6108  2.8890  2.6104
  340MOL0     H46874   8.654   8.033   3.300 -2.5050  4.6381 -2.0002
  340MOL0     H46875   8.480   8.038   3.336 -0.5945 -1.3392 -0.9597
  340MOL0     H46876   8.471   7.870   3.476  1.4719 -0.8718  1.4869
  340MOL0     H46877   8.628   7.805   3.440  0.9145  0.3999 -0.9223
  340MOL0     H46878   8.716   8.142   3.708  0.6427 -2.5231 -1.0053
  340MOL0     H46879   8.645   8.240   4.028 -2.5325 -0.9595 -0.0546
  340MOL0     H46880   8.558   8.371   3.958  2.3017  2.6206 -1.1083
  340MOL0     H46881   8.710   8.339   3.885 -0.3689  0.4402 -1.9242
  340MOL0     H46882   8.420   8.513   4.149  0.1573  1.5000  1.1397
  340MOL0     H46883   8.357   8.559   4.363 -0.3940 -1.1030 -0.2379
  340MOL0     H46884   7.920   8.428   4.512 -0.0667  0.6365 -1.6005
  340MOL0     H46885   7.979   8.560   4.622  3.5029 -2.3379  0.5206
  340MOL0     H46886   7.951   8.711   4.434 -0.2895  0.0297 -2.0367
  340MOL0     H46887   7.928   8.590   4.317 -0.3461 -0.6821  0.6842
  340MOL0     H46888   7.740   8.627   4.543  2.9531 -1.6680  0.5750
  340MOL0     H46889   7.717   8.517   4.390  0.7355  1.6519 -3.1021
  340MOL0     H46890   7.575   8.726   4.343 -0.4482  0.7850 -1.1354
  340MOL0     H46891   7.721   8.709   4.254 -0.8521 -2.7566 -0.4855
  340MOL0     H46892   7.706   8.860   4.504 -3.3651 -2.5274 -0.5482
  340MOL0     H46893   7.825   8.890   4.365 -0.8482 -0.7567 -2.2181
  340MOL0     H46894   7.529   8.974   4.379 -0.3745  2.5927  1.3281
  340MOL0     H46895   7.628   8.997   4.237  0.0657  3.6430 -0.5431
  340MOL0     H46896   7.785   9.117   4.393  0.6687 -0.9403  1.4831
  340MOL0     H46897   7.657   9.104   4.521 -1.1302  2.9349 -0.3379
  340MOL0     H46898   7.498   9.202   4.334  0.2673 -0.6192  1.2855
  340MOL0     H46899   7.647   9.271   4.266 -1.2902  3.0642 -1.1357
  340MOL0     H46900   7.987   8.340   4.304  0.5136  0.2908  1.3085
  340MOL0     H46901   8.069   8.278   4.096 -1.0291 -0.4090  0.5876
  340MOL0     H46902   8.273   7.987   3.860 -3.3957  1.9162 -5.1661
  340MOL0     H46903   8.387   7.886   3.654  4.9918 -1.9700 -1.8625
  340MOL0     H46904   7.226   7.878   3.307  0.5911  3.4045 -0.1791
  340MOL0     H46905   7.036   7.989   3.439  0.6693  0.5435 -0.8216
  340MOL0     H46906   6.813   7.913   3.863 -1.7371 -2.3307 -0.9930
  340MOL0     H46907   6.596   7.950   3.968  0.3517 -1.3090 -1.5902
  340MOL0     H46908   6.390   8.007   3.926  0.5260  0.1997 -1.3655
  340MOL0     H46909   6.427   8.017   4.093  2.1597  0.1946  1.0024
  340MOL0     H46910   6.172   8.035   4.038 -1.1759  0.2771 -0.5944
  340MOL0     H46911   6.213   8.169   3.924 -0.6470 -0.5127  0.3829
  340MOL0     H46912   6.249   8.172   4.227 -2.4867  1.0932  1.1874
  340MOL0     H46913   6.286   8.307   4.130  3.8187 -2.9002  1.0675
  340MOL0     H46914   6.061   8.284   4.262  1.6778  5.1498 -0.8238
  340MOL0     H46915   5.999   8.196   4.122 -2.9657  0.7817  2.0795
  340MOL0     H46916   6.014   8.573   3.944  1.8171  1.2447  2.0866
  340MOL0     H46917   6.625   8.367   3.882  0.4005  0.2984  0.0498
  340MOL0     H46918   6.892   8.354   3.629 -0.6361 -2.6066 -0.2348
  340MOL0     H46919   6.759   8.432   3.714 -1.7054 -1.0915  2.7607
  340MOL0     H46920   6.914   8.418   3.800  0.0949 -0.0530 -0.1951
  341MOL0     O46921   2.351   3.972   7.924  0.8561  0.8126  0.4023
  341MOL0     C46922   2.273   3.969   8.017  0.9519  0.7760  0.2428
  341MOL0     O46923   2.283   4.029   8.139  0.1447  0.3519 -0.2172
  341MOL0     C46924   2.388   4.115   8.182 -1.0864 -0.4308 -0.2034
  341MOL0     C46925   2.379   4.149   8.315 -0.7117 -0.5079  0.2234
  341MOL0     C46926   2.486   4.211   8.376  0.3916  0.1759  0.2010
  341MOL0     C46927   2.599   4.261   8.305  0.1117  0.1599 -0.9739
  341MOL0     O46928   2.689   4.327   8.386  0.4857 -0.0401  0.3496
  341MOL0     C46929   2.813   4.364   8.325 -0.7764  0.5046  0.1423
  341MOL0     C46930   2.874   4.473   8.417 -0.5074 -0.1431 -0.5954
  341MOL0     C46931   3.000   4.545   8.368  1.0324 -0.4507 -0.2079
  341MOL0     C46932   3.119   4.457   8.355 -0.5709  0.3680 -0.0392
  341MOL0     C46933   3.252   4.538   8.335 -0.3502  0.3517  0.0454
  341MOL0     C46934   3.334   4.489   8.203  0.5768  0.0060  0.1550
  341MOL0     C46935   3.471   4.554   8.195  0.0387  1.1848 -0.4774
  341MOL0     C46936   3.546   4.525   8.063 -1.3477 -0.3117 -0.5991
  341MOL0     N46937   3.614   4.392   8.047 -0.6723 -0.2282 -0.8979
  341MOL0     C46938   3.691   4.328   8.144 -1.4164 -0.4456  0.5269
  341MOL0     C46939   3.747   4.224   8.080  0.3134  0.6098 -0.0828
  341MOL0     C46940   3.822   4.111   8.148  0.6035 -0.0801  1.2318
  341MOL0     C46941   3.824   3.983   8.067 -0.2143 -0.6066  0.0564
  341MOL0     C46942   3.931   3.889   8.132  0.2947 -1.0193 -0.1794
  341MOL0     C46943   3.946   3.763   8.047  0.2612 -0.7154 -0.2335
  341MOL0     O46944   3.955   3.801   7.912 -0.0450 -0.3250 -0.4796
  341MOL0     C46945   3.968   3.713   7.813 -0.1218 -0.2490  0.0875
  341MOL0     C46946   3.934   3.755   7.683 -0.1552 -0.0484  1.1388
  341MOL0     C46947   3.938   3.674   7.573 -0.3588 -0.2267 -0.7869
  341MOL0     C46948   3.892   3.739   7.445 -0.6703  0.0602  0.5929
  341MOL0     C46949   3.997   3.540   7.581 -0.0417 -0.9575  0.5145
  341MOL0     C46950   4.020   3.450   7.471 -0.8215 -0.7522 -0.1566
  341MOL0     O46951   4.109   3.349   7.487  0.0601 -0.5513  0.6807
  341MOL0     C46952   4.237   3.379   7.449  0.8221 -0.0565  0.4099
  341MOL0     C46953   4.266   3.476   7.345  0.6918  0.2226  0.1614
  341MOL0     C46954   4.391   3.491   7.306  0.0890 -0.6868  0.6505
  341MOL0     C46955   4.502   3.412   7.347  0.2950 -0.4870 -0.3934
  341MOL0     O46956   4.631   3.429   7.329  0.0854  0.1264  0.0112
  341MOL0     C46957   4.691   3.540   7.264 -0.2660 -0.7814  1.1420
  341MOL0     C46958   4.792   3.486   7.168 -0.3976 -0.4236  0.5089
  341MOL0     C46959   4.839   3.589   7.066 -0.0775 -0.0041  0.4583
  341MOL0     C46960   4.945   3.537   6.961  0.5877  0.3027 -0.7647
  341MOL0     C46961   4.995   3.657   6.884 -1.0826 -0.7218  0.5589
  341MOL0     C46962   5.074   3.624   6.762  0.8858  0.2450 -0.0018
  341MOL0     C46963   5.119   3.737   6.673 -1.0676 -0.4567  0.6072
  341MOL0     C46964   5.264   3.782   6.692 -0.6317  0.1576  0.2024
  341MOL0    Cl46965   5.389   3.645   6.649 -0.1478  0.7275 -0.1768
  341MOL0     C46966   4.474   3.320   7.447 -1.0432 -0.7238  0.3934
  341MOL0     C46967   4.343   3.298   7.492  1.1214  0.8174 -0.7569
  341MOL0     O46968   3.949   3.464   7.372  0.0824  0.6652 -0.9942
  341MOL0     C46969   4.045   3.503   7.705 -0.8527 -0.9846 -0.1509
  341MOL0     C46970   4.031   3.589   7.816  0.2754  0.4409  0.0720
  341MOL0     N46971   3.708   4.230   7.946  0.3961  0.0726  0.3725
  341MOL0     N46972   3.622   4.320   7.929  0.9694  0.0934  0.2697
  341MOL0     C46973   2.611   4.217   8.173 -0.4012  0.1805 -0.0190
  341MOL0     C46974   2.507   4.154   8.112  0.4735 -0.5868  0.7147
  341MOL0     C46975   2.159   3.888   7.971 -0.4551 -0.8136 -1.0492
  341MOL0     C46976   2.169   3.784   7.883 -0.0263  0.4032  0.8406
  341MOL0     C46977   2.065   3.715   7.833 -1.2060  0.4073 -0.0087
  341MOL0     C46978   1.934   3.744   7.873  0.0170  0.4556 -0.1990
  341MOL0     O46979   1.828   3.680   7.802 -0.6820  1.4114  0.0796
  341MOL0     C46980   1.690   3.713   7.823 -0.6168 -0.4080  0.0485
  341MOL0     C46981   1.599   3.656   7.718 -0.1647  1.7234  0.4360
  341MOL0     C46982   1.476   3.736   7.722 -0.4478 -0.9646 -0.3600
  341MOL0     C46983   1.389   3.681   7.849  0.6463  0.0143 -0.7536
  341MOL0     C46984   1.425   3.740   7.975  0.4565  0.2990 -0.5160
  341MOL0     C46985   1.433   3.758   8.092  0.0031  0.0893  0.6173
  341MOL0     C46986   1.918   3.842   7.972  0.7111  0.0156 -0.0051
  341MOL0     C46987   2.028   3.909   8.027  0.6923 -0.2917 -0.1065
  341MOL0     C46988   1.984   4.023   8.133 -0.8387 -0.8498 -0.3892
  341MOL0     H46989   2.293   4.117   8.373  0.4764  0.5318  2.7127
  341MOL0     H46990   2.476   4.220   8.484  0.4904 -4.8089  0.8699
  341MOL0     H46991   2.801   4.403   8.224  0.7161 -2.3424 -1.2502
  341MOL0     H46992   2.889   4.285   8.321 -0.3573  0.8969  0.1760
  341MOL0     H46993   2.795   4.547   8.430  0.7907  1.1640  0.1566
  341MOL0     H46994   2.891   4.425   8.514 -2.0681 -0.5515 -0.4901
  341MOL0     H46995   2.982   4.596   8.273  0.5927  0.6953  0.4691
  341MOL0     H46996   3.028   4.623   8.440 -1.7322  0.0905  0.4051
  341MOL0     H46997   3.134   4.385   8.436  0.6895  2.1534  1.4026
  341MOL0     H46998   3.111   4.391   8.268  0.3339 -0.8039  0.7448
  341MOL0     H46999   3.313   4.528   8.425  0.3743 -1.4515 -0.6136
  341MOL0     H47000   3.239   4.645   8.317  2.8844  1.4590  3.1397
  341MOL0     H47001   3.351   4.383   8.223 -1.4534 -0.7163 -1.5846
  341MOL0     H47002   3.286   4.506   8.106 -0.6662 -1.1338  0.5382
  341MOL0     H47003   3.519   4.520   8.288  0.5836  2.7409 -0.1524
  341MOL0     H47004   3.462   4.661   8.215 -0.6956  0.5895  3.1314
  341MOL0     H47005   3.472   4.527   7.982 -0.6668 -0.3163 -1.2338
  341MOL0     H47006   3.618   4.605   8.045 -3.8843  2.2130 -0.0687
  341MOL0     H47007   3.696   4.363   8.247  0.0605  0.5869  0.1337
  341MOL0     H47008   3.782   4.100   8.249  0.9394 -0.1001  1.3635
  341MOL0     H47009   3.923   4.149   8.168  1.4117 -0.5178 -1.5384
  341MOL0     H47010   3.722   3.943   8.070 -0.3385 -0.2726  0.4513
  341MOL0     H47011   3.840   4.005   7.961  1.6816  0.1348  0.4555
  341MOL0     H47012   4.025   3.943   8.139  1.1591 -2.5703  0.6964
  341MOL0     H47013   3.897   3.850   8.228 -3.4747 -3.4007 -2.2111
  341MOL0     H47014   4.033   3.707   8.081  0.1314 -1.1948 -0.6789
  341MOL0     H47015   3.857   3.702   8.060 -1.1506  1.5846  1.8757
  341MOL0     H47016   3.883   3.848   7.660 -1.4299 -0.8367  0.6296
  341MOL0     H47017   3.963   3.709   7.367 -0.6624  0.4548  0.4433
  341MOL0     H47018   3.889   3.848   7.456  0.2799 -0.1051  3.0536
  341MOL0     H47019   3.796   3.696   7.418 -1.3380  0.5011  2.1462
  341MOL0     H47020   4.194   3.545   7.303 -0.0648 -0.3496  0.4798
  341MOL0     H47021   4.399   3.574   7.237 -0.7018 -0.0397  1.3085
  341MOL0     H47022   4.610   3.588   7.207 -0.2738 -0.2386  1.6083
  341MOL0     H47023   4.742   3.617   7.321 -1.4442  1.0397 -0.1173
  341MOL0     H47024   4.874   3.444   7.226 -1.3740 -0.6771  1.7509
  341MOL0     H47025   4.742   3.412   7.105  1.8516 -0.4686 -1.3479
  341MOL0     H47026   4.883   3.675   7.118 -0.3274  2.1241 -2.5579
  341MOL0     H47027   4.755   3.629   7.008 -0.2373 -0.0438  0.6625
  341MOL0     H47028   4.892   3.471   6.890 -2.8721  0.6485  1.2509
  341MOL0     H47029   5.023   3.477   7.007 -0.3005 -2.4441 -2.5655
  341MOL0     H47030   4.915   3.725   6.854  1.0025  1.9103  0.6098
  341MOL0     H47031   5.070   3.707   6.944 -2.3646  1.8207  0.1709
  341MOL0     H47032   5.021   3.559   6.692  1.6489 -0.3862  0.0008
  341MOL0     H47033   5.159   3.567   6.801 -0.6875 -0.6757  2.2572
  341MOL0     H47034   5.057   3.826   6.686 -3.3983 -1.8802 -0.1585
  341MOL0     H47035   5.109   3.704   6.569  0.7934  0.3097  0.1443
  341MOL0     H47036   5.291   3.820   6.791  4.8158  0.0168 -0.9042
  341MOL0     H47037   5.286   3.867   6.627 -0.5568  2.1743  2.6997
  341MOL0     H47038   4.561   3.276   7.495 -1.7415 -0.1427  2.2882
  341MOL0     H47039   4.321   3.216   7.560 -2.2095  0.4837 -2.0462
  341MOL0     H47040   4.095   3.411   7.733  0.1552 -0.7308 -1.0470
  341MOL0     H47041   4.068   3.552   7.911  2.9697 -1.3725 -1.5472
  341MOL0     H47042   2.703   4.244   8.124 -0.3769  0.3467  0.1169
  341MOL0     H47043   2.510   4.120   8.009  1.3250  1.8603 -0.1436
  341MOL0     H47044   2.264   3.763   7.834 -1.1915 -0.6511 -1.1156
  341MOL0     H47045   2.086   3.638   7.759 -0.0762  0.7484 -0.0729
  341MOL0     H47046   1.663   3.680   7.924 -1.3546 -0.6010 -0.2106
  341MOL0     H47047   1.694   3.822   7.827 -1.7587 -0.3817  2.2432
  341MOL0     H47048   1.584   3.548   7.735  2.4704  1.1889 -0.2179
  341MOL0     H47049   1.642   3.675   7.619 -0.7263  2.0220  0.2471
  341MOL0     H47050   1.498   3.842   7.735  0.8931 -0.9135 -2.5485
  341MOL0     H47051   1.412   3.720   7.634  0.0077  0.1230 -0.8965
  341MOL0     H47052   1.393   3.573   7.868 -0.9915  0.1823  0.9369
  341MOL0     H47053   1.286   3.713   7.832  0.2127 -1.8113 -1.8763
  341MOL0     H47054   1.421   3.768   8.198  0.5380  1.1178  0.5950
  341MOL0     H47055   1.821   3.869   8.012 -1.1202 -3.2062 -1.8587
  341MOL0     H47056   1.960   3.968   8.224  2.3749  1.2804  1.9863
  341MOL0     H47057   2.059   4.101   8.152 -1.7436 -0.5598  2.3249
  341MOL0     H47058   1.899   4.082   8.098 -0.4954  0.5021  0.9161
  342MOL0     O47059   2.901  11.260   9.905  0.5452  0.0823  0.2442
  342MOL0     C47060   2.978  11.234   9.991 -0.6691  0.7004  0.2757
  342MOL0     O47061   3.046  11.324  10.064  0.5125  0.5681 -0.3078
  342MOL0     C47062   3.020  11.457  10.052 -0.4591 -0.3026  0.6936
  342MOL0     C47063   3.119  11.536  10.085 -0.8202 -0.7476 -0.6212
  342MOL0     C47064   3.109  11.677  10.096  0.7606  1.3872  0.3299
  342MOL0     C47065   2.984  11.734  10.070  0.1039 -0.3283  0.5060
  342MOL0     O47066   2.956  11.870  10.075  1.2154 -0.0490 -0.6462
  342MOL0     C47067   3.040  11.946  10.166  0.2480  1.0755 -0.6862
  342MOL0     C47068   3.010  12.082  10.187  0.8169  1.1833 -0.2043
  342MOL0     C47069   3.016  12.156  10.052 -0.0042 -0.1910  0.0847
  342MOL0     C47070   3.156  12.141   9.982  0.1735 -0.5054  0.3163
  342MOL0     C47071   3.176  12.249   9.868  0.2642  0.3741 -0.1335
  342MOL0     C47072   3.198  12.390   9.909  0.0128  0.9348 -0.4349
  342MOL0     C47073   3.159  12.473   9.785 -0.1379 -0.0430 -0.5543
  342MOL0     C47074   3.211  12.620   9.799  0.0538  0.0877 -0.1297
  342MOL0     N47075   3.203  12.676   9.938  0.6516  0.3252 -0.1965
  342MOL0     C47076   3.084  12.681   9.998  0.1312 -0.9700  0.3585
  342MOL0     C47077   3.112  12.733  10.122 -0.5915  0.2504  0.1450
  342MOL0     C47078   3.018  12.769  10.225  1.0727 -0.7043  0.0360
  342MOL0     C47079   3.006  12.922  10.233  0.9819  0.5069  0.3856
  342MOL0     C47080   2.872  12.973  10.160  0.0693  0.0338 -0.0695
  342MOL0     C47081   2.906  13.115  10.107  0.6650 -0.8961 -0.6810
  342MOL0     O47082   2.917  13.127   9.959  0.0839  0.0482 -0.7398
  342MOL0     C47083   3.015  13.058   9.892 -0.2653  0.5060  0.5716
  342MOL0     C47084   3.138  13.109   9.902 -0.9898 -0.9028  0.1041
  342MOL0     C47085   3.250  13.069   9.823 -1.4596 -0.2101 -0.2551
  342MOL0     C47086   3.377  13.149   9.848  0.9225  0.7028  0.9098
  342MOL0     C47087   3.233  12.976   9.728  0.0937  0.8688 -0.8936
  342MOL0     C47088   3.326  12.938   9.623  0.0011  0.1294  0.4044
  342MOL0     O47089   3.288  12.840   9.545 -0.1598  0.2801 -0.2898
  342MOL0     C47090   3.357  12.806   9.433  0.3287  0.3436 -0.8852
  342MOL0     C47091   3.311  12.832   9.304 -0.0991 -0.3618  0.1875
  342MOL0     C47092   3.385  12.787   9.192  0.1232  0.1886 -0.0277
  342MOL0     C47093   3.512  12.734   9.209  0.6805  0.9507  0.3046
  342MOL0     O47094   3.573  12.699   9.090  0.1641 -0.6160 -0.2632
  342MOL0     C47095   3.682  12.609   9.093  0.9875  0.6013 -0.4251
  342MOL0     C47096   3.758  12.611   8.954 -0.5224  0.1109  0.4684
  342MOL0     C47097   3.898  12.543   8.965 -0.3942 -0.7328 -0.7840
  342MOL0     C47098   3.903  12.435   9.069 -0.0568 -0.2862  0.1161
  342MOL0     C47099   4.030  12.354   9.066 -0.3807  0.4743 -0.4870
  342MOL0     C47100   4.150  12.433   9.098  0.3755  0.4082  0.5103
  342MOL0     C47101   4.253  12.338   9.180 -0.2173 -0.0755  0.3175
  342MOL0     C47102   4.203  12.309   9.329  0.2660 -1.1441  0.9851
  342MOL0    Cl47103   4.206  12.459   9.420  0.6105 -0.0557  0.0590
  342MOL0     C47104   3.556  12.705   9.339 -1.4380 -0.4073 -0.4672
  342MOL0     C47105   3.482  12.751   9.447  0.3392 -0.1772 -0.7879
  342MOL0     O47106   3.431  12.996   9.600  0.3187 -0.4114 -0.2393
  342MOL0     C47107   3.096  12.925   9.718 -1.2161 -0.3050 -0.3191
  342MOL0     C47108   2.992  12.960   9.795 -0.2979  1.0539  0.0255
  342MOL0     N47109   3.255  12.748  10.143  0.3116  1.1724  0.7586
  342MOL0     N47110   3.299  12.711  10.024 -1.0682 -0.6460 -0.6985
  342MOL0     C47111   2.881  11.654  10.023  0.3767 -0.3593  0.2035
  342MOL0     C47112   2.902  11.518  10.022  0.5513 -0.2117  0.0196
  342MOL0     C47113   2.983  11.091  10.038 -0.3283  0.5443  0.3914
  342MOL0     C47114   2.939  11.059  10.167  1.4982 -1.1294 -1.2921
  342MOL0     C47115   2.955  10.932  10.222  0.0396  0.3709  1.2482
  342MOL0     C47116   3.014  10.831  10.150 -0.5185  0.3702 -0.1616
  342MOL0     O47117   3.049  10.705  10.191 -0.1145 -0.4100 -0.6411
  342MOL0     C47118   2.968  10.645  10.302 -0.3536 -0.1311 -0.3205
  342MOL0     C47119   2.927  10.507  10.262  0.2973 -0.3094 -0.2315
  342MOL0     C47120   2.778  10.474  10.303  0.1723 -0.2206  0.5846
  342MOL0     C47121   2.739  10.339  10.230 -0.8446 -1.1466  0.1627
  342MOL0     C47122   2.786  10.218  10.293  0.3707 -0.2474 -0.2131
  342MOL0     C47123   2.817  10.113  10.335  0.1741  0.7135 -0.5374
  342MOL0     C47124   3.053  10.863  10.017 -0.2771  1.3377  0.4562
  342MOL0     C47125   3.032  10.988   9.963 -0.4028 -0.9059  0.2972
  342MOL0     C47126   3.079  11.013   9.821  0.1245  0.6616 -0.3875
  342MOL0     H47127   3.213  11.483  10.095 -1.5329 -2.2823 -1.5051
  342MOL0     H47128   3.195  11.732  10.132  0.1506  3.0455 -0.6269
  342MOL0     H47129   3.142  11.940  10.127  0.1124  1.3770 -1.0946
  342MOL0     H47130   3.047  11.903  10.267  2.9183  1.7462 -0.5059
  342MOL0     H47131   2.907  12.089  10.224  0.3500 -3.2006 -0.1698
  342MOL0     H47132   3.079  12.131  10.257 -0.9381  2.8120  0.4998
  342MOL0     H47133   2.937  12.116   9.987 -0.8953 -0.6251  1.3842
  342MOL0     H47134   2.993  12.262  10.067 -0.6431 -0.4741  1.2202
  342MOL0     H47135   3.238  12.157  10.052 -1.1811  3.5230  1.2475
  342MOL0     H47136   3.166  12.039   9.944  1.0784 -0.5154  0.5550
  342MOL0     H47137   3.095  12.235   9.796 -0.2926 -0.7788  0.6832
  342MOL0     H47138   3.263  12.204   9.818  0.3615 -1.2779  1.4265
  342MOL0     H47139   3.119  12.423   9.978 -0.2876  0.7797 -0.7063
  342MOL0     H47140   3.300  12.414   9.939  0.2630  0.2469 -0.7243
  342MOL0     H47141   3.050  12.476   9.787 -0.1445 -0.6352 -0.0543
  342MOL0     H47142   3.188  12.429   9.689 -0.0669 -1.1700 -0.0258
  342MOL0     H47143   3.309  12.642   9.755 -0.4974  0.3303 -1.2797
  342MOL0     H47144   3.145  12.677   9.733  1.3245  1.4644 -0.2786
  342MOL0     H47145   2.979  12.674   9.970 -0.2226  4.6075 -0.8125
  342MOL0     H47146   3.037  12.745  10.330 -0.2182 -0.0304  0.4466
  342MOL0     H47147   2.924  12.726  10.189  2.0270 -0.5548 -2.8682
  342MOL0     H47148   2.996  12.964  10.334 -1.4762  1.5209 -0.2023
  342MOL0     H47149   3.095  12.972  10.194  0.5276  1.8038  0.9620
  342MOL0     H47150   2.851  12.898  10.084  0.2254  0.3841 -0.4633
  342MOL0     H47151   2.785  12.971  10.226  1.2172 -0.4457  1.4884
  342MOL0     H47152   2.812  13.161  10.138 -1.2013 -1.2537 -5.1019
  342MOL0     H47153   2.987  13.162  10.164 -1.2160  2.9986 -0.8799
  342MOL0     H47154   3.164  13.184   9.976 -2.0629  0.9746 -1.3486
  342MOL0     H47155   3.461  13.080   9.860 -0.7138 -1.0469  3.2318
  342MOL0     H47156   3.367  13.199   9.945  3.6050 -2.2817  2.9153
  342MOL0     H47157   3.390  13.216   9.763 -1.8585 -1.8974 -1.8280
  342MOL0     H47158   3.210  12.869   9.292  0.1802  0.4381  0.2782
  342MOL0     H47159   3.349  12.799   9.090 -1.3557  4.2328  0.7933
  342MOL0     H47160   3.758  12.654   9.157  0.3653  3.0077 -1.2833
  342MOL0     H47161   3.651  12.509   9.127  2.4991  0.6694  1.3204
  342MOL0     H47162   3.712  12.552   8.874  2.4472 -2.6317  0.5781
  342MOL0     H47163   3.764  12.712   8.912 -0.5014  2.4941  5.4616
  342MOL0     H47164   3.963  12.619   9.009 -3.2970  1.2103  0.4805
  342MOL0     H47165   3.941  12.522   8.867 -1.5195  2.0628 -1.9843
  342MOL0     H47166   3.821  12.362   9.064 -0.9164  0.6514  0.2684
  342MOL0     H47167   3.885  12.474   9.169  2.2709  2.2903 -0.3484
  342MOL0     H47168   4.017  12.276   9.141 -0.3220  1.5883  0.7076
  342MOL0     H47169   4.032  12.310   8.966 -0.7194  0.5878 -0.5445
  342MOL0     H47170   4.112  12.523   9.147 -2.1481  0.5767 -1.5503
  342MOL0     H47171   4.191  12.478   9.007  1.6101  2.7809  2.1377
  342MOL0     H47172   4.349  12.382   9.206  0.6287 -2.0083  0.5995
  342MOL0     H47173   4.259  12.244   9.125 -1.5037 -0.7602  1.2825
  342MOL0     H47174   4.264  12.234   9.379  0.9500 -1.5360 -0.3709
  342MOL0     H47175   4.098  12.279   9.323 -0.7958  2.0816  0.9384
  342MOL0     H47176   3.654  12.658   9.340 -2.8465 -3.6039  0.6610
  342MOL0     H47177   3.519  12.734   9.548 -0.9719  1.6638  0.0695
  342MOL0     H47178   3.074  12.854   9.640 -1.9898  1.3910 -1.7117
  342MOL0     H47179   2.889  12.927   9.786 -0.1681  0.7219 -0.2639
  342MOL0     H47180   2.785  11.702  10.006 -0.2056 -1.3522  0.6115
  342MOL0     H47181   2.816  11.471   9.976  0.3895  2.9758 -3.3920
  342MOL0     H47182   2.898  11.139  10.228  3.8912  2.4333 -3.9539
  342MOL0     H47183   2.919  10.909  10.322 -0.9980  0.0473  0.8170
  342MOL0     H47184   3.017  10.632  10.398 -3.5440  0.7735  1.5798
  342MOL0     H47185   2.875  10.701  10.312  0.6335  1.3244  1.1756
  342MOL0     H47186   2.990  10.434  10.313 -3.0086 -2.0295  1.7616
  342MOL0     H47187   2.922  10.488  10.154 -2.9739 -3.3407  0.2784
  342MOL0     H47188   2.775  10.468  10.412  1.3443  2.4079  0.8379
  342MOL0     H47189   2.703  10.551  10.280  3.0059  2.8160  0.7630
  342MOL0     H47190   2.754  10.337  10.121 -1.6247  4.5482 -0.3507
  342MOL0     H47191   2.630  10.331  10.226 -1.1427  1.8260 -3.4214
  342MOL0     H47192   2.850  10.022  10.381 -1.6838 -0.3016 -1.0853
  342MOL0     H47193   3.087  10.780   9.956 -2.4324 -1.0814  2.3112
  342MOL0     H47194   2.991  11.018   9.757  0.8097  0.0915 -1.4128
  342MOL0     H47195   3.135  11.104   9.800 -0.4918  0.8308 -1.3205
  342MOL0     H47196   3.139  10.925   9.794  0.2056  0.4942  0.2999
  343MOL0     O47197   9.892   9.052   3.799 -0.4492  0.4633 -0.3382
  343MOL0     C47198   9.940   9.159   3.820 -1.3420 -0.8817 -1.5405
  343MOL0     O47199   9.902   9.275   3.755 -0.7096 -0.0305 -0.7985
  343MOL0     C47200   9.807   9.258   3.654 -0.3448  0.0334 -0.0889
  343MOL0     C47201   9.827   9.300   3.529  0.5044 -0.5550  0.0519
  343MOL0     C47202   9.740   9.283   3.415 -0.4800 -0.2622  0.0580
  343MOL0     C47203   9.619   9.218   3.439  1.3308  0.1082  0.0111
  343MOL0     O47204   9.539   9.206   3.329  0.2291  0.2723 -0.2558
  343MOL0     C47205   9.428   9.102   3.328  0.5299  0.5499  0.2509
  343MOL0     C47206   9.338   9.128   3.213 -1.3154 -0.6445 -0.4222
  343MOL0     C47207   9.270   8.987   3.170 -0.7406  0.0722 -0.1420
  343MOL0     C47208   9.176   8.995   3.046 -0.4583 -1.0843  0.1651
  343MOL0     C47209   9.135   8.867   2.999 -0.6124 -0.9057  0.1122
  343MOL0     C47210   9.106   8.864   2.854 -0.0193 -0.6975 -0.3355
  343MOL0     C47211   8.960   8.847   2.825 -0.2882 -0.4035  0.8886
  343MOL0     C47212   8.867   8.973   2.859 -0.8521 -0.8444 -0.2171
  343MOL0     N47213   8.800   9.037   2.746 -0.6429 -0.0391  0.5828
  343MOL0     C47214   8.706   8.983   2.665 -0.7405  0.9101  0.4487
  343MOL0     C47215   8.696   9.080   2.564 -1.3980 -0.2055 -1.1850
  343MOL0     C47216   8.591   9.082   2.453  0.2613 -0.7826 -0.4927
  343MOL0     C47217   8.482   9.182   2.470 -0.9254 -0.5147  0.0171
  343MOL0     C47218   8.380   9.158   2.360  0.0407  0.0993  0.4939
  343MOL0     C47219   8.266   9.263   2.373 -0.8656 -0.2795  0.0462
  343MOL0     O47220   8.167   9.234   2.278 -0.0020 -0.3726 -0.8837
  343MOL0     C47221   8.041   9.204   2.327 -0.1544  1.1996 -0.0016
  343MOL0     C47222   7.965   9.322   2.351  1.0157  0.8065  0.2889
  343MOL0     C47223   7.839   9.296   2.407 -0.2570 -0.9753  0.1140
  343MOL0     C47224   7.767   9.420   2.443 -0.3544 -0.1138 -0.6338
  343MOL0     C47225   7.790   9.173   2.439  1.0523  0.3641 -0.1117
  343MOL0     C47226   7.646   9.154   2.484 -0.6611 -0.1495 -1.0738
  343MOL0     O47227   7.631   9.044   2.573  0.5887 -0.2533  0.1370
  343MOL0     C47228   7.514   9.018   2.631  0.9297  0.7803 -0.3682
  343MOL0     C47229   7.398   8.992   2.554 -0.2827 -0.9635 -0.9660
  343MOL0     C47230   7.270   8.994   2.610 -0.4621  0.3100 -0.4033
  343MOL0     C47231   7.253   9.005   2.749 -0.4450 -0.0755  0.0899
  343MOL0     O47232   7.132   9.012   2.825 -0.5332 -0.2773  0.4736
  343MOL0     C47233   7.041   8.906   2.812 -1.0886 -0.3406  0.5045
  343MOL0     C47234   6.935   8.963   2.913 -0.5665  0.5239  0.4672
  343MOL0     C47235   6.857   9.085   2.854 -0.4015 -0.2707  0.0790
  343MOL0     C47236   6.767   9.142   2.966  0.3257  0.7188  0.6600
  343MOL0     C47237   6.761   9.289   2.949 -0.5755 -0.2659 -0.0945
  343MOL0     C47238   6.689   9.334   2.815 -0.4025  0.6036  0.7427
  343MOL0     C47239   6.638   9.478   2.834  0.7923  0.6420  1.2087
  343MOL0     C47240   6.551   9.514   2.707  0.8320  0.9210  0.1242
  343MOL0    Cl47241   6.492   9.683   2.722 -0.4022 -0.2543  0.2098
  343MOL0     C47242   7.366   9.029   2.819 -0.6657 -0.3226  0.4838
  343MOL0     C47243   7.502   9.034   2.770 -0.0190  0.1102  0.8669
  343MOL0     O47244   7.555   9.219   2.441  1.1043 -0.0096 -0.4770
  343MOL0     C47245   7.858   9.059   2.402  0.3808 -0.0145 -0.7630
  343MOL0     C47246   7.987   9.075   2.357 -0.2552  0.5103  0.2763
  343MOL0     N47247   8.771   9.187   2.590 -0.4639  0.0699  0.2174
  343MOL0     N47248   8.837   9.160   2.703  0.1897  0.7231  0.9454
  343MOL0     C47249   9.587   9.178   3.573  0.0232  0.7357  0.1439
  343MOL0     C47250   9.683   9.195   3.674 -0.2546  0.6110  0.4079
  343MOL0     C47251  10.057   9.163   3.911  0.7959  0.0333 -0.2233
  343MOL0     C47252  10.160   9.068   3.891 -0.1473  0.2848 -0.1863
  343MOL0     C47253  10.276   9.057   3.956 -0.3028 -0.8177  0.9506
  343MOL0     C47254  10.305   9.162   4.048 -0.6893 -0.5161 -0.4632
  343MOL0     O47255  10.428   9.178   4.123 -0.5069 -0.2120  0.2047
  343MOL0     C47256  10.530   9.078   4.103 -0.6314  0.6683 -0.5564
  343MOL0     C47257  10.668   9.097   4.173 -0.5417 -0.0002 -0.0233
  343MOL0     C47258  10.728   9.226   4.161 -0.3518 -0.7309  0.1238
  343MOL0     C47259  10.881   9.236   4.175  0.3888 -0.3556  0.2959
  343MOL0     C47260  10.911   9.201   4.315  0.1875  0.2984  0.1285
  343MOL0     C47261  10.940   9.164   4.423 -0.6689 -1.1657 -0.7307
  343MOL0     C47262  10.198   9.254   4.082 -1.2625 -0.1251  0.3301
  343MOL0     C47263  10.076   9.260   4.015  0.0443  1.1538  0.3214
  343MOL0     C47264   9.983   9.374   4.049  0.4695  0.1130 -0.1210
  343MOL0     H47265   9.907   9.371   3.513  1.0970 -1.5338 -1.6683
  343MOL0     H47266   9.780   9.306   3.317 -1.3757 -0.1651 -0.2929
  343MOL0     H47267   9.373   9.082   3.420 -3.1017  0.9830 -1.6559
  343MOL0     H47268   9.479   9.007   3.312 -0.7310  0.2124 -2.2941
  343MOL0     H47269   9.268   9.206   3.242  2.7992  2.6070  1.8319
  343MOL0     H47270   9.404   9.162   3.133  2.4999  1.4548  3.2407
  343MOL0     H47271   9.360   8.926   3.160 -0.0559  0.5929  2.1106
  343MOL0     H47272   9.203   8.937   3.241 -0.1600 -5.1600 -2.8570
  343MOL0     H47273   9.083   9.052   3.059 -1.9419 -2.8066 -2.0715
  343MOL0     H47274   9.228   9.045   2.964  1.9889 -0.5958  1.9179
  343MOL0     H47275   9.046   8.848   3.060 -0.4297  2.0387  1.4437
  343MOL0     H47276   9.210   8.793   3.027  2.6083  2.1593  0.2921
  343MOL0     H47277   9.153   8.933   2.783  0.8872  0.9130  1.7278
  343MOL0     H47278   9.149   8.764   2.835 -1.2662 -1.3607  0.2370
  343MOL0     H47279   8.920   8.758   2.874 -0.0122 -0.2393  1.4114
  343MOL0     H47280   8.967   8.842   2.716  2.4097 -1.4417  1.0362
  343MOL0     H47281   8.789   8.940   2.929 -4.4975 -0.9090 -3.9205
  343MOL0     H47282   8.929   9.049   2.908 -0.5580 -2.1054  1.4792
  343MOL0     H47283   8.656   8.888   2.677  2.2973 -0.7645  0.8327
  343MOL0     H47284   8.549   8.982   2.461 -0.4868 -0.6062 -1.9055
  343MOL0     H47285   8.638   9.103   2.356  3.0699 -1.9870  0.5098
  343MOL0     H47286   8.432   9.167   2.566 -1.4372  0.0698 -0.1546
  343MOL0     H47287   8.519   9.284   2.458 -1.3096 -0.6305 -2.5876
  343MOL0     H47288   8.433   9.157   2.264 -1.9372 -3.2563 -0.7071
  343MOL0     H47289   8.350   9.054   2.371  2.9086 -0.9579 -0.7310
  343MOL0     H47290   8.219   9.257   2.472  1.1979 -1.8756  1.0148
  343MOL0     H47291   8.317   9.359   2.365  0.0935 -0.6642  1.2850
  343MOL0     H47292   7.994   9.423   2.324 -1.0041  1.1722 -0.7355
  343MOL0     H47293   7.833   9.500   2.475 -1.7545  0.6094  0.5496
  343MOL0     H47294   7.710   9.401   2.534  2.3591 -1.8433  0.8232
  343MOL0     H47295   7.706   9.447   2.356 -2.3740  0.3626  0.8416
  343MOL0     H47296   7.411   8.992   2.446 -2.9074 -1.7448 -1.3487
  343MOL0     H47297   7.181   8.983   2.549 -1.9628  0.4885  1.6499
  343MOL0     H47298   6.996   8.894   2.713  0.1330  0.2688 -0.1441
  343MOL0     H47299   7.086   8.811   2.843  0.0826  0.3716  1.0552
  343MOL0     H47300   6.869   8.879   2.940 -0.9622  1.4596  2.6139
  343MOL0     H47301   6.995   8.991   3.000  3.5723 -1.5890 -1.4194
  343MOL0     H47302   6.805   9.057   2.761  0.5145  2.3307 -1.3270
  343MOL0     H47303   6.926   9.156   2.808 -0.2666 -1.2015 -1.2309
  343MOL0     H47304   6.814   9.121   3.063  0.2865  0.0596  0.5419
  343MOL0     H47305   6.663   9.109   2.961  0.0059  1.8214 -1.9943
  343MOL0     H47306   6.701   9.339   3.025  2.0825  1.7143  0.8817
  343MOL0     H47307   6.858   9.340   2.952 -1.2761  1.0878  0.3891
  343MOL0     H47308   6.608   9.263   2.799  0.4469 -0.6804  1.8711
  343MOL0     H47309   6.770   9.335   2.742 -0.8305  3.3547  0.2051
  343MOL0     H47310   6.713   9.554   2.859  1.3188 -0.4315  3.0442
  343MOL0     H47311   6.575   9.482   2.923  0.2223 -1.6353  0.9751
  343MOL0     H47312   6.466   9.445   2.709  0.0294  1.9109  1.0202
  343MOL0     H47313   6.606   9.509   2.612  2.1125  4.2937  0.5637
  343MOL0     H47314   7.346   9.029   2.926  1.1720 -1.8076  0.8809
  343MOL0     H47315   7.589   9.079   2.817  0.3665  0.6287 -0.3014
  343MOL0     H47316   7.825   8.957   2.420  2.8198 -1.0129 -1.5279
  343MOL0     H47317   8.059   8.994   2.350  1.5400  1.9528  1.2714
  343MOL0     H47318   9.491   9.134   3.597  0.2097  0.8043  1.0696
  343MOL0     H47319   9.662   9.177   3.779  1.3141 -1.5597  0.4098
  343MOL0     H47320  10.136   9.004   3.806 -1.1724  0.1305  0.2010
  343MOL0     H47321  10.352   8.983   3.934  0.0873 -0.2107  0.2285
  343MOL0     H47322  10.492   8.982   4.139 -1.9676  0.4285 -2.4343
  343MOL0     H47323  10.541   9.068   3.995 -1.6129  4.1849 -1.1132
  343MOL0     H47324  10.742   9.036   4.122  2.7002  0.8722  3.2299
  343MOL0     H47325  10.664   9.059   4.276  1.6174  3.2756  1.4652
  343MOL0     H47326  10.699   9.279   4.069 -0.4582  1.9426  1.5919
  343MOL0     H47327  10.686   9.292   4.237 -3.0871  3.1184 -4.1982
  343MOL0     H47328  10.923   9.334   4.151  1.8047 -1.3845 -1.7202
  343MOL0     H47329  10.927   9.166   4.105  1.6386  1.1738 -0.4990
  343MOL0     H47330  10.936   9.132   4.525 -3.5269 -2.2781 -1.0976
  343MOL0     H47331  10.222   9.341   4.143 -1.0393  0.9482 -1.2207
  343MOL0     H47332   9.948   9.428   3.960 -1.8321  0.1075  0.6921
  343MOL0     H47333   9.892   9.335   4.096 -1.5186  1.7627 -2.3267
  343MOL0     H47334  10.030   9.448   4.114  0.8964  1.3990 -1.8042
  344MOL0     O47335   7.196   2.809   6.453 -0.9637  1.0612  0.9283
  344MOL0     C47336   7.271   2.709   6.457 -0.1760 -0.2505 -0.0727
  344MOL0     O47337   7.366   2.683   6.551 -0.2478 -0.4498 -0.1269
  344MOL0     C47338   7.399   2.780   6.647  0.3353 -1.3198 -0.2396
  344MOL0     C47339   7.465   2.906   6.617  0.0111 -0.7358  0.2939
  344MOL0     C47340   7.505   2.996   6.709 -0.0831 -0.7406  0.3383
  344MOL0     C47341   7.475   2.979   6.843  0.4251  0.2590  0.8373
  344MOL0     O47342   7.529   3.075   6.928 -0.2418 -0.0701  0.1060
  344MOL0     C47343   7.484   3.070   7.067 -0.5236  0.0251 -0.2003
  344MOL0     C47344   7.547   3.190   7.130 -0.1596 -0.2055 -0.7239
  344MOL0     C47345   7.498   3.318   7.051  0.4875 -0.2597  0.0542
  344MOL0     C47346   7.518   3.454   7.114 -0.1417  0.4145  0.6383
  344MOL0     C47347   7.655   3.512   7.136 -0.1052 -0.1604 -0.4283
  344MOL0     C47348   7.741   3.505   7.016  1.0376 -0.1201  0.7720
  344MOL0     C47349   7.867   3.601   7.005  1.1044 -1.0360  0.3217
  344MOL0     C47350   7.969   3.545   6.908  0.2609  0.1541 -0.5773
  344MOL0     N47351   7.910   3.548   6.770  0.5874 -0.4880 -0.3242
  344MOL0     C47352   7.858   3.439   6.706 -0.6304  0.4201 -0.0867
  344MOL0     C47353   7.815   3.500   6.595 -0.4349  0.7622 -1.1506
  344MOL0     C47354   7.749   3.407   6.508  0.5242  0.1613  0.0335
  344MOL0     C47355   7.854   3.289   6.458  0.0017 -0.2123  0.5378
  344MOL0     C47356   7.895   3.308   6.310 -0.8490  0.7715 -0.1108
  344MOL0     C47357   7.790   3.282   6.210 -0.9448 -1.1594  0.3082
  344MOL0     O47358   7.815   3.161   6.138  0.3391  0.7418  0.1234
  344MOL0     C47359   7.771   3.161   6.006 -0.4877  0.7191 -0.4810
  344MOL0     C47360   7.813   3.040   5.947  1.3410  0.6420 -0.4577
  344MOL0     C47361   7.780   3.002   5.820  0.0012 -0.5905 -0.7051
  344MOL0     C47362   7.841   2.866   5.775 -0.0350  0.1138 -0.1845
  344MOL0     C47363   7.710   3.102   5.740 -0.9172  0.8604 -0.8798
  344MOL0     C47364   7.688   3.085   5.595 -0.0353 -0.3406  0.3813
  344MOL0     O47365   7.733   2.978   5.537  0.0845 -1.0928  0.2698
  344MOL0     C47366   7.695   2.956   5.407 -0.0231  0.3546 -0.7987
  344MOL0     C47367   7.736   3.036   5.294 -0.3187  0.6277 -0.7001
  344MOL0     C47368   7.714   2.996   5.166  0.4733 -0.2792 -0.2620
  344MOL0     C47369   7.659   2.872   5.129  0.5771 -0.0693  0.2709
  344MOL0     O47370   7.637   2.834   4.998 -0.3233 -0.5700 -0.4074
  344MOL0     C47371   7.715   2.883   4.884  0.4698 -0.8495 -0.5074
  344MOL0     C47372   7.703   2.784   4.763  0.2893 -0.1528 -0.2737
  344MOL0     C47373   7.769   2.645   4.791 -0.0973  0.0913 -0.3971
  344MOL0     C47374   7.884   2.615   4.695 -0.4262  0.6064  0.7729
  344MOL0     C47375   7.835   2.583   4.553 -0.0061 -0.0696  0.5972
  344MOL0     C47376   7.945   2.568   4.444 -0.1455  0.1395 -0.1589
  344MOL0     C47377   7.902   2.455   4.352 -0.0752 -0.3713  0.5456
  344MOL0     C47378   7.781   2.484   4.258 -0.3591  0.1573 -0.4125
  344MOL0    Cl47379   7.831   2.615   4.136 -0.5861 -0.2473  0.3263
  344MOL0     C47380   7.627   2.787   5.242 -0.9201 -0.4094  0.6978
  344MOL0     C47381   7.656   2.827   5.376  0.7766 -0.5669  0.5483
  344MOL0     O47382   7.628   3.174   5.534  0.9616 -0.2735  0.6026
  344MOL0     C47383   7.658   3.218   5.807  0.3724 -1.1056 -0.8515
  344MOL0     C47384   7.695   3.252   5.937  0.3493 -0.0750  0.4822
  344MOL0     N47385   7.845   3.636   6.585  0.0397  1.0893 -0.1917
  344MOL0     N47386   7.900   3.661   6.698 -0.9966 -0.1741 -0.2335
  344MOL0     C47387   7.402   2.862   6.880  0.5774 -0.4939 -0.2508
  344MOL0     C47388   7.364   2.761   6.784  0.1538  0.4337 -0.1177
  344MOL0     C47389   7.262   2.602   6.351  0.9528  0.0373  0.0138
  344MOL0     C47390   7.341   2.480   6.372  0.2652  0.5814 -0.5382
  344MOL0     C47391   7.358   2.388   6.274 -0.1632  1.0771 -0.3154
  344MOL0     C47392   7.296   2.404   6.145 -0.5014 -0.9616  0.9480
  344MOL0     O47393   7.338   2.324   6.043 -0.5708 -0.1161 -0.5848
  344MOL0     C47394   7.261   2.335   5.928 -0.0749  0.1398  1.4447
  344MOL0     C47395   7.336   2.260   5.815  0.8783  1.0487  0.1956
  344MOL0     C47396   7.260   2.253   5.676 -1.0267  0.2700  0.1562
  344MOL0     C47397   7.332   2.158   5.578 -0.4628 -0.2444  0.1698
  344MOL0     C47398   7.242   2.143   5.466  0.3414 -0.4961 -1.1446
  344MOL0     C47399   7.180   2.116   5.370  0.6056  0.7915 -0.2237
  344MOL0     C47400   7.210   2.518   6.128  0.5834 -0.0705  0.1196
  344MOL0     C47401   7.192   2.618   6.228 -0.2900  0.2893 -0.8098
  344MOL0     C47402   7.105   2.739   6.186  0.5403 -0.5586 -0.2638
  344MOL0     H47403   7.478   2.946   6.517 -0.1179  1.1854  1.0034
  344MOL0     H47404   7.555   3.091   6.696 -1.3006  0.2552  2.5023
  344MOL0     H47405   7.520   2.975   7.107  4.2091  1.5918 -0.0423
  344MOL0     H47406   7.376   3.072   7.086 -0.4339  0.5603  0.3012
  344MOL0     H47407   7.533   3.193   7.238 -0.3504 -3.9592 -0.5146
  344MOL0     H47408   7.656   3.180   7.131  0.0401  0.6632  3.4836
  344MOL0     H47409   7.542   3.331   6.952  2.5437 -1.3912  0.7501
  344MOL0     H47410   7.389   3.314   7.043  0.3399 -2.2514  2.0878
  344MOL0     H47411   7.476   3.519   7.036  1.2219  1.2971  0.6017
  344MOL0     H47412   7.457   3.464   7.204  0.4553 -3.3419  1.6261
  344MOL0     H47413   7.700   3.477   7.230  0.1478 -0.8964 -0.8192
  344MOL0     H47414   7.645   3.621   7.146 -0.6330 -0.1669 -0.8768
  344MOL0     H47415   7.771   3.401   7.001 -0.1867 -0.0886 -3.0816
  344MOL0     H47416   7.679   3.535   6.931  2.2107 -0.1190 -0.1042
  344MOL0     H47417   7.919   3.612   7.101 -0.3977  0.3827  1.0329
  344MOL0     H47418   7.839   3.703   6.975  4.3744 -1.0351 -3.4221
  344MOL0     H47419   8.053   3.615   6.914 -0.4544  0.8917  2.7039
  344MOL0     H47420   7.987   3.440   6.934 -0.7133  0.1721  0.2600
  344MOL0     H47421   7.851   3.334   6.732  0.1253 -0.7271 -3.8487
  344MOL0     H47422   7.715   3.465   6.422 -0.5003  0.2551  0.4859
  344MOL0     H47423   7.670   3.360   6.566  0.5704  2.1113  1.7970
  344MOL0     H47424   7.942   3.282   6.523 -1.1628 -0.6973  2.1276
  344MOL0     H47425   7.800   3.195   6.471 -1.2819  0.7036  2.2876
  344MOL0     H47426   7.943   3.404   6.289 -3.4079  2.2310  0.2508
  344MOL0     H47427   7.963   3.227   6.282  3.2345  2.0481  4.6492
  344MOL0     H47428   7.690   3.274   6.253 -1.4686  1.2448 -0.3491
  344MOL0     H47429   7.789   3.373   6.150 -1.1010  1.4960  4.0196
  344MOL0     H47430   7.870   2.974   6.011 -0.9345 -2.9759 -1.8463
  344MOL0     H47431   7.904   2.832   5.857 -0.1199 -0.5099 -0.3673
  344MOL0     H47432   7.900   2.879   5.684 -0.4651 -1.0448 -0.6549
  344MOL0     H47433   7.757   2.796   5.765  1.0886 -1.2429 -0.3671
  344MOL0     H47434   7.792   3.128   5.306 -1.0368  1.4740 -3.3080
  344MOL0     H47435   7.735   3.062   5.082  0.3333 -1.3411 -1.1515
  344MOL0     H47436   7.667   2.975   4.850 -0.4037 -1.2240 -0.3140
  344MOL0     H47437   7.819   2.902   4.910 -0.0215  3.0656 -0.8860
  344MOL0     H47438   7.595   2.768   4.758 -0.0845  1.3505  2.0051
  344MOL0     H47439   7.730   2.837   4.671 -3.1583  2.9736  0.2744
  344MOL0     H47440   7.695   2.565   4.803  1.7269 -1.5067  0.6627
  344MOL0     H47441   7.815   2.654   4.889 -1.8618  0.0627  0.4733
  344MOL0     H47442   7.937   2.531   4.742 -0.7232  1.5773  2.9663
  344MOL0     H47443   7.956   2.697   4.682 -3.0858  2.7607 -1.4047
  344MOL0     H47444   7.768   2.498   4.547  0.8872 -0.7656  0.3049
  344MOL0     H47445   7.778   2.668   4.513  1.5585  0.1861 -1.2367
  344MOL0     H47446   8.045   2.556   4.486  0.3844  2.3465 -0.6561
  344MOL0     H47447   7.960   2.653   4.378 -0.1125  2.2826  2.4465
  344MOL0     H47448   7.885   2.364   4.410  0.9601  0.0930  1.6393
  344MOL0     H47449   7.976   2.436   4.274 -2.9918  0.2734 -2.6057
  344MOL0     H47450   7.699   2.516   4.321 -0.8577 -0.8072 -0.5541
  344MOL0     H47451   7.764   2.395   4.196  2.0376 -0.2415 -0.6305
  344MOL0     H47452   7.571   2.696   5.221 -2.2057  0.5359 -0.1187
  344MOL0     H47453   7.631   2.781   5.471  0.2296 -0.0492  0.6626
  344MOL0     H47454   7.596   3.278   5.741 -2.3127 -2.6557  0.0894
  344MOL0     H47455   7.651   3.337   5.988 -0.5822 -0.3032  0.0816
  344MOL0     H47456   7.380   2.840   6.984  0.1525 -2.3183 -0.6911
  344MOL0     H47457   7.305   2.678   6.820  0.1109  2.0947  4.3134
  344MOL0     H47458   7.391   2.466   6.467 -2.5199 -3.6012  0.5932
  344MOL0     H47459   7.437   2.315   6.292  1.0258  2.5688  0.6634
  344MOL0     H47460   7.164   2.286   5.941 -1.1406 -0.1897 -4.6264
  344MOL0     H47461   7.249   2.435   5.883  0.0129 -0.9772 -1.2529
  344MOL0     H47462   7.364   2.159   5.846 -0.3661  1.3377  2.4164
  344MOL0     H47463   7.427   2.318   5.799  1.6841 -0.2571 -0.1853
  344MOL0     H47464   7.155   2.225   5.687 -0.4296 -1.6270  1.5466
  344MOL0     H47465   7.262   2.354   5.634  0.8793 -0.3140 -1.3046
  344MOL0     H47466   7.336   2.056   5.619 -2.9738 -0.9748 -1.1844
  344MOL0     H47467   7.433   2.188   5.550  0.1855  0.3556  2.8256
  344MOL0     H47468   7.141   2.094   5.272 -1.6500  1.2655  0.4986
  344MOL0     H47469   7.152   2.548   6.040 -0.5868  3.3405  1.8615
  344MOL0     H47470   7.023   2.757   6.256  0.6250 -1.3872  0.0503
  344MOL0     H47471   7.163   2.831   6.169 -0.5809 -0.1854 -2.6152
  344MOL0     H47472   7.045   2.714   6.098 -1.1010  0.2847  0.5564
  345MOL0     O47473   0.478  10.744  11.344 -0.2631  1.0531 -0.1678
  345MOL0     C47474   0.457  10.837  11.426  0.6375  0.5011  0.4232
  345MOL0     O47475   0.549  10.896  11.504 -0.0887  0.2998 -0.5522
  345MOL0     C47476   0.670  10.908  11.451 -0.1035  0.5431 -0.5982
  345MOL0     C47477   0.691  10.943  11.311  0.3906 -0.0115 -0.6755
  345MOL0     C47478   0.816  10.965  11.259  0.6410  0.3192  0.3344
  345MOL0     C47479   0.924  10.939  11.336  0.9173 -0.3583 -0.0659
  345MOL0     O47480   1.043  10.944  11.264  0.3799  0.5095 -0.6163
  345MOL0     C47481   1.149  10.862  11.322 -0.6936 -0.4206  0.4353
  345MOL0     C47482   1.274  10.887  11.237 -0.1983 -0.9388  0.3427
  345MOL0     C47483   1.248  10.852  11.082  0.3982 -0.1014 -0.6396
  345MOL0     C47484   1.370  10.843  11.007  0.2902  0.3569  0.6960
  345MOL0     C47485   1.434  10.983  10.964  0.6929 -0.0624  0.5831
  345MOL0     C47486   1.361  11.049  10.844  0.6837  0.0377 -0.2391
  345MOL0     C47487   1.439  11.157  10.778  0.3966 -0.1153  0.1171
  345MOL0     C47488   1.376  11.222  10.658 -0.3963  0.1870 -0.4511
  345MOL0     N47489   1.430  11.349  10.623 -0.2176  0.2320  0.7397
  345MOL0     C47490   1.564  11.379  10.615  0.5346 -0.7841  1.1221
  345MOL0     C47491   1.564  11.514  10.605  0.4339 -0.0055  0.5926
  345MOL0     C47492   1.683  11.604  10.598  0.8206  0.7214 -0.3802
  345MOL0     C47493   1.679  11.682  10.724  0.0377  0.1444 -0.1402
  345MOL0     C47494   1.808  11.755  10.725 -0.0458  0.3284 -0.8613
  345MOL0     C47495   1.810  11.858  10.845  0.0800  0.2000  0.1796
  345MOL0     O47496   1.797  11.791  10.974 -0.3896 -0.3142  0.7919
  345MOL0     C47497   1.905  11.733  11.030  0.0002  1.2509 -0.1436
  345MOL0     C47498   1.878  11.676  11.154  0.3794  0.7082 -0.0022
  345MOL0     C47499   1.977  11.591  11.216  0.0709 -0.2907 -1.2390
  345MOL0     C47500   1.934  11.550  11.358 -0.4754 -0.9575  0.6392
  345MOL0     C47501   2.092  11.559  11.158  0.7179  0.4075  0.0595
  345MOL0     C47502   2.199  11.463  11.207  0.4804  0.7274 -0.3889
  345MOL0     O47503   2.199  11.429  11.342 -0.5618 -0.0836  0.3112
  345MOL0     C47504   2.320  11.365  11.387 -0.7990 -0.3237 -0.0529
  345MOL0     C47505   2.348  11.233  11.357 -0.1059  0.9411 -0.1895
  345MOL0     C47506   2.480  11.185  11.387  0.6573  0.5262 -0.5961
  345MOL0     C47507   2.576  11.269  11.443  0.7047 -0.5344 -0.4505
  345MOL0     O47508   2.702  11.212  11.457 -0.4028 -0.4085  0.1958
  345MOL0     C47509   2.823  11.290  11.477  0.3657 -0.3382 -0.2825
  345MOL0     C47510   2.880  11.345  11.347  0.1346  0.7427 -0.1973
  345MOL0     C47511   2.997  11.439  11.375  0.9081  0.2098 -0.2804
  345MOL0     C47512   3.060  11.512  11.260 -0.0073  0.6605 -0.4400
  345MOL0     C47513   2.994  11.635  11.213  0.1609  0.7812  0.4781
  345MOL0     C47514   2.982  11.737  11.318  0.8426 -0.2486  0.4693
  345MOL0     C47515   3.016  11.871  11.271  0.2771 -0.0963 -0.2123
  345MOL0     C47516   2.974  11.975  11.377 -0.0106  0.5486  1.0440
  345MOL0    Cl47517   3.091  12.112  11.363  0.2866 -0.6118 -0.0413
  345MOL0     C47518   2.542  11.408  11.468 -0.6777 -0.2038 -0.0006
  345MOL0     C47519   2.407  11.456  11.440  1.1586  0.0194 -0.6250
  345MOL0     O47520   2.279  11.413  11.131 -0.0145 -0.2961 -0.0402
  345MOL0     C47521   2.116  11.612  11.025 -0.1032  0.5576  0.1139
  345MOL0     C47522   2.024  11.702  10.968 -0.5908  0.8880 -1.0423
  345MOL0     N47523   1.432  11.558  10.603 -0.5186 -0.6087  0.2490
  345MOL0     N47524   1.355  11.459  10.626  0.0480  1.3326  0.1652
  345MOL0     C47525   0.905  10.919  11.473 -0.7618  0.2925 -0.3298
  345MOL0     C47526   0.778  10.905  11.535  0.1182 -0.4410  0.7778
  345MOL0     C47527   0.311  10.876  11.454 -0.0478 -0.0665  0.2319
  345MOL0     C47528   0.217  10.834  11.355 -0.6827  0.1633  0.0626
  345MOL0     C47529   0.090  10.898  11.342 -0.4540 -0.5633 -0.7922
  345MOL0     C47530   0.043  10.988  11.440 -0.0566 -0.2513  0.3227
  345MOL0     O47531  -0.071  11.052  11.446  0.2114  0.6339 -0.3058
  345MOL0     C47532  -0.058  11.166  11.355 -0.3223 -0.5015  0.1896
  345MOL0     C47533  -0.043  11.280  11.441 -0.2013  0.0463 -0.6727
  345MOL0     C47534  -0.175  11.335  11.510 -0.3057  0.1023 -0.3796
  345MOL0     C47535  -0.218  11.254  11.623  0.4324  0.7955 -0.0897
  345MOL0     C47536  -0.122  11.265  11.734 -0.0590 -0.3903  0.0513
  345MOL0     C47537  -0.042  11.286  11.825 -0.1214 -0.2942 -0.7732
  345MOL0     C47538   0.134  11.007  11.543 -0.6231  1.1312 -0.2485
  345MOL0     C47539   0.262  10.966  11.557  0.1940  0.2017  0.5689
  345MOL0     C47540   0.347  11.014  11.670 -0.5945  0.6932 -0.0390
  345MOL0     H47541   0.603  10.960  11.250 -1.5569  1.5401  2.3004
  345MOL0     H47542   0.833  10.982  11.153 -2.9302  0.1348 -0.3887
  345MOL0     H47543   1.125  10.755  11.317 -4.1915  0.3033 -0.8376
  345MOL0     H47544   1.178  10.893  11.423 -1.1781  0.7851  0.2151
  345MOL0     H47545   1.315  10.987  11.250 -2.0351  0.3099 -2.4170
  345MOL0     H47546   1.357  10.828  11.275 -0.1809 -2.5025 -1.9007
  345MOL0     H47547   1.195  10.756  11.075  0.5015 -0.1885 -0.2730
  345MOL0     H47548   1.185  10.929  11.036 -4.2025 -2.8809  0.2783
  345MOL0     H47549   1.445  10.782  11.059  1.1811 -0.1876 -1.1415
  345MOL0     H47550   1.348  10.787  10.916  0.4907  1.2892  0.0607
  345MOL0     H47551   1.538  10.958  10.942 -0.1194 -3.8354  0.4524
  345MOL0     H47552   1.437  11.049  11.052 -2.6237 -2.1003  2.4000
  345MOL0     H47553   1.325  10.976  10.770  0.8121 -1.0255  0.7149
  345MOL0     H47554   1.274  11.093  10.894  0.3631 -0.1183 -0.6548
  345MOL0     H47555   1.533  11.107  10.754  0.6754 -1.0654  2.8269
  345MOL0     H47556   1.459  11.232  10.855 -3.8497  0.5688  0.8166
  345MOL0     H47557   1.384  11.149  10.577  0.4900  3.2848 -3.3982
  345MOL0     H47558   1.275  11.242  10.694 -0.7614 -0.3944 -1.1275
  345MOL0     H47559   1.650  11.313  10.605 -0.4228 -1.8899 -0.3433
  345MOL0     H47560   1.666  11.679  10.521  3.1463  2.9557  1.1150
  345MOL0     H47561   1.774  11.550  10.574  1.9087  1.4860  1.7682
  345MOL0     H47562   1.602  11.760  10.723  0.0245  0.1344  0.0799
  345MOL0     H47563   1.664  11.614  10.809 -4.8849  0.1514 -0.7017
  345MOL0     H47564   1.888  11.687  10.754  1.5104  2.3125 -0.2891
  345MOL0     H47565   1.834  11.797  10.627  0.1030 -2.8392 -2.2765
  345MOL0     H47566   1.901  11.917  10.832  1.1756 -1.7773 -1.6341
  345MOL0     H47567   1.727  11.926  10.822 -1.3514 -0.8147  2.0737
  345MOL0     H47568   1.791  11.697  11.216  2.7453  1.4732  3.3662
  345MOL0     H47569   2.003  11.579  11.438  1.5830 -0.8566 -1.0663
  345MOL0     H47570   1.929  11.441  11.358 -1.2871 -0.9354 -0.1623
  345MOL0     H47571   1.835  11.585  11.390 -0.8985 -4.5758  4.0073
  345MOL0     H47572   2.292  11.167  11.292  3.4564 -0.0094 -2.5265
  345MOL0     H47573   2.502  11.081  11.366  4.1795  1.0723 -0.1790
  345MOL0     H47574   2.811  11.362  11.559  0.3057  1.3813 -1.7470
  345MOL0     H47575   2.894  11.224  11.528  0.1169 -1.9992 -1.9546
  345MOL0     H47576   2.904  11.263  11.278 -3.3032 -1.3494  0.8666
  345MOL0     H47577   2.806  11.420  11.318  0.0668  2.4781  3.8168
  345MOL0     H47578   3.087  11.384  11.404  1.1781  0.3200 -0.8916
  345MOL0     H47579   2.971  11.513  11.450  0.3880  1.0683 -1.2849
  345MOL0     H47580   3.070  11.451  11.169 -2.9319 -2.9303  1.3856
  345MOL0     H47581   3.158  11.552  11.289 -1.3319  4.1765 -0.3064
  345MOL0     H47582   3.051  11.686  11.135 -0.5584  0.9592  0.0648
  345MOL0     H47583   2.891  11.612  11.185  1.1093 -0.4474 -2.2807
  345MOL0     H47584   3.053  11.715  11.398  3.8841  1.3134 -1.5957
  345MOL0     H47585   2.881  11.739  11.360 -0.1052  0.9110 -1.7389
  345MOL0     H47586   2.955  11.891  11.183 -0.6049  0.8507  0.5927
  345MOL0     H47587   3.124  11.863  11.257  0.2357 -1.6251  0.2013
  345MOL0     H47588   2.981  11.941  11.481  1.0999 -1.5734  0.3388
  345MOL0     H47589   2.872  12.005  11.352 -0.0989 -1.5337 -1.5632
  345MOL0     H47590   2.613  11.483  11.501  1.2684 -1.3646 -1.3710
  345MOL0     H47591   2.375  11.559  11.458  2.0290  0.1994 -0.0089
  345MOL0     H47592   2.204  11.589  10.967 -0.6135  2.0103 -1.2853
  345MOL0     H47593   2.039  11.752  10.873  0.1621 -1.1498 -2.0755
  345MOL0     H47594   0.999  10.909  11.526 -0.1980 -0.0215 -1.3604
  345MOL0     H47595   0.769  10.889  11.642 -1.0673  1.7036  1.0554
  345MOL0     H47596   0.243  10.774  11.268  0.8805 -0.1547  0.7107
  345MOL0     H47597   0.038  10.884  11.248 -1.6563  1.4142 -0.4593
  345MOL0     H47598   0.031  11.161  11.291 -2.1015  0.8885 -2.5539
  345MOL0     H47599  -0.160  11.168  11.316 -0.6435  2.3987  1.0069
  345MOL0     H47600  -0.009  11.358  11.373  3.5241 -1.1459 -0.4378
  345MOL0     H47601   0.027  11.253  11.522 -1.6755 -3.1872 -0.3075
  345MOL0     H47602  -0.165  11.436  11.548  0.3855  1.1485 -3.0820
  345MOL0     H47603  -0.261  11.337  11.442 -1.4685 -1.1884  0.9726
  345MOL0     H47604  -0.237  11.148  11.601 -1.9846  1.0039  0.6986
  345MOL0     H47605  -0.316  11.295  11.647  0.9864  1.6160  0.8460
  345MOL0     H47606   0.038  11.287  11.896 -1.1599 -2.1929  0.5093
  345MOL0     H47607   0.099  11.077  11.618 -2.7572 -0.0096 -0.1019
  345MOL0     H47608   0.398  11.106  11.640  1.5943 -1.2612 -2.8615
  345MOL0     H47609   0.273  11.039  11.747 -0.0490  1.6854  0.1776
  345MOL0     H47610   0.420  10.939  11.704 -0.6679 -0.3139 -1.9527
  346MOL0     O47611   7.722   9.327  10.406 -0.1558 -0.2500  0.2197
  346MOL0     C47612   7.683   9.242  10.485  0.3233  0.6153  0.6899
  346MOL0     O47613   7.553   9.204  10.496 -0.7445 -0.4901  0.0002
  346MOL0     C47614   7.460   9.270  10.425  0.1326 -0.1614  0.0716
  346MOL0     C47615   7.415   9.395  10.463 -0.2885  0.3783  0.2371
  346MOL0     C47616   7.324   9.468  10.379  0.8619  0.4475 -1.2345
  346MOL0     C47617   7.278   9.409  10.264 -0.0187 -0.7404  0.2751
  346MOL0     O47618   7.177   9.472  10.193 -0.4052  0.4382 -0.4578
  346MOL0     C47619   7.120   9.595  10.223  0.4201  0.2982  0.3592
  346MOL0     C47620   6.995   9.602  10.318  1.5033 -1.1104  0.8793
  346MOL0     C47621   6.867   9.539  10.248  0.0910 -0.2006  0.5753
  346MOL0     C47622   6.883   9.399  10.200  0.5083 -0.8338 -0.4033
  346MOL0     C47623   6.742   9.321  10.195  0.4995  0.0628 -0.0170
  346MOL0     C47624   6.676   9.372  10.062 -0.1614  0.2589 -0.1197
  346MOL0     C47625   6.526   9.349  10.066 -0.0767  0.0725  0.0242
  346MOL0     C47626   6.441   9.440  10.167 -0.3277  0.2180  0.1837
  346MOL0     N47627   6.459   9.584  10.157  0.8023 -0.1056  0.4208
  346MOL0     C47628   6.415   9.674  10.253 -0.3332  0.1999 -0.6860
  346MOL0     C47629   6.463   9.795  10.204  0.1030 -0.5740 -0.0807
  346MOL0     C47630   6.446   9.929  10.286 -0.3652 -0.0168  0.4841
  346MOL0     C47631   6.575   9.958  10.374  0.8138 -0.2276  0.1075
  346MOL0     C47632   6.614   9.857  10.484 -0.3247 -1.0645  0.7611
  346MOL0     C47633   6.520   9.879  10.604  0.0186 -0.7987  0.5673
  346MOL0     O47634   6.509   9.770  10.695  0.0557  0.5524 -0.0133
  346MOL0     C47635   6.472   9.659  10.635  0.4584  0.6493 -0.2478
  346MOL0     C47636   6.554   9.548  10.634 -1.5346 -0.0630  0.3390
  346MOL0     C47637   6.515   9.419  10.597  0.0690  0.0138  1.4977
  346MOL0     C47638   6.609   9.309  10.621 -0.1646  0.3232  0.0607
  346MOL0     C47639   6.385   9.395  10.556  0.3916  0.1757 -0.0194
  346MOL0     C47640   6.332   9.265  10.519 -0.6854  0.8980  0.9637
  346MOL0     O47641   6.325   9.169  10.614 -0.1382  0.2126 -0.6801
  346MOL0     C47642   6.272   9.048  10.577  0.3282 -0.0566  0.1774
  346MOL0     C47643   6.209   8.972  10.678  0.2252 -0.5778  0.3563
  346MOL0     C47644   6.156   8.849  10.639  0.7594 -0.1487 -0.0875
  346MOL0     C47645   6.147   8.812  10.509 -0.6642 -0.8292 -0.8097
  346MOL0     O47646   6.090   8.693  10.477  0.3815  0.8077  0.2206
  346MOL0     C47647   5.950   8.692  10.447  0.0609 -0.5934 -0.1456
  346MOL0     C47648   5.915   8.638  10.308  0.7140  0.0550 -0.4780
  346MOL0     C47649   6.024   8.660  10.200  0.5431  0.0433 -0.8145
  346MOL0     C47650   5.991   8.561  10.079  0.0961 -0.4163  0.6161
  346MOL0     C47651   6.042   8.625   9.947  0.3717 -0.7957 -0.2600
  346MOL0     C47652   5.934   8.703   9.867 -0.0906 -0.4856  0.2011
  346MOL0     C47653   5.849   8.620   9.757  0.0292 -0.4095 -0.8490
  346MOL0     C47654   5.772   8.728   9.674 -1.5076  1.5620 -0.2289
  346MOL0    Cl47655   5.711   8.632   9.546  0.2284  0.1646 -0.2036
  346MOL0     C47656   6.228   8.880  10.413 -0.4612  0.3114  0.0286
  346MOL0     C47657   6.295   8.996  10.450  0.9754  0.6301  0.7106
  346MOL0     O47658   6.267   9.267  10.406 -0.4018 -0.2122 -0.3615
  346MOL0     C47659   6.297   9.508  10.562 -0.3650 -0.0224  0.2035
  346MOL0     C47660   6.341   9.634  10.590  0.4616  0.6575  0.3396
  346MOL0     N47661   6.518   9.778  10.085 -0.3474  0.5110  0.0744
  346MOL0     N47662   6.512   9.661  10.056  0.9946  0.8558  0.3679
  346MOL0     C47663   7.324   9.285  10.218 -0.1388 -0.2237  1.1267
  346MOL0     C47664   7.421   9.217  10.296  0.1817 -0.3598  0.5868
  346MOL0     C47665   7.785   9.163  10.562  0.7956 -1.7213 -0.4921
  346MOL0     C47666   7.723   9.068  10.655  0.1723  0.0854 -0.9123
  346MOL0     C47667   7.803   8.995  10.744 -0.0625 -0.3072  0.0166
  346MOL0     C47668   7.944   9.016  10.735  0.3667  0.3228  0.2527
  346MOL0     O47669   8.023   8.933  10.813 -0.6927 -0.2864 -0.3392
  346MOL0     C47670   8.116   8.848  10.749 -0.4770  0.4540 -0.1166
  346MOL0     C47671   8.111   8.710  10.810  0.6719  0.1515  0.8580
  346MOL0     C47672   8.229   8.638  10.729 -0.2744 -0.3478  0.4338
  346MOL0     C47673   8.246   8.488  10.761 -0.3806  1.1508 -0.1347
  346MOL0     C47674   8.340   8.428  10.662  0.5468  0.4749 -0.0707
  346MOL0     C47675   8.430   8.375  10.592  0.7205 -0.2556  0.0413
  346MOL0     C47676   8.005   9.113  10.658 -0.9865  0.2289 -0.3592
  346MOL0     C47677   7.929   9.190  10.571 -0.2465  0.0030  0.1958
  346MOL0     C47678   7.995   9.297  10.486 -0.0995  0.2564 -0.2150
  346MOL0     H47679   7.446   9.435  10.560  0.8118 -0.2019  0.1453
  346MOL0     H47680   7.296   9.567  10.414 -2.8074 -0.3256 -1.5075
  346MOL0     H47681   7.077   9.625  10.127 -0.6132  1.8996  1.2624
  346MOL0     H47682   7.195   9.670  10.251  2.3216 -0.5955 -2.0429
  346MOL0     H47683   7.020   9.545  10.408  1.9676  1.9242  2.8561
  346MOL0     H47684   6.981   9.706  10.349 -3.5903 -1.8578  2.0433
  346MOL0     H47685   6.787   9.542  10.323 -1.4620  1.7062 -1.0449
  346MOL0     H47686   6.832   9.607  10.169  0.6920  1.5846  1.7889
  346MOL0     H47687   6.930   9.401  10.101  3.6932  2.0059  0.9431
  346MOL0     H47688   6.958   9.356  10.268  0.3168 -1.6508 -0.6972
  346MOL0     H47689   6.684   9.348  10.284  2.5528  1.6273  0.9285
  346MOL0     H47690   6.764   9.214  10.191  0.8504  0.1676 -2.7876
  346MOL0     H47691   6.706   9.475  10.043 -1.9402  2.2411  5.6100
  346MOL0     H47692   6.730   9.315   9.987  2.8233  0.3880  1.7649
  346MOL0     H47693   6.497   9.253  10.110 -2.6275  0.3479 -0.8892
  346MOL0     H47694   6.486   9.346   9.965  0.3889 -3.1719 -0.1700
  346MOL0     H47695   6.338   9.403  10.168 -0.8226  1.5565  0.8444
  346MOL0     H47696   6.469   9.414  10.269  1.7392 -1.3041 -0.6814
  346MOL0     H47697   6.384   9.652  10.354  3.3516 -1.7340  0.1789
  346MOL0     H47698   6.355   9.921  10.346  0.8759  1.4229  2.7285
  346MOL0     H47699   6.423  10.002  10.208  2.5965 -0.7864 -1.2889
  346MOL0     H47700   6.663   9.987  10.315  0.1500  0.0838 -0.7525
  346MOL0     H47701   6.558  10.058  10.414 -0.3781  1.2217 -3.5440
  346MOL0     H47702   6.598   9.759  10.440 -0.5723 -0.5234 -0.3779
  346MOL0     H47703   6.718   9.863  10.516  0.3152 -2.0193 -1.0068
  346MOL0     H47704   6.552   9.972  10.651  0.6976  1.4023 -3.7588
  346MOL0     H47705   6.417   9.893  10.568 -0.2659  0.6200  1.8280
  346MOL0     H47706   6.660   9.573  10.642 -2.3575  4.0260  0.5250
  346MOL0     H47707   6.559   9.213  10.638 -0.2171  0.3344 -0.0294
  346MOL0     H47708   6.669   9.330  10.710 -0.7940  2.5951 -0.0073
  346MOL0     H47709   6.669   9.296  10.531  0.0119  1.1490  0.0548
  346MOL0     H47710   6.209   9.011  10.779 -2.5405  1.5032 -0.3073
  346MOL0     H47711   6.115   8.784  10.715  2.4261  1.1227  2.0177
  346MOL0     H47712   5.905   8.627  10.522 -2.1169  0.0026 -0.8510
  346MOL0     H47713   5.915   8.796  10.449  1.6673  0.0458 -2.0516
  346MOL0     H47714   5.892   8.530  10.310 -1.4807  0.4781  0.5028
  346MOL0     H47715   5.815   8.678  10.289  0.4786  1.3280  2.8482
  346MOL0     H47716   6.122   8.634  10.242  0.9578  2.8485  0.1699
  346MOL0     H47717   6.021   8.767  10.177  0.4868  0.2642  0.1995
  346MOL0     H47718   5.881   8.556  10.079  0.1337 -3.0292 -0.8723
  346MOL0     H47719   6.029   8.460  10.089 -3.0575 -1.9639 -1.3634
  346MOL0     H47720   6.131   8.682   9.974 -1.1731  1.1521  1.0095
  346MOL0     H47721   6.082   8.542   9.888  0.8021 -1.2000  0.5760
  346MOL0     H47722   5.982   8.784   9.812 -0.1260 -0.1225  0.6938
  346MOL0     H47723   5.868   8.758   9.935 -0.3888  2.4755 -2.2320
  346MOL0     H47724   5.782   8.570   9.827  1.8675  1.4497  2.5348
  346MOL0     H47725   5.913   8.554   9.699 -0.0120  0.4552 -1.9143
  346MOL0     H47726   5.848   8.804   9.659 -1.0807  1.4021  0.9962
  346MOL0     H47727   5.696   8.786   9.727 -3.2187 -1.3753  0.7670
  346MOL0     H47728   6.230   8.830  10.317  0.4573  0.2815  0.0549
  346MOL0     H47729   6.360   9.039  10.374 -2.4473  3.5198 -0.9164
  346MOL0     H47730   6.204   9.505  10.507 -1.0764  1.3249  1.2499
  346MOL0     H47731   6.267   9.713  10.596 -0.4201 -0.1495  0.4304
  346MOL0     H47732   7.288   9.244  10.123  0.7321 -0.2316  0.7940
  346MOL0     H47733   7.463   9.121  10.269  0.9791 -0.1030  0.8802
  346MOL0     H47734   7.616   9.051  10.653  0.1701  0.0284 -0.4758
  346MOL0     H47735   7.763   8.918  10.810  0.6253  0.0121  0.8179
  346MOL0     H47736   8.090   8.848  10.642 -1.9615  1.6384  0.2139
  346MOL0     H47737   8.219   8.884  10.743  0.6415 -2.5984 -5.0723
  346MOL0     H47738   8.008   8.675  10.798  0.9070  0.1789 -2.1078
  346MOL0     H47739   8.127   8.719  10.918 -0.3377 -1.3213  1.1674
  346MOL0     H47740   8.198   8.658  10.626  1.7670 -2.8604 -0.7643
  346MOL0     H47741   8.320   8.696  10.747 -2.1507  3.1571 -0.3968
  346MOL0     H47742   8.149   8.437  10.751  1.3440 -2.3280 -0.5027
  346MOL0     H47743   8.285   8.472  10.862 -2.0905 -0.5850  0.3121
  346MOL0     H47744   8.492   8.343  10.511  0.1822 -2.5286  0.4562
  346MOL0     H47745   8.111   9.136  10.669 -1.2387  0.0377  4.5745
  346MOL0     H47746   7.972   9.275  10.381 -1.7732  0.6391  0.0429
  346MOL0     H47747   7.935   9.387  10.496 -2.1346 -1.0010 -0.5476
  346MOL0     H47748   8.099   9.311  10.518 -0.3930 -0.0019  0.8917
  347MOL0     O47749  11.082   5.340   8.165 -0.1068 -1.0055  0.1958
  347MOL0     C47750  11.188   5.402   8.135 -0.5242  0.1170 -0.7352
  347MOL0     O47751  11.197   5.530   8.075  0.2738  0.0760  0.0220
  347MOL0     C47752  11.114   5.629   8.117 -0.3471 -1.1512 -0.7941
  347MOL0     C47753  10.988   5.622   8.185 -1.3336  0.1947  0.9897
  347MOL0     C47754  10.921   5.743   8.221  0.4711  0.4207  0.6914
  347MOL0     C47755  10.970   5.872   8.190  0.3965  0.9756 -0.2150
  347MOL0     O47756  10.897   5.985   8.207 -0.1764  1.0476  0.9421
  347MOL0     C47757  10.783   5.989   8.294  0.0017 -0.0474 -0.2304
  347MOL0     C47758  10.722   6.122   8.314  0.1508 -0.6668 -0.5167
  347MOL0     C47759  10.636   6.114   8.441 -0.5233  0.4712 -0.4578
  347MOL0     C47760  10.558   6.231   8.480 -0.4598 -0.0956 -1.0691
  347MOL0     C47761  10.649   6.328   8.555  0.4316 -0.2017 -0.3156
  347MOL0     C47762  10.604   6.334   8.705  0.6754  0.3536 -0.7826
  347MOL0     C47763  10.695   6.408   8.809  0.6981  0.1849 -0.0706
  347MOL0     C47764  10.682   6.358   8.950  1.0456  0.9806 -0.0285
  347MOL0     N47765  10.786   6.409   9.035 -0.4482 -0.9798 -0.1580
  347MOL0     C47766  10.917   6.377   9.003 -0.7571 -0.8378  0.5138
  347MOL0     C47767  10.993   6.454   9.087  0.3562 -0.6266 -1.9268
  347MOL0     C47768  11.139   6.472   9.095  0.2622  0.3852  1.0658
  347MOL0     C47769  11.202   6.360   9.173 -0.4325 -0.3313 -0.2188
  347MOL0     C47770  11.360   6.374   9.166  0.4800  0.2167  0.5027
  347MOL0     C47771  11.428   6.264   9.247  0.4641  0.0216  0.1758
  347MOL0     O47772  11.430   6.142   9.166  0.1487 -0.8284  0.2194
  347MOL0     C47773  11.453   6.019   9.225 -0.5914 -1.4279 -0.2683
  347MOL0     C47774  11.469   6.001   9.363  0.6346 -0.1323 -0.4153
  347MOL0     C47775  11.500   5.874   9.408 -0.3608  0.1535 -1.0188
  347MOL0     C47776  11.522   5.866   9.553  0.4041 -0.8673  0.3126
  347MOL0     C47777  11.510   5.762   9.324  0.2565 -0.6489 -0.2521
  347MOL0     C47778  11.556   5.625   9.358  0.4155  0.0884 -0.0245
  347MOL0     O47779  11.590   5.596   9.485  0.4754  0.2953 -0.8961
  347MOL0     C47780  11.648   5.481   9.532  0.1691  0.2612 -0.0434
  347MOL0     C47781  11.718   5.379   9.455 -0.0238 -0.0166  0.1150
  347MOL0     C47782  11.785   5.279   9.524 -0.2790 -1.0598  0.0378
  347MOL0     C47783  11.780   5.272   9.667 -0.8233  0.3547  0.3832
  347MOL0     O47784  11.836   5.178   9.741  0.5101  0.1601  0.3560
  347MOL0     C47785  11.751   5.061   9.762 -0.5385  0.4120  0.6288
  347MOL0     C47786  11.837   4.960   9.825 -0.2438  0.5761  0.7780
  347MOL0     C47787  11.749   4.847   9.885  0.2890 -0.1481  0.3040
  347MOL0     C47788  11.841   4.726   9.922  0.1624 -0.5181 -0.2650
  347MOL0     C47789  11.951   4.762  10.026  0.3871  0.5443  0.9931
  347MOL0     C47790  11.898   4.778  10.162 -0.5593 -0.1715  0.8004
  347MOL0     C47791  11.895   4.926  10.198 -0.1429 -0.4174  0.0466
  347MOL0     C47792  11.788   4.953  10.304 -0.0869 -0.0669  1.2407
  347MOL0    Cl47793  11.814   4.862  10.452  0.7169  0.0395 -0.2659
  347MOL0     C47794  11.706   5.363   9.733  0.7332  1.0636 -0.6237
  347MOL0     C47795  11.632   5.458   9.668 -1.0105 -0.0590 -0.7049
  347MOL0     O47796  11.565   5.543   9.266  0.6393 -0.7608 -0.1906
  347MOL0     C47797  11.491   5.788   9.186 -0.4455 -0.4434  0.2896
  347MOL0     C47798  11.465   5.910   9.136  0.7769  0.2773  0.6944
  347MOL0     N47799  10.900   6.533   9.162  0.1564  0.1648  0.0631
  347MOL0     N47800  10.779   6.506   9.125  0.3252  0.0388 -0.2619
  347MOL0     C47801  11.100   5.872   8.132 -0.8323 -0.6016 -0.5971
  347MOL0     C47802  11.171   5.754   8.099  0.3613 -0.3433  0.2694
  347MOL0     C47803  11.326   5.338   8.144 -0.3700  0.8593  0.2371
  347MOL0     C47804  11.419   5.380   8.046  0.2028  0.0418  0.5631
  347MOL0     C47805  11.543   5.324   8.048  0.2652 -0.4198  0.5364
  347MOL0     C47806  11.587   5.231   8.144  1.3246 -0.4212 -0.0248
  347MOL0     O47807  11.719   5.181   8.135  0.9357  0.2916  0.1481
  347MOL0     C47808  11.765   5.068   8.215 -0.1758  0.7392 -0.7165
  347MOL0     C47809  11.918   5.052   8.184 -0.8998  0.8804 -0.5286
  347MOL0     C47810  11.932   4.983   8.044 -0.4816 -0.0895  0.0209
  347MOL0     C47811  11.962   5.084   7.934 -0.2519 -0.0538  0.3299
  347MOL0     C47812  12.082   5.160   7.967 -0.6971  0.3426 -0.0135
  347MOL0     C47813  12.180   5.214   8.004 -0.5831 -0.5451  0.4161
  347MOL0     C47814  11.497   5.189   8.241  0.0856 -0.2078  0.1116
  347MOL0     C47815  11.365   5.240   8.237 -0.4496 -0.8538  0.4279
  347MOL0     C47816  11.266   5.171   8.328  1.5267  0.4007  1.1523
  347MOL0     H47817  10.940   5.527   8.206 -1.0291 -0.0372  0.6478
  347MOL0     H47818  10.818   5.734   8.254 -0.4038  0.4818 -1.8047
  347MOL0     H47819  10.819   5.957   8.393 -1.3911 -0.7234  0.0817
  347MOL0     H47820  10.702   5.932   8.250  0.1304 -0.7986  0.4832
  347MOL0     H47821  10.801   6.195   8.334 -1.3858  0.9219  0.0397
  347MOL0     H47822  10.661   6.145   8.226 -0.0361 -1.1968 -0.5245
  347MOL0     H47823  10.559   6.038   8.423  1.2436 -2.1351  2.0751
  347MOL0     H47824  10.704   6.072   8.516 -0.5213 -0.7144 -1.0861
  347MOL0     H47825  10.522   6.279   8.389  2.1178 -0.9028 -2.5981
  347MOL0     H47826  10.475   6.198   8.544  1.3865  0.1310  1.6350
  347MOL0     H47827  10.627   6.428   8.516 -3.1285  0.2316  2.2089
  347MOL0     H47828  10.755   6.311   8.534  0.6237  3.1163 -2.7888
  347MOL0     H47829  10.498   6.361   8.711  0.0594 -2.0664  0.5531
  347MOL0     H47830  10.618   6.231   8.738  1.1447  0.6160 -0.1343
  347MOL0     H47831  10.682   6.516   8.802  0.4461  0.3403  2.1526
  347MOL0     H47832  10.798   6.390   8.775  0.7583 -0.7060  0.5339
  347MOL0     H47833  10.582   6.380   8.986 -0.7219  1.4720 -4.5170
  347MOL0     H47834  10.693   6.249   8.955  2.5058  1.0634 -0.7137
  347MOL0     H47835  10.980   6.326   8.931 -1.5284  1.7489 -2.1769
  347MOL0     H47836  11.152   6.570   9.143  0.3332  0.0803  1.6883
  347MOL0     H47837  11.175   6.474   8.992  0.4907 -0.6646  1.1214
  347MOL0     H47838  11.176   6.376   9.278  0.1699 -3.7551  0.5934
  347MOL0     H47839  11.147   6.268   9.152 -2.4469  1.3228 -2.8476
  347MOL0     H47840  11.390   6.372   9.061  0.2636  2.0690  0.3657
  347MOL0     H47841  11.370   6.480   9.191 -1.4300  1.0045 -1.7117
  347MOL0     H47842  11.525   6.288   9.291 -0.8154  4.7604  0.9436
  347MOL0     H47843  11.357   6.245   9.329  1.1778 -2.7495  0.2405
  347MOL0     H47844  11.456   6.085   9.430  0.2049 -0.3716 -0.1909
  347MOL0     H47845  11.457   5.793   9.604  1.7006 -4.3821 -2.6308
  347MOL0     H47846  11.490   5.960   9.599 -0.9593  0.9063 -3.7895
  347MOL0     H47847  11.629   5.847   9.552  0.4882 -0.7242 -2.8467
  347MOL0     H47848  11.730   5.367   9.348 -2.6671 -1.9801 -0.0596
  347MOL0     H47849  11.851   5.219   9.462 -0.3189  1.5933 -2.8212
  347MOL0     H47850  11.671   5.099   9.825 -0.6153  0.3849  0.5490
  347MOL0     H47851  11.702   5.033   9.668 -0.1464  1.4740  0.0853
  347MOL0     H47852  11.914   4.918   9.758 -0.4104  1.5665 -0.0620
  347MOL0     H47853  11.896   5.015   9.898 -0.1742  2.5750 -0.6918
  347MOL0     H47854  11.672   4.807   9.819 -3.5546  2.6063  2.6875
  347MOL0     H47855  11.699   4.893   9.971 -0.5945 -0.5310  0.0109
  347MOL0     H47856  11.878   4.684   9.828 -1.1650  1.5215 -1.7859
  347MOL0     H47857  11.777   4.646   9.960  1.8790 -2.6684 -1.5862
  347MOL0     H47858  12.031   4.688  10.033  0.8351  1.1354  3.1918
  347MOL0     H47859  12.005   4.851   9.991  0.8909 -0.0657  0.1764
  347MOL0     H47860  11.956   4.720  10.235 -0.8550  0.6451  1.6969
  347MOL0     H47861  11.801   4.729  10.174 -0.0232 -1.0538  1.7845
  347MOL0     H47862  11.884   4.992  10.112  2.4341  1.9976  1.3872
  347MOL0     H47863  11.994   4.945  10.241 -1.3789 -0.7899  3.4417
  347MOL0     H47864  11.699   4.908  10.259  1.4123 -2.5920  0.6154
  347MOL0     H47865  11.778   5.058  10.335  3.5283  0.5356  0.8473
  347MOL0     H47866  11.694   5.368   9.840 -0.4806 -0.6957 -0.6307
  347MOL0     H47867  11.589   5.528   9.739 -2.1737 -1.0412 -0.4125
  347MOL0     H47868  11.498   5.713   9.108 -2.5175 -0.2766 -0.1262
  347MOL0     H47869  11.447   5.922   9.030  0.4665  1.3509  0.8490
  347MOL0     H47870  11.147   5.970   8.127 -3.7619  1.1600  2.3963
  347MOL0     H47871  11.269   5.763   8.054  0.4331 -0.4713  0.4008
  347MOL0     H47872  11.396   5.437   7.957  3.1482 -1.2849 -1.1834
  347MOL0     H47873  11.605   5.357   7.966  0.6927 -0.0374  1.0023
  347MOL0     H47874  11.746   5.084   8.321  0.3542 -2.2327 -0.0912
  347MOL0     H47875  11.703   4.982   8.188  1.6931 -0.5410 -1.1081
  347MOL0     H47876  11.972   5.004   8.267  1.4078  4.2840  0.1474
  347MOL0     H47877  11.969   5.148   8.187  0.1787  0.3588 -1.6674
  347MOL0     H47878  12.019   4.916   8.043  2.5872  3.5072  0.8925
  347MOL0     H47879  11.844   4.923   8.019 -0.6671  0.2056 -0.0363
  347MOL0     H47880  11.872   5.140   7.907  0.6020 -0.0781 -2.9446
  347MOL0     H47881  11.986   5.024   7.847 -3.9134 -2.8239  1.0239
  347MOL0     H47882  12.269   5.268   8.029 -0.3363 -1.0573  0.6627
  347MOL0     H47883  11.531   5.120   8.318  1.8325 -0.3783 -0.7685
  347MOL0     H47884  11.219   5.245   8.393 -0.3720 -0.0040  0.3061
  347MOL0     H47885  11.185   5.125   8.271  3.0988 -3.7013  1.7986
  347MOL0     H47886  11.315   5.081   8.368 -0.6001 -1.3789 -0.0028
  348MOL0     O47887   5.864   4.667   6.943  0.4432 -1.0069  0.4366
  348MOL0     C47888   5.784   4.736   6.882 -0.4861 -0.1186  0.6999
  348MOL0     O47889   5.764   4.722   6.742  0.2082  0.1882 -0.1105
  348MOL0     C47890   5.829   4.630   6.667  0.2643  0.1874  0.1473
  348MOL0     C47891   5.767   4.505   6.642 -0.5344  0.5785 -0.2235
  348MOL0     C47892   5.834   4.414   6.556  1.2267  0.7540 -0.4186
  348MOL0     C47893   5.957   4.445   6.491 -1.0021 -0.5155  0.1473
  348MOL0     O47894   6.017   4.348   6.409 -0.4307  0.5319 -0.0868
  348MOL0     C47895   5.964   4.207   6.405 -0.7383 -0.6376 -0.5559
  348MOL0     C47896   6.071   4.130   6.325  0.2482 -0.3934  0.3037
  348MOL0     C47897   6.037   3.978   6.325  0.2609  0.6967  0.8066
  348MOL0     C47898   6.092   3.917   6.194  0.4624  0.3351 -0.4013
  348MOL0     C47899   6.054   3.987   6.060 -0.3968  0.4011  0.1239
  348MOL0     C47900   6.125   3.895   5.951  1.0855  0.6099  0.3688
  348MOL0     C47901   6.093   3.929   5.803 -0.1400  0.3383  0.6327
  348MOL0     C47902   5.941   3.894   5.777 -0.1792 -0.1701  0.2572
  348MOL0     N47903   5.856   4.023   5.775 -0.3300 -0.0924 -0.5554
  348MOL0     C47904   5.858   4.122   5.678 -0.5058 -0.8426 -0.4532
  348MOL0     C47905   5.755   4.199   5.711  0.2992 -0.1073 -0.9000
  348MOL0     C47906   5.692   4.320   5.649 -0.1183  0.3789  0.3904
  348MOL0     C47907   5.782   4.382   5.545  0.4023 -0.1953  0.9024
  348MOL0     C47908   5.754   4.538   5.549  0.0677  0.3876  0.5915
  348MOL0     C47909   5.609   4.575   5.517  0.2482 -0.1554  0.1213
  348MOL0     O47910   5.549   4.482   5.429 -0.1390  0.5467  0.4956
  348MOL0     C47911   5.572   4.501   5.289 -0.4611  0.6736  0.1322
  348MOL0     C47912   5.492   4.417   5.216  0.7964  0.1678 -0.0821
  348MOL0     C47913   5.475   4.440   5.078  0.1203 -0.5964 -1.0787
  348MOL0     C47914   5.400   4.324   5.006 -0.0717 -0.5020  0.3734
  348MOL0     C47915   5.542   4.549   5.013  0.3516  0.2472 -1.0820
  348MOL0     C47916   5.507   4.598   4.878  0.2202 -0.4774  0.5222
  348MOL0     O47917   5.595   4.680   4.813 -0.5730 -0.4676 -0.3608
  348MOL0     C47918   5.551   4.744   4.696  0.4660 -0.3325  0.5533
  348MOL0     C47919   5.425   4.799   4.672  0.0281  0.0231 -0.2521
  348MOL0     C47920   5.397   4.851   4.547 -0.6248 -0.2101 -0.3571
  348MOL0     C47921   5.484   4.851   4.439  0.4489 -0.3896  0.3279
  348MOL0     O47922   5.449   4.922   4.320  0.4153 -0.5858 -0.3785
  348MOL0     C47923   5.549   4.964   4.222 -0.2306  1.2111  0.0489
  348MOL0     C47924   5.482   5.065   4.126  0.0027 -1.1640 -0.0050
  348MOL0     C47925   5.563   5.047   3.998  0.0453 -0.9591  0.9583
  348MOL0     C47926   5.687   5.129   3.993 -0.5146  0.1169  0.3024
  348MOL0     C47927   5.711   5.195   3.856 -0.2314  0.0853  0.3379
  348MOL0     C47928   5.791   5.091   3.782 -0.2857  0.2308 -0.7165
  348MOL0     C47929   5.831   5.128   3.633 -0.7552  0.1383  0.0963
  348MOL0     C47930   5.900   5.008   3.559  0.5008 -0.8181 -0.0475
  348MOL0    Cl47931   5.970   5.083   3.408 -0.1133 -0.4311 -0.3632
  348MOL0     C47932   5.612   4.811   4.464  0.8469 -0.4462 -0.5870
  348MOL0     C47933   5.645   4.762   4.590  0.1592  0.8552  0.0594
  348MOL0     O47934   5.400   4.553   4.831  0.3730 -0.0071  0.3108
  348MOL0     C47935   5.631   4.630   5.097  0.4059 -0.7285  0.0502
  348MOL0     C47936   5.641   4.610   5.232  0.5090 -0.2674 -0.4147
  348MOL0     N47937   5.688   4.148   5.829 -0.5370 -0.5312  0.4182
  348MOL0     N47938   5.753   4.047   5.870  0.3032 -0.0871 -0.1818
  348MOL0     C47939   6.018   4.568   6.520  0.1448 -0.3648  0.1250
  348MOL0     C47940   5.949   4.661   6.608 -0.3897  0.3630  0.0812
  348MOL0     C47941   5.699   4.834   6.959  0.7398 -0.2769  0.6610
  348MOL0     C47942   5.595   4.895   6.878  0.8264 -0.4902 -0.2690
  348MOL0     C47943   5.519   4.999   6.929 -0.1644  1.0882  0.6116
  348MOL0     C47944   5.518   5.027   7.065 -0.6183 -0.3827  0.6540
  348MOL0     O47945   5.416   5.101   7.120  0.8043 -0.0564 -0.3114
  348MOL0     C47946   5.281   5.051   7.110 -0.0742 -0.3704  0.5354
  348MOL0     C47947   5.199   5.113   7.220  0.0311  0.3787 -0.6087
  348MOL0     C47948   5.250   5.081   7.356 -0.5870  0.4957  0.3418
  348MOL0     C47949   5.179   5.153   7.463  0.3400  0.7206  0.3778
  348MOL0     C47950   5.129   5.289   7.424 -0.2208 -0.7799  0.7523
  348MOL0     C47951   5.098   5.402   7.394  0.2829  0.2056  0.2063
  348MOL0     C47952   5.625   4.983   7.146 -0.0990  0.3445  0.1297
  348MOL0     C47953   5.707   4.880   7.099 -0.2480 -0.2169  0.6466
  348MOL0     C47954   5.810   4.835   7.196  0.0790  0.1357  0.0323
  348MOL0     H47955   5.668   4.487   6.683 -0.4415 -1.4695 -0.8038
  348MOL0     H47956   5.782   4.318   6.549 -0.0086  1.2922  0.8438
  348MOL0     H47957   5.862   4.194   6.367 -0.8587 -0.1837 -0.4006
  348MOL0     H47958   5.970   4.169   6.508 -0.2302  1.5558  0.2756
  348MOL0     H47959   6.083   4.181   6.229  0.9131 -0.0346  0.5685
  348MOL0     H47960   6.170   4.137   6.371  0.9419 -1.9023 -0.8420
  348MOL0     H47961   6.075   3.937   6.419 -2.7176 -1.8246  1.1087
  348MOL0     H47962   5.930   3.963   6.343  0.6478 -0.7418  2.1107
  348MOL0     H47963   6.201   3.933   6.194  0.4214  1.0050  2.0639
  348MOL0     H47964   6.063   3.813   6.181 -0.6320  0.7587 -1.4820
  348MOL0     H47965   6.093   4.088   6.049 -0.8034  0.5167 -0.2899
  348MOL0     H47966   5.946   3.994   6.042 -0.1286  1.5521 -1.1829
  348MOL0     H47967   6.233   3.903   5.966  1.4562 -1.5167 -0.9084
  348MOL0     H47968   6.097   3.792   5.973  0.0130  0.4410 -1.5580
  348MOL0     H47969   6.161   3.878   5.735  1.7106  2.4255  0.8349
  348MOL0     H47970   6.109   4.037   5.793 -5.5768  1.4563  0.8637
  348MOL0     H47971   5.932   3.845   5.679 -2.2630  1.0239 -0.2106
  348MOL0     H47972   5.904   3.820   5.850 -1.3377 -3.2787 -3.1347
  348MOL0     H47973   5.917   4.123   5.587  1.8261 -3.5176  0.8897
  348MOL0     H47974   5.658   4.386   5.729 -0.9611  0.6156 -0.1490
  348MOL0     H47975   5.605   4.289   5.590  1.1707  2.2319 -2.7130
  348MOL0     H47976   5.889   4.364   5.557  0.6659 -1.0926 -2.0913
  348MOL0     H47977   5.767   4.334   5.448  1.2789 -2.7394  1.9250
  348MOL0     H47978   5.781   4.576   5.648  0.4989  0.6713  0.3704
  348MOL0     H47979   5.813   4.595   5.476  0.1839 -0.0042  0.3774
  348MOL0     H47980   5.556   4.562   5.612 -0.2461 -0.0042 -0.1333
  348MOL0     H47981   5.594   4.682   5.499  2.2507 -0.0757 -1.4892
  348MOL0     H47982   5.434   4.335   5.256 -2.1212  0.6204 -2.9993
  348MOL0     H47983   5.295   4.348   5.022 -1.0051 -2.4224 -2.2148
  348MOL0     H47984   5.416   4.223   5.047  2.1280 -0.4313 -0.2036
  348MOL0     H47985   5.425   4.300   4.902 -4.2102 -1.9382 -0.4791
  348MOL0     H47986   5.352   4.790   4.752 -1.1560 -1.1994 -1.4101
  348MOL0     H47987   5.303   4.902   4.529 -0.3934  1.0186  1.6350
  348MOL0     H47988   5.627   5.018   4.276  0.9681 -0.5483  0.1405
  348MOL0     H47989   5.594   4.881   4.166 -1.9826 -1.9620  2.9446
  348MOL0     H47990   5.378   5.036   4.108 -1.3681  0.9630  3.5070
  348MOL0     H47991   5.485   5.166   4.169 -2.3395 -1.6934  1.6442
  348MOL0     H47992   5.494   5.088   3.924  3.3030  0.9620 -1.2664
  348MOL0     H47993   5.568   4.941   3.971 -4.2828 -1.2707  0.6738
  348MOL0     H47994   5.774   5.083   4.040  0.5020  2.8042  1.2288
  348MOL0     H47995   5.666   5.222   4.048  2.9079  0.3149  1.4632
  348MOL0     H47996   5.617   5.222   3.807 -0.0791  3.6434  1.7317
  348MOL0     H47997   5.769   5.288   3.860 -3.5689  2.3048  0.6922
  348MOL0     H47998   5.730   5.000   3.780 -1.0617  0.6830 -4.2953
  348MOL0     H47999   5.882   5.075   3.841 -1.7704  0.8498  1.9080
  348MOL0     H48000   5.894   5.217   3.627 -0.3698 -0.0747  0.8333
  348MOL0     H48001   5.731   5.142   3.591 -2.2117 -4.0477  1.6954
  348MOL0     H48002   5.827   4.928   3.546 -1.2426  0.8298 -0.8443
  348MOL0     H48003   5.983   4.981   3.626  0.3347  3.5735  2.3040
  348MOL0     H48004   5.690   4.814   4.388  1.1212 -4.3710 -0.6877
  348MOL0     H48005   5.739   4.720   4.624 -0.7116  0.8604  2.7252
  348MOL0     H48006   5.658   4.716   5.036  1.0040 -3.0327 -3.1868
  348MOL0     H48007   5.695   4.674   5.300  0.9004  0.1212 -1.0858
  348MOL0     H48008   6.115   4.609   6.492 -0.0103  2.0609  2.7051
  348MOL0     H48009   5.999   4.756   6.625 -1.7074  0.6392  2.9643
  348MOL0     H48010   5.588   4.866   6.774  0.5636  0.1083 -0.4165
  348MOL0     H48011   5.447   5.044   6.861 -0.2412 -1.1456 -0.8941
  348MOL0     H48012   5.228   5.067   7.016  0.1323 -0.4045  0.4115
  348MOL0     H48013   5.277   4.942   7.121 -2.1800 -0.3907 -0.0172
  348MOL0     H48014   5.095   5.084   7.203  1.1447 -2.3335 -3.7840
  348MOL0     H48015   5.200   5.222   7.211 -2.1231  0.6754  1.5797
  348MOL0     H48016   5.247   4.973   7.372 -1.1512  0.1390 -1.8052
  348MOL0     H48017   5.356   5.107   7.362 -1.0261  3.1055 -1.3724
  348MOL0     H48018   5.239   5.152   7.555  0.5875 -2.8471  0.3047
  348MOL0     H48019   5.090   5.096   7.491  1.1187  1.1374  4.2884
  348MOL0     H48020   5.079   5.506   7.379  0.1991  0.2251  0.4388
  348MOL0     H48021   5.639   5.021   7.246 -2.0781 -1.1090  1.0156
  348MOL0     H48022   5.755   4.756   7.248 -1.2178 -0.5083 -2.1848
  348MOL0     H48023   5.899   4.797   7.146 -0.7464  0.9211 -2.1593
  348MOL0     H48024   5.845   4.919   7.257 -0.6673 -0.8419  1.8965
  349MOL0     O48025   5.782   4.785  10.241  0.0958 -0.3375 -0.0985
  349MOL0     C48026   5.810   4.899  10.265 -0.3654  0.2527  0.9524
  349MOL0     O48027   5.929   4.945  10.322 -0.3446 -0.7360 -0.4198
  349MOL0     C48028   6.021   4.853  10.368  0.7594 -0.0789 -0.3950
  349MOL0     C48029   6.056   4.878  10.500  0.1808 -1.1743  1.2421
  349MOL0     C48030   6.165   4.815  10.557  0.6793 -0.1261  0.6839
  349MOL0     C48031   6.235   4.714  10.493  0.8284  0.2226  0.2059
  349MOL0     O48032   6.343   4.653  10.555 -0.3564  0.8422  0.0126
  349MOL0     C48033   6.392   4.528  10.498 -0.2397  0.2848  0.2884
  349MOL0     C48034   6.464   4.435  10.594 -0.5636 -0.1676 -0.0383
  349MOL0     C48035   6.560   4.514  10.691 -0.7582  0.3108  0.1206
  349MOL0     C48036   6.659   4.412  10.766  0.8205 -0.6826  0.7015
  349MOL0     C48037   6.721   4.468  10.893 -0.4361  0.0675 -0.0025
  349MOL0     C48038   6.797   4.371  10.986  0.1445 -0.1071  0.5093
  349MOL0     C48039   6.942   4.353  10.932  0.2894  0.2300  0.0738
  349MOL0     C48040   7.012   4.247  11.027 -0.5996 -0.1570  0.6148
  349MOL0     N48041   6.991   4.119  10.963 -0.5404  0.5009  0.1571
  349MOL0     C48042   7.075   4.075  10.862 -0.7037  0.1137 -1.3114
  349MOL0     C48043   7.044   3.944  10.844  0.2556  0.3393 -0.6307
  349MOL0     C48044   7.109   3.840  10.746  0.6957  0.3624 -0.0604
  349MOL0     C48045   7.239   3.874  10.693  0.2815 -0.4429  0.2039
  349MOL0     C48046   7.253   3.905  10.542  0.1130  0.1891 -0.0371
  349MOL0     C48047   7.164   4.016  10.501 -0.1170 -0.1425  0.5022
  349MOL0     O48048   7.213   4.143  10.566 -0.2003  0.0822 -0.3191
  349MOL0     C48049   7.169   4.268  10.526 -0.4843  0.8644 -0.2573
  349MOL0     C48050   7.184   4.364  10.621  0.2537 -1.1661 -0.1675
  349MOL0     C48051   7.137   4.503  10.594 -0.1172  0.1501 -0.1826
  349MOL0     C48052   7.172   4.610  10.692  0.1821  0.2123  0.3153
  349MOL0     C48053   7.081   4.529  10.471 -0.3947  0.5049 -0.2740
  349MOL0     C48054   7.028   4.665  10.432  0.5865  0.0444  0.3313
  349MOL0     O48055   7.073   4.725  10.319 -0.1806 -0.0416  0.6011
  349MOL0     C48056   7.185   4.693  10.246  0.1194  0.6649 -0.3924
  349MOL0     C48057   7.318   4.708  10.296  1.0574  0.2551 -0.3259
  349MOL0     C48058   7.437   4.672  10.236  0.1618 -0.6161  0.2977
  349MOL0     C48059   7.432   4.627  10.107  0.2153 -1.1904  0.3341
  349MOL0     O48060   7.535   4.585  10.037 -0.3850  0.6750  0.3396
  349MOL0     C48061   7.656   4.651  10.022 -0.7748  0.3213 -0.4042
  349MOL0     C48062   7.719   4.635   9.882  0.1115  1.1718 -0.1646
  349MOL0     C48063   7.652   4.734   9.782 -0.1534 -0.8688 -0.0509
  349MOL0     C48064   7.712   4.731   9.645 -0.2753  0.7088 -0.8536
  349MOL0     C48065   7.637   4.824   9.555 -0.1563  0.5672 -0.7854
  349MOL0     C48066   7.561   4.760   9.442  0.2334  1.3251  0.2353
  349MOL0     C48067   7.660   4.722   9.332 -0.3001 -0.0029 -0.4842
  349MOL0     C48068   7.614   4.639   9.216  0.2122  0.6852 -0.3547
  349MOL0    Cl48069   7.530   4.488   9.270 -0.1567 -0.4260  0.0389
  349MOL0     C48070   7.303   4.617  10.049  0.1914  0.2402  0.7278
  349MOL0     C48071   7.182   4.646  10.112 -0.2509 -0.5572 -0.3841
  349MOL0     O48072   6.946   4.722  10.505  0.5124  0.4963 -0.6781
  349MOL0     C48073   7.061   4.419  10.382  0.3832 -0.9205  0.2739
  349MOL0     C48074   7.112   4.287  10.403  0.2956 -0.2817 -0.7891
  349MOL0     N48075   6.939   3.919  10.940  0.3917  0.0426  0.2331
  349MOL0     N48076   6.896   4.031  10.994 -0.7792 -0.7763  0.1737
  349MOL0     C48077   6.196   4.682  10.360  0.2379  0.8052 -0.0014
  349MOL0     C48078   6.093   4.755  10.292 -0.0111  0.8260 -0.0817
  349MOL0     C48079   5.718   5.018  10.241 -0.1756  0.2522 -0.1864
  349MOL0     C48080   5.707   5.116  10.338  0.5390  0.5481  0.9667
  349MOL0     C48081   5.632   5.229  10.316  0.3885  0.4163 -0.5410
  349MOL0     C48082   5.551   5.256  10.206 -1.0121 -0.1840  0.1486
  349MOL0     O48083   5.492   5.367  10.176  0.1765 -0.0082  0.0451
  349MOL0     C48084   5.569   5.482  10.127  0.3147 -1.0377 -0.1953
  349MOL0     C48085   5.474   5.594  10.092  1.1161 -1.0631  0.6173
  349MOL0     C48086   5.527   5.732  10.143  0.4874  1.0944 -0.1863
  349MOL0     C48087   5.466   5.844  10.065  0.9470  0.7864  0.2981
  349MOL0     C48088   5.477   5.967  10.140 -0.2464 -0.5625  0.8973
  349MOL0     C48089   5.486   6.056  10.220 -0.1870  0.4672  0.9262
  349MOL0     C48090   5.557   5.155  10.115  0.0539  0.4001  0.2683
  349MOL0     C48091   5.647   5.036  10.126  0.3325 -0.3341 -0.1548
  349MOL0     C48092   5.652   4.945   9.988  0.3280 -0.4812  0.2930
  349MOL0     H48093   6.002   4.954  10.556 -0.4835 -1.5111  1.0636
  349MOL0     H48094   6.185   4.830  10.662  2.3859  1.8012  0.1662
  349MOL0     H48095   6.464   4.564  10.423  1.7499  0.2869  2.0864
  349MOL0     H48096   6.316   4.471  10.445  0.2763 -2.5893  2.3792
  349MOL0     H48097   6.392   4.380  10.656  2.2807 -1.7347  2.0767
  349MOL0     H48098   6.512   4.350  10.544 -1.9650 -0.2867 -1.2815
  349MOL0     H48099   6.616   4.586  10.630 -1.1596  0.0115 -0.6123
  349MOL0     H48100   6.505   4.569  10.768  1.7388  1.7098  1.0237
  349MOL0     H48101   6.602   4.322  10.790  0.9312 -1.5715 -2.0613
  349MOL0     H48102   6.736   4.380  10.695 -1.1947 -3.1111 -0.5641
  349MOL0     H48103   6.642   4.504  10.960 -0.6613  0.1455 -0.3094
  349MOL0     H48104   6.790   4.549  10.867  0.3711 -0.0651  1.6062
  349MOL0     H48105   6.807   4.420  11.083  0.7335  1.2931 -0.2313
  349MOL0     H48106   6.743   4.277  10.998  0.2176 -0.5928 -2.1932
  349MOL0     H48107   6.972   4.455  10.956 -1.3886  0.8879 -0.4755
  349MOL0     H48108   6.941   4.328  10.825 -1.8983 -0.2903  0.1787
  349MOL0     H48109   7.120   4.266  11.024 -0.6683  1.4465 -5.4933
  349MOL0     H48110   6.983   4.258  11.132  3.3961  1.5447  1.7535
  349MOL0     H48111   7.148   4.131  10.804 -0.1152 -1.5623 -2.2511
  349MOL0     H48112   7.034   3.814  10.671  0.5010 -2.1353  0.8770
  349MOL0     H48113   7.105   3.746  10.802 -2.3576 -0.3222 -1.2320
  349MOL0     H48114   7.278   3.954  10.757  0.0873  0.7891 -1.1593
  349MOL0     H48115   7.311   3.802  10.732  3.0183  2.7342  1.5589
  349MOL0     H48116   7.357   3.920  10.512  0.9885  0.0435  2.6677
  349MOL0     H48117   7.218   3.820  10.482 -3.9711  2.5695 -1.4025
  349MOL0     H48118   7.156   4.018  10.392 -1.9849  3.5258  0.5574
  349MOL0     H48119   7.063   4.000  10.538 -1.0908 -0.4722 -2.1044
  349MOL0     H48120   7.231   4.331  10.713 -1.1148 -1.9197  0.2904
  349MOL0     H48121   7.234   4.584  10.779  1.4349  0.1019 -0.5883
  349MOL0     H48122   7.080   4.645  10.740  1.1146  1.4207  1.2826
  349MOL0     H48123   7.220   4.695  10.643  1.5055  0.7365  2.3588
  349MOL0     H48124   7.317   4.751  10.396 -1.7489  3.3786 -1.5085
  349MOL0     H48125   7.537   4.684  10.278 -0.4776  0.0739  1.6892
  349MOL0     H48126   7.639   4.758  10.038  0.3931  0.3940  0.4490
  349MOL0     H48127   7.730   4.601  10.085 -0.2703 -0.8845 -1.8781
  349MOL0     H48128   7.827   4.646   9.867 -0.0450  0.8552 -1.6510
  349MOL0     H48129   7.694   4.533   9.852 -0.7569  1.2941  0.1022
  349MOL0     H48130   7.671   4.832   9.827  2.1581 -0.4902 -1.7053
  349MOL0     H48131   7.548   4.702   9.774 -0.2493 -0.4509 -0.4870
  349MOL0     H48132   7.712   4.631   9.601 -0.4829  0.2861  0.0916
  349MOL0     H48133   7.817   4.759   9.657  1.0326 -3.5334 -0.8514
  349MOL0     H48134   7.582   4.892   9.620 -0.8494  0.7408 -1.5319
  349MOL0     H48135   7.707   4.893   9.506  0.6643 -1.2728 -2.3617
  349MOL0     H48136   7.480   4.824   9.407  0.4945  1.8912  0.6690
  349MOL0     H48137   7.521   4.670   9.491  1.6689  0.8034  0.4931
  349MOL0     H48138   7.742   4.674   9.385 -0.6810 -0.4670 -0.3054
  349MOL0     H48139   7.700   4.813   9.288 -1.7901  1.4307  0.9441
  349MOL0     H48140   7.705   4.631   9.156  1.1426 -3.3295  1.2977
  349MOL0     H48141   7.545   4.708   9.167  0.2113  2.5524  2.0841
  349MOL0     H48142   7.283   4.586   9.947 -1.2557 -2.0102  1.5998
  349MOL0     H48143   7.084   4.627  10.068  0.3001 -0.1687 -1.8038
  349MOL0     H48144   7.003   4.445  10.293 -1.0215  2.7112  2.0383
  349MOL0     H48145   7.110   4.214  10.323 -0.2482  0.9252 -1.9285
  349MOL0     H48146   6.241   4.599  10.306 -0.3645 -1.7657  3.1261
  349MOL0     H48147   6.074   4.755  10.185 -0.8558 -0.3387  0.0565
  349MOL0     H48148   5.749   5.105  10.438  0.8754  2.6927  1.1079
  349MOL0     H48149   5.624   5.310  10.388 -1.9131 -0.2999  0.1173
  349MOL0     H48150   5.624   5.513  10.216 -1.6520  0.1503  0.6879
  349MOL0     H48151   5.642   5.469  10.047  1.6005 -0.5810  0.8781
  349MOL0     H48152   5.378   5.580  10.142 -2.1792  3.6857 -3.4421
  349MOL0     H48153   5.467   5.603   9.983  1.2951  0.0726  0.6895
  349MOL0     H48154   5.500   5.740  10.249  3.5476  3.0627  0.5900
  349MOL0     H48155   5.636   5.742  10.146  0.4735  1.0232  1.0231
  349MOL0     H48156   5.357   5.843  10.057  1.0650  0.5464 -1.7523
  349MOL0     H48157   5.494   5.844   9.959  0.4375 -2.2772  0.0901
  349MOL0     H48158   5.483   6.132  10.295  0.2295 -0.0470  1.4858
  349MOL0     H48159   5.496   5.153  10.026  0.5575 -3.0906 -0.1404
  349MOL0     H48160   5.553   4.955   9.944  0.1176  0.2032  0.8831
  349MOL0     H48161   5.735   4.966   9.920 -1.1373  5.0213 -0.2590
  349MOL0     H48162   5.666   4.839  10.011  0.3842 -0.7296 -0.8743
  350MOL0     O48163   3.404   0.190  10.210 -0.1257 -1.1663  0.1752
  350MOL0     C48164   3.434   0.306  10.239 -0.6520  0.9232  0.6645
  350MOL0     O48165   3.425   0.366  10.363 -0.7513 -0.0296 -0.2232
  350MOL0     C48166   3.398   0.292  10.474 -0.3878 -0.8817 -0.4666
  350MOL0     C48167   3.277   0.330  10.544 -0.0498  0.2417 -0.7174
  350MOL0     C48168   3.253   0.256  10.655 -0.0123 -0.1379 -0.3269
  350MOL0     C48169   3.329   0.142  10.687  0.1819 -0.2943 -1.1045
  350MOL0     O48170   3.290   0.066  10.797 -0.6316  0.3424  1.3208
  350MOL0     C48171   3.341  -0.072  10.812  0.7323 -0.3928  0.4696
  350MOL0     C48172   3.254  -0.142  10.924 -0.1648  0.5814  0.5487
  350MOL0     C48173   3.239  -0.296  10.897  0.5169 -1.1303 -0.0210
  350MOL0     C48174   3.370  -0.372  10.915  0.0097  1.1167 -0.2673
  350MOL0     C48175   3.347  -0.524  10.909 -0.0117  0.4548 -0.5462
  350MOL0     C48176   3.318  -0.573  10.762 -0.0994 -0.0778 -0.3243
  350MOL0     C48177   3.269  -0.717  10.756  0.1797  0.2055 -0.0221
  350MOL0     C48178   3.140  -0.736  10.836 -0.4351 -0.5048  0.2261
  350MOL0     N48179   3.059  -0.839  10.764 -0.6483 -0.5557 -0.1849
  350MOL0     C48180   3.051  -0.975  10.789 -0.2858  1.4117  0.9535
  350MOL0     C48181   2.955  -1.031  10.709  0.1418 -0.1820  0.3690
  350MOL0     C48182   2.916  -1.173  10.723 -0.5391 -0.5973  1.2882
  350MOL0     C48183   2.764  -1.192  10.737 -0.2869 -0.3067 -0.0815
  350MOL0     C48184   2.720  -1.332  10.703 -0.2107  0.6037  0.2191
  350MOL0     C48185   2.773  -1.437  10.802 -0.5449  0.4456 -0.6498
  350MOL0     O48186   2.720  -1.563  10.756 -0.8923 -0.3333 -0.3850
  350MOL0     C48187   2.670  -1.635  10.860  0.0101 -0.8875 -0.1946
  350MOL0     C48188   2.547  -1.601  10.908  0.5961  0.2145  0.4258
  350MOL0     C48189   2.495  -1.670  11.025 -0.1734  0.2942  0.6302
  350MOL0     C48190   2.357  -1.624  11.070  0.1220  0.2558 -0.5639
  350MOL0     C48191   2.573  -1.782  11.079  0.2460  0.1472  0.4173
  350MOL0     C48192   2.528  -1.875  11.194  0.0861 -0.4582 -0.8156
  350MOL0     O48193   2.614  -1.962  11.260  0.7279  0.2597  0.3014
  350MOL0     C48194   2.586  -2.063  11.341 -0.3403  0.3156  0.2944
  350MOL0     C48195   2.457  -2.104  11.368 -0.3632 -0.4689 -1.3368
  350MOL0     C48196   2.446  -2.221  11.455  0.2439 -0.0228 -0.4006
  350MOL0     C48197   2.558  -2.292  11.495 -1.2913  0.7414 -0.4924
  350MOL0     O48198   2.549  -2.397  11.583 -0.0478  0.0138 -0.1669
  350MOL0     C48199   2.427  -2.429  11.661 -0.1894  0.0562 -0.5725
  350MOL0     C48200   2.441  -2.570  11.708 -0.0513  0.4952 -1.1103
  350MOL0     C48201   2.540  -2.578  11.831  0.0806 -0.6193 -0.2260
  350MOL0     C48202   2.586  -2.722  11.844 -0.8414  0.3004 -0.3443
  350MOL0     C48203   2.669  -2.761  11.962 -1.4588 -0.8418 -0.0946
  350MOL0     C48204   2.705  -2.909  11.950  0.3433 -0.0619  0.2592
  350MOL0     C48205   2.786  -2.958  12.075 -0.5215 -0.5017 -0.7647
  350MOL0     C48206   2.790  -3.102  12.095  0.5254 -0.4004 -0.4518
  350MOL0    Cl48207   2.768  -3.187  11.936 -0.5178  0.2506  0.1306
  350MOL0     C48208   2.684  -2.250  11.464 -0.3671  0.6717  0.4016
  350MOL0     C48209   2.701  -2.135  11.388  0.2174  0.6888 -0.0404
  350MOL0     O48210   2.416  -1.853  11.229  0.1957 -0.0445  0.3539
  350MOL0     C48211   2.692  -1.811  11.014 -0.5816  0.2988  1.0809
  350MOL0     C48212   2.730  -1.747  10.900 -0.1661  0.5928 -0.1801
  350MOL0     N48213   2.922  -0.921  10.619  0.0295 -0.1472 -0.3087
  350MOL0     N48214   2.982  -0.809  10.658  0.8774 -0.3617 -0.1713
  350MOL0     C48215   3.440   0.102  10.615 -1.0142 -0.8095  0.4583
  350MOL0     C48216   3.482   0.185  10.512 -0.2698  0.1132 -0.6834
  350MOL0     C48217   3.479   0.394  10.126 -0.5048  0.0125 -0.9569
  350MOL0     C48218   3.524   0.528  10.158  1.4265 -1.1184  0.4910
  350MOL0     C48219   3.557   0.614  10.054  0.2526 -0.4484  0.0420
  350MOL0     C48220   3.563   0.571   9.923  0.6701 -0.6705  0.2988
  350MOL0     O48221   3.623   0.645   9.818 -0.0094  0.5808 -0.9095
  350MOL0     C48222   3.579   0.775   9.797 -0.8110  0.5332  0.5219
  350MOL0     C48223   3.494   0.767   9.666  0.6133 -0.7150  0.3466
  350MOL0     C48224   3.553   0.694   9.551 -0.1962  0.3301  0.1128
  350MOL0     C48225   3.648   0.770   9.473 -0.9030  0.1418 -0.1198
  350MOL0     C48226   3.698   0.676   9.371 -0.5035  0.1996 -0.7073
  350MOL0     C48227   3.739   0.614   9.279  0.2541  0.6256  0.3265
  350MOL0     C48228   3.533   0.445   9.898  0.0264 -0.1811  0.8741
  350MOL0     C48229   3.505   0.343   9.991  1.0710 -0.3787  0.0554
  350MOL0     C48230   3.447   0.225   9.921 -0.3599  1.0398 -0.5794
  350MOL0     H48231   3.236   0.421  10.501  2.3681  0.0714 -3.6942
  350MOL0     H48232   3.159   0.267  10.709 -0.6165 -0.5983 -1.2458
  350MOL0     H48233   3.446  -0.075  10.841  0.3737 -1.7006  1.7297
  350MOL0     H48234   3.326  -0.124  10.717 -0.5804 -2.2070  1.6108
  350MOL0     H48235   3.288  -0.120  11.026  0.4611 -0.8879  0.6814
  350MOL0     H48236   3.155  -0.095  10.916 -1.2512 -1.7126 -0.6358
  350MOL0     H48237   3.177  -0.341  10.975 -2.3773  1.1945 -0.8016
  350MOL0     H48238   3.181  -0.325  10.809 -2.1382  0.5237  1.0720
  350MOL0     H48239   3.442  -0.348  10.836  0.8080  0.2810  0.1954
  350MOL0     H48240   3.408  -0.340  11.013  4.1282  0.1165 -1.3403
  350MOL0     H48241   3.265  -0.562  10.971  2.5304 -3.1713  0.9479
  350MOL0     H48242   3.438  -0.575  10.942 -0.4601  0.2060  0.3071
  350MOL0     H48243   3.238  -0.508  10.725  1.3703  1.6400 -0.6322
  350MOL0     H48244   3.407  -0.572  10.700  1.8886 -1.7036  2.3026
  350MOL0     H48245   3.359  -0.774  10.784  0.2511 -0.0038 -0.6409
  350MOL0     H48246   3.247  -0.729  10.649  0.1143  4.4274 -0.6197
  350MOL0     H48247   3.156  -0.781  10.935 -1.0069 -2.2236 -0.4227
  350MOL0     H48248   3.087  -0.641  10.842  1.8963  1.0070 -1.3702
  350MOL0     H48249   3.091  -1.035  10.869 -2.7817  0.5423  1.6538
  350MOL0     H48250   2.963  -1.213  10.814 -1.2769  1.2381  2.5359
  350MOL0     H48251   2.952  -1.229  10.636 -2.3038  0.2057 -0.0032
  350MOL0     H48252   2.728  -1.170  10.838 -2.4064 -1.3728 -0.5425
  350MOL0     H48253   2.715  -1.115  10.677 -1.3223 -1.3935 -0.6910
  350MOL0     H48254   2.611  -1.329  10.688 -0.1380 -1.1318 -1.0079
  350MOL0     H48255   2.763  -1.355  10.605 -0.3302 -0.7341  0.4542
  350MOL0     H48256   2.881  -1.454  10.795 -0.8319 -1.1723 -1.7632
  350MOL0     H48257   2.749  -1.406  10.904 -0.8597 -0.2679 -0.5041
  350MOL0     H48258   2.489  -1.532  10.847 -0.8524 -1.6594 -0.4570
  350MOL0     H48259   2.323  -1.524  11.044  2.3761  1.3199  0.3405
  350MOL0     H48260   2.362  -1.631  11.179  4.3125 -0.8377 -0.6364
  350MOL0     H48261   2.284  -1.693  11.025  1.1563 -0.8720 -0.5764
  350MOL0     H48262   2.366  -2.051  11.344  0.4858  3.0382  2.1280
  350MOL0     H48263   2.348  -2.249  11.494 -0.8881  3.5998 -0.1955
  350MOL0     H48264   2.418  -2.356  11.742  0.2848  1.2136 -1.5275
  350MOL0     H48265   2.343  -2.430  11.591  1.0447 -2.2331 -2.1757
  350MOL0     H48266   2.345  -2.598  11.752 -1.4636  3.1710 -2.2389
  350MOL0     H48267   2.485  -2.638  11.634  1.1209  0.4805 -0.4388
  350MOL0     H48268   2.495  -2.556  11.928  2.9914 -0.6832  1.2560
  350MOL0     H48269   2.627  -2.516  11.805 -2.5971  2.5352 -2.5281
  350MOL0     H48270   2.641  -2.746  11.752 -4.0944 -3.0266 -1.6620
  350MOL0     H48271   2.500  -2.789  11.839 -0.4593 -0.1107 -2.6085
  350MOL0     H48272   2.757  -2.695  11.966 -0.4638 -2.1390  0.4168
  350MOL0     H48273   2.615  -2.736  12.054  1.4311 -0.4460  1.6247
  350MOL0     H48274   2.760  -2.946  11.863 -1.5754 -4.4984  0.6466
  350MOL0     H48275   2.604  -2.950  11.954 -0.1773  1.2752  1.7341
  350MOL0     H48276   2.751  -2.915  12.169 -1.9676 -1.6256 -0.7491
  350MOL0     H48277   2.889  -2.923  12.073 -0.0790 -1.7927 -1.9380
  350MOL0     H48278   2.709  -3.131  12.163 -1.0869 -0.8006 -2.4431
  350MOL0     H48279   2.882  -3.112  12.153  1.1344  1.8895 -0.9122
  350MOL0     H48280   2.774  -2.298  11.501  0.4740  2.5821  0.9735
  350MOL0     H48281   2.799  -2.099  11.358 -0.0267  0.3064 -1.3491
  350MOL0     H48282   2.739  -1.905  11.039  1.5593  1.6476  2.4655
  350MOL0     H48283   2.828  -1.767  10.857  0.4176  0.3711  1.1909
  350MOL0     H48284   3.509   0.021  10.636 -0.5333 -0.7164 -0.6791
  350MOL0     H48285   3.578   0.173  10.462  0.4652 -1.7052  1.0760
  350MOL0     H48286   3.522   0.571  10.258  1.1073  1.2092 -0.4691
  350MOL0     H48287   3.584   0.713  10.089 -1.2152 -0.4673  1.3205
  350MOL0     H48288   3.528   0.820   9.883 -0.4657  0.9355  0.5149
  350MOL0     H48289   3.669   0.831   9.771 -0.0378 -1.6602 -2.0340
  350MOL0     H48290   3.465   0.869   9.638  1.4654 -1.0964 -2.1071
  350MOL0     H48291   3.406   0.712   9.702  0.8970 -0.6899  1.1074
  350MOL0     H48292   3.588   0.596   9.584 -0.3953  0.5561  1.0314
  350MOL0     H48293   3.471   0.665   9.484  0.4511 -0.7838 -0.2093
  350MOL0     H48294   3.726   0.808   9.539 -0.6868  0.6896 -0.6749
  350MOL0     H48295   3.590   0.849   9.426 -1.1459  0.3419  0.5101
  350MOL0     H48296   3.753   0.546   9.197  2.6919 -1.8467  2.6088
  350MOL0     H48297   3.551   0.422   9.794 -2.7177  0.6638  0.1524
  350MOL0     H48298   3.456   0.131   9.976  0.0851  2.1805  1.3928
  350MOL0     H48299   3.342   0.242   9.897 -0.6301  2.7229  1.4736
  350MOL0     H48300   3.506   0.205   9.831 -0.3594 -0.0984 -0.3455
  351MOL0     O48301   5.898   5.099   6.886  0.7147 -0.4594  0.2889
  351MOL0     C48302   5.892   5.207   6.833  0.3187 -0.1118 -0.2045
  351MOL0     O48303   5.837   5.242   6.706 -0.4965  0.4735 -0.3512
  351MOL0     C48304   5.779   5.137   6.633  0.2153 -0.2977 -0.6471
  351MOL0     C48305   5.861   5.044   6.569 -0.3322  0.0225  1.0518
  351MOL0     C48306   5.810   4.956   6.477  0.4934 -0.0151 -0.3785
  351MOL0     C48307   5.670   4.952   6.453  0.6600  0.1566  0.0520
  351MOL0     O48308   5.594   4.873   6.370  0.4178 -0.2051 -0.5214
  351MOL0     C48309   5.615   4.734   6.389 -0.2104 -0.7932  0.1004
  351MOL0     C48310   5.521   4.670   6.285  0.0525  0.1905  0.5594
  351MOL0     C48311   5.558   4.523   6.280  1.0992 -0.1254  1.0626
  351MOL0     C48312   5.491   4.469   6.156 -0.4215  0.6225  0.4715
  351MOL0     C48313   5.485   4.316   6.159  0.3698  0.2097  0.6884
  351MOL0     C48314   5.387   4.252   6.058 -0.6595 -0.0193 -0.1835
  351MOL0     C48315   5.392   4.310   5.910 -0.0405  0.4138  0.2756
  351MOL0     C48316   5.317   4.217   5.809 -0.0620 -0.5149 -0.9760
  351MOL0     N48317   5.249   4.281   5.696 -0.8447 -0.2951 -0.3363
  351MOL0     C48318   5.257   4.240   5.563  0.6114 -0.1171 -0.2297
  351MOL0     C48319   5.171   4.330   5.505 -0.6282  0.6858 -0.3069
  351MOL0     C48320   5.157   4.354   5.356  0.1601 -0.9511  1.2456
  351MOL0     C48321   5.006   4.389   5.326  0.1940 -0.8324  0.1335
  351MOL0     C48322   4.896   4.293   5.374  0.7352  0.5721 -0.8158
  351MOL0     C48323   4.925   4.146   5.356 -0.2337 -0.5509 -0.0711
  351MOL0     O48324   5.003   4.125   5.237  0.1150 -0.7319 -0.0931
  351MOL0     C48325   4.987   4.018   5.153 -1.2882  0.4545  0.3573
  351MOL0     C48326   4.915   3.897   5.169  0.1550 -0.2063  0.3888
  351MOL0     C48327   4.871   3.811   5.069  0.0873 -0.1275 -1.7123
  351MOL0     C48328   4.782   3.686   5.114 -0.5134 -0.5532 -0.1374
  351MOL0     C48329   4.900   3.835   4.933 -0.2393  0.9987 -0.5228
  351MOL0     C48330   4.863   3.750   4.817  0.3904 -0.8844 -0.2029
  351MOL0     O48331   4.900   3.802   4.694  0.4141 -0.1523  0.4929
  351MOL0     C48332   4.848   3.764   4.574  0.4182 -0.2215  0.4720
  351MOL0     C48333   4.814   3.863   4.483 -0.0020  0.0443  0.3015
  351MOL0     C48334   4.772   3.822   4.357  0.1085  0.3960 -0.1156
  351MOL0     C48335   4.747   3.693   4.323 -0.8669 -0.6049  0.3721
  351MOL0     O48336   4.701   3.660   4.202  0.1282  0.2993  0.1038
  351MOL0     C48337   4.594   3.563   4.176  0.3789 -0.3561 -0.1364
  351MOL0     C48338   4.465   3.606   4.238 -0.3555  0.8759 -0.5848
  351MOL0     C48339   4.442   3.542   4.375 -1.2410 -0.1566 -0.7657
  351MOL0     C48340   4.412   3.649   4.478 -0.0434  0.7147  0.4653
  351MOL0     C48341   4.391   3.579   4.614 -0.5229 -0.1103  0.0290
  351MOL0     C48342   4.506   3.530   4.688  0.0269 -0.4000 -0.8804
  351MOL0     C48343   4.476   3.508   4.847  0.4427 -0.4874 -0.2102
  351MOL0     C48344   4.565   3.387   4.888  0.1504 -0.1351  0.7107
  351MOL0    Cl48345   4.512   3.342   5.056  0.5189 -0.3648  0.2240
  351MOL0     C48346   4.773   3.595   4.412 -0.0045 -0.3541 -0.0688
  351MOL0     C48347   4.829   3.624   4.538  0.3982 -0.1292  1.5300
  351MOL0     O48348   4.800   3.651   4.828  0.4413  0.9347  0.5616
  351MOL0     C48349   4.968   3.963   4.913  0.2476 -0.7170 -0.0020
  351MOL0     C48350   5.017   4.047   5.018 -0.4336  0.0212 -0.0138
  351MOL0     N48351   5.095   4.396   5.597  0.5526 -0.0160  0.3020
  351MOL0     N48352   5.156   4.382   5.710 -0.5415  0.1126 -0.7508
  351MOL0     C48353   5.593   5.046   6.528 -0.1047 -0.8362  0.2090
  351MOL0     C48354   5.641   5.132   6.622 -0.1814  0.5870 -0.6469
  351MOL0     C48355   5.942   5.332   6.916 -0.3433  0.1095  0.0933
  351MOL0     C48356   5.987   5.444   6.841 -0.3282 -0.1586  0.8696
  351MOL0     C48357   6.012   5.569   6.890  0.2901 -0.2170 -0.7101
  351MOL0     C48358   5.994   5.585   7.026  0.6314  0.5074 -0.2680
  351MOL0     O48359   6.043   5.698   7.073 -0.1668  0.0357  0.8500
  351MOL0     C48360   5.945   5.789   7.128  0.3596 -0.2701  0.1802
  351MOL0     C48361   5.983   5.929   7.094  0.3049 -0.3922 -0.7201
  351MOL0     C48362   6.110   5.985   7.167 -1.2613  0.3985 -0.3857
  351MOL0     C48363   6.180   6.092   7.080 -1.0531  0.3017 -0.3981
  351MOL0     C48364   6.295   6.147   7.154 -0.6439 -0.0773  0.6209
  351MOL0     C48365   6.388   6.183   7.221  0.3019  0.8780  0.1545
  351MOL0     C48366   5.942   5.482   7.109 -0.4576 -0.2204  0.1912
  351MOL0     C48367   5.926   5.348   7.060  0.4517 -0.4226 -0.7430
  351MOL0     C48368   5.852   5.245   7.140  0.5515 -0.7223 -0.7593
  351MOL0     H48369   5.967   5.048   6.594 -0.4805  0.1204  1.6915
  351MOL0     H48370   5.874   4.883   6.430  0.1300  1.7791 -4.0211
  351MOL0     H48371   5.599   4.705   6.493  5.0842 -0.9404  1.1548
  351MOL0     H48372   5.722   4.715   6.378  0.4122  2.0170  0.4763
  351MOL0     H48373   5.416   4.692   6.305  0.1107 -1.5343  3.1891
  351MOL0     H48374   5.535   4.715   6.186 -1.2774  0.5759  0.5235
  351MOL0     H48375   5.663   4.495   6.286  0.2413 -5.3143 -1.7517
  351MOL0     H48376   5.517   4.485   6.374 -2.0117  0.3109  0.0196
  351MOL0     H48377   5.387   4.494   6.133 -0.0845  0.2177 -1.7570
  351MOL0     H48378   5.552   4.500   6.071 -0.2453  1.9628  1.0583
  351MOL0     H48379   5.461   4.270   6.255 -3.1559 -1.7480 -0.9509
  351MOL0     H48380   5.585   4.285   6.130  2.1567  4.2303  1.7132
  351MOL0     H48381   5.416   4.147   6.051  2.9638  0.7999  0.4822
  351MOL0     H48382   5.290   4.260   6.107  0.0601 -1.8603  1.7022
  351MOL0     H48383   5.499   4.312   5.886  0.2239  0.0569  1.4095
  351MOL0     H48384   5.344   4.408   5.912  0.8276  0.8312  1.8637
  351MOL0     H48385   5.391   4.141   5.782  0.8022  1.2692 -4.1223
  351MOL0     H48386   5.237   4.165   5.863 -0.5399 -0.1620 -1.3373
  351MOL0     H48387   5.330   4.182   5.507  0.0882 -1.6493  0.6079
  351MOL0     H48388   5.207   4.279   5.294  2.7543  1.4360  0.2609
  351MOL0     H48389   5.215   4.442   5.325 -1.7922 -0.2006 -0.4415
  351MOL0     H48390   4.987   4.489   5.367  1.7233 -1.2574  2.0134
  351MOL0     H48391   4.998   4.391   5.216 -0.6314 -2.0215  0.1612
  351MOL0     H48392   4.895   4.304   5.483  0.8892 -1.2368 -0.5959
  351MOL0     H48393   4.794   4.319   5.345 -0.6250  0.1474  2.9159
  351MOL0     H48394   4.981   4.100   5.438 -1.2487  0.4106  1.1968
  351MOL0     H48395   4.828   4.096   5.347 -0.4543 -0.0359 -0.6016
  351MOL0     H48396   4.866   3.881   5.265 -2.3609  3.1394 -0.1338
  351MOL0     H48397   4.825   3.598   5.065  0.9574  0.3324 -0.4930
  351MOL0     H48398   4.686   3.695   5.062 -0.0234 -1.5073 -1.2514
  351MOL0     H48399   4.773   3.677   5.222  1.2299 -0.7489  0.0152
  351MOL0     H48400   4.828   3.970   4.495  0.5805 -0.0433  0.4453
  351MOL0     H48401   4.741   3.892   4.280  1.6925  3.0058  1.4777
  351MOL0     H48402   4.577   3.542   4.070 -0.4150 -0.3149 -0.0184
  351MOL0     H48403   4.629   3.469   4.220  2.1132  1.9760  4.0008
  351MOL0     H48404   4.462   3.715   4.251 -0.8535  0.8797 -0.7044
  351MOL0     H48405   4.379   3.586   4.174 -1.2307  3.6461 -0.4286
  351MOL0     H48406   4.529   3.483   4.407  1.0740  2.0953 -2.5058
  351MOL0     H48407   4.359   3.470   4.372 -0.0259 -1.5898 -1.7163
  351MOL0     H48408   4.314   3.693   4.460 -0.5268 -0.0790  1.0690
  351MOL0     H48409   4.479   3.735   4.488 -2.4685  3.0331 -1.8459
  351MOL0     H48410   4.363   3.666   4.675 -2.2062  2.7879 -4.3365
  351MOL0     H48411   4.317   3.500   4.600  1.1849 -1.5261 -1.5023
  351MOL0     H48412   4.593   3.594   4.670  0.9969 -1.4824 -0.2318
  351MOL0     H48413   4.519   3.430   4.644 -1.8717 -2.0474  2.0116
  351MOL0     H48414   4.370   3.483   4.858  0.4724 -1.7873 -2.2951
  351MOL0     H48415   4.505   3.597   4.903  1.6526 -1.5230  0.8793
  351MOL0     H48416   4.670   3.418   4.880 -0.3236  0.8660 -2.7736
  351MOL0     H48417   4.538   3.304   4.822 -4.5146  1.9707 -0.3756
  351MOL0     H48418   4.758   3.491   4.387 -2.5573  0.0967 -0.7772
  351MOL0     H48419   4.858   3.552   4.613  2.4162  2.4381  3.3931
  351MOL0     H48420   4.999   3.994   4.814 -0.3358 -0.3983 -0.0918
  351MOL0     H48421   5.069   4.141   4.999 -1.8944  0.9064  0.1645
  351MOL0     H48422   5.487   5.033   6.507 -0.1989  1.1879 -0.8108
  351MOL0     H48423   5.559   5.193   6.660 -2.1291  0.1598 -3.8092
  351MOL0     H48424   5.976   5.441   6.733 -0.9995  2.7685  0.7527
  351MOL0     H48425   6.051   5.646   6.825 -0.0752  3.8764  3.3684
  351MOL0     H48426   5.847   5.770   7.083 -0.5589  0.7252  1.6885
  351MOL0     H48427   5.931   5.768   7.235  2.6157 -0.9309  0.4127
  351MOL0     H48428   5.899   5.995   7.116  0.5539  0.2489 -1.6679
  351MOL0     H48429   5.992   5.926   6.985  0.4821 -0.7710 -0.6976
  351MOL0     H48430   6.085   6.017   7.268 -1.0578  1.3197 -0.6177
  351MOL0     H48431   6.179   5.901   7.181 -2.0983  0.1779  3.1813
  351MOL0     H48432   6.114   6.167   7.037 -0.1253  1.2622 -0.1992
  351MOL0     H48433   6.215   6.040   6.990 -0.1156 -0.8910  0.6101
  351MOL0     H48434   6.456   6.207   7.300 -0.1540 -1.2976  1.2963
  351MOL0     H48435   5.946   5.495   7.217  0.5826 -0.4345  0.1982
  351MOL0     H48436   5.827   5.273   7.243  2.8214 -4.6903  1.1315
  351MOL0     H48437   5.760   5.209   7.094 -1.0198  0.8544  1.0238
  351MOL0     H48438   5.928   5.166   7.148 -0.2950 -1.3800  1.5617
  352MOL0     O48439   3.653   4.949   3.591 -0.3150  0.1606  0.0523
  352MOL0     C48440   3.588   4.929   3.489 -0.3008 -0.1989  0.0408
  352MOL0     O48441   3.599   4.997   3.369  0.3232  0.3967 -0.7401
  352MOL0     C48442   3.697   5.086   3.353 -0.2657 -1.2618  0.0053
  352MOL0     C48443   3.831   5.035   3.315  0.6753 -0.4250  0.2707
  352MOL0     C48444   3.931   5.134   3.296  1.1235  0.9452  0.8954
  352MOL0     C48445   3.895   5.268   3.294  0.4254 -0.3422  1.7218
  352MOL0     O48446   3.986   5.361   3.253  0.3917  0.8497  0.5581
  352MOL0     C48447   4.019   5.331   3.109  0.3201  0.0889 -0.5298
  352MOL0     C48448   3.936   5.400   3.002 -0.2290  0.7710  0.0391
  352MOL0     C48449   3.795   5.342   2.959  0.5121  0.3987  0.2254
  352MOL0     C48450   3.773   5.186   2.957 -0.0818 -0.3728  0.4206
  352MOL0     C48451   3.629   5.132   2.925 -0.2523 -0.6869 -0.4967
  352MOL0     C48452   3.535   5.150   3.045 -0.3717 -0.3225  1.0750
  352MOL0     C48453   3.396   5.082   3.012 -0.7530  0.3443 -0.3617
  352MOL0     C48454   3.306   5.160   2.909  0.1617 -0.2422  0.1672
  352MOL0     N48455   3.238   5.094   2.799 -0.6339 -0.0002 -0.2329
  352MOL0     C48456   3.172   5.159   2.700 -0.6002 -0.3556  0.3939
  352MOL0     C48457   3.142   5.055   2.614  0.5427  0.1935  0.7802
  352MOL0     C48458   3.087   5.088   2.475  0.4670 -0.5049  0.7622
  352MOL0     C48459   3.202   5.077   2.375 -0.4940  0.3707 -0.5579
  352MOL0     C48460   3.235   4.933   2.312 -0.1169 -0.9935  0.2916
  352MOL0     C48461   3.387   4.938   2.269 -1.3516  0.0009  0.0916
  352MOL0     O48462   3.450   4.811   2.284 -0.0465 -0.4553 -0.6535
  352MOL0     C48463   3.491   4.755   2.402  0.7661 -0.5451 -0.3206
  352MOL0     C48464   3.523   4.621   2.401  0.2633 -1.1187  0.6541
  352MOL0     C48465   3.570   4.560   2.519  0.0858  0.5476  0.3303
  352MOL0     C48466   3.604   4.424   2.498 -0.1760 -1.0340  0.7014
  352MOL0     C48467   3.585   4.634   2.642 -0.0305  0.6497 -0.7168
  352MOL0     C48468   3.625   4.570   2.767 -0.2890 -0.9258  0.2788
  352MOL0     O48469   3.700   4.647   2.844 -0.3499 -0.1494 -0.9825
  352MOL0     C48470   3.752   4.589   2.963 -0.0352  0.3667  0.6967
  352MOL0     C48471   3.850   4.497   2.962 -1.3712  0.2111  0.1595
  352MOL0     C48472   3.903   4.434   3.075 -0.1612  0.3066 -0.1884
  352MOL0     C48473   3.853   4.467   3.200 -0.6760 -0.5346 -0.1530
  352MOL0     O48474   3.895   4.405   3.308 -0.0293  0.1464  0.5417
  352MOL0     C48475   3.787   4.347   3.395  0.1166 -0.5566  0.0438
  352MOL0     C48476   3.847   4.220   3.452  0.8429  0.5423  0.0402
  352MOL0     C48477   3.802   4.110   3.360 -0.6467 -0.7312  0.6915
  352MOL0     C48478   3.903   4.095   3.254 -0.0274  0.3469  0.3757
  352MOL0     C48479   3.871   3.994   3.139 -0.0899  0.4498 -0.0608
  352MOL0     C48480   3.825   4.060   3.011  0.9294  0.8336  0.4905
  352MOL0     C48481   3.797   3.957   2.902 -0.3197 -0.4472  1.0782
  352MOL0     C48482   3.653   3.901   2.898  0.8255 -0.2973  0.0085
  352MOL0    Cl48483   3.618   3.808   2.747 -0.0298 -0.1782 -0.2276
  352MOL0     C48484   3.769   4.581   3.204  0.2627  0.7138 -0.1958
  352MOL0     C48485   3.708   4.624   3.092  0.5113  1.1374  0.1881
  352MOL0     O48486   3.592   4.455   2.803  0.1989 -0.3255 -0.2523
  352MOL0     C48487   3.549   4.772   2.635  0.2824  0.3946 -0.1730
  352MOL0     C48488   3.505   4.835   2.515  0.3576  2.3975 -0.4691
  352MOL0     N48489   3.200   4.934   2.661  0.6156  0.4340 -0.2022
  352MOL0     N48490   3.256   4.966   2.770 -0.0689  0.2858  0.5004
  352MOL0     C48491   3.771   5.315   3.336  0.5298  0.2931 -0.2231
  352MOL0     C48492   3.672   5.224   3.373 -0.0459 -0.5365  0.9851
  352MOL0     C48493   3.491   4.812   3.496 -1.1079 -0.3286  0.2252
  352MOL0     C48494   3.454   4.749   3.371 -0.0006 -0.2505  0.3015
  352MOL0     C48495   3.373   4.635   3.368  0.4486  0.2699  0.4750
  352MOL0     C48496   3.302   4.599   3.484 -0.9650 -0.5328  0.0589
  352MOL0     O48497   3.209   4.503   3.458 -0.6477 -0.2374  1.1282
  352MOL0     C48498   3.142   4.428   3.564 -0.1658 -0.3972 -1.0861
  352MOL0     C48499   3.060   4.305   3.517 -0.0597  0.4680 -0.3753
  352MOL0     C48500   2.908   4.329   3.519  0.1424 -0.7150 -0.0871
  352MOL0     C48501   2.818   4.255   3.419  0.1310  0.3463 -0.0668
  352MOL0     C48502   2.860   4.268   3.283  0.8293  0.9359 -0.0088
  352MOL0     C48503   2.915   4.279   3.179 -0.8703  0.2176 -0.1559
  352MOL0     C48504   3.333   4.670   3.601 -0.3984 -0.2309 -0.4932
  352MOL0     C48505   3.425   4.776   3.611 -0.0823 -0.6605 -0.4640
  352MOL0     C48506   3.446   4.833   3.751  0.1036  0.0564  0.8213
  352MOL0     H48507   3.846   4.928   3.314 -4.1338 -1.3372  1.0156
  352MOL0     H48508   4.033   5.102   3.280  0.1937 -2.2445  0.6198
  352MOL0     H48509   4.017   5.226   3.078 -2.8108 -0.6761  1.7385
  352MOL0     H48510   4.122   5.367   3.099 -0.7681  2.8906 -2.9493
  352MOL0     H48511   3.925   5.500   3.045  0.7470  0.7212  0.4360
  352MOL0     H48512   3.990   5.409   2.908  2.6002  0.6385  1.5192
  352MOL0     H48513   3.723   5.392   3.024 -2.3501 -2.2258 -0.6870
  352MOL0     H48514   3.781   5.382   2.858  1.9869  1.0189  0.2357
  352MOL0     H48515   3.856   5.145   2.898  0.3669  0.4211  0.4883
  352MOL0     H48516   3.784   5.148   3.060 -1.3528  3.6707  2.2497
  352MOL0     H48517   3.646   5.024   2.917  0.3758 -0.6330  0.0621
  352MOL0     H48518   3.583   5.187   2.842  0.9026  2.6076  0.8657
  352MOL0     H48519   3.576   5.093   3.129 -1.0520 -0.2239  1.4772
  352MOL0     H48520   3.528   5.255   3.077  1.5225  1.1992 -2.8277
  352MOL0     H48521   3.348   5.049   3.104 -3.0776 -0.7293 -1.8761
  352MOL0     H48522   3.426   4.990   2.961 -0.2166 -0.8063  1.9095
  352MOL0     H48523   3.218   5.196   2.964  0.3544  3.3520 -1.5669
  352MOL0     H48524   3.368   5.242   2.872 -1.3095  0.5482 -0.6422
  352MOL0     H48525   3.149   5.264   2.684  0.1305 -0.2428  0.0261
  352MOL0     H48526   3.045   5.189   2.477 -3.1229 -1.8587  0.7364
  352MOL0     H48527   3.004   5.022   2.448  1.6813 -0.7171 -3.0748
  352MOL0     H48528   3.165   5.131   2.287 -0.5538 -1.1597 -1.5162
  352MOL0     H48529   3.283   5.124   2.432 -2.9100  0.9905  2.6422
  352MOL0     H48530   3.232   4.854   2.388 -0.8691 -2.4823 -1.2182
  352MOL0     H48531   3.163   4.916   2.232 -2.2916 -1.2149  2.1649
  352MOL0     H48532   3.411   4.966   2.167  5.2273  0.5201  1.3495
  352MOL0     H48533   3.445   5.008   2.330 -1.4081 -1.1648  1.5554
  352MOL0     H48534   3.511   4.575   2.304 -0.4419  1.4597 -0.5798
  352MOL0     H48535   3.550   4.350   2.558 -3.7049 -2.4254 -3.6254
  352MOL0     H48536   3.710   4.419   2.524 -0.1327 -0.6952  0.5996
  352MOL0     H48537   3.582   4.398   2.393 -2.9719 -1.8392  1.3869
  352MOL0     H48538   3.909   4.465   2.877  0.5148 -1.7898  2.1024
  352MOL0     H48539   3.986   4.366   3.058 -0.3139  0.4663 -1.6894
  352MOL0     H48540   3.792   4.419   3.477 -1.6044  1.3121 -1.3684
  352MOL0     H48541   3.690   4.345   3.343 -0.8314 -2.6345  1.7211
  352MOL0     H48542   3.954   4.218   3.473  0.8425  5.6239  1.7777
  352MOL0     H48543   3.792   4.194   3.543 -3.3942 -3.0979 -3.0948
  352MOL0     H48544   3.709   4.145   3.312 -0.4757  1.5932  1.9066
  352MOL0     H48545   3.778   4.015   3.407  1.1624 -2.0014 -0.8357
  352MOL0     H48546   4.002   4.071   3.294  0.5633 -1.0708 -1.7691
  352MOL0     H48547   3.920   4.192   3.205  1.7297  0.5464  1.3021
  352MOL0     H48548   3.961   3.934   3.124  2.1932  4.1015 -2.5249
  352MOL0     H48549   3.797   3.919   3.170  1.3758 -0.9039  0.2928
  352MOL0     H48550   3.908   4.116   2.967  1.3485 -0.2256 -0.1043
  352MOL0     H48551   3.737   4.122   3.026 -1.1044 -2.4590  3.9323
  352MOL0     H48552   3.870   3.876   2.892 -0.9901 -0.8103 -1.6581
  352MOL0     H48553   3.809   3.999   2.801 -0.5802 -1.1599  0.7443
  352MOL0     H48554   3.572   3.974   2.902  2.4959  1.6362  0.9576
  352MOL0     H48555   3.648   3.842   2.990 -0.0125 -1.4251 -0.7348
  352MOL0     H48556   3.725   4.615   3.298  2.1097  1.8593  0.3047
  352MOL0     H48557   3.621   4.689   3.100  0.0363  0.6108 -0.6242
  352MOL0     H48558   3.570   4.841   2.716  3.1323 -1.6230  0.9962
  352MOL0     H48559   3.492   4.942   2.504  0.8901  2.4578 -0.5379
  352MOL0     H48560   3.754   5.421   3.349 -1.9434  0.3545 -2.8672
  352MOL0     H48561   3.583   5.273   3.410  1.5391  3.5173 -0.0278
  352MOL0     H48562   3.498   4.782   3.277 -1.7489 -1.7687 -1.1163
  352MOL0     H48563   3.365   4.583   3.273  1.7594 -0.6315  0.8279
  352MOL0     H48564   3.233   4.396   3.616  0.3731  1.8496 -0.5614
  352MOL0     H48565   3.089   4.505   3.621  4.9372  0.4839  3.3110
  352MOL0     H48566   3.074   4.218   3.582  3.2955  0.2535 -1.1699
  352MOL0     H48567   3.107   4.291   3.419  0.3547  1.8746 -0.3955
  352MOL0     H48568   2.874   4.312   3.621 -1.1300 -0.6810 -0.4831
  352MOL0     H48569   2.878   4.433   3.502  0.0531 -0.5473  1.0228
  352MOL0     H48570   2.715   4.293   3.422 -0.5401 -1.3985  0.4831
  352MOL0     H48571   2.815   4.150   3.449 -0.7325  1.0681  2.7118
  352MOL0     H48572   2.960   4.292   3.083 -2.3694 -3.8836 -1.6484
  352MOL0     H48573   3.282   4.646   3.693  1.2582  3.1726  1.5304
  352MOL0     H48574   3.380   4.919   3.764 -2.4130 -2.0812  3.8685
  352MOL0     H48575   3.410   4.772   3.835  2.2884 -1.4580  0.7453
  352MOL0     H48576   3.553   4.844   3.772  0.6963 -2.3898 -0.4409
  353MOL0     O48577   7.193   9.850   5.622  0.6049  0.2939 -0.1673
  353MOL0     C48578   7.222   9.737   5.590  0.3511  0.4300 -1.2045
  353MOL0     O48579   7.339   9.674   5.621  0.5005 -0.1217  0.0488
  353MOL0     C48580   7.459   9.738   5.634  0.0280 -0.2283  0.0578
  353MOL0     C48581   7.552   9.672   5.723  0.3888 -0.6491  0.0661
  353MOL0     C48582   7.679   9.721   5.744 -0.1366  0.2020  0.4798
  353MOL0     C48583   7.713   9.850   5.689  0.2147 -0.1029  0.7007
  353MOL0     O48584   7.826   9.928   5.697 -0.0190 -0.0298 -0.4603
  353MOL0     C48585   7.936   9.854   5.728 -0.0543 -0.0747 -0.1734
  353MOL0     C48586   8.062   9.937   5.703 -0.5460  0.0489  0.6332
  353MOL0     C48587   8.050   9.998   5.554  0.5302 -1.5380  0.7524
  353MOL0     C48588   8.185  10.060   5.507  0.2283  0.3255  0.0532
  353MOL0     C48589   8.225  10.172   5.607  0.1082 -0.1579  0.0589
  353MOL0     C48590   8.342  10.255   5.553 -0.2957 -1.0946 -0.0102
  353MOL0     C48591   8.336  10.346   5.426  0.5770 -0.3494 -0.0926
  353MOL0     C48592   8.214  10.439   5.422 -1.1131 -0.3575  0.8039
  353MOL0     N48593   8.239  10.550   5.516  0.9366 -0.1113 -0.5997
  353MOL0     C48594   8.276  10.667   5.468 -1.2653 -0.8530  0.6254
  353MOL0     C48595   8.273  10.757   5.572  0.3440  0.0832  0.3241
  353MOL0     C48596   8.311  10.907   5.568  0.7504 -0.6460 -0.7571
  353MOL0     C48597   8.457  10.918   5.560 -1.3046  0.2639  0.2905
  353MOL0     C48598   8.509  11.066   5.564 -0.0851  0.7729  1.3078
  353MOL0     C48599   8.657  11.071   5.601 -0.9438 -0.0176 -0.2110
  353MOL0     O48600   8.692  11.201   5.586 -0.0898 -0.0896 -0.3429
  353MOL0     C48601   8.824  11.234   5.616 -0.3643  0.2739 -1.0122
  353MOL0     C48602   8.852  11.368   5.665  0.3114 -0.0536 -1.1169
  353MOL0     C48603   8.972  11.398   5.726  0.3119  0.6437  1.4844
  353MOL0     C48604   8.986  11.536   5.775 -0.1285  0.3128 -0.2180
  353MOL0     C48605   9.076  11.299   5.739  1.3908  0.3736  0.1701
  353MOL0     C48606   9.217  11.326   5.784  0.0183 -0.3030 -0.7375
  353MOL0     O48607   9.311  11.240   5.750  0.4799  0.4772 -0.4925
  353MOL0     C48608   9.438  11.287   5.738  0.1588  0.5034 -0.3772
  353MOL0     C48609   9.506  11.284   5.615 -0.3738  0.0501  0.4357
  353MOL0     C48610   9.643  11.323   5.609  0.7862 -0.4852 -0.6083
  353MOL0     C48611   9.702  11.380   5.728 -0.2910  0.2484  0.2971
  353MOL0     O48612   9.838  11.400   5.739 -0.3045  0.2987  0.8839
  353MOL0     C48613   9.930  11.287   5.697 -0.0776 -0.5579 -0.2973
  353MOL0     C48614  10.044  11.275   5.804  0.8226 -0.1429 -0.4775
  353MOL0     C48615   9.989  11.233   5.940 -0.5483  0.4298  0.1559
  353MOL0     C48616  10.095  11.246   6.046 -1.2693 -0.0323 -0.6403
  353MOL0     C48617  10.048  11.197   6.181  0.1391  0.4031  0.5038
  353MOL0     C48618  10.175  11.189   6.278  0.0844 -0.1614 -0.7285
  353MOL0     C48619  10.134  11.154   6.427  0.5403 -0.2806  0.3112
  353MOL0     C48620  10.275  11.135   6.492 -0.1789 -0.5375  0.1544
  353MOL0    Cl48621  10.251  11.099   6.671 -0.1855  0.0454 -0.3021
  353MOL0     C48622   9.635  11.381   5.847  0.5062 -0.7039  0.3386
  353MOL0     C48623   9.505  11.336   5.858 -0.9538  0.1621 -0.3271
  353MOL0     O48624   9.244  11.439   5.839  0.4058  1.3694  0.4829
  353MOL0     C48625   9.049  11.170   5.674  0.0471  0.3159 -0.8293
  353MOL0     C48626   8.927  11.141   5.612 -0.7556 -0.3155 -0.6234
  353MOL0     N48627   8.211  10.689   5.676 -0.6105 -0.5856 -0.4278
  353MOL0     N48628   8.216  10.559   5.650  0.6544 -0.2499  0.0056
  353MOL0     C48629   7.625   9.919   5.604 -0.0830 -0.0262 -0.6013
  353MOL0     C48630   7.502   9.863   5.586  0.8609  0.9702 -0.1628
  353MOL0     C48631   7.126   9.636   5.537  0.2194 -1.0549 -0.0674
  353MOL0     C48632   7.164   9.565   5.430 -0.1511  0.2619 -0.1507
  353MOL0     C48633   7.095   9.460   5.379  0.5744 -0.8570 -0.6393
  353MOL0     C48634   6.977   9.417   5.445  0.4057 -0.2920  0.0762
  353MOL0     O48635   6.921   9.297   5.419 -0.0936  0.2450  0.4144
  353MOL0     C48636   6.982   9.209   5.322 -0.3396  0.1558 -0.9684
  353MOL0     C48637   6.919   9.221   5.177 -0.8228  0.2224 -0.9831
  353MOL0     C48638   6.971   9.107   5.089  0.5020  0.4456 -1.2156
  353MOL0     C48639   6.915   9.110   4.945  0.1039 -0.0321 -0.7662
  353MOL0     C48640   6.768   9.120   4.929 -0.4130  0.2032  0.1998
  353MOL0     C48641   6.654   9.135   4.901 -0.5904 -0.3972  0.2387
  353MOL0     C48642   6.931   9.484   5.564 -0.5775 -0.1387  0.2497
  353MOL0     C48643   7.001   9.602   5.601 -0.2572  0.4446 -0.7439
  353MOL0     C48644   6.948   9.686   5.719 -0.0641 -0.0368 -0.7977
  353MOL0     H48645   7.524   9.571   5.752  1.3336 -0.8307  0.3563
  353MOL0     H48646   7.753   9.672   5.806 -1.6784 -1.6152  0.9728
  353MOL0     H48647   7.930   9.772   5.656 -4.1037  0.7107 -1.0053
  353MOL0     H48648   7.946   9.826   5.834  1.3154  0.4114 -0.1499
  353MOL0     H48649   8.078  10.018   5.775  1.5468  2.5013 -2.3307
  353MOL0     H48650   8.148   9.870   5.689 -0.7876 -0.1774  0.2197
  353MOL0     H48651   8.020   9.927   5.477  0.1898  0.8690 -1.4753
  353MOL0     H48652   7.975  10.078   5.548  3.4203  1.2771 -2.4893
  353MOL0     H48653   8.259   9.979   5.501  2.7610  2.5870 -2.2591
  353MOL0     H48654   8.165  10.100   5.407 -0.7845  1.2797  0.6134
  353MOL0     H48655   8.266  10.117   5.692  1.0876  1.2697  0.5413
  353MOL0     H48656   8.136  10.233   5.624 -1.0404 -1.9633  0.8047
  353MOL0     H48657   8.372  10.312   5.641  2.1019 -0.5192 -1.1138
  353MOL0     H48658   8.426  10.184   5.549  1.1869  0.4449  1.9081
  353MOL0     H48659   8.329  10.281   5.338  2.2241  2.8774 -2.8204
  353MOL0     H48660   8.426  10.407   5.412  0.4152  0.3093  1.6150
  353MOL0     H48661   8.207  10.483   5.322  0.7098  1.1916  1.2793
  353MOL0     H48662   8.127  10.378   5.444 -0.2884 -1.7569  0.2914
  353MOL0     H48663   8.320  10.673   5.368  2.6315 -0.3492  2.1936
  353MOL0     H48664   8.272  10.968   5.650  2.9974 -0.3712  0.1857
  353MOL0     H48665   8.273  10.945   5.473 -1.0089  0.1203  0.2171
  353MOL0     H48666   8.491  10.867   5.650  0.2425  1.8224  0.6357
  353MOL0     H48667   8.491  10.865   5.471  0.6022  2.7389 -0.5726
  353MOL0     H48668   8.494  11.115   5.467 -1.1974 -2.4099 -0.2844
  353MOL0     H48669   8.455  11.123   5.640  1.1756  4.5709 -0.4051
  353MOL0     H48670   8.687  11.050   5.704  1.7388  1.8503 -0.5003
  353MOL0     H48671   8.716  11.001   5.542  0.5051 -0.3574  1.5513
  353MOL0     H48672   8.772  11.440   5.681  0.0163 -0.7930  1.1029
  353MOL0     H48673   8.899  11.601   5.768  0.7582  1.6141  0.3561
  353MOL0     H48674   9.062  11.586   5.713 -0.0170 -0.8262 -1.0292
  353MOL0     H48675   9.019  11.529   5.879 -0.4361 -1.5116 -0.2103
  353MOL0     H48676   9.452  11.245   5.530  1.8986 -1.2368 -0.4839
  353MOL0     H48677   9.700  11.311   5.517  1.4987  1.0661 -0.4055
  353MOL0     H48678   9.874  11.194   5.682  0.3409 -0.6727 -1.2381
  353MOL0     H48679   9.975  11.302   5.598  0.0700  0.5362 -0.0686
  353MOL0     H48680  10.112  11.194   5.775  2.0961 -0.1084  2.1460
  353MOL0     H48681  10.101  11.367   5.812 -1.9774  1.5574  3.8869
  353MOL0     H48682   9.945  11.133   5.935  1.9118 -0.6765 -2.5021
  353MOL0     H48683   9.910  11.294   5.984 -0.9667 -0.3637  0.5176
  353MOL0     H48684  10.131  11.349   6.054  2.0855 -1.1463 -0.1180
  353MOL0     H48685  10.175  11.178   6.015 -1.7852 -0.9060 -0.1066
  353MOL0     H48686   9.979  11.266   6.231  2.0145  2.0304  1.0293
  353MOL0     H48687  10.022  11.092   6.171 -0.2025 -0.0749  4.5209
  353MOL0     H48688  10.205  11.293   6.291 -1.3018  0.2555 -0.7061
  353MOL0     H48689  10.263  11.144   6.231  0.8915  2.6822 -2.1928
  353MOL0     H48690  10.079  11.060   6.424 -0.5392  0.3241  0.7055
  353MOL0     H48691  10.082  11.228   6.488 -0.0880 -2.9047  3.2375
  353MOL0     H48692  10.333  11.226   6.503  0.2821 -0.9373  1.0868
  353MOL0     H48693  10.337  11.052   6.457  0.5412  1.3479 -3.5439
  353MOL0     H48694   9.696  11.427   5.924  1.2490  0.9516 -1.1605
  353MOL0     H48695   9.463  11.321   5.957 -0.6263  1.1371 -0.0324
  353MOL0     H48696   9.111  11.081   5.664 -1.0075 -0.8666  2.1813
  353MOL0     H48697   8.915  11.042   5.568 -1.4486 -0.6702  0.3239
  353MOL0     H48698   7.656  10.014   5.562 -1.4673 -0.2244 -2.1692
  353MOL0     H48699   7.435   9.923   5.525 -2.8624 -0.3308  2.2688
  353MOL0     H48700   7.246   9.601   5.368 -0.8199 -0.2032 -1.3350
  353MOL0     H48701   7.143   9.394   5.308  2.8976 -5.3260  4.3595
  353MOL0     H48702   7.090   9.194   5.320 -0.5378 -3.1286  2.4127
  353MOL0     H48703   6.947   9.111   5.354 -3.2412  1.7109  1.1643
  353MOL0     H48704   6.923   9.325   5.144 -0.7310 -0.1288 -2.1317
  353MOL0     H48705   6.810   9.208   5.184 -0.7144  0.2272  1.5205
  353MOL0     H48706   7.080   9.103   5.086  0.5683  0.7592  0.2231
  353MOL0     H48707   6.945   9.011   5.134  0.6258  1.7056  1.7456
  353MOL0     H48708   6.934   9.015   4.894 -1.4602 -0.7634 -0.0657
  353MOL0     H48709   6.955   9.190   4.882  0.3677  0.2730 -0.2274
  353MOL0     H48710   6.553   9.148   4.867 -0.3950  0.4678 -0.0310
  353MOL0     H48711   6.841   9.441   5.607 -1.4678  1.1724 -0.2722
  353MOL0     H48712   7.002   9.650   5.808 -1.1828 -1.9428 -0.8420
  353MOL0     H48713   6.966   9.792   5.702  3.8720 -0.6701 -1.5577
  353MOL0     H48714   6.843   9.673   5.745  0.4185 -2.1398  0.3673
  354MOL0     O48715   1.661   4.830   0.091 -0.6784 -0.3301  0.1786
  354MOL0     C48716   1.562   4.803   0.158 -0.2115 -0.0700 -0.3644
  354MOL0     O48717   1.475   4.897   0.208 -0.0565 -0.2007 -0.2806
  354MOL0     C48718   1.346   4.871   0.171  1.1998  0.7284  0.8035
  354MOL0     C48719   1.300   4.813   0.044 -0.3254  1.0542 -0.4068
  354MOL0     C48720   1.165   4.793   0.014 -0.4248 -0.3683 -0.7145
  354MOL0     C48721   1.066   4.824   0.112  0.4404 -0.4986 -0.2725
  354MOL0     O48722   0.937   4.800   0.074 -0.3150  0.0434 -0.3165
  354MOL0     C48723   0.861   4.744   0.179  0.6934 -0.2334 -0.4050
  354MOL0     C48724   0.735   4.684   0.125 -0.4534  0.8883  0.6759
  354MOL0     C48725   0.680   4.570   0.212 -0.1304 -0.3807 -0.1674
  354MOL0     C48726   0.616   4.621   0.338  0.5154 -1.3822 -0.2841
  354MOL0     C48727   0.570   4.502   0.427  0.4450  0.2673 -0.3024
  354MOL0     C48728   0.464   4.540   0.533  0.7467  0.4357 -0.0121
  354MOL0     C48729   0.411   4.415   0.613  0.1506  1.0492 -0.6866
  354MOL0     C48730   0.333   4.445   0.741  0.4850 -0.7283  1.2817
  354MOL0     N48731   0.427   4.483   0.846  1.2180 -0.8532  0.2880
  354MOL0     C48732   0.499   4.595   0.864  1.4504 -0.2989  0.0090
  354MOL0     C48733   0.611   4.556   0.943  0.9389 -1.0076 -0.3636
  354MOL0     C48734   0.730   4.643   0.981  0.2570 -0.8305 -0.6180
  354MOL0     C48735   0.695   4.784   1.047  0.6396  0.7081  0.5938
  354MOL0     C48736   0.615   4.771   1.175 -0.3323 -0.1353 -0.2556
  354MOL0     C48737   0.537   4.894   1.221  0.1778  0.5847  1.7152
  354MOL0     O48738   0.434   4.935   1.137  0.2431  0.1957  0.0140
  354MOL0     C48739   0.331   4.860   1.101  0.4995 -0.4859  0.4194
  354MOL0     C48740   0.297   4.742   1.159  0.0981  0.3234 -0.1385
  354MOL0     C48741   0.200   4.659   1.108  0.6598  0.0082 -0.3851
  354MOL0     C48742   0.181   4.515   1.172 -0.5940 -0.6091 -0.7328
  354MOL0     C48743   0.109   4.708   1.009  0.6976  0.8170  0.3031
  354MOL0     C48744  -0.012   4.641   0.959 -0.1637  1.0303 -0.4921
  354MOL0     O48745  -0.076   4.694   0.855  0.2195  0.2373  0.1970
  354MOL0     C48746  -0.175   4.611   0.797  0.0349 -0.6862  0.9515
  354MOL0     C48747  -0.311   4.591   0.832  0.6549 -0.5918 -0.0578
  354MOL0     C48748  -0.396   4.510   0.764  0.4117  0.2475  0.4454
  354MOL0     C48749  -0.347   4.450   0.646  0.0367 -0.5051  0.9447
  354MOL0     O48750  -0.421   4.383   0.554 -0.0633  0.1183 -0.2972
  354MOL0     C48751  -0.566   4.362   0.564  0.1182  0.6012  0.0405
  354MOL0     C48752  -0.618   4.302   0.430 -0.0269 -0.4230  0.2483
  354MOL0     C48753  -0.772   4.280   0.432  0.5262 -0.6181  0.4480
  354MOL0     C48754  -0.852   4.289   0.561  0.1010  0.8149 -0.1742
  354MOL0     C48755  -1.002   4.307   0.531  0.2465  0.2632  0.6633
  354MOL0     C48756  -1.068   4.167   0.514  0.2503 -0.7822  0.0671
  354MOL0     C48757  -1.199   4.182   0.444  0.2676 -0.4256  0.2097
  354MOL0     C48758  -1.288   4.060   0.457  0.6422 -0.3527  0.3778
  354MOL0    Cl48759  -1.441   4.080   0.372 -0.0312  0.3300 -0.2912
  354MOL0     C48760  -0.220   4.464   0.607 -0.6136  0.3695  0.3242
  354MOL0     C48761  -0.134   4.558   0.677 -0.3683  1.1238  0.3907
  354MOL0     O48762  -0.037   4.525   1.001 -0.1159  1.1817  0.7779
  354MOL0     C48763   0.130   4.844   0.977 -1.1401  0.4573  0.3181
  354MOL0     C48764   0.239   4.916   1.012 -0.0614 -0.3923 -0.5304
  354MOL0     N48765   0.595   4.418   0.983 -0.2588 -1.1990  0.8967
  354MOL0     N48766   0.495   4.379   0.908  0.2835 -1.1243  0.5666
  354MOL0     C48767   1.102   4.893   0.229  0.4708 -0.0545  0.1525
  354MOL0     C48768   1.239   4.922   0.251 -0.0916  0.2024  0.5907
  354MOL0     C48769   1.541   4.661   0.183 -1.0218  0.0157 -0.7297
  354MOL0     C48770   1.547   4.581   0.076  0.3186  1.2083 -0.1454
  354MOL0     C48771   1.520   4.439   0.090 -0.9996 -1.1870 -0.6812
  354MOL0     C48772   1.492   4.392   0.219 -0.3152 -0.5911  0.2877
  354MOL0     O48773   1.486   4.261   0.250 -0.7373 -0.6150 -0.0209
  354MOL0     C48774   1.431   4.164   0.166  0.0255  0.5914 -0.1554
  354MOL0     C48775   1.376   4.050   0.248  0.0573 -0.3566 -0.4178
  354MOL0     C48776   1.415   4.040   0.397 -0.1769  0.0191  0.5384
  354MOL0     C48777   1.554   3.997   0.428 -0.3217 -0.7787 -0.3687
  354MOL0     C48778   1.579   3.861   0.389 -0.1586  0.6279  0.7634
  354MOL0     C48779   1.583   3.742   0.357 -0.3261 -0.2428 -0.5199
  354MOL0     C48780   1.491   4.477   0.332  1.2320  0.8256  0.9047
  354MOL0     C48781   1.510   4.609   0.311 -0.2035 -0.3440 -0.7892
  354MOL0     C48782   1.541   4.678   0.442  0.6518  0.2824  0.2465
  354MOL0     H48783   1.367   4.773  -0.031 -0.7829  0.0562 -0.3041
  354MOL0     H48784   1.150   4.733  -0.074 -2.8450 -3.2154  1.4149
  354MOL0     H48785   0.827   4.826   0.244 -3.6822 -4.1905  2.9939
  354MOL0     H48786   0.914   4.660   0.224 -1.5856 -1.4195  0.2129
  354MOL0     H48787   0.652   4.755   0.117 -1.3572 -0.0250  1.6409
  354MOL0     H48788   0.749   4.643   0.024  1.1526  4.4360 -0.7318
  354MOL0     H48789   0.610   4.505   0.159 -3.1439  2.5788 -0.1376
  354MOL0     H48790   0.763   4.510   0.251 -0.9342 -0.3805  1.6195
  354MOL0     H48791   0.684   4.690   0.389  1.4251 -0.0310 -3.1178
  354MOL0     H48792   0.537   4.688   0.302  0.1832 -1.7068 -0.1694
  354MOL0     H48793   0.655   4.453   0.475 -0.5821  0.3324  1.6775
  354MOL0     H48794   0.533   4.421   0.362 -1.2276  1.7843 -1.3349
  354MOL0     H48795   0.496   4.615   0.606 -0.3043  1.1596 -0.2829
  354MOL0     H48796   0.383   4.592   0.482  0.1836  1.7216  2.0588
  354MOL0     H48797   0.491   4.342   0.631 -0.4751  0.3209 -0.7938
  354MOL0     H48798   0.342   4.356   0.551  0.9280  0.9635 -1.5014
  354MOL0     H48799   0.258   4.522   0.719  1.4690 -0.1501 -0.2262
  354MOL0     H48800   0.270   4.357   0.760 -1.2755 -0.3242 -1.9767
  354MOL0     H48801   0.480   4.678   0.796  0.4043  0.2101  0.8956
  354MOL0     H48802   0.806   4.647   0.903  2.6799 -0.2893  1.6102
  354MOL0     H48803   0.776   4.593   1.066  1.2460  0.0390 -0.6187
  354MOL0     H48804   0.787   4.840   1.066  1.1305  0.0616  0.1713
  354MOL0     H48805   0.638   4.837   0.971  0.3436  0.1439  0.4161
  354MOL0     H48806   0.559   4.678   1.174  1.1306 -1.1355  2.1917
  354MOL0     H48807   0.679   4.741   1.259  0.6019  0.5508 -0.7070
  354MOL0     H48808   0.502   4.868   1.322 -1.2505 -0.4132  1.0014
  354MOL0     H48809   0.613   4.972   1.228  2.8777 -1.6218 -0.6926
  354MOL0     H48810   0.346   4.690   1.240 -1.7419 -3.3395 -1.1888
  354MOL0     H48811   0.270   4.499   1.233 -1.8632  0.6254  1.5386
  354MOL0     H48812   0.173   4.438   1.094  1.9566 -0.9305 -0.7656
  354MOL0     H48813   0.090   4.517   1.232  0.6823 -2.7539  1.4550
  354MOL0     H48814  -0.346   4.637   0.924  1.4680 -0.8720  0.4040
  354MOL0     H48815  -0.498   4.499   0.800  1.0025 -0.6707  1.9067
  354MOL0     H48816  -0.582   4.275   0.629  1.4364 -0.0071 -0.4106
  354MOL0     H48817  -0.614   4.454   0.599  1.5844  1.3436  0.1601
  354MOL0     H48818  -0.589   4.371   0.350  0.0890 -2.8751 -1.9345
  354MOL0     H48819  -0.564   4.210   0.406  1.2843  0.7046 -1.3655
  354MOL0     H48820  -0.785   4.188   0.375  3.9753  0.4613 -2.4791
  354MOL0     H48821  -0.805   4.356   0.361  3.8768  0.4760 -0.1500
  354MOL0     H48822  -0.817   4.381   0.609  1.5747 -1.4315  3.5117
  354MOL0     H48823  -0.825   4.202   0.621  0.6157 -1.5071 -3.5347
  354MOL0     H48824  -1.048   4.362   0.613 -0.2159 -0.4324  0.8820
  354MOL0     H48825  -1.023   4.369   0.443 -0.4857 -0.7994  0.0672
  354MOL0     H48826  -1.090   4.129   0.615 -0.8678  1.0583  0.5541
  354MOL0     H48827  -0.998   4.095   0.470  3.9976  2.3101  0.3914
  354MOL0     H48828  -1.180   4.205   0.339  1.3323  1.2831  0.7242
  354MOL0     H48829  -1.252   4.268   0.487  0.4606 -0.0379 -0.3166
  354MOL0     H48830  -1.322   4.031   0.556 -1.6085 -0.8069 -0.4522
  354MOL0     H48831  -1.227   3.981   0.413  0.5535  0.8938 -2.2310
  354MOL0     H48832  -0.189   4.435   0.507 -0.4045 -0.6600  0.6777
  354MOL0     H48833  -0.038   4.595   0.644 -0.3717 -0.0772 -1.0722
  354MOL0     H48834   0.063   4.890   0.905 -1.1444 -0.9666 -0.6341
  354MOL0     H48835   0.250   5.016   0.972  1.2699 -0.9891 -1.7482
  354MOL0     H48836   1.036   4.923   0.310  1.5813  0.1388  1.0225
  354MOL0     H48837   1.259   4.995   0.328  0.3780  0.4389  0.2484
  354MOL0     H48838   1.556   4.618  -0.026 -1.1176  0.1636 -0.6930
  354MOL0     H48839   1.514   4.374   0.004  3.3233 -1.8972 -0.7013
  354MOL0     H48840   1.342   4.195   0.110 -0.7711  0.0510  0.7706
  354MOL0     H48841   1.513   4.133   0.101 -0.9105 -3.8192  0.4107
  354MOL0     H48842   1.390   3.953   0.200 -3.0430 -0.7594 -0.7316
  354MOL0     H48843   1.267   4.048   0.239  0.1282  1.0513 -2.1204
  354MOL0     H48844   1.397   4.134   0.449  0.5223  1.2083 -1.2869
  354MOL0     H48845   1.339   3.972   0.437 -0.0414 -0.3632  0.1639
  354MOL0     H48846   1.580   4.012   0.534  5.0572  0.3794 -1.5455
  354MOL0     H48847   1.616   4.060   0.364 -1.6189  1.4773  0.4890
  354MOL0     H48848   1.579   3.638   0.335  3.3183 -0.7907  0.7619
  354MOL0     H48849   1.488   4.431   0.430  2.1446 -0.5624  0.3164
  354MOL0     H48850   1.587   4.606   0.511  0.4621 -2.0340 -1.9099
  354MOL0     H48851   1.630   4.741   0.432  1.9587 -1.2790  1.4933
  354MOL0     H48852   1.452   4.734   0.470  0.4893  0.0115  0.2734
  355MOL0     O48853   1.487   6.595  10.407 -0.1694  0.0683 -0.1667
  355MOL0     C48854   1.565   6.518  10.461  1.0187 -0.4521 -1.0818
  355MOL0     O48855   1.697   6.514  10.443 -0.7501  0.1182 -0.1961
  355MOL0     C48856   1.761   6.607  10.362  0.8398 -0.2913  0.4556
  355MOL0     C48857   1.884   6.656  10.411  0.0208  1.2122 -0.1118
  355MOL0     C48858   1.974   6.717  10.328  0.0965 -0.0085 -0.5480
  355MOL0     C48859   1.937   6.757  10.195 -1.2709 -0.0474 -0.2930
  355MOL0     O48860   2.015   6.831  10.102  0.2041  0.2484 -0.0036
  355MOL0     C48861   2.155   6.814  10.130 -0.4359  0.3540  0.6522
  355MOL0     C48862   2.232   6.876  10.014  0.0855 -0.3156  0.3175
  355MOL0     C48863   2.380   6.869  10.036 -0.6849  0.4130 -0.1473
  355MOL0     C48864   2.449   6.944   9.933 -0.0338 -0.0555 -0.1859
  355MOL0     C48865   2.600   6.967   9.965  0.6183 -0.8219  0.4046
  355MOL0     C48866   2.661   7.037   9.842  0.9372  0.0653 -0.1000
  355MOL0     C48867   2.804   7.088   9.863  0.0123  0.4675 -0.0043
  355MOL0     C48868   2.904   6.981   9.893 -0.7510 -0.8253  0.7762
  355MOL0     N48869   3.022   7.061   9.921 -0.5541 -0.7471 -0.3962
  355MOL0     C48870   3.131   7.087   9.837 -0.2706 -0.3955 -0.0823
  355MOL0     C48871   3.222   7.156   9.914  0.1784 -0.1533  0.1839
  355MOL0     C48872   3.347   7.196   9.843 -0.6507 -0.8678  0.0987
  355MOL0     C48873   3.326   7.263   9.709  0.4169 -1.1162  0.4402
  355MOL0     C48874   3.418   7.390   9.699 -0.0383  0.3269 -0.0400
  355MOL0     C48875   3.403   7.456   9.568  0.3322  0.3465  1.2273
  355MOL0     O48876   3.282   7.535   9.541 -0.4680  0.0951  0.3020
  355MOL0     C48877   3.278   7.610   9.432  0.1750 -0.0553  0.2234
  355MOL0     C48878   3.371   7.617   9.337 -0.2552  0.1408 -0.7952
  355MOL0     C48879   3.365   7.695   9.226 -0.0658 -0.7808 -0.8051
  355MOL0     C48880   3.483   7.696   9.137  0.5701  0.2120  0.3435
  355MOL0     C48881   3.253   7.785   9.212  0.3832 -0.7697  0.0948
  355MOL0     C48882   3.233   7.878   9.098 -0.2069 -0.3513  1.0585
  355MOL0     O48883   3.160   7.998   9.124  0.1717 -0.4440  0.4122
  355MOL0     C48884   3.121   8.074   9.008 -0.0447  0.1509 -0.1481
  355MOL0     C48885   3.194   8.186   8.978  0.8041 -0.0294 -0.2938
  355MOL0     C48886   3.151   8.266   8.879 -0.6730 -0.4105  0.4296
  355MOL0     C48887   3.039   8.231   8.805  0.1296  1.0103  1.1582
  355MOL0     O48888   3.003   8.312   8.694 -0.2482  0.5898 -0.1640
  355MOL0     C48889   2.957   8.452   8.719 -0.2907  0.5096  0.2200
  355MOL0     C48890   2.819   8.457   8.788 -0.7238  0.1117 -0.2009
  355MOL0     C48891   2.720   8.371   8.717  0.0786  0.0611 -0.7001
  355MOL0     C48892   2.684   8.427   8.577 -0.2960 -0.4972 -0.7284
  355MOL0     C48893   2.566   8.352   8.516  0.8394 -0.4561 -0.2843
  355MOL0     C48894   2.434   8.407   8.569 -0.5261 -0.3042  0.7545
  355MOL0     C48895   2.318   8.340   8.494 -0.1429 -0.7304  0.3910
  355MOL0     C48896   2.305   8.414   8.358  0.3544  1.2627 -0.1231
  355MOL0    Cl48897   2.184   8.556   8.386  0.3360 -0.1212 -0.4229
  355MOL0     C48898   2.962   8.115   8.834 -0.2006  0.2591 -0.0930
  355MOL0     C48899   3.000   8.032   8.944  0.4484  0.1076 -0.1386
  355MOL0     O48900   3.283   7.849   8.990 -0.5906 -0.0813 -0.2233
  355MOL0     C48901   3.153   7.782   9.315 -0.1936 -0.7318  0.1365
  355MOL0     C48902   3.161   7.689   9.421  0.2806  0.8873  0.2747
  355MOL0     N48903   3.175   7.177  10.036 -0.2568 -0.5966 -0.0440
  355MOL0     N48904   3.062   7.119  10.041  1.2961 -0.7598 -0.7267
  355MOL0     C48905   1.805   6.727  10.154  0.7750  0.0142  0.4705
  355MOL0     C48906   1.718   6.655  10.231 -0.8452  0.1083 -0.9631
  355MOL0     C48907   1.508   6.441  10.583 -0.0225 -0.1688  0.2900
  355MOL0     C48908   1.596   6.384  10.678 -0.5176 -0.5815  0.0057
  355MOL0     C48909   1.565   6.309  10.793  0.9855  0.2276  0.0541
  355MOL0     C48910   1.427   6.287  10.812 -0.2219 -0.1226  0.8299
  355MOL0     O48911   1.378   6.232  10.921  0.6328  0.1367 -0.1422
  355MOL0     C48912   1.439   6.110  10.970  0.0294 -1.0546 -0.4570
  355MOL0     C48913   1.390   6.098  11.118 -1.3081  0.5395  0.8403
  355MOL0     C48914   1.447   6.207  11.215  0.5238 -0.3651 -0.3093
  355MOL0     C48915   1.413   6.176  11.368 -0.5733  0.1386 -0.4471
  355MOL0     C48916   1.272   6.197  11.385  0.3991 -0.0208 -0.8556
  355MOL0     C48917   1.166   6.229  11.437  0.0062  0.9294 -1.1770
  355MOL0     C48918   1.336   6.327  10.712  0.3087  0.0664 -1.5255
  355MOL0     C48919   1.372   6.397  10.596  0.5308  0.1305  0.0429
  355MOL0     C48920   1.266   6.419  10.487 -0.1515  0.5898 -0.6238
  355MOL0     H48921   1.914   6.621  10.509  1.9948  1.7439 -0.5002
  355MOL0     H48922   2.068   6.732  10.379  0.1274 -0.7769 -0.3631
  355MOL0     H48923   2.191   6.711  10.132 -0.0790  0.3637 -1.8579
  355MOL0     H48924   2.179   6.853  10.229  2.1650  0.3631  0.1105
  355MOL0     H48925   2.206   6.836   9.915  1.5162 -1.8381  0.5190
  355MOL0     H48926   2.201   6.980  10.016  1.9062  0.2479  2.7959
  355MOL0     H48927   2.416   6.918  10.127  1.0144  1.6639 -1.4254
  355MOL0     H48928   2.395   6.761  10.034 -3.6874 -0.1663  1.8771
  355MOL0     H48929   2.437   6.894   9.836 -3.5305  0.3231 -0.0526
  355MOL0     H48930   2.398   7.039   9.916 -1.1489 -0.5677  0.1973
  355MOL0     H48931   2.660   6.878   9.984 -0.2332 -1.2338  1.2221
  355MOL0     H48932   2.624   7.018  10.059  0.8866 -0.1778 -0.0076
  355MOL0     H48933   2.655   6.961   9.764 -0.2632  0.8276 -0.7868
  355MOL0     H48934   2.592   7.115   9.808 -1.5197 -1.7441  0.3773
  355MOL0     H48935   2.801   7.169   9.937 -1.2553  0.9179 -0.5190
  355MOL0     H48936   2.826   7.141   9.769 -1.7542  0.6912 -0.3213
  355MOL0     H48937   2.884   6.927   9.986 -0.1681  1.1704  2.1240
  355MOL0     H48938   2.913   6.910   9.811  4.2247 -0.8661  1.0782
  355MOL0     H48939   3.146   7.053   9.735 -1.9862  1.2250 -0.9358
  355MOL0     H48940   3.418   7.114   9.832  1.7071  1.0161  0.4517
  355MOL0     H48941   3.395   7.271   9.907  0.2836 -1.4473  0.0869
  355MOL0     H48942   3.343   7.197   9.623 -3.2956  0.0029 -1.3435
  355MOL0     H48943   3.223   7.299   9.709  0.8780  0.2733  0.3883
  355MOL0     H48944   3.391   7.458   9.781 -1.3192  1.4387 -1.3328
  355MOL0     H48945   3.522   7.370   9.727  1.1751  4.2614 -1.1299
  355MOL0     H48946   3.498   7.509   9.566  1.1646 -1.1101  0.1577
  355MOL0     H48947   3.405   7.370   9.501  2.0980  0.9953  0.4137
  355MOL0     H48948   3.462   7.565   9.365  0.4926  2.0658  0.5548
  355MOL0     H48949   3.570   7.638   9.169  0.1505  0.2431  1.5786
  355MOL0     H48950   3.529   7.794   9.119  1.9608 -0.2927  1.0007
  355MOL0     H48951   3.448   7.644   9.047  0.0180 -0.4458  0.9376
  355MOL0     H48952   3.273   8.210   9.049  0.1152  1.7384 -0.0767
  355MOL0     H48953   3.205   8.355   8.850 -0.6530 -0.7426 -0.5976
  355MOL0     H48954   3.029   8.513   8.774  2.0691 -1.2487 -0.7468
  355MOL0     H48955   2.945   8.508   8.626  0.3734  3.5043  1.8012
  355MOL0     H48956   2.834   8.417   8.888  3.2152 -0.3454 -0.7887
  355MOL0     H48957   2.778   8.559   8.784 -2.2455 -0.4687 -3.6120
  355MOL0     H48958   2.638   8.358   8.788  0.9701  0.2122  0.3792
  355MOL0     H48959   2.762   8.271   8.699  1.4301  0.2930  0.9532
  355MOL0     H48960   2.775   8.415   8.518  0.6089 -1.6973  0.8095
  355MOL0     H48961   2.666   8.534   8.587  2.0656 -0.1554  0.6732
  355MOL0     H48962   2.577   8.369   8.408 -0.6653 -0.2548 -0.4290
  355MOL0     H48963   2.579   8.245   8.537  0.1641 -0.3227  0.9162
  355MOL0     H48964   2.430   8.516   8.564 -1.1795 -0.2582  1.8559
  355MOL0     H48965   2.418   8.380   8.674 -5.6316 -0.4814  0.1702
  355MOL0     H48966   2.230   8.359   8.556  0.7543  1.3064  1.1249
  355MOL0     H48967   2.339   8.233   8.492 -0.1976 -0.8289  2.8928
  355MOL0     H48968   2.263   8.349   8.281  0.2155  0.7690  0.3620
  355MOL0     H48969   2.398   8.445   8.310 -0.1692  1.1583 -1.2507
  355MOL0     H48970   2.876   8.095   8.771  1.8914  0.6033 -3.3579
  355MOL0     H48971   2.946   7.940   8.964 -2.6695  2.0517  1.0907
  355MOL0     H48972   3.063   7.844   9.320 -0.5108 -1.2000  0.2436
  355MOL0     H48973   3.084   7.679   9.497  0.4611 -3.2199  0.1185
  355MOL0     H48974   1.767   6.757  10.057 -0.1774 -1.2577  0.4217
  355MOL0     H48975   1.620   6.637  10.186 -0.7556  0.4437 -1.2943
  355MOL0     H48976   1.704   6.399  10.674 -0.1475  0.3387  5.5140
  355MOL0     H48977   1.635   6.287  10.873  1.0540  2.8657  0.7836
  355MOL0     H48978   1.401   6.026  10.910 -0.5705  1.6766 -4.2674
  355MOL0     H48979   1.548   6.109  10.971  0.1420 -1.3668 -3.1871
  355MOL0     H48980   1.416   5.997  11.150 -0.4960 -0.0552 -1.5235
  355MOL0     H48981   1.281   6.086  11.123 -1.2730 -1.0963 -1.2453
  355MOL0     H48982   1.556   6.201  11.209  0.7955  1.8550  1.1824
  355MOL0     H48983   1.417   6.308  11.184  1.1524  0.3790  1.3699
  355MOL0     H48984   1.453   6.240  11.447 -0.0065 -2.2899  1.3773
  355MOL0     H48985   1.459   6.078  11.388 -0.8665 -0.0329 -0.6013
  355MOL0     H48986   1.078   6.270  11.482 -1.0671 -3.2518  1.0500
  355MOL0     H48987   1.230   6.316  10.734  0.4757  0.5869 -0.3934
  355MOL0     H48988   1.167   6.403  10.531  1.0520 -0.0864  2.0351
  355MOL0     H48989   1.263   6.523  10.452 -0.0283  0.8861  0.2335
  355MOL0     H48990   1.280   6.349  10.404 -0.0237 -0.2220  0.0714
  356MOL0     O48991   7.510   8.755  10.913 -0.3774  0.1803 -0.0666
  356MOL0     C48992   7.449   8.657  10.871  1.7364  1.1666  0.2761
  356MOL0     O48993   7.445   8.616  10.740 -0.0826 -0.1963 -0.8149
  356MOL0     C48994   7.501   8.688  10.638 -0.5944  0.5711  0.2311
  356MOL0     C48995   7.422   8.784  10.577 -1.4505  0.0317  0.4871
  356MOL0     C48996   7.461   8.862  10.471 -0.0125 -0.3653 -0.0030
  356MOL0     C48997   7.590   8.861  10.417 -0.0256  0.4247 -0.0450
  356MOL0     O48998   7.621   8.952  10.322  0.5608  0.1685  0.3898
  356MOL0     C48999   7.750   8.976  10.277  0.5345  1.1372 -0.1016
  356MOL0     C49000   7.766   9.004  10.133 -0.1266 -0.8437  0.4438
  356MOL0     C49001   7.675   8.915  10.037  0.2744 -0.3548  0.8444
  356MOL0     C49002   7.696   8.972   9.890 -0.0127 -0.4697 -0.2760
  356MOL0     C49003   7.580   8.947   9.788 -1.0003  0.1033 -1.0712
  356MOL0     C49004   7.617   9.001   9.648  0.2500 -1.1810 -0.2998
  356MOL0     C49005   7.495   9.061   9.597  0.7136 -0.1283 -0.2942
  356MOL0     C49006   7.503   9.141   9.468 -0.1230  0.8757  0.3373
  356MOL0     N49007   7.599   9.249   9.468 -0.0081  0.3959 -0.1149
  356MOL0     C49008   7.600   9.342   9.569  0.3159 -1.0241  0.2255
  356MOL0     C49009   7.637   9.459   9.507 -0.0596  0.3759 -0.2716
  356MOL0     C49010   7.674   9.592   9.562 -0.2833 -0.9647 -0.2910
  356MOL0     C49011   7.563   9.703   9.585 -1.2713  0.5354  0.2348
  356MOL0     C49012   7.622   9.817   9.660 -0.5730  0.3646 -0.2455
  356MOL0     C49013   7.540   9.945   9.649 -0.9212  0.2615  0.0490
  356MOL0     O49014   7.437   9.954   9.741  0.2187 -0.5903 -0.1191
  356MOL0     C49015   7.368  10.078   9.730  0.9704  0.8371 -0.0592
  356MOL0     C49016   7.428  10.187   9.788  0.4057  0.1932 -0.6047
  356MOL0     C49017   7.364  10.312   9.803  0.1624  0.2951  0.4181
  356MOL0     C49018   7.430  10.427   9.869 -0.2943  0.5109 -0.0378
  356MOL0     C49019   7.226  10.324   9.743 -0.2571 -0.3467 -0.7768
  356MOL0     C49020   7.145  10.449   9.722 -0.0899  0.0762  0.4095
  356MOL0     O49021   7.184  10.555   9.805  0.2406  0.4342 -0.1468
  356MOL0     C49022   7.143  10.684   9.784 -1.0537  0.8512  0.1663
  356MOL0     C49023   7.046  10.754   9.861  1.0217  0.3186  0.0613
  356MOL0     C49024   7.030  10.895   9.836  0.1560  0.3583 -0.1451
  356MOL0     C49025   7.107  10.953   9.740 -0.1427 -0.2007 -0.5966
  356MOL0     O49026   7.095  11.091   9.723  0.4304  0.0994  0.4766
  356MOL0     C49027   6.979  11.139   9.656  0.1615 -0.0481  0.4875
  356MOL0     C49028   7.020  11.200   9.524 -0.0462 -0.4853 -0.4300
  356MOL0     C49029   7.106  11.332   9.542  0.5067  0.1265 -1.1194
  356MOL0     C49030   7.128  11.388   9.400 -0.2245  0.5022 -0.6763
  356MOL0     C49031   7.228  11.499   9.406  0.2179 -0.5952  0.8125
  356MOL0     C49032   7.241  11.590   9.280 -0.5800 -0.7547 -0.3673
  356MOL0     C49033   7.269  11.739   9.330 -0.8242 -0.0712  0.8184
  356MOL0     C49034   7.267  11.841   9.221  0.5822 -0.9553  0.9116
  356MOL0    Cl49035   7.223  12.001   9.309 -0.3120 -0.1797  0.0767
  356MOL0     C49036   7.186  10.880   9.661 -0.8187  0.1838  0.3040
  356MOL0     C49037   7.208  10.747   9.678  0.3008  0.8128  0.1890
  356MOL0     O49038   7.053  10.453   9.640  0.3772  0.5884  0.6372
  356MOL0     C49039   7.172  10.206   9.689  0.0605 -0.6302  0.3692
  356MOL0     C49040   7.239  10.085   9.693  0.2866  0.4511 -0.4209
  356MOL0     N49041   7.668   9.417   9.374  1.3580  0.4090  0.3663
  356MOL0     N49042   7.643   9.296   9.348  0.0152  0.2409 -0.9465
  356MOL0     C49043   7.682   8.777  10.491 -1.3510 -0.2048 -0.0934
  356MOL0     C49044   7.640   8.691  10.595 -0.0199 -0.6993  0.0075
  356MOL0     C49045   7.365   8.559  10.954  0.3707  0.1347  0.2519
  356MOL0     C49046   7.269   8.469  10.897  0.2011  1.3465 -0.9349
  356MOL0     C49047   7.184   8.397  10.967 -0.2835 -0.1683 -0.7162
  356MOL0     C49048   7.192   8.383  11.106 -0.3742  0.7734  0.7863
  356MOL0     O49049   7.094   8.309  11.162  0.0094 -0.7781  0.0095
  356MOL0     C49050   7.123   8.271  11.306  0.8184 -0.6692 -0.7186
  356MOL0     C49051   7.037   8.160  11.350  0.1365 -0.5627 -0.5349
  356MOL0     C49052   7.053   8.042  11.265 -0.0647  0.3136  0.3812
  356MOL0     C49053   6.966   7.918  11.303 -0.1521  1.1210  0.2055
  356MOL0     C49054   6.963   7.871  11.442  1.7063  0.0873  0.5561
  356MOL0     C49055   6.930   7.828  11.548 -0.0453 -0.2509 -0.4547
  356MOL0     C49056   7.296   8.465  11.165 -0.1019 -0.5808  0.8475
  356MOL0     C49057   7.383   8.546  11.092 -0.6666  0.0648 -0.7579
  356MOL0     C49058   7.493   8.597  11.170 -0.2122  0.3118 -0.1430
  356MOL0     H49059   7.322   8.798  10.617 -1.9541 -1.3243 -0.2149
  356MOL0     H49060   7.403   8.933  10.412  3.3632  0.6292 -2.4018
  356MOL0     H49061   7.817   8.895  10.308 -0.0500  0.1314 -1.4044
  356MOL0     H49062   7.794   9.066  10.321  0.8051  1.3450 -0.7992
  356MOL0     H49063   7.747   9.111  10.120  4.3142  0.4999  3.0067
  356MOL0     H49064   7.870   9.019  10.101  0.0019  1.1913  1.6369
  356MOL0     H49065   7.690   8.809  10.057 -1.1911 -0.9638 -0.9753
  356MOL0     H49066   7.568   8.933  10.050  0.1865  0.5484 -0.7629
  356MOL0     H49067   7.690   9.080   9.904 -0.4253 -0.7706  2.2235
  356MOL0     H49068   7.792   8.941   9.849  0.6713  1.2188 -0.0215
  356MOL0     H49069   7.492   8.993   9.834 -0.9216 -2.4337  2.0034
  356MOL0     H49070   7.576   8.838   9.778  1.1595  0.1642 -3.6858
  356MOL0     H49071   7.691   9.081   9.656 -1.1182  0.0422  0.7184
  356MOL0     H49072   7.663   8.925   9.584  2.5530  0.5191 -0.7783
  356MOL0     H49073   7.465   9.131   9.676 -0.9899 -1.9518  0.7539
  356MOL0     H49074   7.416   8.986   9.589  1.6102 -1.8653  4.1346
  356MOL0     H49075   7.536   9.076   9.387 -1.7656  1.7254 -1.0631
  356MOL0     H49076   7.405   9.175   9.434 -1.1360  0.0463  2.2288
  356MOL0     H49077   7.609   9.320   9.675  2.4554  0.5361  0.4479
  356MOL0     H49078   7.737   9.638   9.486 -1.2535 -0.9791 -1.1233
  356MOL0     H49079   7.735   9.569   9.650  1.8476  0.5551 -1.2769
  356MOL0     H49080   7.512   9.740   9.496 -1.8587  0.2534  0.4499
  356MOL0     H49081   7.481   9.662   9.645  1.7373 -0.9154  3.7530
  356MOL0     H49082   7.635   9.794   9.766  0.4132  0.4757 -0.3320
  356MOL0     H49083   7.718   9.844   9.615  0.2916  2.4128  2.5751
  356MOL0     H49084   7.611  10.025   9.669  0.8288 -1.6969  2.2787
  356MOL0     H49085   7.508   9.963   9.546  3.0854  2.2234 -1.0434
  356MOL0     H49086   7.516  10.177   9.851  0.9850  2.8147 -0.8506
  356MOL0     H49087   7.470  10.494   9.792 -2.7638  0.3177 -1.5913
  356MOL0     H49088   7.516  10.405   9.934  0.2457  0.2492 -0.8230
  356MOL0     H49089   7.360  10.483   9.933 -0.4690  5.2438 -3.8168
  356MOL0     H49090   6.993  10.717   9.948 -0.0512 -0.8757 -1.0644
  356MOL0     H49091   6.964  10.945   9.906  2.7893  2.8868  0.7361
  356MOL0     H49092   6.914  11.055   9.631 -1.2095  0.9345  0.6129
  356MOL0     H49093   6.932  11.223   9.708 -0.5590  0.2857 -0.6532
  356MOL0     H49094   7.080  11.121   9.477  1.2345 -0.4268  1.0141
  356MOL0     H49095   6.926  11.222   9.473 -0.5385 -2.0025 -0.2318
  356MOL0     H49096   7.200  11.317   9.597 -0.9345 -0.0258  1.4439
  356MOL0     H49097   7.047  11.410   9.591 -0.5038 -1.3545  0.1225
  356MOL0     H49098   7.037  11.432   9.359 -0.6354  0.8342  0.5670
  356MOL0     H49099   7.157  11.312   9.326  0.0813 -0.9638  0.8914
  356MOL0     H49100   7.196  11.562   9.489 -1.5748  1.7372 -1.4651
  356MOL0     H49101   7.320  11.471   9.457  1.1627  1.3139  0.2636
  356MOL0     H49102   7.163  11.593   9.203  2.6191 -0.1671 -3.8561
  356MOL0     H49103   7.331  11.549   9.234 -0.3477  0.4024 -0.9900
  356MOL0     H49104   7.363  11.741   9.386 -0.0690  1.5916 -0.4003
  356MOL0     H49105   7.186  11.761   9.397 -0.1788 -1.2641  2.0572
  356MOL0     H49106   7.178  11.820   9.161 -0.7840  0.0779  2.4794
  356MOL0     H49107   7.361  11.847   9.166 -0.2716  2.4927 -0.4398
  356MOL0     H49108   7.236  10.934   9.580  0.7681 -3.5353 -1.4120
  356MOL0     H49109   7.285  10.701   9.616 -2.0882 -1.8226 -1.0682
  356MOL0     H49110   7.069  10.209   9.655  0.6161 -0.0380 -1.3612
  356MOL0     H49111   7.190   9.994   9.659  0.4418 -0.7741  2.3372
  356MOL0     H49112   7.790   8.774  10.475 -0.9305  2.5926  1.5574
  356MOL0     H49113   7.720   8.643  10.650  1.5712  2.0865  0.3013
  356MOL0     H49114   7.248   8.462  10.791  1.0437 -1.2433 -1.0070
  356MOL0     H49115   7.101   8.349  10.916  0.2239 -1.9582  0.0595
  356MOL0     H49116   7.230   8.248  11.312  1.3885  1.5382 -1.4555
  356MOL0     H49117   7.108   8.359  11.369 -2.6639 -1.4797 -0.2402
  356MOL0     H49118   6.938   8.206  11.359  1.2900  1.6447  2.2848
  356MOL0     H49119   7.041   8.121  11.452 -1.9337 -0.2160 -0.2787
  356MOL0     H49120   7.014   8.059  11.164  0.7415 -1.5405 -0.3032
  356MOL0     H49121   7.158   8.015  11.253  0.3037  2.2372 -1.2984
  356MOL0     H49122   7.003   7.828  11.252  1.0412 -1.0468  4.3625
  356MOL0     H49123   6.864   7.950  11.283 -0.7476  0.2422  1.6853
  356MOL0     H49124   6.917   7.816  11.654 -0.4575  0.5510 -0.4041
  356MOL0     H49125   7.300   8.460  11.273  0.8338 -4.0199  0.7888
  356MOL0     H49126   7.470   8.703  11.185 -1.2977  0.1118 -0.3539
  356MOL0     H49127   7.500   8.548  11.267 -1.7738 -0.5362 -0.4279
  356MOL0     H49128   7.583   8.583  11.109 -0.5339  0.9726 -0.7865
  357MOL0     O49129   4.228   9.126   2.331 -1.3242 -0.2237 -0.1288
  357MOL0     C49130   4.229   9.237   2.280  0.2555  0.0514 -0.0806
  357MOL0     O49131   4.326   9.291   2.198  0.1317 -0.1019 -0.6318
  357MOL0     C49132   4.441   9.217   2.155 -0.4360 -0.7266  0.5476
  357MOL0     C49133   4.492   9.228   2.023  0.5813 -0.2044  0.2828
  357MOL0     C49134   4.604   9.154   1.985 -0.2076  0.2960  0.9194
  357MOL0     C49135   4.680   9.093   2.083  0.5777  0.7650  0.4811
  357MOL0     O49136   4.796   9.028   2.056  0.1218  0.5772 -0.3663
  357MOL0     C49137   4.914   9.099   2.107  0.5126  0.6541 -0.4657
  357MOL0     C49138   5.042   9.028   2.083  0.4345 -0.4301 -0.1765
  357MOL0     C49139   5.165   9.109   2.137 -0.2395 -0.5821 -0.3489
  357MOL0     C49140   5.191   9.248   2.071 -1.0866 -1.3115 -0.0303
  357MOL0     C49141   5.331   9.295   2.115 -1.0825 -0.8070  0.2416
  357MOL0     C49142   5.342   9.441   2.093 -0.1805  0.3430 -0.3792
  357MOL0     C49143   5.476   9.505   2.146 -0.0878  0.6027 -0.6258
  357MOL0     C49144   5.602   9.482   2.049 -0.1668  0.6059  0.5924
  357MOL0     N49145   5.720   9.547   2.098 -0.6688 -0.4330  0.0255
  357MOL0     C49146   5.726   9.664   2.162 -1.0742 -0.4874 -1.6228
  357MOL0     C49147   5.855   9.674   2.211 -0.4815  0.0562 -0.1584
  357MOL0     C49148   5.909   9.792   2.284 -0.0481 -0.7104 -0.2015
  357MOL0     C49149   5.823   9.822   2.404 -0.6501  0.8429 -0.0599
  357MOL0     C49150   5.731   9.947   2.359  0.5561  0.7515 -0.4859
  357MOL0     C49151   5.643  10.000   2.473 -0.8481 -0.5384  0.3512
  357MOL0     O49152   5.561   9.888   2.515  0.0619 -0.7941 -0.9008
  357MOL0     C49153   5.462   9.893   2.615  0.0226  0.9787  0.2305
  357MOL0     C49154   5.412   9.771   2.656  0.8135 -0.2202  0.6020
  357MOL0     C49155   5.338   9.766   2.773 -0.0994 -0.8289  0.1858
  357MOL0     C49156   5.321   9.632   2.838  0.2507 -0.5649  0.0699
  357MOL0     C49157   5.300   9.893   2.835 -1.5024 -0.4522 -0.0325
  357MOL0     C49158   5.214   9.892   2.952  1.0150  0.4124  0.1065
  357MOL0     O49159   5.205   9.995   3.039 -0.3243 -0.4343  0.0160
  357MOL0     C49160   5.144   9.992   3.168 -0.0860  0.7837  0.3003
  357MOL0     C49161   5.011  10.030   3.191  0.1092 -0.1210  1.5268
  357MOL0     C49162   4.951   9.984   3.310 -0.5255 -0.7169  0.4225
  357MOL0     C49163   5.017   9.922   3.420  0.3085 -0.0730  0.8898
  357MOL0     O49164   4.948   9.866   3.523 -0.3024 -0.5425 -0.8162
  357MOL0     C49165   5.008   9.743   3.564 -0.1922 -0.3313 -0.3735
  357MOL0     C49166   4.907   9.652   3.636 -0.4858 -0.5763  0.5932
  357MOL0     C49167   4.970   9.546   3.727 -0.1795  0.2018  0.2664
  357MOL0     C49168   5.037   9.434   3.635  0.6036 -0.5895 -0.8413
  357MOL0     C49169   5.097   9.345   3.745  0.4201  0.1829  0.0012
  357MOL0     C49170   5.160   9.219   3.685 -0.3088 -0.4084  0.3033
  357MOL0     C49171   5.231   9.142   3.799 -0.4250 -0.0472 -0.4316
  357MOL0     C49172   5.213   8.992   3.792  0.1027 -0.0246 -0.6409
  357MOL0    Cl49173   5.286   8.909   3.663 -0.5274  0.3077 -0.2079
  357MOL0     C49174   5.149   9.906   3.401 -0.3938 -0.0459  0.0110
  357MOL0     C49175   5.216   9.935   3.279 -0.0711  0.6352  0.9288
  357MOL0     O49176   5.144   9.795   2.967 -0.2056 -0.0566 -1.2823
  357MOL0     C49177   5.340  10.013   2.781 -0.5715 -0.2118  0.9177
  357MOL0     C49178   5.424  10.007   2.671 -0.3924  0.4102  0.2979
  357MOL0     N49179   5.918   9.555   2.185 -0.3460 -0.4297 -0.1598
  357MOL0     N49180   5.837   9.483   2.115  0.0248  0.0066  0.7810
  357MOL0     C49181   4.637   9.093   2.212 -0.7459  0.7014 -1.0106
  357MOL0     C49182   4.522   9.152   2.252  0.3389  0.6059  0.2888
  357MOL0     C49183   4.106   9.315   2.301  1.2095 -0.0924  0.1600
  357MOL0     C49184   3.996   9.249   2.355  0.2816 -0.1716  0.6316
  357MOL0     C49185   3.879   9.318   2.393 -0.0032  0.7660 -0.2362
  357MOL0     C49186   3.872   9.457   2.378  0.5430  0.4157  1.3831
  357MOL0     O49187   3.759   9.532   2.408  0.0443 -0.0623  0.0811
  357MOL0     C49188   3.656   9.487   2.493 -0.0623 -0.0162 -0.1720
  357MOL0     C49189   3.697   9.448   2.636 -0.4502 -0.2602 -0.1236
  357MOL0     C49190   3.735   9.563   2.736  0.0375  0.3413 -0.7291
  357MOL0     C49191   3.858   9.640   2.683 -0.3374 -0.0760 -0.3406
  357MOL0     C49192   3.968   9.544   2.665  0.4955  0.2960  0.2745
  357MOL0     C49193   4.051   9.452   2.661  0.6723  0.8223 -0.0947
  357MOL0     C49194   3.962   9.520   2.307 -0.4641  0.1790  0.9569
  357MOL0     C49195   4.091   9.464   2.286 -0.0428  0.0211 -0.3763
  357MOL0     C49196   4.201   9.551   2.236  0.3989 -0.5942  0.0506
  357MOL0     H49197   4.439   9.289   1.951 -0.0485  1.4459  2.0545
  357MOL0     H49198   4.613   9.147   1.877 -1.0243 -1.7016  0.9345
  357MOL0     H49199   4.899   9.125   2.212  3.0569  2.4943 -0.4726
  357MOL0     H49200   4.917   9.194   2.054 -1.7461  0.7632 -0.4926
  357MOL0     H49201   5.037   8.933   2.137 -1.0836 -1.3562 -1.8330
  357MOL0     H49202   5.046   8.997   1.978  0.5129 -0.5565 -0.1359
  357MOL0     H49203   5.159   9.120   2.245  1.9358  0.8349 -0.3126
  357MOL0     H49204   5.247   9.037   2.129 -0.2660 -0.8722  1.6292
  357MOL0     H49205   5.186   9.257   1.962  3.4996  2.8186 -0.2414
  357MOL0     H49206   5.120   9.321   2.112 -0.7619 -2.3938  2.6640
  357MOL0     H49207   5.409   9.244   2.058  1.0876  3.4284 -0.9878
  357MOL0     H49208   5.336   9.281   2.223 -0.2832 -0.6850  0.2270
  357MOL0     H49209   5.324   9.475   1.990  0.7961  1.8492 -0.0906
  357MOL0     H49210   5.260   9.485   2.151 -0.1128 -1.8703  1.5154
  357MOL0     H49211   5.495   9.476   2.250  1.2167  1.3386 -0.6420
  357MOL0     H49212   5.453   9.612   2.148 -3.3486 -0.0070  2.0185
  357MOL0     H49213   5.625   9.376   2.036  0.3896  0.7449  0.4198
  357MOL0     H49214   5.577   9.535   1.956 -1.3880  4.5346  2.9215
  357MOL0     H49215   5.649   9.740   2.172 -0.3584  0.1312 -0.6130
  357MOL0     H49216   5.923   9.871   2.210 -2.1152 -0.8820 -0.8466
  357MOL0     H49217   6.010   9.766   2.316  0.3896 -1.2061 -1.9189
  357MOL0     H49218   5.771   9.731   2.434 -3.4076  1.9396 -1.1424
  357MOL0     H49219   5.870   9.856   2.497  0.9967 -0.3843 -0.4001
  357MOL0     H49220   5.786  10.033   2.322  1.2990  0.2696 -0.5286
  357MOL0     H49221   5.668   9.915   2.275  2.8989  3.1919 -3.3840
  357MOL0     H49222   5.702  10.044   2.553  1.7736  0.8503 -2.1408
  357MOL0     H49223   5.586  10.083   2.431 -1.9783 -0.0517  2.6882
  357MOL0     H49224   5.427   9.687   2.589 -0.0105  0.3143 -0.2804
  357MOL0     H49225   5.362   9.622   2.939 -1.5407  1.5338  1.0844
  357MOL0     H49226   5.363   9.564   2.762  1.7358  1.4056 -0.9778
  357MOL0     H49227   5.216   9.601   2.844  0.4609 -1.0416  1.9618
  357MOL0     H49228   4.952  10.083   3.116  1.2799  1.0982  1.4332
  357MOL0     H49229   4.845   9.990   3.328 -0.3581 -4.0378  3.6130
  357MOL0     H49230   5.034   9.676   3.482  0.5351 -2.9692  1.8327
  357MOL0     H49231   5.096   9.774   3.621 -2.2624 -0.6117  3.3107
  357MOL0     H49232   4.841   9.725   3.685 -0.1061  1.3562 -1.6086
  357MOL0     H49233   4.863   9.603   3.549 -0.3464  1.3713 -0.6314
  357MOL0     H49234   4.891   9.516   3.795 -2.1217  0.9079 -1.5397
  357MOL0     H49235   5.049   9.584   3.793  0.2331 -1.9236  1.0711
  357MOL0     H49236   5.103   9.481   3.561 -2.2937  2.7495 -1.5679
  357MOL0     H49237   4.961   9.373   3.588  0.4259  0.1170 -1.4911
  357MOL0     H49238   5.179   9.395   3.796 -0.5166 -2.0828  4.1867
  357MOL0     H49239   5.027   9.322   3.826  1.4128  1.6419  1.3208
  357MOL0     H49240   5.225   9.242   3.601  0.9885  3.2054  2.0938
  357MOL0     H49241   5.090   9.150   3.636  0.0229 -1.8172  1.6967
  357MOL0     H49242   5.203   9.164   3.902 -2.6981  2.8427 -1.5209
  357MOL0     H49243   5.338   9.167   3.801 -0.1970 -0.9700 -0.6526
  357MOL0     H49244   5.107   8.966   3.778  0.3593 -2.6861  1.4598
  357MOL0     H49245   5.229   8.942   3.888 -3.0967  4.2951  2.5345
  357MOL0     H49246   5.213   9.854   3.471  0.1917  1.5765  0.7492
  357MOL0     H49247   5.322   9.924   3.263 -0.2501 -0.5954  0.5254
  357MOL0     H49248   5.308  10.109   2.821  1.2836  0.0831  1.8222
  357MOL0     H49249   5.461  10.101   2.633  1.4581 -0.1797  0.5289
  357MOL0     H49250   4.701   9.040   2.282 -2.3443  0.1651  0.0934
  357MOL0     H49251   4.485   9.149   2.354  1.8561  1.7210  0.8960
  357MOL0     H49252   3.999   9.144   2.381  0.5864 -0.0562  1.0637
  357MOL0     H49253   3.799   9.254   2.427  0.9756  0.2086  1.1057
  357MOL0     H49254   3.568   9.551   2.503  0.6037  1.0504 -0.8762
  357MOL0     H49255   3.623   9.390   2.455  5.2519 -0.6758 -4.3240
  357MOL0     H49256   3.776   9.373   2.628 -0.4670 -0.1288 -1.9428
  357MOL0     H49257   3.610   9.388   2.665  1.1471 -1.8249  1.6988
  357MOL0     H49258   3.645   9.618   2.765 -1.1122 -1.9147  0.2995
  357MOL0     H49259   3.770   9.512   2.826  2.9873  4.2897  0.6635
  357MOL0     H49260   3.879   9.721   2.755 -0.4454  0.8819 -1.3618
  357MOL0     H49261   3.831   9.692   2.591 -3.5381 -0.8092  0.0697
  357MOL0     H49262   4.120   9.372   2.648 -1.8999 -1.3490 -1.4656
  357MOL0     H49263   3.963   9.628   2.313  2.4066  0.2200  0.9897
  357MOL0     H49264   4.286   9.537   2.304 -0.5409 -0.2183  1.3448
  357MOL0     H49265   4.226   9.546   2.130  1.2975  5.8592 -0.4235
  357MOL0     H49266   4.181   9.657   2.256  1.6351 -0.4111  0.4312
  358MOL0     O49267   6.998  10.616   7.236  0.4880  0.3146  0.3527
  358MOL0     C49268   6.961  10.602   7.121 -0.5757 -0.9326 -0.4290
  358MOL0     O49269   6.883  10.505   7.071 -0.2816  0.4823  0.4048
  358MOL0     C49270   6.874  10.392   7.140  0.6290 -0.4061 -0.7035
  358MOL0     C49271   6.965  10.297   7.092 -1.1073 -0.1431 -0.3073
  358MOL0     C49272   6.971  10.169   7.157  0.6277 -0.2516 -0.7537
  358MOL0     C49273   6.891  10.137   7.275  0.0160  0.0975  0.2359
  358MOL0     O49274   6.876  10.013   7.344 -0.4022 -0.7162  0.6755
  358MOL0     C49275   7.000   9.947   7.362  0.5301 -0.7358  0.0084
  358MOL0     C49276   7.067   9.981   7.497  0.4380  0.4809  1.1569
  358MOL0     C49277   7.171   9.879   7.554  0.9386 -0.7043  0.1449
  358MOL0     C49278   7.248   9.951   7.657 -0.1701 -0.0830 -0.4562
  358MOL0     C49279   7.362   9.859   7.715  0.4521  0.8525 -0.2277
  358MOL0     C49280   7.339   9.809   7.865  0.0751  0.6642  0.0830
  358MOL0     C49281   7.483   9.775   7.925 -0.0816 -0.0751 -1.0275
  358MOL0     C49282   7.499   9.621   7.954 -0.4845 -0.1881 -1.0731
  358MOL0     N49283   7.520   9.552   7.829 -0.1379  0.0214  0.9788
  358MOL0     C49284   7.414   9.499   7.754 -0.6569  0.1863  0.6071
  358MOL0     C49285   7.472   9.451   7.645 -1.3030  0.0313  0.0579
  358MOL0     C49286   7.410   9.386   7.530 -0.1108 -0.5297 -0.0036
  358MOL0     C49287   7.306   9.473   7.455 -0.5506 -0.0363 -0.2228
  358MOL0     C49288   7.178   9.476   7.533  0.2566  0.1295  0.2883
  358MOL0     C49289   7.053   9.500   7.453  0.1566 -0.6511 -1.1560
  358MOL0     O49290   7.003   9.379   7.405 -0.4625  0.5288 -0.6842
  358MOL0     C49291   6.883   9.376   7.332 -0.6217  0.2499 -0.9706
  358MOL0     C49292   6.817   9.494   7.279 -1.2458  0.2817  0.3723
  358MOL0     C49293   6.698   9.465   7.205 -0.1629 -0.3947  0.4560
  358MOL0     C49294   6.635   9.583   7.131 -0.7546 -0.1133  0.0420
  358MOL0     C49295   6.643   9.331   7.191  0.8027 -0.0814 -1.6049
  358MOL0     C49296   6.524   9.314   7.116 -0.3416 -0.0527 -0.1932
  358MOL0     O49297   6.542   9.274   6.988 -1.1078 -0.3953  0.3312
  358MOL0     C49298   6.434   9.303   6.904  0.2401  0.1540  0.8724
  358MOL0     C49299   6.362   9.417   6.914 -0.1742  0.2722  0.4309
  358MOL0     C49300   6.254   9.451   6.837  0.8627  0.0739 -0.5144
  358MOL0     C49301   6.219   9.364   6.727 -0.0045  0.5246 -1.2378
  358MOL0     O49302   6.115   9.406   6.632  0.2540  0.2123 -0.9952
  358MOL0     C49303   6.010   9.305   6.609 -0.3639  0.5788 -0.8680
  358MOL0     C49304   5.915   9.297   6.726  0.1116 -0.0129 -0.0677
  358MOL0     C49305   5.866   9.150   6.732  0.6578  0.4919 -0.3887
  358MOL0     C49306   5.781   9.135   6.854 -0.0071  0.2735 -0.7834
  358MOL0     C49307   5.760   8.990   6.898 -0.0461  0.5481  0.6958
  358MOL0     C49308   5.731   8.983   7.042 -0.0262 -0.2064 -0.5453
  358MOL0     C49309   5.703   8.833   7.087 -1.5415  0.4036  0.2626
  358MOL0     C49310   5.660   8.845   7.232  0.3847  0.2010 -0.5582
  358MOL0    Cl49311   5.788   8.909   7.333 -0.4661  0.5395 -0.2279
  358MOL0     C49312   6.302   9.248   6.713  1.3233 -1.0150  0.2746
  358MOL0     C49313   6.405   9.225   6.804  0.0061  0.7326  0.3240
  358MOL0     O49314   6.423   9.329   7.171 -0.1691 -0.7504 -0.6434
  358MOL0     C49315   6.698   9.219   7.262 -0.1332  0.1654  0.0007
  358MOL0     C49316   6.826   9.243   7.327  0.4059 -1.0959  0.3058
  358MOL0     N49317   7.613   9.462   7.663  0.8725 -0.8514 -0.0464
  358MOL0     N49318   7.641   9.535   7.769  0.5674 -1.2089 -0.5803
  358MOL0     C49319   6.813  10.243   7.325 -0.2572 -0.1722 -0.8357
  358MOL0     C49320   6.799  10.364   7.253 -0.9001 -0.0315 -0.2042
  358MOL0     C49321   7.020  10.718   7.030 -0.0402  0.2567  0.1951
  358MOL0     C49322   6.934  10.794   6.944 -0.4006  0.9232 -0.4727
  358MOL0     C49323   6.971  10.899   6.856  0.2640  0.8054  0.6982
  358MOL0     C49324   7.105  10.927   6.839  0.0738  1.1284 -0.6705
  358MOL0     O49325   7.146  11.018   6.754 -0.1904 -0.5674  0.4719
  358MOL0     C49326   7.136  11.158   6.788  0.2128  0.9650 -0.0864
  358MOL0     C49327   7.263  11.200   6.861 -0.1971  0.3135 -0.7860
  358MOL0     C49328   7.385  11.187   6.771 -0.6141 -0.2816  0.3464
  358MOL0     C49329   7.500  11.272   6.821 -0.8190 -0.8427 -0.0136
  358MOL0     C49330   7.570  11.211   6.928  1.5928  0.9946  0.1477
  358MOL0     C49331   7.633  11.160   7.019 -0.4116  0.7475  0.0572
  358MOL0     C49332   7.192  10.864   6.934  1.0581 -0.6330  1.1837
  358MOL0     C49333   7.156  10.770   7.027 -0.8140 -0.3734  0.3276
  358MOL0     C49334   7.275  10.701   7.095  0.2918  0.2047 -0.9142
  358MOL0     H49335   7.030  10.299   7.005 -2.0562 -3.0707 -1.2080
  358MOL0     H49336   7.043  10.095   7.123 -0.5450 -1.6938 -0.1641
  358MOL0     H49337   7.069   9.946   7.278 -0.8791 -0.8445 -1.1934
  358MOL0     H49338   6.970   9.842   7.364  3.4628 -1.6610  2.2780
  358MOL0     H49339   7.112  10.078   7.473 -1.4333  0.4374 -3.6342
  358MOL0     H49340   6.989   9.994   7.573 -3.2739  1.3704 -2.4248
  358MOL0     H49341   7.115   9.794   7.594  0.1451 -1.7095 -2.7870
  358MOL0     H49342   7.239   9.849   7.473 -1.1407  1.8329 -2.7719
  358MOL0     H49343   7.295  10.034   7.604  2.4085 -2.1760 -1.7308
  358MOL0     H49344   7.189   9.997   7.737 -0.8071  0.6264 -1.3182
  358MOL0     H49345   7.458   9.912   7.712  0.9516  0.1128  1.4791
  358MOL0     H49346   7.371   9.773   7.648 -0.0185  1.7058 -1.4103
  358MOL0     H49347   7.301   9.891   7.927  1.9303  2.7505 -1.3853
  358MOL0     H49348   7.272   9.723   7.872 -2.5309  2.6620  1.7074
  358MOL0     H49349   7.493   9.822   8.023  1.0948 -1.2200 -0.5758
  358MOL0     H49350   7.568   9.804   7.862  2.3847 -4.8673 -0.3658
  358MOL0     H49351   7.586   9.601   8.018 -1.0619  3.2424  1.0557
  358MOL0     H49352   7.401   9.592   7.992  0.2677 -0.0743  1.0719
  358MOL0     H49353   7.308   9.486   7.777 -1.0624  1.9494 -0.1020
  358MOL0     H49354   7.378   9.284   7.556  0.3768 -0.0244  2.8273
  358MOL0     H49355   7.482   9.359   7.452  0.1058 -0.9855  0.3462
  358MOL0     H49356   7.351   9.570   7.430  2.9476 -1.5914 -0.4375
  358MOL0     H49357   7.283   9.421   7.362 -1.0832  0.2450 -0.2564
  358MOL0     H49358   7.169   9.390   7.599  0.6767 -0.5575 -0.5191
  358MOL0     H49359   7.193   9.557   7.604 -1.0428  0.5437  0.1055
  358MOL0     H49360   6.983   9.548   7.522  1.4190 -1.4794  0.8106
  358MOL0     H49361   7.060   9.573   7.372 -0.7261  0.2157 -0.4648
  358MOL0     H49362   6.845   9.598   7.292 -0.9444  0.3267 -0.5737
  358MOL0     H49363   6.602   9.550   7.032 -2.6561 -0.1104  0.6434
  358MOL0     H49364   6.703   9.668   7.123 -1.4538  0.5950  1.2581
  358MOL0     H49365   6.552   9.620   7.193  0.4304  0.1602  1.5331
  358MOL0     H49366   6.400   9.493   6.982 -0.8556 -0.9516  2.2775
  358MOL0     H49367   6.210   9.550   6.843  0.1894 -0.3113  1.9263
  358MOL0     H49368   5.967   9.332   6.512 -2.4772  0.7000  0.0541
  358MOL0     H49369   6.055   9.206   6.599  1.1685  0.9264  1.6083
  358MOL0     H49370   5.957   9.331   6.822 -0.1027 -0.5728  0.2275
  358MOL0     H49371   5.825   9.356   6.709  1.2419  1.8182  0.0678
  358MOL0     H49372   5.954   9.089   6.753  0.4382  0.3044 -0.0045
  358MOL0     H49373   5.825   9.119   6.635  2.5211  0.7164 -1.2850
  358MOL0     H49374   5.679   9.158   6.823 -0.2747 -3.6753 -3.6961
  358MOL0     H49375   5.819   9.201   6.932 -1.6380  2.7282 -1.9616
  358MOL0     H49376   5.682   8.935   6.846  1.0361 -1.9007  1.5138
  358MOL0     H49377   5.851   8.932   6.880 -0.4688 -0.1326  0.7122
  358MOL0     H49378   5.644   9.047   7.061 -1.0940 -1.7956  0.1884
  358MOL0     H49379   5.817   9.032   7.088  3.0661 -0.3277 -5.4994
  358MOL0     H49380   5.791   8.773   7.063 -2.1757 -0.7198  0.6453
  358MOL0     H49381   5.621   8.792   7.026 -1.5048  3.2733 -1.9313
  358MOL0     H49382   5.638   8.741   7.259  0.4973  1.2160  4.4347
  358MOL0     H49383   5.570   8.899   7.261  0.2736  0.3833 -1.2258
  358MOL0     H49384   6.289   9.193   6.621 -0.1274  2.9468 -2.1299
  358MOL0     H49385   6.464   9.134   6.793 -1.6511 -0.4271  0.7267
  358MOL0     H49386   6.654   9.124   7.234  1.9047 -0.2719 -1.9615
  358MOL0     H49387   6.887   9.169   7.376  1.3530 -1.1236 -0.8593
  358MOL0     H49388   6.742  10.252   7.407 -0.8893  4.7485 -1.6276
  358MOL0     H49389   6.732  10.436   7.298 -0.5335  0.1077  0.1245
  358MOL0     H49390   6.829  10.765   6.953  0.3161 -1.6887  0.5095
  358MOL0     H49391   6.895  10.947   6.795  0.1949 -0.9898 -0.7258
  358MOL0     H49392   7.113  11.208   6.693 -2.0757 -2.4954 -1.5432
  358MOL0     H49393   7.042  11.170   6.843  0.8635  0.9101  1.0479
  358MOL0     H49394   7.265  11.139   6.951  0.7780 -1.1096 -1.7368
  358MOL0     H49395   7.240  11.299   6.901 -0.7520 -1.3933  3.6362
  358MOL0     H49396   7.421  11.085   6.755  2.0074  0.5180  0.5744
  358MOL0     H49397   7.337  11.223   6.680 -1.2200 -0.8656  0.4260
  358MOL0     H49398   7.469  11.362   6.875  1.1762  1.4067 -2.3268
  358MOL0     H49399   7.566  11.300   6.738 -0.5366 -0.1024  0.4474
  358MOL0     H49400   7.705  11.123   7.089 -1.2167 -0.6299  0.1811
  358MOL0     H49401   7.296  10.896   6.929  0.8068  0.1493  0.6554
  358MOL0     H49402   7.293  10.609   7.040  2.5882 -0.0573  0.1394
  358MOL0     H49403   7.374  10.747   7.083  1.4581 -1.4954  1.2596
  358MOL0     H49404   7.258  10.675   7.200 -2.6157  1.6590 -0.9250
  359MOL0     O49405   6.189  11.594   8.635 -0.5530  0.2235  0.3266
  359MOL0     C49406   6.156  11.698   8.690 -0.8081  0.1004 -0.5432
  359MOL0     O49407   6.028  11.724   8.737 -0.0756  0.0936 -0.5139
  359MOL0     C49408   5.928  11.625   8.745 -0.1066 -0.6404  0.6559
  359MOL0     C49409   5.898  11.543   8.633 -0.0639 -0.0097  0.3265
  359MOL0     C49410   5.795  11.444   8.646 -0.6985  0.2027 -0.3551
  359MOL0     C49411   5.729  11.429   8.771 -0.9288 -0.0072 -0.5163
  359MOL0     O49412   5.634  11.327   8.772  0.2475 -0.1941 -0.6240
  359MOL0     C49413   5.577  11.266   8.893 -0.6758  0.0242  0.9469
  359MOL0     C49414   5.678  11.174   8.965  1.1009 -0.1545 -0.3213
  359MOL0     C49415   5.773  11.084   8.879 -0.4471  0.4955 -0.4723
  359MOL0     C49416   5.708  10.975   8.807  0.0245  0.5791 -0.0533
  359MOL0     C49417   5.773  10.850   8.853 -0.5077  0.2591 -0.2227
  359MOL0     C49418   5.715  10.723   8.786 -0.2582  0.8463 -0.5738
  359MOL0     C49419   5.767  10.722   8.646 -0.7692 -0.2055  0.2839
  359MOL0     C49420   5.785  10.591   8.576 -0.1966  0.5511 -0.2680
  359MOL0     N49421   5.710  10.476   8.622  0.3312 -0.6051  0.0096
  359MOL0     C49422   5.572  10.476   8.625  0.3452  0.0266  0.5995
  359MOL0     C49423   5.538  10.378   8.712  0.7549  0.2087 -0.0067
  359MOL0     C49424   5.400  10.343   8.758  0.7168 -0.7362  1.2803
  359MOL0     C49425   5.378  10.366   8.906 -0.0568  0.3874  0.0801
  359MOL0     C49426   5.434  10.503   8.946  0.1460 -0.9819  0.0904
  359MOL0     C49427   5.359  10.555   9.067 -0.0719 -0.2066 -0.4093
  359MOL0     O49428   5.440  10.653   9.140 -0.3404 -0.6563  0.4605
  359MOL0     C49429   5.390  10.743   9.231  0.5238 -1.0794  0.8470
  359MOL0     C49430   5.477  10.843   9.279  0.6686 -0.3092  0.6029
  359MOL0     C49431   5.433  10.946   9.377 -0.8936  0.4926 -0.3894
  359MOL0     C49432   5.519  11.065   9.396 -0.7524  0.6031  0.6855
  359MOL0     C49433   5.310  10.925   9.436  0.4008  0.4008 -0.3861
  359MOL0     C49434   5.253  11.006   9.549 -0.0559 -0.2313  0.0602
  359MOL0     O49435   5.344  11.066   9.631 -0.2241  0.4368  0.5262
  359MOL0     C49436   5.295  11.153   9.732  0.2848 -0.6806 -0.1435
  359MOL0     C49437   5.296  11.298   9.730  0.1891 -1.0584  0.3359
  359MOL0     C49438   5.242  11.373   9.828  0.6302 -0.0028 -0.5662
  359MOL0     C49439   5.180  11.308   9.939 -0.4559 -0.9783 -0.0735
  359MOL0     O49440   5.127  11.379  10.045  0.0248  0.3344 -0.3358
  359MOL0     C49441   5.112  11.521  10.031 -0.8946 -0.0690 -0.3834
  359MOL0     C49442   4.994  11.565   9.934 -0.2515  0.0952 -0.3782
  359MOL0     C49443   4.851  11.569  10.000  0.0227  0.2275 -0.2700
  359MOL0     C49444   4.753  11.671   9.944 -0.0276  0.2258  0.1678
  359MOL0     C49445   4.624  11.669  10.026 -0.1530 -0.5604 -0.4805
  359MOL0     C49446   4.556  11.803  10.014  0.1200 -0.2446 -1.1993
  359MOL0     C49447   4.446  11.829  10.124 -0.0363 -0.9858  0.0986
  359MOL0     C49448   4.348  11.709  10.141  0.4285 -0.5698 -0.2719
  359MOL0    Cl49449   4.258  11.676   9.994 -0.0393 -0.0257  0.4588
  359MOL0     C49450   5.186  11.167   9.955  0.1099 -0.2265 -0.3921
  359MOL0     C49451   5.245  11.089   9.851 -0.6457  0.0771 -0.9613
  359MOL0     O49452   5.136  11.021   9.562  0.5395 -0.0347  0.0281
  359MOL0     C49453   5.234  10.811   9.403  0.0092  0.0697  0.0108
  359MOL0     C49454   5.263  10.721   9.291 -0.3539 -0.5901 -0.9112
  359MOL0     N49455   5.660  10.320   8.760  1.0746  0.5675  0.2011
  359MOL0     N49456   5.759  10.387   8.714 -0.0885 -0.3981  0.0777
  359MOL0     C49457   5.770  11.504   8.877  0.2392  1.2987  0.0239
  359MOL0     C49458   5.858  11.605   8.864  0.0335 -0.0455 -0.4071
  359MOL0     C49459   6.261  11.798   8.704  0.4762 -0.8540  1.3069
  359MOL0     C49460   6.224  11.933   8.693 -0.8793 -0.4574  0.3166
  359MOL0     C49461   6.319  12.035   8.685  0.5994 -0.2717 -0.6415
  359MOL0     C49462   6.453  12.009   8.683 -0.7285 -0.1597  0.1533
  359MOL0     O49463   6.551  12.095   8.679 -0.6092 -0.0995  1.0960
  359MOL0     C49464   6.534  12.237   8.655 -0.3421 -0.3391 -0.6060
  359MOL0     C49465   6.668  12.303   8.691 -0.3299  0.2342  0.3411
  359MOL0     C49466   6.777  12.275   8.593 -0.3376 -0.3251 -0.1315
  359MOL0     C49467   6.887  12.385   8.595 -0.8487  0.4161 -0.1238
  359MOL0     C49468   6.934  12.396   8.725  0.0959  0.5161 -0.3277
  359MOL0     C49469   6.983  12.415   8.834  0.2564  1.2683 -0.7744
  359MOL0     C49470   6.504  11.879   8.695 -0.4061  0.3893 -0.1712
  359MOL0     C49471   6.408  11.779   8.712  0.6819  0.0778  0.6912
  359MOL0     C49472   6.468  11.647   8.737 -0.1099 -0.1165  0.2831
  359MOL0     H49473   5.946  11.561   8.537 -0.7284  3.1297  0.4600
  359MOL0     H49474   5.771  11.388   8.557  0.8083 -4.2651  1.7817
  359MOL0     H49475   5.486  11.210   8.870 -0.1966 -0.4146  0.0567
  359MOL0     H49476   5.535  11.345   8.957 -2.1046 -0.4926  0.6761
  359MOL0     H49477   5.753  11.238   9.014  1.9050 -0.8894 -0.5787
  359MOL0     H49478   5.626  11.113   9.040 -1.0508 -0.2688 -1.8315
  359MOL0     H49479   5.821  11.151   8.807  2.1216 -0.1145  0.5391
  359MOL0     H49480   5.862  11.046   8.932  0.5667  3.4825  0.1558
  359MOL0     H49481   5.604  10.962   8.837 -1.0121  0.8260 -3.1257
  359MOL0     H49482   5.705  10.985   8.698  1.9034  0.9693 -0.1003
  359MOL0     H49483   5.770  10.846   8.962  0.7405 -3.7805 -0.1347
  359MOL0     H49484   5.877  10.854   8.818 -1.2908  1.1973 -2.6449
  359MOL0     H49485   5.747  10.636   8.844 -2.3979  1.0996  1.1472
  359MOL0     H49486   5.606  10.739   8.786 -0.1605  1.7115  0.8477
  359MOL0     H49487   5.862  10.776   8.645 -0.3310 -0.9035  1.6786
  359MOL0     H49488   5.689  10.782   8.598 -0.3924  2.5739  2.8414
  359MOL0     H49489   5.769  10.615   8.470 -0.2976  1.6048 -0.0249
  359MOL0     H49490   5.891  10.567   8.575  0.4226  2.8895 -2.6246
  359MOL0     H49491   5.507  10.547   8.574 -0.0536 -1.7666 -1.5009
  359MOL0     H49492   5.382  10.237   8.738  3.3081 -0.8908 -0.7025
  359MOL0     H49493   5.329  10.401   8.699  3.4371  0.2025 -1.3737
  359MOL0     H49494   5.271  10.351   8.917 -0.2402 -0.9901 -2.7787
  359MOL0     H49495   5.434  10.287   8.957  2.1519  2.1198  0.5008
  359MOL0     H49496   5.542  10.490   8.962  0.4273 -1.7843 -2.0850
  359MOL0     H49497   5.405  10.570   8.865  1.2217 -0.4130  0.1467
  359MOL0     H49498   5.274  10.604   9.019 -1.5262 -1.8542  0.4121
  359MOL0     H49499   5.320  10.476   9.131  0.5993 -0.0389  0.2271
  359MOL0     H49500   5.572  10.862   9.231  1.2884  2.4373  2.6126
  359MOL0     H49501   5.533  11.094   9.501  0.3566 -2.3389  1.4627
  359MOL0     H49502   5.493  11.148   9.330 -1.8003  1.3026  1.9131
  359MOL0     H49503   5.619  11.028   9.374 -1.0189 -2.0130  3.1941
  359MOL0     H49504   5.330  11.347   9.640 -1.6599 -0.0293  0.1465
  359MOL0     H49505   5.254  11.478   9.804  0.2147 -0.0805 -1.1572
  359MOL0     H49506   5.098  11.568  10.128 -0.5446  3.6829 -1.9877
  359MOL0     H49507   5.206  11.560   9.990  0.3642  0.3991  2.7040
  359MOL0     H49508   5.024  11.661   9.892  3.5412 -1.6305 -2.1278
  359MOL0     H49509   4.985  11.500   9.846  3.4888 -0.6190 -0.3758
  359MOL0     H49510   4.860  11.596  10.106 -1.8241  1.0352 -0.2822
  359MOL0     H49511   4.815  11.467   9.985  2.2649 -0.3830 -2.0049
  359MOL0     H49512   4.720  11.650   9.841 -2.4614 -0.7680  1.0715
  359MOL0     H49513   4.792  11.773   9.933 -0.0566  0.0663 -1.9164
  359MOL0     H49514   4.556  11.595   9.984  1.7659 -0.6029 -3.8531
  359MOL0     H49515   4.640  11.646  10.132 -0.7815  4.7757  1.0690
  359MOL0     H49516   4.511  11.814   9.915 -2.9621  1.9115  0.2678
  359MOL0     H49517   4.624  11.888  10.025  1.7342 -1.2935 -2.4891
  359MOL0     H49518   4.374  11.900  10.083 -1.2527 -2.5206 -0.5428
  359MOL0     H49519   4.484  11.860  10.221 -3.6030  1.9294  0.7930
  359MOL0     H49520   4.277  11.740  10.218 -1.8034 -2.7895 -1.2937
  359MOL0     H49521   4.403  11.620  10.173  2.0128  0.8191  1.0129
  359MOL0     H49522   5.146  11.117  10.042  3.4686 -1.3561  0.6679
  359MOL0     H49523   5.272  10.986   9.869 -0.7123  0.5721  3.0006
  359MOL0     H49524   5.147  10.775   9.458 -0.1458  2.1142  1.1728
  359MOL0     H49525   5.208  10.632   9.262 -0.7316 -0.1555 -1.5438
  359MOL0     H49526   5.726  11.496   8.976  0.4389  2.6506  0.2424
  359MOL0     H49527   5.870  11.665   8.954 -0.5705  0.0459 -0.3810
  359MOL0     H49528   6.119  11.959   8.699 -0.6045  0.2867  3.0178
  359MOL0     H49529   6.275  12.133   8.670  0.7036 -0.1454 -0.1441
  359MOL0     H49530   6.492  12.240   8.554 -1.1106 -1.9686 -0.3700
  359MOL0     H49531   6.458  12.268   8.728 -1.4524 -1.6515 -1.1408
  359MOL0     H49532   6.697  12.264   8.789 -0.8430 -0.9442  0.0512
  359MOL0     H49533   6.642  12.408   8.702  0.6559  0.6188 -0.8108
  359MOL0     H49534   6.809  12.176   8.626  0.9323  0.2440  0.3964
  359MOL0     H49535   6.726  12.261   8.497  0.1041 -0.4126 -0.3560
  359MOL0     H49536   6.861  12.488   8.569  2.2065  1.8192  1.8787
  359MOL0     H49537   6.972  12.360   8.530 -1.6670  0.3311 -1.1973
  359MOL0     H49538   7.043  12.424   8.922 -0.0413 -4.5492  0.4277
  359MOL0     H49539   6.608  11.852   8.679 -0.0949 -0.4382  2.6004
  359MOL0     H49540   6.572  11.661   8.767 -1.0445  3.5438  2.3714
  359MOL0     H49541   6.418  11.581   8.809  0.5357  0.6196  1.4356
  359MOL0     H49542   6.473  11.611   8.634  2.0024  1.6674 -0.2879
  360MOL0     O49543   8.064  10.997   1.482  0.3069 -0.6632 -0.1260
  360MOL0     C49544   8.039  11.116   1.484  0.0955  0.1419  0.4055
  360MOL0     O49545   7.928  11.183   1.508 -0.8570 -0.2914  0.3365
  360MOL0     C49546   7.853  11.143   1.618  0.7114  0.5563  1.1288
  360MOL0     C49547   7.846  11.232   1.722 -0.0502  0.9894  0.2604
  360MOL0     C49548   7.776  11.196   1.835  0.3174  0.2911  0.6007
  360MOL0     C49549   7.724  11.060   1.845 -0.2615 -0.1196 -0.1018
  360MOL0     O49550   7.639  11.027   1.947  0.1188  0.2333 -0.4602
  360MOL0     C49551   7.631  11.103   2.073  0.2569 -1.5546  0.2510
  360MOL0     C49552   7.668  11.010   2.189  0.4676  0.5374 -0.5382
  360MOL0     C49553   7.812  11.044   2.230  0.6250 -0.4790 -0.5970
  360MOL0     C49554   7.848  11.187   2.284  0.4386  0.2904  0.2952
  360MOL0     C49555   7.991  11.192   2.336  0.0236  0.4941  0.0191
  360MOL0     C49556   8.095  11.115   2.244 -0.9389 -0.3115  0.1483
  360MOL0     C49557   8.233  11.149   2.298 -0.5000  0.3206 -0.4109
  360MOL0     C49558   8.346  11.112   2.208 -0.1860  0.0651  0.4779
  360MOL0     N49559   8.349  11.195   2.088 -0.2238 -0.2855 -0.9034
  360MOL0     C49560   8.370  11.329   2.085  0.4446  0.0138  0.6363
  360MOL0     C49561   8.416  11.345   1.960  0.1124  0.5115 -0.1306
  360MOL0     C49562   8.464  11.471   1.892 -0.2701 -0.7730 -0.1139
  360MOL0     C49563   8.599  11.471   1.830 -0.1886 -0.3353 -0.9000
  360MOL0     C49564   8.706  11.406   1.918  0.6353  0.8374  0.5879
  360MOL0     C49565   8.847  11.452   1.881 -0.5657  1.3387 -0.8949
  360MOL0     O49566   8.856  11.592   1.877  0.5270  0.4927 -0.0527
  360MOL0     C49567   8.976  11.656   1.901 -0.3425  0.1257 -0.0402
  360MOL0     C49568   8.964  11.793   1.937 -0.2668  0.4566 -0.6403
  360MOL0     C49569   9.070  11.877   1.963 -0.0139  0.3382 -0.3055
  360MOL0     C49570   9.022  12.001   2.028 -0.7862  1.0915 -0.7215
  360MOL0     C49571   9.195  11.829   1.946  0.1409  0.8670 -0.6968
  360MOL0     C49572   9.323  11.904   1.951 -1.0030  0.0131  0.2136
  360MOL0     O49573   9.428  11.829   1.919 -0.3110  0.3949 -0.3124
  360MOL0     C49574   9.545  11.888   1.882  0.1548 -0.3152 -0.4240
  360MOL0     C49575   9.559  12.009   1.822 -0.6234  0.0228  1.3879
  360MOL0     C49576   9.689  12.056   1.793  0.6390 -0.0961  0.2009
  360MOL0     C49577   9.799  11.990   1.826 -0.1966  0.3986  0.0297
  360MOL0     O49578   9.927  12.044   1.819 -0.7578  0.8636  0.4104
  360MOL0     C49579   9.958  12.155   1.721  0.2626  0.5485  0.8449
  360MOL0     C49580  10.104  12.201   1.726 -0.1619  0.1849  0.2107
  360MOL0     C49581  10.163  12.267   1.858  0.5599  0.4590 -0.1995
  360MOL0     C49582  10.313  12.287   1.867  0.3893 -0.5928  0.1321
  360MOL0     C49583  10.358  12.336   1.998 -0.1064  0.0177  0.3247
  360MOL0     C49584  10.335  12.481   2.032 -0.5649  0.0317 -0.2379
  360MOL0     C49585  10.433  12.570   1.949 -0.1938 -0.5678  0.2208
  360MOL0     C49586  10.396  12.713   1.956  0.1063 -0.8017  0.8368
  360MOL0    Cl49587  10.228  12.769   1.926  0.1777  0.4340  0.1633
  360MOL0     C49588   9.790  11.867   1.883 -0.9103 -0.3867  0.2955
  360MOL0     C49589   9.665  11.823   1.923 -0.1820 -1.4912  0.4736
  360MOL0     O49590   9.336  12.022   1.988  0.1760  0.5001  0.1125
  360MOL0     C49591   9.207  11.693   1.914  0.0311 -0.4479 -0.0203
  360MOL0     C49592   9.102  11.604   1.880  0.1919  0.8752 -0.5752
  360MOL0     N49593   8.411  11.226   1.888 -0.1419  0.1209 -0.4411
  360MOL0     N49594   8.380  11.136   1.974 -0.4935  1.2709  0.3910
  360MOL0     C49595   7.722  10.977   1.729  0.2017 -0.7106 -0.2590
  360MOL0     C49596   7.790  11.017   1.620  0.2581  0.1778  0.6734
  360MOL0     C49597   8.160  11.197   1.465 -0.2003 -0.1762 -0.7389
  360MOL0     C49598   8.150  11.306   1.379 -0.4488 -0.0048  0.0437
  360MOL0     C49599   8.262  11.387   1.351 -0.0453 -0.7140  0.4874
  360MOL0     C49600   8.387  11.368   1.407 -0.6733 -0.2803 -0.6141
  360MOL0     O49601   8.503  11.446   1.387  0.4070 -0.2427 -0.2445
  360MOL0     C49602   8.490  11.540   1.277 -0.9096 -0.6058 -0.1551
  360MOL0     C49603   8.620  11.624   1.279  0.2770  0.0171  0.1834
  360MOL0     C49604   8.581  11.762   1.226  0.7212  0.5078  0.7543
  360MOL0     C49605   8.579  11.869   1.342 -0.1449 -0.5512  0.2391
  360MOL0     C49606   8.535  12.004   1.296  0.7943 -0.5974  0.4811
  360MOL0     C49607   8.507  12.111   1.238 -0.5956  0.6856  0.3052
  360MOL0     C49608   8.393  11.261   1.495 -0.5103 -0.5592  1.6157
  360MOL0     C49609   8.290  11.168   1.519  0.9383  0.8064 -0.3558
  360MOL0     C49610   8.329  11.053   1.619 -0.3054 -0.3748  0.0203
  360MOL0     H49611   7.904  11.324   1.718  2.3859 -0.4566  0.4770
  360MOL0     H49612   7.779  11.269   1.915  3.3337 -0.4954  1.3495
  360MOL0     H49613   7.524  11.117   2.091  0.5269  1.9015 -0.1580
  360MOL0     H49614   7.678  11.202   2.070 -1.2628 -0.6813  2.2015
  360MOL0     H49615   7.600  11.010   2.275 -1.0236 -1.6660 -1.6101
  360MOL0     H49616   7.675  10.903   2.165  4.2919 -0.4645  3.5761
  360MOL0     H49617   7.836  10.981   2.317  2.0087  1.9215  0.8875
  360MOL0     H49618   7.877  11.011   2.149 -0.8924 -0.8910 -1.6768
  360MOL0     H49619   7.836  11.255   2.199 -3.5429 -1.8162 -1.0819
  360MOL0     H49620   7.777  11.206   2.364  0.1524 -1.7132  0.5657
  360MOL0     H49621   8.005  11.148   2.435  3.9826  0.1419 -0.5284
  360MOL0     H49622   8.021  11.296   2.343  0.6631  0.3768 -0.8380
  360MOL0     H49623   8.100  11.006   2.248 -0.4309 -0.2535  2.1995
  360MOL0     H49624   8.075  11.140   2.139  4.3572  1.5685 -0.7006
  360MOL0     H49625   8.238  11.087   2.387  2.1393  1.0219  0.0153
  360MOL0     H49626   8.238  11.254   2.329 -2.4453  1.5516 -3.6882
  360MOL0     H49627   8.433  11.129   2.272 -0.1853  1.4136  0.1584
  360MOL0     H49628   8.362  11.010   2.175  0.2869 -0.3700  1.9653
  360MOL0     H49629   8.334  11.410   2.147 -1.8420  0.5305 -1.1960
  360MOL0     H49630   8.467  11.555   1.963 -0.0054 -2.2898  1.7605
  360MOL0     H49631   8.388  11.500   1.819 -1.3998  0.8643  1.6037
  360MOL0     H49632   8.612  11.410   1.741 -1.4933 -2.1528  0.0819
  360MOL0     H49633   8.611  11.579   1.816 -2.5434  1.4023  6.1627
  360MOL0     H49634   8.692  11.443   2.020  0.1449 -0.1254  0.8859
  360MOL0     H49635   8.690  11.299   1.903  2.1078  0.4529  1.6033
  360MOL0     H49636   8.916  11.405   1.951 -2.0154 -0.3239 -0.4959
  360MOL0     H49637   8.882  11.418   1.782  0.2864 -2.5649  0.5433
  360MOL0     H49638   8.862  11.831   1.943 -2.0843 -3.7883 -0.7311
  360MOL0     H49639   8.914  12.018   2.039 -1.4485 -2.9092  0.4240
  360MOL0     H49640   9.072  12.090   1.989  2.0802  0.0707  0.3788
  360MOL0     H49641   9.074  12.004   2.124 -0.2412  0.6866 -0.9983
  360MOL0     H49642   9.472  12.063   1.786 -0.8004 -2.2763 -2.1053
  360MOL0     H49643   9.691  12.151   1.740 -4.8269 -0.6950 -1.6293
  360MOL0     H49644   9.930  12.113   1.625 -0.1589  0.5689  0.9570
  360MOL0     H49645   9.889  12.236   1.747  0.1927 -0.1089  2.8930
  360MOL0     H49646  10.174  12.118   1.710  0.7466  0.6919  1.4600
  360MOL0     H49647  10.114  12.271   1.643  0.0679 -1.4279 -1.1826
  360MOL0     H49648  10.119  12.221   1.947 -0.4612  4.8506  1.8091
  360MOL0     H49649  10.126  12.369   1.844 -1.0094 -0.1810 -0.9234
  360MOL0     H49650  10.334  12.366   1.794  1.5764  1.1331  2.2498
  360MOL0     H49651  10.348  12.186   1.841  2.7162 -0.4765  2.4334
  360MOL0     H49652  10.295  12.271   2.060  1.0857  1.1833  2.8854
  360MOL0     H49653  10.461  12.309   2.021  0.3194  2.2314  1.2749
  360MOL0     H49654  10.357  12.494   2.139 -1.9942 -1.3267  0.2639
  360MOL0     H49655  10.231  12.504   2.010 -0.9787  2.7145  3.5400
  360MOL0     H49656  10.433  12.537   1.845  0.8105 -4.2794  1.2319
  360MOL0     H49657  10.533  12.549   1.988 -1.0111 -1.6459  1.8704
  360MOL0     H49658  10.458  12.767   1.884  2.2773 -2.6145  1.2116
  360MOL0     H49659  10.421  12.754   2.054 -0.8087  0.0762  0.7172
  360MOL0     H49660   9.884  11.814   1.893  0.6440  2.0548 -0.6356
  360MOL0     H49661   9.658  11.726   1.972 -0.4847 -0.6446  2.1633
  360MOL0     H49662   9.302  11.647   1.891  0.7969  0.9249  0.2838
  360MOL0     H49663   9.121  11.504   1.845 -1.0805 -0.6037  2.5518
  360MOL0     H49664   7.648  10.898   1.728 -1.3507  0.6810 -0.5399
  360MOL0     H49665   7.791  10.968   1.523 -3.0661 -0.5178  0.8792
  360MOL0     H49666   8.046  11.322   1.352 -1.0718 -2.6810  0.6057
  360MOL0     H49667   8.239  11.472   1.288 -1.5344 -0.0996  1.7893
  360MOL0     H49668   8.487  11.485   1.182  0.8148  1.6552 -1.6609
  360MOL0     H49669   8.407  11.611   1.280 -0.9124 -0.6332  0.5920
  360MOL0     H49670   8.687  11.575   1.208 -1.0171 -0.4370 -0.7477
  360MOL0     H49671   8.663  11.639   1.378 -0.0527 -0.0031  0.3315
  360MOL0     H49672   8.668  11.787   1.165  0.7341  0.1825  0.6342
  360MOL0     H49673   8.488  11.762   1.168 -0.7712 -0.6162  2.9991
  360MOL0     H49674   8.680  11.860   1.383  0.0639 -2.6467 -0.5833
  360MOL0     H49675   8.505  11.838   1.416  0.7749 -3.0415  0.2350
  360MOL0     H49676   8.492  12.207   1.194  0.2793  0.5110 -0.4078
  360MOL0     H49677   8.490  11.248   1.542  1.8661  0.3439 -2.5084
  360MOL0     H49678   8.433  11.073   1.646 -0.1004 -2.0918  0.6937
  360MOL0     H49679   8.267  11.069   1.707 -6.0604  2.8599 -3.9767
  360MOL0     H49680   8.319  10.957   1.567 -3.3532 -0.2664  0.2104
  361MOL0     O49681   6.418   1.334   8.343 -0.6246  0.1702 -0.4094
  361MOL0     C49682   6.465   1.434   8.291 -0.9283  0.6053  0.3317
  361MOL0     O49683   6.402   1.506   8.202 -0.1588 -0.0889  0.2874
  361MOL0     C49684   6.270   1.491   8.182 -0.6567  0.3677 -0.3477
  361MOL0     C49685   6.189   1.597   8.188 -0.0465 -0.5569 -0.0776
  361MOL0     C49686   6.050   1.572   8.168  0.2536 -0.5575 -0.0362
  361MOL0     C49687   6.000   1.445   8.127 -0.8624  1.2121 -0.2035
  361MOL0     O49688   5.865   1.434   8.085  0.5116 -0.0454 -1.0769
  361MOL0     C49689   5.824   1.323   8.023 -0.5075  0.3559  0.1753
  361MOL0     C49690   5.676   1.323   8.012 -0.3953 -0.4095 -0.0874
  361MOL0     C49691   5.617   1.459   7.976 -0.1764  1.0805 -0.2557
  361MOL0     C49692   5.475   1.439   7.941 -0.9897  0.3143  0.8848
  361MOL0     C49693   5.399   1.417   8.069  0.0927  0.5900  0.4025
  361MOL0     C49694   5.249   1.375   8.034  0.2183 -0.6769 -0.0221
  361MOL0     C49695   5.162   1.485   7.968 -0.8946  0.4780 -0.3985
  361MOL0     C49696   5.140   1.613   8.060  0.0352  0.5329 -0.1863
  361MOL0     N49697   5.234   1.721   8.020  0.4094 -0.2962 -0.5290
  361MOL0     C49698   5.210   1.818   7.920  0.3573  0.7128  0.3163
  361MOL0     C49699   5.316   1.909   7.955 -0.5276  0.0056  0.1083
  361MOL0     C49700   5.349   2.047   7.893 -0.8884 -0.7279  0.6034
  361MOL0     C49701   5.388   2.022   7.752 -0.0655 -0.1572 -1.1480
  361MOL0     C49702   5.519   1.931   7.728 -0.2000  0.5725 -0.0759
  361MOL0     C49703   5.529   1.788   7.768  0.2559 -0.3823  0.0411
  361MOL0     O49704   5.443   1.701   7.695  1.2110 -0.5450  0.1880
  361MOL0     C49705   5.489   1.602   7.614  0.0678  0.3587 -0.7986
  361MOL0     C49706   5.620   1.566   7.587  0.0136 -0.3733 -0.3770
  361MOL0     C49707   5.652   1.452   7.511 -0.0416 -0.3835  0.3773
  361MOL0     C49708   5.795   1.435   7.448 -0.5370 -0.4823 -0.1067
  361MOL0     C49709   5.546   1.375   7.455  0.2654 -0.1198  0.5400
  361MOL0     C49710   5.567   1.253   7.371  0.6407  0.1727  0.7118
  361MOL0     O49711   5.684   1.194   7.410 -0.7649 -0.6696  0.1884
  361MOL0     C49712   5.742   1.103   7.325  0.4190  0.1558  0.4091
  361MOL0     C49713   5.772   0.974   7.379  1.1267 -0.6965  0.3000
  361MOL0     C49714   5.822   0.877   7.291  0.2798 -0.0183  0.0753
  361MOL0     C49715   5.839   0.904   7.152 -0.3538 -0.7450  0.2551
  361MOL0     O49716   5.896   0.812   7.077 -0.5110 -0.9337  0.8174
  361MOL0     C49717   5.800   0.766   6.984 -0.0147 -1.4388  0.2733
  361MOL0     C49718   5.818   0.622   6.940 -1.0055 -0.3628  0.6347
  361MOL0     C49719   5.784   0.531   7.054  0.3177  0.0358 -0.2603
  361MOL0     C49720   5.725   0.393   7.006  0.2597 -0.3798 -0.2846
  361MOL0     C49721   5.657   0.316   7.115  0.2579 -0.7422  0.5300
  361MOL0     C49722   5.563   0.211   7.052 -0.0940  0.0728 -0.2097
  361MOL0     C49723   5.528   0.110   7.161 -0.0457  0.1594 -0.1261
  361MOL0     C49724   5.434  -0.000   7.103 -0.1330 -0.3629 -0.5471
  361MOL0    Cl49725   5.469  -0.043   6.930 -0.2190 -0.1767 -0.3924
  361MOL0     C49726   5.821   1.028   7.111  0.6187 -1.2261 -1.1493
  361MOL0     C49727   5.779   1.131   7.196  0.1188  0.3406  0.4207
  361MOL0     O49728   5.487   1.211   7.285 -0.0831 -0.5184  0.1240
  361MOL0     C49729   5.414   1.427   7.480  1.1338 -1.0606  0.2966
  361MOL0     C49730   5.391   1.523   7.556 -0.4871  0.2254 -0.3026
  361MOL0     N49731   5.399   1.858   8.056  0.7332  0.3844  0.6257
  361MOL0     N49732   5.343   1.746   8.098  0.2867  0.2327  0.3704
  361MOL0     C49733   6.088   1.336   8.125 -1.0609  0.3185 -0.0247
  361MOL0     C49734   6.221   1.366   8.153 -0.0259  0.2933  0.3423
  361MOL0     C49735   6.602   1.484   8.322  0.6115  0.1159 -0.2551
  361MOL0     C49736   6.643   1.604   8.256  0.5454  0.8702 -0.4814
  361MOL0     C49737   6.768   1.662   8.299 -0.1432  0.4842  0.0183
  361MOL0     C49738   6.845   1.605   8.400 -0.0682  0.2535  0.4556
  361MOL0     O49739   6.959   1.659   8.445 -0.3953 -0.6455 -0.0384
  361MOL0     C49740   7.056   1.710   8.347 -0.0449  0.2364  0.7937
  361MOL0     C49741   7.161   1.785   8.430 -0.4791 -0.3876 -0.4341
  361MOL0     C49742   7.249   1.864   8.342 -0.4842 -0.0696 -0.1369
  361MOL0     C49743   7.376   1.903   8.410  0.7116 -0.0031 -0.0336
  361MOL0     C49744   7.468   1.979   8.322 -0.3624  0.3398  0.7262
  361MOL0     C49745   7.550   2.037   8.248  0.0660  0.0032  0.4054
  361MOL0     C49746   6.809   1.484   8.464  0.0404 -0.8858  0.0263
  361MOL0     C49747   6.684   1.431   8.423 -0.7016 -0.0374  0.1930
  361MOL0     C49748   6.662   1.285   8.482 -0.4905  0.5276  0.4372
  361MOL0     H49749   6.233   1.694   8.208 -2.0773  0.5862 -0.7944
  361MOL0     H49750   5.984   1.658   8.164  0.7722 -0.1877 -0.8378
  361MOL0     H49751   5.844   1.240   8.091 -1.1663  0.9375  1.0877
  361MOL0     H49752   5.879   1.319   7.928 -0.7047  1.0202  0.0295
  361MOL0     H49753   5.657   1.242   7.941 -0.3342 -0.7561  0.2848
  361MOL0     H49754   5.646   1.285   8.110  1.4847 -0.0693  0.6607
  361MOL0     H49755   5.634   1.518   8.066 -0.3704 -0.5128  0.8677
  361MOL0     H49756   5.662   1.492   7.882 -1.3378 -1.6181 -1.8482
  361MOL0     H49757   5.439   1.534   7.901 -0.6033 -0.1110 -0.5202
  361MOL0     H49758   5.455   1.374   7.855 -1.8492  0.8017  0.6996
  361MOL0     H49759   5.412   1.500   8.139  2.1128  0.9792 -0.3855
  361MOL0     H49760   5.432   1.327   8.121 -0.1758 -0.1821 -0.7276
  361MOL0     H49761   5.249   1.291   7.963 -0.3877 -1.6298  1.0785
  361MOL0     H49762   5.200   1.337   8.124 -4.7853  1.7758 -1.3340
  361MOL0     H49763   5.060   1.445   7.964 -1.0028  0.1602  2.7177
  361MOL0     H49764   5.197   1.514   7.869 -0.6220  0.9895 -0.1518
  361MOL0     H49765   5.035   1.636   8.039 -0.1738 -0.1233  0.1232
  361MOL0     H49766   5.152   1.578   8.163  0.0685  1.0312 -0.0201
  361MOL0     H49767   5.140   1.820   7.836 -0.0539 -0.3882  0.6094
  361MOL0     H49768   5.430   2.091   7.951  0.3533 -1.4648 -0.5095
  361MOL0     H49769   5.261   2.112   7.885 -1.9291 -2.3091 -2.3338
  361MOL0     H49770   5.299   1.990   7.697 -0.9470 -1.7750  1.0549
  361MOL0     H49771   5.403   2.123   7.714 -2.9911  0.9622  0.3037
  361MOL0     H49772   5.530   1.945   7.621 -0.4525  4.4572  0.2508
  361MOL0     H49773   5.602   1.979   7.780 -2.0262  4.4858 -0.3851
  361MOL0     H49774   5.634   1.762   7.750  0.7287  2.0259 -1.0629
  361MOL0     H49775   5.513   1.770   7.875  0.7880 -4.3212 -0.4047
  361MOL0     H49776   5.699   1.629   7.627  2.0522 -1.6611 -2.1676
  361MOL0     H49777   5.849   1.358   7.504  2.5962  1.5475 -0.1396
  361MOL0     H49778   5.849   1.529   7.461 -0.4208 -0.6908  1.0541
  361MOL0     H49779   5.802   1.412   7.342  1.4330 -3.1668  0.5091
  361MOL0     H49780   5.746   0.949   7.481 -2.9229 -0.5410 -0.5323
  361MOL0     H49781   5.817   0.775   7.329 -2.0965 -0.3520 -0.9723
  361MOL0     H49782   5.698   0.778   7.022 -0.2996  0.3201 -0.9161
  361MOL0     H49783   5.797   0.831   6.896  2.8031 -1.0167  0.4135
  361MOL0     H49784   5.763   0.603   6.847  0.4606  0.1780 -0.3972
  361MOL0     H49785   5.922   0.603   6.912 -1.7783 -2.4752 -1.1166
  361MOL0     H49786   5.704   0.575   7.115 -2.5614  0.6734 -4.0870
  361MOL0     H49787   5.872   0.510   7.115 -1.9064 -0.5693  2.9921
  361MOL0     H49788   5.800   0.327   6.963 -0.3423 -2.2976  1.4583
  361MOL0     H49789   5.657   0.407   6.921  1.1092 -1.3467 -1.1402
  361MOL0     H49790   5.733   0.269   7.179  2.2813  0.7383 -0.6508
  361MOL0     H49791   5.587   0.372   7.177 -0.6332  0.3943 -1.4084
  361MOL0     H49792   5.619   0.164   6.970  1.2363  2.3384 -0.6715
  361MOL0     H49793   5.470   0.257   7.018 -0.2681 -0.0512  0.0920
  361MOL0     H49794   5.485   0.158   7.249 -1.3143  0.7673 -1.0387
  361MOL0     H49795   5.612   0.049   7.195 -0.3622 -3.5029 -4.8669
  361MOL0     H49796   5.332   0.039   7.109  0.5930  1.3775  2.2213
  361MOL0     H49797   5.427  -0.090   7.166 -0.2987 -1.4928 -2.1156
  361MOL0     H49798   5.846   1.047   7.007 -5.0190  2.5011 -2.2777
  361MOL0     H49799   5.761   1.229   7.152 -0.4991  1.1257  2.3126
  361MOL0     H49800   5.330   1.374   7.436 -1.3831  2.1685  0.7693
  361MOL0     H49801   5.288   1.536   7.590 -0.4179  3.5804 -1.0070
  361MOL0     H49802   6.056   1.242   8.082  3.0135 -0.4794 -1.8268
  361MOL0     H49803   6.277   1.272   8.149 -1.6453 -0.6682 -1.7571
  361MOL0     H49804   6.580   1.648   8.180  0.2977 -1.0435 -1.4313
  361MOL0     H49805   6.784   1.756   8.247 -2.6660  0.2694 -1.3077
  361MOL0     H49806   7.098   1.627   8.289 -2.0267 -0.3607  0.1116
  361MOL0     H49807   7.007   1.776   8.275 -0.2338 -1.6501 -0.9007
  361MOL0     H49808   7.224   1.714   8.485 -0.9625 -0.1834  0.3876
  361MOL0     H49809   7.105   1.850   8.497 -1.2672 -1.3197 -0.1675
  361MOL0     H49810   7.275   1.811   8.250 -0.3709  4.1108 -2.8085
  361MOL0     H49811   7.203   1.958   8.312  0.6636  0.8103  0.7558
  361MOL0     H49812   7.427   1.819   8.457 -0.5174  0.1871  1.7253
  361MOL0     H49813   7.346   1.959   8.499 -0.8262 -2.1978  0.9013
  361MOL0     H49814   7.627   2.076   8.184 -0.8255 -1.2736 -1.5636
  361MOL0     H49815   6.876   1.450   8.542  0.7657 -1.7088 -0.9166
  361MOL0     H49816   6.757   1.252   8.527 -0.9170 -1.8741 -0.2533
  361MOL0     H49817   6.581   1.274   8.555 -2.1040 -4.1913 -1.6577
  361MOL0     H49818   6.651   1.212   8.401 -0.8154  1.1755 -0.1055
  362MOL0     O49819   6.437   2.076  10.978 -0.2401 -0.1764 -0.5653
  362MOL0     C49820   6.393   2.052  11.091 -0.0083  0.1793  0.3336
  362MOL0     O49821   6.452   1.964  11.185  0.1672 -0.0458  0.3679
  362MOL0     C49822   6.554   1.877  11.142 -0.2530 -0.8331 -0.1129
  362MOL0     C49823   6.529   1.784  11.041  0.6358  0.1218 -0.0280
  362MOL0     C49824   6.621   1.693  11.002  0.0134 -1.2319 -0.1193
  362MOL0     C49825   6.746   1.678  11.081 -0.0399 -0.2375  0.7857
  362MOL0     O49826   6.831   1.577  11.043  0.8865 -0.3138 -0.5317
  362MOL0     C49827   6.944   1.538  11.117  0.3537 -0.3191 -0.0151
  362MOL0     C49828   7.055   1.465  11.038  0.5165 -1.1060  0.2127
  362MOL0     C49829   7.201   1.468  11.079 -0.2948  0.9571 -0.5396
  362MOL0     C49830   7.263   1.587  11.002  0.6333 -0.3574 -1.0221
  362MOL0     C49831   7.397   1.647  11.050 -0.9597 -0.6816 -0.6496
  362MOL0     C49832   7.387   1.734  11.178 -0.0034 -0.0034  0.0736
  362MOL0     C49833   7.259   1.823  11.186 -0.0340 -0.7299 -0.0899
  362MOL0     C49834   7.259   1.952  11.273 -0.2853 -0.0098 -0.3374
  362MOL0     N49835   7.132   2.015  11.297 -0.0708  0.3499 -0.0878
  362MOL0     C49836   7.088   2.120  11.220  0.7815 -1.0715 -0.0214
  362MOL0     C49837   6.958   2.141  11.256 -0.2919  1.1546  0.6813
  362MOL0     C49838   6.863   2.252  11.211  0.0080  0.4541  0.7773
  362MOL0     C49839   6.747   2.272  11.308  0.4640 -0.0544  0.6023
  362MOL0     C49840   6.628   2.323  11.216 -0.1664  0.1221 -1.0493
  362MOL0     C49841   6.494   2.322  11.286 -0.2483 -0.7796  0.7314
  362MOL0     O49842   6.484   2.444  11.363  0.6134  0.2654  0.0855
  362MOL0     C49843   6.433   2.436  11.493  0.2174 -0.8078 -0.3143
  362MOL0     C49844   6.477   2.510  11.595  0.5069 -0.7917 -0.8461
  362MOL0     C49845   6.455   2.492  11.730  0.0867  0.1530  0.6414
  362MOL0     C49846   6.536   2.584  11.818 -0.2799 -1.0653 -0.1857
  362MOL0     C49847   6.348   2.403  11.765 -0.0927  0.0239 -0.0087
  362MOL0     C49848   6.298   2.384  11.898 -0.0652 -0.6039 -0.1081
  362MOL0     O49849   6.326   2.481  11.997 -0.2786  0.7669  0.5120
  362MOL0     C49850   6.405   2.430  12.101  0.7326 -0.3183 -0.1332
  362MOL0     C49851   6.350   2.449  12.235 -0.6833 -0.4975  0.9708
  362MOL0     C49852   6.425   2.392  12.344 -0.4828 -0.3558  0.4890
  362MOL0     C49853   6.548   2.331  12.324 -0.3782  0.6823 -0.7406
  362MOL0     O49854   6.622   2.288  12.428  0.2416  0.3125 -0.3832
  362MOL0     C49855   6.589   2.326  12.562 -0.8015 -0.1130 -0.6240
  362MOL0     C49856   6.696   2.260  12.642 -0.5341 -1.0590 -0.2793
  362MOL0     C49857   6.717   2.106  12.621  0.7737 -0.4352 -0.9207
  362MOL0     C49858   6.682   2.032  12.757 -0.2395  0.3315  0.8617
  362MOL0     C49859   6.655   1.882  12.727  0.0045 -0.0760  1.2442
  362MOL0     C49860   6.643   1.792  12.847  0.2624  0.8444 -0.6638
  362MOL0     C49861   6.513   1.836  12.926 -0.5057  0.0555  0.1293
  362MOL0     C49862   6.434   1.718  12.977  0.1166  0.0093  0.9868
  362MOL0    Cl49863   6.366   1.625  12.840 -0.2280 -0.1428 -0.3952
  362MOL0     C49864   6.601   2.325  12.198  0.0402 -0.2206 -0.1261
  362MOL0     C49865   6.533   2.367  12.085  0.9965  0.7466 -0.3245
  362MOL0     O49866   6.260   2.273  11.927  0.5575 -0.2572  0.1336
  362MOL0     C49867   6.286   2.334  11.659  0.3022  0.1358  0.3781
  362MOL0     C49868   6.322   2.350  11.528 -0.4973 -0.7293  0.1330
  362MOL0     N49869   6.924   2.037  11.348 -0.1869 -0.4311 -0.3656
  362MOL0     N49870   7.026   1.962  11.375 -0.6309 -0.2656 -0.4012
  362MOL0     C49871   6.765   1.773  11.190 -0.5669 -0.5111 -0.2371
  362MOL0     C49872   6.671   1.871  11.218 -0.0125 -0.5091 -0.1218
  362MOL0     C49873   6.266   2.128  11.140 -1.6083  0.1699 -0.3340
  362MOL0     C49874   6.207   2.229  11.060 -0.2406  0.2911 -0.1616
  362MOL0     C49875   6.089   2.289  11.103  0.3599  0.0969 -0.5894
  362MOL0     C49876   6.011   2.271  11.217  0.3266  0.5337  0.1286
  362MOL0     O49877   5.878   2.297  11.247  0.0947  0.0298  0.2846
  362MOL0     C49878   5.821   2.393  11.155  0.6185 -0.9725  0.0222
  362MOL0     C49879   5.687   2.446  11.179  0.6754 -0.8303  0.9282
  362MOL0     C49880   5.591   2.334  11.233 -0.9757 -0.8532 -0.1902
  362MOL0     C49881   5.456   2.400  11.264 -0.1192  0.0925 -0.0733
  362MOL0     C49882   5.374   2.429  11.145  0.0955 -1.0354  0.5719
  362MOL0     C49883   5.331   2.475  11.044  0.1347  0.3739 -0.4123
  362MOL0     C49884   6.061   2.164  11.291 -0.5043  0.1690 -0.7369
  362MOL0     C49885   6.186   2.102  11.259 -0.3501  0.6384  0.1041
  362MOL0     C49886   6.229   2.010  11.373 -0.5614 -0.8257  0.6694
  362MOL0     H49887   6.433   1.793  10.991  1.7620  0.0392 -2.2913
  362MOL0     H49888   6.598   1.624  10.922  1.4554  0.0179 -1.7017
  362MOL0     H49889   6.909   1.475  11.199 -0.2943 -0.6989 -0.5741
  362MOL0     H49890   6.997   1.627  11.153 -1.2670  1.0842 -0.9276
  362MOL0     H49891   7.025   1.360  11.032  2.5664 -1.6681 -1.4880
  362MOL0     H49892   7.055   1.502  10.935 -0.6919  0.8387  0.8505
  362MOL0     H49893   7.201   1.478  11.188 -2.2755 -4.0268  0.2062
  362MOL0     H49894   7.249   1.374  11.049  1.9022  1.7790  0.2210
  362MOL0     H49895   7.271   1.553  10.898 -2.1803 -0.6963 -1.1997
  362MOL0     H49896   7.193   1.667  10.981  2.4478  1.8437  0.7479
  362MOL0     H49897   7.425   1.720  10.973 -0.8501 -2.3028 -2.1907
  362MOL0     H49898   7.479   1.575  11.054  2.7976  3.1252 -1.0312
  362MOL0     H49899   7.380   1.667  11.264  0.5682  1.5247  1.3448
  362MOL0     H49900   7.479   1.791  11.191 -0.1449  0.5287 -1.1550
  362MOL0     H49901   7.175   1.770  11.231 -0.7942  1.0338  0.6411
  362MOL0     H49902   7.214   1.854  11.091 -2.9401 -0.2508  1.3518
  362MOL0     H49903   7.306   1.917  11.365  0.5596 -1.1289 -1.1663
  362MOL0     H49904   7.328   2.022  11.225 -0.5956  0.4000 -0.1997
  362MOL0     H49905   7.154   2.166  11.146  3.5561 -2.8323  1.1867
  362MOL0     H49906   6.827   2.206  11.119  3.1946  0.1880 -0.4618
  362MOL0     H49907   6.901   2.353  11.194 -0.8183  0.5871 -0.4158
  362MOL0     H49908   6.709   2.174  11.338 -4.2358  0.5592 -2.3268
  362MOL0     H49909   6.769   2.333  11.396 -2.0087 -0.1401  1.3566
  362MOL0     H49910   6.650   2.421  11.173  0.8379  0.6051  0.4532
  362MOL0     H49911   6.618   2.249  11.136 -3.7835  0.2585 -0.9046
  362MOL0     H49912   6.418   2.330  11.207  0.6613  3.2832  0.0417
  362MOL0     H49913   6.473   2.238  11.353 -2.8308  1.0270  2.3642
  362MOL0     H49914   6.558   2.576  11.564 -1.6063  1.2588 -2.3784
  362MOL0     H49915   6.642   2.588  11.790 -0.2162 -1.9708 -0.1144
  362MOL0     H49916   6.541   2.548  11.921 -4.4478  1.8552  1.3008
  362MOL0     H49917   6.501   2.687  11.815  0.0192 -0.9792 -1.2280
  362MOL0     H49918   6.248   2.486  12.248 -0.4220  2.4943 -3.2790
  362MOL0     H49919   6.368   2.401  12.436 -3.5474  0.6487 -1.3521
  362MOL0     H49920   6.598   2.434  12.577  2.7398 -0.5369  1.4750
  362MOL0     H49921   6.494   2.286  12.598 -0.5583 -1.2878 -1.2503
  362MOL0     H49922   6.793   2.306  12.618  0.1079 -1.6888  0.9620
  362MOL0     H49923   6.680   2.273  12.750 -0.3044 -0.0157 -0.3601
  362MOL0     H49924   6.819   2.087  12.589  1.4924  1.2478  0.2134
  362MOL0     H49925   6.648   2.070  12.544  2.1134 -3.8697 -0.6698
  362MOL0     H49926   6.591   2.075  12.799 -0.2072  0.8069  0.4629
  362MOL0     H49927   6.757   2.035  12.836  0.0086 -0.5517  0.6711
  362MOL0     H49928   6.577   1.860  12.654  1.1844  0.8291 -0.3677
  362MOL0     H49929   6.750   1.853  12.681 -0.6002  1.3599 -1.1125
  362MOL0     H49930   6.725   1.817  12.915  3.0422 -0.3543 -3.3433
  362MOL0     H49931   6.648   1.684  12.828 -1.0936  0.0727  2.6579
  362MOL0     H49932   6.452   1.908  12.870 -0.5224 -2.2804 -3.1419
  362MOL0     H49933   6.539   1.889  13.018 -1.0114  0.0866  0.2588
  362MOL0     H49934   6.359   1.764  13.042  1.2546  5.0558 -0.7971
  362MOL0     H49935   6.490   1.642  13.032 -1.5759 -3.2742 -1.4770
  362MOL0     H49936   6.694   2.272  12.180  0.5582 -0.3639  2.5974
  362MOL0     H49937   6.565   2.342  11.985  0.9469 -1.0420  0.0700
  362MOL0     H49938   6.200   2.271  11.678  0.0989  0.7307  1.5083
  362MOL0     H49939   6.254   2.314  11.451  0.5315 -1.5030 -0.4314
  362MOL0     H49940   6.866   1.773  11.231  0.5790  0.3896 -2.8433
  362MOL0     H49941   6.682   1.937  11.303 -1.1986 -1.0636  0.4815
  362MOL0     H49942   6.265   2.253  10.972  0.5880  0.0954  0.3142
  362MOL0     H49943   6.058   2.362  11.027  0.0646 -0.0912 -0.6514
  362MOL0     H49944   5.890   2.475  11.132  1.7947 -1.8539  0.3606
  362MOL0     H49945   5.810   2.347  11.057 -2.5504 -1.1963  0.3871
  362MOL0     H49946   5.651   2.493  11.086  0.3054 -0.5988  1.1857
  362MOL0     H49947   5.687   2.535  11.243  2.1891  0.6413 -0.9876
  362MOL0     H49948   5.585   2.270  11.144  1.7913 -0.3856 -0.8160
  362MOL0     H49949   5.631   2.272  11.313 -1.7231  0.1588  1.0086
  362MOL0     H49950   5.476   2.493  11.318 -1.4702  0.4386 -0.1356
  362MOL0     H49951   5.396   2.334  11.328 -4.6707  2.5676 -1.3510
  362MOL0     H49952   5.296   2.526  10.957  0.5976 -0.2571 -0.9854
  362MOL0     H49953   6.003   2.125  11.374 -0.1963 -2.1207 -1.5395
  362MOL0     H49954   6.162   2.021  11.459 -0.8617 -0.1127  0.3579
  362MOL0     H49955   6.226   1.905  11.342  1.9540 -2.1425  4.1848
  362MOL0     H49956   6.328   2.041  11.408  0.4119 -2.1507 -0.7573
  363MOL0     O49957   9.036  10.197   1.109  0.4312  0.2121 -0.1817
  363MOL0     C49958   8.933  10.162   1.161  0.8054  0.3500 -0.0977
  363MOL0     O49959   8.842  10.241   1.225  0.1508  0.2700  0.0606
  363MOL0     C49960   8.848  10.373   1.215 -0.0404  0.0072  0.2877
  363MOL0     C49961   8.765  10.443   1.126 -0.7060 -0.6949  0.1631
  363MOL0     C49962   8.785  10.583   1.123 -0.1940  0.3027 -0.5649
  363MOL0     C49963   8.882  10.652   1.198  0.0266  0.3430 -0.6002
  363MOL0     O49964   8.885  10.782   1.187 -0.2692 -0.4283 -0.4552
  363MOL0     C49965   9.014  10.841   1.165 -1.2494 -0.3000 -0.0926
  363MOL0     C49966   9.003  10.982   1.101  0.0273  0.4815 -0.6820
  363MOL0     C49967   9.139  11.043   1.068 -0.1325 -0.4319  0.1757
  363MOL0     C49968   9.140  11.127   0.945 -0.1821  0.2308  0.1213
  363MOL0     C49969   9.261  11.208   0.921  0.0081  0.2114 -0.1650
  363MOL0     C49970   9.386  11.132   0.897  0.7502  0.6971  0.1945
  363MOL0     C49971   9.375  11.027   0.789 -0.2017  0.1056 -1.5113
  363MOL0     C49972   9.326  11.078   0.655  0.5369 -0.7339 -0.1219
  363MOL0     N49973   9.314  10.980   0.549  0.7391  0.6879  0.2380
  363MOL0     C49974   9.288  10.846   0.561 -0.0220  0.2618 -0.5990
  363MOL0     C49975   9.266  10.805   0.431  0.3595  0.4408 -0.5256
  363MOL0     C49976   9.236  10.664   0.401  0.2622 -0.8819 -0.6963
  363MOL0     C49977   9.276  10.632   0.254  0.2964 -0.4536 -0.1353
  363MOL0     C49978   9.281  10.477   0.219 -0.3066 -0.2154 -0.2133
  363MOL0     C49979   9.294  10.473   0.063  0.7457  0.3595 -0.1274
  363MOL0     O49980   9.315  10.330   0.043  0.6373 -1.0104  0.1917
  363MOL0     C49981   9.386  10.289  -0.074 -0.4817  0.4838  0.2609
  363MOL0     C49982   9.399  10.156  -0.085 -0.2295 -0.0457 -0.1516
  363MOL0     C49983   9.475  10.090  -0.184 -0.8830 -0.2413  0.8301
  363MOL0     C49984   9.485   9.936  -0.178 -0.1088 -1.0765  0.4533
  363MOL0     C49985   9.530  10.165  -0.290 -0.2656 -0.3266  0.4022
  363MOL0     C49986   9.628  10.105  -0.385 -0.0392 -0.2306  0.4739
  363MOL0     O49987   9.618   9.968  -0.409 -0.2236  0.2510 -0.8842
  363MOL0     C49988   9.722   9.910  -0.482  0.3341  0.0783 -0.2773
  363MOL0     C49989   9.857   9.952  -0.453  0.2149  0.2873  0.8042
  363MOL0     C49990   9.951   9.907  -0.538 -0.3972 -0.7156 -0.9068
  363MOL0     C49991   9.932   9.809  -0.633  0.8981 -0.8188  0.2258
  363MOL0     O49992  10.045   9.759  -0.696  0.0542  0.2529 -0.1404
  363MOL0     C49993  10.015   9.652  -0.787  0.6955 -0.5872  1.0799
  363MOL0     C49994  10.147   9.606  -0.851 -0.8050 -0.2695 -0.1186
  363MOL0     C49995  10.132   9.519  -0.970  0.5360 -0.2576  0.2992
  363MOL0     C49996  10.107   9.601  -1.099 -0.0748 -0.4900 -0.6625
  363MOL0     C49997  10.098   9.509  -1.225  0.1406 -0.4413 -0.1041
  363MOL0     C49998   9.999   9.391  -1.240 -0.8280  0.3087  0.6503
  363MOL0     C49999   9.853   9.444  -1.256 -0.1849 -0.4298  0.3216
  363MOL0     C50000   9.769   9.333  -1.306  0.5936  0.0666  0.6086
  363MOL0    Cl50001   9.809   9.312  -1.494  0.8768  0.0289  0.5871
  363MOL0     C50002   9.795   9.770  -0.657 -0.1657  0.1994  0.0735
  363MOL0     C50003   9.695   9.808  -0.573 -0.0734 -0.9598  0.3755
  363MOL0     O50004   9.686  10.187  -0.462 -0.0576  0.5977 -0.2628
  363MOL0     C50005   9.504  10.307  -0.286  0.2520 -0.0227 -0.0507
  363MOL0     C50006   9.442  10.374  -0.178 -0.4130 -0.1245  0.3947
  363MOL0     N50007   9.262  10.910   0.339 -0.4673  0.1227 -0.6075
  363MOL0     N50008   9.300  11.013   0.412 -0.7176  0.1999 -0.1354
  363MOL0     C50009   8.962  10.575   1.293  0.3151  0.0234 -0.1955
  363MOL0     C50010   8.946  10.440   1.300  0.4992  0.3689  0.1976
  363MOL0     C50011   8.897  10.014   1.162 -0.1733 -1.0878  0.6773
  363MOL0     C50012   8.875   9.958   1.042  0.1673 -1.0198  0.5595
  363MOL0     C50013   8.836   9.828   1.027 -0.1522 -0.3760  0.5217
  363MOL0     C50014   8.803   9.762   1.147  0.0644 -0.2387  0.0444
  363MOL0     O50015   8.759   9.639   1.149 -0.2355  0.1542 -0.5510
  363MOL0     C50016   8.653   9.600   1.056  0.0114  0.4343  0.4525
  363MOL0     C50017   8.718   9.494   0.971  0.9765 -0.7068  1.1743
  363MOL0     C50018   8.666   9.487   0.822  0.4109 -0.9596  0.4665
  363MOL0     C50019   8.560   9.382   0.795 -0.3521  0.1225  0.6960
  363MOL0     C50020   8.591   9.240   0.836  0.2599 -0.3302 -0.1596
  363MOL0     C50021   8.623   9.125   0.861 -0.1258 -0.3105  0.8809
  363MOL0     C50022   8.817   9.820   1.270 -0.0112  0.4702  1.0033
  363MOL0     C50023   8.864   9.947   1.283  0.3071 -1.0255 -0.6218
  363MOL0     C50024   8.871  10.009   1.422 -0.5470 -0.9352 -0.5387
  363MOL0     H50025   8.680  10.388   1.086  0.9222 -1.3675 -2.6256
  363MOL0     H50026   8.717  10.638   1.058  0.1202 -0.1422 -1.2878
  363MOL0     H50027   9.077  10.773   1.108 -0.6271 -0.8519  1.2183
  363MOL0     H50028   9.061  10.864   1.261 -0.6595  0.9671 -0.6561
  363MOL0     H50029   8.946  10.973   1.008 -1.0413  1.4714 -0.1530
  363MOL0     H50030   8.938  11.047   1.161 -0.5864 -1.8710  1.3998
  363MOL0     H50031   9.169  11.108   1.150  0.7701  1.4633 -1.5571
  363MOL0     H50032   9.220  10.971   1.084 -0.2014  0.2173  4.8097
  363MOL0     H50033   9.128  11.075   0.849  2.2713 -1.0504  0.4175
  363MOL0     H50034   9.054  11.191   0.963  0.2455  0.7237  0.4120
  363MOL0     H50035   9.284  11.280   1.000  3.0671 -1.0405  0.2459
  363MOL0     H50036   9.240  11.264   0.830  1.7184 -0.9988 -1.3688
  363MOL0     H50037   9.463  11.207   0.874 -1.6457  2.7860 -1.5097
  363MOL0     H50038   9.413  11.078   0.989  0.0278 -0.3255 -0.1746
  363MOL0     H50039   9.315  10.945   0.830 -0.7292  0.5292 -1.4346
  363MOL0     H50040   9.477  10.985   0.791 -1.6608 -3.8745  0.6575
  363MOL0     H50041   9.227  11.123   0.668  0.1921 -1.0079 -1.6237
  363MOL0     H50042   9.395  11.156   0.620  2.1120 -1.3861  1.4053
  363MOL0     H50043   9.271  10.785   0.650 -0.8266 -1.4880 -1.8993
  363MOL0     H50044   9.131  10.637   0.413 -0.4392  0.8333 -2.4894
  363MOL0     H50045   9.287  10.598   0.472 -2.8010 -0.9171  1.6654
  363MOL0     H50046   9.201  10.686   0.195  1.9322  2.0736 -0.0959
  363MOL0     H50047   9.376  10.664   0.222 -0.4479 -1.0934 -3.4327
  363MOL0     H50048   9.374  10.432   0.256  0.8053  0.7405 -1.7428
  363MOL0     H50049   9.182  10.444   0.253 -1.2436  1.5555 -1.0701
  363MOL0     H50050   9.201  10.512   0.020  0.8543  4.1430  2.5958
  363MOL0     H50051   9.384  10.522   0.026  0.9355  1.8452  2.1328
  363MOL0     H50052   9.348  10.105  -0.003 -0.3757  0.2959 -0.0281
  363MOL0     H50053   9.588   9.899  -0.184  0.8149  1.4959 -2.4884
  363MOL0     H50054   9.444   9.890  -0.269 -0.1003 -1.8913  0.8530
  363MOL0     H50055   9.420   9.904  -0.096 -1.0627  0.4213  0.3152
  363MOL0     H50056   9.876  10.026  -0.376 -1.1382 -1.2876  2.7371
  363MOL0     H50057  10.051   9.948  -0.534 -0.9407  0.6043 -0.3174
  363MOL0     H50058   9.957   9.570  -0.744 -0.8585  0.5729  1.3025
  363MOL0     H50059   9.943   9.683  -0.863 -2.3839 -4.5503  1.9942
  363MOL0     H50060  10.216   9.689  -0.864  0.1619 -1.1593 -0.7955
  363MOL0     H50061  10.194   9.540  -0.777 -1.4315 -0.0823  0.4606
  363MOL0     H50062  10.048   9.449  -0.975  0.3659  0.0249 -2.0739
  363MOL0     H50063  10.228   9.469  -0.990  1.2630  1.6015 -1.2439
  363MOL0     H50064  10.195   9.664  -1.113  0.1651 -0.0332  2.2645
  363MOL0     H50065  10.020   9.667  -1.092 -2.6374 -3.6635 -0.2349
  363MOL0     H50066  10.073   9.568  -1.314 -0.2909  0.6586  0.7217
  363MOL0     H50067  10.194   9.457  -1.237  0.6093  0.5837 -0.9560
  363MOL0     H50068  10.008   9.320  -1.157  1.3695 -0.3151 -0.0527
  363MOL0     H50069  10.028   9.341  -1.333 -0.4091  0.8328  0.4956
  363MOL0     H50070   9.846   9.523  -1.331  1.5641  0.4255  0.9837
  363MOL0     H50071   9.813   9.482  -1.162 -2.8159  1.8882 -1.5801
  363MOL0     H50072   9.662   9.353  -1.295  1.2825  3.2207  2.8874
  363MOL0     H50073   9.791   9.245  -1.245 -0.3588  0.5111  1.6209
  363MOL0     H50074   9.769   9.706  -0.740  0.0440  1.4681 -1.0100
  363MOL0     H50075   9.591   9.780  -0.577 -0.2469 -0.1790 -2.0026
  363MOL0     H50076   9.537  10.378  -0.361 -2.7376  1.4075 -0.1535
  363MOL0     H50077   9.452  10.481  -0.171 -1.8432  0.0054  0.7894
  363MOL0     H50078   9.026  10.632   1.359 -3.3745  3.7044  0.6553
  363MOL0     H50079   8.999  10.380   1.374 -0.4722 -0.4875  0.2387
  363MOL0     H50080   8.894  10.019   0.954  0.4949  0.9790  1.9684
  363MOL0     H50081   8.824   9.784   0.928 -6.1309 -3.7040  2.1573
  363MOL0     H50082   8.574   9.554   1.117  0.8543 -1.3041  0.3135
  363MOL0     H50083   8.609   9.680   0.997 -0.6494 -1.5513 -1.9358
  363MOL0     H50084   8.708   9.398   1.023  0.1286 -0.3601  1.6655
  363MOL0     H50085   8.826   9.512   0.974  0.8344  0.1172  1.4793
  363MOL0     H50086   8.618   9.583   0.800 -3.2738 -2.2115  2.2122
  363MOL0     H50087   8.746   9.458   0.753  0.5946 -1.4537  0.8781
  363MOL0     H50088   8.542   9.376   0.687 -0.4994 -0.7950  0.7584
  363MOL0     H50089   8.464   9.414   0.836 -0.0480  0.7620  0.9087
  363MOL0     H50090   8.656   9.030   0.899 -0.4923 -0.8068  0.0044
  363MOL0     H50091   8.789   9.769   1.362 -0.9054 -0.5615  0.1889
  363MOL0     H50092   8.947  10.088   1.425  0.0981 -1.4469 -2.3397
  363MOL0     H50093   8.768  10.042   1.436 -0.5518 -0.8984 -0.6610
  363MOL0     H50094   8.899   9.945   1.506 -1.3761 -1.4375 -0.6437
  364MOL0     O50095   1.494   5.569   6.825 -0.5886 -0.0173 -0.0133
  364MOL0     C50096   1.408   5.611   6.752  0.2250 -0.1480  0.3656
  364MOL0     O50097   1.378   5.562   6.631  0.0938  0.2459 -0.0809
  364MOL0     C50098   1.467   5.489   6.550  1.1438 -0.0168 -0.1293
  364MOL0     C50099   1.408   5.408   6.451  0.0617  0.6197  0.3453
  364MOL0     C50100   1.482   5.315   6.368 -0.6403 -0.4325 -0.6153
  364MOL0     C50101   1.624   5.326   6.373  0.3197  0.0320  0.7607
  364MOL0     O50102   1.712   5.263   6.277 -0.7132 -0.6337  0.2374
  364MOL0     C50103   1.679   5.130   6.238  0.3096 -0.0937 -0.0335
  364MOL0     C50104   1.799   5.037   6.227  0.1427 -0.3221 -0.7021
  364MOL0     C50105   1.931   5.099   6.162  0.2789  1.4494 -0.1525
  364MOL0     C50106   2.035   4.990   6.184  0.8491  0.6220  0.9092
  364MOL0     C50107   2.165   5.032   6.109 -0.0147 -0.6186  0.1347
  364MOL0     C50108   2.196   4.968   5.970  0.1489  0.0390  0.7437
  364MOL0     C50109   2.077   4.994   5.876 -0.1138  0.1843  0.3088
  364MOL0     C50110   2.128   4.984   5.733  0.2573 -0.5091 -0.8992
  364MOL0     N50111   2.036   5.045   5.643  0.8270 -0.4228 -0.1692
  364MOL0     C50112   1.921   4.994   5.570 -0.1421 -0.3393 -0.2899
  364MOL0     C50113   1.853   5.094   5.514 -0.0374 -0.9502  0.0333
  364MOL0     C50114   1.718   5.067   5.457  0.2202 -0.4104  0.2360
  364MOL0     C50115   1.720   5.070   5.313  0.9168  0.5731  0.4266
  364MOL0     C50116   1.599   5.000   5.254 -0.5492  0.1255 -0.1242
  364MOL0     C50117   1.572   5.027   5.107  0.3626  0.1590  0.2254
  364MOL0     O50118   1.524   4.906   5.040  0.0630 -0.4990 -0.6221
  364MOL0     C50119   1.411   4.849   5.071  0.4625 -0.1835  0.3710
  364MOL0     C50120   1.295   4.914   5.103 -0.4290  0.1740  1.3854
  364MOL0     C50121   1.169   4.850   5.110  0.5436  0.4641  0.2476
  364MOL0     C50122   1.052   4.941   5.144 -0.1578 -0.5062 -0.5758
  364MOL0     C50123   1.165   4.713   5.094  0.6888 -0.0831  0.6289
  364MOL0     C50124   1.037   4.650   5.114  0.2473 -0.8206  0.4433
  364MOL0     O50125   0.989   4.643   5.243 -1.0400 -0.3861 -0.1461
  364MOL0     C50126   0.864   4.603   5.279  0.4368  1.1319 -0.4452
  364MOL0     C50127   0.811   4.484   5.230 -0.7192 -0.5619  1.0615
  364MOL0     C50128   0.682   4.438   5.267 -0.1000 -1.4047 -0.1140
  364MOL0     C50129   0.605   4.502   5.360  0.2795 -0.4009 -0.8055
  364MOL0     O50130   0.483   4.455   5.408 -0.1644  0.4902  0.2443
  364MOL0     C50131   0.449   4.319   5.399 -0.0751 -0.3691  0.8458
  364MOL0     C50132   0.372   4.279   5.516  1.5720  0.0225  0.0383
  364MOL0     C50133   0.436   4.308   5.650 -0.8136 -0.5889 -0.7268
  364MOL0     C50134   0.347   4.257   5.771 -0.2125 -0.2301 -0.6237
  364MOL0     C50135   0.417   4.288   5.903 -0.2281 -0.3511  0.0260
  364MOL0     C50136   0.326   4.279   6.015 -0.4211  0.1880 -0.3470
  364MOL0     C50137   0.307   4.125   6.053  0.3657 -0.8042  0.0750
  364MOL0     C50138   0.186   4.107   6.146  0.0538  0.1527  0.5961
  364MOL0    Cl50139   0.167   4.218   6.281 -0.2375  0.4914 -0.0362
  364MOL0     C50140   0.660   4.622   5.417  0.1458  0.3439 -0.3530
  364MOL0     C50141   0.785   4.668   5.374  0.7067  0.2014 -0.0144
  364MOL0     O50142   0.987   4.594   5.025  0.2134  0.4930 -0.1054
  364MOL0     C50143   1.279   4.641   5.055  0.0178  0.9116  0.1959
  364MOL0     C50144   1.404   4.712   5.051  0.0785 -0.0513  0.4911
  364MOL0     N50145   1.925   5.214   5.538  0.4073  0.4047 -0.5374
  364MOL0     N50146   2.021   5.176   5.625 -0.0264 -0.2724  0.5145
  364MOL0     C50147   1.683   5.405   6.471 -0.5525 -0.5684  0.1837
  364MOL0     C50148   1.607   5.484   6.565  0.6799  0.0167 -0.1342
  364MOL0     C50149   1.322   5.731   6.800  0.4486  0.8894 -0.3527
  364MOL0     C50150   1.318   5.836   6.709  0.2168 -0.1912 -0.8769
  364MOL0     C50151   1.246   5.949   6.749  0.4554  0.0151 -0.4825
  364MOL0     C50152   1.186   5.954   6.876 -0.2265 -0.3810  0.1333
  364MOL0     O50153   1.123   6.075   6.909 -0.5714 -0.3480  0.4572
  364MOL0     C50154   1.018   6.066   7.011 -0.2489 -0.0475 -0.1352
  364MOL0     C50155   0.951   6.209   6.999  0.4042 -0.6219 -0.0958
  364MOL0     C50156   0.859   6.233   6.885 -0.2087 -0.5024  0.4447
  364MOL0     C50157   0.735   6.320   6.918 -0.4124  0.2338  0.6138
  364MOL0     C50158   0.644   6.229   6.996  0.4335 -0.5092 -0.3623
  364MOL0     C50159   0.559   6.151   7.043 -0.1867 -1.2920 -0.0829
  364MOL0     C50160   1.203   5.853   6.964 -1.2291 -0.2157 -1.0025
  364MOL0     C50161   1.267   5.735   6.929 -0.7306 -0.3313 -0.5901
  364MOL0     C50162   1.261   5.625   7.033 -0.2029 -0.7059  0.0265
  364MOL0     H50163   1.301   5.410   6.435 -0.2768 -1.1093  2.0087
  364MOL0     H50164   1.426   5.249   6.302 -2.9643  0.5709  0.2386
  364MOL0     H50165   1.626   5.137   6.143 -0.7162  2.1410  0.6587
  364MOL0     H50166   1.616   5.085   6.315  0.8871  0.7857  0.9798
  364MOL0     H50167   1.817   4.975   6.316 -1.0368 -3.7562 -2.6413
  364MOL0     H50168   1.766   4.970   6.147  0.2003  1.6724 -2.4544
  364MOL0     H50169   1.908   5.131   6.060  2.0997  2.0693 -0.4117
  364MOL0     H50170   1.961   5.191   6.213 -1.4556  1.9940 -0.0727
  364MOL0     H50171   2.053   4.971   6.290  2.0587 -5.4966 -0.0068
  364MOL0     H50172   1.996   4.896   6.144  0.6686  0.2149  2.0251
  364MOL0     H50173   2.254   5.007   6.168  1.9160 -0.4138 -2.5325
  364MOL0     H50174   2.179   5.139   6.092 -1.4890 -0.3356  0.5275
  364MOL0     H50175   2.283   5.019   5.928 -2.0138  0.0124 -4.5575
  364MOL0     H50176   2.216   4.861   5.974 -1.0343 -0.1915  1.1021
  364MOL0     H50177   2.055   5.100   5.885  0.6146  0.2331  1.8303
  364MOL0     H50178   1.983   4.938   5.882 -0.8071  0.4472 -4.2659
  364MOL0     H50179   2.227   5.030   5.735  0.9186 -1.6946 -3.1350
  364MOL0     H50180   2.145   4.883   5.696 -2.1907 -0.2064 -3.2211
  364MOL0     H50181   1.885   4.892   5.558 -1.1951  0.2723 -3.2104
  364MOL0     H50182   1.649   5.140   5.500  0.8042 -0.4644  1.3259
  364MOL0     H50183   1.689   4.966   5.488  0.8645 -1.0667 -1.2276
  364MOL0     H50184   1.739   5.177   5.296  5.6332  0.1230  1.4719
  364MOL0     H50185   1.801   5.010   5.272 -1.2284 -0.4575 -2.6105
  364MOL0     H50186   1.604   4.892   5.264  1.2244  0.2199  0.2487
  364MOL0     H50187   1.513   5.038   5.310 -0.7587 -2.2876  1.3184
  364MOL0     H50188   1.504   5.112   5.099  0.2869  0.7009  4.4825
  364MOL0     H50189   1.658   5.063   5.050 -1.1094 -0.8830 -2.9154
  364MOL0     H50190   1.292   5.021   5.119 -1.6115  0.5309 -0.8469
  364MOL0     H50191   1.055   5.011   5.060  0.8527 -1.5090 -1.4058
  364MOL0     H50192   1.058   5.003   5.234  0.1971 -2.7918  1.0840
  364MOL0     H50193   0.964   4.885   5.176  0.6765 -1.9535 -0.7014
  364MOL0     H50194   0.877   4.429   5.163 -1.5641  1.3049 -1.4528
  364MOL0     H50195   0.640   4.345   5.231  0.1413 -1.1403 -1.1145
  364MOL0     H50196   0.402   4.280   5.308  1.4168  0.8618 -0.5150
  364MOL0     H50197   0.539   4.259   5.390  0.4972  0.6360 -0.5044
  364MOL0     H50198   0.281   4.338   5.529  0.7043 -1.0232 -0.9770
  364MOL0     H50199   0.359   4.170   5.516  1.4881  0.0114 -1.6679
  364MOL0     H50200   0.446   4.417   5.652  2.6113 -0.8143 -0.7922
  364MOL0     H50201   0.533   4.260   5.655 -1.5652 -2.1645 -0.6469
  364MOL0     H50202   0.324   4.151   5.760  1.2422 -0.6348 -0.0139
  364MOL0     H50203   0.254   4.314   5.759  1.2453  1.9032 -2.7627
  364MOL0     H50204   0.504   4.223   5.917  0.0027  0.1125  0.7685
  364MOL0     H50205   0.458   4.389   5.906 -0.8944 -0.0640  3.0947
  364MOL0     H50206   0.227   4.321   5.998 -1.3086 -0.5950  2.3777
  364MOL0     H50207   0.363   4.333   6.103  3.3142 -1.1950 -0.8798
  364MOL0     H50208   0.403   4.088   6.092  1.6697 -0.5255 -2.6799
  364MOL0     H50209   0.303   4.058   5.966  1.0480  1.6672 -1.9670
  364MOL0     H50210   0.161   4.004   6.176 -1.7334 -0.7004 -3.1291
  364MOL0     H50211   0.097   4.122   6.084 -0.1365 -1.4974  0.4166
  364MOL0     H50212   0.616   4.679   5.498 -1.5118 -4.6858  2.7573
  364MOL0     H50213   0.808   4.769   5.408  1.8581 -1.2151  4.0174
  364MOL0     H50214   1.265   4.534   5.039  0.9705  0.2851  2.8524
  364MOL0     H50215   1.497   4.667   5.017 -0.1063 -1.1698  1.3949
  364MOL0     H50216   1.789   5.418   6.451 -0.5814 -2.0191 -1.1123
  364MOL0     H50217   1.671   5.539   6.633  1.6689 -1.3237  0.0509
  364MOL0     H50218   1.361   5.820   6.610 -0.1438  0.2285 -1.1096
  364MOL0     H50219   1.229   6.031   6.680 -0.1626  1.6527  1.5473
  364MOL0     H50220   0.946   5.990   6.981  0.1489 -0.7072  0.5556
  364MOL0     H50221   1.055   6.046   7.112 -1.6420  2.7135  1.0244
  364MOL0     H50222   1.029   6.285   7.004 -0.9121  0.8677 -1.2700
  364MOL0     H50223   0.889   6.218   7.089 -0.3082 -4.4129 -0.0439
  364MOL0     H50224   0.921   6.293   6.818  1.2494 -0.6458  1.6236
  364MOL0     H50225   0.831   6.139   6.836 -0.7542  0.9883 -2.2953
  364MOL0     H50226   0.682   6.351   6.827 -2.0511  0.5890  1.6475
  364MOL0     H50227   0.755   6.412   6.974 -0.5967 -1.7977  4.3529
  364MOL0     H50228   0.506   6.088   7.112  0.6955  0.0105  1.8888
  364MOL0     H50229   1.184   5.873   7.069  3.4406 -0.5346  0.0898
  364MOL0     H50230   1.166   5.642   7.085 -0.4208 -1.7118 -0.0143
  364MOL0     H50231   1.271   5.521   7.001 -2.1734 -1.7681  2.4618
  364MOL0     H50232   1.337   5.648   7.109 -1.7077  1.4339  0.9644
  365MOL0     O50233   4.822   1.155   6.110 -0.1648  1.2794  0.2240
  365MOL0     C50234   4.707   1.135   6.128  1.2109  0.0647 -1.2786
  365MOL0     O50235   4.613   1.113   6.034 -0.4139  0.7453 -0.3151
  365MOL0     C50236   4.639   1.119   5.899 -0.4544  0.4145 -0.4702
  365MOL0     C50237   4.764   1.108   5.834 -0.1238 -0.8870 -0.3725
  365MOL0     C50238   4.776   1.125   5.689 -1.4520 -0.6535  1.3266
  365MOL0     C50239   4.657   1.157   5.611  0.6814  0.5564  0.0004
  365MOL0     O50240   4.670   1.169   5.476  0.9526 -0.1472 -0.3400
  365MOL0     C50241   4.561   1.227   5.408  0.2610  0.2613  0.7213
  365MOL0     C50242   4.593   1.241   5.253  0.7515  0.5645 -0.6603
  365MOL0     C50243   4.473   1.288   5.183 -0.7574  0.7406 -0.5120
  365MOL0     C50244   4.501   1.301   5.038  0.4977 -0.1669  0.5357
  365MOL0     C50245   4.384   1.349   4.959 -0.5913 -0.1582 -0.5090
  365MOL0     C50246   4.397   1.346   4.798  0.7593 -0.5126 -0.2904
  365MOL0     C50247   4.511   1.435   4.750 -0.7856  0.3906 -0.6423
  365MOL0     C50248   4.574   1.384   4.623 -0.6321 -0.6993  0.6392
  365MOL0     N50249   4.491   1.396   4.502 -0.7490  0.7632  0.3601
  365MOL0     C50250   4.432   1.518   4.462 -0.2151 -0.1370 -0.5072
  365MOL0     C50251   4.335   1.484   4.370  0.0499  0.4220  0.0924
  365MOL0     C50252   4.245   1.587   4.307  0.4163  0.2596  1.1270
  365MOL0     C50253   4.319   1.664   4.194  0.1155  0.7337  0.0636
  365MOL0     C50254   4.276   1.616   4.052 -0.3158  0.5162 -0.7808
  365MOL0     C50255   4.339   1.704   3.941  0.3419  0.8426  0.0889
  365MOL0     O50256   4.316   1.845   3.952  0.1623 -0.4248  0.7779
  365MOL0     C50257   4.195   1.894   3.918 -0.3803 -0.3456  0.5997
  365MOL0     C50258   4.178   2.025   3.957 -0.4900  0.6568  1.0938
  365MOL0     C50259   4.063   2.101   3.952 -0.5731  0.0903  1.0435
  365MOL0     C50260   4.075   2.243   4.019 -1.0480 -0.7900 -0.2846
  365MOL0     C50261   3.953   2.036   3.882  1.2999 -0.6696 -1.0025
  365MOL0     C50262   3.825   2.111   3.854 -0.4621  0.1311 -0.7591
  365MOL0     O50263   3.818   2.230   3.910  0.7307  0.2521 -0.1108
  365MOL0     C50264   3.686   2.277   3.929 -0.0202 -0.3918 -0.4492
  365MOL0     C50265   3.652   2.402   3.868 -0.6866 -0.8604 -0.6142
  365MOL0     C50266   3.522   2.448   3.874 -0.6733 -0.0495 -0.7191
  365MOL0     C50267   3.434   2.387   3.957 -0.1811  0.1867 -0.3827
  365MOL0     O50268   3.313   2.439   3.962 -0.3373 -0.2789  0.0435
  365MOL0     C50269   3.290   2.538   4.065 -0.6369  0.1365  0.2682
  365MOL0     C50270   3.161   2.620   4.045  0.1594  0.0782 -1.0913
  365MOL0     C50271   3.158   2.700   3.915  0.0801 -0.8457 -0.1594
  365MOL0     C50272   3.272   2.806   3.909  0.8908 -0.7384  0.0782
  365MOL0     C50273   3.276   2.870   3.770  0.6486 -0.2393  0.1006
  365MOL0     C50274   3.323   2.785   3.649  0.2991  0.1278 -0.7434
  365MOL0     C50275   3.371   2.871   3.527 -0.2667  1.0106 -0.1093
  365MOL0     C50276   3.419   2.784   3.412  1.2827  0.2114  0.4050
  365MOL0    Cl50277   3.281   2.671   3.358 -0.0080  0.7060  0.4965
  365MOL0     C50278   3.460   2.257   4.012 -0.8525  0.6337  0.5150
  365MOL0     C50279   3.584   2.206   3.996  0.2115  0.2511 -0.0884
  365MOL0     O50280   3.742   2.059   3.783  0.5925 -0.8894 -0.0781
  365MOL0     C50281   3.962   1.901   3.838  0.7184 -0.4769  0.8727
  365MOL0     C50282   4.081   1.835   3.856 -0.0182  0.1934 -0.1623
  365MOL0     N50283   4.365   1.351   4.336  0.6638  0.5151 -0.3552
  365MOL0     N50284   4.460   1.298   4.415 -0.1333  0.6554  1.1751
  365MOL0     C50285   4.534   1.160   5.679  0.0753 -0.3293 -0.4142
  365MOL0     C50286   4.528   1.136   5.814  0.3251  0.0787  0.0968
  365MOL0     C50287   4.681   1.135   6.275  0.2476 -0.7047  1.0677
  365MOL0     C50288   4.784   1.116   6.365 -0.2971 -0.2666 -0.0303
  365MOL0     C50289   4.767   1.129   6.508 -0.3672 -0.5931  0.7541
  365MOL0     C50290   4.650   1.165   6.557 -0.8253 -0.0865  0.3087
  365MOL0     O50291   4.644   1.179   6.695  0.4041 -0.4079  0.4803
  365MOL0     C50292   4.568   1.294   6.748  0.0825 -0.7023  0.7650
  365MOL0     C50293   4.534   1.267   6.898  0.2229 -1.4928  0.1152
  365MOL0     C50294   4.428   1.357   6.963 -0.0184  0.2681  0.9616
  365MOL0     C50295   4.470   1.496   7.006  0.3192 -0.6060 -0.9898
  365MOL0     C50296   4.581   1.498   7.104  0.3853 -0.2243 -0.4089
  365MOL0     C50297   4.663   1.487   7.198  1.0026 -0.0154  0.1180
  365MOL0     C50298   4.544   1.173   6.469  0.2091  0.0118 -0.1132
  365MOL0     C50299   4.555   1.170   6.329 -1.1509 -0.4100  0.0277
  365MOL0     C50300   4.427   1.195   6.249 -0.0295 -0.4250 -0.1475
  365MOL0     H50301   4.860   1.083   5.879 -0.9870 -0.7534  1.6782
  365MOL0     H50302   4.875   1.138   5.648 -1.5089  4.1845  2.1525
  365MOL0     H50303   4.536   1.320   5.459 -0.5036  1.2631 -1.3526
  365MOL0     H50304   4.478   1.156   5.408  0.7893 -0.3711  0.5445
  365MOL0     H50305   4.681   1.307   5.247  1.6349 -0.3910  1.0250
  365MOL0     H50306   4.622   1.143   5.214 -0.4645 -0.1294  0.1235
  365MOL0     H50307   4.392   1.214   5.192 -1.4162  1.4353 -0.6275
  365MOL0     H50308   4.444   1.385   5.225 -2.4709  0.4388 -0.8929
  365MOL0     H50309   4.591   1.359   5.013 -1.3401  3.1732  1.1521
  365MOL0     H50310   4.506   1.203   4.988  0.8126  0.5249 -0.8358
  365MOL0     H50311   4.361   1.450   4.993 -1.2844 -0.0814 -1.1781
  365MOL0     H50312   4.302   1.280   4.980 -0.1249 -0.7892 -0.7422
  365MOL0     H50313   4.408   1.242   4.768 -0.6754 -0.6623 -0.3600
  365MOL0     H50314   4.318   1.405   4.750  1.1355 -0.8531 -1.3436
  365MOL0     H50315   4.596   1.444   4.818 -1.4631 -1.5949  0.5726
  365MOL0     H50316   4.475   1.538   4.740 -1.3151  0.1658 -1.0898
  365MOL0     H50317   4.665   1.443   4.604 -0.4080 -1.8863 -2.4531
  365MOL0     H50318   4.604   1.281   4.642 -0.5588 -0.3641  2.6291
  365MOL0     H50319   4.453   1.622   4.483  2.0502 -0.9639  1.8816
  365MOL0     H50320   4.228   1.654   4.392  0.9495  0.3677  1.1563
  365MOL0     H50321   4.151   1.543   4.273  2.0610 -0.2314 -3.4593
  365MOL0     H50322   4.293   1.770   4.204  3.0631  1.3740  2.7622
  365MOL0     H50323   4.426   1.642   4.199 -0.6570 -4.3311 -0.1428
  365MOL0     H50324   4.307   1.511   4.040 -1.5839 -0.2761  1.9824
  365MOL0     H50325   4.168   1.608   4.035 -0.7577 -0.1207  1.8709
  365MOL0     H50326   4.444   1.677   3.956  0.7136  2.0780 -0.2035
  365MOL0     H50327   4.311   1.663   3.844  0.1137 -1.5672  1.0932
  365MOL0     H50328   4.270   2.073   3.990  0.1768 -1.2586  2.2185
  365MOL0     H50329   3.994   2.247   4.092  1.0648  0.8415  2.1315
  365MOL0     H50330   4.071   2.330   3.952  1.9650  1.7647  2.5142
  365MOL0     H50331   4.169   2.252   4.074 -2.2604  0.7600  1.6401
  365MOL0     H50332   3.732   2.456   3.818 -1.1800  1.4795  0.9389
  365MOL0     H50333   3.484   2.529   3.812  0.9833  0.2399 -1.4099
  365MOL0     H50334   3.283   2.476   4.154  0.3342 -2.1013 -1.1248
  365MOL0     H50335   3.371   2.607   4.086  0.0353 -0.0493 -1.5144
  365MOL0     H50336   3.078   2.548   4.042 -0.7175  0.9848  0.1939
  365MOL0     H50337   3.151   2.691   4.128 -0.5490  0.4213 -1.4552
  365MOL0     H50338   3.063   2.754   3.902  1.0217  0.5258 -1.6698
  365MOL0     H50339   3.175   2.622   3.841 -0.6199 -2.6497  1.4853
  365MOL0     H50340   3.370   2.759   3.921  1.2368 -0.2774 -0.8113
  365MOL0     H50341   3.274   2.877   3.992  1.9050 -2.3350  1.4767
  365MOL0     H50342   3.177   2.909   3.745  1.7577  2.6040 -0.2756
  365MOL0     H50343   3.344   2.955   3.776  1.1921 -0.5561 -1.2599
  365MOL0     H50344   3.233   2.735   3.614  0.4192 -0.6271 -0.0015
  365MOL0     H50345   3.401   2.717   3.683 -0.8569 -1.3493 -0.9347
  365MOL0     H50346   3.450   2.935   3.568  1.1347  0.0214 -1.1727
  365MOL0     H50347   3.290   2.928   3.479  0.5292  1.0191 -1.5009
  365MOL0     H50348   3.504   2.718   3.430  1.4181  0.0362 -0.8467
  365MOL0     H50349   3.451   2.846   3.328  2.4155  1.2095  1.5279
  365MOL0     H50350   3.390   2.196   4.068  1.4220 -0.5090  2.2977
  365MOL0     H50351   3.614   2.110   4.036  1.4416  2.1266  3.9969
  365MOL0     H50352   3.873   1.857   3.795  0.3450  1.2295 -0.1949
  365MOL0     H50353   4.082   1.729   3.832 -2.6873  0.4485 -1.8022
  365MOL0     H50354   4.445   1.196   5.627 -0.0659 -2.3921 -1.6970
  365MOL0     H50355   4.429   1.151   5.856 -0.0562  2.7327 -1.5351
  365MOL0     H50356   4.881   1.079   6.332  1.4223  3.5395  0.1861
  365MOL0     H50357   4.858   1.112   6.564  0.4156  1.4034  0.1585
  365MOL0     H50358   4.623   1.389   6.742 -0.7375 -0.3103 -1.5750
  365MOL0     H50359   4.478   1.313   6.689 -0.6175 -0.9484  1.7313
  365MOL0     H50360   4.623   1.270   6.962  0.2098  1.3066  0.1295
  365MOL0     H50361   4.481   1.172   6.904 -1.5399 -0.5106  0.8316
  365MOL0     H50362   4.343   1.362   6.895  0.6353  2.4593  0.2152
  365MOL0     H50363   4.394   1.309   7.055 -0.5686  0.0578  0.6517
  365MOL0     H50364   4.381   1.540   7.052 -0.4810 -1.2304 -1.8864
  365MOL0     H50365   4.511   1.555   6.923 -0.6046  2.2425  0.4501
  365MOL0     H50366   4.752   1.480   7.257  2.4520  1.0973 -1.8213
  365MOL0     H50367   4.447   1.201   6.509  0.7423  0.1254  1.1398
  365MOL0     H50368   4.453   1.285   6.193  0.6559 -0.3785  0.2214
  365MOL0     H50369   4.409   1.112   6.181  0.2373  0.6669 -1.5905
  365MOL0     H50370   4.333   1.217   6.301 -1.9761  2.3393 -4.3309
  366MOL0     O50371   1.137   9.189   6.235  0.3301 -0.8789 -0.5368
  366MOL0     C50372   1.061   9.212   6.146  0.5628 -0.0866  0.6261
  366MOL0     O50373   1.099   9.224   6.013 -0.5007  0.2166 -0.2635
  366MOL0     C50374   1.230   9.212   5.986 -0.1768 -0.6061 -0.0544
  366MOL0     C50375   1.334   9.304   6.015  0.6285  0.1050  0.2682
  366MOL0     C50376   1.463   9.291   5.962 -0.8490  0.2326 -1.0708
  366MOL0     C50377   1.484   9.173   5.888  0.2932  0.4027 -1.5948
  366MOL0     O50378   1.608   9.143   5.852  0.1100  0.4214  0.3204
  366MOL0     C50379   1.697   9.124   5.968  0.6856  0.0884 -0.6476
  366MOL0     C50380   1.805   9.024   5.929  0.2801 -0.0177  0.2800
  366MOL0     C50381   1.744   8.893   5.865 -0.6469  0.1752  0.4631
  366MOL0     C50382   1.688   8.807   5.980 -0.1169  0.1974  0.8292
  366MOL0     C50383   1.571   8.722   5.930  0.2499 -0.4907  0.2182
  366MOL0     C50384   1.539   8.626   6.052  0.0089 -0.1845  0.0448
  366MOL0     C50385   1.446   8.510   6.018 -0.0819  0.0997  0.2241
  366MOL0     C50386   1.444   8.415   6.139 -0.0604  1.1211 -0.1394
  366MOL0     N50387   1.574   8.359   6.171 -0.3401 -0.5121 -0.5433
  366MOL0     C50388   1.634   8.360   6.299  0.4986 -1.0488  0.8477
  366MOL0     C50389   1.720   8.262   6.283 -0.1539 -0.1536 -0.7316
  366MOL0     C50390   1.827   8.219   6.384 -0.6437  0.3600  0.0582
  366MOL0     C50391   1.952   8.313   6.399 -1.1035  0.0771  0.1096
  366MOL0     C50392   1.919   8.445   6.474 -0.8004  0.7292 -0.6812
  366MOL0     C50393   2.037   8.533   6.517 -0.4126  1.4241  0.8252
  366MOL0     O50394   2.133   8.469   6.607  0.0082  0.7247 -0.1160
  366MOL0     C50395   2.228   8.548   6.661 -0.6308 -0.2699 -0.4299
  366MOL0     C50396   2.293   8.496   6.773 -0.8442  0.1204  0.2254
  366MOL0     C50397   2.406   8.563   6.838 -0.0769  0.4654  1.0642
  366MOL0     C50398   2.486   8.477   6.928  0.1949 -0.5818 -0.2267
  366MOL0     C50399   2.444   8.688   6.791  0.2716  0.3494 -0.6208
  366MOL0     C50400   2.573   8.761   6.824  0.3261  0.7592 -1.4280
  366MOL0     O50401   2.591   8.886   6.789  0.4298  0.0908  0.2748
  366MOL0     C50402   2.721   8.924   6.790  0.0297  0.0350  0.0203
  366MOL0     C50403   2.776   9.001   6.897  1.0057  0.3720 -0.2352
  366MOL0     C50404   2.897   9.066   6.899  0.5799  0.0538  0.1032
  366MOL0     C50405   2.977   9.045   6.786  0.2047 -0.1747  0.4376
  366MOL0     O50406   3.104   9.103   6.784  0.7641  0.2009  0.8778
  366MOL0     C50407   3.118   9.196   6.672 -0.2463  0.0022 -0.0032
  366MOL0     C50408   3.229   9.286   6.721 -0.2280 -0.1013 -0.3777
  366MOL0     C50409   3.246   9.388   6.609 -0.5624 -0.2035 -1.2637
  366MOL0     C50410   3.139   9.505   6.615  0.8181 -0.1469  0.9350
  366MOL0     C50411   3.177   9.607   6.507 -0.1342  0.0102  0.3658
  366MOL0     C50412   3.062   9.714   6.483  0.5906 -0.3951  0.1862
  366MOL0     C50413   3.077   9.800   6.363 -0.5143 -0.8229 -0.5338
  366MOL0     C50414   2.945   9.867   6.326  0.7163 -0.5090 -0.4500
  366MOL0    Cl50415   2.830   9.757   6.259  0.0426  0.0746 -0.1466
  366MOL0     C50416   2.936   8.967   6.679  0.2704  0.2737  0.7573
  366MOL0     C50417   2.806   8.921   6.682  0.9415  1.4643  0.6191
  366MOL0     O50418   2.662   8.694   6.888 -0.0499 -0.8206  0.3997
  366MOL0     C50419   2.368   8.751   6.685 -0.7052  0.8235 -0.6713
  366MOL0     C50420   2.274   8.670   6.611  0.2538 -0.8787  0.7137
  366MOL0     N50421   1.719   8.201   6.161  0.8139  0.3586 -0.1846
  366MOL0     N50422   1.628   8.260   6.096 -0.2270  0.2690  0.2489
  366MOL0     C50423   1.386   9.078   5.856  0.3988  0.2138  0.2107
  366MOL0     C50424   1.256   9.097   5.908 -0.2489 -0.0276 -0.2339
  366MOL0     C50425   0.929   9.271   6.182 -0.0473 -0.3696  0.6938
  366MOL0     C50426   0.900   9.401   6.132 -0.2120  0.1267 -0.5971
  366MOL0     C50427   0.789   9.466   6.173  0.6412 -0.7391 -0.6078
  366MOL0     C50428   0.686   9.392   6.233 -0.1775 -0.1796  0.4284
  366MOL0     O50429   0.562   9.435   6.268 -0.4526  0.6646  0.5396
  366MOL0     C50430   0.475   9.443   6.146  0.1227 -0.2183  0.1100
  366MOL0     C50431   0.333   9.408   6.193  0.8884  0.8385  0.9409
  366MOL0     C50432   0.277   9.533   6.254 -1.1108  0.4264  0.1737
  366MOL0     C50433   0.137   9.526   6.310 -0.1907 -0.4064  0.5179
  366MOL0     C50434   0.038   9.574   6.213  0.4919  0.1776 -0.4226
  366MOL0     C50435  -0.049   9.608   6.149 -0.0679 -0.7412  1.3676
  366MOL0     C50436   0.718   9.265   6.285  1.7336 -0.1249 -0.0568
  366MOL0     C50437   0.837   9.209   6.270 -0.3641  0.4901 -0.3754
  366MOL0     C50438   0.861   9.071   6.340  0.2255  0.6807  0.7592
  366MOL0     H50439   1.310   9.396   6.068 -2.1365 -1.7879  2.6446
  366MOL0     H50440   1.540   9.367   5.965  0.7327 -1.3156  1.2489
  366MOL0     H50441   1.638   9.095   6.055  0.3026  1.0083 -0.5891
  366MOL0     H50442   1.747   9.216   6.000 -1.2786  1.3645 -1.0748
  366MOL0     H50443   1.865   9.067   5.848  1.3950  0.2612  1.2247
  366MOL0     H50444   1.875   9.014   6.013 -0.5708  3.1824  1.4945
  366MOL0     H50445   1.675   8.906   5.781  3.8238 -0.6191 -3.7848
  366MOL0     H50446   1.829   8.840   5.821  0.4245  1.5437  0.7826
  366MOL0     H50447   1.772   8.755   6.027  3.5350  2.2263 -2.8294
  366MOL0     H50448   1.648   8.877   6.054 -0.1051  0.2089  0.8246
  366MOL0     H50449   1.591   8.664   5.840 -1.6997 -0.9565  0.0392
  366MOL0     H50450   1.487   8.789   5.908 -1.9792 -2.8612  0.9752
  366MOL0     H50451   1.639   8.587   6.072  0.2751  0.3753 -0.1603
  366MOL0     H50452   1.516   8.672   6.148  1.5561 -1.0425  0.8726
  366MOL0     H50453   1.484   8.460   5.929 -0.2433 -0.7135  0.6010
  366MOL0     H50454   1.349   8.558   5.997  1.3864  2.4708 -1.6289
  366MOL0     H50455   1.397   8.470   6.221  0.0340  0.7853  0.1424
  366MOL0     H50456   1.377   8.332   6.115 -0.8799  1.2832  1.4371
  366MOL0     H50457   1.620   8.429   6.381  1.6530 -0.3115  0.4532
  366MOL0     H50458   1.871   8.122   6.358 -0.9428  0.3399 -0.3941
  366MOL0     H50459   1.777   8.205   6.480 -2.6023  3.8751 -0.2880
  366MOL0     H50460   2.027   8.256   6.455 -1.1948  1.6408  1.9268
  366MOL0     H50461   1.994   8.329   6.299  1.5349  0.3159  1.1761
  366MOL0     H50462   1.844   8.505   6.422 -2.1484  0.5564  0.9891
  366MOL0     H50463   1.883   8.416   6.573  0.7723 -0.2834 -0.3756
  366MOL0     H50464   2.083   8.581   6.430 -0.9781  1.0802  0.3289
  366MOL0     H50465   2.002   8.618   6.578 -0.5306  1.8848  0.1291
  366MOL0     H50466   2.258   8.402   6.814  0.2270 -0.1925  0.4723
  366MOL0     H50467   2.519   8.536   7.014  0.6053 -0.1601 -0.6642
  366MOL0     H50468   2.581   8.437   6.892  1.2330  0.1385  1.6155
  366MOL0     H50469   2.426   8.396   6.971 -0.2104  1.0522  2.4971
  366MOL0     H50470   2.719   8.997   6.990 -0.4005  1.6946 -0.9974
  366MOL0     H50471   2.935   9.125   6.982  0.7222 -1.4018  1.1256
  366MOL0     H50472   3.140   9.154   6.573 -1.2303  1.3609 -0.8303
  366MOL0     H50473   3.024   9.250   6.662  0.6556  1.4412 -1.0400
  366MOL0     H50474   3.203   9.327   6.819 -2.1659  0.4034 -1.0482
  366MOL0     H50475   3.316   9.221   6.731 -2.4356 -3.0891  0.7205
  366MOL0     H50476   3.257   9.336   6.513  2.2474 -1.2590 -0.4619
  366MOL0     H50477   3.347   9.425   6.627 -0.2415 -2.1533  1.6440
  366MOL0     H50478   3.140   9.545   6.717  1.8555  1.3416  0.3770
  366MOL0     H50479   3.045   9.459   6.585  1.5965 -0.4067 -1.2208
  366MOL0     H50480   3.269   9.661   6.531 -1.2017  1.1815  2.0672
  366MOL0     H50481   3.176   9.553   6.412 -0.7794 -2.0665  1.4790
  366MOL0     H50482   3.059   9.783   6.568  0.9715  1.8949 -1.5523
  366MOL0     H50483   2.964   9.666   6.474 -0.6348  1.6073  1.8534
  366MOL0     H50484   3.112   9.733   6.283  1.1444  0.6453 -1.0981
  366MOL0     H50485   3.154   9.876   6.377 -0.0239 -0.6771 -3.4957
  366MOL0     H50486   2.945   9.936   6.241 -1.0188 -2.6677 -2.3128
  366MOL0     H50487   2.902   9.927   6.408  1.7197 -1.3151  0.7100
  366MOL0     H50488   2.982   8.970   6.581  0.7696  2.5373  1.0036
  366MOL0     H50489   2.761   8.870   6.598 -2.1429  1.1618  2.3182
  366MOL0     H50490   2.393   8.848   6.644  1.6644  0.8957  0.7983
  366MOL0     H50491   2.227   8.712   6.522  1.0433 -2.9445 -0.7643
  366MOL0     H50492   1.406   8.993   5.791  2.1756  3.1100 -3.4246
  366MOL0     H50493   1.172   9.029   5.898  0.4406 -1.0545  0.7609
  366MOL0     H50494   0.970   9.439   6.058 -1.2767 -2.5010 -3.1164
  366MOL0     H50495   0.754   9.561   6.134  3.3384  0.5709 -0.0868
  366MOL0     H50496   0.479   9.544   6.105 -2.5976 -0.5595 -1.1652
  366MOL0     H50497   0.511   9.375   6.068  2.0568  0.5889  0.2296
  366MOL0     H50498   0.335   9.324   6.263  2.0335  1.5993  1.8560
  366MOL0     H50499   0.265   9.388   6.110 -0.8810 -1.3541  2.7877
  366MOL0     H50500   0.342   9.571   6.334  0.9327  3.8558 -2.7633
  366MOL0     H50501   0.299   9.613   6.182 -0.9294  0.5390  0.3512
  366MOL0     H50502   0.135   9.596   6.394 -1.6563 -0.0206  0.1835
  366MOL0     H50503   0.123   9.430   6.360 -0.2515 -1.0596 -0.7171
  366MOL0     H50504  -0.136   9.641   6.096 -0.0433 -0.4840  1.4828
  366MOL0     H50505   0.643   9.222   6.351  1.4989  1.7471  0.9830
  366MOL0     H50506   0.965   9.037   6.344  0.8998  2.5005 -0.1007
  366MOL0     H50507   0.820   9.093   6.439  0.0208  2.7032  0.2739
  366MOL0     H50508   0.805   8.991   6.290 -0.9753  0.9854  1.5815
  367MOL0     O50509   5.512  10.740   0.950  0.0919  0.1463  0.0231
  367MOL0     C50510   5.418  10.802   0.999  0.8777  0.0594  0.9597
  367MOL0     O50511   5.289  10.815   0.946  0.5998  0.0384 -0.0832
  367MOL0     C50512   5.248  10.726   0.846 -0.6959 -0.7156  0.5190
  367MOL0     C50513   5.141  10.633   0.868 -0.0203  0.0384 -0.9932
  367MOL0     C50514   5.097  10.547   0.775 -0.4590 -0.2957 -0.2613
  367MOL0     C50515   5.155  10.544   0.651 -0.2058  0.7571  0.1042
  367MOL0     O50516   5.114  10.438   0.576 -0.7194  0.0029  0.6801
  367MOL0     C50517   5.125  10.471   0.434 -0.4635 -0.1584 -0.8546
  367MOL0     C50518   5.026  10.401   0.348  0.5328 -0.5072 -0.5000
  367MOL0     C50519   5.069  10.263   0.296  0.5225  0.7223  0.7329
  367MOL0     C50520   5.058  10.157   0.406  0.5599  0.5432 -0.3918
  367MOL0     C50521   5.178  10.056   0.408  0.4285  0.1319  1.0420
  367MOL0     C50522   5.304  10.123   0.467 -0.1599 -0.0751  1.0015
  367MOL0     C50523   5.419  10.023   0.477  0.0113 -0.4133  0.5834
  367MOL0     C50524   5.442   9.959   0.338 -0.4811  0.3904 -1.0269
  367MOL0     N50525   5.480  10.054   0.227 -0.2105 -0.3281 -0.2254
  367MOL0     C50526   5.511  10.193   0.230  0.1428 -0.1313 -0.5638
  367MOL0     C50527   5.511  10.225   0.098 -1.0038  0.4408 -0.5582
  367MOL0     C50528   5.557  10.352   0.036 -0.3437  0.0672 -0.2302
  367MOL0     C50529   5.493  10.475   0.092  0.1790  0.0620  0.4839
  367MOL0     C50530   5.335  10.484   0.089  0.0085 -0.0471 -0.0609
  367MOL0     C50531   5.261  10.464  -0.041  0.0350  0.8920 -0.2865
  367MOL0     O50532   5.315  10.559  -0.132  0.1207 -0.4253 -0.5786
  367MOL0     C50533   5.227  10.606  -0.234  0.1270  0.6656 -0.4909
  367MOL0     C50534   5.230  10.742  -0.269  0.2068 -1.0701 -0.1894
  367MOL0     C50535   5.154  10.784  -0.387 -0.1163  0.5054 -0.3198
  367MOL0     C50536   5.142  10.934  -0.404 -0.9559 -0.3969  0.2513
  367MOL0     C50537   5.080  10.684  -0.459 -1.1908 -0.0723 -0.7136
  367MOL0     C50538   4.987  10.715  -0.571 -0.7647  0.5626  0.4198
  367MOL0     O50539   4.916  10.605  -0.629  0.0480  0.0801 -0.2174
  367MOL0     C50540   4.881  10.607  -0.761 -0.0560  0.6059 -0.2663
  367MOL0     C50541   4.806  10.502  -0.807 -0.1132 -0.0019  0.1914
  367MOL0     C50542   4.762  10.481  -0.936 -0.3580 -0.4345 -0.1083
  367MOL0     C50543   4.777  10.585  -1.034 -0.9372  1.2068 -0.2831
  367MOL0     O50544   4.697  10.580  -1.155 -0.6103  0.2474 -0.3201
  367MOL0     C50545   4.716  10.672  -1.262 -0.4056 -0.3906 -0.0546
  367MOL0     C50546   4.608  10.650  -1.361  1.2010 -0.9063 -0.2657
  367MOL0     C50547   4.463  10.696  -1.313 -0.1678  0.4989 -0.9932
  367MOL0     C50548   4.363  10.632  -1.410 -0.7052  0.2298 -0.1194
  367MOL0     C50549   4.218  10.661  -1.361 -0.2474 -0.9361 -0.2087
  367MOL0     C50550   4.121  10.546  -1.406 -0.6889  0.1119 -0.5419
  367MOL0     C50551   3.982  10.590  -1.431 -0.1404 -0.3794  0.4604
  367MOL0     C50552   3.894  10.472  -1.454 -0.2005  0.7811 -0.0369
  367MOL0    Cl50553   3.868  10.378  -1.303 -0.0915  0.2387 -0.1426
  367MOL0     C50554   4.854  10.697  -0.994  0.4582  0.1925 -0.3537
  367MOL0     C50555   4.909  10.700  -0.869  0.0329 -0.6409 -0.5182
  367MOL0     O50556   4.975  10.833  -0.602  0.4458 -0.2793 -0.3037
  367MOL0     C50557   5.079  10.555  -0.406 -0.2570 -1.1201  0.1409
  367MOL0     C50558   5.159  10.515  -0.310 -0.0533 -0.7153  0.6033
  367MOL0     N50559   5.496  10.116   0.020 -0.2372  0.8351 -0.3808
  367MOL0     N50560   5.485  10.015   0.096 -0.0658 -0.2680  0.1098
  367MOL0     C50561   5.259  10.627   0.614 -0.4630  0.2444 -0.5095
  367MOL0     C50562   5.309  10.717   0.718 -0.9544  0.3864 -0.1579
  367MOL0     C50563   5.446  10.909   1.101  0.6742  0.6201 -0.3863
  367MOL0     C50564   5.350  11.011   1.127 -0.9143 -0.2163  0.3333
  367MOL0     C50565   5.380  11.116   1.223 -0.0840 -0.2904 -0.8419
  367MOL0     C50566   5.510  11.124   1.289  0.1814  0.4323  0.2200
  367MOL0     O50567   5.545  11.242   1.338  0.2598  0.4870  0.1843
  367MOL0     C50568   5.676  11.268   1.396 -0.0247  0.4318  0.4805
  367MOL0     C50569   5.704  11.217   1.540  0.5536  0.7251 -0.0762
  367MOL0     C50570   5.833  11.126   1.542 -0.6323  0.4121  0.5358
  367MOL0     C50571   5.903  11.140   1.680  0.1902  0.5713  1.0721
  367MOL0     C50572   5.953  11.279   1.698  0.4289  0.7643 -0.0858
  367MOL0     C50573   5.985  11.394   1.716  0.6936 -0.7573  0.9798
  367MOL0     C50574   5.595  11.025   1.261 -0.2369 -0.0485 -0.0704
  367MOL0     C50575   5.573  10.912   1.174 -0.3333  0.1312  0.0198
  367MOL0     C50576   5.668  10.796   1.185 -1.1181  0.0199  0.0728
  367MOL0     H50577   5.097  10.650   0.966  1.1226 -0.3531 -0.3943
  367MOL0     H50578   5.017  10.480   0.801 -0.4509 -1.0370 -2.0129
  367MOL0     H50579   5.229  10.453   0.405  0.5902  0.0802  2.3045
  367MOL0     H50580   5.105  10.577   0.420 -1.0939 -0.0172  0.8973
  367MOL0     H50581   4.928  10.405   0.395 -0.0347  0.8814 -1.7227
  367MOL0     H50582   5.025  10.453   0.251 -0.8278 -0.4084 -0.4522
  367MOL0     H50583   5.010  10.243   0.207  3.2901 -1.7925 -0.7073
  367MOL0     H50584   5.171  10.264   0.257  0.9608 -2.3014  1.5246
  367MOL0     H50585   5.055  10.196   0.508  0.0855 -4.2875  1.7212
  367MOL0     H50586   4.967  10.095   0.396  2.3872 -3.0062  2.4024
  367MOL0     H50587   5.194  10.025   0.304 -1.7698 -0.1477  0.7341
  367MOL0     H50588   5.141   9.971   0.467 -1.3543  0.3055  0.2425
  367MOL0     H50589   5.339  10.212   0.415  0.8089 -0.2663  1.3000
  367MOL0     H50590   5.289  10.147   0.573  0.9700  1.1089  0.9177
  367MOL0     H50591   5.394   9.955   0.559 -1.3593 -0.4991  0.1274
  367MOL0     H50592   5.505  10.085   0.503 -1.8786  2.2051  0.9376
  367MOL0     H50593   5.534   9.900   0.347 -1.0634 -0.3072  0.8043
  367MOL0     H50594   5.360   9.888   0.320  0.1322 -0.1775 -1.6622
  367MOL0     H50595   5.525  10.244   0.325 -3.1423 -4.3703  2.6070
  367MOL0     H50596   5.540  10.350  -0.072  3.0217 -1.1605 -0.8495
  367MOL0     H50597   5.664  10.348   0.056 -0.1382 -0.7112 -1.3815
  367MOL0     H50598   5.513  10.492   0.198  1.1387  0.2546  0.2833
  367MOL0     H50599   5.544  10.565   0.055 -0.5278  2.6962  5.1279
  367MOL0     H50600   5.282  10.409   0.148 -4.8964  3.5353  0.7291
  367MOL0     H50601   5.305  10.579   0.135 -1.4409 -1.3144  1.7217
  367MOL0     H50602   5.274  10.360  -0.074  0.6319  0.9696 -0.2960
  367MOL0     H50603   5.153  10.477  -0.029 -0.3406 -2.7869  1.7507
  367MOL0     H50604   5.288  10.821  -0.223  1.2938 -2.1447  0.3455
  367MOL0     H50605   5.037  10.965  -0.408 -0.3037  1.8374 -2.5530
  367MOL0     H50606   5.197  10.973  -0.490 -2.0088  1.0006  0.1670
  367MOL0     H50607   5.184  10.976  -0.312  0.9861  0.0184 -0.7780
  367MOL0     H50608   4.790  10.420  -0.738  3.2874 -0.5372  0.5151
  367MOL0     H50609   4.706  10.396  -0.972  0.7422 -1.8848  1.4360
  367MOL0     H50610   4.720  10.775  -1.226 -1.5007 -0.0443 -0.8611
  367MOL0     H50611   4.814  10.658  -1.308  0.2477  1.4638  0.6964
  367MOL0     H50612   4.632  10.700  -1.455  0.3093 -1.2082 -0.6729
  367MOL0     H50613   4.598  10.544  -1.384 -3.5615 -0.7609  0.0247
  367MOL0     H50614   4.464  10.805  -1.316 -1.7199  0.5193 -4.0272
  367MOL0     H50615   4.445  10.647  -1.217 -1.3506 -0.4573 -1.6643
  367MOL0     H50616   4.387  10.526  -1.402  1.5885  0.8142  1.8339
  367MOL0     H50617   4.378  10.669  -1.512  1.6366  0.4024  0.2457
  367MOL0     H50618   4.213  10.678  -1.253 -0.2713  0.1854 -0.3709
  367MOL0     H50619   4.179  10.754  -1.404  0.2422 -0.6555 -0.0546
  367MOL0     H50620   4.122  10.460  -1.338  1.2410 -0.7403 -1.5765
  367MOL0     H50621   4.156  10.509  -1.502 -1.1705 -1.6519 -0.0677
  367MOL0     H50622   3.976  10.656  -1.517 -5.6027  0.9960  1.5389
  367MOL0     H50623   3.938  10.642  -1.345  0.3494 -0.1766  0.5938
  367MOL0     H50624   3.953  10.410  -1.523 -0.0689  2.7792 -1.8117
  367MOL0     H50625   3.795  10.505  -1.486 -0.1940  1.0105  0.1797
  367MOL0     H50626   4.859  10.770  -1.074  1.3751  1.6089  0.9321
  367MOL0     H50627   4.972  10.787  -0.854 -1.4440  0.0646  2.4007
  367MOL0     H50628   5.031  10.480  -0.468  0.2910  0.3844 -2.2441
  367MOL0     H50629   5.158  10.412  -0.277 -1.8647 -0.6249  0.9599
  367MOL0     H50630   5.326  10.605   0.531 -0.7471 -0.6041 -0.5251
  367MOL0     H50631   5.385  10.793   0.704 -2.6748  2.1683 -0.3150
  367MOL0     H50632   5.266  11.028   1.061 -0.5010  1.0420  0.0879
  367MOL0     H50633   5.312  11.200   1.237  0.9840  0.3858  0.5336
  367MOL0     H50634   5.745  11.237   1.318  1.4753  3.3690  0.5047
  367MOL0     H50635   5.687  11.376   1.411  0.7544  0.4452 -0.1221
  367MOL0     H50636   5.626  11.149   1.575  1.8598 -0.2613  1.0139
  367MOL0     H50637   5.704  11.298   1.613 -0.8943 -1.5464  2.6695
  367MOL0     H50638   5.790  11.026   1.544 -1.3674  0.7097  0.1846
  367MOL0     H50639   5.893  11.165   1.459 -0.9300  3.3540  1.5726
  367MOL0     H50640   5.975  11.057   1.684  1.5249  1.7248  2.2349
  367MOL0     H50641   5.831  11.127   1.761 -2.2755  1.9113 -0.7727
  367MOL0     H50642   6.007  11.498   1.702 -0.4114 -0.7536 -1.0187
  367MOL0     H50643   5.680  11.017   1.329 -2.6390 -3.5425  2.8718
  367MOL0     H50644   5.723  10.792   1.091 -0.7241 -1.8707  0.3463
  367MOL0     H50645   5.742  10.811   1.264 -0.6383  1.2110 -0.5777
  367MOL0     H50646   5.613  10.702   1.177 -3.7427  1.5769 -1.1732
  368MOL0     O50647   6.130   8.149   4.723 -0.3901 -0.9089  0.6664
  368MOL0     C50648   6.023   8.118   4.668 -1.5746 -0.1297 -0.1868
  368MOL0     O50649   5.982   7.987   4.647 -0.5504  0.8434 -0.2025
  368MOL0     C50650   6.073   7.889   4.652  0.1870  0.0369 -0.7350
  368MOL0     C50651   6.177   7.875   4.551 -0.0533 -0.4010 -0.8691
  368MOL0     C50652   6.262   7.765   4.564  0.2219 -0.6956 -0.8133
  368MOL0     C50653   6.259   7.679   4.682  0.0521  0.5283 -0.1210
  368MOL0     O50654   6.347   7.569   4.712 -0.2477 -0.6822 -0.3865
  368MOL0     C50655   6.346   7.457   4.622  1.2743  1.1495  0.6948
  368MOL0     C50656   6.366   7.482   4.471 -0.1344 -0.4144  0.1647
  368MOL0     C50657   6.388   7.363   4.378 -0.0477 -0.2754 -0.6279
  368MOL0     C50658   6.458   7.386   4.248  0.1449 -0.0043  0.2992
  368MOL0     C50659   6.467   7.261   4.162  0.2784 -0.9798 -0.2431
  368MOL0     C50660   6.328   7.237   4.092  0.3815  1.4373 -0.4514
  368MOL0     C50661   6.349   7.127   3.988  0.3297 -0.2108  0.0499
  368MOL0     C50662   6.254   7.141   3.872  0.6390  0.5635  0.0738
  368MOL0     N50663   6.277   7.060   3.753  0.3911  1.1178  0.0520
  368MOL0     C50664   6.264   6.925   3.762 -1.5424  0.5296  0.3286
  368MOL0     C50665   6.324   6.878   3.645  0.1416 -0.3817 -0.0601
  368MOL0     C50666   6.340   6.737   3.617 -0.7568  0.8111  0.1003
  368MOL0     C50667   6.425   6.705   3.486 -0.2477 -0.8254  0.0488
  368MOL0     C50668   6.395   6.556   3.452 -0.7533  0.3885  0.3179
  368MOL0     C50669   6.475   6.503   3.334 -0.5955  0.5098 -0.2758
  368MOL0     O50670   6.472   6.585   3.216  0.4984  0.0667  0.1206
  368MOL0     C50671   6.523   6.533   3.102 -0.4830  0.6763 -0.6749
  368MOL0     C50672   6.597   6.624   3.027  0.5927 -0.2353 -0.4816
  368MOL0     C50673   6.663   6.583   2.907 -0.4923  0.0182 -0.0829
  368MOL0     C50674   6.736   6.694   2.831  0.7574  0.1304 -0.8550
  368MOL0     C50675   6.681   6.454   2.865 -0.1206 -0.0297 -0.8122
  368MOL0     C50676   6.733   6.409   2.730 -0.4327 -0.9865  0.0519
  368MOL0     O50677   6.755   6.492   2.630 -0.3984  0.2057  0.2986
  368MOL0     C50678   6.804   6.445   2.516 -0.0177  0.9152  0.2074
  368MOL0     C50679   6.727   6.358   2.437 -0.3406  0.0884 -0.0566
  368MOL0     C50680   6.789   6.305   2.316 -0.2875 -0.0088 -0.2642
  368MOL0     C50681   6.924   6.343   2.286 -0.3749 -0.2368  0.5503
  368MOL0     O50682   6.998   6.296   2.182 -0.3255 -0.1725  0.8678
  368MOL0     C50683   6.982   6.159   2.153 -1.1081 -0.6035  0.3680
  368MOL0     C50684   7.088   6.103   2.063 -0.2978  0.0529 -0.5784
  368MOL0     C50685   7.228   6.109   2.130 -0.6574  0.6959 -0.2323
  368MOL0     C50686   7.351   6.099   2.036 -0.9722  0.8480 -0.6645
  368MOL0     C50687   7.476   6.131   2.131 -0.1919 -0.6051 -0.3279
  368MOL0     C50688   7.604   6.122   2.066 -0.0577 -0.4696  0.1069
  368MOL0     C50689   7.634   6.231   1.956  0.9048  0.2032 -0.9785
  368MOL0     C50690   7.766   6.202   1.894 -0.5425 -0.0306 -0.6436
  368MOL0    Cl50691   7.752   6.040   1.814 -0.1396 -0.0362  0.7000
  368MOL0     C50692   6.989   6.435   2.364 -0.1530 -0.6645 -0.4285
  368MOL0     C50693   6.935   6.478   2.489 -0.8539 -0.1883  0.0333
  368MOL0     O50694   6.727   6.282   2.721  0.2230  0.0382  0.3762
  368MOL0     C50695   6.623   6.360   2.959  0.1346  0.1233 -0.5047
  368MOL0     C50696   6.545   6.397   3.070  0.9679  0.7945  0.3287
  368MOL0     N50697   6.374   6.989   3.585  0.4668  0.6443 -0.2272
  368MOL0     N50698   6.358   7.090   3.658 -0.2698  0.2900 -0.2682
  368MOL0     C50699   6.159   7.699   4.776 -0.7600 -0.0527  0.7384
  368MOL0     C50700   6.062   7.799   4.757  0.1139  0.7886  0.5304
  368MOL0     C50701   5.946   8.223   4.586 -0.6852 -0.4518  0.2180
  368MOL0     C50702   5.898   8.179   4.461  0.9867  0.2706 -0.2160
  368MOL0     C50703   5.826   8.257   4.382 -0.0570 -0.0414 -1.2479
  368MOL0     C50704   5.791   8.389   4.414 -0.4905  0.3476 -1.5730
  368MOL0     O50705   5.706   8.469   4.336  0.2064 -0.4546  0.5618
  368MOL0     C50706   5.726   8.467   4.193 -0.5996  1.1085 -0.2783
  368MOL0     C50707   5.635   8.567   4.116  0.3735 -0.8160 -1.1666
  368MOL0     C50708   5.589   8.547   3.969  0.7461 -0.0563  0.4146
  368MOL0     C50709   5.428   8.534   3.966  0.8698 -0.1448 -0.0146
  368MOL0     C50710   5.371   8.414   4.022 -1.0908 -0.2697 -0.0472
  368MOL0     C50711   5.319   8.318   4.081 -0.5848  0.1854  0.1413
  368MOL0     C50712   5.838   8.435   4.541  0.4634  0.4149 -0.4717
  368MOL0     C50713   5.925   8.358   4.622  0.2072 -0.6735  0.7410
  368MOL0     C50714   5.973   8.413   4.750  0.2011  0.3166 -0.6749
  368MOL0     H50715   6.168   7.929   4.458 -1.3494 -3.2421 -2.5220
  368MOL0     H50716   6.344   7.765   4.493 -0.5726  1.0872 -1.8090
  368MOL0     H50717   6.257   7.394   4.633  1.1611  0.9088 -1.2554
  368MOL0     H50718   6.423   7.393   4.666  1.3249  0.0939 -0.8783
  368MOL0     H50719   6.278   7.535   4.433  1.0125  0.3573 -1.5258
  368MOL0     H50720   6.456   7.543   4.463 -0.5888  0.1508 -0.8550
  368MOL0     H50721   6.453   7.291   4.428  1.1855 -0.9620 -3.1198
  368MOL0     H50722   6.287   7.323   4.368 -0.3071  0.1961 -0.0217
  368MOL0     H50723   6.409   7.466   4.192 -0.3232 -0.4897 -0.0056
  368MOL0     H50724   6.562   7.413   4.264  0.5232 -0.2214 -1.6029
  368MOL0     H50725   6.500   7.180   4.228 -0.1252  1.9125  3.9262
  368MOL0     H50726   6.535   7.287   4.080 -1.6462 -0.7606 -1.8533
  368MOL0     H50727   6.258   7.193   4.164 -0.3905  0.8226 -1.5467
  368MOL0     H50728   6.287   7.333   4.058  0.4101  1.3265 -0.8014
  368MOL0     H50729   6.334   7.030   4.037 -1.7429  0.3151  0.5165
  368MOL0     H50730   6.447   7.128   3.940 -0.7593  0.0685 -2.2823
  368MOL0     H50731   6.152   7.124   3.906  0.0358  0.7457 -1.5524
  368MOL0     H50732   6.264   7.240   3.826  0.5787  0.2716 -0.5771
  368MOL0     H50733   6.222   6.862   3.839 -1.9747 -0.8692 -1.0040
  368MOL0     H50734   6.239   6.693   3.617 -0.6410  0.5199  1.1231
  368MOL0     H50735   6.398   6.696   3.700  0.0530 -0.1593 -0.9176
  368MOL0     H50736   6.395   6.766   3.401  1.1830 -1.8889 -1.2723
  368MOL0     H50737   6.532   6.715   3.508 -0.3396 -2.2643  1.3083
  368MOL0     H50738   6.433   6.496   3.536 -1.9466  1.9283  2.0271
  368MOL0     H50739   6.287   6.542   3.441 -0.3582 -1.3675 -2.3738
  368MOL0     H50740   6.577   6.480   3.368 -0.7614  0.3530  0.1169
  368MOL0     H50741   6.429   6.404   3.323 -0.9847  0.4706  1.4666
  368MOL0     H50742   6.587   6.728   3.058  0.6925 -0.1545 -0.7176
  368MOL0     H50743   6.758   6.779   2.895 -0.0137  1.6951 -2.5775
  368MOL0     H50744   6.680   6.734   2.746 -1.7963 -0.0332  0.6571
  368MOL0     H50745   6.841   6.666   2.815  0.7416 -0.6511  0.2706
  368MOL0     H50746   6.622   6.348   2.460 -0.6910  1.6341 -0.7953
  368MOL0     H50747   6.718   6.251   2.254 -1.4627 -0.8971  1.7873
  368MOL0     H50748   6.986   6.103   2.248 -0.4594 -0.6660  0.3077
  368MOL0     H50749   6.887   6.136   2.103  0.3635 -0.5877 -2.6632
  368MOL0     H50750   7.058   6.003   2.033  1.5681 -1.2139  1.5079
  368MOL0     H50751   7.089   6.171   1.977  1.9624  1.3115  0.3429
  368MOL0     H50752   7.233   6.043   2.218 -1.7532 -0.3371 -0.9200
  368MOL0     H50753   7.239   6.204   2.184  0.3946 -0.8189  2.3783
  368MOL0     H50754   7.348   6.177   1.960  0.7130  0.6714 -0.9627
  368MOL0     H50755   7.357   6.003   1.983  2.8493  0.1349  0.7195
  368MOL0     H50756   7.467   6.233   2.168 -0.7144 -0.8276  0.1863
  368MOL0     H50757   7.478   6.056   2.210 -0.5979 -0.3239 -0.0496
  368MOL0     H50758   7.598   6.019   2.030 -0.3838 -0.8086  1.0881
  368MOL0     H50759   7.691   6.122   2.133  0.0256  0.8272  0.0288
  368MOL0     H50760   7.619   6.328   2.005 -1.4466 -0.9410  0.7678
  368MOL0     H50761   7.557   6.225   1.879  0.3510 -0.9599 -0.3639
  368MOL0     H50762   7.838   6.189   1.975 -2.0294 -2.8328  0.3572
  368MOL0     H50763   7.791   6.285   1.826  0.8376  0.8235  0.8333
  368MOL0     H50764   7.088   6.469   2.335  1.5933 -3.9740  1.0351
  368MOL0     H50765   6.981   6.546   2.560 -0.4955 -1.9330  1.5507
  368MOL0     H50766   6.638   6.253   2.946  0.8655  0.3319 -1.3890
  368MOL0     H50767   6.498   6.320   3.132  4.6987 -1.1926  0.9721
  368MOL0     H50768   6.151   7.640   4.866 -1.4249  2.1714  2.2301
  368MOL0     H50769   5.973   7.809   4.819 -0.6544  1.8959 -0.7188
  368MOL0     H50770   5.911   8.076   4.428 -0.0020 -0.1080  0.5051
  368MOL0     H50771   5.788   8.208   4.292 -1.4518 -1.8099  0.2003
  368MOL0     H50772   5.832   8.480   4.170  0.2305 -0.6274  2.1156
  368MOL0     H50773   5.705   8.371   4.145 -2.8230  2.4508 -2.2106
  368MOL0     H50774   5.664   8.670   4.140 -2.8138  0.4374 -2.0928
  368MOL0     H50775   5.544   8.560   4.177  2.0667 -2.2793  1.3803
  368MOL0     H50776   5.625   8.634   3.913  2.8715  0.3691  2.3334
  368MOL0     H50777   5.627   8.452   3.928 -4.7375 -2.6548  0.4005
  368MOL0     H50778   5.398   8.556   3.863  2.6030  0.0731 -0.5133
  368MOL0     H50779   5.392   8.615   4.030 -3.6434 -2.3912  0.6854
  368MOL0     H50780   5.291   8.227   4.129  2.2468 -2.1162 -2.2055
  368MOL0     H50781   5.799   8.529   4.579  1.2126  0.3310  0.5606
  368MOL0     H50782   5.920   8.369   4.835 -3.4021 -2.0479 -3.8175
  368MOL0     H50783   6.078   8.385   4.765 -0.4368 -2.1638 -0.3873
  368MOL0     H50784   5.953   8.520   4.757  1.0102  0.3751  1.2107
  369MOL0     O50785   4.476   3.549   5.597  0.2733 -0.1412 -0.4929
  369MOL0     C50786   4.379   3.616   5.629 -0.2407 -0.7767  0.5730
  369MOL0     O50787   4.363   3.753   5.616 -0.6439  0.6061  0.1019
  369MOL0     C50788   4.426   3.829   5.531  0.1732 -0.4425 -0.4861
  369MOL0     C50789   4.495   3.790   5.413  0.4172  0.4286  0.9885
  369MOL0     C50790   4.536   3.888   5.330 -0.2267 -0.4781  0.5658
  369MOL0     C50791   4.504   4.026   5.354  0.0282  0.9090 -0.4601
  369MOL0     O50792   4.530   4.132   5.270 -0.0133  0.1354 -0.2333
  369MOL0     C50793   4.601   4.117   5.146  0.2062  0.2999 -0.3430
  369MOL0     C50794   4.580   4.238   5.065 -0.5301 -0.0991 -1.0916
  369MOL0     C50795   4.652   4.238   4.923  0.4943  0.6652 -0.5873
  369MOL0     C50796   4.765   4.351   4.920  0.0642  0.4228 -0.0193
  369MOL0     C50797   4.850   4.377   4.791  0.0064  0.2145 -0.3365
  369MOL0     C50798   4.973   4.454   4.819 -0.3717 -0.6023  0.3789
  369MOL0     C50799   4.963   4.576   4.916 -0.0481 -1.0259 -0.4614
  369MOL0     C50800   5.095   4.661   4.910 -1.0639  0.1548 -0.4680
  369MOL0     N50801   5.116   4.729   5.041 -0.8018 -0.1302  0.6665
  369MOL0     C50802   5.158   4.666   5.154 -1.0806 -0.1454 -0.1468
  369MOL0     C50803   5.160   4.765   5.247  0.8227  0.6457 -0.8441
  369MOL0     C50804   5.208   4.730   5.390  0.4098  0.2975 -0.0163
  369MOL0     C50805   5.188   4.843   5.491  0.4816 -0.1306  0.7198
  369MOL0     C50806   5.262   4.797   5.609 -0.5113 -0.9587  0.8308
  369MOL0     C50807   5.190   4.860   5.725  0.2278 -0.0674  0.4927
  369MOL0     O50808   5.259   4.839   5.848  0.1431  0.5738 -0.2112
  369MOL0     C50809   5.193   4.798   5.961 -0.1155 -0.0561  0.1344
  369MOL0     C50810   5.247   4.844   6.082  0.0517 -0.5018 -0.1217
  369MOL0     C50811   5.176   4.832   6.204  0.2983  0.4814  0.1590
  369MOL0     C50812   5.237   4.907   6.324  0.1498  0.3414 -0.1970
  369MOL0     C50813   5.062   4.749   6.209 -0.0523 -0.2425  0.2262
  369MOL0     C50814   4.965   4.719   6.326 -0.7988  0.5661  0.5645
  369MOL0     O50815   4.842   4.665   6.292 -0.1442  0.5048  0.2184
  369MOL0     C50816   4.758   4.611   6.387 -1.0633  0.4684 -0.4255
  369MOL0     C50817   4.629   4.659   6.414 -1.0564  0.6419 -0.2625
  369MOL0     C50818   4.558   4.613   6.527 -0.6677 -0.3139  0.0466
  369MOL0     C50819   4.629   4.525   6.619 -0.7171 -0.0004  0.0724
  369MOL0     O50820   4.580   4.483   6.742  0.9547 -0.0175 -0.2364
  369MOL0     C50821   4.502   4.571   6.817  0.0416  0.1571  0.1415
  369MOL0     C50822   4.421   4.491   6.925  0.0754 -0.1193  0.1731
  369MOL0     C50823   4.310   4.416   6.858  1.0197 -0.5315 -1.9584
  369MOL0     C50824   4.234   4.335   6.969 -0.5410 -0.4644 -0.5222
  369MOL0     C50825   4.105   4.268   6.918 -0.2309 -0.6730  1.2359
  369MOL0     C50826   4.113   4.116   6.903  0.3501  0.1811 -1.0011
  369MOL0     C50827   3.973   4.066   6.847  1.3354 -0.0009  0.3435
  369MOL0     C50828   3.973   4.067   6.696 -0.3970 -0.3601 -0.1329
  369MOL0    Cl50829   3.913   3.907   6.639 -0.4977 -0.3786  0.3324
  369MOL0     C50830   4.754   4.481   6.581 -0.1001 -0.5654 -0.4496
  369MOL0     C50831   4.814   4.508   6.459 -0.0127  0.2535 -0.1558
  369MOL0     O50832   5.015   4.735   6.439  1.2439  0.3142 -0.1461
  369MOL0     C50833   5.019   4.688   6.084  0.6239  0.5355 -0.1033
  369MOL0     C50834   5.083   4.707   5.965 -0.2390  0.2575 -0.1869
  369MOL0     N50835   5.122   4.894   5.189  0.5248  0.1206  0.1759
  369MOL0     N50836   5.089   4.865   5.070 -0.5685  1.1831  0.2352
  369MOL0     C50837   4.427   4.062   5.469  0.3690  0.4249  0.3716
  369MOL0     C50838   4.392   3.963   5.559  0.2391 -0.4721  0.4895
  369MOL0     C50839   4.269   3.547   5.693  0.2990 -0.2535 -0.0940
  369MOL0     C50840   4.227   3.598   5.819  0.5565  0.5637  0.5898
  369MOL0     C50841   4.115   3.543   5.881  0.3698  0.2242 -0.5999
  369MOL0     C50842   4.051   3.436   5.825  0.1132 -0.4194  0.0987
  369MOL0     O50843   3.934   3.386   5.879  0.2485  1.0328 -0.4320
  369MOL0     C50844   3.859   3.451   5.989 -0.1360  0.4032 -0.0761
  369MOL0     C50845   3.743   3.355   6.033 -0.5915  1.0737  0.3084
  369MOL0     C50846   3.808   3.237   6.111  0.8150 -0.1334  0.2206
  369MOL0     C50847   3.705   3.170   6.202 -0.5071  0.7626  0.7552
  369MOL0     C50848   3.757   3.046   6.273  0.1938  0.4099  0.0082
  369MOL0     C50849   3.788   2.951   6.349  0.2916  0.2107  0.2345
  369MOL0     C50850   4.099   3.379   5.712  0.3674 -0.9468 -0.7026
  369MOL0     C50851   4.212   3.428   5.650  0.5201 -0.8031 -0.2046
  369MOL0     C50852   4.254   3.362   5.528  0.6277  0.4260  1.0215
  369MOL0     H50853   4.523   3.689   5.386  2.5739  1.8542 -2.8247
  369MOL0     H50854   4.582   3.849   5.239 -0.7929  1.4041 -0.5928
  369MOL0     H50855   4.561   4.026   5.102 -1.1539 -0.9527  3.0717
  369MOL0     H50856   4.707   4.097   5.164 -0.5243 -0.2023  5.0988
  369MOL0     H50857   4.472   4.254   5.065 -0.6055 -0.5370  0.2771
  369MOL0     H50858   4.634   4.317   5.119  0.8234 -0.9517 -1.1653
  369MOL0     H50859   4.699   4.140   4.914  1.5592  0.6861  2.9811
  369MOL0     H50860   4.574   4.253   4.847  0.7040 -1.4122 -1.2712
  369MOL0     H50861   4.718   4.449   4.934 -0.1735  0.2975  0.0737
  369MOL0     H50862   4.830   4.349   5.008 -2.2064  2.0472  1.8083
  369MOL0     H50863   4.782   4.429   4.723 -1.1011  0.8871  1.2198
  369MOL0     H50864   4.863   4.280   4.741  1.6241 -1.2228  2.5657
  369MOL0     H50865   5.036   4.369   4.849  0.5611 -0.8578 -2.0150
  369MOL0     H50866   5.020   4.483   4.724  1.5640 -0.9569  1.1792
  369MOL0     H50867   4.954   4.547   5.021 -1.0431 -0.8854 -0.4993
  369MOL0     H50868   4.881   4.641   4.883  0.3011 -0.7591 -0.8194
  369MOL0     H50869   5.173   4.585   4.893 -1.1477 -0.0221 -0.0733
  369MOL0     H50870   5.106   4.738   4.833  4.5059 -1.3313 -1.6638
  369MOL0     H50871   5.206   4.569   5.162  3.9120  2.0560 -0.2743
  369MOL0     H50872   5.309   4.691   5.370 -0.4606 -1.7564 -0.7047
  369MOL0     H50873   5.147   4.641   5.410  0.1971 -0.4690 -3.4641
  369MOL0     H50874   5.217   4.937   5.442  0.2607 -1.7280 -2.7183
  369MOL0     H50875   5.081   4.853   5.514 -0.4245 -3.4307 -1.4565
  369MOL0     H50876   5.268   4.688   5.618 -1.7778 -1.3341 -1.7901
  369MOL0     H50877   5.365   4.831   5.603 -0.5441 -1.0521 -1.3426
  369MOL0     H50878   5.171   4.968   5.726  6.1628  1.3603  2.3316
  369MOL0     H50879   5.095   4.806   5.721  2.4221 -4.2677 -1.5763
  369MOL0     H50880   5.338   4.903   6.078 -0.1875 -0.1911 -2.0006
  369MOL0     H50881   5.164   4.969   6.375  0.6995 -0.9610  2.3321
  369MOL0     H50882   5.318   4.972   6.289 -1.3603  2.4017 -0.0310
  369MOL0     H50883   5.258   4.833   6.402 -0.2388  0.1040 -0.3128
  369MOL0     H50884   4.592   4.732   6.342  0.0045  2.4297  0.9321
  369MOL0     H50885   4.460   4.646   6.558 -0.2929 -0.7361  1.7447
  369MOL0     H50886   4.569   4.634   6.876 -0.3146 -1.9267  2.9435
  369MOL0     H50887   4.439   4.643   6.764  2.3058  2.9292  0.9284
  369MOL0     H50888   4.494   4.427   6.975 -0.7210 -1.2575 -0.0758
  369MOL0     H50889   4.375   4.561   6.996 -2.6695 -1.1379 -0.4629
  369MOL0     H50890   4.347   4.331   6.800  1.2069 -1.0830 -1.0454
  369MOL0     H50891   4.250   4.487   6.799  3.3367  4.5386  1.1532
  369MOL0     H50892   4.204   4.408   7.045 -6.4279 -2.6309 -0.2652
  369MOL0     H50893   4.297   4.264   7.024 -1.2285 -2.0235 -1.7000
  369MOL0     H50894   4.029   4.307   6.987 -1.2923  0.3148 -0.4081
  369MOL0     H50895   4.069   4.310   6.824  1.6040 -1.1044  0.3023
  369MOL0     H50896   4.132   4.067   6.999  0.1119  0.7129 -0.6754
  369MOL0     H50897   4.194   4.076   6.841  0.4263 -2.3991  0.6071
  369MOL0     H50898   3.904   4.144   6.883  0.0450 -0.8808 -0.1689
  369MOL0     H50899   3.939   3.970   6.885  1.6343  0.9037  3.1902
  369MOL0     H50900   4.077   4.072   6.665  0.1097 -1.3786  1.2840
  369MOL0     H50901   3.908   4.145   6.655 -2.2754 -0.4976  2.2875
  369MOL0     H50902   4.800   4.403   6.642 -3.6653 -1.8583  0.8242
  369MOL0     H50903   4.908   4.469   6.423 -0.5025 -1.3877  0.2696
  369MOL0     H50904   4.935   4.621   6.076  1.7015 -0.6819 -2.6093
  369MOL0     H50905   5.038   4.665   5.876  1.4373  0.2131 -1.0631
  369MOL0     H50906   4.384   4.162   5.471 -0.0795  0.2632 -0.4687
  369MOL0     H50907   4.330   3.997   5.641 -2.6846  0.9803 -2.0947
  369MOL0     H50908   4.265   3.690   5.862  0.9786  0.4377  0.4884
  369MOL0     H50909   4.084   3.584   5.976  1.4885  0.5776 -0.3688
  369MOL0     H50910   3.912   3.471   6.083 -0.9753  1.3252  0.2173
  369MOL0     H50911   3.825   3.547   5.950  0.3253  0.6591  0.1353
  369MOL0     H50912   3.682   3.313   5.952  0.3626  1.7130 -0.7754
  369MOL0     H50913   3.695   3.424   6.103 -1.1504  1.2892 -0.2802
  369MOL0     H50914   3.860   3.170   6.042  2.0766  0.1719  0.8449
  369MOL0     H50915   3.880   3.275   6.185 -0.8878  1.7413  1.0248
  369MOL0     H50916   3.625   3.137   6.135 -1.5225  1.1536  1.7399
  369MOL0     H50917   3.677   3.238   6.282  3.1974  0.5357  2.4536
  369MOL0     H50918   3.834   2.871   6.404 -0.5224 -0.4517 -0.0449
  369MOL0     H50919   4.057   3.287   5.673 -0.0251 -1.7735  1.5239
  369MOL0     H50920   4.313   3.427   5.463  0.7356 -0.0415  0.6459
  369MOL0     H50921   4.322   3.279   5.547  1.5914  1.1237  0.6989
  369MOL0     H50922   4.171   3.330   5.464  1.1504  2.9086 -1.0419
  370MOL0     O50923   5.502   9.131   1.310  0.7200 -0.2317 -0.7202
  370MOL0     C50924   5.423   9.166   1.401 -0.2729  0.3975 -0.4553
  370MOL0     O50925   5.354   9.278   1.401 -0.3739 -0.1287  0.3687
  370MOL0     C50926   5.319   9.341   1.289  0.1838 -0.9167 -0.6709
  370MOL0     C50927   5.291   9.286   1.163  0.2826  0.1920 -0.2948
  370MOL0     C50928   5.247   9.371   1.056 -0.8529  0.6723 -0.3676
  370MOL0     C50929   5.209   9.504   1.080 -0.9124  0.1008  0.7934
  370MOL0     O50930   5.157   9.565   0.969 -0.1597  0.4953 -0.4979
  370MOL0     C50931   5.041   9.654   0.988  0.1504  0.2692  0.0816
  370MOL0     C50932   4.962   9.647   0.856  0.4242  0.4730  0.3555
  370MOL0     C50933   4.862   9.760   0.853 -0.1686 -0.8396 -0.1644
  370MOL0     C50934   4.755   9.755   0.968 -0.6827  0.3241  0.2575
  370MOL0     C50935   4.679   9.893   0.986 -0.4202  0.5632  0.2092
  370MOL0     C50936   4.593   9.909   0.858 -0.2927 -0.6188  0.8655
  370MOL0     C50937   4.484  10.016   0.852 -0.4433  0.7533 -0.3851
  370MOL0     C50938   4.430  10.040   0.705  1.1614  0.3045 -0.0434
  370MOL0     N50939   4.377   9.917   0.641 -0.1594 -0.2577 -0.1376
  370MOL0     C50940   4.271   9.856   0.687  0.0116 -0.4630  0.1551
  370MOL0     C50941   4.267   9.739   0.635 -0.1564  0.3949 -0.3827
  370MOL0     C50942   4.164   9.647   0.686  0.2783  0.6912  0.8370
  370MOL0     C50943   4.141   9.541   0.572 -0.5198  0.3683 -0.1122
  370MOL0     C50944   4.053   9.424   0.622 -0.8015  0.1336  0.1692
  370MOL0     C50945   4.097   9.336   0.745  0.0450 -0.4425  0.8248
  370MOL0     O50946   4.058   9.402   0.863 -0.0606  0.3056  0.8596
  370MOL0     C50947   4.027   9.324   0.968 -0.1726 -0.4138  0.3100
  370MOL0     C50948   4.061   9.192   0.983 -0.7362 -0.0228 -0.5642
  370MOL0     C50949   4.063   9.132   1.111 -0.3761 -0.7307  0.8133
  370MOL0     C50950   4.094   8.986   1.107 -0.1556 -0.1105  0.0813
  370MOL0     C50951   4.003   9.195   1.213  0.5887 -1.2617 -0.0301
  370MOL0     C50952   4.005   9.145   1.354  0.5902  0.4497  0.8968
  370MOL0     O50953   4.103   9.054   1.398 -0.4740  0.3888 -0.1558
  370MOL0     C50954   4.113   8.999   1.519  0.5219 -0.5419  0.4935
  370MOL0     C50955   4.101   8.865   1.546  0.3764  0.8813  0.1954
  370MOL0     C50956   4.120   8.814   1.680 -0.6866 -0.7034  0.2852
  370MOL0     C50957   4.166   8.905   1.777  0.0399  0.2860  0.0205
  370MOL0     O50958   4.203   8.841   1.894  0.3611 -1.2496 -0.7231
  370MOL0     C50959   4.295   8.911   1.985 -0.4965 -0.2028 -0.6532
  370MOL0     C50960   4.351   8.802   2.091  0.7914 -0.6714 -0.0912
  370MOL0     C50961   4.382   8.666   2.030  0.3352  0.2720  1.0376
  370MOL0     C50962   4.525   8.619   2.000  0.1938 -0.9360  0.5622
  370MOL0     C50963   4.588   8.558   2.122 -0.9014  0.3109  0.5798
  370MOL0     C50964   4.733   8.595   2.148  0.1876 -0.3079 -0.0600
  370MOL0     C50965   4.841   8.558   2.055 -0.4209  0.8672 -0.1781
  370MOL0     C50966   4.838   8.409   2.018  0.4212  0.4221 -0.2661
  370MOL0    Cl50967   5.002   8.356   1.987  0.2383  0.0768  0.2431
  370MOL0     C50968   4.188   9.035   1.748  0.5436 -0.7814  0.6640
  370MOL0     C50969   4.163   9.081   1.618 -0.2206 -0.4510  0.6455
  370MOL0     O50970   3.916   9.195   1.428  0.6949  0.2608  0.1658
  370MOL0     C50971   3.954   9.332   1.193  0.7860 -0.5400 -0.0819
  370MOL0     C50972   3.969   9.390   1.069 -1.1757 -0.0854  0.8208
  370MOL0     N50973   4.364   9.729   0.538  0.2088 -0.2177  0.4304
  370MOL0     N50974   4.427   9.849   0.533  0.0971  1.1242  0.2655
  370MOL0     C50975   5.234   9.558   1.205  0.5862  0.1097 -0.5222
  370MOL0     C50976   5.292   9.480   1.305 -0.2277 -0.2579  0.3562
  370MOL0     C50977   5.421   9.080   1.527  0.0815 -0.8222  0.6902
  370MOL0     C50978   5.443   8.945   1.500 -0.0351  0.0853 -1.0299
  370MOL0     C50979   5.436   8.849   1.601  0.1594  0.1573 -0.0063
  370MOL0     C50980   5.382   8.887   1.733 -0.2699  0.4644 -0.2349
  370MOL0     O50981   5.354   8.797   1.843 -0.1120  0.1370 -0.3003
  370MOL0     C50982   5.419   8.667   1.830  0.6279 -0.4646  0.0982
  370MOL0     C50983   5.473   8.631   1.968  0.2244  0.3279 -0.3056
  370MOL0     C50984   5.376   8.597   2.079 -0.3421 -0.4044 -0.4024
  370MOL0     C50985   5.435   8.577   2.221 -0.8669 -1.0305  0.2806
  370MOL0     C50986   5.336   8.501   2.300 -0.1121 -0.7057  0.2260
  370MOL0     C50987   5.249   8.460   2.379  0.2860  0.9989  0.8631
  370MOL0     C50988   5.362   9.023   1.754 -0.4055 -0.1849 -0.2970
  370MOL0     C50989   5.381   9.128   1.664  0.1066  0.8736  0.1275
  370MOL0     C50990   5.340   9.263   1.703 -0.2478 -0.1259 -0.9406
  370MOL0     H50991   5.286   9.180   1.138  2.2828 -0.1378  0.4969
  370MOL0     H50992   5.230   9.331   0.956 -1.5373 -1.8256  0.6751
  370MOL0     H50993   5.073   9.754   1.019  4.1363 -0.8555  0.1168
  370MOL0     H50994   4.984   9.602   1.066  0.2986 -1.1852 -0.7588
  370MOL0     H50995   5.033   9.658   0.773  3.0264 -0.4911  2.3021
  370MOL0     H50996   4.926   9.544   0.844  3.4534 -0.6249 -0.2369
  370MOL0     H50997   4.909   9.855   0.876 -1.3524 -0.7872  2.4028
  370MOL0     H50998   4.815   9.760   0.754 -1.8594  0.8410  0.5751
  370MOL0     H50999   4.692   9.675   0.930 -3.0638  3.9487 -4.5594
  370MOL0     H51000   4.801   9.733   1.065  1.0905 -1.6768 -0.9503
  370MOL0     H51001   4.742   9.981   1.007 -1.6046  1.9114 -1.6485
  370MOL0     H51002   4.612   9.892   1.073 -1.3590  3.7460 -0.3640
  370MOL0     H51003   4.649   9.929   0.766 -3.4323 -1.5363 -1.4108
  370MOL0     H51004   4.531   9.822   0.835  2.4977 -2.3384 -0.7542
  370MOL0     H51005   4.518  10.114   0.888 -1.3001 -0.3337  3.9662
  370MOL0     H51006   4.403   9.983   0.917 -1.7500 -0.3082 -2.4855
  370MOL0     H51007   4.358  10.122   0.698  0.8585  0.0857  0.4621
  370MOL0     H51008   4.513  10.068   0.640  0.6252  0.8976 -0.4844
  370MOL0     H51009   4.203   9.898   0.760 -0.8262 -1.9606  0.2769
  370MOL0     H51010   4.068   9.690   0.715  0.6272  0.2303  2.8143
  370MOL0     H51011   4.199   9.595   0.776 -0.8549  0.6955  1.3013
  370MOL0     H51012   4.084   9.581   0.488 -1.1313 -0.0273  0.1052
  370MOL0     H51013   4.240   9.504   0.544 -1.5791 -3.4682  0.5818
  370MOL0     H51014   3.954   9.470   0.638  0.5258  3.1755  0.3698
  370MOL0     H51015   4.037   9.353   0.540 -4.1529  0.2198  0.6107
  370MOL0     H51016   4.040   9.242   0.745 -3.7291  1.5723 -1.5469
  370MOL0     H51017   4.203   9.315   0.729 -0.4642 -1.3625 -1.9839
  370MOL0     H51018   4.108   9.141   0.899 -1.0006 -0.2122 -0.5985
  370MOL0     H51019   3.998   8.936   1.116 -0.1241 -0.2582 -0.3904
  370MOL0     H51020   4.160   8.950   1.187 -1.7282 -0.1324  1.4080
  370MOL0     H51021   4.134   8.942   1.016 -3.4471 -1.9911 -0.6159
  370MOL0     H51022   4.072   8.796   1.468  5.0963  0.0595 -1.1288
  370MOL0     H51023   4.095   8.710   1.701 -1.0076 -0.8270 -0.6603
  370MOL0     H51024   4.383   8.940   1.926 -1.8985 -0.4226 -2.9668
  370MOL0     H51025   4.244   8.992   2.037  0.2294 -1.5931  2.4620
  370MOL0     H51026   4.437   8.860   2.127  1.2202 -0.9785 -0.5928
  370MOL0     H51027   4.268   8.797   2.162 -3.2913  2.7300 -3.9895
  370MOL0     H51028   4.320   8.645   1.942  0.0338 -0.1055  1.3330
  370MOL0     H51029   4.348   8.605   2.115  0.2922  1.0587  1.5960
  370MOL0     H51030   4.583   8.707   1.970 -1.6250  1.3412  3.1803
  370MOL0     H51031   4.523   8.563   1.907  2.7754  1.5106 -1.1449
  370MOL0     H51032   4.532   8.596   2.208 -0.0636 -2.5089  2.5197
  370MOL0     H51033   4.566   8.451   2.117 -2.1304  0.6057 -1.9993
  370MOL0     H51034   4.756   8.541   2.240  0.8611  0.3187  0.1469
  370MOL0     H51035   4.747   8.700   2.175 -0.5455 -0.4205  0.7975
  370MOL0     H51036   4.939   8.581   2.098  0.5546 -3.3578  0.3779
  370MOL0     H51037   4.828   8.620   1.966 -2.0066 -3.5281 -3.4124
  370MOL0     H51038   4.785   8.382   1.926 -0.1640 -2.9432  0.9162
  370MOL0     H51039   4.798   8.354   2.104  1.3433 -0.7882 -0.5855
  370MOL0     H51040   4.227   9.104   1.822 -1.3012  1.6191 -0.4769
  370MOL0     H51041   4.187   9.185   1.595 -0.7909 -0.1418  1.4114
  370MOL0     H51042   3.910   9.393   1.272  0.0563  0.0884 -0.9545
  370MOL0     H51043   3.935   9.490   1.042 -1.7554 -0.0615  1.5990
  370MOL0     H51044   5.210   9.663   1.223  5.1820  1.1695  0.6084
  370MOL0     H51045   5.304   9.515   1.408  0.6638 -1.3358  0.6398
  370MOL0     H51046   5.482   8.914   1.404 -1.5059  1.1306 -2.0089
  370MOL0     H51047   5.449   8.748   1.564  2.1366  0.8398 -1.2772
  370MOL0     H51048   5.350   8.588   1.796  0.7826 -0.1234 -1.0546
  370MOL0     H51049   5.500   8.673   1.756 -0.9288  1.9816 -1.5603
  370MOL0     H51050   5.536   8.715   2.000 -1.0870  0.5750  1.8757
  370MOL0     H51051   5.533   8.540   1.966 -2.5780 -1.9415  3.7472
  370MOL0     H51052   5.320   8.690   2.089  2.1101  0.9460  2.6402
  370MOL0     H51053   5.321   8.511   2.039  2.5260 -1.8028 -1.6616
  370MOL0     H51054   5.452   8.677   2.262 -1.2561 -0.9951  0.3640
  370MOL0     H51055   5.528   8.519   2.220 -2.6263 -4.0690  0.2105
  370MOL0     H51056   5.177   8.413   2.442 -1.8089  0.0626 -2.0400
  370MOL0     H51057   5.329   9.049   1.855  0.5084 -2.7335  0.7510
  370MOL0     H51058   5.408   9.341   1.669 -3.8849  2.9342 -1.9867
  370MOL0     H51059   5.241   9.276   1.657  0.7291 -1.6614 -3.6890
  370MOL0     H51060   5.345   9.261   1.812  1.0331  2.7405 -0.8512
  371MOL0     O51061   8.515   1.499   2.698 -0.4527  1.1180 -0.6131
  371MOL0     C51062   8.521   1.379   2.697 -0.5065  0.9166 -0.6525
  371MOL0     O51063   8.538   1.298   2.588 -0.5005 -0.0193 -0.4801
  371MOL0     C51064   8.607   1.339   2.470  0.0636  0.2733  0.3194
  371MOL0     C51065   8.581   1.271   2.354  0.1881  0.7939 -0.7351
  371MOL0     C51066   8.615   1.334   2.238 -0.0055 -0.1837 -0.2735
  371MOL0     C51067   8.688   1.451   2.236 -0.5370  0.0222 -0.4215
  371MOL0     O51068   8.712   1.520   2.124 -0.5932 -0.2248  0.4088
  371MOL0     C51069   8.846   1.574   2.108  0.1869 -0.4149 -0.6587
  371MOL0     C51070   8.846   1.664   1.989 -0.5391  1.4515  0.1519
  371MOL0     C51071   8.801   1.803   2.033  0.6383 -0.5754  0.4493
  371MOL0     C51072   8.879   1.908   1.952 -0.9246  0.3494  0.8592
  371MOL0     C51073   8.803   2.045   1.935  0.5219 -0.3804 -0.0424
  371MOL0     C51074   8.720   2.039   1.810 -0.2989  0.0197 -1.0423
  371MOL0     C51075   8.676   2.175   1.766 -0.8657  0.1999  0.6085
  371MOL0     C51076   8.574   2.246   1.854  0.5338 -0.4978  1.2301
  371MOL0     N51077   8.434   2.199   1.840  0.5015  0.1808  0.7958
  371MOL0     C51078   8.370   2.172   1.723 -0.7229  0.2492 -0.2967
  371MOL0     C51079   8.263   2.105   1.750  0.4908 -0.4742 -0.4135
  371MOL0     C51080   8.159   2.078   1.650  0.6088  0.5293  0.8423
  371MOL0     C51081   8.018   2.049   1.705 -0.5595  0.2382  0.5372
  371MOL0     C51082   7.966   2.152   1.805 -0.7032 -0.1011  0.6374
  371MOL0     C51083   7.825   2.117   1.861  0.7183  0.3729 -0.2533
  371MOL0     O51084   7.728   2.160   1.762 -1.2513  0.3432 -0.0321
  371MOL0     C51085   7.596   2.171   1.782 -0.7471 -0.0182  1.0226
  371MOL0     C51086   7.519   2.205   1.675 -0.1877  0.1998 -0.5088
  371MOL0     C51087   7.376   2.230   1.689 -0.8437  0.3891  0.0133
  371MOL0     C51088   7.308   2.279   1.562  0.3465 -0.3732  0.4016
  371MOL0     C51089   7.327   2.222   1.820  1.2247  0.0488  0.2057
  371MOL0     C51090   7.187   2.251   1.849  0.1334 -0.0001 -1.1552
  371MOL0     O51091   7.160   2.280   1.989  0.1554  0.5943 -0.3126
  371MOL0     C51092   7.036   2.318   2.004  0.0187 -1.1425  0.0675
  371MOL0     C51093   6.925   2.226   1.996  0.3454  0.3373  0.0184
  371MOL0     C51094   6.802   2.265   2.031  0.5186 -0.8957 -0.6662
  371MOL0     C51095   6.763   2.400   2.026  0.2842 -0.4730  0.6425
  371MOL0     O51096   6.633   2.438   2.046 -0.2018  0.1795 -0.6631
  371MOL0     C51097   6.564   2.469   1.928 -0.5485 -0.5877  0.2966
  371MOL0     C51098   6.421   2.504   1.957  1.0553  0.6706  0.7418
  371MOL0     C51099   6.350   2.583   1.846 -0.0727  0.4199  0.8824
  371MOL0     C51100   6.198   2.591   1.867  0.9866  0.2417 -0.1765
  371MOL0     C51101   6.124   2.631   1.738  0.1391 -0.0623  0.4637
  371MOL0     C51102   5.972   2.618   1.750 -0.3963 -0.4598 -0.2608
  371MOL0     C51103   5.909   2.492   1.808  0.9877 -0.6027  0.4439
  371MOL0     C51104   5.976   2.362   1.754  0.9224  1.2047 -0.4489
  371MOL0    Cl51105   5.849   2.232   1.764 -0.3919 -0.5270 -0.4754
  371MOL0     C51106   6.867   2.495   2.011 -0.5557  0.5358 -0.4345
  371MOL0     C51107   7.008   2.452   2.009 -1.5963 -0.5346  1.1016
  371MOL0     O51108   7.103   2.275   1.756  0.7037 -0.4768  0.4643
  371MOL0     C51109   7.407   2.174   1.923 -0.3525 -0.2557  1.4078
  371MOL0     C51110   7.536   2.147   1.904  0.4961 -0.2593 -0.3600
  371MOL0     N51111   8.270   2.078   1.882 -0.2787 -0.1950 -0.8617
  371MOL0     N51112   8.376   2.132   1.938 -0.3673  0.1833 -0.9985
  371MOL0     C51113   8.699   1.522   2.352 -0.1640 -0.4579 -0.5511
  371MOL0     C51114   8.675   1.460   2.469  0.2268 -0.1109  0.1694
  371MOL0     C51115   8.496   1.301   2.827 -0.9446 -0.6212  0.1350
  371MOL0     C51116   8.420   1.183   2.811 -1.1152  1.1925 -0.6974
  371MOL0     C51117   8.375   1.119   2.919 -0.3026 -0.4044  0.0906
  371MOL0     C51118   8.422   1.149   3.046 -0.4196 -0.9491 -0.6853
  371MOL0     O51119   8.421   1.055   3.149  0.9198 -0.4575  0.3251
  371MOL0     C51120   8.510   0.944   3.132 -0.4583  0.2515 -0.8496
  371MOL0     C51121   8.652   0.958   3.197 -0.3112 -0.3888 -0.6461
  371MOL0     C51122   8.663   0.937   3.348 -0.1257 -0.5492  0.3353
  371MOL0     C51123   8.788   1.006   3.402  0.2231  0.4077 -0.7042
  371MOL0     C51124   8.846   0.927   3.513 -0.0675 -0.6595 -0.1330
  371MOL0     C51125   8.890   0.873   3.619  0.0008 -0.9071 -1.3415
  371MOL0     C51126   8.510   1.257   3.059  0.2382 -0.0485 -0.9030
  371MOL0     C51127   8.549   1.344   2.950 -1.0197  0.7044  0.0332
  371MOL0     C51128   8.661   1.444   2.962  0.0767 -0.4699  0.2745
  371MOL0     H51129   8.541   1.170   2.361  3.5137 -0.7175 -1.6257
  371MOL0     H51130   8.591   1.276   2.149 -0.5230  2.8504 -2.2664
  371MOL0     H51131   8.920   1.494   2.094  0.6157 -0.1406 -0.0247
  371MOL0     H51132   8.868   1.635   2.196 -1.3516 -0.4692 -0.2027
  371MOL0     H51133   8.943   1.681   1.942 -0.2206  0.7447  0.5394
  371MOL0     H51134   8.778   1.632   1.909 -0.8223  1.1071  0.5230
  371MOL0     H51135   8.696   1.815   2.004  1.0539 -0.9135 -1.3242
  371MOL0     H51136   8.806   1.818   2.141 -0.3043 -2.7569  0.8448
  371MOL0     H51137   8.967   1.914   2.018 -0.7937 -1.0973  0.8494
  371MOL0     H51138   8.914   1.868   1.857  1.9851 -0.5664  2.1804
  371MOL0     H51139   8.870   2.131   1.939 -0.7284  0.6088  1.0278
  371MOL0     H51140   8.741   2.054   2.025  0.8643  1.5613  0.0421
  371MOL0     H51141   8.774   1.984   1.733 -1.0910 -1.8464 -0.3038
  371MOL0     H51142   8.631   1.979   1.830  0.3551 -0.8946 -0.8513
  371MOL0     H51143   8.647   2.169   1.660  0.4467  0.0408  0.2423
  371MOL0     H51144   8.766   2.235   1.753 -0.7169 -0.2406 -0.5888
  371MOL0     H51145   8.609   2.240   1.958 -1.6675 -0.4749  2.0317
  371MOL0     H51146   8.565   2.346   1.810 -0.9469 -1.0131  0.2816
  371MOL0     H51147   8.399   2.212   1.627  1.1893  0.0443  0.1620
  371MOL0     H51148   8.179   1.993   1.584  2.6059 -1.1153  3.3819
  371MOL0     H51149   8.145   2.171   1.593  2.6768 -0.1044 -0.8472
  371MOL0     H51150   7.959   2.041   1.614  5.2336 -2.6730 -3.5518
  371MOL0     H51151   8.022   1.950   1.751  3.7070 -0.5633 -1.0757
  371MOL0     H51152   8.031   2.152   1.892  1.0271  0.3412 -0.5880
  371MOL0     H51153   7.956   2.251   1.759  3.8776  2.5283  4.4891
  371MOL0     H51154   7.814   2.009   1.878 -2.7242  0.3032 -2.0107
  371MOL0     H51155   7.802   2.169   1.955  0.5085 -0.2162  0.0261
  371MOL0     H51156   7.577   2.216   1.584  1.0282 -1.2786  0.0569
  371MOL0     H51157   7.374   2.269   1.475 -0.0682 -2.0693  0.2600
  371MOL0     H51158   7.268   2.379   1.581 -0.1828 -0.6052  0.5207
  371MOL0     H51159   7.231   2.212   1.525  1.7883 -0.7459 -2.1092
  371MOL0     H51160   6.926   2.117   1.991 -0.1353  0.3513 -0.4254
  371MOL0     H51161   6.716   2.199   2.041 -1.0704  1.0612 -0.6649
  371MOL0     H51162   6.616   2.541   1.864 -0.7101 -0.9530 -0.2480
  371MOL0     H51163   6.568   2.373   1.876 -4.2225  0.3973 -2.2362
  371MOL0     H51164   6.361   2.418   1.990 -0.5272  2.7118  3.6892
  371MOL0     H51165   6.410   2.573   2.041 -1.4429  2.3640 -0.8468
  371MOL0     H51166   6.356   2.540   1.746 -5.3341  0.2317  0.3809
  371MOL0     H51167   6.400   2.679   1.827 -0.0790  0.0054 -1.5448
  371MOL0     H51168   6.176   2.660   1.949  5.2345  0.4671  1.0033
  371MOL0     H51169   6.160   2.494   1.900  1.7696 -0.1715 -0.4678
  371MOL0     H51170   6.144   2.735   1.710 -5.2518  1.7055  1.9218
  371MOL0     H51171   6.166   2.559   1.667 -1.0379  0.7611 -1.1097
  371MOL0     H51172   5.928   2.621   1.650  0.1379  0.7621 -0.4724
  371MOL0     H51173   5.928   2.701   1.806 -2.1379 -0.3818 -1.6536
  371MOL0     H51174   5.801   2.499   1.789  1.2434 -2.3092 -2.0455
  371MOL0     H51175   5.913   2.480   1.916  1.7941  0.4919  0.5535
  371MOL0     H51176   6.055   2.338   1.826  0.6587  1.4555 -0.0751
  371MOL0     H51177   6.017   2.373   1.653  2.5091 -0.7993 -0.0932
  371MOL0     H51178   6.842   2.600   2.001  0.0513  0.7810  0.5459
  371MOL0     H51179   7.090   2.522   2.000 -1.3301 -1.0029 -0.5276
  371MOL0     H51180   7.357   2.154   2.018 -2.5124  2.2495  0.9208
  371MOL0     H51181   7.590   2.115   1.993 -1.3961  1.4562  1.5057
  371MOL0     H51182   8.759   1.613   2.353 -0.6241 -0.0775 -2.4073
  371MOL0     H51183   8.707   1.515   2.557  1.5464  0.1422 -0.4509
  371MOL0     H51184   8.382   1.149   2.716 -2.3694  0.7939 -0.0724
  371MOL0     H51185   8.328   1.023   2.900 -2.1768  0.2675  1.0686
  371MOL0     H51186   8.466   0.849   3.164 -1.0420 -0.2108 -2.8837
  371MOL0     H51187   8.540   0.933   3.027 -1.0236  1.8804 -1.2153
  371MOL0     H51188   8.683   1.061   3.179  1.2515 -0.4903  1.1570
  371MOL0     H51189   8.733   0.902   3.150  2.0390  1.5808  0.8024
  371MOL0     H51190   8.577   0.982   3.399 -0.2286 -0.9419  0.5123
  371MOL0     H51191   8.663   0.830   3.372 -1.4217 -0.2900  1.6099
  371MOL0     H51192   8.760   1.103   3.445 -1.5623  0.7672 -2.5314
  371MOL0     H51193   8.869   1.026   3.332  2.8542 -1.4339  1.5982
  371MOL0     H51194   8.921   0.832   3.713 -2.1396  2.3307  1.0357
  371MOL0     H51195   8.554   1.277   3.157 -2.6479  0.6877  0.3466
  371MOL0     H51196   8.758   1.394   2.967 -0.2488 -1.4627 -2.1480
  371MOL0     H51197   8.678   1.512   2.878  0.6344 -1.6613 -0.6016
  371MOL0     H51198   8.648   1.499   3.056  2.1926  0.2493  0.2089
  372MOL0     O51199   2.488   4.844  11.154  0.5843  0.9013  0.7832
  372MOL0     C51200   2.519   4.836  11.271 -0.5347 -0.5792  0.5592
  372MOL0     O51201   2.516   4.719  11.349 -0.1530  0.6949  0.2777
  372MOL0     C51202   2.498   4.604  11.286 -0.0219  0.8211 -0.2616
  372MOL0     C51203   2.610   4.516  11.265 -0.3927 -0.0062  0.1863
  372MOL0     C51204   2.583   4.393  11.218 -0.3186  0.3971  0.0158
  372MOL0     C51205   2.456   4.339  11.194 -0.5157 -0.7624  0.8157
  372MOL0     O51206   2.447   4.215  11.137 -0.8243 -0.4122  0.4654
  372MOL0     C51207   2.330   4.133  11.173 -0.0370  0.3646 -0.3944
  372MOL0     C51208   2.380   3.984  11.170 -0.3639  0.6778 -0.1041
  372MOL0     C51209   2.395   3.934  11.030  0.0860  0.2650  1.1593
  372MOL0     C51210   2.420   3.776  11.012 -0.3079 -0.0017  0.6865
  372MOL0     C51211   2.294   3.690  11.022  0.3642 -1.2974 -0.0704
  372MOL0     C51212   2.326   3.546  10.967 -0.9763  0.2990  0.0644
  372MOL0     C51213   2.217   3.446  10.966 -0.0049  0.1596  0.4272
  372MOL0     C51214   2.096   3.485  10.876  0.4594 -0.5050 -0.3569
  372MOL0     N51215   2.017   3.370  10.827 -0.3758 -0.7015  0.4003
  372MOL0     C51216   1.925   3.306  10.903 -0.3751  0.3284 -0.9223
  372MOL0     C51217   1.906   3.182  10.851  0.1088 -1.0147  0.9696
  372MOL0     C51218   1.806   3.077  10.886 -0.8927 -0.4417  0.0782
  372MOL0     C51219   1.657   3.119  10.863 -0.0722  0.6107  0.2414
  372MOL0     C51220   1.629   3.097  10.714 -0.5539 -0.2216 -0.4642
  372MOL0     C51221   1.489   3.148  10.703 -0.2359  0.2034  0.4904
  372MOL0     O51222   1.402   3.064  10.785 -0.8423 -0.0734 -0.0889
  372MOL0     C51223   1.336   2.954  10.735 -0.9895  0.1546 -0.0933
  372MOL0     C51224   1.298   2.938  10.595  0.0050 -0.4910 -0.9422
  372MOL0     C51225   1.216   2.829  10.550  0.4763 -0.5358  0.2454
  372MOL0     C51226   1.184   2.816  10.400  0.5344  0.4022 -0.0464
  372MOL0     C51227   1.174   2.732  10.641  1.1366 -0.2581  0.6329
  372MOL0     C51228   1.085   2.611  10.599  0.0619  0.6368 -0.3362
  372MOL0     O51229   1.032   2.547  10.704  0.5592  0.6154  0.8032
  372MOL0     C51230   0.949   2.442  10.708  0.1328  0.2403 -0.1927
  372MOL0     C51231   0.933   2.355  10.601  0.3696  1.0391 -0.1015
  372MOL0     C51232   0.839   2.249  10.611  0.9028 -0.4660 -0.1251
  372MOL0     C51233   0.761   2.227  10.728 -0.7224 -0.0852  0.0593
  372MOL0     O51234   0.668   2.129  10.750 -0.2276  0.3799 -0.2517
  372MOL0     C51235   0.637   2.060  10.632 -0.5857 -0.2608 -0.1495
  372MOL0     C51236   0.512   1.974  10.650 -0.2202  0.1059  0.2782
  372MOL0     C51237   0.549   1.870  10.758  0.3722 -0.1151  0.5553
  372MOL0     C51238   0.431   1.823  10.824  0.1550 -0.5033 -0.5259
  372MOL0     C51239   0.449   1.689  10.900 -0.2852 -0.7055  0.1058
  372MOL0     C51240   0.587   1.672  10.978  0.4504  0.7144  0.9462
  372MOL0     C51241   0.600   1.768  11.090  1.3640  0.5249 -0.0875
  372MOL0     C51242   0.483   1.762  11.196  0.1592  0.2334 -0.1221
  372MOL0    Cl51243   0.537   1.857  11.334 -0.2414 -0.2758  0.6126
  372MOL0     C51244   0.771   2.321  10.830  0.0269 -0.3904  0.7192
  372MOL0     C51245   0.862   2.431  10.817  0.0431 -0.6086 -0.2608
  372MOL0     O51246   1.092   2.571  10.485 -0.0720  1.1931  0.3665
  372MOL0     C51247   1.218   2.735  10.778  0.1018 -0.8267 -0.3282
  372MOL0     C51248   1.288   2.851  10.820 -0.5679  0.1482 -0.0298
  372MOL0     N51249   2.003   3.169  10.752  0.7119 -0.0171  0.3287
  372MOL0     N51250   2.057   3.285  10.735  0.2004 -0.0211  0.4779
  372MOL0     C51251   2.350   4.412  11.234 -0.5783  0.2313  0.5708
  372MOL0     C51252   2.371   4.544  11.275 -0.5901  0.5526 -0.2831
  372MOL0     C51253   2.540   4.965  11.343  0.1916  0.2152  0.5540
  372MOL0     C51254   2.499   5.085  11.282  0.1260  0.5983 -0.5649
  372MOL0     C51255   2.495   5.208  11.345 -0.2098 -0.8722  0.3014
  372MOL0     C51256   2.535   5.220  11.471 -0.2935 -1.2910 -0.7291
  372MOL0     O51257   2.517   5.325  11.548 -0.4803 -0.3765 -0.1767
  372MOL0     C51258   2.441   5.436  11.506 -0.1342  0.3849 -0.6292
  372MOL0     C51259   2.448   5.537  11.624 -0.2933  1.2546  0.2745
  372MOL0     C51260   2.589   5.574  11.662 -0.9062 -0.4464 -0.0860
  372MOL0     C51261   2.607   5.698  11.755 -0.6206 -0.2575 -0.5011
  372MOL0     C51262   2.512   5.807  11.759  0.9478  0.3630  0.5804
  372MOL0     C51263   2.433   5.889  11.789 -0.8103 -0.3641  0.1342
  372MOL0     C51264   2.587   5.110  11.530 -0.6043  0.1018 -0.7148
  372MOL0     C51265   2.589   4.990  11.472  0.1820  0.2900  0.5570
  372MOL0     C51266   2.640   4.874  11.554  1.0875  1.2702  0.6568
  372MOL0     H51267   2.713   4.545  11.279 -0.1565 -1.1567  0.9398
  372MOL0     H51268   2.660   4.323  11.186 -3.3994 -2.5710 -1.5514
  372MOL0     H51269   2.245   4.150  11.106 -1.6752  1.7172  1.8851
  372MOL0     H51270   2.291   4.156  11.273 -2.2651 -0.3157 -1.0399
  372MOL0     H51271   2.466   3.966  11.234 -0.0963 -0.9997 -0.8682
  372MOL0     H51272   2.306   3.916  11.212  1.9220 -2.0318 -0.1521
  372MOL0     H51273   2.306   3.957  10.971  0.2454 -3.7686 -0.9935
  372MOL0     H51274   2.481   3.992  10.995  0.8525  1.3763  4.5571
  372MOL0     H51275   2.462   3.775  10.912 -0.0320  0.9229  0.7854
  372MOL0     H51276   2.479   3.765  11.104  0.6750  2.6069  0.4772
  372MOL0     H51277   2.214   3.734  10.962  2.5544  0.5934 -1.7605
  372MOL0     H51278   2.255   3.695  11.124 -1.0570 -0.9039 -0.6145
  372MOL0     H51279   2.348   3.569  10.863 -2.8910 -0.2924 -0.5168
  372MOL0     H51280   2.410   3.505  11.023 -1.2043  0.6360  0.6668
  372MOL0     H51281   2.180   3.414  11.063 -2.7194 -3.5992 -1.5847
  372MOL0     H51282   2.259   3.360  10.914 -2.8027 -2.9113  2.8385
  372MOL0     H51283   2.037   3.562  10.927 -0.1710  1.1606 -3.3390
  372MOL0     H51284   2.140   3.542  10.794 -1.4259  0.2779 -0.8677
  372MOL0     H51285   1.861   3.333  10.986 -1.3375 -3.0594 -0.3930
  372MOL0     H51286   1.803   3.071  10.995 -1.7305  2.7283  0.3361
  372MOL0     H51287   1.837   2.976  10.859  0.0533 -0.2279  0.3018
  372MOL0     H51288   1.594   3.056  10.927 -0.6312  0.7532 -0.1595
  372MOL0     H51289   1.649   3.223  10.897 -0.8676  0.7028 -0.1932
  372MOL0     H51290   1.698   3.150  10.647  0.7487  0.1995  1.1262
  372MOL0     H51291   1.640   2.991  10.690  2.5754  0.2754 -1.6667
  372MOL0     H51292   1.479   3.252  10.737  0.0237  0.2698  0.3650
  372MOL0     H51293   1.452   3.140  10.600 -2.4046 -1.0289  1.3024
  372MOL0     H51294   1.326   3.010  10.519  1.9140  1.7483  1.6936
  372MOL0     H51295   1.075   2.809  10.391  0.6015  1.3447 -2.0592
  372MOL0     H51296   1.229   2.728  10.354 -2.3969  0.3027 -3.0679
  372MOL0     H51297   1.213   2.900  10.337 -2.1674  1.6318  0.2241
  372MOL0     H51298   0.995   2.360  10.512 -1.0547  1.0244 -1.1136
  372MOL0     H51299   0.837   2.189  10.521 -1.7646  1.9893 -1.8863
  372MOL0     H51300   0.615   2.127  10.548 -0.1849 -0.0354 -0.0804
  372MOL0     H51301   0.712   1.994  10.588 -1.2230  1.7133 -4.7861
  372MOL0     H51302   0.425   2.030  10.685  0.3331 -0.4613  2.6991
  372MOL0     H51303   0.484   1.929  10.554  1.3448  2.5066 -1.4211
  372MOL0     H51304   0.614   1.929  10.824 -1.3227  5.3456 -2.1108
  372MOL0     H51305   0.599   1.779  10.723 -0.3224 -0.1898 -0.2619
  372MOL0     H51306   0.341   1.816  10.761 -2.7809 -1.5811  3.4005
  372MOL0     H51307   0.409   1.896  10.902  1.5171  0.3466 -0.9043
  372MOL0     H51308   0.369   1.689  10.974  2.5509  0.1130  3.4683
  372MOL0     H51309   0.446   1.605  10.829  3.1767 -1.6391  0.8404
  372MOL0     H51310   0.673   1.679  10.911 -0.5011 -0.5309 -0.4756
  372MOL0     H51311   0.576   1.570  11.015  0.7670  0.1527 -0.4428
  372MOL0     H51312   0.591   1.869  11.048 -2.0623 -0.1165 -1.1612
  372MOL0     H51313   0.704   1.753  11.122  2.2598  3.0477 -1.4841
  372MOL0     H51314   0.466   1.659  11.228  2.3092  0.2747  1.3917
  372MOL0     H51315   0.388   1.804  11.163 -0.8226  0.2628  2.4653
  372MOL0     H51316   0.704   2.330  10.915  0.3881  2.4307  0.8070
  372MOL0     H51317   0.851   2.506  10.894 -1.0568 -1.8049  0.7947
  372MOL0     H51318   1.189   2.660  10.851  1.7878 -0.5659  0.6773
  372MOL0     H51319   1.324   2.854  10.923  2.4336  2.1164 -1.0272
  372MOL0     H51320   2.247   4.378  11.242 -2.0499  4.2459  1.1771
  372MOL0     H51321   2.286   4.602  11.309 -2.2642 -1.4177 -0.9085
  372MOL0     H51322   2.477   5.095  11.177 -1.5932  2.2076 -0.1068
  372MOL0     H51323   2.468   5.295  11.286  5.5499  2.1354  1.3575
  372MOL0     H51324   2.478   5.480  11.413  1.3932  0.8487  0.1624
  372MOL0     H51325   2.336   5.407  11.494  0.1697 -0.7864 -0.6008
  372MOL0     H51326   2.404   5.499  11.717  0.4061  0.3778  0.2579
  372MOL0     H51327   2.376   5.613  11.593 -2.3234  1.3330  4.4534
  372MOL0     H51328   2.635   5.486  11.709  1.3536  1.2454  1.1117
  372MOL0     H51329   2.644   5.602  11.572 -2.4442  0.0391 -0.9038
  372MOL0     H51330   2.692   5.756  11.716 -1.2900 -0.5693 -2.5482
  372MOL0     H51331   2.638   5.668  11.856 -3.0088  0.2134  0.4459
  372MOL0     H51332   2.368   5.973  11.806 -1.5435 -1.0622  0.8740
  372MOL0     H51333   2.598   5.110  11.638  0.3392 -3.2166 -0.6991
  372MOL0     H51334   2.674   4.916  11.649  0.9916  4.1819 -0.4813
  372MOL0     H51335   2.563   4.799  11.574  0.5642  2.2673  2.6392
  372MOL0     H51336   2.725   4.817  11.514 -1.8509 -0.5445 -3.6975
  373MOL0     O51337  11.262  11.164   1.229  0.4466 -0.0520  0.9411
  373MOL0     C51338  11.149  11.118   1.244  1.1280  0.8115 -0.0706
  373MOL0     O51339  11.105  11.071   1.365  0.2539  0.4811 -0.3505
  373MOL0     C51340  11.172  11.095   1.485  0.2665 -0.9914 -0.4802
  373MOL0     C51341  11.232  11.217   1.517  0.2819  0.2497  0.6523
  373MOL0     C51342  11.285  11.237   1.643 -0.2740  1.2244 -1.0997
  373MOL0     C51343  11.264  11.145   1.745 -0.1518  0.4406 -0.5828
  373MOL0     O51344  11.302  11.158   1.876 -0.1128 -0.2271  0.3640
  373MOL0     C51345  11.388  11.263   1.914  0.0485 -0.1208 -0.5130
  373MOL0     C51346  11.417  11.259   2.068  0.4900 -0.6243  0.4650
  373MOL0     C51347  11.495  11.382   2.107 -0.5194  0.3136  0.4809
  373MOL0     C51348  11.631  11.378   2.030 -0.7347 -0.7742  0.4952
  373MOL0     C51349  11.731  11.482   2.089  0.0703  0.2013  0.0191
  373MOL0     C51350  11.872  11.460   2.056 -0.4902 -0.2040 -0.0681
  373MOL0     C51351  11.969  11.555   2.133  1.2444  0.4424  0.7720
  373MOL0     C51352  12.106  11.537   2.070  0.8968  0.8116 -0.4110
  373MOL0     N51353  12.213  11.635   2.115  0.6531 -0.0226  0.5378
  373MOL0     C51354  12.276  11.728   2.037  0.8301 -0.8382  0.6444
  373MOL0     C51355  12.345  11.805   2.119 -0.0388 -0.1047  0.1622
  373MOL0     C51356  12.417  11.937   2.076 -1.3982  1.0618  0.5934
  373MOL0     C51357  12.558  11.896   2.024  0.5738 -0.1277 -0.5696
  373MOL0     C51358  12.639  12.020   1.979 -0.2748  1.0166 -0.1908
  373MOL0     C51359  12.666  12.115   2.091  0.2713 -0.4558  0.5448
  373MOL0     O51360  12.775  12.209   2.045 -0.0115  0.2650  0.0751
  373MOL0     C51361  12.764  12.319   1.957 -0.6304 -0.1102  0.6712
  373MOL0     C51362  12.644  12.395   1.940 -0.4441 -0.7180 -0.5814
  373MOL0     C51363  12.632  12.519   1.872  0.6921 -0.6928  0.0505
  373MOL0     C51364  12.493  12.594   1.882 -0.6548  0.5110 -0.1920
  373MOL0     C51365  12.740  12.560   1.795 -0.2519 -1.2423 -0.3628
  373MOL0     C51366  12.749  12.701   1.734  0.2675 -0.4419 -0.0052
  373MOL0     O51367  12.849  12.726   1.647 -0.0603 -0.5429  0.8056
  373MOL0     C51368  12.852  12.850   1.573  0.2284 -0.2439 -0.8661
  373MOL0     C51369  12.742  12.927   1.536  0.6409 -0.6124  0.2982
  373MOL0     C51370  12.758  13.048   1.467 -0.3580 -0.9368 -0.1160
  373MOL0     C51371  12.875  13.072   1.405  0.7548 -1.2565 -0.0095
  373MOL0     O51372  12.876  13.180   1.326 -0.3117 -0.1059  0.8755
  373MOL0     C51373  12.997  13.253   1.293  0.2332 -0.6531 -0.6028
  373MOL0     C51374  12.960  13.381   1.216 -0.0269  0.2405  0.4141
  373MOL0     C51375  12.829  13.410   1.142  0.2485  0.7750 -0.4796
  373MOL0     C51376  12.805  13.545   1.074 -0.7296  0.4612 -0.3267
  373MOL0     C51377  12.669  13.565   1.008 -0.4896  0.5275 -0.6479
  373MOL0     C51378  12.658  13.490   0.880  0.1536 -1.8558  0.3356
  373MOL0     C51379  12.523  13.506   0.807  0.4183 -0.6386  0.4301
  373MOL0     C51380  12.458  13.647   0.806  0.2117  0.6562  0.7324
  373MOL0    Cl51381  12.370  13.671   0.949 -0.2494 -0.7426 -0.0680
  373MOL0     C51382  12.980  12.981   1.414  0.1065 -0.5213 -0.0071
  373MOL0     C51383  12.973  12.890   1.515  0.7785  0.2810 -0.2795
  373MOL0     O51384  12.671  12.786   1.773  0.0207  0.0736 -0.4658
  373MOL0     C51385  12.858  12.477   1.794  0.2441 -0.4137 -0.0241
  373MOL0     C51386  12.870  12.358   1.870  0.6640 -0.4677  0.1375
  373MOL0     N51387  12.311  11.761   2.248  0.5709  0.6016  0.1748
  373MOL0     N51388  12.243  11.657   2.246 -0.4354  0.2625 -0.3452
  373MOL0     C51389  11.204  11.023   1.716  0.5073  0.6324 -0.9760
  373MOL0     C51390  11.169  10.995   1.588  1.4020 -0.1427  0.0115
  373MOL0     C51391  11.071  11.123   1.117 -0.0258 -0.2399  0.3004
  373MOL0     C51392  11.132  11.158   0.994 -0.2215 -0.9775 -0.1249
  373MOL0     C51393  11.064  11.156   0.871 -0.1315 -0.6492 -0.6759
  373MOL0     C51394  10.919  11.141   0.869 -0.3665  0.7100 -0.8982
  373MOL0     O51395  10.849  11.147   0.752 -0.1797 -0.1005  1.0708
  373MOL0     C51396  10.714  11.159   0.763  1.7550 -0.1728  0.5168
  373MOL0     C51397  10.672  11.222   0.630  0.4146  0.1884  0.2017
  373MOL0     C51398  10.724  11.133   0.510  0.5479  0.2805 -0.7558
  373MOL0     C51399  10.681  11.168   0.376 -0.0349 -0.1866 -0.3559
  373MOL0     C51400  10.716  11.070   0.277 -1.3228  0.0101  0.3564
  373MOL0     C51401  10.746  10.986   0.197 -0.8392 -0.2959  0.0689
  373MOL0     C51402  10.857  11.132   0.999 -0.7590 -0.6177 -0.8630
  373MOL0     C51403  10.932  11.106   1.119  0.1638  0.0559  0.1274
  373MOL0     C51404  10.846  11.064   1.238 -0.1879  0.2433 -0.0009
  373MOL0     H51405  11.250  11.304   1.455  1.7013  0.8539  1.8374
  373MOL0     H51406  11.351  11.323   1.656 -1.1199  2.1224 -2.5421
  373MOL0     H51407  11.350  11.360   1.881 -0.2125  0.3145  1.0092
  373MOL0     H51408  11.483  11.254   1.860 -1.0165  1.6037 -2.8733
  373MOL0     H51409  11.322  11.264   2.122 -1.5802 -1.2379 -2.7818
  373MOL0     H51410  11.477  11.170   2.087  1.8773  0.4133  1.0729
  373MOL0     H51411  11.438  11.473   2.088  2.3673  2.2543  0.6523
  373MOL0     H51412  11.513  11.367   2.214  1.3398  0.1790  0.1821
  373MOL0     H51413  11.665  11.275   2.046  0.6194 -0.5631 -0.7871
  373MOL0     H51414  11.623  11.405   1.924 -1.4705 -1.8436  0.2654
  373MOL0     H51415  11.715  11.501   2.196  0.9699 -0.0448  0.2042
  373MOL0     H51416  11.709  11.578   2.041 -3.0043 -0.7835 -0.7242
  373MOL0     H51417  11.891  11.355   2.079 -0.3431 -1.0136 -3.3886
  373MOL0     H51418  11.892  11.472   1.949  2.5787 -4.8039 -0.2926
  373MOL0     H51419  11.986  11.514   2.233  0.4227  0.7215  1.0374
  373MOL0     H51420  11.941  11.660   2.138  1.6951  0.7880 -2.2647
  373MOL0     H51421  12.144  11.436   2.086 -1.8673 -0.3031 -0.3570
  373MOL0     H51422  12.095  11.562   1.964  1.7173  2.0109 -0.2426
  373MOL0     H51423  12.277  11.733   1.929  3.9735  0.1740  0.6100
  373MOL0     H51424  12.437  12.001   2.162  4.6511  2.4534 -1.3983
  373MOL0     H51425  12.360  11.999   2.006  0.3380  2.0944  0.0516
  373MOL0     H51426  12.610  11.834   2.098 -2.1923 -2.4117 -0.3465
  373MOL0     H51427  12.546  11.827   1.940 -0.8252  0.9176 -1.2750
  373MOL0     H51428  12.741  11.995   1.950 -0.0576  0.7463  0.7684
  373MOL0     H51429  12.576  12.074   1.908 -0.4135  1.4193  0.2314
  373MOL0     H51430  12.573  12.172   2.105  1.3139  1.7432 -0.9329
  373MOL0     H51431  12.697  12.087   2.191 -0.3326  1.6388  1.3731
  373MOL0     H51432  12.569  12.371   2.015  2.3249 -0.2122  2.5989
  373MOL0     H51433  12.499  12.676   1.955  2.7549  0.2219 -0.0049
  373MOL0     H51434  12.418  12.519   1.908 -0.0345 -0.4811 -1.1845
  373MOL0     H51435  12.462  12.638   1.787  2.0891  0.1777 -1.3329
  373MOL0     H51436  12.643  12.894   1.567 -0.6707  3.6881  1.3665
  373MOL0     H51437  12.685  13.123   1.438  0.4435 -0.5294 -1.1811
  373MOL0     H51438  13.062  13.271   1.379  0.0261  1.6068 -0.8519
  373MOL0     H51439  13.055  13.189   1.226 -0.0854 -2.4140  0.7301
  373MOL0     H51440  12.985  13.462   1.286 -0.7646 -0.5938  1.6786
  373MOL0     H51441  13.034  13.374   1.137 -2.1978 -2.2168 -1.5599
  373MOL0     H51442  12.744  13.397   1.211 -3.2738 -2.1726 -4.8200
  373MOL0     H51443  12.798  13.342   1.063  1.8515 -0.3677 -0.1764
  373MOL0     H51444  12.882  13.558   0.998 -1.5514  0.8682 -1.1089
  373MOL0     H51445  12.808  13.627   1.147 -1.9205  0.0112  0.2538
  373MOL0     H51446  12.588  13.521   1.067  0.9058 -2.7674 -0.9649
  373MOL0     H51447  12.643  13.671   1.004 -2.5395  0.1386  0.7325
  373MOL0     H51448  12.666  13.382   0.895 -1.0537 -2.0508 -0.3668
  373MOL0     H51449  12.743  13.519   0.818 -1.2268 -0.1563 -0.8377
  373MOL0     H51450  12.448  13.441   0.854  0.8948 -0.1286  1.9278
  373MOL0     H51451  12.546  13.458   0.711  2.7766  0.3112  0.4657
  373MOL0     H51452  12.389  13.664   0.723 -1.0256  2.2070  2.0032
  373MOL0     H51453  12.536  13.724   0.794  0.6500  0.0908 -0.1089
  373MOL0     H51454  13.071  12.994   1.356 -0.3709  3.5047 -0.1012
  373MOL0     H51455  13.061  12.837   1.549  1.1268  1.0699  0.0679
  373MOL0     H51456  12.951  12.501   1.743  1.6316 -0.2192  2.4322
  373MOL0     H51457  12.944  12.281   1.851 -1.4799 -1.6806 -4.8047
  373MOL0     H51458  11.182  10.938   1.779 -0.0829  1.4585 -0.0229
  373MOL0     H51459  11.131  10.898   1.556  0.3935 -0.4570  2.0317
  373MOL0     H51460  11.235  11.193   0.986 -1.2446  2.3813 -0.1081
  373MOL0     H51461  11.118  11.179   0.780 -2.7354  0.0925 -2.1258
  373MOL0     H51462  10.664  11.062   0.773  1.2332  0.2460  2.2987
  373MOL0     H51463  10.674  11.215   0.848 -0.5448  0.6289 -0.9953
  373MOL0     H51464  10.716  11.322   0.629 -1.4936  1.1930  3.0806
  373MOL0     H51465  10.563  11.230   0.621  0.3941  2.2877  1.6812
  373MOL0     H51466  10.833  11.130   0.516  0.4931  1.1258  1.8035
  373MOL0     H51467  10.684  11.033   0.532 -1.3674  0.6854 -2.1015
  373MOL0     H51468  10.721  11.268   0.355 -2.5628  0.8756 -0.4836
  373MOL0     H51469  10.573  11.180   0.363 -0.1646  0.2371  0.9562
  373MOL0     H51470  10.791  10.906   0.142  0.1155 -1.4150  2.3557
  373MOL0     H51471  10.749  11.122   1.003 -0.6154 -2.9590 -1.3019
  373MOL0     H51472  10.846  11.152   1.304  1.7028  0.4464 -0.2296
  373MOL0     H51473  10.743  11.040   1.210 -0.1788  2.3074 -2.0407
  373MOL0     H51474  10.883  10.981   1.300  0.0131 -0.4718 -1.0599
  374MOL0     O51475   6.790   4.268   5.229  0.0609 -0.4462  0.0741
  374MOL0     C51476   6.907   4.238   5.254 -0.0956 -0.2520 -0.0479
  374MOL0     O51477   6.989   4.165   5.170 -0.5461 -0.5967  0.2000
  374MOL0     C51478   6.918   4.108   5.068 -0.2482 -0.8221 -0.1020
  374MOL0     C51479   6.933   4.163   4.945 -0.4485 -0.8583 -0.6380
  374MOL0     C51480   6.862   4.126   4.831  0.1083 -0.3276  0.2820
  374MOL0     C51481   6.755   4.033   4.852  1.3936  0.2238  0.4834
  374MOL0     O51482   6.670   3.985   4.749  0.2100  0.0641  0.2759
  374MOL0     C51483   6.721   3.987   4.613 -0.1879  0.7859  0.2624
  374MOL0     C51484   6.639   3.883   4.547 -0.3884 -0.9016 -0.3575
  374MOL0     C51485   6.669   3.870   4.392  0.1699  0.4677  0.1069
  374MOL0     C51486   6.583   3.766   4.331  0.2825  0.0122 -0.0386
  374MOL0     C51487   6.618   3.728   4.179 -0.6551  0.6450 -0.2633
  374MOL0     C51488   6.542   3.594   4.129 -0.5242  0.4440  0.2603
  374MOL0     C51489   6.586   3.565   3.982  0.0581  0.3642 -0.7982
  374MOL0     C51490   6.524   3.443   3.917 -0.1506 -0.7812 -0.6409
  374MOL0     N51491   6.529   3.443   3.769  0.3186 -0.4784 -0.3838
  374MOL0     C51492   6.628   3.397   3.682  0.7421  0.3463 -0.5902
  374MOL0     C51493   6.586   3.438   3.561 -0.5964 -0.0022  0.4110
  374MOL0     C51494   6.666   3.454   3.436  0.3701 -0.7136  0.6625
  374MOL0     C51495   6.611   3.367   3.323  0.3258 -0.1727  0.0530
  374MOL0     C51496   6.640   3.219   3.340  0.3171 -0.4659 -0.7359
  374MOL0     C51497   6.513   3.139   3.289 -0.8762 -0.4613  0.1788
  374MOL0     O51498   6.407   3.166   3.383 -0.5212 -0.1156 -0.1671
  374MOL0     C51499   6.275   3.175   3.336 -0.6440 -0.8093 -0.3883
  374MOL0     C51500   6.226   3.126   3.210  0.0801 -1.0130  0.0079
  374MOL0     C51501   6.092   3.143   3.180  0.4767  0.2890  0.4461
  374MOL0     C51502   6.053   3.065   3.060 -0.1174 -1.0412  0.4249
  374MOL0     C51503   6.010   3.229   3.251  0.1189  0.4563  0.5402
  374MOL0     C51504   5.866   3.261   3.219 -1.0247 -0.3764 -0.2103
  374MOL0     O51505   5.817   3.209   3.105 -0.2273 -0.9695 -0.0116
  374MOL0     C51506   5.694   3.253   3.068 -0.5628 -0.4893 -0.0801
  374MOL0     C51507   5.685   3.354   2.975  0.5267 -0.3844 -0.2687
  374MOL0     C51508   5.558   3.385   2.920  0.2729 -1.2543  0.5251
  374MOL0     C51509   5.442   3.331   2.968 -0.0361  1.0700 -0.1370
  374MOL0     O51510   5.327   3.376   2.898 -0.1600 -0.6144 -0.8420
  374MOL0     C51511   5.208   3.369   2.976  0.4283 -0.1112 -0.1289
  374MOL0     C51512   5.090   3.427   2.907 -0.4247  0.2076 -0.9637
  374MOL0     C51513   5.066   3.579   2.897  0.2836  0.7779  1.0650
  374MOL0     C51514   4.968   3.608   2.783 -0.2218  0.3439  0.5506
  374MOL0     C51515   4.953   3.758   2.737 -1.0133  0.7870  1.5194
  374MOL0     C51516   4.814   3.784   2.666  0.2263  0.3551 -0.2083
  374MOL0     C51517   4.784   3.932   2.655 -0.6640  0.8374 -0.0911
  374MOL0     C51518   4.788   3.977   2.507  1.0165  0.1523 -0.5859
  374MOL0    Cl51519   4.941   3.910   2.420 -0.1199 -0.2426  0.3978
  374MOL0     C51520   5.456   3.243   3.076 -0.1774 -0.6224  1.0082
  374MOL0     C51521   5.579   3.204   3.134  0.6078  0.2026  0.0021
  374MOL0     O51522   5.802   3.311   3.307 -1.1720  0.4305  0.4866
  374MOL0     C51523   6.072   3.308   3.360  0.2403  0.5441 -0.2680
  374MOL0     C51524   6.205   3.279   3.393  0.5534 -0.5464 -0.1126
  374MOL0     N51525   6.473   3.515   3.574  0.3665  0.6691 -0.0669
  374MOL0     N51526   6.437   3.513   3.699  0.0006  0.0011 -0.1962
  374MOL0     C51527   6.733   3.983   4.979  0.1261 -0.4245 -1.0867
  374MOL0     C51528   6.816   4.017   5.090 -0.0480 -0.4370  1.2371
  374MOL0     C51529   6.976   4.299   5.382  0.1773 -0.1673  0.1183
  374MOL0     C51530   7.103   4.248   5.411  0.0905  0.1029  0.5113
  374MOL0     C51531   7.192   4.313   5.503  0.1745  1.3366 -0.0205
  374MOL0     C51532   7.156   4.427   5.571  0.1138 -0.4167  0.5698
  374MOL0     O51533   7.248   4.483   5.654  1.0591  0.2532  1.1841
  374MOL0     C51534   7.206   4.596   5.737  0.8020 -0.5123  0.4418
  374MOL0     C51535   7.263   4.719   5.662 -0.0144  0.9639  0.6302
  374MOL0     C51536   7.292   4.837   5.762 -0.2185  0.1134 -0.2662
  374MOL0     C51537   7.354   4.964   5.691 -0.2322 -1.1581  0.4364
  374MOL0     C51538   7.481   4.941   5.623 -0.4472 -1.0889  0.7009
  374MOL0     C51539   7.582   4.926   5.562 -0.5641  0.2277 -0.5928
  374MOL0     C51540   7.025   4.480   5.541  0.2366  0.1955 -0.4838
  374MOL0     C51541   6.940   4.422   5.447  0.6836  0.7126 -0.7703
  374MOL0     C51542   6.804   4.482   5.430 -0.9550  0.6208  0.1774
  374MOL0     H51543   7.013   4.232   4.921 -1.2558  0.4203  0.1885
  374MOL0     H51544   6.881   4.173   4.735  3.2106 -2.4110 -0.3008
  374MOL0     H51545   6.827   3.963   4.603  0.2708  2.7291  0.1171
  374MOL0     H51546   6.713   4.083   4.562  1.9007  0.3230 -1.0600
  374MOL0     H51547   6.664   3.788   4.594  2.4184 -0.1268 -0.1508
  374MOL0     H51548   6.537   3.918   4.567  0.5440  1.5098  0.4120
  374MOL0     H51549   6.643   3.970   4.357 -0.9894  0.8395  1.9153
  374MOL0     H51550   6.773   3.841   4.372  0.1402  0.1141  0.4591
  374MOL0     H51551   6.589   3.668   4.381 -3.3140 -0.2538  0.1348
  374MOL0     H51552   6.479   3.801   4.340  0.9596  2.1153  0.0066
  374MOL0     H51553   6.725   3.723   4.157 -0.9146 -0.0745 -1.4335
  374MOL0     H51554   6.582   3.812   4.119  4.6615  4.4939  1.1506
  374MOL0     H51555   6.568   3.509   4.193  0.7712 -0.8142 -1.8406
  374MOL0     H51556   6.435   3.610   4.118 -0.8418 -2.0307 -0.9038
  374MOL0     H51557   6.694   3.544   3.986  0.0547  0.4675 -0.1334
  374MOL0     H51558   6.561   3.640   3.906 -0.1377 -0.0323 -1.1287
  374MOL0     H51559   6.580   3.359   3.959  2.7853  1.2160 -0.1996
  374MOL0     H51560   6.424   3.436   3.960 -1.1806  1.5637 -2.3882
  374MOL0     H51561   6.716   3.337   3.703  1.1171  1.4927  1.3698
  374MOL0     H51562   6.771   3.422   3.443  1.5883  2.3729 -1.3726
  374MOL0     H51563   6.671   3.559   3.407 -0.0633 -1.2941 -1.8075
  374MOL0     H51564   6.502   3.382   3.324  0.2492 -0.6418  2.4084
  374MOL0     H51565   6.659   3.401   3.230 -0.3057 -0.0370 -0.2348
  374MOL0     H51566   6.729   3.189   3.283 -0.2692 -0.0768 -1.8668
  374MOL0     H51567   6.650   3.194   3.447 -0.8281 -0.2945 -0.5825
  374MOL0     H51568   6.509   3.175   3.186  2.8020 -3.5206 -1.3026
  374MOL0     H51569   6.539   3.033   3.275 -0.2139 -0.2486 -0.2829
  374MOL0     H51570   6.290   3.061   3.151 -1.2642 -0.7104 -1.8704
  374MOL0     H51571   6.001   3.126   2.986 -0.8701 -1.2048  0.8137
  374MOL0     H51572   5.994   2.977   3.089  0.7166 -1.9641 -0.5667
  374MOL0     H51573   6.139   3.014   3.014 -0.6677 -0.4388 -1.3615
  374MOL0     H51574   5.782   3.384   2.935  0.7212 -2.7529 -1.7958
  374MOL0     H51575   5.543   3.461   2.844 -0.5029  2.8973  4.3850
  374MOL0     H51576   5.178   3.265   2.994 -0.8927 -0.0189 -1.5476
  374MOL0     H51577   5.213   3.410   3.077  0.5054  2.6885 -1.2030
  374MOL0     H51578   5.083   3.389   2.805  4.9964 -1.1586 -1.1480
  374MOL0     H51579   5.011   3.385   2.970  0.4007 -0.4127 -0.3127
  374MOL0     H51580   5.159   3.638   2.896  1.3778 -0.8900  0.4051
  374MOL0     H51581   5.014   3.605   2.989  1.6528 -1.3838  2.5414
  374MOL0     H51582   4.871   3.576   2.822  0.3047 -0.9988  0.7954
  374MOL0     H51583   5.004   3.557   2.693 -0.1239  2.5759 -0.7489
  374MOL0     H51584   4.967   3.809   2.833  2.4096  1.8958  0.5517
  374MOL0     H51585   5.034   3.776   2.667  1.6097 -3.9866  2.8663
  374MOL0     H51586   4.744   3.740   2.737  2.2822  0.1864  1.8271
  374MOL0     H51587   4.809   3.738   2.567  2.4716  2.1129 -1.2394
  374MOL0     H51588   4.863   3.978   2.715 -0.4323 -2.4687  2.4273
  374MOL0     H51589   4.690   3.958   2.704 -0.9085  0.0055 -0.1017
  374MOL0     H51590   4.786   4.086   2.513  0.4535  0.0965  0.5284
  374MOL0     H51591   4.697   3.938   2.460 -0.1513  1.3483  0.5791
  374MOL0     H51592   5.359   3.210   3.112 -1.0155 -1.1011 -1.5150
  374MOL0     H51593   5.580   3.134   3.216 -1.3266 -0.8816 -0.8399
  374MOL0     H51594   6.024   3.393   3.407  1.6625  0.8369  0.7182
  374MOL0     H51595   6.240   3.337   3.478 -1.1266 -0.7096  0.7260
  374MOL0     H51596   6.650   3.917   4.998  1.4717 -1.4255  1.9777
  374MOL0     H51597   6.818   3.950   5.176  1.2232 -1.2091  0.6335
  374MOL0     H51598   7.132   4.163   5.349  1.6491  2.5278 -2.3929
  374MOL0     H51599   7.284   4.266   5.535 -0.7227 -1.7033 -1.5207
  374MOL0     H51600   7.101   4.599   5.767  0.1959  0.4832 -1.6375
  374MOL0     H51601   7.238   4.577   5.840 -0.6388  1.2897  1.2773
  374MOL0     H51602   7.178   4.755   5.602 -0.3186  0.3360  0.6761
  374MOL0     H51603   7.348   4.693   5.598 -2.3263  0.9125 -2.6956
  374MOL0     H51604   7.196   4.869   5.805  0.4928  0.3414  1.1939
  374MOL0     H51605   7.358   4.807   5.843 -1.5032 -0.6147  0.5511
  374MOL0     H51606   7.380   5.041   5.763 -2.9572  0.4711 -0.1777
  374MOL0     H51607   7.277   5.008   5.627 -0.1353  1.0587  1.7451
  374MOL0     H51608   7.670   4.928   5.501 -0.6122 -1.7533 -0.7852
  374MOL0     H51609   7.007   4.579   5.583  4.6048  1.5398 -1.1915
  374MOL0     H51610   6.798   4.506   5.324 -1.9833 -1.6431 -0.3276
  374MOL0     H51611   6.735   4.397   5.435 -1.3690  0.7590 -2.2820
  374MOL0     H51612   6.783   4.555   5.509 -0.5644 -1.7681  2.6336
  375MOL0     O51613   6.251   8.497   9.145  0.5638  0.6050 -0.1739
  375MOL0     C51614   6.218   8.385   9.190  1.9785 -0.2686  0.7082
  375MOL0     O51615   6.091   8.349   9.230 -0.3143  0.2631 -0.6511
  375MOL0     C51616   5.988   8.419   9.180  0.4014  0.1602 -0.0580
  375MOL0     C51617   5.926   8.511   9.262 -0.8883 -0.4147 -0.9118
  375MOL0     C51618   5.816   8.589   9.216 -0.0289  0.6244  0.7530
  375MOL0     C51619   5.774   8.579   9.086 -0.3595  0.2148 -0.0585
  375MOL0     O51620   5.693   8.664   9.021  0.6601  0.2882 -0.2368
  375MOL0     C51621   5.624   8.772   9.087 -0.0025  0.4980  0.5600
  375MOL0     C51622   5.526   8.848   8.984  0.7454  0.8827  0.1461
  375MOL0     C51623   5.422   8.735   8.943  0.4039 -0.9975  0.2457
  375MOL0     C51624   5.314   8.793   8.852  0.3759 -0.0616  0.7959
  375MOL0     C51625   5.215   8.682   8.829  0.4823 -0.8148 -0.2159
  375MOL0     C51626   5.131   8.700   8.701  0.2270  1.2604 -0.4368
  375MOL0     C51627   5.176   8.624   8.578 -0.7122  0.7610  0.1521
  375MOL0     C51628   5.301   8.697   8.509  0.2758  0.1206 -0.6080
  375MOL0     N51629   5.350   8.630   8.386  1.0476  0.0580  0.2219
  375MOL0     C51630   5.334   8.496   8.341  0.8539 -0.5473 -0.4691
  375MOL0     C51631   5.405   8.488   8.226  0.0752 -0.4310  0.3176
  375MOL0     C51632   5.404   8.380   8.128  0.5593  0.2658 -0.2799
  375MOL0     C51633   5.318   8.399   7.997 -0.3731  0.4916 -0.4894
  375MOL0     C51634   5.322   8.271   7.910  1.0519 -0.2303 -0.0132
  375MOL0     C51635   5.416   8.286   7.794  0.1777 -0.3397  1.1652
  375MOL0     O51636   5.546   8.281   7.852 -0.3192 -1.2220  0.2463
  375MOL0     C51637   5.642   8.325   7.765 -0.1130  0.0127 -0.5335
  375MOL0     C51638   5.625   8.380   7.635 -0.0668 -0.2755  0.0634
  375MOL0     C51639   5.731   8.450   7.574  0.4432  0.0670  0.3002
  375MOL0     C51640   5.701   8.520   7.435 -0.1461 -0.9018 -0.2197
  375MOL0     C51641   5.857   8.462   7.636  0.5015 -0.8965  0.7085
  375MOL0     C51642   5.976   8.536   7.576 -0.6622 -0.2561 -0.1318
  375MOL0     O51643   6.069   8.574   7.672  0.6194  0.1265  0.1417
  375MOL0     C51644   6.158   8.674   7.643 -0.2197 -0.0210 -0.6203
  375MOL0     C51645   6.280   8.685   7.711 -0.0076  0.5869 -0.7107
  375MOL0     C51646   6.346   8.815   7.707 -0.4014 -0.3978  0.3096
  375MOL0     C51647   6.312   8.920   7.620 -0.2811  0.8020  0.1008
  375MOL0     O51648   6.378   9.037   7.621 -0.0804 -0.1186 -0.1105
  375MOL0     C51649   6.402   9.109   7.502  0.4623 -0.9951 -0.0989
  375MOL0     C51650   6.482   9.233   7.525 -0.2832 -0.1281  1.0814
  375MOL0     C51651   6.411   9.329   7.627  0.1733  0.2198 -1.0502
  375MOL0     C51652   6.363   9.453   7.560 -0.7386  0.7295 -1.0900
  375MOL0     C51653   6.247   9.432   7.471 -0.3491 -0.7462 -0.0319
  375MOL0     C51654   6.227   9.560   7.396  1.0406  0.4670  0.0011
  375MOL0     C51655   6.131   9.532   7.267 -0.3064 -0.1919 -0.2592
  375MOL0     C51656   6.126   9.656   7.180 -0.3801 -0.7243  1.1102
  375MOL0    Cl51657   6.034   9.779   7.269  0.3954 -0.1722  0.0595
  375MOL0     C51658   6.188   8.906   7.559 -0.6278 -0.7679  0.7681
  375MOL0     C51659   6.114   8.792   7.570  0.4936  0.3414  0.4511
  375MOL0     O51660   5.992   8.546   7.453  0.2257 -0.1984 -0.3220
  375MOL0     C51661   5.870   8.408   7.765  0.3404  0.7122  0.6893
  375MOL0     C51662   5.766   8.341   7.824  0.0671  0.3373  0.0719
  375MOL0     N51663   5.473   8.601   8.205 -0.5941 -1.3075 -0.8374
  375MOL0     N51664   5.444   8.689   8.299 -0.1752 -0.0816 -0.7509
  375MOL0     C51665   5.852   8.491   9.002  0.2924 -0.1503  0.2806
  375MOL0     C51666   5.950   8.407   9.047 -0.2831 -0.5820  0.1672
  375MOL0     C51667   6.305   8.270   9.183 -0.8647 -0.0749 -0.5782
  375MOL0     C51668   6.250   8.144   9.192  0.7486  0.3223 -0.0924
  375MOL0     C51669   6.325   8.018   9.192 -0.0229  0.1631  0.5968
  375MOL0     C51670   6.465   8.033   9.189 -0.3474 -0.0354 -0.0751
  375MOL0     O51671   6.545   7.918   9.226  0.2521 -0.3537  0.3910
  375MOL0     C51672   6.623   7.941   9.346 -0.9257 -0.0247  0.2813
  375MOL0     C51673   6.667   7.807   9.392  0.8779 -0.3635  0.0159
  375MOL0     C51674   6.754   7.737   9.288 -0.3882  1.4854  0.6078
  375MOL0     C51675   6.800   7.602   9.341  0.2060 -0.1485 -0.0670
  375MOL0     C51676   6.902   7.548   9.247 -0.2112  1.6051  0.6639
  375MOL0     C51677   6.980   7.497   9.166  0.0528 -0.3481 -0.2447
  375MOL0     C51678   6.523   8.158   9.188 -0.0302  0.3381 -0.2077
  375MOL0     C51679   6.452   8.277   9.176 -0.7774 -0.4999  0.1480
  375MOL0     C51680   6.519   8.410   9.150 -0.2908  0.2936 -0.1354
  375MOL0     H51681   5.965   8.522   9.362 -0.2645  1.3686 -1.3170
  375MOL0     H51682   5.780   8.670   9.278 -0.5048  0.4029  0.7701
  375MOL0     H51683   5.706   8.841   9.107 -1.1253  2.4499 -1.1406
  375MOL0     H51684   5.563   8.743   9.173  0.6276 -1.8071  0.3092
  375MOL0     H51685   5.466   8.923   9.037 -0.3826  2.3586 -2.9806
  375MOL0     H51686   5.574   8.897   8.899 -1.1159  2.5793 -0.0049
  375MOL0     H51687   5.485   8.657   8.900 -0.4454  0.5330 -4.3083
  375MOL0     H51688   5.363   8.700   9.028 -3.4662 -0.1492 -1.8903
  375MOL0     H51689   5.265   8.884   8.888 -0.8772  1.8315 -4.6372
  375MOL0     H51690   5.360   8.827   8.759 -0.5399 -0.6511  0.1011
  375MOL0     H51691   5.153   8.673   8.918 -1.0003  4.0824 -0.4788
  375MOL0     H51692   5.264   8.584   8.831  0.3935 -0.8872  2.3318
  375MOL0     H51693   5.028   8.668   8.720  0.7589  0.1101  0.6193
  375MOL0     H51694   5.128   8.808   8.688  0.9661  1.8947  3.4232
  375MOL0     H51695   5.098   8.600   8.505  1.7425 -2.6139 -1.6837
  375MOL0     H51696   5.221   8.531   8.616 -1.3886  0.5215  0.3722
  375MOL0     H51697   5.294   8.805   8.491  2.6869  0.7491  1.5930
  375MOL0     H51698   5.390   8.683   8.570 -0.7464 -3.0962  0.3204
  375MOL0     H51699   5.273   8.419   8.386 -0.9515  1.2353  0.2843
  375MOL0     H51700   5.368   8.293   8.183  0.8227  1.8916  2.6299
  375MOL0     H51701   5.507   8.361   8.097  0.6786  0.1615  0.1771
  375MOL0     H51702   5.214   8.421   8.019 -1.1918 -1.9056 -1.6807
  375MOL0     H51703   5.360   8.486   7.944  1.8214 -0.8627 -1.1252
  375MOL0     H51704   5.347   8.182   7.968  0.8162 -0.4220 -0.2055
  375MOL0     H51705   5.224   8.248   7.866  1.2719 -2.2523  0.4568
  375MOL0     H51706   5.413   8.196   7.731 -0.3451  0.2265  0.3540
  375MOL0     H51707   5.393   8.371   7.728  2.6644 -1.2354 -1.0292
  375MOL0     H51708   5.540   8.370   7.569 -1.1712  0.5862  1.3134
  375MOL0     H51709   5.601   8.514   7.389 -0.6125 -1.6630  0.8519
  375MOL0     H51710   5.774   8.498   7.357 -1.7119  0.8463 -2.3123
  375MOL0     H51711   5.712   8.625   7.462  1.8252 -2.1425  5.0337
  375MOL0     H51712   6.329   8.611   7.773 -0.5630 -0.7727 -1.8376
  375MOL0     H51713   6.435   8.812   7.770  2.2818 -2.1849 -3.2274
  375MOL0     H51714   6.476   9.046   7.451  0.2551 -0.7399 -0.7319
  375MOL0     H51715   6.313   9.110   7.438  1.1129 -1.7633 -1.0412
  375MOL0     H51716   6.581   9.203   7.559  0.0526  2.1962  2.3922
  375MOL0     H51717   6.510   9.278   7.429  3.3984  0.8920  2.4661
  375MOL0     H51718   6.484   9.352   7.705  1.0929 -0.7059 -1.6136
  375MOL0     H51719   6.325   9.277   7.670  1.2314 -2.4778 -1.9712
  375MOL0     H51720   6.445   9.494   7.500  1.9836 -1.6027  0.7633
  375MOL0     H51721   6.340   9.527   7.637 -1.6722 -0.7275  0.0730
  375MOL0     H51722   6.263   9.347   7.404  1.9409 -0.5943  0.2408
  375MOL0     H51723   6.153   9.416   7.524 -0.4779  0.0465 -0.0124
  375MOL0     H51724   6.315   9.612   7.358  0.4063  1.9584  0.4806
  375MOL0     H51725   6.179   9.621   7.474  0.3880 -0.9958  0.8045
  375MOL0     H51726   6.031   9.511   7.305  0.0332  0.1648  0.8848
  375MOL0     H51727   6.171   9.454   7.201  0.9386  2.3602 -2.7705
  375MOL0     H51728   6.077   9.640   7.083  1.5316  0.0907 -0.0394
  375MOL0     H51729   6.222   9.702   7.157 -0.4861 -1.7658 -1.8229
  375MOL0     H51730   6.138   8.980   7.497 -2.0152 -0.5201  2.1356
  375MOL0     H51731   6.016   8.799   7.524  0.0409 -0.7555  1.2167
  375MOL0     H51732   5.958   8.401   7.828  0.4708  2.6306  0.7657
  375MOL0     H51733   5.785   8.290   7.918  0.5873  0.5146  0.0687
  375MOL0     H51734   5.843   8.490   8.894  0.0793  1.3769  0.2722
  375MOL0     H51735   5.980   8.337   8.969 -4.6296 -1.6880 -0.7925
  375MOL0     H51736   6.142   8.136   9.181  0.8934 -0.8423 -0.9980
  375MOL0     H51737   6.283   7.920   9.212  0.6947 -0.2665  0.0432
  375MOL0     H51738   6.709   8.008   9.336  0.8865 -2.1991  0.4318
  375MOL0     H51739   6.553   7.998   9.407 -2.2058 -0.5677 -0.6250
  375MOL0     H51740   6.580   7.743   9.412 -3.1055  3.6588 -2.3542
  375MOL0     H51741   6.723   7.816   9.486 -0.0811 -2.5769  0.8689
  375MOL0     H51742   6.699   7.723   9.194  3.4190 -2.3075 -1.3886
  375MOL0     H51743   6.840   7.803   9.277  0.2675  0.6977  0.8708
  375MOL0     H51744   6.710   7.540   9.350  0.0386  0.1828  0.6106
  375MOL0     H51745   6.833   7.605   9.445  2.4867  1.6549 -0.7667
  375MOL0     H51746   7.040   7.459   9.087  0.0002  2.4673 -1.7850
  375MOL0     H51747   6.631   8.158   9.181 -0.1426  0.5175 -3.8104
  375MOL0     H51748   6.479   8.451   9.056 -1.1820  1.8586  0.8693
  375MOL0     H51749   6.512   8.466   9.244  0.2181 -2.8235  1.8808
  375MOL0     H51750   6.627   8.410   9.132 -0.3106  1.1256 -0.3126
  376MOL0     O51751   9.410   9.855   8.533 -0.2309 -0.4566  0.3267
  376MOL0     C51752   9.366   9.781   8.623  0.3099  0.3769 -0.6612
  376MOL0     O51753   9.325   9.648   8.612 -1.2223  0.0456 -0.3463
  376MOL0     C51754   9.359   9.589   8.491 -1.0037  0.4408 -0.7741
  376MOL0     C51755   9.443   9.479   8.509 -0.3781  0.4681  1.0599
  376MOL0     C51756   9.489   9.407   8.402 -1.1502 -0.2612  0.2856
  376MOL0     C51757   9.436   9.440   8.274 -0.4001 -0.2523  0.5081
  376MOL0     O51758   9.460   9.370   8.164  0.4037  0.8072  0.3296
  376MOL0     C51759   9.587   9.293   8.142  0.3108 -0.0671  0.2995
  376MOL0     C51760   9.577   9.212   8.020 -1.2424  0.5929 -0.2723
  376MOL0     C51761   9.467   9.103   8.040  0.4072 -0.4596  0.5836
  376MOL0     C51762   9.527   8.964   8.021  0.5159 -0.3543  0.0068
  376MOL0     C51763   9.412   8.855   8.036 -0.5752 -0.5069 -0.3364
  376MOL0     C51764   9.430   8.742   7.924  0.6183 -0.3438 -0.1019
  376MOL0     C51765   9.353   8.608   7.976 -0.5469  0.3766  0.4272
  376MOL0     C51766   9.351   8.509   7.852 -0.5510  0.4037  0.0039
  376MOL0     N51767   9.255   8.542   7.740  0.5973  0.0622 -0.0640
  376MOL0     C51768   9.124   8.568   7.763  0.3946  0.3915 -0.1445
  376MOL0     C51769   9.068   8.569   7.643 -0.4384  0.1902  0.7061
  376MOL0     C51770   8.920   8.591   7.629 -0.2495  0.7940 -0.9352
  376MOL0     C51771   8.887   8.639   7.493 -0.2942 -0.0979  0.4460
  376MOL0     C51772   8.742   8.621   7.469 -0.5840 -0.2340 -0.2554
  376MOL0     C51773   8.693   8.699   7.340  0.8520  0.5614  0.1625
  376MOL0     O51774   8.657   8.826   7.388 -0.5518 -0.7686  0.0489
  376MOL0     C51775   8.623   8.931   7.304 -0.4247  0.3645 -0.9819
  376MOL0     C51776   8.531   8.920   7.193 -0.7238  0.9141 -0.4123
  376MOL0     C51777   8.498   9.026   7.106 -0.5674  0.4123  1.0885
  376MOL0     C51778   8.414   9.007   6.982 -0.4618 -0.2868  0.5120
  376MOL0     C51779   8.557   9.155   7.134  0.7390 -0.1694  0.5339
  376MOL0     C51780   8.511   9.277   7.067  0.9996  0.7524  0.1277
  376MOL0     O51781   8.518   9.394   7.132 -0.6709  0.1821 -0.3121
  376MOL0     C51782   8.464   9.511   7.089  0.5581 -0.1014 -0.4592
  376MOL0     C51783   8.353   9.508   7.001 -0.5727  0.6826  0.8865
  376MOL0     C51784   8.284   9.622   6.962 -0.5740 -0.3611  1.3087
  376MOL0     C51785   8.328   9.756   7.002 -0.1232  1.1649  0.3654
  376MOL0     O51786   8.252   9.862   6.962 -0.0266  0.7081 -0.4554
  376MOL0     C51787   8.327   9.960   6.898 -0.6090 -0.1343 -0.3904
  376MOL0     C51788   8.370   9.913   6.759  0.0599  0.4181  0.7076
  376MOL0     C51789   8.490   9.989   6.701  0.1125 -0.5334  0.8838
  376MOL0     C51790   8.498   9.990   6.542 -0.0637  0.1973  0.2885
  376MOL0     C51791   8.590  10.096   6.496  0.6429 -0.9437 -0.1259
  376MOL0     C51792   8.581  10.122   6.341  1.1211  0.2629 -0.6837
  376MOL0     C51793   8.686  10.228   6.305  0.0105 -0.1576  0.9084
  376MOL0     C51794   8.685  10.260   6.161 -0.1964  0.4733 -0.1793
  376MOL0    Cl51795   8.827  10.357   6.130 -0.3876  0.2208  0.1259
  376MOL0     C51796   8.447   9.756   7.087 -0.1261 -0.4615 -0.1222
  376MOL0     C51797   8.517   9.638   7.123 -0.3053  0.1742 -0.1960
  376MOL0     O51798   8.491   9.271   6.947  0.2592 -0.3708 -1.1355
  376MOL0     C51799   8.659   9.162   7.232  1.7229 -0.4375 -0.2605
  376MOL0     C51800   8.678   9.057   7.323  0.5076  0.7168  0.1434
  376MOL0     N51801   9.165   8.552   7.541  0.7426 -0.0888 -0.0641
  376MOL0     N51802   9.275   8.521   7.606  0.7374  0.1662  0.3137
  376MOL0     C51803   9.343   9.548   8.262  1.0173  0.3812  0.0388
  376MOL0     C51804   9.317   9.625   8.370  0.2875 -0.5189  0.2582
  376MOL0     C51805   9.377   9.822   8.765 -0.0190 -0.3135  0.3205
  376MOL0     C51806   9.411   9.719   8.855 -0.3829 -1.1894 -0.2335
  376MOL0     C51807   9.417   9.754   8.997  0.1592 -0.6540  0.4779
  376MOL0     C51808   9.387   9.880   9.045 -0.0812 -0.6551 -0.6258
  376MOL0     O51809   9.390   9.908   9.185  0.2351 -0.2824  0.0307
  376MOL0     C51810   9.366   9.793   9.277  0.3431  0.5578 -0.7072
  376MOL0     C51811   9.347   9.849   9.418  0.9915 -0.1253  0.0402
  376MOL0     C51812   9.471   9.865   9.502 -0.0367  0.5598  0.6138
  376MOL0     C51813   9.431   9.888   9.649  0.6221  0.0275  0.7928
  376MOL0     C51814   9.543   9.945   9.722 -0.2030  0.3667  1.0091
  376MOL0     C51815   9.628   9.997   9.781  0.0189  0.9757 -0.5459
  376MOL0     C51816   9.343   9.976   8.948  0.9381 -0.6929  0.3585
  376MOL0     C51817   9.337   9.957   8.814 -1.0662  0.4009  0.8734
  376MOL0     C51818   9.284  10.066   8.728 -0.1714 -0.4879 -0.0831
  376MOL0     H51819   9.479   9.453   8.607 -0.0051  2.5448  1.5246
  376MOL0     H51820   9.565   9.331   8.419  1.1822  2.3395  2.2906
  376MOL0     H51821   9.617   9.238   8.231 -1.9677  1.2504  1.9800
  376MOL0     H51822   9.662   9.368   8.116  1.5934 -1.7385 -1.0482
  376MOL0     H51823   9.580   9.270   7.928  2.6144  1.6214  0.3243
  376MOL0     H51824   9.679   9.172   8.014 -1.3352  0.5430 -1.7951
  376MOL0     H51825   9.404   9.127   8.127 -0.8118  2.0803 -0.8975
  376MOL0     H51826   9.390   9.121   7.964  0.9292  5.2652  0.9595
  376MOL0     H51827   9.579   8.959   7.925  0.5763 -0.2037  0.0311
  376MOL0     H51828   9.606   8.939   8.093  1.5944  1.2413 -0.5616
  376MOL0     H51829   9.315   8.905   8.028  0.3421  1.1981 -1.4168
  376MOL0     H51830   9.419   8.808   8.134  1.0644 -1.7365 -1.0077
  376MOL0     H51831   9.377   8.775   7.834  0.8467  1.0816  0.2705
  376MOL0     H51832   9.537   8.729   7.904  1.5114  4.7966  0.0788
  376MOL0     H51833   9.248   8.632   7.995 -0.3558 -0.1577  2.3952
  376MOL0     H51834   9.406   8.575   8.065  2.6385 -1.5499 -1.9892
  376MOL0     H51835   9.442   8.512   7.792 -2.1993 -0.2780 -2.7128
  376MOL0     H51836   9.322   8.409   7.886 -2.8970  1.0199 -0.0187
  376MOL0     H51837   9.074   8.601   7.854 -0.4754  2.8199 -1.4084
  376MOL0     H51838   8.884   8.660   7.705 -1.8854  0.6399 -1.5305
  376MOL0     H51839   8.878   8.492   7.648  4.4330 -1.3176  0.0438
  376MOL0     H51840   8.901   8.747   7.502  1.1529 -0.1017 -1.2151
  376MOL0     H51841   8.945   8.588   7.416 -2.0833 -4.1235  1.4772
  376MOL0     H51842   8.713   8.516   7.461  0.0223 -0.6160  1.9279
  376MOL0     H51843   8.693   8.659   7.559 -0.7466 -0.9897 -0.0166
  376MOL0     H51844   8.756   8.698   7.251  1.7067 -0.5525  0.7632
  376MOL0     H51845   8.606   8.642   7.305  2.5046 -1.2765 -1.1750
  376MOL0     H51846   8.490   8.821   7.179 -1.3471  0.7539  2.1870
  376MOL0     H51847   8.461   9.024   6.885 -1.9242  2.9220  0.2595
  376MOL0     H51848   8.322   9.066   6.988  0.6469  1.5869 -0.3890
  376MOL0     H51849   8.380   8.903   6.976 -2.3204  0.1043  2.6090
  376MOL0     H51850   8.313   9.415   6.962  2.5413  0.0207 -1.0016
  376MOL0     H51851   8.200   9.616   6.894  1.8797  0.0234 -2.0672
  376MOL0     H51852   8.274  10.055   6.886 -1.4358 -0.3981  0.9452
  376MOL0     H51853   8.419   9.975   6.954 -0.9520 -1.5430  0.6048
  376MOL0     H51854   8.394   9.806   6.768  2.7651  0.7598 -1.2886
  376MOL0     H51855   8.287   9.921   6.688  0.3972 -0.2359  0.2291
  376MOL0     H51856   8.582   9.957   6.751 -1.8113 -5.5289  1.8255
  376MOL0     H51857   8.476  10.094   6.731  1.0046 -0.2904  0.4778
  376MOL0     H51858   8.404  10.000   6.487  0.1472  0.2273 -0.0733
  376MOL0     H51859   8.547   9.896   6.515 -0.9408 -0.3093  0.4305
  376MOL0     H51860   8.555  10.181   6.554 -2.4663 -0.4627 -2.3940
  376MOL0     H51861   8.692  10.063   6.519  0.7553 -0.5001  0.0013
  376MOL0     H51862   8.480  10.149   6.309  0.8649 -0.7079 -0.7539
  376MOL0     H51863   8.611  10.026   6.297  5.1486  0.9758  0.1815
  376MOL0     H51864   8.786  10.190   6.329  0.8658  1.2156 -0.3087
  376MOL0     H51865   8.690  10.320   6.364  4.8452  0.0388  0.7052
  376MOL0     H51866   8.603  10.321   6.123 -0.4036 -1.0098 -2.2414
  376MOL0     H51867   8.686  10.163   6.111 -1.4557  1.5028 -2.3298
  376MOL0     H51868   8.491   9.849   7.124  0.8132 -0.8477 -0.2323
  376MOL0     H51869   8.600   9.637   7.193 -2.4850 -5.0363  2.8967
  376MOL0     H51870   8.710   9.256   7.250  1.1870  1.0050 -4.9111
  376MOL0     H51871   8.764   9.074   7.387  1.9181  0.7345 -1.6605
  376MOL0     H51872   9.295   9.565   8.166  1.1839 -0.5313 -0.2119
  376MOL0     H51873   9.250   9.709   8.351 -0.7821 -1.7281 -1.7047
  376MOL0     H51874   9.441   9.617   8.832 -2.0650 -1.5954 -0.7204
  376MOL0     H51875   9.444   9.665   9.055 -1.7155 -0.7410  1.2677
  376MOL0     H51876   9.274   9.743   9.245  0.3644  0.2288 -0.2577
  376MOL0     H51877   9.452   9.725   9.271  1.8394  2.2272  0.7186
  376MOL0     H51878   9.280   9.779   9.467  0.8172 -1.5506 -2.0887
  376MOL0     H51879   9.288   9.941   9.420  1.6715  0.3401 -0.7670
  376MOL0     H51880   9.539   9.779   9.506  0.1881  0.6909 -0.2642
  376MOL0     H51881   9.518   9.958   9.468  0.5831 -0.0685 -0.3201
  376MOL0     H51882   9.392   9.794   9.690 -0.2226 -1.5265 -3.2000
  376MOL0     H51883   9.347   9.957   9.660 -0.2454 -1.1061  1.5033
  376MOL0     H51884   9.710  10.040   9.835 -0.0929  2.3945 -1.4275
  376MOL0     H51885   9.298  10.065   8.990 -0.4395 -0.7801 -0.8634
  376MOL0     H51886   9.248  10.147   8.792  0.4529  0.0045 -0.3437
  376MOL0     H51887   9.356  10.102   8.654 -1.2630 -0.9479 -1.4086
  376MOL0     H51888   9.197  10.047   8.664  0.4285  0.6847 -1.3084
  377MOL0     O51889   9.338   5.068   6.620  0.4684 -0.2189  0.1479
  377MOL0     C51890   9.459   5.065   6.648  0.1209 -0.2615 -0.3903
  377MOL0     O51891   9.555   5.127   6.574 -0.7484  0.1371 -0.7040
  377MOL0     C51892   9.520   5.248   6.522 -0.6161 -0.3028 -0.7000
  377MOL0     C51893   9.543   5.265   6.386  0.0317 -0.2518  0.1519
  377MOL0     C51894   9.514   5.386   6.314 -0.0460  0.4974  0.4635
  377MOL0     C51895   9.454   5.491   6.385 -0.4902 -0.3904  0.8435
  377MOL0     O51896   9.409   5.608   6.327 -0.0422  1.3529  0.0753
  377MOL0     C51897   9.425   5.635   6.188 -0.1322 -0.7134 -0.7905
  377MOL0     C51898   9.561   5.696   6.152  0.6796 -0.3181  0.4345
  377MOL0     C51899   9.634   5.630   6.026  0.7277  0.1442 -0.3019
  377MOL0     C51900   9.541   5.634   5.902 -0.9597 -0.0287  0.8162
  377MOL0     C51901   9.623   5.646   5.767  0.1209  1.0986  0.8044
  377MOL0     C51902   9.529   5.648   5.642  0.7110 -0.1303  0.2854
  377MOL0     C51903   9.609   5.710   5.522 -0.0109  0.2078  0.4817
  377MOL0     C51904   9.718   5.613   5.467  0.3924  0.0069 -0.6906
  377MOL0     N51905   9.663   5.485   5.421 -0.2931  1.3130 -0.1322
  377MOL0     C51906   9.701   5.357   5.468  0.2075  0.3230 -0.2685
  377MOL0     C51907   9.620   5.274   5.395 -0.4026  0.0499 -0.6267
  377MOL0     C51908   9.623   5.127   5.409  0.3751 -0.2275  0.2352
  377MOL0     C51909   9.603   5.043   5.289  0.5909  0.2303  0.6455
  377MOL0     C51910   9.642   4.899   5.315  0.3663 -0.0812  0.2452
  377MOL0     C51911   9.633   4.817   5.182 -0.1981  0.4317  0.1235
  377MOL0     O51912   9.732   4.871   5.092  0.1675 -0.3135 -0.1083
  377MOL0     C51913   9.851   4.804   5.076 -0.5466  0.7302  0.4439
  377MOL0     C51914   9.864   4.662   5.070 -0.2473 -0.5569 -0.7922
  377MOL0     C51915   9.974   4.595   5.028  0.0106 -0.6954 -0.5027
  377MOL0     C51916   9.955   4.450   5.013 -0.0892  0.4277  0.0536
  377MOL0     C51917  10.085   4.662   4.988  0.7828  0.0230  0.0747
  377MOL0     C51918  10.206   4.590   4.928  0.5421  0.2997  0.8107
  377MOL0     O51919  10.236   4.450   4.948  0.2066 -0.8524 -0.1579
  377MOL0     C51920  10.330   4.400   4.863 -0.2466  0.7397 -0.0826
  377MOL0     C51921  10.439   4.335   4.924 -0.0544  0.3131 -0.0724
  377MOL0     C51922  10.550   4.277   4.843 -0.2554 -0.1317  0.3759
  377MOL0     C51923  10.550   4.292   4.711  0.1720  1.2910 -0.3711
  377MOL0     O51924  10.655   4.258   4.632  0.2813 -0.7755  0.0904
  377MOL0     C51925  10.660   4.121   4.604  0.2463 -0.4746  0.0466
  377MOL0     C51926  10.779   4.090   4.515 -0.2116 -0.0616 -0.7795
  377MOL0     C51927  10.916   4.084   4.587 -0.4940  0.6816  0.0954
  377MOL0     C51928  11.015   3.988   4.511  0.5888  0.2711 -0.3537
  377MOL0     C51929  11.151   4.001   4.578 -0.6739 -0.2731  0.1394
  377MOL0     C51930  11.216   4.145   4.572  0.0969  0.2922 -0.5240
  377MOL0     C51931  11.371   4.128   4.555  0.9501 -0.7404 -0.3223
  377MOL0     C51932  11.439   4.265   4.542 -0.4569  0.7329  0.0732
  377MOL0    Cl51933  11.403   4.359   4.386 -0.0795  0.0797 -0.0313
  377MOL0     C51934  10.439   4.344   4.654  1.0887  0.0192 -0.2700
  377MOL0     C51935  10.331   4.400   4.726 -0.3744  0.7883 -0.3873
  377MOL0     O51936  10.283   4.668   4.876 -0.2177  0.0241 -0.6520
  377MOL0     C51937  10.077   4.806   4.994  0.3048  0.4021 -0.5110
  377MOL0     C51938   9.962   4.872   5.045 -0.4128 -0.7342  0.2319
  377MOL0     N51939   9.544   5.349   5.307  1.2754 -0.7421  0.2479
  377MOL0     N51940   9.573   5.474   5.324  0.5689 -0.6233  0.0225
  377MOL0     C51941   9.415   5.474   6.516 -0.2811 -0.7428 -0.8147
  377MOL0     C51942   9.449   5.353   6.591  0.9395 -0.8735 -0.0211
  377MOL0     C51943   9.516   4.984   6.750  0.4582  0.2209 -0.5222
  377MOL0     C51944   9.619   4.903   6.710  0.0615  0.5703 -0.4498
  377MOL0     C51945   9.670   4.805   6.804 -0.7650 -0.2873 -0.6548
  377MOL0     C51946   9.622   4.797   6.929  0.5718 -0.3521 -0.7205
  377MOL0     O51947   9.658   4.687   7.002  0.1754  0.1674 -0.7024
  377MOL0     C51948   9.541   4.614   7.059 -0.3358  0.7282  0.5421
  377MOL0     C51949   9.586   4.557   7.198 -0.1334  0.6772 -0.0829
  377MOL0     C51950   9.472   4.470   7.252 -0.0205  0.4222  0.0967
  377MOL0     C51951   9.491   4.411   7.392  0.8772 -0.6218  0.1885
  377MOL0     C51952   9.624   4.358   7.416 -0.1977 -0.1490  0.2626
  377MOL0     C51953   9.731   4.321   7.471  0.2324 -0.2967  0.0404
  377MOL0     C51954   9.530   4.898   6.978  0.2310 -0.2450  0.7713
  377MOL0     C51955   9.481   4.993   6.887  0.1640 -0.0424 -0.3986
  377MOL0     C51956   9.381   5.097   6.930  0.2902 -0.2497  0.0519
  377MOL0     H51957   9.588   5.194   6.317 -0.2660  0.0555 -0.3640
  377MOL0     H51958   9.546   5.403   6.212  1.5888 -3.1378  0.2367
  377MOL0     H51959   9.348   5.709   6.165  0.1002 -0.9457 -2.3832
  377MOL0     H51960   9.403   5.559   6.113  3.9772 -0.9799 -1.9712
  377MOL0     H51961   9.554   5.802   6.126 -0.1259 -0.5861 -0.5227
  377MOL0     H51962   9.620   5.669   6.240 -0.4156 -6.0309 -0.1663
  377MOL0     H51963   9.731   5.675   6.001  0.9048 -1.2091 -2.2858
  377MOL0     H51964   9.652   5.524   6.048  0.8428  0.2781  0.2734
  377MOL0     H51965   9.472   5.550   5.894  1.7005 -2.1530 -3.7819
  377MOL0     H51966   9.472   5.717   5.917 -1.7954 -1.1624  4.4575
  377MOL0     H51967   9.685   5.556   5.756 -2.1586 -0.4655 -0.3315
  377MOL0     H51968   9.686   5.735   5.766 -0.2156  1.3462  1.4302
  377MOL0     H51969   9.499   5.546   5.617  2.5665 -1.3950  2.7262
  377MOL0     H51970   9.440   5.707   5.664  0.0683 -0.8203 -0.3777
  377MOL0     H51971   9.657   5.803   5.553 -0.2848  1.3625 -2.3179
  377MOL0     H51972   9.542   5.739   5.441  0.7804  1.1137  0.1388
  377MOL0     H51973   9.781   5.655   5.388 -1.5939  3.1339 -0.7767
  377MOL0     H51974   9.783   5.595   5.554 -0.2696  2.8857  0.4953
  377MOL0     H51975   9.783   5.330   5.534  0.4400 -1.5596 -1.2535
  377MOL0     H51976   9.531   5.101   5.461 -0.7869  0.9831 -1.1294
  377MOL0     H51977   9.713   5.094   5.461  1.9879 -0.9581 -2.7301
  377MOL0     H51978   9.500   5.057   5.254  0.6472  0.7737  0.6852
  377MOL0     H51979   9.665   5.078   5.206  1.5237 -2.4483  0.1094
  377MOL0     H51980   9.741   4.874   5.356  0.2663 -1.2851 -0.1880
  377MOL0     H51981   9.582   4.863   5.399  2.3516 -0.3655  1.6149
  377MOL0     H51982   9.651   4.715   5.215 -0.3330  0.9461  1.8584
  377MOL0     H51983   9.536   4.822   5.131  0.0671  0.1799 -0.4220
  377MOL0     H51984   9.774   4.603   5.083 -1.5493  1.3471 -0.8225
  377MOL0     H51985   9.874   4.424   5.082 -0.4046  1.6648  0.1674
  377MOL0     H51986  10.050   4.399   5.037  0.4861  1.2253 -0.4976
  377MOL0     H51987   9.936   4.418   4.911 -0.1261 -0.5549  0.3531
  377MOL0     H51988  10.423   4.322   5.031 -2.1908  0.9270 -0.2536
  377MOL0     H51989  10.637   4.230   4.888 -0.7171  0.5274  2.0562
  377MOL0     H51990  10.659   4.055   4.692  0.0125  0.3983  0.7057
  377MOL0     H51991  10.566   4.095   4.556 -0.2548 -3.1636  2.2012
  377MOL0     H51992  10.760   3.991   4.473 -0.9535  0.4980 -1.7915
  377MOL0     H51993  10.777   4.168   4.439 -0.7073  2.2535  1.4554
  377MOL0     H51994  10.910   4.076   4.696  2.6244  1.4577  0.4029
  377MOL0     H51995  10.955   4.184   4.566 -1.9033  0.7747 -2.5515
  377MOL0     H51996  11.025   4.009   4.404  1.0027  3.0150  0.1327
  377MOL0     H51997  10.968   3.891   4.525 -2.9127  2.1546  2.7055
  377MOL0     H51998  11.131   3.987   4.685 -2.3747 -0.7202 -0.2073
  377MOL0     H51999  11.220   3.922   4.548  1.5641  1.2132  1.0808
  377MOL0     H52000  11.186   4.203   4.660  0.7137 -2.0202  1.3139
  377MOL0     H52001  11.169   4.188   4.483 -3.5285 -3.8219 -0.9562
  377MOL0     H52002  11.396   4.057   4.476  2.8644 -0.9095  0.3742
  377MOL0     H52003  11.404   4.084   4.649  1.2630 -2.1073 -1.0375
  377MOL0     H52004  11.548   4.259   4.543 -0.4341  0.1321 -1.9242
  377MOL0     H52005  11.408   4.327   4.627  1.4983  0.5310  0.9909
  377MOL0     H52006  10.446   4.338   4.546 -1.2525 -0.9943 -0.4247
  377MOL0     H52007  10.249   4.457   4.684 -0.5715  1.0315  0.3098
  377MOL0     H52008  10.167   4.859   4.963  0.0270  0.6279 -0.9375
  377MOL0     H52009   9.963   4.981   5.051 -0.5468 -0.8330  2.7983
  377MOL0     H52010   9.366   5.554   6.572  0.7127 -0.3509 -0.4779
  377MOL0     H52011   9.415   5.345   6.694  0.6065 -0.9731 -0.1382
  377MOL0     H52012   9.659   4.897   6.609  0.2101 -1.2466 -0.3199
  377MOL0     H52013   9.748   4.733   6.780 -2.2671 -2.5157  0.8334
  377MOL0     H52014   9.452   4.671   7.087 -2.2737 -0.4899 -2.5719
  377MOL0     H52015   9.515   4.534   6.989 -0.4086  1.1973  0.0269
  377MOL0     H52016   9.612   4.645   7.257 -0.4234  0.7795 -0.1055
  377MOL0     H52017   9.684   4.509   7.184  1.4453  3.6016  0.1343
  377MOL0     H52018   9.383   4.533   7.260  0.2353  0.7553  0.3716
  377MOL0     H52019   9.453   4.378   7.196 -0.1564  1.3864 -1.5151
  377MOL0     H52020   9.411   4.338   7.409 -0.5310  0.3325 -1.9201
  377MOL0     H52021   9.483   4.491   7.466 -0.0568  1.0879 -1.6773
  377MOL0     H52022   9.825   4.293   7.514 -0.2516  1.3325  2.2961
  377MOL0     H52023   9.489   4.911   7.078 -1.6274  1.4827 -0.1388
  377MOL0     H52024   9.438   5.185   6.961 -1.7524  0.6710  1.3768
  377MOL0     H52025   9.310   5.125   6.851  0.6993  2.8834  0.6602
  377MOL0     H52026   9.315   5.071   7.012  0.4169  2.0644  0.9587
  378MOL0     O52027   7.131   6.974  11.037  0.4080  0.8949 -0.1155
  378MOL0     C52028   7.228   6.934  10.980 -1.1032  1.1200 -0.3295
  378MOL0     O52029   7.232   6.861  10.863  0.1363 -0.0901  0.7026
  378MOL0     C52030   7.342   6.876  10.781 -0.2331 -0.0900 -0.3506
  378MOL0     C52031   7.442   6.774  10.756 -1.0412 -0.6859  0.3381
  378MOL0     C52032   7.541   6.802  10.661  0.2313  0.2956 -0.8439
  378MOL0     C52033   7.550   6.937  10.604 -0.4418 -1.0268 -1.5999
  378MOL0     O52034   7.635   6.980  10.511 -0.8716 -0.3120 -0.1273
  378MOL0     C52035   7.752   6.912  10.477 -0.0016  0.0607  0.8774
  378MOL0     C52036   7.719   6.821  10.359 -0.4693  0.2328  0.2662
  378MOL0     C52037   7.736   6.901  10.222 -0.7159 -0.1139 -0.3836
  378MOL0     C52038   7.716   6.804  10.108  0.0063 -0.4038  0.3612
  378MOL0     C52039   7.705   6.880   9.969 -0.3437  0.0070 -0.0303
  378MOL0     C52040   7.664   6.783   9.858 -0.6110 -0.8916 -0.0406
  378MOL0     C52041   7.668   6.856   9.724  2.2222 -0.1357  0.8289
  378MOL0     C52042   7.607   6.768   9.613  0.0473 -0.6259  0.4303
  378MOL0     N52043   7.462   6.805   9.594 -0.5853 -0.3197 -0.0271
  378MOL0     C52044   7.406   6.851   9.480 -0.0037 -0.0715  0.3598
  378MOL0     C52045   7.273   6.851   9.502 -0.4069 -0.0866  0.0480
  378MOL0     C52046   7.157   6.912   9.440  0.5828 -0.7217  0.3083
  378MOL0     C52047   7.096   7.033   9.521 -0.6747  1.0131  0.3611
  378MOL0     C52048   7.191   7.150   9.533  0.2415  0.2403 -0.6583
  378MOL0     C52049   7.221   7.224   9.404 -0.1216  0.9375  0.5063
  378MOL0     O52050   7.358   7.232   9.377  0.3071 -0.0166 -0.0029
  378MOL0     C52051   7.417   7.354   9.349 -0.4159  0.7505  0.5048
  378MOL0     C52052   7.361   7.441   9.259  0.8177  0.3878 -0.1663
  378MOL0     C52053   7.424   7.556   9.222  0.2393  0.4755  0.2950
  378MOL0     C52054   7.348   7.638   9.111 -0.4842  0.0989 -0.4156
  378MOL0     C52055   7.556   7.594   9.274 -0.3778 -0.2358  0.1404
  378MOL0     C52056   7.632   7.716   9.242  0.6525  0.2493 -0.7899
  378MOL0     O52057   7.764   7.699   9.270  0.3385  0.4390  0.2690
  378MOL0     C52058   7.854   7.804   9.238  0.2642 -0.0215 -1.0315
  378MOL0     C52059   7.971   7.821   9.329  0.6942 -0.0535 -1.2364
  378MOL0     C52060   8.061   7.923   9.308  1.0649 -0.3553 -0.4849
  378MOL0     C52061   8.051   8.000   9.190  0.5775  0.3382  0.3765
  378MOL0     O52062   8.138   8.103   9.182 -0.1369  0.1075 -0.4241
  378MOL0     C52063   8.132   8.194   9.067  0.2843  0.9152  0.6284
  378MOL0     C52064   8.215   8.315   9.098 -0.7029 -0.1594  0.2007
  378MOL0     C52065   8.348   8.253   9.136  1.2012  1.0199 -0.4716
  378MOL0     C52066   8.439   8.369   9.183 -0.5302  0.1176 -0.6590
  378MOL0     C52067   8.586   8.323   9.186  0.1042  0.4471  0.3085
  378MOL0     C52068   8.684   8.447   9.179  0.2029  0.2308 -1.2965
  378MOL0     C52069   8.799   8.429   9.277 -0.7993 -0.5813  0.0851
  378MOL0     C52070   8.906   8.535   9.242  0.4496 -0.0884  0.2248
  378MOL0    Cl52071   8.847   8.691   9.298 -0.2372  0.1002 -0.2290
  378MOL0     C52072   7.946   7.970   9.094  0.1809 -0.3071  0.1097
  378MOL0     C52073   7.846   7.881   9.123  0.3323  0.4371  0.2699
  378MOL0     O52074   7.569   7.825   9.225 -0.0725 -0.5590  0.1316
  378MOL0     C52075   7.605   7.507   9.380  0.5207  0.3189 -0.3731
  378MOL0     C52076   7.534   7.392   9.413 -0.7566  1.1105  1.1843
  378MOL0     N52077   7.259   6.792   9.623 -0.5884 -0.8650  0.0558
  378MOL0     N52078   7.368   6.770   9.679 -0.2884 -0.3077 -0.9557
  378MOL0     C52079   7.466   7.038  10.649 -0.3845 -0.4363 -0.1359
  378MOL0     C52080   7.352   7.002  10.714  1.3483 -0.3457 -0.1189
  378MOL0     C52081   7.356   6.973  11.045 -0.3202 -0.3338  0.1917
  378MOL0     C52082   7.436   7.069  11.003 -0.2205  0.0773  0.8275
  378MOL0     C52083   7.562   7.091  11.063  0.1956  0.8087 -0.1658
  378MOL0     C52084   7.602   7.027  11.185  0.4263  0.1067 -0.4251
  378MOL0     O52085   7.717   7.040  11.244  0.4636  0.0542 -0.1519
  378MOL0     C52086   7.810   7.129  11.194 -0.2657 -0.3242  0.0210
  378MOL0     C52087   7.905   7.072  11.099 -0.1850 -1.1212  0.6242
  378MOL0     C52088   8.014   7.164  11.043 -0.1305 -0.6657  0.7148
  378MOL0     C52089   7.979   7.286  10.951 -0.3627 -0.0761 -0.0558
  378MOL0     C52090   7.926   7.239  10.822  0.7109 -0.2520 -1.0086
  378MOL0     C52091   7.886   7.203  10.708  0.9923 -0.7506 -0.7392
  378MOL0     C52092   7.519   6.933  11.238 -0.1424  0.2468  0.1874
  378MOL0     C52093   7.392   6.902  11.172  0.5572  0.0036  0.5105
  378MOL0     C52094   7.298   6.796  11.232 -0.0610  0.9797 -0.4620
  378MOL0     H52095   7.453   6.682  10.812  4.6726 -0.6484 -0.1116
  378MOL0     H52096   7.627   6.735  10.658  1.3132  1.5468  0.4195
  378MOL0     H52097   7.802   6.861  10.559 -1.7997 -0.0100  1.9810
  378MOL0     H52098   7.821   6.989  10.442 -1.3101  0.9111  0.0626
  378MOL0     H52099   7.783   6.733  10.368 -0.6951 -0.6733 -4.6570
  378MOL0     H52100   7.613   6.793  10.359 -1.1089  2.4009  1.2050
  378MOL0     H52101   7.659   6.979  10.215  1.8191  2.5549 -0.2899
  378MOL0     H52102   7.836   6.943  10.220 -0.4714 -0.6154  0.5833
  378MOL0     H52103   7.800   6.735  10.119 -0.8376 -1.1505  2.8138
  378MOL0     H52104   7.618   6.755  10.115  0.8110 -1.9026  2.1026
  378MOL0     H52105   7.797   6.931   9.938 -1.3886  1.4966 -0.7838
  378MOL0     H52106   7.629   6.959   9.973  0.1896  0.4781  1.2273
  378MOL0     H52107   7.734   6.701   9.843 -0.5371 -0.9641  0.6645
  378MOL0     H52108   7.566   6.736   9.869 -0.0663 -2.2472 -0.6911
  378MOL0     H52109   7.772   6.880   9.702  2.0296 -0.6300 -0.7138
  378MOL0     H52110   7.607   6.946   9.736 -0.9007 -2.2308  1.8589
  378MOL0     H52111   7.664   6.792   9.523 -2.4701  0.4791 -0.9768
  378MOL0     H52112   7.616   6.660   9.624 -2.8375 -0.7908  2.1749
  378MOL0     H52113   7.454   6.880   9.387 -2.2285 -2.4140 -1.6657
  378MOL0     H52114   7.080   6.838   9.416  1.0745 -2.2033  2.9200
  378MOL0     H52115   7.194   6.956   9.347 -0.6788 -1.1741 -0.4316
  378MOL0     H52116   7.000   7.067   9.480 -2.2737 -4.4067 -1.2071
  378MOL0     H52117   7.063   6.992   9.617  0.2898  0.5905  0.5202
  378MOL0     H52118   7.150   7.225   9.602 -1.2015 -1.6931  0.6816
  378MOL0     H52119   7.281   7.104   9.576 -1.0326 -2.5705 -0.7962
  378MOL0     H52120   7.169   7.164   9.329  0.2415  1.9558 -0.5875
  378MOL0     H52121   7.188   7.328   9.413  0.8473  1.1109  3.1054
  378MOL0     H52122   7.263   7.419   9.218 -0.5612  2.7652  1.5758
  378MOL0     H52123   7.349   7.745   9.134 -2.4035  0.0103  0.2089
  378MOL0     H52124   7.247   7.598   9.104  0.7009 -2.9591 -2.4328
  378MOL0     H52125   7.387   7.623   9.010  1.3344 -2.0683  0.5253
  378MOL0     H52126   7.980   7.755   9.414  0.8266  2.7076  1.0666
  378MOL0     H52127   8.139   7.943   9.381 -0.3024  1.8219  0.4697
  378MOL0     H52128   8.178   8.140   8.984 -1.1494 -2.8812  2.0683
  378MOL0     H52129   8.030   8.229   9.048 -1.1344 -1.2722  3.3327
  378MOL0     H52130   8.216   8.385   9.014 -0.3016 -2.5980 -1.9537
  378MOL0     H52131   8.169   8.364   9.184  0.5068 -0.6721  1.1772
  378MOL0     H52132   8.377   8.206   9.041 -0.9491 -0.5602 -0.4295
  378MOL0     H52133   8.352   8.167   9.204  0.2086 -0.9963 -2.7810
  378MOL0     H52134   8.405   8.420   9.273  1.0358 -5.0575  3.3893
  378MOL0     H52135   8.431   8.444   9.103  4.5493  0.5459 -1.0919
  378MOL0     H52136   8.602   8.256   9.271 -1.1838  0.6545  0.7306
  378MOL0     H52137   8.602   8.259   9.099  0.3978 -0.4471  1.0001
  378MOL0     H52138   8.625   8.533   9.214  1.8720  0.7826  0.3639
  378MOL0     H52139   8.717   8.463   9.076  2.5506  3.3673 -0.2371
  378MOL0     H52140   8.839   8.327   9.267 -0.3043 -0.2149 -2.4374
  378MOL0     H52141   8.780   8.446   9.383  2.2011 -1.7168  0.9014
  378MOL0     H52142   8.920   8.545   9.134  0.2601  1.8981  0.3548
  378MOL0     H52143   9.000   8.502   9.287  0.7305  1.0081  0.4518
  378MOL0     H52144   7.946   8.032   9.005 -0.2455 -1.4928 -0.7321
  378MOL0     H52145   7.768   7.872   9.048  0.5016  1.5361 -0.0671
  378MOL0     H52146   7.693   7.524   9.442 -0.2636 -1.5172  1.3483
  378MOL0     H52147   7.583   7.336   9.492  2.3942  1.7691 -0.1304
  378MOL0     H52148   7.477   7.136  10.603 -1.6155  0.5066  1.4744
  378MOL0     H52149   7.263   7.063  10.726 -0.8679 -3.1712 -1.0867
  378MOL0     H52150   7.410   7.133  10.920  0.0384 -1.5941 -0.5995
  378MOL0     H52151   7.615   7.174  11.017  1.9897 -0.7900 -1.1599
  378MOL0     H52152   7.768   7.223  11.158 -0.8784 -0.2844  0.7957
  378MOL0     H52153   7.864   7.160  11.284  1.3142 -1.1453 -0.6134
  378MOL0     H52154   7.849   7.041  11.010  0.1373  1.8884 -0.7307
  378MOL0     H52155   7.963   6.994  11.149 -0.6514 -2.4163 -0.8000
  378MOL0     H52156   8.083   7.183  11.126  0.1600 -0.5306  0.4437
  378MOL0     H52157   8.070   7.090  10.985  0.7908  0.1748  0.5025
  378MOL0     H52158   8.073   7.339  10.934  0.4407 -0.9807  1.3648
  378MOL0     H52159   7.909   7.357  10.996 -0.5125 -1.0497  1.3035
  378MOL0     H52160   7.844   7.173  10.615 -1.2654 -0.8339  0.2560
  378MOL0     H52161   7.540   6.873  11.326 -1.7664 -0.8844 -0.1484
  378MOL0     H52162   7.329   6.761  11.331  0.0106 -0.4683 -0.9632
  378MOL0     H52163   7.195   6.834  11.230 -0.7487 -0.7575 -0.1554
  378MOL0     H52164   7.296   6.711  11.163 -0.7915  2.4666 -2.3735
  379MOL0     O52165   6.193   6.533   7.480  0.3997 -1.6629 -0.3294
  379MOL0     C52166   6.159   6.582   7.587  0.6542 -0.7870 -0.0438
  379MOL0     O52167   6.077   6.690   7.604  0.0571  0.3229 -0.0804
  379MOL0     C52168   5.975   6.717   7.516  0.7384  0.1755  0.0890
  379MOL0     C52169   5.982   6.840   7.452  0.2042 -0.6566 -0.0915
  379MOL0     C52170   5.872   6.872   7.361 -0.5620 -0.2552 -0.1973
  379MOL0     C52171   5.779   6.784   7.324 -0.5097  0.2664 -0.2654
  379MOL0     O52172   5.676   6.812   7.233 -0.0731 -0.2735 -0.9915
  379MOL0     C52173   5.660   6.941   7.183 -0.2704  0.6414  0.2909
  379MOL0     C52174   5.552   7.004   7.275  0.2806 -0.3381  0.6269
  379MOL0     C52175   5.497   7.126   7.202  0.2584 -0.2931 -0.5894
  379MOL0     C52176   5.597   7.241   7.183 -0.7064  1.0547 -0.2833
  379MOL0     C52177   5.516   7.355   7.125 -0.2008  0.4818  0.4002
  379MOL0     C52178   5.610   7.470   7.086  0.1263 -1.1373 -0.0419
  379MOL0     C52179   5.639   7.591   7.173  1.0148 -0.4646 -0.4435
  379MOL0     C52180   5.680   7.565   7.315 -1.2318  0.2303  1.0013
  379MOL0     N52181   5.677   7.693   7.385 -0.3928 -0.2703 -0.9967
  379MOL0     C52182   5.790   7.767   7.394  0.2761  0.1272 -0.6347
  379MOL0     C52183   5.754   7.894   7.446 -0.1191 -0.1561  0.5117
  379MOL0     C52184   5.838   8.013   7.401  0.6018 -0.4315 -0.8666
  379MOL0     C52185   5.771   8.102   7.291 -0.5260  0.2287  0.3228
  379MOL0     C52186   5.760   8.013   7.160 -0.8809  0.4880 -0.0276
  379MOL0     C52187   5.727   8.107   7.047 -0.7309 -0.0674 -0.5105
  379MOL0     O52188   5.715   8.050   6.915  0.1407  0.4356 -0.2434
  379MOL0     C52189   5.677   8.146   6.814  0.7322 -0.1165  0.3130
  379MOL0     C52190   5.686   8.104   6.681 -0.4317 -0.5415 -0.0965
  379MOL0     C52191   5.635   8.180   6.576 -0.4594  0.9252  0.4576
  379MOL0     C52192   5.659   8.110   6.447  0.3017 -0.1254 -0.0434
  379MOL0     C52193   5.593   8.310   6.598 -1.3256 -0.2981 -0.2883
  379MOL0     C52194   5.538   8.407   6.497  0.8167 -0.6755  0.2636
  379MOL0     O52195   5.525   8.536   6.541  0.2817 -0.2999 -0.4240
  379MOL0     C52196   5.457   8.635   6.471 -0.2720 -0.1839  0.1283
  379MOL0     C52197   5.408   8.740   6.551 -0.3497 -0.6472 -0.0787
  379MOL0     C52198   5.335   8.844   6.499 -1.2982 -0.3354 -0.0775
  379MOL0     C52199   5.341   8.860   6.357  0.2211 -0.5122 -0.9418
  379MOL0     O52200   5.286   8.970   6.290  0.7291 -0.2910 -0.1799
  379MOL0     C52201   5.269   9.103   6.349  0.5596 -0.3508  0.0854
  379MOL0     C52202   5.119   9.123   6.360 -0.2211 -0.1281  0.0204
  379MOL0     C52203   5.086   9.180   6.493  0.2093  0.1828 -0.5997
  379MOL0     C52204   4.948   9.251   6.495 -0.0133  0.0798  0.6789
  379MOL0     C52205   4.869   9.189   6.616 -0.0863 -0.2746 -0.0816
  379MOL0     C52206   4.724   9.253   6.639  0.3528 -0.4500  0.0142
  379MOL0     C52207   4.666   9.314   6.513 -0.6931  1.0452 -0.6145
  379MOL0     C52208   4.524   9.360   6.513  1.0129 -0.1611  0.0614
  379MOL0    Cl52209   4.426   9.223   6.499  0.3040  0.0158  0.6482
  379MOL0     C52210   5.404   8.763   6.275 -0.5604 -0.0523 -0.9048
  379MOL0     C52211   5.459   8.645   6.334 -0.1172  0.1495  0.3040
  379MOL0     O52212   5.486   8.363   6.397  0.2224 -0.6513 -0.0541
  379MOL0     C52213   5.593   8.353   6.732  1.1867 -0.0512 -0.5623
  379MOL0     C52214   5.637   8.278   6.839 -0.1994 -0.3542  0.5177
  379MOL0     N52215   5.615   7.887   7.459 -0.0715  0.2482 -0.3880
  379MOL0     N52216   5.579   7.764   7.438  0.1207  0.4634  0.5234
  379MOL0     C52217   5.768   6.660   7.391 -0.3896 -0.9784 -0.1422
  379MOL0     C52218   5.868   6.632   7.485 -0.1137  1.1127  0.5578
  379MOL0     C52219   6.220   6.523   7.705 -0.3724 -0.4252  0.1745
  379MOL0     C52220   6.137   6.475   7.809 -1.0774 -0.1300 -1.0638
  379MOL0     C52221   6.191   6.391   7.910 -0.5628  0.2933 -0.0159
  379MOL0     C52222   6.325   6.361   7.906  0.2575  1.0442  0.6132
  379MOL0     O52223   6.395   6.286   8.002  0.6270 -0.5077  0.0150
  379MOL0     C52224   6.314   6.213   8.099 -0.0804  0.0173  0.4257
  379MOL0     C52225   6.268   6.314   8.208 -0.1421 -0.3018  0.1241
  379MOL0     C52226   6.217   6.238   8.331 -0.2636  0.7542  0.0428
  379MOL0     C52227   6.093   6.146   8.304 -0.0896  0.3854 -0.0664
  379MOL0     C52228   5.966   6.227   8.296 -0.6636  0.1065 -0.0874
  379MOL0     C52229   5.855   6.276   8.297 -0.2166  0.0027 -0.1394
  379MOL0     C52230   6.410   6.424   7.812 -0.1517  0.5207 -0.4749
  379MOL0     C52231   6.357   6.505   7.711  0.3637  0.8244 -0.0353
  379MOL0     C52232   6.441   6.575   7.608  0.9627 -0.6508  0.1950
  379MOL0     H52233   6.046   6.926   7.472 -2.8598  1.1327  3.4735
  379MOL0     H52234   5.882   6.976   7.331  3.3833 -0.7242 -1.0245
  379MOL0     H52235   5.620   6.936   7.081  1.6715  1.0159 -0.5320
  379MOL0     H52236   5.752   6.999   7.173  1.7490 -2.0081  1.8881
  379MOL0     H52237   5.461   6.944   7.286  2.3356 -3.5028  1.7392
  379MOL0     H52238   5.592   7.031   7.373  2.0701  0.5944 -0.2959
  379MOL0     H52239   5.451   7.100   7.107 -1.6712  3.3206 -0.8410
  379MOL0     H52240   5.418   7.163   7.268  1.2863 -2.0254  1.7522
  379MOL0     H52241   5.628   7.254   7.288 -1.7040 -5.5836  1.2519
  379MOL0     H52242   5.676   7.234   7.109 -0.2147  0.1625  0.3185
  379MOL0     H52243   5.445   7.391   7.200 -2.8844 -3.0064 -0.1803
  379MOL0     H52244   5.463   7.316   7.037 -2.5297  0.3456  1.7790
  379MOL0     H52245   5.708   7.431   7.055  2.0770  2.3386  1.1783
  379MOL0     H52246   5.556   7.513   7.001 -0.4030  0.2409  0.9590
  379MOL0     H52247   5.548   7.652   7.176  0.9995 -0.4784  2.1570
  379MOL0     H52248   5.709   7.661   7.126 -1.1931  2.5329  0.3692
  379MOL0     H52249   5.602   7.506   7.366  0.1022 -0.6576  2.1038
  379MOL0     H52250   5.776   7.513   7.320  0.3108  1.9277 -4.4933
  379MOL0     H52251   5.889   7.750   7.351  0.1262 -1.5437 -0.3794
  379MOL0     H52252   5.936   7.979   7.366  0.2748 -2.5978  0.1173
  379MOL0     H52253   5.843   8.068   7.495  2.1406  1.2258 -1.8627
  379MOL0     H52254   5.673   8.137   7.324 -1.9163 -2.8672 -0.1166
  379MOL0     H52255   5.833   8.186   7.257  0.9308 -1.1898 -0.7183
  379MOL0     H52256   5.859   7.972   7.140  1.0029  4.1744  0.9395
  379MOL0     H52257   5.682   7.936   7.170 -0.2011 -0.1486  0.5132
  379MOL0     H52258   5.635   8.157   7.078 -0.8288 -0.3465 -0.3463
  379MOL0     H52259   5.806   8.181   7.036 -1.1355  0.1514 -2.2499
  379MOL0     H52260   5.723   8.003   6.665  3.9020  0.7682  0.4516
  379MOL0     H52261   5.563   8.067   6.416 -1.0662  0.4636  3.0395
  379MOL0     H52262   5.746   8.043   6.444  0.3530 -0.0346 -0.8470
  379MOL0     H52263   5.695   8.186   6.378 -1.1944  0.8443  0.2137
  379MOL0     H52264   5.395   8.713   6.655 -0.6971 -0.6204 -0.1143
  379MOL0     H52265   5.291   8.919   6.565 -0.6931 -1.2414  1.4178
  379MOL0     H52266   5.318   9.114   6.446  1.5562  1.5989 -0.5791
  379MOL0     H52267   5.317   9.177   6.284  1.1559  2.1919  3.1509
  379MOL0     H52268   5.090   9.183   6.273  6.6009 -1.8644 -4.2570
  379MOL0     H52269   5.065   9.028   6.358 -0.7390  0.1672 -0.1147
  379MOL0     H52270   5.158   9.254   6.529  0.9639 -0.8221 -0.0016
  379MOL0     H52271   5.102   9.103   6.569 -1.8204  1.1333  0.8936
  379MOL0     H52272   4.895   9.226   6.403 -2.2180 -0.1337  1.9380
  379MOL0     H52273   4.961   9.358   6.512 -1.0599  0.1290  1.2339
  379MOL0     H52274   4.856   9.081   6.607  0.6638 -0.5335  1.5359
  379MOL0     H52275   4.923   9.205   6.710 -1.1719  1.0534  0.3536
  379MOL0     H52276   4.753   9.333   6.707  1.3452 -1.5929  0.9762
  379MOL0     H52277   4.653   9.191   6.694 -0.7118 -0.1950 -1.0278
  379MOL0     H52278   4.672   9.237   6.435 -2.0879 -0.4831  0.7237
  379MOL0     H52279   4.728   9.400   6.486  0.7960  0.5059  0.8831
  379MOL0     H52280   4.497   9.430   6.434 -0.3278 -0.8371 -0.1132
  379MOL0     H52281   4.499   9.412   6.606  1.6749  0.5882 -0.1739
  379MOL0     H52282   5.409   8.778   6.168 -0.1473  0.5599 -0.8060
  379MOL0     H52283   5.507   8.571   6.271 -1.4433 -0.4045 -0.0855
  379MOL0     H52284   5.570   8.456   6.761  0.0717 -0.0231 -1.4548
  379MOL0     H52285   5.652   8.319   6.939 -1.1547 -0.9165  0.9056
  379MOL0     H52286   5.697   6.584   7.363 -0.5063  0.3732 -4.1308
  379MOL0     H52287   5.863   6.530   7.522  0.8771  0.0990 -1.8872
  379MOL0     H52288   6.033   6.502   7.822 -0.9671  0.6955 -1.8239
  379MOL0     H52289   6.122   6.340   7.977 -2.3072 -1.1495 -2.7350
  379MOL0     H52290   6.229   6.167   8.047  1.5238 -5.3910  1.9195
  379MOL0     H52291   6.380   6.139   8.145 -2.3141 -0.8267  2.5186
  379MOL0     H52292   6.190   6.381   8.170 -1.6337 -1.8676  0.3000
  379MOL0     H52293   6.356   6.370   8.243 -0.4610  1.5213 -1.7542
  379MOL0     H52294   6.300   6.179   8.370  0.3031  1.5412  0.0451
  379MOL0     H52295   6.192   6.306   8.414 -1.3068  0.8829 -0.3625
  379MOL0     H52296   6.082   6.083   8.393  0.6137  0.5538  0.1500
  379MOL0     H52297   6.095   6.097   8.206  1.1998  4.9855 -2.6383
  379MOL0     H52298   5.762   6.327   8.279  0.1541  0.9050  0.4288
  379MOL0     H52299   6.519   6.420   7.808 -0.1345  0.7691 -0.2647
  379MOL0     H52300   6.456   6.517   7.516 -0.7733  0.9899 -1.2101
  379MOL0     H52301   6.399   6.670   7.574  1.5127 -0.3984  0.2261
  379MOL0     H52302   6.531   6.600   7.664 -0.5918 -0.2589  2.6869
  380MOL0     O52303   4.102  10.909   5.627  1.0346  0.2645  0.8638
  380MOL0     C52304   3.981  10.904   5.655 -0.4517 -0.0057  0.3478
  380MOL0     O52305   3.914  10.792   5.697 -0.1970  0.4038  0.3633
  380MOL0     C52306   3.972  10.659   5.717  0.5448 -1.0116  0.0653
  380MOL0     C52307   4.089  10.617   5.668  0.7680  0.4467 -0.5430
  380MOL0     C52308   4.138  10.491   5.705  0.1906  0.6730 -0.1122
  380MOL0     C52309   4.055  10.398   5.774 -1.5923 -0.1573 -0.8191
  380MOL0     O52310   4.090  10.266   5.800  0.8811 -1.1219 -0.4380
  380MOL0     C52311   4.200  10.246   5.890 -0.8043  0.1661  0.6601
  380MOL0     C52312   4.210  10.093   5.890 -0.0943  0.2990 -0.6343
  380MOL0     C52313   4.280  10.035   6.015 -1.1722 -0.6008  0.7037
  380MOL0     C52314   4.440  10.067   6.013  0.4932  0.1587  0.6300
  380MOL0     C52315   4.502  10.065   6.148  0.0364 -0.4830  0.1111
  380MOL0     C52316   4.467   9.948   6.237 -0.8524  1.1107  0.4857
  380MOL0     C52317   4.529   9.819   6.186 -0.3483 -1.0041 -0.4226
  380MOL0     C52318   4.491   9.701   6.271 -0.3087 -0.4734 -0.1538
  380MOL0     N52319   4.357   9.661   6.245 -0.7107 -0.7354  0.5060
  380MOL0     C52320   4.319   9.542   6.187 -0.1779 -0.4589  1.2805
  380MOL0     C52321   4.191   9.519   6.212 -0.4149 -0.2104  0.2112
  380MOL0     C52322   4.103   9.403   6.175 -0.6171 -0.1579  0.2886
  380MOL0     C52323   4.158   9.269   6.202  0.7790  0.0033  0.3498
  380MOL0     C52324   4.044   9.166   6.223  0.3825 -0.0275 -0.6960
  380MOL0     C52325   3.955   9.157   6.090  1.2902 -0.1738  0.1668
  380MOL0     O52326   3.884   9.032   6.085 -0.1237  0.2309  0.2571
  380MOL0     C52327   3.748   9.022   6.111  1.1852  0.7535 -0.4201
  380MOL0     C52328   3.681   8.897   6.130 -1.1754 -0.6708 -0.1953
  380MOL0     C52329   3.539   8.887   6.144  0.6502  0.3832  0.5663
  380MOL0     C52330   3.469   8.752   6.121  0.6485 -0.4915 -0.3183
  380MOL0     C52331   3.469   9.005   6.159 -1.2500 -0.4575  0.3506
  380MOL0     C52332   3.323   9.023   6.179 -0.4666  0.0135  0.9953
  380MOL0     O52333   3.280   9.123   6.257  0.2427  0.2911  0.2098
  380MOL0     C52334   3.149   9.167   6.262  0.5018  0.5069  0.1542
  380MOL0     C52335   3.119   9.307   6.283  0.1207 -0.0132 -0.1627
  380MOL0     C52336   2.988   9.347   6.303 -0.0924 -0.6995 -0.4860
  380MOL0     C52337   2.881   9.261   6.324  0.4254 -0.8817  0.5034
  380MOL0     O52338   2.762   9.319   6.363  0.0561 -0.1696  0.3339
  380MOL0     C52339   2.643   9.241   6.401 -0.8839  0.2679 -0.4695
  380MOL0     C52340   2.519   9.325   6.381  0.5755 -0.6917 -0.1436
  380MOL0     C52341   2.527   9.423   6.502 -0.0078 -1.4158  0.4608
  380MOL0     C52342   2.452   9.543   6.472  0.5478 -0.6154  0.0026
  380MOL0     C52343   2.418   9.610   6.602 -0.6317 -0.2546 -0.1223
  380MOL0     C52344   2.539   9.684   6.668 -0.6487  0.4029 -0.4516
  380MOL0     C52345   2.479   9.769   6.773  0.2275  0.1309  0.3758
  380MOL0     C52346   2.589   9.839   6.850 -0.1511 -0.5969  0.0074
  380MOL0    Cl52347   2.685   9.746   6.959  0.4877  0.0938 -0.6437
  380MOL0     C52348   2.911   9.123   6.303 -0.5865  0.6601  0.8298
  380MOL0     C52349   3.037   9.080   6.272 -1.2089  0.2622 -0.4624
  380MOL0     O52350   3.257   8.932   6.124  0.1242 -1.0163 -0.6860
  380MOL0     C52351   3.534   9.128   6.159 -0.1609  0.3435 -0.2331
  380MOL0     C52352   3.667   9.139   6.126 -0.5329  0.5546 -0.0302
  380MOL0     N52353   4.150   9.628   6.280 -0.6364  0.3318 -0.4376
  380MOL0     N52354   4.247   9.714   6.304 -0.2741 -0.0001  0.1173
  380MOL0     C52355   3.927  10.442   5.818 -0.6513 -0.5514  0.0847
  380MOL0     C52356   3.892  10.572   5.788 -0.0629  0.5970 -0.7097
  380MOL0     C52357   3.897  11.035   5.651  0.0196  0.8999  0.5707
  380MOL0     C52358   3.761  11.013   5.663  0.7494 -0.3768  0.3877
  380MOL0     C52359   3.681  11.136   5.663 -0.4907  0.3087  0.0390
  380MOL0     C52360   3.731  11.265   5.647  0.4202  0.9731  0.4122
  380MOL0     O52361   3.637  11.363   5.640  0.7436 -0.3382  0.5873
  380MOL0     C52362   3.657  11.461   5.536 -1.0280  0.0572  0.1948
  380MOL0     C52363   3.545  11.563   5.513 -0.2655  0.0577  0.1837
  380MOL0     C52364   3.427  11.504   5.424 -0.0338 -0.6879  0.0726
  380MOL0     C52365   3.350  11.398   5.507  0.5062  0.2673 -0.2387
  380MOL0     C52366   3.237  11.357   5.426  0.5166  0.3187  0.0306
  380MOL0     C52367   3.144  11.332   5.351  0.7696 -0.8842  0.2451
  380MOL0     C52368   3.863  11.276   5.625  0.1621  0.7877  0.2268
  380MOL0     C52369   3.951  11.160   5.626  0.3017 -0.6483 -0.8167
  380MOL0     C52370   4.095  11.188   5.588 -0.5261 -0.2226  0.3345
  380MOL0     H52371   4.160  10.678   5.613  2.4181 -1.8029 -1.0705
  380MOL0     H52372   4.227  10.463   5.649  0.6774 -1.0788  1.4381
  380MOL0     H52373   4.191  10.282   5.993 -3.3120 -0.9529  0.8945
  380MOL0     H52374   4.281  10.290   5.830 -2.9393 -0.4562 -2.9686
  380MOL0     H52375   4.109  10.053   5.903  0.7891 -1.1685  2.4749
  380MOL0     H52376   4.269  10.067   5.801  1.3214  1.8504 -0.2126
  380MOL0     H52377   4.251  10.083   6.110 -0.6747  1.0109  0.0756
  380MOL0     H52378   4.250   9.930   6.007 -0.0950 -0.7816 -2.1170
  380MOL0     H52379   4.499   9.999   5.951  1.2143  1.1786  0.1681
  380MOL0     H52380   4.461  10.165   5.970 -1.1239 -0.5347 -1.9674
  380MOL0     H52381   4.456  10.148   6.203 -0.7540  0.0177 -1.2792
  380MOL0     H52382   4.611  10.071   6.141 -0.1099  2.3168 -0.7716
  380MOL0     H52383   4.505   9.972   6.337 -0.2116  1.2634  0.2087
  380MOL0     H52384   4.358   9.938   6.244 -0.9884  1.1308 -1.2937
  380MOL0     H52385   4.638   9.831   6.186 -0.2568 -0.4321  3.9462
  380MOL0     H52386   4.500   9.795   6.083 -1.6510  0.8194 -0.5349
  380MOL0     H52387   4.558   9.620   6.241  1.4890  1.7913 -2.7738
  380MOL0     H52388   4.508   9.720   6.378 -0.1388  1.0352 -0.4170
  380MOL0     H52389   4.387   9.484   6.126 -0.6931  0.3521 -0.1131
  380MOL0     H52390   4.084   9.415   6.068  4.2548  2.0358 -0.6216
  380MOL0     H52391   4.012   9.414   6.234 -2.0149 -3.0858 -1.0894
  380MOL0     H52392   4.227   9.228   6.128  0.3685 -1.7517  0.8983
  380MOL0     H52393   4.219   9.277   6.293  0.3785 -2.4287  0.8942
  380MOL0     H52394   4.088   9.067   6.240  3.2524  1.6818  3.7396
  380MOL0     H52395   3.988   9.193   6.313  3.8843  3.4492  0.7107
  380MOL0     H52396   3.898   9.250   6.076  2.0642 -0.2389 -5.0804
  380MOL0     H52397   4.019   9.168   6.003  1.1822  2.9055  0.3687
  380MOL0     H52398   3.737   8.805   6.118 -0.7889 -0.1253 -3.8569
  380MOL0     H52399   3.541   8.675   6.094 -3.1102 -2.6976 -5.7868
  380MOL0     H52400   3.397   8.770   6.041 -1.7529  0.0007  1.7984
  380MOL0     H52401   3.404   8.722   6.204  0.2758  2.6782  0.6729
  380MOL0     H52402   3.204   9.375   6.287  1.6747 -1.8718 -0.2869
  380MOL0     H52403   2.963   9.452   6.308  2.7349 -0.0185  2.9552
  380MOL0     H52404   2.647   9.157   6.331 -1.1395 -0.9343  0.9223
  380MOL0     H52405   2.637   9.208   6.504 -0.8826  0.7733 -0.3023
  380MOL0     H52406   2.508   9.371   6.282 -1.8774 -3.5799 -1.3660
  380MOL0     H52407   2.439   9.253   6.396  0.2095 -0.2143  0.2099
  380MOL0     H52408   2.626   9.463   6.525 -0.5883 -0.9467  2.3534
  380MOL0     H52409   2.501   9.384   6.601  1.0357  1.4971  1.9731
  380MOL0     H52410   2.358   9.526   6.418  0.6249  0.9533 -0.6929
  380MOL0     H52411   2.506   9.616   6.411  0.5111  3.0039  3.8718
  380MOL0     H52412   2.342   9.682   6.570 -1.0914 -0.0284  1.3973
  380MOL0     H52413   2.363   9.549   6.674  0.4826  0.4651  1.3979
  380MOL0     H52414   2.594   9.749   6.599 -1.1279  1.2895 -0.0174
  380MOL0     H52415   2.611   9.614   6.712  3.4092  2.7263 -2.7510
  380MOL0     H52416   2.418   9.709   6.842 -0.7837 -0.0748 -0.6689
  380MOL0     H52417   2.406   9.837   6.729  1.3575  1.5124  0.5767
  380MOL0     H52418   2.544   9.919   6.911 -0.4051 -1.1631  0.5690
  380MOL0     H52419   2.651   9.898   6.782  2.2627  1.4502  3.6071
  380MOL0     H52420   2.839   9.048   6.333  2.3645 -1.8666  2.0909
  380MOL0     H52421   3.066   8.975   6.268 -1.7193  0.1222 -0.4886
  380MOL0     H52422   3.488   9.225   6.174  0.4497  0.7738 -1.0610
  380MOL0     H52423   3.709   9.238   6.117  0.2145  0.2832  0.4177
  380MOL0     H52424   3.864  10.381   5.882 -1.2947  1.5650  1.5928
  380MOL0     H52425   3.794  10.595   5.828  0.5192  0.3371  0.9307
  380MOL0     H52426   3.703  10.920   5.665 -3.3626  1.9282 -0.0048
  380MOL0     H52427   3.573  11.133   5.654 -0.6198  1.0848  1.0694
  380MOL0     H52428   3.743  11.516   5.574  0.3663 -2.5492  1.1236
  380MOL0     H52429   3.700  11.417   5.445  2.4068  2.5846  0.3724
  380MOL0     H52430   3.591  11.651   5.468  1.7170 -0.1862  1.5870
  380MOL0     H52431   3.502  11.584   5.612  2.5983  3.4913  0.9054
  380MOL0     H52432   3.358  11.580   5.387  1.4445 -0.4528 -2.4973
  380MOL0     H52433   3.474  11.459   5.336 -1.8298 -2.3074 -0.1180
  380MOL0     H52434   3.322  11.447   5.600 -1.7379  2.6913 -2.0396
  380MOL0     H52435   3.419  11.318   5.533  1.5304  1.7964  2.0094
  380MOL0     H52436   3.062  11.322   5.283  2.2503 -0.3212 -1.7341
  380MOL0     H52437   3.913  11.368   5.597 -0.4725  0.8618 -0.7192
  380MOL0     H52438   4.118  11.292   5.561  1.8975 -1.3836 -2.7501
  380MOL0     H52439   4.170  11.158   5.661  0.4156 -0.1975 -0.5888
  380MOL0     H52440   4.124  11.122   5.506  1.0788 -0.6309  1.1950
  381MOL0     O52441   3.536   6.230   6.626 -0.4313 -0.4537 -0.4445
  381MOL0     C52442   3.420   6.251   6.645 -0.3907 -0.9286  0.3753
  381MOL0     O52443   3.319   6.154   6.640 -0.1097  0.6838  0.0935
  381MOL0     C52444   3.344   6.042   6.568 -0.4169 -0.3116 -0.2483
  381MOL0     C52445   3.328   5.907   6.614  0.1272 -1.0101  0.5768
  381MOL0     C52446   3.339   5.798   6.531 -0.1060 -0.2182 -0.5577
  381MOL0     C52447   3.368   5.824   6.393  0.2391 -0.4087 -0.4509
  381MOL0     O52448   3.355   5.721   6.303 -0.5215  0.5593 -0.7006
  381MOL0     C52449   3.398   5.596   6.343 -0.4040 -0.2505  0.2372
  381MOL0     C52450   3.466   5.534   6.220  0.2999 -0.2177 -0.0729
  381MOL0     C52451   3.561   5.627   6.136 -0.0023 -0.1860 -0.2896
  381MOL0     C52452   3.632   5.532   6.037  0.9134  0.5625  0.7102
  381MOL0     C52453   3.766   5.593   5.976  0.8202 -0.3146 -0.1986
  381MOL0     C52454   3.884   5.590   6.067 -0.5779  0.6646  0.2478
  381MOL0     C52455   3.993   5.681   6.032  1.2623 -0.9092 -0.8471
  381MOL0     C52456   4.093   5.634   5.925  0.2264 -1.1739  0.0298
  381MOL0     N52457   4.154   5.501   5.944 -0.2869 -0.2997  0.0158
  381MOL0     C52458   4.217   5.470   6.065  0.1769 -0.4910 -0.3005
  381MOL0     C52459   4.259   5.348   6.041 -0.2813  0.4036 -0.3506
  381MOL0     C52460   4.351   5.269   6.138  0.0849 -0.7029 -0.1285
  381MOL0     C52461   4.287   5.138   6.192  0.3827  0.5998 -0.7829
  381MOL0     C52462   4.175   5.157   6.298  0.7012 -0.2062  0.4830
  381MOL0     C52463   4.027   5.194   6.259  0.0411  0.0766  0.1103
  381MOL0     O52464   3.941   5.197   6.375  0.0685  0.4771 -0.3184
  381MOL0     C52465   3.943   5.284   6.469 -0.6098 -0.5081 -0.9867
  381MOL0     C52466   4.027   5.395   6.485 -0.1431 -1.4775 -0.5167
  381MOL0     C52467   4.059   5.453   6.615 -0.0614 -0.5884  0.2687
  381MOL0     C52468   4.180   5.536   6.624  0.0058 -0.2819 -0.1369
  381MOL0     C52469   3.979   5.405   6.728 -0.2721  0.2526  0.8723
  381MOL0     C52470   4.014   5.454   6.863  0.9303 -1.2145 -0.2628
  381MOL0     O52471   4.031   5.591   6.875  0.6524  0.0328 -0.3842
  381MOL0     C52472   4.057   5.634   7.001  0.2381  1.8110 -0.0228
  381MOL0     C52473   4.186   5.667   7.029  0.6840  0.1150  0.3763
  381MOL0     C52474   4.224   5.715   7.154  0.1320 -0.3714 -1.0131
  381MOL0     C52475   4.126   5.736   7.251 -0.0149  0.2546 -0.4114
  381MOL0     O52476   4.158   5.779   7.378 -0.5653  0.0651 -0.1180
  381MOL0     C52477   4.190   5.672   7.466 -0.2809  0.5554 -0.1502
  381MOL0     C52478   4.335   5.622   7.450  0.0327 -0.1102  0.1191
  381MOL0     C52479   4.363   5.504   7.549 -0.0279 -0.5137  1.1544
  381MOL0     C52480   4.328   5.372   7.483  0.5956 -0.2731  0.9264
  381MOL0     C52481   4.347   5.250   7.578  1.2683  0.0910  0.1585
  381MOL0     C52482   4.318   5.117   7.501 -0.3492 -0.0258  1.1259
  381MOL0     C52483   4.342   5.003   7.603  0.2072 -0.2121  0.0441
  381MOL0     C52484   4.302   4.874   7.560  0.5145  0.3697  0.5704
  381MOL0    Cl52485   4.137   4.882   7.520  0.2357 -0.1558  0.4342
  381MOL0     C52486   3.995   5.684   7.223  0.5319 -0.5393  0.7365
  381MOL0     C52487   3.959   5.645   7.096  0.7193  0.5017 -0.0002
  381MOL0     O52488   4.031   5.367   6.943 -0.4566  0.0133 -0.8647
  381MOL0     C52489   3.896   5.299   6.718  0.1701 -1.0793  0.6391
  381MOL0     C52490   3.875   5.248   6.590 -0.1061  0.5898  0.2920
  381MOL0     N52491   4.209   5.301   5.916  0.6753  0.3483 -1.0003
  381MOL0     N52492   4.152   5.397   5.858 -0.7869 -0.0991 -0.2696
  381MOL0     C52493   3.393   5.956   6.350  0.6990 -0.1798 -0.4181
  381MOL0     C52494   3.382   6.068   6.435  0.1255  0.4580 -0.4831
  381MOL0     C52495   3.385   6.373   6.710 -1.2359 -0.7992 -0.4147
  381MOL0     C52496   3.448   6.417   6.831  0.4292  1.2200 -0.4822
  381MOL0     C52497   3.423   6.537   6.890  0.4118  0.2707 -0.2387
  381MOL0     C52498   3.334   6.620   6.845 -0.2600 -0.1205  0.6116
  381MOL0     O52499   3.307   6.728   6.933 -0.5052  0.7390  0.4481
  381MOL0     C52500   3.186   6.791   6.912 -0.5375  0.0141  0.3559
  381MOL0     C52501   3.161   6.889   7.026 -1.3320 -0.1169  0.1872
  381MOL0     C52502   3.168   7.035   6.971  0.3414 -0.5019  0.4718
  381MOL0     C52503   3.303   7.077   7.003  0.0536 -0.1731 -0.0105
  381MOL0     C52504   3.321   7.113   7.143  0.3288 -0.3086  0.0429
  381MOL0     C52505   3.329   7.158   7.256  0.3735 -0.9619 -0.1799
  381MOL0     C52506   3.258   6.580   6.726  0.0333  0.5532 -0.5049
  381MOL0     C52507   3.274   6.457   6.666 -0.3230  0.6780 -0.4951
  381MOL0     C52508   3.170   6.422   6.557 -0.0540  0.3006 -0.0095
  381MOL0     H52509   3.299   5.882   6.716 -0.3098 -1.7235  0.2822
  381MOL0     H52510   3.335   5.697   6.571  1.2995 -1.5939 -3.5728
  381MOL0     H52511   3.312   5.541   6.382  0.0885 -1.4957 -0.3752
  381MOL0     H52512   3.477   5.596   6.418  0.2129  0.6570 -0.3912
  381MOL0     H52513   3.525   5.452   6.261  1.0742  1.0314  1.4533
  381MOL0     H52514   3.387   5.491   6.157  0.4118  2.2824 -2.1000
  381MOL0     H52515   3.526   5.703   6.066 -0.4055 -1.3077 -1.3365
  381MOL0     H52516   3.633   5.657   6.213 -0.6863 -1.8879  1.0820
  381MOL0     H52517   3.656   5.438   6.086  1.6423  0.7078  0.6450
  381MOL0     H52518   3.561   5.519   5.954 -1.1321  0.1789  2.4324
  381MOL0     H52519   3.744   5.699   5.955 -0.1135 -0.6877 -1.2126
  381MOL0     H52520   3.800   5.544   5.884 -0.5029  0.0149 -0.8965
  381MOL0     H52521   3.845   5.623   6.164 -1.2865 -1.4544  0.7504
  381MOL0     H52522   3.907   5.485   6.090  0.2614  0.8923  0.4835
  381MOL0     H52523   4.039   5.703   6.129  0.5735 -2.9410 -0.0016
  381MOL0     H52524   3.951   5.777   6.003 -1.7117 -1.6513  0.5959
  381MOL0     H52525   4.063   5.645   5.821  0.6755 -2.3923 -0.2393
  381MOL0     H52526   4.180   5.700   5.936 -0.7542  1.3093 -4.4403
  381MOL0     H52527   4.230   5.531   6.155  1.1234 -0.1896 -0.6292
  381MOL0     H52528   4.375   5.327   6.227  1.8851 -1.1652 -0.2694
  381MOL0     H52529   4.445   5.250   6.086  0.8983 -2.6032  1.8746
  381MOL0     H52530   4.249   5.083   6.106 -0.9261  1.1211 -0.5651
  381MOL0     H52531   4.369   5.085   6.241 -0.1689  0.7774  0.3966
  381MOL0     H52532   4.157   5.062   6.349 -2.4321 -2.0189 -3.4209
  381MOL0     H52533   4.199   5.230   6.375  0.1756 -1.0041  1.4194
  381MOL0     H52534   4.033   5.287   6.202  1.3137 -2.1763 -3.8375
  381MOL0     H52535   3.998   5.124   6.180 -1.8849 -0.9077  1.5942
  381MOL0     H52536   4.070   5.442   6.397 -0.1858  2.8761  1.5352
  381MOL0     H52537   4.151   5.627   6.570 -2.4806  0.4631  2.2289
  381MOL0     H52538   4.271   5.489   6.586 -0.3107 -2.1031  1.2462
  381MOL0     H52539   4.201   5.563   6.728 -1.2497 -0.8434  0.2778
  381MOL0     H52540   4.260   5.641   6.953 -0.7170  2.5277 -2.0003
  381MOL0     H52541   4.329   5.735   7.176 -0.5091  0.5266  1.5928
  381MOL0     H52542   4.177   5.709   7.568  0.3602  1.8071 -0.5052
  381MOL0     H52543   4.120   5.590   7.447 -0.0964  0.9486 -3.0036
  381MOL0     H52544   4.360   5.584   7.351  0.1145  0.6282 -0.1535
  381MOL0     H52545   4.401   5.707   7.473 -0.7675  0.7113 -0.5257
  381MOL0     H52546   4.315   5.524   7.646  1.7238  1.8371  1.6265
  381MOL0     H52547   4.471   5.495   7.558  0.4737  2.7269 -0.4065
  381MOL0     H52548   4.375   5.358   7.386  0.1269  1.1983  0.4569
  381MOL0     H52549   4.219   5.380   7.473  0.2221  0.9295  4.3345
  381MOL0     H52550   4.449   5.262   7.615  0.6286  3.3551  1.1364
  381MOL0     H52551   4.274   5.247   7.659  2.8830 -3.8772  1.7735
  381MOL0     H52552   4.392   5.114   7.420 -1.2075 -1.2156  0.3677
  381MOL0     H52553   4.219   5.125   7.457 -0.6847 -1.2166  1.6307
  381MOL0     H52554   4.283   5.032   7.690 -1.1805  0.4151 -1.0803
  381MOL0     H52555   4.450   5.006   7.623  0.3446 -1.7564 -0.3068
  381MOL0     H52556   4.329   4.801   7.637  2.9923  0.0372 -0.5209
  381MOL0     H52557   4.349   4.835   7.469 -2.9224 -5.0587  0.6972
  381MOL0     H52558   3.921   5.677   7.302  1.4557 -2.3373  1.5053
  381MOL0     H52559   3.854   5.631   7.071  1.0459  0.6276 -1.5179
  381MOL0     H52560   3.848   5.235   6.791 -0.1170 -1.6499 -0.0339
  381MOL0     H52561   3.829   5.150   6.586  1.4125 -0.1863  0.8629
  381MOL0     H52562   3.398   5.955   6.241 -2.4153  0.2999 -0.6367
  381MOL0     H52563   3.390   6.169   6.396  0.9153  1.5914  2.3228
  381MOL0     H52564   3.514   6.350   6.886  0.8118  1.7696 -0.2601
  381MOL0     H52565   3.477   6.563   6.980 -0.9942  0.2002  0.6554
  381MOL0     H52566   3.182   6.843   6.816  0.9184  2.8744  1.7100
  381MOL0     H52567   3.107   6.716   6.923 -0.8167  0.5473  2.5030
  381MOL0     H52568   3.234   6.861   7.102 -0.7230  2.0626  0.4590
  381MOL0     H52569   3.061   6.865   7.063 -0.5007 -3.2531  0.6930
  381MOL0     H52570   3.151   7.041   6.863  0.9672 -1.2572  0.3264
  381MOL0     H52571   3.096   7.102   7.019  2.1778  0.9096  1.3719
  381MOL0     H52572   3.335   7.163   6.942  3.8787 -1.0936  0.3959
  381MOL0     H52573   3.375   6.996   6.985  1.8662  1.3242  0.1917
  381MOL0     H52574   3.334   7.178   7.361 -2.0852 -0.3010 -0.1184
  381MOL0     H52575   3.176   6.644   6.695 -1.9668 -0.4051  2.3481
  381MOL0     H52576   3.187   6.507   6.490  2.2882  1.6967  2.1530
  381MOL0     H52577   3.191   6.332   6.499 -1.9251  0.5894 -1.2224
  381MOL0     H52578   3.071   6.419   6.602 -0.6724 -0.8388 -1.3651
  382MOL0     O52579   6.905   7.160   5.599  0.2049 -0.4880 -0.2743
  382MOL0     C52580   6.950   7.268   5.627  0.0512 -0.6095  0.0251
  382MOL0     O52581   7.056   7.282   5.721 -0.3338  0.7299  0.2467
  382MOL0     C52582   7.082   7.190   5.824  0.5978  0.1338 -0.9673
  382MOL0     C52583   7.003   7.076   5.853  0.6305  1.1062  0.3575
  382MOL0     C52584   7.043   6.977   5.948  0.3623 -0.5162 -0.1379
  382MOL0     C52585   7.159   6.995   6.018  0.2237  0.4190  0.2225
  382MOL0     O52586   7.190   6.905   6.113 -0.2557 -0.0734  0.0791
  382MOL0     C52587   7.208   6.948   6.248  0.0433 -0.8081  0.0151
  382MOL0     C52588   7.236   6.827   6.352  0.4256  1.0789 -0.3876
  382MOL0     C52589   7.224   6.852   6.505  0.0457 -0.1214 -0.5582
  382MOL0     C52590   7.076   6.852   6.553 -0.3322 -0.2343 -0.3001
  382MOL0     C52591   7.064   6.843   6.709  0.0779  0.3764  0.1474
  382MOL0     C52592   6.919   6.883   6.754  0.5351 -1.0543  0.0598
  382MOL0     C52593   6.909   7.013   6.826  0.9857 -0.2002  0.0225
  382MOL0     C52594   6.924   7.134   6.733 -0.4633 -0.3988 -0.4188
  382MOL0     N52595   6.813   7.172   6.640  0.3873 -0.6970  0.1484
  382MOL0     C52596   6.679   7.185   6.677  0.9950  0.3851  0.5652
  382MOL0     C52597   6.616   7.196   6.552 -0.2597 -0.3960 -0.4767
  382MOL0     C52598   6.463   7.196   6.553 -0.2576  0.8133  0.1614
  382MOL0     C52599   6.409   7.067   6.506  0.7716 -0.8564  0.1324
  382MOL0     C52600   6.263   7.085   6.454 -0.1158 -0.6366  0.8608
  382MOL0     C52601   6.264   7.103   6.303 -1.2576  0.7580 -0.4174
  382MOL0     O52602   6.128   7.082   6.263  0.6883 -0.0131  0.2531
  382MOL0     C52603   6.097   7.068   6.138 -0.1217  0.4737 -1.5478
  382MOL0     C52604   6.184   7.041   6.033  0.4898 -0.9139 -0.2897
  382MOL0     C52605   6.121   7.035   5.898 -0.9514 -0.2670 -0.1735
  382MOL0     C52606   6.206   7.009   5.779  0.9790  0.2193  1.0030
  382MOL0     C52607   5.980   7.046   5.877  0.8014  0.0120  0.0867
  382MOL0     C52608   5.899   7.043   5.742  0.6464 -0.8384  0.0862
  382MOL0     O52609   5.762   7.063   5.756  0.3670 -0.0953 -0.8046
  382MOL0     C52610   5.685   7.053   5.642 -0.4587  0.6359  0.5271
  382MOL0     C52611   5.607   7.156   5.586 -0.7022  0.4854 -0.2962
  382MOL0     C52612   5.525   7.124   5.479  0.2074 -0.1490  0.8701
  382MOL0     C52613   5.519   6.997   5.410  0.7827  0.0469 -0.9963
  382MOL0     O52614   5.436   6.975   5.299  0.3994 -0.1759  0.1913
  382MOL0     C52615   5.370   7.086   5.233  0.1031 -0.6568 -0.3706
  382MOL0     C52616   5.246   7.040   5.152  0.3295 -0.6049  0.7606
  382MOL0     C52617   5.282   6.987   5.014 -0.4626 -0.3795  1.0218
  382MOL0     C52618   5.176   6.900   4.955  0.5462  0.1226  0.3169
  382MOL0     C52619   5.228   6.807   4.853  0.1165 -0.4649 -0.3366
  382MOL0     C52620   5.222   6.883   4.714  1.4713 -0.7969 -0.5526
  382MOL0     C52621   5.278   6.790   4.613 -0.1695  0.7031  0.8479
  382MOL0     C52622   5.345   6.860   4.498  0.1132  0.0479  0.0953
  382MOL0    Cl52623   5.497   6.959   4.540  0.2489  0.1616  0.1518
  382MOL0     C52624   5.601   6.898   5.470  0.7660 -0.4577  0.2417
  382MOL0     C52625   5.690   6.924   5.577  0.1838 -0.2432 -0.3436
  382MOL0     O52626   5.956   7.013   5.640 -1.0344 -0.0121 -0.3338
  382MOL0     C52627   5.905   7.058   5.994  0.6898 -0.5363 -0.4756
  382MOL0     C52628   5.956   7.059   6.119  0.1641  1.0320 -0.2413
  382MOL0     N52629   6.704   7.194   6.449 -0.0575  0.4410 -0.3047
  382MOL0     N52630   6.827   7.180   6.503  0.7142  1.2325  0.5931
  382MOL0     C52631   7.235   7.109   6.000 -0.3366 -1.1194 -0.7878
  382MOL0     C52632   7.202   7.202   5.904  0.4217  0.0226  1.2205
  382MOL0     C52633   6.912   7.393   5.552 -0.6605  0.4499 -0.6415
  382MOL0     C52634   6.977   7.517   5.572  0.3321 -0.5171 -0.5181
  382MOL0     C52635   6.943   7.638   5.508 -0.1704  0.2286  0.0599
  382MOL0     C52636   6.832   7.633   5.415 -0.4857 -0.0743  0.0899
  382MOL0     O52637   6.758   7.732   5.347 -0.1929  0.0787  0.1627
  382MOL0     C52638   6.800   7.872   5.369  1.4404  0.6318  1.2949
  382MOL0     C52639   6.677   7.966   5.379 -0.4416 -0.6087  0.1379
  382MOL0     C52640   6.720   8.113   5.386  0.2991 -0.1090 -1.0539
  382MOL0     C52641   6.591   8.198   5.418  0.1836  0.1866 -0.3930
  382MOL0     C52642   6.610   8.338   5.375  0.2434  0.6602 -0.2648
  382MOL0     C52643   6.647   8.453   5.359  0.9873 -0.5509  0.3189
  382MOL0     C52644   6.770   7.505   5.396 -0.2486 -0.7662  0.1240
  382MOL0     C52645   6.811   7.387   5.459 -0.4379 -0.8509  0.4947
  382MOL0     C52646   6.739   7.261   5.402 -0.4321  0.5097 -0.7110
  382MOL0     H52647   6.907   7.058   5.808  0.4199 -0.5642  1.3965
  382MOL0     H52648   6.967   6.902   5.969 -0.9295  0.7593 -0.0420
  382MOL0     H52649   7.118   7.001   6.279  2.4650  2.1221  2.6164
  382MOL0     H52650   7.287   7.023   6.248 -1.1399  0.5491 -2.0578
  382MOL0     H52651   7.169   6.747   6.320  1.0711 -0.8678  2.7261
  382MOL0     H52652   7.340   6.803   6.328 -0.3587 -0.5935 -2.3959
  382MOL0     H52653   7.280   6.779   6.564  0.3319  3.4768  4.1377
  382MOL0     H52654   7.270   6.950   6.521  2.2840 -0.6837 -2.7410
  382MOL0     H52655   7.013   6.929   6.508  1.4825  1.7297  0.3331
  382MOL0     H52656   7.027   6.764   6.509  2.2740 -2.6965  1.3374
  382MOL0     H52657   7.136   6.913   6.752 -0.6646  0.9554  0.4677
  382MOL0     H52658   7.087   6.743   6.747  0.3204 -0.1983 -1.4182
  382MOL0     H52659   6.859   6.897   6.663  0.7262  0.4591  0.1514
  382MOL0     H52660   6.875   6.805   6.818  0.1474  0.4775  1.7323
  382MOL0     H52661   6.983   7.016   6.906  3.2086 -0.1680 -1.9464
  382MOL0     H52662   6.811   7.023   6.874 -0.9310 -1.7172 -3.2090
  382MOL0     H52663   6.937   7.220   6.799  1.4375 -0.9381 -0.0405
  382MOL0     H52664   7.017   7.133   6.676  0.0578 -1.5459  0.4143
  382MOL0     H52665   6.624   7.175   6.770 -1.6609  2.6513 -0.6356
  382MOL0     H52666   6.417   7.278   6.497  0.4990  1.5482  0.5879
  382MOL0     H52667   6.417   7.210   6.651 -2.2937 -0.1006 -0.6110
  382MOL0     H52668   6.474   7.023   6.430  0.8677 -0.3014 -0.1106
  382MOL0     H52669   6.396   6.993   6.586  4.9755  0.7460  2.6029
  382MOL0     H52670   6.197   7.006   6.490  1.8345 -1.2340  3.4506
  382MOL0     H52671   6.214   7.178   6.483  3.7343  2.7693 -2.3027
  382MOL0     H52672   6.323   7.193   6.286 -0.0104  0.1266  0.3611
  382MOL0     H52673   6.325   7.021   6.264 -1.3074  0.0598  0.9017
  382MOL0     H52674   6.292   7.043   6.042  0.4441 -0.4019  0.2318
  382MOL0     H52675   6.198   7.094   5.710  1.6446 -0.7916 -0.3644
  382MOL0     H52676   6.173   6.924   5.719 -2.6128 -0.3056  3.3994
  382MOL0     H52677   6.310   6.994   5.807  1.0160 -1.0824  0.2710
  382MOL0     H52678   5.599   7.255   5.629 -3.2055  0.7131 -1.1891
  382MOL0     H52679   5.473   7.213   5.446  0.6613  0.7594  2.4530
  382MOL0     H52680   5.336   7.157   5.309 -3.7213 -0.1088 -2.3452
  382MOL0     H52681   5.441   7.145   5.175  0.8584  0.2031  1.3366
  382MOL0     H52682   5.186   6.973   5.215 -0.2539  0.0623  0.9275
  382MOL0     H52683   5.186   7.127   5.123  1.6006  0.2424  0.6072
  382MOL0     H52684   5.372   6.928   5.032  0.9976  1.7759  1.1522
  382MOL0     H52685   5.302   7.073   4.950 -0.3407 -0.2661  1.2102
  382MOL0     H52686   5.086   6.954   4.923  0.2103 -1.7815 -2.2377
  382MOL0     H52687   5.155   6.844   5.046  0.2827  0.4084  0.4352
  382MOL0     H52688   5.330   6.770   4.868  0.3039 -0.4266 -1.4408
  382MOL0     H52689   5.155   6.725   4.850 -4.3256  3.1039 -0.7676
  382MOL0     H52690   5.287   6.971   4.715  0.3918  0.2411 -4.1826
  382MOL0     H52691   5.121   6.918   4.690  2.2247 -0.4342 -3.6059
  382MOL0     H52692   5.209   6.718   4.568  1.4434 -0.2986 -0.1232
  382MOL0     H52693   5.360   6.731   4.655  0.0080 -1.6754 -2.4327
  382MOL0     H52694   5.271   6.927   4.453 -0.1865 -0.8034 -0.7401
  382MOL0     H52695   5.378   6.778   4.433  0.9023 -0.9121  1.6454
  382MOL0     H52696   5.608   6.797   5.431 -3.3075 -0.2526 -1.5239
  382MOL0     H52697   5.748   6.836   5.602 -2.7551 -2.7794 -1.8260
  382MOL0     H52698   5.798   7.043   5.998  0.9341 -2.1643  1.2340
  382MOL0     H52699   5.894   7.078   6.206  0.5529  0.5668  0.1459
  382MOL0     H52700   7.325   7.115   6.060  0.0224  0.2791 -1.4127
  382MOL0     H52701   7.267   7.288   5.890  1.6864 -0.8494  1.5358
  382MOL0     H52702   7.063   7.520   5.638 -1.3794 -1.3590  1.9058
  382MOL0     H52703   7.004   7.725   5.527  1.9533 -1.4004  1.1172
  382MOL0     H52704   6.866   7.893   5.453  2.4422  0.9335  0.4555
  382MOL0     H52705   6.854   7.902   5.278  2.0280 -2.8813  0.3407
  382MOL0     H52706   6.638   7.947   5.479  2.7823 -0.9178  1.4756
  382MOL0     H52707   6.602   7.952   5.302 -0.0163 -1.4248 -0.1449
  382MOL0     H52708   6.790   8.110   5.470 -0.1298  0.8575 -0.6386
  382MOL0     H52709   6.763   8.135   5.288  2.2188  0.1325 -0.2074
  382MOL0     H52710   6.559   8.204   5.523  0.6612  0.7243 -0.2751
  382MOL0     H52711   6.503   8.163   5.362  1.2061  0.3491 -2.1720
  382MOL0     H52712   6.679   8.555   5.362 -3.6458  1.1321 -0.0045
  382MOL0     H52713   6.669   7.500   5.356 -0.1941  2.4338 -0.7333
  382MOL0     H52714   6.803   7.174   5.383 -1.4813 -0.7739  1.3479
  382MOL0     H52715   6.664   7.239   5.479  2.3860 -3.2695  1.3402
  382MOL0     H52716   6.687   7.296   5.312 -1.1417 -0.4073 -0.6713
  383MOL0     O52717   9.251   9.582   7.081 -0.1301 -0.7919  0.7007
  383MOL0     C52718   9.176   9.681   7.089  0.6336  0.2241  0.4727
  383MOL0     O52719   9.213   9.804   7.140 -0.3282  0.3923  0.2225
  383MOL0     C52720   9.317   9.812   7.223  0.2351 -0.5966 -1.2684
  383MOL0     C52721   9.445   9.762   7.209  0.8569 -0.3725  0.1408
  383MOL0     C52722   9.539   9.798   7.299 -0.2054 -0.3431 -0.0167
  383MOL0     C52723   9.520   9.895   7.395 -0.2070  1.0431  0.6433
  383MOL0     O52724   9.633   9.931   7.466  0.6154  0.3769  0.2656
  383MOL0     C52725   9.627  10.017   7.582  0.4368 -0.2342  0.6179
  383MOL0     C52726   9.765   9.998   7.657 -0.8861 -0.3511  0.1736
  383MOL0     C52727   9.890  10.062   7.581 -0.4360  0.5451  0.2797
  383MOL0     C52728   9.873  10.215   7.570 -0.5753 -0.3069  0.0851
  383MOL0     C52729  10.000  10.293   7.522  0.7610 -0.9408  0.3289
  383MOL0     C52730  10.118  10.278   7.621  0.3661  0.8829 -0.2061
  383MOL0     C52731  10.225  10.374   7.581 -0.3062 -0.1132  0.4431
  383MOL0     C52732  10.352  10.363   7.669  0.1615 -0.3265  0.2115
  383MOL0     N52733  10.330  10.398   7.805  0.1916  0.1695 -0.0447
  383MOL0     C52734  10.325  10.533   7.851  0.4427 -0.0993  0.4969
  383MOL0     C52735  10.296  10.513   7.979 -1.2563 -0.1018  0.5350
  383MOL0     C52736  10.278  10.616   8.089 -0.1719 -0.3832 -0.1819
  383MOL0     C52737  10.140  10.691   8.102  0.3104  0.1850  1.2205
  383MOL0     C52738  10.017  10.617   8.173 -1.4763  0.0383 -0.1060
  383MOL0     C52739   9.875  10.645   8.116  0.0213  0.2909  0.0155
  383MOL0     O52740   9.865  10.591   7.983  0.4517  0.6577 -0.7318
  383MOL0     C52741   9.768  10.491   7.974 -0.4962  0.2494  0.1878
  383MOL0     C52742   9.766  10.376   8.050  0.7801  0.4192 -0.1652
  383MOL0     C52743   9.665  10.284   8.035 -0.6104  0.5515  0.2397
  383MOL0     C52744   9.669  10.154   8.119  0.5458  0.9626  0.6457
  383MOL0     C52745   9.568  10.299   7.928  0.2786 -0.1430 -0.0238
  383MOL0     C52746   9.459  10.200   7.900  0.8458  0.0263  0.7070
  383MOL0     O52747   9.410  10.118   7.998 -0.9254  0.2022 -0.5374
  383MOL0     C52748   9.327  10.022   7.953  0.2845 -0.3658  0.7243
  383MOL0     C52749   9.183  10.033   7.972 -0.2638  0.1700  1.1047
  383MOL0     C52750   9.098   9.939   7.921 -0.7601 -0.5446  0.3858
  383MOL0     C52751   9.153   9.825   7.854  0.6673 -0.0154 -0.6875
  383MOL0     O52752   9.066   9.727   7.797  0.2193  0.7296 -0.8050
  383MOL0     C52753   8.987   9.659   7.900 -0.9377  0.0360 -0.5149
  383MOL0     C52754   9.070   9.526   7.943  0.1875  1.0201 -0.6447
  383MOL0     C52755   9.031   9.497   8.089 -1.7475  0.1133  0.7475
  383MOL0     C52756   9.066   9.353   8.125  0.0481  0.2927 -0.9323
  383MOL0     C52757   9.038   9.335   8.271 -0.0213 -0.0552 -0.7945
  383MOL0     C52758   9.091   9.192   8.308 -0.1356 -0.0991  0.4289
  383MOL0     C52759   9.022   9.130   8.427 -0.8151  0.8465 -0.5165
  383MOL0     C52760   8.921   9.036   8.383  0.9087 -0.7227  0.7997
  383MOL0    Cl52761   9.005   8.878   8.314 -0.1161 -0.2814 -0.4614
  383MOL0     C52762   9.293   9.808   7.844  0.1984 -1.2645 -0.1824
  383MOL0     C52763   9.380   9.905   7.890 -0.1073 -0.5917  1.3189
  383MOL0     O52764   9.427  10.182   7.780 -0.5610  0.4275  0.1639
  383MOL0     C52765   9.566  10.419   7.860 -0.6332  0.0152 -0.2261
  383MOL0     C52766   9.674  10.506   7.874  0.7279 -0.4404  0.6719
  383MOL0     N52767  10.317  10.373   8.009  1.0440 -0.7105  0.8019
  383MOL0     N52768  10.327  10.309   7.905 -0.3377  0.7967 -0.4010
  383MOL0     C52769   9.397   9.950   7.407  0.1386 -0.6927  0.9186
  383MOL0     C52770   9.291   9.902   7.324  0.5246 -1.0766 -1.0968
  383MOL0     C52771   9.046   9.672   7.021  0.8959  0.1144  0.1964
  383MOL0     C52772   9.010   9.788   6.939 -0.7619  0.4209 -0.2469
  383MOL0     C52773   8.889   9.780   6.858 -0.1531  0.7923  0.0813
  383MOL0     C52774   8.818   9.655   6.853 -0.7272 -0.0206  0.1494
  383MOL0     O52775   8.723   9.671   6.756 -0.5291 -0.2284  0.4143
  383MOL0     C52776   8.694   9.546   6.694 -0.3517 -0.2919 -0.2063
  383MOL0     C52777   8.607   9.581   6.582  0.4406  0.1962 -0.0244
  383MOL0     C52778   8.572   9.455   6.496 -0.3182  0.2538 -0.4802
  383MOL0     C52779   8.499   9.506   6.369 -1.0999  0.6148  0.7559
  383MOL0     C52780   8.477   9.402   6.266  0.0134 -0.7547 -0.4585
  383MOL0     C52781   8.450   9.322   6.169 -0.4042 -0.3858 -0.1599
  383MOL0     C52782   8.857   9.553   6.935  0.3321 -0.1877 -0.9016
  383MOL0     C52783   8.969   9.559   7.019 -0.5122 -1.4227  0.8666
  383MOL0     C52784   8.996   9.432   7.101  0.3182 -0.5263 -0.3966
  383MOL0     H52785   9.485   9.701   7.129  3.3832  1.3212  0.0099
  383MOL0     H52786   9.636   9.750   7.289  0.4263  1.1162 -1.2680
  383MOL0     H52787   9.540   9.986   7.640  0.9684  0.2877  1.7086
  383MOL0     H52788   9.617  10.122   7.552 -0.6053 -0.2767  0.7830
  383MOL0     H52789   9.752  10.048   7.754  3.2210 -0.5176  0.9873
  383MOL0     H52790   9.778   9.890   7.664  1.0474 -0.2848 -1.5552
  383MOL0     H52791   9.984  10.033   7.630  0.4033  0.4216 -1.3411
  383MOL0     H52792   9.881  10.023   7.479 -2.0165 -0.3490  0.7300
  383MOL0     H52793   9.793  10.239   7.500  1.8456  1.7138 -2.2321
  383MOL0     H52794   9.849  10.251   7.670 -0.3964 -0.5613  0.2224
  383MOL0     H52795   9.964  10.396   7.511 -1.1544 -1.7487 -2.1152
  383MOL0     H52796  10.026  10.263   7.420 -2.4117 -0.9176 -0.6030
  383MOL0     H52797  10.097  10.296   7.726 -2.4408 -2.8620  0.0825
  383MOL0     H52798  10.141  10.171   7.611 -1.5121  0.3908  0.3210
  383MOL0     H52799  10.195  10.479   7.580  2.4788  0.7647 -0.6595
  383MOL0     H52800  10.254  10.349   7.478 -0.0110  2.1546 -0.0694
  383MOL0     H52801  10.389  10.262   7.649 -3.7475 -2.2526  1.7257
  383MOL0     H52802  10.428  10.433   7.632  0.8744 -0.7010  0.9193
  383MOL0     H52803  10.331  10.631   7.805  1.4104 -0.2735  0.2517
  383MOL0     H52804  10.357  10.688   8.070 -1.1763  0.5067 -1.1351
  383MOL0     H52805  10.287  10.563   8.184 -3.2879 -0.7580  0.0233
  383MOL0     H52806  10.155  10.788   8.151 -0.2588 -0.0723  1.9072
  383MOL0     H52807  10.109  10.715   8.000 -2.7936  0.8273  2.2197
  383MOL0     H52808  10.021  10.508   8.177  1.4026  0.0719  0.3871
  383MOL0     H52809  10.020  10.656   8.276 -3.5108 -0.3971  0.1670
  383MOL0     H52810   9.807  10.600   8.188 -0.4375 -1.7231 -1.5749
  383MOL0     H52811   9.869  10.755   8.112  3.9710  0.7035  1.1287
  383MOL0     H52812   9.836  10.362   8.132 -2.1173 -1.7305  2.1687
  383MOL0     H52813   9.590  10.170   8.193 -0.1100 -0.1034  0.2106
  383MOL0     H52814   9.768  10.137   8.163  0.4803  1.9530  1.1974
  383MOL0     H52815   9.652  10.071   8.049 -0.2339  1.4357  0.2734
  383MOL0     H52816   9.147  10.124   8.020 -0.5159  2.1946 -2.5718
  383MOL0     H52817   8.992   9.962   7.927 -0.6503  2.0670 -3.7058
  383MOL0     H52818   8.963   9.725   7.983  5.4962  3.7841 -1.0033
  383MOL0     H52819   8.895   9.609   7.870 -1.5826 -2.2505  4.2500
  383MOL0     H52820   9.037   9.446   7.876 -1.2519  1.4345 -0.4625
  383MOL0     H52821   9.179   9.537   7.941  0.2117  1.3490  1.1327
  383MOL0     H52822   8.925   9.507   8.115 -1.2750  0.7864  2.5640
  383MOL0     H52823   9.094   9.561   8.152  1.9176 -0.9489 -1.5893
  383MOL0     H52824   9.173   9.339   8.104  0.2438 -1.0747  0.8205
  383MOL0     H52825   9.002   9.280   8.075 -1.4546  0.5098  0.5929
  383MOL0     H52826   9.088   9.404   8.340  0.2655 -1.4364  0.4281
  383MOL0     H52827   8.929   9.327   8.276  0.0174 -3.4489 -2.6980
  383MOL0     H52828   9.200   9.202   8.320  0.3617  1.3410 -3.5987
  383MOL0     H52829   9.077   9.123   8.225 -1.6746  2.5768 -1.6984
  383MOL0     H52830   8.976   9.209   8.486 -3.7183 -1.5903  0.7081
  383MOL0     H52831   9.108   9.070   8.458 -2.7049 -2.1460 -0.7295
  383MOL0     H52832   8.849   9.076   8.310  0.5835 -1.4320  0.7285
  383MOL0     H52833   8.860   9.010   8.470  0.8506 -1.4426  0.5472
  383MOL0     H52834   9.327   9.721   7.789  3.2649  1.3947 -2.9195
  383MOL0     H52835   9.487   9.895   7.871 -0.2748 -1.8918  0.9517
  383MOL0     H52836   9.494  10.435   7.780 -1.0924  1.8734  0.5022
  383MOL0     H52837   9.677  10.583   7.798 -4.7357 -1.7576 -1.3881
  383MOL0     H52838   9.381  10.035   7.473 -2.2110  0.5674 -1.1091
  383MOL0     H52839   9.195   9.953   7.330  0.6090 -0.8094 -1.8295
  383MOL0     H52840   9.072   9.876   6.950  0.3212 -0.1838 -1.3225
  383MOL0     H52841   8.860   9.866   6.799 -3.0939  2.2273  3.3081
  383MOL0     H52842   8.789   9.505   6.658  1.1241  2.4110  0.3291
  383MOL0     H52843   8.645   9.477   6.763 -0.8826 -2.8827 -2.9845
  383MOL0     H52844   8.656   9.660   6.523  2.1531 -1.4818 -0.9955
  383MOL0     H52845   8.526   9.628   6.638  0.8213  3.3556 -1.8591
  383MOL0     H52846   8.660   9.398   6.462 -0.4795 -0.8079  0.8357
  383MOL0     H52847   8.517   9.381   6.554  1.0283  0.6412  1.3798
  383MOL0     H52848   8.547   9.593   6.324 -2.5178  2.8794  3.3007
  383MOL0     H52849   8.396   9.530   6.397 -1.4790 -0.2778  0.1946
  383MOL0     H52850   8.423   9.246   6.099  0.4373 -2.1422  1.3098
  383MOL0     H52851   8.801   9.460   6.936  0.4630 -0.2970 -2.1264
  383MOL0     H52852   9.049   9.456   7.194 -1.5355 -0.7850  0.7730
  383MOL0     H52853   8.899   9.387   7.122  2.0444 -4.4370  0.2683
  383MOL0     H52854   9.051   9.348   7.057  1.7467  0.3991 -0.4475
  384MOL0     O52855   4.684  10.056   5.493 -0.3944 -0.0994  0.0106
  384MOL0     C52856   4.571  10.089   5.446 -1.2127  0.6774 -0.5253
  384MOL0     O52857   4.515  10.209   5.459 -0.2179 -0.0126 -0.9177
  384MOL0     C52858   4.561  10.303   5.552 -0.0105  0.0802  1.4405
  384MOL0     C52859   4.633  10.272   5.671  0.1529 -0.6556 -0.4542
  384MOL0     C52860   4.679  10.370   5.764  0.6815  0.6105  0.1819
  384MOL0     C52861   4.641  10.506   5.732 -0.9095  0.8056 -0.5605
  384MOL0     O52862   4.691  10.606   5.806 -0.1966 -0.5966  0.3332
  384MOL0     C52863   4.789  10.696   5.742  0.1327  0.8080 -0.0193
  384MOL0     C52864   4.862  10.784   5.838 -0.4509  0.2512  0.4230
  384MOL0     C52865   4.950  10.723   5.942 -0.6584 -0.0057 -0.1872
  384MOL0     C52866   5.016  10.839   6.035  0.3063  0.2609 -0.2483
  384MOL0     C52867   5.106  10.775   6.142  0.0262  0.1079  0.9538
  384MOL0     C52868   5.227  10.697   6.103  0.6264 -0.2559  0.1664
  384MOL0     C52869   5.247  10.560   6.172 -0.3966 -1.0622  0.2310
  384MOL0     C52870   5.376  10.498   6.114 -0.4251  0.3938  0.2471
  384MOL0     N52871   5.385  10.353   6.133  0.1331  0.0707 -0.1992
  384MOL0     C52872   5.487  10.268   6.088 -0.3841 -1.0498  0.4953
  384MOL0     C52873   5.446  10.144   6.137  0.2867  0.1210  1.0687
  384MOL0     C52874   5.533  10.022   6.135 -1.0654 -0.6846 -0.0099
  384MOL0     C52875   5.665  10.048   6.190  1.2214  0.0384  1.0719
  384MOL0     C52876   5.660  10.098   6.338 -0.0468 -0.2596  0.0620
  384MOL0     C52877   5.660  10.254   6.363  0.7095  1.1799  1.2659
  384MOL0     O52878   5.747  10.299   6.473 -0.0996  0.5924 -0.5288
  384MOL0     C52879   5.759  10.429   6.506 -0.3478 -0.1188 -0.2019
  384MOL0     C52880   5.661  10.530   6.480 -0.7737 -0.8886  0.0924
  384MOL0     C52881   5.672  10.665   6.517  1.7467  0.1284  0.0981
  384MOL0     C52882   5.563  10.758   6.470  0.2258  0.4808  0.5574
  384MOL0     C52883   5.786  10.710   6.586  0.7015  0.3541 -1.0223
  384MOL0     C52884   5.808  10.855   6.623 -0.5770  0.4658  0.3980
  384MOL0     O52885   5.852  10.876   6.757 -0.4966 -0.0029  0.2106
  384MOL0     C52886   5.867  11.008   6.789  0.1244 -0.3137  0.0723
  384MOL0     C52887   5.993  11.065   6.815 -0.0851 -0.6346  0.2623
  384MOL0     C52888   5.999  11.191   6.865 -0.3537 -0.6457  0.4006
  384MOL0     C52889   5.876  11.262   6.889  0.0152 -0.1151  0.1028
  384MOL0     O52890   5.883  11.386   6.951  0.0167 -0.3222 -0.2982
  384MOL0     C52891   5.809  11.488   6.898  1.0359 -1.3725  0.9098
  384MOL0     C52892   5.881  11.621   6.933 -0.9291 -0.6319 -0.5452
  384MOL0     C52893   6.033  11.605   6.964 -0.6010 -0.5098 -0.0942
  384MOL0     C52894   6.091  11.742   6.996 -0.1556 -0.0330 -0.3719
  384MOL0     C52895   6.241  11.737   7.012  1.0821 -0.1653  0.2485
  384MOL0     C52896   6.284  11.641   7.126  0.3335 -0.0897 -0.3889
  384MOL0     C52897   6.436  11.633   7.118 -0.4226  0.1429 -0.8549
  384MOL0     C52898   6.508  11.598   7.247  0.5418  0.6280  0.2359
  384MOL0    Cl52899   6.494  11.726   7.368  0.2037  0.1690 -0.6210
  384MOL0     C52900   5.751  11.215   6.859  0.1241  0.2563 -0.0409
  384MOL0     C52901   5.748  11.079   6.819  0.4208 -0.7462 -0.3003
  384MOL0     O52902   5.772  10.940   6.541  0.7522  0.8340  0.3145
  384MOL0     C52903   5.888  10.617   6.607 -0.2373  0.5137  0.5900
  384MOL0     C52904   5.876  10.491   6.565 -0.5027  0.4900 -0.1523
  384MOL0     N52905   5.335  10.157   6.219  0.3120 -0.4182 -0.5608
  384MOL0     N52906   5.309  10.283   6.230 -0.8376 -0.0350 -0.9474
  384MOL0     C52907   4.580  10.526   5.606 -0.0905 -0.9386 -0.2700
  384MOL0     C52908   4.540  10.432   5.525 -0.1805 -0.3259  0.1784
  384MOL0     C52909   4.493   9.989   5.381 -0.4385 -0.6093  0.6123
  384MOL0     C52910   4.560   9.866   5.345 -0.4058  0.1565  0.5056
  384MOL0     C52911   4.507   9.776   5.256 -0.7053 -0.2101 -0.6810
  384MOL0     C52912   4.381   9.789   5.204  0.3401  0.2223 -0.1732
  384MOL0     O52913   4.336   9.693   5.121 -0.0630  0.2195  0.2625
  384MOL0     C52914   4.274   9.582   5.186 -0.3457 -0.5212 -0.3990
  384MOL0     C52915   4.149   9.626   5.259  0.3570  0.3352  0.0972
  384MOL0     C52916   4.031   9.658   5.170  0.2209 -0.5212 -0.2569
  384MOL0     C52917   3.899   9.691   5.241  0.3227 -0.1139 -0.0092
  384MOL0     C52918   3.885   9.840   5.283 -0.7488  0.1499 -0.4174
  384MOL0     C52919   3.885   9.955   5.318  0.8935  0.3514 -0.7530
  384MOL0     C52920   4.306   9.898   5.255 -0.5446  0.0978 -0.7637
  384MOL0     C52921   4.355   9.995   5.344 -0.2210  0.5530  0.2097
  384MOL0     C52922   4.243  10.095   5.373 -0.4879  0.0533  0.6606
  384MOL0     H52923   4.640  10.169   5.702  0.1224 -0.9655 -1.4329
  384MOL0     H52924   4.719  10.351   5.863  1.7658  0.9785 -0.1665
  384MOL0     H52925   4.754  10.762   5.662  0.7067 -2.3862 -3.1534
  384MOL0     H52926   4.859  10.632   5.688 -0.7589 -0.3080  0.1029
  384MOL0     H52927   4.910  10.862   5.779 -2.8270 -0.0768 -2.1192
  384MOL0     H52928   4.790  10.847   5.890  1.7944  4.3122 -0.9335
  384MOL0     H52929   4.884  10.674   6.013 -2.1112  2.4923  0.2761
  384MOL0     H52930   5.025  10.648   5.915  0.5619  0.6795  1.1365
  384MOL0     H52931   5.077  10.900   5.967  2.0247  0.0847  1.0662
  384MOL0     H52932   4.935  10.888   6.089  1.1136 -0.5538  1.8120
  384MOL0     H52933   5.043  10.710   6.203 -2.7129  1.0861 -0.6987
  384MOL0     H52934   5.133  10.865   6.198 -1.6560  1.4833 -0.3433
  384MOL0     H52935   5.232  10.682   5.995 -1.1810  2.0767 -0.3473
  384MOL0     H52936   5.315  10.759   6.123 -0.5885  2.5153 -2.2516
  384MOL0     H52937   5.159  10.495   6.162  0.3915 -2.6869  2.7751
  384MOL0     H52938   5.242  10.582   6.279 -3.4083  3.5898 -0.5849
  384MOL0     H52939   5.366  10.512   6.006 -2.1679 -3.3477 -0.2369
  384MOL0     H52940   5.463  10.557   6.141  0.4571  1.5099 -4.2227
  384MOL0     H52941   5.586  10.297   6.057 -1.3403  1.8262 -0.1620
  384MOL0     H52942   5.553  10.002   6.030 -3.8597  1.7640 -1.1579
  384MOL0     H52943   5.486   9.939   6.190  0.7931 -0.2148  2.4568
  384MOL0     H52944   5.716   9.951   6.195 -0.1255 -0.9545 -2.0194
  384MOL0     H52945   5.726  10.116   6.130  2.1224 -1.4805  0.1813
  384MOL0     H52946   5.575  10.058   6.393 -0.9914 -0.5521 -1.5384
  384MOL0     H52947   5.754  10.078   6.391 -0.2338  0.3677  0.6417
  384MOL0     H52948   5.676  10.305   6.267  0.1161  0.1401  0.5881
  384MOL0     H52949   5.559  10.293   6.380 -0.4351 -0.4167 -1.2863
  384MOL0     H52950   5.575  10.500   6.421 -2.4682  0.5849  1.6636
  384MOL0     H52951   5.530  10.819   6.555  0.2052  2.0750 -0.5535
  384MOL0     H52952   5.477  10.703   6.430  1.7774 -3.8610  2.5485
  384MOL0     H52953   5.599  10.818   6.386  0.5058 -0.0898  0.2613
  384MOL0     H52954   6.080  11.003   6.800 -0.8516 -1.2250 -2.1477
  384MOL0     H52955   6.092  11.240   6.891  0.8035 -1.3322 -2.1914
  384MOL0     H52956   5.801  11.482   6.789  1.6870 -1.7152  0.8724
  384MOL0     H52957   5.708  11.477   6.939  0.1638 -1.6542 -1.2056
  384MOL0     H52958   5.870  11.677   6.839 -2.3852  0.2955  0.1399
  384MOL0     H52959   5.845  11.682   7.016 -1.6656  0.5255 -1.6803
  384MOL0     H52960   6.078  11.570   6.870 -0.3226 -0.1426 -0.1014
  384MOL0     H52961   6.052  11.527   7.039  2.9981  0.6272  0.3869
  384MOL0     H52962   6.039  11.778   7.085 -0.5843 -0.0595 -0.6044
  384MOL0     H52963   6.061  11.799   6.908  1.5786 -0.5547 -1.3377
  384MOL0     H52964   6.266  11.697   6.913 -4.3195 -0.9930 -1.0682
  384MOL0     H52965   6.272  11.841   7.025  1.1600 -0.0070 -1.1058
  384MOL0     H52966   6.255  11.537   7.114  1.2180 -0.4731  0.6089
  384MOL0     H52967   6.259  11.673   7.228  0.7190 -2.4260  0.5068
  384MOL0     H52968   6.476  11.727   7.078 -2.4261  1.4891  0.1325
  384MOL0     H52969   6.457  11.555   7.045  0.2070  0.3949 -0.9524
  384MOL0     H52970   6.615  11.576   7.238  0.5798  0.3600  1.2285
  384MOL0     H52971   6.451  11.509   7.278  0.1442  0.2044 -1.5897
  384MOL0     H52972   5.655  11.265   6.863 -0.6131 -1.1103 -0.2345
  384MOL0     H52973   5.652  11.030   6.803 -1.1398  1.7118  0.9078
  384MOL0     H52974   5.987  10.646   6.640  0.1111 -0.6261  0.6117
  384MOL0     H52975   5.960  10.427   6.590 -1.3146 -1.1959 -1.5144
  384MOL0     H52976   4.542  10.625   5.580 -3.4330 -0.1937  5.7852
  384MOL0     H52977   4.490  10.461   5.433  1.6289  2.4173 -0.0553
  384MOL0     H52978   4.661   9.854   5.383 -1.3112  0.1305  3.1272
  384MOL0     H52979   4.555   9.682   5.229 -3.2367 -1.0984 -2.4361
  384MOL0     H52980   4.276   9.498   5.116 -0.2021 -0.5719 -0.3335
  384MOL0     H52981   4.344   9.541   5.260 -0.5816 -2.6060 -1.2386
  384MOL0     H52982   4.158   9.702   5.338  1.6390  1.6282 -1.2344
  384MOL0     H52983   4.124   9.547   5.330  1.3515 -0.3267 -0.2826
  384MOL0     H52984   4.067   9.739   5.106  2.6554 -3.5270 -3.0217
  384MOL0     H52985   4.011   9.577   5.099 -0.8591 -1.0497  0.6073
  384MOL0     H52986   3.892   9.630   5.332 -0.3371 -1.9621 -1.2305
  384MOL0     H52987   3.815   9.664   5.176  0.6804 -0.0901 -0.4946
  384MOL0     H52988   3.872  10.057   5.348 -0.0603  0.4123 -1.3394
  384MOL0     H52989   4.208   9.902   5.207  0.0340 -1.8695 -2.2300
  384MOL0     H52990   4.144  10.077   5.329 -0.6129  1.2129  0.4224
  384MOL0     H52991   4.228  10.104   5.481  1.6155 -2.0811  1.2175
  384MOL0     H52992   4.269  10.197   5.341 -1.1132  1.1823  3.4840
  385MOL0     O52993   2.770  11.021   4.488 -0.0276  0.2675  0.2158
  385MOL0     C52994   2.755  10.901   4.506 -0.1627  0.0047  0.0884
  385MOL0     O52995   2.631  10.834   4.496  0.5774  0.0806 -0.6162
  385MOL0     C52996   2.509  10.897   4.505  0.0454  0.2650 -0.6244
  385MOL0     C52997   2.395  10.823   4.460 -0.4026  0.0792  0.1999
  385MOL0     C52998   2.267  10.877   4.476 -0.6477 -0.0328 -0.4210
  385MOL0     C52999   2.249  11.003   4.541  0.7001  0.3903  1.3872
  385MOL0     O53000   2.124  11.057   4.556  0.4767 -0.5925  0.3854
  385MOL0     C53001   2.014  10.969   4.581  0.1360  0.4407 -0.1442
  385MOL0     C53002   1.929  10.973   4.451 -0.4521 -0.4740 -0.1664
  385MOL0     C53003   1.836  11.094   4.452  0.4898 -0.9279  1.0729
  385MOL0     C53004   1.803  11.170   4.320 -0.2121 -0.1713 -0.2723
  385MOL0     C53005   1.924  11.231   4.239 -0.0919  0.1633 -0.5472
  385MOL0     C53006   2.044  11.300   4.314  0.2172  0.5504 -0.8969
  385MOL0     C53007   2.170  11.255   4.241 -0.9326 -0.7011  0.6657
  385MOL0     C53008   2.292  11.322   4.301 -1.0174 -0.8547 -0.1148
  385MOL0     N53009   2.404  11.276   4.214  0.9080 -0.3252  0.8898
  385MOL0     C53010   2.510  11.194   4.245  0.8693 -0.3939 -0.3580
  385MOL0     C53011   2.572  11.174   4.125  0.7354  0.2082 -0.2019
  385MOL0     C53012   2.702  11.096   4.102  1.5548 -0.0334  1.0908
  385MOL0     C53013   2.663  10.951   4.093 -0.7770 -0.4187  0.3007
  385MOL0     C53014   2.788  10.882   4.150 -0.4581 -0.4399  0.5927
  385MOL0     C53015   2.766  10.726   4.126  0.1470 -0.6105  0.2459
  385MOL0     O53016   2.824  10.649   4.233 -0.2525 -0.7006  0.4392
  385MOL0     C53017   2.954  10.614   4.236 -0.2135 -0.6903 -0.0979
  385MOL0     C53018   3.002  10.548   4.350 -0.3885  0.1483 -0.2234
  385MOL0     C53019   3.128  10.499   4.367 -0.3266  0.8120 -0.2061
  385MOL0     C53020   3.164  10.439   4.502  0.8481 -0.7219 -0.2448
  385MOL0     C53021   3.223  10.517   4.266  0.7424 -0.2307  0.5672
  385MOL0     C53022   3.358  10.463   4.255 -0.0203 -0.5350 -0.0913
  385MOL0     O53023   3.434  10.505   4.143 -0.4411  0.8081 -0.1656
  385MOL0     C53024   3.572  10.495   4.157  0.3799  0.7820  1.4090
  385MOL0     C53025   3.633  10.369   4.152  0.3112 -0.1630  0.3550
  385MOL0     C53026   3.772  10.368   4.152 -1.2984  0.0319  0.0082
  385MOL0     C53027   3.849  10.488   4.172  0.0195  1.6770  0.2258
  385MOL0     O53028   3.985  10.491   4.145 -0.1519 -0.0512 -0.7302
  385MOL0     C53029   4.017  10.416   4.034  0.2509 -0.7368 -0.6403
  385MOL0     C53030   4.155  10.465   3.981  0.0190 -0.4998 -1.4968
  385MOL0     C53031   4.215  10.369   3.879  0.4016  0.0356 -0.0558
  385MOL0     C53032   4.243  10.443   3.751  0.7074 -0.7889  0.3206
  385MOL0     C53033   4.319  10.368   3.643  0.7716 -1.0194  0.7140
  385MOL0     C53034   4.434  10.270   3.680  0.0551  0.9338 -0.2014
  385MOL0     C53035   4.487  10.197   3.559  0.7049 -0.3491  1.0529
  385MOL0     C53036   4.607  10.116   3.604 -0.9359  0.4610 -0.2812
  385MOL0    Cl53037   4.551   9.993   3.724  0.2854  0.0986  0.3848
  385MOL0     C53038   3.775  10.611   4.167 -0.6648 -0.1246 -0.1307
  385MOL0     C53039   3.638  10.615   4.149  0.3840 -0.2881  0.0170
  385MOL0     O53040   3.407  10.398   4.350 -0.2332  0.3820  0.1646
  385MOL0     C53041   3.177  10.588   4.149 -0.6355 -0.4429  0.2089
  385MOL0     C53042   3.051  10.634   4.133 -0.4571  0.0488  0.4009
  385MOL0     N53043   2.525  11.253   4.028  0.5004  0.5605  0.0360
  385MOL0     N53044   2.412  11.305   4.075 -0.3433  0.1001 -0.9534
  385MOL0     C53045   2.358  11.069   4.590  0.2270  0.4267  0.9156
  385MOL0     C53046   2.484  11.020   4.571 -0.2885 -0.0398  0.1274
  385MOL0     C53047   2.859  10.815   4.562 -0.5052  0.3543  0.1148
  385MOL0     C53048   2.824  10.704   4.642 -0.0393  0.0418 -0.0492
  385MOL0     C53049   2.916  10.651   4.725  0.1023 -0.6231 -0.6618
  385MOL0     C53050   3.051  10.694   4.727 -0.2978  0.4215  0.3597
  385MOL0     O53051   3.125  10.629   4.823 -0.3662  0.2956  1.0537
  385MOL0     C53052   3.266  10.656   4.832 -0.3023  0.1706  0.4755
  385MOL0     C53053   3.306  10.797   4.885  0.5259 -0.0118  0.4185
  385MOL0     C53054   3.238  10.824   5.016  0.2404 -0.4443 -0.4544
  385MOL0     C53055   3.300  10.966   5.058 -0.3737  0.3445  0.3078
  385MOL0     C53056   3.228  11.075   4.988 -0.6904 -0.5149 -0.1618
  385MOL0     C53057   3.171  11.157   4.921  0.4962 -0.4105  0.1446
  385MOL0     C53058   3.091  10.781   4.624  0.3750  0.8829 -0.4371
  385MOL0     C53059   2.996  10.839   4.546  0.3104 -0.6368  0.2966
  385MOL0     C53060   3.054  10.935   4.442  0.2846  0.2079  0.5063
  385MOL0     H53061   2.398  10.721   4.423 -0.5530  0.8786 -2.2230
  385MOL0     H53062   2.186  10.817   4.436 -0.4426 -0.4523 -0.2196
  385MOL0     H53063   1.938  11.004   4.651  0.8825  3.3591 -0.6742
  385MOL0     H53064   2.046  10.865   4.597  0.2328  0.5136  0.1263
  385MOL0     H53065   2.004  10.975   4.372  2.7118  1.6872  2.5738
  385MOL0     H53066   1.868  10.882   4.445 -0.0465 -0.7067 -0.8304
  385MOL0     H53067   1.742  11.053   4.489  0.5015 -0.4413  1.6554
  385MOL0     H53068   1.863  11.167   4.528  3.5228  1.1302 -1.6657
  385MOL0     H53069   1.749  11.098   4.258 -0.6138  0.2815 -0.4573
  385MOL0     H53070   1.722  11.237   4.351  1.5759  0.9616  2.3218
  385MOL0     H53071   1.880  11.305   4.170 -2.5573 -0.8056 -0.1098
  385MOL0     H53072   1.955  11.148   4.174  2.2548 -0.9887  1.8557
  385MOL0     H53073   2.028  11.408   4.323 -1.1364  0.5101 -2.3926
  385MOL0     H53074   2.049  11.253   4.412  5.5820  0.5749 -0.8513
  385MOL0     H53075   2.156  11.303   4.144 -2.4210 -0.5525  0.9355
  385MOL0     H53076   2.195  11.149   4.224 -1.2310 -0.9160  1.5035
  385MOL0     H53077   2.289  11.430   4.313  2.5294 -0.5971 -0.3077
  385MOL0     H53078   2.312  11.278   4.399  1.3235  0.7732  0.2324
  385MOL0     H53079   2.554  11.170   4.341  0.7261  1.6250  0.2621
  385MOL0     H53080   2.776  11.124   4.177  2.4153 -1.4216  0.7927
  385MOL0     H53081   2.758  11.131   4.015  2.2300  3.3261  2.7239
  385MOL0     H53082   2.592  10.936   4.175 -0.3443 -0.5517  0.6561
  385MOL0     H53083   2.631  10.926   3.992  0.7755  0.4761 -0.4489
  385MOL0     H53084   2.877  10.927   4.105 -1.2744 -1.6540 -2.4749
  385MOL0     H53085   2.791  10.891   4.259  0.4509 -0.1246  0.5523
  385MOL0     H53086   2.661  10.702   4.140  0.3995 -0.5711  2.6309
  385MOL0     H53087   2.783  10.688   4.024 -4.5395 -0.3346 -0.8315
  385MOL0     H53088   2.924  10.561   4.425 -0.9922  0.4715 -0.8851
  385MOL0     H53089   3.166  10.332   4.480 -1.5349 -0.7551 -0.5951
  385MOL0     H53090   3.091  10.458   4.581 -0.7864 -1.5020 -1.4869
  385MOL0     H53091   3.259  10.479   4.539  0.0316  2.6619 -1.4020
  385MOL0     H53092   3.574  10.279   4.146  0.4666 -0.4850  2.6065
  385MOL0     H53093   3.828  10.276   4.168 -0.9889 -0.1560 -1.8945
  385MOL0     H53094   4.035  10.311   4.057  0.5918 -0.6910 -0.6771
  385MOL0     H53095   3.944  10.418   3.953 -1.6075  0.0085  0.9891
  385MOL0     H53096   4.140  10.561   3.932 -0.3839  0.9550  1.2468
  385MOL0     H53097   4.220  10.482   4.067 -1.9645  1.6005 -0.2954
  385MOL0     H53098   4.146  10.289   3.851  1.0283 -0.5571  0.0548
  385MOL0     H53099   4.311  10.331   3.915  0.9867 -0.6759 -2.1758
  385MOL0     H53100   4.276  10.544   3.776 -1.4585 -0.6955  3.3381
  385MOL0     H53101   4.141  10.467   3.720 -0.3649 -0.2155  3.8025
  385MOL0     H53102   4.239  10.332   3.578 -2.2873  3.9943  1.2184
  385MOL0     H53103   4.363  10.451   3.586  0.7242 -1.1261  0.5209
  385MOL0     H53104   4.395  10.184   3.734 -3.9692  1.3557 -2.0530
  385MOL0     H53105   4.506  10.337   3.729  2.1491 -1.3178 -0.0095
  385MOL0     H53106   4.515  10.272   3.485  0.3635 -2.0400 -0.8571
  385MOL0     H53107   4.414  10.128   3.517  0.8911 -0.0834  0.2761
  385MOL0     H53108   4.682  10.180   3.651 -0.1163  0.1339 -1.1137
  385MOL0     H53109   4.652  10.075   3.513  0.2678  1.6258 -0.2506
  385MOL0     H53110   3.836  10.701   4.172  0.1591 -0.4429 -2.7612
  385MOL0     H53111   3.581  10.706   4.144  2.9918  1.4014 -4.2607
  385MOL0     H53112   3.231  10.608   4.058 -1.2447 -4.3630 -1.2300
  385MOL0     H53113   3.029  10.686   4.040 -1.5056 -0.6731  0.2291
  385MOL0     H53114   2.346  11.152   4.659  0.3133 -0.2044  1.6962
  385MOL0     H53115   2.554  11.085   4.622 -2.0440  1.8752  0.2073
  385MOL0     H53116   2.718  10.685   4.657  0.2469 -0.2479  1.8835
  385MOL0     H53117   2.882  10.571   4.790 -2.6811  0.8902 -0.0965
  385MOL0     H53118   3.309  10.576   4.892  0.7709  1.2721  1.2196
  385MOL0     H53119   3.325  10.641   4.741 -0.8686  0.8853 -0.0236
  385MOL0     H53120   3.276  10.874   4.813  0.6191  1.1905  1.6152
  385MOL0     H53121   3.415  10.801   4.897  0.6038 -1.4705  0.2857
  385MOL0     H53122   3.128  10.829   5.016  0.2965  1.6978 -0.5055
  385MOL0     H53123   3.281  10.751   5.085  1.0601 -0.9211 -1.4389
  385MOL0     H53124   3.406  10.977   5.037 -0.5416 -0.0294 -0.8097
  385MOL0     H53125   3.280  10.970   5.165  0.6260 -1.3441  0.6068
  385MOL0     H53126   3.110  11.232   4.876 -1.1913 -1.7124  0.1722
  385MOL0     H53127   3.194  10.799   4.594  0.9931 -2.5321 -0.7527
  385MOL0     H53128   3.140  10.887   4.394 -0.7591 -1.3953  0.1789
  385MOL0     H53129   2.984  10.950   4.359  1.4571  1.2794 -0.3276
  385MOL0     H53130   3.081  11.037   4.473 -4.7597  2.3729 -1.0204
  386MOL0     O53131   0.262   3.529   2.772 -0.3797  0.2426  0.0723
  386MOL0     C53132   0.194   3.631   2.794  0.4263  0.4358  0.6242
  386MOL0     O53133   0.063   3.641   2.744 -0.2689 -1.0690 -0.8541
  386MOL0     C53134   0.002   3.533   2.694  0.0277 -0.1879 -0.2989
  386MOL0     C53135  -0.112   3.490   2.764  0.8510 -0.1534 -0.1860
  386MOL0     C53136  -0.172   3.371   2.731 -0.1720 -0.3744 -0.0013
  386MOL0     C53137  -0.124   3.297   2.620 -0.4243  0.7526  1.2694
  386MOL0     O53138  -0.166   3.163   2.606  0.7137 -0.3149  0.2345
  386MOL0     C53139  -0.297   3.137   2.562 -0.9996 -0.4646  0.1469
  386MOL0     C53140  -0.317   2.987   2.533 -1.1434 -0.8784 -0.1492
  386MOL0     C53141  -0.466   2.939   2.538 -1.2627  0.8255  0.1547
  386MOL0     C53142  -0.487   2.785   2.525 -0.0891  0.0899  0.3672
  386MOL0     C53143  -0.433   2.690   2.631  0.2373  0.0347 -0.6902
  386MOL0     C53144  -0.464   2.542   2.626  0.1451  0.0390  1.1863
  386MOL0     C53145  -0.598   2.498   2.580  0.6659  0.9562 -0.2308
  386MOL0     C53146  -0.591   2.352   2.535  0.2017  0.3289  0.4325
  386MOL0     N53147  -0.720   2.303   2.494 -0.6118 -0.2181 -0.3500
  386MOL0     C53148  -0.813   2.254   2.581  0.4245  0.0011  0.4264
  386MOL0     C53149  -0.907   2.198   2.495  0.0709 -0.2352  0.1303
  386MOL0     C53150  -1.035   2.151   2.541  0.1269 -0.4428 -1.1077
  386MOL0     C53151  -1.043   2.014   2.597 -0.0244  0.2011  0.0957
  386MOL0     C53152  -1.027   2.014   2.751  0.5587 -0.5830 -0.7061
  386MOL0     C53153  -1.023   1.872   2.798 -0.1078 -0.2526  0.7058
  386MOL0     O53154  -0.987   1.874   2.930  0.1191  0.4114  0.0767
  386MOL0     C53155  -0.864   1.904   2.973 -0.0599 -0.7681 -0.1665
  386MOL0     C53156  -0.843   1.927   3.104  0.4133 -0.3085  0.0450
  386MOL0     C53157  -0.721   1.970   3.162  0.9048 -0.3729  0.3072
  386MOL0     C53158  -0.734   2.012   3.307  0.0049  0.0066 -0.7216
  386MOL0     C53159  -0.611   1.987   3.070 -0.6467  0.4313  0.1211
  386MOL0     C53160  -0.481   2.023   3.121  0.6689 -1.1220 -0.1695
  386MOL0     O53161  -0.391   2.080   3.033  0.4675 -0.0224 -0.0517
  386MOL0     C53162  -0.265   2.125   3.059 -0.5426  0.1842 -0.2881
  386MOL0     C53163  -0.173   2.110   2.954  0.1684  0.7792 -0.3254
  386MOL0     C53164  -0.040   2.153   2.972 -0.1785 -1.1273  0.1279
  386MOL0     C53165  -0.009   2.220   3.097  0.0183  0.1171  0.2884
  386MOL0     O53166   0.114   2.239   3.138  0.2440  0.2503 -0.1683
  386MOL0     C53167   0.225   2.162   3.087  0.0221 -0.0800  0.7529
  386MOL0     C53168   0.352   2.216   3.134  0.8869 -0.6944 -0.4300
  386MOL0     C53169   0.383   2.341   3.059 -0.2099  0.2268  0.4513
  386MOL0     C53170   0.436   2.326   2.911  0.4149  0.9832 -0.6031
  386MOL0     C53171   0.427   2.454   2.824  0.4014  0.8339  0.3027
  386MOL0     C53172   0.470   2.586   2.895  0.4226 -0.8328 -0.1332
  386MOL0     C53173   0.479   2.713   2.808  0.3429 -0.0566 -0.0297
  386MOL0     C53174   0.541   2.832   2.882 -0.0444  0.0181 -0.7166
  386MOL0    Cl53175   0.430   2.869   3.013 -0.1295  0.5801  0.1415
  386MOL0     C53176  -0.103   2.242   3.198 -0.3481 -1.6919  1.3667
  386MOL0     C53177  -0.226   2.196   3.178 -0.7404  0.4614 -1.1770
  386MOL0     O53178  -0.465   2.015   3.245  0.0331  0.3432  0.5230
  386MOL0     C53179  -0.631   1.948   2.936  0.5927 -0.3235 -0.9653
  386MOL0     C53180  -0.751   1.919   2.887 -0.2976 -0.4928  0.0453
  386MOL0     N53181  -0.871   2.212   2.364 -0.0173  0.9867  0.8328
  386MOL0     N53182  -0.754   2.279   2.360 -0.1426  0.3417 -1.0731
  386MOL0     C53183  -0.023   3.340   2.540 -0.7036 -0.0712 -0.1905
  386MOL0     C53184   0.042   3.463   2.579 -0.2280  0.2393 -0.1333
  386MOL0     C53185   0.242   3.737   2.890 -1.4519  0.7894  0.8781
  386MOL0     C53186   0.209   3.876   2.867  0.2577  0.2539  0.2495
  386MOL0     C53187   0.258   3.977   2.949  0.7003  0.6472 -0.1544
  386MOL0     C53188   0.341   3.952   3.052  0.3567 -0.0788 -0.5648
  386MOL0     O53189   0.401   4.067   3.096  0.1461  0.0332  0.3818
  386MOL0     C53190   0.479   4.059   3.214  0.8835  1.2273  0.6352
  386MOL0     C53191   0.537   4.193   3.261 -1.6984 -1.7899  0.4606
  386MOL0     C53192   0.622   4.237   3.145  0.1277  0.4962  0.1834
  386MOL0     C53193   0.697   4.369   3.184 -1.2553  1.1978  0.0311
  386MOL0     C53194   0.840   4.345   3.162 -0.1907 -0.5446 -0.5286
  386MOL0     C53195   0.960   4.365   3.147  0.0656  0.0900 -0.6078
  386MOL0     C53196   0.370   3.821   3.081 -0.8240  0.1216 -0.1990
  386MOL0     C53197   0.326   3.720   2.999 -0.0268 -0.3279  0.2966
  386MOL0     C53198   0.356   3.572   3.044  0.8261 -0.9626  0.4019
  386MOL0     H53199  -0.164   3.544   2.842 -0.2757  1.2764 -1.8502
  386MOL0     H53200  -0.256   3.346   2.795  0.3287  0.5465  1.0467
  386MOL0     H53201  -0.320   3.193   2.471 -1.8821  0.4759  0.9297
  386MOL0     H53202  -0.373   3.173   2.632 -2.9654 -2.0457 -1.0414
  386MOL0     H53203  -0.274   2.965   2.434  0.9890 -0.2694  0.5892
  386MOL0     H53204  -0.258   2.931   2.607 -1.6392 -0.3452  0.6576
  386MOL0     H53205  -0.503   2.978   2.633  3.7914  0.5384  2.5321
  386MOL0     H53206  -0.525   2.990   2.461 -1.3786  1.3881  0.6094
  386MOL0     H53207  -0.596   2.778   2.526 -0.1149  0.4053 -0.1575
  386MOL0     H53208  -0.449   2.757   2.426  0.1212  0.5524  0.3196
  386MOL0     H53209  -0.471   2.719   2.729 -1.8496  0.4521 -1.5758
  386MOL0     H53210  -0.325   2.700   2.644  0.1812  1.4328 -1.1728
  386MOL0     H53211  -0.386   2.508   2.558  0.4014 -0.0353  1.5143
  386MOL0     H53212  -0.456   2.508   2.730  1.3397  2.1457  1.8560
  386MOL0     H53213  -0.638   2.559   2.498  1.4253  2.9778  0.8408
  386MOL0     H53214  -0.666   2.514   2.664  2.6396 -5.8560  3.3973
  386MOL0     H53215  -0.528   2.346   2.446 -2.9507  2.5497 -2.1816
  386MOL0     H53216  -0.549   2.291   2.615  3.3790  0.1411 -1.2351
  386MOL0     H53217  -0.821   2.243   2.689 -0.7218  2.1689  0.6248
  386MOL0     H53218  -1.107   2.156   2.458  1.5052  0.6809 -2.3006
  386MOL0     H53219  -1.073   2.210   2.625  0.1662 -0.3616 -1.1465
  386MOL0     H53220  -1.143   1.975   2.572  1.1092 -2.8296 -0.0962
  386MOL0     H53221  -0.972   1.947   2.549  0.0056 -0.8215  1.4886
  386MOL0     H53222  -0.943   2.077   2.783  1.8832 -2.9876  0.9247
  386MOL0     H53223  -1.113   2.066   2.793  0.4950 -0.5271 -0.9026
  386MOL0     H53224  -1.121   1.826   2.783  0.9525 -1.7379 -2.3242
  386MOL0     H53225  -0.955   1.811   2.739  1.0594  1.3451  0.3270
  386MOL0     H53226  -0.929   1.908   3.167  0.8075  0.9986  1.0091
  386MOL0     H53227  -0.836   2.004   3.344 -1.3697  0.0592 -4.1018
  386MOL0     H53228  -0.697   2.114   3.316 -0.0250  0.0577 -1.1642
  386MOL0     H53229  -0.674   1.941   3.365 -2.6208  0.1413  2.4185
  386MOL0     H53230  -0.193   2.064   2.857  0.0435 -0.4240  0.2474
  386MOL0     H53231   0.029   2.127   2.892 -0.0386 -0.2628 -0.0361
  386MOL0     H53232   0.219   2.062   3.131  0.2279  0.1517  1.3182
  386MOL0     H53233   0.217   2.167   2.978 -0.3059  1.0738  0.8123
  386MOL0     H53234   0.341   2.251   3.237  0.3475 -0.6750 -0.4929
  386MOL0     H53235   0.421   2.132   3.122  1.1542 -0.4498 -0.6129
  386MOL0     H53236   0.462   2.397   3.110 -1.3468  1.5778  0.7644
  386MOL0     H53237   0.300   2.411   3.069  0.3732  0.7754  1.6573
  386MOL0     H53238   0.373   2.251   2.863  0.4960 -0.4609  1.4046
  386MOL0     H53239   0.542   2.297   2.909  0.3732  0.8567 -1.2889
  386MOL0     H53240   0.501   2.446   2.743  0.3443  0.0690  0.3176
  386MOL0     H53241   0.324   2.464   2.791 -0.0894  1.3934  1.9399
  386MOL0     H53242   0.574   2.573   2.929  0.7025  2.0936  0.3912
  386MOL0     H53243   0.413   2.608   2.985 -0.2623 -1.7190 -0.3434
  386MOL0     H53244   0.382   2.729   2.760  1.3323 -2.5136 -3.2339
  386MOL0     H53245   0.541   2.695   2.720 -1.0124 -0.4516 -0.9455
  386MOL0     H53246   0.565   2.917   2.817  0.7508  0.4383  0.0985
  386MOL0     H53247   0.642   2.799   2.907 -0.3114  1.0851  2.0644
  386MOL0     H53248  -0.092   2.298   3.290 -1.1396 -0.0862  0.5230
  386MOL0     H53249  -0.293   2.197   3.264  1.0677 -1.0935  0.3096
  386MOL0     H53250  -0.537   1.934   2.884  2.3891 -0.8826  2.1763
  386MOL0     H53251  -0.760   1.912   2.779 -2.0895  2.1539 -0.0518
  386MOL0     H53252   0.006   3.280   2.455 -0.5179 -2.2852  1.3342
  386MOL0     H53253   0.114   3.503   2.509  0.5975 -3.2325 -1.4878
  386MOL0     H53254   0.146   3.925   2.794  0.2130 -0.9197 -0.5241
  386MOL0     H53255   0.234   4.074   2.907  0.2461 -1.0345 -4.2571
  386MOL0     H53256   0.404   4.028   3.287 -0.2216 -1.5245 -1.4810
  386MOL0     H53257   0.558   3.984   3.203  0.7954  1.1915  0.2460
  386MOL0     H53258   0.592   4.180   3.355 -2.0250  2.4399  1.4143
  386MOL0     H53259   0.449   4.255   3.277 -0.5021  0.1002 -0.0195
  386MOL0     H53260   0.692   4.154   3.130 -2.1105 -1.6985  1.1361
  386MOL0     H53261   0.576   4.256   3.047 -0.9096  0.3310  0.6239
  386MOL0     H53262   0.670   4.401   3.285  0.2563  1.1287  0.4860
  386MOL0     H53263   0.655   4.442   3.114 -5.4472  0.9879  2.0223
  386MOL0     H53264   1.064   4.391   3.144  0.1053 -0.0786 -0.6585
  386MOL0     H53265   0.442   3.783   3.153  0.5722  3.1986  0.1761
  386MOL0     H53266   0.376   3.558   3.151  0.4394  1.1023  0.7863
  386MOL0     H53267   0.280   3.495   3.025 -0.6816  0.2982  1.0803
  386MOL0     H53268   0.430   3.544   2.968 -0.7993 -0.1897 -1.5621
  387MOL0     O53269  11.094   0.237   9.767 -0.3403 -0.3515 -0.7632
  387MOL0     C53270  11.071   0.118   9.789  0.9247  0.8749  0.4594
  387MOL0     O53271  11.114   0.042   9.896 -0.2302  0.1864  0.1186
  387MOL0     C53272  11.195   0.096   9.992 -0.5124 -0.6150 -0.1854
  387MOL0     C53273  11.180   0.217  10.063 -0.1865  0.2699 -0.1593
  387MOL0     C53274  11.257   0.239  10.182  0.1106  0.3106  0.4554
  387MOL0     C53275  11.344   0.144  10.224 -1.2553 -0.2644  0.2686
  387MOL0     O53276  11.423   0.172  10.340  0.1154 -0.7576 -0.0524
  387MOL0     C53277  11.499   0.074  10.411 -0.4953  0.4055 -0.1379
  387MOL0     C53278  11.637   0.134  10.442  0.3300  0.0391 -0.5390
  387MOL0     C53279  11.734   0.174  10.327  1.0518 -0.3538  0.0334
  387MOL0     C53280  11.775   0.321  10.326 -0.4775 -0.9718  0.4032
  387MOL0     C53281  11.805   0.372  10.183 -0.0415  0.7641 -0.9761
  387MOL0     C53282  11.921   0.284  10.118  0.2288 -0.2958 -0.2219
  387MOL0     C53283  11.932   0.336   9.979 -0.6518  1.0074 -0.1385
  387MOL0     C53284  12.017   0.254   9.877  0.1077  0.2080 -0.0229
  387MOL0     N53285  12.000   0.318   9.750  0.3956 -1.1737  0.2869
  387MOL0     C53286  11.888   0.308   9.668 -0.2145 -0.7492  0.2918
  387MOL0     C53287  11.890   0.410   9.579 -0.1109  0.2800 -0.2297
  387MOL0     C53288  11.785   0.444   9.479 -0.6532 -0.2275  1.0602
  387MOL0     C53289  11.812   0.379   9.344  0.9486  1.0545 -0.0739
  387MOL0     C53290  11.806   0.220   9.359 -0.8345 -0.7429  0.3704
  387MOL0     C53291  11.770   0.162   9.223 -1.0034  1.0547 -0.6177
  387MOL0     O53292  11.867   0.216   9.132  1.2918 -0.1210  0.9065
  387MOL0     C53293  11.833   0.271   9.012 -0.0938  0.0560  0.6217
  387MOL0     C53294  11.937   0.330   8.943 -1.1326 -0.6462  1.4474
  387MOL0     C53295  11.936   0.373   8.805 -0.2362  0.8176 -0.1299
  387MOL0     C53296  12.067   0.440   8.750 -0.3840 -1.1025 -0.1657
  387MOL0     C53297  11.816   0.343   8.728  0.0507 -0.0904  1.1994
  387MOL0     C53298  11.806   0.358   8.580 -0.4051 -0.4564 -0.9642
  387MOL0     O53299  11.916   0.397   8.503  0.6621 -0.7523 -0.4216
  387MOL0     C53300  11.885   0.390   8.372 -0.2088  0.2664  0.7171
  387MOL0     C53301  11.832   0.497   8.299 -0.1332 -0.5243  1.1224
  387MOL0     C53302  11.824   0.507   8.153 -0.2286  0.3412 -0.2327
  387MOL0     C53303  11.875   0.395   8.080  0.1177 -0.3921 -0.0245
  387MOL0     O53304  11.879   0.380   7.945  0.3032 -0.4169  0.4494
  387MOL0     C53305  11.830   0.482   7.853 -0.0923  0.8445 -0.8212
  387MOL0     C53306  11.680   0.478   7.850  0.0750 -0.2827  0.4928
  387MOL0     C53307  11.610   0.587   7.770 -0.3903 -0.0417  0.3927
  387MOL0     C53308  11.472   0.542   7.721  0.2476 -0.0369  0.0345
  387MOL0     C53309  11.363   0.561   7.828 -0.6299 -0.1283 -0.8493
  387MOL0     C53310  11.237   0.482   7.797  0.0153  0.7241 -0.2667
  387MOL0     C53311  11.138   0.477   7.917 -0.2184  1.5247  0.0119
  387MOL0     C53312  11.044   0.602   7.922  0.9612 -0.4966 -0.0750
  387MOL0    Cl53313  10.870   0.580   7.856  0.1542 -0.0467  0.2469
  387MOL0     C53314  11.929   0.291   8.151 -0.2998 -1.3327  0.3452
  387MOL0     C53315  11.934   0.291   8.289 -0.2360  0.7010 -0.5508
  387MOL0     O53316  11.688   0.343   8.537 -0.3852 -0.6584 -0.9391
  387MOL0     C53317  11.714   0.263   8.789 -0.2125  0.6196 -0.3938
  387MOL0     C53318  11.720   0.233   8.933 -0.2007  0.6040 -0.4210
  387MOL0     N53319  12.008   0.475   9.604 -0.6144 -0.3955  0.0217
  387MOL0     N53320  12.066   0.427   9.709  0.0212  0.8043  0.2239
  387MOL0     C53321  11.365   0.028  10.138 -0.8737  0.1391 -0.5149
  387MOL0     C53322  11.282   0.001  10.038 -0.2366  0.6321  0.2130
  387MOL0     C53323  10.980   0.041   9.699 -0.6857 -0.2950 -0.8542
  387MOL0     C53324  11.002  -0.102   9.685  0.0304  0.0235 -0.0080
  387MOL0     C53325  10.924  -0.173   9.610 -0.2415  0.6413  0.5785
  387MOL0     C53326  10.801  -0.127   9.552 -0.2300 -0.0079  0.1355
  387MOL0     O53327  10.708  -0.191   9.466 -0.0992  0.2769 -0.5924
  387MOL0     C53328  10.710  -0.336   9.447 -0.3000 -0.8700  0.3158
  387MOL0     C53329  10.637  -0.404   9.558  0.0739 -0.8048 -0.1374
  387MOL0     C53330  10.662  -0.552   9.565 -0.1786 -0.1997 -0.8471
  387MOL0     C53331  10.768  -0.611   9.654  0.1185 -0.5559 -0.4633
  387MOL0     C53332  10.896  -0.573   9.604 -0.4430 -0.4313  0.1099
  387MOL0     C53333  11.001  -0.537   9.556  0.0772  0.3282  0.7772
  387MOL0     C53334  10.773   0.014   9.571  0.4807  0.2564  0.2153
  387MOL0     C53335  10.856   0.094   9.648 -0.2624  0.6385 -0.3562
  387MOL0     C53336  10.799   0.225   9.699 -0.6499 -0.5120  0.3656
  387MOL0     H53337  11.104   0.294  10.056  1.7394  2.7660  3.4476
  387MOL0     H53338  11.256   0.332  10.237  0.1187  1.0521 -0.7625
  387MOL0     H53339  11.515  -0.019  10.355 -1.0305  1.2334 -1.7109
  387MOL0     H53340  11.442   0.041  10.499  1.6383  3.2683  2.5290
  387MOL0     H53341  11.645   0.214  10.517  4.5343 -2.2401  1.7583
  387MOL0     H53342  11.694   0.054  10.489  1.4113  1.9101  1.5693
  387MOL0     H53343  11.825   0.115  10.337  1.2439 -0.1055 -0.2162
  387MOL0     H53344  11.685   0.143  10.234  0.2155 -0.9173  0.6494
  387MOL0     H53345  11.687   0.384  10.345 -1.2700 -1.0176 -2.5871
  387MOL0     H53346  11.855   0.337  10.398 -0.0073 -2.0035  0.1252
  387MOL0     H53347  11.832   0.478  10.179  1.1260  0.5478  0.5379
  387MOL0     H53348  11.713   0.364  10.123  0.4408  3.0969 -2.1347
  387MOL0     H53349  12.013   0.291  10.175 -0.1813 -0.9136  0.5385
  387MOL0     H53350  11.892   0.179  10.108  1.4527 -0.5897 -0.9059
  387MOL0     H53351  11.980   0.434   9.982 -3.8096  2.6775  0.3477
  387MOL0     H53352  11.833   0.345   9.932 -0.1638 -0.1830 -1.4797
  387MOL0     H53353  12.123   0.268   9.902 -0.2452 -0.1339  1.8763
  387MOL0     H53354  11.980   0.152   9.868  2.4953 -0.5368 -3.4789
  387MOL0     H53355  11.793   0.265   9.695 -0.0842 -0.3954  1.3665
  387MOL0     H53356  11.788   0.552   9.463  1.7659  0.3097  4.1271
  387MOL0     H53357  11.687   0.413   9.517 -0.6543 -1.2324  0.2894
  387MOL0     H53358  11.727   0.416   9.286 -0.2268  0.5898  1.2817
  387MOL0     H53359  11.912   0.396   9.303  2.3143 -3.7607  0.6510
  387MOL0     H53360  11.902   0.177   9.391  0.4909  2.1737  0.5970
  387MOL0     H53361  11.720   0.185   9.416 -1.9652 -1.6965 -1.7803
  387MOL0     H53362  11.768   0.053   9.229 -1.9950  1.1144  0.6488
  387MOL0     H53363  11.667   0.194   9.201 -1.6683  0.0742  0.8746
  387MOL0     H53364  12.028   0.355   8.997 -1.4971 -1.2528  2.3463
  387MOL0     H53365  12.033   0.536   8.708 -1.0694 -0.6687  1.3189
  387MOL0     H53366  12.117   0.390   8.667  3.3871  1.5899  0.2164
  387MOL0     H53367  12.127   0.474   8.835  0.4972  4.0703 -2.4210
  387MOL0     H53368  11.818   0.588   8.356  0.6387 -0.8683  1.8852
  387MOL0     H53369  11.780   0.603   8.129  2.5088  1.8165  0.2570
  387MOL0     H53370  11.865   0.579   7.891  2.1599 -1.1544  2.9133
  387MOL0     H53371  11.875   0.467   7.755  2.2488 -1.9242  0.5284
  387MOL0     H53372  11.658   0.383   7.801  0.3430 -0.1386  0.0911
  387MOL0     H53373  11.646   0.475   7.954  2.4036  0.0959  1.3354
  387MOL0     H53374  11.668   0.622   7.684  0.1838  1.8002  1.4841
  387MOL0     H53375  11.592   0.672   7.836 -0.2205  1.0311 -0.8935
  387MOL0     H53376  11.468   0.436   7.695  1.0898  0.0293 -0.4064
  387MOL0     H53377  11.440   0.601   7.635 -0.1833  1.4917  1.1997
  387MOL0     H53378  11.401   0.540   7.929 -0.5110 -0.7667 -1.0273
  387MOL0     H53379  11.341   0.668   7.833  2.1076  0.7757 -4.2264
  387MOL0     H53380  11.254   0.382   7.757 -1.0682  0.2190  0.4897
  387MOL0     H53381  11.185   0.531   7.714  1.5635  2.5516 -0.2072
  387MOL0     H53382  11.192   0.471   8.011 -0.9222  3.3827  0.5977
  387MOL0     H53383  11.074   0.389   7.906  0.1597  1.3982 -1.4671
  387MOL0     H53384  11.088   0.687   7.869 -0.3299  0.5292  0.4451
  387MOL0     H53385  11.054   0.640   8.024  0.3631  0.7583 -0.4593
  387MOL0     H53386  11.981   0.207   8.105  1.0096 -0.0381 -0.6307
  387MOL0     H53387  11.992   0.218   8.344  0.1325  1.6776  0.3946
  387MOL0     H53388  11.634   0.213   8.735 -0.9368  1.5064 -0.1765
  387MOL0     H53389  11.641   0.185   8.990 -1.4190 -0.2683 -2.7179
  387MOL0     H53390  11.423  -0.053  10.180 -1.2922  0.7899  1.3881
  387MOL0     H53391  11.273  -0.097   9.991  3.5909  0.8885 -1.4161
  387MOL0     H53392  11.087  -0.158   9.722  0.1482 -0.4064 -0.8880
  387MOL0     H53393  10.956  -0.275   9.588 -2.6065  0.2987 -1.8118
  387MOL0     H53394  10.675  -0.356   9.345 -0.9088 -0.5146  0.4466
  387MOL0     H53395  10.815  -0.365   9.449  0.5756  2.0216  1.4335
  387MOL0     H53396  10.531  -0.387   9.537 -0.0729  0.1975  1.2772
  387MOL0     H53397  10.670  -0.364   9.654 -1.8467 -0.4146  0.3849
  387MOL0     H53398  10.572  -0.582   9.620  1.5957 -3.1618  0.6822
  387MOL0     H53399  10.651  -0.610   9.473  0.6598 -1.9459  0.1017
  387MOL0     H53400  10.760  -0.720   9.663 -0.8803 -0.4863 -0.4298
  387MOL0     H53401  10.756  -0.577   9.757  0.6504 -1.1732 -0.1930
  387MOL0     H53402  11.090  -0.519   9.499 -1.5281  0.1007 -1.9889
  387MOL0     H53403  10.690   0.059   9.518  0.8029 -0.2621 -0.7424
  387MOL0     H53404  10.693   0.230   9.672 -0.5831  0.2279  0.2119
  387MOL0     H53405  10.809   0.237   9.807  1.6586 -0.0472  0.1622
  387MOL0     H53406  10.843   0.305   9.638  0.7435 -2.7381 -1.7799
  388MOL0     O53407   9.422   3.468   5.535 -0.4671  0.8207  0.5594
  388MOL0     C53408   9.302   3.428   5.536 -0.3572  1.2592 -0.5093
  388MOL0     O53409   9.263   3.292   5.497  0.8673  0.4042  0.8542
  388MOL0     C53410   9.366   3.214   5.447  1.1264 -0.0156 -0.0134
  388MOL0     C53411   9.481   3.195   5.510  0.1988  1.0659 -0.5695
  388MOL0     C53412   9.591   3.120   5.462 -0.5490 -1.0320  0.7424
  388MOL0     C53413   9.567   3.041   5.350 -0.2316  0.3648  0.4166
  388MOL0     O53414   9.656   2.960   5.292 -0.7978 -0.6150 -0.1769
  388MOL0     C53415   9.662   2.830   5.348 -0.0109 -1.0354 -0.4089
  388MOL0     C53416   9.748   2.754   5.235  0.1323  0.6061 -0.3643
  388MOL0     C53417   9.653   2.745   5.114 -0.2074  0.0448  0.6003
  388MOL0     C53418   9.726   2.647   5.023 -0.4699  0.2121  0.3139
  388MOL0     C53419   9.644   2.601   4.904 -0.4600  0.2438 -0.5758
  388MOL0     C53420   9.510   2.515   4.926 -0.9962  0.2565  0.0839
  388MOL0     C53421   9.416   2.487   4.800  0.2473 -0.1566 -0.1041
  388MOL0     C53422   9.360   2.609   4.716 -0.0154 -0.8422  1.1011
  388MOL0     N53423   9.309   2.710   4.808 -0.0013  0.0613 -0.0838
  388MOL0     C53424   9.183   2.716   4.864  0.0723 -1.3814  0.6670
  388MOL0     C53425   9.194   2.807   4.964 -0.5206 -0.0685 -0.0024
  388MOL0     C53426   9.097   2.865   5.059  0.3482 -0.3954 -1.0294
  388MOL0     C53427   8.954   2.895   5.010 -0.3379  0.2265  0.1269
  388MOL0     C53428   8.877   2.953   5.128 -0.1222 -0.6964  0.3828
  388MOL0     C53429   8.743   3.027   5.086  0.3891  0.2011  0.5773
  388MOL0     O53430   8.765   3.127   4.981 -0.1280 -0.1458 -1.1712
  388MOL0     C53431   8.812   3.255   5.009  0.0626  1.2300  0.4991
  388MOL0     C53432   8.826   3.306   5.142 -0.3584 -0.0558 -0.4695
  388MOL0     C53433   8.862   3.439   5.171  0.0881  0.3196  0.5203
  388MOL0     C53434   8.877   3.475   5.317  0.2467  0.3071 -0.5684
  388MOL0     C53435   8.896   3.521   5.066  0.4879 -0.6135  0.3049
  388MOL0     C53436   8.953   3.660   5.085  0.3939 -0.1375  0.3898
  388MOL0     O53437   9.077   3.679   5.148  0.6157 -0.3370 -1.2608
  388MOL0     C53438   9.143   3.795   5.117  0.2033  0.5058 -0.5278
  388MOL0     C53439   9.229   3.826   5.216 -0.3237  0.0329  0.3517
  388MOL0     C53440   9.323   3.930   5.199  0.1568  0.2586  0.2262
  388MOL0     C53441   9.323   4.011   5.086  0.4643 -0.1452  0.2382
  388MOL0     O53442   9.414   4.112   5.060 -0.5644  0.8840 -0.1414
  388MOL0     C53443   9.552   4.097   5.097 -1.1242 -0.8381 -0.1948
  388MOL0     C53444   9.649   4.132   4.979 -0.5544 -0.4998 -0.4141
  388MOL0     C53445   9.643   4.283   4.933 -0.7909  0.4399  0.2407
  388MOL0     C53446   9.537   4.309   4.836 -0.1918  0.7283 -0.0559
  388MOL0     C53447   9.498   4.460   4.820 -0.5445 -0.0923  0.1862
  388MOL0     C53448   9.398   4.495   4.716  0.0786  0.6216  0.0889
  388MOL0     C53449   9.355   4.637   4.721 -0.6392 -0.0299  0.0109
  388MOL0     C53450   9.200   4.644   4.690 -0.7154 -0.6305  0.0655
  388MOL0    Cl53451   9.169   4.575   4.529 -0.4150  0.9625 -0.0537
  388MOL0     C53452   9.221   3.990   4.996 -0.4791  0.4591  0.5386
  388MOL0     C53453   9.130   3.883   5.009 -0.7217  0.6268  1.0523
  388MOL0     O53454   8.877   3.748   5.047 -0.4131  0.1642 -1.2397
  388MOL0     C53455   8.878   3.465   4.936 -0.8439 -0.2653  0.0227
  388MOL0     C53456   8.840   3.332   4.901  0.1264 -1.2339 -0.9167
  388MOL0     N53457   9.326   2.846   4.971 -0.1628 -0.2384 -0.4963
  388MOL0     N53458   9.392   2.798   4.869 -0.0686  0.3327 -0.3436
  388MOL0     C53459   9.444   3.058   5.285  0.1167  0.3398 -0.1945
  388MOL0     C53460   9.341   3.151   5.329  0.4005  0.1623 -0.2790
  388MOL0     C53461   9.207   3.523   5.586 -1.1370 -0.9801  0.3131
  388MOL0     C53462   9.080   3.473   5.615  0.9993  0.5207 -0.6981
  388MOL0     C53463   8.987   3.555   5.689 -0.6836 -0.2438  0.2426
  388MOL0     C53464   9.009   3.688   5.709  0.2741  1.1272 -0.0102
  388MOL0     O53465   8.926   3.772   5.772  0.4628  0.9571  0.6843
  388MOL0     C53466   8.818   3.819   5.680  0.0362 -0.1475 -0.2165
  388MOL0     C53467   8.736   3.924   5.745 -0.1092 -0.4518  0.2377
  388MOL0     C53468   8.639   3.998   5.651  0.1001  0.1440  0.2393
  388MOL0     C53469   8.583   4.123   5.713  0.2237 -0.7797 -0.5538
  388MOL0     C53470   8.538   4.103   5.850  1.5405  0.5320  0.3666
  388MOL0     C53471   8.505   4.090   5.968 -0.0967 -0.2277 -0.8069
  388MOL0     C53472   9.127   3.743   5.666  0.4820  0.5768  0.1649
  388MOL0     C53473   9.232   3.665   5.602 -0.3333  0.2860 -0.9399
  388MOL0     C53474   9.343   3.760   5.561 -0.4921 -0.3582  0.4752
  388MOL0     H53475   9.509   3.236   5.606 -0.6014 -2.1622  1.1828
  388MOL0     H53476   9.681   3.121   5.523 -0.0004  1.6337  0.0560
  388MOL0     H53477   9.568   2.780   5.368  1.4687 -3.6221  0.4732
  388MOL0     H53478   9.717   2.832   5.443  0.0411 -2.4507 -0.3967
  388MOL0     H53479   9.843   2.804   5.216  0.9482 -0.7524 -0.0074
  388MOL0     H53480   9.759   2.648   5.258 -2.6890 -0.4874 -3.2558
  388MOL0     H53481   9.552   2.724   5.148 -0.8825  2.0226 -0.0299
  388MOL0     H53482   9.652   2.832   5.047 -0.7411 -0.4945 -0.1128
  388MOL0     H53483   9.818   2.698   4.991 -0.3189  0.6840  1.4686
  388MOL0     H53484   9.758   2.553   5.069 -0.6252  0.5795  1.1891
  388MOL0     H53485   9.718   2.540   4.851  1.2168 -0.9977  2.9302
  388MOL0     H53486   9.618   2.680   4.833 -1.1867 -0.6961 -1.3869
  388MOL0     H53487   9.531   2.419   4.974  0.5592  0.4899 -0.0818
  388MOL0     H53488   9.454   2.576   4.997 -0.5040  0.0841  0.6221
  388MOL0     H53489   9.333   2.446   4.858 -1.2374  0.9746 -1.3245
  388MOL0     H53490   9.472   2.412   4.743  2.3035 -0.5204  2.2557
  388MOL0     H53491   9.429   2.647   4.639 -0.8061 -1.0766  0.2534
  388MOL0     H53492   9.281   2.576   4.648 -0.0645  1.0339  0.1782
  388MOL0     H53493   9.093   2.663   4.832 -0.1365  0.3850 -1.9953
  388MOL0     H53494   9.139   2.952   5.110 -0.9808  0.7387 -1.8117
  388MOL0     H53495   9.079   2.793   5.140 -3.9366 -1.4107 -2.6147
  388MOL0     H53496   8.966   2.967   4.928 -3.5858  2.1868  1.1875
  388MOL0     H53497   8.897   2.810   4.970  4.1811 -1.2069 -4.3636
  388MOL0     H53498   8.851   2.867   5.189  3.2695 -3.3997 -1.6316
  388MOL0     H53499   8.940   3.035   5.163  2.5397 -1.1476 -2.9024
  388MOL0     H53500   8.680   2.946   5.048 -0.5156  1.2829 -0.3445
  388MOL0     H53501   8.681   3.061   5.169 -1.7223 -1.1674 -0.3455
  388MOL0     H53502   8.817   3.239   5.227  1.0107 -0.2272 -0.4325
  388MOL0     H53503   8.805   3.421   5.379  0.8719 -1.7103 -1.4859
  388MOL0     H53504   8.870   3.583   5.330 -2.5656  0.0330  0.9730
  388MOL0     H53505   8.978   3.445   5.346  0.2235  0.2146 -0.5841
  388MOL0     H53506   9.244   3.764   5.304  1.3280 -0.3174 -0.1462
  388MOL0     H53507   9.390   3.947   5.282  2.1721 -0.6681 -1.1106
  388MOL0     H53508   9.571   4.164   5.182  2.9624 -0.6698 -1.0373
  388MOL0     H53509   9.574   3.996   5.131  0.3692 -0.2732  0.6156
  388MOL0     H53510   9.747   4.133   5.026  0.5619  1.2559 -2.5928
  388MOL0     H53511   9.656   4.066   4.892  3.1880 -1.2043  0.2784
  388MOL0     H53512   9.733   4.328   4.890  0.1835 -1.6282  0.0028
  388MOL0     H53513   9.627   4.335   5.029 -2.4353 -1.1699  0.8960
  388MOL0     H53514   9.442   4.268   4.871 -0.5383  3.8138  3.1185
  388MOL0     H53515   9.558   4.254   4.743 -1.4348  1.7121 -0.9499
  388MOL0     H53516   9.451   4.491   4.914  1.1207 -3.1755  2.1869
  388MOL0     H53517   9.588   4.522   4.813  1.2597 -2.4084  1.6070
  388MOL0     H53518   9.310   4.435   4.744 -1.4164  2.7182  0.1104
  388MOL0     H53519   9.439   4.461   4.621  0.4669 -2.1476  1.1350
  388MOL0     H53520   9.414   4.699   4.653  0.9402 -2.0885 -0.6210
  388MOL0     H53521   9.373   4.679   4.820 -0.3625 -4.9510  2.3392
  388MOL0     H53522   9.172   4.748   4.707  2.6170  1.0474 -3.2472
  388MOL0     H53523   9.141   4.579   4.755 -2.3586 -1.4261 -2.1180
  388MOL0     H53524   9.214   4.050   4.906 -0.5960 -0.9777 -0.4450
  388MOL0     H53525   9.058   3.875   4.928  1.3302 -0.2215 -0.7932
  388MOL0     H53526   8.913   3.522   4.851  2.7918 -1.0420  0.8502
  388MOL0     H53527   8.818   3.299   4.800  1.0724 -0.7989 -1.2737
  388MOL0     H53528   9.417   2.999   5.197 -5.6348  1.0659  0.7157
  388MOL0     H53529   9.240   3.160   5.291  0.3730 -2.4404 -1.0013
  388MOL0     H53530   9.057   3.368   5.597  0.7946  0.3885  0.2829
  388MOL0     H53531   8.891   3.518   5.724 -1.5693  3.0215  1.6156
  388MOL0     H53532   8.861   3.868   5.592 -0.0365  0.7947  0.2651
  388MOL0     H53533   8.760   3.735   5.641  1.9514 -0.8948 -1.5711
  388MOL0     H53534   8.799   3.985   5.810 -2.2848 -0.2738  2.3450
  388MOL0     H53535   8.680   3.869   5.822  2.5435 -2.6397  0.7462
  388MOL0     H53536   8.687   4.021   5.555  0.8803  0.7719  0.7706
  388MOL0     H53537   8.554   3.933   5.628  0.0961  1.0011 -2.6341
  388MOL0     H53538   8.508   4.173   5.651  1.3201 -1.5165 -2.5853
  388MOL0     H53539   8.666   4.195   5.709 -1.0896  0.8534  0.2475
  388MOL0     H53540   8.493   4.079   6.074  2.5914  0.6998 -0.3177
  388MOL0     H53541   9.140   3.851   5.658  0.3194  0.5804 -0.0940
  388MOL0     H53542   9.420   3.723   5.494 -0.7586  1.5205 -0.9582
  388MOL0     H53543   9.299   3.855   5.528  2.8869  2.2978  2.7943
  388MOL0     H53544   9.393   3.783   5.656  0.2692  0.7549 -0.1748
  389MOL0     O53545   1.954  10.311   6.873 -0.2076  0.2187 -0.1563
  389MOL0     C53546   1.904  10.268   6.770  0.4230  0.1880 -0.1555
  389MOL0     O53547   1.925  10.315   6.644 -0.2883  0.3192  0.5440
  389MOL0     C53548   2.014  10.422   6.624  1.0876 -0.2331 -0.6775
  389MOL0     C53549   2.076  10.509   6.716  0.5630  0.0024 -0.3833
  389MOL0     C53550   2.134  10.631   6.671  0.1963 -0.0594 -1.0065
  389MOL0     C53551   2.125  10.676   6.542  0.3028 -0.0698 -0.1321
  389MOL0     O53552   2.185  10.794   6.518  0.4829 -0.3839 -0.2561
  389MOL0     C53553   2.156  10.858   6.388  0.1541 -0.4399  0.0531
  389MOL0     C53554   2.147  11.004   6.401  0.2300 -0.0208  0.3234
  389MOL0     C53555   2.113  11.082   6.267 -0.1090  0.3729 -0.1059
  389MOL0     C53556   2.187  11.041   6.131  0.0253 -0.2732 -0.0384
  389MOL0     C53557   2.078  10.975   6.048 -0.1894 -0.3521 -0.1513
  389MOL0     C53558   2.110  10.951   5.908  0.6602  0.0235 -0.0506
  389MOL0     C53559   1.984  10.954   5.820  0.3449  0.7044 -0.3716
  389MOL0     C53560   1.909  10.828   5.824 -0.2733 -0.4134 -0.4695
  389MOL0     N53561   1.801  10.832   5.722  0.1004  0.2087  0.2305
  389MOL0     C53562   1.687  10.897   5.745  0.4321  0.1465 -0.6148
  389MOL0     C53563   1.632  10.913   5.621 -0.3908 -0.4716 -0.4333
  389MOL0     C53564   1.497  10.978   5.577  0.0162 -0.2017 -0.7247
  389MOL0     C53565   1.516  11.128   5.552 -0.0070 -0.5207  0.5381
  389MOL0     C53566   1.601  11.161   5.428  0.2446 -0.8505  0.1089
  389MOL0     C53567   1.615  11.306   5.399  1.0628 -1.2139 -0.7323
  389MOL0     O53568   1.695  11.321   5.288 -0.6339  0.2749 -0.3188
  389MOL0     C53569   1.739  11.445   5.240 -0.2309 -0.3810 -1.3026
  389MOL0     C53570   1.701  11.569   5.286 -1.1011 -0.9065 -0.5358
  389MOL0     C53571   1.759  11.685   5.235  0.3265 -0.4317 -0.4899
  389MOL0     C53572   1.724  11.821   5.298 -0.3676  0.2886 -0.1521
  389MOL0     C53573   1.839  11.673   5.116  0.1313 -0.3789  0.1758
  389MOL0     C53574   1.904  11.797   5.057 -0.3294 -0.7971 -0.0870
  389MOL0     O53575   2.037  11.787   5.018 -0.4616 -0.2531 -0.4327
  389MOL0     C53576   2.102  11.901   4.969  0.6506  0.0397 -0.7829
  389MOL0     C53577   2.162  11.989   5.052  0.4685  0.3546  0.0363
  389MOL0     C53578   2.208  12.113   4.996  0.1561 -0.2446 -0.7122
  389MOL0     C53579   2.189  12.148   4.858 -0.2602 -0.3878 -0.2535
  389MOL0     O53580   2.225  12.273   4.805 -0.5336  0.2729 -0.4672
  389MOL0     C53581   2.120  12.344   4.734 -0.5576 -0.5531 -0.6088
  389MOL0     C53582   2.089  12.485   4.788 -0.5771 -0.5281 -0.9189
  389MOL0     C53583   1.942  12.539   4.784 -0.6463  1.2553  0.6506
  389MOL0     C53584   1.889  12.556   4.641 -1.0784  0.4724 -0.6184
  389MOL0     C53585   1.738  12.583   4.657  0.1845 -0.2747  0.5946
  389MOL0     C53586   1.664  12.650   4.540 -0.1826  0.3235 -0.0382
  389MOL0     C53587   1.522  12.670   4.580  1.0223 -0.0140  0.2346
  389MOL0     C53588   1.492  12.802   4.651 -0.2772 -0.4390  0.9211
  389MOL0    Cl53589   1.585  12.957   4.615 -0.3514 -0.3660  0.0617
  389MOL0     C53590   2.133  12.049   4.777  0.1146  0.0083 -0.2113
  389MOL0     C53591   2.091  11.931   4.835 -0.3676 -0.7067 -0.0601
  389MOL0     O53592   1.842  11.912   5.068  0.6243  0.3672 -0.3003
  389MOL0     C53593   1.872  11.544   5.070  0.0011  0.9554 -0.4355
  389MOL0     C53594   1.825  11.435   5.133 -0.0732  0.2655  0.6080
  389MOL0     N53595   1.710  10.846   5.529  0.0501 -0.3527  1.0544
  389MOL0     N53596   1.815  10.800   5.592 -0.0261 -0.5395 -0.3863
  389MOL0     C53597   2.059  10.599   6.460  0.3150  0.0068  0.3242
  389MOL0     C53598   2.005  10.474   6.492 -0.4169  0.0708 -0.7400
  389MOL0     C53599   1.804  10.152   6.776 -0.6521 -1.0336 -1.0511
  389MOL0     C53600   1.733  10.122   6.670 -0.5692  0.7740 -0.2752
  389MOL0     C53601   1.644  10.014   6.669 -0.4918 -0.2073  0.9005
  389MOL0     C53602   1.601   9.949   6.787  0.3657 -0.2802 -0.0217
  389MOL0     O53603   1.512   9.850   6.808  0.2373  0.0460  0.0985
  389MOL0     C53604   1.451   9.779   6.698  0.4734 -0.8854  0.2749
  389MOL0     C53605   1.329   9.845   6.642  0.2584 -0.6022 -1.1110
  389MOL0     C53606   1.265   9.769   6.528 -0.4459 -0.7818 -0.0786
  389MOL0     C53607   1.185   9.868   6.437  0.2334  1.0792 -0.8237
  389MOL0     C53608   1.132   9.787   6.319 -0.4142  0.5105  0.1510
  389MOL0     C53609   1.087   9.715   6.233 -0.5797  0.0881  0.5459
  389MOL0     C53610   1.675   9.987   6.903  0.1725  0.5912 -0.1179
  389MOL0     C53611   1.775  10.083   6.906 -1.2358 -0.6770  0.2512
  389MOL0     C53612   1.860  10.067   7.019 -1.2431 -0.3042 -0.1915
  389MOL0     H53613   2.085  10.498   6.824 -1.4638  1.1426 -0.0491
  389MOL0     H53614   2.182  10.686   6.752 -0.0750  0.2360 -1.0447
  389MOL0     H53615   2.055  10.837   6.352 -2.2683  0.1107  5.5220
  389MOL0     H53616   2.234  10.820   6.321 -1.5903 -0.2406 -2.1951
  389MOL0     H53617   2.073  11.028   6.478 -0.7136  1.9551 -1.1164
  389MOL0     H53618   2.242  11.033   6.448  0.0767  0.1426  0.5361
  389MOL0     H53619   2.004  11.081   6.253 -0.3014  1.0275  1.2578
  389MOL0     H53620   2.143  11.187   6.269 -1.6797  0.8419  0.9179
  389MOL0     H53621   2.237  11.129   6.088  1.0098 -1.7423 -2.0355
  389MOL0     H53622   2.261  10.963   6.150  0.5900 -0.8959 -3.8842
  389MOL0     H53623   1.997  11.049   6.040 -1.3759 -1.7120 -1.6767
  389MOL0     H53624   2.047  10.880   6.094 -2.1093  0.4753  0.3908
  389MOL0     H53625   2.197  11.012   5.882  0.5729  1.4908  2.7451
  389MOL0     H53626   2.147  10.849   5.895  3.0759  0.4113  2.7254
  389MOL0     H53627   2.026  10.975   5.721  0.7125  1.1637 -0.1230
  389MOL0     H53628   1.920  11.036   5.855 -2.4284 -2.1938  1.9118
  389MOL0     H53629   1.981  10.755   5.787  1.2488  1.7928 -2.1467
  389MOL0     H53630   1.873  10.804   5.924  1.2592  0.9270  0.4355
  389MOL0     H53631   1.629  10.925   5.833 -0.4310  3.1095 -1.9931
  389MOL0     H53632   1.421  10.955   5.652  0.8973 -1.9641 -0.3137
  389MOL0     H53633   1.463  10.928   5.486  1.6160 -0.7912 -1.0325
  389MOL0     H53634   1.417  11.170   5.532  0.4701  0.9506  1.0907
  389MOL0     H53635   1.552  11.174   5.645  1.2358  1.9975 -1.0614
  389MOL0     H53636   1.699  11.123   5.458  0.1053 -0.6031  0.9069
  389MOL0     H53637   1.561  11.107   5.341  1.6641 -0.4901 -0.7998
  389MOL0     H53638   1.514  11.340   5.375  0.5967 -0.9883  1.3393
  389MOL0     H53639   1.638  11.361   5.491 -0.9904  3.6524 -2.8006
  389MOL0     H53640   1.636  11.571   5.373  0.5253  2.0167  0.7593
  389MOL0     H53641   1.821  11.868   5.315 -0.3329  0.8453 -1.7007
  389MOL0     H53642   1.665  11.820   5.390 -2.2986 -2.9866 -1.2443
  389MOL0     H53643   1.670  11.886   5.228  1.8324  2.8134  0.3271
  389MOL0     H53644   2.173  11.968   5.158 -0.1053  0.1740  0.0625
  389MOL0     H53645   2.246  12.189   5.063  3.8560 -0.4964 -2.3070
  389MOL0     H53646   2.153  12.344   4.630 -0.6656 -1.9622 -0.6720
  389MOL0     H53647   2.027  12.287   4.750  0.7485 -2.5520  0.3525
  389MOL0     H53648   2.121  12.490   4.893 -1.1340  4.4495 -0.7366
  389MOL0     H53649   2.140  12.564   4.733 -1.0516  0.2597 -0.2624
  389MOL0     H53650   1.942  12.638   4.831  0.6327  0.2711  2.8755
  389MOL0     H53651   1.889  12.464   4.843 -0.0343  0.7247  0.5286
  389MOL0     H53652   1.903  12.468   4.578 -1.3726 -2.0297  2.5457
  389MOL0     H53653   1.934  12.642   4.592 -1.0642 -0.0415 -1.5207
  389MOL0     H53654   1.693  12.485   4.674  0.0064 -0.2572  0.2471
  389MOL0     H53655   1.703  12.648   4.738  0.5738  0.9108 -0.1722
  389MOL0     H53656   1.664  12.574   4.461 -3.1585 -0.3177  0.4782
  389MOL0     H53657   1.704  12.743   4.498  2.8543 -0.2356  1.2799
  389MOL0     H53658   1.483  12.594   4.648 -1.8262  1.8097  0.8290
  389MOL0     H53659   1.462  12.672   4.488  2.3465  0.0713 -0.6662
  389MOL0     H53660   1.517  12.790   4.757  1.3438 -0.5272  0.5652
  389MOL0     H53661   1.385  12.825   4.652 -0.3224 -0.6123  0.4020
  389MOL0     H53662   2.118  12.062   4.670 -3.9851 -1.4338  0.0117
  389MOL0     H53663   2.044  11.851   4.778 -2.5439  0.6712 -0.2996
  389MOL0     H53664   1.928  11.531   4.977  1.0718  2.7582 -0.1106
  389MOL0     H53665   1.867  11.337   5.112 -1.4911 -0.1879 -0.2176
  389MOL0     H53666   2.039  10.617   6.355 -0.2408 -1.2352  0.2076
  389MOL0     H53667   1.954  10.425   6.410 -0.3720 -1.6742  0.2379
  389MOL0     H53668   1.744  10.182   6.580  1.7922  2.4938  1.0649
  389MOL0     H53669   1.586   9.995   6.579 -1.3025  0.9644  1.1591
  389MOL0     H53670   1.534   9.762   6.629  1.1749 -0.3224  0.9535
  389MOL0     H53671   1.408   9.684   6.730  1.0136 -1.1508  0.2287
  389MOL0     H53672   1.361   9.943   6.606 -1.8312 -0.6321 -3.3190
  389MOL0     H53673   1.255   9.853   6.722  0.5015  2.5515 -1.0661
  389MOL0     H53674   1.349   9.722   6.476  0.3079 -0.8853  1.2043
  389MOL0     H53675   1.195   9.697   6.572 -0.4742 -0.5026  0.3409
  389MOL0     H53676   1.251   9.951   6.410 -1.1399  4.1975  3.9781
  389MOL0     H53677   1.106   9.917   6.495 -1.7238 -0.3001 -2.2194
  389MOL0     H53678   1.046   9.645   6.163 -4.0783 -0.1688  2.6517
  389MOL0     H53679   1.650   9.932   6.992 -0.4120  1.6556  0.3986
  389MOL0     H53680   1.841   9.982   7.085 -1.5382  1.2918  1.8602
  389MOL0     H53681   1.960  10.048   6.979 -0.9343  1.8561 -0.5912
  389MOL0     H53682   1.870  10.162   7.073  2.7405  0.2961 -1.6217
  390MOL0     O53683   8.694   9.518   8.433  0.1185  0.3290 -0.2337
  390MOL0     C53684   8.635   9.535   8.327  0.4913  0.2399  0.3179
  390MOL0     O53685   8.667   9.633   8.238  0.3806 -0.0775  0.9725
  390MOL0     C53686   8.746   9.741   8.261 -0.6938  0.0829  0.2565
  390MOL0     C53687   8.869   9.725   8.324 -0.4215 -0.2945  0.7362
  390MOL0     C53688   8.958   9.837   8.354 -0.3442 -0.4818  0.7022
  390MOL0     C53689   8.901   9.965   8.328 -0.0340 -0.0118  0.6650
  390MOL0     O53690   8.948  10.089   8.349  0.6403  0.2920  0.0260
  390MOL0     C53691   9.088  10.106   8.353  0.1662 -0.2261 -0.3987
  390MOL0     C53692   9.109  10.254   8.350  0.6016  0.4794 -0.8316
  390MOL0     C53693   9.255  10.287   8.402  1.0648  0.8767  0.2545
  390MOL0     C53694   9.277  10.431   8.371 -0.0517  0.3447 -0.2283
  390MOL0     C53695   9.399  10.487   8.443  0.4434 -0.1277  0.2298
  390MOL0     C53696   9.424  10.632   8.419  1.4436  0.3524 -0.4567
  390MOL0     C53697   9.354  10.718   8.525  0.4188 -0.2963 -0.1923
  390MOL0     C53698   9.399  10.862   8.524 -0.2155  0.6307  0.3815
  390MOL0     N53699   9.323  10.936   8.427  0.1044  0.9481  0.6597
  390MOL0     C53700   9.219  11.013   8.461 -0.0901  0.4582  0.1622
  390MOL0     C53701   9.166  11.035   8.342  0.4226  0.0499 -0.6615
  390MOL0     C53702   9.026  11.094   8.324  0.7669  0.8326 -0.2019
  390MOL0     C53703   8.904  10.990   8.350  0.5611  0.7902 -0.0635
  390MOL0     C53704   8.759  11.060   8.331 -0.0293  0.1988  0.6080
  390MOL0     C53705   8.667  10.962   8.252 -0.0819 -0.8687  0.6507
  390MOL0     O53706   8.530  10.958   8.303 -0.4017 -0.4293  0.8492
  390MOL0     C53707   8.442  10.870   8.240 -0.0644  0.8472  0.3485
  390MOL0     C53708   8.333  10.829   8.321  1.0013  0.4082 -0.6625
  390MOL0     C53709   8.221  10.754   8.265 -0.4422  0.0675  0.2276
  390MOL0     C53710   8.115  10.709   8.370  0.1122 -0.4967  0.3449
  390MOL0     C53711   8.234  10.702   8.131 -0.2308  0.5899  0.5038
  390MOL0     C53712   8.132  10.612   8.074  0.3923  0.9320  0.7775
  390MOL0     O53713   8.090  10.649   7.952 -0.3783  0.9076  0.2842
  390MOL0     C53714   8.006  10.562   7.889  0.0089 -0.4979  0.6703
  390MOL0     C53715   8.063  10.460   7.804 -0.0875  1.4917 -0.2369
  390MOL0     C53716   7.978  10.383   7.716  0.6202  0.3872 -0.9447
  390MOL0     C53717   7.842  10.403   7.718  0.2164  0.9421 -0.8704
  390MOL0     O53718   7.791  10.337   7.610 -0.5606  0.3534  0.2288
  390MOL0     C53719   7.747  10.196   7.645 -0.4803  0.3533  1.0462
  390MOL0     C53720   7.604  10.203   7.693 -0.0654  0.2933 -0.6068
  390MOL0     C53721   7.508  10.267   7.596  0.0216  0.3571 -0.0628
  390MOL0     C53722   7.408  10.364   7.649  0.2346  0.5559  0.4753
  390MOL0     C53723   7.272  10.351   7.579  0.0727  0.2398  0.2415
  390MOL0     C53724   7.172  10.462   7.614  0.0431  0.4471 -0.1059
  390MOL0     C53725   7.046  10.467   7.553 -0.2679  0.1732  0.3652
  390MOL0     C53726   6.958  10.569   7.613 -0.1675  0.0230  0.4662
  390MOL0    Cl53727   6.786  10.538   7.576  0.0242  0.0727  0.4991
  390MOL0     C53728   7.785  10.495   7.802  1.4975 -0.9301 -0.0232
  390MOL0     C53729   7.868  10.576   7.888  0.8068 -0.8205 -0.8852
  390MOL0     O53730   8.103  10.503   8.130  0.4931  0.5080 -0.5522
  390MOL0     C53731   8.350  10.731   8.057 -0.0201 -0.5294 -0.0537
  390MOL0     C53732   8.446  10.818   8.110 -0.5714  0.9576 -0.4244
  390MOL0     N53733   9.241  10.988   8.239  0.0092 -0.5080  0.4695
  390MOL0     N53734   9.343  10.930   8.290 -0.2618 -0.1009 -1.1181
  390MOL0     C53735   8.785   9.976   8.258  0.6267  0.4957  0.2301
  390MOL0     C53736   8.711   9.865   8.227  1.1754 -0.5074  0.8273
  390MOL0     C53737   8.513   9.450   8.291  0.2633  0.1521 -1.1164
  390MOL0     C53738   8.541   9.310   8.286 -0.1753 -0.3837 -0.6447
  390MOL0     C53739   8.436   9.227   8.250 -1.3655 -0.1698  0.3278
  390MOL0     C53740   8.310   9.269   8.230  0.3428  0.0489 -0.1681
  390MOL0     O53741   8.199   9.192   8.203  0.2981 -0.3614 -0.0274
  390MOL0     C53742   8.217   9.071   8.141  0.3513  0.0623  0.5002
  390MOL0     C53743   8.078   9.015   8.097  0.7607  0.9481 -1.0237
  390MOL0     C53744   8.094   8.883   8.039 -0.7550 -0.1522 -0.8235
  390MOL0     C53745   7.971   8.814   7.983  0.8015 -0.0440 -0.2013
  390MOL0     C53746   7.856   8.816   8.056  0.4676 -0.4985  0.4077
  390MOL0     C53747   7.762   8.809   8.124 -0.3579  0.2112 -0.6145
  390MOL0     C53748   8.280   9.400   8.248 -0.3447  0.1492 -0.5291
  390MOL0     C53749   8.383   9.495   8.273  0.2700  0.4832 -0.9203
  390MOL0     C53750   8.356   9.647   8.294 -0.7526  0.0330 -0.0728
  390MOL0     H53751   8.897   9.621   8.342 -3.5490 -1.1902  1.0481
  390MOL0     H53752   9.045   9.825   8.417  1.4914  3.1751 -0.8432
  390MOL0     H53753   9.147  10.065   8.271 -3.4895 -3.5190 -1.6906
  390MOL0     H53754   9.122  10.061   8.447 -0.5315 -2.2064 -1.0485
  390MOL0     H53755   9.108  10.277   8.243  1.6879 -0.4109 -1.0514
  390MOL0     H53756   9.029  10.299   8.409  0.0969 -0.3689 -0.8485
  390MOL0     H53757   9.260  10.266   8.509 -2.4574  1.4988  0.6615
  390MOL0     H53758   9.327  10.229   8.343 -1.7371 -1.2479 -1.3314
  390MOL0     H53759   9.300  10.438   8.264 -0.9216 -0.3214 -0.4702
  390MOL0     H53760   9.196  10.499   8.399  0.9904  1.1200  0.9970
  390MOL0     H53761   9.482  10.420   8.421 -1.6198 -2.8572  0.1664
  390MOL0     H53762   9.391  10.476   8.551 -1.8820 -1.5800 -0.0039
  390MOL0     H53763   9.533  10.642   8.410  1.5007  0.0231 -0.1523
  390MOL0     H53764   9.383  10.665   8.323 -0.2408  1.0105  0.4388
  390MOL0     H53765   9.363  10.668   8.622 -0.6857 -3.3102 -1.5164
  390MOL0     H53766   9.247  10.700   8.510  0.6098 -2.1580  0.3212
  390MOL0     H53767   9.391  10.918   8.618  1.8202  1.5791  0.0363
  390MOL0     H53768   9.503  10.847   8.495 -0.0460 -5.4890  2.5756
  390MOL0     H53769   9.182  11.045   8.558 -0.5315  2.5865 -0.6468
  390MOL0     H53770   9.015  11.110   8.217 -1.2977 -1.9274 -0.4842
  390MOL0     H53771   9.026  11.194   8.370 -0.3086  0.6709  0.1674
  390MOL0     H53772   8.919  10.902   8.287  1.7904  1.2782 -0.4906
  390MOL0     H53773   8.919  10.940   8.446  2.1137 -2.5437 -1.8308
  390MOL0     H53774   8.714  11.104   8.421 -0.0344 -0.4001  0.8979
  390MOL0     H53775   8.780  11.142   8.261  0.1707 -1.7992 -1.8009
  390MOL0     H53776   8.664  10.984   8.145 -0.7535 -0.7811  0.6857
  390MOL0     H53777   8.710  10.865   8.278  2.3954 -0.1331 -0.4426
  390MOL0     H53778   8.337  10.881   8.417  2.7149 -4.3188  2.2251
  390MOL0     H53779   8.011  10.717   8.335 -0.0087  0.7862  0.9410
  390MOL0     H53780   8.114  10.772   8.459 -0.9142  2.6644 -1.7478
  390MOL0     H53781   8.137  10.606   8.398 -1.2045 -0.5224  1.3882
  390MOL0     H53782   8.169  10.440   7.800  0.1368  2.6487 -0.4083
  390MOL0     H53783   8.023  10.309   7.650 -0.0922 -0.9631  0.0288
  390MOL0     H53784   7.749  10.132   7.556  0.6905  0.1698  1.1888
  390MOL0     H53785   7.816  10.151   7.716 -0.7345  1.0707  1.7678
  390MOL0     H53786   7.573  10.099   7.705  3.6344 -0.5829  4.4939
  390MOL0     H53787   7.594  10.256   7.788  2.6026  0.5237 -0.3768
  390MOL0     H53788   7.467  10.176   7.553  2.9217 -3.3161  4.0752
  390MOL0     H53789   7.571  10.320   7.523 -2.1802  1.2839 -1.3844
  390MOL0     H53790   7.444  10.467   7.643 -1.2713  1.1093  0.3656
  390MOL0     H53791   7.389  10.345   7.755 -0.9770  0.0551  0.1889
  390MOL0     H53792   7.292  10.346   7.472  2.7345 -6.5021  0.5762
  390MOL0     H53793   7.209  10.263   7.598 -0.3315  0.1267 -1.4983
  390MOL0     H53794   7.222  10.552   7.577  2.5829 -0.7749  0.1341
  390MOL0     H53795   7.161  10.481   7.721 -0.0454  1.2390 -0.2453
  390MOL0     H53796   6.989  10.376   7.575  0.8556 -1.2712 -2.2431
  390MOL0     H53797   7.069  10.474   7.446  0.0562  0.1360  0.4332
  390MOL0     H53798   6.984  10.669   7.577 -0.5143 -0.5797 -1.5815
  390MOL0     H53799   6.969  10.578   7.721  0.7313  1.8848  0.2554
  390MOL0     H53800   7.679  10.516   7.791  1.4755  0.9113  2.7367
  390MOL0     H53801   7.821  10.648   7.954  2.3765 -1.6234  1.2143
  390MOL0     H53802   8.362  10.679   7.962 -3.6333 -1.2321 -0.2555
  390MOL0     H53803   8.531  10.837   8.045  2.7297 -1.6556  2.6743
  390MOL0     H53804   8.744  10.074   8.233 -0.1044  0.3053  0.6747
  390MOL0     H53805   8.609   9.881   8.193  0.5747 -2.7915  1.3310
  390MOL0     H53806   8.635   9.259   8.305 -0.5677 -0.6708  0.6070
  390MOL0     H53807   8.460   9.123   8.266  1.6757  0.5338  0.8187
  390MOL0     H53808   8.271   9.085   8.048 -3.6252 -0.2050 -2.0816
  390MOL0     H53809   8.267   9.003   8.211 -1.2086 -1.1671  0.4711
  390MOL0     H53810   8.020   9.082   8.032 -0.8906  0.1003 -0.4724
  390MOL0     H53811   8.019   8.990   8.185 -1.4205  2.8297 -1.8412
  390MOL0     H53812   8.165   8.901   7.957 -0.7170  3.1447 -0.2046
  390MOL0     H53813   8.133   8.818   8.119 -1.6708  0.6658  0.3201
  390MOL0     H53814   7.994   8.718   7.936  0.9640  1.9377 -4.6810
  390MOL0     H53815   7.940   8.870   7.894  0.4886 -0.8396 -0.6082
  390MOL0     H53816   7.667   8.801   8.173 -1.8136  2.7664 -2.7335
  390MOL0     H53817   8.181   9.441   8.232 -0.7504 -1.4861 -2.5309
  390MOL0     H53818   8.272   9.663   8.362  0.8955 -0.3073  2.1631
  390MOL0     H53819   8.438   9.706   8.334 -0.7276  2.1368 -2.9373
  390MOL0     H53820   8.335   9.690   8.196 -1.6638  1.2706  0.6420
  391MOL0     O53821   4.789   4.477   1.431  0.7457 -0.2109  0.5347
  391MOL0     C53822   4.795   4.455   1.311  0.0126 -0.3147  1.1786
  391MOL0     O53823   4.826   4.541   1.211 -0.0282  0.0076  0.0722
  391MOL0     C53824   4.834   4.664   1.258 -1.0147 -0.4864 -0.2392
  391MOL0     C53825   4.948   4.710   1.323  0.5691 -0.5921 -0.2390
  391MOL0     C53826   4.947   4.834   1.382 -0.1009  0.0564  1.0108
  391MOL0     C53827   4.844   4.918   1.373  0.6763  0.1896 -0.3825
  391MOL0     O53828   4.856   5.045   1.428 -0.6363 -0.5507  0.1965
  391MOL0     C53829   4.931   5.066   1.555 -0.6385  0.9119 -0.2256
  391MOL0     C53830   4.890   5.207   1.608 -0.3215  0.9788 -0.6398
  391MOL0     C53831   4.924   5.324   1.530  0.2422 -0.9677 -0.4954
  391MOL0     C53832   5.063   5.338   1.463 -0.4110 -0.2191 -0.0013
  391MOL0     C53833   5.107   5.489   1.455  0.0233  0.2899  0.3562
  391MOL0     C53834   5.235   5.510   1.385  0.3899  0.1944  0.0205
  391MOL0     C53835   5.235   5.495   1.229 -0.2988 -0.7250 -0.2401
  391MOL0     C53836   5.368   5.518   1.154  0.7586 -0.4385 -0.0716
  391MOL0     N53837   5.426   5.649   1.200 -0.3334  0.2684 -0.2704
  391MOL0     C53838   5.402   5.780   1.156 -0.9884  1.3586  0.1615
  391MOL0     C53839   5.499   5.850   1.229  1.0185  0.0873 -0.2430
  391MOL0     C53840   5.518   6.006   1.232 -1.0939 -0.3573  0.8111
  391MOL0     C53841   5.635   6.050   1.151 -1.0606 -0.1727  0.4126
  391MOL0     C53842   5.669   6.198   1.169 -1.4111 -0.1990 -0.2857
  391MOL0     C53843   5.820   6.213   1.210 -0.2715 -0.8629 -0.2975
  391MOL0     O53844   5.835   6.348   1.268  0.1084 -0.2135  0.7577
  391MOL0     C53845   5.897   6.445   1.193  0.2203 -0.4235  0.5177
  391MOL0     C53846   5.835   6.563   1.154 -0.0760 -0.1178 -1.4222
  391MOL0     C53847   5.883   6.663   1.075  1.4136 -0.4304  0.6682
  391MOL0     C53848   5.798   6.780   1.051  0.1336  0.1608 -0.3622
  391MOL0     C53849   6.013   6.645   1.026  0.4955 -0.2600  0.4335
  391MOL0     C53850   6.089   6.735   0.950 -0.5950  0.0552  0.6435
  391MOL0     O53851   6.171   6.683   0.860 -0.4742 -0.1613  0.4929
  391MOL0     C53852   6.241   6.768   0.781  0.5081 -0.0793 -0.4947
  391MOL0     C53853   6.382   6.785   0.795 -0.1689  0.5187  0.4103
  391MOL0     C53854   6.451   6.884   0.716 -0.4085  0.1011  0.9865
  391MOL0     C53855   6.383   6.953   0.613  0.4799 -0.3202  0.2533
  391MOL0     O53856   6.441   7.056   0.538  0.2329  1.1499  0.0352
  391MOL0     C53857   6.565   7.118   0.566  0.0372  0.5411  0.0548
  391MOL0     C53858   6.619   7.204   0.448 -0.3428 -0.4664  1.1539
  391MOL0     C53859   6.520   7.313   0.417  1.4721 -0.4880  0.1601
  391MOL0     C53860   6.426   7.268   0.304 -0.3424 -0.1765 -1.1628
  391MOL0     C53861   6.304   7.348   0.288  0.4716 -1.1595  0.6064
  391MOL0     C53862   6.303   7.443   0.166  0.7588 -0.4136  0.6900
  391MOL0     C53863   6.165   7.502   0.144  0.5165  0.1362  0.1230
  391MOL0     C53864   6.135   7.576   0.013 -1.0281 -0.2749 -0.3722
  391MOL0    Cl53865   5.961   7.596   0.013 -0.4046  0.2481  0.0670
  391MOL0     C53866   6.252   6.934   0.602  0.7532 -0.2784 -0.2092
  391MOL0     C53867   6.179   6.845   0.680  0.1827 -0.0574  0.0539
  391MOL0     O53868   6.081   6.858   0.985 -0.9243 -0.1592 -0.2481
  391MOL0     C53869   6.081   6.528   1.064  0.9642 -0.9938 -0.1331
  391MOL0     C53870   6.020   6.430   1.136  0.2543 -0.3557  0.1032
  391MOL0     N53871   5.568   5.762   1.314 -1.2482  0.2062  0.3222
  391MOL0     N53872   5.516   5.641   1.299  0.5827  0.1946 -0.0685
  391MOL0     C53873   4.730   4.882   1.298  0.1815 -0.9159  0.3720
  391MOL0     C53874   4.726   4.757   1.242  0.5852 -0.2107 -0.1603
  391MOL0     C53875   4.749   4.316   1.272  0.5717  0.3427  0.4447
  391MOL0     C53876   4.785   4.214   1.358  0.6937  1.1377  0.5485
  391MOL0     C53877   4.739   4.086   1.341 -0.4818 -0.3804 -0.7771
  391MOL0     C53878   4.656   4.047   1.232  0.2662  0.0594 -0.0851
  391MOL0     O53879   4.641   3.917   1.217 -0.0783 -0.0170 -0.7474
  391MOL0     C53880   4.556   3.871   1.111 -0.4708 -0.4533  0.3054
  391MOL0     C53881   4.562   3.715   1.106 -0.8156  0.0658  0.8960
  391MOL0     C53882   4.431   3.652   1.112 -0.0212 -0.1292 -0.5776
  391MOL0     C53883   4.341   3.660   1.002  0.2799  0.2890  0.7652
  391MOL0     C53884   4.354   3.556   0.900 -0.5910 -0.5963 -0.0768
  391MOL0     C53885   4.375   3.472   0.820  0.5404  0.0837 -0.2940
  391MOL0     C53886   4.612   4.150   1.147  0.0214 -0.4185 -0.6665
  391MOL0     C53887   4.662   4.284   1.166  0.5282 -0.7864  0.4280
  391MOL0     C53888   4.609   4.387   1.080  0.3853 -0.6133 -0.2933
  391MOL0     H53889   5.031   4.644   1.345  0.5282  0.1732  2.5214
  391MOL0     H53890   5.048   4.863   1.410  1.7979 -1.3908 -3.4144
  391MOL0     H53891   5.039   5.073   1.543 -0.2485 -1.9214  0.7619
  391MOL0     H53892   4.914   4.993   1.635  2.9381  0.9894  0.7692
  391MOL0     H53893   4.781   5.206   1.620 -0.5372 -1.1924 -2.0587
  391MOL0     H53894   4.931   5.220   1.708 -2.8450 -0.0617  0.6256
  391MOL0     H53895   4.847   5.337   1.453 -1.5388 -0.4709  1.2880
  391MOL0     H53896   4.913   5.414   1.592 -2.2813 -0.2373 -1.8454
  391MOL0     H53897   5.133   5.292   1.533  1.9211  0.2915 -1.8950
  391MOL0     H53898   5.078   5.293   1.364  0.9898  2.9527 -1.3589
  391MOL0     H53899   5.104   5.528   1.558 -3.3081 -2.1306  1.3336
  391MOL0     H53900   5.033   5.546   1.398  0.1048 -2.4209 -2.7142
  391MOL0     H53901   5.255   5.610   1.424  1.9079 -0.8254  2.0175
  391MOL0     H53902   5.309   5.437   1.418 -0.7023 -1.8489 -1.7777
  391MOL0     H53903   5.174   5.572   1.181 -1.3436  1.1032  3.6271
  391MOL0     H53904   5.186   5.401   1.203  1.3095 -1.6184 -0.1752
  391MOL0     H53905   5.431   5.435   1.188  1.3778  0.6517  1.5704
  391MOL0     H53906   5.339   5.505   1.049  0.1812  0.0385  0.0212
  391MOL0     H53907   5.329   5.803   1.079 -1.1098 -0.7142 -0.4138
  391MOL0     H53908   5.526   6.023   1.339  0.2612 -0.6032  0.7713
  391MOL0     H53909   5.426   6.058   1.204 -0.0121  0.0996 -2.2546
  391MOL0     H53910   5.715   5.982   1.180  0.2729  1.2735  0.2575
  391MOL0     H53911   5.625   6.029   1.044  1.5280  3.4738 -0.7314
  391MOL0     H53912   5.649   6.255   1.078  3.0212  0.3565 -1.1024
  391MOL0     H53913   5.613   6.235   1.255 -1.0111 -2.3075  0.9603
  391MOL0     H53914   5.836   6.143   1.292 -0.7123  1.4081  1.8122
  391MOL0     H53915   5.872   6.207   1.113 -2.1597  1.8371 -1.6086
  391MOL0     H53916   5.734   6.577   1.191  0.8734 -2.8610  3.0045
  391MOL0     H53917   5.830   6.871   1.103 -3.6675  0.6136  1.4899
  391MOL0     H53918   5.690   6.775   1.065  0.4884  1.9120  5.1521
  391MOL0     H53919   5.801   6.803   0.944 -0.4891  0.2735 -0.3541
  391MOL0     H53920   6.440   6.724   0.863  0.8770 -1.1553 -1.8839
  391MOL0     H53921   6.557   6.900   0.735  1.0290 -1.5165 -4.0805
  391MOL0     H53922   6.554   7.192   0.645  1.3578 -0.4433  1.2169
  391MOL0     H53923   6.637   7.036   0.584 -1.0946 -0.1163  1.8551
  391MOL0     H53924   6.719   7.233   0.480  0.8021 -1.9611 -0.8284
  391MOL0     H53925   6.652   7.145   0.362 -0.7958  3.8087 -2.2406
  391MOL0     H53926   6.577   7.402   0.388  0.9610  0.6882  2.5631
  391MOL0     H53927   6.458   7.342   0.502 -0.5651 -1.8047 -0.8091
  391MOL0     H53928   6.385   7.171   0.332  0.6218  0.2803  2.2071
  391MOL0     H53929   6.479   7.250   0.210  2.2888 -2.2450  0.5736
  391MOL0     H53930   6.226   7.275   0.269 -1.9481  1.3330  0.2833
  391MOL0     H53931   6.290   7.415   0.373  0.4819 -0.7231  0.2692
  391MOL0     H53932   6.321   7.380   0.079 -3.2526 -0.8463 -0.0493
  391MOL0     H53933   6.368   7.529   0.178 -2.6032  2.5264 -0.3169
  391MOL0     H53934   6.143   7.564   0.231 -0.7746 -0.9196  0.5839
  391MOL0     H53935   6.094   7.419   0.137  0.3143  0.2625  0.6438
  391MOL0     H53936   6.160   7.506  -0.067  4.2909 -0.3985  1.0612
  391MOL0     H53937   6.186   7.672   0.004  3.0022 -2.3843 -3.4217
  391MOL0     H53938   6.196   6.979   0.521 -0.5995 -0.9127  0.3413
  391MOL0     H53939   6.071   6.845   0.671  0.2489  1.3267 -1.1523
  391MOL0     H53940   6.186   6.505   1.045  0.7954 -3.6726  1.6462
  391MOL0     H53941   6.080   6.343   1.161  0.8687  0.5743  1.9983
  391MOL0     H53942   4.639   4.942   1.297 -0.0549 -1.1308  2.8392
  391MOL0     H53943   4.634   4.714   1.204 -0.3644  1.3625  0.3008
  391MOL0     H53944   4.835   4.236   1.451  2.0547  2.4700 -0.4593
  391MOL0     H53945   4.778   4.016   1.414 -4.0413  0.7726  2.5616
  391MOL0     H53946   4.457   3.910   1.135 -0.9709 -0.8634 -0.9936
  391MOL0     H53947   4.583   3.916   1.015  0.5443  2.8901  2.0312
  391MOL0     H53948   4.621   3.667   1.185  1.0355  0.6297 -0.0708
  391MOL0     H53949   4.603   3.682   1.010  2.1091  1.2486  1.6125
  391MOL0     H53950   4.440   3.544   1.126  2.3913  0.3056  1.8191
  391MOL0     H53951   4.375   3.681   1.202 -0.5844 -1.2675 -0.5435
  391MOL0     H53952   4.340   3.755   0.947 -1.4479  1.9342  3.4406
  391MOL0     H53953   4.239   3.646   1.038 -0.0528  1.9935  0.5454
  391MOL0     H53954   4.393   3.397   0.746 -0.7895  0.2887 -0.8502
  391MOL0     H53955   4.552   4.128   1.060  2.2725 -1.7610 -1.9948
  391MOL0     H53956   4.578   4.328   0.993 -0.6991 -2.5502  1.3191
  391MOL0     H53957   4.529   4.435   1.137 -0.1425 -1.4441 -0.3205
  391MOL0     H53958   4.683   4.455   1.038  0.4588 -0.4646  0.0733
  392MOL0     O53959   1.003   9.748  10.749 -0.3137  0.2787  0.5843
  392MOL0     C53960   0.992   9.721  10.868 -0.7419  0.7272  0.0607
  392MOL0     O53961   1.056   9.622  10.933  0.0561 -0.5476  0.1568
  392MOL0     C53962   1.148   9.547  10.867  0.5767 -0.3058  0.7205
  392MOL0     C53963   1.278   9.598  10.866  0.5710  0.6526  0.1280
  392MOL0     C53964   1.384   9.533  10.808  0.3887 -0.2821  0.0697
  392MOL0     C53965   1.358   9.413  10.739  0.1310  0.0957  0.0461
  392MOL0     O53966   1.451   9.346  10.675 -0.2504  0.2574 -0.3091
  392MOL0     C53967   1.493   9.423  10.558 -0.8923  0.1200 -0.2426
  392MOL0     C53968   1.647   9.398  10.552 -0.7502  0.3085  0.7491
  392MOL0     C53969   1.724   9.451  10.671  0.4331 -0.3067  0.5719
  392MOL0     C53970   1.768   9.598  10.645  0.1159  0.7688 -0.5691
  392MOL0     C53971   1.883   9.615  10.548  0.2577  0.2240  0.4047
  392MOL0     C53972   1.892   9.751  10.480 -0.6816  0.9486 -0.6978
  392MOL0     C53973   1.833   9.746  10.344 -0.8155 -0.2812 -0.0605
  392MOL0     C53974   1.775   9.880  10.309  0.7246 -0.8695  0.8746
  392MOL0     N53975   1.872   9.987  10.294  0.1171  0.0427  0.2495
  392MOL0     C53976   1.975   9.997  10.206 -1.2220 -0.0669 -0.3876
  392MOL0     C53977   2.028  10.117  10.227 -0.7012  0.1614  0.0035
  392MOL0     C53978   2.133  10.187  10.146  0.9214  0.2942  0.1220
  392MOL0     C53979   2.207  10.309  10.211 -0.2134  0.7881  0.6418
  392MOL0     C53980   2.337  10.271  10.285 -0.3632 -0.0212 -0.4860
  392MOL0     C53981   2.390  10.389  10.377  0.2572  0.5008 -0.2710
  392MOL0     O53982   2.390  10.523  10.313  0.6338  0.9172  0.0621
  392MOL0     C53983   2.426  10.634  10.375 -0.0613  1.2966 -1.1710
  392MOL0     C53984   2.395  10.750  10.308 -0.0890  0.8759 -0.3481
  392MOL0     C53985   2.425  10.874  10.365 -0.2815  0.1617 -0.1341
  392MOL0     C53986   2.346  10.993  10.324  0.7869  1.4085  0.6498
  392MOL0     C53987   2.500  10.880  10.490  0.5058  0.2803  0.2869
  392MOL0     C53988   2.533  11.015  10.556  0.1967 -0.4808  0.7560
  392MOL0     O53989   2.581  11.009  10.683  0.2856 -0.2999  0.0620
  392MOL0     C53990   2.603  11.128  10.745  1.3366  0.4323  0.0737
  392MOL0     C53991   2.738  11.144  10.780  0.0104 -0.3300  0.7153
  392MOL0     C53992   2.777  11.244  10.864 -0.3221  1.1500 -0.3228
  392MOL0     C53993   2.678  11.331  10.925 -0.1533  0.2799 -0.6247
  392MOL0     O53994   2.724  11.432  11.004  0.0971 -0.5518  0.5538
  392MOL0     C53995   2.638  11.550  11.004 -0.1594 -0.3205 -0.7902
  392MOL0     C53996   2.630  11.611  10.858 -0.2646  0.7403 -0.4847
  392MOL0     C53997   2.558  11.748  10.857 -0.6444  0.4358  0.3005
  392MOL0     C53998   2.613  11.847  10.959 -0.5729  0.4425 -0.1341
  392MOL0     C53999   2.764  11.872  10.951  0.2215  0.3365 -1.0515
  392MOL0     C54000   2.815  11.930  10.826 -0.8628  0.6345  0.7194
  392MOL0     C54001   2.759  12.075  10.806 -0.0311 -0.0151 -0.7888
  392MOL0     C54002   2.775  12.121  10.669 -0.4855 -0.2791 -0.2958
  392MOL0    Cl54003   2.951  12.095  10.602 -0.0040  0.4780  0.2921
  392MOL0     C54004   2.545  11.304  10.903 -1.1566 -0.0285  0.9184
  392MOL0     C54005   2.510  11.196  10.812  0.1664 -0.5418 -0.7074
  392MOL0     O54006   2.565  11.104  10.475 -0.1655 -0.2973 -0.2721
  392MOL0     C54007   2.536  10.759  10.555 -0.2044  0.1676  0.3736
  392MOL0     C54008   2.491  10.635  10.503  0.1147  0.4757 -0.3611
  392MOL0     N54009   1.960  10.184  10.322 -0.5527 -0.0940  0.1646
  392MOL0     N54010   1.871  10.101  10.364 -0.5797  0.1472  0.2816
  392MOL0     C54011   1.221   9.357  10.742 -0.7239  0.7560  0.6309
  392MOL0     C54012   1.117   9.425  10.806 -0.6973 -0.4457  0.8729
  392MOL0     C54013   0.892   9.801  10.943  0.6808  0.2901  0.4168
  392MOL0     C54014   0.939   9.838  11.065 -0.1305  0.4604 -0.1409
  392MOL0     C54015   0.873   9.926  11.145  0.1040  0.4654 -0.8942
  392MOL0     C54016   0.747   9.957  11.106  0.5899 -0.5642  0.3170
  392MOL0     O54017   0.680  10.048  11.194 -0.6588 -0.7493  0.4923
  392MOL0     C54018   0.573  10.133  11.138 -0.7280 -0.1881 -0.1324
  392MOL0     C54019   0.612  10.263  11.196  0.0628  0.0133  1.0336
  392MOL0     C54020   0.572  10.292  11.336  0.4520 -0.0629  0.0424
  392MOL0     C54021   0.561  10.441  11.374 -0.3940  0.4745  0.1325
  392MOL0     C54022   0.691  10.487  11.420  0.7035 -0.4398 -0.3097
  392MOL0     C54023   0.799  10.527  11.463 -0.6617 -0.5827  0.8861
  392MOL0     C54024   0.682   9.899  10.997 -0.4610  1.4017  0.2352
  392MOL0     C54025   0.757   9.812  10.916  0.4742  0.6352  0.2276
  392MOL0     C54026   0.702   9.747  10.793 -0.0965 -0.1129  0.2009
  392MOL0     H54027   1.305   9.692  10.912  2.4758  0.5915 -0.7735
  392MOL0     H54028   1.484   9.576  10.818  1.7333 -3.4577  2.3590
  392MOL0     H54029   1.470   9.529  10.575 -0.6926 -0.2420  2.6440
  392MOL0     H54030   1.447   9.387  10.465  0.5229 -0.8255 -0.5933
  392MOL0     H54031   1.674   9.292  10.561 -0.2354  0.5117  1.7992
  392MOL0     H54032   1.697   9.439  10.464 -0.9753  1.2943  1.0625
  392MOL0     H54033   1.663   9.444  10.761 -0.5621 -0.3363 -0.0835
  392MOL0     H54034   1.809   9.383  10.687 -0.7722 -1.8001  0.8302
  392MOL0     H54035   1.690   9.667  10.613 -2.5930 -2.2048 -0.8902
  392MOL0     H54036   1.813   9.631  10.739  1.0196  0.6013 -0.9324
  392MOL0     H54037   1.872   9.538  10.471  0.5583  0.4190  0.1664
  392MOL0     H54038   1.977   9.579  10.591 -1.1692 -2.2046  1.7432
  392MOL0     H54039   1.853   9.830  10.544 -3.7938  0.0545 -1.3407
  392MOL0     H54040   1.998   9.774  10.463 -0.2018 -0.7501 -0.2823
  392MOL0     H54041   1.753   9.675  10.321 -0.9653  0.1572 -0.9807
  392MOL0     H54042   1.901   9.719  10.263  0.2154 -0.2352  0.7712
  392MOL0     H54043   1.720   9.870  10.215 -1.5771  0.2419  2.0179
  392MOL0     H54044   1.691   9.894  10.377 -0.6575 -1.3705 -0.6608
  392MOL0     H54045   2.012   9.927  10.132  2.6116  0.8824  0.3597
  392MOL0     H54046   2.086  10.204  10.049  1.8751 -0.3447 -0.4718
  392MOL0     H54047   2.214  10.116  10.127 -2.7718 -4.0429 -1.0364
  392MOL0     H54048   2.241  10.364  10.123 -1.6778  0.4784 -0.1611
  392MOL0     H54049   2.149  10.382  10.269  1.7970  1.0546  2.4300
  392MOL0     H54050   2.318  10.183  10.347  0.0261  2.2237  3.1198
  392MOL0     H54051   2.420  10.250  10.217  0.7287  0.0742  0.7683
  392MOL0     H54052   2.324  10.388  10.465 -4.1023  1.3014 -3.2030
  392MOL0     H54053   2.494  10.374  10.406 -0.1460  1.8795  2.1451
  392MOL0     H54054   2.347  10.736  10.212  0.0395 -1.7851 -0.0954
  392MOL0     H54055   2.409  11.067  10.274  1.2188  2.1605  2.2347
  392MOL0     H54056   2.282  11.037  10.400 -0.8639 -2.6648  1.8781
  392MOL0     H54057   2.268  10.966  10.252  0.1443  1.7826  1.1871
  392MOL0     H54058   2.820  11.086  10.738 -0.9047  0.8496 -3.1359
  392MOL0     H54059   2.885  11.255  10.856  0.2267 -1.9974  1.3375
  392MOL0     H54060   2.537  11.535  11.043 -0.3791  1.1798 -0.6856
  392MOL0     H54061   2.681  11.617  11.080 -1.3676  0.0956 -0.4536
  392MOL0     H54062   2.728  11.619  10.812  0.1270  2.7365  0.5904
  392MOL0     H54063   2.559  11.546  10.805  0.5430 -0.7481  0.1731
  392MOL0     H54064   2.450  11.738  10.871 -1.5555  0.7308 -4.7942
  392MOL0     H54065   2.565  11.784  10.754 -3.9338 -2.8981 -1.3414
  392MOL0     H54066   2.582  11.803  11.054 -0.9077 -0.8867 -0.8453
  392MOL0     H54067   2.557  11.940  10.948  2.0522  2.0668 -0.7227
  392MOL0     H54068   2.787  11.936  11.037  0.6454  1.5373 -2.0293
  392MOL0     H54069   2.811  11.775  10.968 -2.3072 -0.7016  0.5841
  392MOL0     H54070   2.799  11.861  10.742 -2.2206  0.4529  1.0965
  392MOL0     H54071   2.923  11.928  10.836 -0.3836 -3.1834 -2.6938
  392MOL0     H54072   2.821  12.144  10.864 -3.5146  1.1090  2.0042
  392MOL0     H54073   2.657  12.085  10.845 -0.7913 -3.0556 -1.7376
  392MOL0     H54074   2.762  12.229  10.680  2.4651  0.2266 -0.9403
  392MOL0     H54075   2.697  12.075  10.607 -0.5676 -2.1556  1.0971
  392MOL0     H54076   2.470  11.358  10.959 -2.5237 -1.9677  1.0543
  392MOL0     H54077   2.402  11.184  10.814  0.2557 -1.3450  1.1267
  392MOL0     H54078   2.599  10.740  10.641 -0.0080 -1.1823 -0.0431
  392MOL0     H54079   2.512  10.545  10.560  1.1971  1.2168  0.4719
  392MOL0     H54080   1.197   9.268  10.685 -0.8719  1.0128  0.2869
  392MOL0     H54081   1.015   9.389  10.799 -0.5603 -1.5594  3.4443
  392MOL0     H54082   1.039   9.808  11.096 -0.0514  0.7732 -0.0855
  392MOL0     H54083   0.904   9.966  11.241 -2.2488 -3.5964  1.8764
  392MOL0     H54084   0.572  10.144  11.029  1.1493 -1.1470 -0.2793
  392MOL0     H54085   0.487  10.080  11.180  1.1744 -1.2246  2.7755
  392MOL0     H54086   0.551  10.336  11.141 -1.8375  0.4583  3.5283
  392MOL0     H54087   0.720  10.271  11.179 -0.2144 -1.9667 -2.6865
  392MOL0     H54088   0.467  10.263  11.352  1.0174 -1.2440  1.9635
  392MOL0     H54089   0.633  10.233  11.405 -2.3333 -1.6961  1.2907
  392MOL0     H54090   0.508  10.434  11.470  3.0736 -3.3645  2.0822
  392MOL0     H54091   0.510  10.510  11.307 -2.9897  0.7264  2.1569
  392MOL0     H54092   0.898  10.564  11.481 -1.4338  1.1200  1.8855
  392MOL0     H54093   0.579   9.926  10.974 -0.8373  0.8196  1.1873
  392MOL0     H54094   0.709   9.821  10.713 -3.1327  1.2950  1.0306
  392MOL0     H54095   0.766   9.664  10.763 -1.0380  0.7173 -4.9070
  392MOL0     H54096   0.598   9.724  10.818 -0.2200  1.5729  1.4365
  393MOL0     O54097   3.184   6.129   8.966 -0.0038  0.0638 -0.5840
  393MOL0     C54098   3.278   6.194   8.918  0.4211  0.3681  0.5513
  393MOL0     O54099   3.406   6.206   8.966  0.0777 -0.3989 -0.1631
  393MOL0     C54100   3.463   6.116   9.048 -0.0123  0.2529  0.9961
  393MOL0     C54101   3.567   6.159   9.132  0.5176  0.6135 -0.4629
  393MOL0     C54102   3.612   6.075   9.226  1.0315 -0.0645  0.1282
  393MOL0     C54103   3.567   5.939   9.241 -0.6819 -0.9573  0.0771
  393MOL0     O54104   3.612   5.845   9.339  0.2898 -1.0134  1.1672
  393MOL0     C54105   3.723   5.879   9.418 -0.0050  0.4945  0.2460
  393MOL0     C54106   3.701   5.806   9.550  0.0049  0.8868 -0.1983
  393MOL0     C54107   3.706   5.658   9.522  0.1510  0.5934 -0.2175
  393MOL0     C54108   3.605   5.569   9.593 -0.4928 -0.1556  0.0353
  393MOL0     C54109   3.622   5.423   9.567 -0.2971  0.7763 -0.2660
  393MOL0     C54110   3.579   5.373   9.430 -0.2013 -0.5774 -0.2282
  393MOL0     C54111   3.570   5.218   9.441  0.1725 -0.6314  0.8298
  393MOL0     C54112   3.512   5.135   9.322 -1.0078  0.3919  0.8960
  393MOL0     N54113   3.467   5.008   9.379 -0.6337 -0.0309 -0.1999
  393MOL0     C54114   3.346   4.973   9.413 -0.1626 -0.6364  0.3412
  393MOL0     C54115   3.351   4.843   9.456  0.6504 -0.4746  0.0409
  393MOL0     C54116   3.236   4.752   9.483  0.0233  0.4818 -0.3888
  393MOL0     C54117   3.288   4.640   9.579 -0.4794 -0.9221 -0.1094
  393MOL0     C54118   3.315   4.511   9.522 -0.7809  0.1421  0.3559
  393MOL0     C54119   3.429   4.499   9.428  1.1136  0.2924  1.2482
  393MOL0     O54120   3.480   4.366   9.421  0.4194  0.5037  0.3456
  393MOL0     C54121   3.545   4.319   9.537  1.2798  0.2702 -0.1424
  393MOL0     C54122   3.600   4.400   9.642  0.0034 -0.0405  0.5131
  393MOL0     C54123   3.662   4.338   9.751 -0.5279  2.0207  0.1296
  393MOL0     C54124   3.721   4.426   9.850 -0.2958  0.0462  0.5724
  393MOL0     C54125   3.677   4.190   9.756 -0.6059  0.1577  0.2792
  393MOL0     C54126   3.748   4.127   9.872  0.4890  0.5733  0.9975
  393MOL0     O54127   3.806   4.008   9.833  0.1246  0.0996  0.3156
  393MOL0     C54128   3.894   3.942   9.914 -0.8168  0.4116 -0.9570
  393MOL0     C54129   3.862   3.808   9.958 -0.1826  0.7567  0.0977
  393MOL0     C54130   3.960   3.727  10.025  0.0420  0.2904  0.1076
  393MOL0     C54131   4.093   3.770  10.032  0.3121  1.2912  0.1039
  393MOL0     O54132   4.177   3.673  10.075 -0.7433 -0.2681  0.5692
  393MOL0     C54133   4.287   3.721  10.160 -0.0096  0.3440  1.0091
  393MOL0     C54134   4.365   3.606  10.218  0.3837  0.6944 -0.3092
  393MOL0     C54135   4.276   3.529  10.308  0.0767  0.4765 -0.6392
  393MOL0     C54136   4.330   3.418  10.386  0.5783 -0.2819 -0.8650
  393MOL0     C54137   4.228   3.354  10.478  0.5544 -0.1227 -0.6214
  393MOL0     C54138   4.280   3.236  10.568 -0.0074 -1.0828  0.1299
  393MOL0     C54139   4.262   3.101  10.496  0.2729 -0.1640 -1.0951
  393MOL0     C54140   4.290   2.996  10.594 -0.1824 -0.0387 -0.1592
  393MOL0    Cl54141   4.418   3.005  10.709 -0.0854 -0.1189  0.2213
  393MOL0     C54142   4.119   3.906  10.002  0.3597  0.1177 -0.6674
  393MOL0     C54143   4.020   3.992   9.944 -0.7234  0.3063  0.3372
  393MOL0     O54144   3.738   4.167   9.985 -0.1484  0.2605 -0.1631
  393MOL0     C54145   3.624   4.113   9.649 -1.2113 -1.1925  0.0007
  393MOL0     C54146   3.566   4.179   9.543  0.2834  0.6790  0.2607
  393MOL0     N54147   3.487   4.811   9.453 -0.9570 -0.4670 -0.1355
  393MOL0     N54148   3.544   4.900   9.391 -0.4302 -0.9584  0.9547
  393MOL0     C54149   3.468   5.898   9.156  0.3374  0.0877  0.3116
  393MOL0     C54150   3.415   5.984   9.065  0.7708 -0.0304  0.9634
  393MOL0     C54151   3.240   6.287   8.811 -0.5760 -0.5488 -1.3521
  393MOL0     C54152   3.114   6.351   8.810  1.4671 -0.1161 -1.3940
  393MOL0     C54153   3.070   6.445   8.715 -0.5644  1.0931  0.3640
  393MOL0     C54154   3.159   6.484   8.618  0.2363 -0.1364  0.3737
  393MOL0     O54155   3.122   6.570   8.514 -0.8496  0.4439  0.1605
  393MOL0     C54156   3.009   6.527   8.433 -0.2343  0.7436 -0.5088
  393MOL0     C54157   2.913   6.633   8.436 -0.2989 -0.2751 -0.3286
  393MOL0     C54158   2.783   6.620   8.362 -0.3645 -0.3333 -0.0786
  393MOL0     C54159   2.815   6.616   8.208  0.8789 -0.0511  0.0209
  393MOL0     C54160   2.823   6.475   8.169 -0.6895 -0.1191 -0.2651
  393MOL0     C54161   2.835   6.355   8.157 -0.5153  0.8721  0.3336
  393MOL0     C54162   3.288   6.426   8.615  0.0896  0.4027  0.4681
  393MOL0     C54163   3.330   6.319   8.698 -0.1546 -0.4695  0.3193
  393MOL0     C54164   3.477   6.274   8.683 -0.0325  0.6850  0.2218
  393MOL0     H54165   3.603   6.261   9.146  1.2940  0.2487  0.3039
  393MOL0     H54166   3.688   6.103   9.298  2.9469 -0.9311 -1.4624
  393MOL0     H54167   3.728   5.983   9.452  0.1954  0.4740  0.2791
  393MOL0     H54168   3.812   5.841   9.366 -0.7614 -1.6646  0.4235
  393MOL0     H54169   3.780   5.831   9.622  0.5928 -0.2671 -0.4259
  393MOL0     H54170   3.607   5.833   9.599 -1.2103 -1.6990 -0.9475
  393MOL0     H54171   3.686   5.631   9.417  1.8495 -2.2104  0.0961
  393MOL0     H54172   3.802   5.613   9.548 -2.0031 -1.6265  5.5540
  393MOL0     H54173   3.626   5.575   9.700  0.5926 -2.5618  0.0193
  393MOL0     H54174   3.506   5.609   9.573 -1.4543 -1.2208  2.2779
  393MOL0     H54175   3.552   5.372   9.634  1.0083 -1.5102 -0.5686
  393MOL0     H54176   3.725   5.394   9.587  0.2947  3.4926  1.2227
  393MOL0     H54177   3.476   5.409   9.417  0.2344  1.5492  1.6022
  393MOL0     H54178   3.650   5.403   9.353  1.8984 -4.0431  0.1361
  393MOL0     H54179   3.505   5.190   9.525 -2.7864 -0.0743 -1.1114
  393MOL0     H54180   3.675   5.189   9.442  1.0317  1.9072 -1.7017
  393MOL0     H54181   3.424   5.190   9.286 -0.9470 -0.5598 -0.8435
  393MOL0     H54182   3.577   5.122   9.235 -4.4565 -3.5226 -1.4499
  393MOL0     H54183   3.263   5.041   9.398 -0.6022 -0.7253  2.1255
  393MOL0     H54184   3.210   4.711   9.385  0.4707  2.4463 -1.3708
  393MOL0     H54185   3.149   4.807   9.518 -0.7780 -1.0166  0.0548
  393MOL0     H54186   3.385   4.676   9.615  0.6421 -2.8956 -1.0044
  393MOL0     H54187   3.221   4.639   9.666 -1.4259 -0.3524 -0.8199
  393MOL0     H54188   3.320   4.440   9.605  1.5504 -0.6122 -0.3609
  393MOL0     H54189   3.227   4.478   9.465  1.2050 -0.2405 -2.7659
  393MOL0     H54190   3.397   4.528   9.327 -0.8398 -0.4064  1.6352
  393MOL0     H54191   3.504   4.577   9.449 -1.0147  3.1129 -0.8324
  393MOL0     H54192   3.602   4.507   9.626 -0.2278 -0.1587 -0.3921
  393MOL0     H54193   3.695   4.417   9.956  2.1194  1.1429  1.3360
  393MOL0     H54194   3.705   4.528   9.812  3.7948  0.5295 -0.2828
  393MOL0     H54195   3.828   4.403   9.851 -0.0581  0.8337  3.6965
  393MOL0     H54196   3.760   3.773   9.943  0.2471 -0.6850  0.3573
  393MOL0     H54197   3.949   3.631  10.074  0.2375  0.4319  0.4279
  393MOL0     H54198   4.354   3.784  10.101 -1.9097 -0.2477 -2.0151
  393MOL0     H54199   4.251   3.787  10.240 -1.3171  0.0272  0.7023
  393MOL0     H54200   4.416   3.536  10.151  1.2452 -0.6564  1.6714
  393MOL0     H54201   4.444   3.647  10.281 -2.0787  1.3869  2.5387
  393MOL0     H54202   4.197   3.481  10.250 -2.0614 -2.4117  4.0605
  393MOL0     H54203   4.246   3.605  10.381 -1.8285  0.1986 -1.0910
  393MOL0     H54204   4.406   3.473  10.443 -0.8887  2.2069 -1.1875
  393MOL0     H54205   4.378   3.339  10.328  0.3755 -1.5718  0.6659
  393MOL0     H54206   4.175   3.424  10.544 -1.8964 -2.7693  0.3968
  393MOL0     H54207   4.156   3.308  10.409  2.9692 -2.2250 -1.9013
  393MOL0     H54208   4.224   3.235  10.662 -0.9496 -2.5587 -0.4148
  393MOL0     H54209   4.385   3.253  10.596 -0.4368 -0.2341  1.3132
  393MOL0     H54210   4.337   3.093  10.417  2.9451 -1.9505  1.4266
  393MOL0     H54211   4.162   3.073  10.461 -0.6806  0.0090  1.2824
  393MOL0     H54212   4.289   2.899  10.543  0.2697 -1.2141  1.9323
  393MOL0     H54213   4.198   2.991  10.653 -0.7712  1.0572 -0.9460
  393MOL0     H54214   4.223   3.928  10.023  0.4656 -0.9064 -0.0464
  393MOL0     H54215   4.063   4.087   9.911 -0.4844  1.0069  2.4915
  393MOL0     H54216   3.650   4.008   9.636  1.1023 -0.4806 -1.6207
  393MOL0     H54217   3.530   4.134   9.450  0.4005  1.3144 -0.1006
  393MOL0     H54218   3.439   5.794   9.166  2.3578 -0.8192 -2.1228
  393MOL0     H54219   3.330   5.930   9.025  0.0531 -1.6042  4.2112
  393MOL0     H54220   3.045   6.331   8.891  3.1491 -1.0729 -0.1131
  393MOL0     H54221   2.973   6.492   8.723 -1.8454 -1.6962  3.2615
  393MOL0     H54222   3.040   6.511   8.329  0.4484 -1.0847 -0.0563
  393MOL0     H54223   2.953   6.446   8.481  0.0976  0.2333 -0.9756
  393MOL0     H54224   2.972   6.716   8.397 -2.1216  3.0118  3.1320
  393MOL0     H54225   2.895   6.671   8.537 -0.1953  1.0369 -0.7906
  393MOL0     H54226   2.724   6.534   8.394 -2.2577  1.1079  0.4805
  393MOL0     H54227   2.725   6.711   8.379 -2.2474 -1.5090  0.0689
  393MOL0     H54228   2.912   6.657   8.177 -0.6820  2.4592 -1.9828
  393MOL0     H54229   2.740   6.668   8.147  1.1528 -0.7389 -0.9138
  393MOL0     H54230   2.863   6.251   8.160  0.8996  1.0742 -2.4799
  393MOL0     H54231   3.356   6.457   8.536 -0.4963  0.5906  0.0188
  393MOL0     H54232   3.505   6.310   8.583 -0.0740 -1.7350 -0.7190
  393MOL0     H54233   3.529   6.330   8.762 -0.4666  1.6051 -0.1355
  393MOL0     H54234   3.492   6.166   8.690  1.7777  0.9908  2.4165
  394MOL0     O54235   8.913   9.336   5.735  0.2348 -0.6305  1.0985
  394MOL0     C54236   8.972   9.435   5.788  0.8351  0.0518 -0.6485
  394MOL0     O54237   9.078   9.497   5.731  1.3910 -0.1518  0.4115
  394MOL0     C54238   9.051   9.526   5.598 -0.5467  1.2598 -0.2646
  394MOL0     C54239   8.983   9.640   5.575  0.0003 -0.2032  1.1210
  394MOL0     C54240   8.961   9.683   5.445 -0.0312  0.2220 -0.1686
  394MOL0     C54241   8.994   9.596   5.331  0.1036 -0.9633 -0.5289
  394MOL0     O54242   8.971   9.644   5.208 -0.4615  0.5717  0.1214
  394MOL0     C54243   9.049   9.762   5.175  0.3062 -0.1176  0.6580
  394MOL0     C54244   9.072   9.761   5.020 -1.2883  0.4509 -1.6554
  394MOL0     C54245   8.943   9.765   4.945  0.4031  0.4230  0.2908
  394MOL0     C54246   8.965   9.787   4.796 -0.6853  0.2684  0.2553
  394MOL0     C54247   9.077   9.687   4.742 -1.0467 -0.4503 -0.8314
  394MOL0     C54248   9.111   9.731   4.599 -0.4492 -0.1265  0.5014
  394MOL0     C54249   9.251   9.676   4.557  0.5954 -0.8071  0.1308
  394MOL0     C54250   9.291   9.729   4.416 -0.9837  0.3550  0.8362
  394MOL0     N54251   9.440   9.700   4.395 -0.6988 -0.3017 -0.1015
  394MOL0     C54252   9.510   9.643   4.297 -1.6246 -0.2331  0.2893
  394MOL0     C54253   9.651   9.646   4.318 -0.0190  0.1816  1.2311
  394MOL0     C54254   9.762   9.587   4.233 -0.8741 -0.2102  0.1226
  394MOL0     C54255   9.834   9.692   4.151  0.3896 -0.3523 -0.3858
  394MOL0     C54256   9.756   9.765   4.037  0.0501  0.0542  0.3553
  394MOL0     C54257   9.695   9.676   3.932  0.1707  0.2254  0.9097
  394MOL0     O54258   9.602   9.587   3.990  0.5393 -0.1546 -0.0562
  394MOL0     C54259   9.515   9.521   3.907  0.4908 -0.3328  0.0895
  394MOL0     C54260   9.527   9.530   3.762  0.4745 -1.5912  0.6288
  394MOL0     C54261   9.413   9.484   3.693  0.1031 -0.9457 -0.4829
  394MOL0     C54262   9.405   9.513   3.548 -0.4031  0.2005  0.3699
  394MOL0     C54263   9.311   9.403   3.759 -0.0048  0.4139  0.5654
  394MOL0     C54264   9.199   9.343   3.679 -0.2932  0.4873 -1.4308
  394MOL0     O54265   9.225   9.290   3.564  0.2022 -0.5471  0.4348
  394MOL0     C54266   9.118   9.227   3.500  0.0790  0.5647  0.3046
  394MOL0     C54267   9.024   9.299   3.421  0.8076  0.4852 -0.3546
  394MOL0     C54268   8.922   9.226   3.358  0.6637  0.0890  0.1429
  394MOL0     C54269   8.912   9.088   3.351 -1.1926  0.5165  0.1341
  394MOL0     O54270   8.827   9.021   3.261  0.6889 -0.9411 -0.4152
  394MOL0     C54271   8.691   9.012   3.309  0.2249  0.0761 -0.3845
  394MOL0     C54272   8.661   8.906   3.418 -0.2022 -0.1888 -0.8644
  394MOL0     C54273   8.508   8.880   3.426  0.3577  0.9238 -0.1233
  394MOL0     C54274   8.476   8.786   3.542  0.1275  0.2914  0.5675
  394MOL0     C54275   8.325   8.756   3.554 -1.0693 -0.2586  0.0639
  394MOL0     C54276   8.296   8.620   3.625 -0.1529  0.6593 -0.1535
  394MOL0     C54277   8.307   8.512   3.525  1.5144 -0.5766 -0.4438
  394MOL0     C54278   8.294   8.380   3.597  0.5922 -0.3782  0.4503
  394MOL0    Cl54279   8.291   8.225   3.492  0.3199  0.2123 -0.2757
  394MOL0     C54280   9.006   9.022   3.428  0.1621 -0.6293  0.0101
  394MOL0     C54281   9.106   9.089   3.502 -0.5080 -0.0413 -0.1881
  394MOL0     O54282   9.094   9.339   3.740  0.6037 -0.6182 -0.3698
  394MOL0     C54283   9.313   9.388   3.900 -0.0172 -0.6690  0.3603
  394MOL0     C54284   9.409   9.448   3.974 -0.5526  0.3725 -0.6209
  394MOL0     N54285   9.669   9.729   4.422  0.5533  0.4402 -0.4260
  394MOL0     N54286   9.541   9.763   4.465  0.2667  0.7204 -0.9776
  394MOL0     C54287   9.060   9.474   5.359  0.4432 -0.6445 -0.6201
  394MOL0     C54288   9.087   9.438   5.493  0.9783  0.1161  0.3314
  394MOL0     C54289   8.942   9.461   5.929 -0.3874  0.6980  1.3664
  394MOL0     C54290   9.041   9.522   6.006  0.2324 -0.8572 -0.9256
  394MOL0     C54291   9.028   9.544   6.136  0.9141  0.3530 -0.0401
  394MOL0     C54292   8.910   9.514   6.201  0.0727 -0.8858 -0.3097
  394MOL0     O54293   8.874   9.533   6.329  0.6636  0.3775  1.2018
  394MOL0     C54294   8.956   9.607   6.417  0.0621  0.2556 -0.5384
  394MOL0     C54295   9.051   9.509   6.488 -0.2410  0.6758  1.0660
  394MOL0     C54296   9.130   9.589   6.598  0.9938  0.2387 -0.3938
  394MOL0     C54297   9.239   9.675   6.556 -0.9035  0.1151 -0.1023
  394MOL0     C54298   9.285   9.763   6.660  0.1225  0.6489 -0.5957
  394MOL0     C54299   9.315   9.846   6.743  1.3117  0.0513 -0.0281
  394MOL0     C54300   8.808   9.451   6.127 -0.6731  0.7960 -0.4473
  394MOL0     C54301   8.818   9.427   5.984  0.4475  2.2123 -0.8192
  394MOL0     C54302   8.711   9.357   5.912  0.1082  0.0350  1.0016
  394MOL0     H54303   8.949   9.708   5.652 -6.2750 -0.5884 -0.8059
  394MOL0     H54304   8.923   9.782   5.422  2.2932  1.1928 -0.0829
  394MOL0     H54305   9.144   9.770   5.229  1.5380  0.1214 -1.4307
  394MOL0     H54306   8.982   9.846   5.198 -0.0064  0.1222 -0.9951
  394MOL0     H54307   9.124   9.848   4.980 -3.1100  1.8966 -0.9861
  394MOL0     H54308   9.123   9.666   5.004 -1.6496  0.4953 -3.2449
  394MOL0     H54309   8.886   9.671   4.956  0.7519  0.0358 -1.0337
  394MOL0     H54310   8.879   9.848   4.976 -0.7498  0.8247 -2.7529
  394MOL0     H54311   8.873   9.775   4.738 -1.7662  1.5232  1.6099
  394MOL0     H54312   8.989   9.893   4.782 -2.0573  1.3111  4.3398
  394MOL0     H54313   9.032   9.587   4.742 -0.0576 -0.9078 -0.6214
  394MOL0     H54314   9.165   9.694   4.807 -3.0318 -1.4142  2.1922
  394MOL0     H54315   9.029   9.696   4.535 -0.0450 -0.4589  0.1569
  394MOL0     H54316   9.113   9.839   4.584  0.8142  0.2748  3.1296
  394MOL0     H54317   9.255   9.566   4.561  3.0079 -0.7853 -0.5105
  394MOL0     H54318   9.323   9.712   4.630  0.5549 -0.8639  0.1990
  394MOL0     H54319   9.224   9.684   4.342 -0.1117 -2.6810  1.7560
  394MOL0     H54320   9.285   9.837   4.404  1.7935  0.4935  0.1159
  394MOL0     H54321   9.473   9.599   4.205 -0.7136  0.1879 -0.2901
  394MOL0     H54322   9.721   9.515   4.161 -0.6209  0.3851 -0.6253
  394MOL0     H54323   9.821   9.531   4.306 -0.5022 -0.1043 -0.0978
  394MOL0     H54324   9.875   9.757   4.229  0.3168 -1.0212  0.2193
  394MOL0     H54325   9.932   9.662   4.111  0.8392  1.1687 -0.5122
  394MOL0     H54326   9.681   9.836   4.073 -0.8350 -0.7584  0.1462
  394MOL0     H54327   9.829   9.834   3.995 -2.0128  0.6913 -2.5122
  394MOL0     H54328   9.651   9.750   3.865 -1.9213 -1.3808  0.3826
  394MOL0     H54329   9.777   9.626   3.880 -0.5728 -0.7606  0.6365
  394MOL0     H54330   9.608   9.579   3.709 -1.5437  2.2489  0.7217
  394MOL0     H54331   9.472   9.593   3.515  2.0251 -1.7995  0.1636
  394MOL0     H54332   9.303   9.526   3.511 -0.9024  3.5809  2.4826
  394MOL0     H54333   9.449   9.426   3.498 -2.6008 -1.0414  0.4638
  394MOL0     H54334   9.023   9.407   3.420 -0.8555  0.4956 -0.7225
  394MOL0     H54335   8.864   9.294   3.296 -1.2382  0.5950  2.3436
  394MOL0     H54336   8.667   9.114   3.342 -2.4604 -0.3604 -0.7835
  394MOL0     H54337   8.624   8.988   3.227 -1.4894  1.0227  0.6797
  394MOL0     H54338   8.692   8.808   3.381 -3.8896 -1.0940 -1.9681
  394MOL0     H54339   8.699   8.932   3.517 -1.6490 -1.4347  0.0651
  394MOL0     H54340   8.475   8.839   3.330  2.3645 -0.6093 -0.2303
  394MOL0     H54341   8.466   8.980   3.440  0.9973  1.3724 -1.2795
  394MOL0     H54342   8.516   8.823   3.637 -1.0759  0.8634  0.8772
  394MOL0     H54343   8.528   8.691   3.525 -1.3482 -0.4278 -0.1391
  394MOL0     H54344   8.282   8.837   3.613 -2.4741 -1.3779  0.6211
  394MOL0     H54345   8.278   8.755   3.455 -2.4885 -2.3612  0.6950
  394MOL0     H54346   8.195   8.627   3.666  0.8599 -1.3465  3.0767
  394MOL0     H54347   8.364   8.612   3.710 -4.4527  1.4459  3.7631
  394MOL0     H54348   8.408   8.512   3.483  2.2932 -0.7644  1.3141
  394MOL0     H54349   8.224   8.521   3.455 -1.2028  1.7134  2.7164
  394MOL0     H54350   8.208   8.383   3.665  0.4291  0.7071  0.2230
  394MOL0     H54351   8.374   8.371   3.671  1.1097  0.6387  0.0317
  394MOL0     H54352   8.986   8.916   3.441  0.9765 -0.7405  0.3682
  394MOL0     H54353   9.163   9.027   3.571  1.2080  4.0011  2.4408
  394MOL0     H54354   9.228   9.336   3.943 -2.3048  2.6688  0.2347
  394MOL0     H54355   9.412   9.443   4.083 -0.5526 -0.2087 -0.6485
  394MOL0     H54356   9.099   9.410   5.281 -0.1482  0.6927 -2.0647
  394MOL0     H54357   9.157   9.357   5.511  1.6596  0.7587  0.6424
  394MOL0     H54358   9.142   9.534   5.968  0.3063  0.1746 -0.4497
  394MOL0     H54359   9.107   9.596   6.189 -2.9609  6.8817  0.3766
  394MOL0     H54360   9.012   9.690   6.371  0.5521 -0.2195 -0.8082
  394MOL0     H54361   8.890   9.656   6.489 -2.8553 -2.7168 -0.9777
  394MOL0     H54362   9.109   9.446   6.420 -0.8726  1.2315 -0.0178
  394MOL0     H54363   8.988   9.433   6.535  3.0593 -0.6633  3.6928
  394MOL0     H54364   9.065   9.660   6.650  0.2888  0.4295 -1.5125
  394MOL0     H54365   9.162   9.525   6.681 -1.7494 -2.1521 -1.0122
  394MOL0     H54366   9.208   9.745   6.477 -2.8582 -1.2568 -0.6157
  394MOL0     H54367   9.316   9.606   6.519  0.1367  0.1137  1.9074
  394MOL0     H54368   9.332   9.935   6.800  1.7619 -0.8163  1.2592
  394MOL0     H54369   8.722   9.406   6.176 -0.0583  1.7268  1.6159
  394MOL0     H54370   8.699   9.386   5.808 -3.4067 -1.1169  0.9452
  394MOL0     H54371   8.719   9.250   5.929  0.7006  0.2450  2.1947
  394MOL0     H54372   8.616   9.388   5.958 -1.0591  0.0913 -1.3309
  395MOL0     O54373   8.502   6.008   7.255 -1.1593  0.2562  0.8027
  395MOL0     C54374   8.472   5.905   7.191 -0.6175  0.4009  0.7560
  395MOL0     O54375   8.356   5.867   7.122  0.6669 -0.8286 -0.4920
  395MOL0     C54376   8.251   5.964   7.133  0.1967 -0.1308  1.0201
  395MOL0     C54377   8.170   5.986   7.018 -0.0374  0.4730  0.0724
  395MOL0     C54378   8.058   6.078   7.027 -1.3572 -1.2028  0.6192
  395MOL0     C54379   8.024   6.144   7.137  0.7232  0.2142  1.1486
  395MOL0     O54380   7.924   6.232   7.143  0.2037  0.1477  0.1965
  395MOL0     C54381   7.934   6.359   7.214  0.0618 -0.6409  0.4508
  395MOL0     C54382   7.858   6.480   7.144  0.3672  0.0987  0.7659
  395MOL0     C54383   7.708   6.437   7.122  1.1108 -0.6013 -0.2072
  395MOL0     C54384   7.630   6.559   7.058 -1.0572 -0.1033 -0.0719
  395MOL0     C54385   7.477   6.544   7.057  0.3921  0.1747  0.6409
  395MOL0     C54386   7.429   6.423   6.978  0.4369  0.1494 -0.3898
  395MOL0     C54387   7.285   6.445   6.929  0.0183  0.1420 -0.0871
  395MOL0     C54388   7.243   6.334   6.820 -0.7820 -0.9829  0.1681
  395MOL0     N54389   7.123   6.383   6.746 -0.2079  0.0587  0.5425
  395MOL0     C54390   7.118   6.416   6.616  0.2984 -1.2336  0.3778
  395MOL0     C54391   6.987   6.456   6.594 -0.0369  0.1769 -1.0007
  395MOL0     C54392   6.923   6.503   6.474 -0.9932  0.4067  1.1902
  395MOL0     C54393   6.818   6.413   6.409 -0.0086 -0.4292 -0.3746
  395MOL0     C54394   6.875   6.275   6.363  0.1410  0.7847  0.0136
  395MOL0     C54395   6.785   6.209   6.254  0.0069  0.7557  0.0917
  395MOL0     O54396   6.798   6.271   6.130 -0.6328  0.1414 -0.1817
  395MOL0     C54397   6.806   6.182   6.026 -0.0961  1.1603  0.3507
  395MOL0     C54398   6.687   6.121   5.988  0.7926 -0.6986 -0.1164
  395MOL0     C54399   6.687   6.038   5.874  0.0320  0.2018  0.2037
  395MOL0     C54400   6.540   5.985   5.846  1.5069  0.0833  0.2790
  395MOL0     C54401   6.803   6.028   5.788  0.1943  1.9562  0.5348
  395MOL0     C54402   6.806   5.938   5.668  0.0300  0.8082 -1.0254
  395MOL0     O54403   6.819   5.990   5.547 -0.3442 -0.3280  0.5853
  395MOL0     C54404   6.863   5.905   5.451 -1.0981  0.4731 -0.3038
  395MOL0     C54405   6.999   5.905   5.412  0.6008 -0.8218 -0.6984
  395MOL0     C54406   7.049   5.816   5.316  0.4035  0.9745 -0.2542
  395MOL0     C54407   6.966   5.747   5.233  0.1290 -0.2714  0.4182
  395MOL0     O54408   7.017   5.666   5.135  0.4012  0.2228 -0.8115
  395MOL0     C54409   6.934   5.563   5.085  0.2890  0.6034  1.3099
  395MOL0     C54410   7.014   5.508   4.954 -0.8643  0.3652 -0.8249
  395MOL0     C54411   7.035   5.618   4.842 -0.0569  0.5000  0.9306
  395MOL0     C54412   7.131   5.565   4.733 -1.2770 -0.6544 -0.4059
  395MOL0     C54413   7.154   5.660   4.605  0.1661  0.4807  0.1051
  395MOL0     C54414   7.238   5.781   4.643 -0.2131  0.5714 -0.3669
  395MOL0     C54415   7.268   5.856   4.517 -0.9523 -0.4081  0.0198
  395MOL0     C54416   7.412   5.916   4.525  0.4996  0.0947 -0.0640
  395MOL0    Cl54417   7.455   6.022   4.389 -0.2669 -0.1804 -0.0991
  395MOL0     C54418   6.823   5.759   5.273  0.3345  0.0926  0.0530
  395MOL0     C54419   6.775   5.829   5.384  0.2803 -0.4367  0.8723
  395MOL0     O54420   6.786   5.817   5.695 -0.5527  0.9855 -0.1335
  395MOL0     C54421   6.920   6.101   5.814  0.2763  0.2508  0.1993
  395MOL0     C54422   6.923   6.166   5.941  0.2030  1.0586  0.2511
  395MOL0     N54423   6.925   6.428   6.712  0.1971 -0.1384  0.3220
  395MOL0     N54424   6.997   6.392   6.811 -0.7803 -0.4094  0.0794
  395MOL0     C54425   8.084   6.102   7.255 -0.4566 -0.6753  0.8918
  395MOL0     C54426   8.199   6.011   7.255  0.8335 -0.4462 -0.4273
  395MOL0     C54427   8.584   5.802   7.188 -0.4726  0.5029 -0.2315
  395MOL0     C54428   8.543   5.665   7.148  0.2510 -0.1782 -1.2380
  395MOL0     C54429   8.628   5.564   7.171 -0.8214 -0.1021  0.2975
  395MOL0     C54430   8.768   5.583   7.207 -0.0436 -0.6846  0.2511
  395MOL0     O54431   8.837   5.473   7.229 -0.1295 -0.0053  0.2194
  395MOL0     C54432   8.972   5.472   7.279  0.7942  0.4688 -0.4802
  395MOL0     C54433   9.021   5.327   7.282 -0.5210 -0.1918 -0.3833
  395MOL0     C54434   9.078   5.277   7.155 -0.0316  1.0985  0.4842
  395MOL0     C54435   8.995   5.328   7.037 -0.0735  0.8673 -1.0324
  395MOL0     C54436   9.041   5.271   6.911  0.2133 -0.8775 -0.1868
  395MOL0     C54437   9.061   5.227   6.800  0.2185 -0.4706 -0.4714
  395MOL0     C54438   8.808   5.711   7.237 -0.6237 -0.0326  0.2989
  395MOL0     C54439   8.721   5.821   7.221 -0.2046 -0.6241 -0.8900
  395MOL0     C54440   8.774   5.962   7.250 -0.1663  0.1953 -0.9426
  395MOL0     H54441   8.191   5.952   6.917 -2.0590 -3.4617  0.7817
  395MOL0     H54442   7.999   6.094   6.937 -0.9728 -0.3655  0.5094
  395MOL0     H54443   8.037   6.395   7.217  0.5173 -1.8693  0.1802
  395MOL0     H54444   7.882   6.352   7.310 -0.8123  1.2727  0.1535
  395MOL0     H54445   7.855   6.572   7.203  0.7025  0.5470  0.1012
  395MOL0     H54446   7.906   6.488   7.045  3.0590 -0.7148  1.9023
  395MOL0     H54447   7.690   6.352   7.056 -1.0239  1.6446 -2.7936
  395MOL0     H54448   7.653   6.428   7.216 -0.2331  0.8307 -0.8033
  395MOL0     H54449   7.657   6.645   7.119  0.6581  0.7831 -1.9947
  395MOL0     H54450   7.660   6.589   6.958  0.8734  4.5287  1.6317
  395MOL0     H54451   7.448   6.647   7.033  1.8226  0.5357  0.3763
  395MOL0     H54452   7.439   6.530   7.159 -0.1915  3.2967  0.9532
  395MOL0     H54453   7.499   6.415   6.895  1.0426  2.2309 -0.1370
  395MOL0     H54454   7.430   6.331   7.038 -0.5142 -0.3071 -1.0555
  395MOL0     H54455   7.274   6.548   6.894 -3.7625  1.4937  4.1508
  395MOL0     H54456   7.208   6.430   7.005 -3.2059  3.0002 -2.4724
  395MOL0     H54457   7.319   6.310   6.746 -1.0772 -1.0419 -0.1195
  395MOL0     H54458   7.232   6.237   6.868 -0.6244 -0.9322  0.3066
  395MOL0     H54459   7.185   6.393   6.534  3.2581  2.2600  1.5754
  395MOL0     H54460   7.004   6.529   6.404 -0.3352  1.3753  2.2719
  395MOL0     H54461   6.858   6.586   6.500 -2.0398  0.2243 -0.6265
  395MOL0     H54462   6.734   6.410   6.480  0.3678  1.1281  0.1791
  395MOL0     H54463   6.775   6.474   6.329  1.7257 -0.2679 -1.2256
  395MOL0     H54464   6.983   6.269   6.342 -0.1320 -0.5396 -1.1502
  395MOL0     H54465   6.863   6.216   6.454  1.0700  0.0753 -0.3120
  395MOL0     H54466   6.814   6.104   6.256  0.6762  0.9156 -0.7219
  395MOL0     H54467   6.682   6.214   6.292 -0.9327 -2.8723 -1.5343
  395MOL0     H54468   6.596   6.152   6.038  2.4302  3.6172  0.5844
  395MOL0     H54469   6.510   5.907   5.917 -0.7224 -0.4985 -1.1937
  395MOL0     H54470   6.543   5.943   5.745 -1.6348  0.3228  0.0109
  395MOL0     H54471   6.462   6.061   5.853  1.8057  0.7623 -2.5194
  395MOL0     H54472   7.063   5.974   5.466 -1.5908  2.6832 -2.2039
  395MOL0     H54473   7.155   5.815   5.295  0.2613  2.2425 -1.1344
  395MOL0     H54474   6.926   5.493   5.168 -3.4904  1.7374  2.0928
  395MOL0     H54475   6.836   5.590   5.046  0.1043 -2.3036 -0.5926
  395MOL0     H54476   7.114   5.481   4.990 -0.2086 -0.1966 -2.9234
  395MOL0     H54477   6.957   5.428   4.907 -0.5982  2.9030 -6.2262
  395MOL0     H54478   7.067   5.714   4.884  1.9544  0.2678  0.0526
  395MOL0     H54479   6.948   5.640   4.779 -0.4228  2.3012  1.9856
  395MOL0     H54480   7.086   5.474   4.692  0.8086 -1.2258 -1.6063
  395MOL0     H54481   7.231   5.551   4.775 -1.5294  0.5736  0.6652
  395MOL0     H54482   7.217   5.599   4.541 -1.1744 -0.7614 -0.0970
  395MOL0     H54483   7.062   5.698   4.558 -1.6134 -0.8850  2.2629
  395MOL0     H54484   7.323   5.738   4.696 -3.1195 -1.4452  3.0959
  395MOL0     H54485   7.189   5.850   4.712 -2.4712 -2.2715  1.0319
  395MOL0     H54486   7.210   5.947   4.503  1.0148  0.6869 -1.4784
  395MOL0     H54487   7.263   5.791   4.429  3.7330 -1.2135  0.0906
  395MOL0     H54488   7.479   5.831   4.538 -2.1537 -2.2543 -0.6745
  395MOL0     H54489   7.432   5.973   4.616  0.2222  1.5550 -0.8817
  395MOL0     H54490   6.740   5.712   5.220 -1.2828  1.8972  0.8819
  395MOL0     H54491   6.680   5.828   5.437  0.7920 -1.5077  1.8302
  395MOL0     H54492   7.006   6.112   5.749 -0.4382  0.5853 -0.7092
  395MOL0     H54493   7.014   6.217   5.971  1.4070 -1.4571  1.1377
  395MOL0     H54494   8.064   6.148   7.352  6.6765 -1.5327  3.3136
  395MOL0     H54495   8.237   6.002   7.357 -1.7337  2.3589  0.9505
  395MOL0     H54496   8.438   5.647   7.127 -0.2271  1.6350 -0.5855
  395MOL0     H54497   8.600   5.459   7.166  1.6658 -1.0643  3.0473
  395MOL0     H54498   9.036   5.539   7.220 -0.7481  0.8567 -1.7688
  395MOL0     H54499   8.963   5.505   7.383  0.0897  1.4904 -0.8404
  395MOL0     H54500   8.941   5.260   7.317 -0.4259 -1.7337 -2.8816
  395MOL0     H54501   9.098   5.328   7.359 -2.2473  0.4299  1.4373
  395MOL0     H54502   9.170   5.333   7.138 -1.3400  3.3220  0.2752
  395MOL0     H54503   9.070   5.170   7.135  0.6005  0.3103  3.9428
  395MOL0     H54504   9.010   5.436   7.027  2.7377  0.6146 -0.3399
  395MOL0     H54505   8.889   5.301   7.050  1.3605 -4.7581  2.9921
  395MOL0     H54506   9.074   5.178   6.706 -1.6586  1.4526 -1.8496
  395MOL0     H54507   8.909   5.735   7.269  0.4974 -1.7153 -1.7342
  395MOL0     H54508   8.882   5.966   7.233  0.1365 -0.7145  0.5565
  395MOL0     H54509   8.731   6.034   7.180  1.2676 -1.1036 -3.3042
  395MOL0     H54510   8.755   5.971   7.357  2.7675 -3.6887  0.1611
  396MOL0     O54511   0.019   7.289   1.365 -0.5612  0.3124  0.0409
  396MOL0     C54512   0.010   7.205   1.460  0.9558  0.0487  0.1163
  396MOL0     O54513  -0.004   7.074   1.443  0.1230 -0.0546  0.1997
  396MOL0     C54514   0.005   7.032   1.312 -0.0336  0.1943 -0.1474
  396MOL0     C54515  -0.114   7.014   1.239 -0.8413 -0.3745 -0.4042
  396MOL0     C54516  -0.103   6.963   1.107  0.6252 -0.0652 -0.6750
  396MOL0     C54517   0.020   6.906   1.070  0.5126 -0.0126 -0.2045
  396MOL0     O54518   0.017   6.850   0.945  0.4445 -0.1242  0.1695
  396MOL0     C54519   0.125   6.857   0.857  0.3899 -0.5588 -0.4006
  396MOL0     C54520   0.147   7.002   0.818 -1.1551 -0.6476  0.1639
  396MOL0     C54521   0.288   7.024   0.741  0.3962 -0.3522  0.7210
  396MOL0     C54522   0.327   6.895   0.664  0.3673  0.1045 -0.9991
  396MOL0     C54523   0.431   6.922   0.567  0.4565  0.6248 -0.2328
  396MOL0     C54524   0.557   6.999   0.595  0.3159 -0.4764 -0.3733
  396MOL0     C54525   0.681   6.909   0.601  0.1110  0.7186 -0.8215
  396MOL0     C54526   0.668   6.815   0.716 -0.9425 -0.3002 -0.3048
  396MOL0     N54527   0.801   6.776   0.760  0.8909 -0.5426 -0.5271
  396MOL0     C54528   0.893   6.705   0.692 -0.8381 -0.1938  0.2165
  396MOL0     C54529   0.988   6.661   0.783  0.0105 -0.0557 -0.0837
  396MOL0     C54530   1.108   6.576   0.751  0.3724 -0.6864  0.5920
  396MOL0     C54531   1.243   6.645   0.777  0.3513  0.2769 -0.3807
  396MOL0     C54532   1.364   6.541   0.788 -0.4140 -0.1059 -0.3170
  396MOL0     C54533   1.341   6.447   0.915  0.6471  0.1490  0.6611
  396MOL0     O54534   1.458   6.373   0.944  0.9136 -0.1406  0.1207
  396MOL0     C54535   1.460   6.265   1.035  0.0420 -0.5958 -0.0419
  396MOL0     C54536   1.359   6.217   1.120  0.5470 -0.0734 -0.3536
  396MOL0     C54537   1.387   6.095   1.186 -0.6162  0.3323  0.3286
  396MOL0     C54538   1.272   6.032   1.259  0.9871  0.4338  0.1847
  396MOL0     C54539   1.520   6.040   1.181 -0.1661 -0.8051  0.3163
  396MOL0     C54540   1.551   5.917   1.238 -0.5945  0.2127 -0.4469
  396MOL0     O54541   1.623   5.836   1.160 -0.2763 -0.0652 -0.1627
  396MOL0     C54542   1.666   5.723   1.217 -0.2856  0.5467 -0.0172
  396MOL0     C54543   1.796   5.702   1.250 -0.4255 -1.0240  0.6822
  396MOL0     C54544   1.837   5.591   1.314  0.5733  1.1033 -1.0946
  396MOL0     C54545   1.752   5.479   1.336  0.3281 -0.0143  0.8043
  396MOL0     O54546   1.781   5.364   1.412  0.0135  0.7013 -0.1759
  396MOL0     C54547   1.916   5.341   1.441  0.2068 -0.8180  0.2581
  396MOL0     C54548   1.990   5.309   1.313  0.7179  0.1966  0.0487
  396MOL0     C54549   1.992   5.154   1.304 -0.8706 -0.2651 -0.5255
  396MOL0     C54550   1.866   5.084   1.239 -0.4071  0.1061  0.3425
  396MOL0     C54551   1.910   4.993   1.122  0.6380  1.6100 -0.4445
  396MOL0     C54552   1.791   4.922   1.046 -0.4060  0.2026  0.3471
  396MOL0     C54553   1.853   4.837   0.928  0.5371  0.0708 -0.0244
  396MOL0     C54554   1.749   4.787   0.832 -0.3136  0.7578  0.1619
  396MOL0    Cl54555   1.714   4.922   0.726 -0.9190 -0.4428  0.3244
  396MOL0     C54556   1.621   5.497   1.300 -0.5296 -0.4428 -0.1107
  396MOL0     C54557   1.586   5.613   1.225  0.3577 -0.8132 -0.4971
  396MOL0     O54558   1.534   5.900   1.362  0.1957  0.1016  0.2166
  396MOL0     C54559   1.614   6.099   1.108  0.4318  0.0909 -0.5459
  396MOL0     C54560   1.586   6.205   1.029 -0.8279  0.3969 -0.8490
  396MOL0     N54561   0.940   6.702   0.903 -0.7289 -0.4209 -0.0619
  396MOL0     N54562   0.832   6.765   0.888  0.0594 -0.3234  0.2165
  396MOL0     C54563   0.143   6.930   1.137 -0.6381 -0.2946  0.3756
  396MOL0     C54564   0.131   6.989   1.264 -0.0630  0.3395 -0.2458
  396MOL0     C54565   0.006   7.267   1.594  0.3961  0.0424 -0.8406
  396MOL0     C54566  -0.014   7.407   1.606 -0.3868 -0.3141  0.4817
  396MOL0     C54567  -0.037   7.456   1.731 -0.5427  0.7131 -0.2522
  396MOL0     C54568  -0.027   7.381   1.848 -0.2082 -0.6464 -0.1238
  396MOL0     O54569  -0.032   7.449   1.967 -0.0762 -0.1010  0.0892
  396MOL0     C54570  -0.154   7.423   2.035  0.5783 -0.7954 -1.2984
  396MOL0     C54571  -0.262   7.521   2.004  0.5462  0.2245  0.5212
  396MOL0     C54572  -0.400   7.502   2.085  0.3895  0.2403  0.3074
  396MOL0     C54573  -0.521   7.588   2.036 -0.0871  0.5312 -0.5914
  396MOL0     C54574  -0.598   7.531   1.915 -0.4744  1.1788  0.2446
  396MOL0     C54575  -0.650   7.475   1.818  0.5730 -0.0281 -0.2796
  396MOL0     C54576  -0.003   7.239   1.841  0.0885 -0.1113 -0.4103
  396MOL0     C54577   0.014   7.182   1.715  0.1249 -0.7410  0.2905
  396MOL0     C54578   0.028   7.032   1.722 -0.4283 -0.0481 -0.3966
  396MOL0     H54579  -0.208   7.052   1.277 -0.7592 -1.1211  0.6151
  396MOL0     H54580  -0.180   6.958   1.031  0.9319 -0.8341 -0.9360
  396MOL0     H54581   0.088   6.806   0.768 -0.5617  0.9477 -0.9102
  396MOL0     H54582   0.219   6.813   0.892  1.5888  1.8370 -0.3523
  396MOL0     H54583   0.062   7.040   0.762  0.6424  1.7836 -1.1213
  396MOL0     H54584   0.163   7.058   0.910 -4.0341 -1.7678  1.4493
  396MOL0     H54585   0.283   7.115   0.681  0.0360 -2.0840 -2.0429
  396MOL0     H54586   0.376   7.023   0.806  0.8548  3.0615  0.2964
  396MOL0     H54587   0.355   6.814   0.732  0.6168  4.3800  4.7636
  396MOL0     H54588   0.242   6.867   0.602 -1.1117  0.5503  0.7226
  396MOL0     H54589   0.388   6.985   0.488 -2.8693 -1.9003 -0.6771
  396MOL0     H54590   0.452   6.823   0.526 -1.5365  0.4484 -0.9388
  396MOL0     H54591   0.569   7.075   0.518 -0.9652  1.8465  1.5551
  396MOL0     H54592   0.542   7.066   0.681  0.8543 -2.1131  1.0512
  396MOL0     H54593   0.773   6.966   0.620 -0.2199  1.3364 -1.0376
  396MOL0     H54594   0.697   6.855   0.507  2.5463 -3.0597  1.5013
  396MOL0     H54595   0.620   6.867   0.799 -2.9178 -1.5131 -0.6244
  396MOL0     H54596   0.610   6.723   0.699  0.6231 -1.0521 -1.9029
  396MOL0     H54597   0.882   6.677   0.587 -0.5761  0.7896 -0.0893
  396MOL0     H54598   1.102   6.541   0.648  1.5251 -1.9984  0.9297
  396MOL0     H54599   1.098   6.493   0.822 -1.4771 -0.4451  0.6575
  396MOL0     H54600   1.263   6.722   0.701 -0.6755  0.4869 -0.4557
  396MOL0     H54601   1.249   6.707   0.867  1.2543 -0.5380  0.1398
  396MOL0     H54602   1.377   6.491   0.691 -0.2416  1.1498 -0.9679
  396MOL0     H54603   1.460   6.591   0.803 -0.6986 -0.0937  1.6590
  396MOL0     H54604   1.313   6.500   1.006 -0.1340  0.5215  0.2127
  396MOL0     H54605   1.254   6.383   0.895  0.8070  0.5210 -1.4296
  396MOL0     H54606   1.263   6.265   1.131  1.1079  0.8238  0.8473
  396MOL0     H54607   1.264   6.096   1.348  0.4966 -0.9406  1.1708
  396MOL0     H54608   1.290   5.931   1.297 -1.1336  0.9846  3.0866
  396MOL0     H54609   1.176   6.031   1.206  0.9222 -1.6943  0.2748
  396MOL0     H54610   1.872   5.778   1.239 -4.3732  3.1254 -1.0576
  396MOL0     H54611   1.941   5.586   1.347  0.2871 -2.3314 -0.3807
  396MOL0     H54612   1.947   5.436   1.485 -2.7305  0.8822 -1.0350
  396MOL0     H54613   1.919   5.260   1.514  4.0055 -1.9038 -0.8592
  396MOL0     H54614   1.947   5.343   1.219  1.4385  2.5868  0.5313
  396MOL0     H54615   2.092   5.349   1.320  0.9068 -0.1612 -0.5877
  396MOL0     H54616   2.006   5.119   1.406 -0.4179  3.7314  0.9640
  396MOL0     H54617   2.082   5.116   1.253 -1.7209 -1.3052 -1.2870
  396MOL0     H54618   1.789   5.147   1.193  0.4892 -0.6565 -2.3425
  396MOL0     H54619   1.821   5.030   1.323  0.4485 -0.1360  0.6616
  396MOL0     H54620   1.973   5.043   1.047  2.0157 -1.2630 -1.3309
  396MOL0     H54621   1.975   4.912   1.156  0.8774  1.4382 -1.2913
  396MOL0     H54622   1.715   4.998   1.030  0.2923  0.4689 -1.9659
  396MOL0     H54623   1.736   4.858   1.116 -2.9798 -0.5021 -2.1542
  396MOL0     H54624   1.917   4.756   0.961 -3.1428 -1.6979  3.8040
  396MOL0     H54625   1.914   4.911   0.876  3.1052 -3.4036 -2.3753
  396MOL0     H54626   1.655   4.754   0.878 -1.6481 -1.5786 -3.7939
  396MOL0     H54627   1.781   4.715   0.757 -1.9600  2.0648 -1.8958
  396MOL0     H54628   1.529   5.440   1.310 -1.1192  0.6235  0.7164
  396MOL0     H54629   1.483   5.633   1.194  0.1395  0.6145  1.0008
  396MOL0     H54630   1.712   6.053   1.093  1.6164  1.6516  1.9088
  396MOL0     H54631   1.664   6.252   0.969  0.5314 -1.7519 -0.8647
  396MOL0     H54632   0.237   6.914   1.086 -1.0872 -0.7889 -0.3166
  396MOL0     H54633   0.224   7.016   1.314  1.2792  1.0398 -2.9440
  396MOL0     H54634  -0.014   7.475   1.523 -0.7845 -0.1705  0.5991
  396MOL0     H54635  -0.056   7.561   1.747 -2.8875  0.6585 -2.1639
  396MOL0     H54636  -0.197   7.323   2.026  0.4762 -0.7744 -1.0650
  396MOL0     H54637  -0.128   7.425   2.141  0.1790  0.2433 -1.2043
  396MOL0     H54638  -0.280   7.505   1.897  0.3788 -2.3400  0.8694
  396MOL0     H54639  -0.219   7.621   2.016  1.0822  0.0220  0.3424
  396MOL0     H54640  -0.430   7.398   2.083  0.0520  0.3210  0.8982
  396MOL0     H54641  -0.394   7.519   2.193  0.2500  0.5473  0.2691
  396MOL0     H54642  -0.483   7.688   2.015  0.8308  0.3925  0.3374
  396MOL0     H54643  -0.597   7.595   2.115  0.0439  0.9798 -0.5055
  396MOL0     H54644  -0.681   7.426   1.728  2.0453 -1.1704 -0.1956
  396MOL0     H54645   0.012   7.181   1.931  3.1589  1.7704  0.4611
  396MOL0     H54646   0.069   7.009   1.821 -3.0690 -2.7685  0.2013
  396MOL0     H54647  -0.075   6.995   1.715 -1.6171  2.5996  1.3841
  396MOL0     H54648   0.079   6.981   1.640  0.3613  2.2348 -1.4150
  397MOL0     O54649   5.186   4.248  10.216 -0.4454 -0.1408 -0.0342
  397MOL0     C54650   5.144   4.135  10.188 -1.0743 -0.6502 -0.8486
  397MOL0     O54651   5.112   4.040  10.276  0.5624  1.0301 -0.6307
  397MOL0     C54652   5.095   4.066  10.410 -0.0007 -1.0519  1.1757
  397MOL0     C54653   4.979   4.041  10.475 -0.3475  0.1828  0.0629
  397MOL0     C54654   4.981   4.053  10.621  0.4057  0.0228  0.2951
  397MOL0     C54655   5.097   4.080  10.692 -0.8338  0.9089  0.0917
  397MOL0     O54656   5.075   4.083  10.823  0.4354 -0.0715  0.3717
  397MOL0     C54657   5.152   3.989  10.910  0.3184  0.6042 -0.0586
  397MOL0     C54658   5.082   3.851  10.929 -0.6968 -0.7388 -0.4873
  397MOL0     C54659   5.164   3.768  11.031  0.4077  0.6305  0.5816
  397MOL0     C54660   5.130   3.814  11.175  0.8154  0.4352  0.1319
  397MOL0     C54661   5.205   3.724  11.274  0.1560  0.2699  0.3084
  397MOL0     C54662   5.154   3.755  11.414  1.1202  0.3757  0.3466
  397MOL0     C54663   5.137   3.911  11.448 -0.1176 -0.2647  0.2229
  397MOL0     C54664   5.182   3.956  11.600  0.5437  0.2589 -0.4224
  397MOL0     N54665   5.145   3.858  11.694  0.0513  0.4726  1.0938
  397MOL0     C54666   5.020   3.800  11.694 -1.0875  0.4228  0.8230
  397MOL0     C54667   5.009   3.732  11.806  0.3725 -0.4286  0.7161
  397MOL0     C54668   4.886   3.662  11.873  0.3419  0.3000  0.7441
  397MOL0     C54669   4.777   3.770  11.922  0.7500 -0.1515 -0.2076
  397MOL0     C54670   4.844   3.886  11.997  0.4214 -0.0990  0.3632
  397MOL0     C54671   4.733   3.985  12.032  0.1478 -0.9627 -1.2015
  397MOL0     O54672   4.664   4.036  11.916  0.7240  0.1496 -0.2368
  397MOL0     C54673   4.736   4.102  11.821  0.7240  0.7462  0.1960
  397MOL0     C54674   4.860   4.163  11.851  0.1008 -0.1330  0.1483
  397MOL0     C54675   4.937   4.216  11.743  0.7273 -1.1771 -1.1741
  397MOL0     C54676   5.070   4.270  11.789  0.4778  0.1892  0.9514
  397MOL0     C54677   4.897   4.195  11.608 -0.3616 -0.4960  0.0007
  397MOL0     C54678   4.975   4.242  11.486  0.1084 -0.2510  0.9657
  397MOL0     O54679   4.903   4.240  11.362 -0.5837  0.7853  0.1311
  397MOL0     C54680   4.945   4.290  11.244 -0.0706 -0.8655  0.8318
  397MOL0     C54681   4.855   4.374  11.169  0.4882  0.8978 -0.2996
  397MOL0     C54682   4.894   4.430  11.052 -1.4722 -0.1908  0.5170
  397MOL0     C54683   5.026   4.427  11.001  0.0237 -0.1276  0.2424
  397MOL0     O54684   5.051   4.490  10.882 -0.5347  0.6546 -0.2423
  397MOL0     C54685   5.185   4.472  10.833  1.8281  0.3156 -0.4373
  397MOL0     C54686   5.185   4.539  10.684 -0.7358  0.3901  0.2410
  397MOL0     C54687   5.057   4.504  10.602 -0.1368  0.4725 -0.3202
  397MOL0     C54688   5.077   4.564  10.467 -0.8306  0.3817  0.6869
  397MOL0     C54689   4.981   4.509  10.356 -0.9776  0.2941  0.8691
  397MOL0     C54690   4.839   4.559  10.349  0.2605  0.0593  0.6340
  397MOL0     C54691   4.740   4.497  10.445 -0.8984 -0.8538  0.9944
  397MOL0     C54692   4.744   4.344  10.455  0.5457  0.1281 -0.6311
  397MOL0    Cl54693   4.725   4.269  10.302  0.0617  0.5420 -0.5078
  397MOL0     C54694   5.117   4.374  11.088 -0.7882  0.4142 -1.0638
  397MOL0     C54695   5.080   4.294  11.201 -1.0309 -0.7593 -0.6818
  397MOL0     O54696   5.077   4.308  11.499 -0.1194  0.5841 -0.8177
  397MOL0     C54697   4.770   4.140  11.587 -0.2410  1.1498 -0.7568
  397MOL0     C54698   4.694   4.093  11.691  0.5321 -1.2536 -0.1606
  397MOL0     N54699   5.128   3.753  11.876 -0.0541 -0.2851  0.3412
  397MOL0     N54700   5.203   3.833  11.809 -0.1434 -0.0936  0.0053
  397MOL0     C54701   5.219   4.100  10.627  0.3900 -0.0175 -0.0401
  397MOL0     C54702   5.214   4.097  10.488  0.9057  0.2718  0.9810
  397MOL0     C54703   5.147   4.089  10.051 -0.0313  0.1367  0.5398
  397MOL0     C54704   5.188   3.955  10.007 -0.1236  0.4952 -0.0806
  397MOL0     C54705   5.168   3.906   9.875 -0.1514  0.2968 -0.4303
  397MOL0     C54706   5.134   3.992   9.776  0.3622  0.2768  0.2013
  397MOL0     O54707   5.127   3.938   9.651 -1.1976 -0.1938  1.3380
  397MOL0     C54708   5.092   4.008   9.532 -0.7530  0.2933  0.3470
  397MOL0     C54709   5.216   4.072   9.466  0.2602 -0.5807 -0.4487
  397MOL0     C54710   5.301   3.960   9.397 -0.0996 -0.8140  0.0477
  397MOL0     C54711   5.398   4.017   9.291 -0.9888  0.4385 -1.1140
  397MOL0     C54712   5.418   3.948   9.161  0.2316  0.2365 -0.1096
  397MOL0     C54713   5.455   3.903   9.057  0.6653  0.1329 -0.6424
  397MOL0     C54714   5.097   4.125   9.812 -0.6869 -0.1678  0.5869
  397MOL0     C54715   5.104   4.178   9.949 -0.7469  0.7187  0.7672
  397MOL0     C54716   5.060   4.324   9.967  0.5039  1.2656 -0.4177
  397MOL0     H54717   4.882   4.018  10.431 -0.4803  0.9910 -0.0709
  397MOL0     H54718   4.882   4.047  10.665  0.1038 -2.1458 -0.5280
  397MOL0     H54719   5.161   4.035  11.009 -2.4074 -0.8425  0.9714
  397MOL0     H54720   5.253   3.973  10.871  0.6770  2.1408  0.1863
  397MOL0     H54721   4.978   3.860  10.962 -0.3547 -2.7429  1.3573
  397MOL0     H54722   5.080   3.799  10.833 -1.0110 -2.7988  0.5831
  397MOL0     H54723   5.147   3.660  11.019 -2.3166  1.0195  0.3434
  397MOL0     H54724   5.270   3.778  11.004  0.5996 -0.9014  0.6831
  397MOL0     H54725   5.159   3.920  11.179  0.3531  0.5435  0.6445
  397MOL0     H54726   5.022   3.813  11.189  0.4779 -0.0402 -2.1430
  397MOL0     H54727   5.309   3.759  11.270  0.5918 -0.4558  3.1067
  397MOL0     H54728   5.196   3.621  11.238  0.1703  0.3304  0.1298
  397MOL0     H54729   5.056   3.707  11.421  1.6882 -1.5085 -2.5825
  397MOL0     H54730   5.215   3.705  11.489  1.4899  0.7447  0.2945
  397MOL0     H54731   5.030   3.934  11.437 -0.1064 -0.0204  0.5761
  397MOL0     H54732   5.199   3.972  11.382 -2.5975  0.8224 -1.2468
  397MOL0     H54733   5.291   3.955  11.591  0.5156 -1.4160 -0.9140
  397MOL0     H54734   5.154   4.056  11.636  1.2596  1.0857 -2.0466
  397MOL0     H54735   4.933   3.813  11.631  0.0188 -1.0373 -1.1457
  397MOL0     H54736   4.908   3.595  11.957 -0.5914  0.9744  1.5410
  397MOL0     H54737   4.836   3.591  11.807  1.3533  2.2190 -2.2959
  397MOL0     H54738   4.715   3.816  11.845  3.1741  1.4250 -1.3338
  397MOL0     H54739   4.708   3.724  11.992  0.6762  4.9366  3.6555
  397MOL0     H54740   4.892   3.846  12.086  1.0039  2.9889  1.5605
  397MOL0     H54741   4.920   3.936  11.937  0.5089 -0.4478  0.1821
  397MOL0     H54742   4.661   3.928  12.092 -0.2915 -1.7321 -2.4147
  397MOL0     H54743   4.771   4.064  12.098 -0.3547 -0.3836 -1.5924
  397MOL0     H54744   4.899   4.191  11.948  0.6026  0.3768 -0.1942
  397MOL0     H54745   5.089   4.353  11.720 -1.9135  2.4022  2.7386
  397MOL0     H54746   5.145   4.191  11.787 -0.1939 -0.4971  1.8253
  397MOL0     H54747   5.069   4.318  11.888  0.0359 -0.0974  1.0876
  397MOL0     H54748   4.751   4.383  11.196 -0.0636 -0.1824 -1.9160
  397MOL0     H54749   4.820   4.481  10.992 -2.1402 -3.5181 -1.7339
  397MOL0     H54750   5.255   4.518  10.903  0.5395  2.7001 -0.6121
  397MOL0     H54751   5.213   4.366  10.827 -1.0595 -0.7252  1.7729
  397MOL0     H54752   5.189   4.648  10.696  2.7877  0.4382 -0.3682
  397MOL0     H54753   5.278   4.517  10.632  1.7928 -1.0016  4.7999
  397MOL0     H54754   4.971   4.553  10.647  1.7648  1.4162  2.6034
  397MOL0     H54755   5.041   4.397  10.585 -1.5497  0.6394 -0.1637
  397MOL0     H54756   5.179   4.541  10.436 -0.9958  0.1244  0.3233
  397MOL0     H54757   5.067   4.673  10.468 -3.6196  0.2164  1.1108
  397MOL0     H54758   5.028   4.552  10.266  0.3545 -1.2596  0.7787
  397MOL0     H54759   4.988   4.400  10.348 -2.4403  0.2877 -1.4600
  397MOL0     H54760   4.809   4.543  10.245 -0.0556  1.2094  0.5357
  397MOL0     H54761   4.832   4.668  10.358  0.4194  0.3912 -2.2877
  397MOL0     H54762   4.639   4.525  10.416  0.6212  2.4269 -1.9059
  397MOL0     H54763   4.766   4.541  10.542 -1.1014  2.7682 -0.4474
  397MOL0     H54764   4.668   4.314  10.528  1.4065  0.0691  0.2681
  397MOL0     H54765   4.847   4.322  10.483  0.9020  2.3393  0.0224
  397MOL0     H54766   5.225   4.388  11.080 -0.2838 -1.2557  1.5337
  397MOL0     H54767   5.145   4.229  11.258 -1.1986  1.1439  1.8923
  397MOL0     H54768   4.719   4.135  11.492 -1.5828  0.0019 -0.0200
  397MOL0     H54769   4.597   4.047  11.681 -0.1144  0.2319 -1.1817
  397MOL0     H54770   5.304   4.126  10.690 -0.4522  0.4281  0.9431
  397MOL0     H54771   5.305   4.085  10.430  0.7926 -1.9444  1.1573
  397MOL0     H54772   5.225   3.874  10.068 -5.0234 -1.5719  0.5524
  397MOL0     H54773   5.213   3.811   9.849 -1.1213 -0.0872 -0.7478
  397MOL0     H54774   5.058   3.939   9.454  1.6594 -0.1143 -0.4109
  397MOL0     H54775   5.011   4.081   9.546 -1.4525  0.3820 -3.1876
  397MOL0     H54776   5.270   4.134   9.537 -1.8005  0.7744  0.0330
  397MOL0     H54777   5.180   4.139   9.386  0.8138 -0.2497 -0.4228
  397MOL0     H54778   5.349   3.903   9.477  1.4583  0.7503  0.2930
  397MOL0     H54779   5.234   3.879   9.367 -2.0019 -0.0127  1.8827
  397MOL0     H54780   5.493   4.007   9.345 -1.6846 -2.4123 -0.2342
  397MOL0     H54781   5.386   4.125   9.280  0.6285  1.2265  2.9148
  397MOL0     H54782   5.495   3.873   8.962 -0.4467  1.8964 -1.7435
  397MOL0     H54783   5.060   4.193   9.736  0.1308  1.3065  1.4492
  397MOL0     H54784   5.037   4.362   9.867  0.6580  1.7889 -0.2561
  397MOL0     H54785   4.973   4.334  10.032  1.4365  1.2498  0.8788
  397MOL0     H54786   5.140   4.383  10.011 -0.3629  1.3034  1.1509
  398MOL0     O54787   9.736   5.535   1.418  0.3924 -0.7474 -0.2295
  398MOL0     C54788   9.717   5.460   1.322  0.1450 -0.5409  0.2175
  398MOL0     O54789   9.771   5.489   1.195 -0.4735 -0.3850 -0.1237
  398MOL0     C54790   9.821   5.610   1.174  0.5256  0.2077  0.7722
  398MOL0     C54791   9.740   5.724   1.197 -0.7480  0.2377  0.4897
  398MOL0     C54792   9.803   5.851   1.167  1.1216  0.3502 -0.6697
  398MOL0     C54793   9.930   5.863   1.102  0.8038  0.1244  0.7708
  398MOL0     O54794   9.958   5.998   1.069  0.2289 -0.8863  0.1141
  398MOL0     C54795  10.061   6.018   0.970  0.1282  0.2725  0.6356
  398MOL0     C54796  10.063   6.163   0.926  0.0809 -0.4398 -0.3398
  398MOL0     C54797  10.166   6.197   0.829 -0.1640 -0.0131  1.0388
  398MOL0     C54798  10.157   6.123   0.693 -0.4769  0.3470 -0.4630
  398MOL0     C54799  10.064   6.183   0.587 -0.2525  1.0874  0.0784
  398MOL0     C54800  10.105   6.326   0.551 -0.5860  0.5804 -1.1059
  398MOL0     C54801  10.039   6.368   0.418  0.4886 -0.9975 -0.1586
  398MOL0     C54802  10.045   6.523   0.392  0.8513 -0.5780  0.1569
  398MOL0     N54803   9.961   6.617   0.472  0.2364  0.6108 -0.3282
  398MOL0     C54804   9.827   6.649   0.441  0.2551 -0.7140  0.4040
  398MOL0     C54805   9.782   6.718   0.555 -0.3958 -0.2473  0.7733
  398MOL0     C54806   9.643   6.767   0.566 -0.4988 -0.8119 -0.0200
  398MOL0     C54807   9.625   6.900   0.487  0.0171 -0.7476  0.7955
  398MOL0     C54808   9.689   6.892   0.350  0.3393  0.0945  1.2094
  398MOL0     C54809   9.678   7.024   0.277  0.0489 -0.1300  0.0049
  398MOL0     O54810   9.595   7.014   0.160  0.5614 -0.2349 -0.3753
  398MOL0     C54811   9.644   7.021   0.037  0.1223  0.1396 -0.4739
  398MOL0     C54812   9.646   7.143  -0.030  0.7680  0.2486 -0.3728
  398MOL0     C54813   9.711   7.149  -0.148 -0.2926  0.3116  0.5292
  398MOL0     C54814   9.727   7.291  -0.201  0.7382  0.6971  0.5575
  398MOL0     C54815   9.741   7.034  -0.229 -0.6181 -1.0623  0.2881
  398MOL0     C54816   9.794   7.037  -0.372 -0.1980 -0.1702  0.7871
  398MOL0     O54817   9.758   6.935  -0.455  0.0351  0.3654 -0.0115
  398MOL0     C54818   9.804   6.916  -0.585  0.6334  0.2053 -0.3596
  398MOL0     C54819   9.720   6.843  -0.662 -0.6805 -0.2115  0.8689
  398MOL0     C54820   9.749   6.815  -0.802 -1.1614 -0.5753 -0.2695
  398MOL0     C54821   9.871   6.856  -0.853  0.5780 -0.8291 -0.6053
  398MOL0     O54822   9.911   6.830  -0.987  0.7174 -0.5875 -0.1398
  398MOL0     C54823   9.812   6.869  -1.093 -0.0236 -0.1259 -0.3657
  398MOL0     C54824   9.797   7.022  -1.106 -0.3891 -0.4118  0.6394
  398MOL0     C54825   9.711   7.045  -1.231  0.0135 -0.6320 -0.6477
  398MOL0     C54826   9.790   7.102  -1.354  0.0096 -0.1188  0.2511
  398MOL0     C54827   9.715   7.145  -1.476  0.6872 -0.2854 -0.2361
  398MOL0     C54828   9.811   7.161  -1.601  0.6384 -0.0179 -0.7537
  398MOL0     C54829   9.741   7.232  -1.723 -0.2641  0.8955  0.0228
  398MOL0     C54830   9.689   7.153  -1.838  0.3395 -0.0768 -0.1420
  398MOL0    Cl54831   9.803   7.052  -1.920  0.8381  0.0401  0.1092
  398MOL0     C54832   9.966   6.918  -0.770 -0.1763  0.1733 -0.4924
  398MOL0     C54833   9.932   6.950  -0.633 -0.7186  0.6188  0.1713
  398MOL0     O54834   9.882   7.120  -0.394 -0.2632 -0.1434  0.8337
  398MOL0     C54835   9.721   6.913  -0.171  0.2538 -0.2623 -0.7098
  398MOL0     C54836   9.670   6.906  -0.034 -1.2426 -0.8943  0.1325
  398MOL0     N54837   9.894   6.741   0.642 -1.0819  0.5563  0.3420
  398MOL0     N54838   9.998   6.670   0.596  0.5995 -0.0583  0.0739
  398MOL0     C54839  10.011   5.747   1.082  0.3125  0.0004 -1.2717
  398MOL0     C54840   9.951   5.630   1.124  0.2469  0.1697  0.0462
  398MOL0     C54841   9.648   5.331   1.342  0.5026  0.6713 -0.2557
  398MOL0     C54842   9.678   5.227   1.250 -0.5862 -0.6154 -0.2278
  398MOL0     C54843   9.635   5.095   1.263  0.6119 -0.0832  0.0123
  398MOL0     C54844   9.548   5.072   1.372 -0.4164 -0.5041  0.3157
  398MOL0     O54845   9.483   4.949   1.370  0.2912 -0.4011 -0.1468
  398MOL0     C54846   9.412   4.889   1.481  0.6705  0.3419 -0.0631
  398MOL0     C54847   9.497   4.873   1.600  0.6210  0.5518  1.3955
  398MOL0     C54848   9.578   4.744   1.619 -0.2374 -0.4450 -0.9803
  398MOL0     C54849   9.708   4.717   1.543  1.0272 -0.1777  0.5210
  398MOL0     C54850   9.791   4.612   1.601  0.1244 -0.0281 -0.3623
  398MOL0     C54851   9.853   4.528   1.669  0.2171 -0.8282  1.1481
  398MOL0     C54852   9.502   5.175   1.453 -0.4882  0.6875 -0.0205
  398MOL0     C54853   9.552   5.302   1.447 -0.1295  0.5178  0.1165
  398MOL0     C54854   9.495   5.404   1.552  0.4064  1.2220  0.1281
  398MOL0     H54855   9.640   5.717   1.237 -0.9753  0.8693  0.0445
  398MOL0     H54856   9.747   5.934   1.207  3.2680  1.5438  0.0255
  398MOL0     H54857  10.036   5.957   0.883 -2.0192 -0.6928  1.8457
  398MOL0     H54858  10.156   5.980   1.008  0.6181  0.7024 -0.1323
  398MOL0     H54859   9.961   6.188   0.897 -0.3977 -1.5912  0.3053
  398MOL0     H54860  10.080   6.212   1.022 -4.8809  0.1899  0.4988
  398MOL0     H54861  10.181   6.302   0.800  2.3382 -0.7770 -0.7888
  398MOL0     H54862  10.260   6.167   0.876  1.3055 -0.3310 -1.8494
  398MOL0     H54863  10.257   6.122   0.649 -1.1563  1.0087 -2.1533
  398MOL0     H54864  10.121   6.021   0.708 -0.1540  0.2600 -0.2742
  398MOL0     H54865   9.963   6.184   0.629  0.0204 -0.6166  0.8981
  398MOL0     H54866  10.074   6.115   0.501 -5.8120 -1.3349  0.9416
  398MOL0     H54867  10.072   6.388   0.634 -1.4730 -0.8607 -0.3252
  398MOL0     H54868  10.213   6.334   0.537 -0.0762  0.2138  1.9249
  398MOL0     H54869   9.932   6.345   0.408  0.8148 -2.1610 -1.1852
  398MOL0     H54870  10.094   6.309   0.344  0.9806 -0.0481 -0.5649
  398MOL0     H54871  10.146   6.565   0.401  0.6080  0.5051 -1.6959
  398MOL0     H54872  10.027   6.543   0.286  1.3962 -0.4892  0.0752
  398MOL0     H54873   9.774   6.630   0.348 -0.6898  2.1270  0.2587
  398MOL0     H54874   9.629   6.796   0.671 -1.0532 -1.6547  0.1465
  398MOL0     H54875   9.572   6.690   0.536  1.8653 -2.1573 -2.5455
  398MOL0     H54876   9.520   6.928   0.478 -1.0450 -3.9179  1.8690
  398MOL0     H54877   9.676   6.981   0.539  0.5150 -1.0726  0.8331
  398MOL0     H54878   9.797   6.875   0.344  0.6650  2.3826 -1.8224
  398MOL0     H54879   9.644   6.812   0.290  1.0815  1.8459 -1.8864
  398MOL0     H54880   9.633   7.101   0.341 -3.2486 -0.7391 -1.3672
  398MOL0     H54881   9.782   7.049   0.254  1.6143 -0.2692  5.4319
  398MOL0     H54882   9.623   7.240   0.013  2.5382  0.8500 -0.6845
  398MOL0     H54883   9.758   7.370  -0.132 -2.2641  0.1018  2.7985
  398MOL0     H54884   9.634   7.316  -0.252  1.3834 -1.4337 -1.9088
  398MOL0     H54885   9.798   7.288  -0.284  0.2632 -0.8654  0.1713
  398MOL0     H54886   9.637   6.797  -0.610 -0.9406  0.7807  1.3475
  398MOL0     H54887   9.675   6.761  -0.860 -1.7928 -1.6633  1.4932
  398MOL0     H54888   9.847   6.829  -1.188 -1.9257 -0.0205 -1.1510
  398MOL0     H54889   9.719   6.814  -1.073 -0.4034  0.5111 -0.3716
  398MOL0     H54890   9.747   7.062  -1.017  1.4381  0.4183  1.3612
  398MOL0     H54891   9.894   7.069  -1.125  0.0044 -1.3578  0.2303
  398MOL0     H54892   9.627   7.110  -1.205  1.0779  0.8996 -0.8879
  398MOL0     H54893   9.672   6.953  -1.275 -2.0229 -1.1624  2.0568
  398MOL0     H54894   9.869   7.032  -1.383 -0.9392 -1.8999  1.7419
  398MOL0     H54895   9.850   7.181  -1.307 -0.7375  0.0282  0.9787
  398MOL0     H54896   9.642   7.065  -1.493 -1.9005  1.5965  1.2275
  398MOL0     H54897   9.662   7.240  -1.463  1.0460 -0.0869 -0.2247
  398MOL0     H54898   9.859   7.065  -1.622  0.1552 -0.5331  0.4144
  398MOL0     H54899   9.901   7.217  -1.573 -0.3610  1.1704  0.1796
  398MOL0     H54900   9.810   7.313  -1.752  3.1932 -2.4236 -1.9362
  398MOL0     H54901   9.659   7.292  -1.683 -2.2581  0.2677 -2.8967
  398MOL0     H54902   9.646   7.226  -1.906  0.4168  2.0330  1.9269
  398MOL0     H54903   9.603   7.095  -1.805 -1.7128  2.9077  0.1511
  398MOL0     H54904  10.053   6.942  -0.831 -1.7828  2.6197 -2.0167
  398MOL0     H54905  10.008   6.991  -0.568  1.7365  0.2501 -2.2735
  398MOL0     H54906   9.713   6.826  -0.236  4.0757  0.1926 -2.0584
  398MOL0     H54907   9.658   6.807   0.011 -0.0482 -2.3820 -2.5811
  398MOL0     H54908  10.109   5.740   1.037 -0.1145 -2.6660 -1.9152
  398MOL0     H54909  10.024   5.551   1.112 -0.4429 -0.1731 -2.2597
  398MOL0     H54910   9.727   5.246   1.155  0.4790 -1.9454  0.0215
  398MOL0     H54911   9.666   5.026   1.185 -3.7548 -1.3864 -0.8670
  398MOL0     H54912   9.318   4.942   1.502 -1.9377 -2.8846 -2.4675
  398MOL0     H54913   9.377   4.790   1.450  0.9252 -0.8034  3.0232
  398MOL0     H54914   9.427   4.883   1.683 -0.4325  1.8618  0.3849
  398MOL0     H54915   9.558   4.963   1.619 -1.7855  2.3971  0.8923
  398MOL0     H54916   9.581   4.729   1.727 -2.2355 -3.1393 -1.1982
  398MOL0     H54917   9.506   4.671   1.580 -4.6605  2.1162  1.4962
  398MOL0     H54918   9.772   4.805   1.534  2.2571 -1.2703 -3.3547
  398MOL0     H54919   9.681   4.716   1.437 -1.4702  4.0206  0.8764
  398MOL0     H54920   9.900   4.460   1.737 -0.9724 -0.7975  2.0124
  398MOL0     H54921   9.443   5.165   1.544  4.0742 -0.1794  3.2050
  398MOL0     H54922   9.388   5.393   1.569  0.7457  0.8783  2.2415
  398MOL0     H54923   9.539   5.391   1.651  0.1405  0.8716  0.1998
  398MOL0     H54924   9.507   5.508   1.519 -1.6684  2.1253  1.9779
  399MOL0     O54925   1.358   5.840   3.114 -0.0847 -0.2394 -0.2081
  399MOL0     C54926   1.435   5.765   3.053 -0.9560 -0.4423 -0.7421
  399MOL0     O54927   1.445   5.756   2.920 -0.4596  0.0746 -0.9832
  399MOL0     C54928   1.414   5.847   2.827 -0.3972 -0.6330  1.0498
  399MOL0     C54929   1.439   5.826   2.689 -0.2181 -0.7743  0.0208
  399MOL0     C54930   1.404   5.928   2.590 -0.3201  0.3876  0.1705
  399MOL0     C54931   1.345   6.055   2.622  0.4330  0.8169 -0.0860
  399MOL0     O54932   1.319   6.142   2.517  0.3761 -0.8438 -0.4223
  399MOL0     C54933   1.360   6.275   2.528 -0.7733  0.8975 -0.5536
  399MOL0     C54934   1.362   6.341   2.385 -0.7653  0.4076 -0.9962
  399MOL0     C54935   1.225   6.367   2.318  0.2572  0.1012 -0.0938
  399MOL0     C54936   1.137   6.240   2.295  0.2693  0.3851  0.8502
  399MOL0     C54937   0.999   6.271   2.239  0.5675 -0.6255  0.4382
  399MOL0     C54938   0.995   6.357   2.112  0.5940 -0.3241 -0.0017
  399MOL0     C54939   1.020   6.290   1.976 -0.1058 -0.2124 -0.2557
  399MOL0     C54940   1.034   6.398   1.867  0.0255 -0.5847 -0.2622
  399MOL0     N54941   0.903   6.417   1.809 -0.4128 -0.8501 -1.5198
  399MOL0     C54942   0.850   6.358   1.706 -0.6433 -0.0892 -0.7345
  399MOL0     C54943   0.720   6.410   1.708 -0.2489 -0.4869  0.6632
  399MOL0     C54944   0.607   6.366   1.608  0.0875  0.1678 -0.9626
  399MOL0     C54945   0.622   6.417   1.466  0.6791 -0.0930 -0.0355
  399MOL0     C54946   0.610   6.305   1.365 -0.1265 -0.0614  0.6539
  399MOL0     C54947   0.688   6.310   1.237  0.7526 -0.4638 -0.0133
  399MOL0     O54948   0.639   6.410   1.139 -0.1375 -0.0152  0.0215
  399MOL0     C54949   0.692   6.412   1.009 -0.3628  1.1843 -0.5260
  399MOL0     C54950   0.810   6.338   0.979 -0.3644  0.7163  0.1197
  399MOL0     C54951   0.842   6.311   0.844 -0.3983 -0.2695  0.4285
  399MOL0     C54952   0.963   6.217   0.824  0.0339 -0.2579 -0.2049
  399MOL0     C54953   0.769   6.365   0.740  0.2363  0.0954  0.1508
  399MOL0     C54954   0.797   6.340   0.598 -0.2825 -0.8984  0.7574
  399MOL0     O54955   0.871   6.231   0.552  0.1234 -0.2739  0.2556
  399MOL0     C54956   0.915   6.203   0.428 -0.4573 -0.2345  0.7967
  399MOL0     C54957   0.986   6.084   0.418 -1.0368  0.0095 -0.5484
  399MOL0     C54958   1.036   6.036   0.293  0.4999 -0.4828 -0.2452
  399MOL0     C54959   1.015   6.103   0.175  0.1155 -0.2744  0.6111
  399MOL0     O54960   1.045   6.048   0.052 -0.1718 -0.4285  0.7114
  399MOL0     C54961   1.073   5.906   0.054 -0.7060  0.1661 -0.9040
  399MOL0     C54962   1.105   5.874  -0.090 -0.2196 -0.3354  0.3567
  399MOL0     C54963   1.155   5.734  -0.119 -0.0184  0.3703  0.2937
  399MOL0     C54964   1.261   5.739  -0.239  0.3912  0.4402 -0.4927
  399MOL0     C54965   1.326   5.601  -0.267  1.2720 -0.0069 -0.2098
  399MOL0     C54966   1.467   5.619  -0.334  0.5015 -0.6289  0.2715
  399MOL0     C54967   1.549   5.491  -0.329 -0.7975  0.1339  0.6377
  399MOL0     C54968   1.664   5.498  -0.431 -0.4671  0.1517  0.1414
  399MOL0    Cl54969   1.723   5.333  -0.489 -0.4956  0.5133 -0.4912
  399MOL0     C54970   0.943   6.222   0.176  0.5733 -0.2480  0.5036
  399MOL0     C54971   0.893   6.271   0.305 -0.1280  0.1346 -0.4879
  399MOL0     O54972   0.770   6.442   0.535 -0.1199 -0.3789 -0.2512
  399MOL0     C54973   0.659   6.453   0.773 -0.7359 -0.6116  1.3172
  399MOL0     C54974   0.626   6.470   0.908  0.1351 -0.6837  0.0169
  399MOL0     N54975   0.705   6.502   1.808  0.1741  0.3692  1.3618
  399MOL0     N54976   0.821   6.504   1.869  1.0863 -0.0593  0.3071
  399MOL0     C54977   1.316   6.067   2.759  0.4376 -0.5472 -0.8098
  399MOL0     C54978   1.342   5.971   2.853 -1.0448  0.4638 -0.2861
  399MOL0     C54979   1.513   5.685   3.147  0.3592 -0.1993  0.5174
  399MOL0     C54980   1.467   5.665   3.282  0.3965  0.5041  0.5562
  399MOL0     C54981   1.527   5.575   3.368 -0.2532  0.4146 -0.7648
  399MOL0     C54982   1.649   5.511   3.340 -0.6486 -0.3978  0.3457
  399MOL0     O54983   1.708   5.426   3.431 -0.0504 -0.3362  0.7616
  399MOL0     C54984   1.795   5.490   3.525  0.6759  0.0212 -0.1684
  399MOL0     C54985   1.908   5.400   3.570 -0.5957  0.0370 -0.0046
  399MOL0     C54986   1.855   5.283   3.656 -0.6236  0.5972 -0.6918
  399MOL0     C54987   1.881   5.310   3.801  0.2480  0.3755  0.1103
  399MOL0     C54988   1.860   5.440   3.861  0.0272  0.2894  0.0149
  399MOL0     C54989   1.831   5.543   3.913  0.0510 -0.4292 -0.1701
  399MOL0     C54990   1.706   5.527   3.208  0.9325 -0.5621 -0.8762
  399MOL0     C54991   1.632   5.605   3.109 -0.3398 -0.4733 -0.1665
  399MOL0     C54992   1.724   5.613   2.985  0.8140 -0.1002  0.7563
  399MOL0     H54993   1.496   5.739   2.658 -0.5480 -1.2262  0.6629
  399MOL0     H54994   1.412   5.899   2.486  0.7448 -1.1096  0.6307
  399MOL0     H54995   1.462   6.278   2.566  0.1442 -2.3582 -2.3732
  399MOL0     H54996   1.306   6.331   2.605  0.4728  1.9579 -0.4095
  399MOL0     H54997   1.399   6.442   2.406 -2.4708  1.2313 -1.8242
  399MOL0     H54998   1.434   6.286   2.323 -2.5168 -2.6781 -0.4838
  399MOL0     H54999   1.167   6.422   2.393 -1.8223 -3.7079  1.3732
  399MOL0     H55000   1.246   6.421   2.225  3.7949 -2.7726 -1.1710
  399MOL0     H55001   1.182   6.175   2.218 -0.9227  2.3360 -1.6441
  399MOL0     H55002   1.123   6.180   2.385  0.1844 -1.4053 -0.2876
  399MOL0     H55003   0.955   6.321   2.326  2.2458  0.1337  0.9056
  399MOL0     H55004   0.946   6.177   2.218 -0.3246  0.2539 -1.3566
  399MOL0     H55005   0.892   6.391   2.119 -0.7947 -4.1100  0.1177
  399MOL0     H55006   1.064   6.442   2.120  3.6239 -2.6356  0.2443
  399MOL0     H55007   0.938   6.226   1.941 -1.4089  0.1172  2.0116
  399MOL0     H55008   1.106   6.226   1.995  0.1774  1.0835  3.6160
  399MOL0     H55009   1.076   6.493   1.901  2.7606 -1.5951 -0.5508
  399MOL0     H55010   1.107   6.359   1.796  0.8466  0.5564 -0.0802
  399MOL0     H55011   0.895   6.274   1.653  2.6668 -0.0018  1.5843
  399MOL0     H55012   0.510   6.398   1.648  1.3044  0.9566  1.5539
  399MOL0     H55013   0.605   6.257   1.615  2.5452  0.0412 -1.4002
  399MOL0     H55014   0.546   6.495   1.455  0.3047 -0.6619 -1.7657
  399MOL0     H55015   0.725   6.454   1.464  0.9024 -0.4060  2.4246
  399MOL0     H55016   0.651   6.217   1.415 -0.3456 -0.8300 -0.4706
  399MOL0     H55017   0.506   6.275   1.350 -0.8858  1.9351  1.6680
  399MOL0     H55018   0.793   6.324   1.264  0.4384  1.5504  0.3442
  399MOL0     H55019   0.682   6.211   1.189  0.3155 -0.5142  0.1390
  399MOL0     H55020   0.880   6.302   1.054 -1.1602  0.6223  0.8243
  399MOL0     H55021   1.027   6.247   0.741 -0.2092  1.6493  0.2404
  399MOL0     H55022   0.929   6.114   0.812 -1.1497 -0.2881  2.6265
  399MOL0     H55023   1.023   6.210   0.915  2.4951 -0.9916 -1.8079
  399MOL0     H55024   0.997   6.028   0.510  0.8771 -1.2887 -1.5227
  399MOL0     H55025   1.100   5.949   0.307 -0.7434 -1.8453 -2.5216
  399MOL0     H55026   1.159   5.887   0.118 -3.3122 -6.5661  1.5213
  399MOL0     H55027   1.001   5.831   0.089 -0.7604  1.0885  1.0630
  399MOL0     H55028   1.011   5.890  -0.144  1.0591  1.5910 -1.4515
  399MOL0     H55029   1.175   5.949  -0.128  1.0849 -1.8517 -0.3222
  399MOL0     H55030   1.082   5.654  -0.131 -0.1333  0.0674  2.5684
  399MOL0     H55031   1.215   5.702  -0.033  0.6272  0.4832 -0.1072
  399MOL0     H55032   1.333   5.815  -0.207 -0.9655  0.6747  2.3223
  399MOL0     H55033   1.213   5.759  -0.335  3.3903 -1.3279 -2.5398
  399MOL0     H55034   1.329   5.550  -0.170  2.5867  2.0112  0.8882
  399MOL0     H55035   1.265   5.539  -0.333  1.6327 -0.4396 -0.1391
  399MOL0     H55036   1.535   5.691  -0.287  4.0241 -1.1515 -3.4625
  399MOL0     H55037   1.458   5.655  -0.437  0.9088 -1.7921 -0.1885
  399MOL0     H55038   1.477   5.412  -0.352 -2.4030  1.7234 -0.0742
  399MOL0     H55039   1.600   5.468  -0.235  1.8471 -2.0620 -1.1464
  399MOL0     H55040   1.738   5.552  -0.371 -2.1450  1.2339  1.3307
  399MOL0     H55041   1.635   5.550  -0.523  0.6281 -2.1965 -1.6473
  399MOL0     H55042   0.927   6.270   0.080  1.6865 -1.3262 -0.2622
  399MOL0     H55043   0.823   6.352   0.322 -2.4840 -1.9339  0.3517
  399MOL0     H55044   0.586   6.488   0.702  1.1574  0.7942 -0.0136
  399MOL0     H55045   0.541   6.525   0.947 -0.7866 -1.2232 -1.1485
  399MOL0     H55046   1.266   6.153   2.803 -0.6554 -1.0456 -1.0304
  399MOL0     H55047   1.309   5.989   2.955 -0.7691 -1.3507  0.1712
  399MOL0     H55048   1.381   5.727   3.307  0.5624  0.4673  1.2492
  399MOL0     H55049   1.472   5.557   3.460  0.2529 -2.6754 -0.9623
  399MOL0     H55050   1.837   5.581   3.481  0.8500  0.9967  1.8747
  399MOL0     H55051   1.733   5.520   3.610 -2.1427  0.5250 -2.2425
  399MOL0     H55052   1.984   5.458   3.623  0.7572  1.2526 -2.9956
  399MOL0     H55053   1.955   5.377   3.474 -1.8524 -0.3194 -0.5500
  399MOL0     H55054   1.748   5.263   3.643 -0.3890 -0.6224 -0.8086
  399MOL0     H55055   1.908   5.196   3.618  0.5600 -0.0641  2.1928
  399MOL0     H55056   1.985   5.280   3.817  0.3146 -1.2270 -2.8033
  399MOL0     H55057   1.817   5.245   3.861 -1.4483  2.4774  0.7190
  399MOL0     H55058   1.825   5.637   3.963  2.6883 -1.5119  2.4884
  399MOL0     H55059   1.797   5.471   3.187  1.6590  0.2037  0.0997
  399MOL0     H55060   1.830   5.633   3.004  1.0374 -0.7069  0.1784
  399MOL0     H55061   1.724   5.515   2.937 -0.3238 -0.4028  1.3347
  399MOL0     H55062   1.697   5.681   2.904  1.5304 -2.3665 -1.4992
  400MOL0     O55063   0.650   7.764   9.184  0.3020 -0.1456 -0.1238
  400MOL0     C55064   0.664   7.722   9.297  0.1427 -0.7169 -0.4671
  400MOL0     O55065   0.689   7.803   9.411  0.5317 -1.1221 -0.7584
  400MOL0     C55066   0.683   7.746   9.534  0.6325  0.3091 -0.0515
  400MOL0     C55067   0.807   7.749   9.599  0.1982  0.7680  0.4781
  400MOL0     C55068   0.807   7.689   9.730 -0.4911  0.1393  0.5460
  400MOL0     C55069   0.694   7.630   9.778 -1.3211  0.1572  0.7171
  400MOL0     O55070   0.684   7.563   9.890  0.4409 -1.2367 -0.3534
  400MOL0     C55071   0.802   7.485   9.949 -0.5316 -0.3777 -0.5795
  400MOL0     C55072   0.833   7.362   9.865 -0.8362 -0.2700  0.1207
  400MOL0     C55073   0.732   7.261   9.855 -0.2275  0.1218 -0.3396
  400MOL0     C55074   0.730   7.174   9.742 -0.8849  0.1290  0.7637
  400MOL0     C55075   0.609   7.085   9.717  0.2219  0.3934  0.4857
  400MOL0     C55076   0.565   7.018   9.847 -0.1571  0.1667  0.1977
  400MOL0     C55077   0.467   6.902   9.834 -0.2872  0.6493  0.1204
  400MOL0     C55078   0.421   6.834   9.962 -1.1966  0.0090  0.1662
  400MOL0     N55079   0.407   6.692   9.936  1.1137  0.0079 -0.2598
  400MOL0     C55080   0.315   6.638   9.845 -0.2387 -0.0283 -0.1489
  400MOL0     C55081   0.324   6.499   9.858 -0.3596 -0.3662 -0.8147
  400MOL0     C55082   0.251   6.390   9.775 -0.4658 -0.4502 -0.6927
  400MOL0     C55083   0.322   6.380   9.640  0.3004  0.4451  0.5703
  400MOL0     C55084   0.240   6.334   9.527  0.2977 -0.1684 -0.2159
  400MOL0     C55085   0.205   6.190   9.526 -0.4134  0.2391  0.0200
  400MOL0     O55086   0.110   6.169   9.426 -0.7119  0.1353  0.4517
  400MOL0     C55087   0.170   6.127   9.310 -0.2370  0.2350  0.4315
  400MOL0     C55088   0.209   6.221   9.212 -0.0318 -0.2316  0.2255
  400MOL0     C55089   0.281   6.179   9.098  0.8844  0.2901 -0.5016
  400MOL0     C55090   0.317   6.277   8.991 -0.4433  0.0123  0.5275
  400MOL0     C55091   0.315   6.039   9.072  1.2187  1.1115 -0.7050
  400MOL0     C55092   0.407   5.982   8.974  0.0043 -0.2193 -0.7325
  400MOL0     O55093   0.465   6.062   8.889 -0.8356 -0.1619  1.1543
  400MOL0     C55094   0.531   6.010   8.776 -0.7095  1.0681 -0.3532
  400MOL0     C55095   0.491   6.075   8.658  0.3391  0.2364  0.0196
  400MOL0     C55096   0.560   6.047   8.539  0.7832 -0.2152 -0.4209
  400MOL0     C55097   0.659   5.949   8.537  0.1050 -0.0825 -0.6525
  400MOL0     O55098   0.741   5.911   8.432 -0.2383 -0.6794  0.1270
  400MOL0     C55099   0.786   6.015   8.345 -0.6278  1.1869 -0.1347
  400MOL0     C55100   0.812   5.942   8.219 -0.2394  0.6269 -0.6364
  400MOL0     C55101   0.825   6.030   8.096  0.2004  1.1503 -0.2001
  400MOL0     C55102   0.905   6.155   8.110 -0.1692  0.5459  0.4396
  400MOL0     C55103   0.921   6.234   7.976 -0.0694 -0.0404  0.1328
  400MOL0     C55104   0.985   6.371   7.976  0.5456  0.3962 -0.3576
  400MOL0     C55105   0.885   6.481   7.996  0.2866 -1.5682  0.4199
  400MOL0     C55106   0.945   6.609   8.054 -0.8470 -0.0124  0.7085
  400MOL0    Cl55107   1.097   6.633   7.963  0.3721 -0.1565 -0.1720
  400MOL0     C55108   0.680   5.874   8.642 -0.0256  0.2384  0.3122
  400MOL0     C55109   0.628   5.909   8.767  0.0325 -0.3834  0.5727
  400MOL0     O55110   0.411   5.862   8.970 -0.4601 -0.2789 -0.2257
  400MOL0     C55111   0.258   5.950   9.171  0.5011 -0.4228  0.2501
  400MOL0     C55112   0.185   5.996   9.280 -0.0261  0.3234 -0.1594
  400MOL0     N55113   0.413   6.486   9.957 -0.3006  0.3131 -0.3942
  400MOL0     N55114   0.471   6.590   9.997  0.2358  0.1763 -0.7266
  400MOL0     C55115   0.572   7.635   9.711 -0.8184 -0.4042 -0.5686
  400MOL0     C55116   0.568   7.689   9.588  0.3004  0.1257 -0.7998
  400MOL0     C55117   0.673   7.570   9.296  0.1246 -0.2960 -0.1432
  400MOL0     C55118   0.779   7.505   9.363  0.9435 -0.1387 -0.5287
  400MOL0     C55119   0.794   7.369   9.354  0.1902  0.8450  0.0529
  400MOL0     C55120   0.720   7.292   9.269  0.6576  0.9980 -1.0678
  400MOL0     O55121   0.729   7.157   9.250  0.2003 -0.2513  0.0982
  400MOL0     C55122   0.794   7.076   9.360  0.4910 -0.1922  1.0838
  400MOL0     C55123   0.939   7.041   9.315 -0.2081  0.5710 -0.5732
  400MOL0     C55124   0.939   6.984   9.179  0.8306 -1.0280  0.4853
  400MOL0     C55125   1.070   6.896   9.155 -0.6437 -0.2042  0.7572
  400MOL0     C55126   1.116   6.911   9.017  1.5654  0.1018 -0.1085
  400MOL0     C55127   1.150   6.927   8.901 -0.2035 -0.4047 -0.4905
  400MOL0     C55128   0.618   7.359   9.202  0.3923  0.1564 -0.6696
  400MOL0     C55129   0.585   7.495   9.215 -1.0045 -0.1934 -0.2340
  400MOL0     C55130   0.475   7.558   9.129 -0.7784  0.2828 -0.6187
  400MOL0     H55131   0.889   7.796   9.547 -1.5297  2.6175 -0.7301
  400MOL0     H55132   0.904   7.698   9.779 -0.4180  1.9453  0.1558
  400MOL0     H55133   0.781   7.466  10.055 -2.0692  0.0369 -0.7787
  400MOL0     H55134   0.889   7.550   9.961 -0.8885 -0.4269  4.7164
  400MOL0     H55135   0.871   7.391   9.767 -1.8144  2.7949  0.5515
  400MOL0     H55136   0.924   7.321   9.909  0.0814  1.4020 -0.1639
  400MOL0     H55137   0.737   7.193   9.941 -1.2269  1.4237  0.7829
  400MOL0     H55138   0.635   7.310   9.867 -1.1992 -1.7883  0.1626
  400MOL0     H55139   0.756   7.224   9.649 -0.5600 -3.6231 -1.3737
  400MOL0     H55140   0.813   7.107   9.767  0.7126  1.5292 -0.5996
  400MOL0     H55141   0.632   7.001   9.652  2.9663  2.3960 -1.3547
  400MOL0     H55142   0.520   7.138   9.680 -0.4342  1.7677  3.6533
  400MOL0     H55143   0.649   6.964   9.891 -0.0007 -0.2151 -0.5622
  400MOL0     H55144   0.526   7.099   9.910 -1.1934 -1.1342  1.3064
  400MOL0     H55145   0.510   6.839   9.756 -2.0320 -0.9052  0.3550
  400MOL0     H55146   0.374   6.946   9.794 -0.0215  1.2662  0.1688
  400MOL0     H55147   0.495   6.837  10.042 -1.1163  0.9777  0.0675
  400MOL0     H55148   0.332   6.889   9.995 -0.5728 -0.0775  2.1275
  400MOL0     H55149   0.247   6.698   9.784 -1.3318  0.2006  1.2353
  400MOL0     H55150   0.151   6.431   9.759 -0.6549 -1.3079 -1.8593
  400MOL0     H55151   0.240   6.289   9.815  2.4634 -0.5367  0.1377
  400MOL0     H55152   0.362   6.473   9.599 -0.6818  0.4058 -0.5330
  400MOL0     H55153   0.410   6.315   9.637  0.8282  1.1406  0.7395
  400MOL0     H55154   0.146   6.390   9.519 -2.5888 -4.2056  1.7863
  400MOL0     H55155   0.305   6.348   9.441 -1.4743 -0.7078 -1.7092
  400MOL0     H55156   0.285   6.115   9.527  0.2959  0.9778  1.5447
  400MOL0     H55157   0.143   6.171   9.614 -2.1447 -0.8208 -1.3550
  400MOL0     H55158   0.188   6.327   9.229 -3.4000  0.1300 -4.3752
  400MOL0     H55159   0.268   6.372   9.015  0.1955  0.2624  0.8768
  400MOL0     H55160   0.275   6.248   8.894  0.8779 -0.3033  0.0322
  400MOL0     H55161   0.422   6.305   8.986 -1.0242  2.2932  0.1513
  400MOL0     H55162   0.415   6.153   8.657 -2.1052 -1.9687 -1.9165
  400MOL0     H55163   0.539   6.111   8.453 -2.9214 -3.0811 -1.9348
  400MOL0     H55164   0.717   6.095   8.316  1.1901  1.5758 -4.0160
  400MOL0     H55165   0.879   6.055   8.385  0.0204 -1.7816  1.6160
  400MOL0     H55166   0.915   5.908   8.232 -1.1475 -1.8366  0.9547
  400MOL0     H55167   0.734   5.866   8.219 -0.3949  0.5814  3.0071
  400MOL0     H55168   0.722   6.052   8.065 -0.5449 -0.0112  1.3397
  400MOL0     H55169   0.863   5.960   8.021 -1.0381 -1.6220  1.6266
  400MOL0     H55170   1.010   6.150   8.141 -0.0181 -1.5487 -0.2490
  400MOL0     H55171   0.849   6.209   8.187 -2.4702 -1.5163  0.3242
  400MOL0     H55172   0.982   6.170   7.912 -1.1358 -2.7180  1.6280
  400MOL0     H55173   0.826   6.233   7.922 -0.9049 -0.2877  1.5615
  400MOL0     H55174   1.028   6.385   7.876 -0.0119 -0.0800 -0.6707
  400MOL0     H55175   1.056   6.382   8.058  1.1837  0.5997 -0.9317
  400MOL0     H55176   0.806   6.441   8.060 -0.9584  1.4698  0.9307
  400MOL0     H55177   0.841   6.492   7.897 -1.0029 -0.2778  1.1013
  400MOL0     H55178   0.976   6.591   8.157  0.6985  2.5876  0.7802
  400MOL0     H55179   0.884   6.697   8.030  0.3741 -0.0158 -2.9029
  400MOL0     H55180   0.738   5.783   8.629  1.5359  1.1451  0.7244
  400MOL0     H55181   0.653   5.850   8.854 -1.3618 -1.1907  0.4501
  400MOL0     H55182   0.290   5.846   9.171 -0.3127 -0.6850 -0.1253
  400MOL0     H55183   0.166   5.926   9.360  1.7918  0.0338  0.0702
  400MOL0     H55184   0.487   7.586   9.757 -1.2287  0.2083 -0.6716
  400MOL0     H55185   0.479   7.689   9.525 -0.0162 -1.7570 -0.4159
  400MOL0     H55186   0.847   7.574   9.413  0.7893  2.6163 -3.7255
  400MOL0     H55187   0.863   7.319   9.421 -0.7488  1.1403  1.2849
  400MOL0     H55188   0.794   7.126   9.457  0.9309  0.2226  0.8780
  400MOL0     H55189   0.745   6.979   9.358 -0.6559  0.3303 -1.8687
  400MOL0     H55190   0.987   6.965   9.377 -1.0232 -1.8708 -2.7705
  400MOL0     H55191   0.998   7.133   9.322  0.2512  0.1732  3.0734
  400MOL0     H55192   0.856   6.914   9.163 -0.7680  0.9313 -0.2319
  400MOL0     H55193   0.910   7.066   9.112 -1.9648 -0.8852  1.7137
  400MOL0     H55194   1.045   6.790   9.163  0.4356 -0.4862  0.6362
  400MOL0     H55195   1.148   6.928   9.226 -0.1144  0.1551  0.0269
  400MOL0     H55196   1.167   6.947   8.796 -0.8664  0.0614 -0.5170
  400MOL0     H55197   0.561   7.306   9.126 -2.9765  1.0378  1.0606
  400MOL0     H55198   0.534   7.609   9.053  3.1558 -3.4674 -0.4883
  400MOL0     H55199   0.413   7.482   9.080  0.8153  1.0300 -4.0915
  400MOL0     H55200   0.420   7.632   9.188 -0.4909 -1.0673  1.4777
  401MOL0     O55201   8.717  10.801  10.299  0.4223  0.1344  0.4163
  401MOL0     C55202   8.821  10.777  10.365  0.5919  0.2409 -0.5600
  401MOL0     O55203   8.916  10.687  10.332  0.3718  1.1814  0.6804
  401MOL0     C55204   8.902  10.606  10.220 -0.2400  0.4631 -0.0194
  401MOL0     C55205   8.834  10.642  10.102  0.8023 -0.5484 -0.9206
  401MOL0     C55206   8.810  10.555  10.001 -0.3234 -0.4008  0.1553
  401MOL0     C55207   8.847  10.424  10.020 -0.2322  0.1089  0.4348
  401MOL0     O55208   8.794  10.344   9.926  0.4610  0.1198  0.2583
  401MOL0     C55209   8.671  10.279   9.970 -0.0026 -0.0517  0.3794
  401MOL0     C55210   8.596  10.197   9.864  0.9882 -1.1885 -0.9097
  401MOL0     C55211   8.654  10.062   9.831 -0.2108  0.5217  0.1843
  401MOL0     C55212   8.553   9.972   9.745  0.1031  1.0957 -0.2870
  401MOL0     C55213   8.634   9.863   9.681 -0.7635  0.0297 -0.1329
  401MOL0     C55214   8.721   9.906   9.551 -0.4573  0.4914  0.0292
  401MOL0     C55215   8.778   9.793   9.471 -0.3239  0.5059  0.1009
  401MOL0     C55216   8.895   9.734   9.554 -0.6257 -0.6809 -0.5004
  401MOL0     N55217   8.969   9.630   9.482 -0.0380  0.0917 -0.4900
  401MOL0     C55218   8.950   9.583   9.356 -0.3863  0.3449  0.8115
  401MOL0     C55219   9.034   9.484   9.346 -0.4268  1.5023  0.8034
  401MOL0     C55220   9.039   9.389   9.219  0.0036  0.2263 -0.1265
  401MOL0     C55221   8.983   9.246   9.239 -0.4072 -0.6463  0.0111
  401MOL0     C55222   9.045   9.161   9.351 -0.4225 -0.4494 -0.0264
  401MOL0     C55223   9.189   9.118   9.313  0.0968  0.0370  0.2677
  401MOL0     O55224   9.218   8.997   9.391  0.4155  0.9002 -0.0610
  401MOL0     C55225   9.229   9.015   9.527  0.3206  0.0550  0.3682
  401MOL0     C55226   9.137   8.954   9.612  0.0560  0.9309 -0.2260
  401MOL0     C55227   9.148   8.959   9.750 -0.0920  0.5890 -0.2315
  401MOL0     C55228   9.057   8.872   9.831  0.4857  0.0545 -0.3055
  401MOL0     C55229   9.250   9.040   9.805  0.6179  0.6400 -0.0472
  401MOL0     C55230   9.290   9.054   9.943  0.0675  0.4645 -0.2355
  401MOL0     O55231   9.420   9.077   9.970  0.0260 -0.2785  0.1338
  401MOL0     C55232   9.467   9.069  10.095 -0.4476  0.9052 -0.5124
  401MOL0     C55233   9.410   9.143  10.203  0.9213  0.3589  0.8063
  401MOL0     C55234   9.459   9.117  10.331  0.0849 -0.3362 -0.2340
  401MOL0     C55235   9.573   9.039  10.357  0.5525 -0.4490  0.1399
  401MOL0     O55236   9.632   9.021  10.479 -0.4061  0.0263 -0.1575
  401MOL0     C55237   9.567   8.977  10.597 -0.3270 -1.1280 -0.3111
  401MOL0     C55238   9.518   8.827  10.583  0.0600  0.4334  0.2118
  401MOL0     C55239   9.628   8.725  10.584  0.2205 -0.8566 -0.1041
  401MOL0     C55240   9.570   8.608  10.509  0.9696 -0.4523 -0.0362
  401MOL0     C55241   9.440   8.538  10.560  0.0172 -0.1451  0.2670
  401MOL0     C55242   9.490   8.450  10.681  1.1335 -0.6199  0.2811
  401MOL0     C55243   9.366   8.399  10.757  1.0357 -0.7880  0.2501
  401MOL0     C55244   9.394   8.394  10.917  0.5132  1.0840 -0.4907
  401MOL0    Cl55245   9.407   8.558  10.992  0.2924 -0.3216 -0.2144
  401MOL0     C55246   9.632   8.983  10.245  0.4975  0.2670  0.6585
  401MOL0     C55247   9.579   8.999  10.117  0.5697  0.4129  0.2764
  401MOL0     O55248   9.200   9.057  10.025  0.8705 -0.2977  0.1444
  401MOL0     C55249   9.332   9.110   9.716 -0.6174  0.8269  0.1050
  401MOL0     C55250   9.329   9.106   9.578  0.8690 -0.0259 -0.1408
  401MOL0     N55251   9.114   9.463   9.453  0.8917 -0.2493  0.4435
  401MOL0     N55252   9.063   9.544   9.540  0.0684 -0.4462  0.5769
  401MOL0     C55253   8.931  10.379  10.128 -0.0742  0.1667 -0.3302
  401MOL0     C55254   8.954  10.477  10.226 -0.4234  0.3957 -0.2728
  401MOL0     C55255   8.825  10.838  10.496 -0.7940 -0.9860  0.9785
  401MOL0     C55256   8.946  10.870  10.554  0.8972  0.9325 -0.1339
  401MOL0     C55257   8.959  10.947  10.664  2.0154  0.6008  0.2323
  401MOL0     C55258   8.846  10.995  10.732 -0.0607 -0.8542  0.1479
  401MOL0     O55259   8.841  11.074  10.849 -0.6974  0.0872  0.4273
  401MOL0     C55260   8.934  11.039  10.953 -0.1658  0.3254 -0.4241
  401MOL0     C55261   8.890  11.124  11.075 -0.3356 -0.3045 -0.0533
  401MOL0     C55262   8.755  11.076  11.121 -0.2410  0.5872 -0.4970
  401MOL0     C55263   8.639  11.152  11.076 -0.6570 -0.5558 -0.3405
  401MOL0     C55264   8.512  11.072  11.093  0.6051  0.3092 -0.2122
  401MOL0     C55265   8.413  11.006  11.105 -0.3561 -0.7411  0.2957
  401MOL0     C55266   8.718  10.951  10.685 -0.1449  0.1189 -0.7470
  401MOL0     C55267   8.708  10.867  10.575 -0.4574  0.7573  0.1734
  401MOL0     C55268   8.570  10.825  10.534  0.3990 -1.0682  0.7348
  401MOL0     H55269   8.799  10.744  10.088 -1.3689 -1.2080 -0.6218
  401MOL0     H55270   8.732  10.569   9.926 -0.9320 -0.8213  0.6956
  401MOL0     H55271   8.606  10.360  10.005 -0.4167  0.7920 -2.0875
  401MOL0     H55272   8.695  10.210  10.051 -0.9225  0.8773  1.4721
  401MOL0     H55273   8.496  10.174   9.900  1.1497 -0.8840 -0.2586
  401MOL0     H55274   8.576  10.253   9.772 -1.6570 -2.5560 -1.2612
  401MOL0     H55275   8.752  10.077   9.785 -1.1297  1.8477 -1.4786
  401MOL0     H55276   8.660  10.001   9.922  0.3092 -0.6145 -0.5888
  401MOL0     H55277   8.484   9.925   9.816 -0.6809  2.5333 -0.0577
  401MOL0     H55278   8.482  10.024   9.679 -1.9490  0.4043  1.2640
  401MOL0     H55279   8.562   9.794   9.636 -0.5470  0.5809 -1.3774
  401MOL0     H55280   8.698   9.818   9.758  0.7234  0.8490 -0.8558
  401MOL0     H55281   8.669   9.969   9.479 -0.5313 -1.0528 -1.3303
  401MOL0     H55282   8.799   9.976   9.584  1.9392 -1.0228 -2.0204
  401MOL0     H55283   8.804   9.844   9.378  2.8858  0.3330  0.8069
  401MOL0     H55284   8.703   9.713   9.461  0.4458 -0.3276  0.7771
  401MOL0     H55285   8.964   9.814   9.581 -1.6954  0.2330 -0.4482
  401MOL0     H55286   8.863   9.700   9.652 -1.6314  1.0818 -0.1831
  401MOL0     H55287   8.868   9.608   9.289 -0.4783 -2.4570 -0.2467
  401MOL0     H55288   9.145   9.367   9.204  0.6414  0.7460  2.9683
  401MOL0     H55289   8.988   9.450   9.143 -0.2617 -0.3474 -0.4084
  401MOL0     H55290   8.874   9.238   9.252 -1.1012  2.4966 -2.7157
  401MOL0     H55291   9.003   9.198   9.143 -0.4999  1.8251 -1.3145
  401MOL0     H55292   9.041   9.226   9.438 -2.3077  2.3804 -2.0637
  401MOL0     H55293   8.991   9.067   9.368  2.3111 -1.7870  2.0983
  401MOL0     H55294   9.197   9.089   9.208  0.5739 -2.5004  0.9438
  401MOL0     H55295   9.255   9.199   9.344 -0.4745  0.7705 -0.3690
  401MOL0     H55296   9.069   8.879   9.572  0.3169 -0.3140  1.5637
  401MOL0     H55297   9.046   8.770   9.793  0.5256 -0.6548  1.4859
  401MOL0     H55298   8.957   8.914   9.822  0.8891  1.7859  2.1546
  401MOL0     H55299   9.070   8.861   9.939  2.5393  0.3073 -0.4925
  401MOL0     H55300   9.325   9.207  10.185  0.9418 -0.0546 -1.0233
  401MOL0     H55301   9.424   9.174  10.416  1.8727  1.0186 -0.3388
  401MOL0     H55302   9.640   9.001  10.674 -2.9161  1.4576  1.5692
  401MOL0     H55303   9.485   9.045  10.622 -0.3200 -0.7727 -1.2224
  401MOL0     H55304   9.440   8.801  10.655  0.9863  0.0701  1.1031
  401MOL0     H55305   9.465   8.818  10.487 -2.5668 -1.4946  1.7182
  401MOL0     H55306   9.641   8.689  10.686 -0.6256 -0.0741  0.2985
  401MOL0     H55307   9.720   8.761  10.538 -0.2631  0.1598 -0.3002
  401MOL0     H55308   9.643   8.529  10.493 -2.5475 -3.7214 -1.6632
  401MOL0     H55309   9.559   8.632  10.402  2.5326  0.4400 -0.0251
  401MOL0     H55310   9.357   8.606  10.581  1.9751  1.2973  4.3533
  401MOL0     H55311   9.411   8.469  10.480 -0.4505  1.0092 -0.5875
  401MOL0     H55312   9.553   8.515  10.743 -0.5511  1.1323  0.2717
  401MOL0     H55313   9.553   8.372  10.640 -0.4335 -4.1800  3.9781
  401MOL0     H55314   9.332   8.298  10.733 -1.8079  0.0799  0.2422
  401MOL0     H55315   9.274   8.457  10.740  1.2601  0.2457  2.2801
  401MOL0     H55316   9.484   8.332  10.931 -0.9907 -0.8388  1.2766
  401MOL0     H55317   9.315   8.330  10.957  1.5408 -0.7419 -1.2222
  401MOL0     H55318   9.718   8.919  10.265 -0.1781 -1.7682 -2.2763
  401MOL0     H55319   9.627   8.953  10.032 -0.3483 -2.5993  1.2833
  401MOL0     H55320   9.399   9.182   9.761  2.8876 -0.5991 -2.4487
  401MOL0     H55321   9.397   9.169   9.522 -1.1390 -0.5851 -3.4965
  401MOL0     H55322   8.960  10.275  10.140 -0.3698  0.1799  0.5388
  401MOL0     H55323   9.005  10.454  10.319 -2.3465 -0.7645  0.5718
  401MOL0     H55324   9.025  10.844  10.485 -0.3622 -2.3931 -0.5020
  401MOL0     H55325   9.054  10.974  10.711  1.5684  2.3137  0.2008
  401MOL0     H55326   8.927  10.930  10.956  3.1155 -0.2695 -4.5160
  401MOL0     H55327   9.036  11.066  10.924  1.5121 -0.8882  3.6029
  401MOL0     H55328   8.894  11.231  11.052 -2.7519 -0.6519 -2.5694
  401MOL0     H55329   8.965  11.106  11.153  0.7223 -0.1549 -1.0083
  401MOL0     H55330   8.741  10.970  11.096 -1.1031  0.3037  1.0848
  401MOL0     H55331   8.752  11.089  11.230  3.9578  3.3088 -0.4474
  401MOL0     H55332   8.656  11.172  10.970  1.7762  4.3618  0.6748
  401MOL0     H55333   8.633  11.245  11.134 -3.2814 -1.3930  0.8750
  401MOL0     H55334   8.328  10.951  11.138 -0.8023  0.6546  1.6132
  401MOL0     H55335   8.626  10.978  10.735  1.0010 -0.5958  1.9111
  401MOL0     H55336   8.514  10.906  10.486 -2.0797 -4.0823 -1.9308
  401MOL0     H55337   8.566  10.733  10.476 -2.2631 -0.0765 -0.8357
  401MOL0     H55338   8.518  10.806  10.629  0.8793 -1.7352  0.8671
  402MOL0     O55339   5.735   9.219   0.103  0.1141  0.8386 -0.6046
  402MOL0     C55340   5.746   9.335   0.072 -0.4810 -0.2715 -0.0396
  402MOL0     O55341   5.706   9.395  -0.047  0.0702 -0.1191 -0.7218
  402MOL0     C55342   5.623   9.333  -0.131  0.8936  0.7214  0.1997
  402MOL0     C55343   5.482   9.357  -0.121 -0.0761 -0.3778  0.7801
  402MOL0     C55344   5.390   9.311  -0.217 -0.3337 -1.1854  0.7326
  402MOL0     C55345   5.431   9.234  -0.321  0.8056 -1.5347  0.6706
  402MOL0     O55346   5.345   9.179  -0.414  0.0932  0.8224 -0.0023
  402MOL0     C55347   5.215   9.235  -0.432  0.6606  0.4911  0.7540
  402MOL0     C55348   5.139   9.138  -0.520  0.7934  1.1303  0.4894
  402MOL0     C55349   4.987   9.174  -0.525  0.0976 -0.1665  0.1903
  402MOL0     C55350   4.919   9.093  -0.638  1.3057  0.7675 -0.2091
  402MOL0     C55351   4.939   8.939  -0.622 -0.5533 -0.4264  0.8978
  402MOL0     C55352   4.863   8.876  -0.501  0.1702  0.0016 -0.1945
  402MOL0     C55353   4.898   8.732  -0.464  0.6460  0.9893  0.2600
  402MOL0     C55354   5.038   8.714  -0.406 -0.3339 -0.1506  0.1314
  402MOL0     N55355   5.062   8.592  -0.321  0.5168 -0.4377 -0.6809
  402MOL0     C55356   4.987   8.549  -0.213 -0.1534 -0.1552 -0.3314
  402MOL0     C55357   5.072   8.466  -0.146 -0.0091 -0.6256 -0.7816
  402MOL0     C55358   5.048   8.385  -0.019  0.5854  0.5603 -0.3638
  402MOL0     C55359   5.063   8.469   0.114  0.2147  0.8494  0.8839
  402MOL0     C55360   4.944   8.559   0.158 -0.6606 -0.3901 -0.3419
  402MOL0     C55361   4.804   8.507   0.115  0.1546 -0.3826 -0.0572
  402MOL0     O55362   4.783   8.378   0.165 -0.2692 -0.0835  0.4107
  402MOL0     C55363   4.673   8.315   0.119  0.3940  0.9461 -0.7917
  402MOL0     C55364   4.568   8.353   0.035 -0.2676 -0.2339  0.2284
  402MOL0     C55365   4.458   8.264   0.006 -0.1298 -0.0103 -0.1674
  402MOL0     C55366   4.349   8.321  -0.079 -0.0220  0.5591 -0.1897
  402MOL0     C55367   4.465   8.129   0.046  0.2148 -0.2413  0.0203
  402MOL0     C55368   4.363   8.028   0.014  0.2548  0.0622  0.6692
  402MOL0     O55369   4.413   7.894   0.020 -0.0489  0.7776 -0.6827
  402MOL0     C55370   4.318   7.800   0.048  1.2342 -0.2533  0.6111
  402MOL0     C55371   4.250   7.738  -0.046 -1.5976 -0.1358  1.2815
  402MOL0     C55372   4.148   7.644  -0.026  0.3044  0.9639  0.3602
  402MOL0     C55373   4.110   7.617   0.107  0.6036 -0.1620 -0.2571
  402MOL0     O55374   3.988   7.552   0.145 -0.3117 -0.3979  0.2030
  402MOL0     C55375   3.911   7.463   0.066  0.0214 -0.1923 -0.2477
  402MOL0     C55376   3.867   7.341   0.134 -0.0325  0.1924  0.0127
  402MOL0     C55377   3.847   7.363   0.288 -0.0937 -0.0062 -0.7422
  402MOL0     C55378   3.799   7.231   0.362 -0.3016  0.3581  0.4312
  402MOL0     C55379   3.921   7.157   0.424  0.1727 -1.4568 -0.0820
  402MOL0     C55380   3.878   7.043   0.513  0.3056  0.5214 -1.3771
  402MOL0     C55381   3.987   6.980   0.603  0.1890 -0.7567 -0.0185
  402MOL0     C55382   3.973   6.825   0.591  0.2283 -0.5031 -0.5197
  402MOL0    Cl55383   3.810   6.771   0.628  0.4274  0.3468  0.4032
  402MOL0     C55384   4.184   7.684   0.209  0.5921  0.6477 -0.6762
  402MOL0     C55385   4.286   7.775   0.181 -1.0907  1.1123  0.8465
  402MOL0     O55386   4.246   8.062   0.011  0.5864 -0.6258  0.3066
  402MOL0     C55387   4.585   8.082   0.122  0.0125 -0.4915  0.1332
  402MOL0     C55388   4.679   8.177   0.161 -0.1429 -0.1664  0.1777
  402MOL0     N55389   5.181   8.439  -0.223  0.2668  0.3990  0.1093
  402MOL0     N55390   5.178   8.520  -0.321 -0.0632  0.4811  0.2175
  402MOL0     C55391   5.573   9.194  -0.328  0.4748 -0.6476 -0.1763
  402MOL0     C55392   5.660   9.252  -0.235 -0.1454 -0.7081  0.1570
  402MOL0     C55393   5.808   9.433   0.169  0.0574  0.2939  0.5939
  402MOL0     C55394   5.908   9.378   0.252  0.0132 -0.5883 -0.7806
  402MOL0     C55395   5.976   9.453   0.344 -0.3728 -0.3148 -0.5923
  402MOL0     C55396   5.941   9.586   0.362 -1.1166  0.2135  0.8013
  402MOL0     O55397   6.003   9.679   0.450  0.0858 -0.3211  1.2229
  402MOL0     C55398   5.946   9.685   0.578 -1.2017 -0.4923  0.1078
  402MOL0     C55399   6.059   9.707   0.685 -0.3884  0.5692 -0.2368
  402MOL0     C55400   6.078   9.580   0.767  0.1631 -0.5264  0.5193
  402MOL0     C55401   6.204   9.601   0.854 -0.9105 -0.8524  0.4874
  402MOL0     C55402   6.179   9.670   0.980 -0.0869  0.7379 -0.1187
  402MOL0     C55403   6.159   9.711   1.085  0.1798 -0.3815 -0.3097
  402MOL0     C55404   5.842   9.645   0.286 -0.0803  0.1223  0.0833
  402MOL0     C55405   5.782   9.573   0.181  1.2784  1.0604  0.4059
  402MOL0     C55406   5.678   9.649   0.097 -0.1751  0.0884  0.6174
  402MOL0     H55407   5.438   9.426  -0.049 -4.7450  0.2733 -2.2969
  402MOL0     H55408   5.285   9.333  -0.198 -1.0252 -1.8040 -1.9194
  402MOL0     H55409   5.223   9.337  -0.470  0.7117  1.0451  2.2010
  402MOL0     H55410   5.163   9.244  -0.336  0.4754  0.6408  0.6392
  402MOL0     H55411   5.184   9.141  -0.619 -1.1035 -2.1935 -0.6127
  402MOL0     H55412   5.157   9.036  -0.484  0.1602  1.2699  1.2481
  402MOL0     H55413   4.944   9.147  -0.428  0.7430  1.2386  0.8854
  402MOL0     H55414   4.972   9.281  -0.537 -2.2887 -0.4545  0.1981
  402MOL0     H55415   4.813   9.122  -0.643  1.6547  2.7931  2.1367
  402MOL0     H55416   4.963   9.119  -0.734  1.8383 -1.5888 -0.6630
  402MOL0     H55417   5.043   8.906  -0.631 -0.6947 -0.3147 -4.1047
  402MOL0     H55418   4.885   8.902  -0.710  2.5050  1.8107 -2.2159
  402MOL0     H55419   4.875   8.952  -0.423  0.2455  0.2473 -0.4386
  402MOL0     H55420   4.760   8.875  -0.536 -1.2677 -1.5424  3.5699
  402MOL0     H55421   4.888   8.657  -0.543 -0.2823 -0.1517  1.4088
  402MOL0     H55422   4.822   8.704  -0.391  0.8460 -0.4181 -0.0405
  402MOL0     H55423   5.113   8.704  -0.485 -1.5295  2.4748 -1.4635
  402MOL0     H55424   5.052   8.806  -0.349  2.1869 -0.8184  0.7258
  402MOL0     H55425   4.890   8.594  -0.195  0.1636  1.5049 -2.3831
  402MOL0     H55426   5.115   8.301  -0.002  1.1855  1.4314  2.1144
  402MOL0     H55427   4.949   8.340  -0.032  1.2818 -1.2510  0.2905
  402MOL0     H55428   5.074   8.390   0.189 -3.2627 -1.7060 -0.9954
  402MOL0     H55429   5.158   8.520   0.098  1.6575 -1.4199  1.6531
  402MOL0     H55430   4.956   8.557   0.266  0.5803  0.0583 -0.4514
  402MOL0     H55431   4.959   8.659   0.114 -0.2746 -0.4314 -0.3095
  402MOL0     H55432   4.734   8.582   0.154  3.1933  2.8389 -0.2944
  402MOL0     H55433   4.788   8.523   0.008  0.7591  2.4140  0.1948
  402MOL0     H55434   4.564   8.457   0.004  0.4467  0.1927  1.5160
  402MOL0     H55435   4.362   8.280  -0.180  0.3131 -1.0092  0.4587
  402MOL0     H55436   4.357   8.430  -0.079  1.5763  0.4766 -0.8766
  402MOL0     H55437   4.249   8.304  -0.038 -1.1439 -2.0189 -3.4456
  402MOL0     H55438   4.268   7.775  -0.147  0.9832  0.8315  2.0241
  402MOL0     H55439   4.098   7.627  -0.121  2.8221  1.5459 -1.1440
  402MOL0     H55440   3.818   7.515   0.037  1.2034  2.2376  0.0204
  402MOL0     H55441   3.947   7.448  -0.036 -0.4530  0.7661 -0.5716
  402MOL0     H55442   3.774   7.306   0.088  0.0925 -0.2279  0.0762
  402MOL0     H55443   3.941   7.262   0.123 -1.2196 -1.1338  1.0960
  402MOL0     H55444   3.766   7.434   0.309 -0.2510 -0.5524  0.6447
  402MOL0     H55445   3.937   7.386   0.345  0.2141  1.0796 -1.6245
  402MOL0     H55446   3.739   7.166   0.298  0.2658 -0.6797  0.9236
  402MOL0     H55447   3.726   7.266   0.436 -2.0208 -1.6741 -0.2349
  402MOL0     H55448   3.976   7.122   0.336  3.4789  1.7020  0.4415
  402MOL0     H55449   3.991   7.225   0.474  1.5708 -1.0519 -2.4241
  402MOL0     H55450   3.837   6.967   0.445  2.1824 -1.3310 -0.5595
  402MOL0     H55451   3.796   7.072   0.579 -0.6827 -0.9801 -1.8851
  402MOL0     H55452   3.969   7.007   0.707  0.0259 -2.4136  0.4187
  402MOL0     H55453   4.085   7.019   0.574 -0.2117  0.5663  0.3591
  402MOL0     H55454   4.039   6.783   0.667 -1.5064 -1.1403  0.7252
  402MOL0     H55455   3.990   6.800   0.486  1.0902 -0.1310 -0.4712
  402MOL0     H55456   4.155   7.683   0.313  1.1623 -0.9076 -0.5080
  402MOL0     H55457   4.340   7.817   0.266 -3.7482  0.7580  2.8210
  402MOL0     H55458   4.621   7.980   0.134 -0.0687 -1.0844 -3.4632
  402MOL0     H55459   4.770   8.145   0.211  2.0607  1.7049 -2.3219
  402MOL0     H55460   5.609   9.143  -0.417 -0.1814  2.5131 -2.4622
  402MOL0     H55461   5.762   9.215  -0.244  0.5768  1.0474  0.6545
  402MOL0     H55462   5.933   9.273   0.238  3.9392  0.3660 -2.3243
  402MOL0     H55463   6.049   9.401   0.405 -0.0469 -1.2826 -1.7776
  402MOL0     H55464   5.874   9.767   0.578 -0.9087 -0.2128  1.6952
  402MOL0     H55465   5.894   9.591   0.601  0.3979 -1.3443  0.3511
  402MOL0     H55466   6.020   9.784   0.752 -0.0491  0.5460 -0.0071
  402MOL0     H55467   6.151   9.750   0.643 -1.4752  0.1689 -3.2844
  402MOL0     H55468   5.987   9.561   0.824 -0.2644 -0.9263 -0.2766
  402MOL0     H55469   6.104   9.494   0.704  0.0202 -2.2668  2.7366
  402MOL0     H55470   6.278   9.660   0.800 -0.4495  1.1659  3.1104
  402MOL0     H55471   6.253   9.507   0.882  1.2279 -0.4343 -1.5218
  402MOL0     H55472   6.137   9.754   1.181 -0.5412  1.4116 -1.2137
  402MOL0     H55473   5.811   9.748   0.286  1.1538  0.5097  0.2635
  402MOL0     H55474   5.715   9.686   0.000  1.2877 -0.4625  0.9373
  402MOL0     H55475   5.589   9.587   0.086  1.8387 -2.8988 -0.2248
  402MOL0     H55476   5.655   9.745   0.145 -4.1134  0.3182 -1.2979
  403MOL0     O55477   3.908   0.686   8.587  0.0122 -0.4006  0.7925
  403MOL0     C55478   4.022   0.645   8.571  0.5720  0.3045  0.2915
  403MOL0     O55479   4.106   0.674   8.461  0.7960  0.7853 -0.4902
  403MOL0     C55480   4.045   0.752   8.360 -0.8399  0.1800  0.5265
  403MOL0     C55481   4.117   0.851   8.292  0.5933  0.0148 -0.4684
  403MOL0     C55482   4.067   0.923   8.183 -0.3786 -1.0687  0.6903
  403MOL0     C55483   3.953   0.877   8.115 -0.5900 -0.7832 -0.0483
  403MOL0     O55484   3.907   0.951   8.007  0.2785 -0.0856  0.0985
  403MOL0     C55485   3.764   0.961   7.967 -0.5741  0.0317 -0.3292
  403MOL0     C55486   3.757   0.872   7.840 -0.1781  0.6425  0.8910
  403MOL0     C55487   3.874   0.892   7.732 -0.0688  0.8175 -0.2299
  403MOL0     C55488   3.848   0.831   7.597 -1.0021 -1.3014 -1.1543
  403MOL0     C55489   3.956   0.860   7.493 -0.4178 -0.2787  0.0877
  403MOL0     C55490   3.934   0.772   7.375 -0.8437  0.6145  1.4262
  403MOL0     C55491   4.032   0.797   7.255 -0.0802  0.3014 -1.2970
  403MOL0     C55492   4.045   0.953   7.234 -0.6463 -0.4910  0.6282
  403MOL0     N55493   3.919   1.012   7.181  0.0737 -0.3394 -0.0887
  403MOL0     C55494   3.892   1.062   7.048 -0.8419  0.0089 -0.3011
  403MOL0     C55495   3.789   1.149   7.041  0.9175 -1.1953 -1.5469
  403MOL0     C55496   3.725   1.227   6.932 -0.3580  0.3284  0.8803
  403MOL0     C55497   3.591   1.178   6.896 -0.1890  0.4304  0.6488
  403MOL0     C55498   3.529   1.269   6.790 -0.7226  0.1445 -0.4071
  403MOL0     C55499   3.405   1.205   6.728  0.5505 -0.0271  0.1927
  403MOL0     O55500   3.334   1.307   6.673 -0.3259 -0.2068 -0.3150
  403MOL0     C55501   3.223   1.262   6.603 -0.7786  0.1548 -0.9126
  403MOL0     C55502   3.156   1.363   6.535  0.5256 -0.0756  0.2120
  403MOL0     C55503   3.048   1.347   6.448  0.0141  0.7611 -1.0240
  403MOL0     C55504   2.991   1.469   6.365 -1.0942  0.3815 -0.2610
  403MOL0     C55505   2.998   1.214   6.436  0.9371 -1.5566 -0.4560
  403MOL0     C55506   2.871   1.175   6.369 -0.1794 -0.2403 -0.3723
  403MOL0     O55507   2.850   1.047   6.323  0.3168 -0.0569 -0.2014
  403MOL0     C55508   2.732   1.012   6.258 -1.2290 -0.2676 -0.3415
  403MOL0     C55509   2.739   1.012   6.117 -0.5670  0.1620 -0.6094
  403MOL0     C55510   2.620   0.978   6.047 -0.7539  0.3603  0.2421
  403MOL0     C55511   2.505   0.961   6.125  0.6439  0.4915 -0.2565
  403MOL0     O55512   2.390   0.943   6.063  0.2721  0.9032 -0.5703
  403MOL0     C55513   2.269   0.895   6.133  1.0893  0.7447 -0.0425
  403MOL0     C55514   2.166   0.863   6.023  0.1886 -0.7330 -0.6010
  403MOL0     C55515   2.054   0.770   6.048 -0.2152 -0.2268 -0.0854
  403MOL0     C55516   1.966   0.757   5.921 -0.2546  0.4387  0.3503
  403MOL0     C55517   1.856   0.648   5.924 -0.0523  0.6822 -0.6951
  403MOL0     C55518   1.828   0.573   5.794 -0.5526 -0.2768 -0.6450
  403MOL0     C55519   1.682   0.520   5.804 -0.5614 -0.9042 -0.2349
  403MOL0     C55520   1.643   0.494   5.660  0.5739 -0.4088 -0.1064
  403MOL0    Cl55521   1.727   0.351   5.604 -0.0795 -0.6578  0.4002
  403MOL0     C55522   2.501   0.964   6.263  0.7733  0.6521  0.4495
  403MOL0     C55523   2.621   0.989   6.331 -0.3759 -0.5450  0.4245
  403MOL0     O55524   2.799   1.264   6.347 -0.1086  0.3971 -0.8247
  403MOL0     C55525   3.071   1.106   6.495 -0.5095 -0.3096  0.7786
  403MOL0     C55526   3.186   1.124   6.576 -0.1565 -0.5159  0.3334
  403MOL0     N55527   3.736   1.133   7.174 -0.2711 -0.0261 -0.0434
  403MOL0     N55528   3.820   1.068   7.253 -0.0146 -0.3767  0.1256
  403MOL0     C55529   3.888   0.770   8.172  0.3876  0.2169  0.0116
  403MOL0     C55530   3.924   0.714   8.297 -0.5162 -0.7114  0.9109
  403MOL0     C55531   4.083   0.574   8.683  0.3060  0.3125 -0.5051
  403MOL0     C55532   4.226   0.566   8.692 -1.5252  1.2031 -0.2318
  403MOL0     C55533   4.293   0.490   8.803  0.4072  0.3608  1.4963
  403MOL0     C55534   4.216   0.421   8.897 -0.0845 -0.5293 -0.5989
  403MOL0     O55535   4.281   0.362   9.006 -0.5796 -0.0670  0.1656
  403MOL0     C55536   4.216   0.305   9.117  0.8919 -0.2578  0.3277
  403MOL0     C55537   4.317   0.207   9.195  0.0808 -0.7845  0.9727
  403MOL0     C55538   4.387   0.096   9.099 -0.2783 -0.1142 -0.1009
  403MOL0     C55539   4.508   0.016   9.163 -0.1449 -0.0498  0.0269
  403MOL0     C55540   4.449  -0.064   9.272  0.0734 -0.1912  0.2591
  403MOL0     C55541   4.391  -0.146   9.339 -0.7803 -0.1348 -0.4759
  403MOL0     C55542   4.076   0.425   8.879  1.2313 -0.5136 -0.4817
  403MOL0     C55543   4.012   0.505   8.784  0.0710  0.0362  0.7744
  403MOL0     C55544   3.869   0.517   8.807  0.1017  0.6381 -0.0249
  403MOL0     H55545   4.219   0.875   8.320 -0.0482  1.5494  0.6652
  403MOL0     H55546   4.116   1.013   8.147 -1.4647 -0.8856 -0.3812
  403MOL0     H55547   3.741   1.065   7.945 -3.2545 -0.4120  0.0235
  403MOL0     H55548   3.696   0.941   8.050  0.8889 -1.2220  0.6401
  403MOL0     H55549   3.757   0.765   7.864  0.4842  0.3432 -0.3569
  403MOL0     H55550   3.660   0.876   7.791  0.7093 -0.7431 -1.1312
  403MOL0     H55551   3.866   1.001   7.731 -1.9047  0.9054  3.7458
  403MOL0     H55552   3.968   0.861   7.780  1.0224  3.7269 -0.3131
  403MOL0     H55553   3.844   0.723   7.613  0.6281 -1.0421  1.5199
  403MOL0     H55554   3.753   0.873   7.561 -1.8985 -0.7983  1.5936
  403MOL0     H55555   4.050   0.847   7.549 -0.7474  2.3003  1.3914
  403MOL0     H55556   3.938   0.967   7.477 -1.7615 -0.1169  2.2441
  403MOL0     H55557   3.947   0.668   7.406 -1.7450 -1.0483 -3.0757
  403MOL0     H55558   3.831   0.778   7.339 -1.4976 -1.2097  2.7965
  403MOL0     H55559   3.987   0.750   7.167 -2.5045  0.7436 -0.3819
  403MOL0     H55560   4.129   0.752   7.279  0.8874  1.6930 -2.4382
  403MOL0     H55561   4.078   1.000   7.327  1.7214 -1.4919  0.3560
  403MOL0     H55562   4.124   0.977   7.162 -2.8389  3.8334 -0.7437
  403MOL0     H55563   3.955   1.044   6.961  1.1314 -0.6997  1.2196
  403MOL0     H55564   3.790   1.222   6.844  0.3841  1.6845  1.3086
  403MOL0     H55565   3.714   1.333   6.959 -0.5195 -0.2143  3.1716
  403MOL0     H55566   3.584   1.074   6.862  0.0048  0.2310  1.2116
  403MOL0     H55567   3.532   1.198   6.986 -1.3015 -1.2887  0.3716
  403MOL0     H55568   3.512   1.367   6.834 -0.3324 -1.1072  2.7552
  403MOL0     H55569   3.603   1.278   6.710  0.5466  0.2144  0.7477
  403MOL0     H55570   3.449   1.134   6.657  3.5967  2.1056 -0.2605
  403MOL0     H55571   3.341   1.155   6.801 -1.1268 -0.9045 -1.7858
  403MOL0     H55572   3.195   1.464   6.539 -0.1251  0.3642 -2.7221
  403MOL0     H55573   2.885   1.483   6.391 -0.4246  2.9582  1.4663
  403MOL0     H55574   2.992   1.433   6.262 -0.1166 -2.1888  0.5647
  403MOL0     H55575   3.052   1.559   6.378  1.6586 -1.6735  2.8093
  403MOL0     H55576   2.836   1.027   6.070 -0.2832 -1.6915 -0.6927
  403MOL0     H55577   2.616   0.973   5.939  0.1008  0.3263  0.2029
  403MOL0     H55578   2.295   0.798   6.178 -2.6062 -1.8204 -2.8210
  403MOL0     H55579   2.219   0.958   6.207  0.7614  0.3197  0.0992
  403MOL0     H55580   2.139   0.965   5.994  0.2439  0.1168  2.0763
  403MOL0     H55581   2.221   0.811   5.944  2.5905 -4.3937  3.1016
  403MOL0     H55582   1.988   0.803   6.128  0.4732 -0.1017  0.4379
  403MOL0     H55583   2.082   0.669   6.079 -2.8109 -1.6892 -2.1178
  403MOL0     H55584   2.041   0.730   5.846 -0.3526  2.4905 -0.5784
  403MOL0     H55585   1.931   0.847   5.869  0.8620  0.6030 -0.1391
  403MOL0     H55586   1.876   0.573   6.001 -0.9717  0.2918 -0.8306
  403MOL0     H55587   1.759   0.688   5.955 -0.7807 -0.8949 -0.8689
  403MOL0     H55588   1.902   0.494   5.781 -0.8216 -1.0740  2.0506
  403MOL0     H55589   1.840   0.654   5.722 -0.7530  0.4761  0.1427
  403MOL0     H55590   1.619   0.597   5.849  0.5970 -0.0374 -0.0523
  403MOL0     H55591   1.679   0.433   5.871 -1.6847 -2.7042 -2.4734
  403MOL0     H55592   1.667   0.575   5.591  3.6334 -2.4639 -1.6926
  403MOL0     H55593   1.534   0.482   5.665  0.5036  0.3008  5.1695
  403MOL0     H55594   2.405   0.961   6.313  0.4737 -1.8675 -0.1361
  403MOL0     H55595   2.632   1.008   6.438 -1.0492 -1.4544  0.6598
  403MOL0     H55596   3.049   1.005   6.463  0.5361 -0.2345 -0.2350
  403MOL0     H55597   3.242   1.046   6.626 -0.1236  0.0195  1.1505
  403MOL0     H55598   3.799   0.748   8.114 -1.4035  1.7519  2.0092
  403MOL0     H55599   3.871   0.630   8.339  1.9481 -3.0456 -0.3560
  403MOL0     H55600   4.283   0.632   8.627  0.2585  1.5401  1.5557
  403MOL0     H55601   4.395   0.484   8.840  1.3371 -0.3841 -0.9873
  403MOL0     H55602   4.177   0.382   9.184  0.4617  0.7692 -1.0631
  403MOL0     H55603   4.125   0.250   9.088 -0.4353  2.6413 -1.5138
  403MOL0     H55604   4.260   0.149   9.269  1.4823 -0.6007  2.2566
  403MOL0     H55605   4.397   0.262   9.247 -1.7420 -0.7563  3.9663
  403MOL0     H55606   4.323   0.016   9.061 -0.4317 -0.3232  0.5801
  403MOL0     H55607   4.445   0.134   9.015 -1.0733  1.1125 -0.1160
  403MOL0     H55608   4.565   0.101   9.200 -2.1612  1.7908 -0.8685
  403MOL0     H55609   4.570  -0.046   9.097 -1.9398 -1.2129 -0.6502
  403MOL0     H55610   4.331  -0.224   9.381 -1.5048  1.5444  1.7967
  403MOL0     H55611   4.010   0.369   8.944 -1.6230 -3.4263 -5.2790
  403MOL0     H55612   3.824   0.458   8.887 -0.8483  1.7324  0.2787
  403MOL0     H55613   3.849   0.621   8.836 -3.0157  0.4805 -1.1494
  403MOL0     H55614   3.818   0.486   8.715 -0.5823  0.2545  0.4695
  404MOL0     O55615   1.951   9.031  11.612 -0.0751 -0.3125  0.2085
  404MOL0     C55616   1.868   8.953  11.663  0.8097 -1.2143  0.0881
  404MOL0     O55617   1.864   8.925  11.796 -0.6918  0.3962 -0.3632
  404MOL0     C55618   1.957   8.981  11.880 -0.6616 -1.0165 -0.9992
  404MOL0     C55619   1.941   9.106  11.935 -0.6724  1.1770 -0.1986
  404MOL0     C55620   2.040   9.162  12.008 -0.1952  0.1953  0.9701
  404MOL0     C55621   2.161   9.096  12.048 -0.0202  0.0365  0.6172
  404MOL0     O55622   2.264   9.155  12.108 -0.2764 -0.3650 -0.0702
  404MOL0     C55623   2.303   9.284  12.060 -0.3686  1.0058  0.5950
  404MOL0     C55624   2.456   9.312  12.083 -0.0828 -1.0577  0.2304
  404MOL0     C55625   2.503   9.372  12.223 -0.4080  1.0398  0.0822
  404MOL0     C55626   2.599   9.487  12.211 -0.2639 -0.6171 -0.1463
  404MOL0     C55627   2.697   9.525  12.323  0.5811 -0.4419 -0.1584
  404MOL0     C55628   2.784   9.645  12.284 -0.2774 -0.2886 -0.5748
  404MOL0     C55629   2.868   9.707  12.405  0.0598 -0.1154 -0.3904
  404MOL0     C55630   2.978   9.789  12.334 -0.0915  0.3183 -0.4633
  404MOL0     N55631   3.082   9.836  12.419  0.1035 -0.5069 -0.7027
  404MOL0     C55632   3.090   9.838  12.553 -0.0807  0.3337  0.1055
  404MOL0     C55633   3.212   9.876  12.583 -1.2112  0.4665  0.7260
  404MOL0     C55634   3.263   9.912  12.722 -0.5815 -0.3427 -0.6653
  404MOL0     C55635   3.374   9.830  12.767 -0.5593 -0.5948 -0.4960
  404MOL0     C55636   3.417   9.861  12.919 -0.4167 -0.1185  0.4872
  404MOL0     C55637   3.445  10.007  12.958 -0.0353  0.4069  0.3928
  404MOL0     O55638   3.315  10.067  13.001  0.6402  0.6892  1.0289
  404MOL0     C55639   3.319  10.202  12.991  0.7485 -0.5678 -0.1317
  404MOL0     C55640   3.431  10.281  13.020 -0.0458 -0.3689 -0.7439
  404MOL0     C55641   3.428  10.421  13.029  0.7650  0.6954 -0.3465
  404MOL0     C55642   3.549  10.490  13.097 -0.8331 -0.8758 -0.6038
  404MOL0     C55643   3.309  10.485  12.983  0.2190 -0.6471 -0.4450
  404MOL0     C55644   3.306  10.637  12.977  0.1516 -0.3186 -0.3569
  404MOL0     O55645   3.183  10.676  13.028  0.2714 -0.0522 -0.5366
  404MOL0     C55646   3.153  10.809  13.039 -0.4979  0.0085 -0.0625
  404MOL0     C55647   3.197  10.911  12.947  0.4140  0.7471  0.5259
  404MOL0     C55648   3.161  11.044  12.959  0.1671 -0.4203  0.6239
  404MOL0     C55649   3.089  11.090  13.069  0.2283 -1.0568  0.7972
  404MOL0     O55650   3.043  11.222  13.066  0.2586  0.0148 -0.2513
  404MOL0     C55651   2.905  11.260  13.103  0.6034  0.0447 -0.6828
  404MOL0     C55652   2.815  11.195  12.991  0.6121  0.4518  0.0535
  404MOL0     C55653   2.840  11.268  12.861 -0.4336  0.5662  0.4089
  404MOL0     C55654   2.850  11.419  12.864  0.1752  0.2592  0.9057
  404MOL0     C55655   2.834  11.483  12.731  0.5576  0.0140 -0.3716
  404MOL0     C55656   2.695  11.524  12.680  0.4723  0.2074  0.3671
  404MOL0     C55657   2.621  11.636  12.769  0.6682 -0.0193  1.0323
  404MOL0     C55658   2.687  11.770  12.728 -0.4284  0.2356 -0.3119
  404MOL0    Cl55659   2.633  11.851  12.582 -0.4326  0.3045  0.5312
  404MOL0     C55660   3.045  10.999  13.170 -0.2526  0.5659 -0.0027
  404MOL0     C55661   3.073  10.858  13.146 -0.8908 -0.4164  0.3835
  404MOL0     O55662   3.408  10.703  12.952  0.2577 -0.1135  0.4026
  404MOL0     C55663   3.194  10.409  12.954  0.8897 -0.1899 -0.2175
  404MOL0     C55664   3.199  10.267  12.965  0.1264 -0.6865  0.0532
  404MOL0     N55665   3.288   9.879  12.464 -0.0041  0.7470 -0.8089
  404MOL0     N55666   3.200   9.881  12.367 -0.1984  0.2736  0.1720
  404MOL0     C55667   2.182   8.968  11.991 -0.2198 -0.2170 -0.2438
  404MOL0     C55668   2.082   8.912  11.905 -0.4565 -0.3314 -0.2242
  404MOL0     C55669   1.742   8.921  11.576  0.5894 -0.7033  0.2386
  404MOL0     C55670   1.730   8.984  11.449 -0.6053 -0.6110 -0.6700
  404MOL0     C55671   1.625   8.959  11.371  0.5307 -0.2900  0.2151
  404MOL0     C55672   1.522   8.870  11.405  0.6441  0.4269 -1.3156
  404MOL0     O55673   1.421   8.855  11.312  0.2522 -0.3263 -0.2937
  404MOL0     C55674   1.290   8.818  11.349  1.0419  0.3578 -0.1209
  404MOL0     C55675   1.236   8.955  11.407  0.4293 -0.4883 -0.3244
  404MOL0     C55676   1.082   8.976  11.378  0.5322  0.4871 -0.2023
  404MOL0     C55677   1.005   8.842  11.384  0.9480  0.4998 -0.2556
  404MOL0     C55678   0.859   8.842  11.365  0.1862 -0.2577  0.3286
  404MOL0     C55679   0.739   8.819  11.362  0.1310 -0.0436 -0.0587
  404MOL0     C55680   1.517   8.819  11.535 -0.1761 -0.4462  0.1990
  404MOL0     C55681   1.632   8.842  11.625 -0.4457 -0.8619 -0.2675
  404MOL0     C55682   1.615   8.777  11.761  0.1239  0.1974 -1.3150
  404MOL0     H55683   1.848   9.161  11.924 -0.4719  2.0195  1.8736
  404MOL0     H55684   2.026   9.268  12.026 -0.4936 -0.1695  3.2937
  404MOL0     H55685   2.241   9.359  12.109 -3.4626 -1.7968  1.3833
  404MOL0     H55686   2.287   9.284  11.951  0.0384 -1.2711  0.4927
  404MOL0     H55687   2.509   9.216  12.073  0.5742 -0.6498 -0.2945
  404MOL0     H55688   2.486   9.370  11.996  0.6333 -3.0353 -0.9085
  404MOL0     H55689   2.407   9.387  12.274 -0.0692  0.2425  0.9811
  404MOL0     H55690   2.551   9.285  12.269  0.6984  0.8210 -1.4173
  404MOL0     H55691   2.664   9.483  12.122  0.2467  2.1906  0.0214
  404MOL0     H55692   2.545   9.578  12.186  1.8153  0.8777  0.4876
  404MOL0     H55693   2.772   9.445  12.336  0.8815 -0.7868 -3.3084
  404MOL0     H55694   2.648   9.535  12.420 -1.1289 -2.4722 -0.7427
  404MOL0     H55695   2.846   9.620  12.198 -0.6726  3.0184 -1.9685
  404MOL0     H55696   2.715   9.721  12.245 -0.1854 -1.0451 -2.3019
  404MOL0     H55697   2.905   9.628  12.470 -0.3832  0.9842  1.2689
  404MOL0     H55698   2.807   9.775  12.466  1.3341  0.0329  0.7731
  404MOL0     H55699   3.030   9.721  12.266 -2.6432 -0.3652 -1.8298
  404MOL0     H55700   2.932   9.870  12.277 -3.0804  1.0066  2.5927
  404MOL0     H55701   3.011   9.820  12.626  1.3073 -1.1322  1.2974
  404MOL0     H55702   3.187   9.916  12.800  0.1443  1.8364 -0.0019
  404MOL0     H55703   3.293  10.016  12.735 -0.9039 -0.3035 -0.1989
  404MOL0     H55704   3.338   9.726  12.767 -0.3919 -0.6926 -2.6779
  404MOL0     H55705   3.463   9.846  12.706 -1.1467  0.3713 -1.1160
  404MOL0     H55706   3.341   9.816  12.983  0.9319 -3.4553 -0.0395
  404MOL0     H55707   3.515   9.814  12.930 -0.1989 -0.3312 -1.8739
  404MOL0     H55708   3.519  10.015  13.038  0.0214 -3.0493  0.8331
  404MOL0     H55709   3.488  10.051  12.868  0.1543 -0.1415  0.2082
  404MOL0     H55710   3.519  10.231  13.060 -2.5535 -4.7415 -0.0121
  404MOL0     H55711   3.523  10.594  13.123  3.4330  0.7889 -2.1879
  404MOL0     H55712   3.638  10.485  13.034 -0.7890  0.4345 -0.6796
  404MOL0     H55713   3.573  10.443  13.193  2.0161 -0.4096 -1.0068
  404MOL0     H55714   3.263  10.878  12.867 -2.4833 -0.2159 -1.6528
  404MOL0     H55715   3.204  11.113  12.887  2.8346 -1.7662  0.7918
  404MOL0     H55716   2.884  11.216  13.201 -0.2936  3.3054  0.7122
  404MOL0     H55717   2.891  11.368  13.113 -2.7269 -0.4096  1.0954
  404MOL0     H55718   2.845  11.094  12.960 -0.5746 -0.5643  2.0532
  404MOL0     H55719   2.710  11.184  13.021  0.1719  3.2566 -0.2072
  404MOL0     H55720   2.749  11.238  12.807 -1.3039 -1.5516  2.8354
  404MOL0     H55721   2.935  11.230  12.822 -0.3928 -0.6270  1.6098
  404MOL0     H55722   2.950  11.446  12.898  1.1086  1.5863 -2.4507
  404MOL0     H55723   2.779  11.460  12.936 -0.8917  1.0506 -0.5358
  404MOL0     H55724   2.899  11.567  12.758 -1.2983  1.2420  0.4636
  404MOL0     H55725   2.900  11.437  12.656  4.9214  2.9014  1.3240
  404MOL0     H55726   2.623  11.442  12.683 -0.0292  0.4977 -1.7677
  404MOL0     H55727   2.697  11.562  12.577  2.1128 -1.3736 -0.2403
  404MOL0     H55728   2.642  11.626  12.876  2.4446 -1.6269  0.5817
  404MOL0     H55729   2.517  11.642  12.737  0.9424 -0.9094 -0.0776
  404MOL0     H55730   2.795  11.755  12.727 -0.2763  1.1808  0.0937
  404MOL0     H55731   2.666  11.840  12.810  2.1960 -0.3040  0.9458
  404MOL0     H55732   2.982  11.028  13.254  0.6242  2.2299  0.1213
  404MOL0     H55733   3.034  10.780  13.211  1.1701 -0.5093  1.5944
  404MOL0     H55734   3.102  10.460  12.925 -1.8876 -3.2191  2.4192
  404MOL0     H55735   3.119  10.204  12.926  1.3091 -2.7030  0.7345
  404MOL0     H55736   2.282   8.930  12.008  0.9299  2.9872  0.7384
  404MOL0     H55737   2.102   8.822  11.848  2.3312  0.2098 -0.2660
  404MOL0     H55738   1.819   9.038  11.415  0.4820 -1.2432  1.0415
  404MOL0     H55739   1.637   8.997  11.269 -2.1354 -0.6349 -0.2851
  404MOL0     H55740   1.240   8.797  11.254  1.2625 -0.3613 -0.0849
  404MOL0     H55741   1.278   8.724  11.404 -5.6410  0.1267 -1.1641
  404MOL0     H55742   1.293   9.039  11.367  0.7591 -1.0122 -0.9842
  404MOL0     H55743   1.241   8.964  11.516 -2.8232 -1.8567  0.0543
  404MOL0     H55744   1.049   9.040  11.460 -4.3764  0.4687 -1.8735
  404MOL0     H55745   1.063   9.027  11.283 -1.2067  0.5450  0.1409
  404MOL0     H55746   1.033   8.806  11.484  2.6369  1.6964 -0.2510
  404MOL0     H55747   1.045   8.760  11.323  1.8965  0.2566  0.6572
  404MOL0     H55748   0.632   8.817  11.351  0.2687 -0.8014 -1.6199
  404MOL0     H55749   1.438   8.753  11.568 -1.6112 -0.3047 -2.6079
  404MOL0     H55750   1.700   8.713  11.789 -0.1668 -0.2573 -1.4490
  404MOL0     H55751   1.599   8.848  11.842 -2.5405 -1.8796  0.1414
  404MOL0     H55752   1.513   8.737  11.763 -0.5631  1.9221  0.4260
  405MOL0     O55753   0.785  11.375   7.869  0.2311 -0.0827  0.5349
  405MOL0     C55754   0.820  11.471   7.799 -0.7206 -0.1999 -0.6890
  405MOL0     O55755   0.769  11.597   7.810  0.2758  0.3549 -0.0293
  405MOL0     C55756   0.736  11.656   7.925 -1.0129  0.9592  0.2038
  405MOL0     C55757   0.672  11.778   7.910  0.5347 -1.0230 -0.1260
  405MOL0     C55758   0.666  11.863   8.019  0.7540  0.0943  0.6605
  405MOL0     C55759   0.700  11.826   8.147  0.1776 -0.0593 -0.5055
  405MOL0     O55760   0.686  11.912   8.260 -0.1388  0.5562  0.1919
  405MOL0     C55761   0.656  12.051   8.229  0.9478 -0.2982 -0.3371
  405MOL0     C55762   0.678  12.111   8.375  1.2746 -0.8582  0.5492
  405MOL0     C55763   0.632  12.263   8.355 -0.8427 -0.1774 -0.5385
  405MOL0     C55764   0.640  12.333   8.492  0.1774 -0.0361 -0.4843
  405MOL0     C55765   0.781  12.339   8.548  0.0746  0.7825  0.0864
  405MOL0     C55766   0.813  12.436   8.660 -0.2800 -0.4585 -0.5492
  405MOL0     C55767   0.744  12.381   8.786 -0.5444  0.1031  0.1164
  405MOL0     C55768   0.771  12.470   8.909 -0.0772  0.5425  0.5608
  405MOL0     N55769   0.686  12.426   9.022  0.6109  0.2505 -0.9259
  405MOL0     C55770   0.548  12.433   9.034 -0.7195 -1.2843 -0.0145
  405MOL0     C55771   0.517  12.380   9.157  0.6460  0.0485 -0.0396
  405MOL0     C55772   0.392  12.373   9.242  0.2802 -0.4376  0.3132
  405MOL0     C55773   0.376  12.501   9.328  0.8759  0.4373 -1.1157
  405MOL0     C55774   0.484  12.505   9.436 -1.0373  0.3397 -0.6017
  405MOL0     C55775   0.471  12.408   9.550 -0.7134  0.4775  0.1039
  405MOL0     O55776   0.603  12.413   9.615  0.0197  0.3973  0.0084
  405MOL0     C55777   0.611  12.417   9.750 -0.8544  0.1039  0.7667
  405MOL0     C55778   0.511  12.375   9.840 -0.0370 -0.6189  0.8839
  405MOL0     C55779   0.515  12.395   9.986 -0.2914  0.1362 -0.5720
  405MOL0     C55780   0.394  12.334  10.063 -0.1803  0.0613 -0.5628
  405MOL0     C55781   0.631  12.451  10.044 -0.6986  0.5314  0.8510
  405MOL0     C55782   0.647  12.480  10.187  1.3067  0.6695  0.0190
  405MOL0     O55783   0.555  12.412  10.278  0.4537 -0.2047  0.5255
  405MOL0     C55784   0.576  12.404  10.412 -0.2678  0.5562  0.0953
  405MOL0     C55785   0.696  12.440  10.481 -0.3023  0.0679  0.0294
  405MOL0     C55786   0.707  12.432  10.621  0.0939  0.2790  0.1313
  405MOL0     C55787   0.593  12.385  10.704  0.4406  0.7302  0.5836
  405MOL0     O55788   0.594  12.387  10.846 -0.0283  0.1179 -0.0065
  405MOL0     C55789   0.670  12.490  10.894  0.1000 -0.7278 -0.6282
  405MOL0     C55790   0.649  12.509  11.045 -1.1228  0.6655  0.9132
  405MOL0     C55791   0.499  12.523  11.073 -0.1588  0.2318 -0.6554
  405MOL0     C55792   0.476  12.523  11.224  0.7426  0.4196 -0.2268
  405MOL0     C55793   0.329  12.551  11.260  0.0240 -0.1751  0.5123
  405MOL0     C55794   0.298  12.640  11.381  0.6581  0.9256  0.3615
  405MOL0     C55795   0.359  12.576  11.512 -1.0207 -0.4076 -0.8997
  405MOL0     C55796   0.514  12.603  11.522 -0.0003 -0.1346  0.2292
  405MOL0    Cl55797   0.569  12.568  11.687 -0.3525 -0.0908 -0.5295
  405MOL0     C55798   0.483  12.348  10.634  0.4668  0.0442 -0.5587
  405MOL0     C55799   0.472  12.355  10.489  0.5637 -0.1096 -0.0915
  405MOL0     O55800   0.746  12.550  10.218  0.9394  0.8251 -0.4610
  405MOL0     C55801   0.728  12.495   9.953  0.4418 -0.1273  0.2603
  405MOL0     C55802   0.716  12.483   9.811 -0.3613 -0.4897  0.6234
  405MOL0     N55803   0.636  12.341   9.224 -0.6101 -0.2110  0.7946
  405MOL0     N55804   0.730  12.362   9.138 -0.0338  0.6572 -0.8720
  405MOL0     C55805   0.767  11.700   8.159  0.0015 -0.6063  0.3575
  405MOL0     C55806   0.783  11.617   8.049 -0.8817  0.0691  0.6141
  405MOL0     C55807   0.930  11.446   7.694  0.9296 -0.0596 -0.4024
  405MOL0     C55808   0.916  11.528   7.580 -0.6001  0.5561  0.4313
  405MOL0     C55809   1.003  11.518   7.468 -0.2445  0.1348 -1.3853
  405MOL0     C55810   1.105  11.428   7.470 -0.5094 -0.0575 -0.2936
  405MOL0     O55811   1.184  11.417   7.354  0.4794 -0.1207  0.2360
  405MOL0     C55812   1.191  11.281   7.300  0.3819  0.0992 -0.6957
  405MOL0     C55813   1.066  11.228   7.249  0.9900  0.9373  0.0314
  405MOL0     C55814   1.024  11.272   7.107  1.5136 -1.8079  0.4429
  405MOL0     C55815   0.904  11.369   7.122 -0.7428  1.2393 -0.8505
  405MOL0     C55816   0.849  11.407   6.994  1.1595  0.8605  1.3685
  405MOL0     C55817   0.811  11.452   6.886 -0.5796 -0.3982 -0.5498
  405MOL0     C55818   1.132  11.358   7.593  0.3071  0.4475  0.4449
  405MOL0     C55819   1.035  11.358   7.697  0.6877 -0.0156 -1.2945
  405MOL0     C55820   1.043  11.260   7.819 -0.6724 -0.7394  0.1966
  405MOL0     H55821   0.647  11.809   7.810  0.1848  0.0616  0.2897
  405MOL0     H55822   0.604  11.948   7.993  0.1079  0.0544  1.9928
  405MOL0     H55823   0.561  12.083   8.186  0.2674  1.8976  2.4812
  405MOL0     H55824   0.731  12.088   8.159  1.3017 -0.3971 -0.0180
  405MOL0     H55825   0.617  12.066   8.454 -1.0452  0.4458 -0.3710
  405MOL0     H55826   0.782  12.105   8.408  0.5826  1.5214  3.5659
  405MOL0     H55827   0.706  12.307   8.288 -0.1456  0.9432  0.9150
  405MOL0     H55828   0.538  12.253   8.300 -0.1896 -2.7438 -1.3097
  405MOL0     H55829   0.592  12.431   8.502 -0.1584 -0.3569  1.6163
  405MOL0     H55830   0.577  12.275   8.561  0.7589 -0.2680 -0.1394
  405MOL0     H55831   0.846  12.372   8.466  2.7891  2.8763  2.8292
  405MOL0     H55832   0.814  12.243   8.587 -0.8501  0.5512  0.3128
  405MOL0     H55833   0.920  12.454   8.675 -0.0415 -1.5095 -0.9300
  405MOL0     H55834   0.763  12.528   8.627 -0.7164 -0.5490 -0.1633
  405MOL0     H55835   0.777  12.278   8.802  0.8999 -0.6389 -5.6718
  405MOL0     H55836   0.636  12.377   8.774 -0.5010 -0.9641  0.0393
  405MOL0     H55837   0.872  12.440   8.940  0.6349 -2.1642 -3.6210
  405MOL0     H55838   0.757  12.577   8.888 -0.9704 -0.0475 -2.2004
  405MOL0     H55839   0.468  12.468   8.970 -1.8263 -4.6680 -0.6890
  405MOL0     H55840   0.400  12.279   9.297  0.5435 -1.4434 -1.3737
  405MOL0     H55841   0.306  12.374   9.174 -1.0997  0.2923  1.9991
  405MOL0     H55842   0.404  12.590   9.270  0.5772  1.1094 -0.2558
  405MOL0     H55843   0.277  12.514   9.373  1.0487 -0.6269 -0.4161
  405MOL0     H55844   0.580  12.509   9.383 -0.4116 -1.5727  0.2862
  405MOL0     H55845   0.500  12.602   9.484  1.2743 -1.0103  1.6113
  405MOL0     H55846   0.383  12.438   9.607 -0.9648  2.8077 -1.3920
  405MOL0     H55847   0.466  12.302   9.522  2.0171  0.3516 -0.1625
  405MOL0     H55848   0.419  12.338   9.798 -1.2271  2.7537  0.1569
  405MOL0     H55849   0.343  12.415  10.116  0.1537 -1.0768  1.6643
  405MOL0     H55850   0.415  12.264  10.145  1.4860  1.5515  0.3704
  405MOL0     H55851   0.329  12.285   9.990  0.3126 -2.3384  0.4918
  405MOL0     H55852   0.779  12.468  10.418 -0.1317 -0.4164  0.0324
  405MOL0     H55853   0.790  12.470  10.680 -2.1814  2.1150  2.3488
  405MOL0     H55854   0.775  12.463  10.884  1.0684  2.5894 -0.6698
  405MOL0     H55855   0.657  12.577  10.829  0.1476 -0.7493 -0.6666
  405MOL0     H55856   0.699  12.434  11.107 -1.7792 -3.3842 -3.0136
  405MOL0     H55857   0.703  12.599  11.076  1.4871 -0.3116 -0.4580
  405MOL0     H55858   0.441  12.443  11.025  1.4492 -1.1211 -0.4429
  405MOL0     H55859   0.470  12.621  11.035  0.5988  0.3478 -0.9542
  405MOL0     H55860   0.530  12.605  11.273  0.3622 -0.8862  2.5704
  405MOL0     H55861   0.508  12.426  11.262  1.2029  0.3991 -0.6528
  405MOL0     H55862   0.273  12.584  11.173  1.4171  0.5423 -0.1377
  405MOL0     H55863   0.288  12.453  11.287  2.0859 -1.1550  0.2883
  405MOL0     H55864   0.190  12.638  11.398  0.8595 -3.0297  2.4037
  405MOL0     H55865   0.331  12.742  11.362 -1.1444  1.3381 -0.7920
  405MOL0     H55866   0.327  12.473  11.531 -4.8491  0.8131  0.2132
  405MOL0     H55867   0.312  12.638  11.590  0.2508  1.0602 -1.2525
  405MOL0     H55868   0.515  12.712  11.511 -0.0789  0.8484  6.2085
  405MOL0     H55869   0.576  12.545  11.454 -1.4211  0.5469 -1.7430
  405MOL0     H55870   0.389  12.331  10.685 -1.0472  1.1986 -2.8544
  405MOL0     H55871   0.381  12.334  10.434 -1.3510 -1.5707  3.3539
  405MOL0     H55872   0.813  12.545   9.999  0.5927 -1.2819  1.2965
  405MOL0     H55873   0.780  12.535   9.742 -2.0136 -2.5071 -2.6636
  405MOL0     H55874   0.783  11.680   8.265 -1.3479 -2.0715  0.3234
  405MOL0     H55875   0.823  11.522   8.082 -1.7937  0.3491  2.6533
  405MOL0     H55876   0.825  11.587   7.574  0.3606  1.9418 -1.5227
  405MOL0     H55877   0.990  11.582   7.381 -0.8402  1.5840 -0.2793
  405MOL0     H55878   1.276  11.280   7.232  3.2489 -0.6500  2.6482
  405MOL0     H55879   1.237  11.218   7.376 -0.5962 -2.9386 -2.4529
  405MOL0     H55880   0.988  11.234   7.325 -1.2726  1.0201 -2.1978
  405MOL0     H55881   1.091  11.121   7.239  1.6895  1.0235  0.7242
  405MOL0     H55882   1.109  11.316   7.054 -0.1996 -0.1523 -1.0794
  405MOL0     H55883   0.989  11.197   7.036 -0.2548  0.7096 -1.5083
  405MOL0     H55884   0.943  11.459   7.170  0.1173  0.2185  0.4463
  405MOL0     H55885   0.831  11.316   7.185 -1.1524  0.2363 -2.1228
  405MOL0     H55886   0.791  11.510   6.798  0.1118  0.3698 -0.2237
  405MOL0     H55887   1.218  11.293   7.582 -0.1313 -0.4466  1.9941
  405MOL0     H55888   1.108  11.185   7.775 -0.0187  0.6271 -1.2603
  405MOL0     H55889   1.077  11.307   7.912 -1.3926  1.6760 -0.6891
  405MOL0     H55890   0.953  11.200   7.835 -0.1823 -1.0476  2.0758
  406MOL0     O55891   0.834   2.071   7.634  0.3836  0.0391  0.1580
  406MOL0     C55892   0.744   2.119   7.562  0.4962  0.6130 -1.0218
  406MOL0     O55893   0.758   2.155   7.433  0.2370 -0.2214  0.1598
  406MOL0     C55894   0.885   2.145   7.388  0.6367 -0.1319 -0.1634
  406MOL0     C55895   0.926   2.014   7.357 -0.0425 -0.4182  0.6542
  406MOL0     C55896   1.060   1.986   7.317 -0.4800 -0.2868  0.0303
  406MOL0     C55897   1.149   2.087   7.312 -0.1775  0.1160 -0.8475
  406MOL0     O55898   1.286   2.071   7.314  0.4492  0.4304 -0.3257
  406MOL0     C55899   1.334   1.938   7.340  0.5787  0.5088  0.0869
  406MOL0     C55900   1.495   1.929   7.342  0.7912 -0.6532 -0.3343
  406MOL0     C55901   1.546   1.786   7.380 -0.2887 -1.3359  0.5156
  406MOL0     C55902   1.700   1.792   7.373  0.4423  0.9934  0.4060
  406MOL0     C55903   1.747   1.654   7.426  0.5950 -0.6798  0.3837
  406MOL0     C55904   1.905   1.641   7.431 -0.2805  0.4397 -1.0353
  406MOL0     C55905   1.965   1.645   7.292 -0.1448 -0.0312 -0.4155
  406MOL0     C55906   2.106   1.604   7.294 -0.3225 -0.1227 -0.4346
  406MOL0     N55907   2.161   1.660   7.167  0.5459 -0.0697  0.1604
  406MOL0     C55908   2.236   1.783   7.141  0.1945  0.0052  0.0148
  406MOL0     C55909   2.248   1.787   7.003 -0.1410  0.4844  1.1316
  406MOL0     C55910   2.334   1.890   6.927  1.1689  0.4841 -0.4207
  406MOL0     C55911   2.469   1.833   6.908 -0.8640  0.0076  0.8442
  406MOL0     C55912   2.565   1.826   7.028 -0.5379  0.0750  0.0538
  406MOL0     C55913   2.699   1.877   6.974 -0.5273  0.0513  1.3721
  406MOL0     O55914   2.698   2.013   6.928 -0.3163 -0.3610  0.4781
  406MOL0     C55915   2.643   2.111   7.003  0.8976 -0.3074  0.9516
  406MOL0     C55916   2.541   2.190   6.940 -0.5888 -0.1669 -0.9284
  406MOL0     C55917   2.490   2.301   7.010  0.2829 -0.7579  0.4110
  406MOL0     C55918   2.399   2.400   6.937  0.1967  0.3223 -0.1876
  406MOL0     C55919   2.527   2.323   7.149 -0.1096  1.1427 -0.4556
  406MOL0     C55920   2.464   2.428   7.229  0.0754 -0.8001 -0.5610
  406MOL0     O55921   2.433   2.389   7.367  0.1985  0.8436 -0.3217
  406MOL0     C55922   2.406   2.487   7.461  0.1169 -0.4310  0.2782
  406MOL0     C55923   2.481   2.598   7.494  1.1154  0.0354  1.2394
  406MOL0     C55924   2.458   2.681   7.602  0.2408  1.4041  0.5402
  406MOL0     C55925   2.353   2.653   7.687  0.1406 -0.4901  0.3277
  406MOL0     O55926   2.335   2.725   7.804 -0.8432 -0.9218 -0.1073
  406MOL0     C55927   2.297   2.865   7.784  0.4117  0.4036 -0.9276
  406MOL0     C55928   2.280   2.937   7.918  0.0431 -0.0760  1.2096
  406MOL0     C55929   2.172   2.889   8.012  0.2747  0.6051  0.1455
  406MOL0     C55930   2.029   2.895   7.960 -0.0242  0.0938 -0.3864
  406MOL0     C55931   1.910   2.957   8.032 -0.2606  0.5525  0.5547
  406MOL0     C55932   1.883   2.883   8.167  0.2659  0.0783 -0.0205
  406MOL0     C55933   1.748   2.922   8.219  0.2934 -0.0038 -0.8030
  406MOL0     C55934   1.733   3.070   8.254  0.3357  0.5331 -0.0035
  406MOL0    Cl55935   1.827   3.108   8.398  0.3818 -0.1210  0.2259
  406MOL0     C55936   2.270   2.550   7.655 -0.4473  0.0426 -0.7017
  406MOL0     C55937   2.303   2.465   7.546  0.4789  0.1955 -0.8912
  406MOL0     O55938   2.467   2.546   7.191  0.2596 -0.3444 -0.1933
  406MOL0     C55939   2.632   2.248   7.200 -0.0107 -0.5927  0.2625
  406MOL0     C55940   2.685   2.139   7.134  0.0944 -0.8889  0.7135
  406MOL0     N55941   2.196   1.668   6.959  0.1482 -0.1367  0.7046
  406MOL0     N55942   2.150   1.592   7.052 -0.5587  0.1704 -0.1895
  406MOL0     C55943   1.109   2.223   7.333 -0.4604 -0.1396  0.4601
  406MOL0     C55944   0.975   2.255   7.369 -0.7667  0.0131  0.6204
  406MOL0     C55945   0.621   2.167   7.620  0.4659 -0.1357 -0.1853
  406MOL0     C55946   0.547   2.261   7.552 -0.3844  0.1438 -0.2709
  406MOL0     C55947   0.429   2.320   7.602  0.9835  0.0672 -0.2301
  406MOL0     C55948   0.374   2.272   7.717  0.8590  0.2276 -0.7138
  406MOL0     O55949   0.245   2.300   7.768  0.0049  0.1195 -0.3021
  406MOL0     C55950   0.191   2.427   7.732 -0.9458 -0.5563 -0.6408
  406MOL0     C55951   0.086   2.412   7.620 -1.9776  0.4026 -0.3465
  406MOL0     C55952   0.014   2.542   7.586 -0.0825  0.7749  0.7574
  406MOL0     C55953   0.081   2.642   7.500 -0.3786  0.3482 -0.5835
  406MOL0     C55954   0.121   2.591   7.378  0.4628  0.9257  0.3596
  406MOL0     C55955   0.149   2.535   7.269  0.6243 -0.5937 -1.1041
  406MOL0     C55956   0.448   2.183   7.790 -1.0202 -0.3374  0.6281
  406MOL0     C55957   0.573   2.125   7.745  0.0956 -1.4043  0.2950
  406MOL0     C55958   0.627   2.026   7.835 -0.2205  0.2240 -0.4937
  406MOL0     H55959   0.867   1.925   7.376  0.3880 -0.5680  1.3343
  406MOL0     H55960   1.093   1.883   7.308  0.7915  0.0272  0.7587
  406MOL0     H55961   1.291   1.856   7.283 -2.8469  2.7081 -0.8392
  406MOL0     H55962   1.304   1.920   7.444 -1.4466  0.4344 -0.4630
  406MOL0     H55963   1.538   1.952   7.244  5.3704 -3.0638  0.8275
  406MOL0     H55964   1.547   2.000   7.407  2.9349 -1.3653 -1.1669
  406MOL0     H55965   1.519   1.749   7.479  3.4659 -2.3597  1.3246
  406MOL0     H55966   1.503   1.724   7.301 -0.4475  0.6318 -1.0281
  406MOL0     H55967   1.739   1.821   7.275  2.2009 -1.6310  0.2354
  406MOL0     H55968   1.727   1.877   7.437 -2.2788  1.7806  0.6089
  406MOL0     H55969   1.699   1.584   7.357  1.2357  0.0343 -0.8109
  406MOL0     H55970   1.715   1.654   7.531  0.6222  0.8314  0.4110
  406MOL0     H55971   1.928   1.733   7.487 -1.4246 -0.9051  1.8655
  406MOL0     H55972   1.934   1.550   7.485 -3.2919 -0.7323 -1.2320
  406MOL0     H55973   1.949   1.745   7.251 -2.5635 -0.5641 -0.9527
  406MOL0     H55974   1.922   1.579   7.215 -1.0583 -1.6374  1.3805
  406MOL0     H55975   2.150   1.649   7.384 -1.8389  1.8227 -0.6123
  406MOL0     H55976   2.120   1.496   7.284 -1.3097 -0.2854 -0.1197
  406MOL0     H55977   2.280   1.847   7.216  1.7258 -3.2766  2.1438
  406MOL0     H55978   2.338   1.982   6.986 -0.1898  1.8238 -2.3164
  406MOL0     H55979   2.273   1.902   6.837 -0.2448  1.8388  0.6571
  406MOL0     H55980   2.443   1.732   6.875  3.2584  0.1932 -4.2212
  406MOL0     H55981   2.513   1.895   6.830 -3.7508  1.4140  0.1790
  406MOL0     H55982   2.528   1.889   7.110 -1.0020  1.5664 -1.2658
  406MOL0     H55983   2.570   1.722   7.063  2.7961  0.5919  1.4884
  406MOL0     H55984   2.774   1.883   7.053  0.5930  2.3136  0.2484
  406MOL0     H55985   2.729   1.820   6.886 -3.0887  2.6816 -1.4504
  406MOL0     H55986   2.504   2.177   6.839 -2.8104  0.5801 -0.2596
  406MOL0     H55987   2.413   2.376   6.831  1.4298  1.3943 -0.2889
  406MOL0     H55988   2.424   2.505   6.951  1.7365 -0.3096  2.6583
  406MOL0     H55989   2.294   2.395   6.970  0.5535 -1.1963  0.8487
  406MOL0     H55990   2.574   2.597   7.438  0.2237 -2.3479 -0.3854
  406MOL0     H55991   2.531   2.749   7.645  0.8219  0.1118  1.6673
  406MOL0     H55992   2.362   2.911   7.708  0.6338 -2.0726 -2.3427
  406MOL0     H55993   2.195   2.869   7.745 -0.2211  0.3614  0.6352
  406MOL0     H55994   2.377   2.936   7.970 -0.2469 -2.8512  1.8690
  406MOL0     H55995   2.265   3.042   7.892 -1.1342 -0.3557  0.7395
  406MOL0     H55996   2.185   2.935   8.110 -0.7234 -2.1030  1.6494
  406MOL0     H55997   2.201   2.785   8.024  0.6880  0.6562 -0.3822
  406MOL0     H55998   2.005   2.793   7.930 -0.8189  0.4581 -1.0380
  406MOL0     H55999   2.031   2.956   7.870 -2.0013  2.9147  1.3048
  406MOL0     H56000   1.930   3.062   8.056  0.3048  0.9648 -1.5200
  406MOL0     H56001   1.827   2.939   7.963 -1.2347  0.5782  1.6691
  406MOL0     H56002   1.959   2.896   8.245  0.8297  0.0697 -0.5579
  406MOL0     H56003   1.885   2.778   8.137  0.8204  0.3976 -1.1842
  406MOL0     H56004   1.719   2.850   8.296 -0.5668 -1.6326 -2.5655
  406MOL0     H56005   1.669   2.908   8.145 -1.5277  0.5193  0.9401
  406MOL0     H56006   1.626   3.081   8.277  0.4365  2.7982 -0.3736
  406MOL0     H56007   1.755   3.135   8.169  1.2781  0.8171  0.4421
  406MOL0     H56008   2.182   2.530   7.717 -0.7894  1.5009 -0.6836
  406MOL0     H56009   2.240   2.378   7.537  0.7818  0.0252 -1.3488
  406MOL0     H56010   2.692   2.280   7.285  0.7992  1.4139 -0.9997
  406MOL0     H56011   2.767   2.085   7.180 -0.2135 -0.3720  1.8938
  406MOL0     H56012   1.181   2.305   7.328  1.8070 -2.0097  0.9974
  406MOL0     H56013   0.944   2.355   7.395 -1.6351  0.2538 -1.1429
  406MOL0     H56014   0.577   2.294   7.453 -0.4558 -0.9614 -0.6721
  406MOL0     H56015   0.370   2.381   7.535  0.6856  0.2083  0.1594
  406MOL0     H56016   0.138   2.466   7.820  0.6517 -3.2432  1.6639
  406MOL0     H56017   0.266   2.502   7.702 -0.5829 -0.1393  1.1853
  406MOL0     H56018   0.008   2.346   7.657 -1.2301 -1.3757 -1.8257
  406MOL0     H56019   0.125   2.371   7.527 -2.4906  2.2539 -1.4406
  406MOL0     H56020  -0.082   2.516   7.538  1.1430 -1.3661 -0.7078
  406MOL0     H56021  -0.007   2.581   7.686 -1.0885 -2.3226  1.8520
  406MOL0     H56022   0.173   2.675   7.549 -0.8641  2.6482 -1.1319
  406MOL0     H56023   0.014   2.729   7.502 -0.2603  0.4709 -1.6213
  406MOL0     H56024   0.163   2.488   7.174 -1.2513  0.3064 -1.8674
  406MOL0     H56025   0.408   2.143   7.883  2.8403 -2.0074  1.7651
  406MOL0     H56026   0.681   1.949   7.779 -0.3262  0.1531 -0.4966
  406MOL0     H56027   0.697   2.074   7.905  1.3843 -0.4339 -1.5858
  406MOL0     H56028   0.548   1.976   7.891 -1.8192 -0.5228 -3.2316
  407MOL0     O56029   5.665   7.727   1.830  0.5028 -0.2915  0.3005
  407MOL0     C56030   5.702   7.826   1.890 -0.4121  0.7413  0.2728
  407MOL0     O56031   5.705   7.948   1.832  0.3110 -0.0130 -0.5187
  407MOL0     C56032   5.629   7.963   1.714 -0.4874  0.1820  0.1496
  407MOL0     C56033   5.501   7.914   1.678 -0.2849  1.1064  0.6151
  407MOL0     C56034   5.438   7.942   1.556 -0.2255 -0.5537 -0.7371
  407MOL0     C56035   5.490   8.031   1.465 -0.4827 -0.1163  0.0514
  407MOL0     O56036   5.429   8.102   1.355 -0.3097 -0.7013 -0.1448
  407MOL0     C56037   5.307   8.050   1.310  0.2274  0.5033 -0.5866
  407MOL0     C56038   5.219   8.154   1.248  0.0918 -0.3946  0.5636
  407MOL0     C56039   5.284   8.220   1.120  0.3095  0.4206  0.6972
  407MOL0     C56040   5.338   8.110   1.018  0.0459 -0.6916  0.0437
  407MOL0     C56041   5.321   8.176   0.874  0.1617  0.2654 -0.1662
  407MOL0     C56042   5.448   8.258   0.827  0.1216  0.6408  0.3419
  407MOL0     C56043   5.431   8.316   0.684 -0.1293 -0.3323 -0.1420
  407MOL0     C56044   5.490   8.465   0.664 -0.6913  0.0150  0.1596
  407MOL0     N56045   5.393   8.554   0.725 -0.4510 -0.8886  0.5941
  407MOL0     C56046   5.398   8.611   0.838  0.3501 -1.0091  0.1401
  407MOL0     C56047   5.287   8.680   0.852 -0.0314  0.6975  0.6462
  407MOL0     C56048   5.257   8.760   0.977 -0.2140 -0.6971  0.8321
  407MOL0     C56049   5.265   8.677   1.102 -0.8299 -1.3650  1.3076
  407MOL0     C56050   5.267   8.774   1.231  0.3281 -0.1093 -0.1261
  407MOL0     C56051   5.146   8.869   1.232  1.0205  0.2058 -1.0730
  407MOL0     O56052   5.130   8.924   1.364  0.0814  0.7325  0.3132
  407MOL0     C56053   5.016   8.988   1.398  0.6636 -0.4004 -0.4678
  407MOL0     C56054   5.023   9.058   1.518  0.3041  0.7698 -0.6690
  407MOL0     C56055   4.911   9.122   1.572  0.6892 -0.4829 -0.8808
  407MOL0     C56056   4.932   9.197   1.707 -0.2092  0.7007  0.3363
  407MOL0     C56057   4.791   9.127   1.496 -0.2929 -0.0104  0.2336
  407MOL0     C56058   4.673   9.194   1.536  0.6263  0.5658 -0.2723
  407MOL0     O56059   4.605   9.243   1.430  0.1693  0.7573 -0.4592
  407MOL0     C56060   4.496   9.329   1.454 -1.3936 -0.6297  0.4979
  407MOL0     C56061   4.521   9.448   1.529 -0.3729 -0.4449  0.6089
  407MOL0     C56062   4.422   9.543   1.533  1.0558 -0.7231 -0.2329
  407MOL0     C56063   4.294   9.521   1.477 -1.3997  0.2810  0.6630
  407MOL0     O56064   4.189   9.615   1.473  0.2548 -0.6733 -0.6133
  407MOL0     C56065   4.175   9.723   1.566  0.2455 -0.4301  0.0936
  407MOL0     C56066   4.128   9.683   1.716 -1.2854  0.7332  0.2363
  407MOL0     C56067   3.989   9.615   1.713  0.3489  0.0078 -0.5493
  407MOL0     C56068   3.940   9.614   1.853 -0.5489  0.6082  0.5256
  407MOL0     C56069   3.866   9.490   1.918 -0.2653 -0.5452  0.3374
  407MOL0     C56070   3.901   9.357   1.857 -0.2407 -0.2584 -0.3903
  407MOL0     C56071   3.894   9.236   1.947  0.4551  1.1973  1.0193
  407MOL0     C56072   3.846   9.116   1.859  0.8272  0.6058 -0.1168
  407MOL0    Cl56073   3.681   9.132   1.794 -0.4542  0.0713 -0.1557
  407MOL0     C56074   4.274   9.394   1.416 -0.0009  0.2380 -1.1038
  407MOL0     C56075   4.373   9.301   1.397  0.4605 -0.0686 -0.3251
  407MOL0     O56076   4.632   9.196   1.654 -0.9014  0.2303 -0.8589
  407MOL0     C56077   4.799   9.068   1.366  0.9328  0.4705  0.9359
  407MOL0     C56078   4.902   8.989   1.319  1.0441  0.6487  0.2844
  407MOL0     N56079   5.215   8.666   0.744 -0.8214 -0.2927  1.0466
  407MOL0     N56080   5.273   8.590   0.666  0.0552  0.4273  1.4845
  407MOL0     C56081   5.614   8.086   1.505 -0.3145 -1.4112  0.1692
  407MOL0     C56082   5.683   8.052   1.624 -0.7977 -0.8616  0.0278
  407MOL0     C56083   5.756   7.804   2.025  0.6503  0.8217 -0.3607
  407MOL0     C56084   5.844   7.901   2.079 -0.2129  0.4825  0.8961
  407MOL0     C56085   5.902   7.894   2.205 -0.2220 -0.0850  0.9077
  407MOL0     C56086   5.865   7.788   2.293  0.8400  0.0354 -0.4004
  407MOL0     O56087   5.933   7.779   2.410  0.5073  0.0981 -0.7016
  407MOL0     C56088   5.887   7.688   2.512  0.3286  0.0853  0.0052
  407MOL0     C56089   5.958   7.725   2.634  0.1176  0.0263  0.4185
  407MOL0     C56090   6.111   7.714   2.623  0.3845 -0.7615  0.4442
  407MOL0     C56091   6.188   7.732   2.753  0.5608 -0.4029 -0.0578
  407MOL0     C56092   6.304   7.642   2.767 -0.6890  0.1138  0.1624
  407MOL0     C56093   6.405   7.574   2.774 -0.2223 -0.3284  1.3207
  407MOL0     C56094   5.788   7.684   2.238 -1.3075 -0.4540 -0.8180
  407MOL0     C56095   5.734   7.688   2.119  0.5595 -0.9337  0.2007
  407MOL0     C56096   5.641   7.576   2.084 -0.8503 -1.1116  0.8398
  407MOL0     H56097   5.456   7.839   1.742 -0.7042  1.0434  0.2508
  407MOL0     H56098   5.342   7.896   1.534 -0.4670  0.7509 -2.6534
  407MOL0     H56099   5.252   7.995   1.387  0.5159 -1.4378 -1.6940
  407MOL0     H56100   5.328   7.971   1.238  0.6091 -1.8649  1.9707
  407MOL0     H56101   5.121   8.111   1.225  0.4830 -0.9648 -0.0852
  407MOL0     H56102   5.202   8.235   1.320  0.9009  0.5338 -0.2591
  407MOL0     H56103   5.209   8.282   1.070 -1.4048 -2.3497 -0.3806
  407MOL0     H56104   5.372   8.276   1.155  0.9217 -0.4837  0.6282
  407MOL0     H56105   5.438   8.079   1.050  0.8913 -0.5748 -2.2421
  407MOL0     H56106   5.267   8.027   1.010  0.2548 -0.7419 -1.7285
  407MOL0     H56107   5.232   8.239   0.863 -0.7249 -0.8488  0.4407
  407MOL0     H56108   5.303   8.101   0.797  1.8923  1.2460 -1.5938
  407MOL0     H56109   5.472   8.325   0.910  0.5824 -0.0849  0.8087
  407MOL0     H56110   5.541   8.201   0.820  0.1333  0.6536  0.4032
  407MOL0     H56111   5.322   8.316   0.671 -0.6794  1.0997  3.2675
  407MOL0     H56112   5.475   8.247   0.612 -0.3726  0.3132 -0.9213
  407MOL0     H56113   5.587   8.475   0.712 -0.9127 -2.0450  1.1527
  407MOL0     H56114   5.502   8.478   0.556 -1.0106  0.0146  0.1226
  407MOL0     H56115   5.479   8.620   0.910  0.3063 -1.5698  0.2646
  407MOL0     H56116   5.160   8.808   0.964  0.3912  0.2210 -0.4879
  407MOL0     H56117   5.334   8.836   0.988 -2.4879  1.6439  1.4850
  407MOL0     H56118   5.168   8.625   1.103 -1.0107 -1.1784 -0.8155
  407MOL0     H56119   5.343   8.600   1.097 -2.7325 -3.3330 -2.0625
  407MOL0     H56120   5.255   8.703   1.314 -2.0520  0.6850  0.2706
  407MOL0     H56121   5.359   8.833   1.237  0.7414 -0.8349  1.0423
  407MOL0     H56122   5.166   8.947   1.159 -1.9481 -0.1875 -2.4688
  407MOL0     H56123   5.056   8.811   1.207 -2.6654  4.6981  0.3327
  407MOL0     H56124   5.117   9.063   1.572  2.4191  0.7677 -4.0642
  407MOL0     H56125   4.892   9.138   1.789 -0.3209 -0.5988 -0.6116
  407MOL0     H56126   4.900   9.301   1.704  0.9134  1.0715  0.7929
  407MOL0     H56127   5.037   9.201   1.737  0.0771 -2.4627  0.1131
  407MOL0     H56128   4.620   9.466   1.569  0.2264 -0.5046 -0.7915
  407MOL0     H56129   4.454   9.638   1.574 -0.6034 -0.5569  0.7611
  407MOL0     H56130   4.269   9.777   1.573 -0.4004  0.8429 -0.6803
  407MOL0     H56131   4.109   9.798   1.521  1.5895  0.4928 -0.3999
  407MOL0     H56132   4.204   9.626   1.770 -2.2562  3.1479  4.6694
  407MOL0     H56133   4.120   9.786   1.752  4.8138  2.2244 -1.5691
  407MOL0     H56134   4.002   9.511   1.680 -0.0073 -0.1462 -0.2128
  407MOL0     H56135   3.919   9.667   1.648 -0.7353  0.3503  0.8442
  407MOL0     H56136   3.875   9.701   1.863 -2.3371 -0.0796 -3.4414
  407MOL0     H56137   4.032   9.622   1.913  1.8996  1.7521 -3.0755
  407MOL0     H56138   3.897   9.487   2.023 -0.3349 -3.0089  0.3505
  407MOL0     H56139   3.757   9.488   1.920 -0.2661 -2.4913  3.1052
  407MOL0     H56140   4.002   9.352   1.815 -1.8453 -0.1603 -4.8008
  407MOL0     H56141   3.840   9.351   1.766  1.2597  1.8552 -1.6437
  407MOL0     H56142   3.816   9.243   2.023 -3.5558  1.3001 -2.7386
  407MOL0     H56143   3.991   9.217   1.994  1.7202 -1.3770 -2.1807
  407MOL0     H56144   3.847   9.024   1.917  0.4777  0.6925  0.0305
  407MOL0     H56145   3.911   9.099   1.773 -1.4773 -1.7096 -1.5435
  407MOL0     H56146   4.172   9.375   1.381 -0.0962 -2.7025  0.4441
  407MOL0     H56147   4.353   9.206   1.349 -1.0937 -0.9756  1.9153
  407MOL0     H56148   4.707   9.057   1.309  2.1811  1.1836 -1.3126
  407MOL0     H56149   4.882   8.935   1.227  0.5658  3.0061 -1.0610
  407MOL0     H56150   5.651   8.162   1.437  1.8430 -1.3555  1.3290
  407MOL0     H56151   5.775   8.110   1.628 -1.2641  0.5659 -4.4693
  407MOL0     H56152   5.867   7.984   2.013  0.9088 -1.1558 -0.8902
  407MOL0     H56153   5.974   7.966   2.243  0.9043 -1.2112  0.9833
  407MOL0     H56154   5.780   7.699   2.534  0.5510  0.1098  1.1381
  407MOL0     H56155   5.906   7.581   2.498 -0.8337  0.0171 -1.2520
  407MOL0     H56156   5.921   7.658   2.713  0.4387  0.2485  0.7595
  407MOL0     H56157   5.919   7.818   2.675  0.3997 -0.5708  2.1337
  407MOL0     H56158   6.128   7.612   2.586 -0.1069 -0.6701 -0.0410
  407MOL0     H56159   6.156   7.780   2.548 -1.4975 -2.4591 -2.3319
  407MOL0     H56160   6.112   7.707   2.827  1.0502 -2.7975 -0.2613
  407MOL0     H56161   6.215   7.836   2.772 -3.4890  0.8613 -0.2064
  407MOL0     H56162   6.490   7.509   2.780 -1.5095 -2.1024  0.8353
  407MOL0     H56163   5.788   7.594   2.297  0.5665  2.1717  3.7228
  407MOL0     H56164   5.554   7.612   2.027 -0.9286 -3.3939 -0.6039
  407MOL0     H56165   5.706   7.518   2.018 -2.4872 -0.3777 -1.5771
  407MOL0     H56166   5.617   7.523   2.177 -1.9730  0.6044  1.5849
  408MOL0     O56167   2.134   7.474   7.315 -0.1128  0.1539 -0.6644
  408MOL0     C56168   2.183   7.581   7.287 -0.9848  0.5861 -0.3721
  408MOL0     O56169   2.121   7.691   7.254 -0.7854  0.8007  0.3103
  408MOL0     C56170   1.988   7.682   7.225 -0.3909 -0.6041 -0.2082
  408MOL0     C56171   1.906   7.754   7.300  0.1928 -1.0810  0.2512
  408MOL0     C56172   1.767   7.760   7.274 -0.0357  0.0630  0.6026
  408MOL0     C56173   1.722   7.696   7.154 -0.6028 -0.6522 -0.8722
  408MOL0     O56174   1.597   7.713   7.105  0.3498 -0.3029  0.5903
  408MOL0     C56175   1.487   7.707   7.194 -0.6032 -0.0904  1.6823
  408MOL0     C56176   1.443   7.554   7.207  0.7800  1.3088 -0.5919
  408MOL0     C56177   1.282   7.547   7.232  0.0179  0.6994 -0.1049
  408MOL0     C56178   1.231   7.404   7.250 -0.4343 -0.2621  0.8791
  408MOL0     C56179   1.101   7.367   7.174 -0.3030 -0.0219 -1.2830
  408MOL0     C56180   1.070   7.218   7.207 -0.3921 -0.1284 -0.8159
  408MOL0     C56181   0.965   7.181   7.118  0.6574 -0.7370 -0.1778
  408MOL0     C56182   0.922   7.028   7.139 -0.4906 -0.7369 -0.0963
  408MOL0     N56183   0.912   6.944   7.014  0.0188  0.5147 -0.0246
  408MOL0     C56184   1.022   6.896   6.953 -0.3309 -0.7610 -0.4296
  408MOL0     C56185   0.975   6.790   6.872  0.1484 -0.6435 -0.6804
  408MOL0     C56186   1.045   6.659   6.836  0.6433  0.3870  0.2006
  408MOL0     C56187   1.184   6.686   6.783 -0.4154  0.8146  0.9789
  408MOL0     C56188   1.257   6.554   6.785  0.2106  0.1076  0.3257
  408MOL0     C56189   1.390   6.544   6.717  0.8036 -1.0869  0.1103
  408MOL0     O56190   1.409   6.626   6.598 -0.5617 -0.3424  0.3611
  408MOL0     C56191   1.452   6.753   6.588 -0.9367  0.0032  0.0310
  408MOL0     C56192   1.484   6.814   6.462  1.3242 -0.7396  0.3299
  408MOL0     C56193   1.512   6.958   6.446  0.2581 -0.1413 -0.4416
  408MOL0     C56194   1.509   7.026   6.309 -0.2284  0.0692  0.8045
  408MOL0     C56195   1.554   7.030   6.566 -1.3783 -0.5161  0.8308
  408MOL0     C56196   1.624   7.157   6.559  0.1719 -0.0858 -0.1744
  408MOL0     O56197   1.567   7.266   6.630 -0.0591 -0.7042  0.7765
  408MOL0     C56198   1.615   7.395   6.613 -1.2703  1.5938  1.2731
  408MOL0     C56199   1.684   7.449   6.499  0.0084 -0.1727  0.2500
  408MOL0     C56200   1.728   7.579   6.489 -0.2028 -0.2085  0.3490
  408MOL0     C56201   1.696   7.664   6.596 -0.6117 -0.2744 -1.1296
  408MOL0     O56202   1.735   7.794   6.593  0.2449 -0.1318 -0.3286
  408MOL0     C56203   1.679   7.887   6.503  0.0509  0.1371  0.8563
  408MOL0     C56204   1.532   7.874   6.473 -0.1229  1.3752  0.7316
  408MOL0     C56205   1.467   7.768   6.401 -0.2502 -0.1249  0.6561
  408MOL0     C56206   1.522   7.753   6.263 -0.8837 -1.0375  0.0524
  408MOL0     C56207   1.507   7.872   6.163 -0.5080  0.9033 -0.2201
  408MOL0     C56208   1.357   7.886   6.116 -0.1683  0.0284  0.2109
  408MOL0     C56209   1.354   8.007   6.026 -0.1658  0.4564 -0.9356
  408MOL0     C56210   1.213   8.053   6.021 -0.1518  0.3093  0.3409
  408MOL0    Cl56211   1.214   8.196   5.909 -0.0068  0.1663 -0.4846
  408MOL0     C56212   1.613   7.622   6.706 -0.4377 -0.1460  0.8923
  408MOL0     C56213   1.573   7.485   6.716 -0.9198  0.2847  0.7790
  408MOL0     O56214   1.739   7.156   6.507 -0.1438  0.7539 -0.3806
  408MOL0     C56215   1.543   6.964   6.686  0.0082 -0.0332 -0.8879
  408MOL0     C56216   1.483   6.827   6.701 -0.8787  0.2590  0.6179
  408MOL0     N56217   0.839   6.802   6.855 -0.3176  0.1585  0.3506
  408MOL0     N56218   0.805   6.881   6.952  0.0390  0.6753 -0.7502
  408MOL0     C56219   1.813   7.621   7.077  0.0430  0.7950 -0.3692
  408MOL0     C56220   1.951   7.616   7.115  0.0894 -0.7533 -0.9312
  408MOL0     C56221   2.338   7.608   7.285  0.2138  0.0253  0.0701
  408MOL0     C56222   2.427   7.510   7.344 -0.4107  0.2879 -0.0292
  408MOL0     C56223   2.565   7.536   7.350 -0.3146  0.3582 -0.2570
  408MOL0     C56224   2.625   7.657   7.307 -0.0670  0.5584  0.0413
  408MOL0     O56225   2.758   7.687   7.342  0.1488 -0.2388 -0.2553
  408MOL0     C56226   2.804   7.815   7.330 -0.0307 -0.0371 -0.4247
  408MOL0     C56227   2.941   7.811   7.401  0.4961  0.4133 -0.3391
  408MOL0     C56228   3.044   7.715   7.353 -0.1949  0.3188 -0.3898
  408MOL0     C56229   3.152   7.721   7.454 -0.3302 -0.3241  0.5354
  408MOL0     C56230   3.247   7.605   7.422 -0.5355 -0.6699  0.8604
  408MOL0     C56231   3.343   7.528   7.394  1.0277 -0.3177  0.2409
  408MOL0     C56232   2.537   7.748   7.245 -0.2633 -1.3295 -0.4741
  408MOL0     C56233   2.401   7.727   7.233 -0.1690 -0.0572 -0.6969
  408MOL0     C56234   2.340   7.830   7.133  0.3355 -0.3418  0.3042
  408MOL0     H56235   1.946   7.813   7.382 -2.5882  1.9086 -0.3278
  408MOL0     H56236   1.705   7.830   7.329  0.2477  0.8094 -0.0302
  408MOL0     H56237   1.405   7.756   7.140 -0.2045 -1.0554  0.1398
  408MOL0     H56238   1.510   7.753   7.291 -4.7248  3.9986  1.0530
  408MOL0     H56239   1.472   7.504   7.114 -1.7834  1.2095 -1.4261
  408MOL0     H56240   1.480   7.493   7.290 -3.0361 -1.5416 -0.7277
  408MOL0     H56241   1.249   7.609   7.316 -2.2949  2.3996 -2.1025
  408MOL0     H56242   1.226   7.585   7.146 -1.7090  0.8218  1.0178
  408MOL0     H56243   1.312   7.335   7.225  0.6932  1.3844 -0.2134
  408MOL0     H56244   1.218   7.392   7.358  1.0061 -2.5382  0.8489
  408MOL0     H56245   1.112   7.376   7.066 -2.6153 -1.8341 -1.7405
  408MOL0     H56246   1.016   7.434   7.188 -2.3140 -2.4853 -1.1018
  408MOL0     H56247   1.156   7.150   7.199  0.5111  0.9960 -1.0020
  408MOL0     H56248   1.035   7.215   7.311 -2.3453  0.3716 -1.4232
  408MOL0     H56249   0.996   7.191   7.014  1.4916 -0.7742  0.0583
  408MOL0     H56250   0.880   7.248   7.136  0.1655 -0.7671 -2.2183
  408MOL0     H56251   0.973   6.977   7.220 -2.1665 -1.0351  0.8266
  408MOL0     H56252   0.816   7.038   7.167 -0.3792  0.8354 -0.1675
  408MOL0     H56253   1.122   6.918   6.989 -1.2759  2.8883  0.3918
  408MOL0     H56254   0.981   6.603   6.767 -0.2004  0.4915  0.8876
  408MOL0     H56255   1.033   6.614   6.935 -1.2556  1.7744  0.6291
  408MOL0     H56256   1.173   6.714   6.678  0.8732 -4.5722 -0.9421
  408MOL0     H56257   1.230   6.751   6.858 -1.5849 -0.9107  3.3393
  408MOL0     H56258   1.266   6.519   6.888  1.5744 -0.7654 -0.0632
  408MOL0     H56259   1.190   6.486   6.730 -1.2042 -1.1315  3.3255
  408MOL0     H56260   1.466   6.556   6.796  0.4766 -0.9350  0.4063
  408MOL0     H56261   1.391   6.442   6.679  0.0324 -1.1987  0.3792
  408MOL0     H56262   1.464   6.759   6.371  2.4781  2.5280 -2.0782
  408MOL0     H56263   1.525   6.945   6.238  4.2106  3.0638 -2.1601
  408MOL0     H56264   1.582   7.103   6.282 -2.0895  1.4445 -0.6189
  408MOL0     H56265   1.408   7.067   6.298  0.0195  0.4219 -0.3320
  408MOL0     H56266   1.689   7.388   6.410 -2.8077  3.0305 -2.3839
  408MOL0     H56267   1.771   7.624   6.400  2.4184  2.7539  2.8733
  408MOL0     H56268   1.703   7.984   6.546 -0.4924  0.9661 -0.6344
  408MOL0     H56269   1.739   7.893   6.412  0.8478 -1.9020  1.1837
  408MOL0     H56270   1.487   7.857   6.571 -2.8394 -1.6186 -0.8307
  408MOL0     H56271   1.489   7.969   6.441 -4.3634 -0.3300  0.6697
  408MOL0     H56272   1.359   7.776   6.386  0.1215 -0.2599 -2.9695
  408MOL0     H56273   1.472   7.675   6.460 -1.5117  1.0584  2.7302
  408MOL0     H56274   1.477   7.663   6.218 -0.3064 -0.6677 -1.3228
  408MOL0     H56275   1.630   7.737   6.271 -0.7279 -1.4230 -2.0984
  408MOL0     H56276   1.538   7.960   6.221 -3.8548 -0.1454  3.6923
  408MOL0     H56277   1.572   7.855   6.078 -0.6267 -1.8740  0.1417
  408MOL0     H56278   1.297   7.893   6.207 -1.9049 -1.1788 -0.7929
  408MOL0     H56279   1.331   7.793   6.065  0.5899  0.2291 -0.5529
  408MOL0     H56280   1.397   7.987   5.928  1.4684  2.5403 -0.7150
  408MOL0     H56281   1.404   8.094   6.070 -1.3224  0.3749  0.6128
  408MOL0     H56282   1.183   8.086   6.121 -0.3133 -0.8635  0.6879
  408MOL0     H56283   1.148   7.968   5.997  1.9318 -2.1787  2.9624
  408MOL0     H56284   1.592   7.701   6.777 -3.0253  2.7501 -2.6748
  408MOL0     H56285   1.511   7.442   6.795  2.6030 -0.0735  3.6125
  408MOL0     H56286   1.577   7.016   6.775 -1.5418 -1.2449  0.4622
  408MOL0     H56287   1.463   6.774   6.793  3.6565 -1.7617  0.6632
  408MOL0     H56288   1.777   7.592   6.979  0.8475  0.7662 -0.6585
  408MOL0     H56289   2.015   7.562   7.046  1.0422 -0.1669 -0.5143
  408MOL0     H56290   2.389   7.427   7.403 -1.2056  1.2170  0.7856
  408MOL0     H56291   2.620   7.475   7.421  2.6833  3.8444  0.7141
  408MOL0     H56292   2.815   7.846   7.226 -4.4461 -1.0493 -1.4055
  408MOL0     H56293   2.724   7.875   7.374  0.3468  1.4734 -1.7256
  408MOL0     H56294   2.936   7.776   7.505  2.9778 -3.9054 -1.4216
  408MOL0     H56295   2.984   7.911   7.396 -0.0784  0.5917 -2.6752
  408MOL0     H56296   2.999   7.617   7.334 -0.7127  0.7561 -1.5156
  408MOL0     H56297   3.088   7.770   7.269  0.3725  1.0330  0.3678
  408MOL0     H56298   3.113   7.709   7.555 -0.6668  2.2217  0.7776
  408MOL0     H56299   3.203   7.818   7.460 -2.9583  1.2786 -1.2076
  408MOL0     H56300   3.425   7.461   7.381  0.0929 -1.4315 -0.1780
  408MOL0     H56301   2.583   7.834   7.198  2.9827 -2.5237  0.2505
  408MOL0     H56302   2.240   7.860   7.164  1.0591  1.5039  0.9696
  408MOL0     H56303   2.390   7.927   7.131 -2.9235  1.5063  1.4578
  408MOL0     H56304   2.339   7.794   7.030  2.2765 -0.3637  0.2393
  409MOL0     O56305   6.673  11.404   4.071 -0.0772  0.3509  0.1319
  409MOL0     C56306   6.755  11.324   4.111 -0.1564 -0.4423  1.1018
  409MOL0     O56307   6.878  11.364   4.160 -0.3152  0.5083  0.2680
  409MOL0     C56308   6.910  11.497   4.190 -0.9050 -0.0328 -1.1775
  409MOL0     C56309   7.009  11.566   4.117  0.1996  0.8004  0.2707
  409MOL0     C56310   7.041  11.695   4.152 -0.1803 -0.9149 -0.7884
  409MOL0     C56311   6.978  11.770   4.247 -0.8809 -0.1081  0.2849
  409MOL0     O56312   7.022  11.902   4.257  0.3733  0.3458  0.6279
  409MOL0     C56313   6.910  11.985   4.289 -0.7729 -0.5139 -0.5091
  409MOL0     C56314   6.941  12.136   4.291  0.4857 -0.5387 -0.0738
  409MOL0     C56315   6.964  12.198   4.149 -0.9771 -0.3693 -0.2038
  409MOL0     C56316   6.974  12.347   4.168  0.9199  0.0889 -0.2882
  409MOL0     C56317   6.944  12.435   4.048  0.3510 -0.3858 -1.3397
  409MOL0     C56318   6.888  12.576   4.081  0.3330  0.0944  0.3180
  409MOL0     C56319   6.814  12.632   3.957 -0.3475 -0.9211  0.9864
  409MOL0     C56320   6.748  12.766   3.988 -0.3818 -0.3387  0.7718
  409MOL0     N56321   6.701  12.832   3.874  0.2755  0.0335  0.1914
  409MOL0     C56322   6.781  12.888   3.778 -0.0820  0.5220  0.0978
  409MOL0     C56323   6.705  12.915   3.674 -0.4428  0.0955  0.1578
  409MOL0     C56324   6.769  12.962   3.542 -0.1669 -0.7150  0.2642
  409MOL0     C56325   6.711  12.905   3.417 -0.6147  0.0425 -0.4923
  409MOL0     C56326   6.752  13.001   3.300  0.4673  0.0988  0.6574
  409MOL0     C56327   6.696  12.929   3.176 -1.3113  0.8059 -0.1165
  409MOL0     O56328   6.554  12.930   3.155 -0.0779  0.1809  0.8256
  409MOL0     C56329   6.505  12.893   3.035  0.7121 -0.0800  0.1976
  409MOL0     C56330   6.560  12.801   2.939 -0.3959 -0.3198 -0.0455
  409MOL0     C56331   6.498  12.774   2.813  0.8759 -0.4149  0.7871
  409MOL0     C56332   6.561  12.669   2.733 -1.3639 -0.9733  1.2964
  409MOL0     C56333   6.374  12.833   2.775 -0.5143 -0.1309  0.1257
  409MOL0     C56334   6.296  12.817   2.646 -0.2411 -0.4784  0.2201
  409MOL0     O56335   6.240  12.931   2.609  0.2413 -1.1820  0.4073
  409MOL0     C56336   6.163  12.924   2.493  0.6797 -0.8063 -0.9098
  409MOL0     C56337   6.058  12.842   2.484  0.1427 -0.1482 -0.2289
  409MOL0     C56338   5.997  12.835   2.355 -0.0901 -0.2482 -0.3018
  409MOL0     C56339   6.017  12.922   2.247 -0.1274  0.2282  0.4129
  409MOL0     O56340   5.944  12.914   2.126  0.2518 -0.2517  0.4627
  409MOL0     C56341   6.013  12.946   2.013 -0.8771 -0.4555 -0.7403
  409MOL0     C56342   5.965  12.844   1.904 -1.2428  0.4968 -0.7850
  409MOL0     C56343   5.883  12.910   1.796 -0.3467 -0.7727 -0.6505
  409MOL0     C56344   5.766  12.823   1.773  0.3571  0.3839  0.2201
  409MOL0     C56345   5.671  12.879   1.661 -0.4308  0.7416  0.6681
  409MOL0     C56346   5.733  12.875   1.521  1.2217  0.7125 -0.0293
  409MOL0     C56347   5.751  12.735   1.466 -0.9577 -0.2793 -0.5554
  409MOL0     C56348   5.792  12.748   1.319  0.8093  1.0177  0.2854
  409MOL0    Cl56349   5.956  12.810   1.310  0.0109  0.4131 -0.2494
  409MOL0     C56350   6.112  13.028   2.275 -1.4091  0.6275  0.5203
  409MOL0     C56351   6.191  13.022   2.397  0.4875  1.1198  0.0052
  409MOL0     O56352   6.310  12.717   2.581 -0.1066  0.0598  1.2090
  409MOL0     C56353   6.321  12.931   2.871  0.1367  0.9720  0.5660
  409MOL0     C56354   6.382  12.955   2.995  0.2808 -0.1997  0.4053
  409MOL0     N56355   6.574  12.878   3.698 -0.2643  0.8125  0.1055
  409MOL0     N56356   6.577  12.817   3.821 -0.0413 -0.1483  0.4030
  409MOL0     C56357   6.881  11.710   4.320 -0.1470  0.2352  0.5304
  409MOL0     C56358   6.857  11.577   4.299 -0.3128  0.6371  0.0755
  409MOL0     C56359   6.735  11.177   4.109  0.6413  0.6270 -0.1353
  409MOL0     C56360   6.860  11.102   4.130  0.6579  0.9069 -0.8244
  409MOL0     C56361   6.848  10.965   4.154  1.0220  0.8030  0.0774
  409MOL0     C56362   6.726  10.900   4.134 -0.0864 -0.3842 -0.3147
  409MOL0     O56363   6.710  10.763   4.129  0.3112 -0.3678  0.0759
  409MOL0     C56364   6.799  10.677   4.211  1.2444  0.7298 -1.0345
  409MOL0     C56365   6.800  10.547   4.135  0.4486  1.1105  0.5946
  409MOL0     C56366   6.679  10.457   4.172  1.0522 -0.0304  0.5183
  409MOL0     C56367   6.667  10.323   4.107 -0.1984 -0.7672 -0.3885
  409MOL0     C56368   6.614  10.350   3.970 -0.0692  0.0666 -0.0751
  409MOL0     C56369   6.578  10.365   3.855  0.3479 -1.1146 -0.3903
  409MOL0     C56370   6.613  10.969   4.089 -1.1451  0.2349 -0.1837
  409MOL0     C56371   6.613  11.107   4.079 -0.0212 -1.1897 -1.0905
  409MOL0     C56372   6.481  11.182   4.073  1.2515  0.7719  0.3175
  409MOL0     H56373   7.055  11.535   4.023  1.8840  1.5233  0.8258
  409MOL0     H56374   7.109  11.734   4.077  1.0909 -0.9644  0.3013
  409MOL0     H56375   6.874  11.964   4.390  1.0280  2.9203  1.0049
  409MOL0     H56376   6.831  11.968   4.216 -2.2512 -0.1643  0.9455
  409MOL0     H56377   6.879  12.199   4.356  1.4265 -0.0216  0.3414
  409MOL0     H56378   7.039  12.150   4.338  0.8106 -3.1631  0.1915
  409MOL0     H56379   7.060  12.161   4.112 -0.9408  0.0084 -0.5019
  409MOL0     H56380   6.884  12.177   4.078  0.9594  0.8088 -2.8849
  409MOL0     H56381   6.902  12.379   4.243  2.9678  1.4185  1.2065
  409MOL0     H56382   7.073  12.373   4.207  1.2295  0.3311 -1.2150
  409MOL0     H56383   6.875  12.376   3.986 -0.2794  1.4389 -2.4563
  409MOL0     H56384   7.043  12.437   4.002 -0.4498  0.0028 -3.1379
  409MOL0     H56385   6.818  12.566   4.164 -0.4321  1.2934 -0.1610
  409MOL0     H56386   6.961  12.656   4.098 -0.1655  0.7017 -0.3677
  409MOL0     H56387   6.740  12.560   3.919  1.5664 -2.2319 -0.4598
  409MOL0     H56388   6.893  12.645   3.883 -0.7728  0.3279  0.7289
  409MOL0     H56389   6.673  12.759   4.067 -1.6351  6.4720  0.7477
  409MOL0     H56390   6.827  12.829   4.030  2.2408 -1.6553 -1.8215
  409MOL0     H56391   6.888  12.895   3.759 -0.5453  1.1354 -2.8954
  409MOL0     H56392   6.873  12.927   3.548 -0.2257 -1.0057 -0.3119
  409MOL0     H56393   6.779  13.070   3.534 -0.1095 -0.7140  0.3540
  409MOL0     H56394   6.748  12.804   3.401 -1.3528 -0.3672  0.2765
  409MOL0     H56395   6.602  12.900   3.430 -0.6518 -2.0282 -1.2850
  409MOL0     H56396   6.725  13.106   3.317  2.7328  0.3473  3.4977
  409MOL0     H56397   6.858  13.001   3.274 -0.1172 -2.5187 -2.3323
  409MOL0     H56398   6.755  12.970   3.093 -0.4477  2.1484  1.1109
  409MOL0     H56399   6.733  12.827   3.185  1.3921  1.3914 -2.8969
  409MOL0     H56400   6.645  12.750   2.984  0.9827  0.3431 -1.7443
  409MOL0     H56401   6.665  12.648   2.759 -1.0239 -3.3347 -1.5007
  409MOL0     H56402   6.563  12.706   2.630  2.8729 -2.5682  0.6262
  409MOL0     H56403   6.518  12.568   2.735  4.3938 -3.9461 -1.5661
  409MOL0     H56404   6.020  12.785   2.568 -2.2851  3.3498  1.2364
  409MOL0     H56405   5.916  12.770   2.325  1.8807 -1.9950 -2.2089
  409MOL0     H56406   5.982  13.046   1.981  3.4389  1.6707  0.9527
  409MOL0     H56407   6.121  12.931   2.014 -0.3125  2.9025  0.2497
  409MOL0     H56408   6.054  12.798   1.859 -0.6902  0.8519 -0.0855
  409MOL0     H56409   5.906  12.771   1.961  2.8076  0.4955  4.0996
  409MOL0     H56410   5.939  12.916   1.702  0.4203  1.2487 -0.1216
  409MOL0     H56411   5.843  13.010   1.820  3.1634  1.0995 -1.8700
  409MOL0     H56412   5.714  12.811   1.868  2.5228 -2.1946  1.2136
  409MOL0     H56413   5.805  12.724   1.746 -1.3676 -0.1417 -0.4559
  409MOL0     H56414   5.577  12.823   1.659 -0.8757  1.4733  0.7642
  409MOL0     H56415   5.647  12.985   1.670  1.6247  1.7164 -3.3140
  409MOL0     H56416   5.825  12.933   1.514  1.4465  0.5322  1.2078
  409MOL0     H56417   5.651  12.917   1.462  0.7917  0.6358  0.5010
  409MOL0     H56418   5.652  12.688   1.466 -0.8145 -0.6324 -1.9422
  409MOL0     H56419   5.816  12.669   1.524 -0.3263  0.3728 -0.5016
  409MOL0     H56420   5.726  12.804   1.252  0.1155  0.0457  0.1331
  409MOL0     H56421   5.774  12.653   1.266  1.7792  1.3606 -0.7150
  409MOL0     H56422   6.134  13.105   2.201  2.8898 -1.5445 -0.7610
  409MOL0     H56423   6.259  13.104   2.415  5.5493 -2.8536  1.6737
  409MOL0     H56424   6.224  12.971   2.843 -0.1441  1.6240  2.3307
  409MOL0     H56425   6.341  13.031   3.061  0.7675  0.1242  0.3456
  409MOL0     H56426   6.825  11.761   4.398 -0.8228 -0.8638  0.7795
  409MOL0     H56427   6.783  11.540   4.370  1.5712  0.7101  2.2016
  409MOL0     H56428   6.961  11.141   4.141  1.0870 -0.7497  2.6511
  409MOL0     H56429   6.937  10.902   4.157  0.7868  0.4743  0.1426
  409MOL0     H56430   6.901  10.711   4.230  1.0456  2.3036 -2.5211
  409MOL0     H56431   6.754  10.659   4.310 -1.0664 -2.1653 -2.4479
  409MOL0     H56432   6.892  10.497   4.167  0.5259 -0.4835 -1.8478
  409MOL0     H56433   6.809  10.565   4.028 -1.3099  0.1852  0.2352
  409MOL0     H56434   6.660  10.430   4.277  1.0064 -1.0655  0.2519
  409MOL0     H56435   6.590  10.512   4.143 -0.1074 -1.3281  1.4433
  409MOL0     H56436   6.617  10.240   4.158  1.0333 -1.8255 -0.8388
  409MOL0     H56437   6.771  10.289   4.099  0.6164  1.7384 -1.5208
  409MOL0     H56438   6.531  10.365   3.758  0.0929 -5.6743 -0.4867
  409MOL0     H56439   6.526  10.911   4.058  2.1557 -5.3871 -0.2983
  409MOL0     H56440   6.444  11.155   3.973  1.3000 -0.2798  0.5682
  409MOL0     H56441   6.413  11.131   4.142 -0.1096 -2.1259 -2.8670
  409MOL0     H56442   6.469  11.289   4.089 -3.4776  0.4832  0.0841
  410MOL0     O56443   9.975   2.799   0.458 -0.4592  0.3857  0.0209
  410MOL0     C56444  10.001   2.913   0.486 -0.8489 -0.6464 -0.2053
  410MOL0     O56445  10.106   2.952   0.575  0.4563  0.5380  0.6277
  410MOL0     C56446  10.161   2.843   0.638  0.0054 -1.0868 -0.0261
  410MOL0     C56447  10.091   2.749   0.716 -0.3329  0.1176 -0.8374
  410MOL0     C56448  10.163   2.644   0.770 -1.3288  0.8172 -0.1378
  410MOL0     C56449  10.299   2.620   0.741 -0.2106 -0.2096 -1.1825
  410MOL0     O56450  10.364   2.514   0.789 -1.1734 -0.6463 -0.4233
  410MOL0     C56451  10.398   2.513   0.928 -0.7523  0.4182  0.5187
  410MOL0     C56452  10.310   2.406   0.994  0.8054  0.1748 -0.8746
  410MOL0     C56453  10.383   2.332   1.110  0.2882  0.6749  0.0082
  410MOL0     C56454  10.293   2.214   1.152  1.2432  0.2048 -0.5810
  410MOL0     C56455  10.362   2.119   1.250 -0.3101 -0.2197  0.4142
  410MOL0     C56456  10.493   2.062   1.193  0.5473  0.0872 -0.6811
  410MOL0     C56457  10.604   2.143   1.259  0.2379  0.4660 -0.2863
  410MOL0     C56458  10.749   2.109   1.213  0.2444 -0.3674 -0.3043
  410MOL0     N56459  10.815   2.000   1.294  0.2529  0.2858  1.0547
  410MOL0     C56460  10.941   2.011   1.342  0.3237  1.5033 -1.3262
  410MOL0     C56461  10.970   1.877   1.365 -0.6983 -0.5910 -0.3425
  410MOL0     C56462  11.108   1.828   1.405  0.6105  0.0166  0.1635
  410MOL0     C56463  11.099   1.770   1.544 -0.0671 -0.1303 -0.4257
  410MOL0     C56464  11.105   1.884   1.651  0.9071 -0.1715  0.0379
  410MOL0     C56465  11.108   1.838   1.800 -0.6557 -0.3907 -0.1704
  410MOL0     O56466  10.989   1.769   1.838  0.1372 -1.1016  0.0914
  410MOL0     C56467  11.002   1.699   1.952  0.1578  0.2606 -0.4229
  410MOL0     C56468  10.872   1.665   1.999 -1.4589 -0.0023 -0.1071
  410MOL0     C56469  10.861   1.580   2.109 -0.8360  0.6679  0.8501
  410MOL0     C56470  10.719   1.549   2.156 -0.0476 -0.3000  0.5839
  410MOL0     C56471  10.982   1.526   2.167 -0.1515  0.9767  0.2482
  410MOL0     C56472  10.981   1.429   2.279  0.9158 -0.2281  0.0848
  410MOL0     O56473  10.860   1.351   2.297 -0.3972 -0.5662 -0.0817
  410MOL0     C56474  10.861   1.253   2.392  0.2015 -0.4250 -0.8044
  410MOL0     C56475  10.805   1.280   2.518  0.1820 -0.1986  0.8252
  410MOL0     C56476  10.784   1.171   2.609  0.3035  0.0244  0.1485
  410MOL0     C56477  10.831   1.046   2.566  0.5718  0.1299  0.7001
  410MOL0     O56478  10.824   0.935   2.652  0.2883 -0.0566  0.2279
  410MOL0     C56479  10.686   0.864   2.634  0.6603 -0.4962  0.5956
  410MOL0     C56480  10.660   0.779   2.751  0.4594  0.5357 -0.5816
  410MOL0     C56481  10.553   0.666   2.718  0.4620  0.2979 -0.9327
  410MOL0     C56482  10.513   0.584   2.831 -1.2149 -0.9562 -0.1971
  410MOL0     C56483  10.500   0.644   2.976  0.1185 -0.9136  0.4402
  410MOL0     C56484  10.467   0.523   3.067  0.3016 -0.0473  0.7188
  410MOL0     C56485  10.461   0.556   3.218  0.4996  0.7197  0.9424
  410MOL0     C56486  10.434   0.445   3.308 -0.8523 -0.7631 -0.6026
  410MOL0    Cl56487  10.347   0.314   3.245 -0.3169 -0.1438 -0.2514
  410MOL0     C56488  10.885   1.021   2.442  0.4159  0.1295  0.4453
  410MOL0     C56489  10.892   1.128   2.350  1.0445  0.4688 -0.2748
  410MOL0     O56490  11.091   1.415   2.341 -0.0560  0.5841 -0.3241
  410MOL0     C56491  11.106   1.574   2.122 -0.1726  0.3427  0.6051
  410MOL0     C56492  11.119   1.668   2.020 -0.2903  0.1718  0.6939
  410MOL0     N56493  10.872   1.790   1.325 -0.5981 -0.2565 -1.2263
  410MOL0     N56494  10.780   1.867   1.278 -0.6204  0.3303  0.1656
  410MOL0     C56495  10.377   2.718   0.669 -0.3145  0.5693  0.6529
  410MOL0     C56496  10.301   2.823   0.605 -0.5283 -1.0002 -0.4707
  410MOL0     C56497   9.953   3.028   0.408  1.0655  0.0938  1.2913
  410MOL0     C56498  10.041   3.135   0.377  0.4057  0.1983  1.0660
  410MOL0     C56499  10.027   3.230   0.278  1.0891 -0.2175  0.8773
  410MOL0     C56500   9.905   3.241   0.213 -0.8367 -0.1307  0.4032
  410MOL0     O56501   9.872   3.326   0.118 -0.4296 -0.2884  0.2847
  410MOL0     C56502   9.978   3.385   0.046 -0.3151 -0.8550 -0.9491
  410MOL0     C56503   9.939   3.468  -0.082 -0.3687  0.4608  1.1477
  410MOL0     C56504   9.839   3.390  -0.172 -0.1419  0.2742  0.3965
  410MOL0     C56505   9.786   3.485  -0.278 -0.2288 -0.2399 -0.7060
  410MOL0     C56506   9.850   3.475  -0.401 -0.2991 -0.3653  0.2719
  410MOL0     C56507   9.909   3.446  -0.506 -0.6498 -0.3718 -0.5545
  410MOL0     C56508   9.803   3.155   0.256  0.6980  0.4386 -0.3989
  410MOL0     C56509   9.822   3.040   0.340 -0.8738  0.2367  1.0844
  410MOL0     C56510   9.714   2.940   0.358 -0.3844  0.3523 -0.8028
  410MOL0     H56511   9.987   2.768   0.739 -0.0312  0.4203  0.3687
  410MOL0     H56512  10.116   2.573   0.838 -0.3425  2.1753  2.0590
  410MOL0     H56513  10.389   2.609   0.979  0.6224  1.1169 -0.4938
  410MOL0     H56514  10.500   2.476   0.941 -1.6509 -1.9446  1.5336
  410MOL0     H56515  10.219   2.450   1.034 -0.7461 -1.3582 -2.5330
  410MOL0     H56516  10.270   2.328   0.929  0.0583 -1.0767  1.0056
  410MOL0     H56517  10.479   2.295   1.073  0.9993  0.4693  1.9643
  410MOL0     H56518  10.404   2.396   1.196  0.0770  2.5561 -1.2860
  410MOL0     H56519  10.200   2.250   1.198  1.6267 -0.6309  0.8870
  410MOL0     H56520  10.270   2.150   1.066  0.5973 -0.0011 -0.2646
  410MOL0     H56521  10.294   2.042   1.288 -2.3668 -0.0476 -2.5974
  410MOL0     H56522  10.375   2.188   1.335 -0.3762 -0.0992  0.3274
  410MOL0     H56523  10.513   1.958   1.220 -0.2808 -0.6424 -2.7069
  410MOL0     H56524  10.497   2.061   1.084  0.8262 -1.0917 -0.6756
  410MOL0     H56525  10.597   2.111   1.364 -0.0325  0.2966 -0.3560
  410MOL0     H56526  10.589   2.252   1.254 -2.0329  0.3435  1.6816
  410MOL0     H56527  10.748   2.085   1.106  2.3021  1.0626 -0.7045
  410MOL0     H56528  10.799   2.206   1.219  1.6416 -0.9757 -1.4778
  410MOL0     H56529  11.007   2.095   1.362  1.7695 -0.4501  3.7866
  410MOL0     H56530  11.188   1.903   1.400  1.8726 -1.0174  2.7237
  410MOL0     H56531  11.129   1.744   1.338 -0.4504  0.1361 -0.3254
  410MOL0     H56532  11.014   1.707   1.571 -0.9113  1.9131  2.0751
  410MOL0     H56533  11.188   1.708   1.552  0.0658  0.0750 -0.3175
  410MOL0     H56534  11.194   1.947   1.648  0.2398  1.4101  4.8235
  410MOL0     H56535  11.019   1.946   1.626  3.3113  2.6550 -2.0314
  410MOL0     H56536  11.196   1.773   1.807 -0.1140  0.3141 -0.3126
  410MOL0     H56537  11.110   1.924   1.867 -2.3461  2.0087 -2.9754
  410MOL0     H56538  10.792   1.700   1.935 -1.0640  3.4589  1.0538
  410MOL0     H56539  10.694   1.448   2.123 -1.9274 -0.5788  2.5802
  410MOL0     H56540  10.635   1.614   2.132 -0.9371 -1.2206  1.1229
  410MOL0     H56541  10.700   1.549   2.264 -2.8033  1.5599  0.2131
  410MOL0     H56542  10.782   1.382   2.548 -4.0342 -1.4732  2.6289
  410MOL0     H56543  10.737   1.178   2.707 -2.6883 -3.2780 -0.8550
  410MOL0     H56544  10.614   0.945   2.617  2.4701  1.7713  3.0591
  410MOL0     H56545  10.698   0.795   2.550 -2.0083  1.2763 -1.4398
  410MOL0     H56546  10.759   0.739   2.776  0.2244  0.2719 -0.0565
  410MOL0     H56547  10.632   0.851   2.829  1.1243 -1.3108  1.4553
  410MOL0     H56548  10.568   0.605   2.629  1.7160  0.8735 -1.1412
  410MOL0     H56549  10.460   0.718   2.696  1.0023  2.1490  0.8794
  410MOL0     H56550  10.594   0.511   2.842  2.0202  2.4627  0.2620
  410MOL0     H56551  10.423   0.525   2.806 -1.2409 -1.3090  0.6848
  410MOL0     H56552  10.589   0.698   3.010 -0.7990  2.0194 -1.4547
  410MOL0     H56553  10.419   0.717   2.973 -1.6458 -2.8233 -0.3079
  410MOL0     H56554  10.551   0.454   3.052 -0.7408 -1.7742  2.3480
  410MOL0     H56555  10.370   0.477   3.047  0.1504  0.4061  0.3829
  410MOL0     H56556  10.381   0.630   3.216  1.7215  2.2097 -3.1988
  410MOL0     H56557  10.547   0.600   3.271  1.1304 -1.4830  1.8726
  410MOL0     H56558  10.365   0.472   3.388 -0.7061  1.2328 -1.0947
  410MOL0     H56559  10.527   0.399   3.340  0.7735  0.7729 -2.7627
  410MOL0     H56560  10.908   0.919   2.415 -1.0799  0.3499 -1.9521
  410MOL0     H56561  10.916   1.115   2.245  3.5504 -2.1566  0.5030
  410MOL0     H56562  11.199   1.536   2.163 -0.5473  1.2747  2.4523
  410MOL0     H56563  11.217   1.695   1.980  0.1116  2.3408  2.9632
  410MOL0     H56564  10.481   2.716   0.638 -0.2682 -3.4225  0.6083
  410MOL0     H56565  10.350   2.893   0.538  1.0798 -2.2297 -0.6528
  410MOL0     H56566  10.132   3.126   0.436  1.0276 -1.0379 -0.0367
  410MOL0     H56567  10.112   3.295   0.258 -0.6623  1.3854 -1.9261
  410MOL0     H56568  10.026   3.458   0.113 -1.6604  0.9437 -1.8614
  410MOL0     H56569  10.048   3.305   0.021 -0.3709 -1.8071  1.6368
  410MOL0     H56570  10.029   3.484  -0.143 -0.8395 -1.6844 -0.2538
  410MOL0     H56571   9.905   3.566  -0.048  3.2280  2.4112 -0.2554
  410MOL0     H56572   9.867   3.299  -0.226 -2.7220  0.1022 -0.8020
  410MOL0     H56573   9.764   3.371  -0.095  1.2447  0.3995  1.8283
  410MOL0     H56574   9.790   3.586  -0.236 -1.0569 -1.4076  2.5431
  410MOL0     H56575   9.680   3.465  -0.300 -0.3044  1.1915 -1.7761
  410MOL0     H56576   9.952   3.402  -0.593 -1.6669  0.5607 -1.5749
  410MOL0     H56577   9.712   3.165   0.197 -0.7753  1.3403  1.8919
  410MOL0     H56578   9.724   2.857   0.287  2.1843 -0.7508  0.6846
  410MOL0     H56579   9.720   2.900   0.460 -2.4888  0.4888 -0.5933
  410MOL0     H56580   9.614   2.978   0.337 -0.0582  1.0671 -1.0909
  411MOL0     O56581   7.389   8.287   8.651  0.2377 -0.8852  0.0863
  411MOL0     C56582   7.302   8.347   8.577 -1.3592  0.0460 -0.4265
  411MOL0     O56583   7.288   8.323   8.440  0.1974 -0.6144  0.1604
  411MOL0     C56584   7.352   8.211   8.396  0.4783 -1.1354  0.2091
  411MOL0     C56585   7.283   8.090   8.397 -0.3614  0.1701 -1.3267
  411MOL0     C56586   7.347   7.977   8.356 -0.2577  0.1146  0.1551
  411MOL0     C56587   7.486   7.980   8.315  0.3809  0.2946  0.1554
  411MOL0     O56588   7.558   7.863   8.293  0.3221 -1.1608  0.3517
  411MOL0     C56589   7.698   7.882   8.313 -0.1376  0.2803  0.2988
  411MOL0     C56590   7.760   7.761   8.383 -0.6427 -0.0266  0.2277
  411MOL0     C56591   7.722   7.632   8.292  0.5189 -0.7219 -0.1392
  411MOL0     C56592   7.804   7.516   8.345 -0.1517 -0.6207 -0.3643
  411MOL0     C56593   7.784   7.385   8.280  0.1983 -0.0341  1.2842
  411MOL0     C56594   7.845   7.268   8.363 -0.5793  0.4330 -1.2270
  411MOL0     C56595   7.831   7.275   8.524 -0.4264 -0.0834  0.3834
  411MOL0     C56596   7.878   7.158   8.619  0.5999  0.3253  0.6249
  411MOL0     N56597   8.014   7.118   8.599  0.4622  0.2191 -0.2146
  411MOL0     C56598   8.071   7.062   8.485 -0.1164 -0.4027  0.3908
  411MOL0     C56599   8.207   7.052   8.515  0.6541 -0.0485  0.1992
  411MOL0     C56600   8.316   7.010   8.427  0.1176 -0.6593  0.6277
  411MOL0     C56601   8.409   7.127   8.382 -0.0508  0.4138  0.2354
  411MOL0     C56602   8.556   7.102   8.373 -0.0466  0.7152  0.0611
  411MOL0     C56603   8.653   7.216   8.370 -0.1472 -0.5582  0.8355
  411MOL0     O56604   8.611   7.308   8.268  0.1060 -0.0219 -0.3194
  411MOL0     C56605   8.686   7.319   8.155  0.9064  0.4200 -0.3365
  411MOL0     C56606   8.624   7.286   8.031  0.3690 -0.2182  0.4806
  411MOL0     C56607   8.688   7.317   7.910 -0.7337 -0.6639  0.2296
  411MOL0     C56608   8.602   7.316   7.788 -0.1073 -0.6198  1.1692
  411MOL0     C56609   8.827   7.370   7.921  0.1041 -0.4239  0.4032
  411MOL0     C56610   8.911   7.417   7.802  0.6619  0.6735 -0.6502
  411MOL0     O56611   9.025   7.462   7.840 -1.1197 -1.5492  0.1247
  411MOL0     C56612   9.137   7.459   7.758  0.3704 -0.2980 -1.2897
  411MOL0     C56613   9.157   7.372   7.653  0.2985  0.2693  0.3967
  411MOL0     C56614   9.287   7.345   7.600 -0.0584 -0.6992 -0.6778
  411MOL0     C56615   9.403   7.416   7.636  1.3772  0.1471  0.0971
  411MOL0     O56616   9.513   7.401   7.560 -0.5574  0.4084 -0.2472
  411MOL0     C56617   9.640   7.465   7.599  1.2910  0.1264 -0.2576
  411MOL0     C56618   9.733   7.352   7.653 -0.9730  0.5134  0.1420
  411MOL0     C56619   9.683   7.280   7.778 -0.3578 -0.2924  0.8344
  411MOL0     C56620   9.798   7.199   7.849 -0.5836 -0.0680  0.5525
  411MOL0     C56621   9.744   7.083   7.937  0.6207 -0.2966  0.8404
  411MOL0     C56622   9.846   7.006   8.024 -0.1529 -0.0558  1.4719
  411MOL0     C56623   9.783   6.917   8.124 -0.6395  0.0105 -0.5214
  411MOL0     C56624   9.899   6.858   8.203 -0.1743  0.5592 -0.9059
  411MOL0    Cl56625   9.849   6.743   8.325  0.2235 -0.1411 -0.0549
  411MOL0     C56626   9.376   7.516   7.733  0.4265 -0.2847  0.0661
  411MOL0     C56627   9.251   7.536   7.797  0.3491  0.5313 -0.1396
  411MOL0     O56628   8.878   7.400   7.687 -0.8067  0.0832  0.3202
  411MOL0     C56629   8.885   7.390   8.047  0.1562  0.1597 -0.0813
  411MOL0     C56630   8.813   7.366   8.160 -0.1347 -0.3140  0.1900
  411MOL0     N56631   8.225   7.091   8.648  0.2807 -0.2846  0.6885
  411MOL0     N56632   8.107   7.122   8.700  0.0866 -0.7757 -0.4974
  411MOL0     C56633   7.540   8.109   8.306 -1.2051  0.3879 -0.6855
  411MOL0     C56634   7.474   8.225   8.336  0.0340 -0.2497  1.2912
  411MOL0     C56635   7.220   8.455   8.636  0.1931  0.2425 -0.6712
  411MOL0     C56636   7.275   8.535   8.741  1.1444 -0.5405 -0.4167
  411MOL0     C56637   7.202   8.639   8.795 -1.1145  0.7061  0.1672
  411MOL0     C56638   7.087   8.676   8.736 -0.1305 -0.1571 -0.3621
  411MOL0     O56639   6.998   8.763   8.781 -0.1312 -0.4791  0.4117
  411MOL0     C56640   7.014   8.832   8.902  0.6011  0.3701  0.4984
  411MOL0     C56641   6.888   8.925   8.919 -0.5301 -0.5309 -0.1279
  411MOL0     C56642   6.917   9.064   8.882  0.1036  0.0166  0.4778
  411MOL0     C56643   6.796   9.148   8.834 -0.5704 -0.2166  0.3886
  411MOL0     C56644   6.697   9.158   8.944  0.1639  0.3494  1.1637
  411MOL0     C56645   6.637   9.179   9.043  0.2941  1.1617 -0.2832
  411MOL0     C56646   7.034   8.602   8.632  0.7672  1.1896 -0.1011
  411MOL0     C56647   7.093   8.486   8.590  0.3794  0.0758  0.0035
  411MOL0     C56648   7.013   8.393   8.504 -0.1457 -0.4501 -1.3462
  411MOL0     H56649   7.190   8.088   8.454  0.3159 -1.9641 -0.1841
  411MOL0     H56650   7.297   7.881   8.370 -0.3112  0.3199  1.4538
  411MOL0     H56651   7.724   7.970   8.373  3.2113  0.2089 -0.8285
  411MOL0     H56652   7.745   7.892   8.215  0.8086  2.4039  0.8993
  411MOL0     H56653   7.866   7.781   8.395 -0.2430 -1.4367 -0.6305
  411MOL0     H56654   7.712   7.734   8.477 -0.1188 -2.1392 -0.0622
  411MOL0     H56655   7.614   7.614   8.304  0.4601  0.6075  1.7827
  411MOL0     H56656   7.751   7.672   8.194  1.3197  2.6574  1.3536
  411MOL0     H56657   7.911   7.535   8.335  0.7531 -4.4405  0.5858
  411MOL0     H56658   7.779   7.517   8.451  0.6098  2.2438 -0.1096
  411MOL0     H56659   7.817   7.380   8.176  0.0363 -2.0334  1.2846
  411MOL0     H56660   7.680   7.358   8.261  1.6145 -3.8962 -2.4318
  411MOL0     H56661   7.807   7.177   8.315 -0.9051  2.6815 -5.7071
  411MOL0     H56662   7.954   7.266   8.352 -0.1125  1.8418  1.8862
  411MOL0     H56663   7.726   7.300   8.539 -0.2862  1.9677 -1.5240
  411MOL0     H56664   7.888   7.364   8.549  1.0754 -0.6480 -0.8751
  411MOL0     H56665   7.882   7.194   8.722 -1.0590  1.3880  0.3386
  411MOL0     H56666   7.814   7.070   8.615 -3.6335  3.0960  1.5260
  411MOL0     H56667   8.020   7.045   8.392 -1.0497  1.4385  0.5350
  411MOL0     H56668   8.278   6.965   8.335 -0.1966 -1.2117  1.0190
  411MOL0     H56669   8.370   6.924   8.469  1.3808  0.7023  1.9254
  411MOL0     H56670   8.381   7.151   8.279  1.2522 -2.6603 -0.9729
  411MOL0     H56671   8.393   7.216   8.442 -1.5071  0.4122 -0.1113
  411MOL0     H56672   8.577   7.029   8.451  0.5852 -0.6541 -1.3225
  411MOL0     H56673   8.579   7.048   8.280 -1.5063  1.0685 -0.5497
  411MOL0     H56674   8.642   7.267   8.466 -0.3397  0.8248  0.1012
  411MOL0     H56675   8.752   7.173   8.349 -0.0217 -0.6311  1.5474
  411MOL0     H56676   8.520   7.254   8.026  0.5040 -0.5546 -0.3051
  411MOL0     H56677   8.619   7.415   7.744  3.6545 -1.5809  0.0364
  411MOL0     H56678   8.496   7.300   7.810 -0.3237 -2.7990 -1.0360
  411MOL0     H56679   8.635   7.239   7.717  0.2577  1.2352 -0.7843
  411MOL0     H56680   9.080   7.311   7.607  0.6249 -0.8571  1.2914
  411MOL0     H56681   9.280   7.272   7.521 -1.9447 -0.4075 -0.8371
  411MOL0     H56682   9.694   7.520   7.522  1.4121  1.3084  0.6511
  411MOL0     H56683   9.623   7.539   7.677  0.9888  0.0267 -0.2302
  411MOL0     H56684   9.751   7.280   7.573  0.5961  1.2027 -0.1506
  411MOL0     H56685   9.828   7.402   7.674  0.7152 -1.2649 -2.5851
  411MOL0     H56686   9.610   7.205   7.747 -0.3207  0.7997 -2.2297
  411MOL0     H56687   9.629   7.346   7.846 -1.5846 -2.0813  1.6879
  411MOL0     H56688   9.856   7.272   7.907  0.3570  0.4989 -1.0154
  411MOL0     H56689   9.865   7.159   7.772 -1.9342 -2.0207  0.3361
  411MOL0     H56690   9.671   7.132   8.003  0.6457  0.0138  0.6380
  411MOL0     H56691   9.692   7.014   7.870  1.3883 -0.6746  0.6210
  411MOL0     H56692   9.903   7.083   8.076 -1.1401  1.3714  0.5193
  411MOL0     H56693   9.910   6.950   7.955  0.3094  2.0968  0.0630
  411MOL0     H56694   9.722   6.834   8.088 -3.0440 -0.1318  3.2998
  411MOL0     H56695   9.718   6.978   8.188  1.6002  0.1355  1.7460
  411MOL0     H56696   9.969   6.934   8.240  2.7038 -0.8381 -3.0779
  411MOL0     H56697   9.968   6.802   8.138 -0.9802 -0.5983 -0.7785
  411MOL0     H56698   9.441   7.598   7.760  0.1715  0.5940 -1.8126
  411MOL0     H56699   9.244   7.609   7.876  1.4358 -1.7967  2.2373
  411MOL0     H56700   8.982   7.438   8.057 -0.3127  1.4532 -1.3369
  411MOL0     H56701   8.864   7.391   8.253  0.9000  0.0760 -0.4679
  411MOL0     H56702   7.646   8.118   8.283 -0.9495  1.0110  0.6694
  411MOL0     H56703   7.526   8.320   8.323 -1.3343  0.3734  0.0478
  411MOL0     H56704   7.372   8.521   8.788  2.1830  2.4323 -1.4347
  411MOL0     H56705   7.252   8.690   8.877 -0.6251 -0.2218  0.4733
  411MOL0     H56706   7.008   8.771   8.993  0.3202 -0.9570 -0.3768
  411MOL0     H56707   7.100   8.899   8.911 -0.2461  1.2634  2.8727
  411MOL0     H56708   6.872   8.916   9.027 -1.9064  0.7609 -0.2015
  411MOL0     H56709   6.814   8.884   8.851 -0.3926  0.6179 -0.9980
  411MOL0     H56710   6.964   9.117   8.966  2.7982 -1.6704  0.1552
  411MOL0     H56711   6.984   9.063   8.796 -0.4601 -1.3130  0.0161
  411MOL0     H56712   6.756   9.095   8.747 -0.0266  0.5151 -0.3186
  411MOL0     H56713   6.827   9.250   8.808 -3.8610  0.7388 -0.2483
  411MOL0     H56714   6.583   9.184   9.135 -0.8953  0.1029 -0.8831
  411MOL0     H56715   6.935   8.629   8.596  1.4117 -0.1465 -3.1610
  411MOL0     H56716   7.034   8.414   8.399  4.8086 -0.8477 -0.6414
  411MOL0     H56717   7.025   8.287   8.525  0.1519 -0.0350  0.8166
  411MOL0     H56718   6.905   8.395   8.522 -0.6239 -2.9031 -3.4337
  412MOL0     O56719   6.493   4.543   8.836  0.2836  0.1721 -0.4584
  412MOL0     C56720   6.417   4.448   8.834  0.1305  0.4282  0.2059
  412MOL0     O56721   6.303   4.428   8.906 -0.4581 -0.4010 -0.0525
  412MOL0     C56722   6.259   4.531   8.980  0.1096 -0.5804  0.6773
  412MOL0     C56723   6.244   4.531   9.117  0.2177 -0.1232  1.2905
  412MOL0     C56724   6.194   4.646   9.190  0.1373  0.8546  0.3018
  412MOL0     C56725   6.156   4.762   9.121 -0.2715 -0.5988 -1.0060
  412MOL0     O56726   6.103   4.880   9.178  0.4437  0.2687  0.2065
  412MOL0     C56727   6.119   4.917   9.313  0.3668 -0.4345  0.4808
  412MOL0     C56728   6.010   5.014   9.351  0.4914 -0.0227  0.3605
  412MOL0     C56729   6.002   5.044   9.512  0.2272  0.2277  0.5989
  412MOL0     C56730   5.873   5.119   9.555  0.7560 -0.3132  1.2280
  412MOL0     C56731   5.852   5.125   9.702  0.9281  0.4807 -0.4177
  412MOL0     C56732   5.717   5.196   9.753 -0.4704 -0.1950 -0.1560
  412MOL0     C56733   5.692   5.332   9.684 -0.2074  0.0375  0.7428
  412MOL0     C56734   5.549   5.388   9.705 -0.0553 -1.3462  0.5261
  412MOL0     N56735   5.531   5.506   9.607  0.4899  0.2876  0.7199
  412MOL0     C56736   5.505   5.636   9.643  0.7900  0.4242 -0.6722
  412MOL0     C56737   5.479   5.700   9.531  0.3941  0.6843  1.2232
  412MOL0     C56738   5.454   5.844   9.504 -0.2980  0.3040  0.5393
  412MOL0     C56739   5.337   5.894   9.583 -0.5791  0.1260 -0.2310
  412MOL0     C56740   5.337   6.048   9.564 -0.6677 -0.2186  0.3465
  412MOL0     C56741   5.262   6.111   9.682 -0.6676  0.0376  0.6264
  412MOL0     O56742   5.352   6.154   9.780  0.6564 -0.1467 -0.4045
  412MOL0     C56743   5.307   6.239   9.880 -0.0060 -0.2996  0.5423
  412MOL0     C56744   5.405   6.280   9.972  0.8646  0.4239  0.5235
  412MOL0     C56745   5.394   6.398  10.047  0.8503  0.1693  1.1599
  412MOL0     C56746   5.525   6.435  10.133 -0.3607  0.9746  0.1523
  412MOL0     C56747   5.274   6.487  10.032  0.3309 -0.4257 -0.3747
  412MOL0     C56748   5.237   6.606  10.110 -0.3426  0.0186 -1.0140
  412MOL0     O56749   5.117   6.665  10.083  0.0820 -0.8979  0.0848
  412MOL0     C56750   5.074   6.767  10.160  0.9333 -0.0823  0.2746
  412MOL0     C56751   5.151   6.881  10.185 -0.7204  0.3258 -0.1277
  412MOL0     C56752   5.112   6.982  10.281  0.2506  0.3801  0.6587
  412MOL0     C56753   4.993   6.961  10.351 -0.1216  0.7539  0.5364
  412MOL0     O56754   4.942   7.062  10.428  0.4861  0.2283  0.5579
  412MOL0     C56755   4.982   7.198  10.423 -0.4988 -0.0254 -1.2843
  412MOL0     C56756   4.899   7.276  10.514 -0.2914 -0.1258 -0.9254
  412MOL0     C56757   4.919   7.227  10.659  0.5317 -0.1662 -0.1155
  412MOL0     C56758   4.857   7.319  10.766  0.2534  0.0747 -0.1764
  412MOL0     C56759   4.855   7.246  10.899  1.1156  1.0906 -0.2583
  412MOL0     C56760   4.823   7.334  11.027 -0.5070  0.4116  1.0318
  412MOL0     C56761   4.954   7.394  11.084 -1.4552 -0.2872 -0.6725
  412MOL0     C56762   4.937   7.489  11.203 -0.5215  0.1715  1.0849
  412MOL0    Cl56763   5.057   7.632  11.193 -0.0685 -0.1286 -0.1587
  412MOL0     C56764   4.911   6.848  10.321  0.0693 -0.6557  0.0207
  412MOL0     C56765   4.948   6.758  10.225 -0.6603  1.0814 -0.6736
  412MOL0     O56766   5.319   6.644  10.188  0.5002 -0.7159 -0.4507
  412MOL0     C56767   5.171   6.430   9.949  0.6626  0.1036 -0.9770
  412MOL0     C56768   5.186   6.309   9.875  0.4105 -0.5421 -0.4002
  412MOL0     N56769   5.498   5.611   9.422 -0.2723  0.5058  0.0281
  412MOL0     N56770   5.516   5.499   9.469  0.0554 -0.6985  0.2454
  412MOL0     C56771   6.174   4.759   8.983 -0.3777  0.5353  0.2655
  412MOL0     C56772   6.220   4.652   8.909 -0.7527  0.0870 -0.0261
  412MOL0     C56773   6.468   4.328   8.759  0.5402 -0.4304  0.3968
  412MOL0     C56774   6.377   4.264   8.677 -0.3030  0.6588 -0.5513
  412MOL0     C56775   6.425   4.157   8.602  0.2619 -0.4523  0.2112
  412MOL0     C56776   6.554   4.107   8.600 -0.5179  0.2398  0.7803
  412MOL0     O56777   6.576   4.002   8.519 -0.0620 -0.2191 -0.2938
  412MOL0     C56778   6.685   3.917   8.526 -1.4184 -0.1025 -0.2101
  412MOL0     C56779   6.674   3.817   8.637  0.8727 -0.1291  0.5893
  412MOL0     C56780   6.789   3.714   8.638  0.2560  0.5643 -0.4109
  412MOL0     C56781   6.766   3.580   8.560  0.1735 -0.0598  0.0896
  412MOL0     C56782   6.776   3.600   8.415  0.2805  0.8478 -0.3910
  412MOL0     C56783   6.777   3.619   8.294 -0.0851  0.7871  0.2789
  412MOL0     C56784   6.645   4.182   8.680  0.0737  1.4543 -0.1721
  412MOL0     C56785   6.605   4.285   8.760  0.2709 -0.5477 -0.9021
  412MOL0     C56786   6.723   4.360   8.829 -0.4915  0.6528  0.0539
  412MOL0     H56787   6.278   4.438   9.163 -2.2981 -1.2747  0.9586
  412MOL0     H56788   6.196   4.648   9.298  1.8189  0.2600  0.2981
  412MOL0     H56789   6.209   4.980   9.316  0.6999 -0.8050 -0.9430
  412MOL0     H56790   6.121   4.834   9.383  1.2998 -0.9451 -0.1278
  412MOL0     H56791   6.025   5.111   9.303  1.2750 -0.0337  0.5846
  412MOL0     H56792   5.919   4.969   9.310  1.1960  0.4474 -1.8398
  412MOL0     H56793   6.006   4.949   9.566 -1.0371  0.7293  1.6289
  412MOL0     H56794   6.094   5.099   9.530  0.0227  0.2799  1.5125
  412MOL0     H56795   5.872   5.215   9.503 -1.8349 -0.1140  1.5404
  412MOL0     H56796   5.791   5.060   9.513 -0.4084  1.1674  1.3484
  412MOL0     H56797   5.934   5.188   9.738 -0.0264 -0.6498  4.5355
  412MOL0     H56798   5.855   5.024   9.745 -1.8321  1.0197  1.3589
  412MOL0     H56799   5.647   5.114   9.734 -0.0773 -1.0396  1.8078
  412MOL0     H56800   5.723   5.217   9.860 -1.1748 -1.6243  0.1892
  412MOL0     H56801   5.705   5.343   9.576 -0.3806  3.7648  0.9537
  412MOL0     H56802   5.759   5.406   9.730 -3.9278  2.2927  3.0081
  412MOL0     H56803   5.467   5.317   9.689 -1.4941  0.6310 -1.3872
  412MOL0     H56804   5.544   5.432   9.805  0.2701  2.3565 -0.9207
  412MOL0     H56805   5.493   5.680   9.742 -2.0773  3.5034 -2.1752
  412MOL0     H56806   5.420   5.853   9.401 -2.1700 -2.9002  0.7474
  412MOL0     H56807   5.547   5.902   9.516  0.7049 -1.3726  1.2746
  412MOL0     H56808   5.247   5.843   9.548 -0.7260 -0.0935  0.4554
  412MOL0     H56809   5.353   5.863   9.686  2.5870  2.5469  0.1787
  412MOL0     H56810   5.439   6.088   9.562 -2.0817  4.0997  2.5660
  412MOL0     H56811   5.285   6.075   9.471 -3.1259 -2.6028  0.8881
  412MOL0     H56812   5.202   6.191   9.638 -1.2050 -1.3471 -1.2937
  412MOL0     H56813   5.183   6.044   9.716 -3.1086  2.3956  0.0374
  412MOL0     H56814   5.489   6.212   9.986 -0.7508 -1.6365  0.7491
  412MOL0     H56815   5.575   6.521  10.088  3.6812  0.1297  2.5158
  412MOL0     H56816   5.593   6.350  10.136 -0.4318  0.8315 -1.6813
  412MOL0     H56817   5.502   6.446  10.240  3.2370 -1.9103  1.4237
  412MOL0     H56818   5.234   6.902  10.118 -2.8330  3.3233 -2.0888
  412MOL0     H56819   5.169   7.073  10.297  2.1223 -0.6232  0.0495
  412MOL0     H56820   5.080   7.218  10.466 -1.0797 -0.1601  0.1571
  412MOL0     H56821   4.965   7.246  10.326 -2.4532 -0.6298 -1.2949
  412MOL0     H56822   4.927   7.382  10.516 -3.8107  0.9201  0.2877
  412MOL0     H56823   4.800   7.272  10.469 -0.1725  2.1023 -1.5292
  412MOL0     H56824   5.027   7.221  10.679  0.3389  1.6994  1.8860
  412MOL0     H56825   4.887   7.123  10.656 -1.8124  0.5192 -0.3310
  412MOL0     H56826   4.762   7.359  10.731  0.8603  1.9593  0.2434
  412MOL0     H56827   4.926   7.404  10.760  1.0497 -0.5708 -0.4322
  412MOL0     H56828   4.771   7.178  10.887 -1.0096  3.2964  1.0197
  412MOL0     H56829   4.944   7.185  10.914 -0.0121  0.0505  3.1019
  412MOL0     H56830   4.767   7.285  11.107  1.1502 -1.0474  1.3567
  412MOL0     H56831   4.757   7.415  10.993  0.1710  0.6159  0.1664
  412MOL0     H56832   5.007   7.453  11.010  2.8350  0.5971  2.6905
  412MOL0     H56833   5.016   7.308  11.112  3.6194  3.4868  1.2250
  412MOL0     H56834   4.962   7.436  11.295  2.7456 -1.0143 -0.3358
  412MOL0     H56835   4.835   7.529  11.201 -1.6352 -2.4122 -1.7048
  412MOL0     H56836   4.808   6.838  10.354  0.1565 -0.1081  0.4679
  412MOL0     H56837   4.876   6.689  10.183 -1.2550  1.8984 -1.0053
  412MOL0     H56838   5.072   6.474   9.945  0.8674  0.4704 -2.3708
  412MOL0     H56839   5.114   6.265   9.807  0.1391 -0.5512 -0.1088
  412MOL0     H56840   6.145   4.848   8.929  0.2303  0.8939  0.5195
  412MOL0     H56841   6.244   4.664   8.804 -1.3945  1.4749 -0.0322
  412MOL0     H56842   6.277   4.305   8.670  0.3416  2.9226  1.6502
  412MOL0     H56843   6.355   4.120   8.528  1.3013  0.2824 -1.2136
  412MOL0     H56844   6.684   3.873   8.426 -2.1810  0.4013 -0.4323
  412MOL0     H56845   6.783   3.964   8.542 -2.1524  0.9375  1.6068
  412MOL0     H56846   6.575   3.771   8.634  0.0055  1.6474  0.3137
  412MOL0     H56847   6.693   3.879   8.725  5.0946  2.3158 -1.6985
  412MOL0     H56848   6.883   3.765   8.616  0.3467 -0.5351 -2.8600
  412MOL0     H56849   6.780   3.694   8.745 -0.3201  2.5503 -0.0558
  412MOL0     H56850   6.677   3.525   8.593  0.5117 -0.5000  0.2949
  412MOL0     H56851   6.852   3.514   8.579  0.6481  1.0280  1.9838
  412MOL0     H56852   6.765   3.632   8.188 -0.6384 -1.3702  0.0178
  412MOL0     H56853   6.752   4.164   8.680  0.1102  1.6151 -0.9647
  412MOL0     H56854   6.760   4.435   8.758  0.7620  2.8808  2.8133
  412MOL0     H56855   6.690   4.409   8.921 -2.7721  0.4912 -0.6350
  412MOL0     H56856   6.812   4.302   8.855 -0.8830  0.3085  0.6585
  413MOL0     O56857   1.661   7.037   7.608  0.6385 -0.4095 -0.4470
  413MOL0     C56858   1.625   7.138   7.536 -0.8796  0.1843 -0.6832
  413MOL0     O56859   1.520   7.212   7.561 -0.0455 -0.4609 -0.0178
  413MOL0     C56860   1.491   7.255   7.692 -0.0820 -0.2216  0.4289
  413MOL0     C56861   1.580   7.277   7.797  0.3903 -0.6456 -0.2418
  413MOL0     C56862   1.526   7.339   7.912 -0.3339  0.0710 -0.2157
  413MOL0     C56863   1.387   7.351   7.933  0.4304  0.6472 -0.5694
  413MOL0     O56864   1.323   7.379   8.050 -0.1267 -0.1336  0.0678
  413MOL0     C56865   1.391   7.448   8.156 -0.5922 -0.5621 -0.2943
  413MOL0     C56866   1.284   7.506   8.251 -0.4516 -1.0485  0.2607
  413MOL0     C56867   1.159   7.565   8.173  0.2345  0.1231  0.4610
  413MOL0     C56868   1.100   7.695   8.235 -0.5546 -0.5205 -0.5913
  413MOL0     C56869   1.041   7.666   8.377 -0.2707  0.2431 -0.8968
  413MOL0     C56870   0.895   7.646   8.361  0.8656 -0.1872  0.0651
  413MOL0     C56871   0.833   7.633   8.504 -0.5859 -0.1337 -0.2654
  413MOL0     C56872   0.681   7.652   8.486 -0.3318  0.3348  0.1178
  413MOL0     N56873   0.657   7.792   8.454 -0.4128 -0.2836 -0.9163
  413MOL0     C56874   0.655   7.907   8.529  0.0167  0.5962  0.5572
  413MOL0     C56875   0.594   8.008   8.466  0.0802 -0.1215 -0.2118
  413MOL0     C56876   0.555   8.140   8.533 -0.2430 -0.5442 -0.4260
  413MOL0     C56877   0.431   8.198   8.459 -0.1362 -0.6666  0.5467
  413MOL0     C56878   0.453   8.238   8.317 -0.3908 -0.5726 -0.1839
  413MOL0     C56879   0.366   8.352   8.275 -0.3843 -0.1610  0.5708
  413MOL0     O56880   0.235   8.308   8.283  0.2788 -0.5877  0.7026
  413MOL0     C56881   0.126   8.403   8.283  0.2630  0.6852  0.9827
  413MOL0     C56882   0.005   8.344   8.264  0.3817 -0.2723  0.2241
  413MOL0     C56883  -0.112   8.418   8.250  0.1755  0.1992 -0.8808
  413MOL0     C56884  -0.241   8.344   8.275 -0.6313  1.0294 -0.0011
  413MOL0     C56885  -0.106   8.558   8.240 -0.6580  0.5784  0.1943
  413MOL0     C56886  -0.214   8.646   8.200  1.2044 -0.8807  0.4293
  413MOL0     O56887  -0.205   8.783   8.234  0.2642  0.4175 -0.2720
  413MOL0     C56888  -0.321   8.847   8.247  0.1268 -0.1506 -0.0601
  413MOL0     C56889  -0.362   8.886   8.372  0.5990 -0.0414  0.5328
  413MOL0     C56890  -0.481   8.951   8.393 -0.0789  0.2958 -0.1770
  413MOL0     C56891  -0.575   8.974   8.290 -0.3298 -0.6272  0.1071
  413MOL0     O56892  -0.700   9.020   8.309 -0.4759  0.8057  0.1365
  413MOL0     C56893  -0.728   9.085   8.431 -0.5985 -1.2819  0.4840
  413MOL0     C56894  -0.795   9.216   8.392  0.1974 -0.4173 -0.5241
  413MOL0     C56895  -0.837   9.296   8.515 -0.3932  0.0154  0.4335
  413MOL0     C56896  -0.922   9.419   8.486  1.6381 -0.1690 -0.8346
  413MOL0     C56897  -1.067   9.380   8.519  0.8428  0.6551  0.6027
  413MOL0     C56898  -1.160   9.508   8.505  0.5140  0.6420  0.5642
  413MOL0     C56899  -1.309   9.479   8.542  1.0751  0.0929 -0.8153
  413MOL0     C56900  -1.400   9.603   8.587 -0.2677 -0.3154 -0.4427
  413MOL0    Cl56901  -1.378   9.730   8.476 -0.4216  0.4802 -0.2851
  413MOL0     C56902  -0.541   8.919   8.163 -0.1008  0.8604 -0.5116
  413MOL0     C56903  -0.412   8.869   8.134 -0.7560 -0.5239 -0.5157
  413MOL0     O56904  -0.294   8.604   8.118 -0.6008  0.7317 -0.2728
  413MOL0     C56905   0.021   8.613   8.241 -0.1258 -0.2410  0.1116
  413MOL0     C56906   0.133   8.542   8.274 -0.1564 -0.2603  0.5494
  413MOL0     N56907   0.562   7.949   8.338  0.0003  1.0338 -0.1794
  413MOL0     N56908   0.619   7.826   8.332  0.8535  0.5508 -0.3754
  413MOL0     C56909   1.301   7.300   7.837  0.3804  0.8346  0.0691
  413MOL0     C56910   1.348   7.273   7.711  0.7572  0.7722 -0.3755
  413MOL0     C56911   1.698   7.161   7.415  0.4240 -0.1223 -0.0373
  413MOL0     C56912   1.612   7.158   7.299 -0.4486  0.7834 -0.5023
  413MOL0     C56913   1.668   7.170   7.172  0.1612 -0.1479 -0.8363
  413MOL0     C56914   1.807   7.179   7.162  0.4415 -0.2391 -0.1173
  413MOL0     O56915   1.868   7.209   7.048  0.2499  1.0052  0.6777
  413MOL0     C56916   1.804   7.179   6.923 -0.6764 -0.3799 -1.1475
  413MOL0     C56917   1.900   7.188   6.797 -0.1871  0.8397 -1.1773
  413MOL0     C56918   1.996   7.308   6.794 -0.1762  0.3832  0.4488
  413MOL0     C56919   2.133   7.243   6.853 -0.1919  0.6365 -0.6792
  413MOL0     C56920   2.241   7.344   6.868  0.2087  0.0925  0.7537
  413MOL0     C56921   2.317   7.440   6.883  0.7511 -0.4487  0.3763
  413MOL0     C56922   1.886   7.189   7.278 -0.6082  0.0005  0.0895
  413MOL0     C56923   1.837   7.181   7.407  0.3871 -0.1803  0.5053
  413MOL0     C56924   1.927   7.206   7.523  0.8061  0.2279 -0.5579
  413MOL0     H56925   1.683   7.261   7.769  0.4444  0.9238 -1.0593
  413MOL0     H56926   1.591   7.386   7.985  0.4027  0.1751 -0.9293
  413MOL0     H56927   1.452   7.530   8.118  0.0582  0.4994  2.7590
  413MOL0     H56928   1.460   7.392   8.219 -1.2200 -1.0477 -0.0215
  413MOL0     H56929   1.255   7.442   8.336 -2.9373 -1.3651 -0.7344
  413MOL0     H56930   1.334   7.590   8.300  0.8045  0.3433 -3.0952
  413MOL0     H56931   1.175   7.595   8.069 -2.5414 -1.0703 -0.4000
  413MOL0     H56932   1.081   7.489   8.165 -0.4567  0.7913  0.6845
  413MOL0     H56933   1.179   7.771   8.236  0.6027 -1.6080 -2.3995
  413MOL0     H56934   1.022   7.729   8.166 -1.7856 -3.1756 -0.6320
  413MOL0     H56935   1.055   7.755   8.440 -3.8867  1.3874 -1.4715
  413MOL0     H56936   1.078   7.575   8.425 -1.0768  0.4246  0.1100
  413MOL0     H56937   0.853   7.735   8.311  4.2203  1.4434 -0.1614
  413MOL0     H56938   0.878   7.557   8.300  0.9161 -2.1281  2.7448
  413MOL0     H56939   0.877   7.705   8.574 -1.9832  2.3994 -1.8364
  413MOL0     H56940   0.863   7.536   8.545  0.0035  0.8102  1.6702
  413MOL0     H56941   0.646   7.591   8.402  0.4033 -0.5770  0.4524
  413MOL0     H56942   0.632   7.611   8.574  0.9763 -1.4329  0.0754
  413MOL0     H56943   0.692   7.901   8.631 -1.4244 -2.3612  1.0126
  413MOL0     H56944   0.635   8.213   8.547 -2.3189  1.3616  2.9620
  413MOL0     H56945   0.529   8.122   8.638 -2.5791  1.4541 -0.5837
  413MOL0     H56946   0.351   8.123   8.463 -1.8243  1.1174  2.0516
  413MOL0     H56947   0.388   8.272   8.527 -2.4433 -1.6239  0.2277
  413MOL0     H56948   0.559   8.250   8.292 -0.8535  1.7744 -1.2678
  413MOL0     H56949   0.414   8.153   8.260 -0.7669 -0.9623  0.6394
  413MOL0     H56950   0.379   8.444   8.333 -1.1126  2.4567 -3.0418
  413MOL0     H56951   0.407   8.378   8.177  2.3549  3.7838  2.4952
  413MOL0     H56952   0.019   8.237   8.261  1.7774 -0.1752  1.9170
  413MOL0     H56953  -0.240   8.274   8.359 -3.6745  1.5402  0.5786
  413MOL0     H56954  -0.269   8.279   8.191 -3.5443 -0.0509  1.6895
  413MOL0     H56955  -0.323   8.411   8.301  0.3917  3.4989 -2.5679
  413MOL0     H56956  -0.301   8.867   8.460  0.4624 -0.8170  0.4672
  413MOL0     H56957  -0.499   8.964   8.499  0.7402 -3.3449  0.5480
  413MOL0     H56958  -0.785   9.005   8.479 -1.7325 -2.5778 -2.7357
  413MOL0     H56959  -0.637   9.111   8.485  0.0608 -1.5082 -0.4972
  413MOL0     H56960  -0.727   9.276   8.331  0.7279  0.7116  1.1003
  413MOL0     H56961  -0.885   9.186   8.338 -1.1928  1.0561  0.8607
  413MOL0     H56962  -0.743   9.328   8.560 -0.6056 -1.1426  1.7700
  413MOL0     H56963  -0.887   9.231   8.587 -1.0031  0.1491  0.1369
  413MOL0     H56964  -0.935   9.442   8.380 -1.2778 -0.2657 -0.5988
  413MOL0     H56965  -0.889   9.513   8.532 -2.7401 -0.6290  4.3346
  413MOL0     H56966  -1.095   9.295   8.456  0.7065  1.9628 -1.2044
  413MOL0     H56967  -1.085   9.341   8.620  1.7033 -1.9013 -0.1589
  413MOL0     H56968  -1.145   9.548   8.404  3.4734  0.3237  0.7719
  413MOL0     H56969  -1.130   9.588   8.573 -2.4084  2.0683  0.2992
  413MOL0     H56970  -1.305   9.418   8.633 -0.3132 -1.8128 -1.9681
  413MOL0     H56971  -1.352   9.417   8.463  1.7133 -0.0081 -1.0843
  413MOL0     H56972  -1.373   9.627   8.690  1.6047 -1.4209 -0.6320
  413MOL0     H56973  -1.508   9.584   8.591 -0.5042  0.8712 -0.9025
  413MOL0     H56974  -0.618   8.924   8.087 -0.5373  1.0278 -0.0564
  413MOL0     H56975  -0.379   8.827   8.040  3.0991 -1.8776  1.2330
  413MOL0     H56976   0.029   8.719   8.218  0.3254 -0.6939 -1.9604
  413MOL0     H56977   0.227   8.597   8.278 -2.5038  4.5506 -1.7791
  413MOL0     H56978   1.194   7.287   7.848 -0.0899  4.5095  1.1530
  413MOL0     H56979   1.272   7.243   7.639 -2.8448  2.4500  2.4350
  413MOL0     H56980   1.506   7.135   7.310  0.1184 -0.8128  2.9763
  413MOL0     H56981   1.603   7.189   7.087 -2.2757  0.2300  1.0051
  413MOL0     H56982   1.745   7.087   6.925  1.4914 -1.8323 -0.3979
  413MOL0     H56983   1.730   7.259   6.918 -1.0607 -0.6529  0.0676
  413MOL0     H56984   1.839   7.219   6.711  0.4810  3.1406 -0.8817
  413MOL0     H56985   1.938   7.091   6.764 -2.4582 -1.6113  2.6354
  413MOL0     H56986   2.006   7.345   6.692  0.4811  1.5123  0.9093
  413MOL0     H56987   1.952   7.383   6.860 -2.2941 -1.8394  1.7636
  413MOL0     H56988   2.166   7.161   6.788 -2.6263 -1.2338  0.2626
  413MOL0     H56989   2.114   7.198   6.951 -0.0289  2.8546  0.4269
  413MOL0     H56990   2.377   7.528   6.889  2.0769 -1.3897  1.4055
  413MOL0     H56991   1.992   7.208   7.261 -0.7943  0.0407 -1.1682
  413MOL0     H56992   1.913   7.130   7.601  3.5626  2.3680  2.2771
  413MOL0     H56993   2.034   7.208   7.503  1.9911  1.6622  4.4917
  413MOL0     H56994   1.891   7.295   7.575 -2.0755 -1.1695  0.0643
  414MOL0     O56995   2.403  11.023   8.241  0.6335  0.1104 -0.3710
  414MOL0     C56996   2.477  11.123   8.248  0.0665 -0.6426  0.2631
  414MOL0     O56997   2.524  11.201   8.142 -0.0401 -0.1408  0.1278
  414MOL0     C56998   2.512  11.166   8.007  0.4419 -1.1496 -0.8374
  414MOL0     C56999   2.383  11.142   7.945  0.9027  0.6543 -0.5136
  414MOL0     C57000   2.378  11.120   7.802  0.1069 -0.4322 -0.9514
  414MOL0     C57001   2.500  11.127   7.729  0.4035  0.6198 -0.6647
  414MOL0     O57002   2.476  11.108   7.597 -0.0619  0.4660 -0.0165
  414MOL0     C57003   2.592  11.115   7.509 -0.2557  0.6706 -0.5316
  414MOL0     C57004   2.552  11.057   7.372  0.9283 -0.4992  0.3094
  414MOL0     C57005   2.652  11.054   7.257 -0.2827 -0.0501  0.0969
  414MOL0     C57006   2.774  10.965   7.283  0.1281  0.4476  0.5073
  414MOL0     C57007   2.895  11.014   7.193 -0.2408  0.2532  0.3123
  414MOL0     C57008   3.025  10.921   7.212 -0.8032 -0.0989 -0.2041
  414MOL0     C57009   3.002  10.777   7.153 -0.1519  0.9573  0.0929
  414MOL0     C57010   3.116  10.680   7.183 -0.1883 -0.0567 -0.2662
  414MOL0     N57011   3.128  10.650   7.324  0.4334 -0.0808  0.1368
  414MOL0     C57012   3.178  10.731   7.431 -0.7003 -0.3902 -0.4047
  414MOL0     C57013   3.240  10.647   7.525  0.9264 -0.5053  0.1314
  414MOL0     C57014   3.311  10.684   7.657 -0.1389  0.0339 -0.0581
  414MOL0     C57015   3.451  10.735   7.617 -0.4089  0.3149 -0.1443
  414MOL0     C57016   3.529  10.775   7.739 -0.8829  0.0480 -0.6492
  414MOL0     C57017   3.676  10.793   7.704  0.3011  0.2140  0.0454
  414MOL0     O57018   3.746  10.833   7.813 -0.6658 -0.3472  0.7810
  414MOL0     C57019   3.872  10.886   7.797 -0.6945  0.2725  0.3977
  414MOL0     C57020   3.944  10.912   7.915  0.5625  0.3066 -0.1455
  414MOL0     C57021   4.086  10.942   7.914 -0.5464  0.8765  0.0093
  414MOL0     C57022   4.161  10.953   8.042  0.2025 -0.4087  0.1807
  414MOL0     C57023   4.154  10.954   7.792  0.1028  0.5649 -0.8863
  414MOL0     C57024   4.298  10.984   7.772  0.5505 -0.0871 -0.1034
  414MOL0     O57025   4.369  10.930   7.665  0.4036 -0.2848 -0.0886
  414MOL0     C57026   4.496  10.986   7.658 -0.4364  0.2250 -0.8596
  414MOL0     C57027   4.508  11.117   7.630  0.4562 -0.6966 -0.1580
  414MOL0     C57028   4.635  11.171   7.619 -0.5005  0.4771 -1.4564
  414MOL0     C57029   4.750  11.089   7.632  0.4569  0.8028 -0.1266
  414MOL0     O57030   4.880  11.136   7.619  0.6392 -0.7723 -0.0093
  414MOL0     C57031   4.910  11.270   7.611 -0.6562 -0.5630  0.1184
  414MOL0     C57032   5.055  11.308   7.587 -0.9968 -0.0041 -0.4917
  414MOL0     C57033   5.121  11.286   7.722  0.4523 -1.2508  0.9155
  414MOL0     C57034   5.271  11.296   7.700  0.8152 -0.4452  0.0153
  414MOL0     C57035   5.353  11.313   7.831  0.4689 -0.3354  1.2903
  414MOL0     C57036   5.499  11.324   7.805  1.1496 -0.9885  0.0997
  414MOL0     C57037   5.562  11.196   7.747 -0.3144  0.3581  0.1929
  414MOL0     C57038   5.693  11.230   7.683  0.1487  0.3797 -0.0480
  414MOL0    Cl57039   5.825  11.252   7.798  0.1621  0.1341  0.6125
  414MOL0     C57040   4.736  10.954   7.663 -0.5183 -0.7553  0.0584
  414MOL0     C57041   4.611  10.903   7.683  0.0175 -0.4486 -1.1306
  414MOL0     O57042   4.340  11.063   7.852  0.0102 -0.1464  0.6811
  414MOL0     C57043   4.074  10.944   7.675  0.2542  0.5956  0.0721
  414MOL0     C57044   3.939  10.909   7.678  0.0358  0.2383  0.8432
  414MOL0     N57045   3.205  10.520   7.485 -0.1748 -0.5394  0.2321
  414MOL0     N57046   3.137  10.530   7.379 -0.8721  1.1080 -0.0279
  414MOL0     C57047   2.621  11.160   7.795  0.5121  0.6547  0.9818
  414MOL0     C57048   2.623  11.200   7.931  1.5058 -0.8290  0.9144
  414MOL0     C57049   2.518  11.184   8.373  0.6521  0.2374 -0.9559
  414MOL0     C57050   2.576  11.318   8.369 -0.0506  0.3852 -0.1000
  414MOL0     C57051   2.608  11.382   8.489  0.6884  0.0708  0.1922
  414MOL0     C57052   2.590  11.322   8.614 -0.1095  0.1858 -0.8799
  414MOL0     O57053   2.619  11.362   8.741 -0.3968 -0.3079 -0.1378
  414MOL0     C57054   2.701  11.482   8.756  0.1781  0.5864 -0.2734
  414MOL0     C57055   2.723  11.516   8.910  0.7685 -0.1735  1.2699
  414MOL0     C57056   2.595  11.567   8.983 -0.4837  0.2300  0.1214
  414MOL0     C57057   2.604  11.564   9.142 -0.8138 -0.1788 -0.8110
  414MOL0     C57058   2.471  11.593   9.197  0.0089 -0.3516  0.6955
  414MOL0     C57059   2.354  11.601   9.230  0.1306 -0.2098 -0.8729
  414MOL0     C57060   2.537  11.191   8.617 -0.3158 -1.2924  1.0132
  414MOL0     C57061   2.492  11.130   8.502 -0.3378  0.4960  0.6213
  414MOL0     C57062   2.427  11.000   8.529 -0.1630 -0.0687  0.6906
  414MOL0     H57063   2.295  11.128   8.006  0.4208 -2.7815 -1.7258
  414MOL0     H57064   2.279  11.106   7.758 -1.4609  0.1190  2.1606
  414MOL0     H57065   2.676  11.060   7.553 -0.3969  1.4369  0.7457
  414MOL0     H57066   2.628  11.216   7.484  0.3539  0.4951 -0.3882
  414MOL0     H57067   2.502  10.961   7.381 -0.6737 -0.0846 -2.7037
  414MOL0     H57068   2.477  11.132   7.345  1.3887 -0.5821 -1.3015
  414MOL0     H57069   2.601  11.013   7.170  0.0551 -1.5086  0.5700
  414MOL0     H57070   2.674  11.159   7.235 -0.2140  0.5248  2.5253
  414MOL0     H57071   2.803  10.957   7.388 -1.1990 -0.4915  0.8342
  414MOL0     H57072   2.735  10.867   7.255  4.0076 -0.7664 -1.3265
  414MOL0     H57073   2.923  11.116   7.221  0.4679  0.9195 -2.4712
  414MOL0     H57074   2.863  11.013   7.089 -0.0503 -2.6707  0.1945
  414MOL0     H57075   3.115  10.958   7.162  1.6495 -1.9793  2.4390
  414MOL0     H57076   3.057  10.916   7.316  4.2843 -1.2070 -1.5545
  414MOL0     H57077   2.988  10.775   7.045  2.2826  0.7700 -0.2688
  414MOL0     H57078   2.908  10.733   7.190  0.6361 -1.1354 -0.2217
  414MOL0     H57079   3.103  10.589   7.124 -1.1293 -0.0384 -0.0898
  414MOL0     H57080   3.209  10.723   7.143 -0.0444 -0.9882 -0.9596
  414MOL0     H57081   3.180  10.839   7.443 -2.0506 -0.3360 -0.4978
  414MOL0     H57082   3.316  10.590   7.712  0.5046  0.3613  0.4669
  414MOL0     H57083   3.247  10.754   7.711 -2.8169 -1.6360 -0.8933
  414MOL0     H57084   3.506  10.651   7.572 -0.0104 -0.1266  1.1169
  414MOL0     H57085   3.449  10.813   7.541 -0.8005  3.1062  2.5672
  414MOL0     H57086   3.490  10.866   7.786 -1.8168 -0.4542 -0.4423
  414MOL0     H57087   3.534  10.700   7.818  3.7707  1.2989  0.5965
  414MOL0     H57088   3.706  10.690   7.680 -1.0587  0.0067 -0.9015
  414MOL0     H57089   3.687  10.856   7.615  0.2971 -1.4083 -1.1555
  414MOL0     H57090   3.896  10.897   8.011  1.9557  2.4240  0.9670
  414MOL0     H57091   4.092  10.972   8.126 -0.5620  1.1774 -0.7684
  414MOL0     H57092   4.236  11.031   8.054 -1.0232  0.7234  0.6988
  414MOL0     H57093   4.213  10.861   8.070  1.4920  1.3625  4.4065
  414MOL0     H57094   4.417  11.176   7.628  0.5881 -0.4932 -2.4363
  414MOL0     H57095   4.655  11.276   7.598  6.1216 -0.6646 -3.3998
  414MOL0     H57096   4.867  11.308   7.518  1.5227  2.4045  0.1728
  414MOL0     H57097   4.862  11.337   7.684 -3.6570  0.3553 -2.5186
  414MOL0     H57098   5.106  11.245   7.514  1.7521  0.8564  0.5542
  414MOL0     H57099   5.071  11.411   7.555  0.8483 -0.4234 -1.0194
  414MOL0     H57100   5.097  11.189   7.767  1.3104 -1.9802 -0.1534
  414MOL0     H57101   5.088  11.364   7.792  0.2675  1.1601 -1.6910
  414MOL0     H57102   5.276  11.391   7.646 -1.8255  1.3663  2.6686
  414MOL0     H57103   5.300  11.204   7.648  1.7572 -0.8239  1.1642
  414MOL0     H57104   5.318  11.407   7.874 -1.3517 -1.3888  2.2229
  414MOL0     H57105   5.336  11.230   7.901 -1.7501 -4.1532 -3.2123
  414MOL0     H57106   5.540  11.351   7.903  0.8839  0.2288 -0.1142
  414MOL0     H57107   5.523  11.415   7.750  1.0498  0.3850  2.2343
  414MOL0     H57108   5.500  11.151   7.669 -0.4474  0.6280  0.1416
  414MOL0     H57109   5.577  11.124   7.827 -1.0296 -0.2068 -0.1717
  414MOL0     H57110   5.683  11.315   7.614 -3.3462 -1.7321 -2.5183
  414MOL0     H57111   5.720  11.141   7.625 -0.9653 -0.6497  0.9606
  414MOL0     H57112   4.812  10.883   7.695 -0.4619 -1.3495 -1.3427
  414MOL0     H57113   4.588  10.802   7.716  1.5520  0.2007  2.4687
  414MOL0     H57114   4.111  10.949   7.573 -3.1986  0.6250 -1.2939
  414MOL0     H57115   3.888  10.900   7.583  0.4798 -1.3021  0.7222
  414MOL0     H57116   2.707  11.150   7.730 -1.7243  1.9752 -2.4974
  414MOL0     H57117   2.710  11.243   7.980  1.0359 -0.5764  1.5373
  414MOL0     H57118   2.616  11.361   8.278  0.0646 -0.1165 -0.2865
  414MOL0     H57119   2.657  11.478   8.499  4.5840 -1.9110  2.9128
  414MOL0     H57120   2.800  11.454   8.720 -0.2830  1.1096 -2.0835
  414MOL0     H57121   2.653  11.563   8.700  0.2416 -1.2230 -3.2040
  414MOL0     H57122   2.798  11.595   8.919  1.9265 -0.9288 -0.9082
  414MOL0     H57123   2.763  11.429   8.963  1.1679 -1.8551 -1.5258
  414MOL0     H57124   2.564  11.668   8.955  0.8276  1.0374  1.5057
  414MOL0     H57125   2.506  11.514   8.945  0.4622 -0.9374 -0.5295
  414MOL0     H57126   2.684  11.626   9.183 -2.1088 -0.2937  2.0927
  414MOL0     H57127   2.621  11.460   9.172  2.1104  0.3999 -0.1064
  414MOL0     H57128   2.250  11.605   9.252 -0.2472  2.7183 -2.5954
  414MOL0     H57129   2.523  11.153   8.718 -1.8861 -0.3209  1.1934
  414MOL0     H57130   2.394  11.006   8.633 -1.7383  1.3528  0.1651
  414MOL0     H57131   2.340  10.983   8.465 -1.9246  1.4713  2.5108
  414MOL0     H57132   2.499  10.920   8.514 -0.0262 -0.3123  2.4011
  415MOL0     O57133   6.507   7.694   3.937  1.1127 -0.4244 -0.6732
  415MOL0     C57134   6.592   7.622   3.980 -0.2432 -0.8390 -0.1247
  415MOL0     O57135   6.659   7.640   4.095 -0.1553  0.3975 -0.1093
  415MOL0     C57136   6.632   7.719   4.205  0.4193  0.1002 -0.3089
  415MOL0     C57137   6.728   7.738   4.302  1.4238 -0.3647  0.3512
  415MOL0     C57138   6.689   7.826   4.410 -0.0254  0.0881 -0.5177
  415MOL0     C57139   6.588   7.923   4.407  0.7554 -0.6859  0.3981
  415MOL0     O57140   6.585   8.029   4.497  0.2763  0.0378  0.3695
  415MOL0     C57141   6.488   8.136   4.481 -0.9307  0.5259 -0.2771
  415MOL0     C57142   6.477   8.216   4.610 -0.5465 -0.8025 -1.3058
  415MOL0     C57143   6.383   8.342   4.593 -0.0484  0.2776  0.0037
  415MOL0     C57144   6.456   8.460   4.530  0.1740  1.1846 -0.2942
  415MOL0     C57145   6.351   8.585   4.526  0.2936  0.7789  0.6853
  415MOL0     C57146   6.295   8.646   4.658 -0.0829  0.7319  0.1382
  415MOL0     C57147   6.243   8.782   4.628  1.1072 -0.0227  0.1207
  415MOL0     C57148   6.167   8.845   4.746 -0.9132 -0.2593  0.5787
  415MOL0     N57149   6.246   8.901   4.859  0.3184 -0.8561 -0.3827
  415MOL0     C57150   6.259   9.026   4.893 -0.0080 -0.1988 -0.2964
  415MOL0     C57151   6.295   9.014   5.025 -0.6173  0.2834  0.1424
  415MOL0     C57152   6.332   9.116   5.116  0.0643 -0.5601 -0.4678
  415MOL0     C57153   6.206   9.184   5.178  0.6908  0.3753 -0.0628
  415MOL0     C57154   6.156   9.106   5.299 -0.0368  1.0875 -0.3215
  415MOL0     C57155   6.016   9.151   5.331  0.3262  0.9366  0.5836
  415MOL0     O57156   5.922   9.096   5.240 -0.2748 -0.5706 -0.5016
  415MOL0     C57157   5.786   9.085   5.274 -0.4581  0.0263 -0.5765
  415MOL0     C57158   5.726   9.170   5.372  0.4275 -1.0612  0.4423
  415MOL0     C57159   5.590   9.176   5.391 -0.5269 -0.3298 -0.4883
  415MOL0     C57160   5.549   9.256   5.507 -0.9050 -0.0019 -0.1069
  415MOL0     C57161   5.514   9.097   5.301  0.2167  0.1250  0.8126
  415MOL0     C57162   5.367   9.098   5.297  1.1546  1.1327  0.3982
  415MOL0     O57163   5.306   8.983   5.243  0.7205  0.6124  0.0973
  415MOL0     C57164   5.170   8.972   5.231 -0.1037  0.6867 -0.8144
  415MOL0     C57165   5.087   9.078   5.194  0.3896 -0.7895  0.4375
  415MOL0     C57166   4.958   9.055   5.149  0.3911  0.7413  0.1944
  415MOL0     C57167   4.901   8.927   5.164 -0.5038  0.0930 -0.3631
  415MOL0     O57168   4.776   8.891   5.115  0.3283  0.3066 -0.5629
  415MOL0     C57169   4.676   9.002   5.095 -0.2842 -0.5894  0.1398
  415MOL0     C57170   4.562   8.957   5.011 -0.2443  0.2711  0.7817
  415MOL0     C57171   4.456   8.866   5.087  0.6268  0.4527 -0.3472
  415MOL0     C57172   4.332   8.854   4.988 -0.7770  0.0976 -0.1221
  415MOL0     C57173   4.208   8.814   5.067 -0.6919  0.3714 -0.4367
  415MOL0     C57174   4.083   8.831   4.987  0.4974 -0.7166  0.4332
  415MOL0     C57175   3.957   8.763   5.062  0.2794 -0.2691  0.5248
  415MOL0     C57176   3.831   8.746   4.976  0.0974  0.4212  0.1085
  415MOL0    Cl57177   3.738   8.619   5.061 -0.3655 -0.0415 -0.3754
  415MOL0     C57178   4.983   8.829   5.218 -0.1905 -0.0947 -0.5725
  415MOL0     C57179   5.116   8.850   5.245 -0.1906  0.9232 -0.2439
  415MOL0     O57180   5.305   9.196   5.346  0.0109 -0.3978  0.4581
  415MOL0     C57181   5.577   8.997   5.214  0.0993  0.9337 -0.2648
  415MOL0     C57182   5.711   8.988   5.204 -0.6029  0.6403  0.0920
  415MOL0     N57183   6.322   8.877   5.059 -1.0551 -0.2822 -0.8634
  415MOL0     N57184   6.294   8.814   4.952 -0.6310 -0.1389  0.1441
  415MOL0     C57185   6.501   7.910   4.304  0.2324 -0.0578  0.1695
  415MOL0     C57186   6.518   7.801   4.215 -0.9762  0.0525 -0.2350
  415MOL0     C57187   6.630   7.506   3.902  0.1127  0.1135  0.3357
  415MOL0     C57188   6.751   7.430   3.939  0.0775 -0.2239  0.4217
  415MOL0     C57189   6.802   7.325   3.860 -0.1741 -0.5665 -0.2562
  415MOL0     C57190   6.747   7.289   3.742  0.1634 -0.0829  0.7320
  415MOL0     O57191   6.804   7.196   3.670 -0.3100 -0.6633  0.8344
  415MOL0     C57192   6.728   7.084   3.613 -0.3986  0.3231 -0.2336
  415MOL0     C57193   6.674   6.987   3.725 -0.1138 -0.0420  1.1244
  415MOL0     C57194   6.784   6.924   3.811  0.7100  0.0139  0.7975
  415MOL0     C57195   6.723   6.799   3.889  0.8319 -0.6399  0.1196
  415MOL0     C57196   6.653   6.850   4.009 -0.0467 -0.2378 -0.4697
  415MOL0     C57197   6.584   6.887   4.107 -0.5074  0.7161 -0.0710
  415MOL0     C57198   6.627   7.356   3.704 -0.3867 -0.4559  0.7893
  415MOL0     C57199   6.573   7.465   3.781 -0.1315  0.4031 -0.0207
  415MOL0     C57200   6.452   7.517   3.736  0.8200 -0.3134  0.3037
  415MOL0     H57201   6.822   7.685   4.292  0.5587 -2.0966  0.8091
  415MOL0     H57202   6.764   7.834   4.488  0.9210 -2.5980 -1.0716
  415MOL0     H57203   6.392   8.086   4.465  0.4799 -2.7616  0.6631
  415MOL0     H57204   6.535   8.197   4.403  0.9814  0.5469  0.8371
  415MOL0     H57205   6.432   8.154   4.687 -3.1188 -0.3620 -2.3722
  415MOL0     H57206   6.575   8.253   4.644 -3.2341  1.8132  5.1593
  415MOL0     H57207   6.285   8.319   4.550 -0.4399 -1.7974  1.7986
  415MOL0     H57208   6.351   8.374   4.692 -0.1802 -2.1669  0.8133
  415MOL0     H57209   6.545   8.484   4.590 -0.5523 -1.2646  1.8878
  415MOL0     H57210   6.492   8.420   4.435 -0.2993  0.4397 -0.1628
  415MOL0     H57211   6.264   8.561   4.464  1.6407  2.5427 -2.1221
  415MOL0     H57212   6.404   8.661   4.467 -0.8511  1.1443  0.0965
  415MOL0     H57213   6.211   8.583   4.689  0.4159 -0.9888 -1.7257
  415MOL0     H57214   6.371   8.641   4.737  2.5443 -2.9195 -2.2528
  415MOL0     H57215   6.174   8.782   4.543 -0.5141 -1.4731  1.3649
  415MOL0     H57216   6.326   8.850   4.606  2.0038 -0.7065  1.2841
  415MOL0     H57217   6.106   8.927   4.705 -2.3221 -1.8709 -0.6653
  415MOL0     H57218   6.103   8.765   4.783 -0.7384 -0.0681  1.3104
  415MOL0     H57219   6.248   9.119   4.838  3.4997  1.6944  1.8906
  415MOL0     H57220   6.368   9.199   5.056  0.0553  2.4575  3.3424
  415MOL0     H57221   6.398   9.100   5.201 -1.7423  2.3731  1.6761
  415MOL0     H57222   6.225   9.287   5.207 -0.5641  0.9103 -1.0648
  415MOL0     H57223   6.136   9.193   5.095 -0.6674 -1.6573  0.7607
  415MOL0     H57224   6.164   8.998   5.285 -0.2737  0.7085  2.0512
  415MOL0     H57225   6.221   9.132   5.384  0.9067  0.2061 -0.7598
  415MOL0     H57226   6.001   9.111   5.431  2.1777  0.4132  0.6862
  415MOL0     H57227   6.000   9.258   5.348 -1.6178  0.7569  0.1181
  415MOL0     H57228   5.789   9.232   5.435 -0.3776 -1.7824  1.9993
  415MOL0     H57229   5.490   9.201   5.580  0.2892  1.8338  2.3887
  415MOL0     H57230   5.483   9.337   5.475  1.5990  1.7076 -1.3359
  415MOL0     H57231   5.629   9.294   5.572 -1.9588  1.7851  0.2041
  415MOL0     H57232   5.136   9.175   5.201  2.2332 -1.6819  0.5234
  415MOL0     H57233   4.904   9.140   5.107 -2.9176 -0.3369  1.9300
  415MOL0     H57234   4.642   9.038   5.192 -1.0802 -1.3229  0.1488
  415MOL0     H57235   4.729   9.080   5.041 -2.3011  0.6537 -0.1353
  415MOL0     H57236   4.526   9.047   4.962 -3.6583 -0.0827  2.3638
  415MOL0     H57237   4.598   8.886   4.936 -0.5327  0.5034  0.4205
  415MOL0     H57238   4.432   8.923   5.177  2.3522  1.5899 -0.5595
  415MOL0     H57239   4.503   8.768   5.100  1.8879  0.4302 -3.8829
  415MOL0     H57240   4.355   8.786   4.906  0.9297 -0.2729  0.6230
  415MOL0     H57241   4.314   8.950   4.938  0.4825  0.7799  0.6837
  415MOL0     H57242   4.229   8.707   5.081  1.1413  0.5656 -1.4064
  415MOL0     H57243   4.199   8.866   5.162 -2.7945 -1.1909  0.2882
  415MOL0     H57244   4.091   8.794   4.884 -0.0600  0.1068  0.0867
  415MOL0     H57245   4.074   8.940   4.994 -0.7520 -0.8540  1.3168
  415MOL0     H57246   3.933   8.806   5.159  0.6370  2.3460 -0.4571
  415MOL0     H57247   3.996   8.662   5.076 -0.5410 -0.8460 -1.0705
  415MOL0     H57248   3.876   8.711   4.883  0.9026 -1.0510  0.9999
  415MOL0     H57249   3.781   8.841   4.955  0.7900  0.5841 -0.8949
  415MOL0     H57250   4.944   8.731   5.241 -0.0729  0.2864  1.4360
  415MOL0     H57251   5.173   8.769   5.292 -2.7228 -0.3417  0.8653
  415MOL0     H57252   5.513   8.930   5.158 -0.1812  3.1609 -2.8029
  415MOL0     H57253   5.752   8.910   5.140 -0.6760  1.2959 -0.7757
  415MOL0     H57254   6.414   7.974   4.294  0.3444 -0.1726 -2.3098
  415MOL0     H57255   6.440   7.781   4.143  0.9504 -0.7306 -2.2356
  415MOL0     H57256   6.811   7.452   4.027  1.2775 -1.7993  0.0351
  415MOL0     H57257   6.883   7.259   3.887 -1.7807 -2.4016  0.3723
  415MOL0     H57258   6.658   7.120   3.537  0.4969 -1.7219 -2.1293
  415MOL0     H57259   6.810   7.030   3.566  1.9468  1.5403  2.1762
  415MOL0     H57260   6.618   6.905   3.680 -2.6021  1.2505  1.6921
  415MOL0     H57261   6.597   7.044   3.778 -1.5416  1.2890 -2.1446
  415MOL0     H57262   6.855   6.882   3.739  0.4276  0.0337  0.5056
  415MOL0     H57263   6.821   7.001   3.879 -2.5394  3.5298 -1.0422
  415MOL0     H57264   6.805   6.729   3.909  0.7701 -0.5408  0.7271
  415MOL0     H57265   6.648   6.742   3.834  1.0724 -0.1483 -0.7353
  415MOL0     H57266   6.528   6.911   4.195 -0.4494  0.3574  0.0660
  415MOL0     H57267   6.574   7.314   3.620  2.1891 -1.6844 -0.3413
  415MOL0     H57268   6.377   7.493   3.812 -0.5242  3.9182  0.5972
  415MOL0     H57269   6.462   7.624   3.713  1.2115 -0.6086 -0.9913
  415MOL0     H57270   6.404   7.478   3.646 -2.3935  0.5932  1.4771
  416MOL0     O57271   5.201   5.580   0.348 -0.2937  0.8343  0.4463
  416MOL0     C57272   5.211   5.457   0.351  0.1188 -1.5218  0.3877
  416MOL0     O57273   5.153   5.374   0.256 -0.0134  0.2200  0.3481
  416MOL0     C57274   5.058   5.430   0.175 -0.6950 -0.0751  0.6920
  416MOL0     C57275   5.078   5.441   0.033  0.6878 -0.7812  1.0905
  416MOL0     C57276   4.980   5.495  -0.049  0.2578 -0.2317 -0.2016
  416MOL0     C57277   4.856   5.535   0.004  0.1429  0.1650  0.4535
  416MOL0     O57278   4.761   5.563  -0.087  0.9537 -0.8045  0.4339
  416MOL0     C57279   4.624   5.565  -0.048 -0.1580 -0.3140  0.1690
  416MOL0     C57280   4.538   5.566  -0.179  0.2662 -0.1463  0.1149
  416MOL0     C57281   4.383   5.559  -0.143 -0.2205 -0.0446 -0.5977
  416MOL0     C57282   4.325   5.416  -0.132  0.0500  0.1577  0.5533
  416MOL0     C57283   4.179   5.409  -0.092  0.0407 -0.0678  0.3273
  416MOL0     C57284   4.154   5.467   0.046 -0.5551 -0.2203  0.6592
  416MOL0     C57285   4.014   5.453   0.101  0.2241 -0.5807 -0.1937
  416MOL0     C57286   4.011   5.467   0.250  0.5425 -0.4797  0.3238
  416MOL0     N57287   4.046   5.606   0.283 -0.8029 -1.1049  0.4131
  416MOL0     C57288   4.012   5.727   0.224 -0.9755 -0.3308 -0.1473
  416MOL0     C57289   4.097   5.810   0.280 -0.5772 -0.3615  0.4657
  416MOL0     C57290   4.117   5.955   0.257 -0.2249  0.0908  0.5039
  416MOL0     C57291   4.143   5.992   0.099  0.1297  0.1957  0.1151
  416MOL0     C57292   4.038   6.097   0.051  0.1963 -0.3053  0.8477
  416MOL0     C57293   4.093   6.241   0.090  0.6959 -0.3603 -0.3132
  416MOL0     O57294   4.227   6.267   0.045  1.4423  0.1762  0.5808
  416MOL0     C57295   4.224   6.323  -0.085 -0.4907 -0.1407 -0.0645
  416MOL0     C57296   4.341   6.388  -0.112  0.2841 -0.2255 -0.5397
  416MOL0     C57297   4.369   6.441  -0.234  0.1803 -0.2815  0.4090
  416MOL0     C57298   4.497   6.526  -0.236 -1.0148  0.5675  0.2221
  416MOL0     C57299   4.287   6.407  -0.346 -0.0207  0.5249 -0.5243
  416MOL0     C57300   4.300   6.471  -0.482  0.0807  0.1809  0.7433
  416MOL0     O57301   4.221   6.578  -0.514  0.4735 -0.5239 -0.3480
  416MOL0     C57302   4.192   6.616  -0.643 -0.3452 -0.7348 -1.0747
  416MOL0     C57303   4.297   6.652  -0.739  0.3938 -0.2564 -0.8718
  416MOL0     C57304   4.257   6.682  -0.869 -0.0832  0.6345  0.1928
  416MOL0     C57305   4.122   6.677  -0.908  0.3076 -0.5995  0.5189
  416MOL0     O57306   4.079   6.731  -1.026  0.3573 -0.2069  0.6102
  416MOL0     C57307   4.046   6.636  -1.125 -0.0056  0.4366  0.1467
  416MOL0     C57308   4.074   6.708  -1.269  0.4916 -0.5389  0.5297
  416MOL0     C57309   3.996   6.623  -1.369 -0.4444 -0.3799  0.7130
  416MOL0     C57310   3.997   6.690  -1.508 -1.0349  0.1303  0.3517
  416MOL0     C57311   3.952   6.594  -1.624  0.4205 -0.2326 -0.3083
  416MOL0     C57312   3.939   6.648  -1.766  0.1401  0.8628 -0.0995
  416MOL0     C57313   3.891   6.550  -1.870 -0.6322 -1.0697 -0.1614
  416MOL0     C57314   3.914   6.606  -2.015  0.1594  0.4476 -0.2503
  416MOL0    Cl57315   4.082   6.645  -2.062  0.2181  0.2231 -0.4596
  416MOL0     C57316   4.022   6.650  -0.809 -0.6878 -0.3831  0.9335
  416MOL0     C57317   4.061   6.621  -0.681 -0.0587 -0.1391 -0.4530
  416MOL0     O57318   4.375   6.415  -0.569 -0.1175 -0.1707 -0.2061
  416MOL0     C57319   4.177   6.329  -0.317 -0.0435 -0.3509 -0.7680
  416MOL0     C57320   4.141   6.294  -0.190  0.2243  0.0229  0.5034
  416MOL0     N57321   4.167   5.746   0.380 -0.4063  0.2365  0.7888
  416MOL0     N57322   4.138   5.621   0.380 -0.1118 -0.8889  0.4397
  416MOL0     C57323   4.832   5.513   0.140  0.1076 -0.4690  0.1899
  416MOL0     C57324   4.931   5.467   0.220  0.3628 -0.3587  0.2264
  416MOL0     C57325   5.310   5.405   0.448  0.0457  0.1276  0.0909
  416MOL0     C57326   5.334   5.482   0.565  0.1886  0.7436  0.4792
  416MOL0     C57327   5.407   5.426   0.672 -0.5728  0.3642  0.5951
  416MOL0     C57328   5.489   5.322   0.660  0.0604  0.1387  0.8097
  416MOL0     O57329   5.558   5.274   0.772 -0.3455 -0.3057 -0.0088
  416MOL0     C57330   5.702   5.260   0.739  0.5133 -0.0420 -0.8076
  416MOL0     C57331   5.786   5.232   0.864  0.3200  0.0501  1.0614
  416MOL0     C57332   5.940   5.233   0.839 -0.9094  0.4978  1.1979
  416MOL0     C57333   6.033   5.270   0.956  0.2201  0.1436 -0.8188
  416MOL0     C57334   6.175   5.240   0.931 -0.4927  0.7762 -0.0918
  416MOL0     C57335   6.285   5.197   0.912 -0.9608  0.3163  0.2955
  416MOL0     C57336   5.483   5.251   0.533 -0.2771 -0.1173  0.0589
  416MOL0     C57337   5.399   5.287   0.430  0.8831 -0.2794 -0.3303
  416MOL0     C57338   5.395   5.226   0.293 -0.2589 -0.7735 -1.0538
  416MOL0     H57339   5.177   5.416  -0.004  0.0991 -0.7220 -0.6347
  416MOL0     H57340   5.007   5.503  -0.154 -1.2188  0.5175 -0.5451
  416MOL0     H57341   4.611   5.662   0.002  0.9577  0.0658 -0.2406
  416MOL0     H57342   4.603   5.478   0.014  3.2088 -2.1812 -1.0171
  416MOL0     H57343   4.564   5.657  -0.234 -0.8179  2.4622  3.5721
  416MOL0     H57344   4.574   5.487  -0.246 -1.1092  1.9804 -3.4455
  416MOL0     H57345   4.375   5.604  -0.044 -0.5910  1.4932 -1.2913
  416MOL0     H57346   4.328   5.622  -0.214  1.5448  0.4314 -1.6196
  416MOL0     H57347   4.323   5.367  -0.230 -3.2758  1.4449 -0.1638
  416MOL0     H57348   4.398   5.369  -0.066  2.3175  4.0426  1.0621
  416MOL0     H57349   4.143   5.306  -0.096 -2.2916  0.5448  2.7245
  416MOL0     H57350   4.131   5.468  -0.171  1.8209 -0.7669 -1.3648
  416MOL0     H57351   4.217   5.396   0.099  0.1267 -2.1788 -2.5152
  416MOL0     H57352   4.188   5.570   0.057  1.8975 -0.9226  0.2360
  416MOL0     H57353   3.985   5.354   0.064  1.9896 -0.8064 -1.0891
  416MOL0     H57354   3.943   5.531   0.070  3.8373  2.3922 -1.8656
  416MOL0     H57355   3.909   5.454   0.288  1.4900 -1.8909  2.6673
  416MOL0     H57356   4.068   5.393   0.307  2.7993  1.0788  0.2249
  416MOL0     H57357   3.943   5.767   0.151 -0.5904  1.8456  0.5948
  416MOL0     H57358   4.204   5.990   0.311 -0.5738  1.0964  0.4323
  416MOL0     H57359   4.028   6.001   0.302  1.1416  0.7074  2.7069
  416MOL0     H57360   4.248   6.021   0.090  0.7302 -1.4687  1.3802
  416MOL0     H57361   4.149   5.905   0.032  1.5650  1.7623 -1.9159
  416MOL0     H57362   4.027   6.082  -0.056 -1.2308 -1.2849  1.1009
  416MOL0     H57363   3.939   6.071   0.089 -0.2566 -0.7335 -0.5718
  416MOL0     H57364   4.015   6.317   0.082  1.7040  0.6054 -1.4614
  416MOL0     H57365   4.107   6.236   0.199  4.6573 -1.0234 -0.6987
  416MOL0     H57366   4.413   6.409  -0.034 -0.5754 -0.5487  0.3654
  416MOL0     H57367   4.587   6.463  -0.239 -1.2854  0.1768  0.1345
  416MOL0     H57368   4.498   6.592  -0.149  3.1525 -0.6219  1.3363
  416MOL0     H57369   4.511   6.582  -0.328 -0.9988  2.1047  1.1316
  416MOL0     H57370   4.401   6.646  -0.710  0.2863  0.4338 -0.3186
  416MOL0     H57371   4.325   6.699  -0.951 -3.0347 -1.3742 -2.9313
  416MOL0     H57372   4.107   6.546  -1.127 -1.7453 -0.8438  1.3381
  416MOL0     H57373   3.942   6.602  -1.118 -0.2902  1.2372 -0.0388
  416MOL0     H57374   4.038   6.811  -1.276 -1.8198 -1.3862 -1.4376
  416MOL0     H57375   4.178   6.705  -1.303 -0.2400 -3.2022 -1.8282
  416MOL0     H57376   3.891   6.617  -1.339 -0.1182 -0.2990  1.9140
  416MOL0     H57377   4.031   6.520  -1.375 -0.3058 -0.2993  0.0788
  416MOL0     H57378   4.099   6.723  -1.529 -0.3485 -0.8475  1.9003
  416MOL0     H57379   3.945   6.784  -1.523 -0.1929  0.3020 -1.8857
  416MOL0     H57380   4.007   6.500  -1.633  0.0190 -0.6317  1.0868
  416MOL0     H57381   3.855   6.554  -1.591 -1.9511  4.0098 -1.3836
  416MOL0     H57382   4.039   6.678  -1.800  1.6208 -2.4042  0.9317
  416MOL0     H57383   3.874   6.736  -1.765  4.3166  4.3190  0.1130
  416MOL0     H57384   3.786   6.526  -1.848 -0.5549 -3.5547 -2.0399
  416MOL0     H57385   3.949   6.458  -1.860  1.9501  0.5218  0.2601
  416MOL0     H57386   3.853   6.696  -2.020 -1.0457 -0.1009  2.3896
  416MOL0     H57387   3.871   6.536  -2.087  1.9777 -0.7411 -0.2562
  416MOL0     H57388   3.917   6.641  -0.831 -0.2992 -1.1386 -0.7702
  416MOL0     H57389   3.993   6.598  -0.599  1.6591 -0.5258  0.9269
  416MOL0     H57390   4.115   6.287  -0.395  2.7079 -0.7843 -2.8687
  416MOL0     H57391   4.060   6.221  -0.185  1.3077 -1.3239 -0.7077
  416MOL0     H57392   4.728   5.521   0.173 -1.2683  3.2117 -4.1222
  416MOL0     H57393   4.896   5.433   0.316 -0.7935  1.6459  0.5604
  416MOL0     H57394   5.278   5.575   0.566 -1.8797 -0.4484  0.4755
  416MOL0     H57395   5.391   5.465   0.772 -2.4499 -3.1400  1.8628
  416MOL0     H57396   5.722   5.184   0.662  0.2392 -0.0837 -0.8394
  416MOL0     H57397   5.710   5.357   0.689 -2.8736 -0.1256 -1.8031
  416MOL0     H57398   5.770   5.133   0.908  1.2006 -1.2813 -1.4213
  416MOL0     H57399   5.758   5.305   0.940 -0.1533 -0.8277  1.7350
  416MOL0     H57400   5.969   5.137   0.795 -0.1923 -0.5149  3.6731
  416MOL0     H57401   5.953   5.307   0.760  1.2150  1.2713  2.2046
  416MOL0     H57402   5.997   5.228   1.051 -1.0726  1.3910 -0.7147
  416MOL0     H57403   6.018   5.378   0.966  1.5368  0.4974 -2.3590
  416MOL0     H57404   6.382   5.159   0.887  0.2602  3.9862 -1.2779
  416MOL0     H57405   5.552   5.170   0.511  0.9821  0.4417  1.7193
  416MOL0     H57406   5.391   5.305   0.217 -0.2455 -0.2290 -0.5030
  416MOL0     H57407   5.481   5.163   0.270  0.2863 -0.5941  0.3717
  416MOL0     H57408   5.301   5.171   0.284 -1.8694  1.0588  2.3175
  417MOL0     O57409   8.350  10.483  11.531 -0.1249  0.9085  0.3614
  417MOL0     C57410   8.339  10.594  11.483 -0.3111 -0.3193 -0.9608
  417MOL0     O57411   8.221  10.643  11.437 -0.9986  0.5060  0.6909
  417MOL0     C57412   8.105  10.592  11.489  0.2567 -0.2036 -0.6786
  417MOL0     C57413   8.050  10.478  11.435 -0.6201  0.2506 -0.0905
  417MOL0     C57414   7.920  10.434  11.464 -0.3825 -0.4264 -0.1443
  417MOL0     C57415   7.841  10.503  11.548 -0.3436 -0.0398 -0.2064
  417MOL0     O57416   7.719  10.467  11.585  0.1910  0.0851 -0.0844
  417MOL0     C57417   7.660  10.345  11.533 -0.0562 -0.3185 -0.3708
  417MOL0     C57418   7.519  10.323  11.583 -0.1267 -1.2807  0.5295
  417MOL0     C57419   7.512  10.203  11.681  0.1296  0.1961  0.3334
  417MOL0     C57420   7.589  10.253  11.814  0.7313  0.7535  0.8857
  417MOL0     C57421   7.529  10.178  11.928 -0.4112  0.1417 -0.8274
  417MOL0     C57422   7.571  10.032  11.941  0.4426  0.0494  1.1756
  417MOL0     C57423   7.544   9.968  12.068  0.0078 -0.2947 -1.0339
  417MOL0     C57424   7.403   9.896  12.082 -0.4545  0.3059 -0.5552
  417MOL0     N57425   7.386   9.858  12.225  0.0352  0.2888 -0.0815
  417MOL0     C57426   7.301   9.750  12.267 -0.1177  0.0147  0.9548
  417MOL0     C57427   7.288   9.776  12.394 -0.7799  1.3334 -0.1559
  417MOL0     C57428   7.212   9.685  12.485 -0.1336 -0.3143 -0.0656
  417MOL0     C57429   7.284   9.550  12.477  0.1582 -0.1331 -0.0858
  417MOL0     C57430   7.226   9.459  12.578 -1.0103  0.4106 -0.3013
  417MOL0     C57431   7.081   9.400  12.553  0.5289 -0.2395 -0.6589
  417MOL0     O57432   7.088   9.357  12.416  0.1348  0.3624 -0.0734
  417MOL0     C57433   7.113   9.215  12.396  0.0423 -0.9961 -0.3282
  417MOL0     C57434   7.147   9.179  12.270  0.3807 -0.7715  0.1619
  417MOL0     C57435   7.161   9.039  12.229  0.4796 -0.0276 -0.8310
  417MOL0     C57436   7.192   9.007  12.083  0.1543  0.1187  0.3729
  417MOL0     C57437   7.154   8.946  12.334 -0.0941  1.1907  0.1916
  417MOL0     C57438   7.182   8.801  12.305  0.4009  0.4674  0.0512
  417MOL0     O57439   7.204   8.751  12.177 -0.0749 -0.5694  0.0725
  417MOL0     C57440   7.167   8.626  12.134 -0.6631 -0.4497  0.0726
  417MOL0     C57441   7.098   8.539  12.213  0.1935 -0.2560 -0.3515
  417MOL0     C57442   7.065   8.411  12.153 -0.3254 -0.8423  0.3528
  417MOL0     C57443   7.088   8.386  12.018 -0.2195 -0.1432  0.4043
  417MOL0     O57444   7.029   8.273  11.972  0.0829 -0.0921 -0.1328
  417MOL0     C57445   7.017   8.253  11.828 -0.1349  0.1949  0.0335
  417MOL0     C57446   6.871   8.195  11.797  0.2846 -0.0624 -0.1747
  417MOL0     C57447   6.835   8.062  11.877 -0.8098 -0.3016  0.5231
  417MOL0     C57448   6.711   8.092  11.960  0.1698  0.7663 -0.8159
  417MOL0     C57449   6.664   7.970  12.038 -0.0863  0.6507 -0.1495
  417MOL0     C57450   6.507   7.951  12.038 -0.4287 -0.0024 -0.6872
  417MOL0     C57451   6.488   7.812  11.975  0.0032 -0.3300 -0.6331
  417MOL0     C57452   6.346   7.756  11.998 -1.0342  0.2184 -0.9621
  417MOL0    Cl57453   6.286   7.769  12.160 -0.0607 -0.2577 -0.3300
  417MOL0     C57454   7.163   8.479  11.942  0.2301 -0.4171 -0.5616
  417MOL0     C57455   7.183   8.600  12.003 -0.7036 -0.1853 -0.0274
  417MOL0     O57456   7.187   8.728  12.409 -0.6507  0.5518  0.5720
  417MOL0     C57457   7.110   8.983  12.469 -0.0043  0.5964  0.7133
  417MOL0     C57458   7.086   9.111  12.495  0.9265 -1.0156 -0.5600
  417MOL0     N57459   7.357   9.890  12.439 -0.2298 -0.3889  1.2307
  417MOL0     N57460   7.430   9.929  12.334  0.0407 -0.3356 -0.0958
  417MOL0     C57461   7.899  10.624  11.608  0.8805 -0.2607 -0.3647
  417MOL0     C57462   8.023  10.678  11.561 -0.3748  0.1914  0.7917
  417MOL0     C57463   8.463  10.672  11.460  0.3333  0.3346 -0.2756
  417MOL0     C57464   8.580  10.599  11.444  0.2831  0.0260  1.1275
  417MOL0     C57465   8.693  10.672  11.421 -1.0507 -0.8041  0.3029
  417MOL0     C57466   8.705  10.808  11.414  0.2484 -0.4779  0.6832
  417MOL0     O57467   8.812  10.886  11.383 -0.2455  0.1629 -1.4050
  417MOL0     C57468   8.928  10.896  11.474 -0.0759 -1.2521  0.3846
  417MOL0     C57469   9.015  10.779  11.460 -0.1294  0.7115  0.1778
  417MOL0     C57470   9.083  10.754  11.320  0.0017  0.5636 -0.9643
  417MOL0     C57471   9.165  10.632  11.318 -0.6357  0.4260 -0.0381
  417MOL0     C57472   9.096  10.503  11.335 -0.7341  0.1135  0.1622
  417MOL0     C57473   9.052  10.395  11.336  0.0227 -0.3000  0.1606
  417MOL0     C57474   8.575  10.868  11.420 -0.4598  0.1916 -0.4492
  417MOL0     C57475   8.458  10.809  11.443  0.8278 -0.6031  0.0039
  417MOL0     C57476   8.343  10.898  11.469 -0.3947  0.3898 -0.1910
  417MOL0     H57477   8.108  10.409  11.376 -0.3530 -0.3772  0.8925
  417MOL0     H57478   7.882  10.342  11.421  0.3852  0.0051 -1.8137
  417MOL0     H57479   7.729  10.263  11.555  0.8144  0.3455 -0.6300
  417MOL0     H57480   7.647  10.355  11.425  1.5258  0.5975 -0.5041
  417MOL0     H57481   7.475  10.416  11.621  3.0022  0.9792 -0.9454
  417MOL0     H57482   7.444  10.294  11.508 -1.1242  2.2317  0.0033
  417MOL0     H57483   7.411  10.174  11.713 -0.4595  0.5798 -1.0857
  417MOL0     H57484   7.566  10.127  11.625  1.8609  3.0957 -2.2795
  417MOL0     H57485   7.696  10.231  11.816  0.7005  0.3653 -0.5480
  417MOL0     H57486   7.572  10.360  11.830  0.0998  0.5553  1.5708
  417MOL0     H57487   7.420  10.181  11.935 -0.4712  3.5873 -1.4773
  417MOL0     H57488   7.559  10.225  12.022 -0.4870 -0.6622 -0.3907
  417MOL0     H57489   7.531   9.987  11.850  0.8020  0.9006  0.5872
  417MOL0     H57490   7.680  10.040  11.933  0.4689 -1.7479 -1.4038
  417MOL0     H57491   7.553  10.050  12.140 -0.1717  1.9786 -3.4522
  417MOL0     H57492   7.622   9.891  12.076  2.8287  2.4036 -0.6478
  417MOL0     H57493   7.316   9.956  12.053 -2.3183 -1.7742  0.3813
  417MOL0     H57494   7.379   9.814  12.015  0.0604 -1.7867  1.6697
  417MOL0     H57495   7.266   9.666  12.210  2.1228 -1.3511  1.4597
  417MOL0     H57496   7.110   9.673  12.447  0.0856 -1.0159 -0.4479
  417MOL0     H57497   7.191   9.729  12.583 -0.5488  0.6249 -0.5612
  417MOL0     H57498   7.267   9.501  12.380 -0.1096  0.5051 -0.3648
  417MOL0     H57499   7.387   9.566  12.508  0.5909  3.2555 -2.7428
  417MOL0     H57500   7.298   9.378  12.587 -2.3339 -0.6230  2.0319
  417MOL0     H57501   7.219   9.517  12.671 -2.0678 -1.7618  1.0738
  417MOL0     H57502   7.062   9.321  12.626 -1.5611  2.4319  1.9227
  417MOL0     H57503   7.009   9.481  12.568  1.8306  1.0765 -1.2261
  417MOL0     H57504   7.177   9.255  12.200  4.0968  0.1482  2.4916
  417MOL0     H57505   7.183   9.101  12.028  0.2017  0.9895  1.8088
  417MOL0     H57506   7.134   8.926  12.039  1.8016 -0.9104  0.0239
  417MOL0     H57507   7.298   8.985  12.069 -0.5876 -3.9770 -0.0324
  417MOL0     H57508   7.066   8.550  12.316  0.7595  1.5839 -0.3523
  417MOL0     H57509   7.011   8.340  12.214 -1.5908  0.0569  0.3204
  417MOL0     H57510   7.012   8.353  11.783  1.6008  1.1844  1.8670
  417MOL0     H57511   7.098   8.185  11.801 -1.6674 -1.1944 -1.3095
  417MOL0     H57512   6.793   8.266  11.823  0.4649 -0.8289  2.9020
  417MOL0     H57513   6.854   8.164  11.694  1.3011  2.9504 -1.3537
  417MOL0     H57514   6.908   8.021  11.947 -1.6693 -1.6642  0.6753
  417MOL0     H57515   6.820   7.979  11.806 -2.3256  0.6611 -0.3508
  417MOL0     H57516   6.628   8.117  11.894 -1.8725  1.8612  1.9477
  417MOL0     H57517   6.727   8.174  12.031 -1.3434  0.5805 -0.2165
  417MOL0     H57518   6.721   7.887  11.996  0.5518  1.0833 -0.1425
  417MOL0     H57519   6.701   7.982  12.140  2.0217  0.7483 -0.8826
  417MOL0     H57520   6.451   8.035  11.995 -0.6253  1.3728  2.0598
  417MOL0     H57521   6.474   7.952  12.142 -1.4198  0.1176 -0.9910
  417MOL0     H57522   6.552   7.742  12.029 -0.3379 -1.1403 -1.2654
  417MOL0     H57523   6.511   7.799  11.869 -0.7709 -2.6785 -0.5724
  417MOL0     H57524   6.348   7.654  11.961  0.7520 -0.0155 -0.3038
  417MOL0     H57525   6.278   7.812  11.932 -0.8823 -0.5198 -1.7649
  417MOL0     H57526   7.204   8.470  11.841  3.9433  4.4284  0.1403
  417MOL0     H57527   7.223   8.689  11.955 -0.0165  1.6490  3.5906
  417MOL0     H57528   7.093   8.905  12.542  5.6478 -1.0524  0.7765
  417MOL0     H57529   7.044   9.124  12.593  0.8170 -2.3826 -0.4008
  417MOL0     H57530   7.830  10.685  11.666 -2.2074 -0.1041 -3.8252
  417MOL0     H57531   8.067  10.772  11.595 -1.6543  1.1235 -0.0245
  417MOL0     H57532   8.584  10.490  11.448  2.7319 -0.4123 -4.3756
  417MOL0     H57533   8.789  10.621  11.416 -1.2300 -1.0603 -0.7341
  417MOL0     H57534   8.973  10.988  11.435 -0.7272 -1.6940 -1.5121
  417MOL0     H57535   8.886  10.910  11.575 -1.1686  2.6943 -0.4291
  417MOL0     H57536   8.962  10.688  11.491 -0.3991  0.6528 -0.4379
  417MOL0     H57537   9.092  10.785  11.537  0.6040 -3.3174 -0.0151
  417MOL0     H57538   9.008  10.741  11.242 -1.5087  0.3909  0.4687
  417MOL0     H57539   9.138  10.844  11.289 -2.2806  2.5775  0.4315
  417MOL0     H57540   9.235  10.633  11.402 -1.6452  2.2329  0.8365
  417MOL0     H57541   9.225  10.623  11.228 -1.8895 -0.4312 -0.8180
  417MOL0     H57542   9.001  10.301  11.327  0.8515 -0.5562 -2.3574
  417MOL0     H57543   8.588  10.975  11.410 -0.0409 -0.0587 -3.3150
  417MOL0     H57544   8.290  10.923  11.377  0.4342  1.1861 -0.4692
  417MOL0     H57545   8.270  10.862  11.542 -0.4267 -0.6349 -0.7068
  417MOL0     H57546   8.381  10.993  11.509  0.7553 -0.0383 -0.2202
  418MOL0     O57547   7.365   9.766   3.350  0.2652 -0.1649 -0.5785
  418MOL0     C57548   7.318   9.810   3.239 -0.7921  0.4914  0.5113
  418MOL0     O57549   7.399   9.858   3.138  0.0997 -0.5021 -0.6535
  418MOL0     C57550   7.542   9.875   3.158 -0.2463 -0.1393 -0.3263
  418MOL0     C57551   7.637   9.784   3.108 -1.3473  0.9122  0.8685
  418MOL0     C57552   7.774   9.812   3.106 -0.5095  0.1974 -0.6846
  418MOL0     C57553   7.825   9.933   3.162  0.1363  0.9589  0.0998
  418MOL0     O57554   7.955   9.940   3.139  0.2840  0.4980  0.0873
  418MOL0     C57555   8.018  10.069   3.140 -0.2085  0.2341 -0.9849
  418MOL0     C57556   8.164  10.057   3.110 -0.1898  0.1298 -0.3814
  418MOL0     C57557   8.222   9.919   3.140 -0.6017 -0.1985 -1.3554
  418MOL0     C57558   8.378   9.923   3.167  0.6911 -0.3658  0.6187
  418MOL0     C57559   8.478   9.982   3.062 -1.2595 -0.0376 -0.2742
  418MOL0     C57560   8.616  10.003   3.125 -0.5051 -0.6930  0.7118
  418MOL0     C57561   8.710  10.074   3.036 -0.1770  0.7863  0.7033
  418MOL0     C57562   8.845  10.110   3.089 -0.2871 -1.6217 -0.6615
  418MOL0     N57563   8.932  10.003   3.143 -0.2112  1.0415 -0.7379
  418MOL0     C57564   9.046  10.030   3.207  0.7141  1.1791 -0.3241
  418MOL0     C57565   9.095   9.915   3.247 -0.4379  0.3225  0.2305
  418MOL0     C57566   9.225   9.914   3.327 -0.0797 -0.3705 -0.0810
  418MOL0     C57567   9.202   9.847   3.465 -0.1247  0.0094 -0.7562
  418MOL0     C57568   9.124   9.933   3.562  0.1156 -0.1077  0.4332
  418MOL0     C57569   9.122   9.881   3.705  0.3584  0.8507  0.0959
  418MOL0     O57570   9.035   9.979   3.767 -0.7495 -0.4528  0.0623
  418MOL0     C57571   8.977   9.939   3.878  0.3909 -0.3989 -0.7692
  418MOL0     C57572   9.006   9.829   3.962 -0.0351  0.2969 -0.0776
  418MOL0     C57573   8.950   9.804   4.083 -0.7668  0.8379  0.6623
  418MOL0     C57574   8.992   9.678   4.155  1.1950  0.2289  0.7625
  418MOL0     C57575   8.860   9.896   4.139  0.6509 -0.4582  0.0991
  418MOL0     C57576   8.803   9.887   4.278 -1.1982 -0.6779 -0.1352
  418MOL0     O57577   8.716   9.991   4.307 -0.7001 -0.0875  0.0404
  418MOL0     C57578   8.623   9.984   4.405 -0.6639 -1.0606 -0.5638
  418MOL0     C57579   8.587   9.888   4.500 -0.0873 -0.5161  0.4849
  418MOL0     C57580   8.496   9.909   4.603 -0.4300  0.8215  0.2455
  418MOL0     C57581   8.428  10.026   4.610 -0.4208  0.5068  0.4112
  418MOL0     O57582   8.327  10.045   4.702 -0.4520 -0.3485  0.6533
  418MOL0     C57583   8.199  10.086   4.645  0.9133  1.3240  0.2750
  418MOL0     C57584   8.160  10.232   4.660  0.0083  0.6162  0.2255
  418MOL0     C57585   8.163  10.285   4.796 -0.0922  0.6423 -0.4273
  418MOL0     C57586   8.022  10.294   4.859  0.1904 -0.2364 -0.3419
  418MOL0     C57587   8.025  10.285   5.012  0.3525 -0.8998  0.3920
  418MOL0     C57588   7.882  10.306   5.050 -0.1404 -0.0835 -0.4737
  418MOL0     C57589   7.857  10.304   5.199  0.0554 -0.2958  0.3809
  418MOL0     C57590   7.833  10.168   5.266  0.4556 -0.5170 -0.2181
  418MOL0    Cl57591   7.679  10.100   5.200  0.4930  0.0194  0.1137
  418MOL0     C57592   8.459  10.128   4.518  1.3231  0.2979  0.3445
  418MOL0     C57593   8.558  10.108   4.420  0.5459 -0.2897  0.2662
  418MOL0     O57594   8.836   9.798   4.355  0.3019 -0.7935  0.0503
  418MOL0     C57595   8.838  10.008   4.061 -0.0161  0.9749  0.5780
  418MOL0     C57596   8.890  10.030   3.935 -0.2862  0.7635 -0.2400
  418MOL0     N57597   9.026   9.812   3.188 -0.8310  0.1427  0.1748
  418MOL0     N57598   8.931   9.863   3.126  0.4262 -0.4855 -0.8546
  418MOL0     C57599   7.733  10.022   3.213 -1.3183 -0.1992 -0.5692
  418MOL0     C57600   7.598   9.992   3.207 -0.3845 -0.7976 -0.4027
  418MOL0     C57601   7.177   9.784   3.213 -0.4647  1.5554  0.3524
  418MOL0     C57602   7.102   9.683   3.287  0.0876 -0.7464 -0.3970
  418MOL0     C57603   6.964   9.676   3.266  0.2902 -0.2810 -0.7663
  418MOL0     C57604   6.893   9.747   3.173  0.5228 -1.0254  0.6992
  418MOL0     O57605   6.760   9.757   3.134 -0.2256  0.2450  0.3557
  418MOL0     C57606   6.670   9.658   3.188 -0.0977  0.0427  0.5825
  418MOL0     C57607   6.521   9.716   3.153 -0.3084  0.2887 -0.4317
  418MOL0     C57608   6.484   9.857   3.215  0.0839 -0.1935 -0.2981
  418MOL0     C57609   6.393   9.938   3.124  1.0007 -0.0355  0.6744
  418MOL0     C57610   6.260   9.872   3.122  1.1460 -0.2957  0.2755
  418MOL0     C57611   6.144   9.835   3.128  0.0470  1.0706  0.1515
  418MOL0     C57612   6.974   9.834   3.092  0.8069 -0.9360 -0.0430
  418MOL0     C57613   7.108   9.849   3.110 -0.0834  0.3395  0.2813
  418MOL0     C57614   7.170   9.948   3.008  0.7390  0.2050  0.9150
  418MOL0     H57615   7.607   9.690   3.063 -3.7471  0.7530  2.6468
  418MOL0     H57616   7.835   9.740   3.052  0.0583 -0.7380  1.1317
  418MOL0     H57617   8.000  10.123   3.233  4.1471  3.1741 -1.5065
  418MOL0     H57618   7.973  10.142   3.072  0.1656  3.5937  2.1103
  418MOL0     H57619   8.165  10.058   3.001  0.7096 -0.9945 -0.3990
  418MOL0     H57620   8.224  10.143   3.140  3.5261 -2.0217 -1.0894
  418MOL0     H57621   8.174   9.871   3.226  1.6825 -3.0328 -1.5004
  418MOL0     H57622   8.209   9.850   3.055 -1.5316 -0.0049 -1.3849
  418MOL0     H57623   8.390   9.970   3.265  0.0584 -1.2064  1.1115
  418MOL0     H57624   8.399   9.816   3.160 -1.4754 -0.7810 -0.4519
  418MOL0     H57625   8.443  10.080   3.026  1.3283  0.9148 -0.4399
  418MOL0     H57626   8.505   9.911   2.984 -1.2618  0.1145 -0.4159
  418MOL0     H57627   8.606  10.069   3.212 -1.7046  1.7169 -1.1470
  418MOL0     H57628   8.656   9.904   3.149 -0.5146 -1.0853 -0.7746
  418MOL0     H57629   8.659  10.162   2.996 -3.7844 -0.9112  1.2309
  418MOL0     H57630   8.729   9.999   2.959  2.5167  1.1899  0.8768
  418MOL0     H57631   8.894  10.177   3.018 -2.1232  1.5210  0.8475
  418MOL0     H57632   8.824  10.187   3.164  1.8026  1.1972 -2.7504
  418MOL0     H57633   9.084  10.117   3.260  3.1717 -2.1622  4.1009
  418MOL0     H57634   9.264  10.017   3.331  1.0944 -0.5182 -3.8212
  418MOL0     H57635   9.302   9.851   3.281 -0.2857 -1.1710  0.6486
  418MOL0     H57636   9.149   9.754   3.445 -0.0251  0.1160 -1.5487
  418MOL0     H57637   9.297   9.815   3.510 -1.4230 -0.2846  2.0320
  418MOL0     H57638   9.169  10.033   3.568  2.0286 -0.9451  0.7514
  418MOL0     H57639   9.019   9.937   3.530 -0.7735  0.5957  3.1362
  418MOL0     H57640   9.075   9.783   3.713  2.4914 -0.1959  0.6918
  418MOL0     H57641   9.220   9.867   3.753 -0.6404 -0.1066  1.9387
  418MOL0     H57642   9.057   9.743   3.919  0.1045  0.9750 -1.3240
  418MOL0     H57643   8.905   9.613   4.165  1.5299 -0.0575  2.0775
  418MOL0     H57644   9.034   9.700   4.254  0.6961  0.5469  0.9071
  418MOL0     H57645   9.078   9.630   4.107  2.4780  3.7167 -0.7256
  418MOL0     H57646   8.644   9.796   4.509  0.5876 -0.1758 -0.1817
  418MOL0     H57647   8.477   9.826   4.670  0.2192 -1.0879 -1.8045
  418MOL0     H57648   8.181  10.065   4.540 -3.5372 -2.1256  1.4438
  418MOL0     H57649   8.132  10.021   4.702  3.5558 -3.7593 -1.8543
  418MOL0     H57650   8.234  10.299   4.616 -0.9474  4.4798  3.8367
  418MOL0     H57651   8.062  10.250   4.614 -1.0034 -0.3893  1.8710
  418MOL0     H57652   8.207  10.386   4.803  1.4832 -0.0645  0.5351
  418MOL0     H57653   8.238  10.229   4.852 -0.7312  1.1547  0.9930
  418MOL0     H57654   7.962  10.206   4.833  1.8123 -1.6970  0.6421
  418MOL0     H57655   7.988  10.387   4.814  3.0823  1.6231  1.0321
  418MOL0     H57656   8.057  10.186   5.047 -0.0822 -0.8644  0.9101
  418MOL0     H57657   8.093  10.364   5.044 -0.0670 -0.6566  0.6838
  418MOL0     H57658   7.829  10.223   5.004  1.7964 -0.7687 -1.6166
  418MOL0     H57659   7.846  10.400   5.008 -1.6215  0.9867  2.8590
  418MOL0     H57660   7.771  10.370   5.214  0.2165  0.0195 -0.0506
  418MOL0     H57661   7.942  10.349   5.252  0.9686 -0.6764 -0.7117
  418MOL0     H57662   7.841  10.164   5.375  1.1941 -0.8424 -0.2780
  418MOL0     H57663   7.913  10.109   5.220  3.0405  2.4395  0.1428
  418MOL0     H57664   8.397  10.217   4.513 -3.0754 -2.4032  1.1369
  418MOL0     H57665   8.586  10.192   4.356  0.8463  3.2810  4.5793
  418MOL0     H57666   8.766  10.086   4.086 -1.2708 -0.5778  2.1101
  418MOL0     H57667   8.877  10.123   3.881  1.6594  1.6748  0.7595
  418MOL0     H57668   7.780  10.106   3.264 -1.4185  0.1899 -1.1090
  418MOL0     H57669   7.531  10.076   3.223  2.3873  1.6225 -0.7203
  418MOL0     H57670   7.143   9.630   3.371 -3.2575 -3.0624 -0.0378
  418MOL0     H57671   6.902   9.613   3.328 -1.5724  3.0944  1.1161
  418MOL0     H57672   6.694   9.558   3.151 -1.8218 -0.8394  1.6829
  418MOL0     H57673   6.686   9.655   3.297 -0.6786 -1.1339  0.6457
  418MOL0     H57674   6.447   9.639   3.174 -1.0217  0.5971 -1.7169
  418MOL0     H57675   6.506   9.735   3.046 -3.0582 -0.8929 -0.3414
  418MOL0     H57676   6.439   9.851   3.315  1.9258 -2.8293  0.4843
  418MOL0     H57677   6.573   9.917   3.238 -0.9506  0.3413  2.7325
  418MOL0     H57678   6.435   9.941   3.023 -1.4462 -2.4881 -0.5481
  418MOL0     H57679   6.372  10.036   3.166 -1.8475 -0.0096 -0.5639
  418MOL0     H57680   6.043   9.799   3.120  0.3242 -0.3176  2.0593
  418MOL0     H57681   6.925   9.876   3.005 -0.9500  0.5005  1.5308
  418MOL0     H57682   7.221   9.891   2.931 -2.1657 -1.2776 -0.0883
  418MOL0     H57683   7.087   9.987   2.948  2.2855 -1.3713 -2.5155
  418MOL0     H57684   7.234  10.022   3.057 -0.1410  0.9139  1.0257
  419MOL0     O57685  10.061   6.206   4.559 -0.1617 -0.2532  0.4700
  419MOL0     C57686  10.013   6.120   4.637  0.0447 -0.6437  0.7475
  419MOL0     O57687  10.006   6.120   4.777  0.0526  0.2722  0.4971
  419MOL0     C57688  10.066   6.218   4.854  0.0394  0.6115 -0.3743
  419MOL0     C57689  10.014   6.226   4.984  0.2369  0.2878  0.4071
  419MOL0     C57690  10.053   6.322   5.079 -1.0788  0.1488 -0.0792
  419MOL0     C57691  10.158   6.406   5.052 -0.4785  0.4804 -0.0286
  419MOL0     O57692  10.222   6.481   5.144  0.5724 -0.9761 -0.1386
  419MOL0     C57693  10.144   6.530   5.253  0.8833  0.2526 -0.5257
  419MOL0     C57694  10.031   6.621   5.206  0.5807  0.1074 -0.5576
  419MOL0     C57695  10.074   6.716   5.099 -0.1367  0.8329  0.4427
  419MOL0     C57696   9.958   6.803   5.047  0.0128 -1.0425 -0.1623
  419MOL0     C57697   9.996   6.907   4.940 -0.2530 -0.0394 -1.3690
  419MOL0     C57698  10.128   6.979   4.977 -0.5590 -1.4728  0.6261
  419MOL0     C57699  10.142   7.094   4.881  0.2851 -0.3299  0.1934
  419MOL0     C57700  10.153   7.069   4.730 -0.3003 -0.8739 -0.7148
  419MOL0     N57701  10.290   7.020   4.700 -0.5189  0.2599 -0.7939
  419MOL0     C57702  10.337   6.886   4.667  0.3574 -0.3370  0.8153
  419MOL0     C57703  10.460   6.905   4.609  0.2732  0.7420  0.4337
  419MOL0     C57704  10.542   6.808   4.540 -0.2068  0.0446  0.8613
  419MOL0     C57705  10.692   6.809   4.584 -0.2597 -0.2797  0.1999
  419MOL0     C57706  10.763   6.679   4.521  0.0647 -0.3143  0.2607
  419MOL0     C57707  10.917   6.695   4.528  1.1933  0.4941  0.5931
  419MOL0     O57708  10.929   6.811   4.438 -0.7157  0.9458  0.3291
  419MOL0     C57709  11.057   6.872   4.416  1.1492  0.1237  0.3126
  419MOL0     C57710  11.171   6.859   4.498  0.0592  1.0457 -0.5690
  419MOL0     C57711  11.285   6.938   4.473 -0.6387  0.4297  0.6254
  419MOL0     C57712  11.372   6.954   4.598 -0.6505  0.2704 -0.8830
  419MOL0     C57713  11.299   7.012   4.349  1.5075  0.4210  0.1054
  419MOL0     C57714  11.410   7.095   4.306 -0.5295  0.7660  0.2818
  419MOL0     O57715  11.415   7.148   4.182  0.1268  0.0923  0.6613
  419MOL0     C57716  11.539   7.204   4.148  0.5307  0.0628  0.4630
  419MOL0     C57717  11.561   7.344   4.132 -1.8117 -0.1482 -0.7631
  419MOL0     C57718  11.672   7.395   4.089 -0.9039 -0.0693 -0.3777
  419MOL0     C57719  11.779   7.319   4.053  0.1065  1.1375  0.2132
  419MOL0     O57720  11.897   7.372   4.005  0.0641 -0.0831 -0.3074
  419MOL0     C57721  12.015   7.343   4.076 -0.5091 -0.0747  0.1110
  419MOL0     C57722  12.138   7.377   3.988 -0.6606  0.9341 -0.0838
  419MOL0     C57723  12.116   7.299   3.858  0.9818 -0.3453 -1.1010
  419MOL0     C57724  12.223   7.326   3.751 -1.1864  0.4819 -0.3040
  419MOL0     C57725  12.223   7.230   3.637 -1.1077  0.2855 -0.3438
  419MOL0     C57726  12.327   7.275   3.536  0.1808  0.3672  0.4421
  419MOL0     C57727  12.467   7.279   3.572 -0.7038  0.4285  0.3745
  419MOL0     C57728  12.569   7.252   3.460  0.7187 -0.6028  0.1644
  419MOL0    Cl57729  12.570   7.386   3.343  0.1481 -0.2208  0.6451
  419MOL0     C57730  11.769   7.177   4.065 -0.2324  0.0902 -0.1956
  419MOL0     C57731  11.644   7.119   4.111 -0.0777 -0.1695 -1.2063
  419MOL0     O57732  11.499   7.114   4.392  0.2318  0.5605  0.3767
  419MOL0     C57733  11.187   6.989   4.260 -0.0960  0.2705 -0.0214
  419MOL0     C57734  11.071   6.927   4.292  0.2241  0.7509 -0.3292
  419MOL0     N57735  10.491   7.039   4.621  0.4423 -0.1761 -0.4502
  419MOL0     N57736  10.400   7.102   4.673  0.3831  0.1586  0.3805
  419MOL0     C57737  10.215   6.404   4.922 -0.1822 -0.3559 -0.6000
  419MOL0     C57738  10.174   6.307   4.827 -0.6739  0.0648  0.3204
  419MOL0     C57739   9.959   5.991   4.573 -0.6674 -0.1944 -0.4285
  419MOL0     C57740   9.858   5.912   4.648 -0.9376 -0.1589  0.6129
  419MOL0     C57741   9.812   5.800   4.588  0.3587  0.6327  0.1391
  419MOL0     C57742   9.832   5.764   4.457  0.9302  0.0750 -0.5855
  419MOL0     O57743   9.760   5.656   4.394 -0.5645  0.5202  0.0884
  419MOL0     C57744   9.849   5.557   4.342 -0.2678  0.3429 -0.6673
  419MOL0     C57745   9.800   5.412   4.387 -0.0466  0.6024  0.7082
  419MOL0     C57746   9.669   5.357   4.317 -0.5103  0.2809 -0.2265
  419MOL0     C57747   9.611   5.225   4.369  0.7121 -0.8299  0.3975
  419MOL0     C57748   9.516   5.161   4.269  0.0468 -0.1692  0.3699
  419MOL0     C57749   9.438   5.103   4.195  0.3077 -1.1976 -0.2482
  419MOL0     C57750   9.929   5.832   4.386  0.1750 -0.0680 -0.5842
  419MOL0     C57751  10.000   5.938   4.441 -0.1275  0.4572 -0.4153
  419MOL0     C57752  10.099   6.013   4.355  0.3818 -0.3957 -0.0522
  419MOL0     H57753   9.930   6.166   5.017  1.4997 -1.5214  0.4903
  419MOL0     H57754  10.000   6.334   5.173 -2.1074  0.3549 -0.6755
  419MOL0     H57755  10.205   6.588   5.323 -0.0060 -0.7403  1.1604
  419MOL0     H57756  10.109   6.446   5.314  0.7795  0.9981  0.4668
  419MOL0     H57757   9.959   6.552   5.162 -2.1041  1.8515  0.8380
  419MOL0     H57758   9.982   6.670   5.290 -2.0101  0.7856 -2.3306
  419MOL0     H57759  10.139   6.780   5.158 -0.8160  0.2616  1.8458
  419MOL0     H57760  10.108   6.662   5.010  0.4043  1.1719  0.4404
  419MOL0     H57761   9.871   6.750   5.010  0.7289 -0.7681 -2.3867
  419MOL0     H57762   9.928   6.855   5.138  5.1011  2.0321  0.1920
  419MOL0     H57763   9.917   6.981   4.933 -1.7084 -1.3607  0.3349
  419MOL0     H57764  10.002   6.860   4.841 -1.3137  2.3646 -2.6651
  419MOL0     H57765  10.126   7.020   5.078 -1.0494  0.0542  0.0360
  419MOL0     H57766  10.218   6.921   4.958 -0.7815 -0.9563 -2.6474
  419MOL0     H57767  10.234   7.144   4.912  0.5843 -1.8488  1.8644
  419MOL0     H57768  10.055   7.155   4.907 -1.4833 -2.3707 -0.7011
  419MOL0     H57769  10.059   7.018   4.709 -3.1062  2.9744  1.3656
  419MOL0     H57770  10.150   7.162   4.673  1.0756  0.8817  1.8832
  419MOL0     H57771  10.279   6.795   4.669 -2.5348  1.3535 -0.5430
  419MOL0     H57772  10.524   6.840   4.436  2.3725  0.9843  0.6288
  419MOL0     H57773  10.493   6.711   4.556 -3.8675  1.6232  0.2529
  419MOL0     H57774  10.743   6.902   4.560 -1.5099  0.9754  2.0962
  419MOL0     H57775  10.708   6.793   4.691 -0.1541 -0.4543  0.1592
  419MOL0     H57776  10.731   6.591   4.578  0.6699 -0.4827  0.3411
  419MOL0     H57777  10.722   6.670   4.420  0.1850 -0.5908  0.2344
  419MOL0     H57778  10.941   6.713   4.633  1.1974  0.0723  0.6676
  419MOL0     H57779  10.968   6.603   4.497  0.8891  0.6270 -0.3307
  419MOL0     H57780  11.172   6.805   4.592  0.9398  2.2038  0.1115
  419MOL0     H57781  11.440   6.869   4.614  1.6013  1.5559 -3.0351
  419MOL0     H57782  11.306   6.958   4.685  1.3152  0.7252  0.6797
  419MOL0     H57783  11.439   7.040   4.605  0.0152 -0.1866 -1.4682
  419MOL0     H57784  11.481   7.407   4.169 -0.7296 -0.1397  1.8386
  419MOL0     H57785  11.685   7.503   4.092 -1.7735  0.0156  0.9168
  419MOL0     H57786  12.033   7.407   4.164  1.6174  0.0051 -0.3443
  419MOL0     H57787  12.030   7.236   4.095  1.0486  0.0095 -0.5155
  419MOL0     H57788  12.129   7.486   3.991  2.3430  1.2579 -0.3837
  419MOL0     H57789  12.235   7.347   4.027 -1.1123 -1.6422 -0.7473
  419MOL0     H57790  12.017   7.316   3.813  0.3065  0.0635  0.4835
  419MOL0     H57791  12.132   7.195   3.888 -1.4360 -1.1519 -2.2804
  419MOL0     H57792  12.324   7.330   3.791 -1.0947 -2.1247 -0.0408
  419MOL0     H57793  12.197   7.425   3.714  1.7588  1.4192 -0.1122
  419MOL0     H57794  12.252   7.132   3.674 -0.6371  1.3650  2.3979
  419MOL0     H57795  12.120   7.210   3.605 -0.5738 -3.7287 -0.0337
  419MOL0     H57796  12.301   7.377   3.510 -3.1430 -1.1776 -3.2412
  419MOL0     H57797  12.325   7.219   3.442 -0.8074 -1.0266  1.2569
  419MOL0     H57798  12.492   7.209   3.652  1.6026  1.4880  0.6762
  419MOL0     H57799  12.477   7.380   3.612 -3.9520  1.7100 -1.6527
  419MOL0     H57800  12.544   7.159   3.408 -1.1769 -0.5806  0.9285
  419MOL0     H57801  12.660   7.232   3.516 -0.8963 -1.0129  2.8294
  419MOL0     H57802  11.849   7.107   4.040 -2.9643 -3.6934  0.6496
  419MOL0     H57803  11.634   7.013   4.134 -1.1379  0.2742  0.5980
  419MOL0     H57804  11.197   7.050   4.170  3.2985 -0.0822 -0.0047
  419MOL0     H57805  10.983   6.948   4.232  1.3396  1.6485 -1.7313
  419MOL0     H57806  10.295   6.471   4.894 -2.2707  1.0177 -3.8302
  419MOL0     H57807  10.243   6.289   4.745 -1.4945 -1.2298 -0.1084
  419MOL0     H57808   9.823   5.952   4.742  2.3864  3.6710  0.5255
  419MOL0     H57809   9.733   5.748   4.641 -0.9892  1.7305 -0.7408
  419MOL0     H57810   9.856   5.556   4.233 -0.3803  3.8356 -0.7954
  419MOL0     H57811   9.954   5.566   4.373 -1.0770 -0.0399  2.5173
  419MOL0     H57812   9.770   5.421   4.491 -1.3821  0.0230  0.3917
  419MOL0     H57813   9.875   5.333   4.374 -0.0334  0.3406  2.2423
  419MOL0     H57814   9.596   5.433   4.345  0.0615  0.0012  2.2390
  419MOL0     H57815   9.680   5.351   4.208 -1.8866 -1.0400 -0.3243
  419MOL0     H57816   9.558   5.257   4.459  3.3455  3.7155  0.6298
  419MOL0     H57817   9.683   5.148   4.399  0.6828 -0.1632  2.3018
  419MOL0     H57818   9.366   5.050   4.136  0.1338  1.6599 -2.8457
  419MOL0     H57819   9.955   5.795   4.287 -1.5586 -0.6753 -0.8556
  419MOL0     H57820  10.193   6.001   4.410  1.0873  2.7313 -0.3914
  419MOL0     H57821  10.110   5.953   4.264  2.3486 -0.0624 -0.0808
  419MOL0     H57822  10.078   6.116   4.325  0.0375  0.6146  3.3188
  420MOL0     O57823   9.452   5.689   2.456 -1.1253  0.3296  0.2555
  420MOL0     C57824   9.558   5.686   2.403  0.1453  0.4542  0.3265
  420MOL0     O57825   9.581   5.744   2.285  0.0279 -0.3751 -0.4936
  420MOL0     C57826   9.477   5.781   2.199 -0.6956  0.0492 -0.2625
  420MOL0     C57827   9.342   5.752   2.210 -1.1225  0.7359  0.2951
  420MOL0     C57828   9.246   5.807   2.128 -0.4288  1.3380 -0.2138
  420MOL0     C57829   9.282   5.912   2.030 -0.6896  0.3133 -0.6619
  420MOL0     O57830   9.178   5.972   1.963 -0.1434  0.4502  0.1972
  420MOL0     C57831   9.217   6.055   1.850 -0.1809 -0.0731  0.2244
  420MOL0     C57832   9.100   6.105   1.762 -0.6589 -0.6829  0.4840
  420MOL0     C57833   8.975   6.141   1.861 -0.4672 -0.5636 -0.7868
  420MOL0     C57834   8.852   6.141   1.785 -0.5409 -0.2830  0.0917
  420MOL0     C57835   8.833   6.243   1.678  0.1585  0.1913 -0.1060
  420MOL0     C57836   8.683   6.249   1.653  0.5028 -0.3517 -1.1601
  420MOL0     C57837   8.635   6.343   1.545 -0.1814 -0.4354 -0.3774
  420MOL0     C57838   8.660   6.492   1.565  0.8781 -0.1108 -0.5864
  420MOL0     N57839   8.613   6.525   1.702 -0.8994 -0.1405  0.1639
  420MOL0     C57840   8.694   6.587   1.792  0.5594  0.3160  0.3193
  420MOL0     C57841   8.616   6.609   1.895  0.6584  0.2429  0.6608
  420MOL0     C57842   8.659   6.670   2.032  0.0312 -1.0617 -0.3646
  420MOL0     C57843   8.677   6.820   2.007  0.4331 -0.0890  0.8724
  420MOL0     C57844   8.749   6.904   2.112 -0.2472  0.4386  0.8670
  420MOL0     C57845   8.798   7.052   2.075  0.0718  0.0127 -0.0876
  420MOL0     O57846   8.721   7.101   1.963  0.4752  1.7772 -0.5599
  420MOL0     C57847   8.617   7.182   1.995  0.4211  0.2828  0.6864
  420MOL0     C57848   8.571   7.228   2.122 -1.2416 -0.0431  0.2125
  420MOL0     C57849   8.447   7.302   2.138  0.7509 -0.0073  0.0730
  420MOL0     C57850   8.397   7.333   2.273  0.5377  0.4615  0.1105
  420MOL0     C57851   8.373   7.341   2.022  0.0254  0.6840  1.3772
  420MOL0     C57852   8.236   7.421   2.022 -0.4081 -0.3100 -0.0304
  420MOL0     O57853   8.192   7.470   1.900 -0.3196  0.2772  0.0224
  420MOL0     C57854   8.058   7.514   1.897 -0.6871 -0.6763 -0.7100
  420MOL0     C57855   7.989   7.596   1.991  0.1739  0.9335 -0.6487
  420MOL0     C57856   7.864   7.657   1.968 -0.4100  0.1528 -0.6718
  420MOL0     C57857   7.802   7.625   1.853 -1.8000 -0.4721 -0.9151
  420MOL0     O57858   7.672   7.653   1.841 -0.2074 -1.3578 -0.4902
  420MOL0     C57859   7.636   7.792   1.842 -0.0670  0.0608 -0.0023
  420MOL0     C57860   7.646   7.854   1.699  0.5755  0.4038 -0.9890
  420MOL0     C57861   7.554   7.969   1.707 -0.2732 -0.0400  0.2096
  420MOL0     C57862   7.575   8.075   1.603 -0.1571  0.3400  0.6828
  420MOL0     C57863   7.493   8.197   1.642  0.3980  1.2076  0.4976
  420MOL0     C57864   7.342   8.172   1.648  0.7523 -0.4185 -0.5676
  420MOL0     C57865   7.253   8.299   1.671  0.4211  0.3826 -0.4100
  420MOL0     C57866   7.283   8.352   1.812 -0.0056  0.4022 -0.1814
  420MOL0    Cl57867   7.252   8.251   1.946  0.0498 -0.1461 -0.4437
  420MOL0     C57868   7.860   7.539   1.763 -0.6546  0.7890  0.2267
  420MOL0     C57869   7.988   7.483   1.788  0.8729 -0.6497  0.7282
  420MOL0     O57870   8.181   7.437   2.129  0.5458  0.4706 -0.8750
  420MOL0     C57871   8.433   7.305   1.901  0.1866  0.6856 -0.9928
  420MOL0     C57872   8.543   7.229   1.886  0.9311  0.5089 -1.0950
  420MOL0     N57873   8.488   6.563   1.866 -0.2507 -0.2568 -0.7531
  420MOL0     N57874   8.483   6.517   1.748  0.4452  0.4054  1.1140
  420MOL0     C57875   9.413   5.948   2.026 -0.0809  0.7859  0.7030
  420MOL0     C57876   9.511   5.889   2.106  0.4692 -0.3847  0.0613
  420MOL0     C57877   9.656   5.596   2.458  0.1270  1.6871  1.0613
  420MOL0     C57878   9.602   5.501   2.549  0.2774 -0.9683 -0.8325
  420MOL0     C57879   9.699   5.405   2.604  1.1068 -0.0585 -0.1262
  420MOL0     C57880   9.819   5.395   2.547  0.5349  0.5999 -0.7840
  420MOL0     O57881   9.886   5.298   2.605 -0.2088 -0.3508 -0.3755
  420MOL0     C57882  10.018   5.268   2.554  0.5111 -0.2193 -0.8230
  420MOL0     C57883  10.121   5.387   2.588 -0.2506 -0.0975 -0.5557
  420MOL0     C57884  10.099   5.443   2.729 -0.4141  0.4492 -0.8255
  420MOL0     C57885  10.152   5.585   2.744 -0.6720 -0.1705  0.3067
  420MOL0     C57886  10.058   5.682   2.690 -1.0987 -0.5914  0.5704
  420MOL0     C57887   9.982   5.772   2.666 -0.3725  0.3629  0.5285
  420MOL0     C57888   9.848   5.465   2.431  0.5712  0.0518 -0.1324
  420MOL0     C57889   9.772   5.571   2.392 -0.3907  0.1199  0.2358
  420MOL0     C57890   9.824   5.654   2.270 -0.2235 -0.8580 -0.3649
  420MOL0     H57891   9.315   5.674   2.281  1.5751 -0.6766 -0.0801
  420MOL0     H57892   9.144   5.776   2.145 -0.2285  0.4543 -0.5770
  420MOL0     H57893   9.294   5.997   1.798  0.7312  1.3012 -0.0116
  420MOL0     H57894   9.266   6.148   1.883 -0.4199  0.3207 -0.5150
  420MOL0     H57895   9.139   6.185   1.698 -0.4622 -1.8986 -0.9700
  420MOL0     H57896   9.066   6.027   1.693 -0.1330 -2.8984  2.5722
  420MOL0     H57897   8.975   6.071   1.945  3.3443  0.3579  0.2155
  420MOL0     H57898   8.992   6.236   1.914  2.0477 -1.2512 -0.2271
  420MOL0     H57899   8.843   6.045   1.735  1.7775 -1.2963  1.4605
  420MOL0     H57900   8.776   6.161   1.862 -0.4164 -0.2009  0.1938
  420MOL0     H57901   8.872   6.223   1.577 -1.4617  0.5776 -0.8336
  420MOL0     H57902   8.879   6.331   1.723  3.0469 -0.6351 -1.2195
  420MOL0     H57903   8.676   6.144   1.624  1.7191 -1.7611  2.9801
  420MOL0     H57904   8.621   6.259   1.742  0.7654 -0.4449 -0.9654
  420MOL0     H57905   8.527   6.330   1.534  0.1901 -3.6631 -1.2020
  420MOL0     H57906   8.675   6.313   1.448 -1.5048 -1.8631 -0.5198
  420MOL0     H57907   8.764   6.510   1.536 -0.1607  0.8222 -4.2694
  420MOL0     H57908   8.596   6.549   1.497  3.9999  2.2305 -1.8196
  420MOL0     H57909   8.801   6.604   1.787  0.8489 -1.4429 -0.3042
  420MOL0     H57910   8.761   6.632   2.048  0.7298  0.7832 -0.1761
  420MOL0     H57911   8.585   6.657   2.111 -2.0887  0.8101 -1.8865
  420MOL0     H57912   8.733   6.825   1.913 -1.9708 -2.9310 -0.8995
  420MOL0     H57913   8.580   6.859   1.973  0.0335 -0.7496  1.2246
  420MOL0     H57914   8.678   6.921   2.193  0.0740 -0.9538  1.4696
  420MOL0     H57915   8.838   6.850   2.142 -0.6632 -1.6727 -1.3303
  420MOL0     H57916   8.817   7.130   2.149  2.2011  0.9788 -1.5442
  420MOL0     H57917   8.894   7.050   2.022 -0.2045 -1.2302 -0.5775
  420MOL0     H57918   8.632   7.209   2.210  3.5281  2.0232 -2.2094
  420MOL0     H57919   8.311   7.268   2.293 -1.1622  1.8123 -2.3241
  420MOL0     H57920   8.362   7.436   2.289 -4.8670 -0.7450 -1.7775
  420MOL0     H57921   8.476   7.305   2.343  1.5438  0.6680 -0.9184
  420MOL0     H57922   8.041   7.616   2.084 -1.0113  4.5153 -0.6150
  420MOL0     H57923   7.815   7.727   2.035 -1.9535 -2.0495  0.6613
  420MOL0     H57924   7.531   7.783   1.871 -0.2715  0.4596 -0.5889
  420MOL0     H57925   7.677   7.851   1.925 -1.1461  3.4474 -1.6811
  420MOL0     H57926   7.753   7.872   1.681  1.5560 -2.0351  1.6537
  420MOL0     H57927   7.604   7.797   1.615  0.5087 -1.8716  0.5022
  420MOL0     H57928   7.555   8.012   1.808 -1.1194  0.2640  0.0968
  420MOL0     H57929   7.448   7.940   1.709 -0.6941  1.4297  0.4016
  420MOL0     H57930   7.542   8.032   1.508  0.8273 -0.2044  0.5669
  420MOL0     H57931   7.680   8.100   1.587 -0.0652 -2.1777 -4.8974
  420MOL0     H57932   7.532   8.227   1.740 -0.2618  2.5072  0.3730
  420MOL0     H57933   7.513   8.278   1.571  0.4805  0.2294 -0.6383
  420MOL0     H57934   7.329   8.104   1.733  2.1915  0.5725  0.4801
  420MOL0     H57935   7.306   8.126   1.555 -0.1493  0.4539 -0.6694
  420MOL0     H57936   7.145   8.288   1.661  0.3344 -2.3143  2.0992
  420MOL0     H57937   7.288   8.365   1.591 -0.4112  0.4831 -0.6969
  420MOL0     H57938   7.233   8.448   1.827 -1.5040 -0.6880  2.4085
  420MOL0     H57939   7.386   8.380   1.837 -0.0804 -0.7849  1.6665
  420MOL0     H57940   7.817   7.520   1.665  0.3412 -0.5482  0.0070
  420MOL0     H57941   8.031   7.419   1.712 -2.1623 -1.6147 -0.3280
  420MOL0     H57942   8.388   7.326   1.804 -1.5731 -1.2430 -0.6442
  420MOL0     H57943   8.581   7.186   1.794  3.0363 -1.1775  0.4585
  420MOL0     H57944   9.446   6.031   1.964  2.6747 -1.4481 -1.0434
  420MOL0     H57945   9.613   5.923   2.090  0.2046  1.5779  2.0223
  420MOL0     H57946   9.500   5.505   2.585  0.9938  0.5817  1.2102
  420MOL0     H57947   9.664   5.346   2.689  2.6897 -0.1760  0.4777
  420MOL0     H57948  10.054   5.179   2.605  0.1627 -2.2737 -3.8823
  420MOL0     H57949  10.013   5.237   2.449 -0.4750 -0.5583 -0.6914
  420MOL0     H57950  10.110   5.471   2.519  1.6847  0.9670  0.3535
  420MOL0     H57951  10.226   5.361   2.578 -0.3421 -0.4975 -0.4784
  420MOL0     H57952   9.996   5.441   2.765  0.0736  3.0783  1.0360
  420MOL0     H57953  10.150   5.383   2.804  1.4933  3.6616  0.6496
  420MOL0     H57954  10.233   5.583   2.670 -3.0182 -3.3840 -2.5250
  420MOL0     H57955  10.180   5.609   2.847 -1.5749 -0.4490  0.6189
  420MOL0     H57956   9.916   5.848   2.629 -0.0997  0.7011  0.7358
  420MOL0     H57957   9.942   5.447   2.381  0.3912 -2.9736  0.4414
  420MOL0     H57958   9.826   5.758   2.303  1.6185 -1.4940  1.7553
  420MOL0     H57959   9.926   5.630   2.241  0.2011  0.6971 -0.2793
  420MOL0     H57960   9.756   5.637   2.186 -1.4349 -0.9338  0.5991
  421MOL0     O57961   1.906   5.200   7.490 -0.4219 -0.0918  0.9164
  421MOL0     C57962   1.960   5.309   7.488 -0.6348 -0.3980 -0.7515
  421MOL0     O57963   2.093   5.327   7.513  0.0205 -0.3410 -0.2255
  421MOL0     C57964   2.164   5.204   7.515 -0.2323 -0.7008 -0.3845
  421MOL0     C57965   2.251   5.192   7.621  0.0747 -0.2004 -0.0768
  421MOL0     C57966   2.330   5.080   7.629  0.4132  0.8887 -0.1173
  421MOL0     C57967   2.317   4.971   7.547 -0.3587 -0.4294 -0.2978
  421MOL0     O57968   2.403   4.859   7.556 -0.3991 -1.1657 -0.6543
  421MOL0     C57969   2.361   4.738   7.474  0.3699 -0.5064 -0.4494
  421MOL0     C57970   2.389   4.618   7.567 -0.0531 -0.5405  1.0561
  421MOL0     C57971   2.356   4.476   7.514 -0.0453  0.0095 -0.3538
  421MOL0     C57972   2.201   4.445   7.510 -1.0180  0.0659 -0.0245
  421MOL0     C57973   2.178   4.297   7.455  0.5921 -0.8044  0.5806
  421MOL0     C57974   2.234   4.193   7.547  0.4732  0.4688 -0.6466
  421MOL0     C57975   2.211   4.059   7.474 -0.3944  1.1180 -0.1817
  421MOL0     C57976   2.218   3.942   7.580 -0.2086 -0.8425 -0.6364
  421MOL0     N57977   2.262   3.815   7.527  0.0167 -0.0417  0.4636
  421MOL0     C57978   2.377   3.813   7.462  1.1695 -0.1347  0.1813
  421MOL0     C57979   2.387   3.694   7.404 -0.3422 -0.2623  0.3801
  421MOL0     C57980   2.489   3.653   7.292 -0.8466  0.5728 -0.7429
  421MOL0     C57981   2.555   3.768   7.210  0.4230 -0.2278  0.0673
  421MOL0     C57982   2.639   3.711   7.095  0.6846  0.5761  0.6467
  421MOL0     C57983   2.687   3.839   7.019 -0.6094  0.0619 -0.3336
  421MOL0     O57984   2.792   3.780   6.940  0.1657  0.9671 -0.6270
  421MOL0     C57985   2.827   3.818   6.815  0.3471  1.2993  0.7163
  421MOL0     C57986   2.934   3.754   6.762 -0.5282  0.8404  0.6633
  421MOL0     C57987   2.975   3.776   6.634  0.7622  0.6977 -0.7134
  421MOL0     C57988   3.091   3.692   6.593 -0.7367 -0.8163 -0.0887
  421MOL0     C57989   2.911   3.868   6.548 -0.5864  1.1157  0.1645
  421MOL0     C57990   2.957   3.906   6.414  0.3008 -0.3672  0.5323
  421MOL0     O57991   2.866   3.987   6.350  0.2572 -0.3636  0.5510
  421MOL0     C57992   2.905   4.054   6.234  0.6080  0.7157 -0.6005
  421MOL0     C57993   3.018   4.131   6.226  0.6096 -0.9315 -0.2838
  421MOL0     C57994   3.044   4.199   6.107  0.3804 -0.3856 -0.5366
  421MOL0     C57995   2.956   4.194   5.999 -0.9800 -1.0785 -0.0033
  421MOL0     O57996   2.977   4.262   5.878 -0.1746 -0.9036  0.4068
  421MOL0     C57997   3.101   4.332   5.855  0.1778  1.1694  0.3774
  421MOL0     C57998   3.103   4.394   5.721 -0.2280 -0.3269 -0.2644
  421MOL0     C57999   3.226   4.472   5.696 -0.3174 -0.1323  0.4639
  421MOL0     C58000   3.270   4.484   5.547  0.0915 -0.2870  0.6347
  421MOL0     C58001   3.386   4.582   5.535  0.1093  0.6172  0.0678
  421MOL0     C58002   3.453   4.560   5.397 -0.3834 -0.7366  1.1701
  421MOL0     C58003   3.551   4.650   5.343 -0.6707 -0.8847 -1.2498
  421MOL0     C58004   3.609   4.591   5.216 -0.6659 -0.1337 -0.3178
  421MOL0    Cl58005   3.489   4.594   5.091  0.1210 -0.2085 -0.0872
  421MOL0     C58006   2.842   4.124   6.002 -0.9914 -0.9750 -0.7212
  421MOL0     C58007   2.807   4.055   6.131 -0.1048 -0.3046  0.5346
  421MOL0     O58008   3.060   3.862   6.367  0.1200 -0.0614 -0.2356
  421MOL0     C58009   2.796   3.935   6.600  0.4761  0.0630 -0.0046
  421MOL0     C58010   2.748   3.897   6.731  0.1578  0.5778  0.4008
  421MOL0     N58011   2.279   3.620   7.440  0.1612  0.1783  1.0933
  421MOL0     N58012   2.201   3.694   7.514  0.4611  0.0902  0.0816
  421MOL0     C58013   2.232   4.984   7.436 -0.1115 -0.1461 -1.1357
  421MOL0     C58014   2.152   5.102   7.425  0.5283  0.5599 -0.7910
  421MOL0     C58015   1.874   5.421   7.462 -0.3875 -0.1359 -0.0944
  421MOL0     C58016   1.808   5.486   7.565  0.3472 -0.2317 -0.4345
  421MOL0     C58017   1.724   5.587   7.536 -0.9079 -0.3750 -0.5699
  421MOL0     C58018   1.697   5.628   7.405 -0.5328 -0.5047 -0.3472
  421MOL0     O58019   1.620   5.738   7.370  0.5547 -0.0517 -0.5355
  421MOL0     C58020   1.597   5.827   7.472  0.2560 -0.0994  0.2003
  421MOL0     C58021   1.507   5.933   7.417  0.3366 -0.0821  0.3674
  421MOL0     C58022   1.372   5.862   7.374 -0.4520 -0.0151  1.0454
  421MOL0     C58023   1.247   5.941   7.410  0.9719  0.1086 -0.0805
  421MOL0     C58024   1.239   5.980   7.546 -0.5505  0.0599 -0.1664
  421MOL0     C58025   1.233   5.988   7.666 -0.8776  1.1740 -0.4456
  421MOL0     C58026   1.741   5.545   7.300  0.7845  0.0766 -0.8296
  421MOL0     C58027   1.834   5.449   7.330  0.6659 -0.2360 -0.0676
  421MOL0     C58028   1.901   5.388   7.211  0.3522  0.8668 -0.1753
  421MOL0     H58029   2.254   5.264   7.702 -1.2100  0.7355 -0.8353
  421MOL0     H58030   2.385   5.068   7.722  1.4632  1.3624 -0.6635
  421MOL0     H58031   2.423   4.719   7.386  2.6711  1.8993  0.5020
  421MOL0     H58032   2.257   4.733   7.443  0.4317  1.3280 -1.0659
  421MOL0     H58033   2.497   4.620   7.584  0.3374  0.4942 -1.1866
  421MOL0     H58034   2.330   4.624   7.658 -0.4830 -1.6068  0.8665
  421MOL0     H58035   2.413   4.455   7.424 -0.6866  0.0134 -0.7631
  421MOL0     H58036   2.399   4.405   7.585  1.8559 -0.9268 -2.3263
  421MOL0     H58037   2.172   4.456   7.615 -1.4996 -3.6692  0.3579
  421MOL0     H58038   2.146   4.518   7.450  0.2198 -1.7204 -3.6168
  421MOL0     H58039   2.227   4.288   7.358 -1.8133 -1.2944 -0.6615
  421MOL0     H58040   2.071   4.278   7.438  0.8624 -1.6631 -0.1930
  421MOL0     H58041   2.342   4.198   7.562  0.4638  1.2332 -0.7918
  421MOL0     H58042   2.184   4.200   7.644  0.7728  0.0365 -0.4599
  421MOL0     H58043   2.272   4.047   7.384 -3.0235 -0.9144 -1.8792
  421MOL0     H58044   2.106   4.056   7.441 -0.1958 -0.8161 -0.7238
  421MOL0     H58045   2.278   3.980   7.662 -1.9055 -1.0575  0.7723
  421MOL0     H58046   2.119   3.943   7.627 -1.1371  0.3773 -2.5066
  421MOL0     H58047   2.433   3.907   7.457  1.6315 -0.3544  1.0907
  421MOL0     H58048   2.434   3.588   7.224 -1.9098 -1.5669  1.9580
  421MOL0     H58049   2.579   3.614   7.338 -0.1329  2.8089 -0.1044
  421MOL0     H58050   2.464   3.815   7.170 -0.5243 -2.6594 -0.8012
  421MOL0     H58051   2.608   3.835   7.279  5.4299  1.1568 -4.4048
  421MOL0     H58052   2.735   3.662   7.117  1.1363  2.2232  2.7522
  421MOL0     H58053   2.591   3.654   7.015  0.9210  1.0659  0.1506
  421MOL0     H58054   2.603   3.883   6.965 -0.7488 -1.1232 -1.1091
  421MOL0     H58055   2.725   3.918   7.085  2.9484 -0.9587 -0.9108
  421MOL0     H58056   2.984   3.684   6.828 -0.6704  4.3165  4.8939
  421MOL0     H58057   3.167   3.667   6.668  2.5195  1.9159 -2.2045
  421MOL0     H58058   3.159   3.753   6.534  0.5105 -0.1400  1.9458
  421MOL0     H58059   3.061   3.607   6.531 -0.1072 -1.6782  0.7547
  421MOL0     H58060   3.087   4.146   6.308 -0.8919 -1.7896  1.2029
  421MOL0     H58061   3.135   4.257   6.097 -1.6707  3.3664  0.6034
  421MOL0     H58062   3.111   4.415   5.925  0.3317  1.5001 -0.0285
  421MOL0     H58063   3.185   4.263   5.864 -0.8709 -0.0718  0.8776
  421MOL0     H58064   3.079   4.319   5.645  2.2710 -0.5641 -0.9049
  421MOL0     H58065   3.021   4.467   5.728  0.8624  1.1603 -2.1500
  421MOL0     H58066   3.310   4.418   5.741  2.2995  0.6522 -3.0591
  421MOL0     H58067   3.230   4.572   5.740  1.1969 -0.6767  1.6490
  421MOL0     H58068   3.191   4.521   5.481  1.6794  1.8695 -0.1868
  421MOL0     H58069   3.300   4.381   5.525 -1.7323 -1.5341  3.3795
  421MOL0     H58070   3.348   4.685   5.541 -1.0905  0.1195  1.8935
  421MOL0     H58071   3.439   4.575   5.631 -0.9990  2.5055  0.8707
  421MOL0     H58072   3.374   4.541   5.323 -0.0437 -2.4524  1.2016
  421MOL0     H58073   3.516   4.473   5.417  1.2600 -0.1407 -0.9228
  421MOL0     H58074   3.633   4.661   5.415  0.4077  0.8009 -2.6742
  421MOL0     H58075   3.514   4.749   5.318 -0.0303  0.7346  3.2277
  421MOL0     H58076   3.632   4.486   5.234 -2.2273 -0.1662  1.9217
  421MOL0     H58077   3.701   4.647   5.194 -0.9052  0.5123  0.2758
  421MOL0     H58078   2.779   4.130   5.914 -2.4552  4.1730  0.3151
  421MOL0     H58079   2.718   3.994   6.144 -0.1604 -0.0056  1.7305
  421MOL0     H58080   2.737   4.006   6.544  2.0744  2.7899  1.5464
  421MOL0     H58081   2.664   3.952   6.772  1.7106  3.0631  0.4415
  421MOL0     H58082   2.241   4.902   7.366 -0.5291 -2.2257  1.1223
  421MOL0     H58083   2.089   5.113   7.337 -0.7784 -0.2206  0.0118
  421MOL0     H58084   1.828   5.447   7.664  2.8107 -1.0451 -1.1740
  421MOL0     H58085   1.688   5.647   7.619  0.6698 -0.5328  0.2681
  421MOL0     H58086   1.548   5.782   7.559  1.1397  1.4020  1.5316
  421MOL0     H58087   1.689   5.868   7.514  1.0610 -2.1191  0.5254
  421MOL0     H58088   1.544   5.997   7.337  2.5401  0.0917  1.4289
  421MOL0     H58089   1.493   6.013   7.490  1.1489  1.0266 -0.6653
  421MOL0     H58090   1.383   5.884   7.267 -0.0923  1.3268  1.3377
  421MOL0     H58091   1.354   5.757   7.400 -0.0255 -0.2123  0.5647
  421MOL0     H58092   1.154   5.890   7.386  1.2992 -1.5217  1.8638
  421MOL0     H58093   1.244   6.032   7.349 -2.7431  0.4430  0.4100
  421MOL0     H58094   1.236   5.997   7.772  4.8012  1.3854 -0.3139
  421MOL0     H58095   1.713   5.579   7.200 -1.2531 -0.9918 -0.6804
  421MOL0     H58096   1.825   5.358   7.139  0.6535  0.1282 -0.1983
  421MOL0     H58097   1.972   5.461   7.171  2.4437  0.1922  2.0823
  421MOL0     H58098   1.954   5.294   7.230 -0.2681  0.4556 -0.4578
  422MOL0     O58099  10.347   4.778  11.347 -0.6336  0.3290  0.4643
  422MOL0     C58100  10.451   4.733  11.396 -0.6550 -0.1510 -0.0346
  422MOL0     O58101  10.472   4.604  11.437  0.4169  0.0207  0.0168
  422MOL0     C58102  10.361   4.518  11.427  0.1133  0.0157 -0.3937
  422MOL0     C58103  10.384   4.433  11.328  0.0808  0.6309  0.3214
  422MOL0     C58104  10.296   4.321  11.314 -0.0912  0.6372  0.7616
  422MOL0     C58105  10.179   4.309  11.401  0.4003  0.6044  0.4207
  422MOL0     O58106  10.080   4.214  11.391  0.3357 -0.9095 -0.0783
  422MOL0     C58107  10.065   4.147  11.271  0.6515  0.4689  0.8114
  422MOL0     C58108   9.964   4.037  11.297  0.1960 -0.0438 -0.4335
  422MOL0     C58109  10.036   3.932  11.396  0.4471  0.0372 -0.1753
  422MOL0     C58110   9.975   3.955  11.533 -0.6583 -0.4038  0.3672
  422MOL0     C58111  10.040   3.861  11.641 -0.9273  0.1081 -0.0681
  422MOL0     C58112   9.959   3.855  11.774  0.0855 -0.1096  0.4842
  422MOL0     C58113  10.037   3.791  11.884  0.3461 -0.3164 -0.7138
  422MOL0     C58114   9.961   3.796  12.018 -1.2510 -0.1297 -0.1580
  422MOL0     N58115   9.847   3.710  12.025 -0.2090 -0.1755 -0.2788
  422MOL0     C58116   9.846   3.575  12.022 -0.6013 -0.5081 -0.0272
  422MOL0     C58117   9.712   3.546  12.035 -0.1516  0.1838  1.4296
  422MOL0     C58118   9.659   3.407  12.053 -0.0675 -0.1096 -0.6839
  422MOL0     C58119   9.511   3.400  12.075 -0.3938  0.0880 -0.4189
  422MOL0     C58120   9.464   3.254  12.107 -0.7438 -0.8981  0.0196
  422MOL0     C58121   9.312   3.238  12.099 -0.0884  0.2294 -1.2969
  422MOL0     O58122   9.265   3.276  11.973 -0.2906  0.6378 -0.0477
  422MOL0     C58123   9.157   3.211  11.923 -0.3590 -0.6398  0.7838
  422MOL0     C58124   9.134   3.229  11.784  0.1819  0.1702  0.3045
  422MOL0     C58125   9.022   3.175  11.719  0.5302  0.5197  0.1724
  422MOL0     C58126   9.008   3.202  11.570 -1.3133  0.0752 -0.3183
  422MOL0     C58127   8.936   3.084  11.789  0.3531 -0.1271  0.3358
  422MOL0     C58128   8.827   3.013  11.730 -0.3979  1.0866 -0.9105
  422MOL0     O58129   8.783   2.890  11.780 -0.6126  0.8453  0.8837
  422MOL0     C58130   8.713   2.808  11.697 -0.0036  0.0474 -0.5346
  422MOL0     C58131   8.588   2.768  11.743 -0.2022  0.0879 -0.1365
  422MOL0     C58132   8.525   2.665  11.684  0.0931  0.6444  0.0167
  422MOL0     C58133   8.577   2.597  11.572  0.5693 -0.3057  1.1153
  422MOL0     O58134   8.511   2.482  11.533  0.2239  0.3581 -0.3883
  422MOL0     C58135   8.491   2.461  11.390 -0.4754  0.5391  1.0898
  422MOL0     C58136   8.368   2.535  11.339  1.0787  0.1395 -0.0087
  422MOL0     C58137   8.326   2.526  11.193  0.0053  0.1763  0.4197
  422MOL0     C58138   8.280   2.392  11.149  0.4292  0.1909  0.0566
  422MOL0     C58139   8.258   2.376  11.005  0.7954  0.0880  0.1136
  422MOL0     C58140   8.166   2.271  10.945  0.2754  1.1023  0.2991
  422MOL0     C58141   8.177   2.126  11.007  0.0008 -0.0011 -0.2991
  422MOL0     C58142   8.133   2.015  10.910  0.8134 -0.4185  0.8654
  422MOL0    Cl58143   8.257   2.001  10.791  0.0733  0.3940 -0.1059
  422MOL0     C58144   8.695   2.657  11.516 -0.0304  0.5758 -0.1553
  422MOL0     C58145   8.771   2.756  11.578 -0.5794  1.1434 -0.9587
  422MOL0     O58146   8.778   3.071  11.634 -0.5001 -0.0685  0.2642
  422MOL0     C58147   8.965   3.055  11.923 -0.1062  0.4889  0.4656
  422MOL0     C58148   9.068   3.126  11.990 -0.2312 -1.0909  0.3257
  422MOL0     N58149   9.642   3.666  12.043 -0.7487  0.3312 -0.6075
  422MOL0     N58150   9.727   3.765  12.047 -0.5397 -0.4925 -0.1452
  422MOL0     C58151  10.153   4.414  11.496  0.7880  0.2828  0.4091
  422MOL0     C58152  10.242   4.517  11.497 -0.0652 -0.5318 -0.2008
  422MOL0     C58153  10.565   4.817  11.418  0.4920  0.4256  0.4041
  422MOL0     C58154  10.653   4.784  11.523 -0.1124 -0.9264  0.3381
  422MOL0     C58155  10.767   4.861  11.553  0.3683 -0.1195 -0.0107
  422MOL0     C58156  10.792   4.973  11.481 -0.0326 -0.3367  0.8319
  422MOL0     O58157  10.899   5.052  11.511  0.5531  0.6346 -0.1874
  422MOL0     C58158  10.927   5.172  11.432  0.2238 -0.7337  0.5975
  422MOL0     C58159  11.060   5.206  11.489  1.3333  1.2741 -0.2779
  422MOL0     C58160  11.106   5.350  11.454  0.2297  0.1050 -0.4535
  422MOL0     C58161  11.142   5.366  11.305  0.0566  0.5314  0.7373
  422MOL0     C58162  11.253   5.273  11.271  0.3763 -0.2761 -0.3397
  422MOL0     C58163  11.339   5.198  11.240  0.9524  0.1046 -0.5016
  422MOL0     C58164  10.703   5.001  11.371 -0.1555  0.1577 -0.2259
  422MOL0     C58165  10.597   4.920  11.331  0.7626 -0.2218 -0.3948
  422MOL0     C58166  10.530   4.957  11.207 -0.9424  0.7647 -0.1085
  422MOL0     H58167  10.461   4.442  11.251 -3.5105 -0.0250 -3.7679
  422MOL0     H58168  10.314   4.245  11.239 -3.0318  1.5967 -1.1008
  422MOL0     H58169  10.157   4.097  11.240 -1.3603 -4.3012  1.6339
  422MOL0     H58170  10.035   4.205  11.184  0.9672 -0.8539 -0.2178
  422MOL0     H58171   9.866   4.069  11.333  0.9671  1.9430  0.0054
  422MOL0     H58172   9.962   3.990  11.198  0.7819 -3.2283  0.9109
  422MOL0     H58173  10.023   3.834  11.349  4.5793 -1.1537  0.7286
  422MOL0     H58174  10.144   3.946  11.388  0.2518  0.8235 -2.1026
  422MOL0     H58175   9.999   4.058  11.562 -3.8423  1.3632 -2.5163
  422MOL0     H58176   9.868   3.935  11.524 -1.2505  2.2859  0.5219
  422MOL0     H58177  10.138   3.907  11.654 -0.4237 -1.1760  0.7911
  422MOL0     H58178  10.051   3.757  11.612 -0.4537  0.2801 -0.5121
  422MOL0     H58179   9.933   3.958  11.801  1.4409  0.1678  0.8154
  422MOL0     H58180   9.866   3.800  11.758 -0.1266  0.3091  0.2701
  422MOL0     H58181  10.136   3.833  11.900 -1.5183  3.8208  1.7417
  422MOL0     H58182  10.045   3.686  11.856 -1.8357 -0.3836 -1.3165
  422MOL0     H58183  10.031   3.753  12.090  0.5613  0.3679 -1.5487
  422MOL0     H58184   9.941   3.900  12.046 -1.3315 -0.1081 -0.2944
  422MOL0     H58185   9.937   3.517  12.024  1.1078  2.0433 -0.2441
  422MOL0     H58186   9.713   3.368  12.140  1.3139  0.9487 -1.0293
  422MOL0     H58187   9.681   3.344  11.966  1.1119  0.0135 -0.4908
  422MOL0     H58188   9.482   3.476  12.148  2.3652  1.1192 -0.2995
  422MOL0     H58189   9.468   3.425  11.977  3.0673 -0.3581 -2.2007
  422MOL0     H58190   9.512   3.182  12.040 -0.1955  0.1362 -0.7394
  422MOL0     H58191   9.485   3.224  12.210  0.9966 -0.2592 -0.1166
  422MOL0     H58192   9.288   3.136  12.133  2.6691  0.4361  1.8437
  422MOL0     H58193   9.272   3.312  12.169 -0.2459  0.6184 -1.7917
  422MOL0     H58194   9.194   3.297  11.725  0.4171 -0.5754 -0.3332
  422MOL0     H58195   8.989   3.120  11.500  0.9602  2.0874 -3.5854
  422MOL0     H58196   9.094   3.264  11.545 -1.8730  1.6197  1.3809
  422MOL0     H58197   8.928   3.276  11.559 -0.5364  1.5088  2.5126
  422MOL0     H58198   8.553   2.819  11.832  3.7631  1.0348  1.0567
  422MOL0     H58199   8.426   2.646  11.723 -0.8134  2.2634 -1.3627
  422MOL0     H58200   8.572   2.514  11.339 -1.7154  3.7242  2.2002
  422MOL0     H58201   8.492   2.355  11.361 -2.7158  0.9585 -0.9154
  422MOL0     H58202   8.283   2.516  11.405  2.9158  0.6202  2.6625
  422MOL0     H58203   8.394   2.639  11.359 -0.2286  0.5919 -0.5853
  422MOL0     H58204   8.420   2.554  11.145  0.3869  0.3100  1.2369
  422MOL0     H58205   8.247   2.598  11.169  1.2141  1.5907  0.5688
  422MOL0     H58206   8.189   2.367  11.203  0.2849 -0.6021 -0.5350
  422MOL0     H58207   8.351   2.316  11.184 -1.6832 -1.2379  1.4057
  422MOL0     H58208   8.226   2.473  10.965 -0.9694 -0.1440  0.8945
  422MOL0     H58209   8.350   2.355  10.949 -0.6357 -1.9008 -1.6506
  422MOL0     H58210   8.205   2.262  10.843 -1.7164 -0.1194 -0.4071
  422MOL0     H58211   8.066   2.315  10.936  1.1240  2.9736 -0.6312
  422MOL0     H58212   8.129   2.122  11.105  1.0724 -1.1344  0.2042
  422MOL0     H58213   8.283   2.115  11.031  1.0058  2.2633 -3.0909
  422MOL0     H58214   8.036   2.045  10.870  1.4187  1.9908  1.0225
  422MOL0     H58215   8.118   1.922  10.966  1.3944 -0.6776  0.6057
  422MOL0     H58216   8.737   2.606  11.429  1.2338  1.1688  0.0750
  422MOL0     H58217   8.874   2.780  11.551  0.5750  2.0187  3.4343
  422MOL0     H58218   8.905   2.983  11.978  1.6690 -0.2294  1.5580
  422MOL0     H58219   9.060   3.110  12.097 -2.9916  1.2734  0.6002
  422MOL0     H58220  10.062   4.416  11.555 -2.0789  1.7751 -3.6181
  422MOL0     H58221  10.241   4.611  11.551  2.5594  0.2686 -1.3676
  422MOL0     H58222  10.633   4.699  11.586  1.6125 -0.3242  1.7621
  422MOL0     H58223  10.850   4.824  11.612  2.7388  1.0171 -2.4038
  422MOL0     H58224  10.935   5.153  11.325  0.0498 -0.6461  0.5692
  422MOL0     H58225  10.851   5.248  11.452 -2.4052 -2.5362 -1.7759
  422MOL0     H58226  11.130   5.130  11.453  0.8396  1.3598 -1.4384
  422MOL0     H58227  11.063   5.197  11.598  4.8674  2.7919 -0.0969
  422MOL0     H58228  11.036   5.430  11.479 -0.3302 -0.0405 -1.4691
  422MOL0     H58229  11.183   5.388  11.522  0.5202 -1.6708  0.2505
  422MOL0     H58230  11.164   5.472  11.289 -1.0921  0.7864  0.7723
  422MOL0     H58231  11.055   5.334  11.246  0.5998  1.2856 -0.5187
  422MOL0     H58232  11.431   5.148  11.214  0.4244 -1.8613  1.1657
  422MOL0     H58233  10.726   5.074  11.294 -2.4900 -0.8813 -2.0140
  422MOL0     H58234  10.438   5.015  11.217  0.2612  2.9212 -0.8183
  422MOL0     H58235  10.596   5.013  11.139 -0.3867 -1.5662 -1.6059
  422MOL0     H58236  10.506   4.865  11.152  1.6758 -3.1831  4.5746
  423MOL0     O58237   5.972   2.211   0.876  0.6545  0.0729  0.2880
  423MOL0     C58238   5.946   2.218   0.756  0.6258  0.3368  0.0828
  423MOL0     O58239   5.905   2.111   0.682 -0.5597 -0.7589  0.0095
  423MOL0     C58240   5.952   1.987   0.714 -0.0445 -0.2245  0.0924
  423MOL0     C58241   6.060   1.957   0.801  0.3851  0.4861  0.6805
  423MOL0     C58242   6.105   1.834   0.822  0.0135  1.2166  0.5830
  423MOL0     C58243   6.034   1.728   0.768  0.3085 -0.4046 -0.3583
  423MOL0     O58244   6.066   1.601   0.794  0.0134 -0.1392 -0.0839
  423MOL0     C58245   6.198   1.568   0.761  0.4986  1.0906 -0.3810
  423MOL0     C58246   6.218   1.417   0.770 -0.5050 -0.7277  0.1587
  423MOL0     C58247   6.222   1.362   0.912 -0.5808  0.1514  1.0830
  423MOL0     C58248   6.254   1.210   0.913  0.3742 -0.7083 -0.3587
  423MOL0     C58249   6.253   1.169   1.063 -0.4246  1.6771  0.4882
  423MOL0     C58250   6.295   1.027   1.078  1.6298 -0.3561  0.0526
  423MOL0     C58251   6.297   0.987   1.229 -0.7149 -0.4267 -0.4251
  423MOL0     C58252   6.311   0.833   1.249  0.4452  0.1898  0.3852
  423MOL0     N58253   6.433   0.771   1.192  0.0136 -0.5630 -0.2512
  423MOL0     C58254   6.449   0.646   1.142 -0.5324  0.3302  0.1853
  423MOL0     C58255   6.586   0.630   1.134 -0.5181 -0.1592  0.2603
  423MOL0     C58256   6.653   0.502   1.099 -0.6860 -0.0322 -0.4748
  423MOL0     C58257   6.793   0.502   1.166 -0.2585  1.4115  0.5239
  423MOL0     C58258   6.864   0.381   1.114  0.6660  0.9766  0.8936
  423MOL0     C58259   7.015   0.378   1.146  0.2974  0.1410 -0.0532
  423MOL0     O58260   7.055   0.391   1.285 -0.2418  0.2636 -0.7374
  423MOL0     C58261   7.187   0.408   1.309 -0.1404 -0.4361 -0.5527
  423MOL0     C58262   7.289   0.393   1.212 -0.7478  0.2944 -0.6874
  423MOL0     C58263   7.428   0.432   1.233 -0.7272  0.2320 -0.5267
  423MOL0     C58264   7.534   0.429   1.123 -0.5799  0.0119  0.4071
  423MOL0     C58265   7.456   0.463   1.370  0.1455 -0.1757 -0.1171
  423MOL0     C58266   7.597   0.487   1.415 -0.3748 -0.5117 -0.5721
  423MOL0     O58267   7.713   0.440   1.348 -0.0918  0.2451 -0.0431
  423MOL0     C58268   7.839   0.471   1.407  0.6534  0.0739  0.1158
  423MOL0     C58269   7.902   0.381   1.497 -0.1622 -0.3851 -0.0317
  423MOL0     C58270   8.031   0.407   1.545  0.0089 -0.0840  0.2773
  423MOL0     C58271   8.098   0.533   1.511  1.1794  0.0858  0.1910
  423MOL0     O58272   8.229   0.544   1.553 -0.0689  0.4879 -0.7940
  423MOL0     C58273   8.303   0.655   1.526  0.5800 -0.1154 -0.3662
  423MOL0     C58274   8.442   0.670   1.586 -0.1503  0.1741  0.0056
  423MOL0     C58275   8.450   0.683   1.744  0.3253 -0.8878 -0.0005
  423MOL0     C58276   8.582   0.743   1.793 -0.8501 -0.6179 -0.4126
  423MOL0     C58277   8.694   0.646   1.791 -0.1815 -0.3292 -0.4055
  423MOL0     C58278   8.819   0.693   1.715  0.9765  0.3786  1.1030
  423MOL0     C58279   8.934   0.587   1.709  0.5739  0.5626 -0.3625
  423MOL0     C58280   8.884   0.432   1.685  0.9154 -0.2215  0.1995
  423MOL0    Cl58281   8.805   0.424   1.526 -0.1410 -0.6906  0.1181
  423MOL0     C58282   8.026   0.624   1.428 -0.2168 -0.2971 -0.0985
  423MOL0     C58283   7.903   0.588   1.379  0.3222  0.0328  1.2737
  423MOL0     O58284   7.605   0.530   1.528 -0.0781  0.4676  0.9454
  423MOL0     C58285   7.352   0.471   1.466 -0.0695 -0.4240 -0.2521
  423MOL0     C58286   7.219   0.449   1.432 -0.1142  0.2276 -0.0790
  423MOL0     N58287   6.643   0.754   1.161  0.0775 -0.5686 -0.0322
  423MOL0     N58288   6.555   0.833   1.204  0.3147 -0.7703 -0.9535
  423MOL0     C58289   5.916   1.750   0.693 -0.8998 -0.3944 -0.4210
  423MOL0     C58290   5.877   1.878   0.656 -0.1217  0.2184  0.1228
  423MOL0     C58291   5.939   2.357   0.684  0.2058  0.3127 -0.1739
  423MOL0     C58292   5.995   2.364   0.557 -0.2816 -0.1616  0.0525
  423MOL0     C58293   5.999   2.482   0.479  0.8882 -0.2154 -0.4962
  423MOL0     C58294   5.942   2.600   0.539 -0.4381  0.1353  0.0068
  423MOL0     O58295   5.924   2.719   0.473  0.1331 -0.2213 -0.2701
  423MOL0     C58296   6.015   2.768   0.378  0.0401  0.6241  0.0958
  423MOL0     C58297   6.159   2.774   0.430 -0.4239  1.3132  0.0229
  423MOL0     C58298   6.233   2.890   0.361 -0.6133  0.4742  0.9970
  423MOL0     C58299   6.377   2.889   0.414 -0.1682  0.1363  0.1481
  423MOL0     C58300   6.453   2.997   0.346  0.2956  0.5296  0.7858
  423MOL0     C58301   6.503   3.091   0.292 -0.1497 -0.0816  0.4746
  423MOL0     C58302   5.905   2.600   0.677  1.5651  0.8680  0.4932
  423MOL0     C58303   5.900   2.479   0.745 -1.4332  0.2337 -0.1859
  423MOL0     C58304   5.826   2.480   0.870 -0.2689 -0.6994  0.1769
  423MOL0     H58305   6.117   2.036   0.849  1.8666  0.5032 -0.9721
  423MOL0     H58306   6.190   1.804   0.883  2.3492 -2.8819 -3.9980
  423MOL0     H58307   6.275   1.611   0.826 -0.4682  3.8112 -0.8826
  423MOL0     H58308   6.229   1.595   0.660 -0.2425 -1.0396 -1.2409
  423MOL0     H58309   6.140   1.374   0.707 -0.4815  0.1150 -0.4748
  423MOL0     H58310   6.313   1.392   0.721  0.4280  1.2189  0.8362
  423MOL0     H58311   6.303   1.411   0.966  2.0429 -2.0906 -0.5370
  423MOL0     H58312   6.116   1.371   0.940 -0.9945 -0.9476 -0.0217
  423MOL0     H58313   6.182   1.141   0.869  0.4571 -1.4730  0.6676
  423MOL0     H58314   6.353   1.194   0.870  0.0863  1.3958 -1.9966
  423MOL0     H58315   6.149   1.158   1.096 -0.6711 -1.8985 -0.9713
  423MOL0     H58316   6.309   1.244   1.119 -1.3018  0.6535  2.9144
  423MOL0     H58317   6.226   0.955   1.032  0.9794 -2.9801  4.5544
  423MOL0     H58318   6.396   1.008   1.040  0.3320 -1.6109 -3.1829
  423MOL0     H58319   6.202   1.025   1.268 -0.5492 -1.1460  0.7243
  423MOL0     H58320   6.376   1.042   1.283 -0.7619 -1.4389  0.7211
  423MOL0     H58321   6.308   0.804   1.354 -0.5743 -1.3399 -0.0269
  423MOL0     H58322   6.232   0.792   1.185 -2.2916  2.9687  1.7492
  423MOL0     H58323   6.372   0.571   1.132  0.2718 -0.3325 -1.3275
  423MOL0     H58324   6.665   0.485   0.991  1.1633 -3.2660  0.0890
  423MOL0     H58325   6.594   0.418   1.136  5.0913 -2.9704  3.8979
  423MOL0     H58326   6.861   0.585   1.145 -0.1116  1.9557  2.8030
  423MOL0     H58327   6.797   0.510   1.275  0.4958 -0.0224  0.6150
  423MOL0     H58328   6.817   0.285   1.135  2.7537 -0.6765 -1.3411
  423MOL0     H58329   6.857   0.390   1.005 -1.5111  0.5131  0.9450
  423MOL0     H58330   7.054   0.283   1.108 -0.1416 -0.2285  0.4017
  423MOL0     H58331   7.057   0.459   1.086 -1.2030  0.4203 -0.7889
  423MOL0     H58332   7.272   0.362   1.110  0.3577 -2.5067 -0.1151
  423MOL0     H58333   7.607   0.507   1.146 -0.2786  0.2744 -1.3548
  423MOL0     H58334   7.479   0.423   1.029 -0.8847  0.9023  0.5217
  423MOL0     H58335   7.599   0.340   1.130  1.2609  1.3059  0.5948
  423MOL0     H58336   7.845   0.293   1.524  0.7332 -1.2562 -0.9176
  423MOL0     H58337   8.085   0.333   1.603  0.5519  1.3299  1.6436
  423MOL0     H58338   8.327   0.661   1.419  1.0516  0.4117 -0.2335
  423MOL0     H58339   8.255   0.746   1.563  0.6828 -1.0772  2.3074
  423MOL0     H58340   8.501   0.582   1.560 -0.1524 -0.1249  0.9643
  423MOL0     H58341   8.472   0.763   1.538  1.1158 -0.1324  0.1615
  423MOL0     H58342   8.421   0.586   1.785 -0.5820 -1.2688 -1.4478
  423MOL0     H58343   8.381   0.765   1.766  0.1357 -0.3880 -2.2003
  423MOL0     H58344   8.559   0.785   1.892 -4.1873  1.2454 -1.8228
  423MOL0     H58345   8.600   0.830   1.729 -0.3173  0.9776  1.7689
  423MOL0     H58346   8.716   0.619   1.895 -3.9412 -3.5894 -0.2161
  423MOL0     H58347   8.650   0.558   1.743 -1.5810  0.4574 -0.5893
  423MOL0     H58348   8.865   0.786   1.751  2.2069 -0.3575  1.5238
  423MOL0     H58349   8.784   0.727   1.618  2.5473  1.3171  0.8195
  423MOL0     H58350   8.977   0.597   1.809 -2.9007  4.1441  1.0706
  423MOL0     H58351   9.000   0.629   1.632  1.1519  2.9512  1.3179
  423MOL0     H58352   8.833   0.396   1.775  0.5278 -2.5956 -0.8731
  423MOL0     H58353   8.977   0.376   1.676  2.0090  1.7834 -1.9194
  423MOL0     H58354   8.065   0.720   1.394 -3.1765  0.4893 -1.6393
  423MOL0     H58355   7.860   0.648   1.299 -0.8449 -2.1471  0.1625
  423MOL0     H58356   7.372   0.516   1.563 -4.4805  1.5342  0.0082
  423MOL0     H58357   7.141   0.449   1.508  0.5055  2.5622  0.6412
  423MOL0     H58358   5.854   1.665   0.665 -0.7770 -0.3423 -0.8494
  423MOL0     H58359   5.781   1.897   0.611 -0.6686 -2.8065 -0.1540
  423MOL0     H58360   6.035   2.274   0.511 -1.3469  0.1207 -1.5330
  423MOL0     H58361   6.022   2.499   0.374 -0.9384  1.0793 -0.7216
  423MOL0     H58362   6.009   2.719   0.281 -2.1227  0.9819  0.0059
  423MOL0     H58363   5.997   2.873   0.357  0.3602  1.1329  2.0778
  423MOL0     H58364   6.217   2.683   0.414 -1.5913  0.1457  2.0986
  423MOL0     H58365   6.158   2.796   0.537 -0.1038 -1.2680  0.6347
  423MOL0     H58366   6.245   2.876   0.253 -1.2455 -2.9313  1.2334
  423MOL0     H58367   6.195   2.990   0.384 -1.3856 -0.3405  3.5197
  423MOL0     H58368   6.415   2.789   0.388 -1.9006 -0.6409  0.4687
  423MOL0     H58369   6.385   2.897   0.523 -1.5636 -4.8472  0.8708
  423MOL0     H58370   6.550   3.170   0.238  0.4939 -0.6744  0.1511
  423MOL0     H58371   5.867   2.691   0.723  2.1303  0.6288  1.4690
  423MOL0     H58372   5.719   2.486   0.851 -0.1380 -1.4998 -0.8850
  423MOL0     H58373   5.833   2.384   0.921 -0.2839 -2.4178 -2.8281
  423MOL0     H58374   5.857   2.566   0.931  1.3990  0.1003 -1.6559
  424MOL0     O58375   0.017   0.557   5.179  0.0117 -0.8464 -0.0787
  424MOL0     C58376  -0.098   0.557   5.228 -0.9663  0.3184 -0.1018
  424MOL0     O58377  -0.131   0.493   5.342 -0.0590  0.0607 -0.4438
  424MOL0     C58378  -0.032   0.430   5.407 -0.2343 -0.1722 -0.2778
  424MOL0     C58379   0.002   0.290   5.386 -0.6513 -0.1169  0.3109
  424MOL0     C58380   0.114   0.234   5.444  0.7347  0.2943 -0.0110
  424MOL0     C58381   0.186   0.310   5.529  0.0156 -1.2452  0.3110
  424MOL0     O58382   0.303   0.259   5.575  0.4955  0.5676 -0.0480
  424MOL0     C58383   0.321   0.278   5.711  0.1904 -0.7642  0.1134
  424MOL0     C58384   0.463   0.229   5.749 -0.0412 -0.4567  0.1230
  424MOL0     C58385   0.568   0.282   5.656 -0.1895  0.2455 -0.8049
  424MOL0     C58386   0.710   0.219   5.663 -1.0397  0.9088 -0.1564
  424MOL0     C58387   0.728   0.080   5.601 -0.1284  0.1727  0.9180
  424MOL0     C58388   0.707   0.077   5.448  0.5358  0.3647 -0.8993
  424MOL0     C58389   0.785  -0.024   5.369 -0.6523  1.2806 -0.5190
  424MOL0     C58390   0.747  -0.050   5.224 -0.9451  0.6682 -0.9723
  424MOL0     N58391   0.860  -0.060   5.128 -0.5060  0.4217  0.1207
  424MOL0     C58392   0.926   0.043   5.068 -0.5302  0.6514  0.3823
  424MOL0     C58393   1.011  -0.019   4.974  0.0141  0.5270 -0.4336
  424MOL0     C58394   1.098   0.036   4.871  0.1298 -0.0990  0.1970
  424MOL0     C58395   1.223   0.098   4.943  0.9222 -0.6923 -0.4066
  424MOL0     C58396   1.332   0.149   4.852 -0.3256 -0.3505 -0.2502
  424MOL0     C58397   1.429   0.232   4.936 -0.0885 -0.6730  0.4726
  424MOL0     O58398   1.369   0.356   4.958 -0.1268 -0.6573 -0.0641
  424MOL0     C58399   1.428   0.452   5.039 -0.3148 -0.2152 -0.2423
  424MOL0     C58400   1.348   0.526   5.119 -0.5213  0.4700 -0.4969
  424MOL0     C58401   1.398   0.617   5.217 -0.4219 -0.1051  0.1905
  424MOL0     C58402   1.300   0.696   5.304  0.6953 -0.4758  0.3824
  424MOL0     C58403   1.537   0.633   5.228  0.9311 -0.0538 -0.1006
  424MOL0     C58404   1.610   0.729   5.319 -0.0717 -0.2215 -0.1340
  424MOL0     O58405   1.735   0.788   5.274 -0.6536  0.2074 -0.1752
  424MOL0     C58406   1.815   0.858   5.364 -0.7012  0.0529  0.7653
  424MOL0     C58407   1.944   0.803   5.387  0.6687  0.9601  0.4566
  424MOL0     C58408   2.025   0.855   5.482 -0.2904  0.3496  0.0479
  424MOL0     C58409   1.994   0.989   5.527 -0.7598 -0.8827 -0.6668
  424MOL0     O58410   2.088   1.030   5.620  0.1392  0.2993 -0.6831
  424MOL0     C58411   2.079   1.157   5.683  0.2631  0.2335  0.9815
  424MOL0     C58412   2.224   1.213   5.670 -1.0518  0.4355  0.2863
  424MOL0     C58413   2.264   1.268   5.533 -0.6070  0.1988 -0.6506
  424MOL0     C58414   2.391   1.360   5.554 -0.1346 -0.3153 -0.4471
  424MOL0     C58415   2.357   1.510   5.598  0.2527  0.9815 -0.0136
  424MOL0     C58416   2.472   1.600   5.619  0.4524 -0.0833  0.6014
  424MOL0     C58417   2.544   1.627   5.488  0.3533 -0.9177 -0.1714
  424MOL0     C58418   2.575   1.772   5.461 -0.7687  0.3235  0.2097
  424MOL0    Cl58419   2.678   1.790   5.309 -0.4042  0.0798 -0.6875
  424MOL0     C58420   1.877   1.055   5.497  0.4080  0.3016  0.3613
  424MOL0     C58421   1.785   0.982   5.410  0.0507 -0.5865 -0.4808
  424MOL0     O58422   1.551   0.744   5.422  0.8556  0.3845 -0.5492
  424MOL0     C58423   1.614   0.546   5.144 -0.9343 -0.5551 -0.0609
  424MOL0     C58424   1.561   0.466   5.058  0.8991  0.0088  0.4695
  424MOL0     N58425   0.989  -0.158   4.990  0.6787  0.2226 -0.2620
  424MOL0     N58426   0.899  -0.179   5.083  0.3200  0.7203  0.2849
  424MOL0     C58427   0.152   0.449   5.548  0.3017  0.7307 -0.1242
  424MOL0     C58428   0.038   0.505   5.491 -0.3332 -0.3645  0.5876
  424MOL0     C58429  -0.212   0.624   5.154 -0.9227 -0.4152  0.5818
  424MOL0     C58430  -0.182   0.674   5.030  0.4998  0.2204 -0.5245
  424MOL0     C58431  -0.283   0.706   4.940  0.9070  0.4572 -0.3430
  424MOL0     C58432  -0.419   0.714   4.974 -0.1326  0.2251  0.4355
  424MOL0     O58433  -0.519   0.778   4.908  0.2906  0.4507  0.1132
  424MOL0     C58434  -0.502   0.780   4.758  1.0335 -0.1459 -0.2582
  424MOL0     C58435  -0.628   0.824   4.685  0.0043  0.1508  0.1899
  424MOL0     C58436  -0.676   0.963   4.718 -0.0107  0.7108  0.5155
  424MOL0     C58437  -0.741   1.042   4.599  0.1904  0.4580 -0.1092
  424MOL0     C58438  -0.837   0.960   4.523  0.5776  0.4102 -0.6549
  424MOL0     C58439  -0.913   0.892   4.458  0.3153  0.4473 -0.8763
  424MOL0     C58440  -0.446   0.674   5.104 -0.5664  0.5026 -0.3180
  424MOL0     C58441  -0.342   0.627   5.201  0.0467 -0.3555  0.1372
  424MOL0     C58442  -0.390   0.590   5.345 -0.2625  0.2618 -0.6584
  424MOL0     H58443  -0.047   0.226   5.313  0.0253 -0.2746 -0.0190
  424MOL0     H58444   0.138   0.131   5.417 -1.3874 -0.2513  0.0371
  424MOL0     H58445   0.249   0.217   5.765  0.2580 -1.0849 -0.1597
  424MOL0     H58446   0.313   0.379   5.754  0.0284 -1.3057  1.3786
  424MOL0     H58447   0.488   0.265   5.849 -0.0317 -1.0342  0.3261
  424MOL0     H58448   0.470   0.120   5.752  0.2003 -0.4317  0.4093
  424MOL0     H58449   0.523   0.281   5.556 -0.2164  4.0494 -0.9537
  424MOL0     H58450   0.583   0.384   5.692  1.4951 -0.2845  0.0692
  424MOL0     H58451   0.796   0.276   5.627  0.3922 -0.3902  1.0732
  424MOL0     H58452   0.738   0.216   5.768 -0.8948  0.1201 -0.2101
  424MOL0     H58453   0.666   0.009   5.656 -0.2919  0.2872  0.8833
  424MOL0     H58454   0.829   0.042   5.621 -1.1260 -4.8320 -1.8757
  424MOL0     H58455   0.600   0.056   5.436 -0.4443  1.6811  3.7143
  424MOL0     H58456   0.723   0.179   5.409  2.8178  0.5269  0.3051
  424MOL0     H58457   0.799  -0.121   5.418  1.5813  1.2217 -1.1472
  424MOL0     H58458   0.882   0.025   5.353 -0.9981  1.5176 -2.0778
  424MOL0     H58459   0.688  -0.142   5.225  2.2074 -1.5505  1.7568
  424MOL0     H58460   0.690   0.035   5.185 -0.8012 -0.1225 -2.9927
  424MOL0     H58461   0.914   0.151   5.060  0.9615  0.7242 -1.8256
  424MOL0     H58462   1.048   0.122   4.827  1.3581  0.6166  0.1315
  424MOL0     H58463   1.124  -0.034   4.791  4.1676  1.2533  0.0835
  424MOL0     H58464   1.200   0.181   5.010  4.4161  0.6938 -0.7228
  424MOL0     H58465   1.274   0.013   4.991 -1.1201 -2.1139 -0.6306
  424MOL0     H58466   1.389   0.061   4.822  1.2163  0.5011  0.0763
  424MOL0     H58467   1.305   0.201   4.760  0.5563  1.1607  0.2989
  424MOL0     H58468   1.454   0.182   5.030 -1.9886 -0.6707  1.0208
  424MOL0     H58469   1.520   0.247   4.878 -0.2370 -0.6881  0.2312
  424MOL0     H58470   1.247   0.496   5.090  0.7401 -4.0775 -0.8945
  424MOL0     H58471   1.204   0.651   5.282  1.1419 -1.1846 -0.1406
  424MOL0     H58472   1.303   0.803   5.279 -0.2491 -0.5841 -0.2257
  424MOL0     H58473   1.328   0.677   5.408 -0.7667  0.6364  1.0092
  424MOL0     H58474   1.970   0.713   5.333 -2.1414  0.3687 -0.0620
  424MOL0     H58475   2.102   0.799   5.533 -1.5750 -2.1644 -0.6383
  424MOL0     H58476   2.002   1.227   5.651 -0.6724 -1.2543 -0.1083
  424MOL0     H58477   2.056   1.134   5.787 -2.7407  1.1592  0.5938
  424MOL0     H58478   2.234   1.300   5.735  0.8212 -0.7455  1.6629
  424MOL0     H58479   2.297   1.136   5.696  0.2862  1.9276  1.0993
  424MOL0     H58480   2.178   1.313   5.481 -1.4501  0.5712  1.0160
  424MOL0     H58481   2.301   1.185   5.472  1.5603  1.3744 -1.0384
  424MOL0     H58482   2.422   1.382   5.451  1.2822  4.4997  0.7240
  424MOL0     H58483   2.477   1.319   5.608 -1.6851 -3.3149 -0.0734
  424MOL0     H58484   2.285   1.541   5.522  0.0052  1.9417  0.6043
  424MOL0     H58485   2.298   1.513   5.690 -0.6389  2.3344 -0.6082
  424MOL0     H58486   2.558   1.564   5.677  1.9051  3.1086  0.6628
  424MOL0     H58487   2.428   1.688   5.666 -2.7163 -0.5465 -1.2649
  424MOL0     H58488   2.483   1.584   5.409 -1.8460 -0.8426  1.4125
  424MOL0     H58489   2.641   1.579   5.507 -1.0141 -2.5014  3.6828
  424MOL0     H58490   2.632   1.816   5.543 -1.1194  0.0329  0.6169
  424MOL0     H58491   2.485   1.831   5.445 -0.6193  0.3326 -0.6638
  424MOL0     H58492   1.841   1.151   5.532 -1.0087 -0.5799  1.4317
  424MOL0     H58493   1.692   1.033   5.385 -1.6109 -2.0484  2.2012
  424MOL0     H58494   1.718   0.530   5.171 -1.8903 -1.7236  3.4491
  424MOL0     H58495   1.618   0.402   4.992 -1.7791 -3.4126  1.2094
  424MOL0     H58496   0.214   0.511   5.612 -0.3499  0.0490  1.2130
  424MOL0     H58497   0.021   0.612   5.499  0.7502  0.0121 -1.3840
  424MOL0     H58498  -0.083   0.671   4.985  0.3385 -1.2644 -0.8501
  424MOL0     H58499  -0.255   0.729   4.838  0.6403 -1.9981 -1.0295
  424MOL0     H58500  -0.413   0.836   4.728  0.8856  0.5155  0.5079
  424MOL0     H58501  -0.476   0.678   4.731 -1.2453 -0.8025 -0.2192
  424MOL0     H58502  -0.710   0.752   4.689  0.6195 -0.5189  1.1332
  424MOL0     H58503  -0.598   0.836   4.580 -0.8783 -0.1135 -0.0956
  424MOL0     H58504  -0.758   0.959   4.790  2.4279  2.4176  3.6711
  424MOL0     H58505  -0.595   1.027   4.754  0.9888  1.1236 -2.1947
  424MOL0     H58506  -0.659   1.073   4.533  3.6898 -1.2108  3.0412
  424MOL0     H58507  -0.794   1.125   4.645  0.8260  0.8933 -0.1429
  424MOL0     H58508  -0.973   0.823   4.401 -1.1766  1.7057 -0.9008
  424MOL0     H58509  -0.550   0.668   5.132 -0.4338  0.5887  0.2029
  424MOL0     H58510  -0.396   0.483   5.367 -1.4873  0.9773  3.2547
  424MOL0     H58511  -0.329   0.632   5.425  4.6722 -3.5931 -1.8881
  424MOL0     H58512  -0.493   0.622   5.360  0.7448  2.2996  3.4401
  425MOL0     O58513   9.761   6.894   5.513 -0.0998  0.0274  0.5793
  425MOL0     C58514   9.651   6.915   5.544  0.1523  0.0602 -0.1303
  425MOL0     O58515   9.576   7.022   5.503 -0.6188 -0.8075 -0.0844
  425MOL0     C58516   9.623   7.109   5.411  1.1477  0.3087  0.6935
  425MOL0     C58517   9.723   7.095   5.310  0.2674 -0.1327  0.4131
  425MOL0     C58518   9.747   7.206   5.222  0.1251 -0.0113 -0.7474
  425MOL0     C58519   9.668   7.326   5.231 -0.0552  0.1837 -0.0186
  425MOL0     O58520   9.686   7.416   5.131  0.3279 -0.2199  0.2617
  425MOL0     C58521   9.660   7.549   5.159  0.0368  0.2236 -0.2336
  425MOL0     C58522   9.717   7.639   5.046 -0.1893 -0.3293  0.0337
  425MOL0     C58523   9.874   7.617   5.021 -0.1664 -0.0035  0.0599
  425MOL0     C58524   9.945   7.699   4.912  0.1800 -0.1494  0.5689
  425MOL0     C58525  10.091   7.672   4.896  0.5624  1.1617  0.2700
  425MOL0     C58526  10.185   7.775   4.962  0.6295 -0.1320  0.6570
  425MOL0     C58527  10.337   7.759   4.936  0.0154 -0.4011  0.4258
  425MOL0     C58528  10.427   7.819   5.047 -0.4151 -0.3270 -0.7788
  425MOL0     N58529  10.563   7.857   5.002  0.6280  0.4414  0.5241
  425MOL0     C58530  10.648   7.764   4.942  0.3361 -0.4511  0.2539
  425MOL0     C58531  10.747   7.843   4.893 -0.2481  0.6324 -0.4034
  425MOL0     C58532  10.861   7.799   4.789 -0.6045  0.2676  0.0408
  425MOL0     C58533  11.006   7.838   4.824  0.2680 -0.6029  0.1750
  425MOL0     C58534  11.104   7.756   4.747  0.2862 -0.0114  0.0067
  425MOL0     C58535  11.083   7.754   4.597  0.0271  0.1993 -0.0453
  425MOL0     O58536  11.201   7.822   4.540 -0.2719  0.2321  0.3025
  425MOL0     C58537  11.214   7.796   4.409  0.6807  0.5444  0.2500
  425MOL0     C58538  11.341   7.768   4.351 -1.0015  1.1147  1.1979
  425MOL0     C58539  11.355   7.745   4.210 -0.1321  0.1265  0.1436
  425MOL0     C58540  11.495   7.693   4.161 -0.3923 -0.4869 -0.4861
  425MOL0     C58541  11.236   7.754   4.129  0.4153 -0.6091 -0.4149
  425MOL0     C58542  11.250   7.758   3.982  0.1861  0.9281  0.2008
  425MOL0     O58543  11.136   7.773   3.910  0.0065 -0.5335 -0.1451
  425MOL0     C58544  11.136   7.827   3.784 -0.2622 -0.8695 -0.3122
  425MOL0     C58545  11.145   7.751   3.666  0.2199 -0.7607 -0.5521
  425MOL0     C58546  11.172   7.814   3.549  0.0449  0.4816  0.6985
  425MOL0     C58547  11.183   7.948   3.535 -0.5625 -0.0691 -0.1094
  425MOL0     O58548  11.193   7.986   3.405 -1.3800  0.1846 -1.1413
  425MOL0     C58549  11.216   8.122   3.384  0.1723  0.5052 -0.7879
  425MOL0     C58550  11.284   8.152   3.246 -0.0780  0.2393  0.5073
  425MOL0     C58551  11.319   8.306   3.236  0.2808 -0.1814  0.0393
  425MOL0     C58552  11.271   8.374   3.106  1.0367  0.7144  0.3479
  425MOL0     C58553  11.326   8.522   3.074 -0.2767  0.3746  0.4333
  425MOL0     C58554  11.244   8.565   2.951  0.4246  0.0806 -0.0744
  425MOL0     C58555  11.252   8.716   2.931  0.2324 -0.1783  0.0660
  425MOL0     C58556  11.125   8.773   2.854  0.2307  0.0390 -0.4248
  425MOL0    Cl58557  11.020   8.634   2.773  0.2479  0.0643 -0.2154
  425MOL0     C58558  11.158   8.031   3.650  0.4148  0.0088 -0.1239
  425MOL0     C58559  11.144   7.970   3.771 -0.1153 -0.7559  0.5842
  425MOL0     O58560  11.355   7.751   3.926  0.0447  0.0130  0.4411
  425MOL0     C58561  11.113   7.804   4.190  0.3235 -0.1607 -0.5553
  425MOL0     C58562  11.104   7.822   4.322 -0.2373 -0.3913 -1.6146
  425MOL0     N58563  10.726   7.984   4.932  0.4617  0.1597  0.2449
  425MOL0     N58564  10.612   7.988   4.993 -0.2096 -0.0698  0.4989
  425MOL0     C58565   9.576   7.329   5.326  0.0439  0.1651 -0.1033
  425MOL0     C58566   9.557   7.232   5.417 -0.2176  1.2459 -0.4150
  425MOL0     C58567   9.581   6.806   5.612 -0.0062  0.0454 -0.2530
  425MOL0     C58568   9.639   6.674   5.608 -0.2985  0.5756 -0.5484
  425MOL0     C58569   9.572   6.566   5.660  0.5257  0.2173 -0.5788
  425MOL0     C58570   9.448   6.577   5.724 -0.2702 -0.2328  0.9020
  425MOL0     O58571   9.380   6.462   5.764 -0.7642  0.4795 -0.0855
  425MOL0     C58572   9.316   6.458   5.896 -0.4923 -0.3165 -1.2093
  425MOL0     C58573   9.332   6.305   5.935 -1.3165  0.4467 -0.7796
  425MOL0     C58574   9.483   6.290   5.982 -0.3189  0.1376 -0.4325
  425MOL0     C58575   9.527   6.151   6.018  0.1120 -0.5115  0.5334
  425MOL0     C58576   9.480   6.059   5.907 -0.5109  0.3748  0.9202
  425MOL0     C58577   9.455   5.983   5.816  0.3863 -0.0121 -0.3937
  425MOL0     C58578   9.391   6.706   5.735 -0.4237  0.2801 -0.2402
  425MOL0     C58579   9.454   6.822   5.674 -0.0685  0.9088 -0.5361
  425MOL0     C58580   9.381   6.955   5.684  0.9830 -0.0499  1.1153
  425MOL0     H58581   9.773   7.001   5.288  3.4461  0.7425  2.9936
  425MOL0     H58582   9.822   7.202   5.143  0.8271  1.9772 -0.2452
  425MOL0     H58583   9.706   7.580   5.254 -0.2504 -3.3230  1.2150
  425MOL0     H58584   9.551   7.553   5.166  0.0697 -1.0945  1.8042
  425MOL0     H58585   9.661   7.630   4.953  0.8901  1.0893 -0.7984
  425MOL0     H58586   9.692   7.743   5.070  0.3635  0.2041 -1.5561
  425MOL0     H58587   9.926   7.641   5.115  0.8420 -0.3411 -0.3983
  425MOL0     H58588   9.888   7.509   5.012 -2.1353 -0.4158  1.1977
  425MOL0     H58589   9.891   7.689   4.817 -0.0710 -0.2962  0.7271
  425MOL0     H58590   9.929   7.806   4.931  0.6326 -0.1374  0.9021
  425MOL0     H58591  10.123   7.689   4.793 -0.6413  2.1161  0.0263
  425MOL0     H58592  10.114   7.571   4.928 -0.2917  0.1063 -2.1958
  425MOL0     H58593  10.145   7.873   4.937  0.7635  0.5216  2.8100
  425MOL0     H58594  10.166   7.752   5.068  0.0304 -2.9824  0.0207
  425MOL0     H58595  10.361   7.817   4.846  1.4613 -3.0151 -0.9829
  425MOL0     H58596  10.372   7.657   4.919  1.3345 -0.0324  0.8017
  425MOL0     H58597  10.390   7.912   5.091  1.0072 -1.3703  3.0388
  425MOL0     H58598  10.445   7.746   5.126 -0.1954 -0.5901 -1.0688
  425MOL0     H58599  10.634   7.658   4.927  3.2391 -1.1845  2.0287
  425MOL0     H58600  10.848   7.846   4.691  3.0144  3.2027  0.7406
  425MOL0     H58601  10.855   7.690   4.791 -0.5255  0.2455 -0.6258
  425MOL0     H58602  11.019   7.938   4.782  0.3320 -0.8388 -0.3644
  425MOL0     H58603  11.043   7.831   4.927 -1.0609  1.1067  0.8259
  425MOL0     H58604  11.211   7.775   4.760 -0.0450  3.1534 -1.1083
  425MOL0     H58605  11.095   7.647   4.756  1.3155 -0.1294 -0.2851
  425MOL0     H58606  11.090   7.651   4.560  1.7980  0.4436 -0.4396
  425MOL0     H58607  10.991   7.801   4.561 -1.0151 -0.2920  1.8057
  425MOL0     H58608  11.427   7.765   4.418 -1.1468  1.2413  1.3901
  425MOL0     H58609  11.548   7.640   4.241  0.3100 -0.1468 -0.7151
  425MOL0     H58610  11.558   7.775   4.125 -0.4179 -1.0400 -1.8292
  425MOL0     H58611  11.474   7.611   4.093 -2.3113 -1.5846  1.3086
  425MOL0     H58612  11.135   7.643   3.674 -2.8619 -0.5632 -0.7764
  425MOL0     H58613  11.180   7.746   3.465 -0.4097  1.8355 -0.4880
  425MOL0     H58614  11.127   8.186   3.381  0.9607  1.6128 -1.2260
  425MOL0     H58615  11.270   8.179   3.461 -3.7561  2.7322  0.6497
  425MOL0     H58616  11.384   8.108   3.236 -0.0778  0.1237  0.9942
  425MOL0     H58617  11.234   8.119   3.154 -1.8826  0.2344  1.4529
  425MOL0     H58618  11.426   8.319   3.257 -0.2737  0.9193  2.4481
  425MOL0     H58619  11.271   8.362   3.316  0.6105 -0.1480  0.2136
  425MOL0     H58620  11.164   8.370   3.126  0.9113  3.1049  0.4831
  425MOL0     H58621  11.298   8.304   3.027  1.1451  0.5458  0.5311
  425MOL0     H58622  11.309   8.592   3.157 -3.1425  2.7571 -1.9418
  425MOL0     H58623  11.434   8.516   3.061 -0.3769 -1.0232  0.1339
  425MOL0     H58624  11.145   8.519   2.958 -2.2370  5.2742  2.7609
  425MOL0     H58625  11.289   8.523   2.860  0.1608  0.2922 -0.3057
  425MOL0     H58626  11.346   8.748   2.884 -0.4353  3.6614  1.0763
  425MOL0     H58627  11.242   8.778   3.020 -3.3403  2.2976 -1.8221
  425MOL0     H58628  11.150   8.836   2.768 -1.2661  0.8285 -0.3181
  425MOL0     H58629  11.063   8.831   2.924 -0.0865  0.6628 -1.1951
  425MOL0     H58630  11.169   8.139   3.648  2.3289 -0.1096  1.1730
  425MOL0     H58631  11.134   8.039   3.854  2.0272 -0.5554  0.7297
  425MOL0     H58632  11.029   7.831   4.127  0.2513 -1.4297 -1.0282
  425MOL0     H58633  11.016   7.859   4.374  1.4821 -1.8634  2.8138
  425MOL0     H58634   9.519   7.421   5.326 -0.6624 -0.2499  0.4926
  425MOL0     H58635   9.493   7.252   5.502  1.3576  0.8712  0.9045
  425MOL0     H58636   9.740   6.657   5.574 -1.2491 -2.8492 -2.0929
  425MOL0     H58637   9.617   6.469   5.640  2.5695  0.9996  0.0660
  425MOL0     H58638   9.369   6.523   5.966 -1.3152  2.3370 -2.9101
  425MOL0     H58639   9.213   6.488   5.877 -0.3915 -0.1446 -1.4959
  425MOL0     H58640   9.305   6.236   5.854  1.6296 -2.6843  0.6658
  425MOL0     H58641   9.271   6.290   6.025 -0.8009  1.7106 -0.1958
  425MOL0     H58642   9.549   6.331   5.904 -0.1849 -2.5859 -1.8658
  425MOL0     H58643   9.503   6.346   6.073  2.3328 -1.5921  0.1555
  425MOL0     H58644   9.490   6.123   6.117 -1.0886 -0.1448  0.2043
  425MOL0     H58645   9.636   6.150   6.031  0.3791 -0.8398 -1.4061
  425MOL0     H58646   9.433   5.911   5.741 -2.2331 -0.6604  0.8788
  425MOL0     H58647   9.294   6.720   5.782 -0.6155 -2.0969  0.1822
  425MOL0     H58648   9.440   7.043   5.709 -1.2610  1.4431  1.4830
  425MOL0     H58649   9.318   6.996   5.604  1.8460  2.3212  1.5795
  425MOL0     H58650   9.300   6.946   5.758  1.1174 -0.1173  1.2556
  426MOL0     O58651   8.451   5.805   6.175  0.0789  0.4626 -0.2344
  426MOL0     C58652   8.502   5.815   6.065 -0.7558  0.1253  0.5124
  426MOL0     O58653   8.582   5.719   6.014  0.5388  0.3941 -0.1279
  426MOL0     C58654   8.615   5.602   6.082  0.0059 -0.5213 -1.5580
  426MOL0     C58655   8.605   5.480   6.019  0.4628  0.2194  0.0609
  426MOL0     C58656   8.656   5.361   6.075  0.4940 -0.0686  0.0586
  426MOL0     C58657   8.723   5.364   6.199  0.2547  0.1423 -0.1924
  426MOL0     O58658   8.791   5.256   6.251  0.2823  0.2528 -0.2152
  426MOL0     C58659   8.717   5.130   6.265 -0.3393  0.1245  0.3588
  426MOL0     C58660   8.801   5.010   6.218  0.4379  0.1581 -0.3017
  426MOL0     C58661   8.852   5.010   6.066  0.8238 -0.4897 -0.6434
  426MOL0     C58662   8.927   4.881   6.033  0.2622 -0.2662  0.1733
  426MOL0     C58663   8.987   4.888   5.892 -0.3758  0.3835 -0.0423
  426MOL0     C58664   9.079   4.764   5.867  0.7016 -0.3746 -0.4112
  426MOL0     C58665   9.123   4.769   5.722 -0.9201 -0.6850 -0.4522
  426MOL0     C58666   9.184   4.644   5.671  0.7501  0.1861  0.7906
  426MOL0     N58667   9.233   4.641   5.535 -0.0026  0.1569  0.5240
  426MOL0     C58668   9.175   4.661   5.417  1.1985  0.0339  1.0774
  426MOL0     C58669   9.268   4.631   5.326 -0.2871  0.0002  0.5579
  426MOL0     C58670   9.254   4.661   5.176 -0.5920  0.9348  0.3783
  426MOL0     C58671   9.146   4.572   5.120 -0.4572  0.4723  0.7465
  426MOL0     C58672   9.179   4.420   5.109  0.0199 -0.1662 -0.0209
  426MOL0     C58673   9.073   4.328   5.043 -0.6791 -0.4209 -0.5461
  426MOL0     O58674   9.080   4.328   4.900 -0.2782  0.6185  0.7314
  426MOL0     C58675   9.003   4.232   4.831 -0.1389  0.4153 -0.7658
  426MOL0     C58676   9.010   4.230   4.695  0.2768 -0.6559 -0.2827
  426MOL0     C58677   8.946   4.133   4.621  0.0068 -0.2959  0.0335
  426MOL0     C58678   8.983   4.142   4.475 -0.2341 -0.2527  0.0899
  426MOL0     C58679   8.862   4.042   4.677 -0.4799  0.1298 -0.6795
  426MOL0     C58680   8.781   3.947   4.603 -0.1782  0.9702  1.2863
  426MOL0     O58681   8.726   3.839   4.678 -0.0030 -0.5865  0.1725
  426MOL0     C58682   8.679   3.739   4.592 -0.6071  1.0748  0.5788
  426MOL0     C58683   8.774   3.654   4.534  0.4552  0.4440  0.0537
  426MOL0     C58684   8.718   3.557   4.449 -0.5137 -0.0470  0.0330
  426MOL0     C58685   8.573   3.532   4.430 -0.7705 -0.1817  0.6964
  426MOL0     O58686   8.518   3.424   4.361  0.2027 -0.4090  0.0473
  426MOL0     C58687   8.606   3.335   4.281  0.0059 -0.0470 -0.7484
  426MOL0     C58688   8.529   3.219   4.236  0.2186  0.1425 -0.2458
  426MOL0     C58689   8.475   3.237   4.091  0.6566 -0.0805 -0.2962
  426MOL0     C58690   8.393   3.115   4.030 -0.1073  0.0572  0.0056
  426MOL0     C58691   8.374   3.123   3.887 -0.7118 -1.7543  1.6438
  426MOL0     C58692   8.303   3.003   3.833  0.3144  0.4075 -0.6960
  426MOL0     C58693   8.145   3.002   3.853 -0.0141  0.3335  0.2140
  426MOL0     C58694   8.084   2.864   3.840  0.0778  0.4589  0.0866
  426MOL0    Cl58695   7.913   2.880   3.856 -0.0823  0.4192 -0.2624
  426MOL0     C58696   8.484   3.628   4.485 -0.0285 -0.7295  0.3489
  426MOL0     C58697   8.538   3.744   4.565  0.5331  1.4918  0.5656
  426MOL0     O58698   8.743   3.978   4.487 -0.3867  0.9136 -0.3408
  426MOL0     C58699   8.871   4.028   4.816  1.3033 -0.0869  0.4873
  426MOL0     C58700   8.931   4.128   4.892 -1.0941 -0.0343 -0.4426
  426MOL0     N58701   9.382   4.602   5.387 -0.2050 -0.1546  0.0325
  426MOL0     N58702   9.360   4.624   5.510  0.2124 -0.1056  0.4452
  426MOL0     C58703   8.729   5.484   6.261 -0.0460  0.6314  0.1864
  426MOL0     C58704   8.686   5.604   6.206  0.3588 -0.3194  0.2453
  426MOL0     C58705   8.496   5.939   5.984 -0.1168  0.9863  1.0785
  426MOL0     C58706   8.589   5.942   5.868  0.8135 -0.4555 -0.2129
  426MOL0     C58707   8.588   6.057   5.792 -0.3521 -0.2330  0.0185
  426MOL0     C58708   8.508   6.173   5.814 -0.6218  0.2194 -0.1082
  426MOL0     O58709   8.516   6.294   5.747  0.1362 -0.0905  0.0124
  426MOL0     C58710   8.408   6.301   5.660 -0.3368 -0.3756 -0.1109
  426MOL0     C58711   8.427   6.394   5.539  0.3691  0.3898  0.1307
  426MOL0     C58712   8.482   6.533   5.562  0.1445 -0.1393 -0.2714
  426MOL0     C58713   8.482   6.611   5.440  0.1999 -0.4353  0.1256
  426MOL0     C58714   8.515   6.752   5.473 -0.9346  0.3537 -0.8923
  426MOL0     C58715   8.558   6.857   5.513 -0.5428 -0.2521  0.1337
  426MOL0     C58716   8.419   6.159   5.921 -0.7133  0.0840  0.1987
  426MOL0     C58717   8.409   6.047   6.005  0.1203  0.5976  0.6746
  426MOL0     C58718   8.314   6.061   6.122  1.0787 -0.6573 -0.5043
  426MOL0     H58719   8.568   5.472   5.917  0.9898  1.5348 -0.2626
  426MOL0     H58720   8.635   5.263   6.032  0.8040 -0.5441  0.9608
  426MOL0     H58721   8.631   5.123   6.198 -0.0940  1.7605 -0.1944
  426MOL0     H58722   8.691   5.112   6.369  4.2400  0.9937  1.8829
  426MOL0     H58723   8.892   5.002   6.279  1.5060  1.6362 -1.6204
  426MOL0     H58724   8.749   4.914   6.226  1.0469 -0.4862 -2.9678
  426MOL0     H58725   8.763   5.008   6.002 -0.8634 -3.1603  1.5296
  426MOL0     H58726   8.913   5.096   6.037  3.0734 -2.5711 -2.4074
  426MOL0     H58727   9.009   4.882   6.106  1.2005 -3.0844 -0.7316
  426MOL0     H58728   8.863   4.793   6.043  0.5347 -0.3573  1.3233
  426MOL0     H58729   9.047   4.977   5.871  3.2437 -2.0081 -0.8047
  426MOL0     H58730   8.895   4.884   5.833 -1.6778 -0.1116  1.9140
  426MOL0     H58731   9.162   4.757   5.938 -0.1395  2.1944  0.9624
  426MOL0     H58732   9.023   4.670   5.869  1.2908 -0.7619 -1.2250
  426MOL0     H58733   9.182   4.860   5.713 -1.0687 -0.6128 -0.7072
  426MOL0     H58734   9.046   4.797   5.650 -1.1590  2.3296  0.8238
  426MOL0     H58735   9.272   4.627   5.734  0.5996 -0.5825  0.8066
  426MOL0     H58736   9.118   4.558   5.688 -2.0241  2.0474  0.0935
  426MOL0     H58737   9.077   4.681   5.376  1.7245 -3.7375 -2.7793
  426MOL0     H58738   9.350   4.649   5.126 -0.4510  0.2149  0.8002
  426MOL0     H58739   9.241   4.769   5.166  0.3667  1.6963  4.9956
  426MOL0     H58740   9.058   4.592   5.182  0.6773  1.3202  2.1431
  426MOL0     H58741   9.124   4.615   5.022 -2.2435 -1.5268  0.1945
  426MOL0     H58742   9.284   4.406   5.080  0.7576  0.0856  2.2757
  426MOL0     H58743   9.165   4.381   5.210 -1.2066  0.9713  0.2741
  426MOL0     H58744   9.081   4.223   5.073 -2.1637 -1.2023 -2.6106
  426MOL0     H58745   8.979   4.371   5.079  1.3821  1.5160  3.0273
  426MOL0     H58746   9.073   4.308   4.653 -0.0568 -0.7312 -0.9223
  426MOL0     H58747   9.058   4.221   4.462 -0.3636 -0.1427  0.0026
  426MOL0     H58748   8.900   4.171   4.409  1.6592  0.7030 -2.0081
  426MOL0     H58749   9.023   4.044   4.447  2.0667  0.5707  0.2929
  426MOL0     H58750   8.878   3.663   4.561  1.5090 -0.9412 -3.0989
  426MOL0     H58751   8.796   3.488   4.417  0.1192  0.1871  1.0169
  426MOL0     H58752   8.649   3.389   4.196 -1.3981 -1.0522 -2.1562
  426MOL0     H58753   8.681   3.296   4.351  0.2919  2.3408  0.3715
  426MOL0     H58754   8.581   3.122   4.236 -0.9780 -0.5183 -0.0078
  426MOL0     H58755   8.435   3.209   4.291 -1.0897  2.3164 -1.9186
  426MOL0     H58756   8.556   3.270   4.026  3.9655 -1.1132  2.9390
  426MOL0     H58757   8.416   3.329   4.102 -2.6518 -2.1190  0.3487
  426MOL0     H58758   8.296   3.094   4.075 -0.7506  0.9094 -0.9587
  426MOL0     H58759   8.459   3.032   4.060 -1.9678 -1.0334  1.2859
  426MOL0     H58760   8.314   3.208   3.850 -0.2902 -0.8674  2.9453
  426MOL0     H58761   8.472   3.123   3.839 -2.1083 -0.6309 -1.4978
  426MOL0     H58762   8.339   2.910   3.878 -1.6017  0.1421  0.4130
  426MOL0     H58763   8.314   2.986   3.725 -0.7380 -1.5243 -0.5425
  426MOL0     H58764   8.106   3.062   3.771 -1.3691 -1.7826 -0.7807
  426MOL0     H58765   8.124   3.046   3.951  1.3656 -2.2108  1.7697
  426MOL0     H58766   8.124   2.786   3.906 -1.8283  0.2008  1.0279
  426MOL0     H58767   8.113   2.818   3.746 -1.9811 -1.3906  0.2831
  426MOL0     H58768   8.380   3.607   4.466  0.2938 -3.1782  0.9584
  426MOL0     H58769   8.468   3.810   4.614 -0.9148 -0.1013  0.7181
  426MOL0     H58770   8.813   3.950   4.865  2.5224 -1.2095  0.1972
  426MOL0     H58771   8.921   4.124   5.000 -0.2481 -0.3806 -0.3685
  426MOL0     H58772   8.787   5.486   6.353 -1.7025 -0.1322  1.2768
  426MOL0     H58773   8.699   5.694   6.266 -1.6721  0.5835 -0.5968
  426MOL0     H58774   8.656   5.861   5.839  0.4602 -1.0487  0.5921
  426MOL0     H58775   8.652   6.081   5.707  1.2358  1.1278  1.5301
  426MOL0     H58776   8.385   6.204   5.615  0.7599 -0.7133  0.0342
  426MOL0     H58777   8.318   6.341   5.708 -0.6411  2.1505 -2.5030
  426MOL0     H58778   8.332   6.408   5.487 -0.2998 -1.7814  0.6481
  426MOL0     H58779   8.485   6.335   5.468  0.6305 -2.2837  2.3902
  426MOL0     H58780   8.423   6.581   5.641 -0.0282 -1.1067  0.1990
  426MOL0     H58781   8.588   6.527   5.588 -0.1542 -1.3417  0.7942
  426MOL0     H58782   8.376   6.609   5.413 -1.0308 -0.9817  4.3747
  426MOL0     H58783   8.544   6.576   5.357 -2.6633 -2.7820 -1.2044
  426MOL0     H58784   8.595   6.953   5.542  1.6149 -1.1254  0.4838
  426MOL0     H58785   8.357   6.247   5.935 -1.4946 -0.5909  1.1357
  426MOL0     H58786   8.272   5.964   6.151  0.6284  0.1917  1.9112
  426MOL0     H58787   8.359   6.109   6.209 -2.7052 -0.8146  1.7488
  426MOL0     H58788   8.232   6.128   6.096 -0.6122 -0.5272  4.2719
  427MOL0     O58789   5.061   5.535   5.517 -0.2101 -0.7434 -0.6933
  427MOL0     C58790   5.114   5.469   5.606  0.9818 -0.2011 -0.0710
  427MOL0     O58791   5.084   5.339   5.633 -0.4130  0.1153  0.2591
  427MOL0     C58792   4.999   5.270   5.547  0.3731 -0.1335  0.1083
  427MOL0     C58793   4.868   5.279   5.568  0.5639  0.1732 -0.1851
  427MOL0     C58794   4.781   5.235   5.467  0.5201  0.1445  0.1093
  427MOL0     C58795   4.828   5.180   5.338 -0.2188  0.3025  0.6834
  427MOL0     O58796   4.748   5.139   5.238  0.9393 -0.0091  0.5514
  427MOL0     C58797   4.794   5.026   5.151  0.5356  0.3673 -1.0100
  427MOL0     C58798   4.874   5.071   5.025  1.1628 -0.3723 -0.5881
  427MOL0     C58799   4.768   5.139   4.930  0.6180  0.3788  1.0097
  427MOL0     C58800   4.846   5.205   4.815 -0.0319 -0.0540 -0.1562
  427MOL0     C58801   4.770   5.227   4.687  0.7703  0.1790 -0.3085
  427MOL0     C58802   4.661   5.343   4.697  0.1250  0.1664  0.1985
  427MOL0     C58803   4.705   5.487   4.713 -0.1621 -0.6583 -0.4045
  427MOL0     C58804   4.809   5.537   4.607  0.0502  0.4038 -0.1132
  427MOL0     N58805   4.853   5.681   4.647  1.2721  0.0223  0.1824
  427MOL0     C58806   4.931   5.723   4.744  0.2392 -0.0199  0.0646
  427MOL0     C58807   4.944   5.858   4.739  1.6081  0.4361  0.4994
  427MOL0     C58808   4.993   5.940   4.850  0.3789 -0.0798 -0.3815
  427MOL0     C58809   4.971   6.087   4.816 -0.3330  0.3810  0.8952
  427MOL0     C58810   5.050   6.170   4.930 -0.0095  0.2068 -0.1407
  427MOL0     C58811   4.965   6.189   5.057  1.0365  0.1904 -0.2654
  427MOL0     O58812   5.002   6.313   5.107 -0.3048 -0.1513 -0.7143
  427MOL0     C58813   4.901   6.400   5.124 -0.2984 -0.4814  0.2409
  427MOL0     C58814   4.871   6.485   5.019  0.4943 -0.1219  0.0318
  427MOL0     C58815   4.769   6.574   5.034 -0.3822  0.1506  0.2113
  427MOL0     C58816   4.754   6.692   4.930 -0.2704  0.0754 -0.8452
  427MOL0     C58817   4.694   6.586   5.156 -0.6662  0.8211  0.7871
  427MOL0     C58818   4.574   6.672   5.162 -0.0238 -0.3150  0.0256
  427MOL0     O58819   4.572   6.763   5.262 -0.1303  0.7360 -0.1712
  427MOL0     C58820   4.470   6.857   5.272  0.6712 -0.9644 -0.0215
  427MOL0     C58821   4.435   6.907   5.401 -0.2127 -0.7197  0.1224
  427MOL0     C58822   4.330   6.992   5.418  0.1163 -0.0620  0.1488
  427MOL0     C58823   4.257   7.032   5.310 -0.7031  0.3018 -0.4040
  427MOL0     O58824   4.146   7.113   5.340 -0.2746 -0.0966  0.1859
  427MOL0     C58825   4.023   7.031   5.376 -0.2454 -0.8169  0.3018
  427MOL0     C58826   3.901   7.116   5.396  0.6892 -0.0550 -0.5614
  427MOL0     C58827   3.914   7.231   5.496  0.0838 -0.5096  0.2257
  427MOL0     C58828   3.781   7.302   5.516 -0.7767 -1.4516  0.4933
  427MOL0     C58829   3.798   7.441   5.580 -0.6552 -0.2916 -1.0576
  427MOL0     C58830   3.816   7.438   5.733  0.4531 -0.5931 -0.3396
  427MOL0     C58831   3.934   7.383   5.800  0.1858  0.6196 -0.5832
  427MOL0     C58832   3.893   7.340   5.945 -0.4422 -0.0705  0.2746
  427MOL0    Cl58833   3.800   7.191   5.942 -0.1069 -0.1684  0.1661
  427MOL0     C58834   4.295   6.999   5.180  0.2194  0.0595 -0.0479
  427MOL0     C58835   4.408   6.915   5.163  0.3472  0.0947 -0.0681
  427MOL0     O58836   4.473   6.649   5.089 -1.3883  0.1472 -0.3859
  427MOL0     C58837   4.722   6.490   5.262  0.3419  0.2942  0.7006
  427MOL0     C58838   4.831   6.398   5.240  1.4042  0.8325 -0.2976
  427MOL0     N58839   4.876   5.892   4.619 -0.3192 -0.4618 -0.6511
  427MOL0     N58840   4.828   5.784   4.565 -0.5057 -0.5988 -0.9941
  427MOL0     C58841   4.967   5.154   5.338  0.9609  0.7552 -0.0493
  427MOL0     C58842   5.050   5.201   5.435  0.1614  0.0680 -0.0339
  427MOL0     C58843   5.207   5.532   5.702 -0.6359  0.3297  0.9879
  427MOL0     C58844   5.246   5.466   5.818 -0.4249 -0.3427  0.0763
  427MOL0     C58845   5.349   5.522   5.906  0.1532  0.5813  0.5684
  427MOL0     C58846   5.430   5.624   5.870  0.1261 -0.1429  0.8829
  427MOL0     O58847   5.540   5.679   5.935 -0.6325  0.1391 -0.8336
  427MOL0     C58848   5.638   5.587   5.997  0.5605 -0.0219 -0.5297
  427MOL0     C58849   5.709   5.510   5.892 -0.0991 -0.0318 -0.2196
  427MOL0     C58850   5.785   5.589   5.797 -0.8956  0.2356 -0.2873
  427MOL0     C58851   5.894   5.518   5.720 -0.4014  0.3650 -0.1000
  427MOL0     C58852   5.845   5.403   5.631 -2.0578 -0.6342 -0.6005
  427MOL0     C58853   5.808   5.315   5.558 -0.0719  0.5307 -1.0456
  427MOL0     C58854   5.384   5.689   5.750 -0.1004  0.2430  0.2529
  427MOL0     C58855   5.278   5.646   5.666  0.5123 -0.6738  0.1013
  427MOL0     C58856   5.262   5.730   5.546  1.4377 -0.1885 -0.3901
  427MOL0     H58857   4.829   5.325   5.659 -2.8124 -2.4029 -0.1379
  427MOL0     H58858   4.674   5.246   5.481 -0.1872 -0.1313 -3.8086
  427MOL0     H58859   4.708   4.962   5.133  1.3711 -1.3438  0.7326
  427MOL0     H58860   4.858   4.956   5.205  0.9666  1.2257 -0.3885
  427MOL0     H58861   4.965   5.126   5.048  0.5388 -0.2090  1.7710
  427MOL0     H58862   4.912   4.983   4.973 -0.5094  0.4450 -3.4191
  427MOL0     H58863   4.700   5.062   4.894 -0.6536  1.5327  0.8733
  427MOL0     H58864   4.714   5.223   4.977 -1.9614  0.9871 -2.6432
  427MOL0     H58865   4.915   5.287   4.837  0.4758 -0.0094 -1.7792
  427MOL0     H58866   4.912   5.123   4.783 -1.1686 -0.6936 -0.9298
  427MOL0     H58867   4.706   5.137   4.685  2.4147 -1.2766  3.5502
  427MOL0     H58868   4.830   5.237   4.596  3.6949 -3.0334  1.0257
  427MOL0     H58869   4.605   5.336   4.604 -0.1252 -2.3155  0.4554
  427MOL0     H58870   4.599   5.332   4.786  2.0098  1.5093  1.7660
  427MOL0     H58871   4.735   5.499   4.818  0.0643  2.4864 -0.7380
  427MOL0     H58872   4.618   5.550   4.696 -0.6969 -1.6153 -1.3551
  427MOL0     H58873   4.901   5.481   4.591  0.0971  0.4765 -0.0960
  427MOL0     H58874   4.766   5.537   4.506 -0.5253  1.1074  0.1191
  427MOL0     H58875   4.969   5.656   4.820 -1.3314 -1.0708 -0.0208
  427MOL0     H58876   5.102   5.925   4.844  0.4200  0.7374 -3.0592
  427MOL0     H58877   4.956   5.921   4.950  1.3573  2.1134  0.4699
  427MOL0     H58878   5.024   6.108   4.723 -0.2721 -0.8331  0.6475
  427MOL0     H58879   4.863   6.106   4.809 -0.1526  1.1454  0.0670
  427MOL0     H58880   5.144   6.125   4.960  0.1410  1.7083  1.8271
  427MOL0     H58881   5.060   6.272   4.892 -1.3740  2.2926  4.3478
  427MOL0     H58882   4.859   6.191   5.030  0.7113 -0.0905  0.9151
  427MOL0     H58883   4.971   6.113   5.136 -0.6284  2.8524  2.6767
  427MOL0     H58884   4.935   6.484   4.932 -1.5346  0.1301 -1.5619
  427MOL0     H58885   4.801   6.783   4.967 -2.1950  0.2192  1.4886
  427MOL0     H58886   4.649   6.694   4.899 -1.3188 -3.7241  1.7615
  427MOL0     H58887   4.812   6.668   4.840 -1.1656  2.0695 -2.0290
  427MOL0     H58888   4.480   6.874   5.494  2.8451 -0.7357 -1.2309
  427MOL0     H58889   4.308   7.033   5.516 -0.7962 -1.1503  0.4178
  427MOL0     H58890   4.009   6.955   5.300  0.5375 -1.8394  1.1525
  427MOL0     H58891   4.040   6.984   5.474  0.1313  1.1880  1.2539
  427MOL0     H58892   3.872   7.150   5.296  0.6525  1.4236 -0.0699
  427MOL0     H58893   3.827   7.048   5.438  1.9638  0.2146  2.3443
  427MOL0     H58894   3.993   7.295   5.457  2.8536 -2.6221  2.0122
  427MOL0     H58895   3.950   7.180   5.586  2.9889  0.1491 -0.4718
  427MOL0     H58896   3.713   7.237   5.571 -3.9976  3.2320  2.7630
  427MOL0     H58897   3.752   7.313   5.411  2.2895  2.8276 -0.1902
  427MOL0     H58898   3.884   7.493   5.538 -0.0324 -0.9213 -0.5947
  427MOL0     H58899   3.710   7.503   5.563 -0.5805  1.0614  2.5571
  427MOL0     H58900   3.725   7.399   5.779  1.5774 -0.9121  1.7402
  427MOL0     H58901   3.833   7.545   5.752  1.8906 -1.2604  2.7824
  427MOL0     H58902   4.010   7.460   5.813 -0.8511  1.3632  1.5002
  427MOL0     H58903   3.970   7.291   5.752 -1.7860 -1.1748  1.1457
  427MOL0     H58904   3.848   7.423   6.000  0.2238  0.9049 -0.6044
  427MOL0     H58905   3.989   7.321   5.995  0.5711  3.6568  0.0712
  427MOL0     H58906   4.237   7.044   5.100  1.7704  1.8091 -0.2480
  427MOL0     H58907   4.416   6.889   5.057  2.8994  0.0173  0.0736
  427MOL0     H58908   4.658   6.480   5.350 -3.2962  2.9985 -1.3247
  427MOL0     H58909   4.840   6.318   5.313  2.6026  0.0677 -1.2580
  427MOL0     H58910   5.024   5.102   5.262  0.4709 -3.0442  1.9523
  427MOL0     H58911   5.155   5.186   5.414 -0.3010 -1.4281 -1.5508
  427MOL0     H58912   5.197   5.386   5.872  1.9878  0.1971  3.4454
  427MOL0     H58913   5.367   5.479   6.004  0.7223 -2.5162 -0.7801
  427MOL0     H58914   5.701   5.643   6.068 -2.7139  0.6327  2.1324
  427MOL0     H58915   5.577   5.522   6.060  0.2705 -1.3114 -2.0830
  427MOL0     H58916   5.642   5.447   5.833 -0.3310  2.2575 -2.6262
  427MOL0     H58917   5.778   5.445   5.948  0.8154 -3.8277 -5.0228
  427MOL0     H58918   5.720   5.636   5.723 -0.0406  0.5988 -0.8268
  427MOL0     H58919   5.833   5.674   5.847  2.1369 -0.7155 -1.3294
  427MOL0     H58920   5.965   5.472   5.790 -0.0791 -2.7013 -2.2285
  427MOL0     H58921   5.947   5.588   5.654  0.9577 -1.6541 -1.2768
  427MOL0     H58922   5.767   5.254   5.481  1.7668  2.3141 -3.6136
  427MOL0     H58923   5.439   5.780   5.727  0.5177 -0.7302 -2.5016
  427MOL0     H58924   5.159   5.764   5.538  0.6883 -1.6849  1.8868
  427MOL0     H58925   5.327   5.818   5.545  2.5847 -0.9773 -2.3225
  427MOL0     H58926   5.287   5.678   5.453 -0.2827  1.0958 -1.6032
  428MOL0     O58927   8.748   1.736   7.301 -0.2822  0.0855  0.8419
  428MOL0     C58928   8.840   1.817   7.325  0.8093 -0.0261 -0.6312
  428MOL0     O58929   8.969   1.799   7.286 -0.7938 -0.6383  0.4607
  428MOL0     C58930   8.993   1.675   7.224 -0.0731  0.4250  0.8946
  428MOL0     C58931   9.080   1.598   7.293 -0.7666  0.3635 -0.7624
  428MOL0     C58932   9.094   1.456   7.263  0.0139 -0.0340 -0.3871
  428MOL0     C58933   9.046   1.416   7.137 -0.5633  0.3365 -0.3892
  428MOL0     O58934   9.060   1.286   7.096  0.2500  0.9085 -0.1319
  428MOL0     C58935   9.003   1.244   6.972  0.6513  0.2375  0.1469
  428MOL0     C58936   9.054   1.100   6.951 -0.2409  0.8283 -0.3781
  428MOL0     C58937   8.981   0.992   7.033  0.3269 -0.6447  0.4444
  428MOL0     C58938   9.066   0.881   7.077  0.4896  0.3347  0.0683
  428MOL0     C58939   8.979   0.770   7.144 -0.3957  0.8957  0.3480
  428MOL0     C58940   9.049   0.673   7.239  0.2723 -0.4249 -0.8656
  428MOL0     C58941   8.956   0.602   7.336 -0.8333  0.2898  0.2259
  428MOL0     C58942   8.930   0.699   7.460 -0.1107 -1.0870  0.1808
  428MOL0     N58943   8.825   0.670   7.546 -0.0367 -0.3287  0.5383
  428MOL0     C58944   8.813   0.566   7.641  0.5979  0.1449  0.7406
  428MOL0     C58945   8.717   0.609   7.733 -0.0199  0.9118 -0.8461
  428MOL0     C58946   8.643   0.527   7.835  0.6710 -0.2554  0.3164
  428MOL0     C58947   8.536   0.441   7.763 -0.1683  0.3745 -0.2848
  428MOL0     C58948   8.397   0.506   7.752 -0.6248 -0.7041 -0.2876
  428MOL0     C58949   8.279   0.408   7.729 -0.6487 -0.7539 -0.7607
  428MOL0     O58950   8.271   0.315   7.845  0.1885  0.0814  0.0999
  428MOL0     C58951   8.204   0.196   7.841 -0.5530 -0.6137  0.0618
  428MOL0     C58952   8.156   0.130   7.734 -1.0120  0.0374  0.2786
  428MOL0     C58953   8.094   0.003   7.747  0.9756  0.3704 -0.0329
  428MOL0     C58954   8.037  -0.063   7.614  0.3018  0.0818  0.1468
  428MOL0     C58955   8.087  -0.068   7.872  1.2189 -0.4258 -0.9145
  428MOL0     C58956   8.033  -0.204   7.913 -0.1425  0.0673 -0.0014
  428MOL0     O58957   8.038  -0.245   8.049  0.6967  0.0142 -0.6393
  428MOL0     C58958   7.968  -0.360   8.089  0.3440 -1.0711 -0.6696
  428MOL0     C58959   7.828  -0.368   8.085 -0.2359 -0.6357  0.1645
  428MOL0     C58960   7.760  -0.487   8.118  0.1197  0.4475 -0.1609
  428MOL0     C58961   7.823  -0.597   8.159 -0.3537  0.5571  0.1964
  428MOL0     O58962   7.758  -0.719   8.177 -0.5020 -0.1848 -0.2265
  428MOL0     C58963   7.616  -0.745   8.168  0.0996 -0.5850  0.5124
  428MOL0     C58964   7.594  -0.875   8.259  0.2641  0.1069 -0.8512
  428MOL0     C58965   7.687  -0.992   8.225  0.7941 -0.0711 -0.2817
  428MOL0     C58966   7.656  -1.096   8.328 -0.5046  0.5798 -0.0785
  428MOL0     C58967   7.759  -1.214   8.334 -0.0672 -0.1178 -0.1471
  428MOL0     C58968   7.750  -1.316   8.228 -0.2711  0.4243 -0.3032
  428MOL0     C58969   7.613  -1.387   8.236  0.2430 -0.4328  0.3306
  428MOL0     C58970   7.596  -1.497   8.118  0.6921  0.7092 -0.2838
  428MOL0    Cl58971   7.428  -1.525   8.063  0.0068 -0.2017  0.0980
  428MOL0     C58972   7.967  -0.596   8.165  0.3217 -0.6501 -0.8559
  428MOL0     C58973   8.035  -0.474   8.135 -0.9245  0.1275  0.6208
  428MOL0     O58974   7.983  -0.273   7.828 -0.4490  0.0152 -0.3998
  428MOL0     C58975   8.162  -0.003   7.972 -0.1486  0.5655  0.1989
  428MOL0     C58976   8.212   0.127   7.954 -0.2534  0.3798 -0.8444
  428MOL0     N58977   8.676   0.728   7.688  0.5757 -0.1901 -0.1372
  428MOL0     N58978   8.729   0.761   7.569 -0.8213 -0.2824  0.6255
  428MOL0     C58979   8.977   1.511   7.059  0.1258 -0.2098  0.0647
  428MOL0     C58980   8.936   1.630   7.109 -0.0530 -0.7238 -0.3831
  428MOL0     C58981   8.801   1.947   7.395 -0.6635  0.5314 -1.8815
  428MOL0     C58982   8.901   2.025   7.455 -0.5623  0.8508  0.4836
  428MOL0     C58983   8.874   2.144   7.525 -0.7012  0.0513  0.4443
  428MOL0     C58984   8.748   2.192   7.533  0.0053  0.6934  0.4245
  428MOL0     O58985   8.715   2.307   7.603  0.2072  0.1503 -0.3556
  428MOL0     C58986   8.811   2.382   7.673 -0.7130  0.2094 -0.3023
  428MOL0     C58987   8.744   2.481   7.776 -0.2821  0.2460 -0.2487
  428MOL0     C58988   8.672   2.600   7.689  0.0111  0.2975 -0.0569
  428MOL0     C58989   8.631   2.712   7.788 -0.1942  0.7291 -0.6572
  428MOL0     C58990   8.515   2.667   7.868  0.4533  0.0925  0.4096
  428MOL0     C58991   8.407   2.641   7.919  0.8010 -0.0923 -0.3987
  428MOL0     C58992   8.646   2.113   7.470  0.4573 -0.4227 -0.0730
  428MOL0     C58993   8.667   1.987   7.414 -0.3067  0.1308  0.9453
  428MOL0     C58994   8.546   1.922   7.340 -1.0779  0.7003 -0.0411
  428MOL0     H58995   9.128   1.624   7.386 -0.5881 -1.0455 -0.4348
  428MOL0     H58996   9.151   1.390   7.327 -0.7735 -0.1978  0.1602
  428MOL0     H58997   9.031   1.302   6.884 -3.5890  3.1826  0.4402
  428MOL0     H58998   8.894   1.246   6.977  0.6448  1.0235 -0.1203
  428MOL0     H58999   9.049   1.066   6.848 -1.1452 -0.8767  0.1843
  428MOL0     H59000   9.161   1.103   6.975 -0.3001 -2.6930  0.9717
  428MOL0     H59001   8.932   1.044   7.116  1.5382  1.1429  0.0997
  428MOL0     H59002   8.904   0.947   6.970 -0.0371 -0.8260  1.0136
  428MOL0     H59003   9.127   0.845   6.994 -0.5520 -0.1220 -0.5279
  428MOL0     H59004   9.133   0.922   7.153 -3.3904  3.2031  2.3067
  428MOL0     H59005   8.918   0.710   7.075  1.1396 -1.1280  0.6559
  428MOL0     H59006   8.899   0.817   7.202  0.4214  0.5846  1.7894
  428MOL0     H59007   9.091   0.588   7.184 -2.8312 -1.9345 -1.0906
  428MOL0     H59008   9.127   0.733   7.287  1.6622 -2.4873 -0.4308
  428MOL0     H59009   9.007   0.513   7.373 -0.3846 -0.8453 -2.8221
  428MOL0     H59010   8.866   0.565   7.287 -0.0848  0.3644 -1.2730
  428MOL0     H59011   9.022   0.701   7.519 -0.8145  0.5014  1.2809
  428MOL0     H59012   8.916   0.802   7.426  1.2010 -0.8847  0.1939
  428MOL0     H59013   8.860   0.469   7.657 -2.0450 -1.5020 -0.7599
  428MOL0     H59014   8.602   0.590   7.915  0.4841 -1.1222  0.9205
  428MOL0     H59015   8.699   0.452   7.893 -1.1180 -0.6684  1.6151
  428MOL0     H59016   8.558   0.404   7.663 -3.6725 -1.2582 -0.6009
  428MOL0     H59017   8.540   0.351   7.825  1.2628  0.0799 -0.7704
  428MOL0     H59018   8.375   0.560   7.844 -1.8442 -1.4300 -0.1407
  428MOL0     H59019   8.375   0.588   7.683 -2.7532 -0.8854  0.1078
  428MOL0     H59020   8.187   0.466   7.724 -2.2217 -3.1570 -2.1016
  428MOL0     H59021   8.292   0.355   7.634 -0.2541 -2.9111  0.4215
  428MOL0     H59022   8.149   0.189   7.643 -1.7101 -2.4807 -1.4059
  428MOL0     H59023   8.087  -0.021   7.526  1.4245 -0.4235  0.5270
  428MOL0     H59024   7.930  -0.079   7.598  0.2353  1.8716 -1.6363
  428MOL0     H59025   8.084  -0.162   7.617  3.6449  1.3469 -2.7470
  428MOL0     H59026   7.777  -0.281   8.044  1.9119  0.8606  0.4836
  428MOL0     H59027   7.652  -0.477   8.107  0.0566  3.9940  2.0044
  428MOL0     H59028   7.556  -0.666   8.215 -4.1750 -3.5847  0.6755
  428MOL0     H59029   7.589  -0.758   8.063  0.5741 -1.2909  0.4744
  428MOL0     H59030   7.598  -0.843   8.363 -3.0058 -1.1821 -0.2164
  428MOL0     H59031   7.491  -0.910   8.253  0.4286 -1.1298  1.9193
  428MOL0     H59032   7.792  -0.963   8.236  0.4791  0.1413  4.5122
  428MOL0     H59033   7.661  -1.025   8.124 -1.6016 -3.3878  1.1887
  428MOL0     H59034   7.556  -1.139   8.321 -1.4217  1.7911  3.6056
  428MOL0     H59035   7.666  -1.054   8.428 -1.8580  0.4091  0.1413
  428MOL0     H59036   7.859  -1.171   8.316  0.9330 -2.5320 -0.7350
  428MOL0     H59037   7.750  -1.256   8.435  0.8744 -1.1748 -0.4812
  428MOL0     H59038   7.830  -1.389   8.242 -1.8921 -2.1988 -3.3719
  428MOL0     H59039   7.760  -1.275   8.128  0.2556 -1.3545 -1.0165
  428MOL0     H59040   7.547  -1.302   8.218 -0.2799 -1.0212 -0.6200
  428MOL0     H59041   7.594  -1.429   8.335  1.7868  0.4785  1.0534
  428MOL0     H59042   7.621  -1.598   8.154 -3.1798  0.2327  1.5347
  428MOL0     H59043   7.665  -1.474   8.036  3.3136 -0.1041  1.5820
  428MOL0     H59044   8.023  -0.683   8.199 -1.6210 -2.2048 -1.4402
  428MOL0     H59045   8.143  -0.477   8.134 -0.8512 -1.5664  3.5106
  428MOL0     H59046   8.160  -0.033   8.076 -1.2382 -3.0041 -0.7297
  428MOL0     H59047   8.251   0.182   8.039 -2.1430  1.6148 -0.7040
  428MOL0     H59048   8.941   1.506   6.957 -0.1061 -1.9091  0.2090
  428MOL0     H59049   8.864   1.694   7.058 -0.0155  0.9272  1.5168
  428MOL0     H59050   9.006   2.003   7.435 -1.6766 -1.6620 -3.9941
  428MOL0     H59051   8.961   2.201   7.556 -0.0628 -0.4949 -0.2931
  428MOL0     H59052   8.860   2.311   7.740 -0.0862 -0.2182 -1.1808
  428MOL0     H59053   8.884   2.440   7.615  0.1822  0.6934  1.2343
  428MOL0     H59054   8.817   2.518   7.849  2.8803 -1.6144 -2.2013
  428MOL0     H59055   8.678   2.421   7.840  1.3618 -1.3018  0.0954
  428MOL0     H59056   8.741   2.636   7.612  1.2259 -1.7780 -0.0244
  428MOL0     H59057   8.591   2.559   7.629 -1.8756  0.1315  2.4663
  428MOL0     H59058   8.607   2.808   7.742 -1.0949  1.4734  1.2140
  428MOL0     H59059   8.712   2.737   7.858  0.0643  0.4627 -0.8624
  428MOL0     H59060   8.313   2.632   7.969 -0.3956  2.4944 -1.9811
  428MOL0     H59061   8.543   2.146   7.481 -0.4227 -3.4046  1.8204
  428MOL0     H59062   8.569   1.915   7.233  2.1724  2.5912  0.4091
  428MOL0     H59063   8.547   1.823   7.387  0.0119 -0.0969 -1.6380
  428MOL0     H59064   8.448   1.966   7.360 -1.0096  0.9266 -0.1973
  429MOL0     O59065   8.672   3.432   7.563  0.6568 -0.3368  0.1176
  429MOL0     C59066   8.638   3.518   7.650  0.4621 -1.0474  0.6601
  429MOL0     O59067   8.545   3.503   7.748  0.4852 -0.3026 -0.4551
  429MOL0     C59068   8.477   3.389   7.759 -0.5131  0.0587 -0.0158
  429MOL0     C59069   8.379   3.366   7.662 -0.0493  0.2000  0.2880
  429MOL0     C59070   8.305   3.249   7.666 -0.9927 -0.2565 -0.3644
  429MOL0     C59071   8.344   3.146   7.758  0.6747 -0.2660  0.6071
  429MOL0     O59072   8.290   3.020   7.765 -0.5448  0.2785 -0.8727
  429MOL0     C59073   8.169   2.981   7.690 -0.2397 -0.4479  0.1660
  429MOL0     C59074   8.159   2.831   7.684  0.8217  0.5700 -0.0155
  429MOL0     C59075   8.250   2.754   7.588 -1.0055 -0.8904  0.3648
  429MOL0     C59076   8.218   2.603   7.564  1.1414 -0.0114 -0.9479
  429MOL0     C59077   8.228   2.554   7.415  0.1509 -0.0099 -0.3723
  429MOL0     C59078   8.371   2.507   7.379 -0.9547  0.1588 -0.0798
  429MOL0     C59079   8.376   2.404   7.259  0.3996 -0.3436 -0.5310
  429MOL0     C59080   8.522   2.372   7.220 -0.4661 -0.2127 -0.4027
  429MOL0     N59081   8.541   2.285   7.095 -0.7457 -0.2375 -0.9150
  429MOL0     C59082   8.504   2.154   7.077 -0.8731  0.4521  0.4593
  429MOL0     C59083   8.536   2.132   6.954 -0.4011 -0.3768  0.3784
  429MOL0     C59084   8.509   2.010   6.880 -0.4520  0.2040  0.4071
  429MOL0     C59085   8.425   2.038   6.755  0.9238 -0.0147 -0.0495
  429MOL0     C59086   8.399   1.918   6.652 -0.7125 -0.5992 -0.6212
  429MOL0     C59087   8.528   1.867   6.584 -0.6695  0.6119  0.4577
  429MOL0     O59088   8.511   1.728   6.538  0.6220  0.3443 -0.5166
  429MOL0     C59089   8.541   1.618   6.611  0.3038  0.3329 -0.0650
  429MOL0     C59090   8.549   1.616   6.752  0.2427  0.0741  0.2404
  429MOL0     C59091   8.590   1.501   6.825  0.2016 -1.0266  0.2000
  429MOL0     C59092   8.600   1.514   6.980 -0.1359  0.6720 -1.1458
  429MOL0     C59093   8.622   1.384   6.748 -0.2666 -0.0173  0.5683
  429MOL0     C59094   8.660   1.260   6.816 -0.2696 -0.8939  1.2717
  429MOL0     O59095   8.602   1.243   6.939 -0.4624 -0.1738  0.5620
  429MOL0     C59096   8.613   1.118   6.994  0.4780 -0.6942 -0.7935
  429MOL0     C59097   8.570   0.998   6.940  0.2499 -0.2559 -0.0778
  429MOL0     C59098   8.548   0.885   7.028 -0.2561 -0.4342 -0.4113
  429MOL0     C59099   8.601   0.888   7.160  0.3274 -0.5407 -1.0727
  429MOL0     O59100   8.599   0.784   7.239  0.8526  0.4999 -0.0779
  429MOL0     C59101   8.496   0.789   7.339  0.0801  0.4567  0.1810
  429MOL0     C59102   8.456   0.644   7.360  0.1056 -0.2240  0.3455
  429MOL0     C59103   8.389   0.581   7.231 -0.4825 -0.6438 -0.7120
  429MOL0     C59104   8.315   0.465   7.286 -0.2527  1.0264  0.2892
  429MOL0     C59105   8.401   0.347   7.327 -0.0838 -0.9574 -0.3858
  429MOL0     C59106   8.316   0.228   7.350  0.7347 -0.3548  1.4988
  429MOL0     C59107   8.262   0.169   7.214 -0.2951 -0.9375  0.5797
  429MOL0     C59108   8.193   0.033   7.248  0.9391 -0.4571  0.0185
  429MOL0    Cl59109   8.199  -0.065   7.097 -0.1291  0.7465  0.0661
  429MOL0     C59110   8.666   1.006   7.196  0.5333 -0.0685 -0.8096
  429MOL0     C59111   8.662   1.124   7.121 -0.2541 -0.6174 -0.1402
  429MOL0     O59112   8.714   1.180   6.738 -0.3664 -0.6460  0.0916
  429MOL0     C59113   8.632   1.393   6.605  0.5233 -0.2069  0.6277
  429MOL0     C59114   8.588   1.508   6.540 -0.9060  0.2292 -0.4399
  429MOL0     N59115   8.577   2.256   6.892 -0.1577  0.4319 -0.6872
  429MOL0     N59116   8.589   2.343   6.986 -0.0391 -0.1764  0.5497
  429MOL0     C59117   8.447   3.169   7.854  0.9001  0.9676  0.4167
  429MOL0     C59118   8.510   3.289   7.852  0.5717  0.2132 -0.6809
  429MOL0     C59119   8.707   3.650   7.648  0.8021 -0.1204  0.1094
  429MOL0     C59120   8.651   3.755   7.740  0.3656  0.6710  0.5047
  429MOL0     C59121   8.719   3.870   7.762 -0.2181 -0.7809  1.1691
  429MOL0     C59122   8.822   3.910   7.685  0.2984  0.2413  0.2128
  429MOL0     O59123   8.881   4.024   7.722  0.4536 -0.0309 -0.5825
  429MOL0     C59124   9.000   4.081   7.664  0.0711  0.5136  0.2496
  429MOL0     C59125   8.975   4.156   7.533  0.0313  0.2304  0.0474
  429MOL0     C59126   9.106   4.224   7.480  0.7563 -0.3197 -0.4762
  429MOL0     C59127   9.093   4.280   7.342  0.6166  0.3401 -0.5325
  429MOL0     C59128   9.011   4.404   7.348 -0.3659  0.3820 -0.1844
  429MOL0     C59129   8.932   4.496   7.346 -0.3787 -0.3435  0.2821
  429MOL0     C59130   8.865   3.827   7.583  0.8508 -0.2425  0.5362
  429MOL0     C59131   8.816   3.692   7.570  0.2203  0.2678  0.2878
  429MOL0     C59132   8.872   3.609   7.456  0.1435  0.3650  0.7741
  429MOL0     H59133   8.342   3.447   7.599 -0.8790 -2.2544 -2.5863
  429MOL0     H59134   8.221   3.235   7.599 -0.6786 -3.6169 -0.2077
  429MOL0     H59135   8.175   3.023   7.589 -0.5837  2.1297  1.1313
  429MOL0     H59136   8.087   3.027   7.746  1.7070  1.2158  1.8550
  429MOL0     H59137   8.171   2.797   7.788  0.6215  2.6397  0.7282
  429MOL0     H59138   8.055   2.803   7.666 -0.5364  5.6290 -1.7988
  429MOL0     H59139   8.245   2.809   7.494 -1.8563 -0.3977  0.6821
  429MOL0     H59140   8.353   2.766   7.624 -1.8361  0.7905  2.4369
  429MOL0     H59141   8.284   2.547   7.631  1.2215 -1.0890 -1.9037
  429MOL0     H59142   8.116   2.588   7.600  2.2128 -1.1996  1.8943
  429MOL0     H59143   8.185   2.620   7.339  1.8044  0.6927 -0.7356
  429MOL0     H59144   8.166   2.464   7.413  2.7314 -1.8817 -1.6770
  429MOL0     H59145   8.423   2.597   7.347  1.6246 -0.1279  2.9266
  429MOL0     H59146   8.425   2.471   7.467 -1.0780  1.1183  0.3994
  429MOL0     H59147   8.325   2.464   7.183  0.8703 -0.0246 -0.5996
  429MOL0     H59148   8.314   2.319   7.287 -0.9959  1.1958  1.4163
  429MOL0     H59149   8.560   2.475   7.212 -1.3649 -0.0114 -3.2786
  429MOL0     H59150   8.570   2.339   7.312  1.7394  2.8725 -0.2966
  429MOL0     H59151   8.462   2.086   7.151 -0.2204 -0.1311  0.2984
  429MOL0     H59152   8.469   1.925   6.935  2.3418 -1.1888  0.4964
  429MOL0     H59153   8.604   1.967   6.845  0.8998  1.0631  2.8091
  429MOL0     H59154   8.324   2.065   6.788  0.9954  1.4133 -0.9585
  429MOL0     H59155   8.462   2.127   6.705 -0.5459  1.3637  1.2035
  429MOL0     H59156   8.361   1.839   6.718 -0.6554 -0.9524 -1.0061
  429MOL0     H59157   8.323   1.945   6.578  0.5979  1.3629 -1.3441
  429MOL0     H59158   8.531   1.920   6.489 -1.1100 -1.9316 -1.0625
  429MOL0     H59159   8.613   1.912   6.635  1.5242  1.0128 -3.2200
  429MOL0     H59160   8.533   1.703   6.815 -0.2793 -1.0250  1.7116
  429MOL0     H59161   8.621   1.617   7.013  0.3791  0.4568 -0.7928
  429MOL0     H59162   8.681   1.449   7.014 -0.6336 -0.9517 -2.8970
  429MOL0     H59163   8.508   1.472   7.021 -0.2121  2.7866  1.1707
  429MOL0     H59164   8.535   1.004   6.837 -2.2764  2.7832  0.8056
  429MOL0     H59165   8.497   0.791   7.011  1.7034 -2.0798  2.0717
  429MOL0     H59166   8.523   0.839   7.432 -0.2591  0.5711  0.2203
  429MOL0     H59167   8.409   0.844   7.302 -1.0742 -0.1257  1.8873
  429MOL0     H59168   8.540   0.580   7.386 -0.8397 -2.0600 -0.9145
  429MOL0     H59169   8.392   0.634   7.448 -0.1008 -4.2168 -0.0817
  429MOL0     H59170   8.469   0.563   7.157 -1.0271  3.2325 -2.4892
  429MOL0     H59171   8.318   0.651   7.186 -1.5813 -1.1038  0.2747
  429MOL0     H59172   8.261   0.425   7.199 -0.4122  1.2747  0.2736
  429MOL0     H59173   8.228   0.489   7.348 -3.1143 -2.1405 -2.0994
  429MOL0     H59174   8.470   0.328   7.245  1.1749 -2.6994  0.9920
  429MOL0     H59175   8.447   0.370   7.423 -0.2223  0.0460 -0.5550
  429MOL0     H59176   8.235   0.243   7.422  2.3468 -3.4275  4.2204
  429MOL0     H59177   8.377   0.142   7.380  1.1984 -1.5115 -2.2912
  429MOL0     H59178   8.347   0.142   7.151  0.2725  0.2272  0.8264
  429MOL0     H59179   8.199   0.240   7.161 -1.5791 -2.5333 -0.1282
  429MOL0     H59180   8.090   0.058   7.271  1.1804  0.3027  0.3135
  429MOL0     H59181   8.244  -0.027   7.324  1.7524  0.8757  0.5694
  429MOL0     H59182   8.707   1.000   7.296  0.5448  1.9277 -0.6555
  429MOL0     H59183   8.704   1.216   7.160 -0.8952 -0.6173  0.5830
  429MOL0     H59184   8.672   1.315   6.541  0.6902  0.0353  0.4296
  429MOL0     H59185   8.604   1.508   6.432 -0.1600 -1.1788 -0.3573
  429MOL0     H59186   8.489   3.088   7.914 -0.7174 -0.1903  0.0511
  429MOL0     H59187   8.586   3.318   7.924  0.1879 -0.6334  0.0908
  429MOL0     H59188   8.557   3.751   7.793 -1.4977  0.2448 -2.6292
  429MOL0     H59189   8.697   3.941   7.841 -4.4135  0.4352 -0.8148
  429MOL0     H59190   9.049   4.140   7.741 -1.4991 -0.3892  2.0258
  429MOL0     H59191   9.068   3.997   7.645  2.9154  2.8679 -0.5503
  429MOL0     H59192   8.887   4.217   7.556  0.3224  0.1003  1.6184
  429MOL0     H59193   8.951   4.081   7.456  1.4840 -0.6799  0.4462
  429MOL0     H59194   9.138   4.299   7.552  1.8087  0.7345 -1.9863
  429MOL0     H59195   9.187   4.151   7.475  3.6466  2.6372  0.4079
  429MOL0     H59196   9.033   4.211   7.282 -1.4849  1.3916  0.2461
  429MOL0     H59197   9.179   4.307   7.280  0.0390  1.4304 -0.9035
  429MOL0     H59198   8.854   4.569   7.339  1.9532  2.5513  2.1616
  429MOL0     H59199   8.957   3.863   7.537  0.5122  0.0093  0.0417
  429MOL0     H59200   8.803   3.632   7.375 -0.6977  1.1983  1.6982
  429MOL0     H59201   8.976   3.631   7.432 -0.3871  1.9367 -0.2002
  429MOL0     H59202   8.871   3.500   7.466 -0.1581  0.0032 -2.2260
  430MOL0     O59203   4.585   3.661   3.263  0.7640  0.0251 -0.0335
  430MOL0     C59204   4.666   3.594   3.195 -0.0089 -0.6657 -0.0585
  430MOL0     O59205   4.663   3.579   3.065  0.8277  0.1752  0.7391
  430MOL0     C59206   4.544   3.587   3.007  0.5379 -0.9045  0.6030
  430MOL0     C59207   4.527   3.701   2.929  0.1963  0.0337 -0.9262
  430MOL0     C59208   4.421   3.707   2.829 -0.3542 -0.7483  0.2027
  430MOL0     C59209   4.333   3.605   2.815  0.7478 -0.5075 -0.4202
  430MOL0     O59210   4.230   3.617   2.732 -0.6969 -0.4549  0.8438
  430MOL0     C59211   4.125   3.689   2.786  0.0682 -0.0888  0.6773
  430MOL0     C59212   4.005   3.683   2.695  0.2730  0.2811  0.0730
  430MOL0     C59213   4.030   3.748   2.554 -0.2826 -0.3624 -0.1966
  430MOL0     C59214   3.896   3.798   2.474  1.0445 -0.3325  0.2490
  430MOL0     C59215   3.791   3.685   2.449  0.3568 -0.4468 -0.0451
  430MOL0     C59216   3.655   3.722   2.391  0.8625  0.0688  0.3393
  430MOL0     C59217   3.612   3.876   2.400 -0.2182  0.7580  0.6646
  430MOL0     C59218   3.462   3.881   2.352  0.1718 -0.7143  0.0910
  430MOL0     N59219   3.406   4.009   2.392 -0.1403 -0.2873  0.3091
  430MOL0     C59220   3.316   4.016   2.494  0.2363 -0.6391  0.1072
  430MOL0     C59221   3.281   4.150   2.500 -0.1735 -0.4722 -1.1153
  430MOL0     C59222   3.211   4.232   2.600  0.4004  0.0497 -0.4026
  430MOL0     C59223   3.054   4.246   2.564 -0.9599  0.2419 -1.0668
  430MOL0     C59224   2.985   4.117   2.586 -0.3702  1.2288  0.3337
  430MOL0     C59225   2.986   4.087   2.740 -0.0036 -0.6252 -0.1737
  430MOL0     O59226   3.102   4.015   2.781  0.0856  0.1180 -0.1516
  430MOL0     C59227   3.111   3.949   2.903 -0.2832 -0.0898 -0.1783
  430MOL0     C59228   3.235   3.885   2.955  0.1352  0.0486  0.1550
  430MOL0     C59229   3.247   3.807   3.078 -0.2051  0.3545  0.6051
  430MOL0     C59230   3.364   3.714   3.099  0.2745  0.6179 -0.0700
  430MOL0     C59231   3.130   3.808   3.156 -0.1523 -0.0925  0.1656
  430MOL0     C59232   3.125   3.742   3.292 -0.8682 -0.0424  0.9826
  430MOL0     O59233   3.022   3.665   3.329  0.2164  0.5772 -0.5373
  430MOL0     C59234   2.954   3.586   3.244 -0.3583  0.0581  0.7902
  430MOL0     C59235   2.811   3.606   3.241 -0.3343  0.3956  1.2879
  430MOL0     C59236   2.722   3.515   3.176 -0.1208  0.1671 -0.3391
  430MOL0     C59237   2.770   3.417   3.090 -0.2732  0.7815  0.7727
  430MOL0     O59238   2.676   3.344   3.024 -0.1166  0.2997 -0.1500
  430MOL0     C59239   2.721   3.234   2.944  0.2646 -0.0465 -0.1409
  430MOL0     C59240   2.770   3.117   3.030 -0.2208  1.1074  0.6789
  430MOL0     C59241   2.807   2.996   2.944 -0.1065  0.4795  0.2335
  430MOL0     C59242   2.875   2.879   3.023 -0.1971 -0.4622  0.1896
  430MOL0     C59243   2.955   2.791   2.930 -0.5932  0.5647 -0.0446
  430MOL0     C59244   3.030   2.680   3.000  0.0089 -0.1618  0.3910
  430MOL0     C59245   3.087   2.588   2.912 -0.3358  0.5760 -0.5693
  430MOL0     C59246   3.182   2.635   2.806  0.3000 -0.1584 -0.2222
  430MOL0    Cl59247   3.093   2.677   2.652 -0.0421  0.4297  0.3991
  430MOL0     C59248   2.906   3.407   3.085 -1.7373  0.6336  0.8819
  430MOL0     C59249   2.996   3.486   3.162  0.9142  0.3429  0.2195
  430MOL0     O59250   3.202   3.794   3.372  0.4628  0.2604 -0.5602
  430MOL0     C59251   3.013   3.879   3.116  0.3713  0.3565 -1.2143
  430MOL0     C59252   3.001   3.943   2.989  0.0890  0.1970 -0.1833
  430MOL0     N59253   3.347   4.220   2.395 -1.1162 -0.2801  0.8186
  430MOL0     N59254   3.416   4.126   2.329 -0.4275 -0.0039  0.0607
  430MOL0     C59255   4.353   3.490   2.904 -0.4008  0.3283  0.5050
  430MOL0     C59256   4.463   3.476   2.990  0.7462  0.3340 -0.1208
  430MOL0     C59257   4.779   3.531   3.265 -0.2198  1.2963  0.4440
  430MOL0     C59258   4.848   3.421   3.190  0.9253 -1.4424 -0.4400
  430MOL0     C59259   4.943   3.345   3.256  0.5995  0.4917  0.6695
  430MOL0     C59260   4.973   3.374   3.395 -0.2688  0.7648 -0.3345
  430MOL0     O59261   5.053   3.293   3.468  0.2605  0.0360  0.7605
  430MOL0     C59262   5.089   3.162   3.420  0.5233  0.3280 -0.1758
  430MOL0     C59263   5.238   3.175   3.393  0.4533 -0.3688 -0.0214
  430MOL0     C59264   5.309   3.035   3.394 -0.2382 -0.7649  0.4524
  430MOL0     C59265   5.450   3.031   3.454  0.3737 -0.7583 -0.0646
  430MOL0     C59266   5.532   2.926   3.394 -0.4369  0.0208  0.0831
  430MOL0     C59267   5.620   2.853   3.349 -0.4589 -0.7400  0.2495
  430MOL0     C59268   4.916   3.484   3.458 -1.0814 -0.0806 -0.0525
  430MOL0     C59269   4.822   3.563   3.397  0.0718 -0.1930  0.1873
  430MOL0     C59270   4.768   3.672   3.482  0.1358  0.3712  0.1791
  430MOL0     H59271   4.610   3.771   2.927  0.6103 -0.4442 -0.6754
  430MOL0     H59272   4.407   3.801   2.776  2.6174  2.0940  3.8165
  430MOL0     H59273   4.155   3.793   2.800 -0.4520  0.3598 -1.3091
  430MOL0     H59274   4.094   3.652   2.885 -2.8126  1.8507  0.6392
  430MOL0     H59275   3.975   3.579   2.680  0.5608 -0.4216  3.4490
  430MOL0     H59276   3.928   3.737   2.751 -0.4861  0.1930 -0.8614
  430MOL0     H59277   4.092   3.838   2.564 -2.5634  1.0827  2.6218
  430MOL0     H59278   4.073   3.670   2.490  1.7290  1.6957 -1.4951
  430MOL0     H59279   3.842   3.876   2.529  0.1258 -1.6416  1.2740
  430MOL0     H59280   3.935   3.857   2.390  2.5688  3.3094  3.1985
  430MOL0     H59281   3.766   3.634   2.543 -1.5871  4.2506  2.3232
  430MOL0     H59282   3.840   3.608   2.389  2.2543  1.1972 -0.7149
  430MOL0     H59283   3.657   3.691   2.287 -0.4352  2.3157 -0.4248
  430MOL0     H59284   3.574   3.664   2.435  1.5532 -1.0742  0.1486
  430MOL0     H59285   3.678   3.939   2.340 -2.3504  1.2668 -1.3194
  430MOL0     H59286   3.626   3.908   2.503 -2.4780 -2.5212  2.1620
  430MOL0     H59287   3.461   3.878   2.243  3.0103  1.5351 -0.1104
  430MOL0     H59288   3.408   3.799   2.400 -1.9145  0.0768 -0.8087
  430MOL0     H59289   3.285   3.939   2.563 -1.3001 -1.8061 -1.7815
  430MOL0     H59290   3.250   4.334   2.594 -1.0239  0.5389 -2.4609
  430MOL0     H59291   3.234   4.195   2.700 -2.4517  1.8182  1.0317
  430MOL0     H59292   2.999   4.328   2.611 -0.5313 -0.4951  0.8158
  430MOL0     H59293   3.038   4.267   2.458  0.8659 -1.0880 -1.6666
  430MOL0     H59294   2.885   4.144   2.549 -0.4081  0.8037  0.1156
  430MOL0     H59295   3.013   4.035   2.520 -3.3801  1.7727 -1.8319
  430MOL0     H59296   2.986   4.187   2.786  4.9719  0.1910 -1.3736
  430MOL0     H59297   2.891   4.041   2.768 -0.5798  0.6813  0.1272
  430MOL0     H59298   3.312   3.873   2.880  1.0653  1.2892  0.8754
  430MOL0     H59299   3.432   3.720   3.013  0.6289  1.4237  0.2562
  430MOL0     H59300   3.319   3.614   3.092 -0.9038  1.1613 -0.5036
  430MOL0     H59301   3.416   3.734   3.193  2.2619  0.7565 -1.1368
  430MOL0     H59302   2.775   3.700   3.283 -4.4051 -1.1717  1.7769
  430MOL0     H59303   2.618   3.538   3.193 -0.2819 -2.1490  2.5347
  430MOL0     H59304   2.630   3.191   2.900 -1.8886  0.2760  3.5679
  430MOL0     H59305   2.787   3.269   2.864  0.8801 -0.3653  0.2141
  430MOL0     H59306   2.859   3.150   3.086  2.2967 -1.0469 -1.7291
  430MOL0     H59307   2.695   3.085   3.103 -1.1018  0.6566 -0.3995
  430MOL0     H59308   2.876   3.023   2.863 -0.6035  2.4859  0.4336
  430MOL0     H59309   2.715   2.957   2.899  1.0063 -0.5958 -1.2052
  430MOL0     H59310   2.789   2.829   3.068 -1.4163  0.2066 -1.3002
  430MOL0     H59311   2.948   2.923   3.092 -0.0042  4.2948 -2.6081
  430MOL0     H59312   2.879   2.745   2.866 -1.3976  1.5475  0.1871
  430MOL0     H59313   3.027   2.845   2.868  0.5758  1.7339  2.2032
  430MOL0     H59314   2.955   2.629   3.063  0.1646 -0.6800  0.1624
  430MOL0     H59315   3.103   2.721   3.070  2.3602  0.7258 -2.3920
  430MOL0     H59316   3.003   2.539   2.862 -2.3354  0.1219  2.8758
  430MOL0     H59317   3.146   2.513   2.966 -0.6119  0.4846 -0.3947
  430MOL0     H59318   3.267   2.569   2.790  2.3757  1.0288  4.3433
  430MOL0     H59319   3.223   2.728   2.845 -0.8982  0.7262 -0.9993
  430MOL0     H59320   2.954   3.338   3.016  2.0443  2.0746  1.8151
  430MOL0     H59321   3.104   3.474   3.154  0.9124 -1.2442  1.9000
  430MOL0     H59322   2.925   3.878   3.179  0.8535 -3.5474 -0.3099
  430MOL0     H59323   2.916   4.005   2.964  0.7183  1.2882  0.2825
  430MOL0     H59324   4.285   3.406   2.908  4.0674 -3.7106  1.8865
  430MOL0     H59325   4.481   3.383   3.044 -0.2994 -1.1310 -2.1512
  430MOL0     H59326   4.820   3.379   3.094  0.7233  0.8756 -1.4698
  430MOL0     H59327   4.993   3.269   3.196  0.9945 -1.8768  3.7558
  430MOL0     H59328   5.066   3.084   3.494 -1.6099 -0.0636 -1.1744
  430MOL0     H59329   5.021   3.132   3.340  0.1715 -0.5054  0.4229
  430MOL0     H59330   5.286   3.226   3.477  2.0065 -4.1376  1.6240
  430MOL0     H59331   5.256   3.219   3.294 -0.2344 -3.9943 -1.9485
  430MOL0     H59332   5.251   2.960   3.449  1.0441  1.5470  5.6359
  430MOL0     H59333   5.305   2.997   3.292 -0.0556  2.2215 -0.7755
  430MOL0     H59334   5.448   3.015   3.562  0.7593 -1.7645 -0.1946
  430MOL0     H59335   5.500   3.128   3.440 -1.2669 -0.0366 -1.2233
  430MOL0     H59336   5.699   2.782   3.333  0.9907  0.7557  0.4850
  430MOL0     H59337   4.947   3.501   3.560  2.2333  1.5071 -1.1930
  430MOL0     H59338   4.663   3.652   3.503 -0.7895  3.8717 -0.5196
  430MOL0     H59339   4.820   3.675   3.578  0.6300 -0.6029 -0.0466
  430MOL0     H59340   4.787   3.768   3.434 -2.9839  1.4293  0.8804
  431MOL0     O59341   1.683   7.671   2.036 -0.0604  0.3029  0.5669
  431MOL0     C59342   1.606   7.580   2.021  1.2583  0.5811  1.4974
  431MOL0     O59343   1.627   7.456   2.060  0.3426  0.2089  0.2714
  431MOL0     C59344   1.759   7.420   2.067  0.7024  1.2739  0.2429
  431MOL0     C59345   1.822   7.375   1.955 -1.6162  0.6927  0.5013
  431MOL0     C59346   1.961   7.345   1.973  0.5460  0.6808 -0.1470
  431MOL0     C59347   2.032   7.355   2.097 -0.7887 -0.5953 -0.4859
  431MOL0     O59348   2.170   7.318   2.105 -0.1926 -0.1670  0.1640
  431MOL0     C59349   2.247   7.345   2.223 -0.3619 -0.1003  0.9185
  431MOL0     C59350   2.367   7.249   2.227  0.5988  1.2688  0.4471
  431MOL0     C59351   2.475   7.291   2.329 -0.0819  0.7489 -0.0650
  431MOL0     C59352   2.566   7.404   2.292  0.1450 -0.1202 -0.0647
  431MOL0     C59353   2.636   7.446   2.412  0.4128  1.7686 -0.0906
  431MOL0     C59354   2.730   7.564   2.380 -0.4771 -0.3430 -0.0238
  431MOL0     C59355   2.773   7.612   2.516 -0.4217  0.2119 -0.0756
  431MOL0     C59356   2.890   7.709   2.495 -0.4730 -0.0133 -0.5444
  431MOL0     N59357   2.961   7.732   2.625  0.2303 -0.1633  0.2582
  431MOL0     C59358   3.033   7.845   2.660 -0.0975  1.5530 -0.3380
  431MOL0     C59359   3.065   7.829   2.794 -0.3792 -0.0289  0.4338
  431MOL0     C59360   3.144   7.932   2.875  0.3439 -0.6516  0.0807
  431MOL0     C59361   3.051   8.023   2.966 -0.0925 -0.1510 -0.1348
  431MOL0     C59362   3.137   8.142   3.032  0.2506 -0.1884 -0.4759
  431MOL0     C59363   3.225   8.222   2.930 -0.0243 -0.5419 -0.8789
  431MOL0     O59364   3.276   8.350   2.990 -0.8640 -0.7158  0.1830
  431MOL0     C59365   3.216   8.466   2.962  0.7082  0.4838 -0.2154
  431MOL0     C59366   3.290   8.586   2.981  0.2330 -0.7845  0.8021
  431MOL0     C59367   3.233   8.710   2.933 -0.2979  0.1633 -0.6135
  431MOL0     C59368   3.323   8.835   2.922 -0.2815 -1.1442  1.3698
  431MOL0     C59369   3.097   8.709   2.875 -0.4243  0.6887 -0.0567
  431MOL0     C59370   3.018   8.822   2.828  0.8450  0.7548 -0.5086
  431MOL0     O59371   3.040   8.938   2.895  0.3817 -0.5808  0.5115
  431MOL0     C59372   2.989   9.057   2.848  1.4021  0.3664  0.5857
  431MOL0     C59373   2.851   9.084   2.811  0.3085 -0.8777 -0.3299
  431MOL0     C59374   2.815   9.213   2.762  0.5337  0.3335 -0.7614
  431MOL0     C59375   2.905   9.315   2.773  0.1369 -0.5841  0.2409
  431MOL0     O59376   2.886   9.443   2.729  0.3356  0.0363 -0.5011
  431MOL0     C59377   2.755   9.495   2.733  0.4978 -0.1635 -0.2548
  431MOL0     C59378   2.725   9.537   2.880 -0.0976 -0.2299 -0.1258
  431MOL0     C59379   2.838   9.634   2.928  0.0076  0.1111  0.8906
  431MOL0     C59380   2.793   9.732   3.040 -1.1763 -0.6113 -0.5945
  431MOL0     C59381   2.912   9.827   3.081  0.4012  0.2969  0.1192
  431MOL0     C59382   2.870   9.903   3.209 -0.0315 -0.0162 -0.2336
  431MOL0     C59383   2.927  10.045   3.225  1.0720  0.3616  1.0467
  431MOL0     C59384   2.994  10.077   3.359 -0.4589  0.1683  0.1034
  431MOL0    Cl59385   3.128   9.964   3.383 -0.2275  0.6308  0.1226
  431MOL0     C59386   3.034   9.291   2.818  0.4693 -0.0063  0.3127
  431MOL0     C59387   3.074   9.162   2.848  0.3870 -0.3809  0.0130
  431MOL0     O59388   2.952   8.815   2.727 -0.3010  0.4110  0.2089
  431MOL0     C59389   3.027   8.588   2.878  0.1495  0.0425 -0.5309
  431MOL0     C59390   3.083   8.470   2.926  0.3981 -0.1227 -0.1050
  431MOL0     N59391   3.041   7.698   2.831  0.4394 -0.9802  0.1018
  431MOL0     N59392   2.975   7.651   2.728 -0.2817  0.8094  0.4393
  431MOL0     C59393   1.956   7.407   2.202  0.1429 -0.3702 -0.0171
  431MOL0     C59394   1.825   7.443   2.191 -0.1523 -0.0121  1.0665
  431MOL0     C59395   1.476   7.599   1.953  0.0283 -0.1492 -0.4256
  431MOL0     C59396   1.357   7.533   2.001  0.1079  0.4941 -0.0348
  431MOL0     C59397   1.234   7.547   1.937  0.1574 -0.3589 -0.3247
  431MOL0     C59398   1.215   7.639   1.833  0.3026 -0.7377  0.6145
  431MOL0     O59399   1.094   7.680   1.768  0.8503 -0.0053  0.8804
  431MOL0     C59400   0.989   7.747   1.844 -0.2340  0.6900  0.1277
  431MOL0     C59401   1.051   7.878   1.884  0.3379 -0.4068  0.0965
  431MOL0     C59402   0.932   7.967   1.948 -0.9704  0.1834 -0.2494
  431MOL0     C59403   0.930   7.937   2.090  0.5360  0.7164 -0.2065
  431MOL0     C59404   0.823   7.843   2.117  0.1647  0.6814 -0.6075
  431MOL0     C59405   0.727   7.768   2.141 -0.4621 -0.0849  0.0674
  431MOL0     C59406   1.328   7.707   1.788 -0.4507 -0.8718 -0.6338
  431MOL0     C59407   1.454   7.690   1.846 -0.4353 -0.2054 -0.3972
  431MOL0     C59408   1.566   7.762   1.784 -0.0293 -0.4882 -0.2409
  431MOL0     H59409   1.780   7.375   1.855  1.0845  1.9654 -0.7403
  431MOL0     H59410   2.012   7.313   1.882 -0.6235  0.2785 -0.6742
  431MOL0     H59411   2.192   7.337   2.318 -1.3835 -0.6746  0.3038
  431MOL0     H59412   2.277   7.446   2.197  1.2404 -1.2678 -2.2909
  431MOL0     H59413   2.329   7.149   2.249  3.8667 -0.4144 -0.8535
  431MOL0     H59414   2.422   7.243   2.133  0.2005  2.0561  0.1562
  431MOL0     H59415   2.428   7.304   2.427  1.7743  1.6417  0.7540
  431MOL0     H59416   2.531   7.201   2.354 -1.2367  0.6085  2.4245
  431MOL0     H59417   2.623   7.365   2.208  0.2247 -1.3645  0.5448
  431MOL0     H59418   2.501   7.485   2.255 -3.0098 -1.1624  2.6131
  431MOL0     H59419   2.705   7.364   2.431  0.7347  1.8025 -1.0535
  431MOL0     H59420   2.571   7.464   2.498 -1.1503 -2.8836  0.0066
  431MOL0     H59421   2.808   7.518   2.319 -1.6498 -2.9842  0.3631
  431MOL0     H59422   2.671   7.633   2.318 -3.3536 -3.4135 -1.0029
  431MOL0     H59423   2.812   7.522   2.564  0.6331  1.6852  1.9721
  431MOL0     H59424   2.686   7.647   2.573 -2.4761 -1.1304 -2.2011
  431MOL0     H59425   2.958   7.673   2.417  1.9174  0.7216  1.0796
  431MOL0     H59426   2.851   7.807   2.465 -0.8407  0.0016 -0.0384
  431MOL0     H59427   3.047   7.934   2.600 -1.2116  1.2393 -1.0918
  431MOL0     H59428   3.195   7.997   2.804 -3.7378  3.3115  0.3274
  431MOL0     H59429   3.225   7.889   2.934 -0.2567  0.4998  1.8148
  431MOL0     H59430   2.962   8.062   2.916 -0.4589 -0.2318  0.4456
  431MOL0     H59431   3.005   7.956   3.039 -1.6713  1.6624  0.6382
  431MOL0     H59432   3.076   8.212   3.090 -0.3287 -1.8929  1.0563
  431MOL0     H59433   3.206   8.100   3.105 -0.1532 -0.5179 -0.2763
  431MOL0     H59434   3.307   8.162   2.891  0.0417  1.1380 -3.5557
  431MOL0     H59435   3.165   8.243   2.841  0.5870 -1.1839 -1.4588
  431MOL0     H59436   3.397   8.567   2.979  0.4051  0.1963 -0.5259
  431MOL0     H59437   3.293   8.912   2.993  0.4892  0.5423 -0.0647
  431MOL0     H59438   3.300   8.871   2.822 -0.7395 -1.6734  1.2771
  431MOL0     H59439   3.431   8.815   2.926 -0.0790 -0.8662 -1.0436
  431MOL0     H59440   2.788   8.998   2.789 -0.9907 -0.0465  0.0083
  431MOL0     H59441   2.714   9.220   2.722 -0.0368 -2.3065 -0.0069
  431MOL0     H59442   2.742   9.590   2.679 -0.6896  1.3203  2.4214
  431MOL0     H59443   2.680   9.425   2.695  3.1784 -1.3553 -3.8561
  431MOL0     H59444   2.635   9.600   2.886 -1.0073 -1.0557 -2.9772
  431MOL0     H59445   2.713   9.453   2.949  0.5090  0.1328  0.4177
  431MOL0     H59446   2.871   9.691   2.840  0.9422 -0.5153  0.8167
  431MOL0     H59447   2.933   9.584   2.953  2.5798  0.8492 -5.5072
  431MOL0     H59448   2.775   9.680   3.135 -0.9631 -1.6753 -1.1184
  431MOL0     H59449   2.702   9.789   3.023 -0.7404  1.9497  3.9866
  431MOL0     H59450   3.001   9.770   3.108 -0.1085  0.8180  3.3603
  431MOL0     H59451   2.952   9.885   2.997 -1.5827  0.9406 -0.4350
  431MOL0     H59452   2.887   9.847   3.301  0.2280  1.0122  0.3593
  431MOL0     H59453   2.761   9.911   3.213 -0.0658  1.5576 -2.3662
  431MOL0     H59454   2.848  10.120   3.214  0.7775  0.2385  2.1590
  431MOL0     H59455   3.000  10.047   3.144  0.6334  0.6759  0.6534
  431MOL0     H59456   2.925  10.065   3.443  0.9798  3.3775  1.8963
  431MOL0     H59457   3.031  10.179   3.371  2.3119 -0.1561 -3.6125
  431MOL0     H59458   3.106   9.372   2.828 -0.7364  0.8280  3.2648
  431MOL0     H59459   3.176   9.151   2.883  0.3276 -0.1356  0.2662
  431MOL0     H59460   2.926   8.578   2.840  0.1500 -3.4137  0.0611
  431MOL0     H59461   3.023   8.381   2.942 -2.3266  1.2185 -2.0724
  431MOL0     H59462   1.988   7.412   2.306 -0.2547 -0.8424  0.1285
  431MOL0     H59463   1.768   7.474   2.278 -1.6451 -0.4054  0.2581
  431MOL0     H59464   1.371   7.469   2.088 -1.5481 -2.7524 -1.9430
  431MOL0     H59465   1.143   7.502   1.973 -2.3077  4.3127  0.0737
  431MOL0     H59466   0.905   7.765   1.776  0.9812  1.1450 -1.2915
  431MOL0     H59467   0.945   7.689   1.926  0.7145  1.1605  0.9822
  431MOL0     H59468   1.096   7.926   1.797  0.9960 -2.5120 -0.7930
  431MOL0     H59469   1.142   7.867   1.944  0.4681 -2.7455 -0.4262
  431MOL0     H59470   0.956   8.072   1.928  0.7138  0.4654  2.5674
  431MOL0     H59471   0.840   7.944   1.895 -1.9650  0.2632  1.3722
  431MOL0     H59472   0.912   8.029   2.147 -0.2702  0.9899 -0.8731
  431MOL0     H59473   1.025   7.899   2.128 -0.1260 -0.5773  0.2326
  431MOL0     H59474   0.666   7.689   2.180 -1.0451 -0.9830 -2.5226
  431MOL0     H59475   1.328   7.779   1.706  0.0735  1.7390  1.5201
  431MOL0     H59476   1.589   7.711   1.690  1.0659  2.3001 -1.6041
  431MOL0     H59477   1.537   7.865   1.763 -0.3352 -0.5302 -0.0320
  431MOL0     H59478   1.665   7.769   1.831 -0.4851 -2.7915  1.2409
  432MOL0     O59479   1.738   3.725   9.028  0.3847  0.8962  0.9604
  432MOL0     C59480   1.649   3.698   8.950  0.1419  0.5341  0.4005
  432MOL0     O59481   1.663   3.608   8.842  1.1715  0.3702 -0.8133
  432MOL0     C59482   1.785   3.554   8.811  0.4528 -0.1522  0.1131
  432MOL0     C59483   1.903   3.623   8.798  0.8956  0.2052 -0.5007
  432MOL0     C59484   2.019   3.573   8.745 -1.3980  0.6157  0.1989
  432MOL0     C59485   2.020   3.448   8.694  0.4183  0.1910 -0.3969
  432MOL0     O59486   2.120   3.377   8.632 -0.0011  0.2802  0.0224
  432MOL0     C59487   2.252   3.446   8.637 -0.1134 -0.3741 -0.5406
  432MOL0     C59488   2.364   3.350   8.592  0.6762 -0.0867 -0.0845
  432MOL0     C59489   2.318   3.268   8.473  1.1563 -0.6319  0.3006
  432MOL0     C59490   2.426   3.195   8.390  0.2020  0.0724 -0.9649
  432MOL0     C59491   2.478   3.082   8.480 -0.2896  0.4930  0.3078
  432MOL0     C59492   2.594   3.012   8.417 -0.6309 -0.2905  0.4614
  432MOL0     C59493   2.551   2.951   8.290 -0.2327  0.2694  0.0774
  432MOL0     C59494   2.674   2.867   8.239 -0.0054  0.0923  0.0809
  432MOL0     N59495   2.645   2.787   8.127  0.2122  1.2019 -0.4975
  432MOL0     C59496   2.569   2.670   8.131  0.4491  0.2189 -0.3094
  432MOL0     C59497   2.559   2.615   8.002 -0.9650  0.0467 -0.6305
  432MOL0     C59498   2.509   2.474   7.974 -0.2966 -0.0472 -0.2048
  432MOL0     C59499   2.619   2.378   7.928  0.2052  0.2413 -0.6816
  432MOL0     C59500   2.714   2.334   8.045  1.1009 -0.1990 -0.2733
  432MOL0     C59501   2.835   2.438   8.056  0.5883 -0.2335 -0.2805
  432MOL0     O59502   2.941   2.396   7.961  0.4318  0.0029  0.1737
  432MOL0     C59503   3.002   2.279   8.002 -0.2382 -1.4654  0.9607
  432MOL0     C59504   3.042   2.242   8.129  1.0692 -1.0348 -0.7939
  432MOL0     C59505   3.110   2.123   8.163 -0.6443 -0.3120 -1.1692
  432MOL0     C59506   3.176   2.110   8.304  1.1295  0.0645  0.3007
  432MOL0     C59507   3.139   2.026   8.056  0.2630 -0.5230  0.1876
  432MOL0     C59508   3.203   1.896   8.089 -0.6348 -0.6893 -0.7176
  432MOL0     O59509   3.273   1.828   7.994  0.2088  0.7605  0.4588
  432MOL0     C59510   3.345   1.716   8.035 -0.0534 -1.2812  0.3533
  432MOL0     C59511   3.487   1.720   8.045 -0.5253 -0.0501 -0.8780
  432MOL0     C59512   3.555   1.611   8.086 -0.3381 -0.0784 -0.4598
  432MOL0     C59513   3.485   1.499   8.121  0.5406  0.2659  0.3877
  432MOL0     O59514   3.556   1.388   8.162 -0.0433  0.1555  0.3645
  432MOL0     C59515   3.671   1.388   8.253 -0.2033 -0.9256  0.9439
  432MOL0     C59516   3.786   1.321   8.175  0.3001  0.3344 -0.8095
  432MOL0     C59517   3.898   1.303   8.286 -0.3586 -0.3330  0.0963
  432MOL0     C59518   4.038   1.298   8.208  1.2897  0.2153 -0.1589
  432MOL0     C59519   4.155   1.264   8.308  1.4066 -0.2637 -0.2250
  432MOL0     C59520   4.209   1.383   8.384  0.4652  1.0313  0.7774
  432MOL0     C59521   4.337   1.351   8.475 -0.4278  0.4682  0.4266
  432MOL0     C59522   4.455   1.281   8.396 -1.0221  0.8222 -0.6685
  432MOL0    Cl59523   4.519   1.391   8.259 -0.4329 -0.0151  0.6002
  432MOL0     C59524   3.348   1.489   8.102 -0.1512 -0.8717 -0.5101
  432MOL0     C59525   3.279   1.598   8.060  1.0440  0.0928 -0.9713
  432MOL0     O59526   3.179   1.853   8.204  0.3598  0.8245  0.0302
  432MOL0     C59527   3.107   2.070   7.921  0.2872  1.1753 -0.5016
  432MOL0     C59528   3.037   2.192   7.901  0.6839  0.4716  0.0253
  432MOL0     N59529   2.625   2.707   7.925  0.1892 -0.0380 -0.1138
  432MOL0     N59530   2.666   2.809   7.992 -0.1738  0.0415 -0.4093
  432MOL0     C59531   1.907   3.376   8.699  0.2959  0.0907  0.3642
  432MOL0     C59532   1.792   3.427   8.760  0.1348  0.5148  0.2726
  432MOL0     C59533   1.518   3.755   8.988 -0.6453  0.6722 -0.1039
  432MOL0     C59534   1.405   3.678   8.952  0.6581  0.8990  0.6447
  432MOL0     C59535   1.280   3.723   8.987  0.0721  0.7915  0.0752
  432MOL0     C59536   1.260   3.834   9.052  0.3560 -0.1738  0.0578
  432MOL0     O59537   1.130   3.870   9.069 -0.3460  0.7161  0.2534
  432MOL0     C59538   1.095   3.984   9.137  0.6264 -0.5693  0.1938
  432MOL0     C59539   1.077   4.093   9.038 -0.8436  0.5580  0.0275
  432MOL0     C59540   1.033   4.229   9.106  0.9547 -0.3068 -0.7041
  432MOL0     C59541   0.888   4.212   9.166  0.6460  0.5827 -0.4959
  432MOL0     C59542   0.847   4.328   9.240 -0.2595  0.3208  0.7087
  432MOL0     C59543   0.835   4.437   9.297  0.4345  1.3387 -0.1014
  432MOL0     C59544   1.369   3.908   9.091  0.4885  1.1057 -0.3127
  432MOL0     C59545   1.502   3.868   9.065 -0.2357 -0.4295 -0.3275
  432MOL0     C59546   1.604   3.961   9.118 -0.2332  0.1062 -0.4777
  432MOL0     H59547   1.901   3.722   8.843 -1.1275 -0.9253  2.2176
  432MOL0     H59548   2.106   3.637   8.742 -1.5059  0.7693  0.3312
  432MOL0     H59549   2.269   3.468   8.743 -0.1232 -2.5235 -0.0350
  432MOL0     H59550   2.255   3.537   8.576 -2.9300  2.5498  3.1661
  432MOL0     H59551   2.451   3.407   8.559 -0.7064  3.9293  2.4709
  432MOL0     H59552   2.400   3.279   8.667  3.5010 -1.0108 -2.1433
  432MOL0     H59553   2.238   3.203   8.508 -0.0417  0.9099  0.4975
  432MOL0     H59554   2.274   3.339   8.403  0.9207 -0.7194  0.3585
  432MOL0     H59555   2.383   3.159   8.296  0.7930 -1.5395 -0.6510
  432MOL0     H59556   2.504   3.261   8.351 -0.8560  3.1892  1.6997
  432MOL0     H59557   2.399   3.011   8.507 -1.7242  1.9643  0.1354
  432MOL0     H59558   2.511   3.124   8.575  1.0438  2.2993 -0.8788
  432MOL0     H59559   2.670   3.088   8.394  0.4735 -1.4842  0.0371
  432MOL0     H59560   2.628   2.939   8.491 -1.2977 -2.0935 -0.9639
  432MOL0     H59561   2.522   3.022   8.213  0.8360  1.0910  0.3940
  432MOL0     H59562   2.474   2.876   8.310 -0.4556 -0.7725 -3.9069
  432MOL0     H59563   2.758   2.936   8.226  0.9109 -1.0589 -0.2081
  432MOL0     H59564   2.714   2.802   8.317  3.5818  3.5069  1.4537
  432MOL0     H59565   2.544   2.631   8.230  0.9431  0.3467 -0.1328
  432MOL0     H59566   2.429   2.474   7.900 -2.5367 -0.3361  2.0858
  432MOL0     H59567   2.459   2.449   8.068  0.9878 -0.3702  0.4290
  432MOL0     H59568   2.575   2.288   7.884  1.5769 -0.4037 -0.7572
  432MOL0     H59569   2.672   2.423   7.844  1.7377  0.2513  0.2546
  432MOL0     H59570   2.669   2.341   8.145  1.7904  1.2513 -0.0411
  432MOL0     H59571   2.758   2.235   8.030  0.5813 -0.3781 -0.6442
  432MOL0     H59572   2.805   2.542   8.042 -0.5012 -0.1618  2.1501
  432MOL0     H59573   2.870   2.441   8.159  0.1175 -0.6096 -0.1091
  432MOL0     H59574   3.042   2.318   8.207 -5.5167 -1.0745 -0.1951
  432MOL0     H59575   3.272   2.058   8.300  0.3421 -1.4223  0.0720
  432MOL0     H59576   3.099   2.057   8.360 -1.0602  1.3775 -1.3166
  432MOL0     H59577   3.188   2.209   8.348 -3.4716  0.4257  1.1498
  432MOL0     H59578   3.534   1.815   8.022 -0.6709 -0.2739 -2.1572
  432MOL0     H59579   3.662   1.624   8.101  0.5552 -4.3993 -1.6885
  432MOL0     H59580   3.695   1.486   8.294  1.9912 -1.7270  1.7123
  432MOL0     H59581   3.641   1.332   8.342 -0.5001 -0.3232  1.2234
  432MOL0     H59582   3.752   1.224   8.136  1.0829  0.1498 -1.0522
  432MOL0     H59583   3.827   1.379   8.092  2.7774 -1.3934 -0.9061
  432MOL0     H59584   3.873   1.212   8.343 -0.7735 -0.2083  0.1138
  432MOL0     H59585   3.916   1.383   8.358  3.0316 -1.9475  1.2726
  432MOL0     H59586   4.055   1.401   8.173  2.2500 -0.2523 -1.1308
  432MOL0     H59587   4.031   1.223   8.128 -0.1241  0.6802 -0.4979
  432MOL0     H59588   4.119   1.185   8.375  0.4323  0.7398  0.4584
  432MOL0     H59589   4.234   1.227   8.242 -0.3773 -0.3789 -2.3919
  432MOL0     H59590   4.131   1.424   8.448  2.5602  3.1287  2.1603
  432MOL0     H59591   4.242   1.456   8.309 -0.4478  2.2028  1.4912
  432MOL0     H59592   4.300   1.295   8.561 -1.1466  0.3643  0.0624
  432MOL0     H59593   4.374   1.447   8.511  0.6304 -0.9778  3.4355
  432MOL0     H59594   4.409   1.186   8.368 -2.9928  1.1472  1.1700
  432MOL0     H59595   4.535   1.268   8.469 -3.6577 -1.7939  2.0440
  432MOL0     H59596   3.296   1.398   8.131 -0.2569 -0.8824 -0.7313
  432MOL0     H59597   3.172   1.592   8.045  0.5246 -0.1568  2.1476
  432MOL0     H59598   3.139   2.014   7.835 -0.6325 -0.3336  0.0963
  432MOL0     H59599   2.990   2.221   7.808  2.4609  0.1114 -1.0156
  432MOL0     H59600   1.902   3.278   8.653 -0.1462  0.7876 -1.1371
  432MOL0     H59601   1.692   3.384   8.765  0.1418  0.6022  1.5166
  432MOL0     H59602   1.432   3.595   8.887  2.0198  1.1932  0.7934
  432MOL0     H59603   1.193   3.672   8.948 -1.5501  3.0223  0.5876
  432MOL0     H59604   0.999   3.960   9.185 -0.8544 -0.0528 -2.3191
  432MOL0     H59605   1.161   4.018   9.217 -1.8055  1.4759  1.4763
  432MOL0     H59606   1.002   4.072   8.961 -0.8969  1.5564 -0.2052
  432MOL0     H59607   1.174   4.104   8.990 -0.6266  0.4429  0.4372
  432MOL0     H59608   1.106   4.267   9.179  0.8554 -0.7255 -0.3843
  432MOL0     H59609   1.034   4.305   9.027  0.3768  2.9541  2.1646
  432MOL0     H59610   0.882   4.123   9.230  1.7309  0.8253 -0.0337
  432MOL0     H59611   0.824   4.199   9.079  2.2802  2.5013 -2.0830
  432MOL0     H59612   0.843   4.528   9.353 -1.7522  0.5061  1.7319
  432MOL0     H59613   1.364   4.006   9.136 -1.9675  1.7763 -1.8924
  432MOL0     H59614   1.696   3.908   9.145  1.2979  2.5281 -0.6314
  432MOL0     H59615   1.636   4.026   9.037 -0.6072 -1.5491 -2.0214
  432MOL0     H59616   1.569   4.008   9.211  3.8046 -0.6375  1.6490
  433MOL0     O59617   4.248   2.682   3.439 -0.9829 -0.4250 -0.7355
  433MOL0     C59618   4.291   2.611   3.529  0.5996  0.5870 -0.3909
  433MOL0     O59619   4.218   2.499   3.574  0.3247  0.4284 -0.0316
  433MOL0     C59620   4.095   2.449   3.526 -0.8356 -0.4794 -0.1997
  433MOL0     C59621   4.002   2.407   3.616  0.0599  0.5864 -1.2812
  433MOL0     C59622   3.883   2.355   3.585  0.3033 -0.2675 -0.7212
  433MOL0     C59623   3.843   2.358   3.448  0.6277  0.5024 -0.6212
  433MOL0     O59624   3.727   2.299   3.402  0.0438 -0.8864 -0.9612
  433MOL0     C59625   3.644   2.217   3.486  0.2855  0.7327  0.9155
  433MOL0     C59626   3.570   2.139   3.385 -0.3613 -0.0799 -0.7594
  433MOL0     C59627   3.453   2.223   3.349  0.4934 -0.2371  0.0448
  433MOL0     C59628   3.360   2.154   3.244 -0.2708 -0.1851  0.2823
  433MOL0     C59629   3.258   2.258   3.191  1.0313  0.6580 -0.1917
  433MOL0     C59630   3.173   2.334   3.300  0.4780 -0.2501  0.1668
  433MOL0     C59631   3.069   2.432   3.253 -0.3004  0.5650  0.9643
  433MOL0     C59632   2.958   2.362   3.173  0.1745  0.3064 -0.0700
  433MOL0     N59633   2.881   2.266   3.258  0.4133 -0.1580  0.7042
  433MOL0     C59634   2.771   2.311   3.333 -0.2595  1.0197  0.8207
  433MOL0     C59635   2.756   2.205   3.414  0.8449 -0.0148  0.2295
  433MOL0     C59636   2.660   2.200   3.528 -0.5039  0.4780 -0.1321
  433MOL0     C59637   2.666   2.071   3.618 -0.0861  0.5131 -0.9478
  433MOL0     C59638   2.602   1.950   3.549  0.2865 -0.0673 -0.2015
  433MOL0     C59639   2.454   1.925   3.577  0.2835  1.2309  0.1967
  433MOL0     O59640   2.404   1.803   3.514  0.9209 -0.7469  0.0824
  433MOL0     C59641   2.275   1.763   3.557 -1.2439 -0.2507 -0.8210
  433MOL0     C59642   2.171   1.846   3.621 -0.5678 -0.1443  0.0778
  433MOL0     C59643   2.037   1.808   3.636 -0.3842  0.3156  0.0330
  433MOL0     C59644   1.937   1.907   3.688  0.7053 -0.2360 -0.1324
  433MOL0     C59645   2.007   1.675   3.598 -0.2545 -0.5871  0.3588
  433MOL0     C59646   1.878   1.609   3.619  0.2738  0.2438  0.2411
  433MOL0     O59647   1.809   1.638   3.736 -0.3012  1.0125 -0.5782
  433MOL0     C59648   1.690   1.569   3.759 -0.2161  0.4833  0.3383
  433MOL0     C59649   1.676   1.534   3.900  0.1196 -0.6413  0.5831
  433MOL0     C59650   1.564   1.449   3.937 -0.0671  0.3242  0.7429
  433MOL0     C59651   1.467   1.406   3.853  0.6776 -0.7541  1.3313
  433MOL0     O59652   1.359   1.329   3.896  0.4987 -0.1656 -0.2523
  433MOL0     C59653   1.243   1.316   3.809  0.6999 -0.2223  0.5572
  433MOL0     C59654   1.118   1.280   3.902  0.1552  0.2530 -0.1746
  433MOL0     C59655   0.981   1.304   3.840  0.0806  0.8268  0.1661
  433MOL0     C59656   0.965   1.450   3.810  0.6952  0.0024  0.5242
  433MOL0     C59657   0.825   1.489   3.751 -0.7168  0.8451 -0.7505
  433MOL0     C59658   0.843   1.549   3.611 -0.6410  0.3553 -0.3894
  433MOL0     C59659   0.713   1.605   3.556 -0.6166 -0.7025  0.5911
  433MOL0     C59660   0.692   1.750   3.609  0.2897 -0.1043  1.0011
  433MOL0    Cl59661   0.811   1.862   3.538 -0.9076 -0.9382  0.1246
  433MOL0     C59662   1.489   1.437   3.714  0.1304 -1.2895 -0.2131
  433MOL0     C59663   1.596   1.507   3.668 -0.1853  1.5329  0.4116
  433MOL0     O59664   1.834   1.562   3.519  0.5762 -0.5631  0.1670
  433MOL0     C59665   2.108   1.584   3.548 -0.2471 -0.4686 -0.2451
  433MOL0     C59666   2.238   1.635   3.523  0.7825 -0.6225 -0.6864
  433MOL0     N59667   2.825   2.094   3.365  0.0114 -0.3442 -0.0374
  433MOL0     N59668   2.892   2.133   3.268 -0.3625 -0.2226  0.0214
  433MOL0     C59669   3.929   2.418   3.359 -0.4666  1.1269  0.5351
  433MOL0     C59670   4.060   2.460   3.393 -0.1680  0.0075 -0.2718
  433MOL0     C59671   4.419   2.649   3.598  1.5819 -0.1584  0.4586
  433MOL0     C59672   4.498   2.543   3.637 -0.2348  1.0161 -0.3570
  433MOL0     C59673   4.630   2.565   3.693  0.5570 -0.1016  0.3197
  433MOL0     C59674   4.672   2.698   3.706 -0.6130  0.4021  0.0238
  433MOL0     O59675   4.798   2.736   3.756  0.0119 -0.6648  0.9941
  433MOL0     C59676   4.883   2.637   3.829  0.4946 -0.4532 -0.0874
  433MOL0     C59677   5.026   2.698   3.814  0.3211  0.9281 -0.7180
  433MOL0     C59678   5.036   2.838   3.867  0.0344 -0.3227  0.0722
  433MOL0     C59679   5.182   2.868   3.844  0.6167 -0.2923 -0.9424
  433MOL0     C59680   5.213   3.011   3.848 -0.2382  0.2314  0.0084
  433MOL0     C59681   5.246   3.130   3.865  0.5157 -0.7223 -0.5023
  433MOL0     C59682   4.593   2.810   3.666 -0.4274  0.0606 -0.0717
  433MOL0     C59683   4.463   2.784   3.624  1.8255 -0.5130  1.4751
  433MOL0     C59684   4.370   2.910   3.591 -0.4423 -0.6628 -0.3522
  433MOL0     H59685   4.031   2.409   3.720  0.6454 -2.4360 -1.2966
  433MOL0     H59686   3.821   2.320   3.666  1.7716 -1.0975  0.0981
  433MOL0     H59687   3.586   2.279   3.555  0.7430 -0.1879  2.1557
  433MOL0     H59688   3.696   2.143   3.547 -1.5555  0.2884  2.0214
  433MOL0     H59689   3.640   2.107   3.307  0.5205  0.0658 -0.0497
  433MOL0     H59690   3.537   2.043   3.426  2.6749 -0.8253  0.2336
  433MOL0     H59691   3.392   2.247   3.436  2.8045  2.9017  0.9778
  433MOL0     H59692   3.494   2.313   3.303  5.6275 -1.8881  0.7848
  433MOL0     H59693   3.422   2.121   3.160 -1.0582  2.5234 -1.4982
  433MOL0     H59694   3.312   2.068   3.292  2.6706 -1.1216  1.8451
  433MOL0     H59695   3.188   2.190   3.143  1.0504  2.2858 -2.7308
  433MOL0     H59696   3.282   2.334   3.115 -1.4880  1.8646  0.1383
  433MOL0     H59697   3.109   2.264   3.355 -1.3539  4.5043  5.0129
  433MOL0     H59698   3.222   2.392   3.379  3.8975 -2.4471 -0.1637
  433MOL0     H59699   3.119   2.507   3.191 -1.7298  2.1986  1.7067
  433MOL0     H59700   3.025   2.481   3.340 -1.8626 -0.3775  0.7366
  433MOL0     H59701   2.889   2.437   3.133 -0.3633 -0.2602 -0.2074
  433MOL0     H59702   3.017   2.317   3.093  3.0181 -0.5097  2.2765
  433MOL0     H59703   2.732   2.411   3.346 -2.3431  0.1693  1.6504
  433MOL0     H59704   2.561   2.225   3.491 -0.9690 -1.3069 -0.1820
  433MOL0     H59705   2.688   2.285   3.592  1.1103  0.9851 -1.4418
  433MOL0     H59706   2.768   2.036   3.635 -0.3560 -1.7421 -3.3212
  433MOL0     H59707   2.624   2.095   3.716  3.1050  0.5564  0.5252
  433MOL0     H59708   2.626   1.950   3.442  0.7425 -0.6729 -0.1071
  433MOL0     H59709   2.660   1.861   3.576  0.5294  0.5251  1.3003
  433MOL0     H59710   2.443   1.913   3.686  0.9179 -0.2322  0.1261
  433MOL0     H59711   2.388   2.008   3.551 -0.7497  1.3552  2.8297
  433MOL0     H59712   2.192   1.951   3.634 -3.9262  0.5734  0.6794
  433MOL0     H59713   1.831   1.888   3.669  0.4452  1.0435 -0.0923
  433MOL0     H59714   1.951   2.004   3.639 -4.4379 -0.7707 -3.3686
  433MOL0     H59715   1.940   1.910   3.797  1.0257  1.6402 -0.1524
  433MOL0     H59716   1.753   1.566   3.969  0.7952  0.7994 -0.7800
  433MOL0     H59717   1.554   1.405   4.035 -0.9184 -2.5032 -0.5022
  433MOL0     H59718   1.222   1.405   3.750  0.6669 -1.4908 -1.4524
  433MOL0     H59719   1.267   1.241   3.733  0.7787 -1.0252  1.3529
  433MOL0     H59720   1.127   1.174   3.930 -2.7119  0.4339  1.9098
  433MOL0     H59721   1.115   1.332   3.998  0.0263  3.0313 -1.6099
  433MOL0     H59722   0.902   1.279   3.911 -1.8655  0.2975 -2.0583
  433MOL0     H59723   0.964   1.238   3.754 -2.9127  0.4284  0.9366
  433MOL0     H59724   1.045   1.485   3.744 -0.9836  2.2771 -0.4287
  433MOL0     H59725   0.970   1.502   3.906 -1.2714 -0.9711  1.1979
  433MOL0     H59726   0.767   1.396   3.759 -0.7028  0.9651  1.0809
  433MOL0     H59727   0.774   1.551   3.826 -1.7817 -0.9691  0.0988
  433MOL0     H59728   0.885   1.469   3.550  0.6724 -0.3788  1.3937
  433MOL0     H59729   0.924   1.621   3.608 -0.0433 -0.1443  1.9074
  433MOL0     H59730   0.627   1.544   3.585 -1.3121 -0.3247 -0.6041
  433MOL0     H59731   0.706   1.618   3.447 -4.1850  3.5959  1.0419
  433MOL0     H59732   0.705   1.750   3.717 -1.0762 -0.7581  1.1857
  433MOL0     H59733   0.589   1.777   3.583  0.2926 -0.4072  0.6643
  433MOL0     H59734   1.424   1.409   3.632  2.5585  1.1784 -3.2264
  433MOL0     H59735   1.595   1.524   3.561  1.4366 -0.8665 -0.0779
  433MOL0     H59736   2.105   1.482   3.512  0.8003 -1.1438  1.4573
  433MOL0     H59737   2.316   1.568   3.488  0.0286 -2.9332  1.7419
  433MOL0     H59738   3.895   2.437   3.258 -1.1292  0.1874  0.5677
  433MOL0     H59739   4.121   2.501   3.313  0.7064  1.5006  1.1080
  433MOL0     H59740   4.470   2.440   3.618 -0.4214 -0.4596  5.7734
  433MOL0     H59741   4.704   2.492   3.723  1.6357  0.6239 -0.5361
  433MOL0     H59742   4.861   2.609   3.932  4.5700  0.0284  1.0988
  433MOL0     H59743   4.893   2.540   3.778 -0.6948 -1.1826  1.0309
  433MOL0     H59744   5.059   2.678   3.712  1.0769 -0.8771 -0.1656
  433MOL0     H59745   5.093   2.633   3.872 -0.5317  0.2776 -0.4276
  433MOL0     H59746   4.974   2.912   3.815  1.5785  1.6874  0.9527
  433MOL0     H59747   5.009   2.836   3.973 -1.1410 -1.6977 -0.2216
  433MOL0     H59748   5.210   2.826   3.747 -1.3673  0.6398 -1.9845
  433MOL0     H59749   5.234   2.831   3.933 -0.7338 -2.6392 -1.0739
  433MOL0     H59750   5.268   3.234   3.876  3.2655 -1.2927  0.0458
  433MOL0     H59751   4.616   2.910   3.702 -1.7913 -0.8768  3.9749
  433MOL0     H59752   4.274   2.891   3.640 -1.9761 -2.5847 -3.7260
  433MOL0     H59753   4.420   2.995   3.637 -1.2261 -1.3353  1.8826
  433MOL0     H59754   4.355   2.925   3.484  0.6555  0.9157 -0.3107
  434MOL0     O59755   2.260   9.246   9.841 -0.5203 -0.0480 -0.4733
  434MOL0     C59756   2.355   9.260   9.764  0.4164  0.9574  0.1849
  434MOL0     O59757   2.479   9.203   9.771  0.5124 -0.7287 -0.4268
  434MOL0     C59758   2.526   9.131   9.888  0.4519  0.3188  0.0349
  434MOL0     C59759   2.457   9.125  10.014  0.5587 -0.7249  0.5072
  434MOL0     C59760   2.524   9.049  10.115  0.5251  0.6542 -0.3035
  434MOL0     C59761   2.651   8.984  10.098  0.4417  0.3706  0.7813
  434MOL0     O59762   2.711   8.887  10.176  0.0386 -0.5099 -0.2702
  434MOL0     C59763   2.672   8.901  10.308  0.6560  0.8364 -0.4072
  434MOL0     C59764   2.753   8.805  10.394  0.0983 -0.2894 -0.5811
  434MOL0     C59765   2.873   8.872  10.458  0.7944 -0.1204  0.3139
  434MOL0     C59766   2.964   8.760  10.525 -0.4461  0.2846  0.3091
  434MOL0     C59767   3.062   8.693  10.422 -0.4750  1.0760 -0.6352
  434MOL0     C59768   3.151   8.582  10.475  0.9140 -0.5929 -0.1538
  434MOL0     C59769   3.262   8.655  10.551 -0.1821  1.0004  0.1382
  434MOL0     C59770   3.360   8.544  10.609 -0.4913  0.4868 -1.5683
  434MOL0     N59771   3.472   8.511  10.527 -0.2918  0.8906  0.2178
  434MOL0     C59772   3.472   8.439  10.410  0.7946 -0.4301 -0.5918
  434MOL0     C59773   3.595   8.444  10.364 -0.1914  0.5473 -0.6250
  434MOL0     C59774   3.655   8.389  10.245 -1.2410  0.4796 -1.1405
  434MOL0     C59775   3.556   8.324  10.150  0.6061  0.6405  0.5942
  434MOL0     C59776   3.616   8.287  10.015 -0.3305 -0.7558  0.3190
  434MOL0     C59777   3.686   8.402   9.929 -1.2601 -0.1780  0.2557
  434MOL0     O59778   3.827   8.402   9.962 -0.0611 -0.0598 -0.8970
  434MOL0     C59779   3.886   8.517   9.931 -0.3435  0.3891 -0.3411
  434MOL0     C59780   4.032   8.511   9.920  0.2956 -0.5021 -0.2580
  434MOL0     C59781   4.120   8.616   9.899 -0.6715 -0.1305  0.8084
  434MOL0     C59782   4.260   8.569   9.869 -0.0263 -0.4551 -0.1238
  434MOL0     C59783   4.072   8.750   9.892 -0.2924 -0.1449  0.4332
  434MOL0     C59784   4.156   8.873   9.895 -0.4750 -0.1816  1.0559
  434MOL0     O59785   4.289   8.864   9.909 -0.4343 -0.4661 -0.3019
  434MOL0     C59786   4.362   8.979   9.929  0.8924 -0.7046 -0.4752
  434MOL0     C59787   4.467   9.006   9.856  0.2972  0.4390  0.1293
  434MOL0     C59788   4.537   9.128   9.857  0.0794 -1.1475 -0.2026
  434MOL0     C59789   4.509   9.228   9.954  0.2648  0.8041  0.8925
  434MOL0     O59790   4.580   9.343   9.944  0.8153 -0.7649 -0.4590
  434MOL0     C59791   4.596   9.433  10.058  0.0166  0.0823  0.5422
  434MOL0     C59792   4.713   9.524  10.047  0.2628  0.1118  0.4964
  434MOL0     C59793   4.689   9.624   9.940  0.0675  0.9520  0.2092
  434MOL0     C59794   4.813   9.720   9.935 -0.4048  0.5572 -0.6258
  434MOL0     C59795   4.787   9.875   9.926  0.6081  0.4942  0.3355
  434MOL0     C59796   4.897   9.945  10.015 -0.9469  0.0182 -1.0627
  434MOL0     C59797   5.035   9.922   9.952  0.2740 -0.7914 -0.9796
  434MOL0     C59798   5.136   9.998  10.038  0.7924  0.0950  1.0595
  434MOL0    Cl59799   5.281  10.019   9.940 -0.3590  0.0390  0.7703
  434MOL0     C59800   4.395   9.195  10.039  0.6989 -0.1523 -0.4391
  434MOL0     C59801   4.322   9.080  10.021  0.0839  0.2705  0.0933
  434MOL0     O59802   4.093   8.972   9.848  0.3447 -0.4706 -0.6955
  434MOL0     C59803   3.929   8.759   9.902  0.3524 -0.1924  0.9126
  434MOL0     C59804   3.839   8.649   9.902  0.2980  0.2197 -0.4849
  434MOL0     N59805   3.664   8.521  10.448  0.3571 -0.4070 -0.0468
  434MOL0     N59806   3.589   8.552  10.549 -1.5983 -0.1537  0.3841
  434MOL0     C59807   2.718   9.006   9.974  0.4670 -0.1714 -0.7857
  434MOL0     C59808   2.641   9.064   9.865  0.0722 -0.2097  0.4795
  434MOL0     C59809   2.325   9.334   9.636 -0.5773  0.2945  0.2041
  434MOL0     C59810   2.196   9.317   9.587 -0.6337  0.2242  0.4987
  434MOL0     C59811   2.169   9.343   9.454  0.6443 -0.0575  0.5834
  434MOL0     C59812   2.257   9.407   9.372 -0.8315  0.1483  1.8809
  434MOL0     O59813   2.228   9.483   9.259 -0.2953 -0.7166 -0.0991
  434MOL0     C59814   2.097   9.529   9.225 -0.4808 -1.8306 -0.0722
  434MOL0     C59815   2.073   9.672   9.262  0.8016 -0.2546 -0.3892
  434MOL0     C59816   1.926   9.716   9.249 -0.0677  0.1897  0.1098
  434MOL0     C59817   1.905   9.802   9.114 -0.1205  0.2945 -0.8576
  434MOL0     C59818   1.897   9.720   8.995  0.4500  0.5450 -1.0821
  434MOL0     C59819   1.876   9.651   8.908 -0.2323 -0.1564  0.3062
  434MOL0     C59820   2.390   9.425   9.422 -0.5693 -1.2315  0.4440
  434MOL0     C59821   2.427   9.394   9.556  0.7277  0.8927 -0.2081
  434MOL0     C59822   2.572   9.410   9.596 -0.1428  0.1406  0.7327
  434MOL0     H59823   2.369   9.182  10.040  0.6977  0.4719 -1.4336
  434MOL0     H59824   2.479   9.039  10.213  3.0670 -0.2327  0.8370
  434MOL0     H59825   2.570   8.863  10.322  0.9692  0.2017  0.2516
  434MOL0     H59826   2.685   9.004  10.342  3.2614  1.2167 -2.2296
  434MOL0     H59827   2.679   8.766  10.464  2.8115 -0.0934  2.6632
  434MOL0     H59828   2.793   8.720  10.338  3.0236  0.2541  0.5110
  434MOL0     H59829   2.935   8.930  10.388 -2.2870 -0.5653 -3.0611
  434MOL0     H59830   2.841   8.935  10.542  0.2849  0.4607 -0.3058
  434MOL0     H59831   3.019   8.800  10.611  0.7512  1.0707 -0.7969
  434MOL0     H59832   2.898   8.682  10.566 -0.1595 -0.6766 -0.9995
  434MOL0     H59833   3.123   8.773  10.380  2.3440 -0.7700 -0.3229
  434MOL0     H59834   3.000   8.655  10.340 -1.1574  2.7909 -0.9624
  434MOL0     H59835   3.096   8.511  10.537  0.5720  0.4138  0.7340
  434MOL0     H59836   3.186   8.511  10.400 -0.6795 -0.4129 -1.1254
  434MOL0     H59837   3.218   8.711  10.633 -2.6273  1.6528 -1.4963
  434MOL0     H59838   3.322   8.721  10.488  2.5148  0.8311  2.3809
  434MOL0     H59839   3.390   8.578  10.708 -1.7677 -3.5521  0.4327
  434MOL0     H59840   3.318   8.445  10.627  1.5421  0.0209  1.3326
  434MOL0     H59841   3.382   8.390  10.374  0.3932  0.5636 -0.9814
  434MOL0     H59842   3.721   8.313  10.288 -3.8492 -0.5246  1.4541
  434MOL0     H59843   3.697   8.476  10.194 -2.0479  1.2186 -0.5753
  434MOL0     H59844   3.522   8.233  10.202  3.4241 -1.4049 -0.8713
  434MOL0     H59845   3.465   8.384  10.137  0.9793  1.1793  0.4488
  434MOL0     H59846   3.682   8.200  10.025  0.6492 -0.3645 -2.0568
  434MOL0     H59847   3.538   8.258   9.944 -2.1529  0.6872  1.6662
  434MOL0     H59848   3.682   8.381   9.821  2.9894  1.0425 -0.3095
  434MOL0     H59849   3.623   8.491   9.939 -1.5792 -0.3549 -0.1169
  434MOL0     H59850   4.061   8.407   9.929  2.3379  0.1703  2.3713
  434MOL0     H59851   4.317   8.642   9.811  1.0057 -2.2748 -1.5335
  434MOL0     H59852   4.263   8.477   9.809 -0.9235 -0.0880 -0.7545
  434MOL0     H59853   4.321   8.549   9.957 -4.1501 -0.6022  2.9985
  434MOL0     H59854   4.490   8.934   9.778 -0.0822  1.2447 -0.7511
  434MOL0     H59855   4.611   9.151   9.780 -1.3832  0.3446 -1.2393
  434MOL0     H59856   4.501   9.487  10.062  0.3112  1.0095 -2.4259
  434MOL0     H59857   4.616   9.378  10.150 -1.4326 -0.4569  0.5616
  434MOL0     H59858   4.738   9.565  10.145  2.7734 -2.1094  0.8798
  434MOL0     H59859   4.802   9.466  10.024  0.4125  0.2275  0.7827
  434MOL0     H59860   4.591   9.672   9.942  0.7826  3.0857 -4.1101
  434MOL0     H59861   4.679   9.574   9.843 -1.2352  0.2363  0.6845
  434MOL0     H59862   4.867   9.673   9.852 -0.3578  0.7610 -0.7110
  434MOL0     H59863   4.878   9.709  10.022  1.9959  1.8326 -2.1416
  434MOL0     H59864   4.790   9.903   9.821  0.2378  0.3687  0.2896
  434MOL0     H59865   4.690   9.901   9.970 -0.6695 -3.1164 -0.0130
  434MOL0     H59866   4.893   9.913  10.119  0.4959  1.3333 -0.5696
  434MOL0     H59867   4.879  10.052   9.996 -1.3357  0.1092 -0.2066
  434MOL0     H59868   5.035   9.945   9.845  1.7531  0.3890 -0.7662
  434MOL0     H59869   5.059   9.816   9.943  1.7768 -0.7994  1.9611
  434MOL0     H59870   5.149   9.956  10.138 -0.9419  1.1347  1.7591
  434MOL0     H59871   5.102  10.100  10.062 -0.8190 -0.1554 -0.0036
  434MOL0     H59872   4.347   9.270  10.101  0.0941  1.0235 -2.2472
  434MOL0     H59873   4.231   9.060  10.077 -0.7738  2.5035 -0.3712
  434MOL0     H59874   3.876   8.853   9.908  0.9704  0.1619  0.9514
  434MOL0     H59875   3.732   8.665   9.901  0.5918  2.8945 -2.1269
  434MOL0     H59876   2.803   8.944   9.951  0.8834  0.5640 -1.2792
  434MOL0     H59877   2.683   9.076   9.766  1.5112  0.0552  1.0969
  434MOL0     H59878   2.113   9.269   9.639 -1.8470 -0.2150 -1.6896
  434MOL0     H59879   2.062   9.339   9.432  1.4272 -0.1452 -4.2478
  434MOL0     H59880   2.082   9.539   9.117  1.1319  1.6432 -0.1367
  434MOL0     H59881   2.018   9.466   9.264 -1.1288 -0.6628  0.5628
  434MOL0     H59882   2.136   9.727   9.192 -1.2705 -2.3904 -4.2261
  434MOL0     H59883   2.110   9.698   9.362 -2.9527 -0.1521  1.1192
  434MOL0     H59884   1.845   9.643   9.248  0.0586  0.0092  1.4276
  434MOL0     H59885   1.911   9.784   9.333  2.6490 -0.2515  1.0325
  434MOL0     H59886   1.992   9.868   9.104 -0.4661  0.7984 -0.6021
  434MOL0     H59887   1.821   9.872   9.118 -2.3423 -2.2554 -0.4584
  434MOL0     H59888   1.851   9.589   8.824  1.1881  0.4375 -0.6026
  434MOL0     H59889   2.462   9.468   9.353 -0.7278  3.3476  2.7423
  434MOL0     H59890   2.612   9.383   9.695  2.5458 -0.7073 -0.4995
  434MOL0     H59891   2.627   9.338   9.535  0.1531  2.1131 -1.4681
  434MOL0     H59892   2.608   9.508   9.563  2.5778 -1.4459 -1.4230
  435MOL0     O59893   1.940   8.562   0.167  0.5287  0.0775  0.6551
  435MOL0     C59894   2.034   8.587   0.086 -0.9078  0.0167  0.2884
  435MOL0     O59895   2.166   8.540   0.101  0.9947 -0.3915 -0.0266
  435MOL0     C59896   2.202   8.494   0.219  0.0988  0.0994  0.9773
  435MOL0     C59897   2.288   8.576   0.290  0.4596  0.1923  1.0110
  435MOL0     C59898   2.334   8.541   0.411 -0.0646 -0.2765 -0.7021
  435MOL0     C59899   2.297   8.412   0.464 -0.6712 -0.0713 -0.4478
  435MOL0     O59900   2.355   8.365   0.586  0.4982  0.5421  0.1735
  435MOL0     C59901   2.304   8.427   0.695  0.1658 -0.2844  0.5857
  435MOL0     C59902   2.207   8.359   0.786 -0.5454  0.4537 -0.2540
  435MOL0     C59903   2.276   8.238   0.837  0.8506 -0.8660  0.1495
  435MOL0     C59904   2.177   8.162   0.925 -0.4930 -0.4389 -0.5178
  435MOL0     C59905   2.226   8.016   0.943  0.3264  0.0172 -0.5356
  435MOL0     C59906   2.098   7.930   0.975  0.4864 -0.1253 -0.4802
  435MOL0     C59907   2.133   7.780   0.955  1.2710  0.0482 -0.0653
  435MOL0     C59908   2.254   7.726   1.023 -0.4739  0.0579 -0.0615
  435MOL0     N59909   2.244   7.759   1.168 -0.8583 -0.3944 -0.3716
  435MOL0     C59910   2.340   7.812   1.256  0.0710 -1.1137  0.4347
  435MOL0     C59911   2.278   7.833   1.369 -0.1716  0.4798 -0.9727
  435MOL0     C59912   2.344   7.894   1.492 -0.2057  0.6536 -0.9070
  435MOL0     C59913   2.284   7.852   1.630  0.6335 -0.8983  0.7878
  435MOL0     C59914   2.203   7.954   1.703  0.1186  0.4646  0.4593
  435MOL0     C59915   2.118   7.891   1.816  0.3944 -0.7171 -0.4231
  435MOL0     O59916   2.193   7.820   1.915 -0.6274  0.7495  0.2752
  435MOL0     C59917   2.153   7.792   2.036 -0.2510 -0.8959 -0.5419
  435MOL0     C59918   2.016   7.811   2.072 -0.3926 -0.9696  0.4839
  435MOL0     C59919   1.978   7.795   2.206 -0.1416 -0.1932 -0.3463
  435MOL0     C59920   1.830   7.833   2.247 -0.5497 -0.0590 -0.3104
  435MOL0     C59921   2.082   7.754   2.302  0.5719  0.1688 -0.4680
  435MOL0     C59922   2.038   7.723   2.445 -0.3515  0.5785  0.9574
  435MOL0     O59923   2.018   7.594   2.480 -0.7547 -0.8691 -0.8739
  435MOL0     C59924   2.002   7.575   2.620 -0.4872  0.6276  1.2482
  435MOL0     C59925   1.877   7.555   2.674 -0.0270  0.7930  1.2840
  435MOL0     C59926   1.853   7.535   2.811 -0.3383 -0.3534  0.2300
  435MOL0     C59927   1.965   7.528   2.891  0.5056  0.5945 -0.2811
  435MOL0     O59928   1.933   7.499   3.023  0.7133 -0.1880  0.3180
  435MOL0     C59929   2.044   7.483   3.114  0.4770 -0.1598  0.1239
  435MOL0     C59930   2.106   7.603   3.168 -0.2027 -0.8041 -0.0828
  435MOL0     C59931   2.023   7.667   3.278  0.0525  0.1810 -0.8378
  435MOL0     C59932   2.092   7.791   3.348 -0.3308 -0.1165  0.7643
  435MOL0     C59933   2.227   7.755   3.420  0.3577 -0.8816  0.2036
  435MOL0     C59934   2.186   7.667   3.538 -0.2437  0.3568  0.5434
  435MOL0     C59935   2.296   7.661   3.639  0.1506  0.7056 -0.0472
  435MOL0     C59936   2.411   7.566   3.613  0.1242  0.2100 -0.5817
  435MOL0    Cl59937   2.503   7.553   3.763  0.5752 -0.3841  0.0690
  435MOL0     C59938   2.099   7.537   2.835  0.3869 -0.5348  0.1656
  435MOL0     C59939   2.115   7.558   2.697 -0.2082  0.6898  0.0148
  435MOL0     O59940   2.027   7.825   2.513 -0.2542 -0.4900 -0.3915
  435MOL0     C59941   2.206   7.718   2.264  0.2586  0.2681 -0.0072
  435MOL0     C59942   2.249   7.742   2.131  1.2207  0.4014  0.9030
  435MOL0     N59943   2.140   7.805   1.359 -0.5026 -0.6668 -0.6629
  435MOL0     N59944   2.126   7.763   1.234 -0.8763 -0.7353  0.7915
  435MOL0     C59945   2.217   8.321   0.396 -0.6357  0.9937 -0.4744
  435MOL0     C59946   2.170   8.372   0.277 -0.2784 -0.2929 -0.2940
  435MOL0     C59947   1.995   8.622  -0.049  0.7169  0.6662  0.3817
  435MOL0     C59948   1.857   8.597  -0.093 -0.0425  0.1279  0.1393
  435MOL0     C59949   1.823   8.615  -0.222  0.5737 -0.2578  0.0228
  435MOL0     C59950   1.907   8.687  -0.308  0.2074 -0.2059  0.8113
  435MOL0     O59951   1.867   8.733  -0.436  0.2958 -0.8213 -0.3211
  435MOL0     C59952   1.742   8.677  -0.485  1.2407 -0.0533  0.1295
  435MOL0     C59953   1.705   8.729  -0.623  0.1981 -0.1635  0.7367
  435MOL0     C59954   1.801   8.665  -0.728  0.8902  0.6931  0.3469
  435MOL0     C59955   1.744   8.651  -0.870  0.5056  0.4075  0.2199
  435MOL0     C59956   1.610   8.582  -0.886 -0.0185  0.2568 -0.6929
  435MOL0     C59957   1.503   8.522  -0.885  0.4572 -0.4330  0.7843
  435MOL0     C59958   2.035   8.726  -0.264 -0.5316  0.4286 -0.0892
  435MOL0     C59959   2.083   8.694  -0.131 -0.0938  0.8465 -0.0277
  435MOL0     C59960   2.217   8.754  -0.095 -0.2871  0.1839  0.5618
  435MOL0     H59961   2.329   8.671   0.257  0.3972  0.1566  0.8277
  435MOL0     H59962   2.401   8.597   0.476 -3.1728  0.7605  1.8993
  435MOL0     H59963   2.267   8.528   0.674 -1.2831 -0.3588  2.4951
  435MOL0     H59964   2.399   8.446   0.748  0.9881 -0.1511 -0.8870
  435MOL0     H59965   2.171   8.426   0.864  1.0635  3.8219 -2.1923
  435MOL0     H59966   2.119   8.324   0.732 -1.0474  0.6069  0.4489
  435MOL0     H59967   2.300   8.174   0.752 -0.9556 -3.6061  1.5849
  435MOL0     H59968   2.371   8.270   0.883 -0.5949  2.6741  1.0236
  435MOL0     H59969   2.175   8.224   1.015  0.5144 -1.6185  0.3534
  435MOL0     H59970   2.082   8.161   0.872  0.2173 -1.5317 -1.8274
  435MOL0     H59971   2.292   8.011   1.030 -0.4701 -2.3073  0.0287
  435MOL0     H59972   2.265   7.974   0.850 -1.8893 -0.5974 -1.2522
  435MOL0     H59973   2.048   7.957   1.069  2.2869  2.0238 -0.0712
  435MOL0     H59974   2.027   7.952   0.895  0.4428 -0.3592 -0.5073
  435MOL0     H59975   2.151   7.757   0.850 -0.0176 -3.4583  0.3472
  435MOL0     H59976   2.048   7.718   0.986  1.1894 -0.1998 -0.7754
  435MOL0     H59977   2.264   7.618   1.029 -0.3604  0.1287  2.7822
  435MOL0     H59978   2.345   7.768   0.980  0.1595 -2.1054 -0.9430
  435MOL0     H59979   2.439   7.848   1.228 -0.0358  2.0708  3.3542
  435MOL0     H59980   2.361   8.001   1.477  1.2369  0.2182 -2.8516
  435MOL0     H59981   2.450   7.869   1.494 -0.1273  0.9127 -1.5873
  435MOL0     H59982   2.215   7.767   1.625 -0.6531  0.1319  0.7002
  435MOL0     H59983   2.365   7.810   1.691  1.1790  2.0599  2.3102
  435MOL0     H59984   2.255   8.040   1.745 -0.8383 -0.0496  2.9056
  435MOL0     H59985   2.131   7.984   1.626 -0.4660  0.4576  0.9925
  435MOL0     H59986   2.053   7.974   1.848 -0.4756 -0.8350 -1.7700
  435MOL0     H59987   2.048   7.819   1.773 -0.3158 -1.1691  1.3972
  435MOL0     H59988   1.949   7.856   2.000  0.2002  1.2287  1.2405
  435MOL0     H59989   1.810   7.864   2.350 -1.4513  0.6348 -0.6830
  435MOL0     H59990   1.766   7.745   2.243 -0.1718 -0.3077 -1.0455
  435MOL0     H59991   1.787   7.901   2.173 -0.6529 -0.0552 -0.2456
  435MOL0     H59992   1.788   7.556   2.611  1.8989  1.5083 -1.5989
  435MOL0     H59993   1.753   7.526   2.852 -0.9719  0.5199 -1.0280
  435MOL0     H59994   1.998   7.429   3.197 -1.6294  0.4988 -0.5366
  435MOL0     H59995   2.123   7.416   3.078 -0.9233 -1.6240 -0.3620
  435MOL0     H59996   2.207   7.587   3.205  0.3489  2.6088  0.1612
  435MOL0     H59997   2.127   7.679   3.092  0.9189 -1.1595 -0.1403
  435MOL0     H59998   2.012   7.600   3.364  1.4898  0.9065 -0.0554
  435MOL0     H59999   1.924   7.696   3.242 -1.1122 -1.7189  0.6467
  435MOL0     H60000   2.021   7.832   3.421  2.0654  3.0306  1.5388
  435MOL0     H60001   2.120   7.863   3.271  1.8924  0.4370  2.0049
  435MOL0     H60002   2.298   7.701   3.358 -0.3775 -1.3402 -0.2590
  435MOL0     H60003   2.280   7.841   3.461 -1.7225  0.3422  0.5042
  435MOL0     H60004   2.154   7.564   3.521 -0.9731  0.6915 -0.1406
  435MOL0     H60005   2.101   7.710   3.591 -1.2267 -1.2365  0.3261
  435MOL0     H60006   2.247   7.616   3.726 -0.3311  0.2990 -0.5215
  435MOL0     H60007   2.334   7.762   3.657 -2.0233  1.8441 -1.5001
  435MOL0     H60008   2.473   7.619   3.540  1.6368  1.5882  1.5836
  435MOL0     H60009   2.373   7.475   3.565 -1.3316  0.1493  0.6117
  435MOL0     H60010   2.183   7.530   2.902 -1.4170 -1.6946  2.4613
  435MOL0     H60011   2.216   7.550   2.657 -0.2119  4.2211 -1.0370
  435MOL0     H60012   2.277   7.680   2.337 -2.2315  0.5596  2.7654
  435MOL0     H60013   2.348   7.725   2.090  0.8844 -0.0354  0.2627
  435MOL0     H60014   2.192   8.229   0.446 -1.8902 -0.4805 -3.5687
  435MOL0     H60015   2.112   8.302   0.217 -1.2787  0.1341  0.1560
  435MOL0     H60016   1.779   8.557  -0.029 -2.4329  2.9046 -0.7892
  435MOL0     H60017   1.724   8.584  -0.254  0.8280  0.2582 -1.3373
  435MOL0     H60018   1.736   8.568  -0.485 -2.4323 -0.0286  2.2387
  435MOL0     H60019   1.659   8.704  -0.419 -0.0067 -0.8134 -1.0649
  435MOL0     H60020   1.720   8.837  -0.629  0.4125  0.3924  6.0339
  435MOL0     H60021   1.600   8.704  -0.639  0.1024  0.3762  0.4879
  435MOL0     H60022   1.892   8.725  -0.726  3.8215 -3.3413  0.7721
  435MOL0     H60023   1.836   8.567  -0.692 -3.5961 -1.2024  0.1605
  435MOL0     H60024   1.819   8.594  -0.925 -0.0994 -1.0495  0.8448
  435MOL0     H60025   1.742   8.754  -0.907  0.0952  0.2006 -0.3475
  435MOL0     H60026   1.404   8.481  -0.895 -0.4876  1.9881 -0.5808
  435MOL0     H60027   2.089   8.791  -0.332  0.6845  1.4251  1.7492
  435MOL0     H60028   2.286   8.669  -0.094 -1.8123 -1.2266 -2.1747
  435MOL0     H60029   2.250   8.833  -0.163  2.3410 -0.3876  1.0732
  435MOL0     H60030   2.214   8.799   0.004 -2.0328  1.5842 -0.0817
  436MOL0     O60031   0.703   2.951   0.088 -0.1197 -0.9985  0.2972
  436MOL0     C60032   0.753   3.051   0.028 -0.8669 -0.5122 -0.7238
  436MOL0     O60033   0.802   3.164   0.095  0.4641 -0.1761 -0.8974
  436MOL0     C60034   0.830   3.171   0.225 -0.4866 -0.4059 -0.0590
  436MOL0     C60035   0.734   3.143   0.323 -0.7133 -0.1217  0.8464
  436MOL0     C60036   0.761   3.155   0.464 -0.2690 -0.0836 -0.3483
  436MOL0     C60037   0.876   3.225   0.494 -0.3302 -0.2091 -0.1196
  436MOL0     O60038   0.897   3.248   0.628 -0.2617 -0.0794  0.7969
  436MOL0     C60039   0.953   3.382   0.658 -0.3348  0.2319 -0.5762
  436MOL0     C60040   0.920   3.422   0.801  1.1252 -0.2320  0.5378
  436MOL0     C60041   0.768   3.473   0.815 -0.0682 -0.6969 -0.3139
  436MOL0     C60042   0.701   3.417   0.946 -0.2644 -0.8818 -0.8421
  436MOL0     C60043   0.666   3.265   0.955 -0.4049  0.4356 -0.4162
  436MOL0     C60044   0.559   3.240   0.850 -0.6553 -0.2750 -0.1591
  436MOL0     C60045   0.536   3.088   0.842 -0.3547  0.3293  0.7735
  436MOL0     C60046   0.511   3.015   0.977 -0.0961 -0.5705  0.6864
  436MOL0     N60047   0.381   3.042   1.051  0.0488 -1.3523  0.9592
  436MOL0     C60048   0.353   3.101   1.175 -0.2738  0.1570  0.0649
  436MOL0     C60049   0.221   3.122   1.186 -0.5777  0.1470  0.4913
  436MOL0     C60050   0.153   3.190   1.303 -0.2039 -0.1550 -0.0365
  436MOL0     C60051   0.062   3.310   1.247 -0.9401  0.0450 -0.1743
  436MOL0     C60052   0.129   3.422   1.163 -0.3280  0.1262 -0.3163
  436MOL0     C60053   0.277   3.465   1.202  0.3455 -0.0995  0.1461
  436MOL0     O60054   0.288   3.516   1.330 -0.4528  0.0431 -0.0907
  436MOL0     C60055   0.213   3.629   1.347  0.1185  0.4472 -0.1859
  436MOL0     C60056   0.188   3.660   1.479  0.3096  0.2928  0.4356
  436MOL0     C60057   0.115   3.769   1.524 -0.0811 -0.0606  0.2842
  436MOL0     C60058   0.101   3.789   1.668  0.8075  0.2555 -0.0956
  436MOL0     C60059   0.054   3.839   1.427 -0.6988 -0.2644  0.3830
  436MOL0     C60060  -0.052   3.947   1.457 -0.6701  0.3579  0.1422
  436MOL0     O60061  -0.098   3.952   1.584  0.2921 -0.6719 -0.5856
  436MOL0     C60062  -0.197   4.045   1.608  0.0924 -1.0640 -0.3252
  436MOL0     C60063  -0.319   4.036   1.543 -0.1057 -0.3064  0.3737
  436MOL0     C60064  -0.420   4.119   1.585  0.2729 -0.0724  0.2721
  436MOL0     C60065  -0.393   4.224   1.677  0.0786  0.0681  0.1175
  436MOL0     O60066  -0.485   4.329   1.703 -0.4923  0.0566 -0.0153
  436MOL0     C60067  -0.524   4.382   1.578  0.2111 -0.1197 -0.0730
  436MOL0     C60068  -0.593   4.518   1.606  1.3540  0.1077  0.4669
  436MOL0     C60069  -0.720   4.485   1.690 -0.0050  0.4822 -0.5609
  436MOL0     C60070  -0.803   4.609   1.725 -0.2994  0.1345 -0.4600
  436MOL0     C60071  -0.928   4.571   1.792  0.4964 -0.2183 -0.6704
  436MOL0     C60072  -0.982   4.694   1.874  0.7387  0.5850  0.1751
  436MOL0     C60073  -1.104   4.664   1.962  0.0650 -0.5263  0.1278
  436MOL0     C60074  -1.182   4.797   1.981 -0.6502 -0.9008 -0.5048
  436MOL0    Cl60075  -1.083   4.914   2.069  0.1452  0.0759  0.2982
  436MOL0     C60076  -0.272   4.232   1.737 -0.8216  0.5529  0.1313
  436MOL0     C60077  -0.175   4.138   1.707  0.1786 -0.6565 -0.0002
  436MOL0     O60078  -0.072   4.026   1.369  0.6186  0.0143  0.1598
  436MOL0     C60079   0.088   3.821   1.294  0.1363  1.1647  0.2515
  436MOL0     C60080   0.167   3.719   1.244 -0.4053  1.2436 -0.4573
  436MOL0     N60081   0.167   3.081   1.069  0.0626 -0.5492 -0.1478
  436MOL0     N60082   0.261   3.040   0.995 -0.5125  0.8828  0.4243
  436MOL0     C60083   0.973   3.261   0.395  0.2381 -0.0940 -0.8976
  436MOL0     C60084   0.945   3.237   0.262 -0.6671  0.1377  0.6375
  436MOL0     C60085   0.751   3.066  -0.118  0.4695 -0.6917 -0.9325
  436MOL0     C60086   0.837   3.165  -0.179 -0.6033  0.0676 -0.5523
  436MOL0     C60087   0.863   3.169  -0.315 -0.0596  0.1348 -0.8109
  436MOL0     C60088   0.798   3.076  -0.403 -1.3542 -0.4282 -0.1343
  436MOL0     O60089   0.842   3.086  -0.526 -0.2491  0.3417  0.7537
  436MOL0     C60090   0.812   2.972  -0.619 -0.9808 -0.5336 -0.5396
  436MOL0     C60091   0.950   2.907  -0.675  0.8278  0.6317 -0.4243
  436MOL0     C60092   1.020   2.827  -0.563 -0.0681  0.2715  0.0379
  436MOL0     C60093   1.110   2.904  -0.462 -0.2099 -0.1307  0.4564
  436MOL0     C60094   1.189   2.800  -0.390 -0.2811 -1.0941  0.3235
  436MOL0     C60095   1.236   2.714  -0.321 -0.4856  0.1420 -0.3769
  436MOL0     C60096   0.705   2.989  -0.350  0.2464  1.2706  0.0839
  436MOL0     C60097   0.670   2.985  -0.210 -0.0601 -0.4940  0.1923
  436MOL0     C60098   0.563   2.892  -0.150  0.0932  0.0858  0.4068
  436MOL0     H60099   0.635   3.105   0.296  0.1535  0.1172 -3.4831
  436MOL0     H60100   0.685   3.128   0.536  1.2828  1.0330  1.8031
  436MOL0     H60101   0.901   3.455   0.596 -2.4034  0.7787  1.6274
  436MOL0     H60102   1.061   3.382   0.643 -0.1716 -3.5855 -0.3723
  436MOL0     H60103   0.933   3.335   0.866 -0.5710 -0.0958  1.1209
  436MOL0     H60104   0.981   3.504   0.840  1.8133 -0.8579  0.7891
  436MOL0     H60105   0.779   3.581   0.811 -1.5374 -0.5115  0.1870
  436MOL0     H60106   0.706   3.450   0.728  1.1118 -1.9535 -0.8695
  436MOL0     H60107   0.767   3.450   1.028  1.2922 -2.3674 -1.4347
  436MOL0     H60108   0.608   3.474   0.955 -0.6306 -1.7365  1.8086
  436MOL0     H60109   0.624   3.244   1.054 -2.2583  0.6219 -1.1256
  436MOL0     H60110   0.752   3.201   0.935 -3.1738 -2.5484 -4.2218
  436MOL0     H60111   0.463   3.283   0.881 -1.5042 -0.7071 -2.0802
  436MOL0     H60112   0.581   3.289   0.755 -4.1779  4.7962  1.2052
  436MOL0     H60113   0.629   3.046   0.803  0.3461  1.8049  0.7954
  436MOL0     H60114   0.458   3.076   0.766  1.4582  2.5049 -1.5933
  436MOL0     H60115   0.523   2.907   0.962  0.1427 -0.2367 -2.0210
  436MOL0     H60116   0.591   3.034   1.048 -0.8743 -1.8280  1.9758
  436MOL0     H60117   0.427   3.116   1.253 -1.9108 -0.7249  1.8707
  436MOL0     H60118   0.232   3.211   1.375  0.5573 -1.8553 -0.3389
  436MOL0     H60119   0.090   3.120   1.358  2.1653 -1.8991  0.6071
  436MOL0     H60120  -0.027   3.263   1.204 -1.9746 -1.4188  3.2107
  436MOL0     H60121   0.045   3.362   1.342 -0.1968 -1.9424  1.1059
  436MOL0     H60122   0.123   3.414   1.054  2.0462  3.8317 -0.9117
  436MOL0     H60123   0.070   3.513   1.173  3.2952  2.5801  0.8980
  436MOL0     H60124   0.355   3.388   1.194 -0.2265 -0.5237 -1.9075
  436MOL0     H60125   0.307   3.547   1.136 -0.6557  0.6425  0.5786
  436MOL0     H60126   0.248   3.599   1.545  2.9376  4.7429  2.6410
  436MOL0     H60127  -0.002   3.764   1.694  0.4394  2.4161  0.7478
  436MOL0     H60128   0.121   3.896   1.681  1.9048  0.1060 -0.4053
  436MOL0     H60129   0.170   3.735   1.735 -0.9255  3.8696  5.2480
  436MOL0     H60130  -0.341   3.970   1.460 -2.5398  1.4993 -0.5495
  436MOL0     H60131  -0.522   4.110   1.547 -0.8937  1.9919  2.6045
  436MOL0     H60132  -0.437   4.407   1.518  0.0902  0.9435  0.1833
  436MOL0     H60133  -0.592   4.318   1.522 -1.0142 -0.6967  1.9743
  436MOL0     H60134  -0.526   4.592   1.651  1.9048 -0.3360  0.3875
  436MOL0     H60135  -0.628   4.563   1.513 -1.5705 -0.4818  1.1781
  436MOL0     H60136  -0.684   4.435   1.780 -2.2643  0.6794  0.5391
  436MOL0     H60137  -0.779   4.403   1.647 -1.2584  1.2529 -0.3506
  436MOL0     H60138  -0.828   4.662   1.633 -0.1291 -0.1785 -0.6894
  436MOL0     H60139  -0.748   4.681   1.786 -1.7306 -0.1438  1.2587
  436MOL0     H60140  -1.002   4.547   1.715 -0.7718  1.8320 -0.1890
  436MOL0     H60141  -0.918   4.482   1.854 -1.3721 -2.0392 -2.8058
  436MOL0     H60142  -0.991   4.778   1.805 -1.3936  0.1675 -0.1340
  436MOL0     H60143  -0.912   4.720   1.953 -0.6374  1.6347  1.0930
  436MOL0     H60144  -1.055   4.639   2.057 -0.4163  2.7185  1.3573
  436MOL0     H60145  -1.162   4.582   1.918  1.8203  0.2752 -4.1874
  436MOL0     H60146  -1.276   4.789   2.036 -0.6015 -1.4392 -0.4908
  436MOL0     H60147  -1.221   4.841   1.889  2.1866  3.6227  0.1557
  436MOL0     H60148  -0.231   4.306   1.804  0.7872 -0.2257  0.0453
  436MOL0     H60149  -0.079   4.154   1.756  0.3929 -0.2344 -0.5434
  436MOL0     H60150   0.049   3.886   1.217  0.6783  0.4104 -0.6796
  436MOL0     H60151   0.177   3.720   1.136  3.7582 -1.1847 -0.2901
  436MOL0     H60152   1.063   3.314   0.426 -0.1351 -0.2415  0.5026
  436MOL0     H60153   1.015   3.269   0.185 -0.7455 -1.6738 -0.2367
  436MOL0     H60154   0.898   3.227  -0.113 -0.5638  0.4430 -0.9417
  436MOL0     H60155   0.933   3.243  -0.351 -1.4732  2.7022  1.3523
  436MOL0     H60156   0.739   2.899  -0.582 -2.0383  1.3102  1.2408
  436MOL0     H60157   0.750   3.019  -0.697  1.3303  1.5196 -1.2585
  436MOL0     H60158   1.014   2.987  -0.715  0.2834  0.5303 -1.5371
  436MOL0     H60159   0.935   2.846  -0.764  0.9228 -0.3798  0.2330
  436MOL0     H60160   0.953   2.773  -0.495  0.0138 -1.0602 -0.8965
  436MOL0     H60161   1.088   2.758  -0.613 -0.2636 -0.6520  0.9831
  436MOL0     H60162   1.048   2.964  -0.395  0.6669 -1.1843  2.2962
  436MOL0     H60163   1.186   2.965  -0.511 -0.7259 -1.2771 -1.8922
  436MOL0     H60164   1.279   2.626  -0.277  2.6717  1.1238 -1.1834
  436MOL0     H60165   0.637   2.934  -0.415 -1.0007  3.5109 -0.6320
  436MOL0     H60166   0.498   2.939  -0.076  1.9889  2.0089  0.9693
  436MOL0     H60167   0.507   2.843  -0.231  0.3157 -2.6422  1.7972
  436MOL0     H60168   0.619   2.808  -0.107  0.3514  0.4296  0.7438
  437MOL0     O60169   6.646  10.566   2.332  0.2792  0.6312  0.6755
  437MOL0     C60170   6.581  10.493   2.400  0.0671  0.7645  0.8975
  437MOL0     O60171   6.492  10.537   2.489 -0.3853 -0.3047  1.3919
  437MOL0     C60172   6.499  10.665   2.544 -0.3444  0.3326  0.2567
  437MOL0     C60173   6.609  10.757   2.560 -0.1327  0.1723 -0.1057
  437MOL0     C60174   6.601  10.875   2.636  0.4678 -0.8104 -0.5241
  437MOL0     C60175   6.486  10.910   2.717  0.0688  0.0547  0.8482
  437MOL0     O60176   6.463  11.024   2.796 -0.1882  0.4264  0.5339
  437MOL0     C60177   6.570  11.103   2.841 -0.0636  0.0814  0.5908
  437MOL0     C60178   6.515  11.227   2.895 -0.0700 -0.3913 -0.7507
  437MOL0     C60179   6.433  11.206   3.021  0.0231  0.0698 -0.6484
  437MOL0     C60180   6.512  11.152   3.145  0.6348  0.6847 -0.1827
  437MOL0     C60181   6.649  11.232   3.152  0.3953  0.7369  0.0939
  437MOL0     C60182   6.761  11.179   3.250  0.4017 -0.3901 -0.2294
  437MOL0     C60183   6.868  11.288   3.270  0.4929  0.9540 -0.0478
  437MOL0     C60184   6.965  11.241   3.386 -0.4729 -0.6284  0.8663
  437MOL0     N60185   7.039  11.119   3.352  0.1626 -0.5443  0.5269
  437MOL0     C60186   7.138  11.094   3.267  0.1293  0.2122  0.2291
  437MOL0     C60187   7.148  10.964   3.241  0.2341  0.1511  0.6300
  437MOL0     C60188   7.199  10.884   3.119 -0.0143 -0.3139  0.7077
  437MOL0     C60189   7.347  10.919   3.066  0.0656 -0.3532  0.6896
  437MOL0     C60190   7.454  10.860   3.167  0.6329 -0.9180  0.5085
  437MOL0     C60191   7.587  10.825   3.098  0.7543 -0.1242  0.4031
  437MOL0     O60192   7.645  10.955   3.046  0.5646  0.8641  0.8818
  437MOL0     C60193   7.756  10.961   2.961  0.0868  0.1010  0.0500
  437MOL0     C60194   7.812  11.083   2.941  0.5946  0.4853  0.6103
  437MOL0     C60195   7.932  11.103   2.877  0.0649  0.2655  0.6655
  437MOL0     C60196   7.987  11.243   2.846  0.6867 -0.4274 -0.5409
  437MOL0     C60197   8.000  10.990   2.825 -0.5776  0.0449  0.4160
  437MOL0     C60198   8.121  10.990   2.735  0.3428 -0.1690 -0.4031
  437MOL0     O60199   8.216  11.084   2.759 -0.5141 -0.4563 -0.5889
  437MOL0     C60200   8.307  11.129   2.660  0.0721 -0.8093  0.3516
  437MOL0     C60201   8.399  11.045   2.606 -0.1903  0.0785 -0.6631
  437MOL0     C60202   8.507  11.078   2.525 -0.7567 -0.3004 -0.4697
  437MOL0     C60203   8.530  11.224   2.511 -1.0600 -0.5550 -0.8858
  437MOL0     O60204   8.640  11.261   2.435  0.7162  0.7831 -0.9509
  437MOL0     C60205   8.705  11.386   2.435 -0.9144 -0.2200 -0.0457
  437MOL0     C60206   8.643  11.462   2.316  0.2532 -0.5225  0.2672
  437MOL0     C60207   8.661  11.616   2.315 -0.1229 -0.3995 -0.9486
  437MOL0     C60208   8.606  11.669   2.180  0.4496 -0.6473  0.5009
  437MOL0     C60209   8.636  11.824   2.168 -0.9111 -0.2245 -0.2835
  437MOL0     C60210   8.566  11.877   2.048 -0.5185  0.2304  0.9043
  437MOL0     C60211   8.417  11.904   2.063  0.1476  0.2101  0.4448
  437MOL0     C60212   8.350  11.970   1.952  0.5460  0.5259 -0.0592
  437MOL0    Cl60213   8.397  11.892   1.790  0.0358  0.5654 -0.2008
  437MOL0     C60214   8.455  11.316   2.595  0.5577  1.1289  0.0988
  437MOL0     C60215   8.343  11.268   2.652  0.0606 -0.2302 -0.6451
  437MOL0     O60216   8.126  10.911   2.641 -0.8184  0.4711  0.3127
  437MOL0     C60217   7.948  10.871   2.850  0.1516  0.4741  0.1115
  437MOL0     C60218   7.827  10.855   2.916  0.5342 -0.1541 -1.0736
  437MOL0     N60219   7.067  10.910   3.336  0.4652 -0.8676  0.1588
  437MOL0     N60220   7.012  11.003   3.405  0.0907  0.9456  0.5176
  437MOL0     C60221   6.384  10.813   2.702 -0.2812 -0.4225  0.9030
  437MOL0     C60222   6.392  10.701   2.624 -0.3168 -0.8293  0.8881
  437MOL0     C60223   6.597  10.348   2.369 -0.0432 -1.0083  1.1306
  437MOL0     C60224   6.481  10.270   2.368  0.1103  0.1348 -0.2789
  437MOL0     C60225   6.475  10.129   2.339 -0.4061 -0.2946  0.1457
  437MOL0     C60226   6.595  10.062   2.302 -1.4680 -0.2876 -0.0991
  437MOL0     O60227   6.609   9.929   2.263  0.5937  0.4708  1.0457
  437MOL0     C60228   6.495   9.868   2.197  0.4384 -0.1490 -0.1649
  437MOL0     C60229   6.446   9.767   2.286  0.8385 -0.2478 -1.0063
  437MOL0     C60230   6.530   9.639   2.295 -0.2060  0.8695 -0.1499
  437MOL0     C60231   6.455   9.532   2.370  0.3281 -0.1194  0.2171
  437MOL0     C60232   6.349   9.468   2.288  0.0657  0.0081 -0.4891
  437MOL0     C60233   6.256   9.433   2.222  1.1430 -1.1898 -0.2772
  437MOL0     C60234   6.715  10.144   2.299  0.1782  0.1871 -0.4142
  437MOL0     C60235   6.722  10.272   2.351  0.1042 -0.2645 -0.7503
  437MOL0     C60236   6.862  10.337   2.368  0.1210 -0.1636 -0.7132
  437MOL0     H60237   6.703  10.722   2.518  0.4660  0.2150  1.1550
  437MOL0     H60238   6.689  10.940   2.634  0.2660 -0.4776  0.6387
  437MOL0     H60239   6.641  11.135   2.765  0.1090 -1.4236  0.0947
  437MOL0     H60240   6.629  11.048   2.915  1.9473 -0.3269 -1.2348
  437MOL0     H60241   6.598  11.299   2.896 -1.4834  1.3681  1.6632
  437MOL0     H60242   6.447  11.254   2.814 -0.3459 -0.0807 -0.4181
  437MOL0     H60243   6.381  11.294   3.060  0.7249  0.4560 -0.5781
  437MOL0     H60244   6.345  11.147   2.993 -1.9501  0.5923  3.5879
  437MOL0     H60245   6.461  11.160   3.242  4.1432  2.7073  1.7424
  437MOL0     H60246   6.521  11.043   3.140  0.8042  0.7508 -1.9351
  437MOL0     H60247   6.614  11.332   3.179 -2.0468 -0.8463  3.5655
  437MOL0     H60248   6.703  11.232   3.057 -0.4450 -0.2206 -0.4123
  437MOL0     H60249   6.718  11.171   3.350 -0.7255  2.9612 -0.3428
  437MOL0     H60250   6.816  11.092   3.213  2.0658 -1.1742  3.6538
  437MOL0     H60251   6.830  11.390   3.277  1.1636  1.1220  1.7423
  437MOL0     H60252   6.934  11.281   3.183  2.6518  0.5362  1.5233
  437MOL0     H60253   7.032  11.326   3.406 -1.2838  0.5292 -1.0314
  437MOL0     H60254   6.915  11.212   3.479 -0.0490 -0.7351  1.0657
  437MOL0     H60255   7.172  11.175   3.203 -0.6270  0.0051 -0.4587
  437MOL0     H60256   7.121  10.909   3.046  1.8017  2.0677 -0.5624
  437MOL0     H60257   7.201  10.776   3.139 -1.8797 -0.6464 -0.5728
  437MOL0     H60258   7.364  10.873   2.968  1.1944  0.0601  0.6705
  437MOL0     H60259   7.348  11.028   3.068  0.2768 -0.3133 -0.7632
  437MOL0     H60260   7.459  10.930   3.251  3.3593 -2.4501  1.7718
  437MOL0     H60261   7.403  10.767   3.196  0.8401 -2.9346 -4.5823
  437MOL0     H60262   7.658  10.789   3.173  0.8631  2.3355  1.6019
  437MOL0     H60263   7.569  10.746   3.025  2.9983 -1.8464  1.5729
  437MOL0     H60264   7.758  11.173   2.968 -1.7004 -0.5478 -0.1825
  437MOL0     H60265   8.016  11.272   2.744  1.9673  1.1407  0.2306
  437MOL0     H60266   8.064  11.271   2.918  0.9860  2.0081 -1.6992
  437MOL0     H60267   7.918  11.327   2.856  0.8298 -0.4391  0.6008
  437MOL0     H60268   8.395  10.938   2.621  3.1284  0.0404  0.9814
  437MOL0     H60269   8.572  10.998   2.493 -2.2806 -2.5319  1.6872
  437MOL0     H60270   8.691  11.453   2.520  0.1701  1.7068 -1.3300
  437MOL0     H60271   8.809  11.359   2.416 -1.8387 -3.9344 -0.6212
  437MOL0     H60272   8.687  11.418   2.227  0.3408 -3.2044  1.5189
  437MOL0     H60273   8.536  11.442   2.313  0.0618  0.4043  0.5462
  437MOL0     H60274   8.764  11.651   2.317  0.2190 -1.3862 -0.8024
  437MOL0     H60275   8.610  11.673   2.394  3.1525  2.1584 -0.4570
  437MOL0     H60276   8.500  11.645   2.179  0.1618  0.4871 -1.3337
  437MOL0     H60277   8.661  11.617   2.101 -1.4806  0.0353 -1.3968
  437MOL0     H60278   8.611  11.893   2.249  0.5145  0.1939 -0.1713
  437MOL0     H60279   8.745  11.833   2.160 -1.0062 -0.4328 -2.2619
  437MOL0     H60280   8.580  11.808   1.965 -2.4939 -0.0910  0.7953
  437MOL0     H60281   8.617  11.970   2.023 -0.7369  0.0594 -0.2369
  437MOL0     H60282   8.396  11.964   2.152 -0.1014  1.4552 -0.4358
  437MOL0     H60283   8.367  11.807   2.072 -1.1637  0.9153  1.0353
  437MOL0     H60284   8.373  12.077   1.952  0.1136  0.6466  1.3626
  437MOL0     H60285   8.242  11.963   1.972  0.5054  2.5061  0.6485
  437MOL0     H60286   8.471  11.422   2.607  4.2235  0.6288  1.0297
  437MOL0     H60287   8.277  11.334   2.707  0.6304 -0.5808  0.4834
  437MOL0     H60288   7.985  10.778   2.808 -0.3488  1.4243 -2.6953
  437MOL0     H60289   7.788  10.758   2.947 -1.2233  0.8215 -0.1254
  437MOL0     H60290   6.287  10.815   2.751  0.9427  1.8902  3.5359
  437MOL0     H60291   6.312  10.628   2.621 -0.3204 -0.7858 -1.1188
  437MOL0     H60292   6.392  10.332   2.376  1.1997  2.1284 -2.6334
  437MOL0     H60293   6.374  10.095   2.319 -1.4627  4.0348 -3.3899
  437MOL0     H60294   6.417   9.944   2.185 -0.1510 -0.5533  0.9826
  437MOL0     H60295   6.524   9.825   2.100 -2.5816  1.3726 -1.9010
  437MOL0     H60296   6.352   9.744   2.235  1.0424  0.7437 -1.8540
  437MOL0     H60297   6.423   9.805   2.386 -1.8412  1.4792 -2.1593
  437MOL0     H60298   6.542   9.592   2.198  1.9627 -1.0739  0.9651
  437MOL0     H60299   6.632   9.656   2.330  0.0303  0.5598 -0.6805
  437MOL0     H60300   6.420   9.579   2.462  0.4811 -0.4479  0.4466
  437MOL0     H60301   6.530   9.458   2.398 -2.1985 -2.6888  0.6516
  437MOL0     H60302   6.170   9.398   2.169  1.6790 -2.0590 -0.6013
  437MOL0     H60303   6.810  10.095   2.284  0.7465  1.0904  0.1468
  437MOL0     H60304   6.947  10.270   2.352  0.9813  0.4507  0.9574
  437MOL0     H60305   6.882  10.418   2.298  3.8835 -0.7020 -0.4669
  437MOL0     H60306   6.859  10.364   2.474 -0.1822 -0.9033 -0.5289
  438MOL0     O60307   3.015   5.307   2.917 -0.0358  0.0961 -0.3588
  438MOL0     C60308   2.920   5.328   2.996  0.1781  0.8898 -0.3306
  438MOL0     O60309   2.935   5.359   3.127 -0.3099 -0.6146 -0.5270
  438MOL0     C60310   3.068   5.387   3.162 -0.6489  0.1749 -0.0333
  438MOL0     C60311   3.123   5.315   3.274 -0.0800  0.2742 -0.3853
  438MOL0     C60312   3.250   5.348   3.327 -0.1564  0.4330  0.3545
  438MOL0     C60313   3.335   5.437   3.264 -0.4486 -0.3693 -0.1941
  438MOL0     O60314   3.450   5.502   3.318  0.1870 -0.6183  0.4782
  438MOL0     C60315   3.432   5.642   3.346  1.0366 -0.3850  0.1119
  438MOL0     C60316   3.542   5.688   3.448 -0.8568  1.1061 -0.0681
  438MOL0     C60317   3.509   5.815   3.535 -0.1730  0.4170  0.2967
  438MOL0     C60318   3.581   5.831   3.671  0.2478  0.2425 -0.5957
  438MOL0     C60319   3.517   5.926   3.774  1.1974  0.6722 -0.3397
  438MOL0     C60320   3.398   5.852   3.835  0.0082 -0.4234 -0.5030
  438MOL0     C60321   3.324   5.932   3.943  0.1844 -0.1067  0.3578
  438MOL0     C60322   3.181   5.894   3.981 -0.1514 -0.6584 -0.1124
  438MOL0     N60323   3.083   5.937   3.880 -0.0842  0.3950 -0.3796
  438MOL0     C60324   2.997   5.851   3.825 -0.7609  0.1609 -0.9334
  438MOL0     C60325   2.900   5.936   3.771  0.1173 -0.9024  0.3525
  438MOL0     C60326   2.774   5.900   3.700  0.9727  0.9955 -0.5152
  438MOL0     C60327   2.756   5.955   3.565 -0.2793  0.8953 -0.1132
  438MOL0     C60328   2.620   5.930   3.505  0.0334 -0.5507  1.2810
  438MOL0     C60329   2.503   5.984   3.592  0.1836 -0.1292  0.5270
  438MOL0     O60330   2.384   6.008   3.509  0.2785 -0.7094 -0.4787
  438MOL0     C60331   2.279   6.100   3.546 -0.2239  0.6719 -0.5193
  438MOL0     C60332   2.176   6.124   3.461 -0.5260  0.9777 -0.0345
  438MOL0     C60333   2.066   6.196   3.511 -0.4438 -0.8660 -1.0499
  438MOL0     C60334   1.957   6.223   3.407 -0.6340 -1.0084  0.6816
  438MOL0     C60335   2.065   6.254   3.640 -0.3922  0.1674 -0.8752
  438MOL0     C60336   1.937   6.306   3.702 -1.1966 -0.4087 -0.5471
  438MOL0     O60337   1.826   6.308   3.624 -0.6246  0.5878 -0.0740
  438MOL0     C60338   1.699   6.323   3.679 -0.4896 -1.2627 -0.4311
  438MOL0     C60339   1.664   6.393   3.793  0.5328  0.1544 -0.5163
  438MOL0     C60340   1.527   6.411   3.821 -0.4205  0.0005  0.0103
  438MOL0     C60341   1.422   6.343   3.754  0.6419 -0.0467  0.1672
  438MOL0     O60342   1.294   6.333   3.802  0.5078  0.2959 -0.0570
  438MOL0     C60343   1.263   6.403   3.927  0.2836  0.4608  0.4718
  438MOL0     C60344   1.113   6.374   3.955  0.0747 -0.4338 -0.2010
  438MOL0     C60345   1.043   6.478   4.051 -0.5986  0.4049  1.1175
  438MOL0     C60346   0.914   6.436   4.101 -0.2312 -0.6485 -0.5917
  438MOL0     C60347   0.807   6.462   3.999 -1.0465 -0.4459  1.0068
  438MOL0     C60348   0.684   6.402   4.034  0.3452  0.1701  0.1546
  438MOL0     C60349   0.554   6.402   3.949  0.2882  0.7655 -0.5013
  438MOL0     C60350   0.489   6.532   3.908  0.3801  0.2926 -0.6692
  438MOL0    Cl60351   0.375   6.610   4.038  0.1494 -0.0680 -0.4547
  438MOL0     C60352   1.461   6.280   3.634  0.4446  0.1803 -0.0261
  438MOL0     C60353   1.601   6.291   3.593 -0.9787  0.7378  0.1153
  438MOL0     O60354   1.933   6.328   3.824  0.3268 -0.3757  0.1859
  438MOL0     C60355   2.177   6.236   3.714 -0.0715 -0.1107 -0.3057
  438MOL0     C60356   2.274   6.147   3.672 -0.6516 -0.8667  0.5165
  438MOL0     N60357   2.928   6.067   3.815 -0.2583  0.4329 -0.1114
  438MOL0     N60358   3.036   6.062   3.881 -0.5541  0.1803  0.3494
  438MOL0     C60359   3.283   5.497   3.143  0.1195 -0.0870  0.2986
  438MOL0     C60360   3.151   5.474   3.097  0.3250 -0.1800  0.5000
  438MOL0     C60361   2.778   5.326   2.956 -0.9277 -0.3379  1.1582
  438MOL0     C60362   2.673   5.393   3.028 -0.2601 -0.0542 -0.4572
  438MOL0     C60363   2.533   5.391   2.993  0.7143 -0.4678  0.4226
  438MOL0     C60364   2.497   5.320   2.884 -0.6771 -0.1963  0.7525
  438MOL0     O60365   2.371   5.336   2.846  0.0148  0.7133 -0.7587
  438MOL0     C60366   2.297   5.216   2.858  0.7245  0.0101  0.2879
  438MOL0     C60367   2.144   5.248   2.867 -0.2162 -0.3505  0.5844
  438MOL0     C60368   2.076   5.180   2.994  0.7967 -0.9092  0.5184
  438MOL0     C60369   1.930   5.209   3.016 -0.4664 -0.2511 -0.8310
  438MOL0     C60370   1.881   5.174   3.149  0.0829  0.4918 -0.7419
  438MOL0     C60371   1.840   5.150   3.261  0.6771  0.7093 -0.3060
  438MOL0     C60372   2.598   5.250   2.810  0.3073  0.1362  0.4825
  438MOL0     C60373   2.733   5.253   2.844  0.2122 -0.0164  0.6290
  438MOL0     C60374   2.831   5.168   2.757 -0.2163 -0.0999  0.0947
  438MOL0     H60375   3.059   5.249   3.333  5.7057 -0.4714  6.4112
  438MOL0     H60376   3.289   5.296   3.414  4.7207  2.6349 -0.1508
  438MOL0     H60377   3.329   5.656   3.381  1.1667  1.5760 -0.1604
  438MOL0     H60378   3.452   5.694   3.252 -0.6025  0.6838  0.3191
  438MOL0     H60379   3.556   5.605   3.517 -4.9543  2.7847  3.2381
  438MOL0     H60380   3.638   5.690   3.396 -0.3988 -0.4015  0.6650
  438MOL0     H60381   3.530   5.897   3.466 -1.1102 -0.6700 -1.3254
  438MOL0     H60382   3.400   5.814   3.547 -0.3230  2.2122 -0.4767
  438MOL0     H60383   3.599   5.734   3.719 -1.3457  1.3526  2.5779
  438MOL0     H60384   3.675   5.878   3.639  0.3453  0.7553  0.3995
  438MOL0     H60385   3.481   6.013   3.719  2.8034  0.3669 -1.9954
  438MOL0     H60386   3.593   5.950   3.849  0.8955  0.9176 -0.1095
  438MOL0     H60387   3.328   5.817   3.758 -1.2600  1.0304 -0.0690
  438MOL0     H60388   3.432   5.762   3.887 -2.9848 -0.0900  2.3148
  438MOL0     H60389   3.334   6.039   3.925  2.3793 -0.2644  0.4460
  438MOL0     H60390   3.384   5.913   4.033  1.6762  0.7225 -0.4357
  438MOL0     H60391   3.162   5.790   4.010 -1.1336 -0.6734 -0.7699
  438MOL0     H60392   3.157   5.951   4.072 -1.8312 -0.2641 -0.7667
  438MOL0     H60393   3.008   5.743   3.818  0.4298  0.1604  0.4953
  438MOL0     H60394   2.696   5.929   3.771  2.6192  2.9058  0.6483
  438MOL0     H60395   2.762   5.792   3.689  0.3629  0.6636  2.5213
  438MOL0     H60396   2.776   6.062   3.558 -0.7177  0.9095 -1.4616
  438MOL0     H60397   2.832   5.913   3.498  0.0552  0.6279  0.4237
  438MOL0     H60398   2.615   5.971   3.404  0.6433  0.4461  1.6434
  438MOL0     H60399   2.610   5.821   3.494  0.7399 -0.5224  0.2496
  438MOL0     H60400   2.475   5.908   3.665 -1.4100 -3.1002 -2.8670
  438MOL0     H60401   2.537   6.080   3.632 -0.6724 -0.4600  2.1400
  438MOL0     H60402   2.180   6.081   3.361  2.7928  3.2768 -1.0520
  438MOL0     H60403   1.865   6.164   3.419 -0.6332 -0.7228  2.2513
  438MOL0     H60404   1.985   6.197   3.304 -2.9428  1.1510 -0.6053
  438MOL0     H60405   1.936   6.331   3.411 -1.1294 -1.0652 -0.0696
  438MOL0     H60406   1.739   6.438   3.857  3.0468 -0.0288 -3.1238
  438MOL0     H60407   1.516   6.457   3.919  2.8181 -0.6223  0.7643
  438MOL0     H60408   1.321   6.367   4.013  2.0541 -1.2514 -1.3193
  438MOL0     H60409   1.291   6.507   3.909 -0.1171  0.5541  0.3951
  438MOL0     H60410   1.056   6.390   3.863 -0.7836 -0.3106  0.3421
  438MOL0     H60411   1.102   6.269   3.984 -1.2551  0.5227  3.2152
  438MOL0     H60412   1.035   6.574   4.000 -1.4151  0.2705  0.9880
  438MOL0     H60413   1.114   6.480   4.135 -0.4614  0.4826  1.0001
  438MOL0     H60414   0.890   6.503   4.185  0.5930 -1.4889  0.3307
  438MOL0     H60415   0.903   6.336   4.144 -2.0355 -0.1283  0.2736
  438MOL0     H60416   0.803   6.571   3.992  0.0254 -0.5213 -2.7809
  438MOL0     H60417   0.834   6.423   3.900 -0.1854  1.5607  0.4066
  438MOL0     H60418   0.658   6.429   4.136 -2.3221 -1.8981  0.1487
  438MOL0     H60419   0.719   6.298   4.040 -0.0880  0.0401  0.5241
  438MOL0     H60420   0.488   6.324   3.989  1.1678 -0.7922 -1.9507
  438MOL0     H60421   0.586   6.366   3.851  1.7412 -0.1271  0.2571
  438MOL0     H60422   0.412   6.517   3.831 -1.8858 -0.5253  1.6124
  438MOL0     H60423   0.566   6.605   3.881  0.0795  1.4442  1.4189
  438MOL0     H60424   1.387   6.216   3.588 -1.1679 -0.0391  2.6382
  438MOL0     H60425   1.632   6.247   3.499  3.7110  1.3848  1.1276
  438MOL0     H60426   2.175   6.263   3.819 -1.1186 -1.4790  0.0567
  438MOL0     H60427   2.349   6.132   3.749 -0.6253 -0.5077  0.5642
  438MOL0     H60428   3.340   5.566   3.082 -0.8672  3.0225  2.6035
  438MOL0     H60429   3.120   5.526   3.007 -1.3774  0.2063  1.2733
  438MOL0     H60430   2.704   5.442   3.120 -1.2887 -0.3734  0.0820
  438MOL0     H60431   2.455   5.449   3.042  0.0321  0.1821 -1.3552
  438MOL0     H60432   2.313   5.163   2.764 -2.1703  0.9560 -0.8164
  438MOL0     H60433   2.325   5.145   2.936  0.3813 -1.3090 -0.7524
  438MOL0     H60434   2.098   5.196   2.782  0.9702  2.0849 -1.7281
  438MOL0     H60435   2.131   5.353   2.838  1.5426 -0.7594 -2.1392
  438MOL0     H60436   2.094   5.073   2.994 -0.8370 -1.2137 -0.2846
  438MOL0     H60437   2.137   5.206   3.081  1.9993 -2.2797  0.1265
  438MOL0     H60438   1.866   5.143   2.957 -3.5488  0.5392  1.3682
  438MOL0     H60439   1.923   5.318   3.004  1.1173  0.0415  0.3941
  438MOL0     H60440   1.784   5.128   3.349  0.1878 -0.2085 -0.8196
  438MOL0     H60441   2.553   5.186   2.734 -1.4587  0.3451  1.2917
  438MOL0     H60442   2.890   5.098   2.816 -2.5566 -2.5189 -0.1980
  438MOL0     H60443   2.783   5.097   2.688  0.6395 -0.8696  0.2752
  438MOL0     H60444   2.898   5.219   2.688 -1.5754 -2.2562 -3.1044
  439MOL0     O60445   9.031   4.175   7.033  0.2589 -0.3437 -0.3372
  439MOL0     C60446   8.972   4.070   7.007  0.5288 -0.1185 -0.3294
  439MOL0     O60447   8.849   4.034   7.051 -0.0904  0.0812  0.0331
  439MOL0     C60448   8.788   4.132   7.123  0.1119  0.1682 -0.4529
  439MOL0     C60449   8.757   4.104   7.258 -0.1506 -0.0205  0.3798
  439MOL0     C60450   8.692   4.197   7.334 -0.8446 -0.2322 -0.1793
  439MOL0     C60451   8.666   4.325   7.284 -0.1437  0.1464 -0.8312
  439MOL0     O60452   8.613   4.428   7.361 -0.1917 -0.4548  0.0686
  439MOL0     C60453   8.598   4.417   7.504  0.1816 -0.1343  0.8569
  439MOL0     C60454   8.521   4.538   7.558  0.9434  0.6227  0.2264
  439MOL0     C60455   8.595   4.673   7.544 -0.5219 -0.7825  0.2945
  439MOL0     C60456   8.519   4.782   7.616 -0.7687  0.8440  0.7317
  439MOL0     C60457   8.594   4.910   7.630  0.3494 -0.0318 -0.9460
  439MOL0     C60458   8.537   5.014   7.734  0.2485 -0.5234  0.7502
  439MOL0     C60459   8.406   5.083   7.685  0.2502  0.4376  0.3598
  439MOL0     C60460   8.375   5.196   7.784 -0.0773 -0.8878 -0.6982
  439MOL0     N60461   8.230   5.223   7.751  0.2608 -0.8300  0.3747
  439MOL0     C60462   8.190   5.263   7.616 -0.3812  0.6251  0.2348
  439MOL0     C60463   8.055   5.259   7.613 -0.0243 -0.9777 -0.2433
  439MOL0     C60464   7.971   5.271   7.494  0.2750 -0.7652 -0.3501
  439MOL0     C60465   7.911   5.417   7.477  0.1230  0.7377  0.0823
  439MOL0     C60466   7.852   5.422   7.335  0.1376 -0.8997  0.0610
  439MOL0     C60467   7.802   5.572   7.310 -0.4221 -0.2268 -0.0946
  439MOL0     O60468   7.890   5.677   7.365 -0.6810  0.1510 -0.0290
  439MOL0     C60469   7.848   5.759   7.470 -0.9358  0.5742 -0.6656
  439MOL0     C60470   7.717   5.793   7.508  0.1020  0.0606  0.4850
  439MOL0     C60471   7.685   5.878   7.613 -0.6659 -0.8136 -0.4653
  439MOL0     C60472   7.538   5.908   7.653  0.7292  1.4263 -0.2360
  439MOL0     C60473   7.798   5.935   7.690 -0.5218 -0.0252 -0.7627
  439MOL0     C60474   7.776   6.007   7.814 -0.9230 -0.1178  1.0821
  439MOL0     O60475   7.888   6.057   7.873 -0.0543  0.2805 -0.5408
  439MOL0     C60476   7.878   6.130   7.991 -0.1608 -0.4735  0.2615
  439MOL0     C60477   7.864   6.068   8.119  0.1306 -0.2488  0.6587
  439MOL0     C60478   7.835   6.147   8.232  0.0225  0.2115 -0.6815
  439MOL0     C60479   7.845   6.285   8.225  0.3709 -0.7993  0.5163
  439MOL0     O60480   7.829   6.363   8.334  0.3218 -0.1341 -0.4534
  439MOL0     C60481   7.708   6.411   8.334  0.8208  0.3920  0.0314
  439MOL0     C60482   7.696   6.526   8.446  0.3986  0.7292  0.2212
  439MOL0     C60483   7.788   6.644   8.444  0.2635  0.0212  0.7404
  439MOL0     C60484   7.742   6.753   8.345 -0.0929 -0.1706 -0.2770
  439MOL0     C60485   7.775   6.719   8.200  0.8626 -0.2431  0.1641
  439MOL0     C60486   7.768   6.843   8.107 -0.5108  0.1944  0.2297
  439MOL0     C60487   7.731   6.832   7.959  0.2749  0.2587 -0.6869
  439MOL0     C60488   7.792   6.717   7.880  0.9382 -0.3090  0.7110
  439MOL0    Cl60489   7.696   6.559   7.902  0.1947 -0.2678 -0.2889
  439MOL0     C60490   7.877   6.343   8.099 -0.0608 -0.3448 -1.2958
  439MOL0     C60491   7.885   6.268   7.983 -0.5894  0.2792  0.6142
  439MOL0     O60492   7.666   6.008   7.864  1.2327 -0.8247 -0.7251
  439MOL0     C60493   7.931   5.907   7.647  0.4343  0.7209 -0.3822
  439MOL0     C60494   7.954   5.811   7.547  0.6281 -0.8698  0.7383
  439MOL0     N60495   8.010   5.229   7.742  0.9263 -0.1329  0.3947
  439MOL0     N60496   8.111   5.204   7.810  0.2443 -0.6837 -0.6061
  439MOL0     C60497   8.687   4.348   7.145  0.8114 -0.4304 -0.2536
  439MOL0     C60498   8.752   4.255   7.067  0.8891  0.0907  0.2943
  439MOL0     C60499   9.035   3.972   6.908  0.0909  0.0443  0.5078
  439MOL0     C60500   8.947   3.895   6.832  0.2813  1.4012  0.2166
  439MOL0     C60501   9.000   3.815   6.730 -0.2218 -0.0998 -0.8054
  439MOL0     C60502   9.141   3.798   6.707  1.1221 -0.5329 -0.7861
  439MOL0     O60503   9.190   3.723   6.596 -0.4425 -0.6620 -0.5533
  439MOL0     C60504   9.253   3.603   6.633 -0.3794  0.0978  0.3436
  439MOL0     C60505   9.357   3.561   6.532  0.8110  0.7850 -0.0939
  439MOL0     C60506   9.466   3.677   6.526  0.6187  0.7511  0.3043
  439MOL0     C60507   9.590   3.628   6.454 -0.7427  0.4663 -0.0099
  439MOL0     C60508   9.682   3.736   6.416 -0.3652 -0.3688  1.1148
  439MOL0     C60509   9.775   3.814   6.390  0.0879  0.5640  0.3548
  439MOL0     C60510   9.216   3.868   6.794  0.2825 -0.6051  0.0948
  439MOL0     C60511   9.175   3.961   6.888  0.4677 -0.1069 -0.5131
  439MOL0     C60512   9.276   4.042   6.956  0.4445  0.4388  0.0775
  439MOL0     H60513   8.785   4.006   7.295 -1.2986 -0.9486 -1.1108
  439MOL0     H60514   8.672   4.166   7.436 -0.2824 -0.7580 -0.2190
  439MOL0     H60515   8.699   4.413   7.545  0.5755 -0.7969 -0.1622
  439MOL0     H60516   8.535   4.330   7.528 -3.9842  2.3370  0.0052
  439MOL0     H60517   8.426   4.532   7.504  1.4861  0.6602 -0.7639
  439MOL0     H60518   8.506   4.531   7.666  2.5159 -0.8718  0.3882
  439MOL0     H60519   8.697   4.656   7.580 -0.4753 -0.9059  0.1034
  439MOL0     H60520   8.602   4.694   7.437  1.2787 -0.5380  0.4237
  439MOL0     H60521   8.437   4.819   7.554 -0.6471  0.8535  0.5757
  439MOL0     H60522   8.474   4.746   7.709 -1.4957 -2.3309 -0.7146
  439MOL0     H60523   8.596   4.950   7.528  5.1558  1.8663 -0.4087
  439MOL0     H60524   8.696   4.886   7.664 -0.8264 -1.8908  1.5361
  439MOL0     H60525   8.525   4.965   7.831 -0.1906 -2.2437 -0.1438
  439MOL0     H60526   8.615   5.090   7.743 -0.3894  0.2109  0.2341
  439MOL0     H60527   8.326   5.008   7.685  0.7467 -0.1043 -0.1116
  439MOL0     H60528   8.416   5.126   7.585  2.7700  1.0280  0.8094
  439MOL0     H60529   8.388   5.173   7.891  3.5514 -1.2432 -1.0916
  439MOL0     H60530   8.419   5.293   7.759 -1.2280 -0.0360  0.4393
  439MOL0     H60531   8.266   5.290   7.544 -1.1458  3.1130  0.2813
  439MOL0     H60532   7.885   5.203   7.498 -0.9733  0.8082  0.6694
  439MOL0     H60533   8.040   5.252   7.411 -0.2297 -2.3715 -0.4384
  439MOL0     H60534   7.830   5.432   7.550  1.1319  3.2060  0.8083
  439MOL0     H60535   7.985   5.498   7.483  1.7194 -0.6429 -0.3506
  439MOL0     H60536   7.935   5.411   7.264 -0.0459  0.2970 -0.3707
  439MOL0     H60537   7.765   5.356   7.329 -0.0973 -0.9022  2.4734
  439MOL0     H60538   7.789   5.585   7.202 -0.7201 -0.8199 -0.1342
  439MOL0     H60539   7.697   5.588   7.340 -1.2788  0.3557 -3.0643
  439MOL0     H60540   7.633   5.761   7.448  0.1379 -1.5054  1.2339
  439MOL0     H60541   7.524   6.014   7.676 -1.3702  1.4598 -1.4041
  439MOL0     H60542   7.515   5.842   7.737  1.4306  2.0172  0.4265
  439MOL0     H60543   7.476   5.889   7.564 -2.3216  0.6922  1.9015
  439MOL0     H60544   7.856   5.960   8.112 -1.6334 -0.1417  0.6888
  439MOL0     H60545   7.803   6.094   8.320  1.7374 -1.1386 -0.8271
  439MOL0     H60546   7.680   6.457   8.239 -1.2225 -2.4606 -0.8905
  439MOL0     H60547   7.636   6.329   8.348 -0.8490  0.6620 -5.1555
  439MOL0     H60548   7.592   6.556   8.434 -0.0220 -0.5450  0.5214
  439MOL0     H60549   7.718   6.472   8.538  1.8626  1.6274  0.4284
  439MOL0     H60550   7.891   6.610   8.432 -0.0465 -0.7530  0.1996
  439MOL0     H60551   7.791   6.703   8.536  0.0221 -3.0634  2.8904
  439MOL0     H60552   7.791   6.845   8.379 -3.6478  1.7437  0.1229
  439MOL0     H60553   7.634   6.761   8.360 -0.0820  0.9845 -0.6583
  439MOL0     H60554   7.869   6.662   8.206  0.6208 -0.5016  2.2418
  439MOL0     H60555   7.700   6.647   8.166 -1.7194  0.8712  3.0516
  439MOL0     H60556   7.869   6.884   8.115 -1.1585  2.0070 -0.4463
  439MOL0     H60557   7.704   6.918   8.153 -1.6964 -2.0330  2.4562
  439MOL0     H60558   7.773   6.921   7.911 -2.3730  2.2348  0.3511
  439MOL0     H60559   7.624   6.834   7.937  0.3241 -1.7735 -1.3159
  439MOL0     H60560   7.892   6.700   7.921  1.7287 -0.5693 -1.2043
  439MOL0     H60561   7.808   6.734   7.773 -0.3256  1.0027  0.6982
  439MOL0     H60562   7.887   6.450   8.083  0.9253 -0.4194 -1.2295
  439MOL0     H60563   7.912   6.327   7.896  2.6549 -1.8228  0.0370
  439MOL0     H60564   8.017   5.954   7.694 -1.9957  3.4398  1.7289
  439MOL0     H60565   8.059   5.786   7.532  0.5380 -0.3154 -1.0642
  439MOL0     H60566   8.668   4.441   7.093 -2.0363  0.1020  1.5289
  439MOL0     H60567   8.769   4.289   6.966 -0.5091 -1.9390 -0.6810
  439MOL0     H60568   8.839   3.901   6.838  0.1482 -0.4086  0.1951
  439MOL0     H60569   8.932   3.765   6.662 -0.6670 -1.5845  0.6685
  439MOL0     H60570   9.307   3.610   6.728  2.6392  0.7265 -1.2851
  439MOL0     H60571   9.186   3.517   6.645  0.6381 -0.9083 -0.8645
  439MOL0     H60572   9.313   3.541   6.434 -1.2020  2.8953  0.2996
  439MOL0     H60573   9.402   3.466   6.563  0.4817 -0.1625 -2.3024
  439MOL0     H60574   9.426   3.765   6.473 -0.9717  1.4557  2.5282
  439MOL0     H60575   9.507   3.712   6.621  1.5547  0.2681  0.0910
  439MOL0     H60576   9.565   3.584   6.357  1.9610 -1.6790  0.1658
  439MOL0     H60577   9.641   3.550   6.511 -0.2156  0.0697 -0.9976
  439MOL0     H60578   9.845   3.893   6.372  0.9249 -0.7026 -2.6948
  439MOL0     H60579   9.321   3.852   6.771  0.9303  4.3747 -1.6007
  439MOL0     H60580   9.256   4.040   7.063  2.5696 -3.1888  0.5753
  439MOL0     H60581   9.375   3.997   6.939  0.0829  0.2015 -1.6118
  439MOL0     H60582   9.275   4.139   6.905  4.6148  1.3207  1.2565
  440MOL0     O60583   0.398   9.347   2.181  0.1630  0.3835 -0.3055
  440MOL0     C60584   0.479   9.307   2.096 -0.3273 -0.6531  0.0464
  440MOL0     O60585   0.526   9.176   2.110 -0.1460 -0.2031  0.4530
  440MOL0     C60586   0.484   9.082   2.199 -0.8598  0.7816  0.5663
  440MOL0     C60587   0.561   8.966   2.179  0.4629 -1.1085  0.7416
  440MOL0     C60588   0.532   8.856   2.253 -0.9190  1.6439  0.0521
  440MOL0     C60589   0.418   8.846   2.338 -0.1727  0.5399  0.6248
  440MOL0     O60590   0.383   8.743   2.414 -1.1176  0.0094  0.1362
  440MOL0     C60591   0.489   8.729   2.515  0.7411  0.8930  0.8824
  440MOL0     C60592   0.465   8.605   2.587  0.3034  0.5323 -0.2617
  440MOL0     C60593   0.575   8.589   2.689  0.5457 -0.0269  0.3863
  440MOL0     C60594   0.550   8.445   2.760 -0.7873 -0.8726  1.1775
  440MOL0     C60595   0.671   8.412   2.848  0.5984  0.8453  0.2243
  440MOL0     C60596   0.634   8.301   2.955  0.2441  0.3247 -0.2350
  440MOL0     C60597   0.740   8.276   3.077 -0.1823  0.1468  0.7494
  440MOL0     C60598   0.875   8.229   3.023 -0.0746 -0.2037 -0.1772
  440MOL0     N60599   0.860   8.090   2.967 -0.1369 -0.7134 -0.8033
  440MOL0     C60600   0.879   7.982   3.049  0.0958 -0.1413  0.5376
  440MOL0     C60601   0.884   7.871   2.968 -0.7421 -0.1509 -0.7851
  440MOL0     C60602   0.894   7.725   3.012  0.8931  1.0305 -0.2019
  440MOL0     C60603   1.041   7.690   3.064 -0.0930  0.6638 -0.0446
  440MOL0     C60604   1.100   7.785   3.174  1.1388  0.0516 -0.0573
  440MOL0     C60605   1.252   7.781   3.185  0.2817  0.0222 -0.0151
  440MOL0     O60606   1.295   7.662   3.257 -0.1212 -0.3783 -0.1273
  440MOL0     C60607   1.265   7.639   3.389 -0.3000 -0.5302 -0.6567
  440MOL0     C60608   1.242   7.739   3.490 -0.7838 -0.0996  0.3373
  440MOL0     C60609   1.234   7.699   3.625 -0.2733  0.6720 -0.5800
  440MOL0     C60610   1.217   7.811   3.733 -0.2100  1.0885  0.4555
  440MOL0     C60611   1.223   7.564   3.661 -0.3481 -0.2117  0.4975
  440MOL0     C60612   1.197   7.507   3.800  0.0568 -0.0836 -0.1116
  440MOL0     O60613   1.282   7.554   3.894 -0.8338 -0.4403 -0.9351
  440MOL0     C60614   1.312   7.475   4.008 -0.2053  0.9684 -0.0542
  440MOL0     C60615   1.397   7.538   4.093  0.5375 -0.2583 -0.3452
  440MOL0     C60616   1.445   7.488   4.220 -0.4315  0.2786  1.2706
  440MOL0     C60617   1.405   7.374   4.261  0.6694 -0.2286  0.4985
  440MOL0     O60618   1.411   7.353   4.397  0.5173 -0.1427  0.1464
  440MOL0     C60619   1.288   7.318   4.460  0.5276 -0.1103  1.0093
  440MOL0     C60620   1.301   7.315   4.611 -0.5945 -0.2959 -0.3879
  440MOL0     C60621   1.169   7.281   4.679 -0.0761  0.1437  0.0094
  440MOL0     C60622   1.185   7.284   4.829  0.0562  0.2866 -0.3637
  440MOL0     C60623   1.064   7.219   4.906  0.4391  0.0922 -0.5738
  440MOL0     C60624   1.004   7.308   5.031 -1.2285  0.4499  0.6106
  440MOL0     C60625   0.939   7.209   5.124 -0.2666 -0.4461 -0.1333
  440MOL0     C60626   0.890   7.292   5.244  0.1739  0.4906 -0.2521
  440MOL0    Cl60627   0.811   7.172   5.350 -0.1846 -0.4521 -0.2226
  440MOL0     C60628   1.330   7.295   4.169  0.0091 -0.2443 -0.1866
  440MOL0     C60629   1.280   7.339   4.045  1.1463 -0.1274  0.2118
  440MOL0     O60630   1.118   7.420   3.815  0.8236  0.0920  0.0489
  440MOL0     C60631   1.226   7.464   3.559 -0.1729 -0.7022 -0.6394
  440MOL0     C60632   1.251   7.500   3.424 -0.5253  0.4769  0.3449
  440MOL0     N60633   0.886   7.916   2.837 -0.3291 -0.2612  0.3303
  440MOL0     N60634   0.892   8.044   2.847 -0.3213  0.9988  0.4840
  440MOL0     C60635   0.349   8.961   2.359 -0.1058 -0.1559 -0.2604
  440MOL0     C60636   0.378   9.079   2.292 -0.3133 -0.2236 -0.4011
  440MOL0     C60637   0.546   9.390   1.993 -0.0203 -0.1206 -0.5874
  440MOL0     C60638   0.478   9.512   1.966  1.0580 -0.0395 -0.1623
  440MOL0     C60639   0.518   9.596   1.869 -0.1135 -0.4049 -0.2059
  440MOL0     C60640   0.629   9.561   1.785 -0.5220  0.5037  0.4113
  440MOL0     O60641   0.649   9.654   1.683  0.6790  0.0629  0.2741
  440MOL0     C60642   0.763   9.637   1.599 -0.0545  0.4596 -0.4812
  440MOL0     C60643   0.766   9.716   1.473  0.7917 -0.5947 -0.2265
  440MOL0     C60644   0.753   9.862   1.516  1.3645 -0.2508 -0.5830
  440MOL0     C60645   0.782   9.955   1.405  0.1474  0.3816 -0.4620
  440MOL0     C60646   0.680   9.959   1.300  0.1764 -0.2553  0.0031
  440MOL0     C60647   0.617   9.973   1.202 -0.1188  1.0280  0.5847
  440MOL0     C60648   0.701   9.439   1.818 -0.9477 -1.1485  0.6605
  440MOL0     C60649   0.664   9.365   1.927  0.0886  1.0254 -0.0479
  440MOL0     C60650   0.754   9.257   1.972 -0.4611  0.4414  0.8966
  440MOL0     H60651   0.635   8.966   2.100 -1.3418 -0.4192 -1.0070
  440MOL0     H60652   0.587   8.769   2.220  0.2221  2.5525 -0.4936
  440MOL0     H60653   0.484   8.822   2.573 -1.3168 -0.6836  3.4840
  440MOL0     H60654   0.589   8.720   2.473 -0.7710 -0.5471 -2.7714
  440MOL0     H60655   0.364   8.596   2.627 -0.8396  4.8106 -1.6478
  440MOL0     H60656   0.472   8.532   2.506  1.4556 -1.0091  1.1778
  440MOL0     H60657   0.674   8.601   2.643  0.4579  0.4497  0.3266
  440MOL0     H60658   0.555   8.663   2.766 -0.1920  0.4604 -0.2545
  440MOL0     H60659   0.447   8.450   2.798 -2.7208 -0.4748 -3.4216
  440MOL0     H60660   0.541   8.376   2.676 -0.4132 -1.5876  1.7201
  440MOL0     H60661   0.685   8.504   2.906  0.4391  1.3573 -0.5311
  440MOL0     H60662   0.760   8.381   2.792 -1.1596 -2.8096 -0.7791
  440MOL0     H60663   0.531   8.318   2.989  0.3861  1.0812 -0.1500
  440MOL0     H60664   0.628   8.215   2.888 -0.6296  1.4204 -1.6356
  440MOL0     H60665   0.693   8.211   3.152 -1.4675  0.9942  0.7307
  440MOL0     H60666   0.743   8.379   3.114  0.2205  0.3956  0.0406
  440MOL0     H60667   0.916   8.295   2.946 -0.4421 -1.0980 -1.1663
  440MOL0     H60668   0.949   8.211   3.103 -0.3953 -5.0709 -0.6432
  440MOL0     H60669   0.866   7.985   3.156 -2.8270  2.7367  0.2647
  440MOL0     H60670   0.868   7.666   2.924 -0.5108  0.8845  0.2870
  440MOL0     H60671   0.817   7.692   3.082  1.8680 -1.0839 -0.0428
  440MOL0     H60672   1.050   7.586   3.095  0.5763  1.4903  2.8899
  440MOL0     H60673   1.112   7.697   2.981  2.3753 -1.3909  1.7346
  440MOL0     H60674   1.066   7.888   3.163 -2.7375 -1.2951 -2.7157
  440MOL0     H60675   1.054   7.746   3.265  0.8795  1.6344  0.5165
  440MOL0     H60676   1.297   7.809   3.089 -1.5563  5.3570  0.3673
  440MOL0     H60677   1.283   7.866   3.247  1.1182 -0.0906 -0.2582
  440MOL0     H60678   1.244   7.846   3.476  1.2156 -0.2992 -1.4356
  440MOL0     H60679   1.279   7.781   3.818 -0.4292 -0.6731  0.0225
  440MOL0     H60680   1.112   7.813   3.764 -1.3389 -1.1304 -2.7046
  440MOL0     H60681   1.248   7.910   3.699  2.5577  0.0916 -0.1707
  440MOL0     H60682   1.416   7.640   4.063  1.2264 -0.2936 -0.0500
  440MOL0     H60683   1.500   7.549   4.291  2.4372 -0.8913  0.1750
  440MOL0     H60684   1.209   7.388   4.433  0.6341 -0.0331  0.8949
  440MOL0     H60685   1.262   7.216   4.429  0.6707 -0.3412  1.6445
  440MOL0     H60686   1.375   7.237   4.633 -2.6503 -2.1219  0.4687
  440MOL0     H60687   1.336   7.411   4.649  0.1294 -0.6957 -0.0321
  440MOL0     H60688   1.158   7.176   4.650  0.0696 -0.8435  3.1135
  440MOL0     H60689   1.085   7.339   4.639  2.0016  0.5300 -4.3069
  440MOL0     H60690   1.202   7.389   4.855 -1.5330  1.0686 -2.2361
  440MOL0     H60691   1.277   7.230   4.852 -0.3345 -0.9934 -1.6037
  440MOL0     H60692   0.978   7.191   4.844 -0.8139  0.7016  0.8012
  440MOL0     H60693   1.113   7.127   4.941  0.8765  0.5699  0.1002
  440MOL0     H60694   0.940   7.379   4.977  1.8810  1.2714 -2.4219
  440MOL0     H60695   1.077   7.370   5.084 -0.4378  2.0794 -2.1138
  440MOL0     H60696   1.015   7.136   5.156  1.0611  1.7902  2.1261
  440MOL0     H60697   0.858   7.155   5.074 -0.4050 -0.9763  0.6450
  440MOL0     H60698   0.823   7.370   5.209 -1.5065  0.5599  2.7686
  440MOL0     H60699   0.976   7.343   5.290  0.7350  2.2831 -3.0740
  440MOL0     H60700   1.311   7.193   4.202 -0.2810  0.4499  1.9648
  440MOL0     H60701   1.238   7.262   3.982 -0.5654 -0.7882  2.0625
  440MOL0     H60702   1.215   7.359   3.585 -0.7123  0.0333  2.5005
  440MOL0     H60703   1.261   7.421   3.350  1.3477  2.5465 -1.8013
  440MOL0     H60704   0.272   8.966   2.435 -2.9075  0.0025 -2.9213
  440MOL0     H60705   0.305   9.157   2.312  0.3712  0.5801 -0.9797
  440MOL0     H60706   0.393   9.549   2.022  2.6732  1.1899  1.6068
  440MOL0     H60707   0.457   9.684   1.851 -0.6698  1.1042  6.5804
  440MOL0     H60708   0.853   9.654   1.659 -0.8114  0.5719  0.6315
  440MOL0     H60709   0.767   9.533   1.567  0.3439 -0.3340  1.9545
  440MOL0     H60710   0.687   9.687   1.403 -0.1261  0.1461  0.4759
  440MOL0     H60711   0.858   9.698   1.417  1.1908  3.4121 -1.2113
  440MOL0     H60712   0.658   9.895   1.561  3.5558  2.6795  2.3587
  440MOL0     H60713   0.831   9.874   1.591  1.0499  0.1658 -0.3174
  440MOL0     H60714   0.886   9.937   1.375  1.4612  0.9968  3.2509
  440MOL0     H60715   0.798  10.057   1.442  1.7254  0.5133 -1.4188
  440MOL0     H60716   0.575   9.999   1.107  0.7583  4.5684  0.9975
  440MOL0     H60717   0.790   9.414   1.761 -1.7235  0.2566 -1.2640
  440MOL0     H60718   0.758   9.260   2.081 -0.5990 -1.5137  0.9844
  440MOL0     H60719   0.714   9.159   1.944  1.1022 -0.5780  2.0405
  440MOL0     H60720   0.857   9.273   1.936 -1.2649  1.4512 -1.1023
  441MOL0     O60721   6.556   1.062   7.296 -0.2948  0.4217  0.6870
  441MOL0     C60722   6.509   0.954   7.250  0.0948 -0.2239  0.2427
  441MOL0     O60723   6.506   0.839   7.322 -0.7734  0.2581  0.4570
  441MOL0     C60724   6.605   0.810   7.410  0.0024 -0.3000  0.2995
  441MOL0     C60725   6.575   0.731   7.524  0.3456 -0.4523  1.0211
  441MOL0     C60726   6.683   0.687   7.600 -0.2794  1.2974  0.3704
  441MOL0     C60727   6.813   0.717   7.572 -0.3742 -0.7368  0.4032
  441MOL0     O60728   6.906   0.652   7.654  0.0304 -0.8379  0.2340
  441MOL0     C60729   7.033   0.721   7.662 -0.4031  0.3901 -0.1080
  441MOL0     C60730   7.116   0.683   7.780  0.6740  0.0181 -0.2032
  441MOL0     C60731   7.148   0.531   7.788 -0.7762  0.7911  0.2091
  441MOL0     C60732   7.035   0.444   7.848  0.7355 -0.2021 -0.0329
  441MOL0     C60733   7.063   0.290   7.846 -0.3341 -0.4768 -0.0059
  441MOL0     C60734   6.943   0.206   7.897 -0.7765  0.4574 -0.1212
  441MOL0     C60735   6.989   0.053   7.896  0.7232 -0.0484 -0.4285
  441MOL0     C60736   6.863  -0.025   7.922  0.0811 -0.0150 -0.0322
  441MOL0     N60737   6.882  -0.161   7.958 -0.5104 -0.3000  0.2487
  441MOL0     C60738   6.778  -0.248   7.987  0.5137  0.2780 -1.0172
  441MOL0     C60739   6.838  -0.370   7.996 -0.4158 -0.0893 -0.0318
  441MOL0     C60740   6.767  -0.495   8.029  0.4889  1.0027  0.1357
  441MOL0     C60741   6.732  -0.496   8.183 -0.3561  0.2308  0.2999
  441MOL0     C60742   6.614  -0.604   8.212  0.0408  0.8211  1.0884
  441MOL0     C60743   6.484  -0.550   8.175  0.1771 -0.3379 -0.5867
  441MOL0     O60744   6.468  -0.423   8.240 -0.2536  0.1439  0.3375
  441MOL0     C60745   6.347  -0.353   8.236 -0.6307  0.4028  0.0333
  441MOL0     C60746   6.249  -0.390   8.140 -0.3184 -1.0566  0.9200
  441MOL0     C60747   6.139  -0.308   8.112  0.1466  0.6561  0.0169
  441MOL0     C60748   6.048  -0.355   8.007  0.2003  0.9266 -1.2168
  441MOL0     C60749   6.121  -0.198   8.197  0.5934 -1.4943  0.8155
  441MOL0     C60750   6.002  -0.108   8.188  0.0168 -0.7714 -0.7033
  441MOL0     O60751   5.944  -0.090   8.066  0.7369 -0.0787  0.5043
  441MOL0     C60752   5.837  -0.011   8.060  1.2648 -0.1344  0.2365
  441MOL0     C60753   5.864   0.123   8.088 -0.0790 -0.5098  0.4291
  441MOL0     C60754   5.772   0.224   8.060 -0.8777  0.4979  0.2562
  441MOL0     C60755   5.639   0.179   8.035  0.3095  0.1501  0.7134
  441MOL0     O60756   5.536   0.265   8.019  0.3522 -0.2222  0.3057
  441MOL0     C60757   5.411   0.239   8.091 -0.0820 -0.0795 -0.6211
  441MOL0     C60758   5.324   0.354   8.105 -0.0889 -0.5978 -0.6747
  441MOL0     C60759   5.397   0.455   8.205 -0.5911 -0.3624  0.5054
  441MOL0     C60760   5.310   0.578   8.229 -0.6108 -0.0473 -0.6376
  441MOL0     C60761   5.402   0.709   8.227 -0.0359  0.0305  0.2206
  441MOL0     C60762   5.311   0.834   8.214 -0.2348  0.1251  0.8162
  441MOL0     C60763   5.383   0.964   8.219  0.4516  0.1685  0.9538
  441MOL0     C60764   5.469   0.993   8.089 -0.6452  0.0120  0.2299
  441MOL0    Cl60765   5.640   0.913   8.079  0.1172 -0.2767  0.3765
  441MOL0     C60766   5.601   0.046   8.008  0.6291 -0.4297 -0.1872
  441MOL0     C60767   5.708  -0.054   8.026 -0.2273 -0.4600 -0.7104
  441MOL0     O60768   5.955  -0.067   8.294 -0.3032 -0.5781  0.0208
  441MOL0     C60769   6.212  -0.164   8.302 -0.8946 -0.3636  0.3712
  441MOL0     C60770   6.330  -0.251   8.322 -0.4659  0.1819 -0.2704
  441MOL0     N60771   6.968  -0.351   7.968  0.8980  0.0964  0.4958
  441MOL0     N60772   6.993  -0.229   7.942 -0.3979 -0.2101  0.4450
  441MOL0     C60773   6.841   0.788   7.457 -0.8755 -0.5814 -0.0759
  441MOL0     C60774   6.740   0.832   7.371 -0.6820 -0.8864 -0.5836
  441MOL0     C60775   6.447   0.934   7.111  0.3453 -0.1018 -0.3508
  441MOL0     C60776   6.335   0.850   7.082 -0.4530  0.7848  0.2822
  441MOL0     C60777   6.274   0.841   6.960  0.2110 -1.1672 -0.2170
  441MOL0     C60778   6.319   0.922   6.850 -0.7696  0.0477 -0.0017
  441MOL0     O60779   6.273   0.919   6.723  0.0812 -0.0635  0.5649
  441MOL0     C60780   6.195   0.803   6.691  0.5318  0.2906  0.5597
  441MOL0     C60781   6.042   0.824   6.708  0.1057  0.9521 -0.0825
  441MOL0     C60782   5.974   0.884   6.578 -1.0782 -0.8154 -0.0688
  441MOL0     C60783   6.029   1.031   6.540 -0.6184  0.3982  0.0436
  441MOL0     C60784   6.035   1.141   6.646  0.0846  0.7413  0.1425
  441MOL0     C60785   6.044   1.204   6.751  0.2934 -0.5195 -0.5713
  441MOL0     C60786   6.445   0.989   6.865  0.2024  0.3970  0.0318
  441MOL0     C60787   6.504   1.006   6.997 -0.6734  1.0843 -0.0804
  441MOL0     C60788   6.624   1.094   7.014 -0.8422 -0.8100 -0.7439
  441MOL0     H60789   6.470   0.715   7.546  0.1076  0.1864  0.3950
  441MOL0     H60790   6.668   0.615   7.680  0.2755 -1.0368 -1.4811
  441MOL0     H60791   7.024   0.830   7.664  0.4128  0.4525  1.8092
  441MOL0     H60792   7.077   0.707   7.563 -1.8569 -0.1397 -0.7112
  441MOL0     H60793   7.208   0.742   7.775  0.0415  1.0397 -0.3014
  441MOL0     H60794   7.059   0.716   7.868  0.8713 -1.1452  0.3695
  441MOL0     H60795   7.178   0.492   7.690 -2.4731  1.1530 -0.4825
  441MOL0     H60796   7.239   0.513   7.846  0.3598 -2.1577 -2.2361
  441MOL0     H60797   7.025   0.484   7.950  2.2786 -0.0327  0.0853
  441MOL0     H60798   6.945   0.462   7.790  2.1459  3.1522 -1.4723
  441MOL0     H60799   7.149   0.267   7.909  2.0452  2.2045 -2.0455
  441MOL0     H60800   7.101   0.254   7.750 -0.4197 -0.9480  0.1288
  441MOL0     H60801   6.928   0.242   7.999  0.5715  0.6390  0.0317
  441MOL0     H60802   6.849   0.225   7.844 -1.6979  2.4164  2.0422
  441MOL0     H60803   7.052   0.028   7.982 -3.0323 -3.5754  1.6567
  441MOL0     H60804   7.047   0.014   7.811  0.9208  1.4931 -1.0299
  441MOL0     H60805   6.807   0.012   8.008 -0.7381 -1.9557  0.3063
  441MOL0     H60806   6.795  -0.021   7.837 -2.7108  1.7623  2.0960
  441MOL0     H60807   6.678  -0.221   8.018  0.5776 -2.1529  1.6373
  441MOL0     H60808   6.826  -0.585   8.011 -2.3796 -1.1813  0.8602
  441MOL0     H60809   6.679  -0.504   7.965  0.9070 -3.1613 -0.1104
  441MOL0     H60810   6.811  -0.531   8.250 -1.7070 -2.4817  0.6205
  441MOL0     H60811   6.703  -0.397   8.219 -2.2168 -0.4402  0.7917
  441MOL0     H60812   6.629  -0.697   8.156  0.4441  1.7493 -0.4096
  441MOL0     H60813   6.626  -0.641   8.314  2.2506 -3.6372 -0.5304
  441MOL0     H60814   6.456  -0.551   8.069 -4.0901  1.0544  0.3497
  441MOL0     H60815   6.413  -0.625   8.211 -5.3935  2.4742 -4.2108
  441MOL0     H60816   6.275  -0.461   8.062  2.9614  0.8773  0.0518
  441MOL0     H60817   5.947  -0.317   8.028  0.1375  0.1904 -0.0641
  441MOL0     H60818   6.046  -0.464   8.003 -1.1861  0.8828 -0.0559
  441MOL0     H60819   6.079  -0.314   7.911  3.3168  0.3210 -0.5781
  441MOL0     H60820   5.963   0.157   8.117 -0.8164 -0.3253  2.9730
  441MOL0     H60821   5.790   0.329   8.081  3.5166  0.1468 -0.7647
  441MOL0     H60822   5.352   0.157   8.047  1.7381 -2.4848  1.1296
  441MOL0     H60823   5.436   0.208   8.193  2.4609  0.6557 -0.9700
  441MOL0     H60824   5.301   0.412   8.015  0.0749  0.6582  0.0701
  441MOL0     H60825   5.227   0.332   8.151  0.6112  2.0970  2.5090
  441MOL0     H60826   5.488   0.489   8.155 -1.3165  1.7891  0.5427
  441MOL0     H60827   5.429   0.409   8.300 -0.2805  1.7775  1.4925
  441MOL0     H60828   5.262   0.575   8.327 -1.2742  0.1874 -0.9505
  441MOL0     H60829   5.231   0.576   8.154  3.5284 -0.9116 -5.5457
  441MOL0     H60830   5.465   0.717   8.316  2.2753  0.9761 -1.4059
  441MOL0     H60831   5.463   0.714   8.136 -0.0852 -1.0131  0.1181
  441MOL0     H60832   5.251   0.833   8.306  1.2523  0.6548  1.8238
  441MOL0     H60833   5.248   0.833   8.125 -1.4601  0.9261  1.6440
  441MOL0     H60834   5.444   0.972   8.309  0.8039  1.5267  0.6179
  441MOL0     H60835   5.301   1.035   8.232  0.6647  0.0626  3.2496
  441MOL0     H60836   5.473   1.102   8.086 -0.4948  0.3096  4.5054
  441MOL0     H60837   5.404   0.957   8.008 -1.8339 -1.2055  1.6447
  441MOL0     H60838   5.503   0.018   7.971  0.5903 -0.0590 -0.3782
  441MOL0     H60839   5.690  -0.161   8.034 -0.7276 -0.2195  4.7762
  441MOL0     H60840   6.197  -0.096   8.385  0.5694  2.0131 -1.1939
  441MOL0     H60841   6.397  -0.210   8.398  2.7191 -4.0695 -0.4589
  441MOL0     H60842   6.942   0.807   7.421 -1.3287 -0.5121 -1.3378
  441MOL0     H60843   6.770   0.881   7.279 -1.0807 -0.2291 -0.3748
  441MOL0     H60844   6.299   0.803   7.174  5.2946 -2.0266  1.5637
  441MOL0     H60845   6.194   0.767   6.956  0.7244 -1.7931  0.7405
  441MOL0     H60846   6.225   0.769   6.592  0.6977  0.7718  0.4390
  441MOL0     H60847   6.217   0.714   6.750  1.9040  2.7108  4.0305
  441MOL0     H60848   6.016   0.871   6.804  0.7087 -0.1802  0.6539
  441MOL0     H60849   6.014   0.720   6.727  1.7629  0.6117  0.7108
  441MOL0     H60850   5.971   0.808   6.499  3.0616 -2.4549  1.1227
  441MOL0     H60851   5.868   0.902   6.601 -0.7071  0.9401  0.3405
  441MOL0     H60852   5.974   1.057   6.449 -2.8498 -3.3955  0.0986
  441MOL0     H60853   6.135   1.019   6.516 -0.4680  0.7396  0.5164
  441MOL0     H60854   6.036   1.279   6.828 -1.6613  1.9520 -2.9721
  441MOL0     H60855   6.486   1.047   6.783 -1.2655  0.1585 -0.9175
  441MOL0     H60856   6.657   1.139   6.921 -2.0777  1.7097 -0.0405
  441MOL0     H60857   6.606   1.178   7.081  1.3713  0.3150 -1.4944
  441MOL0     H60858   6.706   1.031   7.052 -2.0220 -1.3869  1.0218
  442MOL0     O60859   7.540   3.474   1.577 -0.2822  0.6801  0.0092
  442MOL0     C60860   7.498   3.374   1.528  0.6553 -0.8835 -0.2060
  442MOL0     O60861   7.531   3.249   1.555  0.3856 -0.5916 -0.4111
  442MOL0     C60862   7.606   3.215   1.661  0.0384  0.9533 -0.4890
  442MOL0     C60863   7.634   3.288   1.782  0.5518  0.7895 -0.4274
  442MOL0     C60864   7.681   3.225   1.889 -0.3142 -0.3683  0.1067
  442MOL0     C60865   7.718   3.087   1.880 -0.3642  0.1233  0.1911
  442MOL0     O60866   7.763   3.027   2.002 -0.3149 -0.3352 -0.0164
  442MOL0     C60867   7.783   2.884   2.005  0.0846 -0.4377  0.8045
  442MOL0     C60868   7.790   2.832   2.139  1.0662  0.5011 -0.4429
  442MOL0     C60869   7.934   2.837   2.208  0.0282  0.0470 -0.1515
  442MOL0     C60870   7.975   2.985   2.231 -0.2147  0.3765 -0.5819
  442MOL0     C60871   8.125   3.013   2.234  1.0708  0.3626 -0.0303
  442MOL0     C60872   8.186   2.954   2.359 -0.3443  0.6158  0.9016
  442MOL0     C60873   8.318   3.024   2.396  1.2515 -0.2330  0.2817
  442MOL0     C60874   8.385   2.967   2.522  0.2641  1.6663  1.1864
  442MOL0     N60875   8.317   2.994   2.645  0.4694 -0.4519 -0.1980
  442MOL0     C60876   8.330   3.109   2.722  0.5499 -0.0265  0.1260
  442MOL0     C60877   8.262   3.090   2.838 -0.3155 -0.3028  0.1162
  442MOL0     C60878   8.263   3.199   2.944  0.4177  0.2729  0.0430
  442MOL0     C60879   8.338   3.174   3.079 -0.3570 -0.2331  0.5607
  442MOL0     C60880   8.483   3.121   3.046 -0.5251 -0.2566  0.3895
  442MOL0     C60881   8.556   3.091   3.180 -0.0820 -0.1059 -0.4065
  442MOL0     O60882   8.697   3.098   3.146 -0.5016 -0.2816 -0.0702
  442MOL0     C60883   8.771   3.217   3.136  0.4884 -0.0620 -1.4008
  442MOL0     C60884   8.716   3.342   3.168 -1.3221  1.0267  1.3407
  442MOL0     C60885   8.805   3.449   3.182  0.1955 -0.2989  0.1132
  442MOL0     C60886   8.732   3.585   3.200  0.5385 -1.1086  0.7680
  442MOL0     C60887   8.945   3.429   3.166 -1.2524 -0.1186  1.1531
  442MOL0     C60888   9.047   3.540   3.163  1.1541  0.4477 -0.0893
  442MOL0     O60889   9.174   3.501   3.140  0.2960  0.6569 -0.4292
  442MOL0     C60890   9.273   3.596   3.159 -0.2316 -1.1204 -0.0687
  442MOL0     C60891   9.361   3.622   3.052  0.6156  0.1239  0.5012
  442MOL0     C60892   9.461   3.722   3.060 -0.4607 -0.0186  0.3321
  442MOL0     C60893   9.486   3.792   3.176  0.3627  0.0679  0.2244
  442MOL0     O60894   9.564   3.898   3.200 -1.2790  0.4611 -0.0882
  442MOL0     C60895   9.657   3.950   3.093 -0.0689 -0.6950  0.2859
  442MOL0     C60896   9.795   3.904   3.124 -0.9050 -0.8211 -0.3762
  442MOL0     C60897   9.908   3.999   3.068 -0.1459  0.5984 -0.7224
  442MOL0     C60898   9.925   3.992   2.920 -0.4367  0.3347  0.3576
  442MOL0     C60899  10.055   4.059   2.868  0.5695  0.0682 -0.8594
  442MOL0     C60900  10.075   4.204   2.899  1.0162 -1.0334 -1.1554
  442MOL0     C60901  10.182   4.279   2.819  0.8302  0.8053  0.7213
  442MOL0     C60902  10.160   4.429   2.824  0.6804  0.1836  0.8359
  442MOL0    Cl60903  10.226   4.500   2.987 -0.3150  0.1714 -0.1167
  442MOL0     C60904   9.416   3.750   3.282 -1.0111 -1.0096 -0.8439
  442MOL0     C60905   9.315   3.663   3.277  1.4416  0.5229 -0.0661
  442MOL0     O60906   9.008   3.649   3.179 -0.8105 -0.5660 -0.4453
  442MOL0     C60907   8.994   3.296   3.151 -0.8011  0.3129 -0.2046
  442MOL0     C60908   8.905   3.192   3.130 -0.2627  0.1841  0.3852
  442MOL0     N60909   8.212   2.963   2.834 -0.4532 -0.1701  0.2057
  442MOL0     N60910   8.245   2.911   2.716  0.3731 -0.2298  0.4364
  442MOL0     C60911   7.692   3.009   1.759 -0.9954 -0.4271 -0.5692
  442MOL0     C60912   7.645   3.080   1.648 -0.3145  0.1045 -0.2942
  442MOL0     C60913   7.421   3.408   1.406  0.7751  0.4380  0.4061
  442MOL0     C60914   7.286   3.443   1.425  0.7491 -0.2651 -0.4793
  442MOL0     C60915   7.208   3.475   1.316  0.8120  1.4311 -0.7042
  442MOL0     C60916   7.258   3.476   1.188  0.0135  0.3997 -0.8204
  442MOL0     O60917   7.176   3.523   1.089 -0.5201  0.3021 -0.2381
  442MOL0     C60918   7.217   3.485   0.957 -0.2714 -1.1099 -0.1606
  442MOL0     C60919   7.114   3.557   0.865  0.1486  0.5722  0.4446
  442MOL0     C60920   6.973   3.506   0.848  0.2389 -0.1036  0.3656
  442MOL0     C60921   6.899   3.610   0.761 -0.4833 -0.0116  0.2647
  442MOL0     C60922   6.760   3.561   0.735  0.5649 -0.0814  0.2041
  442MOL0     C60923   6.661   3.484   0.745 -0.0345 -0.2806  0.5478
  442MOL0     C60924   7.385   3.435   1.165  0.7958  0.9793 -0.6880
  442MOL0     C60925   7.463   3.399   1.270 -0.0353  0.0494  0.2887
  442MOL0     C60926   7.603   3.356   1.235  0.7637 -0.4140 -0.9301
  442MOL0     H60927   7.611   3.393   1.796 -1.4418  0.2234  0.9468
  442MOL0     H60928   7.701   3.274   1.983 -3.6512  0.5225  0.4797
  442MOL0     H60929   7.879   2.875   1.954  0.5902 -0.8598  1.8079
  442MOL0     H60930   7.701   2.828   1.958 -0.6509  2.0707 -1.1295
  442MOL0     H60931   7.718   2.869   2.212  0.0040 -0.8043 -0.7846
  442MOL0     H60932   7.768   2.726   2.121  4.0904  0.0971 -2.5105
  442MOL0     H60933   7.931   2.781   2.301  1.5741  0.6801  0.3166
  442MOL0     H60934   8.006   2.783   2.145 -0.8996 -1.3157 -0.0705
  442MOL0     H60935   7.944   3.048   2.147  1.0343 -0.5120 -1.7755
  442MOL0     H60936   7.946   3.029   2.326  0.0961 -0.5931 -0.0248
  442MOL0     H60937   8.145   3.121   2.241 -2.8609  1.1513  1.7327
  442MOL0     H60938   8.182   2.960   2.157 -0.4646 -2.0615  0.4030
  442MOL0     H60939   8.114   2.963   2.441  0.2606  1.7183  1.3216
  442MOL0     H60940   8.206   2.848   2.343  1.6428  0.3714  4.1215
  442MOL0     H60941   8.289   3.124   2.429 -3.1237 -1.6691  1.4561
  442MOL0     H60942   8.390   3.042   2.316  1.9055  2.4500  1.3660
  442MOL0     H60943   8.393   2.858   2.517 -0.4438  1.6508 -0.5675
  442MOL0     H60944   8.484   3.011   2.540  0.5675  1.2364  0.6544
  442MOL0     H60945   8.388   3.196   2.695 -0.0481  0.2174 -0.3922
  442MOL0     H60946   8.156   3.205   2.964  0.2909 -0.7921 -0.2502
  442MOL0     H60947   8.307   3.289   2.900 -0.2926  0.2817 -0.6584
  442MOL0     H60948   8.348   3.270   3.130 -1.5486  0.1383  0.1179
  442MOL0     H60949   8.273   3.117   3.145 -2.1993  2.2261  0.9875
  442MOL0     H60950   8.472   3.033   2.982  0.4036 -1.0326  1.2737
  442MOL0     H60951   8.535   3.206   3.000 -0.6450  0.3468  1.3557
  442MOL0     H60952   8.537   3.172   3.251  1.4380  1.5954 -1.8276
  442MOL0     H60953   8.526   2.996   3.225  1.0816 -1.1995 -1.8271
  442MOL0     H60954   8.610   3.351   3.190 -1.9337  0.9447 -1.2417
  442MOL0     H60955   8.759   3.651   3.118  0.2036 -0.9439  0.7865
  442MOL0     H60956   8.772   3.630   3.291 -0.1053 -1.8026  1.4172
  442MOL0     H60957   8.623   3.571   3.203  0.2064  0.6692 -1.0755
  442MOL0     H60958   9.359   3.571   2.956  3.1215 -0.4248  0.6716
  442MOL0     H60959   9.498   3.759   2.965  0.4865 -1.3265  0.1800
  442MOL0     H60960   9.636   3.922   2.989 -0.0871 -0.4275  0.2180
  442MOL0     H60961   9.642   4.058   3.092 -0.9181 -0.6330 -4.4209
  442MOL0     H60962   9.808   3.915   3.232  0.1857  1.2473 -0.6567
  442MOL0     H60963   9.804   3.797   3.105 -2.6654 -0.7149 -2.1435
  442MOL0     H60964  10.001   3.954   3.105 -1.2210 -1.3767 -0.2715
  442MOL0     H60965   9.890   4.102   3.099 -0.7182 -0.3777  2.5433
  442MOL0     H60966   9.834   4.032   2.874  1.3851  0.5732 -3.4810
  442MOL0     H60967   9.924   3.888   2.886 -0.0244  0.9485 -1.7104
  442MOL0     H60968  10.143   4.003   2.902 -0.2876 -0.8931 -0.1637
  442MOL0     H60969  10.046   4.038   2.761  0.9249 -0.3463 -0.8112
  442MOL0     H60970  10.105   4.211   3.004  1.4388  3.7011 -1.3518
  442MOL0     H60971   9.977   4.253   2.888  1.9271  1.0907 -0.2049
  442MOL0     H60972  10.176   4.253   2.713  0.9581 -2.1136  1.3537
  442MOL0     H60973  10.277   4.252   2.866  0.4621  1.5100  1.9122
  442MOL0     H60974  10.051   4.434   2.810  0.3523 -1.6458  2.2912
  442MOL0     H60975  10.222   4.478   2.749  1.4388 -0.7366  0.8343
  442MOL0     H60976   9.443   3.789   3.379 -1.4952  2.7290 -2.0725
  442MOL0     H60977   9.267   3.645   3.372  1.5266 -2.5360 -0.5234
  442MOL0     H60978   9.102   3.281   3.152 -0.7099  0.9634  0.2845
  442MOL0     H60979   8.940   3.091   3.111 -1.3397 -0.4008  1.4171
  442MOL0     H60980   7.714   2.904   1.751  1.5818 -0.0315  0.3979
  442MOL0     H60981   7.618   3.018   1.563  1.8423  0.4799 -1.3328
  442MOL0     H60982   7.237   3.429   1.521  1.0751  0.0169 -0.2697
  442MOL0     H60983   7.100   3.486   1.319  0.4151 -1.4007 -1.1366
  442MOL0     H60984   7.310   3.531   0.922 -0.0318 -1.3619  0.1380
  442MOL0     H60985   7.218   3.378   0.937 -1.8862 -1.4391  1.3903
  442MOL0     H60986   7.151   3.542   0.764 -1.0934  1.4202 -0.1669
  442MOL0     H60987   7.123   3.663   0.892  1.8330  0.1270  1.8314
  442MOL0     H60988   6.978   3.399   0.825 -0.3169 -0.6299  2.4947
  442MOL0     H60989   6.916   3.518   0.940 -0.7841  1.2192 -0.3929
  442MOL0     H60990   6.952   3.626   0.667 -0.0757  0.3572  0.5564
  442MOL0     H60991   6.892   3.710   0.804  3.9175  1.0849 -1.1041
  442MOL0     H60992   6.579   3.420   0.771  0.3920 -1.4274 -0.7516
  442MOL0     H60993   7.425   3.438   1.064  1.0463 -2.2538 -0.7702
  442MOL0     H60994   7.592   3.253   1.199 -2.3874 -0.3009 -0.5097
  442MOL0     H60995   7.637   3.429   1.161  2.3167  0.0266  0.1619
  442MOL0     H60996   7.684   3.354   1.309  5.1075 -0.8778 -5.1159
  443MOL0     O60997   5.751   7.365   5.352 -0.5855 -0.0375 -0.0898
  443MOL0     C60998   5.715   7.422   5.451  0.4373  0.1900 -0.3898
  443MOL0     O60999   5.603   7.496   5.462 -0.9216  0.9612 -0.3192
  443MOL0     C61000   5.511   7.514   5.361 -0.1195  0.3137  0.7242
  443MOL0     C61001   5.483   7.428   5.247  0.4955 -1.0257  0.0270
  443MOL0     C61002   5.376   7.464   5.159  0.6073 -0.1103 -0.1522
  443MOL0     C61003   5.300   7.578   5.177 -0.5917  0.8261 -0.0457
  443MOL0     O61004   5.210   7.605   5.084  0.3624 -0.4298 -0.0394
  443MOL0     C61005   5.196   7.744   5.042  0.0122  0.0351  0.6050
  443MOL0     C61006   5.326   7.790   4.973 -0.5060  0.3017 -0.1649
  443MOL0     C61007   5.373   7.704   4.861  0.3748  0.3966  1.1999
  443MOL0     C61008   5.478   7.780   4.787 -0.3369  0.1762 -0.5778
  443MOL0     C61009   5.537   7.676   4.683  0.2324 -0.4714  0.4271
  443MOL0     C61010   5.645   7.742   4.595  0.3326 -0.0761 -0.4410
  443MOL0     C61011   5.701   7.639   4.498  0.5084 -0.0696  0.3417
  443MOL0     C61012   5.840   7.652   4.445 -0.8214  0.3809 -0.5702
  443MOL0     N61013   5.836   7.738   4.327 -0.1952  0.0520 -0.0801
  443MOL0     C61014   5.793   7.683   4.203  0.5145 -0.6422 -0.7731
  443MOL0     C61015   5.815   7.786   4.117  0.0432  0.4450 -0.3937
  443MOL0     C61016   5.792   7.789   3.973 -0.3915 -0.0656 -0.5043
  443MOL0     C61017   5.707   7.915   3.937  0.2949 -1.0180 -0.2949
  443MOL0     C61018   5.569   7.921   4.017  0.3256 -0.3340  0.1274
  443MOL0     C61019   5.448   7.961   3.929  0.2284 -0.5573  0.0112
  443MOL0     O61020   5.401   7.853   3.839 -0.4989 -0.5128  0.3511
  443MOL0     C61021   5.297   7.904   3.756  0.4031 -0.2884  1.1099
  443MOL0     C61022   5.188   7.990   3.790 -0.6516 -0.0683 -0.5033
  443MOL0     C61023   5.074   8.016   3.708  0.6809 -0.9050  0.9809
  443MOL0     C61024   4.971   8.108   3.771  0.4388 -0.0858 -0.1665
  443MOL0     C61025   5.069   7.969   3.575 -0.2620 -0.6715  0.0089
  443MOL0     C61026   4.960   8.009   3.485 -0.5847 -0.6434  0.0280
  443MOL0     O61027   4.844   8.013   3.536 -0.3407 -0.7833  0.0687
  443MOL0     C61028   4.734   8.061   3.469  0.3396 -0.3174  0.2306
  443MOL0     C61029   4.732   8.159   3.365  0.4108  0.8194 -0.7029
  443MOL0     C61030   4.607   8.185   3.293 -0.4843  0.4763 -0.2044
  443MOL0     C61031   4.501   8.094   3.304 -0.1049 -0.0408  0.6166
  443MOL0     O61032   4.400   8.122   3.214  0.6378 -0.5173  0.7179
  443MOL0     C61033   4.274   8.051   3.230 -1.2732  0.8378  0.3689
  443MOL0     C61034   4.281   7.907   3.171  0.3810  0.5783  0.1568
  443MOL0     C61035   4.315   7.909   3.022 -0.4271  0.1026 -0.7207
  443MOL0     C61036   4.198   7.946   2.929 -0.5670 -0.4074 -0.0538
  443MOL0     C61037   4.117   7.826   2.897  0.5563 -0.2752  0.0162
  443MOL0     C61038   4.001   7.858   2.802  0.6389  0.2461  0.3870
  443MOL0     C61039   3.937   7.715   2.754 -0.2730 -0.5498 -0.2083
  443MOL0     C61040   3.841   7.735   2.637  0.7354  0.3476  1.0382
  443MOL0    Cl61041   3.938   7.759   2.491  0.0849  0.3334  0.6089
  443MOL0     C61042   4.509   7.997   3.411 -0.2658  0.6279 -0.0073
  443MOL0     C61043   4.624   7.974   3.490  0.7092 -0.2624  0.2171
  443MOL0     O61044   4.993   8.016   3.366  0.4904  1.0249  0.2443
  443MOL0     C61045   5.179   7.900   3.529  0.0952  0.9759 -0.3421
  443MOL0     C61046   5.284   7.863   3.619  0.2115  0.0140  0.2149
  443MOL0     N61047   5.844   7.898   4.195 -0.6300 -0.6435 -0.2069
  443MOL0     N61048   5.863   7.875   4.317 -0.2291 -0.2532 -0.0067
  443MOL0     C61049   5.329   7.658   5.287  0.1554 -0.7368  0.5506
  443MOL0     C61050   5.435   7.630   5.372  0.1622  0.5078  0.8496
  443MOL0     C61051   5.815   7.426   5.563  0.8647  0.0426  0.7977
  443MOL0     C61052   5.942   7.378   5.549  0.2404  0.1294 -0.7177
  443MOL0     C61053   6.037   7.377   5.656 -0.2080 -0.2250 -0.5043
  443MOL0     C61054   5.993   7.430   5.780  0.2990  1.0138 -0.0727
  443MOL0     O61055   6.068   7.423   5.896 -0.2634 -0.6808  0.4305
  443MOL0     C61056   6.204   7.395   5.889 -0.9431 -0.5711 -0.2937
  443MOL0     C61057   6.270   7.413   6.028 -0.9347  0.2754  0.3949
  443MOL0     C61058   6.286   7.555   6.085 -0.5003  0.2470 -0.5080
  443MOL0     C61059   6.336   7.559   6.232 -0.4021  0.3400 -0.9574
  443MOL0     C61060   6.457   7.484   6.248  0.0626  0.3517 -0.5323
  443MOL0     C61061   6.560   7.417   6.248 -0.6705 -0.7668  1.4265
  443MOL0     C61062   5.875   7.504   5.784 -0.3986  0.8305 -0.1893
  443MOL0     C61063   5.784   7.494   5.688  0.9182 -0.5576  0.0002
  443MOL0     C61064   5.641   7.543   5.734 -0.1243 -0.1609  0.5078
  443MOL0     H61065   5.550   7.346   5.221  4.2939  2.5236 -2.7814
  443MOL0     H61066   5.362   7.408   5.068 -1.9171 -0.8389  0.5879
  443MOL0     H61067   5.159   7.808   5.121 -2.5163 -0.7921  0.1807
  443MOL0     H61068   5.115   7.740   4.969 -0.4863 -0.1804  1.1650
  443MOL0     H61069   5.318   7.893   4.937 -0.1464  1.0628  1.8103
  443MOL0     H61070   5.410   7.787   5.043  1.0192 -0.6478 -1.9251
  443MOL0     H61071   5.395   7.601   4.891  0.1922 -0.3460 -1.0242
  443MOL0     H61072   5.285   7.702   4.796  0.2845 -0.9683  1.3300
  443MOL0     H61073   5.440   7.867   4.734 -0.4225  2.1283  2.4157
  443MOL0     H61074   5.564   7.808   4.849  0.6565 -0.3727 -1.6736
  443MOL0     H61075   5.462   7.629   4.618  3.2814 -1.2855 -2.8035
  443MOL0     H61076   5.585   7.598   4.742  3.2824  1.0623  0.1657
  443MOL0     H61077   5.608   7.832   4.546  2.0993  2.5942  2.7739
  443MOL0     H61078   5.726   7.779   4.658  0.8438  0.3028 -1.3082
  443MOL0     H61079   5.629   7.631   4.417  2.9315  0.8541 -2.0492
  443MOL0     H61080   5.705   7.549   4.560  1.7531 -1.1071 -1.1727
  443MOL0     H61081   5.914   7.674   4.522  1.5008 -2.3979 -1.8351
  443MOL0     H61082   5.865   7.551   4.413  1.8476  0.1259  1.8817
  443MOL0     H61083   5.752   7.584   4.186  2.8054 -1.5877 -1.2148
  443MOL0     H61084   5.747   7.691   3.950 -4.9821  1.1736  1.9453
  443MOL0     H61085   5.890   7.795   3.926  2.0916 -0.7263  4.0703
  443MOL0     H61086   5.761   8.006   3.964 -2.7847  0.2361  2.2614
  443MOL0     H61087   5.686   7.925   3.830 -2.7139 -1.0413  0.1868
  443MOL0     H61088   5.545   7.820   4.054  2.0612 -0.9431 -0.3289
  443MOL0     H61089   5.594   7.981   4.105  1.6584 -0.3227 -0.2445
  443MOL0     H61090   5.374   8.000   3.999  2.4183  2.1604  0.9863
  443MOL0     H61091   5.482   8.047   3.870 -1.5539  0.9596  1.0708
  443MOL0     H61092   5.201   8.043   3.884  1.4299 -0.4909 -0.4959
  443MOL0     H61093   4.954   8.198   3.710 -0.5389 -1.0035 -1.2908
  443MOL0     H61094   5.017   8.136   3.866  0.7415 -0.4315 -0.2104
  443MOL0     H61095   4.880   8.054   3.800  2.0836 -1.4342  2.8701
  443MOL0     H61096   4.821   8.217   3.343  0.5736  0.8384 -0.0102
  443MOL0     H61097   4.600   8.267   3.222  0.7846 -1.3653 -2.6004
  443MOL0     H61098   4.243   8.041   3.335  2.3615  0.1238  1.5200
  443MOL0     H61099   4.192   8.100   3.177 -0.1579  1.2374 -1.0413
  443MOL0     H61100   4.358   7.858   3.231 -2.0881 -0.5707  2.5875
  443MOL0     H61101   4.189   7.852   3.190 -0.5312  1.8263 -0.4899
  443MOL0     H61102   4.341   7.805   2.999 -2.6905 -0.6237 -0.1761
  443MOL0     H61103   4.405   7.971   3.018  0.6760 -0.9171  3.5982
  443MOL0     H61104   4.239   7.989   2.837  2.0707 -1.5424  0.4999
  443MOL0     H61105   4.139   8.031   2.965  0.4803  0.0210  0.7225
  443MOL0     H61106   4.177   7.745   2.854 -2.1745 -1.3179 -2.1025
  443MOL0     H61107   4.064   7.784   2.983 -0.6730 -0.6166 -0.8848
  443MOL0     H61108   4.023   7.919   2.714  0.8623 -1.3651 -0.7075
  443MOL0     H61109   3.926   7.912   2.861  1.8585  0.7439  1.5322
  443MOL0     H61110   3.889   7.660   2.836 -3.2448  0.0422 -1.4166
  443MOL0     H61111   4.025   7.653   2.732 -0.1565 -0.2458 -0.6079
  443MOL0     H61112   3.788   7.828   2.659  0.2087  0.6692 -1.3740
  443MOL0     H61113   3.778   7.645   2.634 -1.1613  1.6561  0.3685
  443MOL0     H61114   4.424   7.931   3.425  1.8978 -2.0444  1.8587
  443MOL0     H61115   4.632   7.891   3.559  3.2749  0.6362  1.1342
  443MOL0     H61116   5.192   7.865   3.427 -1.5377  2.4712 -1.0990
  443MOL0     H61117   5.367   7.809   3.572 -1.1673 -0.7875 -1.4343
  443MOL0     H61118   5.266   7.742   5.315 -1.3384 -1.0475 -1.6528
  443MOL0     H61119   5.439   7.710   5.446  3.1742  1.1393  0.1307
  443MOL0     H61120   5.974   7.337   5.454  4.3017 -1.3774  1.0887
  443MOL0     H61121   6.130   7.323   5.652  1.0087  1.8111 -1.0825
  443MOL0     H61122   6.209   7.289   5.860 -1.5226 -0.7624  0.3015
  443MOL0     H61123   6.250   7.449   5.806 -0.7442 -1.2250 -0.6184
  443MOL0     H61124   6.363   7.355   6.023 -0.9618  0.1384 -6.1089
  443MOL0     H61125   6.214   7.351   6.099  1.3742 -1.1084  1.1370
  443MOL0     H61126   6.360   7.609   6.026  3.9201 -1.4466  2.8778
  443MOL0     H61127   6.192   7.607   6.106 -0.1714 -0.0058  1.8221
  443MOL0     H61128   6.258   7.534   6.305  1.0128 -0.1813  0.4270
  443MOL0     H61129   6.380   7.658   6.245  4.4453 -1.5383 -0.9653
  443MOL0     H61130   6.650   7.359   6.248  1.2250  2.0107  0.2762
  443MOL0     H61131   5.857   7.546   5.883 -5.4296 -2.1956  0.5124
  443MOL0     H61132   5.616   7.631   5.674 -0.2442 -1.7058 -1.8726
  443MOL0     H61133   5.574   7.458   5.719 -0.4462 -0.0887  1.4980
  443MOL0     H61134   5.642   7.568   5.840  1.2427  0.4050  0.3966
  444MOL0     O61135   8.214   6.537   6.284  0.6931  0.1292  0.8579
  444MOL0     C61136   8.204   6.414   6.306  0.4740 -0.0364  0.1715
  444MOL0     O61137   8.101   6.340   6.247 -0.2803  0.3546  0.1116
  444MOL0     C61138   7.999   6.377   6.179  0.0958 -1.2306  0.1330
  444MOL0     C61139   7.987   6.490   6.089 -0.5741  0.7215  1.2067
  444MOL0     C61140   7.880   6.510   6.004 -1.0471  0.8830  0.2635
  444MOL0     C61141   7.771   6.423   6.008  0.7821  0.0020  0.5331
  444MOL0     O61142   7.653   6.419   5.945  0.1215  0.1397  0.0339
  444MOL0     C61143   7.609   6.521   5.863 -1.5948 -0.0403 -0.7533
  444MOL0     C61144   7.592   6.655   5.943  0.0986 -0.4977 -0.5256
  444MOL0     C61145   7.582   6.757   5.830  0.8326  0.2879 -0.2032
  444MOL0     C61146   7.553   6.899   5.861 -0.5372 -0.0691  0.4599
  444MOL0     C61147   7.683   6.977   5.901 -0.4697 -0.4254  0.6605
  444MOL0     C61148   7.656   7.128   5.905 -0.2663 -0.7150 -0.1985
  444MOL0     C61149   7.563   7.193   5.799  0.0987  0.2243  0.2102
  444MOL0     C61150   7.572   7.344   5.797 -0.2115 -0.8399  0.6346
  444MOL0     N61151   7.525   7.400   5.670 -0.7006  0.4474  0.6017
  444MOL0     C61152   7.590   7.401   5.547 -0.7793  0.0368 -0.6276
  444MOL0     C61153   7.507   7.476   5.463 -0.6533 -0.1125 -0.3271
  444MOL0     C61154   7.523   7.532   5.322  0.1663  0.3379  0.2094
  444MOL0     C61155   7.572   7.671   5.306  0.4988 -0.1170  0.1219
  444MOL0     C61156   7.682   7.705   5.408  0.3214  0.9061 -0.4755
  444MOL0     C61157   7.707   7.854   5.398 -0.1309 -0.5294  0.1457
  444MOL0     O61158   7.817   7.878   5.489  0.2761  0.2336  0.5435
  444MOL0     C61159   7.877   8.004   5.487 -0.1742  0.2690  0.4422
  444MOL0     C61160   8.008   8.003   5.500  0.9210  0.3555 -0.2664
  444MOL0     C61161   8.098   8.114   5.498  0.2953  0.6992 -0.5238
  444MOL0     C61162   8.244   8.074   5.536  0.0622 -0.3237  0.2955
  444MOL0     C61163   8.036   8.234   5.474 -0.3638  0.0444  0.0344
  444MOL0     C61164   8.116   8.362   5.451 -0.0440  0.2911  0.5547
  444MOL0     O61165   8.041   8.468   5.438  0.4148  0.8683  0.0649
  444MOL0     C61166   8.100   8.583   5.399 -0.5750 -0.4890  0.0582
  444MOL0     C61167   8.167   8.596   5.280 -0.4876 -1.0598 -0.5676
  444MOL0     C61168   8.222   8.719   5.222 -0.2819  0.8022 -0.6796
  444MOL0     C61169   8.190   8.838   5.297  0.7728 -1.0437 -0.8482
  444MOL0     O61170   8.194   8.974   5.259  0.3057 -0.7541  0.6494
  444MOL0     C61171   8.280   8.995   5.140 -0.1703  1.0673  0.2784
  444MOL0     C61172   8.275   9.146   5.108 -0.1318  0.7435  0.8048
  444MOL0     C61173   8.308   9.243   5.222 -0.2364 -0.1159 -0.3443
  444MOL0     C61174   8.356   9.383   5.180  0.4410 -0.9277 -1.1065
  444MOL0     C61175   8.408   9.468   5.297  0.0976 -0.0804  0.4495
  444MOL0     C61176   8.552   9.425   5.339  0.1804 -0.2017 -0.1841
  444MOL0     C61177   8.628   9.541   5.416  1.2833 -0.1890  0.8116
  444MOL0     C61178   8.556   9.601   5.537  0.0439  0.3572  0.3386
  444MOL0    Cl61179   8.636   9.742   5.604 -0.0076  0.3206  0.1252
  444MOL0     C61180   8.110   8.831   5.418 -0.5747  1.1775  0.2445
  444MOL0     C61181   8.072   8.697   5.469  0.2945  0.4393 -0.5257
  444MOL0     O61182   8.233   8.361   5.439 -0.4065  0.5493  0.3228
  444MOL0     C61183   7.892   8.240   5.478 -0.0371  0.6249  0.4182
  444MOL0     C61184   7.816   8.129   5.476  0.1122  1.0300  0.3775
  444MOL0     N61185   7.392   7.498   5.533 -0.5250 -0.4987  0.6330
  444MOL0     N61186   7.408   7.464   5.657  0.6525  0.5598 -0.0016
  444MOL0     C61187   7.783   6.308   6.092 -0.1747 -0.5172  0.5088
  444MOL0     C61188   7.898   6.285   6.168 -0.3161 -0.9136 -0.5111
  444MOL0     C61189   8.292   6.359   6.406 -0.7079  0.0188 -0.1150
  444MOL0     C61190   8.416   6.437   6.426  0.6547  0.4094 -0.2555
  444MOL0     C61191   8.506   6.393   6.534  0.1882  0.3459  0.8377
  444MOL0     C61192   8.470   6.287   6.618  0.5844  0.5660  1.1024
  444MOL0     O61193   8.524   6.241   6.734  0.2321 -0.5863 -0.4039
  444MOL0     C61194   8.611   6.334   6.813  0.2324  0.3875  0.3688
  444MOL0     C61195   8.736   6.278   6.859  0.4058  1.1353 -1.1581
  444MOL0     C61196   8.714   6.158   6.959  0.0875 -0.9893 -0.3997
  444MOL0     C61197   8.661   6.033   6.889  1.0083  0.0294  0.4234
  444MOL0     C61198   8.722   6.007   6.757 -0.7055 -0.4052  0.4262
  444MOL0     C61199   8.791   5.977   6.662  0.3267  0.7256  0.3247
  444MOL0     C61200   8.352   6.216   6.598 -0.5403 -0.4757  0.3600
  444MOL0     C61201   8.262   6.252   6.494  0.7049  0.6358 -0.6611
  444MOL0     C61202   8.140   6.171   6.495  0.1855 -0.3348  0.3828
  444MOL0     H61203   8.067   6.562   6.072 -0.5852  1.0561  2.4995
  444MOL0     H61204   7.877   6.590   5.931 -2.8185  0.0851 -0.6051
  444MOL0     H61205   7.504   6.506   5.834 -1.8141  0.2841 -0.1361
  444MOL0     H61206   7.676   6.522   5.776 -0.5787 -1.4839 -0.0353
  444MOL0     H61207   7.500   6.651   6.002  0.0242 -1.7764 -0.7007
  444MOL0     H61208   7.667   6.685   6.016 -2.1994 -0.5607  2.0219
  444MOL0     H61209   7.672   6.751   5.769  1.9785  1.1268  1.3419
  444MOL0     H61210   7.506   6.723   5.758  0.6737  1.2318 -0.4940
  444MOL0     H61211   7.506   6.945   5.774  0.0715 -1.0522 -0.4042
  444MOL0     H61212   7.482   6.910   5.943  0.4632 -0.6420  1.4386
  444MOL0     H61213   7.749   6.966   5.814  0.7504 -1.2009  1.6508
  444MOL0     H61214   7.737   6.946   5.991  0.5734 -1.3503 -0.2499
  444MOL0     H61215   7.618   7.149   6.005  2.6461 -2.1720  1.3360
  444MOL0     H61216   7.758   7.168   5.900 -0.6318  0.6975  2.0719
  444MOL0     H61217   7.465   7.159   5.832  1.0564 -2.7658  0.2263
  444MOL0     H61218   7.584   7.151   5.700 -2.2077 -0.5824  0.0199
  444MOL0     H61219   7.519   7.382   5.885  0.5818 -1.1162  1.2320
  444MOL0     H61220   7.672   7.387   5.802 -0.0498 -1.0881 -0.2505
  444MOL0     H61221   7.690   7.363   5.535  0.3708  0.4635  4.9757
  444MOL0     H61222   7.423   7.527   5.278 -0.4146  0.7497  1.4480
  444MOL0     H61223   7.595   7.467   5.270 -2.1827 -1.7763 -0.6095
  444MOL0     H61224   7.614   7.690   5.206  0.4014  0.3936  0.1756
  444MOL0     H61225   7.486   7.738   5.315  1.9899  2.1012 -1.1597
  444MOL0     H61226   7.646   7.681   5.509 -2.0028  0.4005 -1.3548
  444MOL0     H61227   7.768   7.637   5.403 -0.4848 -0.6997  3.4519
  444MOL0     H61228   7.735   7.885   5.297 -2.8465 -0.6623 -0.7159
  444MOL0     H61229   7.625   7.918   5.430 -0.0685 -1.0132  1.3324
  444MOL0     H61230   8.044   7.900   5.506  1.4791  0.5538 -0.1608
  444MOL0     H61231   8.252   8.068   5.645 -2.2534  0.1363  0.5507
  444MOL0     H61232   8.322   8.139   5.495 -1.0885  1.8243  1.3392
  444MOL0     H61233   8.267   7.972   5.504 -2.2662 -1.3565  1.7087
  444MOL0     H61234   8.189   8.507   5.221 -0.0072 -0.5021 -1.2464
  444MOL0     H61235   8.276   8.715   5.129  1.1975 -2.4247  0.1823
  444MOL0     H61236   8.377   8.947   5.155 -1.5475 -1.4633  1.6510
  444MOL0     H61237   8.241   8.931   5.061  3.9091 -0.1687 -0.9929
  444MOL0     H61238   8.343   9.162   5.024 -1.0082 -2.0425 -0.5666
  444MOL0     H61239   8.178   9.177   5.067  2.4276  4.4217 -3.4688
  444MOL0     H61240   8.385   9.208   5.291 -0.5018  0.9201  0.4951
  444MOL0     H61241   8.220   9.260   5.285  0.0334  2.5640 -0.6073
  444MOL0     H61242   8.265   9.421   5.134  2.1029 -0.7659 -4.5672
  444MOL0     H61243   8.436   9.369   5.107  3.2072  2.8242  0.8572
  444MOL0     H61244   8.395   9.572   5.266 -1.0019  0.0617  1.3512
  444MOL0     H61245   8.332   9.476   5.376 -2.0215  1.2906 -1.5989
  444MOL0     H61246   8.618   9.390   5.260 -0.9461 -1.5335 -0.5754
  444MOL0     H61247   8.561   9.340   5.407  2.2502  0.3389  0.2691
  444MOL0     H61248   8.650   9.614   5.338  3.8410 -0.2082  1.4143
  444MOL0     H61249   8.728   9.513   5.451  1.8518  0.4765 -0.2133
  444MOL0     H61250   8.563   9.518   5.608  0.4714  0.5734  0.5519
  444MOL0     H61251   8.451   9.620   5.514 -0.2600 -0.3347  1.1020
  444MOL0     H61252   8.080   8.923   5.468 -2.1935  1.0273 -0.3799
  444MOL0     H61253   8.009   8.676   5.555  0.9382  1.6039  0.2628
  444MOL0     H61254   7.845   8.336   5.466  1.7845  1.5407  0.1934
  444MOL0     H61255   7.708   8.131   5.479  0.0962 -0.2069  1.1601
  444MOL0     H61256   7.712   6.226   6.093  2.3293 -2.8899 -1.3847
  444MOL0     H61257   7.916   6.192   6.220  4.1048 -0.3769 -0.7169
  444MOL0     H61258   8.429   6.522   6.360 -0.1379  0.2274 -0.6609
  444MOL0     H61259   8.608   6.431   6.529  0.8572 -1.3782  0.4586
  444MOL0     H61260   8.646   6.422   6.759  2.7543  0.1704  1.5096
  444MOL0     H61261   8.560   6.368   6.904 -0.4569  1.2661 -0.3254
  444MOL0     H61262   8.795   6.350   6.916 -0.1114  0.8405 -0.2292
  444MOL0     H61263   8.791   6.237   6.774  2.4366 -1.1791  1.0949
  444MOL0     H61264   8.811   6.135   7.004 -2.0785 -1.1772  4.9802
  444MOL0     H61265   8.651   6.186   7.044  1.6895 -1.5108  1.0202
  444MOL0     H61266   8.552   6.040   6.885  0.8093 -2.5189 -0.8121
  444MOL0     H61267   8.683   5.941   6.943 -1.4910 -2.4376 -2.3763
  444MOL0     H61268   8.844   5.921   6.587  1.1732 -1.4725  2.4098
  444MOL0     H61269   8.330   6.131   6.661  0.9211 -1.3225 -0.2138
  444MOL0     H61270   8.056   6.198   6.430 -1.2954  0.3325  2.4694
  444MOL0     H61271   8.171   6.070   6.467  3.0024  0.2810  0.9887
  444MOL0     H61272   8.087   6.185   6.590 -0.6326 -0.2294 -0.0778
  445MOL0     O61273  10.685   1.302   3.384  1.3327 -0.0040  0.0883
  445MOL0     C61274  10.627   1.376   3.462  0.7139  0.0596  0.0360
  445MOL0     O61275  10.602   1.342   3.592 -0.8408 -0.4205 -0.9493
  445MOL0     C61276  10.643   1.226   3.653  0.1111  0.3946 -0.3060
  445MOL0     C61277  10.563   1.165   3.753 -0.6446 -0.2486 -0.5432
  445MOL0     C61278  10.596   1.047   3.823  0.7530 -0.3224  0.8682
  445MOL0     C61279  10.717   0.987   3.792  0.2395  0.2480  0.1115
  445MOL0     O61280  10.781   0.878   3.851 -0.0783  1.0564 -0.0064
  445MOL0     C61281  10.689   0.811   3.940  0.2555 -0.5187 -0.0138
  445MOL0     C61282  10.746   0.684   3.992  0.5566 -0.6524 -0.1580
  445MOL0     C61283  10.849   0.718   4.098  0.0593 -0.5233 -0.1015
  445MOL0     C61284  10.915   0.593   4.155  1.3880  0.4162  0.7004
  445MOL0     C61285  11.013   0.633   4.261 -0.2013  0.2301 -0.2218
  445MOL0     C61286  11.104   0.515   4.300  0.4167  0.2467  0.0468
  445MOL0     C61287  11.195   0.539   4.416 -0.8104  0.1915  0.8514
  445MOL0     C61288  11.287   0.420   4.442 -0.0681  0.0726  0.5519
  445MOL0     N61289  11.368   0.450   4.562  0.9766 -0.2602  0.6323
  445MOL0     C61290  11.432   0.358   4.632 -0.2987 -0.4106 -0.1804
  445MOL0     C61291  11.527   0.422   4.705  0.0024  0.0785  0.6377
  445MOL0     C61292  11.598   0.360   4.819  0.2767 -0.1634 -0.4077
  445MOL0     C61293  11.517   0.246   4.889 -0.5352  0.4305  0.7688
  445MOL0     C61294  11.423   0.285   5.002 -1.0081 -0.1940 -0.1460
  445MOL0     C61295  11.300   0.342   4.962 -0.1671 -0.0294 -1.4106
  445MOL0     O61296  11.224   0.235   4.896  0.2527 -0.6116  0.0642
  445MOL0     C61297  11.123   0.271   4.807  0.0894 -0.0908  0.5661
  445MOL0     C61298  11.063   0.176   4.733  0.5378  0.2796 -0.2231
  445MOL0     C61299  10.974   0.210   4.629  0.7460 -0.0958  0.2666
  445MOL0     C61300  10.937   0.089   4.545  0.2922 -0.3250  0.2958
  445MOL0     C61301  10.922   0.340   4.610 -0.1566  0.1797 -0.6341
  445MOL0     C61302  10.823   0.383   4.511 -0.0230  0.2117 -0.6114
  445MOL0     O61303  10.736   0.285   4.470  0.2601  0.1110  0.0993
  445MOL0     C61304  10.644   0.309   4.376  0.0210  0.2467  0.0918
  445MOL0     C61305  10.591   0.425   4.326 -0.2732 -0.1074  0.3257
  445MOL0     C61306  10.500   0.424   4.217  1.0332  0.2339 -0.3130
  445MOL0     C61307  10.450   0.305   4.162 -0.1394 -0.1741 -0.7725
  445MOL0     O61308  10.361   0.306   4.061 -0.0306  0.8625 -0.4430
  445MOL0     C61309  10.233   0.224   4.067  0.0113 -0.2130  0.3192
  445MOL0     C61310  10.132   0.276   4.173 -0.2934  0.4288  0.3330
  445MOL0     C61311  10.032   0.165   4.221 -0.0320  0.3281  0.7422
  445MOL0     C61312   9.950   0.109   4.111 -0.1339  0.6011  0.4022
  445MOL0     C61313   9.849   0.013   4.174  0.1639 -0.1448  0.2481
  445MOL0     C61314   9.734  -0.022   4.081 -0.2308 -0.8233  0.0130
  445MOL0     C61315   9.669  -0.157   4.118  0.1833 -0.1607 -0.3824
  445MOL0     C61316   9.555  -0.201   4.017  0.1219 -0.1535 -0.0175
  445MOL0    Cl61317   9.597  -0.220   3.849 -0.5552 -0.0783  0.3282
  445MOL0     C61318  10.510   0.190   4.197  0.4617  0.7990 -0.0334
  445MOL0     C61319  10.598   0.189   4.305 -0.6311 -0.6245 -0.5371
  445MOL0     O61320  10.842   0.494   4.469  0.3856  0.4953  0.3110
  445MOL0     C61321  10.964   0.426   4.711  0.2210  0.1635 -0.0887
  445MOL0     C61322  11.066   0.399   4.809  0.1698 -0.1800 -0.3170
  445MOL0     N61323  11.516   0.557   4.673 -0.0088 -0.1034  0.1890
  445MOL0     N61324  11.430   0.575   4.581 -0.7982  0.4480 -0.3712
  445MOL0     C61325  10.800   1.057   3.716 -0.2434 -0.9752  0.2240
  445MOL0     C61326  10.765   1.168   3.637  0.5240  0.2152 -1.3163
  445MOL0     C61327  10.588   1.503   3.414  0.1474 -0.9644  1.3664
  445MOL0     C61328  10.563   1.594   3.512 -0.3546 -0.3046 -0.3218
  445MOL0     C61329  10.526   1.725   3.485 -0.8443 -0.8178  0.0168
  445MOL0     C61330  10.507   1.768   3.352  0.0315 -0.4274  0.3925
  445MOL0     O61331  10.480   1.900   3.312 -0.0305 -0.0977 -0.3403
  445MOL0     C61332  10.471   1.999   3.417  0.2404  0.2107 -0.2007
  445MOL0     C61333  10.426   2.139   3.362  0.3189  0.7826 -0.1120
  445MOL0     C61334  10.443   2.234   3.485 -0.0227 -0.3195  0.4310
  445MOL0     C61335  10.436   2.384   3.457  0.1140  0.0438 -0.2743
  445MOL0     C61336  10.443   2.464   3.578 -0.4271  1.0062 -0.6628
  445MOL0     C61337  10.459   2.518   3.691 -0.7157 -0.0213 -0.0670
  445MOL0     C61338  10.548   1.682   3.248 -0.8759 -1.4404  0.1987
  445MOL0     C61339  10.572   1.547   3.270  1.3608  0.3525 -0.0414
  445MOL0     C61340  10.579   1.454   3.138 -0.2204 -0.0768  0.2248
  445MOL0     H61341  10.471   1.222   3.764  0.7857  2.6752 -2.3092
  445MOL0     H61342  10.521   1.015   3.895  1.7639 -3.6546  0.6099
  445MOL0     H61343  10.591   0.780   3.905  0.6715 -5.7463  2.4676
  445MOL0     H61344  10.676   0.884   4.021  3.2090  1.0401 -0.7933
  445MOL0     H61345  10.667   0.628   4.041 -0.8531  2.9358  2.0615
  445MOL0     H61346  10.774   0.626   3.903 -1.6838 -0.3133 -1.1491
  445MOL0     H61347  10.928   0.774   4.047  1.2433 -0.4674  1.6965
  445MOL0     H61348  10.809   0.775   4.182 -0.4441  0.3782 -0.9396
  445MOL0     H61349  10.843   0.527   4.204  0.4956 -0.3420 -1.5158
  445MOL0     H61350  10.972   0.538   4.079 -0.5738 -3.4282  1.7851
  445MOL0     H61351  10.956   0.672   4.345 -0.2250 -0.5437  0.1304
  445MOL0     H61352  11.073   0.716   4.222 -0.0328  2.5295  4.2466
  445MOL0     H61353  11.056   0.424   4.339  2.7796 -0.2443  2.1280
  445MOL0     H61354  11.183   0.486   4.231  1.6911  2.7679  0.3450
  445MOL0     H61355  11.144   0.569   4.508  3.9519  2.3959  3.0953
  445MOL0     H61356  11.266   0.616   4.383  0.2030 -0.1394  2.2131
  445MOL0     H61357  11.217   0.340   4.469  0.3591  0.1410  1.9301
  445MOL0     H61358  11.346   0.381   4.358 -0.9291  0.5855 -0.3045
  445MOL0     H61359  11.405   0.253   4.643 -1.2497 -0.3809 -1.9003
  445MOL0     H61360  11.616   0.439   4.892 -0.6036  0.1676 -0.5344
  445MOL0     H61361  11.697   0.327   4.787  0.3099  2.3864 -3.4829
  445MOL0     H61362  11.478   0.178   4.813 -1.9013  0.7462  1.1610
  445MOL0     H61363  11.591   0.184   4.940  2.6643  2.3452 -1.1836
  445MOL0     H61364  11.400   0.188   5.048 -2.8559  1.4987  2.7920
  445MOL0     H61365  11.473   0.349   5.076  4.1695 -1.8235 -1.7921
  445MOL0     H61366  11.253   0.385   5.050  0.5061 -0.7434 -0.6875
  445MOL0     H61367  11.316   0.419   4.886  2.1412 -0.7920 -1.7764
  445MOL0     H61368  11.089   0.071   4.744  4.1043  1.0268 -0.2994
  445MOL0     H61369  10.898   0.010   4.609 -0.2029  0.6880  1.2906
  445MOL0     H61370  11.026   0.052   4.493  0.1097 -1.4172  0.7519
  445MOL0     H61371  10.862   0.106   4.467  1.8325 -3.0992 -1.9561
  445MOL0     H61372  10.607   0.524   4.368 -2.4256  1.0485 -1.3658
  445MOL0     H61373  10.468   0.515   4.168  4.1114  0.4741 -2.1004
  445MOL0     H61374  10.183   0.214   3.971  1.2673  0.7974 -0.4636
  445MOL0     H61375  10.256   0.120   4.095  0.9561 -0.8060 -2.4099
  445MOL0     H61376  10.192   0.311   4.258  0.3578  0.9647 -0.3299
  445MOL0     H61377  10.084   0.359   4.121  1.8877  0.9559 -0.9839
  445MOL0     H61378   9.961   0.200   4.296 -0.2476 -1.7326  1.5922
  445MOL0     H61379  10.085   0.088   4.279  0.5507 -0.0668 -0.2926
  445MOL0     H61380  10.007   0.062   4.030 -0.1168 -0.7061  1.1431
  445MOL0     H61381   9.899   0.191   4.060 -1.3163 -0.5930 -0.4115
  445MOL0     H61382   9.915  -0.069   4.206 -0.5116 -0.3296  1.2065
  445MOL0     H61383   9.796   0.063   4.255 -2.2274 -0.2523 -1.1734
  445MOL0     H61384   9.756  -0.012   3.975  0.0319 -0.5259  0.0922
  445MOL0     H61385   9.664   0.062   4.088  3.2225  2.3953 -0.6855
  445MOL0     H61386   9.623  -0.137   4.215  0.7393  0.5855 -0.2616
  445MOL0     H61387   9.745  -0.235   4.132  1.2954  1.2707  2.6142
  445MOL0     H61388   9.481  -0.121   4.019 -0.4016 -0.4869 -2.5408
  445MOL0     H61389   9.514  -0.294   4.058  1.7458 -0.3155  1.3814
  445MOL0     H61390  10.492   0.112   4.123 -2.3009  1.8785 -0.6304
  445MOL0     H61391  10.652   0.096   4.320 -0.6746 -0.4778  0.6696
  445MOL0     H61392  10.918   0.524   4.708  1.8103  0.9859  1.1310
  445MOL0     H61393  11.109   0.481   4.866  0.6531  1.3564 -2.7271
  445MOL0     H61394  10.903   1.026   3.703  0.6696  2.2364 -1.0570
  445MOL0     H61395  10.841   1.222   3.582  0.8611  0.1217 -0.9522
  445MOL0     H61396  10.583   1.564   3.615  0.5665  1.2158 -0.0133
  445MOL0     H61397  10.490   1.791   3.563 -0.9589  0.6990 -1.2576
  445MOL0     H61398  10.391   1.973   3.487  0.4642 -2.2198 -0.7768
  445MOL0     H61399  10.571   2.010   3.461 -1.4713  2.2666  3.6906
  445MOL0     H61400  10.319   2.133   3.339  0.7045 -1.7176 -1.5814
  445MOL0     H61401  10.478   2.160   3.268  0.8968  1.6965  0.3922
  445MOL0     H61402  10.383   2.202   3.571 -1.5402 -3.2632 -1.5530
  445MOL0     H61403  10.547   2.221   3.516  0.7091  2.4616 -0.5234
  445MOL0     H61404  10.339   2.406   3.410 -0.3769 -1.5538 -0.0925
  445MOL0     H61405  10.519   2.427   3.401 -0.4658  2.5908  0.6849
  445MOL0     H61406  10.486   2.552   3.789 -3.6937  0.5388  0.6552
  445MOL0     H61407  10.549   1.716   3.145  3.7777 -1.1117  0.1311
  445MOL0     H61408  10.494   1.384   3.136 -0.2752  0.0074 -0.3597
  445MOL0     H61409  10.595   1.506   3.043 -1.4960 -0.4503 -0.2162
  445MOL0     H61410  10.674   1.399   3.137  0.1018  0.3676 -2.8265
  446MOL0     O61411  10.145   8.194   7.186 -0.6046 -0.3779  0.0361
  446MOL0     C61412  10.044   8.127   7.224  0.2122  0.2124 -0.3289
  446MOL0     O61413   9.979   8.027   7.151  0.1216  0.5285  0.0340
  446MOL0     C61414  10.012   8.000   7.024  0.6934 -0.5300 -0.2624
  446MOL0     C61415  10.063   8.093   6.931 -0.2809  0.0860  0.5378
  446MOL0     C61416  10.066   8.059   6.791 -1.0106  0.2704  0.1525
  446MOL0     C61417  10.043   7.931   6.743 -0.2495 -0.4629  0.6319
  446MOL0     O61418  10.068   7.910   6.613 -0.4245 -0.9790  0.1938
  446MOL0     C61419  10.049   7.777   6.567  0.5038 -0.1710 -0.0302
  446MOL0     C61420  10.115   7.763   6.434 -0.0545  0.3391 -1.0597
  446MOL0     C61421  10.034   7.837   6.330 -0.2317  0.6303  0.1270
  446MOL0     C61422  10.092   7.975   6.303 -0.9315  0.1498  0.7216
  446MOL0     C61423  10.035   8.035   6.169 -0.5191  0.2730  0.0199
  446MOL0     C61424   9.877   8.031   6.149  0.9990  1.1323 -0.4378
  446MOL0     C61425   9.849   8.063   6.002  0.0264 -0.6381  0.8400
  446MOL0     C61426   9.708   8.015   5.944  0.4662  0.4428  0.2214
  446MOL0     N61427   9.701   7.872   5.931 -0.0988  1.1270 -0.2875
  446MOL0     C61428   9.635   7.800   6.020 -0.2371 -0.4333 -0.1565
  446MOL0     C61429   9.626   7.681   5.969 -0.2520  0.0172  0.4945
  446MOL0     C61430   9.552   7.572   6.046 -0.7306  0.3554 -0.5302
  446MOL0     C61431   9.415   7.579   6.027  0.2639  0.1402 -0.1336
  446MOL0     C61432   9.340   7.452   6.068  0.8262 -0.2602 -0.3462
  446MOL0     C61433   9.208   7.439   5.978  0.1414 -0.8472  1.1964
  446MOL0     O61434   9.104   7.364   6.046 -0.0019  0.3777  0.6893
  446MOL0     C61435   9.142   7.239   6.098  0.4500  0.0172  0.5176
  446MOL0     C61436   9.073   7.183   6.208 -0.3545  0.5104 -1.9092
  446MOL0     C61437   9.108   7.050   6.255  0.1394  0.1286  1.5630
  446MOL0     C61438   9.048   6.994   6.382  0.1380  0.0363  0.1990
  446MOL0     C61439   9.198   6.976   6.188  0.2271  0.2199  0.5214
  446MOL0     C61440   9.250   6.848   6.236  0.2659 -0.0444 -0.0239
  446MOL0     O61441   9.161   6.761   6.259  0.8673  0.5122 -0.5894
  446MOL0     C61442   9.185   6.629   6.285  0.7990  0.3117  0.1438
  446MOL0     C61443   9.283   6.595   6.373 -0.1006 -0.1723  0.1218
  446MOL0     C61444   9.291   6.462   6.415  0.5061  0.8776 -0.0029
  446MOL0     C61445   9.216   6.359   6.369 -1.0251  0.4921  0.5755
  446MOL0     O61446   9.249   6.241   6.424  0.1480 -0.4256  0.7973
  446MOL0     C61447   9.184   6.132   6.364  0.2150  1.4801  0.2185
  446MOL0     C61448   9.241   5.994   6.410 -0.0237 -0.6806  0.2419
  446MOL0     C61449   9.192   5.957   6.552 -0.0872  0.0825  0.4785
  446MOL0     C61450   9.253   6.053   6.668 -0.7249 -0.6165 -0.6341
  446MOL0     C61451   9.213   5.994   6.804 -0.2096  0.1455  0.3145
  446MOL0     C61452   9.237   6.081   6.926  0.4148  1.0759  0.1858
  446MOL0     C61453   9.187   6.012   7.059  0.3334  0.4843 -0.9344
  446MOL0     C61454   9.265   5.891   7.084  0.7114  0.9677 -0.5778
  446MOL0    Cl61455   9.145   5.757   7.070 -0.1315  0.7172  0.2924
  446MOL0     C61456   9.120   6.392   6.269  0.8165  0.3622  0.2508
  446MOL0     C61457   9.099   6.525   6.232 -0.5717 -0.8667  0.3145
  446MOL0     O61458   9.372   6.830   6.217 -0.2927  0.1981 -0.4758
  446MOL0     C61459   9.253   7.025   6.065 -0.2139  0.3824  0.2184
  446MOL0     C61460   9.216   7.148   6.019  0.2793  0.1530  1.1868
  446MOL0     N61461   9.689   7.673   5.843 -0.3647 -0.7566 -0.1772
  446MOL0     N61462   9.742   7.794   5.826 -0.0219  0.2148  0.2568
  446MOL0     C61463   9.992   7.839   6.837  0.6741 -0.1230 -0.5673
  446MOL0     C61464   9.966   7.874   6.974  0.7305  0.5140  0.0230
  446MOL0     C61465   9.994   8.145   7.359  0.0667  0.2693 -0.1427
  446MOL0     C61466   9.857   8.129   7.379 -0.0161 -0.3471 -0.6726
  446MOL0     C61467   9.782   8.174   7.492 -0.6531  0.8957  0.6893
  446MOL0     C61468   9.851   8.231   7.603  0.7465 -0.9455  0.3585
  446MOL0     O61469   9.793   8.273   7.721 -0.8737 -0.6800 -0.0943
  446MOL0     C61470   9.771   8.172   7.809  0.2507 -0.1485  0.6742
  446MOL0     C61471   9.793   8.214   7.955  0.7184 -0.3321  0.0104
  446MOL0     C61472   9.813   8.094   8.051  0.7204  1.1706  0.2151
  446MOL0     C61473   9.952   8.030   8.042  0.9379  0.4148 -0.5469
  446MOL0     C61474  10.060   8.123   8.067 -0.3431  0.2594 -0.2054
  446MOL0     C61475  10.165   8.174   8.084 -0.4293 -0.1018 -0.7151
  446MOL0     C61476   9.990   8.237   7.589  0.5484 -0.2939  0.3094
  446MOL0     C61477  10.061   8.204   7.467  1.3060  0.4272 -0.0843
  446MOL0     C61478  10.209   8.205   7.473  2.0872 -0.3515 -0.3470
  446MOL0     H61479  10.091   8.194   6.961  0.3201  0.2409 -0.5212
  446MOL0     H61480  10.112   8.123   6.716  2.0597 -0.2892  1.4073
  446MOL0     H61481   9.947   7.737   6.568  1.9109 -4.1645 -0.7558
  446MOL0     H61482  10.103   7.713   6.636 -2.0764 -2.2522  0.2050
  446MOL0     H61483  10.217   7.798   6.448 -0.5641  1.6017 -0.3671
  446MOL0     H61484  10.108   7.655   6.415 -3.5817  0.2335  0.0314
  446MOL0     H61485  10.027   7.783   6.235  0.7294 -3.5628  2.1953
  446MOL0     H61486   9.928   7.840   6.355 -0.6965 -2.1265 -1.1053
  446MOL0     H61487  10.075   8.036   6.392 -1.0084  0.1738  0.6915
  446MOL0     H61488  10.199   7.972   6.284 -0.5568  0.9558  2.4841
  446MOL0     H61489  10.084   7.981   6.087  0.3448  0.2608  0.5237
  446MOL0     H61490  10.059   8.142   6.165 -0.3002  0.2002 -0.7453
  446MOL0     H61491   9.834   7.937   6.186  1.6084  1.0880  0.1660
  446MOL0     H61492   9.840   8.118   6.204  0.6385 -0.8902  2.7475
  446MOL0     H61493   9.928   8.042   5.930 -0.4373 -2.8790  0.9209
  446MOL0     H61494   9.840   8.172   5.999 -0.9206 -0.7173 -0.8117
  446MOL0     H61495   9.615   8.051   5.988 -1.1217 -0.9626 -1.7617
  446MOL0     H61496   9.691   8.053   5.843 -0.4860  2.7346  1.1625
  446MOL0     H61497   9.597   7.822   6.120 -2.0976 -0.6505 -0.7739
  446MOL0     H61498   9.565   7.579   6.155 -2.6157  1.4692 -0.3440
  446MOL0     H61499   9.587   7.480   5.998  1.2387  0.2168  1.0311
  446MOL0     H61500   9.371   7.656   6.092  2.8791 -0.1237  2.1390
  446MOL0     H61501   9.404   7.590   5.919  1.1761 -2.6390 -0.5765
  446MOL0     H61502   9.412   7.370   6.071 -0.6105 -1.5725 -0.5519
  446MOL0     H61503   9.303   7.465   6.170  1.5530 -0.5165 -0.0471
  446MOL0     H61504   9.170   7.541   5.965  2.6241  0.3227  2.3584
  446MOL0     H61505   9.228   7.403   5.877  0.7427  1.2772  0.4952
  446MOL0     H61506   9.004   7.240   6.269 -1.1587  0.9783 -3.2195
  446MOL0     H61507   8.964   7.058   6.411 -0.0390 -0.9863  2.0776
  446MOL0     H61508   9.124   6.997   6.460 -1.9972  0.0366  2.3763
  446MOL0     H61509   9.009   6.894   6.361 -0.3965  0.2386  0.1967
  446MOL0     H61510   9.359   6.663   6.409  1.5597 -0.8154 -1.9414
  446MOL0     H61511   9.368   6.443   6.489  0.8971  2.4477  0.0390
  446MOL0     H61512   9.080   6.131   6.398  0.6336  2.5415  1.6604
  446MOL0     H61513   9.191   6.130   6.255 -0.9241  1.7316  0.1294
  446MOL0     H61514   9.207   5.921   6.336 -2.2681  0.2409  0.2789
  446MOL0     H61515   9.349   6.008   6.400 -0.2043 -0.3752 -1.5668
  446MOL0     H61516   9.205   5.852   6.581 -2.3451 -0.0457  1.2547
  446MOL0     H61517   9.084   5.968   6.542  0.0350  3.1174  1.3820
  446MOL0     H61518   9.214   6.155   6.677 -2.5270 -1.4594  2.8849
  446MOL0     H61519   9.358   6.066   6.642 -1.2851  1.4108 -2.2582
  446MOL0     H61520   9.107   5.973   6.794 -0.5679  2.2019 -0.8767
  446MOL0     H61521   9.262   5.897   6.813 -1.7318 -0.9275 -2.1473
  446MOL0     H61522   9.177   6.171   6.910 -3.8722 -1.5507 -0.0890
  446MOL0     H61523   9.345   6.093   6.940  0.7021  0.3886 -1.2624
  446MOL0     H61524   9.078   6.006   7.053  0.2223  0.0860  0.8168
  446MOL0     H61525   9.199   6.079   7.144 -3.2833  1.7072 -1.1906
  446MOL0     H61526   9.311   5.888   7.183  0.5553  0.1288 -0.5221
  446MOL0     H61527   9.348   5.879   7.014  2.0453  1.5908  0.8307
  446MOL0     H61528   9.062   6.312   6.225 -1.5737 -0.5399  4.4516
  446MOL0     H61529   9.014   6.539   6.166  0.0506  1.7111 -0.0537
  446MOL0     H61530   9.336   6.975   6.016  0.0349  1.8377 -0.9428
  446MOL0     H61531   9.264   7.181   5.927  0.0732 -0.0353  1.0117
  446MOL0     H61532   9.965   7.740   6.803  1.7723  0.2222 -2.6062
  446MOL0     H61533   9.924   7.817   7.056 -2.1536  3.8356  1.1315
  446MOL0     H61534   9.794   8.086   7.302 -0.6827  2.5479 -1.8861
  446MOL0     H61535   9.679   8.142   7.498 -0.7599  0.5488 -1.8040
  446MOL0     H61536   9.662   8.163   7.816  0.1131 -0.0501 -0.9937
  446MOL0     H61537   9.833   8.086   7.784 -0.4831 -0.0731 -1.7026
  446MOL0     H61538   9.714   8.286   7.979  1.7091  1.3895 -1.6469
  446MOL0     H61539   9.884   8.272   7.946  0.7010 -0.5536 -1.9634
  446MOL0     H61540   9.791   8.134   8.150  3.0191  1.2758  0.7322
  446MOL0     H61541   9.741   8.011   8.045  0.5989  1.1319  1.8385
  446MOL0     H61542   9.964   7.977   7.947 -2.0507 -1.2761 -0.0953
  446MOL0     H61543   9.952   7.949   8.115 -0.2995 -1.2315 -2.2559
  446MOL0     H61544  10.261   8.204   8.120 -1.3127  1.4533  0.4678
  446MOL0     H61545  10.050   8.274   7.671 -0.8907  0.0586  1.2428
  446MOL0     H61546  10.238   8.166   7.571  0.5326  1.7914  1.0647
  446MOL0     H61547  10.253   8.159   7.385 -0.0949  1.6947 -2.6556
  446MOL0     H61548  10.245   8.308   7.467 -1.7229  1.6004  3.9744
  447MOL0     O61549   4.910   3.071   8.528 -0.4355  0.3945 -0.0107
  447MOL0     C61550   4.902   3.144   8.431 -1.5075  0.4764  0.1400
  447MOL0     O61551   5.003   3.171   8.351  0.3092 -0.1807  0.4606
  447MOL0     C61552   5.107   3.078   8.337  0.0319  0.5791  0.2078
  447MOL0     C61553   5.226   3.085   8.394 -0.7155  0.1467 -0.1370
  447MOL0     C61554   5.331   3.005   8.375  0.4489  0.5610 -0.7081
  447MOL0     C61555   5.326   2.896   8.276  0.6504 -1.0711 -0.6292
  447MOL0     O61556   5.431   2.814   8.254 -0.1128 -0.2263  0.4600
  447MOL0     C61557   5.421   2.686   8.305 -0.3790  0.4298 -1.5917
  447MOL0     C61558   5.528   2.603   8.243 -0.0844 -0.1126  0.2003
  447MOL0     C61559   5.560   2.465   8.302  0.7624 -0.5134 -0.8392
  447MOL0     C61560   5.689   2.391   8.269  1.0234  0.1199  0.1647
  447MOL0     C61561   5.685   2.271   8.366 -0.3958 -1.0421  1.0724
  447MOL0     C61562   5.770   2.168   8.307  1.0736 -0.0887  0.4594
  447MOL0     C61563   5.684   2.085   8.214 -0.0096  0.0591  1.0235
  447MOL0     C61564   5.768   1.977   8.122  0.8382 -0.2476  0.3658
  447MOL0     N61565   5.890   1.934   8.192  0.1192 -0.1209 -0.7511
  447MOL0     C61566   5.884   1.855   8.305  0.1018 -0.0347 -0.4505
  447MOL0     C61567   6.006   1.855   8.348 -0.0053  0.6788  0.2876
  447MOL0     C61568   6.054   1.790   8.475 -0.3420  1.3168  0.6485
  447MOL0     C61569   6.082   1.896   8.588 -0.6910  0.1996 -0.1563
  447MOL0     C61570   6.001   1.875   8.714 -0.1759  0.4324 -0.1453
  447MOL0     C61571   5.868   1.923   8.680  1.1479 -0.6270 -0.1678
  447MOL0     O61572   5.785   1.876   8.791 -0.0900 -0.6275  0.2684
  447MOL0     C61573   5.668   1.952   8.806 -0.1437  0.3983 -0.5452
  447MOL0     C61574   5.638   1.990   8.932  0.4079  0.2398 -0.0891
  447MOL0     C61575   5.530   2.076   8.956  0.3812 -1.5043  0.1558
  447MOL0     C61576   5.527   2.137   9.091 -0.7428  0.1683  0.6768
  447MOL0     C61577   5.445   2.118   8.850 -0.3751  0.2114 -0.8546
  447MOL0     C61578   5.321   2.191   8.870  0.2727 -0.2801  0.2145
  447MOL0     O61579   5.244   2.200   8.752 -0.6728  0.0291 -0.0967
  447MOL0     C61580   5.122   2.261   8.765  0.1176 -0.1571  0.1727
  447MOL0     C61581   5.018   2.183   8.702  0.0057 -0.0994 -0.4252
  447MOL0     C61582   4.887   2.226   8.723 -1.0941 -0.2200 -0.0960
  447MOL0     C61583   4.851   2.344   8.802  0.0107 -0.2424 -0.2564
  447MOL0     O61584   4.711   2.376   8.826 -0.4067  0.2819 -0.1665
  447MOL0     C61585   4.651   2.401   8.696  0.4280  0.3185  0.3889
  447MOL0     C61586   4.505   2.471   8.723 -0.0564  0.6601  0.5741
  447MOL0     C61587   4.422   2.491   8.596  0.0220  0.9619 -0.2259
  447MOL0     C61588   4.287   2.538   8.644 -0.1625  0.3209 -0.9612
  447MOL0     C61589   4.195   2.564   8.520 -0.1009  0.2674 -0.2620
  447MOL0     C61590   4.246   2.672   8.426 -1.1624  0.7638 -0.3814
  447MOL0     C61591   4.151   2.790   8.403 -0.6602  0.0034 -0.0758
  447MOL0     C61592   4.214   2.889   8.306  0.1910  0.1462 -0.3504
  447MOL0    Cl61593   4.215   2.838   8.146 -0.1817 -0.3508  0.0741
  447MOL0     C61594   4.964   2.420   8.846 -0.3922 -1.3845  0.4839
  447MOL0     C61595   5.093   2.384   8.821 -0.3828 -0.3678 -0.6091
  447MOL0     O61596   5.295   2.245   8.977 -1.5219  0.4609 -0.9087
  447MOL0     C61597   5.494   2.091   8.718 -0.0103  0.3718  0.2353
  447MOL0     C61598   5.589   1.987   8.698  0.5252  0.0156  0.3145
  447MOL0     N61599   6.090   1.931   8.265  0.3028 -0.0676  0.5266
  447MOL0     N61600   6.016   1.984   8.170  0.1309 -0.5678 -0.2719
  447MOL0     C61601   5.198   2.897   8.204 -1.0340  0.7923  0.3419
  447MOL0     C61602   5.085   2.976   8.243 -0.2478  0.2882  0.4779
  447MOL0     C61603   4.787   3.237   8.423 -0.3329 -0.6905 -0.1566
  447MOL0     C61604   4.819   3.373   8.424 -0.2402  0.9428  0.3060
  447MOL0     C61605   4.714   3.466   8.420 -0.0066  0.3210  0.8590
  447MOL0     C61606   4.580   3.427   8.393  0.2911  0.2209 -0.5685
  447MOL0     O61607   4.485   3.522   8.371  0.1155  0.6528  0.1416
  447MOL0     C61608   4.465   3.561   8.236  0.4977  0.7420  0.5635
  447MOL0     C61609   4.497   3.702   8.204  1.8412 -0.2344 -1.0154
  447MOL0     C61610   4.386   3.796   8.261  0.1273  0.8385 -0.3533
  447MOL0     C61611   4.409   3.928   8.188 -0.2881 -0.4986  0.1313
  447MOL0     C61612   4.313   3.959   8.074 -1.9552 -0.1967 -0.5258
  447MOL0     C61613   4.231   3.997   7.995 -0.7778  0.0083  1.1386
  447MOL0     C61614   4.549   3.291   8.402 -0.1026 -0.0663 -0.2152
  447MOL0     C61615   4.651   3.196   8.411  0.3390 -0.1756  0.8107
  447MOL0     C61616   4.615   3.056   8.404 -0.0819  0.1932  0.1552
  447MOL0     H61617   5.235   3.166   8.466  2.3880  1.0830 -1.3764
  447MOL0     H61618   5.429   3.007   8.421  0.5733 -1.9945 -0.7176
  447MOL0     H61619   5.320   2.649   8.285 -0.4361  0.9613 -2.3243
  447MOL0     H61620   5.445   2.695   8.412  2.5139  1.9339 -2.2720
  447MOL0     H61621   5.520   2.606   8.134 -0.7875  2.0502  0.2656
  447MOL0     H61622   5.614   2.668   8.263 -1.4395  2.4445 -1.6874
  447MOL0     H61623   5.549   2.463   8.411 -1.6398 -1.8743 -1.0188
  447MOL0     H61624   5.471   2.409   8.271  0.4863 -0.7444  0.3090
  447MOL0     H61625   5.667   2.361   8.166  0.6676  2.4908 -0.4937
  447MOL0     H61626   5.775   2.457   8.268  2.6072 -1.5642  3.9602
  447MOL0     H61627   5.582   2.235   8.371 -1.5025  0.4993 -4.2788
  447MOL0     H61628   5.713   2.308   8.465 -1.8151 -1.5406  1.6870
  447MOL0     H61629   5.850   2.209   8.245 -1.8375  1.9966 -2.2412
  447MOL0     H61630   5.799   2.101   8.388  0.9470 -0.5692  0.1122
  447MOL0     H61631   5.622   2.138   8.141  3.1393 -0.9539 -2.7163
  447MOL0     H61632   5.616   2.021   8.271  1.6827 -1.6882  1.1474
  447MOL0     H61633   5.703   1.891   8.103  0.5442 -0.1264  0.8085
  447MOL0     H61634   5.803   2.025   8.031  1.4301  0.4237  0.9302
  447MOL0     H61635   5.798   1.817   8.358  0.7248  0.2089  0.7925
  447MOL0     H61636   6.144   1.740   8.437 -3.3206 -1.0237 -4.3645
  447MOL0     H61637   5.986   1.712   8.510  1.5059 -0.4334  0.4996
  447MOL0     H61638   6.186   1.872   8.611 -0.4919  2.7046  1.9394
  447MOL0     H61639   6.081   2.001   8.558 -1.5664 -0.0945 -1.2113
  447MOL0     H61640   6.008   1.767   8.731  0.0309  0.4954  0.1804
  447MOL0     H61641   6.052   1.936   8.789  0.2302  0.3605 -0.3630
  447MOL0     H61642   5.863   2.032   8.668 -0.7437 -0.7876 -1.2608
  447MOL0     H61643   5.830   1.881   8.586  1.9412 -0.6181 -0.5036
  447MOL0     H61644   5.675   1.948   9.025 -0.9133 -0.8400 -0.0054
  447MOL0     H61645   5.526   2.246   9.094  0.9448  0.1963  2.9904
  447MOL0     H61646   5.627   2.125   9.135  0.6589 -1.2492 -2.5660
  447MOL0     H61647   5.458   2.091   9.163  0.7099 -0.7611  1.5336
  447MOL0     H61648   5.019   2.086   8.653  2.1527  0.5331 -1.7939
  447MOL0     H61649   4.806   2.158   8.695 -2.1629  0.9076  0.1584
  447MOL0     H61650   4.706   2.484   8.651  0.5267 -1.1457 -2.4160
  447MOL0     H61651   4.643   2.318   8.625 -2.8050  3.0997 -2.8843
  447MOL0     H61652   4.448   2.409   8.793  2.7862  1.7425  4.1522
  447MOL0     H61653   4.506   2.561   8.785  4.3887  1.9583 -0.9978
  447MOL0     H61654   4.412   2.395   8.542 -2.4972  1.6268 -1.1147
  447MOL0     H61655   4.461   2.574   8.537 -0.1824  1.4796  0.3701
  447MOL0     H61656   4.300   2.625   8.710  1.7133 -1.4558  1.1687
  447MOL0     H61657   4.250   2.448   8.694  2.8218 -1.6969 -2.0958
  447MOL0     H61658   4.148   2.480   8.469 -1.1686 -1.2901  3.0120
  447MOL0     H61659   4.116   2.619   8.574  0.6357  2.8789 -1.6567
  447MOL0     H61660   4.272   2.633   8.327  0.5440 -1.4452  0.8395
  447MOL0     H61661   4.334   2.701   8.483  1.1651 -4.4328 -0.7439
  447MOL0     H61662   4.145   2.862   8.485  0.2899 -0.8776  0.7888
  447MOL0     H61663   4.049   2.759   8.378 -1.0586  1.8366 -0.8895
  447MOL0     H61664   4.319   2.907   8.333 -0.3936  1.4775  1.1860
  447MOL0     H61665   4.167   2.985   8.327  2.8257  1.2823  0.9222
  447MOL0     H61666   4.950   2.517   8.892  3.1768  0.4784 -1.8941
  447MOL0     H61667   5.179   2.442   8.854 -2.5773  1.1981  3.0449
  447MOL0     H61668   5.450   2.145   8.635  1.0341  1.5645  0.4290
  447MOL0     H61669   5.621   1.962   8.598 -0.0114  1.5000 -0.2551
  447MOL0     H61670   5.175   2.819   8.132 -0.2154  1.2714 -0.4607
  447MOL0     H61671   4.992   2.966   8.188  0.5403 -0.5159 -0.7579
  447MOL0     H61672   4.923   3.403   8.428  0.2095 -0.6005  2.0569
  447MOL0     H61673   4.735   3.570   8.399  0.4793 -0.0776 -0.7468
  447MOL0     H61674   4.517   3.490   8.171 -0.9113  0.5715 -0.3978
  447MOL0     H61675   4.364   3.532   8.208  0.3409 -0.7646  2.4860
  447MOL0     H61676   4.499   3.722   8.097  2.9684  2.1154 -0.6057
  447MOL0     H61677   4.598   3.708   8.246  1.5404 -0.9776 -0.1341
  447MOL0     H61678   4.284   3.757   8.257  0.2599  0.5755 -1.5042
  447MOL0     H61679   4.410   3.798   8.368  2.0080  0.5885 -0.7208
  447MOL0     H61680   4.512   3.946   8.155 -0.8375  3.7514  0.1762
  447MOL0     H61681   4.397   4.000   8.270  1.5032  0.2656 -0.2357
  447MOL0     H61682   4.146   4.030   7.938 -0.7676  2.2609  2.3279
  447MOL0     H61683   4.443   3.271   8.407 -0.0755 -0.0126  0.7331
  447MOL0     H61684   4.664   3.016   8.315  2.2047  0.5526  1.1699
  447MOL0     H61685   4.645   2.994   8.490 -0.9769  1.3342  1.3287
  447MOL0     H61686   4.511   3.024   8.390  1.0191 -2.2447 -4.8245
  448MOL0     O61687   0.027  10.853  10.557  0.2355 -0.4616  0.2346
  448MOL0     C61688  -0.042  10.761  10.517 -0.7668 -0.0729 -0.7015
  448MOL0     O61689  -0.005  10.660  10.433  0.1888  0.8349  0.0561
  448MOL0     C61690   0.105  10.674  10.344  0.2664  0.7456 -0.0594
  448MOL0     C61691   0.175  10.794  10.316  0.5400  0.4231 -0.0441
  448MOL0     C61692   0.296  10.782  10.240 -0.5653 -0.3762 -0.4773
  448MOL0     C61693   0.332  10.667  10.175 -0.0736 -0.1690 -0.9991
  448MOL0     O61694   0.443  10.642  10.099 -0.2291  0.4307  0.0959
  448MOL0     C61695   0.543  10.752  10.097 -0.2808 -0.9585 -0.5186
  448MOL0     C61696   0.655  10.707  10.007  1.1409  0.7083 -0.3006
  448MOL0     C61697   0.724  10.576  10.051 -0.4396 -0.3875  0.3024
  448MOL0     C61698   0.860  10.549   9.973  0.2372 -0.7489  0.5001
  448MOL0     C61699   0.984  10.626  10.024 -0.0310 -0.8157 -0.6928
  448MOL0     C61700   1.105  10.598   9.943  0.6079  0.7085  1.7325
  448MOL0     C61701   1.093  10.657   9.800 -0.2112 -0.4212 -0.3237
  448MOL0     C61702   1.230  10.659   9.737  0.6130  0.8351  0.0820
  448MOL0     N61703   1.246  10.533   9.663 -0.2227 -0.2925  0.4735
  448MOL0     C61704   1.311  10.422   9.710  0.2379  0.8964  0.0638
  448MOL0     C61705   1.276  10.328   9.622 -0.5124  0.3951 -0.6269
  448MOL0     C61706   1.324  10.190   9.646  0.3786 -0.8332 -0.4502
  448MOL0     C61707   1.311  10.117   9.510  0.0470  0.2474 -0.6777
  448MOL0     C61708   1.367   9.976   9.523 -0.1326 -0.5345 -0.0911
  448MOL0     C61709   1.316   9.883   9.413  0.3189 -0.5765  0.8457
  448MOL0     O61710   1.391   9.756   9.425  0.0842 -0.3671 -0.8602
  448MOL0     C61711   1.421   9.700   9.307  0.2182  0.5881  0.3567
  448MOL0     C61712   1.332   9.696   9.200  0.5138 -0.6576  0.8004
  448MOL0     C61713   1.358   9.620   9.081  0.6521 -1.6834 -0.6540
  448MOL0     C61714   1.253   9.619   8.981 -0.1427  0.6004 -0.7343
  448MOL0     C61715   1.478   9.549   9.069 -0.6851  1.3051  0.1080
  448MOL0     C61716   1.511   9.449   8.960 -0.2467 -0.3517 -0.2234
  448MOL0     O61717   1.638   9.401   8.961 -0.2509 -0.6049 -0.4012
  448MOL0     C61718   1.654   9.278   8.910  0.1937 -0.2696 -0.3802
  448MOL0     C61719   1.585   9.171   8.976 -0.2360  1.1341 -0.1422
  448MOL0     C61720   1.617   9.039   8.929  0.9259  1.0854  0.7187
  448MOL0     C61721   1.687   9.016   8.804 -0.3136 -0.5720 -0.1846
  448MOL0     O61722   1.726   8.896   8.750  0.5553 -0.2669  0.2862
  448MOL0     C61723   1.863   8.860   8.782 -0.0606  0.9980 -1.3677
  448MOL0     C61724   1.937   8.841   8.646 -0.3383 -0.1990 -0.7718
  448MOL0     C61725   2.073   8.767   8.661  1.1561  0.2905  0.0259
  448MOL0     C61726   2.181   8.856   8.736  0.1070  0.2960 -0.3063
  448MOL0     C61727   2.309   8.779   8.759  0.8029 -0.0300 -0.6415
  448MOL0     C61728   2.313   8.693   8.887 -1.3712  0.8983  0.1518
  448MOL0     C61729   2.454   8.639   8.906 -0.4989 -0.7047  0.3726
  448MOL0     C61730   2.469   8.581   9.054 -0.8037 -0.4591 -0.0445
  448MOL0    Cl61731   2.633   8.504   9.074  0.6660  0.6451 -0.2221
  448MOL0     C61732   1.733   9.131   8.746 -0.8788 -0.8298 -0.3911
  448MOL0     C61733   1.719   9.260   8.793 -0.7971 -0.2317  0.6585
  448MOL0     O61734   1.427   9.408   8.880 -0.9609 -0.1838  0.4036
  448MOL0     C61735   1.575   9.578   9.171  0.3232  0.7695 -0.7310
  448MOL0     C61736   1.546   9.639   9.286  0.3372 -0.5484 -0.1659
  448MOL0     N61737   1.192  10.369   9.524  0.3587  0.2420  0.3290
  448MOL0     N61738   1.175  10.499   9.552 -0.7455 -0.2484  0.1070
  448MOL0     C61739   0.251  10.558  10.196  0.4115  0.3675 -0.7393
  448MOL0     C61740   0.142  10.562  10.272  0.7763 -0.6882  0.4799
  448MOL0     C61741  -0.169  10.754  10.580 -0.0343 -0.6267 -0.4788
  448MOL0     C61742  -0.177  10.787  10.713  0.6748  0.0940 -0.0764
  448MOL0     C61743  -0.292  10.774  10.789 -0.0871  0.2671 -0.2841
  448MOL0     C61744  -0.412  10.746  10.729 -0.9080  0.5902 -0.5675
  448MOL0     O61745  -0.535  10.736  10.796  0.2146  0.3807 -0.6073
  448MOL0     C61746  -0.529  10.722  10.939  0.1036  0.1442 -0.0160
  448MOL0     C61747  -0.485  10.584  10.990 -0.1701 -0.0664 -0.1768
  448MOL0     C61748  -0.584  10.525  11.084  0.4051 -0.1523 -0.6158
  448MOL0     C61749  -0.575  10.377  11.094  0.0697 -0.2153  0.4553
  448MOL0     C61750  -0.442  10.314  11.118 -0.0077 -0.4975 -1.3049
  448MOL0     C61751  -0.335  10.257  11.132 -0.5901  0.2735  0.2814
  448MOL0     C61752  -0.410  10.725  10.589 -1.1973  0.6188  0.1325
  448MOL0     C61753  -0.291  10.727  10.515 -0.4322  0.1151 -0.0529
  448MOL0     C61754  -0.299  10.693  10.368 -0.6595 -0.2219  0.2614
  448MOL0     H61755   0.147  10.886  10.368 -3.1749 -0.4840 -0.1318
  448MOL0     H61756   0.354  10.872  10.231  0.2327 -0.8500 -0.1623
  448MOL0     H61757   0.582  10.780  10.195  2.5608  2.4057 -2.3664
  448MOL0     H61758   0.490  10.839  10.059  1.2473  1.1735  1.8822
  448MOL0     H61759   0.615  10.683   9.909  1.0970  2.3298 -0.7007
  448MOL0     H61760   0.728  10.788   9.999  1.1164  0.7022 -0.5729
  448MOL0     H61761   0.738  10.588  10.159 -0.5025  3.3451  0.0267
  448MOL0     H61762   0.663  10.488  10.025  0.2673 -0.2163 -2.2011
  448MOL0     H61763   0.882  10.443   9.990  2.6869  0.0093  2.7376
  448MOL0     H61764   0.838  10.562   9.867 -1.4112  0.6441  0.9810
  448MOL0     H61765   1.017  10.597  10.124  2.0375 -0.5047 -1.2547
  448MOL0     H61766   0.963  10.733  10.026 -2.7993 -1.2323 -2.2179
  448MOL0     H61767   1.192  10.636   9.998  2.3341  1.0699 -1.0900
  448MOL0     H61768   1.111  10.489   9.934  3.7978  0.7994  1.7003
  448MOL0     H61769   1.046  10.756   9.803 -1.5502 -1.0551  2.0380
  448MOL0     H61770   1.020  10.601   9.741 -3.1548  0.5859  2.1540
  448MOL0     H61771   1.221  10.746   9.671  1.4014  0.5142 -0.4697
  448MOL0     H61772   1.296  10.670   9.823  0.0599 -0.3988  0.6807
  448MOL0     H61773   1.373  10.412   9.799  1.1436 -1.2669 -0.7281
  448MOL0     H61774   1.276  10.137   9.728  0.9907 -0.7025  0.0005
  448MOL0     H61775   1.431  10.194   9.670  0.4497  3.8953 -0.7206
  448MOL0     H61776   1.206  10.106   9.480 -0.6344  2.5310  0.6141
  448MOL0     H61777   1.361  10.178   9.434 -1.8641  2.7526 -0.0939
  448MOL0     H61778   1.476   9.973   9.516  0.1226  4.1816 -2.4872
  448MOL0     H61779   1.330   9.930   9.615 -2.0302 -0.4330 -0.7564
  448MOL0     H61780   1.208   9.867   9.406  0.0433  1.3480 -0.2354
  448MOL0     H61781   1.327   9.946   9.324 -0.9185 -2.2755 -0.5616
  448MOL0     H61782   1.232   9.737   9.210  0.3683 -1.5023  3.7270
  448MOL0     H61783   1.209   9.519   8.977  1.5816 -0.2823  1.0132
  448MOL0     H61784   1.284   9.639   8.878 -0.9165  0.3033 -1.0350
  448MOL0     H61785   1.177   9.697   8.992 -0.9515 -0.2390 -0.2138
  448MOL0     H61786   1.519   9.178   9.062 -2.4659 -2.6502 -1.3132
  448MOL0     H61787   1.579   8.958   8.990  0.0769  1.0231  0.1242
  448MOL0     H61788   1.907   8.936   8.847  0.7856 -1.3511  0.9618
  448MOL0     H61789   1.875   8.771   8.844  1.3006  1.8936 -0.3112
  448MOL0     H61790   1.882   8.784   8.570 -0.6091  2.5219 -2.7735
  448MOL0     H61791   1.969   8.931   8.592  0.6514  0.1278  0.3039
  448MOL0     H61792   2.113   8.751   8.560  1.0875  0.0870  0.0286
  448MOL0     H61793   2.068   8.664   8.700  1.5552  0.6380  1.0090
  448MOL0     H61794   2.130   8.898   8.823 -0.8278 -0.9519 -0.2205
  448MOL0     H61795   2.206   8.938   8.668  3.5180  0.9691  1.5582
  448MOL0     H61796   2.344   8.731   8.667 -1.3381  1.9722 -2.6480
  448MOL0     H61797   2.386   8.855   8.778 -0.1377  0.2314  2.6939
  448MOL0     H61798   2.258   8.600   8.870  2.1788 -1.2641 -0.6388
  448MOL0     H61799   2.269   8.737   8.976  0.4073 -0.3485  1.7247
  448MOL0     H61800   2.524   8.723   8.902  0.6287 -1.6587 -3.3615
  448MOL0     H61801   2.479   8.566   8.829 -2.7415 -3.4219  2.0147
  448MOL0     H61802   2.396   8.501   9.071  0.9424 -2.9993 -3.3165
  448MOL0     H61803   2.445   8.655   9.130  1.6714 -0.9119  1.2782
  448MOL0     H61804   1.785   9.118   8.652  0.2343 -1.1816  0.2580
  448MOL0     H61805   1.743   9.350   8.737 -0.8497 -0.6007  0.0461
  448MOL0     H61806   1.671   9.531   9.152  0.5002  0.3076  1.1327
  448MOL0     H61807   1.612   9.636   9.372  2.8160 -0.7545 -1.9801
  448MOL0     H61808   0.272  10.457  10.161  0.8846  0.4950 -0.8335
  448MOL0     H61809   0.084  10.471  10.289 -1.2090  0.3270 -0.5544
  448MOL0     H61810  -0.083  10.808  10.763  0.6614  1.8198 -0.7256
  448MOL0     H61811  -0.274  10.792  10.894  1.6760 -1.9065 -0.1373
  448MOL0     H61812  -0.471  10.797  10.994 -0.7171  0.1149  0.9312
  448MOL0     H61813  -0.634  10.733  10.969 -0.0851 -3.6142  1.1583
  448MOL0     H61814  -0.382  10.579  11.029 -1.0222  0.6040  2.3760
  448MOL0     H61815  -0.484  10.511  10.909 -0.8492 -0.8228  0.4891
  448MOL0     H61816  -0.563  10.559  11.185 -0.7164 -1.2097 -0.0083
  448MOL0     H61817  -0.685  10.554  11.055  0.2769  1.2802  1.1095
  448MOL0     H61818  -0.608  10.334  10.999  1.8209 -3.3483  1.1241
  448MOL0     H61819  -0.637  10.338  11.175 -0.5221  1.0206  0.6219
  448MOL0     H61820  -0.242  10.211  11.159 -0.6691  1.4085  2.7094
  448MOL0     H61821  -0.503  10.695  10.541  0.3157 -0.8264 -2.0601
  448MOL0     H61822  -0.327  10.786  10.316  1.9555  0.8043  0.5602
  448MOL0     H61823  -0.211  10.657  10.314 -0.7315  3.1716 -2.4570
  448MOL0     H61824  -0.366  10.608  10.353  2.4037 -2.4689 -2.0411
  449MOL0     O61825  10.680  11.389  10.781 -0.6030 -0.0453  0.0833
  449MOL0     C61826  10.782  11.416  10.846  0.2324 -0.1552 -0.2906
  449MOL0     O61827  10.904  11.352  10.819 -0.5376  0.8372 -0.1078
  449MOL0     C61828  10.910  11.261  10.717 -0.5039 -0.1043  1.3284
  449MOL0     C61829  10.863  11.289  10.587  0.2495  0.3979  0.7845
  449MOL0     C61830  10.872  11.181  10.490 -0.3619 -0.1064 -0.7884
  449MOL0     C61831  10.942  11.067  10.515  0.8032  0.1585  0.5155
  449MOL0     O61832  10.948  10.955  10.429 -0.6380  0.8310  0.1211
  449MOL0     C61833  10.973  10.973  10.283 -0.3128  0.5222  0.2195
  449MOL0     C61834  10.844  10.970  10.208 -0.3995 -0.2520 -0.1443
  449MOL0     C61835  10.793  10.829  10.203  0.0831  0.4002 -0.2944
  449MOL0     C61836  10.826  10.756  10.076 -0.4718  0.3279 -0.1102
  449MOL0     C61837  10.805  10.610  10.091  0.4185 -0.5484  0.8549
  449MOL0     C61838  10.663  10.559  10.127  0.0037  0.1963  1.1793
  449MOL0     C61839  10.666  10.425  10.202  0.5429  0.4625  0.1865
  449MOL0     C61840  10.537  10.353  10.148 -0.8867 -0.6209 -0.1158
  449MOL0     N61841  10.496  10.236  10.234 -0.1171 -0.0397  0.0458
  449MOL0     C61842  10.568  10.164  10.330 -0.5921  0.4215 -0.2465
  449MOL0     C61843  10.495  10.070  10.383  0.7897  0.5701  0.0239
  449MOL0     C61844  10.548   9.978  10.496 -0.4859  0.3793 -0.4884
  449MOL0     C61845  10.554   9.830  10.438 -0.6709  0.0175 -0.1621
  449MOL0     C61846  10.541   9.718  10.543  0.1835 -0.0635  0.3498
  449MOL0     C61847  10.537   9.583  10.481  1.0236 -1.1339 -0.7734
  449MOL0     O61848  10.567   9.475  10.575  0.6385 -0.1584  1.0774
  449MOL0     C61849  10.498   9.352  10.567 -1.0666 -0.5333  0.4656
  449MOL0     C61850  10.429   9.309  10.457  0.8310 -0.9709  0.1979
  449MOL0     C61851  10.359   9.187  10.458 -1.1904  0.4008  0.1815
  449MOL0     C61852  10.277   9.150  10.339 -0.7453 -0.3470 -0.3524
  449MOL0     C61853  10.345   9.121  10.587 -0.1232  0.9283 -0.5518
  449MOL0     C61854  10.272   8.994  10.610 -0.8444  0.6397  0.6816
  449MOL0     O61855  10.242   8.956  10.734  0.0623 -0.2734  0.3218
  449MOL0     C61856  10.178   8.845  10.758  0.2026  0.5668 -0.4080
  449MOL0     C61857  10.233   8.757  10.851 -0.0316  0.9852 -0.4633
  449MOL0     C61858  10.187   8.625  10.867 -0.2856 -0.1461  0.4233
  449MOL0     C61859  10.069   8.588  10.797 -0.7573 -0.4506 -1.0619
  449MOL0     O61860  10.031   8.459  10.818 -0.2325  0.1766  0.9475
  449MOL0     C61861   9.892   8.424  10.790 -0.2081 -1.2670  0.0850
  449MOL0     C61862   9.869   8.282  10.830  0.9126  0.0515  0.5070
  449MOL0     C61863   9.870   8.254  10.983 -1.0183 -0.5137  0.4071
  449MOL0     C61864   9.767   8.321  11.073  0.4508  0.1564 -0.0536
  449MOL0     C61865   9.788   8.262  11.209  0.2941  0.5586  0.0732
  449MOL0     C61866   9.670   8.309  11.301 -0.0510 -0.6885  0.0233
  449MOL0     C61867   9.610   8.442  11.269  1.5786 -1.0193  0.4760
  449MOL0     C61868   9.516   8.501  11.371 -0.4745  0.0621 -0.1393
  449MOL0    Cl61869   9.610   8.560  11.519 -0.4951 -0.3419 -0.2777
  449MOL0     C61870  10.002   8.680  10.710  0.6187 -0.3470  0.1950
  449MOL0     C61871  10.052   8.810  10.696 -0.5159 -0.4893  0.4361
  449MOL0     O61872  10.252   8.922  10.513  0.1738  0.1325 -0.2365
  449MOL0     C61873  10.407   9.176  10.699  0.4583 -0.2632  0.4425
  449MOL0     C61874  10.478   9.289  10.693 -0.2329 -0.5855  0.2284
  449MOL0     N61875  10.372  10.072  10.314 -0.0291 -1.0199 -0.7115
  449MOL0     N61876  10.368  10.181  10.231  0.8382  0.9107 -0.3540
  449MOL0     C61877  10.977  11.044  10.642 -0.3286  0.6977 -0.4805
  449MOL0     C61878  10.967  11.139  10.747  0.6832 -0.2498  0.1631
  449MOL0     C61879  10.768  11.510  10.963  0.2249 -0.1647 -0.3611
  449MOL0     C61880  10.655  11.607  10.966 -0.9718  0.0780 -0.3212
  449MOL0     C61881  10.646  11.711  11.055 -0.1211  0.2134 -1.4393
  449MOL0     C61882  10.739  11.728  11.156  0.9177  0.5146  0.0943
  449MOL0     O61883  10.709  11.829  11.247  0.0287 -0.4554 -0.9495
  449MOL0     C61884  10.745  11.816  11.381 -1.1433  0.2813  0.3110
  449MOL0     C61885  10.718  11.672  11.442 -2.0070 -0.3289 -0.2319
  449MOL0     C61886  10.573  11.623  11.428 -0.5217  0.1751 -0.1334
  449MOL0     C61887  10.535  11.501  11.527  0.2176  0.2326  0.1713
  449MOL0     C61888  10.558  11.535  11.667 -0.6012 -0.1518  0.3457
  449MOL0     C61889  10.571  11.548  11.785  0.2804 -0.7118  0.1264
  449MOL0     C61890  10.856  11.644  11.148  1.1428  0.1762 -0.1366
  449MOL0     C61891  10.871  11.547  11.052  0.7219 -0.0090  0.2124
  449MOL0     C61892  11.010  11.496  11.054  0.1556  0.1199 -0.2496
  449MOL0     H61893  10.824  11.386  10.558  0.3506 -0.1376 -1.3728
  449MOL0     H61894  10.833  11.199  10.390 -0.9922  1.9771 -0.2214
  449MOL0     H61895  11.028  10.882  10.259 -3.1268 -1.7354  1.6846
  449MOL0     H61896  11.037  11.058  10.262  1.8185 -0.7357  1.2440
  449MOL0     H61897  10.765  11.037  10.245  0.0996  1.0429 -1.3366
  449MOL0     H61898  10.863  11.012  10.109 -2.0449 -0.4439 -0.5820
  449MOL0     H61899  10.829  10.769  10.288  2.2644 -0.9095 -2.0567
  449MOL0     H61900  10.683  10.831  10.203  0.0291 -1.0330  0.6155
  449MOL0     H61901  10.768  10.796   9.992 -0.1365 -1.8853 -1.4708
  449MOL0     H61902  10.932  10.767  10.049  0.0780 -3.2636  0.0433
  449MOL0     H61903  10.870  10.584  10.176 -0.7340 -0.4751  1.7850
  449MOL0     H61904  10.840  10.576   9.993  0.5725 -0.1330  0.7630
  449MOL0     H61905  10.602  10.627  10.187 -1.0008 -0.9009  1.4363
  449MOL0     H61906  10.611  10.554  10.031 -2.3844  3.1973  2.1663
  449MOL0     H61907  10.638  10.459  10.302 -4.9067 -2.3881  0.0191
  449MOL0     H61908  10.755  10.363  10.188  0.3484  0.2725 -0.2645
  449MOL0     H61909  10.454  10.422  10.131  0.5857  1.5336  0.9518
  449MOL0     H61910  10.571  10.312  10.052  1.8248 -1.1203  0.9565
  449MOL0     H61911  10.667  10.198  10.360 -0.6179  2.1116 -1.8943
  449MOL0     H61912  10.491   9.973  10.590  2.8691 -0.5542  1.6788
  449MOL0     H61913  10.646  10.015  10.527  0.5471 -2.0500 -0.6395
  449MOL0     H61914  10.471   9.813  10.369 -0.2446 -2.9779 -0.0758
  449MOL0     H61915  10.649   9.820  10.384 -1.6979  2.4737 -2.6516
  449MOL0     H61916  10.617   9.731  10.621  0.1971 -1.0510  0.5123
  449MOL0     H61917  10.438   9.722  10.580 -0.0728  1.3418 -0.4509
  449MOL0     H61918  10.443   9.584  10.425  0.8809  4.1794 -0.8662
  449MOL0     H61919  10.616   9.581  10.405  1.7391 -3.9840 -0.0771
  449MOL0     H61920  10.419   9.366  10.365 -0.0898 -2.1591 -0.4787
  449MOL0     H61921  10.299   9.221  10.259  2.4438 -1.9844 -1.0975
  449MOL0     H61922  10.172   9.166  10.362 -1.1046 -0.2996 -1.9415
  449MOL0     H61923  10.297   9.047  10.311 -1.0137 -0.8574  1.2334
  449MOL0     H61924  10.319   8.777  10.914  0.2250 -0.5697 -0.2754
  449MOL0     H61925  10.234   8.556  10.936 -1.7848 -2.5775 -0.8329
  449MOL0     H61926   9.829   8.488  10.852  2.0981  1.6172 -0.3557
  449MOL0     H61927   9.855   8.421  10.687  0.4101  5.0744 -0.6838
  449MOL0     H61928   9.772   8.264  10.784  1.3375 -0.0435 -0.3760
  449MOL0     H61929   9.939   8.211  10.784 -1.1060 -1.2756 -0.6842
  449MOL0     H61930   9.968   8.287  11.020 -1.9097 -2.4549  5.3312
  449MOL0     H61931   9.873   8.146  11.000 -1.9995 -0.6635 -0.2954
  449MOL0     H61932   9.670   8.277  11.048  1.9158 -3.2700 -0.2316
  449MOL0     H61933   9.773   8.430  11.076  1.0071  0.2471 -2.3881
  449MOL0     H61934   9.776   8.154  11.200 -0.8237  0.4968  1.7460
  449MOL0     H61935   9.886   8.288  11.249  1.3283  0.7392 -2.4271
  449MOL0     H61936   9.699   8.293  11.405  0.7486 -4.1179 -0.6240
  449MOL0     H61937   9.587   8.238  11.289 -0.2485 -0.7591  1.6076
  449MOL0     H61938   9.541   8.436  11.185 -1.3719  1.4520  2.4751
  449MOL0     H61939   9.687   8.519  11.256  2.4604 -1.8416  0.6885
  449MOL0     H61940   9.434   8.434  11.396 -0.8872 -0.1034 -1.7690
  449MOL0     H61941   9.476   8.589  11.319  1.5084  0.5333 -0.9616
  449MOL0     H61942   9.913   8.644  10.659  1.9346 -2.1084 -0.9797
  449MOL0     H61943  10.010   8.884  10.629  2.2572 -2.9176 -4.5986
  449MOL0     H61944  10.399   9.130  10.797 -1.1345  0.1609  0.5408
  449MOL0     H61945  10.533   9.339  10.772  0.5128 -0.6468 -0.2470
  449MOL0     H61946  11.005  10.948  10.684 -2.4290  1.8896  4.4112
  449MOL0     H61947  11.002  11.123  10.848  1.2188 -1.0722 -0.1425
  449MOL0     H61948  10.572  11.594  10.898 -1.3063  0.2321  0.0521
  449MOL0     H61949  10.559  11.776  11.054 -0.5232 -0.2586  0.1108
  449MOL0     H61950  10.852  11.840  11.383 -0.9459 -0.2115 -1.8568
  449MOL0     H61951  10.711  11.897  11.446  0.3450  0.1435  1.3254
  449MOL0     H61952  10.740  11.689  11.548 -4.3189  1.9098 -0.0024
  449MOL0     H61953  10.796  11.604  11.408 -0.5165  1.2450 -0.1358
  449MOL0     H61954  10.511  11.710  11.456  1.7403  2.5399 -2.0522
  449MOL0     H61955  10.543  11.594  11.327  0.0908  1.1111 -0.5952
  449MOL0     H61956  10.598  11.418  11.495 -1.3393  0.0627 -2.7366
  449MOL0     H61957  10.429  11.477  11.523  0.4141 -1.9915  3.8956
  449MOL0     H61958  10.576  11.571  11.889 -1.6078  2.3198 -0.3285
  449MOL0     H61959  10.928  11.677  11.222 -1.6075  2.0686  1.8845
  449MOL0     H61960  11.049  11.500  10.952  0.6206  1.1033 -0.0434
  449MOL0     H61961  11.081  11.551  11.117 -0.4866  0.6992 -0.0185
  449MOL0     H61962  11.005  11.393  11.090  2.8726 -1.4550 -3.6936
  450MOL0     O61963   7.356   3.783   2.320  0.1034 -0.2963 -0.2432
  450MOL0     C61964   7.361   3.875   2.401 -0.0901  0.0197 -0.5283
  450MOL0     O61965   7.317   3.999   2.370 -0.1357 -0.2678  0.0346
  450MOL0     C61966   7.271   4.018   2.243 -0.4954 -0.9314  0.5778
  450MOL0     C61967   7.132   4.053   2.231  0.0857  0.0209  0.4607
  450MOL0     C61968   7.077   4.071   2.102  1.0466 -0.1012 -0.2645
  450MOL0     C61969   7.158   4.083   1.994  0.0153 -1.5971  0.9216
  450MOL0     O61970   7.102   4.115   1.870  0.6702  0.0511 -0.6373
  450MOL0     C61971   7.170   4.171   1.753  0.4070 -0.3121  0.6192
  450MOL0     C61972   7.054   4.200   1.647 -0.6508  0.0219 -0.7256
  450MOL0     C61973   6.986   4.079   1.592  0.9034  0.3768  0.4683
  450MOL0     C61974   6.883   4.098   1.483  0.1234  0.3079  0.0184
  450MOL0     C61975   6.766   4.190   1.526 -1.7103 -1.5316  0.0061
  450MOL0     C61976   6.696   4.253   1.402  1.3231  0.9574  0.5213
  450MOL0     C61977   6.581   4.153   1.368  0.1342 -0.5985  0.2049
  450MOL0     C61978   6.515   4.183   1.235  0.6199  0.8263 -0.3489
  450MOL0     N61979   6.483   4.065   1.155  0.0805  0.1437  0.8941
  450MOL0     C61980   6.522   4.045   1.021 -0.1383  0.1154 -0.2506
  450MOL0     C61981   6.484   3.920   0.989  0.1784  0.4434 -0.0884
  450MOL0     C61982   6.518   3.838   0.856  0.2924  0.7041 -0.0499
  450MOL0     C61983   6.596   3.932   0.751  0.5160 -0.2156 -0.6274
  450MOL0     C61984   6.490   3.974   0.646 -0.5347 -0.4394  0.1388
  450MOL0     C61985   6.427   4.119   0.675  0.3095  0.5023 -0.2242
  450MOL0     O61986   6.530   4.210   0.660 -0.4679 -0.3956 -0.6440
  450MOL0     C61987   6.567   4.290   0.763  0.0692 -1.0910  0.9019
  450MOL0     C61988   6.471   4.370   0.830 -0.3027 -0.4941 -0.5677
  450MOL0     C61989   6.500   4.438   0.947  0.7445 -0.5183 -0.1223
  450MOL0     C61990   6.385   4.524   1.006 -0.4703 -0.2340  0.3922
  450MOL0     C61991   6.635   4.444   0.989  0.3576 -0.1951 -0.0566
  450MOL0     C61992   6.685   4.509   1.111  0.8259 -0.4059  0.3393
  450MOL0     O61993   6.812   4.503   1.151 -0.0411 -0.3735 -1.0711
  450MOL0     C61994   6.859   4.589   1.249 -0.4581  0.1952 -0.1695
  450MOL0     C61995   6.812   4.721   1.278  0.0752 -0.4486  0.3171
  450MOL0     C61996   6.860   4.781   1.394  0.9058 -0.2225  0.9013
  450MOL0     C61997   6.947   4.721   1.482 -0.2505 -0.0366  0.4476
  450MOL0     O61998   7.021   4.791   1.569 -0.3049 -0.4440  0.0222
  450MOL0     C61999   7.032   4.934   1.566 -0.7882 -0.6242 -0.0793
  450MOL0     C62000   7.136   4.992   1.667 -0.8806 -0.6846 -0.6495
  450MOL0     C62001   7.071   5.042   1.802  0.6940  0.0951 -0.1762
  450MOL0     C62002   7.060   4.929   1.917 -1.2446  0.2837  0.4035
  450MOL0     C62003   7.071   4.967   2.063 -0.4063 -0.3747  0.5040
  450MOL0     C62004   7.219   5.008   2.086  0.2810 -0.5182 -0.3128
  450MOL0     C62005   7.241   5.036   2.241 -0.2815  0.0185 -0.5548
  450MOL0     C62006   7.221   5.179   2.286  1.0543  0.0576 -0.0148
  450MOL0    Cl62007   7.346   5.290   2.226  0.0199  0.2291 -0.0152
  450MOL0     C62008   6.973   4.584   1.458 -1.6938  0.9344  0.6823
  450MOL0     C62009   6.927   4.519   1.346 -0.6030  0.5248  0.0448
  450MOL0     O62010   6.598   4.573   1.179 -0.3968 -1.1161  0.3680
  450MOL0     C62011   6.728   4.386   0.915 -0.7036 -0.5688  1.8027
  450MOL0     C62012   6.694   4.309   0.798 -0.8369 -0.7768 -0.2102
  450MOL0     N62013   6.408   3.867   1.092 -0.4818 -0.1781  1.4589
  450MOL0     N62014   6.412   3.952   1.188  0.7733  0.2886 -0.7886
  450MOL0     C62015   7.298   4.062   2.011  0.2745 -0.1530 -0.4086
  450MOL0     C62016   7.356   4.023   2.131 -0.3194 -0.0860  0.2477
  450MOL0     C62017   7.430   3.859   2.532 -0.2807  0.6560 -0.4826
  450MOL0     C62018   7.498   3.738   2.552  0.4602 -0.8647  0.2318
  450MOL0     C62019   7.570   3.714   2.670 -0.9424  0.4949 -0.6463
  450MOL0     C62020   7.559   3.806   2.781  0.4173  0.0772 -0.0681
  450MOL0     O62021   7.637   3.796   2.897 -0.2087 -0.6089  0.8622
  450MOL0     C62022   7.638   3.668   2.949 -0.0567 -0.4991 -1.0963
  450MOL0     C62023   7.784   3.619   2.953 -0.7899 -0.1694  0.6338
  450MOL0     C62024   7.803   3.468   2.964 -0.2995  0.8456  1.2656
  450MOL0     C62025   7.942   3.401   2.946 -0.0277 -0.3393  1.0320
  450MOL0     C62026   8.051   3.469   3.020  0.8101 -0.0389  0.0606
  450MOL0     C62027   8.142   3.505   3.087  0.2039 -0.4086  0.0478
  450MOL0     C62028   7.484   3.919   2.751 -0.4185  0.5111 -0.7151
  450MOL0     C62029   7.423   3.950   2.639 -0.3178  0.6805 -0.9237
  450MOL0     C62030   7.345   4.074   2.638 -0.1524  0.5081 -0.3370
  450MOL0     H62031   7.067   4.046   2.317 -0.4899 -0.0474  0.0311
  450MOL0     H62032   6.971   4.092   2.089  1.1303 -0.1641 -1.1774
  450MOL0     H62033   7.248   4.105   1.714  0.0185 -0.4693  0.0949
  450MOL0     H62034   7.216   4.266   1.778 -0.6706  0.0145  1.4393
  450MOL0     H62035   6.978   4.261   1.697 -0.0344  1.0339 -0.9962
  450MOL0     H62036   7.113   4.257   1.576  2.6694 -0.9919  0.9755
  450MOL0     H62037   7.063   4.013   1.551  0.9983  1.1933 -0.7026
  450MOL0     H62038   6.943   4.015   1.670  0.3227 -0.6035 -0.6367
  450MOL0     H62039   6.942   4.124   1.395 -2.0121 -2.8570 -2.5892
  450MOL0     H62040   6.837   3.999   1.475 -2.2710  1.4420 -1.1421
  450MOL0     H62041   6.806   4.274   1.584 -1.3106 -1.2778 -0.6312
  450MOL0     H62042   6.701   4.142   1.600 -4.8934  0.9661 -0.9522
  450MOL0     H62043   6.658   4.350   1.436  1.7986  1.1110  0.6126
  450MOL0     H62044   6.759   4.255   1.313  0.4472 -0.2004 -0.1601
  450MOL0     H62045   6.501   4.145   1.443  0.6516 -0.7954  0.7499
  450MOL0     H62046   6.621   4.051   1.369 -1.1480 -1.1375 -0.7419
  450MOL0     H62047   6.424   4.242   1.248 -0.9097 -1.6823  1.0825
  450MOL0     H62048   6.584   4.239   1.171  1.5830 -0.2517 -0.2960
  450MOL0     H62049   6.575   4.114   0.956  0.7196  1.8915  2.2099
  450MOL0     H62050   6.428   3.787   0.820  0.1013 -2.2700  3.9648
  450MOL0     H62051   6.580   3.752   0.881  2.3593  1.2279 -2.9449
  450MOL0     H62052   6.655   4.010   0.799  0.6978  0.4370 -1.8603
  450MOL0     H62053   6.675   3.877   0.699 -1.0203 -1.7047 -1.4784
  450MOL0     H62054   6.523   3.973   0.541 -0.5838  4.0074 -0.0974
  450MOL0     H62055   6.410   3.899   0.650 -1.5550  0.6526  0.6784
  450MOL0     H62056   6.355   4.133   0.594 -1.0463 -1.2499  0.6245
  450MOL0     H62057   6.365   4.102   0.763 -3.0095  0.2749 -2.4381
  450MOL0     H62058   6.369   4.381   0.795 -1.6168  0.3138  3.0189
  450MOL0     H62059   6.299   4.532   0.940 -2.1679 -1.4593  2.3199
  450MOL0     H62060   6.438   4.619   1.006 -1.0530  0.1217 -1.2297
  450MOL0     H62061   6.357   4.478   1.101 -0.9174  0.9332  0.8408
  450MOL0     H62062   6.745   4.768   1.207  1.2761  0.4273 -0.2769
  450MOL0     H62063   6.850   4.888   1.410  2.3365 -0.2051  1.8669
  450MOL0     H62064   7.066   4.966   1.467 -1.7437  0.2840 -0.1294
  450MOL0     H62065   6.931   4.973   1.583 -1.3737 -1.5922 -1.2128
  450MOL0     H62066   7.219   4.923   1.682 -0.3996 -0.2347 -1.2070
  450MOL0     H62067   7.172   5.081   1.615  3.4006 -3.0601 -2.3002
  450MOL0     H62068   6.973   5.086   1.781  0.2047 -0.6028  0.5690
  450MOL0     H62069   7.133   5.119   1.849 -0.3505 -0.6506  2.6087
  450MOL0     H62070   7.127   4.848   1.887  0.6679  0.7681  3.0333
  450MOL0     H62071   6.965   4.876   1.908  0.5287 -3.3250  1.0842
  450MOL0     H62072   6.998   5.047   2.075 -1.6066 -1.0524 -1.7050
  450MOL0     H62073   7.033   4.883   2.123 -1.1700 -2.0475 -2.1566
  450MOL0     H62074   7.243   5.097   2.027 -1.5125  1.0603  1.2113
  450MOL0     H62075   7.280   4.923   2.056  1.1428 -0.2695  0.6463
  450MOL0     H62076   7.345   5.009   2.261 -0.2362  1.3685  1.3339
  450MOL0     H62077   7.189   4.959   2.298  3.3284 -1.8247  0.5130
  450MOL0     H62078   7.222   5.195   2.394 -1.0903  1.6339 -0.1492
  450MOL0     H62079   7.127   5.225   2.253  2.4324  1.2231 -2.5974
  450MOL0     H62080   7.028   4.527   1.532 -2.4542 -1.3533 -0.4179
  450MOL0     H62081   6.930   4.411   1.354  0.0330  0.6643  2.3844
  450MOL0     H62082   6.834   4.403   0.929 -0.3980 -1.0416  0.2432
  450MOL0     H62083   6.775   4.255   0.750 -0.1018  0.3576 -0.2671
  450MOL0     H62084   7.362   4.079   1.925 -0.8432 -0.6770 -1.3833
  450MOL0     H62085   7.464   4.015   2.138  0.0198  2.7982 -0.4593
  450MOL0     H62086   7.506   3.672   2.466 -0.9412 -4.0996  2.3616
  450MOL0     H62087   7.635   3.627   2.679 -0.5621  0.5895 -2.2464
  450MOL0     H62088   7.604   3.668   3.053  0.8118 -2.4405 -0.7788
  450MOL0     H62089   7.577   3.586   2.908  1.1311  0.0044 -4.1811
  450MOL0     H62090   7.829   3.659   3.044  1.8332 -3.0156  0.7635
  450MOL0     H62091   7.838   3.656   2.865 -0.0405 -2.5732 -0.0199
  450MOL0     H62092   7.768   3.434   3.062  0.1546  1.9289  1.8183
  450MOL0     H62093   7.736   3.416   2.896  2.1692 -3.8014  1.9397
  450MOL0     H62094   7.967   3.404   2.839  1.0344 -3.1306  1.1241
  450MOL0     H62095   7.928   3.293   2.957  0.9446 -1.4292 -4.8446
  450MOL0     H62096   8.233   3.538   3.133  0.9881 -0.7726 -1.1832
  450MOL0     H62097   7.457   3.990   2.829  1.3511  0.2339  0.1913
  450MOL0     H62098   7.408   4.155   2.601  0.2075  0.0309 -0.8006
  450MOL0     H62099   7.257   4.074   2.573 -0.8450 -1.6301  0.5156
  450MOL0     H62100   7.301   4.114   2.729 -2.5721  0.6014 -1.4748
  451MOL0     O62101   6.346   3.798   5.546 -0.4247 -0.4650 -0.0076
  451MOL0     C62102   6.416   3.785   5.648 -0.3055  0.8565  0.7397
  451MOL0     O62103   6.405   3.682   5.742  0.9322 -0.4388 -0.0732
  451MOL0     C62104   6.316   3.580   5.706 -1.0353 -0.4885 -1.0553
  451MOL0     C62105   6.319   3.507   5.589 -0.1568  0.0367  0.7192
  451MOL0     C62106   6.227   3.404   5.566  0.2986 -0.4275 -1.3768
  451MOL0     C62107   6.146   3.351   5.667  1.2077 -0.3544 -0.3861
  451MOL0     O62108   6.066   3.253   5.629  0.3669 -0.6242  0.0693
  451MOL0     C62109   5.926   3.253   5.680 -0.0382  0.0897  0.0985
  451MOL0     C62110   5.850   3.154   5.593 -0.6228  0.0872  0.2471
  451MOL0     C62111   5.852   3.003   5.643  0.9276 -0.5758 -0.7634
  451MOL0     C62112   5.831   2.915   5.520 -0.5220  0.7317 -0.0004
  451MOL0     C62113   5.823   2.768   5.550 -0.7682  0.1394 -0.4242
  451MOL0     C62114   5.950   2.705   5.616  0.9216  0.4005  0.1892
  451MOL0     C62115   5.917   2.555   5.650  0.0585 -0.2995 -0.6469
  451MOL0     C62116   6.020   2.490   5.745  0.4477  0.1395  0.8102
  451MOL0     N62117   6.161   2.479   5.690  0.5187  0.9568 -1.0556
  451MOL0     C62118   6.258   2.530   5.759  0.3184 -0.3168 -0.3206
  451MOL0     C62119   6.368   2.498   5.691 -0.2232 -0.0193 -0.3806
  451MOL0     C62120   6.507   2.545   5.717  0.4062 -0.0506  0.2599
  451MOL0     C62121   6.558   2.542   5.865 -0.4027  0.7018 -0.6069
  451MOL0     C62122   6.691   2.601   5.891 -0.0666 -0.6877  0.0162
  451MOL0     C62123   6.803   2.497   5.918  0.0997  0.3584  0.4512
  451MOL0     O62124   6.917   2.550   5.851 -0.2394 -0.2381 -0.3007
  451MOL0     C62125   6.929   2.534   5.713  0.4269  1.2899 -0.4767
  451MOL0     C62126   6.893   2.423   5.639 -0.8742  0.0231  0.3757
  451MOL0     C62127   6.913   2.411   5.505 -1.1706 -1.1561  0.2018
  451MOL0     C62128   6.857   2.294   5.434  0.0747 -0.5301 -0.8202
  451MOL0     C62129   6.977   2.523   5.428 -0.5588  1.2684  0.5228
  451MOL0     C62130   7.017   2.518   5.282 -0.5549 -0.5280 -0.1475
  451MOL0     O62131   7.085   2.624   5.234  1.0749 -0.8046  0.0442
  451MOL0     C62132   7.113   2.624   5.099  0.2456  0.1370  0.3155
  451MOL0     C62133   7.245   2.629   5.052  0.6777  0.6212  0.8077
  451MOL0     C62134   7.256   2.613   4.907 -0.0743 -0.6894 -0.5077
  451MOL0     C62135   7.150   2.602   4.814 -0.2873 -1.0788 -0.1818
  451MOL0     O62136   7.183   2.593   4.679  0.8528 -0.8284  0.0944
  451MOL0     C62137   7.076   2.549   4.598  1.1868  0.4490  0.0494
  451MOL0     C62138   7.104   2.535   4.442 -0.4575 -1.2077 -0.3030
  451MOL0     C62139   7.192   2.413   4.414 -0.4836  0.6905 -1.0026
  451MOL0     C62140   7.342   2.441   4.407  0.6565  0.3074  0.0124
  451MOL0     C62141   7.439   2.327   4.381 -0.2813  0.7391 -0.4340
  451MOL0     C62142   7.477   2.247   4.512 -0.5759 -0.3327  0.3026
  451MOL0     C62143   7.570   2.138   4.457 -0.1608  0.7907 -0.0455
  451MOL0     C62144   7.600   2.022   4.549  0.5770  0.3082  0.2881
  451MOL0    Cl62145   7.457   1.918   4.556 -0.0654  0.0185 -0.1722
  451MOL0     C62146   7.022   2.612   4.866  1.0932  0.3233  0.1240
  451MOL0     C62147   7.008   2.613   5.003 -0.3995 -1.3647 -0.4870
  451MOL0     O62148   7.002   2.406   5.222  0.5516 -0.0544  0.0373
  451MOL0     C62149   6.997   2.640   5.504 -0.3953  1.1280  0.5531
  451MOL0     C62150   6.984   2.642   5.643 -0.6101  1.8514  0.0104
  451MOL0     N62151   6.337   2.428   5.577  0.2932  0.3802  0.6282
  451MOL0     N62152   6.205   2.397   5.588 -0.1962 -1.4845 -0.1990
  451MOL0     C62153   6.139   3.430   5.787 -0.6642  0.1083  0.1302
  451MOL0     C62154   6.230   3.537   5.805 -0.4233 -0.3066 -0.2347
  451MOL0     C62155   6.512   3.896   5.684  0.4824  0.7693 -0.6845
  451MOL0     C62156   6.558   3.904   5.810  0.7761 -0.0069 -0.1045
  451MOL0     C62157   6.661   3.995   5.846  0.0948  0.7063  0.4366
  451MOL0     C62158   6.725   4.074   5.755 -0.3976 -0.5320 -0.1412
  451MOL0     O62159   6.828   4.162   5.783 -0.6433 -0.1831  0.0572
  451MOL0     C62160   6.919   4.114   5.877 -0.4801  0.0953  0.3923
  451MOL0     C62161   7.050   4.192   5.876  0.6425  0.9985 -0.4103
  451MOL0     C62162   7.138   4.154   5.988 -0.4586  0.1419  0.2463
  451MOL0     C62163   7.269   4.235   5.969 -0.0343  0.0697  0.1736
  451MOL0     C62164   7.386   4.187   6.043  0.0193 -0.1150  0.7955
  451MOL0     C62165   7.468   4.163   6.131 -0.4428 -0.4723  0.1610
  451MOL0     C62166   6.689   4.067   5.618 -0.2307  0.5530  0.6322
  451MOL0     C62167   6.578   3.979   5.587 -0.2761  0.4116  0.6300
  451MOL0     C62168   6.551   3.969   5.445  0.7062  0.6067  0.6674
  451MOL0     H62169   6.386   3.547   5.513  0.8203  1.7691  2.4205
  451MOL0     H62170   6.218   3.354   5.470 -0.8945 -0.7695 -1.1148
  451MOL0     H62171   5.883   3.351   5.661  1.2591  1.1863  2.3893
  451MOL0     H62172   5.921   3.249   5.789 -0.0706  1.2485  0.1471
  451MOL0     H62173   5.743   3.178   5.592 -0.0698  3.0540  1.7708
  451MOL0     H62174   5.883   3.158   5.489 -2.5913  1.1271 -0.3780
  451MOL0     H62175   5.953   2.975   5.674  0.6958 -1.3534 -0.6893
  451MOL0     H62176   5.786   2.987   5.729  1.3129  3.1930  0.3812
  451MOL0     H62177   5.742   2.949   5.466 -1.2168 -3.8380 -2.1668
  451MOL0     H62178   5.912   2.935   5.449 -1.4057 -0.2843 -1.3444
  451MOL0     H62179   5.805   2.716   5.456 -0.8116 -0.0361 -0.3187
  451MOL0     H62180   5.734   2.739   5.607  1.5326 -3.5245  1.6733
  451MOL0     H62181   6.033   2.713   5.545  1.0243  1.2967  0.4049
  451MOL0     H62182   5.980   2.755   5.709  1.5204  1.2208 -0.4388
  451MOL0     H62183   5.910   2.488   5.564 -2.4128  0.0752 -0.7953
  451MOL0     H62184   5.822   2.546   5.703 -0.3120 -0.2686 -1.3029
  451MOL0     H62185   6.023   2.553   5.834  1.2619 -0.4129  1.1912
  451MOL0     H62186   5.978   2.391   5.769 -1.3787  0.9000  0.8632
  451MOL0     H62187   6.265   2.577   5.856  2.0362 -1.2877  0.0587
  451MOL0     H62188   6.502   2.646   5.675 -2.3805  1.4269  3.6269
  451MOL0     H62189   6.581   2.490   5.658 -1.5323 -0.8985 -1.4914
  451MOL0     H62190   6.485   2.606   5.915 -2.8370 -0.3595 -2.5639
  451MOL0     H62191   6.549   2.438   5.896  0.5697  1.2544  1.7014
  451MOL0     H62192   6.720   2.661   5.804  0.0536 -1.2801 -0.3564
  451MOL0     H62193   6.688   2.665   5.979 -0.5134 -0.6181 -0.0462
  451MOL0     H62194   6.819   2.480   6.025 -2.9761  1.6248  1.1922
  451MOL0     H62195   6.767   2.402   5.879  2.5003 -0.6879  0.5908
  451MOL0     H62196   6.867   2.337   5.700  1.6270  1.8726  4.4748
  451MOL0     H62197   6.809   2.332   5.344 -0.3587  1.7361  0.2714
  451MOL0     H62198   6.778   2.256   5.499 -1.3471 -0.0018 -2.1828
  451MOL0     H62199   6.930   2.213   5.425 -0.6943 -1.7628  2.5243
  451MOL0     H62200   7.328   2.633   5.122  0.5674 -2.8696  1.3203
  451MOL0     H62201   7.360   2.610   4.876  0.1217  0.3178  0.0167
  451MOL0     H62202   7.022   2.461   4.634 -2.9576  1.5175 -2.8090
  451MOL0     H62203   7.004   2.630   4.614  0.3115 -0.0893 -1.0409
  451MOL0     H62204   7.008   2.515   4.394 -0.9571  1.8224 -0.7080
  451MOL0     H62205   7.150   2.620   4.392  0.9721 -0.9813  1.2916
  451MOL0     H62206   7.155   2.371   4.320 -4.6956  1.1579  0.2722
  451MOL0     H62207   7.174   2.347   4.498  3.1085  3.0520  1.9305
  451MOL0     H62208   7.377   2.494   4.496 -0.5217 -3.0576  2.6947
  451MOL0     H62209   7.353   2.509   4.322  0.5701  0.0006 -0.2483
  451MOL0     H62210   7.400   2.252   4.311 -1.0528  0.4351  0.3068
  451MOL0     H62211   7.535   2.360   4.340  0.7485 -0.2169  1.1080
  451MOL0     H62212   7.386   2.203   4.555 -2.5828  1.4516 -1.8353
  451MOL0     H62213   7.530   2.312   4.582 -1.4562  1.4244 -0.5951
  451MOL0     H62214   7.669   2.184   4.447  0.6131 -1.0553 -1.5012
  451MOL0     H62215   7.553   2.110   4.352  0.1419  2.0579 -0.4594
  451MOL0     H62216   7.601   2.063   4.650  0.9723  0.0452  0.3919
  451MOL0     H62217   7.690   1.965   4.523  0.2156 -0.5855  0.9520
  451MOL0     H62218   6.938   2.627   4.799  0.7092 -2.0881 -0.0027
  451MOL0     H62219   6.909   2.619   5.047  0.3572  2.7843  1.1600
  451MOL0     H62220   7.046   2.723   5.454  0.5485  0.5336  0.4582
  451MOL0     H62221   7.006   2.729   5.704  2.1811  0.5924  0.9347
  451MOL0     H62222   6.068   3.405   5.865 -1.0771 -0.4767 -0.4221
  451MOL0     H62223   6.239   3.593   5.897  0.9644  1.7478 -1.5461
  451MOL0     H62224   6.503   3.853   5.888  3.5680  2.2395  3.6997
  451MOL0     H62225   6.687   3.999   5.951 -0.6702 -2.9385  0.9123
  451MOL0     H62226   6.879   4.115   5.979  0.9199  0.6644  0.9577
  451MOL0     H62227   6.949   4.010   5.860  3.2916  1.1656 -0.4263
  451MOL0     H62228   7.039   4.301   5.880  2.5255  1.1763  1.9692
  451MOL0     H62229   7.093   4.166   5.779 -1.9708 -3.5299 -0.6582
  451MOL0     H62230   7.089   4.165   6.085  0.5859  1.9527  0.6112
  451MOL0     H62231   7.157   4.046   5.990  0.0021  0.2241  1.8830
  451MOL0     H62232   7.264   4.342   5.988 -0.0438 -0.0794  1.0480
  451MOL0     H62233   7.300   4.232   5.864 -0.3637 -0.1522  0.0793
  451MOL0     H62234   7.536   4.146   6.212 -0.9821 -1.6673  0.3839
  451MOL0     H62235   6.745   4.127   5.547 -0.9399  0.2960 -0.1687
  451MOL0     H62236   6.458   4.020   5.418 -1.8410 -2.8199  2.1680
  451MOL0     H62237   6.630   4.010   5.381 -2.7032  0.8282 -3.8545
  451MOL0     H62238   6.535   3.863   5.426  0.6039  0.7997 -0.3700
  452MOL0     O62239   1.939  10.931   3.080  0.7553 -0.7813  0.1464
  452MOL0     C62240   1.884  11.045   3.083  0.2680 -0.7494 -0.1230
  452MOL0     O62241   1.768  11.084   3.010 -1.5930 -0.3889  0.3209
  452MOL0     C62242   1.671  10.994   2.966 -1.0419  0.1229 -0.0711
  452MOL0     C62243   1.644  10.867   3.024  0.3150  0.9111 -0.1335
  452MOL0     C62244   1.537  10.782   2.980  0.6459 -1.1463  0.8995
  452MOL0     C62245   1.464  10.833   2.871  0.7825 -0.1527  1.0025
  452MOL0     O62246   1.366  10.745   2.830  0.3655  0.2322 -0.9343
  452MOL0     C62247   1.261  10.764   2.728  0.6929  1.7364 -0.3135
  452MOL0     C62248   1.151  10.653   2.748  0.3734 -0.1506  0.1628
  452MOL0     C62249   1.012  10.706   2.702 -0.5620 -0.5418  0.1354
  452MOL0     C62250   1.002  10.709   2.546  0.3303  0.3076 -0.4556
  452MOL0     C62251   0.885  10.800   2.501 -0.9819 -0.2422 -0.0050
  452MOL0     C62252   0.754  10.750   2.533  0.2524  0.2309 -0.5512
  452MOL0     C62253   0.652  10.849   2.517  0.4553 -0.3553  0.7869
  452MOL0     C62254   0.523  10.825   2.597 -0.0914  0.2752 -0.8493
  452MOL0     N62255   0.433  10.730   2.536  0.0261  0.2859 -0.1877
  452MOL0     C62256   0.309  10.766   2.503  0.7981 -0.0998  0.1492
  452MOL0     C62257   0.254  10.649   2.460  0.8391  0.2293 -0.2880
  452MOL0     C62258   0.107  10.622   2.407 -0.3831  0.2116  0.0744
  452MOL0     C62259   0.002  10.605   2.517 -0.2596  0.4377 -0.0177
  452MOL0     C62260   0.039  10.527   2.645 -0.6368 -0.1554 -0.3490
  452MOL0     C62261  -0.048  10.538   2.769  0.0901  0.5674  1.0948
  452MOL0     O62262  -0.036  10.659   2.837 -0.5084  0.1510 -0.3745
  452MOL0     C62263  -0.082  10.660   2.971  0.3710 -0.7718 -0.8006
  452MOL0     C62264  -0.164  10.563   3.031 -0.6018  0.4283 -0.7758
  452MOL0     C62265  -0.215  10.578   3.164 -0.7772  0.5487  0.0867
  452MOL0     C62266  -0.287  10.461   3.205  1.0837 -1.4027  0.4888
  452MOL0     C62267  -0.184  10.700   3.241  0.6444  0.3025 -0.4670
  452MOL0     C62268  -0.239  10.723   3.378 -0.4714 -0.3050 -1.2212
  452MOL0     O62269  -0.373  10.683   3.402 -1.0623  0.1071 -0.4986
  452MOL0     C62270  -0.426  10.705   3.523 -0.6980  1.0333  0.5251
  452MOL0     C62271  -0.432  10.828   3.576 -0.8667  0.6799  0.1958
  452MOL0     C62272  -0.496  10.856   3.696  0.5831  0.2232  0.0703
  452MOL0     C62273  -0.567  10.757   3.759 -0.5917 -0.2152  0.1700
  452MOL0     O62274  -0.609  10.799   3.885  1.2606  0.2700  0.0276
  452MOL0     C62275  -0.654  10.700   3.971  0.9653  0.3635 -0.1879
  452MOL0     C62276  -0.643  10.738   4.114  0.7083  0.1173 -0.2280
  452MOL0     C62277  -0.638  10.631   4.218  0.3834 -0.7175 -0.9825
  452MOL0     C62278  -0.778  10.596   4.268  0.4014 -0.8090 -0.0007
  452MOL0     C62279  -0.799  10.476   4.364 -0.0936  0.6303 -1.1388
  452MOL0     C62280  -0.715  10.479   4.489 -0.3289 -0.2791 -0.1042
  452MOL0     C62281  -0.755  10.612   4.566 -0.7183 -0.1688 -0.7762
  452MOL0     C62282  -0.641  10.651   4.666 -0.0862  0.5930  0.6963
  452MOL0    Cl62283  -0.644  10.552   4.810  0.3535  0.8510  0.5631
  452MOL0     C62284  -0.571  10.629   3.695 -0.0915 -0.3282  0.9111
  452MOL0     C62285  -0.501  10.599   3.574  0.5373 -0.2898 -1.1871
  452MOL0     O62286  -0.160  10.790   3.455  0.3466 -0.0297  0.1898
  452MOL0     C62287  -0.101  10.794   3.171 -0.4025  0.0101 -0.2943
  452MOL0     C62288  -0.059  10.777   3.041 -1.0088  0.3570 -1.1653
  452MOL0     N62289   0.345  10.545   2.459  0.9721  0.4977  0.1061
  452MOL0     N62290   0.452  10.598   2.508 -0.1896  0.4182  0.2416
  452MOL0     C62291   1.493  10.952   2.805 -0.0851  0.1859  0.0231
  452MOL0     C62292   1.595  11.038   2.847 -0.9993 -0.6954 -0.3760
  452MOL0     C62293   1.952  11.135   3.173  0.5054 -0.4288  0.1902
  452MOL0     C62294   1.870  11.214   3.259 -1.5699  0.1282  0.1761
  452MOL0     C62295   1.935  11.288   3.357  0.0450 -0.2179  0.0001
  452MOL0     C62296   2.068  11.308   3.366 -0.7917  0.2880  0.7773
  452MOL0     O62297   2.114  11.385   3.463  0.0886 -0.0775 -0.1508
  452MOL0     C62298   2.108  11.330   3.594 -0.4356 -0.0375  0.3857
  452MOL0     C62299   2.133  11.448   3.699 -0.3824  0.2725 -0.2663
  452MOL0     C62300   2.112  11.399   3.843 -0.5833 -0.4418  0.1942
  452MOL0     C62301   2.097  11.515   3.944  0.3837 -0.3198 -0.4452
  452MOL0     C62302   2.209  11.612   3.967  0.2715  0.2843 -0.0556
  452MOL0     C62303   2.304  11.683   3.994 -0.8508 -0.5393  0.4991
  452MOL0     C62304   2.144  11.247   3.276  0.4124  0.3906  0.1716
  452MOL0     C62305   2.088  11.166   3.174 -0.4081  1.0660  0.7314
  452MOL0     C62306   2.193  11.133   3.061  0.1392 -1.0420 -0.7656
  452MOL0     H62307   1.692  10.841   3.118  1.5513  1.0582 -0.6999
  452MOL0     H62308   1.518  10.685   3.023  1.5647 -1.4356  0.6781
  452MOL0     H62309   1.291  10.743   2.625  0.6693 -1.9702  0.3225
  452MOL0     H62310   1.235  10.869   2.744  0.8424  1.2624  4.6532
  452MOL0     H62311   1.183  10.568   2.687  0.2890  1.4835 -2.2873
  452MOL0     H62312   1.148  10.615   2.850  3.8044 -0.2824  0.3514
  452MOL0     H62313   0.930  10.644   2.740 -2.0402  0.8736 -0.6410
  452MOL0     H62314   1.008  10.807   2.743  2.2898 -0.4290  0.3842
  452MOL0     H62315   1.095  10.746   2.501 -0.0245  0.7053 -0.8658
  452MOL0     H62316   0.980  10.606   2.518  0.0460 -0.8217  3.4237
  452MOL0     H62317   0.908  10.811   2.395  2.6826 -2.7567  0.3513
  452MOL0     H62318   0.914  10.894   2.550  0.5346  0.7996 -2.6816
  452MOL0     H62319   0.734  10.669   2.462  1.9827 -0.6325 -0.1022
  452MOL0     H62320   0.754  10.722   2.639  1.0641 -2.0406 -1.0751
  452MOL0     H62321   0.625  10.859   2.411 -2.6477 -2.9938  1.1472
  452MOL0     H62322   0.695  10.940   2.557 -1.6187 -0.1827  2.8293
  452MOL0     H62323   0.553  10.784   2.693 -1.9289  1.2186  0.1856
  452MOL0     H62324   0.468  10.920   2.600  1.1060  1.0092 -1.0951
  452MOL0     H62325   0.266  10.865   2.511 -3.5976 -1.8239  0.7668
  452MOL0     H62326   0.098  10.535   2.342 -6.5594 -1.0501  1.9864
  452MOL0     H62327   0.080  10.710   2.348 -2.4071  0.5441  1.3998
  452MOL0     H62328  -0.033  10.702   2.552 -1.3469 -0.3358  1.0968
  452MOL0     H62329  -0.073  10.547   2.462 -0.3072 -0.1491  0.6451
  452MOL0     H62330   0.036  10.420   2.625  0.1408 -0.4309  0.9306
  452MOL0     H62331   0.144  10.549   2.670  0.7387 -3.3631 -2.6659
  452MOL0     H62332  -0.154  10.524   2.746  0.0130  0.0316  1.7398
  452MOL0     H62333  -0.029  10.459   2.843 -1.5292  2.2080  3.3931
  452MOL0     H62334  -0.164  10.468   2.979  0.3667 -1.0775  1.7772
  452MOL0     H62335  -0.391  10.489   3.184 -0.0625  0.0296  6.2701
  452MOL0     H62336  -0.279  10.442   3.313  0.7788 -2.4787  0.3305
  452MOL0     H62337  -0.259  10.369   3.153  1.5006 -2.3562  2.3104
  452MOL0     H62338  -0.390  10.911   3.519 -0.3048  1.4998  1.7443
  452MOL0     H62339  -0.496  10.961   3.723  1.3575  0.4517 -0.7768
  452MOL0     H62340  -0.761  10.688   3.953  0.9732  0.1321 -0.0846
  452MOL0     H62341  -0.602  10.605   3.959  0.1705 -0.0868 -0.1981
  452MOL0     H62342  -0.546  10.787   4.121  2.8590 -2.9264 -4.4191
  452MOL0     H62343  -0.718  10.816   4.132  1.4763  0.5289  1.2738
  452MOL0     H62344  -0.580  10.669   4.302 -1.4625 -2.2373  1.1006
  452MOL0     H62345  -0.589  10.538   4.187 -0.4583 -2.1873  1.7677
  452MOL0     H62346  -0.838  10.570   4.181 -0.7470  1.3491  0.0759
  452MOL0     H62347  -0.821  10.691   4.303  3.1490  0.1417  1.0606
  452MOL0     H62348  -0.903  10.477   4.398  0.2166  2.3222 -0.1701
  452MOL0     H62349  -0.769  10.386   4.310  3.2909  1.7779 -1.3906
  452MOL0     H62350  -0.612  10.485   4.453 -0.2786  2.7554  0.3121
  452MOL0     H62351  -0.733  10.384   4.541  0.3441 -2.0687 -2.8755
  452MOL0     H62352  -0.855  10.619   4.608 -0.3205 -0.6574  0.2926
  452MOL0     H62353  -0.745  10.701   4.503  0.1243  1.4264  1.4791
  452MOL0     H62354  -0.645  10.756   4.696  2.0183  0.9757 -0.1695
  452MOL0     H62355  -0.549  10.655   4.607 -1.1534  2.1178 -0.9712
  452MOL0     H62356  -0.630  10.544   3.729 -2.1473  0.3090 -0.8088
  452MOL0     H62357  -0.508  10.505   3.521 -1.5610  0.5191 -2.4480
  452MOL0     H62358  -0.078  10.884   3.226  1.7481  0.2063 -1.3994
  452MOL0     H62359  -0.002  10.849   2.984  0.2908  0.1461 -0.1837
  452MOL0     H62360   1.447  10.982   2.711 -0.0791 -2.0146 -0.7339
  452MOL0     H62361   1.618  11.128   2.791  0.7006  0.3328  1.8175
  452MOL0     H62362   1.765  11.209   3.233 -0.7971 -0.7627 -3.2089
  452MOL0     H62363   1.875  11.342   3.430 -0.3903  0.8531 -1.1171
  452MOL0     H62364   2.006  11.292   3.606 -1.1992  2.0209  0.9293
  452MOL0     H62365   2.188  11.257   3.606  1.2696  1.8581  1.3159
  452MOL0     H62366   2.067  11.532   3.676  3.2678  3.6706  0.6571
  452MOL0     H62367   2.236  11.481   3.681 -0.2758 -0.1032 -0.3480
  452MOL0     H62368   2.018  11.343   3.856  0.3635 -1.8333  1.3376
  452MOL0     H62369   2.196  11.336   3.874 -1.5398 -0.0724  3.9990
  452MOL0     H62370   2.074  11.473   4.043  1.4262  0.1560  0.0156
  452MOL0     H62371   2.006  11.568   3.918  0.3493  0.3739  1.0043
  452MOL0     H62372   2.380  11.748   4.031 -2.8982  1.7595  1.0060
  452MOL0     H62373   2.250  11.271   3.275 -0.2740  4.1253 -1.5953
  452MOL0     H62374   2.261  11.060   3.107 -1.4786 -0.7993  2.2383
  452MOL0     H62375   2.154  11.094   2.966 -1.2409 -1.4410 -0.0600
  452MOL0     H62376   2.254  11.222   3.044  0.9755 -1.1441  1.3345
  453MOL0     O62377   5.897   0.351  10.313 -0.4651  0.4325  0.7498
  453MOL0     C62378   6.006   0.347  10.369  0.2645 -0.4681 -0.3017
  453MOL0     O62379   6.124   0.308  10.320 -0.6399 -0.3450  0.5753
  453MOL0     C62380   6.141   0.220  10.208 -0.2354  0.0066 -0.4154
  453MOL0     C62381   6.031   0.147  10.146 -0.9028  0.4466  0.2658
  453MOL0     C62382   6.062   0.078  10.034 -0.2413 -0.2448  0.4546
  453MOL0     C62383   6.188   0.074   9.977  0.6410  0.4640 -0.3633
  453MOL0     O62384   6.212   0.006   9.857 -0.4720  1.1185 -0.6068
  453MOL0     C62385   6.261  -0.127   9.874 -1.2207 -0.0537  0.0457
  453MOL0     C62386   6.145  -0.234   9.886  0.7994 -0.5774  0.1520
  453MOL0     C62387   6.196  -0.376   9.848 -1.4031 -0.6643 -0.4656
  453MOL0     C62388   6.077  -0.483   9.833 -1.1267 -0.7904  1.5435
  453MOL0     C62389   6.133  -0.620   9.824 -0.2883 -1.4014  0.4160
  453MOL0     C62390   6.214  -0.662   9.700  0.2758 -0.5313  0.4883
  453MOL0     C62391   6.329  -0.761   9.717  0.5098 -0.0465  0.5159
  453MOL0     C62392   6.445  -0.721   9.810  0.0009 -0.1332 -0.1469
  453MOL0     N62393   6.521  -0.847   9.833 -0.2880  0.2010 -0.4523
  453MOL0     C62394   6.576  -0.923   9.731  0.1794  0.0743 -0.1714
  453MOL0     C62395   6.665  -0.999   9.794  1.4017  0.5568 -0.0622
  453MOL0     C62396   6.758  -1.097   9.735 -0.1920  0.3185 -0.7623
  453MOL0     C62397   6.689  -1.232   9.714  0.1293  0.0331  0.0157
  453MOL0     C62398   6.585  -1.284   9.823 -1.0747 -0.1988 -0.0392
  453MOL0     C62399   6.650  -1.295   9.959 -0.2958  0.6204 -0.8251
  453MOL0     O62400   6.683  -1.446   9.971  0.2233 -0.1641 -1.0708
  453MOL0     C62401   6.813  -1.496   9.993 -0.6945 -0.0032  0.0229
  453MOL0     C62402   6.926  -1.415  10.021  0.1143 -0.0993  0.4625
  453MOL0     C62403   7.060  -1.478  10.043  0.2652  0.5623  0.2745
  453MOL0     C62404   7.186  -1.400  10.069  0.4004  0.1660  0.2346
  453MOL0     C62405   7.076  -1.617  10.033 -0.0071  0.7957 -0.2831
  453MOL0     C62406   7.203  -1.696  10.043 -0.4323 -0.5847 -0.0331
  453MOL0     O62407   7.208  -1.801   9.959  0.0333 -0.1245  0.6607
  453MOL0     C62408   7.309  -1.894   9.949 -0.2900 -0.5301 -0.7873
  453MOL0     C62409   7.278  -2.017   9.896 -0.6669  0.6099  1.2066
  453MOL0     C62410   7.375  -2.117   9.873 -0.6834 -0.0800  0.0646
  453MOL0     C62411   7.508  -2.093   9.914  0.0832  0.0750  0.0681
  453MOL0     O62412   7.597  -2.185   9.885  0.5186 -0.6885  0.6003
  453MOL0     C62413   7.696  -2.217   9.986  1.1762 -0.2544  0.3611
  453MOL0     C62414   7.844  -2.231   9.946 -0.1047 -0.3151 -0.5597
  453MOL0     C62415   7.937  -2.240  10.064  0.5433 -0.2384 -0.5666
  453MOL0     C62416   7.970  -2.108  10.137  0.1129 -0.2727 -0.4312
  453MOL0     C62417   8.111  -2.116  10.194 -0.3300  0.2586  0.1195
  453MOL0     C62418   8.223  -2.045  10.108 -0.4732 -0.0036 -0.7478
  453MOL0     C62419   8.363  -2.088  10.149  0.5825 -0.0886  0.0308
  453MOL0     C62420   8.457  -2.037  10.043 -0.9514 -0.7817  0.1218
  453MOL0    Cl62421   8.460  -2.134   9.887  0.5969 -0.2690  0.0868
  453MOL0     C62422   7.539  -1.973   9.972 -0.0852  0.1281 -0.4015
  453MOL0     C62423   7.445  -1.877   9.987  0.3503 -0.0962 -0.8676
  453MOL0     O62424   7.272  -1.679  10.145 -0.1737  0.9554  0.3954
  453MOL0     C62425   6.959  -1.697  10.015  0.1395  0.0268  0.6211
  453MOL0     C62426   6.828  -1.634   9.990 -0.1308  0.3583 -0.7333
  453MOL0     N62427   6.663  -0.966   9.931  0.4180  0.4813 -0.1238
  453MOL0     N62428   6.572  -0.877   9.958  0.7360 -0.2122 -0.3298
  453MOL0     C62429   6.291   0.139  10.038 -0.6483  0.1003 -0.1509
  453MOL0     C62430   6.270   0.223  10.145  0.3470  0.6679 -0.3105
  453MOL0     C62431   6.008   0.403  10.501  1.3781  0.0215  0.0776
  453MOL0     C62432   5.891   0.388  10.589  0.2512 -0.7906 -0.5338
  453MOL0     C62433   5.883   0.438  10.717 -0.9875 -0.5045  0.1708
  453MOL0     C62434   5.991   0.504  10.768  0.0296 -0.2772 -0.6851
  453MOL0     O62435   6.001   0.549  10.899 -0.3194 -0.0985 -0.3906
  453MOL0     C62436   6.039   0.446  10.992  0.4407  0.2958  0.7856
  453MOL0     C62437   6.061   0.512  11.125 -1.0771 -0.5274  0.4768
  453MOL0     C62438   6.212   0.551  11.156 -0.2519  0.7439  0.7372
  453MOL0     C62439   6.238   0.625  11.286  0.5206  0.3532  0.2924
  453MOL0     C62440   6.191   0.559  11.405  0.1047 -0.1086 -0.7571
  453MOL0     C62441   6.171   0.482  11.493 -0.6042  0.0124 -0.4510
  453MOL0     C62442   6.098   0.532  10.683 -0.5740 -0.2084 -0.1763
  453MOL0     C62443   6.110   0.489  10.555 -0.4023 -0.5578  0.8026
  453MOL0     C62444   6.236   0.550  10.485 -0.0567  0.7569  0.5930
  453MOL0     H62445   5.928   0.139  10.179 -0.6581 -0.8640  0.7802
  453MOL0     H62446   5.987   0.014   9.989  1.0173 -2.6483  1.6028
  453MOL0     H62447   6.318  -0.133   9.968 -0.9829  2.7059  0.1563
  453MOL0     H62448   6.322  -0.145   9.785  0.6122  4.6381  0.0553
  453MOL0     H62449   6.121  -0.230   9.993 -0.3432 -0.6870 -0.0912
  453MOL0     H62450   6.060  -0.215   9.819 -1.0966  0.7708  2.7507
  453MOL0     H62451   6.263  -0.381   9.762  2.0663 -1.1995  2.0414
  453MOL0     H62452   6.268  -0.416   9.920  1.0140 -1.1351 -2.9641
  453MOL0     H62453   6.002  -0.488   9.913  0.4050 -0.1994  3.0951
  453MOL0     H62454   6.027  -0.451   9.742  0.1311 -0.1270  1.0541
  453MOL0     H62455   6.048  -0.687   9.841 -1.6193  0.2538  0.5793
  453MOL0     H62456   6.196  -0.630   9.913  0.4053  3.0249  0.6292
  453MOL0     H62457   6.158  -0.700   9.613 -0.6123  0.5033  0.5943
  453MOL0     H62458   6.264  -0.570   9.668 -0.8688 -0.1523 -0.3111
  453MOL0     H62459   6.379  -0.790   9.625  1.9165  0.6500  1.0259
  453MOL0     H62460   6.287  -0.846   9.772  1.0978  0.2182  1.4136
  453MOL0     H62461   6.506  -0.636   9.779  1.9632 -0.6799  1.9239
  453MOL0     H62462   6.399  -0.683   9.902 -1.6133 -1.2386 -0.4542
  453MOL0     H62463   6.558  -0.924   9.624 -1.3270  0.2694  0.0594
  453MOL0     H62464   6.843  -1.120   9.799 -0.9849  4.1218  1.9879
  453MOL0     H62465   6.804  -1.060   9.643  4.9955  0.9399  1.7248
  453MOL0     H62466   6.644  -1.227   9.614  2.2943  0.4572 -0.9876
  453MOL0     H62467   6.773  -1.303   9.717  0.9359  0.7900 -2.1725
  453MOL0     H62468   6.511  -1.204   9.827  2.3325  3.3583 -1.2518
  453MOL0     H62469   6.535  -1.379   9.803 -0.8302 -0.3735  0.1760
  453MOL0     H62470   6.730  -1.226   9.986 -0.4310  1.0552 -1.4922
  453MOL0     H62471   6.575  -1.268  10.034  1.6752  2.0540  0.7565
  453MOL0     H62472   6.925  -1.308  10.041 -0.1063 -0.1900  0.9553
  453MOL0     H62473   7.273  -1.446  10.023 -0.1220  1.7066 -2.5199
  453MOL0     H62474   7.232  -1.406  10.168  0.9804 -2.5947 -0.1258
  453MOL0     H62475   7.173  -1.299  10.028  4.9976  1.0905  0.5525
  453MOL0     H62476   7.183  -2.039   9.849  0.6449 -0.1248 -1.3108
  453MOL0     H62477   7.338  -2.207   9.825 -0.6110  0.0512 -0.2451
  453MOL0     H62478   7.676  -2.160  10.077 -1.3177  1.3475 -1.0736
  453MOL0     H62479   7.684  -2.325  10.003  2.7031 -1.5915 -5.0895
  453MOL0     H62480   7.858  -2.322   9.887 -0.1385 -0.0296 -1.0165
  453MOL0     H62481   7.883  -2.150   9.883  0.3974 -0.7265 -0.7853
  453MOL0     H62482   8.022  -2.288  10.016 -0.5446 -1.4535 -1.3550
  453MOL0     H62483   7.909  -2.309  10.144  0.5961  0.3419 -0.0349
  453MOL0     H62484   7.896  -2.102  10.217 -1.1660  2.9646 -1.7209
  453MOL0     H62485   7.965  -2.022  10.069  1.1752  0.1197 -0.0325
  453MOL0     H62486   8.100  -2.081  10.297 -1.1573 -2.1449  0.9129
  453MOL0     H62487   8.140  -2.221  10.205 -1.6082 -0.2873 -1.3481
  453MOL0     H62488   8.204  -1.938  10.120 -0.3461  0.1375 -1.7400
  453MOL0     H62489   8.210  -2.067  10.002 -1.3472  0.7111 -0.7995
  453MOL0     H62490   8.372  -2.197  10.156  0.4743 -0.2107 -1.4490
  453MOL0     H62491   8.398  -2.044  10.243  1.1905 -0.3096 -0.0883
  453MOL0     H62492   8.560  -2.029  10.079  1.4075 -0.5784 -5.6784
  453MOL0     H62493   8.425  -1.936  10.018 -0.4721  0.4235  3.7668
  453MOL0     H62494   7.639  -1.937   9.994 -0.9259  0.6058  3.3234
  453MOL0     H62495   7.475  -1.777  10.019  1.3886 -0.4557 -0.6710
  453MOL0     H62496   6.956  -1.804  10.029 -2.9236  0.1444  1.4962
  453MOL0     H62497   6.737  -1.693   9.986 -1.0371  1.4980  1.1878
  453MOL0     H62498   6.392   0.138   9.999 -0.6812 -2.3320 -0.2838
  453MOL0     H62499   6.351   0.289  10.174  2.1342 -0.3260 -2.7082
  453MOL0     H62500   5.802   0.349  10.540  1.1698 -3.4527 -0.2303
  453MOL0     H62501   5.789   0.440  10.771 -1.8626  1.0801 -1.3109
  453MOL0     H62502   5.943   0.393  11.000  1.5718 -2.2439 -1.1408
  453MOL0     H62503   6.114   0.375  10.958  0.4053  2.1227 -3.8144
  453MOL0     H62504   6.023   0.440  11.198 -0.8083  0.7787  1.9735
  453MOL0     H62505   5.990   0.595  11.130  0.8748  1.3355 -0.9358
  453MOL0     H62506   6.267   0.456  11.152  0.1985  0.7956  3.5005
  453MOL0     H62507   6.249   0.608  11.071  1.8921 -2.9940 -1.0871
  453MOL0     H62508   6.179   0.718  11.284 -0.8861 -0.5088 -0.0157
  453MOL0     H62509   6.342   0.658  11.293  0.9581 -1.0580  0.7031
  453MOL0     H62510   6.141   0.408  11.564  0.7528  1.5044  1.7806
  453MOL0     H62511   6.183   0.582  10.730 -2.3485  0.0953  2.9839
  453MOL0     H62512   6.319   0.490  10.524 -1.4585 -1.5157  0.2448
  453MOL0     H62513   6.209   0.542  10.379  1.4813  2.4756  0.0143
  453MOL0     H62514   6.253   0.657  10.499 -0.7105  0.8637  0.6268
  454MOL0     O62515   3.774   8.294   7.680  1.4068 -0.1185  0.4286
  454MOL0     C62516   3.716   8.392   7.623 -0.2199 -0.2153  0.1654
  454MOL0     O62517   3.721   8.427   7.494 -0.6762  0.5689 -0.7345
  454MOL0     C62518   3.770   8.347   7.390 -0.3021 -0.3909  0.5402
  454MOL0     C62519   3.830   8.416   7.279 -0.0205 -0.6688 -0.3241
  454MOL0     C62520   3.877   8.353   7.166  0.9201  0.0436 -0.8284
  454MOL0     C62521   3.896   8.215   7.176  0.1389  0.3229 -0.0162
  454MOL0     O62522   3.963   8.158   7.075  0.0217 -0.1250 -0.2380
  454MOL0     C62523   4.033   8.032   7.081  0.1157 -0.0255 -0.5662
  454MOL0     C62524   4.156   8.031   6.987 -0.3761  0.6124 -0.6992
  454MOL0     C62525   4.243   8.151   7.026  0.2347  0.1231  0.2854
  454MOL0     C62526   4.267   8.231   6.894  0.3178 -0.5117 -0.1559
  454MOL0     C62527   4.367   8.350   6.908 -0.0758  0.7588  0.4699
  454MOL0     C62528   4.340   8.443   7.020  0.0395 -0.2128  0.3525
  454MOL0     C62529   4.202   8.514   6.996  0.5811  0.0041 -0.1131
  454MOL0     C62530   4.199   8.649   7.076 -0.0312 -0.4207 -0.4775
  454MOL0     N62531   4.072   8.720   7.051 -0.7368  0.5074  0.4652
  454MOL0     C62532   4.052   8.811   6.950  0.6682 -0.8060 -0.7131
  454MOL0     C62533   3.915   8.821   6.935  0.6572 -0.3516  0.3824
  454MOL0     C62534   3.825   8.894   6.829 -1.0638  0.0574 -1.0023
  454MOL0     C62535   3.802   9.031   6.890  0.4148  1.4450  0.3843
  454MOL0     C62536   3.706   9.119   6.812  0.2403  0.5861  0.4714
  454MOL0     C62537   3.744   9.161   6.670  0.8494 -1.5582  0.9742
  454MOL0     O62538   3.773   9.055   6.576 -0.6389 -0.6117  0.5036
  454MOL0     C62539   3.661   8.976   6.546  0.5115  0.4624  0.5316
  454MOL0     C62540   3.687   8.843   6.501  0.2266  0.0513 -0.7476
  454MOL0     C62541   3.582   8.755   6.471 -0.5493 -0.3136  0.5501
  454MOL0     C62542   3.622   8.614   6.432 -0.6781 -0.8410  1.0278
  454MOL0     C62543   3.454   8.803   6.493  1.5690  0.0243 -0.2118
  454MOL0     C62544   3.333   8.721   6.460  0.2187  0.3644  0.2139
  454MOL0     O62545   3.211   8.787   6.456 -1.3293  0.3774 -0.6568
  454MOL0     C62546   3.102   8.710   6.472 -0.4860  0.6992  0.6048
  454MOL0     C62547   3.042   8.664   6.356  0.3697  1.1238  0.1580
  454MOL0     C62548   2.921   8.595   6.365 -0.2349 -0.7482  0.5293
  454MOL0     C62549   2.866   8.557   6.485 -0.8726  0.0780  0.0065
  454MOL0     O62550   2.761   8.469   6.480 -0.3745  0.1231 -0.1487
  454MOL0     C62551   2.633   8.499   6.546  0.2761 -0.2780 -0.3540
  454MOL0     C62552   2.516   8.420   6.496  0.3442  0.1719  0.5666
  454MOL0     C62553   2.550   8.320   6.374 -0.2733  0.6893 -0.5312
  454MOL0     C62554   2.428   8.240   6.337  0.7779 -1.0377  0.1666
  454MOL0     C62555   2.320   8.325   6.265 -0.5137  1.2763 -0.1957
  454MOL0     C62556   2.332   8.302   6.111 -0.8317  0.4328 -0.1026
  454MOL0     C62557   2.209   8.339   6.038  0.9173 -0.4000 -0.4244
  454MOL0     C62558   2.168   8.491   6.056  0.5954  0.9391  0.3207
  454MOL0    Cl62559   2.006   8.513   6.018 -0.2741  0.6535 -0.5171
  454MOL0     C62560   2.928   8.605   6.599  0.0268 -0.0864  0.1430
  454MOL0     C62561   3.047   8.676   6.596 -0.6433 -0.3188  0.0525
  454MOL0     O62562   3.347   8.596   6.453 -0.4391 -0.3490 -0.2173
  454MOL0     C62563   3.424   8.935   6.531 -0.2322 -0.1507 -0.3078
  454MOL0     C62564   3.526   9.020   6.559  0.1901 -0.5707 -0.1675
  454MOL0     N62565   3.857   8.737   7.031 -0.2967 -0.2985 -0.5087
  454MOL0     N62566   3.948   8.680   7.106  0.3158 -0.2912  0.2698
  454MOL0     C62567   3.845   8.144   7.284  0.4888  0.2734 -0.1746
  454MOL0     C62568   3.783   8.206   7.391  0.9153 -0.2741  0.6617
  454MOL0     C62569   3.632   8.485   7.710  0.3180  0.4252 -0.5550
  454MOL0     C62570   3.623   8.458   7.848  0.2193  0.7772 -0.6711
  454MOL0     C62571   3.538   8.531   7.938 -0.9621 -0.0078  0.1530
  454MOL0     C62572   3.466   8.633   7.887  1.0950 -0.0175 -0.0239
  454MOL0     O62573   3.391   8.707   7.976 -0.4037  0.3220 -0.3811
  454MOL0     C62574   3.451   8.809   8.047  0.1500 -0.5460 -0.9185
  454MOL0     C62575   3.592   8.801   8.098 -0.1575  0.2746  1.0770
  454MOL0     C62576   3.632   8.933   8.181  0.2739  0.8147 -0.2410
  454MOL0     C62577   3.780   8.952   8.223 -0.5019 -0.0806 -0.0221
  454MOL0     C62578   3.867   9.015   8.109  0.4244  1.0747  0.1765
  454MOL0     C62579   3.935   9.077   8.027 -0.5841 -0.5908 -0.1150
  454MOL0     C62580   3.468   8.668   7.754 -0.1884 -0.5044  0.1706
  454MOL0     C62581   3.559   8.595   7.658  0.8137  0.5230  0.7939
  454MOL0     C62582   3.532   8.633   7.509 -0.3181 -0.5012  0.2813
  454MOL0     H62583   3.854   8.521   7.292 -1.0593 -0.6648  2.2674
  454MOL0     H62584   3.914   8.407   7.080  0.5922  0.3219 -0.7958
  454MOL0     H62585   3.972   7.951   7.042 -2.2768  1.3791  0.0696
  454MOL0     H62586   4.074   8.007   7.180  1.9183 -0.4238 -1.3747
  454MOL0     H62587   4.189   7.927   6.996 -4.2238 -1.0264 -2.8745
  454MOL0     H62588   4.110   8.035   6.887 -1.1592  0.6440 -0.3442
  454MOL0     H62589   4.191   8.215   7.098 -1.7420  3.1343 -3.4853
  454MOL0     H62590   4.336   8.122   7.077 -1.1085 -2.0123  1.6862
  454MOL0     H62591   4.305   8.156   6.824 -0.2823 -0.3490 -0.6696
  454MOL0     H62592   4.170   8.267   6.859  0.0240  0.4576  1.5535
  454MOL0     H62593   4.374   8.403   6.812 -1.8476 -1.6616 -1.1087
  454MOL0     H62594   4.466   8.310   6.930  0.3726  1.7696  0.3544
  454MOL0     H62595   4.342   8.385   7.113  0.8581  0.1902  0.5979
  454MOL0     H62596   4.421   8.517   7.028  0.0849 -0.0700 -1.1838
  454MOL0     H62597   4.122   8.462   7.050 -0.0849  1.3127  0.1792
  454MOL0     H62598   4.161   8.522   6.895 -1.9233  2.4539  0.9862
  454MOL0     H62599   4.215   8.635   7.183 -2.5600 -0.3204 -0.0105
  454MOL0     H62600   4.286   8.705   7.042 -0.3314  0.5773  0.3562
  454MOL0     H62601   4.125   8.864   6.889  1.8573 -1.9700 -0.3346
  454MOL0     H62602   3.733   8.836   6.822 -0.6262 -1.0292  1.3868
  454MOL0     H62603   3.867   8.893   6.727 -0.4387  0.1006 -0.7512
  454MOL0     H62604   3.743   9.016   6.980  0.4175  1.4632  0.3889
  454MOL0     H62605   3.893   9.088   6.908  1.4166  0.3064 -0.8444
  454MOL0     H62606   3.602   9.084   6.807  0.4507 -0.7250  3.3499
  454MOL0     H62607   3.711   9.213   6.869 -1.3013 -0.9029  3.3057
  454MOL0     H62608   3.666   9.233   6.642 -0.4710 -1.0581  5.3287
  454MOL0     H62609   3.836   9.221   6.675 -1.1840  2.0463 -0.4916
  454MOL0     H62610   3.788   8.812   6.526  0.5815  2.4365  1.1309
  454MOL0     H62611   3.730   8.609   6.447 -0.6534  2.0269  2.3036
  454MOL0     H62612   3.595   8.582   6.330 -0.4358 -1.5530  1.1803
  454MOL0     H62613   3.582   8.543   6.505  1.0635 -2.5480  0.3931
  454MOL0     H62614   3.085   8.680   6.257  0.7540 -2.1461 -0.3280
  454MOL0     H62615   2.879   8.540   6.281  0.6152 -3.8446  1.9927
  454MOL0     H62616   2.641   8.491   6.655 -1.0595 -1.0847 -0.3039
  454MOL0     H62617   2.626   8.607   6.529 -0.6191  0.5365  3.9752
  454MOL0     H62618   2.462   8.364   6.573  0.0138 -3.8772 -2.2773
  454MOL0     H62619   2.444   8.494   6.461  0.7914 -1.0106 -3.3064
  454MOL0     H62620   2.633   8.252   6.396 -0.3515  0.8548  0.3327
  454MOL0     H62621   2.595   8.374   6.290  0.4861 -1.3484 -1.4740
  454MOL0     H62622   2.387   8.195   6.428  0.4467  0.1683  0.6281
  454MOL0     H62623   2.455   8.158   6.270 -1.1272 -2.7235  1.3321
  454MOL0     H62624   2.219   8.296   6.297  0.1268 -0.1150  0.6789
  454MOL0     H62625   2.334   8.429   6.297  3.3332  0.1853  2.2907
  454MOL0     H62626   2.350   8.199   6.078  3.4955 -0.3174  3.6690
  454MOL0     H62627   2.424   8.357   6.091  1.0624 -1.6527  2.2387
  454MOL0     H62628   2.127   8.275   6.070 -0.1002  1.6901  1.3470
  454MOL0     H62629   2.212   8.322   5.930 -1.4347 -0.4178 -0.5327
  454MOL0     H62630   2.236   8.547   5.990  0.6613 -0.7599 -1.1268
  454MOL0     H62631   2.186   8.529   6.157  0.3657 -0.6623  0.9960
  454MOL0     H62632   2.883   8.571   6.692 -2.7099 -0.5939 -1.2537
  454MOL0     H62633   3.097   8.701   6.689  0.9298  0.1355 -0.8638
  454MOL0     H62634   3.321   8.963   6.547 -1.3530 -3.8928 -0.1347
  454MOL0     H62635   3.495   9.115   6.601 -0.5489 -2.2517  3.3851
  454MOL0     H62636   3.868   8.038   7.284  0.4268  0.2276 -2.1928
  454MOL0     H62637   3.771   8.148   7.482 -1.4223 -1.4201 -0.3003
  454MOL0     H62638   3.676   8.372   7.887 -0.9379  0.0849 -0.5695
  454MOL0     H62639   3.531   8.514   8.045 -1.4709  0.7592  0.2491
  454MOL0     H62640   3.453   8.890   7.974 -1.3163  1.7654  1.4128
  454MOL0     H62641   3.381   8.839   8.126  0.7147 -0.4688 -0.4369
  454MOL0     H62642   3.653   8.801   8.007  1.2324  0.0526  1.9771
  454MOL0     H62643   3.612   8.712   8.159 -0.4198  1.4535  2.9606
  454MOL0     H62644   3.611   9.025   8.124  0.4965  0.8418 -0.2791
  454MOL0     H62645   3.561   8.949   8.263 -0.7515 -1.5981 -0.5713
  454MOL0     H62646   3.831   8.859   8.248 -0.4134 -0.3346 -1.1042
  454MOL0     H62647   3.791   9.008   8.316 -0.1725 -3.2966  2.0109
  454MOL0     H62648   3.998   9.126   7.956  0.6684 -0.8506  0.7999
  454MOL0     H62649   3.390   8.736   7.720  1.7377  2.9775  2.2446
  454MOL0     H62650   3.616   8.686   7.462  0.4517  0.8120  2.9434
  454MOL0     H62651   3.492   8.551   7.449 -0.5733  1.2095 -2.0070
  454MOL0     H62652   3.438   8.690   7.506 -1.2295 -1.9833 -0.5618
  455MOL0     O62653   3.112   9.801  11.347 -0.5082 -0.0379  0.5133
  455MOL0     C62654   3.126   9.768  11.464 -0.8612  0.9400  0.1779
  455MOL0     O62655   3.036   9.794  11.558 -0.3071 -0.2341 -0.1179
  455MOL0     C62656   2.918   9.862  11.527 -0.7169  0.2145  0.2127
  455MOL0     C62657   2.919   9.998  11.498 -0.4996 -0.6211 -0.5122
  455MOL0     C62658   2.796  10.074  11.492 -0.8566 -0.4621  0.3354
  455MOL0     C62659   2.676  10.011  11.518  0.5959 -0.2294  1.1356
  455MOL0     O62660   2.560  10.081  11.492 -0.2866 -0.9911  0.3585
  455MOL0     C62661   2.441  10.003  11.494 -0.3903 -0.1757  0.0120
  455MOL0     C62662   2.328  10.091  11.449 -0.0433  0.0698 -0.1999
  455MOL0     C62663   2.203   9.996  11.442  0.5083  0.2411 -0.7504
  455MOL0     C62664   2.075  10.069  11.429 -0.1443 -0.1245 -0.8809
  455MOL0     C62665   1.967  10.041  11.536  0.8400  0.7845  0.0727
  455MOL0     C62666   1.839  10.126  11.502 -0.7310  0.7164 -0.1001
  455MOL0     C62667   1.776  10.099  11.362 -0.1614  0.6197  0.2219
  455MOL0     C62668   1.634  10.155  11.363 -0.0342  0.6701 -0.6725
  455MOL0     N62669   1.639  10.295  11.324  0.1807 -0.1886 -0.6646
  455MOL0     C62670   1.623  10.330  11.195 -0.1693 -0.9378  0.7228
  455MOL0     C62671   1.626  10.470  11.210 -0.5952  0.7051  0.7089
  455MOL0     C62672   1.636  10.569  11.099 -0.3544 -0.5824 -0.5906
  455MOL0     C62673   1.782  10.594  11.073 -0.0841 -0.4749  0.5573
  455MOL0     C62674   1.879  10.483  11.048 -0.1657  0.4315 -0.3554
  455MOL0     C62675   2.021  10.538  11.021  0.3463  0.5044  0.2190
  455MOL0     O62676   2.107  10.426  10.991 -0.1865 -0.7609 -0.4953
  455MOL0     C62677   2.227  10.421  11.047  0.7336  0.0610  0.0445
  455MOL0     C62678   2.252  10.444  11.188 -0.1345  0.3051  0.5175
  455MOL0     C62679   2.373  10.419  11.244 -1.1274 -0.2310  0.2325
  455MOL0     C62680   2.399  10.441  11.393 -0.2816 -0.3417  0.3852
  455MOL0     C62681   2.484  10.380  11.157 -0.4808  0.0866 -1.0267
  455MOL0     C62682   2.625  10.351  11.204 -0.1803 -0.1894 -0.9274
  455MOL0     O62683   2.693  10.265  11.123  0.1113 -0.5523  0.2272
  455MOL0     C62684   2.822  10.246  11.142  0.0623  1.3773 -0.4977
  455MOL0     C62685   2.914  10.348  11.114  0.4133 -0.4164 -0.0043
  455MOL0     C62686   3.039  10.317  11.079  0.0037  0.8357  0.3759
  455MOL0     C62687   3.087  10.180  11.077 -1.2785 -0.1535  0.4039
  455MOL0     O62688   3.221  10.143  11.041  0.2490 -1.0501 -0.8213
  455MOL0     C62689   3.242  10.042  10.936  0.4475 -0.0318 -0.1508
  455MOL0     C62690   3.228  10.120  10.800 -0.4799  0.5721  0.3263
  455MOL0     C62691   3.213  10.023  10.684 -0.1433  0.1763  0.0153
  455MOL0     C62692   3.202  10.097  10.549  0.0210 -0.9129 -0.0710
  455MOL0     C62693   3.163  10.000  10.441  0.1299 -0.4637 -0.5679
  455MOL0     C62694   3.284   9.899  10.407  0.1227  0.1777 -0.3576
  455MOL0     C62695   3.245   9.769  10.332  1.0051  0.2874  0.2509
  455MOL0     C62696   3.182   9.670  10.427  0.4251  0.5235 -0.0295
  455MOL0    Cl62697   3.298   9.624  10.558 -0.0608 -0.2817 -0.2500
  455MOL0     C62698   2.994  10.088  11.108  1.3773  0.7839  0.8663
  455MOL0     C62699   2.863  10.113  11.150 -0.3768 -0.0415  0.9427
  455MOL0     O62700   2.674  10.412  11.304  0.2719  0.5289  0.1626
  455MOL0     C62701   2.450  10.353  11.018 -0.3487 -0.3356  0.2013
  455MOL0     C62702   2.324  10.361  10.964 -0.5780 -0.1710  0.6358
  455MOL0     N62703   1.647  10.508  11.338  0.8682  0.9100  0.1814
  455MOL0     N62704   1.648  10.400  11.407  0.0153 -0.0118 -0.6776
  455MOL0     C62705   2.686   9.880  11.546 -0.4902  0.2681 -0.1227
  455MOL0     C62706   2.805   9.805  11.555  0.3507  0.0803 -0.6141
  455MOL0     C62707   3.252   9.697  11.498 -0.1614  0.2503  0.4801
  455MOL0     C62708   3.288   9.680  11.630  1.1263  0.3259 -0.1722
  455MOL0     C62709   3.407   9.622  11.673 -0.8380  0.4362 -1.3428
  455MOL0     C62710   3.508   9.585  11.580 -0.2607 -0.5722 -0.7601
  455MOL0     O62711   3.635   9.554  11.624  1.0050  0.8091 -0.1727
  455MOL0     C62712   3.738   9.523  11.527  0.6801 -0.2359  0.9239
  455MOL0     C62713   3.717   9.372  11.493  0.3563 -0.1240  0.6278
  455MOL0     C62714   3.825   9.327  11.401  0.1435 -0.6219 -0.3696
  455MOL0     C62715   3.858   9.179  11.391 -0.0350 -0.5156  0.2695
  455MOL0     C62716   3.859   9.102  11.518 -0.1007 -0.6237  0.2766
  455MOL0     C62717   3.821   9.064  11.631  0.3784 -0.1703 -0.2083
  455MOL0     C62718   3.458   9.574  11.451  0.7819  0.2835  0.1362
  455MOL0     C62719   3.335   9.625  11.411  0.0375  0.6182  1.3235
  455MOL0     C62720   3.303   9.584  11.264  0.5274 -0.1607  0.0530
  455MOL0     H62721   3.014  10.050  11.491  0.9307 -2.8788  1.0215
  455MOL0     H62722   2.800  10.174  11.450  2.9396 -0.7460 -0.2877
  455MOL0     H62723   2.418   9.967  11.595 -0.0667 -0.2345  0.0654
  455MOL0     H62724   2.449   9.921  11.421 -1.0618 -0.6110  0.4114
  455MOL0     H62725   2.303  10.167  11.524  1.2514 -0.6365  0.9914
  455MOL0     H62726   2.345  10.141  11.354 -0.9693  1.6225  0.4080
  455MOL0     H62727   2.204   9.920  11.364 -2.5873  0.2593 -0.9095
  455MOL0     H62728   2.186   9.952  11.541 -2.7141  0.2918 -1.1758
  455MOL0     H62729   2.096  10.175  11.449 -4.9841  0.8166  0.3747
  455MOL0     H62730   2.046  10.062  11.324 -1.1182 -2.1775 -0.5089
  455MOL0     H62731   2.001  10.058  11.639 -0.3780 -1.8635  1.0306
  455MOL0     H62732   1.942   9.934  11.529 -2.4370  1.2146  2.5523
  455MOL0     H62733   1.772  10.099  11.584  0.6139  2.3926  1.6290
  455MOL0     H62734   1.862  10.233  11.508  3.7548 -0.0695  0.4899
  455MOL0     H62735   1.769   9.990  11.354 -2.7129  0.8487 -2.3669
  455MOL0     H62736   1.833  10.135  11.275 -0.3897 -1.5163 -0.8827
  455MOL0     H62737   1.571  10.102  11.291  0.7001 -0.1767 -0.7075
  455MOL0     H62738   1.597  10.144  11.465  5.1144 -0.8104  1.3233
  455MOL0     H62739   1.636  10.269  11.106 -1.3942 -0.9234  0.5241
  455MOL0     H62740   1.588  10.665  11.121  0.8884  0.0494 -0.5378
  455MOL0     H62741   1.588  10.522  11.013  0.4469 -2.0691 -0.2548
  455MOL0     H62742   1.791  10.663  10.988  0.8764  0.3565  1.3106
  455MOL0     H62743   1.814  10.641  11.166  3.5923 -0.2911 -0.6286
  455MOL0     H62744   1.883  10.416  11.135  0.6273  0.9105 -0.0142
  455MOL0     H62745   1.847  10.422  10.963 -3.7229  0.9024  0.4908
  455MOL0     H62746   2.024  10.619  10.947 -0.5018  0.6177  0.3067
  455MOL0     H62747   2.042  10.584  11.117 -0.0427  0.2459  0.4287
  455MOL0     H62748   2.169  10.478  11.249  1.5459  2.4254  1.7528
  455MOL0     H62749   2.450  10.360  11.446  0.2086 -0.2181  0.1120
  455MOL0     H62750   2.302  10.457  11.441 -0.0254 -2.6686  1.7996
  455MOL0     H62751   2.466  10.527  11.404  2.2989 -2.0424 -1.0193
  455MOL0     H62752   2.882  10.451  11.102 -1.8842 -0.9574  0.8832
  455MOL0     H62753   3.104  10.398  11.046 -1.2067  0.8169 -2.3260
  455MOL0     H62754   3.340   9.994  10.947 -0.9467 -2.9632  0.4717
  455MOL0     H62755   3.176   9.954  10.941  2.9419 -2.2856 -2.6605
  455MOL0     H62756   3.147  10.194  10.803  1.3974  2.7239  0.2560
  455MOL0     H62757   3.324  10.171  10.787 -0.5255 -0.1287 -5.1938
  455MOL0     H62758   3.124   9.967  10.716 -0.5187  0.1914 -0.9402
  455MOL0     H62759   3.285   9.941  10.681 -1.7653 -1.3432  0.8382
  455MOL0     H62760   3.297  10.145  10.523 -0.4087  0.3994  0.6512
  455MOL0     H62761   3.124  10.172  10.563 -0.2092 -1.4606  1.9768
  455MOL0     H62762   3.072   9.947  10.470  1.4586 -2.7198 -0.3052
  455MOL0     H62763   3.133  10.073  10.365 -1.1429  0.6357  0.9208
  455MOL0     H62764   3.349   9.866  10.489  1.7428  0.1631 -1.5910
  455MOL0     H62765   3.357   9.942  10.338  0.7342  0.8362  0.6815
  455MOL0     H62766   3.337   9.732  10.287 -1.0012 -1.6748 -2.5694
  455MOL0     H62767   3.178   9.783  10.246 -0.5225 -2.8309  0.8002
  455MOL0     H62768   3.156   9.586  10.361  1.3101  0.1071  0.1304
  455MOL0     H62769   3.089   9.709  10.468  0.0838  0.7438 -0.9702
  455MOL0     H62770   3.024   9.984  11.095  1.0381  0.5963  1.5130
  455MOL0     H62771   2.798  10.031  11.180  1.5013 -1.3558  1.5663
  455MOL0     H62772   2.526  10.300  10.961 -0.6510 -1.7614  1.0839
  455MOL0     H62773   2.300  10.330  10.863 -0.3072 -0.8577  0.7772
  455MOL0     H62774   2.606   9.811  11.572  0.3233 -1.6071 -2.2368
  455MOL0     H62775   2.795   9.701  11.583 -0.8656  0.4819  0.5652
  455MOL0     H62776   3.212   9.709  11.702  1.3304  3.2742 -1.0217
  455MOL0     H62777   3.438   9.623  11.777  0.0567  1.1136 -1.6034
  455MOL0     H62778   3.725   9.584  11.438  1.9510  0.2433  1.0485
  455MOL0     H62779   3.832   9.558  11.570  0.3851  1.5458  0.1782
  455MOL0     H62780   3.621   9.356  11.441 -0.2922  0.9249  1.4767
  455MOL0     H62781   3.724   9.316  11.586  4.6059 -0.7197  0.1575
  455MOL0     H62782   3.803   9.368  11.302  0.7702 -0.8472 -0.6112
  455MOL0     H62783   3.919   9.367  11.440  1.4272 -3.8344  0.1817
  455MOL0     H62784   3.957   9.168  11.345 -2.0207 -2.9937 -3.9864
  455MOL0     H62785   3.791   9.149  11.310  0.2600  3.5191 -1.7516
  455MOL0     H62786   3.779   9.035  11.725  2.7705  1.3618  1.4208
  455MOL0     H62787   3.510   9.510  11.380 -1.1174 -1.8945  0.6066
  455MOL0     H62788   3.213   9.524  11.250  0.4063  0.1445 -0.4770
  455MOL0     H62789   3.290   9.678  11.210  2.7493  0.0377 -0.2071
  455MOL0     H62790   3.376   9.518  11.216  0.8458  0.9567 -1.0460
  456MOL0     O62791   1.398   6.657   2.164 -0.2584 -0.1017  0.6212
  456MOL0     C62792   1.346   6.686   2.059  0.5044 -0.0541  0.2538
  456MOL0     O62793   1.211   6.692   2.047  0.4306 -0.0481 -0.3134
  456MOL0     C62794   1.125   6.716   2.147 -0.1719 -0.3206  0.5705
  456MOL0     C62795   1.154   6.745   2.280  0.3486 -0.7319 -0.5503
  456MOL0     C62796   1.050   6.774   2.371 -0.1157 -0.1867 -0.4449
  456MOL0     C62797   0.917   6.769   2.326 -0.5288 -0.1910  0.3736
  456MOL0     O62798   0.831   6.786   2.430  0.2166 -0.2614 -0.1881
  456MOL0     C62799   0.690   6.761   2.416 -0.5216  0.2044 -0.6866
  456MOL0     C62800   0.631   6.786   2.564 -0.0560  0.8355  0.2944
  456MOL0     C62801   0.658   6.683   2.668  0.1319  0.5056  0.3687
  456MOL0     C62802   0.561   6.569   2.686 -0.3893 -0.6085  0.5008
  456MOL0     C62803   0.604   6.459   2.780 -0.2961  0.5895 -0.3182
  456MOL0     C62804   0.487   6.363   2.804  0.3646 -0.5765 -0.9898
  456MOL0     C62805   0.525   6.232   2.887 -0.6885 -1.1207 -0.1351
  456MOL0     C62806   0.551   6.279   3.035  0.1176 -0.3562  0.0120
  456MOL0     N62807   0.532   6.175   3.139 -0.2588  0.0084  0.8879
  456MOL0     C62808   0.614   6.070   3.157 -0.1602  0.1358  0.0383
  456MOL0     C62809   0.565   6.009   3.263 -0.3715  0.0115 -1.2738
  456MOL0     C62810   0.625   5.880   3.320  0.4509 -0.3138 -0.0444
  456MOL0     C62811   0.768   5.881   3.352 -0.8651  0.2988 -0.3231
  456MOL0     C62812   0.795   5.962   3.487 -0.5332  0.1395 -0.1805
  456MOL0     C62813   0.939   5.958   3.530  0.5162  0.4732  0.4678
  456MOL0     O62814   0.986   5.825   3.549  0.3211  0.0779 -0.0505
  456MOL0     C62815   1.098   5.810   3.629 -0.1789  0.3042  1.0661
  456MOL0     C62816   1.135   5.686   3.672  0.9137 -0.3213 -0.0182
  456MOL0     C62817   1.245   5.677   3.750 -0.2549  1.0687  0.0181
  456MOL0     C62818   1.291   5.534   3.782 -0.5206 -0.1358  0.1213
  456MOL0     C62819   1.317   5.785   3.790 -0.5733  0.4305 -1.3801
  456MOL0     C62820   1.434   5.773   3.884  0.2386  0.2345 -1.2822
  456MOL0     O62821   1.421   5.870   3.989  0.3391  0.5285  0.1374
  456MOL0     C62822   1.540   5.911   4.031 -0.0892 -0.8561 -0.4263
  456MOL0     C62823   1.581   6.031   3.981 -0.4737 -0.5191  0.0626
  456MOL0     C62824   1.698   6.079   4.019  0.5305 -0.2612 -0.1500
  456MOL0     C62825   1.776   6.023   4.122 -0.8719 -0.2652  0.5567
  456MOL0     O62826   1.886   6.080   4.184  0.5686  0.7282 -0.1309
  456MOL0     C62827   1.877   6.217   4.231  0.3248  0.2489  0.7404
  456MOL0     C62828   1.984   6.310   4.184 -0.8436 -0.2793  0.5474
  456MOL0     C62829   2.114   6.251   4.225 -0.1080 -0.1287  0.2443
  456MOL0     C62830   2.223   6.362   4.183  0.6402 -0.5381  0.3814
  456MOL0     C62831   2.367   6.313   4.193 -0.8328  0.1501  0.9423
  456MOL0     C62832   2.475   6.396   4.124  0.0986 -0.5321  0.4092
  456MOL0     C62833   2.588   6.302   4.065 -0.1111 -0.1622 -0.1528
  456MOL0     C62834   2.709   6.378   4.016  0.0501 -0.8373  0.1957
  456MOL0    Cl62835   2.655   6.471   3.878 -0.1360  0.1133 -0.0242
  456MOL0     C62836   1.741   5.896   4.165 -0.6211  0.1060  0.0064
  456MOL0     C62837   1.616   5.842   4.129  0.7800 -0.3402 -0.3162
  456MOL0     O62838   1.536   5.719   3.849  0.2670 -0.0392  0.6228
  456MOL0     C62839   1.289   5.911   3.745 -0.0175  0.3138 -0.6310
  456MOL0     C62840   1.184   5.921   3.662  0.6794 -0.2856  0.3182
  456MOL0     N62841   0.450   6.069   3.304  0.8312 -0.1465  0.0210
  456MOL0     N62842   0.428   6.169   3.228  0.2591  0.1971  0.3923
  456MOL0     C62843   0.882   6.734   2.196 -0.0280  0.6820  0.2443
  456MOL0     C62844   0.987   6.722   2.098 -0.8983  1.2486  0.6512
  456MOL0     C62845   1.430   6.726   1.953 -0.7228 -0.6365  0.3073
  456MOL0     C62846   1.560   6.774   1.985  0.1047 -0.1971 -0.2574
  456MOL0     C62847   1.653   6.812   1.887  0.1736 -0.2003 -0.3814
  456MOL0     C62848   1.606   6.811   1.756 -0.2256 -0.4182 -0.5661
  456MOL0     O62849   1.673   6.858   1.641 -0.5243 -0.3686  0.0365
  456MOL0     C62850   1.765   6.971   1.659 -0.1159 -0.1384 -0.1216
  456MOL0     C62851   1.693   7.099   1.698 -1.0564  0.9444  0.0905
  456MOL0     C62852   1.612   7.148   1.590  0.3863  0.0939 -0.1459
  456MOL0     C62853   1.542   7.283   1.627  0.0040 -0.3839  1.0426
  456MOL0     C62854   1.439   7.295   1.517  0.0658  0.6124 -0.0780
  456MOL0     C62855   1.379   7.295   1.411  0.6204 -0.9053  0.0028
  456MOL0     C62856   1.484   6.756   1.718 -0.3302  0.6175 -1.1443
  456MOL0     C62857   1.394   6.715   1.821  1.2308  0.2089  0.4887
  456MOL0     C62858   1.264   6.641   1.776 -0.3689  1.1920  0.7897
  456MOL0     H62859   1.256   6.732   2.316 -0.6682 -2.4167  2.0041
  456MOL0     H62860   1.083   6.796   2.472  3.8941 -1.5006 -1.2683
  456MOL0     H62861   0.671   6.660   2.379  0.0747 -0.1558 -0.0319
  456MOL0     H62862   0.655   6.838   2.346 -1.1512  1.6485  1.1260
  456MOL0     H62863   0.668   6.885   2.594 -1.1331  1.8327 -1.5046
  456MOL0     H62864   0.523   6.802   2.552 -0.9416 -1.6935  3.5202
  456MOL0     H62865   0.753   6.636   2.642 -1.7512 -1.6745 -3.5613
  456MOL0     H62866   0.670   6.734   2.764  2.9162  3.4470 -1.3316
  456MOL0     H62867   0.479   6.629   2.728  0.6099  2.6904 -1.8086
  456MOL0     H62868   0.530   6.526   2.590  0.7720 -0.1054 -0.1260
  456MOL0     H62869   0.643   6.497   2.875  0.8672 -0.9013 -0.1770
  456MOL0     H62870   0.692   6.414   2.733  1.7118  2.4154  1.4779
  456MOL0     H62871   0.411   6.415   2.862  0.6100  0.7711 -1.8305
  456MOL0     H62872   0.456   6.331   2.705 -0.0901 -2.2161 -0.3441
  456MOL0     H62873   0.612   6.172   2.859  0.4569 -0.0571  1.0505
  456MOL0     H62874   0.439   6.164   2.887 -3.8262  2.3486  3.0738
  456MOL0     H62875   0.656   6.310   3.029  0.2102 -0.5387  0.6767
  456MOL0     H62876   0.484   6.361   3.060  1.4533  1.5283 -2.1902
  456MOL0     H62877   0.702   6.038   3.101  0.0976 -1.2053  1.1479
  456MOL0     H62878   0.616   5.809   3.238  3.3951  1.2435 -1.8764
  456MOL0     H62879   0.572   5.853   3.412  0.0849 -1.5261 -0.6006
  456MOL0     H62880   0.808   5.780   3.363  0.9289  1.1198  1.4806
  456MOL0     H62881   0.819   5.921   3.264 -0.3610  1.8257  0.6131
  456MOL0     H62882   0.774   6.067   3.466  1.5359  0.5097 -0.6121
  456MOL0     H62883   0.725   5.930   3.565 -1.2851  1.4195 -0.3086
  456MOL0     H62884   1.004   6.001   3.454 -0.3002 -2.3830 -2.0425
  456MOL0     H62885   0.946   6.013   3.624  1.8738 -0.9051  1.1962
  456MOL0     H62886   1.088   5.595   3.637 -0.4547  1.0483 -1.9497
  456MOL0     H62887   1.377   5.515   3.717  1.4580  1.0037  2.2785
  456MOL0     H62888   1.215   5.457   3.766  1.7548 -2.2246 -1.3396
  456MOL0     H62889   1.317   5.515   3.886  0.7550  0.1946 -0.1207
  456MOL0     H62890   1.530   6.087   3.903  0.6609  1.2065  0.5300
  456MOL0     H62891   1.752   6.168   3.986  1.7434 -0.5107  1.0743
  456MOL0     H62892   1.782   6.261   4.200  0.2016  0.6963  1.7326
  456MOL0     H62893   1.888   6.212   4.339  0.1568  2.2204  0.8799
  456MOL0     H62894   1.986   6.329   4.076  0.1473 -0.6209  0.4932
  456MOL0     H62895   1.970   6.405   4.236 -0.5337  0.7594 -1.1772
  456MOL0     H62896   2.134   6.168   4.156 -0.9268  1.1944 -1.6838
  456MOL0     H62897   2.127   6.236   4.332  0.0091 -0.2750  0.2102
  456MOL0     H62898   2.209   6.454   4.241  0.4447 -0.9483  0.9835
  456MOL0     H62899   2.198   6.385   4.079 -2.6576 -2.6498  0.5688
  456MOL0     H62900   2.390   6.310   4.300  0.9009  2.9088  0.7512
  456MOL0     H62901   2.379   6.215   4.146  0.2323  0.6350  0.1637
  456MOL0     H62902   2.522   6.468   4.191 -0.6901 -1.7285  2.3369
  456MOL0     H62903   2.419   6.423   4.034 -3.6345 -3.5413  1.5408
  456MOL0     H62904   2.535   6.255   3.982 -2.6275  0.1411  1.1539
  456MOL0     H62905   2.641   6.251   4.146  6.2303  2.8565 -1.7737
  456MOL0     H62906   2.787   6.315   3.973  0.0166 -0.0216 -1.1258
  456MOL0     H62907   2.735   6.440   4.102 -2.1740 -0.4022  0.6284
  456MOL0     H62908   1.792   5.844   4.246 -3.6012 -1.9817  0.7038
  456MOL0     H62909   1.577   5.750   4.172  1.0466 -1.2833 -2.0250
  456MOL0     H62910   1.346   5.999   3.775  2.3504 -1.8575  1.7198
  456MOL0     H62911   1.157   6.019   3.624  0.2003 -0.1554  0.9789
  456MOL0     H62912   0.783   6.737   2.152  0.5125  1.8118 -0.9559
  456MOL0     H62913   0.968   6.696   1.994 -3.9780  0.8899  1.2011
  456MOL0     H62914   1.594   6.779   2.088  0.0631 -1.7518 -0.1493
  456MOL0     H62915   1.751   6.836   1.927  0.0467 -1.6091  0.8847
  456MOL0     H62916   1.849   6.943   1.722  1.0261  0.4249 -1.3383
  456MOL0     H62917   1.813   6.988   1.562 -0.8949 -1.9448 -0.8751
  456MOL0     H62918   1.771   7.173   1.718  2.2208 -1.5667 -2.2776
  456MOL0     H62919   1.631   7.089   1.788  0.0600  0.6266  0.8570
  456MOL0     H62920   1.661   7.148   1.492  0.2623 -1.4594 -0.2361
  456MOL0     H62921   1.543   7.064   1.590  1.3908 -0.8062  1.6467
  456MOL0     H62922   1.612   7.367   1.632 -1.1005  1.0302 -3.1438
  456MOL0     H62923   1.491   7.276   1.724  0.4781 -2.6746  1.1839
  456MOL0     H62924   1.322   7.296   1.320 -1.9223 -2.5030  1.4548
  456MOL0     H62925   1.454   6.750   1.614 -1.9564 -0.4335 -0.6402
  456MOL0     H62926   1.173   6.684   1.820 -1.6008 -2.1266  1.7997
  456MOL0     H62927   1.264   6.646   1.667 -0.2844  0.0845  0.7299
  456MOL0     H62928   1.277   6.537   1.808 -0.7596  0.2697 -1.8308
  457MOL0     O62929  10.077   9.941   9.095 -0.1150 -0.0348 -0.1294
  457MOL0     C62930   9.974   9.901   9.128  0.5462 -0.2216 -0.2010
  457MOL0     O62931   9.873   9.874   9.043 -0.2686 -0.1274  0.4188
  457MOL0     C62932   9.873   9.869   8.909 -0.4456 -1.2112 -0.5037
  457MOL0     C62933   9.750   9.872   8.843  0.7330  0.0328  0.5510
  457MOL0     C62934   9.742   9.871   8.708  0.5003  0.5662  0.8602
  457MOL0     C62935   9.856   9.845   8.626  0.3727  0.3202 -0.3378
  457MOL0     O62936   9.866   9.833   8.492 -0.3511 -0.3513  0.2067
  457MOL0     C62937   9.754   9.790   8.414  0.3523  0.2840 -0.8304
  457MOL0     C62938   9.804   9.784   8.277  0.0093  0.0032 -0.2973
  457MOL0     C62939   9.699   9.724   8.185 -0.3848 -0.8437 -0.0948
  457MOL0     C62940   9.773   9.674   8.058 -0.2807  0.8502 -0.5280
  457MOL0     C62941   9.670   9.647   7.954 -0.7520  1.0583  0.3225
  457MOL0     C62942   9.724   9.609   7.822 -0.7119 -0.6074  0.4894
  457MOL0     C62943   9.592   9.579   7.730  0.0397 -0.1612 -0.3655
  457MOL0     C62944   9.615   9.534   7.585 -0.3346 -0.1915 -0.4385
  457MOL0     N62945   9.665   9.397   7.587  1.2195  0.0406 -0.5579
  457MOL0     C62946   9.668   9.304   7.481  0.8663  0.1609  0.3165
  457MOL0     C62947   9.702   9.186   7.530  0.2315  0.5256  0.6463
  457MOL0     C62948   9.709   9.047   7.473 -0.1594  0.2997 -0.2851
  457MOL0     C62949   9.571   8.992   7.437 -0.0868  0.9691 -0.0594
  457MOL0     C62950   9.491   8.907   7.549 -0.7699 -0.4060  0.8368
  457MOL0     C62951   9.393   8.831   7.468 -0.2475 -0.1074 -0.1124
  457MOL0     O62952   9.314   8.903   7.383  0.1996 -0.4365  0.4916
  457MOL0     C62953   9.222   8.840   7.306  0.1824 -1.3519  0.8044
  457MOL0     C62954   9.130   8.918   7.233 -1.4727  0.9796 -1.1723
  457MOL0     C62955   9.045   8.855   7.144  0.0085 -0.5041  0.0911
  457MOL0     C62956   8.961   8.950   7.065 -1.4142  0.5005  0.7864
  457MOL0     C62957   9.045   8.718   7.119  0.5903 -0.5547  1.5283
  457MOL0     C62958   8.959   8.650   7.004 -0.5792 -0.9396  0.5590
  457MOL0     O62959   8.865   8.728   6.942 -0.1218 -0.0299  0.7393
  457MOL0     C62960   8.778   8.677   6.844 -0.1515 -0.5949  0.4536
  457MOL0     C62961   8.674   8.759   6.820 -0.0728  0.6480 -0.2528
  457MOL0     C62962   8.566   8.723   6.739  0.8624 -0.2587  0.6787
  457MOL0     C62963   8.582   8.610   6.657  0.1344 -0.0074 -0.2129
  457MOL0     O62964   8.470   8.582   6.582 -0.6985  0.5188  0.4327
  457MOL0     C62965   8.499   8.526   6.449 -0.1946 -0.3238  0.6960
  457MOL0     C62966   8.493   8.375   6.444 -0.3125  0.0727  0.5388
  457MOL0     C62967   8.356   8.316   6.462  0.7112  0.7301 -0.2536
  457MOL0     C62968   8.316   8.316   6.616 -0.7221 -0.5017  0.1341
  457MOL0     C62969   8.222   8.209   6.658  0.1746 -0.1874 -0.0127
  457MOL0     C62970   8.082   8.224   6.590 -0.6901 -0.4853  0.2597
  457MOL0     C62971   7.977   8.111   6.617 -0.4083 -0.7575 -0.7071
  457MOL0     C62972   7.953   8.083   6.769 -0.2536  0.3517 -0.5043
  457MOL0    Cl62973   7.867   7.931   6.777 -0.1317  0.1496  0.2199
  457MOL0     C62974   8.698   8.531   6.663 -1.2879 -0.8994  0.1078
  457MOL0     C62975   8.793   8.570   6.768  0.3884  0.4576  0.9507
  457MOL0     O62976   8.982   8.524   6.992 -0.4898 -0.2490  0.1626
  457MOL0     C62977   9.131   8.643   7.195 -0.1155 -0.3374  0.4809
  457MOL0     C62978   9.220   8.702   7.282 -0.1048 -0.6981 -0.3654
  457MOL0     N62979   9.725   9.201   7.662 -0.2200  0.1602  0.0638
  457MOL0     N62980   9.704   9.319   7.696  0.5567 -0.7113 -0.3749
  457MOL0     C62981   9.980   9.837   8.695  0.1860 -0.2949  0.4591
  457MOL0     C62982   9.987   9.858   8.834  0.6790 -0.3198  0.6208
  457MOL0     C62983   9.956   9.866   9.264  0.6595  0.3514 -0.4325
  457MOL0     C62984   9.842   9.919   9.327  0.3126 -0.4227 -0.1601
  457MOL0     C62985   9.821   9.888   9.463 -0.1224  0.0953  0.6390
  457MOL0     C62986   9.912   9.812   9.536 -0.7629  0.6070 -0.5914
  457MOL0     O62987   9.900   9.793   9.672 -0.3445  0.2326 -0.8863
  457MOL0     C62988   9.991   9.853   9.761 -0.5490 -0.1310 -0.2677
  457MOL0     C62989   9.932   9.834   9.907  0.2721  0.0374 -0.0950
  457MOL0     C62990  10.037   9.856  10.021  0.5349  0.1227  0.1907
  457MOL0     C62991  10.099  10.001  10.035 -0.1745 -0.1259 -0.1660
  457MOL0     C62992  10.001  10.108  10.075 -0.0691  0.4720  0.4103
  457MOL0     C62993   9.940  10.201  10.117  0.3566 -0.2426  0.2454
  457MOL0     C62994  10.028   9.770   9.475 -0.4325  1.1220 -0.1829
  457MOL0     C62995  10.054   9.797   9.345 -0.4590 -0.3283 -0.9491
  457MOL0     C62996  10.182   9.755   9.292 -0.5068 -0.0437 -0.2081
  457MOL0     H62997   9.664   9.892   8.905  2.1232  2.2535  1.9178
  457MOL0     H62998   9.649   9.883   8.654 -0.0289  2.6554  2.1496
  457MOL0     H62999   9.677   9.868   8.418  1.0159  0.9316  2.2737
  457MOL0     H63000   9.720   9.695   8.455  0.8240  0.0280 -1.0241
  457MOL0     H63001   9.834   9.882   8.237 -1.2751  1.4889  2.1471
  457MOL0     H63002   9.891   9.717   8.280  0.6663  0.7406 -1.7639
  457MOL0     H63003   9.655   9.641   8.241 -1.9673  0.6679  1.0225
  457MOL0     H63004   9.617   9.794   8.165  0.6501  0.7727  1.0699
  457MOL0     H63005   9.850   9.747   8.031  0.1637  0.9131  0.8120
  457MOL0     H63006   9.819   9.577   8.080  0.7216  2.0039  3.0587
  457MOL0     H63007   9.616   9.741   7.941  1.9054  2.3439 -2.4748
  457MOL0     H63008   9.611   9.564   7.995 -2.1416  2.5955  1.6387
  457MOL0     H63009   9.789   9.688   7.783 -0.9565 -1.2350 -1.3026
  457MOL0     H63010   9.782   9.516   7.828 -0.2476 -0.3730 -0.1781
  457MOL0     H63011   9.527   9.666   7.724 -1.3920 -1.2759 -1.6461
  457MOL0     H63012   9.528   9.500   7.769 -0.3807  0.3773  0.0540
  457MOL0     H63013   9.527   9.535   7.520 -0.3403 -3.9481 -0.6989
  457MOL0     H63014   9.684   9.601   7.532  3.4481 -3.7519 -0.5626
  457MOL0     H63015   9.650   9.328   7.377  0.0316  1.1753  0.6828
  457MOL0     H63016   9.763   8.980   7.541 -0.6542  0.8678  0.6858
  457MOL0     H63017   9.768   9.043   7.381  0.8082 -7.0641  0.0524
  457MOL0     H63018   9.503   9.073   7.409 -1.3911  0.1385  0.6059
  457MOL0     H63019   9.600   8.924   7.357 -0.5414 -0.0029  0.5804
  457MOL0     H63020   9.550   8.831   7.601  1.2023 -1.2717 -2.4354
  457MOL0     H63021   9.456   8.970   7.632  4.4695  0.0977  3.0836
  457MOL0     H63022   9.448   8.754   7.414  0.8044 -0.8674  1.9439
  457MOL0     H63023   9.334   8.767   7.535  2.3002 -1.0151  1.3965
  457MOL0     H63024   9.161   9.020   7.256  1.8203 -0.1055 -0.2795
  457MOL0     H63025   8.854   8.927   7.078 -1.6934 -2.7881 -4.3368
  457MOL0     H63026   8.978   8.938   6.957  1.5807  0.6864  1.1654
  457MOL0     H63027   8.979   9.053   7.096  0.8731 -0.0075  1.2534
  457MOL0     H63028   8.679   8.846   6.885 -2.5523  0.6162  0.0675
  457MOL0     H63029   8.470   8.774   6.743  0.4997 -0.9083  0.3785
  457MOL0     H63030   8.421   8.563   6.380  2.7600  0.7963 -2.3533
  457MOL0     H63031   8.595   8.561   6.411 -1.8998  1.7446 -2.2015
  457MOL0     H63032   8.534   8.316   6.362  2.7203  2.6682 -0.0121
  457MOL0     H63033   8.551   8.340   6.530  0.4749 -1.4176 -0.5610
  457MOL0     H63034   8.355   8.210   6.432 -0.1781  0.3366  1.0677
  457MOL0     H63035   8.280   8.363   6.399 -2.2624 -1.0846  1.7068
  457MOL0     H63036   8.276   8.416   6.631 -0.5612 -0.3319 -0.5274
  457MOL0     H63037   8.402   8.300   6.683  0.3260 -0.5045 -1.1748
  457MOL0     H63038   8.272   8.116   6.630  3.7258  0.8031  2.2342
  457MOL0     H63039   8.215   8.211   6.767  3.5383 -0.9779  0.3424
  457MOL0     H63040   8.092   8.260   6.487 -3.1807  2.0293  0.7686
  457MOL0     H63041   8.037   8.310   6.640  1.2240 -1.2557  3.5305
  457MOL0     H63042   8.008   8.017   6.570 -1.9752 -1.0740 -1.1685
  457MOL0     H63043   7.884   8.132   6.564 -1.9390  1.9142  2.6592
  457MOL0     H63044   7.889   8.167   6.797 -0.9829 -0.6214  0.8582
  457MOL0     H63045   8.045   8.083   6.827 -1.0887  1.6784  0.8931
  457MOL0     H63046   8.718   8.434   6.619 -1.6744 -1.4312  1.0793
  457MOL0     H63047   8.879   8.504   6.765 -0.1732 -0.5189 -4.1654
  457MOL0     H63048   9.128   8.535   7.193 -2.1088 -0.3926 -3.1535
  457MOL0     H63049   9.306   8.646   7.317  1.5879  0.2075 -2.8451
  457MOL0     H63050  10.069   9.820   8.636 -1.5750  3.5926 -3.9774
  457MOL0     H63051  10.083   9.858   8.884 -0.7584 -2.9541  3.8160
  457MOL0     H63052   9.777   9.978   9.262  1.9948  1.1797 -0.4814
  457MOL0     H63053   9.736   9.924   9.520  0.4846  1.4731  0.7085
  457MOL0     H63054  10.089   9.809   9.739 -0.9834  0.0283 -2.8413
  457MOL0     H63055  10.002   9.960   9.744 -0.5225 -0.2188 -0.8397
  457MOL0     H63056   9.889   9.734   9.919  1.2318 -0.4732 -0.7247
  457MOL0     H63057   9.849   9.902   9.927 -0.7572 -0.4335 -2.4148
  457MOL0     H63058   9.989   9.816  10.111 -0.8664 -0.4195 -0.7606
  457MOL0     H63059  10.116   9.787   9.990 -2.5817 -3.3045 -0.8053
  457MOL0     H63060  10.141  10.026   9.938 -1.2936 -5.2513 -2.3071
  457MOL0     H63061  10.176   9.992  10.112 -1.0675 -0.2859  0.7316
  457MOL0     H63062   9.876  10.281  10.148 -0.7508 -1.2504  0.6449
  457MOL0     H63063  10.094   9.710   9.538 -2.9642 -1.7818 -0.0460
  457MOL0     H63064  10.239   9.682   9.350  1.2060  0.8661 -0.6576
  457MOL0     H63065  10.161   9.705   9.197 -2.4997  0.5501 -0.1153
  457MOL0     H63066  10.248   9.839   9.268  0.9503 -1.0788  0.0558
  458MOL0     O63067   9.310   2.305   2.520 -0.0726  0.2207  0.8251
  458MOL0     C63068   9.325   2.269   2.633  0.7468  0.1375 -0.2016
  458MOL0     O63069   9.224   2.277   2.734 -0.8546  0.3583  0.1028
  458MOL0     C63070   9.096   2.294   2.695  0.7423 -0.9168 -0.7620
  458MOL0     C63071   9.027   2.193   2.629  0.0598 -0.9432 -0.6455
  458MOL0     C63072   8.885   2.218   2.615 -0.0174  0.5045  0.4045
  458MOL0     C63073   8.818   2.336   2.669 -0.7740 -0.1155  0.4280
  458MOL0     O63074   8.685   2.369   2.658 -0.4238  0.8389 -0.5170
  458MOL0     C63075   8.621   2.325   2.539  0.7618  0.2242 -0.2877
  458MOL0     C63076   8.478   2.370   2.547 -0.7352  0.4296 -0.5676
  458MOL0     C63077   8.410   2.397   2.407 -0.1358  0.0004 -0.5329
  458MOL0     C63078   8.396   2.549   2.378  0.1573  0.4200  0.0824
  458MOL0     C63079   8.382   2.572   2.223 -0.0557 -0.0466 -0.3659
  458MOL0     C63080   8.260   2.502   2.166 -0.4869 -1.2091  0.0581
  458MOL0     C63081   8.268   2.532   2.016 -0.4774  0.3976  0.2455
  458MOL0     C63082   8.171   2.455   1.929  0.3418  0.3656  0.0085
  458MOL0     N63083   8.032   2.480   1.972  0.1943 -0.2063  0.1494
  458MOL0     C63084   7.972   2.422   2.080 -0.1863  0.0443  0.4764
  458MOL0     C63085   7.842   2.449   2.067 -0.1402  0.0521  0.6493
  458MOL0     C63086   7.740   2.409   2.168  0.1585  0.4405 -0.7192
  458MOL0     C63087   7.754   2.490   2.300 -1.1309 -0.0002  0.5941
  458MOL0     C63088   7.838   2.417   2.407  0.1012 -0.4245  0.8416
  458MOL0     C63089   7.857   2.492   2.530 -0.1635  0.6594 -0.6622
  458MOL0     O63090   7.929   2.408   2.621  0.0215  0.0628  0.2564
  458MOL0     C63091   8.059   2.444   2.675  0.1752  0.3875  0.2500
  458MOL0     C63092   8.104   2.361   2.776 -0.4038 -0.7914 -0.2131
  458MOL0     C63093   8.223   2.375   2.848  1.0332  0.0836  1.0320
  458MOL0     C63094   8.269   2.262   2.938  0.1894 -1.0721  0.3416
  458MOL0     C63095   8.301   2.489   2.823  0.7654  0.6690 -0.0845
  458MOL0     C63096   8.419   2.533   2.895  0.3790  1.2084  0.1457
  458MOL0     O63097   8.504   2.626   2.840 -0.1258 -0.3960  0.5147
  458MOL0     C63098   8.624   2.656   2.903  0.2511 -0.6305  0.3065
  458MOL0     C63099   8.660   2.793   2.904  0.6366  0.4209 -0.3531
  458MOL0     C63100   8.764   2.846   2.987  0.7332 -0.8249  0.0665
  458MOL0     C63101   8.834   2.763   3.077 -0.3475  0.1503  0.0794
  458MOL0     O63102   8.931   2.815   3.164  0.0847  0.9715  0.1531
  458MOL0     C63103   9.024   2.723   3.230  0.2929 -0.3573  0.3263
  458MOL0     C63104   9.113   2.818   3.310 -0.3133  0.4283  0.1905
  458MOL0     C63105   9.059   2.934   3.394  0.0193  0.2292  0.2156
  458MOL0     C63106   9.178   3.017   3.446 -0.1780  1.2976  0.2506
  458MOL0     C63107   9.128   3.148   3.502 -0.0686 -0.0584 -0.2913
  458MOL0     C63108   9.239   3.202   3.596 -0.1826  0.2931 -1.0053
  458MOL0     C63109   9.235   3.124   3.730 -0.1844 -0.4360  0.1160
  458MOL0     C63110   9.374   3.140   3.794 -1.2886 -0.2669 -0.5244
  458MOL0    Cl63111   9.379   3.088   3.961  0.2242  0.4139 -0.4278
  458MOL0     C63112   8.809   2.625   3.065  0.0174 -0.9377 -0.0766
  458MOL0     C63113   8.711   2.578   2.981  0.2669  0.6322  0.1264
  458MOL0     O63114   8.437   2.492   3.008 -0.4161 -0.2862 -0.4570
  458MOL0     C63115   8.259   2.573   2.713  0.3737 -0.8844  0.1932
  458MOL0     C63116   8.147   2.547   2.640  0.7252 -0.8922  0.3182
  458MOL0     N63117   7.824   2.526   1.960  0.2368 -0.0648 -0.3009
  458MOL0     N63118   7.936   2.541   1.900  0.5485 -0.0867 -0.0545
  458MOL0     C63119   8.901   2.427   2.745 -0.3448 -0.7526  0.1748
  458MOL0     C63120   9.041   2.410   2.741  0.3962 -0.0150  0.3041
  458MOL0     C63121   9.460   2.239   2.691  0.6060  0.6545  0.1536
  458MOL0     C63122   9.479   2.108   2.729 -0.0361  0.2723 -0.6368
  458MOL0     C63123   9.608   2.065   2.777 -0.1637 -0.2118  0.0030
  458MOL0     C63124   9.712   2.156   2.774 -0.4697 -1.5523 -0.1289
  458MOL0     O63125   9.837   2.099   2.795  0.2183  0.1834 -0.6623
  458MOL0     C63126   9.957   2.176   2.781  0.8011  0.1080  0.6746
  458MOL0     C63127  10.058   2.100   2.696 -0.6209  0.4252 -0.6427
  458MOL0     C63128  10.142   1.984   2.761  0.3876  0.4330 -0.7753
  458MOL0     C63129  10.100   1.964   2.910 -0.2464 -0.8618  0.6572
  458MOL0     C63130  10.177   1.853   2.951 -0.6299 -0.4560 -0.7812
  458MOL0     C63131  10.260   1.765   2.976  0.6198 -0.1746  0.7834
  458MOL0     C63132   9.682   2.294   2.733 -1.1683  0.9392  0.8936
  458MOL0     C63133   9.563   2.336   2.686  0.0516 -0.1347 -0.4942
  458MOL0     C63134   9.557   2.480   2.640  0.1005 -0.0525  0.5980
  458MOL0     H63135   9.081   2.104   2.601  0.3092 -1.5949  1.6874
  458MOL0     H63136   8.830   2.134   2.574 -0.8398  0.5960  1.2788
  458MOL0     H63137   8.601   2.218   2.527  0.9312  0.2958 -1.3523
  458MOL0     H63138   8.679   2.353   2.450 -0.7622  1.7980 -0.8389
  458MOL0     H63139   8.407   2.298   2.590  0.8851  0.0043  1.5318
  458MOL0     H63140   8.474   2.458   2.611 -4.1512 -0.1656  0.2381
  458MOL0     H63141   8.466   2.348   2.327 -0.5575  0.1024 -0.8953
  458MOL0     H63142   8.312   2.348   2.401  0.8968 -2.5060  1.1227
  458MOL0     H63143   8.305   2.587   2.426 -1.3212  0.1292 -2.3212
  458MOL0     H63144   8.479   2.605   2.421 -1.2178  0.7851  2.4382
  458MOL0     H63145   8.473   2.538   2.172  0.3676  0.7252 -0.1595
  458MOL0     H63146   8.362   2.679   2.211 -0.8461 -0.2005 -0.4100
  458MOL0     H63147   8.268   2.393   2.168 -5.7684 -1.8929 -0.6399
  458MOL0     H63148   8.169   2.540   2.214  0.1655  0.4403  0.0575
  458MOL0     H63149   8.372   2.523   1.983 -0.3754 -0.2730  0.7261
  458MOL0     H63150   8.234   2.636   2.004 -2.5867 -0.4316 -1.6072
  458MOL0     H63151   8.191   2.477   1.824  2.6818 -3.7198 -0.6096
  458MOL0     H63152   8.198   2.350   1.943  2.8965  1.0755  0.9523
  458MOL0     H63153   8.008   2.354   2.157 -0.8710 -0.4673  0.3600
  458MOL0     H63154   7.729   2.303   2.193 -5.3376  1.4594  3.1251
  458MOL0     H63155   7.652   2.433   2.108  0.5975  2.6843 -0.5527
  458MOL0     H63156   7.818   2.578   2.285 -0.3368 -0.5323  0.7420
  458MOL0     H63157   7.657   2.511   2.345 -2.0321 -1.2681 -0.6964
  458MOL0     H63158   7.778   2.330   2.436  1.1053 -1.7744 -0.9223
  458MOL0     H63159   7.938   2.387   2.375 -0.2802 -2.1529  1.1579
  458MOL0     H63160   7.925   2.574   2.508  2.8721 -0.8528  2.2081
  458MOL0     H63161   7.762   2.527   2.573 -1.1175 -1.2823 -1.0487
  458MOL0     H63162   8.040   2.278   2.805  2.1057 -1.8712  2.6998
  458MOL0     H63163   8.209   2.171   2.948  0.8927 -1.5288  0.4969
  458MOL0     H63164   8.269   2.306   3.038 -0.4849  1.1710 -0.5843
  458MOL0     H63165   8.370   2.246   2.900  0.8642  1.2607  0.9902
  458MOL0     H63166   8.600   2.863   2.846  1.7278  3.0770  1.5320
  458MOL0     H63167   8.801   2.948   2.980 -1.5814 -0.0272 -1.9291
  458MOL0     H63168   8.977   2.658   3.303  2.1931 -0.6351  1.3549
  458MOL0     H63169   9.080   2.662   3.158  2.8199 -0.0402  1.9032
  458MOL0     H63170   9.187   2.775   3.379 -1.1689 -0.7968  0.3759
  458MOL0     H63171   9.163   2.865   3.225 -0.3128 -2.7265 -1.6968
  458MOL0     H63172   9.008   2.898   3.484  1.6108  1.9364  1.8841
  458MOL0     H63173   8.990   2.994   3.334  0.5454 -0.1914 -0.8472
  458MOL0     H63174   9.243   3.035   3.360 -0.5136  1.1188 -0.0435
  458MOL0     H63175   9.244   2.953   3.506 -0.3903  1.4774  0.6796
  458MOL0     H63176   9.113   3.228   3.428  0.5671  1.1870  0.8703
  458MOL0     H63177   9.031   3.125   3.547 -1.3598 -0.2084 -2.9771
  458MOL0     H63178   9.210   3.304   3.622 -1.8992 -0.1001 -1.2609
  458MOL0     H63179   9.339   3.198   3.553 -1.3923 -0.1416 -4.0503
  458MOL0     H63180   9.221   3.020   3.702  0.8322 -0.3226 -0.8984
  458MOL0     H63181   9.159   3.166   3.797 -3.2237 -1.8884 -2.1822
  458MOL0     H63182   9.394   3.248   3.802  0.8397 -0.7232  0.9635
  458MOL0     H63183   9.458   3.093   3.743  1.9399  3.2370  1.0260
  458MOL0     H63184   8.869   2.557   3.125  0.3480 -2.0333 -1.5737
  458MOL0     H63185   8.698   2.471   2.975  1.2147  0.5879 -1.8673
  458MOL0     H63186   8.318   2.652   2.668 -0.8352 -1.0380 -1.7399
  458MOL0     H63187   8.120   2.621   2.564  1.6812 -1.4528 -0.5979
  458MOL0     H63188   8.863   2.523   2.779  2.4094  0.5978 -0.2131
  458MOL0     H63189   9.110   2.484   2.779  2.5648 -0.4804 -2.4172
  458MOL0     H63190   9.399   2.034   2.727  1.2719 -1.2014 -0.9829
  458MOL0     H63191   9.618   1.960   2.804  0.2207  0.5798  3.2917
  458MOL0     H63192   9.950   2.269   2.723 -0.5306 -2.0005 -2.8484
  458MOL0     H63193   9.997   2.200   2.880  2.2882 -2.7564  0.8443
  458MOL0     H63194  10.132   2.172   2.660  1.0785 -0.4128  0.9211
  458MOL0     H63195  10.006   2.057   2.611 -0.8225  0.5876 -0.6005
  458MOL0     H63196  10.119   1.889   2.711 -0.5179 -1.4312  2.8841
  458MOL0     H63197  10.247   2.014   2.760  0.5362 -0.0783 -0.9181
  458MOL0     H63198   9.992   1.947   2.910 -0.0668 -2.0963 -0.1465
  458MOL0     H63199  10.117   2.047   2.980  0.2046  1.2805 -1.8605
  458MOL0     H63200  10.322   1.678   2.982 -1.2820 -2.1425 -3.6326
  458MOL0     H63201   9.771   2.356   2.722 -1.2683  0.9539  0.1509
  458MOL0     H63202   9.450   2.503   2.627 -0.8009 -1.4614  4.3023
  458MOL0     H63203   9.604   2.541   2.717  1.9338 -1.4404  0.6324
  458MOL0     H63204   9.599   2.496   2.541 -0.0430 -0.5826  0.4470
  459MOL0     O63205   8.757   6.637   3.499  0.0799 -0.0947  0.1590
  459MOL0     C63206   8.853   6.680   3.563 -0.6468 -0.1355  0.1272
  459MOL0     O63207   8.983   6.678   3.525 -0.1920  0.7809 -0.0432
  459MOL0     C63208   9.014   6.658   3.392 -0.6504 -0.1962 -0.6031
  459MOL0     C63209   8.963   6.729   3.291 -0.0291 -0.2322  0.9797
  459MOL0     C63210   9.011   6.701   3.158  0.1975  0.2056 -0.4971
  459MOL0     C63211   9.109   6.600   3.140 -0.1063  0.6085 -0.6157
  459MOL0     O63212   9.137   6.578   3.010  0.7251 -0.4020 -0.6813
  459MOL0     C63213   9.178   6.442   2.985  1.0187  0.3529  0.5763
  459MOL0     C63214   9.117   6.397   2.845 -0.2070 -0.4258  0.0910
  459MOL0     C63215   9.189   6.485   2.739 -0.2109  0.5126 -0.8342
  459MOL0     C63216   9.098   6.475   2.616 -0.5403 -0.0559 -0.3844
  459MOL0     C63217   9.176   6.548   2.500 -0.4731  0.5749 -0.5092
  459MOL0     C63218   9.225   6.695   2.528  0.1281  0.4877 -0.6257
  459MOL0     C63219   9.277   6.736   2.386 -0.4543  0.6670  0.0978
  459MOL0     C63220   9.308   6.885   2.385 -0.2419  0.5896  0.3460
  459MOL0     N63221   9.389   6.911   2.263  0.5248 -0.5438 -0.7236
  459MOL0     C63222   9.352   6.876   2.133  1.0701 -0.0952  0.4024
  459MOL0     C63223   9.465   6.909   2.063  1.3541  0.2793  0.5924
  459MOL0     C63224   9.487   6.919   1.915  0.5895  0.9426 -0.1038
  459MOL0     C63225   9.411   7.029   1.858  0.2087 -0.4702 -0.3667
  459MOL0     C63226   9.383   7.010   1.709  0.0761  0.4449  0.5587
  459MOL0     C63227   9.323   7.144   1.651 -0.8012  0.3081 -0.1208
  459MOL0     O63228   9.180   7.152   1.672  0.3691 -1.0377  0.0818
  459MOL0     C63229   9.113   7.273   1.685  0.5172 -0.1616  0.7739
  459MOL0     C63230   9.149   7.394   1.613 -0.5648 -0.3090  0.2626
  459MOL0     C63231   9.073   7.515   1.616  0.0924 -0.4767 -0.4419
  459MOL0     C63232   9.122   7.627   1.535  0.0870  0.5252  0.3031
  459MOL0     C63233   8.944   7.509   1.683  0.9860  0.6243 -1.3339
  459MOL0     C63234   8.838   7.612   1.690 -0.4659 -0.1093 -0.2928
  459MOL0     O63235   8.717   7.576   1.747 -0.1439 -0.1623 -0.1317
  459MOL0     C63236   8.616   7.675   1.748 -0.1534 -0.7966 -0.5450
  459MOL0     C63237   8.496   7.652   1.694 -0.0471  0.6213 -0.2013
  459MOL0     C63238   8.398   7.750   1.702 -0.0698  0.0789  1.7167
  459MOL0     C63239   8.411   7.878   1.761  0.1298  0.5826 -0.2371
  459MOL0     O63240   8.294   7.961   1.765 -0.5526 -0.4246 -0.5899
  459MOL0     C63241   8.163   7.910   1.750 -0.6184 -0.0798  0.0766
  459MOL0     C63242   8.100   7.943   1.608  0.3792 -0.3655 -0.5565
  459MOL0     C63243   8.095   8.093   1.577  0.2349 -0.0790 -0.0615
  459MOL0     C63244   7.957   8.143   1.535 -0.1363  0.4248 -0.6222
  459MOL0     C63245   7.980   8.289   1.512  0.3661 -0.8263 -0.3689
  459MOL0     C63246   7.861   8.353   1.438 -0.1201  0.2386 -0.0086
  459MOL0     C63247   7.828   8.281   1.310 -0.1947 -0.6763 -0.6537
  459MOL0     C63248   7.703   8.343   1.249  0.5642 -0.2810 -0.2342
  459MOL0    Cl63249   7.668   8.280   1.083 -0.2757  0.2603 -0.1224
  459MOL0     C63250   8.535   7.909   1.804  0.1491 -0.2859  0.1675
  459MOL0     C63251   8.635   7.798   1.796  0.2555 -0.7321 -0.7641
  459MOL0     O63252   8.872   7.724   1.645  0.3372 -0.2352 -0.9438
  459MOL0     C63253   8.912   7.393   1.763  0.2289 -0.3386 -0.2095
  459MOL0     C63254   8.989   7.274   1.751 -0.2692 -0.2936 -0.1136
  459MOL0     N63255   9.558   6.964   2.143  0.0412 -0.1128 -0.3563
  459MOL0     N63256   9.508   6.975   2.261 -0.2538  0.4903  0.4475
  459MOL0     C63257   9.175   6.547   3.249  0.5143 -0.1006  0.0166
  459MOL0     C63258   9.128   6.575   3.378 -0.1911  1.0877  0.7784
  459MOL0     C63259   8.830   6.730   3.701  0.4904 -0.6739 -0.7825
  459MOL0     C63260   8.721   6.811   3.712  0.2994 -0.5030 -0.4031
  459MOL0     C63261   8.677   6.845   3.841 -0.4075 -0.7491  0.7302
  459MOL0     C63262   8.755   6.807   3.956  0.0693 -0.5394  0.4580
  459MOL0     O63263   8.707   6.854   4.074  0.0015  0.3392  0.7481
  459MOL0     C63264   8.780   6.853   4.192 -1.3939  0.4315 -0.3858
  459MOL0     C63265   8.692   6.905   4.302 -1.1317 -0.0313  0.3787
  459MOL0     C63266   8.580   6.805   4.340 -0.0052 -0.2603  0.2944
  459MOL0     C63267   8.486   6.846   4.467  0.2958  0.8889 -1.3209
  459MOL0     C63268   8.414   6.959   4.416  0.2869 -0.4096 -0.4685
  459MOL0     C63269   8.341   7.051   4.393  0.0174  0.5216  0.2193
  459MOL0     C63270   8.862   6.720   3.936 -0.2325  0.2990  0.3691
  459MOL0     C63271   8.899   6.678   3.815  0.4233 -1.0903 -0.3290
  459MOL0     C63272   9.013   6.575   3.798  0.2821  0.9217  0.2066
  459MOL0     H63273   8.879   6.795   3.310 -0.3217  0.1707 -1.4325
  459MOL0     H63274   8.966   6.745   3.070  1.0722 -2.3143 -2.3328
  459MOL0     H63275   9.125   6.378   3.056 -0.2638  0.3126 -0.3961
  459MOL0     H63276   9.287   6.428   2.983  0.8526 -1.3450 -2.0779
  459MOL0     H63277   9.121   6.289   2.831  0.5148 -0.2146 -1.6786
  459MOL0     H63278   9.011   6.424   2.844 -0.0332  0.2848  0.1901
  459MOL0     H63279   9.202   6.590   2.765  1.3791 -0.2021  1.6607
  459MOL0     H63280   9.282   6.431   2.719 -2.1652 -4.4751  1.7318
  459MOL0     H63281   9.072   6.373   2.586 -1.7041  0.0741  0.1275
  459MOL0     H63282   9.005   6.528   2.639  0.3964  1.7775 -0.6790
  459MOL0     H63283   9.119   6.542   2.407 -0.6078 -2.6186 -0.3560
  459MOL0     H63284   9.269   6.495   2.477  0.6617  0.8771  2.9077
  459MOL0     H63285   9.144   6.755   2.571  1.2422 -0.2966  2.9088
  459MOL0     H63286   9.308   6.698   2.600 -0.7618  2.5601  0.4067
  459MOL0     H63287   9.202   6.724   2.308  1.3116  1.1997 -1.7689
  459MOL0     H63288   9.370   6.688   2.356  0.3954  1.8672  0.7151
  459MOL0     H63289   9.211   6.933   2.373 -0.0159  1.5151  1.9363
  459MOL0     H63290   9.351   6.922   2.478 -1.6790  3.6575 -0.1053
  459MOL0     H63291   9.274   6.815   2.089  1.9650 -1.2871  0.4161
  459MOL0     H63292   9.457   6.829   1.861 -1.1996  1.9113 -0.8334
  459MOL0     H63293   9.596   6.916   1.906  0.7510 -0.5864  1.6622
  459MOL0     H63294   9.317   7.040   1.912  0.6346  2.3174 -0.0284
  459MOL0     H63295   9.456   7.128   1.871  1.3071 -0.0306 -5.5316
  459MOL0     H63296   9.474   6.992   1.649 -1.3591  1.1649 -2.0077
  459MOL0     H63297   9.313   6.930   1.686  0.6452  0.1463 -0.1966
  459MOL0     H63298   9.363   7.229   1.708  0.0377  2.3345 -3.4400
  459MOL0     H63299   9.360   7.179   1.554 -3.0886  0.5691 -0.9629
  459MOL0     H63300   9.247   7.401   1.568  0.4714  0.6101  2.5346
  459MOL0     H63301   9.231   7.624   1.524  0.1377  3.2360 -0.9220
  459MOL0     H63302   9.098   7.722   1.584 -1.7155  2.3880 -3.7256
  459MOL0     H63303   9.079   7.623   1.434  3.5654  0.5038 -1.3213
  459MOL0     H63304   8.469   7.556   1.654 -2.5268 -2.6930  7.4674
  459MOL0     H63305   8.300   7.728   1.661 -0.6873  0.0072  3.1707
  459MOL0     H63306   8.154   7.802   1.763 -4.1031  0.2052  0.8434
  459MOL0     H63307   8.113   7.954   1.836  3.1016  2.6746  1.1001
  459MOL0     H63308   8.165   7.901   1.530  2.6359 -1.0947  1.5940
  459MOL0     H63309   8.000   7.904   1.586  0.1282  0.1369 -0.3269
  459MOL0     H63310   8.168   8.106   1.496  0.2250 -1.3387 -0.2894
  459MOL0     H63311   8.121   8.153   1.665  3.9810 -0.8772 -0.4502
  459MOL0     H63312   7.892   8.107   1.615 -0.2000  2.2693  0.2165
  459MOL0     H63313   7.929   8.094   1.441  1.0673 -1.6251  0.0282
  459MOL0     H63314   8.005   8.335   1.609 -0.9190 -1.7579  0.4368
  459MOL0     H63315   8.075   8.298   1.458  1.7411 -0.2770  1.9679
  459MOL0     H63316   7.892   8.456   1.417 -4.1918  1.0884 -3.2146
  459MOL0     H63317   7.777   8.363   1.506 -0.2658 -0.4160 -0.0820
  459MOL0     H63318   7.814   8.172   1.301 -2.1370 -0.3737 -1.9675
  459MOL0     H63319   7.906   8.317   1.244 -0.6781  3.0731  0.6093
  459MOL0     H63320   7.692   8.451   1.241  0.4031 -0.2383  0.4850
  459MOL0     H63321   7.629   8.327   1.327  2.6772  0.8115  2.1604
  459MOL0     H63322   8.555   8.009   1.840  2.5453  0.4094 -2.7037
  459MOL0     H63323   8.736   7.824   1.825 -0.5203  2.0046 -0.2391
  459MOL0     H63324   8.817   7.382   1.816  1.0984 -0.0165  1.4766
  459MOL0     H63325   8.962   7.179   1.796  2.1872 -0.7241  0.5781
  459MOL0     H63326   9.253   6.474   3.233  1.3267  0.6906  0.3048
  459MOL0     H63327   9.184   6.540   3.464  1.4918  1.0480 -0.2927
  459MOL0     H63328   8.660   6.836   3.625  1.9043  2.9176 -0.7079
  459MOL0     H63329   8.583   6.896   3.853 -0.7461 -1.8879  3.7600
  459MOL0     H63330   8.815   6.752   4.214  0.1155  0.4897 -2.2905
  459MOL0     H63331   8.871   6.914   4.196  0.9509 -2.8707  1.7521
  459MOL0     H63332   8.650   7.002   4.274  2.3130  1.6293  0.5280
  459MOL0     H63333   8.753   6.917   4.391  3.4315 -6.1217 -1.2256
  459MOL0     H63334   8.515   6.797   4.252 -1.1459  6.3567 -0.0433
  459MOL0     H63335   8.610   6.703   4.362 -0.1363 -0.6218 -1.0719
  459MOL0     H63336   8.540   6.875   4.558  0.3219  0.2138 -1.1150
  459MOL0     H63337   8.424   6.762   4.501 -3.0553  4.4946  2.6275
  459MOL0     H63338   8.262   7.122   4.382  0.3198  0.6335 -1.6117
  459MOL0     H63339   8.917   6.694   4.026 -1.0948 -0.7399  0.6240
  459MOL0     H63340   9.050   6.553   3.899 -1.9544  0.0208  0.9040
  459MOL0     H63341   8.980   6.479   3.756  4.0602 -1.2793  1.6815
  459MOL0     H63342   9.089   6.611   3.729  0.3263 -1.0912 -0.8812
  460MOL0     O63343   5.920   6.387  10.178  0.1251  0.1399 -0.2293
  460MOL0     C63344   6.001   6.475  10.209 -2.0366  0.0026  0.5978
  460MOL0     O63345   6.034   6.515  10.339  0.0345  0.0205 -1.0160
  460MOL0     C63346   5.922   6.551  10.418 -0.5386  0.1279  0.1293
  460MOL0     C63347   5.939   6.554  10.561 -0.8071 -0.4949 -0.2226
  460MOL0     C63348   5.832   6.591  10.648 -0.3106  0.8487  0.8840
  460MOL0     C63349   5.707   6.616  10.599  0.4699 -0.8708  0.1017
  460MOL0     O63350   5.598   6.633  10.690  0.6721  0.0885  0.0650
  460MOL0     C63351   5.469   6.562  10.685 -0.9360  0.8071 -0.4380
  460MOL0     C63352   5.452   6.455  10.794 -0.3807  0.2048 -0.4650
  460MOL0     C63353   5.324   6.362  10.780  0.3327 -0.1816 -0.1487
  460MOL0     C63354   5.199   6.438  10.757  0.2993 -0.4832 -0.7073
  460MOL0     C63355   5.103   6.357  10.668  0.6006 -0.4251 -0.7073
  460MOL0     C63356   4.980   6.437  10.630  0.0206  0.2544 -0.8955
  460MOL0     C63357   4.901   6.355  10.521 -0.2358  0.4094 -0.1472
  460MOL0     C63358   4.833   6.223  10.564 -0.5673  0.6445  0.6342
  460MOL0     N63359   4.767   6.151  10.451  0.1679  0.2192 -0.3088
  460MOL0     C63360   4.832   6.049  10.388 -0.4446  0.2663  0.7618
  460MOL0     C63361   4.769   6.034  10.263 -1.4973  0.3653 -1.1783
  460MOL0     C63362   4.801   5.926  10.158 -0.6558 -0.5041  0.1814
  460MOL0     C63363   4.941   5.940  10.096  0.3377  0.2823 -0.2632
  460MOL0     C63364   4.950   5.883   9.955 -0.0869 -0.6990 -0.2370
  460MOL0     C63365   5.085   5.842   9.894 -0.1315 -0.0597  0.4136
  460MOL0     O63366   5.129   5.734   9.976  0.4001  0.2081 -0.9293
  460MOL0     C63367   5.139   5.609   9.915  1.0319  0.0295 -0.2664
  460MOL0     C63368   5.128   5.584   9.772 -0.2677 -0.1376  0.0923
  460MOL0     C63369   5.156   5.456   9.721 -0.1973 -0.5808 -0.6698
  460MOL0     C63370   5.159   5.451   9.580  0.5960  0.1459  0.6151
  460MOL0     C63371   5.165   5.349   9.812 -1.2102 -0.6124  1.0886
  460MOL0     C63372   5.185   5.213   9.761 -0.7143  0.2067 -0.7706
  460MOL0     O63373   5.274   5.137   9.838  0.3899  0.1811 -0.5675
  460MOL0     C63374   5.279   5.010   9.802  0.5303  0.2960  0.4439
  460MOL0     C63375   5.190   4.909   9.864 -0.2056 -1.1673  0.0695
  460MOL0     C63376   5.203   4.777   9.828 -0.1922  0.9342 -0.3852
  460MOL0     C63377   5.275   4.728   9.720 -0.1105 -0.5036  0.0414
  460MOL0     O63378   5.280   4.595   9.687  0.4553  1.2051 -0.0022
  460MOL0     C63379   5.147   4.522   9.683 -0.3580  0.3762  0.0485
  460MOL0     C63380   5.051   4.580   9.577 -0.2212  0.1559 -0.2492
  460MOL0     C63381   4.935   4.492   9.543  0.1706 -0.1869  0.6343
  460MOL0     C63382   4.963   4.420   9.413  0.2742  0.1888 -0.2978
  460MOL0     C63383   4.865   4.306   9.376  0.3847 -0.6929 -0.7636
  460MOL0     C63384   4.916   4.222   9.258 -0.4410 -0.4261  0.1112
  460MOL0     C63385   4.812   4.122   9.220 -0.2531  0.0708  0.1680
  460MOL0     C63386   4.826   4.087   9.078 -0.6875  0.6780 -0.1709
  460MOL0    Cl63387   4.746   4.194   8.960 -0.1284  0.1931  0.0413
  460MOL0     C63388   5.350   4.825   9.651  0.3392 -0.0213 -0.0539
  460MOL0     C63389   5.359   4.967   9.694  0.0057  0.1376 -0.2184
  460MOL0     O63390   5.120   5.169   9.667  0.0846 -0.5584 -0.1885
  460MOL0     C63391   5.167   5.372   9.949 -0.3463 -0.1965 -0.1790
  460MOL0     C63392   5.161   5.498  10.003 -0.5334  0.0204 -0.0015
  460MOL0     N63393   4.676   6.134  10.247 -0.1302 -0.4547 -0.1155
  460MOL0     N63394   4.675   6.197  10.358  0.7582 -0.2970 -0.8352
  460MOL0     C63395   5.688   6.599  10.460 -0.3426 -0.1889  0.3041
  460MOL0     C63396   5.790   6.571  10.371 -0.3344 -0.5958 -0.1477
  460MOL0     C63397   6.092   6.518  10.089 -0.9629 -0.1786  0.2376
  460MOL0     C63398   6.235   6.539  10.118  0.8178 -0.3237 -1.1255
  460MOL0     C63399   6.321   6.574  10.020 -0.4885  0.0600  0.5302
  460MOL0     C63400   6.272   6.579   9.888 -0.2097 -0.1469 -0.2680
  460MOL0     O63401   6.363   6.615   9.796 -0.2399  0.2319  0.2692
  460MOL0     C63402   6.385   6.756   9.777 -0.4568  0.3603 -0.0035
  460MOL0     C63403   6.491   6.769   9.671  0.2828 -0.1263 -0.3708
  460MOL0     C63404   6.627   6.778   9.745 -0.1634  1.0081 -0.1858
  460MOL0     C63405   6.746   6.746   9.651  0.6951 -0.1179  0.5439
  460MOL0     C63406   6.880   6.744   9.716  0.2711 -0.0488  0.8387
  460MOL0     C63407   6.995   6.745   9.766  0.4835 -0.2679  0.2555
  460MOL0     C63408   6.142   6.546   9.853  0.6962  0.1785  0.1471
  460MOL0     C63409   6.047   6.526   9.953  1.2185  0.2454  0.9992
  460MOL0     C63410   5.900   6.508   9.908 -0.4406  1.0158 -1.2247
  460MOL0     H63411   6.033   6.528  10.608  0.2617  1.2741 -1.3161
  460MOL0     H63412   5.844   6.597  10.756  0.3471  2.5637  0.7479
  460MOL0     H63413   5.465   6.505  10.591  1.5975 -3.5027  1.7502
  460MOL0     H63414   5.392   6.637  10.702  0.4576  2.6134 -1.7663
  460MOL0     H63415   5.539   6.389  10.786  0.7116  1.7963 -3.1213
  460MOL0     H63416   5.443   6.507  10.889  1.6915 -0.3066  0.0529
  460MOL0     H63417   5.352   6.301  10.694 -0.4851  1.2046 -1.4282
  460MOL0     H63418   5.311   6.293  10.865  1.0874  1.6512  1.5413
  460MOL0     H63419   5.146   6.473  10.846  2.5510  1.2772  0.0059
  460MOL0     H63420   5.219   6.528  10.698 -0.6495  0.3769  0.2489
  460MOL0     H63421   5.069   6.270  10.724 -2.4451  1.0638 -0.0361
  460MOL0     H63422   5.150   6.329  10.573  5.5723  1.1108  0.9638
  460MOL0     H63423   4.922   6.439  10.722  0.0663  0.5232 -0.8731
  460MOL0     H63424   4.997   6.539  10.595  3.4536  0.5313  1.0984
  460MOL0     H63425   4.955   6.348  10.426  3.9782  2.0592  1.8497
  460MOL0     H63426   4.823   6.426  10.493  1.7640  2.3938 -0.9566
  460MOL0     H63427   4.905   6.160  10.617 -0.2632  1.6721  1.4706
  460MOL0     H63428   4.751   6.243  10.634 -1.7995 -1.2997 -0.1582
  460MOL0     H63429   4.918   5.988  10.416 -1.6962 -1.8182  0.3026
  460MOL0     H63430   4.723   5.939  10.082  0.4626  1.8632 -0.6569
  460MOL0     H63431   4.780   5.822  10.186  2.1418 -1.8618 -2.2408
  460MOL0     H63432   4.968   6.046  10.099 -0.4721  0.5680 -1.9081
  460MOL0     H63433   5.023   5.894  10.152  0.0607  2.3075  1.9616
  460MOL0     H63434   4.889   5.794   9.940 -0.5374 -0.3422 -0.5672
  460MOL0     H63435   4.907   5.961   9.891 -2.1624 -1.4443  0.1770
  460MOL0     H63436   5.050   5.826   9.792 -4.3727 -0.1714  1.6744
  460MOL0     H63437   5.164   5.917   9.884  1.4863 -1.8810 -1.4733
  460MOL0     H63438   5.106   5.668   9.708 -1.2968 -1.6540 -1.6627
  460MOL0     H63439   5.235   5.374   9.566  0.5299 -0.0944  1.5064
  460MOL0     H63440   5.191   5.540   9.526  2.3711 -1.6301 -1.4797
  460MOL0     H63441   5.062   5.429   9.534  2.3174 -2.5259 -2.1494
  460MOL0     H63442   5.119   4.944   9.939 -0.7986 -1.2551 -0.4429
  460MOL0     H63443   5.142   4.711   9.889  2.7215 -2.5080 -0.8990
  460MOL0     H63444   5.177   4.422   9.650  1.6213 -0.5435  4.0099
  460MOL0     H63445   5.101   4.524   9.783  1.4151  2.6115  0.9256
  460MOL0     H63446   5.013   4.667   9.631 -0.0212 -1.3485  2.5055
  460MOL0     H63447   5.118   4.609   9.496  0.7389 -1.0059  0.0936
  460MOL0     H63448   4.851   4.561   9.531  2.1704  2.1128 -1.0207
  460MOL0     H63449   4.902   4.411   9.610  0.9425 -1.4771 -0.4887
  460MOL0     H63450   5.051   4.370   9.451  0.4862  1.7385  1.3748
  460MOL0     H63451   4.981   4.493   9.333 -0.9171  0.4011 -0.3939
  460MOL0     H63452   4.832   4.244   9.460 -0.5906  0.9530  0.1142
  460MOL0     H63453   4.772   4.360   9.356  1.0837  0.2498 -1.5644
  460MOL0     H63454   5.006   4.174   9.296 -0.2595  0.4591  0.8287
  460MOL0     H63455   4.938   4.299   9.183  0.7991  0.1428  1.0291
  460MOL0     H63456   4.712   4.164   9.233 -0.5428 -0.6093  0.1949
  460MOL0     H63457   4.824   4.034   9.285 -1.5693 -0.1120  0.2002
  460MOL0     H63458   4.798   3.983   9.061  0.2613  0.5837 -1.3367
  460MOL0     H63459   4.935   4.096   9.073 -0.3240 -0.0050  3.6002
  460MOL0     H63460   5.404   4.790   9.564  1.6318  0.4092  0.5508
  460MOL0     H63461   5.434   5.034   9.653  0.5268  0.5866  1.4087
  460MOL0     H63462   5.182   5.292  10.021  0.5177  1.1671  1.2131
  460MOL0     H63463   5.174   5.508  10.111 -1.3925 -1.3544  0.2562
  460MOL0     H63464   5.588   6.614  10.422 -0.4774 -1.9642 -0.0949
  460MOL0     H63465   5.772   6.563  10.264 -0.2649  2.7424 -0.4979
  460MOL0     H63466   6.277   6.536  10.218 -2.0134 -1.9418  0.1390
  460MOL0     H63467   6.427   6.581  10.038 -0.7857  0.8234  2.1537
  460MOL0     H63468   6.295   6.805   9.738  1.1321  6.8346  3.0830
  460MOL0     H63469   6.413   6.804   9.870 -0.7559  3.2469 -1.2999
  460MOL0     H63470   6.481   6.864   9.618  4.3562  1.3517  1.1529
  460MOL0     H63471   6.491   6.686   9.599 -0.8828  1.7484 -2.6558
  460MOL0     H63472   6.658   6.869   9.798 -1.6074 -1.0551  4.7557
  460MOL0     H63473   6.612   6.699   9.818 -2.0240  1.0276 -0.4897
  460MOL0     H63474   6.734   6.817   9.569 -1.0136 -1.2611 -0.2718
  460MOL0     H63475   6.726   6.659   9.587 -3.3022  0.8556  0.2090
  460MOL0     H63476   7.093   6.739   9.809  0.4929 -1.2305  0.1372
  460MOL0     H63477   6.104   6.540   9.752 -2.9651  0.8705  1.3515
  460MOL0     H63478   5.871   6.569   9.822 -0.3432  0.2572 -1.8093
  460MOL0     H63479   5.887   6.402   9.885 -1.7661 -0.0204  3.3147
  460MOL0     H63480   5.829   6.521   9.990  0.8587 -0.1139  0.1246
  461MOL0     O63481   3.752  10.944   7.049  0.1119 -0.2432 -0.6183
  461MOL0     C63482   3.746  10.867   7.146 -0.0397  0.3664 -0.4847
  461MOL0     O63483   3.630  10.795   7.177 -0.1252 -0.0173 -0.5344
  461MOL0     C63484   3.516  10.832   7.111  0.4433  0.7038  0.8035
  461MOL0     C63485   3.462  10.733   7.020  0.1028  0.1019  0.1651
  461MOL0     C63486   3.355  10.765   6.936  0.7941 -0.5406  0.8073
  461MOL0     C63487   3.305  10.901   6.931  0.2075  0.1371  0.0364
  461MOL0     O63488   3.218  10.932   6.823 -0.1448  0.2704  0.6477
  461MOL0     C63489   3.151  11.057   6.825 -0.4681 -0.2963 -0.3803
  461MOL0     C63490   3.048  11.062   6.715  0.5401 -0.5667  1.0202
  461MOL0     C63491   2.993  11.212   6.697  0.0707  0.9514  0.2612
  461MOL0     C63492   2.879  11.236   6.785 -0.6787 -0.1134  0.0060
  461MOL0     C63493   2.796  11.350   6.719  1.1696  0.1961 -0.4876
  461MOL0     C63494   2.689  11.388   6.815  0.4161  0.1055  0.6103
  461MOL0     C63495   2.578  11.282   6.842 -0.0027  0.2561 -0.2918
  461MOL0     C63496   2.491  11.316   6.954 -0.4662 -0.2404 -0.3278
  461MOL0     N63497   2.379  11.230   6.980 -0.1756  1.4194  0.0868
  461MOL0     C63498   2.296  11.180   6.884 -0.7533  0.1140 -1.0749
  461MOL0     C63499   2.218  11.090   6.949  0.6546  0.4475 -0.2300
  461MOL0     C63500   2.128  10.989   6.891 -0.0710 -0.6612  0.2043
  461MOL0     C63501   1.981  11.019   6.920 -0.0117  0.3707 -0.5661
  461MOL0     C63502   1.875  10.953   6.825 -0.9939  0.1918  0.8492
  461MOL0     C63503   1.727  10.956   6.890 -0.2333 -0.0965  0.2576
  461MOL0     O63504   1.625  10.938   6.798 -0.4502  0.3269 -0.1766
  461MOL0     C63505   1.623  10.823   6.717 -0.0590  1.0676  0.7254
  461MOL0     C63506   1.538  10.830   6.608 -0.3846 -0.4744 -0.9809
  461MOL0     C63507   1.515  10.728   6.511  0.9110 -0.4358 -0.1302
  461MOL0     C63508   1.413  10.759   6.406  0.3771 -0.6589 -0.7026
  461MOL0     C63509   1.598  10.609   6.522 -0.0919 -0.7376  0.2273
  461MOL0     C63510   1.595  10.494   6.425 -0.4910  0.4229  0.7007
  461MOL0     O63511   1.477  10.485   6.365 -0.2215  0.4390 -0.3435
  461MOL0     C63512   1.429  10.385   6.283  0.5052 -0.0118  0.3266
  461MOL0     C63513   1.304  10.407   6.225 -0.1853  0.3353  0.4650
  461MOL0     C63514   1.232  10.313   6.152  1.0580  0.2912  0.5056
  461MOL0     C63515   1.280  10.190   6.126  0.1597  1.4997 -0.5847
  461MOL0     O63516   1.218  10.103   6.043  0.2118 -0.2509 -0.7481
  461MOL0     C63517   1.264   9.971   6.029 -0.1981 -0.2954 -0.3471
  461MOL0     C63518   1.161   9.902   5.922 -0.0254 -0.2116 -0.2722
  461MOL0     C63519   1.214   9.776   5.861  0.1916 -0.2160 -0.1305
  461MOL0     C63520   1.102   9.706   5.788 -0.1894  0.4326 -0.5695
  461MOL0     C63521   1.135   9.560   5.794  0.6334  0.5195  0.4499
  461MOL0     C63522   1.260   9.521   5.712  0.0322 -0.3948  0.0564
  461MOL0     C63523   1.262   9.382   5.640 -0.8441 -0.7583  0.0279
  461MOL0     C63524   1.402   9.354   5.588 -0.6956  0.1264 -0.4011
  461MOL0    Cl63525   1.420   9.188   5.528 -0.0564  0.1105 -0.0679
  461MOL0     C63526   1.408  10.161   6.182  0.2123  0.1473 -0.6353
  461MOL0     C63527   1.479  10.248   6.275  0.1292 -0.2713 -0.0846
  461MOL0     O63528   1.675  10.398   6.443  0.6963  0.5238  0.9039
  461MOL0     C63529   1.694  10.601   6.629 -0.8736 -1.2602  0.3907
  461MOL0     C63530   1.702  10.707   6.726  0.3338  0.4463 -0.2264
  461MOL0     N63531   2.240  11.113   7.092 -0.4912  0.5111  0.3626
  461MOL0     N63532   2.342  11.188   7.104 -0.0736  0.1070  0.1914
  461MOL0     C63533   3.351  10.993   7.029 -1.0561 -0.1004 -0.0864
  461MOL0     C63534   3.459  10.958   7.110 -0.7914 -0.4963  0.3998
  461MOL0     C63535   3.869  10.828   7.217  1.0901  0.6522  0.6489
  461MOL0     C63536   3.869  10.708   7.288  0.2316  0.7565  0.2637
  461MOL0     C63537   3.974  10.665   7.368 -0.3332  0.3139  0.4027
  461MOL0     C63538   4.091  10.747   7.384 -0.9290  0.4784 -0.1944
  461MOL0     O63539   4.207  10.727   7.461 -0.4585  0.8835 -0.7523
  461MOL0     C63540   4.194  10.595   7.531 -1.0589 -0.9306  0.0346
  461MOL0     C63541   4.322  10.562   7.625 -0.2096 -0.4645  0.3065
  461MOL0     C63542   4.442  10.527   7.541  0.4623 -0.6712  0.2069
  461MOL0     C63543   4.488  10.633   7.448 -0.2447  0.3326 -0.2170
  461MOL0     C63544   4.611  10.573   7.374  0.2059  0.6567 -0.9420
  461MOL0     C63545   4.713  10.539   7.312 -0.3178 -0.3822 -0.2760
  461MOL0     C63546   4.098  10.861   7.301 -0.0032  0.9748 -1.0295
  461MOL0     C63547   3.990  10.905   7.220  0.0627  0.7820 -0.2593
  461MOL0     C63548   4.016  11.030   7.148  0.3005 -0.2566  1.0683
  461MOL0     H63549   3.494  10.631   7.035 -1.7717 -0.6675 -0.7488
  461MOL0     H63550   3.325  10.693   6.861  4.4572 -0.6935 -0.7374
  461MOL0     H63551   3.216  11.143   6.805 -1.0146 -0.3873 -2.8137
  461MOL0     H63552   3.111  11.068   6.926 -0.3369  0.7557 -0.4343
  461MOL0     H63553   3.105  11.041   6.625  2.4567  0.7942  1.8563
  461MOL0     H63554   2.974  10.989   6.749 -0.4014  0.9313  2.3979
  461MOL0     H63555   3.076  11.279   6.720 -0.6390  2.5410 -1.5328
  461MOL0     H63556   2.961  11.226   6.594 -1.7231  0.8228  0.7673
  461MOL0     H63557   2.825  11.141   6.787  1.7519 -1.5883 -0.7298
  461MOL0     H63558   2.912  11.262   6.886  2.1053 -2.6889 -0.1064
  461MOL0     H63559   2.752  11.316   6.625  0.5792 -0.6988  0.0880
  461MOL0     H63560   2.861  11.432   6.689 -0.3984  0.2080 -4.4373
  461MOL0     H63561   2.736  11.424   6.907  3.8833 -1.7081 -0.3051
  461MOL0     H63562   2.634  11.470   6.768  0.2225 -0.4166 -0.0985
  461MOL0     H63563   2.633  11.188   6.854  1.3213  1.0063 -0.2708
  461MOL0     H63564   2.515  11.258   6.756 -1.5029  0.6357  0.6798
  461MOL0     H63565   2.549  11.321   7.047 -0.6368 -1.1605 -0.1649
  461MOL0     H63566   2.452  11.415   6.931  1.6733  0.9420  0.8208
  461MOL0     H63567   2.309  11.194   6.777  2.3026  4.3360 -0.4298
  461MOL0     H63568   2.155  10.893   6.938  2.2941 -1.0602 -1.7901
  461MOL0     H63569   2.148  10.991   6.784 -0.6182 -0.0376  0.1128
  461MOL0     H63570   1.956  10.994   7.024 -2.3658  4.1682 -0.0247
  461MOL0     H63571   1.961  11.126   6.911  1.3722  0.7034  0.0531
  461MOL0     H63572   1.865  11.019   6.738 -2.1962 -0.7140  0.2655
  461MOL0     H63573   1.907  10.854   6.791  1.6075  1.6160 -1.2266
  461MOL0     H63574   1.720  10.872   6.959 -2.8961 -1.4961 -1.5105
  461MOL0     H63575   1.721  11.050   6.947  2.4076  0.3354 -0.0855
  461MOL0     H63576   1.488  10.927   6.605  1.2882  0.4916  0.5331
  461MOL0     H63577   1.321  10.706   6.435  1.2756 -0.5099  2.9190
  461MOL0     H63578   1.435  10.725   6.305 -0.8635 -1.0413 -0.8635
  461MOL0     H63579   1.412  10.867   6.388  0.2308 -0.4065  0.6682
  461MOL0     H63580   1.254  10.499   6.254  1.2223  1.8564 -1.6343
  461MOL0     H63581   1.133  10.347   6.121  2.8958  2.6133 -3.6016
  461MOL0     H63582   1.364   9.976   5.984 -0.2005  4.4129 -0.3254
  461MOL0     H63583   1.256   9.921   6.126 -2.5909  2.0839  0.8297
  461MOL0     H63584   1.071   9.877   5.979  0.9995  0.6391  1.8168
  461MOL0     H63585   1.119   9.975   5.851 -0.0555  3.2912  3.0155
  461MOL0     H63586   1.241   9.721   5.952 -2.0168 -0.6338  0.3159
  461MOL0     H63587   1.297   9.806   5.796 -0.7043  4.2003  0.3827
  461MOL0     H63588   1.097   9.740   5.684 -4.0625 -1.0645 -1.0291
  461MOL0     H63589   1.000   9.735   5.816 -1.1406  1.0513 -4.1566
  461MOL0     H63590   1.150   9.527   5.897  4.4072 -3.1319 -0.9962
  461MOL0     H63591   1.044   9.511   5.757 -0.3089  0.4943  2.6655
  461MOL0     H63592   1.349   9.532   5.775 -0.2698 -1.5000  0.7051
  461MOL0     H63593   1.264   9.588   5.626 -0.5258  0.9109  1.0142
  461MOL0     H63594   1.204   9.381   5.548  2.9866 -1.9962 -2.5929
  461MOL0     H63595   1.227   9.305   5.709 -1.7112  1.9386  2.8707
  461MOL0     H63596   1.486   9.374   5.655  0.4696  1.9797 -2.2952
  461MOL0     H63597   1.427   9.424   5.508  3.2971 -0.0417  0.5190
  461MOL0     H63598   1.453  10.067   6.152 -0.4603 -0.2421 -0.4540
  461MOL0     H63599   1.571  10.213   6.319 -0.0365 -1.3022 -0.5418
  461MOL0     H63600   1.758  10.513   6.635 -1.3716 -1.5671  1.5214
  461MOL0     H63601   1.768  10.685   6.809 -0.8518 -2.9720 -0.0205
  461MOL0     H63602   3.307  11.092   7.043  1.7050  0.9545  1.7980
  461MOL0     H63603   3.505  11.026   7.181 -2.2280 -0.5432  1.4160
  461MOL0     H63604   3.793  10.636   7.257  0.7253 -0.9509  2.7168
  461MOL0     H63605   3.960  10.571   7.423  3.9089  0.0699  1.4179
  461MOL0     H63606   4.107  10.608   7.597 -1.0030  3.6731 -0.4825
  461MOL0     H63607   4.178  10.524   7.450  2.2345 -0.8765 -0.8275
  461MOL0     H63608   4.297  10.466   7.671  0.3422 -1.4426 -1.3363
  461MOL0     H63609   4.333  10.636   7.704 -2.1186  1.8910 -1.4634
  461MOL0     H63610   4.527  10.503   7.605 -0.1402 -1.5549  0.7047
  461MOL0     H63611   4.404  10.442   7.483  0.0526 -0.3128 -0.0563
  461MOL0     H63612   4.511  10.726   7.500 -0.1970  0.8078 -1.0703
  461MOL0     H63613   4.411  10.648   7.372 -1.8777 -1.9582  0.8438
  461MOL0     H63614   4.806  10.502   7.273 -1.5234 -2.8113 -1.0727
  461MOL0     H63615   4.191  10.917   7.300 -0.6013  2.0186 -0.3999
  461MOL0     H63616   4.026  11.011   7.041  1.9945  1.6730  0.8058
  461MOL0     H63617   3.935  11.104   7.150 -0.9715 -1.3862 -2.0033
  461MOL0     H63618   4.106  11.082   7.182 -1.6906  2.3248  2.8661
  462MOL0     O63619   4.816   5.095   3.213 -0.0853 -0.2620 -0.8238
  462MOL0     C63620   4.922   5.112   3.156 -0.4221  0.9690  1.2106
  462MOL0     O63621   5.026   5.175   3.202 -0.1589  0.0532 -0.1901
  462MOL0     C63622   5.005   5.275   3.294  0.5825 -0.0294  0.4723
  462MOL0     C63623   4.904   5.381   3.282 -0.4460  0.0489  0.9550
  462MOL0     C63624   4.896   5.485   3.373 -0.4249 -1.1684 -0.8976
  462MOL0     C63625   4.999   5.505   3.462  0.3407  0.4433  1.0465
  462MOL0     O63626   5.004   5.611   3.557  1.2248  0.2236  0.3913
  462MOL0     C63627   4.882   5.632   3.633  0.4756 -0.0698  0.0098
  462MOL0     C63628   4.892   5.546   3.753 -0.6635 -1.1029 -0.7031
  462MOL0     C63629   4.804   5.595   3.874 -0.2805  1.0776  0.0716
  462MOL0     C63630   4.655   5.620   3.840 -0.1618  0.5430  0.3423
  462MOL0     C63631   4.568   5.636   3.960  0.8930 -0.0400 -0.6340
  462MOL0     C63632   4.423   5.596   3.930  0.0596  0.6551  0.3452
  462MOL0     C63633   4.318   5.660   4.025  0.2720  0.3786  0.3130
  462MOL0     C63634   4.177   5.620   3.983 -0.2570  0.9233 -0.1671
  462MOL0     N63635   4.065   5.717   4.004 -0.9193  0.7696  0.0420
  462MOL0     C63636   4.047   5.787   4.124 -0.1148 -0.3786  0.0412
  462MOL0     C63637   3.940   5.868   4.109  0.4427  0.3802  0.8811
  462MOL0     C63638   3.880   5.966   4.211  0.6557 -0.2885  0.4549
  462MOL0     C63639   3.854   6.109   4.172 -1.0767 -0.3299 -0.6241
  462MOL0     C63640   3.791   6.192   4.281 -0.0287 -0.0729 -0.5963
  462MOL0     C63641   3.633   6.207   4.285 -1.0174 -0.1901  0.1392
  462MOL0     O63642   3.582   6.077   4.297 -0.5076  0.5069  0.9492
  462MOL0     C63643   3.438   6.050   4.297 -0.0643 -0.6643 -0.5820
  462MOL0     C63644   3.339   6.146   4.272  0.1117 -0.4219 -1.0234
  462MOL0     C63645   3.199   6.123   4.302 -1.2474  0.0099 -0.1940
  462MOL0     C63646   3.102   6.228   4.252  0.1766 -0.4294 -0.8084
  462MOL0     C63647   3.164   6.008   4.356  0.3155 -0.6558 -0.2696
  462MOL0     C63648   3.020   5.967   4.367  1.1109 -1.3748  0.1737
  462MOL0     O63649   2.943   5.982   4.253  0.1508  0.5075 -0.8303
  462MOL0     C63650   2.810   5.938   4.229  0.0987 -0.4038  0.0657
  462MOL0     C63651   2.754   5.993   4.111 -0.8928  0.3992 -1.1147
  462MOL0     C63652   2.625   5.940   4.077  0.0489 -0.3604 -0.2047
  462MOL0     C63653   2.554   5.856   4.160 -0.3244 -0.6209 -0.4575
  462MOL0     O63654   2.429   5.801   4.120  0.2745  0.2581  0.9586
  462MOL0     C63655   2.333   5.895   4.072  0.8176 -0.5058 -0.0006
  462MOL0     C63656   2.201   5.837   4.032 -1.0173  0.9450  0.4264
  462MOL0     C63657   2.158   5.917   3.909  0.2553 -0.5234  0.3474
  462MOL0     C63658   2.012   5.864   3.869 -0.2236  0.1333 -0.7277
  462MOL0     C63659   1.945   5.955   3.764  0.9717  0.7293 -0.3680
  462MOL0     C63660   1.802   5.897   3.730 -0.7178  0.6838  0.1082
  462MOL0     C63661   1.761   5.952   3.598 -0.2886 -0.1124  0.3060
  462MOL0     C63662   1.625   5.890   3.554 -0.3724 -0.2901 -0.1087
  462MOL0    Cl63663   1.542   5.981   3.420  0.4133  0.1659  0.1799
  462MOL0     C63664   2.614   5.809   4.277 -0.9805  0.6035 -0.1042
  462MOL0     C63665   2.742   5.852   4.306 -0.7072 -0.8554 -0.7676
  462MOL0     O63666   2.988   5.922   4.473  0.0959 -0.3227  0.6646
  462MOL0     C63667   3.262   5.910   4.385  0.6860  0.2371 -0.4957
  462MOL0     C63668   3.399   5.927   4.356  0.7507  0.6881 -0.1024
  462MOL0     N63669   3.896   5.846   3.978 -0.1763 -0.0144 -0.2611
  462MOL0     N63670   3.971   5.750   3.916 -0.7350 -0.1862 -0.3764
  462MOL0     C63671   5.093   5.401   3.481  0.0327  0.1901 -0.3497
  462MOL0     C63672   5.094   5.292   3.398 -0.4482  0.2506 -0.0932
  462MOL0     C63673   4.933   5.016   3.044  0.2450  0.6298  0.8114
  462MOL0     C63674   5.052   4.933   3.046  0.4651 -0.3200 -0.3734
  462MOL0     C63675   5.078   4.837   2.954  0.1301 -0.6613  0.1214
  462MOL0     C63676   4.986   4.819   2.851  0.1646  0.7560  0.0867
  462MOL0     O63677   4.989   4.712   2.756 -0.3232  0.1449 -1.0826
  462MOL0     C63678   5.096   4.620   2.767  0.6385 -0.2018 -0.6710
  462MOL0     C63679   5.099   4.525   2.639 -0.6361  0.3891  0.4999
  462MOL0     C63680   4.951   4.481   2.616 -0.0941 -0.2457 -0.0451
  462MOL0     C63681   4.935   4.357   2.543 -1.0965  0.8067 -0.0973
  462MOL0     C63682   5.039   4.335   2.439 -0.4644 -0.1498 -0.1993
  462MOL0     C63683   5.106   4.312   2.346 -0.6126  0.3890  0.5440
  462MOL0     C63684   4.864   4.886   2.846 -0.4328 -0.8902  0.1237
  462MOL0     C63685   4.840   4.996   2.933 -1.1700 -0.3273  0.0036
  462MOL0     C63686   4.706   5.073   2.935 -0.4174  1.3909 -0.5336
  462MOL0     H63687   4.833   5.370   3.200  0.2888 -3.2537  0.6169
  462MOL0     H63688   4.817   5.558   3.374  0.6242  0.0013 -0.8335
  462MOL0     H63689   4.787   5.612   3.584 -2.2853 -1.9549  5.3514
  462MOL0     H63690   4.884   5.740   3.652 -0.5041  0.0919 -0.7675
  462MOL0     H63691   4.858   5.443   3.738 -1.9820 -1.1815  2.1021
  462MOL0     H63692   4.998   5.534   3.776  0.3745  5.9402  0.2621
  462MOL0     H63693   4.812   5.518   3.952 -1.7757  1.7179  0.8883
  462MOL0     H63694   4.838   5.692   3.912  0.5639  1.0012 -0.4554
  462MOL0     H63695   4.638   5.706   3.775  2.3412 -0.1732 -1.3977
  462MOL0     H63696   4.627   5.532   3.781  1.9078  0.1411 -0.1260
  462MOL0     H63697   4.578   5.741   3.988  3.1689 -1.0325  2.8230
  462MOL0     H63698   4.602   5.574   4.043 -4.4517 -4.9841 -1.4396
  462MOL0     H63699   4.399   5.625   3.827 -0.2959  1.1613  0.5722
  462MOL0     H63700   4.412   5.487   3.935  1.6164  0.5354  3.7692
  462MOL0     H63701   4.344   5.765   4.009  1.0251 -0.0048 -1.1097
  462MOL0     H63702   4.336   5.623   4.127 -2.4374  0.0020  0.7384
  462MOL0     H63703   4.179   5.612   3.874 -2.7861  1.8431 -0.3547
  462MOL0     H63704   4.155   5.526   4.034  0.9661  1.0148  0.5555
  462MOL0     H63705   4.098   5.774   4.219  0.0915  0.6987  0.0900
  462MOL0     H63706   3.946   5.971   4.298  3.6322 -0.7048 -1.6146
  462MOL0     H63707   3.785   5.924   4.246  1.8087 -1.6853  2.0972
  462MOL0     H63708   3.951   6.156   4.152 -1.0032 -0.8516 -1.5337
  462MOL0     H63709   3.796   6.119   4.079 -2.6328 -4.0222 -0.2073
  462MOL0     H63710   3.821   6.147   4.376  0.1352 -0.4613 -0.8300
  462MOL0     H63711   3.829   6.295   4.275  2.3378 -0.8523  0.0167
  462MOL0     H63712   3.602   6.270   4.369 -0.6173  1.2114 -0.7294
  462MOL0     H63713   3.605   6.250   4.188  3.1774  2.9394  0.0389
  462MOL0     H63714   3.371   6.246   4.244  1.0239 -0.5073 -0.3154
  462MOL0     H63715   3.156   6.323   4.253  0.3644 -0.4639 -2.9799
  462MOL0     H63716   3.010   6.237   4.311  1.7350 -1.9499  2.0878
  462MOL0     H63717   3.074   6.199   4.151 -1.0202  1.8783 -1.2029
  462MOL0     H63718   2.804   6.074   4.059  1.9449 -0.9254 -0.6036
  462MOL0     H63719   2.584   5.963   3.979  0.5607 -3.3125 -1.1976
  462MOL0     H63720   2.312   5.966   4.153  2.4464  0.4896 -0.3968
  462MOL0     H63721   2.371   5.949   3.985  0.3824  1.2554  0.8465
  462MOL0     H63722   2.227   5.742   3.985  0.6528  1.1329  0.9127
  462MOL0     H63723   2.126   5.818   4.110 -4.0873 -2.6107 -2.9728
  462MOL0     H63724   2.230   5.913   3.827 -2.1857  0.8611 -2.0661
  462MOL0     H63725   2.147   6.019   3.947 -0.1229 -1.0246  1.6342
  462MOL0     H63726   1.948   5.858   3.957  0.2226 -0.2475 -0.4249
  462MOL0     H63727   2.021   5.766   3.821  0.7147 -0.2442  0.1861
  462MOL0     H63728   1.938   6.058   3.799  0.6071  1.2709 -1.9573
  462MOL0     H63729   1.995   5.947   3.667 -1.2266  2.9941 -1.8049
  462MOL0     H63730   1.733   5.920   3.812 -0.6791  0.2402  0.2681
  462MOL0     H63731   1.790   5.788   3.725 -2.4106  0.8706 -0.8483
  462MOL0     H63732   1.832   5.931   3.517 -0.8069 -0.7834  0.0100
  462MOL0     H63733   1.754   6.059   3.616 -3.6204  0.3287 -2.5339
  462MOL0     H63734   1.567   5.891   3.646 -0.3014  0.4110 -0.0664
  462MOL0     H63735   1.635   5.784   3.528 -1.1228 -0.0258 -1.5514
  462MOL0     H63736   2.569   5.750   4.357  1.0135  1.2650  1.5876
  462MOL0     H63737   2.781   5.806   4.396 -1.4837  1.7239  1.0194
  462MOL0     H63738   3.235   5.818   4.436  2.6954  0.7339  1.6814
  462MOL0     H63739   3.469   5.847   4.379  2.6932  2.0324 -1.0406
  462MOL0     H63740   5.168   5.416   3.558  0.8096  0.5028 -1.1405
  462MOL0     H63741   5.167   5.213   3.389 -0.4325  0.2644 -0.0891
  462MOL0     H63742   5.128   4.957   3.120 -0.8327 -1.9566  1.6265
  462MOL0     H63743   5.160   4.768   2.970 -0.2789 -1.8129 -2.2639
  462MOL0     H63744   5.195   4.662   2.786  1.0418 -0.5087 -1.9985
  462MOL0     H63745   5.079   4.556   2.854  0.8154  1.3351  0.5442
  462MOL0     H63746   5.151   4.432   2.664 -2.1647 -0.3179  1.1685
  462MOL0     H63747   5.138   4.583   2.555 -3.4461  3.5092  1.1258
  462MOL0     H63748   4.904   4.469   2.714  1.0663 -1.4284  0.3970
  462MOL0     H63749   4.894   4.561   2.569 -3.1379 -0.3981  2.9926
  462MOL0     H63750   4.836   4.366   2.497 -0.9618 -0.9023 -0.7935
  462MOL0     H63751   4.949   4.269   2.608  3.7544  0.3658 -1.3987
  462MOL0     H63752   5.151   4.314   2.249 -1.1414  1.1594  0.3016
  462MOL0     H63753   4.788   4.853   2.776 -0.1785 -0.2026 -0.4860
  462MOL0     H63754   4.730   5.179   2.944 -0.0385  1.1517  1.9016
  462MOL0     H63755   4.640   5.064   2.848 -2.0378  0.8260  0.7080
  462MOL0     H63756   4.648   5.024   3.014  2.4381  0.1339  0.9398
  463MOL0     O63757  11.270   7.898  11.323 -0.2358 -0.3319 -0.4081
  463MOL0     C63758  11.234   7.995  11.261 -0.3665 -0.8102 -0.4376
  463MOL0     O63759  11.210   8.123  11.318 -0.2140  0.4119  0.1280
  463MOL0     C63760  11.199   8.120  11.449 -0.2979  0.0641  0.5565
  463MOL0     C63761  11.307   8.185  11.518 -0.8759 -0.0564 -0.5966
  463MOL0     C63762  11.293   8.197  11.662 -0.1386 -0.3115 -0.1863
  463MOL0     C63763  11.195   8.125  11.735  0.3438 -0.2380  0.7044
  463MOL0     O63764  11.190   8.133  11.873  0.5521  0.4151 -0.8203
  463MOL0     C63765  11.062   8.147  11.946  0.6186 -0.0610  0.9121
  463MOL0     C63766  11.079   8.163  12.095 -1.3401 -0.1646 -0.5878
  463MOL0     C63767  11.183   8.086  12.174 -0.4150  0.1011 -0.2722
  463MOL0     C63768  11.183   8.090  12.329  0.2785 -0.6587  0.0228
  463MOL0     C63769  11.325   8.067  12.383 -0.7548 -0.1114  0.3166
  463MOL0     C63770  11.339   8.068  12.533 -0.1367 -0.4898  0.0093
  463MOL0     C63771  11.299   7.944  12.622  1.1371  0.3755 -0.1277
  463MOL0     C63772  11.377   7.955  12.750  0.5753 -0.3969 -0.0691
  463MOL0     N63773  11.330   8.065  12.833 -0.1864  0.3246 -0.3748
  463MOL0     C63774  11.200   8.078  12.892  0.3463 -0.0237  1.0676
  463MOL0     C63775  11.188   8.210  12.924 -0.0847 -0.8154  0.0167
  463MOL0     C63776  11.066   8.259  12.992 -0.9955 -0.4003 -0.4913
  463MOL0     C63777  11.080   8.249  13.142  0.9167  0.3368 -0.4888
  463MOL0     C63778  10.947   8.266  13.220  0.5722  0.9060  1.0255
  463MOL0     C63779  10.866   8.390  13.173  1.4071 -0.0703  0.2836
  463MOL0     O63780  10.762   8.396  13.271  0.1997  0.4248  0.0054
  463MOL0     C63781  10.669   8.501  13.261  0.3878  0.0584  1.1563
  463MOL0     C63782  10.645   8.569  13.143 -0.0813  0.1289  0.4968
  463MOL0     C63783  10.533   8.653  13.127  0.1501 -0.4363  0.1364
  463MOL0     C63784  10.497   8.702  12.992 -0.2676 -0.7213 -0.0603
  463MOL0     C63785  10.441   8.662  13.236 -0.6781  1.1580  0.7833
  463MOL0     C63786  10.332   8.758  13.230 -0.0319 -0.6879 -0.0452
  463MOL0     O63787  10.353   8.884  13.194 -1.2007 -0.2664  0.2177
  463MOL0     C63788  10.258   8.979  13.204 -0.2970 -0.3525 -0.2761
  463MOL0     C63789  10.202   9.024  13.321  1.2939 -0.7395 -0.8397
  463MOL0     C63790  10.113   9.132  13.327 -1.0336  0.1275  0.1276
  463MOL0     C63791  10.058   9.189  13.209 -1.2987 -0.5775 -0.4922
  463MOL0     O63792   9.982   9.301  13.217  0.2889 -0.2524 -1.0457
  463MOL0     C63793   9.886   9.338  13.110 -0.1558  0.5048 -0.6655
  463MOL0     C63794   9.793   9.451  13.166  1.3578  0.3088  0.5048
  463MOL0     C63795   9.845   9.532  13.285  0.3153 -0.4433  1.2908
  463MOL0     C63796   9.744   9.654  13.307  0.1472  0.4056  0.2265
  463MOL0     C63797   9.789   9.724  13.435 -0.7176 -0.2131 -0.0181
  463MOL0     C63798   9.711   9.860  13.466 -0.5489 -0.1878 -0.2806
  463MOL0     C63799   9.740   9.978  13.370 -0.0842  0.4462  0.0561
  463MOL0     C63800   9.661  10.101  13.402 -0.8183 -0.1697  0.0848
  463MOL0    Cl63801   9.712  10.238  13.302  0.4242 -0.3328 -0.1187
  463MOL0     C63802  10.114   9.139  13.083  0.4387  0.2443  0.2231
  463MOL0     C63803  10.210   9.037  13.086  0.6028 -0.9794 -0.1651
  463MOL0     O63804  10.219   8.717  13.267  0.1716 -0.2684  0.4180
  463MOL0     C63805  10.454   8.587  13.353 -0.7152  0.6035  0.2954
  463MOL0     C63806  10.576   8.513  13.362  0.3989 -0.8430 -0.3843
  463MOL0     N63807  11.305   8.276  12.897  0.1275 -0.6555 -0.0712
  463MOL0     N63808  11.387   8.191  12.843 -0.5820  0.1940  0.3690
  463MOL0     C63809  11.084   8.069  11.665 -1.0057 -1.2559 -0.0712
  463MOL0     C63810  11.089   8.072  11.525 -0.9965  0.0847 -0.3180
  463MOL0     C63811  11.246   7.994  11.118 -1.2100  1.0607 -0.1729
  463MOL0     C63812  11.345   7.899  11.059 -1.0192  0.5067  0.1328
  463MOL0     C63813  11.379   7.906  10.922  0.5462 -0.6258  0.0598
  463MOL0     C63814  11.326   8.003  10.841 -0.4851  0.5881  0.3020
  463MOL0     O63815  11.377   8.041  10.723 -0.0779  0.2369 -0.4497
  463MOL0     C63816  11.389   8.183  10.703  0.8774  0.2279 -0.0425
  463MOL0     C63817  11.269   8.257  10.626 -0.6025 -0.0564 -0.2715
  463MOL0     C63818  11.323   8.341  10.510  0.1790 -0.8843 -0.0336
  463MOL0     C63819  11.220   8.440  10.453 -0.7472  0.3029  0.2094
  463MOL0     C63820  11.270   8.511  10.344 -0.8625  0.1003  0.2610
  463MOL0     C63821  11.302   8.569  10.243  0.7122 -0.8070 -1.4354
  463MOL0     C63822  11.208   8.068  10.886  0.2635  0.1857 -0.2170
  463MOL0     C63823  11.172   8.067  11.025 -0.8389  0.0691  0.1176
  463MOL0     C63824  11.048   8.141  11.048 -0.3237 -0.3172  0.4302
  463MOL0     H63825  11.386   8.228  11.457 -1.0011 -1.5629 -1.8668
  463MOL0     H63826  11.374   8.243  11.717  1.7148 -1.5564 -1.7796
  463MOL0     H63827  11.005   8.055  11.929 -1.3895  1.5167 -1.7652
  463MOL0     H63828  11.003   8.233  11.912 -0.2661 -0.9887  0.0514
  463MOL0     H63829  11.103   8.270  12.102 -0.4189 -0.2404 -2.1668
  463MOL0     H63830  10.982   8.167  12.146  0.7314  1.0533  3.7497
  463MOL0     H63831  11.172   7.979  12.151 -2.9670  0.4555 -0.9421
  463MOL0     H63832  11.282   8.108  12.132 -0.8728  0.3311 -1.2661
  463MOL0     H63833  11.156   8.191  12.359  5.5052  0.6996  1.2973
  463MOL0     H63834  11.112   8.013  12.361  1.2873 -1.8017 -0.3858
  463MOL0     H63835  11.387   8.136  12.326 -0.7896  0.6835  1.2175
  463MOL0     H63836  11.355   7.967  12.352 -2.2716 -0.8618  1.1201
  463MOL0     H63837  11.446   8.082  12.547 -0.0912 -0.2821 -0.5045
  463MOL0     H63838  11.285   8.157  12.567  2.1266  1.0684 -0.2984
  463MOL0     H63839  11.312   7.847  12.572 -1.6098 -0.7787  1.1632
  463MOL0     H63840  11.194   7.939  12.654 -0.3126  3.3373 -3.7444
  463MOL0     H63841  11.371   7.859  12.803  2.6173 -1.2680 -1.2892
  463MOL0     H63842  11.485   7.971  12.739  0.6717 -0.9726 -0.0190
  463MOL0     H63843  11.130   7.997  12.904  1.8521 -1.5061  0.2655
  463MOL0     H63844  10.978   8.201  12.962 -1.1258  0.0070 -0.9008
  463MOL0     H63845  11.063   8.366  12.973 -1.4244 -0.7417 -2.5704
  463MOL0     H63846  11.121   8.157  13.183 -1.8360 -1.4916 -1.5117
  463MOL0     H63847  11.147   8.325  13.183  0.9257 -1.2567  2.6935
  463MOL0     H63848  10.881   8.180  13.206 -1.7397  2.7286 -0.0137
  463MOL0     H63849  10.968   8.269  13.327  1.4429 -0.9449  0.9430
  463MOL0     H63850  10.927   8.480  13.187 -0.1917  1.0340  0.5480
  463MOL0     H63851  10.819   8.381  13.074 -0.3274  4.3280  0.4798
  463MOL0     H63852  10.717   8.569  13.062  1.3991 -0.5671  1.7508
  463MOL0     H63853  10.390   8.683  12.978 -0.2044 -2.2437  1.2128
  463MOL0     H63854  10.555   8.660  12.909 -2.7479  1.1695 -2.9297
  463MOL0     H63855  10.511   8.810  12.992 -2.2773 -0.4210  1.1765
  463MOL0     H63856  10.235   8.961  13.403  0.2073  1.8982  1.7946
  463MOL0     H63857  10.071   9.168  13.421 -1.0496  1.1263 -0.2506
  463MOL0     H63858   9.950   9.384  13.034 -2.3597  3.1267 -1.1026
  463MOL0     H63859   9.837   9.252  13.064  0.9148 -0.6671  0.3148
  463MOL0     H63860   9.766   9.520  13.086  0.1324  0.4991  1.0617
  463MOL0     H63861   9.704   9.400  13.202  1.7372 -1.0249 -0.3686
  463MOL0     H63862   9.945   9.566  13.257  0.5102 -3.6658 -2.9477
  463MOL0     H63863   9.866   9.476  13.377  3.3839 -1.1770  0.2657
  463MOL0     H63864   9.645   9.611  13.323  1.2163 -1.5289  2.0991
  463MOL0     H63865   9.732   9.728  13.227  1.8495  1.6700  1.0756
  463MOL0     H63866   9.766   9.645  13.507  2.9703  1.4200  3.2873
  463MOL0     H63867   9.898   9.726  13.439 -0.5632 -1.3224 -2.1982
  463MOL0     H63868   9.729   9.883  13.572 -4.9351 -0.3606  0.7235
  463MOL0     H63869   9.603   9.850  13.448 -0.5361 -0.1098 -0.3988
  463MOL0     H63870   9.708   9.943  13.271 -0.1725 -1.6156  0.7634
  463MOL0     H63871   9.844  10.010  13.375  0.2048 -0.6468  2.2372
  463MOL0     H63872   9.674  10.126  13.507  3.2971  0.0453 -0.3270
  463MOL0     H63873   9.555  10.086  13.376  0.2143 -1.5105 -4.1786
  463MOL0     H63874  10.084   9.170  12.984  0.5240 -1.5981 -0.4235
  463MOL0     H63875  10.247   9.005  12.989  1.1901 -2.0778  0.3998
  463MOL0     H63876  10.380   8.603  13.431 -1.3633 -0.0324 -0.1705
  463MOL0     H63877  10.583   8.455  13.454 -2.6370 -2.1325 -0.8542
  463MOL0     H63878  11.014   8.003  11.714  1.7141 -3.4576  1.1416
  463MOL0     H63879  10.999   8.036  11.477 -2.2404  1.4135  0.9221
  463MOL0     H63880  11.399   7.833  11.128  0.8410  1.6920 -0.1041
  463MOL0     H63881  11.459   7.853  10.872  0.4406  1.1702 -2.1757
  463MOL0     H63882  11.420   8.225  10.799  0.4000 -1.8776  1.0968
  463MOL0     H63883  11.470   8.195  10.630 -0.4693  1.5307 -1.4045
  463MOL0     H63884  11.208   8.319  10.693  1.5519  2.7584 -0.7265
  463MOL0     H63885  11.206   8.176  10.590  0.3107 -1.0739  0.3739
  463MOL0     H63886  11.407   8.398  10.551  0.2571  0.2166 -1.6227
  463MOL0     H63887  11.349   8.272  10.429  3.6709 -0.1720  0.3214
  463MOL0     H63888  11.178   8.505  10.530 -1.7574  0.8472 -0.7669
  463MOL0     H63889  11.136   8.381  10.414  0.3846 -2.3713  1.5048
  463MOL0     H63890  11.347   8.625  10.163  0.7266 -1.5377 -1.9506
  463MOL0     H63891  11.152   8.119  10.808 -2.7317 -1.2720  0.8180
  463MOL0     H63892  11.009   8.195  10.961 -2.0176  0.5172  1.6509
  463MOL0     H63893  10.975   8.064  11.073 -1.9805  0.6132 -1.3261
  463MOL0     H63894  11.064   8.209  11.133 -0.0729 -1.1316  1.0469
  464MOL0     O63895  11.593   9.768   5.754 -0.6988 -0.0957 -0.0491
  464MOL0     C63896  11.580   9.693   5.654 -0.8120  0.0558  0.3135
  464MOL0     O63897  11.517   9.728   5.540  0.2848  0.3336 -0.1416
  464MOL0     C63898  11.439   9.839   5.528 -0.4217 -0.3962  0.0305
  464MOL0     C63899  11.489   9.966   5.573 -0.0570  0.9582 -0.0996
  464MOL0     C63900  11.411  10.082   5.547  0.5511  0.0530 -0.6207
  464MOL0     C63901  11.272  10.063   5.524 -0.6509 -0.9087  0.4694
  464MOL0     O63902  11.187  10.175   5.541  0.5494 -0.1651 -0.6481
  464MOL0     C63903  11.052  10.167   5.491 -0.4777 -0.4756  0.2923
  464MOL0     C63904  11.021  10.229   5.353  0.5500  0.5310  0.5184
  464MOL0     C63905  11.056  10.142   5.234 -0.4004  0.7627 -1.1307
  464MOL0     C63906  10.978  10.175   5.110 -0.7076 -1.0176 -0.0529
  464MOL0     C63907  11.000  10.075   5.001  0.7702  0.3378  0.6655
  464MOL0     C63908  11.133  10.054   4.916 -0.2394 -0.4127 -0.4471
  464MOL0     C63909  11.164  10.181   4.839  1.6287 -0.2267 -0.2324
  464MOL0     C63910  11.067  10.211   4.724  0.1572 -0.3979 -0.4435
  464MOL0     N63911  11.078  10.109   4.621 -0.5839  0.0070  0.2847
  464MOL0     C63912  11.188  10.100   4.528  0.4807 -0.4801  0.4748
  464MOL0     C63913  11.145  10.034   4.421 -0.3976  0.2584 -0.2613
  464MOL0     C63914  11.218  10.025   4.296 -0.4561 -0.3306 -0.6689
  464MOL0     C63915  11.199  10.161   4.225 -0.1128 -0.5195 -0.7366
  464MOL0     C63916  11.069  10.166   4.146  0.5132  0.4286 -0.2379
  464MOL0     C63917  11.088  10.193   3.999 -0.3783 -0.8060  0.3869
  464MOL0     O63918  10.960  10.213   3.935 -0.5210  0.7054 -0.6642
  464MOL0     C63919  10.965  10.214   3.797  0.7997  0.1363  0.7160
  464MOL0     C63920  10.854  10.161   3.734  0.2513 -1.2312 -0.3883
  464MOL0     C63921  10.829  10.162   3.600  0.6689 -0.1109 -0.1118
  464MOL0     C63922  10.713  10.075   3.554  0.6248  0.3968  0.0014
  464MOL0     C63923  10.924  10.215   3.515 -0.8631  0.0153 -1.0324
  464MOL0     C63924  10.919  10.196   3.369 -0.9793  0.0373  0.3124
  464MOL0     O63925  11.006  10.271   3.291 -0.7509  0.4419  0.4201
  464MOL0     C63926  11.047  10.233   3.159  0.6290  0.0712  0.4149
  464MOL0     C63927  11.014  10.311   3.051 -0.2097  0.7321 -0.0142
  464MOL0     C63928  11.066  10.260   2.925 -0.1317 -0.6389  0.5288
  464MOL0     C63929  11.134  10.136   2.909 -0.1521  0.1624 -0.0647
  464MOL0     O63930  11.157  10.094   2.779  0.1106  0.1661  0.1858
  464MOL0     C63931  11.227   9.972   2.763 -0.9115  1.0469 -0.5689
  464MOL0     C63932  11.147   9.837   2.777  0.3347 -0.7830  0.3065
  464MOL0     C63933  11.214   9.712   2.739 -0.8730 -0.1346  0.3666
  464MOL0     C63934  11.224   9.702   2.591  1.3204  0.1866  0.2144
  464MOL0     C63935  11.291   9.582   2.522 -0.5287 -0.7164 -0.0284
  464MOL0     C63936  11.247   9.581   2.369  0.3458  0.7537 -1.1672
  464MOL0     C63937  11.308   9.470   2.290  0.2020 -0.2252  0.2547
  464MOL0     C63938  11.291   9.488   2.144 -0.2173 -0.1379  1.2026
  464MOL0    Cl63939  11.122   9.467   2.103 -0.1720 -0.1991 -0.2635
  464MOL0     C63940  11.156  10.060   3.028  0.3468 -0.1955  0.2927
  464MOL0     C63941  11.119  10.116   3.156  0.4334  0.7014  1.0919
  464MOL0     O63942  10.855  10.095   3.330  0.3137 -0.2498  0.0267
  464MOL0     C63943  11.041  10.266   3.564  0.0704 -0.5383 -0.7990
  464MOL0     C63944  11.062  10.273   3.707  0.6533  1.3280  0.2693
  464MOL0     N63945  11.022   9.982   4.448 -0.8128 -0.2604 -0.5416
  464MOL0     N63946  10.980  10.037   4.567  0.5024  0.1010 -0.6802
  464MOL0     C63947  11.231   9.932   5.489  0.3547  0.2856 -0.2732
  464MOL0     C63948  11.308   9.824   5.493 -1.0743  0.5684 -0.4781
  464MOL0     C63949  11.639   9.560   5.663  0.4168  1.1356 -0.1878
  464MOL0     C63950  11.582   9.461   5.570 -0.4222  1.5071 -1.0503
  464MOL0     C63951  11.633   9.333   5.579 -0.1403 -1.0443  1.2073
  464MOL0     C63952  11.727   9.297   5.676 -0.4317 -0.4194  0.5049
  464MOL0     O63953  11.766   9.167   5.680  0.0824  0.8053  0.3914
  464MOL0     C63954  11.684   9.082   5.764  0.0843  0.1170 -0.1281
  464MOL0     C63955  11.751   8.970   5.838 -0.2882 -0.4730 -0.6877
  464MOL0     C63956  11.862   9.021   5.936  0.5324  0.2425  1.0020
  464MOL0     C63957  11.809   9.118   6.031  0.8056 -1.0247 -0.1910
  464MOL0     C63958  11.694   9.077   6.114 -0.0140 -0.1038 -0.5898
  464MOL0     C63959  11.604   9.044   6.187 -0.2445 -0.2819 -0.1176
  464MOL0     C63960  11.778   9.393   5.760  0.9260 -1.2340  0.0650
  464MOL0     C63961  11.745   9.526   5.752  0.3311  1.5391 -0.8724
  464MOL0     C63962  11.810   9.620   5.854  0.1361  0.4370  1.2240
  464MOL0     H63963  11.593   9.977   5.602 -0.0664  2.2136 -0.4525
  464MOL0     H63964  11.434  10.186   5.567  1.7489 -0.5750  1.5641
  464MOL0     H63965  11.003  10.232   5.564  1.3849 -0.9749  2.0804
  464MOL0     H63966  10.998  10.072   5.499 -0.6909 -0.2980  1.0350
  464MOL0     H63967  10.918  10.266   5.349  0.7899  1.1118 -1.0332
  464MOL0     H63968  11.082  10.319   5.351 -0.4756  1.2297 -0.0431
  464MOL0     H63969  11.165  10.142   5.217 -0.6761 -2.3361 -4.1424
  464MOL0     H63970  11.043  10.040   5.272  0.5074  1.0281 -0.0619
  464MOL0     H63971  10.873  10.168   5.139  0.0046  0.1596  3.2505
  464MOL0     H63972  10.999  10.274   5.067 -0.7007 -0.6410  0.7824
  464MOL0     H63973  10.911  10.080   4.937  1.6496  1.8604 -0.4740
  464MOL0     H63974  10.980   9.976   5.045  1.6395  0.0223  0.3702
  464MOL0     H63975  11.211  10.041   4.992 -1.6183 -1.2476  0.8607
  464MOL0     H63976  11.139   9.962   4.858 -2.4537 -0.0974 -1.2705
  464MOL0     H63977  11.263  10.163   4.797  1.4416 -0.6661 -0.4981
  464MOL0     H63978  11.162  10.268   4.905 -0.7938 -0.8869  0.6813
  464MOL0     H63979  10.973  10.232   4.776 -0.0825 -0.8151 -0.7037
  464MOL0     H63980  11.091  10.307   4.677  5.1137 -1.6213 -0.9332
  464MOL0     H63981  11.278  10.161   4.524  1.4603 -1.9150 -2.0629
  464MOL0     H63982  11.183   9.953   4.221 -1.4967  0.4017 -0.9122
  464MOL0     H63983  11.322  10.009   4.324 -0.7661 -0.1277  0.6450
  464MOL0     H63984  11.210  10.247   4.291 -0.9557 -0.1762 -1.0210
  464MOL0     H63985  11.279  10.166   4.150 -0.7354  0.0730 -1.3791
  464MOL0     H63986  11.021  10.067   4.138  1.9475 -0.1711 -2.4428
  464MOL0     H63987  11.001  10.239   4.190 -1.6856 -1.5943 -0.0375
  464MOL0     H63988  11.133  10.291   3.984  0.7744 -1.0446  2.0237
  464MOL0     H63989  11.141  10.107   3.956 -1.6635 -0.3106 -2.4472
  464MOL0     H63990  10.790  10.114   3.808  1.4182  0.3075  1.6882
  464MOL0     H63991  10.751   9.978   3.521 -0.0337 -0.9552  2.9027
  464MOL0     H63992  10.657  10.126   3.475 -0.2433 -1.6135 -0.7247
  464MOL0     H63993  10.648  10.051   3.639  2.3961 -0.6939  1.1145
  464MOL0     H63994  10.974  10.410   3.073  2.5051  1.7277  0.8924
  464MOL0     H63995  11.050  10.319   2.836  1.8959 -0.9291 -0.0862
  464MOL0     H63996  11.266   9.969   2.661  0.6523  0.8508 -0.0025
  464MOL0     H63997  11.315   9.979   2.828 -1.8204 -1.1439  1.0244
  464MOL0     H63998  11.099   9.820   2.873  1.9672  1.3586  1.6046
  464MOL0     H63999  11.063   9.856   2.710  0.5735  1.5203  0.5584
  464MOL0     H64000  11.161   9.621   2.771 -1.4977  0.3843  0.8297
  464MOL0     H64001  11.320   9.702   2.763 -1.1630 -0.7409  1.4510
  464MOL0     H64002  11.268   9.795   2.556 -1.2714  0.2542 -3.4474
  464MOL0     H64003  11.120   9.703   2.558  0.4557 -0.3859  2.7238
  464MOL0     H64004  11.399   9.590   2.533 -0.6571 -1.1690  1.9636
  464MOL0     H64005  11.268   9.490   2.577 -3.8842 -1.0540 -1.6913
  464MOL0     H64006  11.277   9.674   2.321 -1.1328  2.2336  0.6322
  464MOL0     H64007  11.138   9.575   2.364  0.3426 -1.3157  0.0966
  464MOL0     H64008  11.258   9.374   2.306  0.5547 -0.9132 -2.3019
  464MOL0     H64009  11.416   9.463   2.310  0.1033 -1.5435  0.4351
  464MOL0     H64010  11.351   9.420   2.082  3.0559  1.1029  2.7517
  464MOL0     H64011  11.319   9.589   2.113  0.6039 -0.5600  0.5164
  464MOL0     H64012  11.201   9.961   3.020  0.1980 -0.6195  3.4165
  464MOL0     H64013  11.119  10.062   3.251  1.4572 -1.6378 -0.1575
  464MOL0     H64014  11.118  10.293   3.493 -0.9233  0.9340 -1.3639
  464MOL0     H64015  11.156  10.313   3.742  2.2134 -0.3346 -1.7393
  464MOL0     H64016  11.130   9.913   5.454  0.9090 -2.4187 -0.6276
  464MOL0     H64017  11.259   9.734   5.458 -0.4249  0.3403 -0.8106
  464MOL0     H64018  11.498   9.473   5.502 -1.3126 -1.2807 -0.5943
  464MOL0     H64019  11.590   9.253   5.519 -0.1131 -0.5879  0.5758
  464MOL0     H64020  11.631   9.139   5.841 -1.0466 -1.9085  0.6514
  464MOL0     H64021  11.608   9.044   5.696 -1.7849  1.1402  1.2934
  464MOL0     H64022  11.796   8.889   5.780  0.9518 -2.1790  2.3654
  464MOL0     H64023  11.684   8.909   5.900  2.4574 -1.1539  1.8946
  464MOL0     H64024  11.900   8.935   5.991 -0.5520 -0.5454  0.5531
  464MOL0     H64025  11.951   9.060   5.885 -0.1297 -0.3880 -0.7077
  464MOL0     H64026  11.773   9.201   5.968 -0.3342 -3.8476 -3.5620
  464MOL0     H64027  11.900   9.157   6.078  1.3572 -4.0860  1.5027
  464MOL0     H64028  11.515   9.022   6.244 -1.4209  0.8164 -1.4599
  464MOL0     H64029  11.851   9.365   5.835  2.9255 -0.8580 -1.6407
  464MOL0     H64030  11.889   9.566   5.906  0.6469  0.1378  0.1657
  464MOL0     H64031  11.860   9.704   5.804  1.9359 -0.9543  0.5703
  464MOL0     H64032  11.746   9.665   5.931  1.0030  3.2455  0.4451
  465MOL0     O64033   9.393   2.637   7.067  0.3018  0.5284 -0.0644
  465MOL0     C64034   9.370   2.707   6.969 -0.9789 -0.2280  0.5212
  465MOL0     O64035   9.379   2.664   6.844  0.1313 -0.2992  0.0350
  465MOL0     C64036   9.378   2.535   6.802  0.3637 -0.1493 -0.9539
  465MOL0     C64037   9.483   2.445   6.820  0.2753 -0.9003 -0.2847
  465MOL0     C64038   9.477   2.321   6.753  1.2691  0.1352  1.4328
  465MOL0     C64039   9.365   2.280   6.693  0.1183  0.0842  0.2262
  465MOL0     O64040   9.352   2.164   6.627  0.6994  0.3174 -0.8073
  465MOL0     C64041   9.306   2.042   6.698 -0.4867 -0.7428 -0.8337
  465MOL0     C64042   9.376   1.917   6.668  0.3995 -0.4614  0.2473
  465MOL0     C64043   9.387   1.899   6.520 -0.1500  0.2675 -1.4519
  465MOL0     C64044   9.259   1.869   6.445 -0.2421  0.3348  0.2361
  465MOL0     C64045   9.273   1.833   6.297  0.1131  0.5211 -0.2278
  465MOL0     C64046   9.323   1.688   6.282 -0.5025 -0.8283  0.6302
  465MOL0     C64047   9.328   1.664   6.129  1.0763  0.4737 -0.6956
  465MOL0     C64048   9.423   1.537   6.092 -0.4314  0.8927 -1.0595
  465MOL0     N64049   9.487   1.547   5.964 -0.6033  0.2338  0.2098
  465MOL0     C64050   9.425   1.598   5.855 -0.6420  0.8033  0.1240
  465MOL0     C64051   9.519   1.583   5.747 -0.0723 -0.5727  0.7163
  465MOL0     C64052   9.481   1.606   5.604 -0.6858 -0.0002  0.2534
  465MOL0     C64053   9.596   1.716   5.565  0.9998  0.8476  1.2160
  465MOL0     C64054   9.596   1.747   5.412 -0.3623 -0.5332 -0.3342
  465MOL0     C64055   9.719   1.820   5.379 -0.2983 -0.2059 -0.3589
  465MOL0     O64056   9.723   1.848   5.242  0.4599  0.0640  0.6950
  465MOL0     C64057   9.846   1.838   5.181  0.0980  0.6943 -0.6608
  465MOL0     C64058   9.970   1.896   5.238  0.4037 -0.5735 -0.2030
  465MOL0     C64059  10.080   1.893   5.160  0.5342 -0.4334  1.0091
  465MOL0     C64060  10.190   1.980   5.213 -0.4448  0.4630 -1.4643
  465MOL0     C64061  10.085   1.815   5.037  0.8646 -0.0053 -0.9862
  465MOL0     C64062  10.201   1.811   4.952 -0.4250 -0.7985  0.4837
  465MOL0     O64063  10.212   1.698   4.877  0.1107 -0.0699 -0.1497
  465MOL0     C64064  10.320   1.676   4.799 -0.0834  0.4717  0.7494
  465MOL0     C64065  10.445   1.656   4.852 -0.2352 -0.5364  0.2545
  465MOL0     C64066  10.559   1.611   4.774  0.5089  0.1089  0.6268
  465MOL0     C64067  10.525   1.582   4.641 -0.5653  0.0111 -0.0578
  465MOL0     O64068  10.617   1.533   4.555 -1.0584 -1.1722  0.3394
  465MOL0     C64069  10.744   1.602   4.553  0.2349  0.7762  0.2042
  465MOL0     C64070  10.781   1.627   4.412  0.8056 -0.0970  1.5174
  465MOL0     C64071  10.926   1.685   4.396 -0.4094  0.0771 -1.0499
  465MOL0     C64072  11.026   1.565   4.410 -0.1658  0.6011 -0.9760
  465MOL0     C64073  11.036   1.479   4.283  0.0852 -0.7317 -0.6510
  465MOL0     C64074  11.104   1.343   4.305 -0.0097 -0.2256 -0.3368
  465MOL0     C64075  11.133   1.272   4.173 -0.2973  0.1526 -0.6480
  465MOL0     C64076  11.109   1.116   4.168 -0.0007 -0.7142 -0.2855
  465MOL0    Cl64077  11.042   1.070   4.024 -0.2844  0.5493  0.0467
  465MOL0     C64078  10.399   1.605   4.587  0.0449  0.7977  0.3621
  465MOL0     C64079  10.289   1.642   4.663  0.0645 -0.2546 -0.0869
  465MOL0     O64080  10.267   1.911   4.941  0.0910 -1.1284  0.3240
  465MOL0     C64081   9.969   1.752   4.997  0.2498 -0.1858  0.3425
  465MOL0     C64082   9.847   1.766   5.067 -0.5726  0.7106 -0.2607
  465MOL0     N64083   9.625   1.525   5.802 -0.5606 -0.0964  0.0945
  465MOL0     N64084   9.614   1.509   5.924  0.1808  0.9896 -0.5092
  465MOL0     C64085   9.256   2.372   6.675 -0.1156  0.4923  0.1494
  465MOL0     C64086   9.267   2.508   6.716  0.4564  0.7151 -0.2352
  465MOL0     C64087   9.363   2.850   6.986 -0.2700  0.3671 -0.4222
  465MOL0     C64088   9.441   2.902   7.085 -0.5187 -0.3695 -0.4307
  465MOL0     C64089   9.450   3.034   7.128 -0.1770 -0.2711  1.1135
  465MOL0     C64090   9.357   3.120   7.057 -0.1024  0.4571  0.2663
  465MOL0     O64091   9.377   3.254   7.054 -0.6306  0.2507  0.3323
  465MOL0     C64092   9.288   3.313   7.151 -0.9720  0.8390  0.3181
  465MOL0     C64093   9.289   3.463   7.118  0.1148 -0.3335  0.5879
  465MOL0     C64094   9.200   3.553   7.206 -0.0515 -0.2431  1.4055
  465MOL0     C64095   9.252   3.693   7.186  0.5504  0.0943  0.7724
  465MOL0     C64096   9.253   3.767   7.315 -0.3077 -0.5992 -1.0002
  465MOL0     C64097   9.238   3.820   7.424 -0.7591  0.3023 -0.0277
  465MOL0     C64098   9.277   3.067   6.955 -0.8162  0.6493  0.3219
  465MOL0     C64099   9.280   2.928   6.912 -0.2731  0.3936 -0.4465
  465MOL0     C64100   9.190   2.889   6.790 -0.0441  0.9606 -0.0965
  465MOL0     H64101   9.573   2.482   6.868 -0.1968  0.0913 -0.1304
  465MOL0     H64102   9.562   2.255   6.761  0.3157 -1.4505 -0.7230
  465MOL0     H64103   9.206   2.041   6.654 -0.3018 -2.0958 -1.2776
  465MOL0     H64104   9.320   2.060   6.805  2.4801 -3.2274 -0.6718
  465MOL0     H64105   9.479   1.926   6.703  1.5435  3.6931 -3.2592
  465MOL0     H64106   9.353   1.825   6.722  0.0918  0.1599  1.2015
  465MOL0     H64107   9.439   1.985   6.476  0.9647  0.6044  0.4356
  465MOL0     H64108   9.444   1.807   6.504 -1.5120 -0.6829 -0.9872
  465MOL0     H64109   9.206   1.797   6.507  2.5820  0.9051  3.5862
  465MOL0     H64110   9.208   1.965   6.427 -0.8858  0.4037  2.2194
  465MOL0     H64111   9.354   1.898   6.263  1.8399 -0.6132  1.4721
  465MOL0     H64112   9.176   1.857   6.254 -1.1413 -0.5401  1.8701
  465MOL0     H64113   9.417   1.675   6.336 -0.6296 -2.9528  0.3995
  465MOL0     H64114   9.241   1.622   6.311 -3.3868  0.6622 -3.2272
  465MOL0     H64115   9.365   1.745   6.067  1.4742 -0.6191 -1.9351
  465MOL0     H64116   9.227   1.656   6.089  0.8142  2.9670 -0.6725
  465MOL0     H64117   9.494   1.510   6.171 -0.2111 -0.9750 -1.8502
  465MOL0     H64118   9.361   1.447   6.087 -1.5875  1.7471 -2.5939
  465MOL0     H64119   9.324   1.638   5.845 -0.9045 -0.3760 -3.2147
  465MOL0     H64120   9.383   1.648   5.584  0.0863  0.4674 -3.1256
  465MOL0     H64121   9.484   1.518   5.539 -1.5948 -1.3235  1.9199
  465MOL0     H64122   9.584   1.814   5.611  1.7607  0.2739  2.7182
  465MOL0     H64123   9.699   1.697   5.597  1.0440  2.4353  2.1315
  465MOL0     H64124   9.596   1.662   5.343 -0.6856 -2.5651  1.9943
  465MOL0     H64125   9.500   1.795   5.395 -0.3302 -0.6544 -0.8797
  465MOL0     H64126   9.734   1.910   5.440 -0.0348 -0.7442  0.3733
  465MOL0     H64127   9.795   1.744   5.402 -1.3801 -1.3469 -0.4618
  465MOL0     H64128   9.981   1.947   5.334 -1.8457 -0.2257 -0.0754
  465MOL0     H64129  10.196   2.060   5.138  1.6698 -1.5298 -3.5907
  465MOL0     H64130  10.279   1.917   5.214  0.4222  1.5642 -3.6541
  465MOL0     H64131  10.179   2.028   5.311  1.4809  2.5966 -2.2228
  465MOL0     H64132  10.457   1.671   4.959 -2.1586  0.5068  0.3618
  465MOL0     H64133  10.661   1.609   4.810  1.9237  1.9708 -2.6939
  465MOL0     H64134  10.740   1.697   4.608  1.2579  0.1897  1.3423
  465MOL0     H64135  10.810   1.528   4.599  2.1834  1.8965 -0.6655
  465MOL0     H64136  10.766   1.536   4.353  0.0049  1.5239 -0.9808
  465MOL0     H64137  10.711   1.698   4.368  1.8378  0.3729  0.5828
  465MOL0     H64138  10.935   1.770   4.464 -0.9763 -2.3423  2.3580
  465MOL0     H64139  10.943   1.733   4.299 -4.0274 -0.0119 -1.8755
  465MOL0     H64140  10.997   1.505   4.497 -0.4135  1.1952 -0.6409
  465MOL0     H64141  11.127   1.591   4.444 -0.3373 -1.2629  1.2272
  465MOL0     H64142  10.934   1.453   4.256 -0.4871  0.9603 -0.2722
  465MOL0     H64143  11.082   1.540   4.205  0.9461  1.0546  1.1437
  465MOL0     H64144  11.047   1.281   4.374 -0.9093  0.4575 -0.4432
  465MOL0     H64145  11.197   1.365   4.357 -0.4540  0.2970  0.2503
  465MOL0     H64146  11.235   1.284   4.136 -0.7945  1.5056 -1.6527
  465MOL0     H64147  11.080   1.328   4.095  1.0684 -0.8034 -2.3368
  465MOL0     H64148  11.039   1.099   4.250 -1.3730  3.2993 -0.4155
  465MOL0     H64149  11.194   1.049   4.181 -1.2600 -2.2955  0.0890
  465MOL0     H64150  10.395   1.576   4.482 -1.1852 -2.2760  1.1524
  465MOL0     H64151  10.190   1.640   4.619  1.3736 -5.0232 -3.6626
  465MOL0     H64152   9.969   1.696   4.904  0.1639 -0.0949  0.2882
  465MOL0     H64153   9.759   1.713   5.032 -0.2911 -0.1522  0.2924
  465MOL0     H64154   9.165   2.343   6.625 -0.1548  2.2752 -0.8940
  465MOL0     H64155   9.204   2.581   6.667  0.2364 -0.1864 -1.3422
  465MOL0     H64156   9.496   2.831   7.146 -3.9262 -1.9648  1.0033
  465MOL0     H64157   9.530   3.071   7.192 -0.7450  0.4946  1.4054
  465MOL0     H64158   9.189   3.272   7.134 -1.1021  2.4015 -3.6314
  465MOL0     H64159   9.318   3.299   7.256  0.3348 -2.2495 -0.3527
  465MOL0     H64160   9.255   3.464   7.014 -2.3887 -3.0785  1.2311
  465MOL0     H64161   9.392   3.498   7.126  0.3923 -0.9905 -0.0889
  465MOL0     H64162   9.102   3.542   7.160  0.3312 -3.5399  1.1622
  465MOL0     H64163   9.197   3.523   7.311  1.2392 -0.2523  1.4613
  465MOL0     H64164   9.169   3.732   7.126 -0.5528 -2.8228  0.2538
  465MOL0     H64165   9.341   3.699   7.123 -0.5884  1.4951 -0.8084
  465MOL0     H64166   9.229   3.865   7.521  1.5001  0.4879  0.1477
  465MOL0     H64167   9.224   3.138   6.892 -2.7969  1.1618  2.4189
  465MOL0     H64168   9.132   2.977   6.761  0.1377  1.6630  1.5475
  465MOL0     H64169   9.244   2.865   6.698  3.1801  2.9073  1.0926
  465MOL0     H64170   9.118   2.808   6.804 -0.6536  1.4132 -0.6010
  466MOL0     O64171   4.500   8.458   4.059  0.4628  0.2304 -0.3183
  466MOL0     C64172   4.609   8.430   4.030 -0.5691  0.2298  0.4995
  466MOL0     O64173   4.631   8.353   3.923 -0.2964  0.7792 -0.0745
  466MOL0     C64174   4.545   8.352   3.817  0.5096  0.1643 -0.2115
  466MOL0     C64175   4.515   8.240   3.750 -0.3749  0.5365  1.0521
  466MOL0     C64176   4.429   8.247   3.640 -0.0465  0.3169  0.6081
  466MOL0     C64177   4.375   8.370   3.593 -0.2394 -0.5162 -0.0723
  466MOL0     O64178   4.310   8.384   3.472  0.3068  1.3452 -0.0821
  466MOL0     C64179   4.261   8.508   3.432  0.5767  0.3725 -0.7108
  466MOL0     C64180   4.179   8.484   3.303  0.7053  0.3919 -0.3114
  466MOL0     C64181   4.052   8.402   3.345 -0.4886 -0.7381  0.2213
  466MOL0     C64182   3.970   8.372   3.210  0.5533 -0.9155 -0.4595
  466MOL0     C64183   3.840   8.329   3.261  0.4225  1.0027  0.5850
  466MOL0     C64184   3.762   8.260   3.151  0.3524  0.2689 -0.5708
  466MOL0     C64185   3.624   8.204   3.194  0.6375 -0.3374 -0.8168
  466MOL0     C64186   3.578   8.087   3.101 -0.4577 -0.1539 -0.1406
  466MOL0     N64187   3.656   7.969   3.090  0.1966 -0.1687  0.4854
  466MOL0     C64188   3.696   7.878   3.190 -0.1539  0.6602  0.3533
  466MOL0     C64189   3.722   7.765   3.105  0.1927  0.0950 -0.7918
  466MOL0     C64190   3.781   7.637   3.163  0.5687 -0.7534 -0.1323
  466MOL0     C64191   3.929   7.658   3.198 -1.2006  0.5190 -0.0056
  466MOL0     C64192   3.961   7.575   3.324 -0.1133 -0.8589  0.5610
  466MOL0     C64193   4.097   7.622   3.375  0.5263 -0.4194  0.6226
  466MOL0     O64194   4.102   7.745   3.448  0.4699  0.5516  1.3444
  466MOL0     C64195   4.183   7.776   3.552 -0.5371 -0.3337  0.9750
  466MOL0     C64196   4.280   7.692   3.606  0.7728  0.1112 -0.5330
  466MOL0     C64197   4.362   7.738   3.712 -0.4387  0.2194  0.1347
  466MOL0     C64198   4.461   7.631   3.756 -0.0200 -0.3230  0.1340
  466MOL0     C64199   4.346   7.868   3.768 -0.6142 -0.1004  0.3120
  466MOL0     C64200   4.440   7.917   3.874  0.5094  0.3331 -0.2958
  466MOL0     O64201   4.375   7.986   3.983  0.1157  0.4382  0.4648
  466MOL0     C64202   4.443   8.014   4.095  0.0487  0.3215  0.5583
  466MOL0     C64203   4.451   8.149   4.141  0.2978 -0.1647  0.3873
  466MOL0     C64204   4.519   8.190   4.255 -0.2324  0.0044 -0.1953
  466MOL0     C64205   4.585   8.091   4.330 -0.3195 -0.3333  0.4367
  466MOL0     O64206   4.661   8.127   4.444 -0.2970  0.8953  0.2913
  466MOL0     C64207   4.800   8.084   4.459 -0.2193  0.2308  0.1315
  466MOL0     C64208   4.816   7.952   4.531 -0.1593  0.1220  0.5216
  466MOL0     C64209   4.788   7.949   4.687  0.4573  0.0688 -0.0777
  466MOL0     C64210   4.897   8.011   4.773  0.0349 -0.1524  0.4797
  466MOL0     C64211   4.849   8.043   4.918  0.4140  0.1504 -0.2104
  466MOL0     C64212   4.939   8.139   5.004 -0.2024 -0.9093  0.4169
  466MOL0     C64213   5.091   8.104   5.029 -0.5748 -0.2240  0.7276
  466MOL0     C64214   5.171   8.218   5.098 -0.4466 -0.1047  0.1847
  466MOL0    Cl64215   5.337   8.175   5.136 -0.2291  0.1420 -0.1085
  466MOL0     C64216   4.574   7.955   4.282  1.0842 -0.3157  0.0964
  466MOL0     C64217   4.506   7.917   4.167  0.2956 -0.3392  0.5230
  466MOL0     O64218   4.560   7.889   3.877 -0.0458 -0.2045 -0.6529
  466MOL0     C64219   4.250   7.949   3.719 -0.4451  0.2956 -0.1188
  466MOL0     C64220   4.170   7.905   3.611 -0.3628 -1.0317  0.4444
  466MOL0     N64221   3.689   7.792   2.963  0.3490 -0.7826 -0.8888
  466MOL0     N64222   3.652   7.914   2.961  0.6531  0.3576 -0.0507
  466MOL0     C64223   4.413   8.486   3.667 -1.3485 -0.9067  0.3241
  466MOL0     C64224   4.493   8.476   3.778  0.4637 -0.4440  0.8605
  466MOL0     C64225   4.728   8.444   4.124  0.1201 -0.7852 -1.4100
  466MOL0     C64226   4.846   8.363   4.105 -0.1697  0.0116  0.4177
  466MOL0     C64227   4.949   8.387   4.191 -0.4469  0.1496 -0.3356
  466MOL0     C64228   4.950   8.481   4.291  1.1055  1.3065 -0.4349
  466MOL0     O64229   5.057   8.492   4.368 -0.9300  0.1194 -1.2997
  466MOL0     C64230   5.065   8.595   4.468  0.0980  0.0120 -0.8732
  466MOL0     C64231   5.086   8.736   4.405 -0.6767  0.4978 -0.2093
  466MOL0     C64232   5.189   8.733   4.292 -0.4769 -0.5166 -0.5954
  466MOL0     C64233   5.337   8.721   4.326  0.6349  0.2597 -1.1212
  466MOL0     C64234   5.416   8.829   4.267  0.3127 -0.5142 -0.2930
  466MOL0     C64235   5.485   8.919   4.230  0.2750  0.4425 -0.3935
  466MOL0     C64236   4.831   8.555   4.312 -0.6807  0.7136  0.5440
  466MOL0     C64237   4.725   8.532   4.236 -0.1790  0.5290  0.0935
  466MOL0     C64238   4.599   8.612   4.265  0.5322 -0.1125 -0.8778
  466MOL0     H64239   4.552   8.146   3.790 -3.0170 -0.6304  0.9785
  466MOL0     H64240   4.421   8.156   3.581  0.8877  0.2222  0.6096
  466MOL0     H64241   4.346   8.577   3.422  0.8130 -0.1078 -2.2666
  466MOL0     H64242   4.187   8.545   3.504  2.4673  1.0232  1.0148
  466MOL0     H64243   4.147   8.583   3.269 -0.7267  0.4765  1.1604
  466MOL0     H64244   4.233   8.441   3.219  0.0405  2.9084 -2.1486
  466MOL0     H64245   4.082   8.303   3.381  1.6387  0.5631  2.3365
  466MOL0     H64246   3.997   8.444   3.430 -1.5929 -2.6530  0.5139
  466MOL0     H64247   3.976   8.461   3.148  0.2778 -1.4890 -1.3230
  466MOL0     H64248   4.014   8.290   3.153  0.3660 -0.0916 -1.8132
  466MOL0     H64249   3.784   8.410   3.309 -0.4079 -0.5089  2.2703
  466MOL0     H64250   3.840   8.257   3.343 -0.9239  0.3527  0.0414
  466MOL0     H64251   3.745   8.317   3.059 -0.0706  2.1391  0.6076
  466MOL0     H64252   3.821   8.173   3.121 -0.2644  0.8157 -3.7499
  466MOL0     H64253   3.552   8.286   3.192  0.0076 -0.8260  0.6430
  466MOL0     H64254   3.618   8.181   3.301 -1.2204  2.1014 -0.3158
  466MOL0     H64255   3.474   8.059   3.123 -1.8006  2.2700 -2.7218
  466MOL0     H64256   3.570   8.136   3.004  0.5347  0.6415  0.1574
  466MOL0     H64257   3.701   7.890   3.298  1.9800  1.0841  0.2526
  466MOL0     H64258   3.774   7.559   3.087  2.7612 -1.5330  0.4064
  466MOL0     H64259   3.709   7.616   3.243  1.9212 -2.6577  0.6386
  466MOL0     H64260   3.980   7.625   3.107 -2.3202  0.2312 -0.5513
  466MOL0     H64261   3.957   7.762   3.219  2.2785 -0.2736 -0.1667
  466MOL0     H64262   3.893   7.603   3.404  0.9795  0.8522  0.9299
  466MOL0     H64263   3.968   7.467   3.304  2.8768 -1.4021  3.6380
  466MOL0     H64264   4.136   7.551   3.449  3.0721 -0.3996 -0.6008
  466MOL0     H64265   4.165   7.618   3.289 -1.2742 -1.0802 -0.8249
  466MOL0     H64266   4.304   7.592   3.572  0.6660 -0.6387  1.4478
  466MOL0     H64267   4.556   7.663   3.713 -0.6254  5.7813  2.3230
  466MOL0     H64268   4.437   7.529   3.724  2.1361 -1.0568  0.6657
  466MOL0     H64269   4.484   7.635   3.863 -0.7200  3.1601  0.2540
  466MOL0     H64270   4.412   8.227   4.076  0.0547 -0.2617  0.4146
  466MOL0     H64271   4.514   8.292   4.292 -3.3467  0.0360 -0.4482
  466MOL0     H64272   4.848   8.077   4.361 -2.9221  0.7147 -1.3352
  466MOL0     H64273   4.848   8.167   4.512 -1.3957 -0.7415  2.8537
  466MOL0     H64274   4.749   7.885   4.476 -0.6644  0.0348  1.2351
  466MOL0     H64275   4.921   7.921   4.520  0.5982  1.9073  2.1542
  466MOL0     H64276   4.757   7.847   4.707 -0.0329  0.0430 -0.9422
  466MOL0     H64277   4.695   8.002   4.709 -0.6191 -2.3455  1.4807
  466MOL0     H64278   4.924   8.108   4.729  0.7482 -1.3302 -1.8469
  466MOL0     H64279   4.986   7.947   4.767 -2.0338 -3.1231 -1.2611
  466MOL0     H64280   4.753   8.094   4.923 -0.0899 -0.8480  1.0887
  466MOL0     H64281   4.838   7.949   4.973  0.1004  0.3707  0.1058
  466MOL0     H64282   4.881   8.166   5.093 -2.9297  1.8050 -1.9595
  466MOL0     H64283   4.949   8.234   4.950 -3.4083  0.0822  1.3666
  466MOL0     H64284   5.140   8.086   4.933 -3.2219  0.0278 -0.7636
  466MOL0     H64285   5.097   8.012   5.089  2.2306 -0.5629  0.0600
  466MOL0     H64286   5.109   8.231   5.188 -1.9345 -2.9589 -0.3053
  466MOL0     H64287   5.164   8.312   5.042 -1.2347 -1.2575 -1.7272
  466MOL0     H64288   4.627   7.873   4.329  0.6565 -0.0508  1.0656
  466MOL0     H64289   4.503   7.818   4.122  0.3583  1.1431 -3.1271
  466MOL0     H64290   4.216   8.033   3.778 -2.2538 -0.1516 -0.4748
  466MOL0     H64291   4.085   7.959   3.571  0.3835  0.3573  0.6513
  466MOL0     H64292   4.401   8.590   3.639  1.8045 -1.2549 -3.0362
  466MOL0     H64293   4.521   8.569   3.827 -0.8737  0.8850 -0.7949
  466MOL0     H64294   4.862   8.289   4.027  3.1006  1.2788 -0.2617
  466MOL0     H64295   5.037   8.326   4.208 -2.0338 -1.4952  2.9044
  466MOL0     H64296   4.977   8.613   4.531  2.2066  2.8423  1.5397
  466MOL0     H64297   5.153   8.577   4.530  1.1466 -0.5362 -2.4802
  466MOL0     H64298   5.137   8.800   4.478  0.6043 -1.0104  0.2917
  466MOL0     H64299   4.986   8.771   4.376 -1.0222 -2.6956 -3.5448
  466MOL0     H64300   5.160   8.661   4.215 -0.2072 -0.0136 -1.1692
  466MOL0     H64301   5.174   8.827   4.239 -1.1655 -0.4061 -0.2202
  466MOL0     H64302   5.365   8.617   4.303 -1.2993 -1.1306  2.0278
  466MOL0     H64303   5.359   8.722   4.433  0.5665 -2.8886 -0.9656
  466MOL0     H64304   5.548   9.004   4.210 -2.4213  1.9304 -3.3768
  466MOL0     H64305   4.819   8.636   4.383 -1.0601 -0.3389  1.6947
  466MOL0     H64306   4.559   8.669   4.181  1.4798  1.2811 -0.4106
  466MOL0     H64307   4.517   8.545   4.294  0.9331  0.9278  3.1541
  466MOL0     H64308   4.605   8.672   4.356 -1.6455 -0.1239 -0.6613
  467MOL0     O64309   4.404   5.690   6.188  1.0253  0.0699 -0.8542
  467MOL0     C64310   4.435   5.771   6.098  0.8508  0.2959 -0.3525
  467MOL0     O64311   4.495   5.738   5.975 -0.0736 -0.5854 -0.0405
  467MOL0     C64312   4.544   5.618   5.960  0.0094  0.3267  1.4222
  467MOL0     C64313   4.637   5.562   6.047 -0.7880  0.4327  0.9767
  467MOL0     C64314   4.679   5.426   6.027 -0.7269 -0.1565 -0.9721
  467MOL0     C64315   4.642   5.357   5.915 -0.1459  0.3254  0.5029
  467MOL0     O64316   4.690   5.229   5.889  0.0674 -0.8614 -0.4262
  467MOL0     C64317   4.665   5.126   5.988 -0.9354  0.1480  0.2468
  467MOL0     C64318   4.787   5.044   5.978 -0.0208  0.0211 -0.1118
  467MOL0     C64319   4.921   5.124   5.997  1.5006 -0.2016 -0.3535
  467MOL0     C64320   4.956   5.150   6.149  0.4301  0.3168 -0.1419
  467MOL0     C64321   5.092   5.226   6.164  0.0829  0.7179  0.2591
  467MOL0     C64322   5.107   5.275   6.308 -1.2150  0.8214  0.1889
  467MOL0     C64323   5.264   5.307   6.317  0.3392  0.9661 -0.2244
  467MOL0     C64324   5.299   5.416   6.415  1.1234 -0.8432  0.7661
  467MOL0     N64325   5.263   5.362   6.545 -0.7833  0.2482  0.0732
  467MOL0     C64326   5.156   5.409   6.611  0.2981  0.0576 -1.5386
  467MOL0     C64327   5.183   5.367   6.739  0.2680 -1.1108 -0.4976
  467MOL0     C64328   5.102   5.409   6.854 -0.6681 -0.1636 -0.0415
  467MOL0     C64329   4.959   5.347   6.861 -0.1719  0.6598  0.2032
  467MOL0     C64330   4.856   5.395   6.969  0.1794  0.8430 -0.7143
  467MOL0     C64331   4.744   5.292   6.987 -0.9042 -0.7793  0.8776
  467MOL0     O64332   4.624   5.338   7.037  0.4558  0.2462 -0.6363
  467MOL0     C64333   4.523   5.243   7.033 -0.3707  0.5510  0.1399
  467MOL0     C64334   4.551   5.110   7.008  0.9721 -0.4261 -0.1969
  467MOL0     C64335   4.448   5.027   6.993  0.4012  1.3310  0.2701
  467MOL0     C64336   4.489   4.884   6.961  0.2691 -0.6118 -0.1915
  467MOL0     C64337   4.315   5.064   7.022  0.3259 -0.0891  0.9155
  467MOL0     C64338   4.189   4.973   7.021  0.2506 -1.2481 -0.1772
  467MOL0     O64339   4.080   5.031   7.084 -0.1013 -0.2923 -0.3270
  467MOL0     C64340   3.965   4.972   7.111 -0.0789  0.1931  0.0185
  467MOL0     C64341   3.848   4.998   7.037 -0.4917  0.4856 -0.9292
  467MOL0     C64342   3.727   4.928   7.054 -0.6845  0.1368 -0.6813
  467MOL0     C64343   3.716   4.827   7.154  0.5929 -0.2096  1.0678
  467MOL0     O64344   3.594   4.748   7.177  0.2420 -0.0935  0.4673
  467MOL0     C64345   3.551   4.699   7.303 -0.3675 -0.5729  0.1075
  467MOL0     C64346   3.408   4.653   7.263 -1.4692 -0.3727  0.2832
  467MOL0     C64347   3.313   4.768   7.277 -0.8490 -0.8003  0.1671
  467MOL0     C64348   3.177   4.733   7.218  0.8365  0.3799 -0.0420
  467MOL0     C64349   3.166   4.718   7.062 -0.7030 -0.4909 -0.3945
  467MOL0     C64350   3.026   4.673   7.010  0.0550 -0.0110  0.4261
  467MOL0     C64351   2.939   4.781   6.957  0.3005  0.6412  0.8310
  467MOL0     C64352   2.808   4.720   6.903 -0.3044 -0.5529  0.7048
  467MOL0    Cl64353   2.689   4.674   7.033  0.0102  0.1918  0.0959
  467MOL0     C64354   3.828   4.792   7.218 -0.1024 -0.4219 -0.1922
  467MOL0     C64355   3.949   4.860   7.200  0.0674 -0.1176 -0.1117
  467MOL0     O64356   4.187   4.866   6.962 -0.0864  0.2346 -0.7893
  467MOL0     C64357   4.293   5.193   7.066  0.7350  0.3211 -0.4657
  467MOL0     C64358   4.399   5.286   7.071  0.3289 -0.1752  0.5813
  467MOL0     N64359   5.293   5.284   6.746 -0.7715 -0.7799  0.5007
  467MOL0     N64360   5.337   5.277   6.621  0.2358 -0.1393 -1.0246
  467MOL0     C64361   4.565   5.424   5.819  0.5093 -0.0938 -0.8260
  467MOL0     C64362   4.508   5.550   5.847  1.1289  0.2259  0.3787
  467MOL0     C64363   4.381   5.903   6.114 -0.1312 -0.1753  0.6388
  467MOL0     C64364   4.407   5.999   6.004  0.0070  0.7199 -0.4569
  467MOL0     C64365   4.349   6.120   6.003  0.8779  0.4497  0.5844
  467MOL0     C64366   4.273   6.160   6.116 -0.4428 -0.0186 -0.3804
  467MOL0     O64367   4.216   6.282   6.132 -0.0914  0.3091 -1.1343
  467MOL0     C64368   4.302   6.396   6.105 -0.9756 -0.5828  0.6694
  467MOL0     C64369   4.444   6.392   6.170 -0.0577 -0.7415  0.4520
  467MOL0     C64370   4.551   6.494   6.126  0.3075 -1.0860 -0.7535
  467MOL0     C64371   4.560   6.622   6.213  0.3402  0.9607 -0.5611
  467MOL0     C64372   4.432   6.694   6.221  0.2033  0.2666  0.2146
  467MOL0     C64373   4.320   6.740   6.239  0.9108  1.3553 -0.0644
  467MOL0     C64374   4.262   6.079   6.226  0.0173 -0.4003  0.4131
  467MOL0     C64375   4.292   5.948   6.224 -1.1944 -0.3407 -0.0621
  467MOL0     C64376   4.253   5.870   6.353 -0.1488  0.1019 -0.1948
  467MOL0     H64377   4.672   5.623   6.129  1.3804  4.2637 -2.4041
  467MOL0     H64378   4.738   5.384   6.107 -0.4713  1.6619 -0.1565
  467MOL0     H64379   4.577   5.066   5.962  1.2901 -2.7118 -1.2231
  467MOL0     H64380   4.671   5.162   6.092 -3.3491  1.2728  0.0695
  467MOL0     H64381   4.796   4.949   6.030  4.0751  0.0154 -0.5491
  467MOL0     H64382   4.790   5.001   5.877 -2.3409 -3.3081  1.0571
  467MOL0     H64383   4.995   5.063   5.944  2.1871  2.1287 -2.2760
  467MOL0     H64384   4.922   5.224   5.953 -1.5796  0.3492  0.6363
  467MOL0     H64385   4.888   5.215   6.203  1.9689 -0.2551  2.6724
  467MOL0     H64386   4.961   5.050   6.193 -2.0732  0.7543  1.2795
  467MOL0     H64387   5.100   5.310   6.094 -2.5736 -0.1979 -1.2868
  467MOL0     H64388   5.178   5.162   6.143  1.8157  2.5112  1.5717
  467MOL0     H64389   5.038   5.360   6.315 -2.6863 -0.1810 -1.2984
  467MOL0     H64390   5.075   5.198   6.378 -0.1035 -2.0050 -2.2012
  467MOL0     H64391   5.289   5.350   6.220 -1.6884 -2.1034 -2.3094
  467MOL0     H64392   5.325   5.219   6.338 -0.2298  0.4524 -0.6881
  467MOL0     H64393   5.399   5.458   6.406 -0.2281  2.9668  1.6877
  467MOL0     H64394   5.229   5.499   6.400  0.0042 -1.8665  0.0719
  467MOL0     H64395   5.078   5.478   6.580 -1.1468  0.8469  2.9786
  467MOL0     H64396   5.096   5.517   6.870  1.5602 -0.0804  0.5854
  467MOL0     H64397   5.155   5.381   6.946 -0.5612  1.8427  0.5582
  467MOL0     H64398   4.921   5.364   6.759 -0.7905  0.3838  0.3837
  467MOL0     H64399   4.966   5.238   6.871 -1.1918  0.4729 -0.8348
  467MOL0     H64400   4.911   5.398   7.063 -0.5502 -0.8477 -0.2002
  467MOL0     H64401   4.823   5.499   6.959 -1.1029  0.8810  2.6176
  467MOL0     H64402   4.737   5.241   6.891  3.2657  1.3250 -0.8535
  467MOL0     H64403   4.786   5.230   7.066  1.8499 -2.0243 -1.3620
  467MOL0     H64404   4.650   5.066   7.006  0.4078 -1.8612 -3.4961
  467MOL0     H64405   4.527   4.834   7.051 -2.4286 -3.0640 -0.2676
  467MOL0     H64406   4.574   4.881   6.891  0.7938  0.1274  0.3971
  467MOL0     H64407   4.405   4.824   6.925 -0.0212  0.3717 -1.2134
  467MOL0     H64408   3.855   5.057   6.946  1.6564 -0.1749 -1.2595
  467MOL0     H64409   3.653   4.963   6.983  0.7456 -1.1365 -2.9055
  467MOL0     H64410   3.613   4.617   7.341  1.4466  0.7866  0.2491
  467MOL0     H64411   3.560   4.773   7.383 -0.5117  0.8538 -1.1648
  467MOL0     H64412   3.418   4.622   7.159  1.0333  2.4193 -0.4372
  467MOL0     H64413   3.382   4.568   7.327  0.9742 -0.1932  1.6220
  467MOL0     H64414   3.361   4.854   7.230 -2.4819  0.3608  0.5258
  467MOL0     H64415   3.308   4.795   7.383 -2.6223 -1.7394  0.3628
  467MOL0     H64416   3.109   4.815   7.244  3.3657  2.8747 -0.7827
  467MOL0     H64417   3.137   4.644   7.267 -0.5448  1.6243  1.1932
  467MOL0     H64418   3.204   4.810   7.015  0.6938 -0.3505  0.9180
  467MOL0     H64419   3.235   4.634   7.055 -0.3620 -0.1316 -1.5842
  467MOL0     H64420   2.978   4.628   7.098  1.9769 -1.3318  0.8926
  467MOL0     H64421   3.037   4.599   6.930  1.1369  0.9400 -0.3375
  467MOL0     H64422   3.004   4.827   6.882 -2.0044  2.7231 -0.0081
  467MOL0     H64423   2.923   4.852   7.038  2.6917  1.5373  0.5869
  467MOL0     H64424   2.820   4.631   6.840  0.1694  1.6659 -2.5875
  467MOL0     H64425   2.766   4.791   6.831  1.6308 -2.1590 -2.2243
  467MOL0     H64426   3.821   4.712   7.291  2.8462  0.6981  1.4986
  467MOL0     H64427   4.028   4.826   7.267  1.2157 -2.7873 -2.6237
  467MOL0     H64428   4.191   5.225   7.088  0.6239  1.8010 -2.8301
  467MOL0     H64429   4.393   5.389   7.105  5.9911  0.3827  0.8538
  467MOL0     H64430   4.548   5.361   5.733 -1.9877  2.9915 -2.8239
  467MOL0     H64431   4.446   5.590   5.766  2.0732  0.3009 -0.3280
  467MOL0     H64432   4.464   5.972   5.915 -0.2084 -0.5803 -0.2287
  467MOL0     H64433   4.351   6.186   5.917 -2.1946  1.8847  1.4437
  467MOL0     H64434   4.322   6.409   5.999  0.8610  2.8514  1.2968
  467MOL0     H64435   4.247   6.487   6.129 -0.5758  0.1385 -1.0588
  467MOL0     H64436   4.491   6.295   6.153  3.2363  0.3650  2.3545
  467MOL0     H64437   4.441   6.396   6.279  1.8209 -2.0157  0.5905
  467MOL0     H64438   4.651   6.450   6.127  0.6058 -0.4245  0.2549
  467MOL0     H64439   4.543   6.531   6.024 -1.3483  4.7995  1.0653
  467MOL0     H64440   4.631   6.697   6.178  2.5482 -1.6272 -2.1014
  467MOL0     H64441   4.600   6.597   6.311  1.8283  3.9423 -0.3067
  467MOL0     H64442   4.230   6.784   6.276 -1.0622 -3.7319  2.1976
  467MOL0     H64443   4.210   6.126   6.309  0.2470  0.2154  0.2133
  467MOL0     H64444   4.220   5.933   6.437 -0.5480  3.6905 -2.8287
  467MOL0     H64445   4.166   5.811   6.324  1.6502 -2.1163 -1.3972
  467MOL0     H64446   4.336   5.806   6.384 -0.6570 -1.2084 -1.4551
  468MOL0     O64447   8.757   4.736   1.478  0.4003 -0.3968  0.3187
  468MOL0     C64448   8.730   4.728   1.603 -0.4682  0.1894  0.8954
  468MOL0     O64449   8.598   4.742   1.663 -1.1665  0.5922 -1.3991
  468MOL0     C64450   8.522   4.791   1.566  0.6284 -1.2642 -0.5709
  468MOL0     C64451   8.475   4.925   1.569 -0.0653 -0.3314 -0.5666
  468MOL0     C64452   8.369   4.969   1.487 -1.1653  0.3213 -0.3901
  468MOL0     C64453   8.312   4.881   1.394  0.1544  0.1317  0.2535
  468MOL0     O64454   8.219   4.927   1.308 -0.5411  0.4023 -0.4707
  468MOL0     C64455   8.278   5.007   1.205  0.1554  0.2105 -0.7132
  468MOL0     C64456   8.175   5.118   1.172 -0.0204  0.2752  1.0449
  468MOL0     C64457   8.219   5.215   1.055 -0.0647 -0.1178  0.4505
  468MOL0     C64458   8.231   5.137   0.922 -0.0295  0.5539  0.2216
  468MOL0     C64459   8.297   5.228   0.815 -0.6659  0.2646 -0.4411
  468MOL0     C64460   8.336   5.165   0.679  0.2596 -0.5429  0.7637
  468MOL0     C64461   8.359   5.262   0.568 -0.9413 -0.2708 -0.2984
  468MOL0     C64462   8.371   5.175   0.442  0.6866 -1.0469  0.4949
  468MOL0     N64463   8.425   5.250   0.326  0.3105  0.0995  0.7463
  468MOL0     C64464   8.367   5.364   0.279 -0.0647  0.5365  0.6884
  468MOL0     C64465   8.459   5.408   0.181  0.3472  0.8971  0.2322
  468MOL0     C64466   8.459   5.531   0.106  0.6696 -0.4711  0.3095
  468MOL0     C64467   8.326   5.593   0.075  0.1986 -0.1754  0.3773
  468MOL0     C64468   8.311   5.661  -0.061 -0.1031 -0.1764  1.1911
  468MOL0     C64469   8.164   5.678  -0.095  0.2152  0.9606  0.1889
  468MOL0     O64470   8.148   5.761  -0.212 -0.0241 -0.0454  0.3886
  468MOL0     C64471   8.188   5.890  -0.220  0.3809 -0.5594 -0.0002
  468MOL0     C64472   8.202   5.941  -0.340 -0.1571 -0.4468  0.1704
  468MOL0     C64473   8.232   6.082  -0.355 -0.7320 -0.4693  0.7620
  468MOL0     C64474   8.255   6.137  -0.496  0.0895  1.1934 -0.5821
  468MOL0     C64475   8.253   6.165  -0.241  0.2342 -0.4744 -0.7205
  468MOL0     C64476   8.286   6.309  -0.238 -0.8913  0.1985 -0.3565
  468MOL0     O64477   8.265   6.379  -0.119 -0.2803  0.6337 -0.0280
  468MOL0     C64478   8.306   6.512  -0.128 -0.4481 -0.3837 -0.6089
  468MOL0     C64479   8.229   6.612  -0.182  0.6785  0.4528 -0.7128
  468MOL0     C64480   8.277   6.739  -0.186  0.1862 -0.0701  0.1511
  468MOL0     C64481   8.402   6.770  -0.135  0.0750 -0.2756  0.6603
  468MOL0     O64482   8.444   6.900  -0.149 -0.6745  0.1255 -0.0301
  468MOL0     C64483   8.542   6.949  -0.054 -0.7328 -0.5428 -0.1236
  468MOL0     C64484   8.532   7.107  -0.070  0.7921  0.2593 -0.3541
  468MOL0     C64485   8.414   7.155   0.012  0.4910  0.2854  0.3827
  468MOL0     C64486   8.372   7.303  -0.017  0.8150  0.0702 -0.0412
  468MOL0     C64487   8.224   7.318   0.004 -0.2232  0.1842 -0.3623
  468MOL0     C64488   8.171   7.458  -0.013 -0.2331  1.0058  0.4521
  468MOL0     C64489   8.184   7.500  -0.159  0.8135 -0.2392 -0.2465
  468MOL0     C64490   8.105   7.408  -0.253 -0.6476 -0.5692 -0.0108
  468MOL0    Cl64491   7.929   7.359  -0.194 -0.0474 -0.2065 -0.2847
  468MOL0     C64492   8.481   6.671  -0.087  0.1686  0.9471 -0.2527
  468MOL0     C64493   8.434   6.541  -0.082 -0.8992  0.2609 -1.3977
  468MOL0     O64494   8.321   6.356  -0.344  0.0530 -1.4987 -0.4067
  468MOL0     C64495   8.253   6.106  -0.121 -0.2182  0.0968 -0.2861
  468MOL0     C64496   8.215   5.972  -0.111  0.5171 -0.8540  0.7110
  468MOL0     N64497   8.550   5.306   0.161 -0.2050 -0.1685  0.7582
  468MOL0     N64498   8.531   5.211   0.244 -0.3340  0.5430 -0.2550
  468MOL0     C64499   8.359   4.750   1.387  1.6149  0.4862 -0.1757
  468MOL0     C64500   8.450   4.714   1.482  0.0953 -0.1534  0.8478
  468MOL0     C64501   8.838   4.662   1.684  0.4839 -1.4651  0.3783
  468MOL0     C64502   8.807   4.534   1.749  0.5466 -0.2010  0.2409
  468MOL0     C64503   8.915   4.456   1.798  0.9970 -0.7809 -0.0762
  468MOL0     C64504   9.039   4.496   1.785 -0.4362  0.5159 -0.6679
  468MOL0     O64505   9.142   4.412   1.832  0.0200  0.0168  1.0064
  468MOL0     C64506   9.260   4.463   1.899 -0.1438 -0.5271  0.6442
  468MOL0     C64507   9.384   4.441   1.813  0.6568  0.5813  0.4828
  468MOL0     C64508   9.466   4.309   1.840  1.2360  0.6122 -0.3703
  468MOL0     C64509   9.606   4.321   1.782  0.2036  0.0710  0.9309
  468MOL0     C64510   9.667   4.185   1.789  0.5401  0.6006  0.2553
  468MOL0     C64511   9.726   4.081   1.760 -1.0574  0.0663 -0.3021
  468MOL0     C64512   9.069   4.617   1.736  0.6177  0.8054 -0.1804
  468MOL0     C64513   8.975   4.699   1.672  0.6681 -0.2160  0.0174
  468MOL0     C64514   9.014   4.818   1.591 -0.8820  0.1383 -0.2968
  468MOL0     H64515   8.518   5.001   1.633 -0.5649  1.7650 -2.5757
  468MOL0     H64516   8.324   5.068   1.478 -2.7741 -0.4051 -0.7561
  468MOL0     H64517   8.317   4.948   1.123  0.0219 -1.3240  0.2861
  468MOL0     H64518   8.368   5.059   1.239 -2.0479  2.5991  2.1030
  468MOL0     H64519   8.079   5.072   1.143 -0.8383  3.6633 -2.5613
  468MOL0     H64520   8.147   5.170   1.264 -0.4280 -1.0495  1.7040
  468MOL0     H64521   8.143   5.293   1.041 -1.2522 -1.1451  0.9720
  468MOL0     H64522   8.315   5.254   1.091  0.1808 -0.8862  0.6334
  468MOL0     H64523   8.296   5.049   0.923 -0.9955 -0.2446 -1.6381
  468MOL0     H64524   8.138   5.114   0.870  1.4345 -0.3496 -2.2140
  468MOL0     H64525   8.385   5.270   0.865  0.2916  0.6856 -2.4059
  468MOL0     H64526   8.238   5.319   0.795 -1.0594  0.1987  0.3685
  468MOL0     H64527   8.425   5.102   0.683  0.4259 -0.6745 -2.4106
  468MOL0     H64528   8.253   5.099   0.650 -2.0238  2.6207 -0.4518
  468MOL0     H64529   8.451   5.317   0.587 -0.8910 -0.2208 -0.6928
  468MOL0     H64530   8.278   5.335   0.560 -0.6579 -0.1343 -2.4220
  468MOL0     H64531   8.432   5.086   0.453  0.9786 -1.1785 -1.7284
  468MOL0     H64532   8.275   5.131   0.415  0.6169 -3.2756  3.8593
  468MOL0     H64533   8.282   5.421   0.316  0.2704  1.5473 -0.0546
  468MOL0     H64534   8.501   5.496   0.011  0.5400  0.7893 -0.2309
  468MOL0     H64535   8.528   5.602   0.153  1.3728  0.8328 -2.4763
  468MOL0     H64536   8.245   5.521   0.089  2.5292 -2.6610  2.1228
  468MOL0     H64537   8.311   5.675   0.146  2.6703 -0.1039  0.9196
  468MOL0     H64538   8.369   5.753  -0.066 -0.0947 -0.2087  0.5815
  468MOL0     H64539   8.355   5.598  -0.140 -2.7192 -2.5276  1.4489
  468MOL0     H64540   8.123   5.582  -0.126  3.5541 -1.1380  1.7825
  468MOL0     H64541   8.107   5.719  -0.011 -1.7362 -0.3594 -0.4174
  468MOL0     H64542   8.194   5.883  -0.431  0.7335  0.8247 -0.7609
  468MOL0     H64543   8.193   6.225  -0.514  0.6708  1.9519  0.9331
  468MOL0     H64544   8.227   6.062  -0.570 -2.1674  0.8531  0.5037
  468MOL0     H64545   8.361   6.164  -0.500 -0.4155  3.2253 -1.6482
  468MOL0     H64546   8.131   6.595  -0.225 -0.7505  1.0160  2.0950
  468MOL0     H64547   8.216   6.820  -0.225  2.5124  2.1942  0.9341
  468MOL0     H64548   8.516   6.911   0.045  0.0022 -1.5931 -0.3192
  468MOL0     H64549   8.644   6.919  -0.079 -0.0390  1.8937 -0.4156
  468MOL0     H64550   8.628   7.156  -0.055  0.6036  0.1259  1.5215
  468MOL0     H64551   8.502   7.133  -0.172  1.0905 -0.4307 -0.6229
  468MOL0     H64552   8.425   7.136   0.119  1.5168 -2.5474 -0.1311
  468MOL0     H64553   8.336   7.087  -0.022 -0.2237  1.2470  0.0588
  468MOL0     H64554   8.394   7.337  -0.119  1.8836 -0.8545 -0.1358
  468MOL0     H64555   8.411   7.370   0.060  3.1419 -2.9945  1.6421
  468MOL0     H64556   8.166   7.249  -0.058  1.5947 -3.0999  1.2803
  468MOL0     H64557   8.199   7.270   0.100 -0.9959 -2.5577 -1.8249
  468MOL0     H64558   8.225   7.530   0.049  2.5652  1.0365 -1.7915
  468MOL0     H64559   8.066   7.468   0.017 -0.5173  0.0181 -0.1479
  468MOL0     H64560   8.289   7.516  -0.188  0.8804 -0.6230 -0.2264
  468MOL0     H64561   8.148   7.601  -0.177  1.8505 -0.2134 -2.6602
  468MOL0     H64562   8.165   7.320  -0.276 -2.1229 -1.2785 -1.4358
  468MOL0     H64563   8.095   7.451  -0.353  0.9228  0.4291  0.2377
  468MOL0     H64564   8.584   6.682  -0.055  1.2243  0.4627 -3.1887
  468MOL0     H64565   8.503   6.464  -0.048  1.5532  2.4849 -1.0270
  468MOL0     H64566   8.289   6.155  -0.032  2.4163 -3.1838  0.6685
  468MOL0     H64567   8.207   5.928  -0.012 -1.8254  2.2097  2.0703
  468MOL0     H64568   8.311   4.687   1.313 -1.0392  0.5171  1.3918
  468MOL0     H64569   8.467   4.607   1.482 -3.2792 -0.9211 -2.4371
  468MOL0     H64570   8.709   4.488   1.740  0.7978 -0.5040 -1.1766
  468MOL0     H64571   8.889   4.354   1.825 -1.3758  0.5543  3.2329
  468MOL0     H64572   9.237   4.567   1.921  0.0131  0.3368 -2.6854
  468MOL0     H64573   9.272   4.399   1.987 -5.0996  0.5727  2.4700
  468MOL0     H64574   9.448   4.530   1.812 -0.1329  1.1513 -0.6150
  468MOL0     H64575   9.343   4.448   1.712 -1.6870  1.4624  1.4375
  468MOL0     H64576   9.465   4.281   1.946  2.3518 -1.6792 -0.9120
  468MOL0     H64577   9.419   4.237   1.772 -2.0710  1.5083  0.7524
  468MOL0     H64578   9.654   4.398   1.843  0.1500 -0.4231  1.5928
  468MOL0     H64579   9.599   4.348   1.676  0.0302  0.8445  1.1330
  468MOL0     H64580   9.781   3.991   1.739 -0.8816  0.7290 -3.0723
  468MOL0     H64581   9.173   4.645   1.722  1.5795 -2.0610  0.6188
  468MOL0     H64582   9.121   4.843   1.599 -0.8872  0.8076 -1.7966
  468MOL0     H64583   8.985   4.810   1.486  1.9729  1.7747 -1.3417
  468MOL0     H64584   8.967   4.900   1.646  0.7744  1.7075 -1.0868
  469MOL0     O64585   9.593   1.852  11.439 -0.8397  0.0223  0.6949
  469MOL0     C64586   9.623   1.880  11.559 -0.4933 -0.5452 -0.5554
  469MOL0     O64587   9.746   1.886  11.606 -0.5321  0.3126 -0.6527
  469MOL0     C64588   9.852   1.921  11.529  0.6400  0.0509  1.0794
  469MOL0     C64589   9.853   2.005  11.413 -1.3618  0.2555 -0.4053
  469MOL0     C64590   9.973   2.047  11.346  0.4363 -0.8376 -0.0884
  469MOL0     C64591  10.096   1.997  11.390  0.6527 -0.1058  0.7464
  469MOL0     O64592  10.220   2.021  11.326 -0.1742  0.4020  0.5285
  469MOL0     C64593  10.211   2.101  11.206 -0.7166  0.9023  0.4306
  469MOL0     C64594  10.336   2.069  11.115 -0.0773 -0.0964  0.7961
  469MOL0     C64595  10.351   1.922  11.094  0.3161 -0.5021 -0.1102
  469MOL0     C64596  10.452   1.890  10.981 -0.7509  0.5553  0.2167
  469MOL0     C64597  10.441   1.746  10.925 -0.4269 -0.3508 -0.1310
  469MOL0     C64598  10.527   1.632  11.002  0.9150  0.1762  0.1822
  469MOL0     C64599  10.674   1.642  10.957  0.3781 -0.1464 -0.5165
  469MOL0     C64600  10.737   1.521  11.030 -0.7948 -0.1717 -0.5252
  469MOL0     N64601  10.771   1.546  11.171 -0.2877  0.1352 -0.4153
  469MOL0     C64602  10.850   1.460  11.254  0.4073  0.4550  1.0048
  469MOL0     C64603  10.887   1.535  11.359  0.7454 -0.1985 -0.5840
  469MOL0     C64604  10.960   1.505  11.492 -0.4356 -0.0005  0.3916
  469MOL0     C64605  10.945   1.359  11.540  0.1035 -0.2714  0.6470
  469MOL0     C64606  11.024   1.345  11.672 -0.4192 -0.5395 -1.1614
  469MOL0     C64607  10.990   1.423  11.795  0.5372  0.7661 -0.2236
  469MOL0     O64608  10.845   1.457  11.792  0.9243  0.0631 -0.7015
  469MOL0     C64609  10.785   1.488  11.918 -0.8212  0.3894 -0.0141
  469MOL0     C64610  10.659   1.431  11.925  0.1733 -0.8437  0.3831
  469MOL0     C64611  10.595   1.426  12.057 -0.0628 -0.8183 -0.9179
  469MOL0     C64612  10.470   1.352  12.071 -0.0809  0.4556  0.1409
  469MOL0     C64613  10.655   1.502  12.169  0.2966  0.4604 -0.2786
  469MOL0     C64614  10.581   1.533  12.294  0.0921  0.3144 -0.1425
  469MOL0     O64615  10.635   1.472  12.398 -0.0146 -0.1534 -0.7305
  469MOL0     C64616  10.570   1.505  12.512 -0.3242  0.1847 -0.2196
  469MOL0     C64617  10.623   1.608  12.593  0.7441 -1.1786 -0.4618
  469MOL0     C64618  10.563   1.630  12.709  0.1949  0.0272 -0.7785
  469MOL0     C64619  10.448   1.558  12.755  0.3012  0.2697  0.0063
  469MOL0     O64620  10.371   1.580  12.870  0.7158 -0.3235  0.3465
  469MOL0     C64621  10.334   1.719  12.863  1.0832  0.0330 -0.4071
  469MOL0     C64622  10.197   1.745  12.944 -0.8014  0.6959 -0.4688
  469MOL0     C64623  10.226   1.719  13.095  0.6788  0.3713 -1.1979
  469MOL0     C64624  10.100   1.727  13.184  0.1483 -0.0578 -0.2703
  469MOL0     C64625  10.130   1.692  13.334  0.4939  0.9041 -0.2962
  469MOL0     C64626  10.227   1.790  13.399  0.0958  0.5195  0.1182
  469MOL0     C64627  10.223   1.787  13.556 -0.6654 -0.4496 -0.1805
  469MOL0     C64628  10.234   1.644  13.616 -0.6396 -0.2372  1.3367
  469MOL0    Cl64629  10.209   1.646  13.790  0.1604  0.5998 -0.1495
  469MOL0     C64630  10.397   1.446  12.677 -0.6434  0.2966 -1.0760
  469MOL0     C64631  10.457   1.433  12.551  0.4363 -0.2113  0.1365
  469MOL0     O64632  10.479   1.597  12.288  0.2428 -0.4176  0.2465
  469MOL0     C64633  10.784   1.562  12.143  0.2253 -0.6244  0.7791
  469MOL0     C64634  10.854   1.560  12.018 -0.4413  0.5955 -0.2982
  469MOL0     N64635  10.846   1.665  11.343  0.3944  0.3072 -0.5805
  469MOL0     N64636  10.782   1.675  11.229  0.4425  0.3127  0.5753
  469MOL0     C64637  10.085   1.907  11.499  0.4829 -0.6256  0.8104
  469MOL0     C64638   9.971   1.869  11.562  0.0302  0.1980 -0.2356
  469MOL0     C64639   9.524   1.883  11.663 -0.1146 -0.9359 -1.1055
  469MOL0     C64640   9.576   1.873  11.798  0.2453  0.4581 -0.6135
  469MOL0     C64641   9.487   1.899  11.905 -0.7540 -1.0034 -0.0701
  469MOL0     C64642   9.347   1.908  11.887 -1.0460  0.7659 -0.0810
  469MOL0     O64643   9.265   1.916  11.998 -0.0784  0.0699  0.5991
  469MOL0     C64644   9.283   1.836  12.111  0.0450 -0.1870 -0.6745
  469MOL0     C64645   9.178   1.720  12.113 -0.3684 -0.6300 -0.1298
  469MOL0     C64646   9.029   1.758  12.084 -0.9209 -0.7216  1.2890
  469MOL0     C64647   8.936   1.647  12.119 -0.0571  0.5374 -0.5375
  469MOL0     C64648   8.863   1.664  12.241 -0.4162  0.2422  0.4814
  469MOL0     C64649   8.797   1.657  12.341 -0.0765  0.1513 -0.1843
  469MOL0     C64650   9.301   1.914  11.761  0.1971  0.4049  1.1265
  469MOL0     C64651   9.381   1.894  11.643 -1.2569 -1.4507  0.1527
  469MOL0     C64652   9.315   1.878  11.515 -0.1085  0.7281  1.0892
  469MOL0     H64653   9.759   2.044  11.377 -1.0550  3.4572  1.9117
  469MOL0     H64654   9.972   2.103  11.253  4.9140 -1.9632 -1.0329
  469MOL0     H64655  10.218   2.207  11.233  0.2195  1.4972 -1.8638
  469MOL0     H64656  10.122   2.077  11.147  1.1008 -1.5241 -1.5694
  469MOL0     H64657  10.337   2.124  11.021 -0.0030  2.4264  2.1790
  469MOL0     H64658  10.433   2.090  11.162 -1.0113  1.5159  2.1338
  469MOL0     H64659  10.385   1.877  11.188 -0.0055 -3.9112 -1.4904
  469MOL0     H64660  10.255   1.887  11.056  2.5743 -5.0005 -2.4348
  469MOL0     H64661  10.411   1.952  10.901  2.7463  3.9329  0.7640
  469MOL0     H64662  10.554   1.920  11.004 -0.7348  1.0805 -0.5175
  469MOL0     H64663  10.466   1.750  10.818  0.9097  0.0135  0.1749
  469MOL0     H64664  10.337   1.714  10.935 -0.5970 -0.2127 -1.2426
  469MOL0     H64665  10.510   1.657  11.107  0.5073  0.3481  0.0796
  469MOL0     H64666  10.474   1.538  10.984 -1.8242  1.8808 -1.2719
  469MOL0     H64667  10.716   1.740  10.981  1.0760  0.0587 -2.4370
  469MOL0     H64668  10.695   1.625  10.851  1.9133  0.5986 -0.3579
  469MOL0     H64669  10.672   1.433  11.023 -2.8951  1.0304  1.9805
  469MOL0     H64670  10.830   1.510  10.975 -1.4897  3.9177 -2.9486
  469MOL0     H64671  10.877   1.357  11.235  2.0682  1.2372 -1.4373
  469MOL0     H64672  10.922   1.574  11.568 -0.9001 -1.5453  1.6066
  469MOL0     H64673  11.062   1.535  11.467 -1.1208  1.4235 -0.8444
  469MOL0     H64674  10.843   1.335  11.572  0.8416 -2.3226  1.6345
  469MOL0     H64675  10.989   1.286  11.472  1.3066  1.7428 -0.8403
  469MOL0     H64676  11.027   1.241  11.706 -1.8924  0.6960  3.5022
  469MOL0     H64677  11.129   1.374  11.655 -0.2418 -0.5777 -0.1771
  469MOL0     H64678  11.010   1.389  11.897 -1.2647  3.4360  1.1381
  469MOL0     H64679  11.034   1.523  11.793 -3.6724  2.9893  2.9064
  469MOL0     H64680  10.611   1.389  11.837 -0.9941  1.4551 -0.1534
  469MOL0     H64681  10.386   1.423  12.067  2.0342  3.3193  2.5563
  469MOL0     H64682  10.468   1.303  12.168 -1.4211  0.6200  0.2244
  469MOL0     H64683  10.469   1.279  11.989  0.3360  0.9414 -0.3008
  469MOL0     H64684  10.701   1.674  12.558 -3.2426  3.1154 -2.3674
  469MOL0     H64685  10.589   1.718  12.768 -1.1764  0.0069 -0.1156
  469MOL0     H64686  10.404   1.775  12.925  0.4803 -1.7659  2.0626
  469MOL0     H64687  10.313   1.754  12.762 -2.1416 -0.4483 -0.0125
  469MOL0     H64688  10.158   1.845  12.923 -3.5316  0.4418  2.5238
  469MOL0     H64689  10.125   1.680  12.893  0.2887  1.6277 -3.3754
  469MOL0     H64690  10.304   1.790  13.124  0.2087  0.9411 -1.3127
  469MOL0     H64691  10.269   1.621  13.117  0.5988  0.6593  0.3671
  469MOL0     H64692  10.019   1.660  13.154 -1.1692  0.0104  2.7288
  469MOL0     H64693  10.060   1.829  13.182 -0.6230 -0.1329  3.6073
  469MOL0     H64694  10.035   1.686  13.388  1.4407 -1.8266  1.3314
  469MOL0     H64695  10.171   1.591  13.348 -1.2570  0.0722 -0.9053
  469MOL0     H64696  10.198   1.885  13.355 -0.5224 -0.3535 -1.4301
  469MOL0     H64697  10.330   1.772  13.367 -0.0242  0.4848 -0.2531
  469MOL0     H64698  10.133   1.828  13.603 -0.7143 -3.1466  2.3853
  469MOL0     H64699  10.313   1.840  13.590 -0.5873 -2.0548  2.3891
  469MOL0     H64700  10.338   1.619  13.595 -0.4972 -1.6560  3.4636
  469MOL0     H64701  10.171   1.567  13.569 -0.3782  1.4704 -2.1202
  469MOL0     H64702  10.323   1.374  12.714  1.0303 -0.5100  0.8647
  469MOL0     H64703  10.420   1.346  12.498  1.4773 -0.8550  0.4302
  469MOL0     H64704  10.820   1.617  12.229  0.7920  1.8779 -0.9438
  469MOL0     H64705  10.956   1.593  12.006 -0.4708  0.4416 -1.0744
  469MOL0     H64706  10.176   1.852  11.520  0.7577 -0.7338 -0.5670
  469MOL0     H64707   9.975   1.785  11.630 -2.7781 -0.6679 -0.9904
  469MOL0     H64708   9.681   1.854  11.819 -0.2050 -2.0265 -0.3095
  469MOL0     H64709   9.525   1.891  12.006 -0.2783  0.5471 -0.1095
  469MOL0     H64710   9.386   1.799  12.121 -0.1644 -1.5334 -2.9039
  469MOL0     H64711   9.270   1.895  12.202 -1.2375  0.5715 -1.3259
  469MOL0     H64712   9.196   1.664  12.205  1.3159  3.0793  2.0177
  469MOL0     H64713   9.218   1.667  12.026 -0.4466  0.5150 -0.8884
  469MOL0     H64714   8.987   1.852  12.120 -0.8380  1.1991 -3.0686
  469MOL0     H64715   9.018   1.773  11.976 -2.3925  0.7706  1.6038
  469MOL0     H64716   9.008   1.568  12.142 -0.0403  0.8545  0.5480
  469MOL0     H64717   8.880   1.605  12.035 -1.9295  0.2922  0.7762
  469MOL0     H64718   8.728   1.649  12.423  0.0877  1.9671  0.1803
  469MOL0     H64719   9.199   1.943  11.738  1.2925  1.4222 -3.5884
  469MOL0     H64720   9.206   1.875  11.529 -0.7409  1.7236 -2.4052
  469MOL0     H64721   9.330   1.951  11.435  0.7850  0.3445  0.8994
  469MOL0     H64722   9.351   1.780  11.482 -1.0173  0.9499 -0.7285
  470MOL0     O64723   7.272  10.702   9.308  0.5920  0.1499  0.1185
  470MOL0     C64724   7.204  10.731   9.213 -0.4399  0.3502 -0.4692
  470MOL0     O64725   7.239  10.705   9.083  0.4009 -0.2441  0.6116
  470MOL0     C64726   7.369  10.691   9.038  0.3426  0.2235  0.8469
  470MOL0     C64727   7.479  10.750   9.097  0.0414  0.8439  0.2980
  470MOL0     C64728   7.606  10.736   9.045 -0.3074 -0.5467 -0.9384
  470MOL0     C64729   7.629  10.657   8.935  0.9059 -1.1577  0.2988
  470MOL0     O64730   7.756  10.653   8.883  0.0561 -0.7834 -0.6052
  470MOL0     C64731   7.780  10.570   8.777 -0.0688  0.2204  0.2255
  470MOL0     C64732   7.932  10.552   8.764 -0.6689  0.2461  1.3608
  470MOL0     C64733   8.001  10.475   8.878  0.6022 -0.4372  0.7255
  470MOL0     C64734   7.981  10.323   8.863  0.7853  0.5747  0.4060
  470MOL0     C64735   8.058  10.228   8.958  0.6212  0.2584  1.0757
  470MOL0     C64736   8.058  10.081   8.893 -0.5769  0.1313  0.1466
  470MOL0     C64737   8.136   9.980   8.983  0.2967 -0.8730 -0.7654
  470MOL0     C64738   8.110   9.832   8.945  0.9843  0.0667 -0.5233
  470MOL0     N64739   8.178   9.782   8.824 -0.7524  0.0127 -0.4302
  470MOL0     C64740   8.293   9.704   8.823 -0.4658  0.1000  0.4528
  470MOL0     C64741   8.308   9.652   8.695  0.9184  0.1542 -1.3563
  470MOL0     C64742   8.409   9.559   8.636  0.1286  0.8256  0.1490
  470MOL0     C64743   8.355   9.418   8.618 -0.1702 -0.0927 -0.4614
  470MOL0     C64744   8.349   9.333   8.748 -0.2370  0.7545 -0.3572
  470MOL0     C64745   8.304   9.197   8.705 -1.7322 -0.3750 -0.2171
  470MOL0     O64746   8.405   9.124   8.631 -0.5533 -0.2186 -0.0930
  470MOL0     C64747   8.380   8.999   8.579 -1.1530 -0.3667  0.5832
  470MOL0     C64748   8.487   8.939   8.508  0.3128  1.0431 -1.2313
  470MOL0     C64749   8.459   8.825   8.434 -1.1792 -0.2740 -0.3126
  470MOL0     C64750   8.556   8.793   8.325  0.3985 -0.4175 -0.4386
  470MOL0     C64751   8.326   8.757   8.440  0.3019  0.6622 -0.0285
  470MOL0     C64752   8.276   8.643   8.354 -0.4054 -0.2986 -0.7915
  470MOL0     O64753   8.139   8.623   8.326 -0.2546  0.6119 -0.7859
  470MOL0     C64754   8.090   8.536   8.230  0.0833  0.6840 -0.8227
  470MOL0     C64755   8.151   8.515   8.107 -0.5985 -0.4714  0.3315
  470MOL0     C64756   8.090   8.449   8.008  0.4555  0.2563  1.0656
  470MOL0     C64757   7.952   8.418   8.018 -0.8492 -0.4409  0.3095
  470MOL0     O64758   7.887   8.361   7.906 -0.2839  0.1494 -0.5993
  470MOL0     C64759   7.889   8.456   7.804 -1.0248  0.7629  0.7796
  470MOL0     C64760   7.784   8.419   7.695 -0.4399 -0.2231  0.3800
  470MOL0     C64761   7.747   8.551   7.619 -0.0422  1.0708  0.5074
  470MOL0     C64762   7.593   8.547   7.606  0.1834 -0.7350 -0.6222
  470MOL0     C64763   7.545   8.676   7.533  0.6341 -0.3753  0.0443
  470MOL0     C64764   7.398   8.667   7.474 -0.5215 -0.7951 -0.1838
  470MOL0     C64765   7.381   8.780   7.364  0.1756 -0.6963  0.8773
  470MOL0     C64766   7.444   8.914   7.404 -0.0715 -0.1185 -0.3102
  470MOL0    Cl64767   7.367   8.980   7.554  0.1116  0.4722 -0.4657
  470MOL0     C64768   7.880   8.444   8.133 -0.4059 -0.7234 -0.2147
  470MOL0     C64769   7.945   8.501   8.245  0.3117  0.3437  0.2560
  470MOL0     O64770   8.367   8.571   8.317  0.5222 -0.3852  0.3979
  470MOL0     C64771   8.223   8.822   8.518 -0.9659 -0.7882 -0.6638
  470MOL0     C64772   8.260   8.946   8.580  0.5658  0.6659  0.8096
  470MOL0     N64773   8.189   9.686   8.622 -0.1227  0.5806 -0.6827
  470MOL0     N64774   8.113   9.759   8.700 -0.2138 -0.3015  0.9289
  470MOL0     C64775   7.515  10.600   8.872 -0.1019  0.5246 -1.1936
  470MOL0     C64776   7.385  10.611   8.924 -0.0664  0.3119 -0.5971
  470MOL0     C64777   7.085  10.817   9.252 -0.5013 -0.1167 -0.4192
  470MOL0     C64778   7.004  10.775   9.367  0.2016 -0.5199  1.0427
  470MOL0     C64779   6.894  10.855   9.402 -0.4984 -0.4526 -0.7356
  470MOL0     C64780   6.864  10.970   9.338 -0.1318 -0.4598  0.7353
  470MOL0     O64781   6.752  11.042   9.373 -0.0613  0.2176 -0.9646
  470MOL0     C64782   6.668  11.009   9.486  0.2787 -0.9061  0.7658
  470MOL0     C64783   6.547  11.108   9.472 -0.3588 -0.0654 -0.6919
  470MOL0     C64784   6.602  11.245   9.498  0.0233  0.4993  2.1418
  470MOL0     C64785   6.504  11.353   9.550 -0.1418  0.8175  0.7727
  470MOL0     C64786   6.411  11.387   9.443 -0.2093  0.6210 -1.0748
  470MOL0     C64787   6.332  11.408   9.363 -0.7058 -0.7355 -0.1949
  470MOL0     C64788   6.931  11.009   9.223 -0.5926  0.0894  0.0467
  470MOL0     C64789   7.045  10.931   9.177 -0.5534  0.3125 -0.0085
  470MOL0     C64790   7.120  10.978   9.063 -0.1229 -0.1433  0.1822
  470MOL0     H64791   7.452  10.831   9.164  1.8934  0.3167  1.7560
  470MOL0     H64792   7.683  10.801   9.086  1.3575 -2.1890 -1.3322
  470MOL0     H64793   7.750  10.618   8.684  2.4811  0.6526 -0.4310
  470MOL0     H64794   7.731  10.471   8.779  0.8242 -0.2313  0.1165
  470MOL0     H64795   7.970  10.504   8.673 -0.9182  0.6805  1.0302
  470MOL0     H64796   7.971  10.654   8.756  1.8760 -0.4107  3.6005
  470MOL0     H64797   8.106  10.505   8.877  0.5767 -0.0743 -2.7777
  470MOL0     H64798   7.950  10.510   8.968  0.2898  2.4582 -0.4613
  470MOL0     H64799   7.877  10.306   8.893  0.3838  2.9610  0.5080
  470MOL0     H64800   7.993  10.284   8.762 -0.9693 -0.2422  0.4673
  470MOL0     H64801   7.998  10.218   9.049 -0.5370 -2.3480  0.1159
  470MOL0     H64802   8.163  10.257   8.971  1.3227 -0.6735 -1.7949
  470MOL0     H64803   7.957  10.040   8.885  0.1864 -1.7779 -0.2489
  470MOL0     H64804   8.108  10.080   8.795  1.3126  3.9760  0.8710
  470MOL0     H64805   8.091   9.992   9.082  0.9192 -5.0677  0.2158
  470MOL0     H64806   8.244   9.997   8.988  0.1417 -0.0081 -0.0524
  470MOL0     H64807   8.136   9.763   9.026 -2.8680  0.5450  1.3198
  470MOL0     H64808   8.001   9.825   8.932  0.8456  1.0308  0.0738
  470MOL0     H64809   8.351   9.690   8.914 -1.5477 -0.5240  1.0718
  470MOL0     H64810   8.495   9.560   8.704 -0.4858  2.6297  0.9716
  470MOL0     H64811   8.443   9.607   8.543 -0.1495 -0.9707 -0.9152
  470MOL0     H64812   8.251   9.420   8.587 -1.0859 -1.8396  2.1604
  470MOL0     H64813   8.407   9.372   8.533  3.4373  1.5452  0.6461
  470MOL0     H64814   8.438   9.329   8.812 -0.9512 -1.7694  0.5734
  470MOL0     H64815   8.266   9.373   8.807 -0.5617  2.8338 -2.0570
  470MOL0     H64816   8.282   9.151   8.801  2.3919  0.1863  1.1849
  470MOL0     H64817   8.209   9.200   8.650 -1.5846 -3.1422 -0.8055
  470MOL0     H64818   8.591   8.970   8.512  0.8688 -0.7399  1.5723
  470MOL0     H64819   8.625   8.876   8.307 -0.5875  0.3921 -0.5843
  470MOL0     H64820   8.493   8.774   8.238 -1.4405 -0.5688  0.8453
  470MOL0     H64821   8.612   8.704   8.355  0.1838  0.4010  2.8346
  470MOL0     H64822   8.254   8.542   8.086 -0.7494 -0.1186  0.0220
  470MOL0     H64823   8.125   8.420   7.909 -0.0586 -1.0766  1.2552
  470MOL0     H64824   7.853   8.552   7.842 -0.4934  1.5947 -0.7469
  470MOL0     H64825   7.991   8.466   7.765  0.4144 -2.1987  3.3334
  470MOL0     H64826   7.817   8.345   7.621  1.5170  2.1271 -1.2827
  470MOL0     H64827   7.705   8.366   7.748  0.0328 -0.4655  0.8606
  470MOL0     H64828   7.793   8.548   7.520 -1.4300  2.6581 -0.2331
  470MOL0     H64829   7.792   8.633   7.675  2.8144 -0.4305  0.5895
  470MOL0     H64830   7.541   8.549   7.702 -1.3191  0.6255 -1.3961
  470MOL0     H64831   7.560   8.461   7.548  1.9284  0.5809 -3.8347
  470MOL0     H64832   7.555   8.758   7.604  1.4361  0.4918 -1.0446
  470MOL0     H64833   7.617   8.696   7.453  1.4765 -1.8475  0.3945
  470MOL0     H64834   7.332   8.674   7.561  0.1554 -0.8495  0.3435
  470MOL0     H64835   7.390   8.570   7.424 -2.3400  0.3523 -2.3131
  470MOL0     H64836   7.276   8.795   7.339  0.3924  3.3942  1.6587
  470MOL0     H64837   7.435   8.735   7.281 -0.1428 -3.5154  2.1087
  470MOL0     H64838   7.445   8.981   7.318 -0.3959  0.0820 -0.1594
  470MOL0     H64839   7.550   8.913   7.431  0.1546  0.7735 -1.1284
  470MOL0     H64840   7.772   8.433   8.135 -0.5182  0.4379  1.4849
  470MOL0     H64841   7.898   8.521   8.341 -1.4422  0.4963 -0.6019
  470MOL0     H64842   8.119   8.791   8.520 -1.9602  1.9076  3.6802
  470MOL0     H64843   8.185   8.992   8.643 -1.0939 -0.0754 -0.5579
  470MOL0     H64844   7.532  10.537   8.786 -0.0359 -0.0532 -0.7611
  470MOL0     H64845   7.297  10.562   8.884 -0.8127  2.9269 -2.3723
  470MOL0     H64846   7.036  10.688   9.423  0.1889 -1.4566 -0.3366
  470MOL0     H64847   6.839  10.804   9.481 -0.1174 -2.7202 -1.8366
  470MOL0     H64848   6.639  10.904   9.474  1.8636 -1.3579  0.5875
  470MOL0     H64849   6.724  11.005   9.580  0.8356 -2.8168  0.4053
  470MOL0     H64850   6.471  11.088   9.549  0.8770 -1.1871  0.2958
  470MOL0     H64851   6.501  11.092   9.374  1.7750  0.7473 -1.8816
  470MOL0     H64852   6.688  11.239   9.566 -0.4316 -0.9125  2.6175
  470MOL0     H64853   6.662  11.277   9.413  0.1253 -1.9361  1.2390
  470MOL0     H64854   6.571  11.436   9.576  1.4102 -0.8522  2.4708
  470MOL0     H64855   6.457  11.322   9.644 -1.5281  0.4396 -0.0284
  470MOL0     H64856   6.241  11.430   9.310 -0.5052  0.7360  0.0406
  470MOL0     H64857   6.906  11.108   9.187 -5.7082 -0.1387  2.1817
  470MOL0     H64858   7.229  10.975   9.066  0.0912 -1.1132 -3.5088
  470MOL0     H64859   7.085  10.938   8.967 -0.3584 -0.5200  0.4222
  470MOL0     H64860   7.090  11.083   9.057 -1.0748 -0.4825 -2.1295
  471MOL0     O64861   0.829   4.737   8.541  0.0859  0.4187 -0.1862
  471MOL0     C64862   0.883   4.845   8.563  0.6058  0.4476 -0.0875
  471MOL0     O64863   0.825   4.964   8.542  0.7192  0.6075 -0.4232
  471MOL0     C64864   0.692   4.989   8.538  0.6143 -0.7052 -0.2373
  471MOL0     C64865   0.613   4.931   8.629 -0.2320  0.2268 -0.3167
  471MOL0     C64866   0.474   4.938   8.638 -0.2104  0.2025 -0.2832
  471MOL0     C64867   0.404   5.027   8.551 -0.0804 -0.0129  0.5556
  471MOL0     O64868   0.268   5.031   8.519 -0.2071 -0.2558 -1.4341
  471MOL0     C64869   0.188   4.936   8.594 -1.2413 -0.4902 -0.3074
  471MOL0     C64870   0.045   4.994   8.562  0.9086  1.5778  1.3230
  471MOL0     C64871   0.046   5.150   8.596 -1.0041 -0.0264 -0.0071
  471MOL0     C64872  -0.090   5.198   8.606 -0.0960 -0.4946 -1.0409
  471MOL0     C64873  -0.105   5.351   8.621 -0.4548 -0.3056 -0.7039
  471MOL0     C64874  -0.048   5.425   8.504  1.5376  0.4199  0.1573
  471MOL0     C64875  -0.101   5.572   8.493  1.1789 -0.4063  0.1736
  471MOL0     C64876  -0.233   5.605   8.408 -0.5470  1.4997 -0.8209
  471MOL0     N64877  -0.355   5.631   8.492 -0.1378 -0.4142  0.7373
  471MOL0     C64878  -0.425   5.531   8.555 -0.1551 -0.7310 -1.1564
  471MOL0     C64879  -0.522   5.601   8.627 -0.3519 -0.8074  0.9958
  471MOL0     C64880  -0.628   5.533   8.698 -0.3174  0.1426  0.8758
  471MOL0     C64881  -0.647   5.593   8.835  0.8026 -0.4762  0.5765
  471MOL0     C64882  -0.768   5.568   8.923  0.2045  0.3878 -0.4456
  471MOL0     C64883  -0.852   5.435   8.898 -0.2372 -0.5468  0.2457
  471MOL0     O64884  -0.963   5.433   8.975  0.8475  0.0233 -0.0370
  471MOL0     C64885  -1.085   5.373   8.952 -0.0678 -0.3651  0.6452
  471MOL0     C64886  -1.193   5.428   9.024 -0.3560  0.4852  0.5176
  471MOL0     C64887  -1.325   5.373   9.015 -0.6021  0.3007 -0.0999
  471MOL0     C64888  -1.425   5.439   9.104  0.5396  0.6635  1.1511
  471MOL0     C64889  -1.349   5.275   8.921 -0.7223  1.0134  0.4945
  471MOL0     C64890  -1.493   5.223   8.899 -0.8103 -0.0001  0.6498
  471MOL0     O64891  -1.596   5.248   8.992 -0.2092 -0.3588  0.0213
  471MOL0     C64892  -1.718   5.209   8.956 -0.1075 -0.5417  0.2381
  471MOL0     C64893  -1.758   5.087   9.006 -0.3889 -0.5391 -0.5264
  471MOL0     C64894  -1.887   5.046   8.992 -0.2846 -0.6191 -0.0756
  471MOL0     C64895  -1.980   5.119   8.910 -0.2670  0.7046  1.1727
  471MOL0     O64896  -2.103   5.064   8.879 -0.1255 -0.4509 -0.3654
  471MOL0     C64897  -2.185   5.025   8.986  0.3127  0.0273  0.4573
  471MOL0     C64898  -2.335   5.017   8.944 -0.3933  0.6938 -0.2016
  471MOL0     C64899  -2.370   4.913   8.845 -0.2424 -0.5668  0.2848
  471MOL0     C64900  -2.301   4.786   8.847  0.0846 -0.4945  0.6285
  471MOL0     C64901  -2.375   4.684   8.745 -0.0522 -0.4698 -0.2909
  471MOL0     C64902  -2.377   4.727   8.600 -0.0106 -0.3315  0.1459
  471MOL0     C64903  -2.418   4.623   8.494  0.2032 -1.1072  1.0143
  471MOL0     C64904  -2.571   4.591   8.495  0.6889  0.0574  0.2194
  471MOL0    Cl64905  -2.633   4.539   8.653 -0.6820  0.5238 -0.0715
  471MOL0     C64906  -1.942   5.245   8.855  0.0105  0.0316 -0.3258
  471MOL0     C64907  -1.807   5.292   8.877 -0.4776 -0.0006 -0.6166
  471MOL0     O64908  -1.501   5.149   8.796  1.1378  0.7160 -0.4185
  471MOL0     C64909  -1.243   5.224   8.845  0.5250 -0.7407  0.7074
  471MOL0     C64910  -1.114   5.272   8.859 -0.2230  0.3187  0.7939
  471MOL0     N64911  -0.519   5.734   8.592 -0.0634 -0.0788  0.4830
  471MOL0     N64912  -0.418   5.750   8.514  0.1689 -0.0551  1.0001
  471MOL0     C64913   0.486   5.105   8.456  0.4480  1.2208  0.6318
  471MOL0     C64914   0.623   5.077   8.450 -0.7452 -0.2128  0.3572
  471MOL0     C64915   1.026   4.832   8.579 -0.2991  0.6789  0.7004
  471MOL0     C64916   1.086   4.756   8.476  0.2298  0.4365  0.3659
  471MOL0     C64917   1.222   4.745   8.479  1.0031 -0.2251  0.7211
  471MOL0     C64918   1.298   4.797   8.584 -0.6336 -0.0677  0.3307
  471MOL0     O64919   1.439   4.791   8.578  0.1480  0.3877 -0.5423
  471MOL0     C64920   1.493   4.781   8.715  0.5704 -0.1528 -0.4132
  471MOL0     C64921   1.569   4.912   8.746  0.1455  0.0006  0.2632
  471MOL0     C64922   1.695   4.918   8.651  0.6081 -0.6864  0.1987
  471MOL0     C64923   1.820   4.980   8.713 -0.3999  0.9553  0.2727
  471MOL0     C64924   1.797   5.079   8.814  0.5488 -0.6585  0.1243
  471MOL0     C64925   1.771   5.148   8.904 -0.1638 -0.1076 -0.6535
  471MOL0     C64926   1.232   4.863   8.688 -0.2637 -0.4599  0.1585
  471MOL0     C64927   1.095   4.881   8.691  0.8612  0.6435 -0.1573
  471MOL0     C64928   1.010   4.967   8.788 -0.5104 -0.2979  0.3436
  471MOL0     H64929   0.650   4.848   8.688  2.6622  2.8972  2.0574
  471MOL0     H64930   0.424   4.863   8.698  3.3772 -2.3766 -0.2225
  471MOL0     H64931   0.209   4.937   8.701  3.7965 -1.4987 -1.0415
  471MOL0     H64932   0.186   4.831   8.564 -2.8939 -1.0139  1.4036
  471MOL0     H64933  -0.000   4.978   8.464  0.1384  0.8306  1.7890
  471MOL0     H64934  -0.026   4.958   8.636 -1.6964  4.4272  0.4217
  471MOL0     H64935   0.099   5.170   8.689  1.3246 -1.3730 -0.9485
  471MOL0     H64936   0.092   5.208   8.516 -0.8455 -1.2202 -0.8156
  471MOL0     H64937  -0.156   5.160   8.528 -0.0890  0.6007 -1.6007
  471MOL0     H64938  -0.132   5.156   8.698  0.1104  2.1428  0.3424
  471MOL0     H64939  -0.034   5.389   8.695 -0.9385 -0.1007 -0.3417
  471MOL0     H64940  -0.205   5.390   8.643 -1.2603 -1.1780 -2.6066
  471MOL0     H64941   0.060   5.425   8.523  1.4524 -0.2448  0.6370
  471MOL0     H64942  -0.057   5.367   8.412 -1.0545  1.3165 -0.2357
  471MOL0     H64943  -0.024   5.633   8.447  0.3368 -0.1799 -0.9843
  471MOL0     H64944  -0.116   5.614   8.593  0.9068  0.3027 -0.1625
  471MOL0     H64945  -0.212   5.705   8.370  3.7212  2.3032  2.7386
  471MOL0     H64946  -0.249   5.523   8.337 -0.8728 -2.6768  3.5442
  471MOL0     H64947  -0.407   5.424   8.545 -0.0724 -0.4754 -5.5193
  471MOL0     H64948  -0.620   5.424   8.700 -0.8824 -0.0542 -2.4959
  471MOL0     H64949  -0.707   5.564   8.630  0.7236  1.1071  0.0814
  471MOL0     H64950  -0.554   5.593   8.892  1.6084  3.4777 -0.4535
  471MOL0     H64951  -0.666   5.698   8.808 -1.3945 -1.6777 -3.2711
  471MOL0     H64952  -0.736   5.553   9.027  0.1966  0.6798 -0.4004
  471MOL0     H64953  -0.832   5.657   8.923 -0.0883  0.4194  4.2096
  471MOL0     H64954  -0.876   5.429   8.791  1.2058 -0.9862 -0.0808
  471MOL0     H64955  -0.787   5.350   8.918  2.4501  1.9358  3.0899
  471MOL0     H64956  -1.195   5.525   9.073  1.5861  0.9229 -0.1655
  471MOL0     H64957  -1.377   5.531   9.141 -0.3074  2.3500 -1.6046
  471MOL0     H64958  -1.447   5.365   9.180  1.0305  0.7486  1.3816
  471MOL0     H64959  -1.508   5.453   9.033  0.7468 -0.0241  0.7702
  471MOL0     H64960  -1.682   5.032   9.060  1.3182  0.3220 -1.9208
  471MOL0     H64961  -1.910   4.947   9.028  1.3391 -0.0847  2.6878
  471MOL0     H64962  -2.149   4.927   9.018 -3.7855 -1.5160  0.9302
  471MOL0     H64963  -2.174   5.098   9.067 -1.7090 -0.1551  0.9540
  471MOL0     H64964  -2.397   5.009   9.033 -1.3665 -1.2103 -1.0098
  471MOL0     H64965  -2.360   5.116   8.904  1.9072  1.1174 -0.7203
  471MOL0     H64966  -2.381   4.967   8.751 -1.3480 -2.2423 -0.5781
  471MOL0     H64967  -2.474   4.886   8.865  0.0641 -2.2198 -0.2661
  471MOL0     H64968  -2.318   4.745   8.947  0.7298  0.6962  1.2413
  471MOL0     H64969  -2.192   4.789   8.834 -0.1434 -2.4531 -3.6217
  471MOL0     H64970  -2.321   4.589   8.757  2.9543  1.3567  2.4827
  471MOL0     H64971  -2.475   4.672   8.787 -0.0339  3.6347  1.4006
  471MOL0     H64972  -2.272   4.747   8.574 -1.0307 -0.0215 -4.6500
  471MOL0     H64973  -2.427   4.822   8.581 -2.2881 -1.1832  1.4672
  471MOL0     H64974  -2.354   4.535   8.505  2.5467  0.1501 -1.2162
  471MOL0     H64975  -2.393   4.676   8.402  0.2519 -3.1320 -0.2078
  471MOL0     H64976  -2.597   4.510   8.426 -1.2268 -2.3639  3.4716
  471MOL0     H64977  -2.628   4.683   8.478  1.0297  0.0015 -1.3101
  471MOL0     H64978  -1.999   5.304   8.784  1.2087  2.0358  0.2990
  471MOL0     H64979  -1.775   5.386   8.833  0.5761  0.5371  1.1904
  471MOL0     H64980  -1.262   5.152   8.766  0.1730  2.6038 -2.5381
  471MOL0     H64981  -1.038   5.236   8.791 -1.6468 -0.6418 -0.3429
  471MOL0     H64982   0.442   5.177   8.387  2.1871  0.3681 -1.4668
  471MOL0     H64983   0.683   5.134   8.379  1.4821 -0.3028  2.0689
  471MOL0     H64984   1.021   4.718   8.398 -2.7073  2.8216  1.4557
  471MOL0     H64985   1.269   4.693   8.396  0.6504  2.1471 -1.0696
  471MOL0     H64986   1.432   4.751   8.801  1.4317 -4.0052 -0.9830
  471MOL0     H64987   1.565   4.700   8.701 -0.2928 -0.5117 -3.3521
  471MOL0     H64988   1.593   4.905   8.852 -1.5649 -1.9307  0.5751
  471MOL0     H64989   1.507   4.999   8.721 -0.2053 -0.8393 -2.1244
  471MOL0     H64990   1.719   4.826   8.597  2.9928  0.2444 -0.4790
  471MOL0     H64991   1.661   4.993   8.579  0.9372  1.1692  1.8947
  471MOL0     H64992   1.870   5.022   8.626 -1.1137  1.1583 -0.0496
  471MOL0     H64993   1.880   4.895   8.747 -0.9926 -0.3120 -1.6952
  471MOL0     H64994   1.737   5.208   8.986 -1.4915 -0.1824 -1.1369
  471MOL0     H64995   1.279   4.907   8.775  1.4832  1.5084 -1.6622
  471MOL0     H64996   1.087   5.010   8.853 -1.3726  1.4949  0.2358
  471MOL0     H64997   0.974   5.053   8.732  1.5892 -0.7855 -1.9295
  471MOL0     H64998   0.934   4.910   8.842  1.8083 -1.5331  2.5375
  472MOL0     O64999   1.906  11.429   6.928 -0.1888 -0.1403  0.0288
  472MOL0     C65000   2.029  11.426   6.953  0.8832 -0.2007  0.2744
  472MOL0     O65001   2.084  11.396   7.075  0.5638 -0.2490 -0.3176
  472MOL0     C65002   2.033  11.424   7.195 -1.2562 -0.4114 -0.0382
  472MOL0     C65003   2.085  11.351   7.301 -0.8390  0.0013 -0.1668
  472MOL0     C65004   2.053  11.396   7.428  0.7545 -0.3508  0.2479
  472MOL0     C65005   1.972  11.508   7.450  0.0165  0.2311  1.0488
  472MOL0     O65006   1.926  11.550   7.571 -0.0586  0.0340  0.3078
  472MOL0     C65007   1.975  11.494   7.690  0.1110  0.7557 -0.6810
  472MOL0     C65008   1.916  11.575   7.800  0.7006  0.1893  0.7467
  472MOL0     C65009   2.025  11.643   7.878 -0.6640 -0.0498 -0.4959
  472MOL0     C65010   2.144  11.556   7.932 -0.4375  0.5965 -0.1238
  472MOL0     C65011   2.225  11.641   8.027  1.5173 -1.0438 -0.4757
  472MOL0     C65012   2.368  11.594   8.068 -0.7824 -1.5245 -0.5422
  472MOL0     C65013   2.447  11.694   8.152  0.5554  0.0870 -0.8328
  472MOL0     C65014   2.396  11.696   8.299 -0.3513 -0.1434  0.6705
  472MOL0     N65015   2.502  11.773   8.373  0.5320 -0.1276 -0.1067
  472MOL0     C65016   2.517  11.917   8.373 -0.1753  0.6626 -0.4301
  472MOL0     C65017   2.611  11.934   8.468 -0.6517 -0.6156  1.0133
  472MOL0     C65018   2.690  12.059   8.497 -0.8538  0.4699 -0.1815
  472MOL0     C65019   2.615  12.193   8.463 -0.5483 -1.5794 -0.2460
  472MOL0     C65020   2.697  12.319   8.483 -0.3786  0.5082  0.6006
  472MOL0     C65021   2.723  12.339   8.635 -0.2783 -1.1195 -0.2008
  472MOL0     O65022   2.802  12.468   8.655  0.0560 -0.3508 -0.7931
  472MOL0     C65023   2.721  12.583   8.659  0.0618  0.7813  0.0658
  472MOL0     C65024   2.581  12.585   8.669 -0.2358 -0.2695 -0.2089
  472MOL0     C65025   2.508  12.696   8.696  0.4085 -0.5602  0.0260
  472MOL0     C65026   2.361  12.675   8.670  0.1281 -1.0333  0.0906
  472MOL0     C65027   2.561  12.823   8.718  0.1800  0.0724  0.5527
  472MOL0     C65028   2.490  12.958   8.738 -0.2232  0.0232 -0.2638
  472MOL0     O65029   2.362  12.940   8.790  0.2835 -0.0082 -1.0151
  472MOL0     C65030   2.284  13.047   8.835 -0.5885  0.4941 -0.5391
  472MOL0     C65031   2.270  13.169   8.753  0.6284 -0.5372 -0.9016
  472MOL0     C65032   2.208  13.279   8.812  0.2164 -0.2643  0.3352
  472MOL0     C65033   2.158  13.281   8.947 -1.1450 -0.8112  0.2583
  472MOL0     O65034   2.087  13.398   8.989 -0.1172 -0.2688 -0.2427
  472MOL0     C65035   2.139  13.459   9.111  0.8185 -0.0972  1.0026
  472MOL0     C65036   2.081  13.598   9.133  0.6784 -0.1843 -0.0710
  472MOL0     C65037   2.178  13.718   9.095 -0.2202  0.2911  1.2025
  472MOL0     C65038   2.157  13.856   9.162  0.0284 -0.4260  0.2359
  472MOL0     C65039   2.255  13.973   9.138  0.4404 -0.3927  0.1133
  472MOL0     C65040   2.225  14.096   9.217  0.4015 -0.2269 -1.0308
  472MOL0     C65041   2.266  14.081   9.362 -0.3335  0.0241  0.6072
  472MOL0     C65042   2.243  14.202   9.439  0.3402 -0.5095  0.2392
  472MOL0    Cl65043   2.278  14.172   9.619  0.6224  0.2535  0.0609
  472MOL0     C65044   2.164  13.163   9.023 -0.2372  0.2523 -0.3564
  472MOL0     C65045   2.227  13.047   8.968  0.6489  0.3820 -0.4060
  472MOL0     O65046   2.550  13.061   8.716 -0.2818  1.0932 -0.4752
  472MOL0     C65047   2.701  12.818   8.708  0.4116 -1.1087 -0.4797
  472MOL0     C65048   2.784  12.708   8.676 -0.0316 -0.5836  0.6300
  472MOL0     N65049   2.660  11.809   8.510 -0.5472  0.0095 -0.4988
  472MOL0     N65050   2.588  11.720   8.465  0.4088 -0.2529 -0.5154
  472MOL0     C65051   1.897  11.561   7.344 -0.1802 -0.2319 -0.8134
  472MOL0     C65052   1.939  11.528   7.218 -0.5418  0.9438  0.0038
  472MOL0     C65053   2.109  11.456   6.833 -0.8718 -0.3911 -0.3380
  472MOL0     C65054   2.083  11.386   6.713 -0.8295 -0.5714  0.0508
  472MOL0     C65055   2.145  11.419   6.597  0.0908  0.6369 -0.2829
  472MOL0     C65056   2.254  11.505   6.594 -0.3459  0.7238 -0.3221
  472MOL0     O65057   2.331  11.526   6.488 -1.5370  0.0080 -1.1950
  472MOL0     C65058   2.315  11.451   6.361  0.2456 -0.6303 -0.6698
  472MOL0     C65059   2.256  11.545   6.248 -1.3675  0.6589  0.3085
  472MOL0     C65060   2.367  11.649   6.210  0.3289 -0.1423 -1.2151
  472MOL0     C65061   2.322  11.776   6.132  0.7319  0.4474  0.4686
  472MOL0     C65062   2.278  11.736   5.995  0.3010 -0.7119  0.1006
  472MOL0     C65063   2.268  11.692   5.884  0.3425 -0.9487 -0.1480
  472MOL0     C65064   2.285  11.577   6.708 -0.2336  0.0836 -0.1756
  472MOL0     C65065   2.219  11.554   6.830  1.2587  0.2149 -0.0568
  472MOL0     C65066   2.240  11.659   6.944  0.3541  1.0133 -0.1855
  472MOL0     H65067   2.152  11.267   7.285  0.5658  1.1979 -0.7717
  472MOL0     H65068   2.111  11.354   7.510  1.8621 -0.2307 -0.4459
  472MOL0     H65069   2.082  11.477   7.692 -0.1617 -1.0830  0.4673
  472MOL0     H65070   1.929  11.396   7.706 -1.3872  1.5861  0.4561
  472MOL0     H65071   1.863  11.662   7.759 -0.2693 -0.1905  1.1621
  472MOL0     H65072   1.859  11.514   7.871 -0.1719 -0.1973 -0.2661
  472MOL0     H65073   2.057  11.732   7.823 -3.9319  1.2877 -0.4850
  472MOL0     H65074   1.983  11.669   7.976  0.2851 -0.5595  0.0565
  472MOL0     H65075   2.126  11.461   7.983  3.8516 -1.3238 -1.6421
  472MOL0     H65076   2.210  11.539   7.846  0.1614 -3.0835  0.8665
  472MOL0     H65077   2.173  11.661   8.122  0.3756  1.1207 -1.4965
  472MOL0     H65078   2.251  11.734   7.976 -1.1906  1.1034  1.7131
  472MOL0     H65079   2.366  11.499   8.123 -2.0655 -1.3463 -0.2526
  472MOL0     H65080   2.426  11.580   7.976  1.4629  0.0354  0.5324
  472MOL0     H65081   2.459  11.789   8.099 -2.6794  1.1944  0.1766
  472MOL0     H65082   2.546  11.650   8.166  0.8410  0.6428 -1.0563
  472MOL0     H65083   2.307  11.760   8.311 -0.3165  0.3168 -1.2185
  472MOL0     H65084   2.380  11.594   8.334  0.7735 -1.0920 -1.4404
  472MOL0     H65085   2.473  12.000   8.319 -0.4960  0.1574 -0.9512
  472MOL0     H65086   2.788  12.052   8.450 -0.1682  1.5179  1.0321
  472MOL0     H65087   2.705  12.056   8.605 -1.8370  0.7333 -0.0290
  472MOL0     H65088   2.582  12.188   8.358  0.5061 -0.2726 -0.6673
  472MOL0     H65089   2.526  12.201   8.525 -0.3520 -0.3158 -0.1077
  472MOL0     H65090   2.800  12.313   8.445 -1.3130  1.8638 -2.5169
  472MOL0     H65091   2.632  12.395   8.437 -2.1651 -0.0161  2.1629
  472MOL0     H65092   2.635  12.332   8.699  0.0852  1.3531  0.6917
  472MOL0     H65093   2.785  12.252   8.663 -2.9302 -2.2163  2.9523
  472MOL0     H65094   2.526  12.491   8.670 -0.0927 -0.3537 -0.1362
  472MOL0     H65095   2.339  12.730   8.578  0.8669 -0.9245 -0.0320
  472MOL0     H65096   2.301  12.712   8.753  2.2871  1.4974  0.6654
  472MOL0     H65097   2.336  12.569   8.656  3.3726 -1.7143 -1.7687
  472MOL0     H65098   2.326  13.176   8.661 -2.2219  0.6205 -2.6814
  472MOL0     H65099   2.199  13.363   8.744  0.0164 -1.8173 -1.6587
  472MOL0     H65100   2.113  13.407   9.204 -1.5183  3.2387  2.4379
  472MOL0     H65101   2.247  13.475   9.105  0.5565  2.0023  1.2334
  472MOL0     H65102   1.987  13.623   9.083  0.3365  1.9972  1.5444
  472MOL0     H65103   2.061  13.599   9.240  3.7576 -0.7219  0.6031
  472MOL0     H65104   2.166  13.748   8.991  2.6727 -0.0821  0.6928
  472MOL0     H65105   2.278  13.678   9.112  0.0974  0.1802 -0.7442
  472MOL0     H65106   2.146  13.848   9.271  0.6862  1.8700  0.5243
  472MOL0     H65107   2.055  13.890   9.144 -0.4982  0.5558  4.0305
  472MOL0     H65108   2.360  13.957   9.165  0.7040  4.2412  2.9519
  472MOL0     H65109   2.271  14.002   9.034  1.3742  2.9360  1.0745
  472MOL0     H65110   2.118  14.116   9.203 -0.5435 -4.3940 -1.2630
  472MOL0     H65111   2.285  14.176   9.173  1.1195  0.4471  1.0598
  472MOL0     H65112   2.370  14.052   9.381 -1.0031 -1.7674  1.8645
  472MOL0     H65113   2.193  14.007   9.396 -2.2467  1.9144  0.8215
  472MOL0     H65114   2.139  14.228   9.423  1.1615  1.5101 -2.4971
  472MOL0     H65115   2.299  14.287   9.398  1.2950 -1.3432 -0.2482
  472MOL0     H65116   2.130  13.149   9.126 -1.5008 -1.4429 -0.9665
  472MOL0     H65117   2.242  12.951   9.016 -0.8704  0.6581  0.7255
  472MOL0     H65118   2.752  12.913   8.718 -1.0081 -0.2604 -1.1187
  472MOL0     H65119   2.892  12.722   8.671  0.1978 -1.5590  2.0683
  472MOL0     H65120   1.818  11.630   7.370 -0.1023  0.3978 -2.1728
  472MOL0     H65121   1.907  11.583   7.130 -0.5447  2.3618  0.8501
  472MOL0     H65122   2.003  11.313   6.715 -0.3812 -1.0559  1.3391
  472MOL0     H65123   2.121  11.361   6.509  2.0103 -1.5836  0.5293
  472MOL0     H65124   2.408  11.408   6.323  0.6436 -0.0802 -0.3353
  472MOL0     H65125   2.253  11.361   6.372  0.8202 -0.9245  0.3149
  472MOL0     H65126   2.165  11.594   6.284 -0.1313  2.4764  1.1080
  472MOL0     H65127   2.233  11.488   6.157  1.0684  0.7356 -0.4202
  472MOL0     H65128   2.399  11.682   6.309 -3.2024  2.2165 -0.6631
  472MOL0     H65129   2.452  11.600   6.162  0.1178 -3.0624  1.1351
  472MOL0     H65130   2.409  11.842   6.132  3.1823 -2.4768 -1.0446
  472MOL0     H65131   2.235  11.819   6.181 -0.3940 -1.7992  0.5714
  472MOL0     H65132   2.253  11.638   5.793  0.2967  0.6321 -1.1066
  472MOL0     H65133   2.364  11.650   6.690  0.7389 -1.5349 -3.3144
  472MOL0     H65134   2.158  11.730   6.956 -0.6952  0.2166 -2.1396
  472MOL0     H65135   2.250  11.610   7.041  3.1393  0.6728 -0.5574
  472MOL0     H65136   2.335  11.711   6.929  0.6354  1.1811  1.8853
  473MOL0     O65137   1.981   5.054   9.338 -0.5587 -0.1307  0.0101
  473MOL0     C65138   1.885   4.978   9.321  0.5088 -0.9174 -0.1834
  473MOL0     O65139   1.758   5.004   9.373  0.2666 -0.2693  0.4064
  473MOL0     C65140   1.736   5.118   9.448 -1.0117  0.2919  0.1025
  473MOL0     C65141   1.698   5.237   9.386 -0.0142  0.6039 -0.7502
  473MOL0     C65142   1.701   5.355   9.458  0.5856 -1.0040 -1.0544
  473MOL0     C65143   1.715   5.348   9.604 -0.6565  0.4544  0.0862
  473MOL0     O65144   1.714   5.447   9.699 -0.5047  0.2253 -0.0361
  473MOL0     C65145   1.688   5.578   9.659 -0.2781  1.0006  0.5705
  473MOL0     C65146   1.671   5.683   9.773  0.5881 -0.0455  0.1753
  473MOL0     C65147   1.651   5.627   9.914  0.1787 -0.1519  0.4926
  473MOL0     C65148   1.648   5.744  10.012 -0.3774 -0.6172 -0.2435
  473MOL0     C65149   1.616   5.683  10.147 -1.2541 -0.3225 -0.7036
  473MOL0     C65150   1.606   5.785  10.259  0.3716 -0.1622  0.4202
  473MOL0     C65151   1.568   5.724  10.383 -0.0568  0.5099 -1.3372
  473MOL0     C65152   1.575   5.817  10.509 -0.4443 -0.2534  0.3931
  473MOL0     N65153   1.530   5.758  10.635  0.3562  0.3074  0.1278
  473MOL0     C65154   1.415   5.685  10.665  0.4764  0.5144  0.3401
  473MOL0     C65155   1.402   5.674  10.805 -1.0692 -0.3437  0.2423
  473MOL0     C65156   1.297   5.592  10.870 -0.3790  0.5211 -0.7457
  473MOL0     C65157   1.229   5.669  10.985  0.6891  0.3797 -0.1303
  473MOL0     C65158   1.157   5.794  10.927  0.2515 -0.8515 -0.3569
  473MOL0     C65159   1.054   5.758  10.818 -0.4486 -0.5493  0.5360
  473MOL0     O65160   0.956   5.672  10.873  1.0847  0.7347  0.3002
  473MOL0     C65161   0.835   5.710  10.926 -0.0065  0.6550 -0.0424
  473MOL0     C65162   0.752   5.598  10.961  0.0029  0.6744 -0.0203
  473MOL0     C65163   0.640   5.608  11.039  0.4757 -0.4099 -0.6902
  473MOL0     C65164   0.567   5.482  11.099 -0.3085 -0.0389 -0.5731
  473MOL0     C65165   0.593   5.742  11.058  0.1437  0.0394 -0.3789
  473MOL0     C65166   0.470   5.779  11.130 -0.7681 -0.0516  0.6561
  473MOL0     O65167   0.477   5.894  11.210 -0.0101  0.5487 -0.3865
  473MOL0     C65168   0.358   5.949  11.259 -0.5702  0.1710  2.0368
  473MOL0     C65169   0.296   5.894  11.372 -0.1031  1.0710 -0.8509
  473MOL0     C65170   0.180   5.946  11.419 -0.0259 -0.6395 -0.6707
  473MOL0     C65171   0.118   6.047  11.356  0.1230  0.3724  0.1501
  473MOL0     O65172   0.003   6.109  11.411  0.3871 -0.2722 -0.7946
  473MOL0     C65173  -0.118   6.019  11.390 -0.2732 -0.1160 -0.1759
  473MOL0     C65174  -0.183   5.998  11.244 -0.5867 -0.1882  0.2486
  473MOL0     C65175  -0.197   5.859  11.187 -0.0960  0.7913  0.5925
  473MOL0     C65176  -0.061   5.776  11.198  0.5226 -0.0620 -0.5889
  473MOL0     C65177  -0.089   5.622  11.198 -0.5268  0.0524  0.4090
  473MOL0     C65178   0.044   5.556  11.184  1.4249  0.2476  0.3655
  473MOL0     C65179   0.013   5.406  11.182 -0.5768  0.2124 -0.4811
  473MOL0     C65180   0.148   5.329  11.193 -0.1988  0.8060 -0.0915
  473MOL0    Cl65181   0.130   5.175  11.098 -0.4158  0.2891  0.0342
  473MOL0     C65182   0.181   6.107  11.245 -1.2915  0.8876  0.4431
  473MOL0     C65183   0.310   6.066  11.196  0.6086  1.3592 -0.3109
  473MOL0     O65184   0.377   5.711  11.114 -0.6038  0.5072 -0.0861
  473MOL0     C65185   0.674   5.857  11.011  0.5682 -0.2612 -0.3069
  473MOL0     C65186   0.796   5.837  10.952  0.0241  0.1310 -0.1944
  473MOL0     N65187   1.522   5.729  10.862  0.2103  0.5176  0.2454
  473MOL0     N65188   1.579   5.788  10.756 -0.8811  0.4315 -1.4613
  473MOL0     C65189   1.757   5.232   9.662  0.8144 -0.3082 -0.6490
  473MOL0     C65190   1.762   5.116   9.587  0.2321  0.1023  0.4379
  473MOL0     C65191   1.898   4.873   9.226 -0.1505 -0.6811 -1.0780
  473MOL0     C65192   1.800   4.843   9.148 -0.1134 -0.2943  1.1135
  473MOL0     C65193   1.807   4.757   9.044 -0.5276 -1.3564 -0.5585
  473MOL0     C65194   1.930   4.697   9.010  0.1158 -0.0600  0.3670
  473MOL0     O65195   1.932   4.635   8.891 -0.2559  0.3595  0.1379
  473MOL0     C65196   2.064   4.628   8.841 -0.0087 -0.3329  0.2244
  473MOL0     C65197   2.067   4.662   8.691 -0.6942 -1.0735 -0.6287
  473MOL0     C65198   2.196   4.662   8.617 -0.7084  0.3215 -0.6894
  473MOL0     C65199   2.182   4.654   8.467 -0.2977 -0.7130 -0.1833
  473MOL0     C65200   2.082   4.750   8.417  0.5281  0.8748  0.7123
  473MOL0     C65201   2.004   4.829   8.372  0.7523  0.6397  0.1686
  473MOL0     C65202   2.034   4.717   9.109 -0.4219 -0.3517 -0.5169
  473MOL0     C65203   2.013   4.788   9.221  0.8974 -0.2099  0.5774
  473MOL0     C65204   2.114   4.787   9.326  1.4650 -0.2799 -0.7078
  473MOL0     H65205   1.678   5.243   9.279 -2.7681  0.3466 -0.3401
  473MOL0     H65206   1.676   5.448   9.408 -1.9718 -0.5478  0.8613
  473MOL0     H65207   1.600   5.573   9.595  0.0289  1.7140  0.0805
  473MOL0     H65208   1.766   5.617   9.593 -0.6006  2.0181  0.7727
  473MOL0     H65209   1.766   5.735   9.783  0.6122 -0.1779  0.6939
  473MOL0     H65210   1.596   5.759   9.749 -0.0780 -0.5936  0.4520
  473MOL0     H65211   1.554   5.577   9.904 -0.3078  1.1988 -2.3687
  473MOL0     H65212   1.731   5.554   9.930 -0.5217 -1.2426 -0.8102
  473MOL0     H65213   1.745   5.792   9.998  1.0720 -3.5474 -1.1408
  473MOL0     H65214   1.571   5.818   9.988 -0.0684  0.4606  1.8122
  473MOL0     H65215   1.695   5.614  10.178 -2.2576 -0.2553  2.3149
  473MOL0     H65216   1.516   5.638  10.140 -1.9871  1.1559 -0.0714
  473MOL0     H65217   1.694   5.849  10.262  2.1181 -2.1933 -2.3587
  473MOL0     H65218   1.524   5.849  10.226  1.9246  1.7720  0.1037
  473MOL0     H65219   1.630   5.638  10.410  2.2393  3.1484  2.8547
  473MOL0     H65220   1.461   5.702  10.373  0.0751 -0.4977 -0.6271
  473MOL0     H65221   1.678   5.847  10.527  1.1755 -5.2788  1.0856
  473MOL0     H65222   1.519   5.904  10.475 -1.9328 -2.3523 -3.0850
  473MOL0     H65223   1.349   5.631  10.598  1.2969 -3.1666  2.2653
  473MOL0     H65224   1.338   5.503  10.919 -1.2491  0.9591  0.8609
  473MOL0     H65225   1.231   5.559  10.789 -0.8174  0.3076 -0.3086
  473MOL0     H65226   1.160   5.619  11.054  0.8524 -2.1614 -1.6832
  473MOL0     H65227   1.312   5.688  11.054  1.0542 -3.8074  0.8848
  473MOL0     H65228   1.092   5.857  10.988 -3.5490  1.2401 -5.7591
  473MOL0     H65229   1.226   5.868  10.887 -2.5449  1.6750 -0.8443
  473MOL0     H65230   1.013   5.848  10.772  2.4523  0.4421 -0.3010
  473MOL0     H65231   1.109   5.698  10.745  2.4031  0.3185  1.8318
  473MOL0     H65232   0.779   5.496  10.938 -1.8449 -0.3068  1.8151
  473MOL0     H65233   0.621   5.390  11.073 -2.4885 -1.5062 -0.1558
  473MOL0     H65234   0.469   5.456  11.060  0.5168 -4.9332 -0.0501
  473MOL0     H65235   0.568   5.492  11.208 -0.8011  3.3203 -0.7723
  473MOL0     H65236   0.340   5.802  11.408 -1.4034  0.4495 -0.7911
  473MOL0     H65237   0.134   5.898  11.506  4.0542 -2.1643  0.8751
  473MOL0     H65238  -0.099   5.921  11.435 -0.8185 -0.3589 -0.4613
  473MOL0     H65239  -0.190   6.062  11.460  1.8425  0.7437  1.5847
  473MOL0     H65240  -0.284   6.040  11.250 -2.0356 -3.3217 -0.2843
  473MOL0     H65241  -0.128   6.060  11.173 -1.1164  0.7075  0.5995
  473MOL0     H65242  -0.239   5.875  11.087 -1.5612  0.0114  1.0439
  473MOL0     H65243  -0.263   5.801  11.254  2.5934 -3.2490  0.1019
  473MOL0     H65244  -0.005   5.802  11.288  4.4389  1.8602 -3.2943
  473MOL0     H65245  -0.003   5.811  11.112 -1.5697 -0.0925 -2.0742
  473MOL0     H65246  -0.143   5.601  11.290  2.8431 -0.2566  2.5032
  473MOL0     H65247  -0.157   5.593  11.117 -0.4464 -1.6766  0.9226
  473MOL0     H65248   0.104   5.578  11.273  0.7161 -0.1519  0.9522
  473MOL0     H65249   0.090   5.590  11.091 -2.1634  0.4191 -1.5331
  473MOL0     H65250  -0.035   5.379  11.087 -0.7186 -0.3737 -0.2484
  473MOL0     H65251  -0.064   5.376  11.254  0.7096  0.5853  1.1029
  473MOL0     H65252   0.164   5.284  11.292 -0.0271  1.5747  0.2306
  473MOL0     H65253   0.235   5.384  11.156 -0.1480 -0.0554 -1.3345
  473MOL0     H65254   0.134   6.192  11.196  1.3006  0.6815 -2.7370
  473MOL0     H65255   0.345   6.108  11.102  1.8973  0.2270 -0.3743
  473MOL0     H65256   0.648   5.960  11.034  1.1607 -0.3703  0.9304
  473MOL0     H65257   0.861   5.919  10.922  3.4072 -1.6783  1.5191
  473MOL0     H65258   1.789   5.225   9.766  2.5538  0.0312 -1.1292
  473MOL0     H65259   1.793   5.017   9.620 -0.4422 -0.5202 -0.7133
  473MOL0     H65260   1.709   4.903   9.141 -0.2894 -0.6326  0.3883
  473MOL0     H65261   1.729   4.737   8.971  1.3035  4.2801 -4.8152
  473MOL0     H65262   2.128   4.707   8.882  0.0864 -0.5756  0.5534
  473MOL0     H65263   2.102   4.529   8.868 -1.3365 -1.4931 -1.9391
  473MOL0     H65264   2.041   4.768   8.691  1.4864 -0.4581  1.3051
  473MOL0     H65265   1.993   4.594   8.646 -1.9775  0.9108 -1.6762
  473MOL0     H65266   2.246   4.755   8.645  1.1148 -0.2407 -1.9322
  473MOL0     H65267   2.256   4.572   8.634 -0.6804  0.3171 -0.8144
  473MOL0     H65268   2.168   4.549   8.438  0.4476 -1.2227  1.1643
  473MOL0     H65269   2.275   4.674   8.414  0.4869 -0.3491  1.2759
  473MOL0     H65270   1.942   4.898   8.317  1.4231  1.9552  1.0148
  473MOL0     H65271   2.124   4.656   9.104 -0.6847 -0.8106  0.1879
  473MOL0     H65272   2.170   4.881   9.319  0.2363  0.4334 -1.1289
  473MOL0     H65273   2.065   4.780   9.423  1.7161  0.4611 -0.5232
  473MOL0     H65274   2.187   4.706   9.315  0.1102 -1.5568 -0.5427
  474MOL0     O65275   9.763   4.268   4.157  0.5348  0.1450  0.9693
  474MOL0     C65276   9.663   4.300   4.102  0.0126 -0.1246 -0.3324
  474MOL0     O65277   9.535   4.295   4.153 -0.1978 -0.8085 -0.7777
  474MOL0     C65278   9.504   4.236   4.272 -0.4199  0.1888  0.1265
  474MOL0     C65279   9.571   4.123   4.326 -0.6823  0.2642 -0.1365
  474MOL0     C65280   9.545   4.060   4.457 -0.5968 -0.1955 -0.2521
  474MOL0     C65281   9.439   4.101   4.532 -0.3593 -0.4266 -0.1395
  474MOL0     O65282   9.405   4.057   4.660 -0.1920 -0.2914  0.3339
  474MOL0     C65283   9.485   3.954   4.716  0.2890 -0.3417 -0.9419
  474MOL0     C65284   9.473   3.806   4.671  0.4737  0.7499 -0.0005
  474MOL0     C65285   9.322   3.752   4.704  0.5781 -0.4198  0.3362
  474MOL0     C65286   9.308   3.614   4.643 -0.0954 -0.2424 -0.5658
  474MOL0     C65287   9.170   3.552   4.668  0.1679  0.5769 -0.4339
  474MOL0     C65288   9.148   3.416   4.600  0.2753  0.0990 -0.1279
  474MOL0     C65289   9.110   3.437   4.449  1.1241 -0.0185 -0.1955
  474MOL0     C65290   9.089   3.299   4.391 -0.3815  0.5773  0.2481
  474MOL0     N65291   9.054   3.303   4.248 -0.4068  0.1593  1.0562
  474MOL0     C65292   8.975   3.401   4.179  0.5268  0.6595 -0.6503
  474MOL0     C65293   8.949   3.345   4.060 -1.1496 -0.0272  0.1526
  474MOL0     C65294   8.871   3.422   3.952  1.2110  0.2464  0.2849
  474MOL0     C65295   8.943   3.430   3.817  0.1005  0.3631 -1.0229
  474MOL0     C65296   8.851   3.467   3.702  0.6764  0.5080  0.1169
  474MOL0     C65297   8.939   3.511   3.585  0.0321  0.4072 -0.2407
  474MOL0     O65298   8.997   3.641   3.603  0.6777  0.0127  0.1045
  474MOL0     C65299   8.934   3.756   3.575 -0.3618  0.5159 -0.5071
  474MOL0     C65300   8.800   3.784   3.543  0.0143  0.0239 -0.7780
  474MOL0     C65301   8.754   3.906   3.507 -0.0857 -0.3980  0.0674
  474MOL0     C65302   8.611   3.917   3.463 -0.9948  0.1970 -0.2253
  474MOL0     C65303   8.847   4.012   3.521  0.2326 -0.2967 -0.3642
  474MOL0     C65304   8.812   4.161   3.510 -0.3750  0.0499 -0.2963
  474MOL0     O65305   8.888   4.241   3.591 -0.8701  1.0666 -0.6632
  474MOL0     C65306   8.897   4.376   3.587 -0.7370 -0.2225  0.3770
  474MOL0     C65307   8.856   4.457   3.480  0.8077  0.5828  0.8365
  474MOL0     C65308   8.899   4.579   3.465  0.1547  0.2345  0.0094
  474MOL0     C65309   8.982   4.636   3.555  0.8992 -0.5934  0.2420
  474MOL0     O65310   8.987   4.774   3.524  0.6133  0.5072  0.0292
  474MOL0     C65311   9.107   4.831   3.573 -0.4001 -0.0335 -0.6790
  474MOL0     C65312   9.155   4.937   3.474  0.3262  0.7759  0.1776
  474MOL0     C65313   9.246   5.030   3.545  0.3682 -0.5412 -0.5962
  474MOL0     C65314   9.383   4.983   3.587  0.4622  0.2339 -1.2842
  474MOL0     C65315   9.460   5.090   3.666 -0.2855  1.1057 -0.5618
  474MOL0     C65316   9.580   5.037   3.744  1.1186  0.4297  0.3317
  474MOL0     C65317   9.621   5.120   3.873 -0.0604  0.6887  0.4422
  474MOL0     C65318   9.646   5.271   3.862  0.3179  0.0228  0.2136
  474MOL0    Cl65319   9.767   5.304   3.986  0.5537 -0.3861 -0.0154
  474MOL0     C65320   9.035   4.562   3.660  0.0408 -0.2417 -0.7797
  474MOL0     C65321   8.987   4.430   3.676  1.0153  0.4450  1.3960
  474MOL0     O65322   8.732   4.200   3.426 -0.6788 -0.1931 -0.2507
  474MOL0     C65323   8.982   3.985   3.555 -0.5059  0.0273  0.0446
  474MOL0     C65324   9.027   3.857   3.581  0.2111 -0.1918 -0.0622
  474MOL0     N65325   9.003   3.218   4.057 -0.4579 -0.6839  0.6812
  474MOL0     N65326   9.061   3.195   4.166  0.4296  0.4870  0.6194
  474MOL0     C65327   9.378   4.218   4.489 -0.4779 -0.3255 -0.3289
  474MOL0     C65328   9.411   4.286   4.363  0.1497 -0.7529  0.9031
  474MOL0     C65329   9.663   4.386   3.991  0.3216 -0.0508  1.0894
  474MOL0     C65330   9.733   4.510   3.994 -0.0151 -0.4916 -1.0724
  474MOL0     C65331   9.725   4.602   3.891  0.1576  0.4501  0.7264
  474MOL0     C65332   9.648   4.579   3.781  0.8960 -0.2164  0.0017
  474MOL0     O65333   9.643   4.680   3.693  0.1309  0.0849 -0.4173
  474MOL0     C65334   9.668   4.647   3.553  0.0046 -0.1969 -0.3732
  474MOL0     C65335   9.758   4.748   3.482  0.9542 -0.2089 -0.0554
  474MOL0     C65336   9.877   4.788   3.560  0.3522  0.3612 -0.2764
  474MOL0     C65337   9.968   4.669   3.612  0.7871 -0.7624 -0.0612
  474MOL0     C65338  10.069   4.623   3.509 -0.3438  0.2572  1.0375
  474MOL0     C65339  10.141   4.564   3.431 -0.3831  0.4829 -0.7901
  474MOL0     C65340   9.575   4.463   3.771 -0.5443 -0.4973  0.1055
  474MOL0     C65341   9.589   4.364   3.878  0.5765  0.1952 -0.4982
  474MOL0     C65342   9.541   4.222   3.845  0.0231 -1.0515  0.3871
  474MOL0     H65343   9.654   4.075   4.275 -0.2694  0.6840  0.1298
  474MOL0     H65344   9.603   3.975   4.492 -0.8766 -0.3050 -0.0451
  474MOL0     H65345   9.469   3.948   4.824 -0.1989  0.2981 -0.9751
  474MOL0     H65346   9.590   3.982   4.705  0.2798 -0.1922 -0.6756
  474MOL0     H65347   9.469   3.792   4.562  1.1139 -2.0198  0.2626
  474MOL0     H65348   9.549   3.736   4.708  1.2432 -0.9147 -4.1678
  474MOL0     H65349   9.297   3.750   4.810 -4.1068 -0.6501 -0.5439
  474MOL0     H65350   9.264   3.833   4.658  0.3708  0.6589  2.4113
  474MOL0     H65351   9.336   3.619   4.537 -1.2982  0.7153 -0.8502
  474MOL0     H65352   9.380   3.544   4.688  0.6752 -0.4736 -2.0927
  474MOL0     H65353   9.086   3.620   4.649 -0.5330 -0.9884 -3.5849
  474MOL0     H65354   9.169   3.534   4.775  0.3132  1.6600 -0.2325
  474MOL0     H65355   9.243   3.364   4.619  1.8155  2.4232 -1.1115
  474MOL0     H65356   9.070   3.366   4.658  0.6533  0.6298  0.8631
  474MOL0     H65357   9.195   3.483   4.398 -0.3075  1.6910 -1.1625
  474MOL0     H65358   9.022   3.501   4.441  0.7051 -0.4539  0.7284
  474MOL0     H65359   9.189   3.257   4.400  0.1024  2.0752  4.2478
  474MOL0     H65360   9.022   3.235   4.450  0.6068 -1.1863 -0.5058
  474MOL0     H65361   8.939   3.495   4.221  1.3192  0.1307  1.3273
  474MOL0     H65362   8.839   3.521   3.986  1.0189  0.8815 -1.6266
  474MOL0     H65363   8.777   3.365   3.950  1.1640  0.2837  1.2768
  474MOL0     H65364   9.013   3.512   3.836 -1.4804  1.2059  1.6817
  474MOL0     H65365   9.000   3.340   3.793 -0.6739 -0.1726 -0.8913
  474MOL0     H65366   8.794   3.375   3.684  1.7848 -0.5078  1.6229
  474MOL0     H65367   8.790   3.555   3.727  0.1337  0.1729 -0.0055
  474MOL0     H65368   9.017   3.435   3.571  0.6707  1.2326 -1.2392
  474MOL0     H65369   8.885   3.523   3.490 -2.9219  0.4075  1.2971
  474MOL0     H65370   8.724   3.707   3.531 -2.3465  1.3547  3.3078
  474MOL0     H65371   8.560   3.862   3.542 -0.1719 -0.2121  0.0359
  474MOL0     H65372   8.600   3.876   3.362 -0.1541  2.0018 -1.0936
  474MOL0     H65373   8.572   4.019   3.465  1.2082  1.0883  0.9888
  474MOL0     H65374   8.780   4.435   3.406  1.9107 -1.8649  0.3507
  474MOL0     H65375   8.878   4.636   3.375  2.3287  0.3264 -0.4928
  474MOL0     H65376   9.083   4.885   3.665  4.7754  3.3784 -0.9330
  474MOL0     H65377   9.180   4.755   3.602 -1.7390 -1.1854 -0.2189
  474MOL0     H65378   9.204   4.879   3.396 -1.2041  1.7068 -1.5355
  474MOL0     H65379   9.063   4.985   3.439 -1.5614 -1.7305  1.3849
  474MOL0     H65380   9.192   5.073   3.629 -0.0022  0.2269 -1.2180
  474MOL0     H65381   9.275   5.108   3.475  1.8025  0.5645  1.1400
  474MOL0     H65382   9.436   4.965   3.493  1.0107 -1.3207 -0.7000
  474MOL0     H65383   9.378   4.885   3.635  2.5276 -0.8432 -3.0865
  474MOL0     H65384   9.497   5.174   3.608 -1.4824  1.8616 -0.2591
  474MOL0     H65385   9.395   5.121   3.748  0.8376 -0.0911  0.8490
  474MOL0     H65386   9.668   5.036   3.678 -1.0462 -1.6850 -2.8105
  474MOL0     H65387   9.550   4.936   3.773 -2.1550  0.9802 -0.8081
  474MOL0     H65388   9.708   5.069   3.914 -0.2708 -1.0503 -1.1555
  474MOL0     H65389   9.538   5.114   3.944 -1.1810  1.0984 -0.7966
  474MOL0     H65390   9.555   5.331   3.866 -0.6158 -1.3612  0.2315
  474MOL0     H65391   9.677   5.290   3.759 -1.6588  2.8696  0.0496
  474MOL0     H65392   9.089   4.603   3.745 -0.9001 -2.2917  0.9010
  474MOL0     H65393   9.030   4.365   3.751 -0.1986 -0.4952  1.3157
  474MOL0     H65394   9.057   4.064   3.562  0.3232 -0.7196 -0.2650
  474MOL0     H65395   9.134   3.852   3.594  0.6469  4.6964 -0.0920
  474MOL0     H65396   9.294   4.261   4.543  0.7192 -0.7456  1.9746
  474MOL0     H65397   9.376   4.385   4.336  2.0998 -0.7128 -1.8854
  474MOL0     H65398   9.783   4.532   4.087  3.3214 -2.1952 -2.3059
  474MOL0     H65399   9.774   4.699   3.894  0.8478  0.1521 -0.1381
  474MOL0     H65400   9.703   4.545   3.537 -1.3078 -0.7567  0.1564
  474MOL0     H65401   9.565   4.661   3.518  0.8295  2.0087 -2.1130
  474MOL0     H65402   9.691   4.832   3.460 -1.1250 -1.4787  1.0708
  474MOL0     H65403   9.791   4.712   3.384 -0.4848  1.9606 -1.4313
  474MOL0     H65404   9.943   4.831   3.484  0.5931  0.3629 -0.0671
  474MOL0     H65405   9.862   4.861   3.640  2.8194 -1.9237  2.4571
  474MOL0     H65406   9.903   4.589   3.649  2.8678 -2.0322  1.0728
  474MOL0     H65407  10.034   4.696   3.695  1.5941  2.8592 -1.6974
  474MOL0     H65408  10.205   4.516   3.360  1.2492  2.7608 -1.0103
  474MOL0     H65409   9.524   4.453   3.675 -0.2792 -1.6086  0.0737
  474MOL0     H65410   9.548   4.158   3.933 -0.8854 -0.6479  0.7725
  474MOL0     H65411   9.434   4.219   3.824 -0.0308 -0.7386  0.6030
  474MOL0     H65412   9.601   4.172   3.768 -0.5929 -1.7254  0.3343
  475MOL0     O65413   6.551   7.618   5.641 -0.1771  0.2520 -0.6672
  475MOL0     C65414   6.495   7.512   5.640 -0.1114 -0.3800 -0.4303
  475MOL0     O65415   6.403   7.478   5.557 -0.4886  0.1638  0.4029
  475MOL0     C65416   6.368   7.567   5.461  0.2013 -0.1631 -0.0804
  475MOL0     C65417   6.302   7.694   5.497 -0.3840 -1.4814 -0.1086
  475MOL0     C65418   6.270   7.776   5.391  0.4246  0.2480  0.2288
  475MOL0     C65419   6.309   7.750   5.258  0.9465  0.5332 -1.1981
  475MOL0     O65420   6.274   7.832   5.157 -0.5685  0.4543  0.2781
  475MOL0     C65421   6.380   7.890   5.073  0.5902 -0.0378 -0.0910
  475MOL0     C65422   6.321   8.016   5.002 -0.0156 -0.1233 -0.3583
  475MOL0     C65423   6.258   8.118   5.102  0.4992  0.8653  0.4926
  475MOL0     C65424   6.255   8.265   5.053 -0.2827 -1.2086  0.6800
  475MOL0     C65425   6.189   8.353   5.154 -1.1132  0.5191  0.2341
  475MOL0     C65426   6.179   8.495   5.094  0.2213  0.1998  0.3303
  475MOL0     C65427   6.107   8.582   5.210 -0.5926  0.5901  0.1874
  475MOL0     C65428   6.023   8.704   5.160 -0.7723 -0.3626 -0.9219
  475MOL0     N65429   5.917   8.683   5.064 -0.1141 -0.9924 -0.1685
  475MOL0     C65430   5.810   8.611   5.097  0.5474 -1.5395  0.9905
  475MOL0     C65431   5.712   8.650   5.006  0.0447  0.7840 -0.0459
  475MOL0     C65432   5.575   8.589   5.001  0.8789  0.6301 -0.1430
  475MOL0     C65433   5.563   8.468   4.910 -0.1356  0.0324 -0.5976
  475MOL0     C65434   5.554   8.521   4.772  0.7786  1.3020 -0.5922
  475MOL0     C65435   5.531   8.419   4.657 -0.8144  0.5718 -0.5548
  475MOL0     O65436   5.398   8.380   4.664  0.9344  0.0790  0.2901
  475MOL0     C65437   5.366   8.274   4.582 -0.4531  0.7105  0.6071
  475MOL0     C65438   5.454   8.208   4.494 -0.5753  0.3498  0.1727
  475MOL0     C65439   5.398   8.094   4.423  0.7851 -0.1556 -0.0209
  475MOL0     C65440   5.509   8.026   4.341 -0.2981  0.1923 -0.6652
  475MOL0     C65441   5.256   8.066   4.426  0.3318  0.2670 -0.6208
  475MOL0     C65442   5.191   7.961   4.333 -0.5599  0.8128 -0.1007
  475MOL0     O65443   5.072   7.986   4.295  1.0859  0.5212 -0.1778
  475MOL0     C65444   4.988   7.878   4.248  0.9637 -0.7135  0.4350
  475MOL0     C65445   4.983   7.747   4.307 -0.1446 -1.0415 -0.1665
  475MOL0     C65446   4.904   7.644   4.249 -0.5054  0.0454 -1.1860
  475MOL0     C65447   4.818   7.666   4.150  0.2362 -0.1382  0.6385
  475MOL0     O65448   4.724   7.576   4.089 -0.2665  0.3968 -0.1483
  475MOL0     C65449   4.736   7.438   4.119 -0.1410 -0.7723 -1.3243
  475MOL0     C65450   4.692   7.358   4.003  1.5660 -0.1285 -0.2228
  475MOL0     C65451   4.647   7.211   4.041 -0.3974 -0.4085  0.9231
  475MOL0     C65452   4.508   7.174   4.026  0.1813  0.4458  0.4130
  475MOL0     C65453   4.449   7.182   3.890 -1.1027  0.4211 -0.3310
  475MOL0     C65454   4.303   7.149   3.863  0.0660  0.0600  0.3995
  475MOL0     C65455   4.253   7.186   3.717  0.5890  0.3421 -0.2301
  475MOL0     C65456   4.108   7.236   3.696  0.2722  0.3513 -0.3937
  475MOL0    Cl65457   4.104   7.421   3.733 -0.1257  0.1543 -0.1696
  475MOL0     C65458   4.804   7.801   4.113  0.3526 -0.6786 -0.3345
  475MOL0     C65459   4.883   7.906   4.165 -0.1491  0.2586  0.0348
  475MOL0     O65460   5.258   7.864   4.294 -0.0768  0.0345  0.3495
  475MOL0     C65461   5.176   8.139   4.506 -0.2448 -0.8909  0.1264
  475MOL0     C65462   5.234   8.242   4.574  0.7641  0.0827 -0.2103
  475MOL0     N65463   5.782   8.735   4.912 -0.1065  0.6962 -0.4172
  475MOL0     N65464   5.900   8.758   4.949 -0.7105 -0.3943  1.2264
  475MOL0     C65465   6.369   7.633   5.228  0.2856  0.5820  0.2734
  475MOL0     C65466   6.396   7.540   5.328 -0.4999  0.4597  0.5886
  475MOL0     C65467   6.530   7.404   5.732 -0.8445  0.6812 -0.5178
  475MOL0     C65468   6.491   7.273   5.689  1.0422  0.6133 -0.6276
  475MOL0     C65469   6.524   7.165   5.758 -1.7979  1.3594 -0.8516
  475MOL0     C65470   6.593   7.166   5.877  0.5994 -0.0883  0.9501
  475MOL0     O65471   6.602   7.058   5.944  0.0806 -0.0960  0.1479
  475MOL0     C65472   6.574   7.067   6.085  1.0611 -1.2580 -0.2066
  475MOL0     C65473   6.561   6.919   6.130 -0.7212 -0.1468  0.0928
  475MOL0     C65474   6.703   6.839   6.135 -0.9168 -0.5440 -0.2548
  475MOL0     C65475   6.789   6.861   6.263 -0.1089  0.9037 -0.1780
  475MOL0     C65476   6.716   6.822   6.382  0.0221  0.3326  0.1257
  475MOL0     C65477   6.652   6.763   6.474  0.5160 -0.4705  1.3117
  475MOL0     C65478   6.637   7.293   5.919  0.1565 -0.1163  0.2019
  475MOL0     C65479   6.608   7.417   5.843 -0.3516  0.2254 -0.3109
  475MOL0     C65480   6.644   7.553   5.906 -0.1387  0.4561  0.2656
  475MOL0     H65481   6.267   7.722   5.596 -0.0441  2.2523 -0.8987
  475MOL0     H65482   6.212   7.865   5.411  1.0995  0.2727  2.3742
  475MOL0     H65483   6.409   7.820   4.994  0.7592 -3.4132  2.7072
  475MOL0     H65484   6.466   7.910   5.137 -0.6209 -1.2771  2.0436
  475MOL0     H65485   6.393   8.060   4.932  0.2171 -0.1336 -0.1260
  475MOL0     H65486   6.240   7.988   4.934 -1.9957  1.7922  1.0813
  475MOL0     H65487   6.156   8.087   5.128  1.1531 -1.0509  0.9334
  475MOL0     H65488   6.328   8.123   5.186  0.5365  1.7516  0.4130
  475MOL0     H65489   6.354   8.303   5.028 -1.5782  2.8040  0.8928
  475MOL0     H65490   6.199   8.263   4.959  2.4548  0.8636 -1.1302
  475MOL0     H65491   6.250   8.359   5.245  0.5048 -1.6242 -0.6206
  475MOL0     H65492   6.098   8.303   5.186 -1.3579  1.4826  1.0768
  475MOL0     H65493   6.281   8.530   5.074  0.4848 -0.4079  0.5798
  475MOL0     H65494   6.115   8.484   5.006  0.8088  0.3762 -0.1250
  475MOL0     H65495   6.181   8.601   5.287 -0.4666  0.5468  0.0767
  475MOL0     H65496   6.031   8.516   5.254 -0.8354 -0.7408 -2.0559
  475MOL0     H65497   5.988   8.740   5.257 -0.0809 -2.7056  0.2897
  475MOL0     H65498   6.100   8.772   5.121  1.3590 -1.1593  1.5481
  475MOL0     H65499   5.799   8.552   5.188  1.9951 -4.2811 -0.4830
  475MOL0     H65500   5.504   8.666   4.971  2.7702  1.8078 -1.9320
  475MOL0     H65501   5.550   8.575   5.106  2.7757  2.2400  0.5848
  475MOL0     H65502   5.657   8.412   4.920  1.2272  2.6104  3.7096
  475MOL0     H65503   5.479   8.404   4.936  0.4509 -0.3915  0.3160
  475MOL0     H65504   5.483   8.604   4.757  0.0579  0.8167  0.0201
  475MOL0     H65505   5.653   8.556   4.742 -0.1859  1.5908 -3.7443
  475MOL0     H65506   5.569   8.443   4.557  0.5980 -0.3550 -0.2673
  475MOL0     H65507   5.586   8.329   4.687 -0.7437  0.0102 -2.2482
  475MOL0     H65508   5.559   8.232   4.481 -0.4178 -0.8567 -0.9681
  475MOL0     H65509   5.478   7.933   4.292 -3.1569  0.3804  0.5642
  475MOL0     H65510   5.588   8.002   4.413 -0.6873  1.1272  0.0967
  475MOL0     H65511   5.550   8.090   4.263 -0.4239  0.7040 -0.3160
  475MOL0     H65512   5.049   7.728   4.392 -2.3279 -0.9872  1.6317
  475MOL0     H65513   4.922   7.544   4.285 -0.3275  1.5348  3.5726
  475MOL0     H65514   4.842   7.423   4.143 -0.4438 -0.5140  0.3579
  475MOL0     H65515   4.673   7.428   4.209 -2.3955 -0.7976 -2.8326
  475MOL0     H65516   4.607   7.413   3.961 -0.5579 -2.5632  0.5816
  475MOL0     H65517   4.774   7.356   3.930  2.0940  0.2158  0.3521
  475MOL0     H65518   4.680   7.178   4.140  0.5158  1.2024  1.2059
  475MOL0     H65519   4.697   7.139   3.976 -2.3749 -1.3261  0.3430
  475MOL0     H65520   4.452   7.236   4.096  0.6215  0.3603  0.8390
  475MOL0     H65521   4.495   7.068   4.052  1.2535  0.2909  0.3340
  475MOL0     H65522   4.469   7.285   3.857 -3.3665  1.2800  0.7502
  475MOL0     H65523   4.506   7.108   3.833  0.0556 -0.7767  2.2181
  475MOL0     H65524   4.245   7.198   3.941  0.0749  2.1684 -0.8519
  475MOL0     H65525   4.272   7.044   3.868 -3.3265  0.8325 -1.3154
  475MOL0     H65526   4.274   7.098   3.655 -2.8532 -0.8939  0.1336
  475MOL0     H65527   4.315   7.266   3.676 -1.7543  2.8470  0.7486
  475MOL0     H65528   4.034   7.186   3.761 -0.9001  1.3729 -0.9122
  475MOL0     H65529   4.078   7.222   3.592 -0.2016 -1.9710 -0.0125
  475MOL0     H65530   4.729   7.830   4.040 -1.1773 -0.8778  1.0907
  475MOL0     H65531   4.863   8.004   4.121  3.2110  0.3029 -1.7599
  475MOL0     H65532   5.067   8.132   4.507 -0.3349  0.2251  1.5870
  475MOL0     H65533   5.174   8.295   4.647  1.8079 -0.5254  1.1408
  475MOL0     H65534   6.386   7.611   5.123  0.0687 -1.3910  0.6017
  475MOL0     H65535   6.423   7.440   5.295 -3.1212  0.3593 -1.6421
  475MOL0     H65536   6.442   7.262   5.593  0.7166  3.2768 -0.8471
  475MOL0     H65537   6.484   7.066   5.738  0.2986  0.0727  0.9724
  475MOL0     H65538   6.653   7.131   6.125 -1.1135  1.7269 -0.3386
  475MOL0     H65539   6.485   7.131   6.093  2.8304  1.3388  0.1647
  475MOL0     H65540   6.491   6.872   6.061 -2.8830 -1.5535  2.9992
  475MOL0     H65541   6.518   6.902   6.229  2.6645 -5.5440  1.0395
  475MOL0     H65542   6.684   6.731   6.135 -1.2280 -0.5088  1.4672
  475MOL0     H65543   6.748   6.866   6.039  3.3282  1.1445  1.9529
  475MOL0     H65544   6.824   6.962   6.287  0.1113  0.3307  2.1744
  475MOL0     H65545   6.868   6.786   6.257 -2.3085 -1.7640  1.9185
  475MOL0     H65546   6.607   6.719   6.561 -0.3080  2.4898  2.5182
  475MOL0     H65547   6.696   7.299   6.010 -1.2822  1.8530  1.0992
  475MOL0     H65548   6.565   7.627   5.888  0.0054  1.5260  3.4653
  475MOL0     H65549   6.664   7.549   6.013 -0.4236 -1.8129  0.2811
  475MOL0     H65550   6.731   7.587   5.850  2.1734 -1.7980  2.2686
  476MOL0     O65551   2.044   5.761   9.535  0.2669 -0.1058 -0.3798
  476MOL0     C65552   2.068   5.859   9.611  0.2494  0.1299  0.0038
  476MOL0     O65553   2.075   5.990   9.565 -0.4011 -0.5725 -0.7273
  476MOL0     C65554   2.070   6.010   9.434  0.0977 -0.2441 -0.5276
  476MOL0     C65555   2.197   6.013   9.358 -0.4809 -0.2690 -0.3347
  476MOL0     C65556   2.199   6.053   9.230  0.6096  0.4707  0.1271
  476MOL0     C65557   2.083   6.107   9.171 -0.7120 -0.8748 -0.2177
  476MOL0     O65558   2.090   6.153   9.040  0.0470 -0.3364 -0.4675
  476MOL0     C65559   2.050   6.290   9.031 -0.0038  0.5096 -0.2087
  476MOL0     C65560   2.038   6.311   8.882  0.4337 -0.3570  0.3034
  476MOL0     C65561   1.981   6.452   8.855  0.3415 -0.5359 -0.4910
  476MOL0     C65562   1.836   6.476   8.894 -0.0303  0.4863 -0.6812
  476MOL0     C65563   1.786   6.605   8.820 -1.3381 -0.1180 -1.1744
  476MOL0     C65564   1.625   6.614   8.848 -0.7437  0.8851  0.2358
  476MOL0     C65565   1.579   6.753   8.874  1.0144  0.3300 -0.4132
  476MOL0     C65566   1.546   6.829   8.746  0.3832  0.5338 -0.3350
  476MOL0     N65567   1.645   6.812   8.637  0.0729 -0.3339  0.0894
  476MOL0     C65568   1.639   6.734   8.530  0.6006 -1.1170  0.4724
  476MOL0     C65569   1.753   6.765   8.462  0.4550  0.2816 -0.3127
  476MOL0     C65570   1.798   6.695   8.335  0.8243 -0.0914 -0.3617
  476MOL0     C65571   1.931   6.621   8.359  0.4443  0.1984 -0.2187
  476MOL0     C65572   1.919   6.464   8.385 -0.1156 -0.2552  0.1953
  476MOL0     C65573   1.968   6.380   8.268  0.0477  0.1605 -0.3836
  476MOL0     O65574   1.873   6.372   8.160 -0.0934  0.3662 -0.0171
  476MOL0     C65575   1.913   6.284   8.062 -0.1820  0.6888  0.7145
  476MOL0     C65576   1.976   6.161   8.086  0.2164  1.4421 -0.1133
  476MOL0     C65577   2.020   6.076   7.986 -0.0308  0.6896  0.6606
  476MOL0     C65578   2.062   5.935   8.037  0.0293 -0.6128  1.1363
  476MOL0     C65579   1.996   6.117   7.855  0.3366 -0.0191  0.4838
  476MOL0     C65580   2.037   6.035   7.726 -0.3876 -0.3215  0.3922
  476MOL0     O65581   1.998   6.085   7.603  0.3825  0.3519 -0.0484
  476MOL0     C65582   1.982   5.997   7.494 -0.6015 -0.2605 -1.7774
  476MOL0     C65583   1.922   6.066   7.400  0.5775 -0.3915  0.5390
  476MOL0     C65584   1.874   6.009   7.282  0.0038 -0.6507 -1.0333
  476MOL0     C65585   1.890   5.872   7.255 -0.3507  0.0767 -0.3894
  476MOL0     O65586   1.857   5.808   7.137 -0.1022 -0.0998  1.1334
  476MOL0     C65587   1.753   5.859   7.059  0.0293 -0.7625 -0.0299
  476MOL0     C65588   1.697   5.774   6.956  0.7055  0.7264  1.0039
  476MOL0     C65589   1.807   5.743   6.853 -0.1697 -0.1691  0.2226
  476MOL0     C65590   1.867   5.607   6.882 -0.0950 -0.3612  0.2641
  476MOL0     C65591   1.973   5.579   6.785 -0.0335  0.0413  0.0883
  476MOL0     C65592   2.048   5.452   6.829 -1.5362 -0.3154 -0.1459
  476MOL0     C65593   1.993   5.321   6.778  0.1795  0.5738 -0.4441
  476MOL0     C65594   2.029   5.297   6.636  0.1512  0.3375  0.7032
  476MOL0    Cl65595   1.974   5.142   6.567 -0.4444 -0.4033  0.1230
  476MOL0     C65596   1.962   5.803   7.356  0.8388 -0.1080 -0.1602
  476MOL0     C65597   2.007   5.863   7.473 -0.3848 -0.7962 -0.5876
  476MOL0     O65598   2.098   5.935   7.748 -0.2458 -0.2986 -0.3318
  476MOL0     C65599   1.935   6.240   7.828 -0.7083  0.4142  0.3239
  476MOL0     C65600   1.890   6.321   7.931  0.0261  0.7702 -0.1460
  476MOL0     N65601   1.822   6.870   8.526  0.4796  0.3238  0.2623
  476MOL0     N65602   1.764   6.883   8.639 -0.4526  0.5149  0.4899
  476MOL0     C65603   1.964   6.114   9.250 -0.2127  0.5590  0.2748
  476MOL0     C65604   1.952   6.054   9.376 -0.6497 -0.4544 -0.0184
  476MOL0     C65605   2.061   5.840   9.763  0.3528 -0.1534 -0.2579
  476MOL0     C65606   2.039   5.944   9.853  0.9324 -0.2161 -0.4967
  476MOL0     C65607   2.028   5.928   9.994 -0.4027  0.8635  0.0020
  476MOL0     C65608   2.036   5.809  10.062  0.3053  0.0098  1.4246
  476MOL0     O65609   2.036   5.811  10.195 -0.6733 -0.4061 -0.2479
  476MOL0     C65610   2.027   5.686  10.261  1.3258 -0.7816 -0.1991
  476MOL0     C65611   1.997   5.704  10.407  0.8355 -1.2929  0.0213
  476MOL0     C65612   1.944   5.579  10.485 -0.1244  0.3904  0.6622
  476MOL0     C65613   2.035   5.452  10.486 -0.3483 -0.8345  0.2038
  476MOL0     C65614   2.032   5.368  10.607  0.3745 -0.4930  0.4294
  476MOL0     C65615   2.018   5.288  10.692  0.7741  0.3848 -0.0432
  476MOL0     C65616   2.041   5.698   9.965  0.4344 -0.4691  0.5063
  476MOL0     C65617   2.056   5.714   9.827 -0.2087 -0.4250  0.7470
  476MOL0     C65618   2.101   5.586   9.752 -0.7677  0.0873 -0.6018
  476MOL0     H65619   2.291   5.977   9.396  0.6187  0.4377 -2.2172
  476MOL0     H65620   2.296   6.056   9.182  0.3898 -2.0869 -0.6291
  476MOL0     H65621   2.125   6.357   9.073  2.7327 -3.4493  1.9273
  476MOL0     H65622   1.951   6.302   9.077 -1.0353 -0.0713 -2.1753
  476MOL0     H65623   2.133   6.291   8.832  0.3630  0.0639 -0.0076
  476MOL0     H65624   1.964   6.242   8.841  0.2088 -0.2051  0.4472
  476MOL0     H65625   2.054   6.519   8.901 -0.7488  0.4408 -0.1224
  476MOL0     H65626   1.984   6.478   8.749 -2.8960  0.0732 -0.5248
  476MOL0     H65627   1.777   6.386   8.874 -1.2091  0.9492  0.5302
  476MOL0     H65628   1.816   6.479   9.001 -1.3041 -1.1579 -0.8305
  476MOL0     H65629   1.811   6.603   8.714 -1.1720 -1.3963 -1.1190
  476MOL0     H65630   1.834   6.695   8.862  3.7183 -2.5698 -0.9812
  476MOL0     H65631   1.574   6.571   8.761 -0.9095  0.4820  0.5263
  476MOL0     H65632   1.595   6.546   8.929  1.3193 -0.0788  0.2678
  476MOL0     H65633   1.647   6.820   8.927 -1.4976  1.4910  1.5679
  476MOL0     H65634   1.479   6.747   8.919  0.0011  0.6252 -2.5139
  476MOL0     H65635   1.452   6.785   8.709 -0.8938  1.5042  1.5907
  476MOL0     H65636   1.521   6.930   8.779  0.5360  0.2127  0.8198
  476MOL0     H65637   1.554   6.682   8.487 -1.5621  2.1602  0.3790
  476MOL0     H65638   1.814   6.777   8.265  1.3015 -1.6149 -2.1166
  476MOL0     H65639   1.718   6.630   8.298  2.2933 -2.2962  0.1082
  476MOL0     H65640   1.992   6.635   8.269 -2.4265 -1.8505 -2.7096
  476MOL0     H65641   1.981   6.665   8.445  0.0933  0.4319 -0.1331
  476MOL0     H65642   1.988   6.452   8.469  2.6801 -0.5320 -1.9713
  476MOL0     H65643   1.820   6.433   8.419  1.3819 -0.6872  4.9712
  476MOL0     H65644   2.068   6.422   8.252 -0.0571  2.3290  3.4387
  476MOL0     H65645   1.997   6.284   8.313  1.3988  0.6143 -0.2363
  476MOL0     H65646   1.976   6.128   8.189  0.0114  0.4528 -0.4194
  476MOL0     H65647   2.083   5.920   8.143 -0.3170 -3.5680  0.8822
  476MOL0     H65648   2.157   5.915   7.987 -0.1530  0.5569  0.2911
  476MOL0     H65649   1.993   5.862   7.993 -0.1409  1.2035 -1.9431
  476MOL0     H65650   1.930   6.173   7.413  1.4589 -0.3683 -0.0896
  476MOL0     H65651   1.820   6.076   7.216 -0.6686  0.5439  0.6659
  476MOL0     H65652   1.677   5.890   7.130  0.8721  2.6500 -0.4283
  476MOL0     H65653   1.783   5.952   7.008 -1.9862 -1.3922 -2.5907
  476MOL0     H65654   1.649   5.687   7.004  0.7997 -0.9904 -1.8042
  476MOL0     H65655   1.610   5.820   6.910 -0.1793  0.6504  2.5293
  476MOL0     H65656   1.884   5.817   6.875 -1.7561  2.0727 -1.3666
  476MOL0     H65657   1.760   5.756   6.755 -2.7057 -1.9235  1.0922
  476MOL0     H65658   1.787   5.533   6.870 -1.0649  0.6563  0.2957
  476MOL0     H65659   1.911   5.607   6.982  1.5290  1.1501 -0.3844
  476MOL0     H65660   1.926   5.566   6.687 -2.3939  1.2109  0.9776
  476MOL0     H65661   2.056   5.650   6.787  0.7999 -0.8443  2.7899
  476MOL0     H65662   2.058   5.455   6.938 -2.5137  0.9854 -0.0707
  476MOL0     H65663   2.150   5.462   6.789 -1.4633  2.7269  0.5997
  476MOL0     H65664   1.885   5.305   6.786 -0.1593  2.4843 -0.6828
  476MOL0     H65665   2.035   5.242   6.841 -2.1509  0.8504  1.6277
  476MOL0     H65666   2.137   5.312   6.625  0.7039 -2.0057  2.2944
  476MOL0     H65667   1.980   5.379   6.582  1.4906 -0.3175 -1.6124
  476MOL0     H65668   1.981   5.701   7.325  0.2373  0.4421 -2.6122
  476MOL0     H65669   2.072   5.802   7.534 -1.3665 -0.5030  0.7804
  476MOL0     H65670   1.913   6.277   7.728 -1.3479 -1.0112 -0.0884
  476MOL0     H65671   1.829   6.403   7.894  0.6854  0.7579 -1.3299
  476MOL0     H65672   1.874   6.153   9.203 -0.3532 -3.5818 -3.5781
  476MOL0     H65673   1.855   6.063   9.423 -0.6300 -1.8504  0.3173
  476MOL0     H65674   2.049   6.047   9.821 -1.9353 -0.2354 -1.7238
  476MOL0     H65675   2.032   6.016  10.057 -0.3100 -0.1624  1.4820
  476MOL0     H65676   1.941   5.628  10.226 -1.4671  1.1703  2.8794
  476MOL0     H65677   2.124   5.637  10.243  1.3007 -2.2958  3.1221
  476MOL0     H65678   1.922   5.783  10.416 -0.9745 -2.4306 -3.2647
  476MOL0     H65679   2.087   5.740  10.457  1.5494  1.0456 -2.6895
  476MOL0     H65680   1.935   5.614  10.588  1.2407 -1.5550  1.5016
  476MOL0     H65681   1.848   5.561  10.437  1.0032 -1.0884 -1.1786
  476MOL0     H65682   2.137   5.485  10.468 -0.8443 -0.1394 -1.5134
  476MOL0     H65683   2.005   5.399  10.395  1.4990 -1.6068  0.0134
  476MOL0     H65684   2.012   5.211  10.766  2.8795  1.6720  1.5906
  476MOL0     H65685   2.045   5.602  10.015  0.8531 -0.9502 -0.4154
  476MOL0     H65686   2.131   5.514   9.828  1.1637  0.6958 -0.7179
  476MOL0     H65687   2.023   5.539   9.692 -0.2016 -1.2155 -0.3412
  476MOL0     H65688   2.190   5.605   9.690  1.3479 -2.1883  1.5298
  477MOL0     O65689  10.624   9.665   6.589 -0.3821  0.2878 -0.2276
  477MOL0     C65690  10.718   9.707   6.660 -0.0025  0.2263  0.2452
  477MOL0     O65691  10.828   9.776   6.616 -0.0200  0.9075 -1.3161
  477MOL0     C65692  10.856   9.808   6.491 -0.8887 -0.3413 -0.0067
  477MOL0     C65693  10.982   9.867   6.467 -0.5814 -0.8214 -0.5551
  477MOL0     C65694  11.026   9.888   6.335 -0.3815  1.2475 -0.2837
  477MOL0     C65695  10.953   9.852   6.227  0.1869 -0.1548  0.6412
  477MOL0     O65696  11.009   9.885   6.102  0.5470 -0.9222  0.5731
  477MOL0     C65697  11.113   9.792   6.074 -0.4180  0.3313  0.4700
  477MOL0     C65698  11.159   9.789   5.934 -0.0579 -0.2317 -0.8803
  477MOL0     C65699  11.270   9.688   5.902 -0.4499  0.0759 -0.0092
  477MOL0     C65700  11.194   9.567   5.842 -0.7935 -0.5145  0.3321
  477MOL0     C65701  11.304   9.459   5.800 -0.2552 -0.6166 -0.2824
  477MOL0     C65702  11.410   9.411   5.894  0.4011 -0.7350 -0.7135
  477MOL0     C65703  11.338   9.338   6.013 -0.1852  0.6967 -0.0227
  477MOL0     C65704  11.316   9.188   5.977  0.0664  0.1240  0.1791
  477MOL0     N65705  11.275   9.094   6.091 -0.5714  0.5207 -0.8431
  477MOL0     C65706  11.232   8.966   6.083  0.0118 -0.1124 -0.0143
  477MOL0     C65707  11.188   8.931   6.202 -0.2960  0.1679 -0.2741
  477MOL0     C65708  11.117   8.804   6.234 -0.3714  1.2632 -0.4548
  477MOL0     C65709  11.106   8.771   6.391  0.2859 -0.2320 -0.2923
  477MOL0     C65710  11.065   8.626   6.402 -0.6347  0.1574  0.6610
  477MOL0     C65711  11.038   8.595   6.543  0.2204 -0.4713  0.6895
  477MOL0     O65712  11.149   8.616   6.629 -0.5015 -0.1815  0.0018
  477MOL0     C65713  11.139   8.571   6.757 -0.0709 -0.8813 -0.1130
  477MOL0     C65714  11.251   8.588   6.831  0.0109 -0.1541 -0.4183
  477MOL0     C65715  11.253   8.565   6.968  0.4435  0.1339 -0.6895
  477MOL0     C65716  11.383   8.606   7.038 -0.4752 -0.7317 -0.0115
  477MOL0     C65717  11.140   8.505   7.028 -0.3831  0.5104  0.1382
  477MOL0     C65718  11.134   8.459   7.176 -0.7501  0.1036  0.6203
  477MOL0     O65719  11.025   8.389   7.220  0.3556  0.3432 -0.0469
  477MOL0     C65720  11.026   8.357   7.350  0.1100 -0.0406 -0.4824
  477MOL0     C65721  11.037   8.228   7.390  1.2965  0.2440 -0.6973
  477MOL0     C65722  11.023   8.189   7.524 -0.0128  0.2578 -0.6978
  477MOL0     C65723  11.015   8.288   7.616 -0.5910  0.9030 -0.7080
  477MOL0     O65724  10.988   8.254   7.752 -0.5427  0.0254  0.4326
  477MOL0     C65725  11.063   8.154   7.811  0.4979 -0.0018  0.1834
  477MOL0     C65726  11.082   8.161   7.963 -0.8365 -0.4376 -1.0866
  477MOL0     C65727  10.947   8.129   8.029  1.0209  0.1812  0.5558
  477MOL0     C65728  10.969   8.140   8.177  0.3885 -0.5948  0.4422
  477MOL0     C65729  11.047   8.009   8.234 -0.4534  0.0957  0.2650
  477MOL0     C65730  11.065   8.003   8.392  0.2792  0.3727  0.5806
  477MOL0     C65731  11.131   8.119   8.449  0.0237  0.1809 -0.5123
  477MOL0     C65732  11.240   8.075   8.544 -0.7416 -0.0921 -0.2722
  477MOL0    Cl65733  11.385   7.993   8.458  0.2197 -0.1887 -0.2325
  477MOL0     C65734  11.011   8.417   7.584  0.4994 -0.5312 -0.3314
  477MOL0     C65735  11.010   8.459   7.450  0.2464  0.4825  0.4138
  477MOL0     O65736  11.227   8.496   7.248 -0.1906  0.9775  0.2980
  477MOL0     C65737  11.024   8.487   6.948  0.1867 -0.4163 -1.2902
  477MOL0     C65738  11.022   8.528   6.817  0.7237  0.5448  0.3211
  477MOL0     N65739  11.189   9.041   6.279 -0.2583 -0.1939 -0.6782
  477MOL0     N65740  11.248   9.134   6.217  0.2765  0.1920  0.6887
  477MOL0     C65741  10.834   9.788   6.247  0.0549  0.1806 -0.3194
  477MOL0     C65742  10.785   9.772   6.380  0.5650  0.7869  1.3067
  477MOL0     C65743  10.693   9.695   6.814 -0.7504  0.7635 -0.0061
  477MOL0     C65744  10.584   9.621   6.864 -0.2935 -0.2103  0.0431
  477MOL0     C65745  10.558   9.607   7.000  1.1395 -0.2513 -0.3340
  477MOL0     C65746  10.620   9.683   7.096  0.4660 -0.3220  0.2223
  477MOL0     O65747  10.575   9.676   7.231  0.2917  0.6984 -0.2126
  477MOL0     C65748  10.442   9.717   7.254  0.0607 -0.3425 -0.6017
  477MOL0     C65749  10.434   9.872   7.243 -0.7232  0.3817 -0.2516
  477MOL0     C65750  10.298   9.934   7.287 -0.2243  1.0709 -0.0025
  477MOL0     C65751  10.285  10.082   7.280  0.4305 -1.0131 -0.8059
  477MOL0     C65752  10.404  10.154   7.335 -0.8937 -0.4235  0.4583
  477MOL0     C65753  10.494  10.214   7.388  1.2240  0.0832 -0.5230
  477MOL0     C65754  10.725   9.762   7.052  0.0754 -0.6980 -1.1153
  477MOL0     C65755  10.774   9.759   6.916  0.0571 -1.1669 -0.1401
  477MOL0     C65756  10.907   9.819   6.891 -0.2930  0.1266  0.1712
  477MOL0     H65757  11.032   9.907   6.555 -3.4424 -1.9670  1.7745
  477MOL0     H65758  11.122   9.937   6.319  0.6495 -1.0439 -1.6816
  477MOL0     H65759  11.074   9.695   6.106 -2.0717 -0.2326 -2.7848
  477MOL0     H65760  11.198   9.817   6.137  3.6644 -4.7216 -2.2483
  477MOL0     H65761  11.073   9.780   5.867 -0.8117 -1.5391  0.2112
  477MOL0     H65762  11.199   9.890   5.923  1.8338 -0.5546  1.9224
  477MOL0     H65763  11.334   9.733   5.827  0.1406 -0.1961  0.3238
  477MOL0     H65764  11.338   9.659   5.982 -0.0646  0.2235 -0.2849
  477MOL0     H65765  11.129   9.530   5.922  0.8280  2.2094  3.1320
  477MOL0     H65766  11.131   9.592   5.756 -0.6875 -1.9041 -0.1906
  477MOL0     H65767  11.362   9.486   5.711  0.6317 -1.8431 -0.1014
  477MOL0     H65768  11.257   9.369   5.760  0.4703 -0.7372 -0.8817
  477MOL0     H65769  11.475   9.345   5.837  2.4916 -1.0633  1.8979
  477MOL0     H65770  11.458   9.504   5.926 -4.1717  1.6558  0.1459
  477MOL0     H65771  11.240   9.374   6.048  0.2734 -0.1319  2.2977
  477MOL0     H65772  11.399   9.339   6.103  0.9180  3.1101 -0.7233
  477MOL0     H65773  11.234   9.179   5.905  1.4072 -3.1177 -1.1157
  477MOL0     H65774  11.405   9.151   5.925  0.7884 -0.4031  1.7288
  477MOL0     H65775  11.235   8.918   5.986 -0.5950  3.1589 -1.8236
  477MOL0     H65776  11.148   8.715   6.179 -1.6889 -0.1954  1.0116
  477MOL0     H65777  11.014   8.819   6.199 -0.5274  0.0427 -0.5573
  477MOL0     H65778  11.203   8.782   6.440  0.1639 -2.1826  0.4860
  477MOL0     H65779  11.039   8.839   6.445  0.8003  1.6195 -1.8441
  477MOL0     H65780  10.967   8.612   6.357  0.0251  1.7609 -1.4219
  477MOL0     H65781  11.131   8.553   6.354 -2.8212 -0.3524 -1.7235
  477MOL0     H65782  10.953   8.655   6.574 -0.7614 -1.8916  0.8390
  477MOL0     H65783  11.003   8.492   6.552  1.2328 -0.8569  0.4203
  477MOL0     H65784  11.345   8.624   6.791  0.0959 -1.1513 -1.1491
  477MOL0     H65785  11.461   8.630   6.966 -0.7994 -2.2278 -0.9169
  477MOL0     H65786  11.426   8.521   7.092  0.7924  0.4690  0.9280
  477MOL0     H65787  11.355   8.696   7.093 -0.2999  0.1602 -1.3399
  477MOL0     H65788  11.040   8.158   7.307  0.9073  1.3047 -1.6479
  477MOL0     H65789  11.030   8.086   7.558  0.9336  0.7188  0.5680
  477MOL0     H65790  11.013   8.061   7.784  0.4634  1.1297 -4.5193
  477MOL0     H65791  11.166   8.161   7.774  0.0029 -0.7015 -1.4099
  477MOL0     H65792  11.152   8.084   7.997  0.3322  2.4131  3.9423
  477MOL0     H65793  11.138   8.254   7.976 -0.0054 -1.0993  0.2823
  477MOL0     H65794  10.907   8.034   7.993 -2.8790  1.3410  1.2860
  477MOL0     H65795  10.880   8.210   7.998  1.1535  0.0644 -0.0378
  477MOL0     H65796  10.871   8.150   8.225 -0.5190 -0.0478 -1.4161
  477MOL0     H65797  11.035   8.226   8.193  0.9012 -0.8980 -0.0281
  477MOL0     H65798  10.991   7.920   8.204  0.8719 -0.6172 -0.1676
  477MOL0     H65799  11.149   8.018   8.198 -0.5951 -0.7416 -0.3801
  477MOL0     H65800  11.114   7.910   8.422 -0.1558  0.5457  1.8898
  477MOL0     H65801  10.959   8.015   8.416  0.1506 -1.8813  1.3192
  477MOL0     H65802  11.051   8.162   8.510 -0.8922  1.9483 -2.7956
  477MOL0     H65803  11.160   8.204   8.386  4.1488 -0.3527  0.4018
  477MOL0     H65804  11.191   8.006   8.613  2.3836 -0.6520  1.6153
  477MOL0     H65805  11.275   8.163   8.599 -2.6524  0.4580  0.1463
  477MOL0     H65806  11.001   8.495   7.659 -2.2318 -0.3290 -0.7961
  477MOL0     H65807  10.987   8.557   7.411 -0.2913  1.4387  2.9195
  477MOL0     H65808  10.939   8.458   7.008  0.4365  0.3491 -0.5591
  477MOL0     H65809  10.930   8.514   6.761  2.0102 -1.8690 -1.3766
  477MOL0     H65810  10.766   9.762   6.166  2.3944 -0.0678 -2.3117
  477MOL0     H65811  10.681   9.742   6.380  1.0153 -0.9020  1.0905
  477MOL0     H65812  10.511   9.579   6.795  1.2139 -1.5162 -0.8418
  477MOL0     H65813  10.482   9.541   7.041  0.5984  1.4952  1.6525
  477MOL0     H65814  10.369   9.666   7.190 -1.1782 -1.4285  1.5535
  477MOL0     H65815  10.405   9.692   7.354 -1.8793 -0.6249 -1.3436
  477MOL0     H65816  10.457   9.910   7.144  4.2635 -1.2145 -0.0028
  477MOL0     H65817  10.507   9.925   7.305 -0.2974  1.4162 -1.6052
  477MOL0     H65818  10.221   9.881   7.231  0.8973 -0.8073  0.1388
  477MOL0     H65819  10.291   9.908   7.393 -2.4127 -1.4196 -0.6413
  477MOL0     H65820  10.199  10.118   7.336  3.0454  1.3972  2.0814
  477MOL0     H65821  10.274  10.107   7.174 -0.9690 -4.5889 -1.6626
  477MOL0     H65822  10.558  10.282   7.441  1.5171  1.2808 -2.3290
  477MOL0     H65823  10.790   9.812   7.124  1.5543 -0.2671 -2.6670
  477MOL0     H65824  10.973   9.751   6.835  0.4319  1.1986 -0.3215
  477MOL0     H65825  10.902   9.923   6.858  0.6331  1.3847  3.5492
  477MOL0     H65826  10.966   9.831   6.982 -3.1906  1.4488  2.0150
  478MOL0     O65827   1.785   3.762   4.983 -0.1229 -0.3978 -0.1010
  478MOL0     C65828   1.735   3.695   4.892 -0.5611  0.0428  0.2347
  478MOL0     O65829   1.617   3.622   4.903  0.5212  0.7701 -0.2408
  478MOL0     C65830   1.542   3.618   5.016 -0.2646  0.0093  0.8179
  478MOL0     C65831   1.457   3.513   5.046 -0.0916 -0.5059 -0.2103
  478MOL0     C65832   1.374   3.508   5.159  0.1137  0.4960 -0.1452
  478MOL0     C65833   1.368   3.621   5.238  0.0711 -0.2770 -0.8964
  478MOL0     O65834   1.271   3.610   5.337  0.0221  0.7183  0.6150
  478MOL0     C65835   1.231   3.733   5.403  0.5393  0.7299  0.2362
  478MOL0     C65836   1.314   3.764   5.523 -0.0350 -0.1428 -0.7975
  478MOL0     C65837   1.291   3.906   5.569  0.0882  0.4432  1.2988
  478MOL0     C65838   1.352   3.948   5.699 -0.1143  0.2724  0.7364
  478MOL0     C65839   1.263   4.039   5.781 -1.2382  0.4385 -0.0235
  478MOL0     C65840   1.341   4.090   5.901  1.2149  0.5284  0.2606
  478MOL0     C65841   1.250   4.153   6.009 -0.3307 -0.0203  0.1106
  478MOL0     C65842   1.178   4.285   5.947 -0.9457  0.3270 -0.0564
  478MOL0     N65843   1.261   4.403   5.903 -0.0907 -0.6689  0.1116
  478MOL0     C65844   1.248   4.469   5.783  0.6193  0.1397 -0.0118
  478MOL0     C65845   1.327   4.579   5.792  1.3913 -0.1904 -0.9602
  478MOL0     C65846   1.335   4.685   5.687 -0.3763  0.4142  0.0143
  478MOL0     C65847   1.257   4.794   5.742  1.0545 -0.6486  0.3991
  478MOL0     C65848   1.239   4.911   5.635  0.5484  0.4633 -0.3200
  478MOL0     C65849   1.298   5.028   5.710 -1.3686  0.0116 -0.0504
  478MOL0     O65850   1.437   5.020   5.709 -0.5599  0.2412 -0.9542
  478MOL0     C65851   1.505   5.115   5.778 -0.0557 -0.3364 -0.4812
  478MOL0     C65852   1.456   5.209   5.871 -0.0270 -0.1048 -0.0502
  478MOL0     C65853   1.533   5.299   5.946  0.9706  0.0825  0.3632
  478MOL0     C65854   1.468   5.405   6.031 -0.1165  1.0317 -0.9623
  478MOL0     C65855   1.675   5.296   5.931  0.1598 -0.2852  0.4245
  478MOL0     C65856   1.777   5.406   5.965 -0.4139  0.9535 -0.5896
  478MOL0     O65857   1.911   5.392   5.918  1.0309  0.4175 -0.0106
  478MOL0     C65858   2.000   5.490   5.939 -0.1569 -0.3498 -0.6668
  478MOL0     C65859   2.136   5.465   5.957 -0.3867  0.6298  0.6826
  478MOL0     C65860   2.230   5.564   5.978 -0.2778 -0.8185  0.1708
  478MOL0     C65861   2.186   5.700   5.969 -0.1141  0.6955 -0.9904
  478MOL0     O65862   2.256   5.815   6.006 -0.1196  0.4760 -0.2036
  478MOL0     C65863   2.388   5.800   6.055 -0.0296 -0.4481  0.1338
  478MOL0     C65864   2.438   5.937   6.102  0.2003 -0.0827  0.1637
  478MOL0     C65865   2.580   5.925   6.162  0.0742  0.0676  0.3539
  478MOL0     C65866   2.635   6.065   6.201  0.8430 -1.0357 -0.0978
  478MOL0     C65867   2.758   6.067   6.302  0.8991  0.1099 -0.0603
  478MOL0     C65868   2.874   5.979   6.255 -0.1265  0.2286 -1.1828
  478MOL0     C65869   2.939   6.036   6.138  0.3376  0.1505  0.0264
  478MOL0     C65870   3.068   5.957   6.097 -0.4205  0.1659 -0.5954
  478MOL0    Cl65871   3.162   6.021   5.964  0.0914  0.1738  0.6394
  478MOL0     C65872   2.061   5.725   5.920 -0.1923 -0.4652 -0.2974
  478MOL0     C65873   1.964   5.626   5.909 -1.1013  1.0157  0.2585
  478MOL0     O65874   1.740   5.505   6.024  0.7696  0.2985 -0.3220
  478MOL0     C65875   1.728   5.192   5.851  0.7180  0.4548 -0.0678
  478MOL0     C65876   1.647   5.105   5.778 -0.9460  0.5384 -0.2242
  478MOL0     N65877   1.408   4.560   5.904  0.5984 -0.2757  0.1340
  478MOL0     N65878   1.357   4.459   5.968 -0.2456 -0.0373 -0.6224
  478MOL0     C65879   1.443   3.731   5.212  0.4418 -1.4049  0.8145
  478MOL0     C65880   1.536   3.731   5.102 -0.3252 -0.2398 -1.0465
  478MOL0     C65881   1.785   3.703   4.755  0.1668  0.1697 -0.8013
  478MOL0     C65882   1.768   3.588   4.686 -0.6497  0.6225  0.6934
  478MOL0     C65883   1.836   3.567   4.570 -0.3393 -0.8486 -0.4097
  478MOL0     C65884   1.919   3.655   4.510 -0.8453  0.1460 -0.8676
  478MOL0     O65885   2.005   3.618   4.406  0.1327  0.0022  1.3818
  478MOL0     C65886   2.133   3.561   4.444 -0.6174 -0.2054  0.8276
  478MOL0     C65887   2.211   3.521   4.311  0.2390  0.6951 -0.5719
  478MOL0     C65888   2.184   3.393   4.243  0.2602 -0.6252 -0.7483
  478MOL0     C65889   2.201   3.270   4.314  0.3778 -0.2401 -1.3716
  478MOL0     C65890   2.159   3.167   4.227  0.5350 -0.6952  0.2579
  478MOL0     C65891   2.114   3.072   4.166 -0.0980 -0.0951  0.4448
  478MOL0     C65892   1.931   3.786   4.574 -0.6415  0.3083 -0.0984
  478MOL0     C65893   1.860   3.810   4.699 -0.9321  0.7559  0.7109
  478MOL0     C65894   1.868   3.940   4.771 -0.4867  0.6884  0.4726
  478MOL0     H65895   1.453   3.440   4.966  1.0970 -2.3055  1.2874
  478MOL0     H65896   1.307   3.427   5.184 -0.1947  0.3784 -1.2664
  478MOL0     H65897   1.123   3.736   5.417  0.8313  1.6825  2.7801
  478MOL0     H65898   1.242   3.819   5.336  1.7824 -2.2540 -3.8155
  478MOL0     H65899   1.287   3.695   5.603  4.4290 -0.2766  0.8425
  478MOL0     H65900   1.421   3.746   5.510 -0.4248 -4.5089  0.2259
  478MOL0     H65901   1.329   3.973   5.491 -0.7941 -0.5659 -0.0313
  478MOL0     H65902   1.183   3.916   5.582 -0.3022  1.9230 -2.1098
  478MOL0     H65903   1.384   3.865   5.763  1.7437  0.0086 -0.4469
  478MOL0     H65904   1.446   3.994   5.666  1.0365 -2.0283  0.6081
  478MOL0     H65905   1.172   3.989   5.816  0.5571 -1.7434  1.8840
  478MOL0     H65906   1.236   4.124   5.718  1.0517  0.7927 -0.5984
  478MOL0     H65907   1.395   4.009   5.950  0.2504 -0.7342 -0.6963
  478MOL0     H65908   1.414   4.166   5.870 -1.9238  2.5047 -3.0348
  478MOL0     H65909   1.310   4.175   6.098 -1.3470 -2.0378  1.3504
  478MOL0     H65910   1.189   4.074   6.054  0.0616  1.7655  4.2760
  478MOL0     H65911   1.132   4.252   5.854  0.4874 -0.5031 -0.5162
  478MOL0     H65912   1.104   4.324   6.017 -0.7732 -0.2075  0.4325
  478MOL0     H65913   1.184   4.441   5.700 -0.7064 -0.6303  1.2134
  478MOL0     H65914   1.287   4.652   5.594 -2.2585  3.2008 -0.1353
  478MOL0     H65915   1.438   4.717   5.672  0.5978 -1.7003  1.7152
  478MOL0     H65916   1.153   4.769   5.766  0.2054  0.4371 -1.7921
  478MOL0     H65917   1.304   4.828   5.835  0.9917  1.3610 -0.2346
  478MOL0     H65918   1.289   4.891   5.540  1.8585  1.0276  0.2202
  478MOL0     H65919   1.134   4.932   5.614  0.3469  0.2327  0.4343
  478MOL0     H65920   1.275   5.126   5.667 -0.0341  0.4781  0.2572
  478MOL0     H65921   1.260   5.033   5.813  1.0633  0.4431  0.8995
  478MOL0     H65922   1.352   5.239   5.879  0.6510  2.4344  0.1367
  478MOL0     H65923   1.361   5.388   6.042 -0.2969  2.1523 -0.9256
  478MOL0     H65924   1.473   5.502   5.980 -0.7078  1.1173 -0.8644
  478MOL0     H65925   1.508   5.401   6.133 -0.0975  0.3455 -0.9866
  478MOL0     H65926   2.156   5.359   5.967 -1.6447  0.3647  0.5615
  478MOL0     H65927   2.334   5.540   5.995  0.3559  0.7122 -1.2877
  478MOL0     H65928   2.409   5.733   6.138  1.5189  0.6368  0.6832
  478MOL0     H65929   2.460   5.775   5.977  0.4471  2.7651 -0.6101
  478MOL0     H65930   2.446   6.009   6.020  1.7427 -0.4289 -0.0158
  478MOL0     H65931   2.372   5.979   6.179  0.6178 -0.1556  0.5620
  478MOL0     H65932   2.656   5.888   6.092 -1.0545  2.7303 -2.4841
  478MOL0     H65933   2.567   5.863   6.251 -2.1796  0.4570  0.3416
  478MOL0     H65934   2.557   6.121   6.254  2.0684  1.1758 -0.5011
  478MOL0     H65935   2.663   6.114   6.107 -0.6124 -2.6424 -1.4493
  478MOL0     H65936   2.799   6.167   6.318  2.3724 -0.7757  2.1185
  478MOL0     H65937   2.734   6.037   6.405  1.3713 -2.0028 -0.5182
  478MOL0     H65938   2.828   5.880   6.250 -0.6518  0.4931 -1.6570
  478MOL0     H65939   2.945   5.966   6.338  0.5788 -0.8757 -1.9320
  478MOL0     H65940   2.968   6.140   6.156 -0.4992  0.3604  0.2342
  478MOL0     H65941   2.859   6.033   6.064 -2.3928 -1.4271  2.7850
  478MOL0     H65942   3.032   5.855   6.085 -0.8334 -0.0450  1.8600
  478MOL0     H65943   3.119   5.958   6.194 -0.8584 -2.1307 -0.2838
  478MOL0     H65944   2.029   5.828   5.907 -1.9654 -0.8624  0.6732
  478MOL0     H65945   1.864   5.649   5.873 -1.1054  2.8235  1.3026
  478MOL0     H65946   1.835   5.183   5.839  1.1096  2.8129  1.1281
  478MOL0     H65947   1.686   5.016   5.729 -0.9705  0.0027  0.7071
  478MOL0     H65948   1.446   3.826   5.265 -2.2504 -0.3397 -0.7435
  478MOL0     H65949   1.602   3.818   5.100  0.2129 -0.6574 -1.6489
  478MOL0     H65950   1.702   3.508   4.716 -0.5797 -0.6457 -2.2146
  478MOL0     H65951   1.835   3.462   4.542 -1.8316 -1.6582  2.3562
  478MOL0     H65952   2.194   3.629   4.504  0.4888 -1.2927  0.9704
  478MOL0     H65953   2.126   3.468   4.502  1.7942 -1.5176 -0.7799
  478MOL0     H65954   2.319   3.524   4.329  0.8547  1.9745 -3.7725
  478MOL0     H65955   2.200   3.608   4.246  3.0509  2.0498  0.5468
  478MOL0     H65956   2.079   3.411   4.215  0.2322  1.1489  0.3706
  478MOL0     H65957   2.246   3.393   4.153 -3.3556  1.5730 -3.5232
  478MOL0     H65958   2.127   3.255   4.393 -0.8706 -0.4112 -2.5415
  478MOL0     H65959   2.294   3.227   4.351 -0.9220 -0.5724  1.8041
  478MOL0     H65960   2.068   2.981   4.135  3.7643 -2.0260 -0.2155
  478MOL0     H65961   1.994   3.867   4.537  0.5840 -0.4615  0.2414
  478MOL0     H65962   1.887   4.027   4.708 -0.3233 -0.7286 -1.5724
  478MOL0     H65963   1.773   3.966   4.818 -0.6395  0.2679  0.4052
  478MOL0     H65964   1.946   3.934   4.847 -0.8796  2.6622  1.0679
  479MOL0     O65965  11.208   2.735   3.380 -0.5073  0.1993  0.4304
  479MOL0     C65966  11.084   2.752   3.409 -0.5613  0.0920  0.9037
  479MOL0     O65967  11.023   2.874   3.405  1.0666 -0.1969 -0.3347
  479MOL0     C65968  11.067   2.986   3.338 -1.1549 -0.3808  0.1935
  479MOL0     C65969  11.195   3.011   3.286  1.1167 -0.6599  0.3979
  479MOL0     C65970  11.231   3.133   3.227  0.4119  0.0257  0.1484
  479MOL0     C65971  11.141   3.240   3.224  0.1382  1.1405 -0.6037
  479MOL0     O65972  11.186   3.341   3.154 -0.1450 -0.4679  0.1961
  479MOL0     C65973  11.096   3.453   3.126 -0.0094 -0.0655  0.1346
  479MOL0     C65974  11.188   3.544   3.042  0.3632  0.6436  0.4054
  479MOL0     C65975  11.099   3.654   2.973 -0.0286 -1.0605  0.0606
  479MOL0     C65976  11.188   3.740   2.886  0.4438  0.5454 -0.0920
  479MOL0     C65977  11.299   3.800   2.968 -0.3826  0.0793 -0.7713
  479MOL0     C65978  11.363   3.926   2.900  0.1103  0.5379  0.7442
  479MOL0     C65979  11.507   3.939   2.927 -0.5633  0.1335  0.6238
  479MOL0     C65980  11.538   3.978   3.076  0.5817 -0.5155 -0.7213
  479MOL0     N65981  11.527   3.858   3.169 -0.6032  0.3525  0.5739
  479MOL0     C65982  11.556   3.723   3.149 -0.4589 -0.2696  0.6328
  479MOL0     C65983  11.521   3.658   3.254 -0.2634 -0.0213 -0.2429
  479MOL0     C65984  11.544   3.510   3.274  0.9543  1.0831  0.4390
  479MOL0     C65985  11.686   3.482   3.328 -0.1415  0.1201 -0.1845
  479MOL0     C65986  11.709   3.501   3.477 -0.4184  0.2425  0.2916
  479MOL0     C65987  11.816   3.405   3.546  0.2216  0.1237 -0.6085
  479MOL0     O65988  11.836   3.270   3.493  0.4327  0.8684  0.0189
  479MOL0     C65989  11.923   3.179   3.553 -0.1687 -0.2156 -0.2702
  479MOL0     C65990  12.011   3.212   3.659  0.3764 -0.4617  0.0435
  479MOL0     C65991  12.085   3.113   3.731 -0.1876 -0.0605  0.8398
  479MOL0     C65992  12.178   3.162   3.841 -1.3168 -0.2325 -0.5970
  479MOL0     C65993  12.081   2.980   3.689  0.2100 -0.7447  0.3595
  479MOL0     C65994  12.135   2.867   3.763 -1.5064 -0.9573  0.5502
  479MOL0     O65995  12.169   2.773   3.679  0.0222 -0.1347  0.7201
  479MOL0     C65996  12.216   2.655   3.724 -0.1118  0.1566  0.3249
  479MOL0     C65997  12.196   2.557   3.623 -0.1851 -0.9963 -0.5211
  479MOL0     C65998  12.248   2.429   3.646 -0.1431 -0.0170 -1.0443
  479MOL0     C65999  12.308   2.390   3.769 -0.0142 -0.0768 -0.0111
  479MOL0     O66000  12.334   2.254   3.796 -0.1419 -0.0478 -0.8361
  479MOL0     C66001  12.425   2.188   3.710 -0.1796  0.4195 -0.2960
  479MOL0     C66002  12.567   2.246   3.725  0.2186  0.2018 -0.8263
  479MOL0     C66003  12.679   2.149   3.691 -0.8945 -0.1691 -0.8772
  479MOL0     C66004  12.809   2.225   3.664  0.6640  0.4237 -0.8324
  479MOL0     C66005  12.903   2.171   3.554 -0.0749 -0.4448 -0.3452
  479MOL0     C66006  12.937   2.026   3.585  0.7049  0.4096 -0.5136
  479MOL0     C66007  13.065   1.967   3.510 -0.0663 -0.3698 -0.4389
  479MOL0     C66008  13.054   1.820   3.470 -0.4095  0.0395 -0.1512
  479MOL0    Cl66009  12.929   1.804   3.343  0.3800  0.3736  0.8619
  479MOL0     C66010  12.321   2.486   3.871 -1.0478  0.4435  0.2518
  479MOL0     C66011  12.276   2.615   3.847  0.3062  0.3955 -1.2089
  479MOL0     O66012  12.139   2.863   3.892  0.2747  0.1739 -0.3174
  479MOL0     C66013  11.986   2.952   3.589  0.7771  0.0236 -0.0398
  479MOL0     C66014  11.911   3.044   3.518 -0.5507 -0.5020 -0.3153
  479MOL0     N66015  11.469   3.743   3.348  0.6353  0.0567  0.1974
  479MOL0     N66016  11.468   3.860   3.296 -0.3843  0.0857  0.1896
  479MOL0     C66017  11.013   3.219   3.276 -0.0853 -0.0141 -0.9294
  479MOL0     C66018  10.974   3.093   3.333 -0.9175  0.6356 -0.8738
  479MOL0     C66019  11.009   2.632   3.452 -0.6477 -0.1044 -0.2246
  479MOL0     C66020  10.892   2.666   3.525  0.3484 -0.3680 -0.3673
  479MOL0     C66021  10.805   2.580   3.594 -0.2806 -0.0525  0.1292
  479MOL0     C66022  10.828   2.442   3.583 -0.8112 -0.5757  0.7886
  479MOL0     O66023  10.743   2.343   3.624  0.8025 -0.2274 -0.6563
  479MOL0     C66024  10.751   2.317   3.770 -0.1391  0.2365 -0.5548
  479MOL0     C66025  10.898   2.296   3.821  0.5832 -0.5370 -0.5396
  479MOL0     C66026  10.891   2.206   3.945 -0.3592 -0.8259  0.4269
  479MOL0     C66027  11.016   2.179   4.016  0.2165 -0.4250  0.1538
  479MOL0     C66028  11.068   2.259   4.122 -0.6881  0.6426  0.4595
  479MOL0     C66029  11.089   2.330   4.217 -0.3645 -0.2411 -0.1886
  479MOL0     C66030  10.939   2.399   3.504 -0.2183  1.0630 -0.2385
  479MOL0     C66031  11.021   2.491   3.429  0.3828 -0.5807  0.7497
  479MOL0     C66032  11.129   2.430   3.336  0.2134  0.0498  0.7702
  479MOL0     H66033  11.272   2.935   3.301  0.6203 -0.9150  1.8340
  479MOL0     H66034  11.321   3.142   3.166  0.3662  0.9663  0.1986
  479MOL0     H66035  11.056   3.511   3.210 -0.0853  2.9977 -1.8646
  479MOL0     H66036  11.018   3.410   3.062 -0.7131 -2.7442  2.5903
  479MOL0     H66037  11.265   3.585   3.107  1.5836  2.6502 -2.1029
  479MOL0     H66038  11.239   3.483   2.966 -1.5492  1.2355 -1.4593
  479MOL0     H66039  11.014   3.607   2.921 -0.6029  0.6934 -0.6494
  479MOL0     H66040  11.060   3.719   3.052 -2.4442 -3.2412  0.8124
  479MOL0     H66041  11.219   3.691   2.794 -3.2012  1.5644 -2.0733
  479MOL0     H66042  11.117   3.817   2.855  1.9358  1.4315 -1.3763
  479MOL0     H66043  11.371   3.718   2.980 -1.2435 -0.7539 -1.1379
  479MOL0     H66044  11.262   3.825   3.067 -1.1678  0.7395 -1.2220
  479MOL0     H66045  11.349   3.922   2.792  0.5802 -0.7136  0.7084
  479MOL0     H66046  11.312   4.015   2.938  0.4209  0.3340  1.6508
  479MOL0     H66047  11.546   4.013   2.857  1.2849 -2.0776 -0.8190
  479MOL0     H66048  11.572   3.855   2.902 -0.7531  0.7012 -2.0926
  479MOL0     H66049  11.641   4.014   3.076  1.1717 -2.1412 -0.9466
  479MOL0     H66050  11.485   4.061   3.124 -0.0598 -0.6141 -1.2408
  479MOL0     H66051  11.601   3.688   3.057 -3.6584 -1.2217 -0.6990
  479MOL0     H66052  11.542   3.467   3.174  2.0749 -3.6847  2.2073
  479MOL0     H66053  11.472   3.456   3.336  3.1299 -1.8587  0.6246
  479MOL0     H66054  11.720   3.381   3.305 -1.2230 -0.8120  2.0407
  479MOL0     H66055  11.750   3.552   3.273  0.7890  1.5053  2.4893
  479MOL0     H66056  11.734   3.599   3.518 -0.3836 -1.1227  3.8757
  479MOL0     H66057  11.614   3.474   3.525 -1.5302 -0.5789 -2.2160
  479MOL0     H66058  11.905   3.468   3.547 -0.1018  0.6361  1.3111
  479MOL0     H66059  11.784   3.399   3.651 -4.4098  1.1494 -1.7207
  479MOL0     H66060  12.020   3.318   3.681 -3.0111  0.4424 -2.1866
  479MOL0     H66061  12.279   3.121   3.829  0.1072  2.4816  1.0324
  479MOL0     H66062  12.135   3.129   3.936 -1.0492  3.0024  0.7931
  479MOL0     H66063  12.192   3.270   3.852 -0.7736 -0.3820  0.3068
  479MOL0     H66064  12.163   2.585   3.524  0.6899 -0.7922 -0.7687
  479MOL0     H66065  12.229   2.352   3.571 -1.2235  2.4295 -3.4835
  479MOL0     H66066  12.435   2.082   3.735  2.3736  0.8562  0.8744
  479MOL0     H66067  12.393   2.191   3.605 -0.7806  1.4569 -0.0992
  479MOL0     H66068  12.571   2.337   3.665  2.1944  2.8323  2.8599
  479MOL0     H66069  12.579   2.271   3.831  0.5011  0.4853 -0.9235
  479MOL0     H66070  12.650   2.085   3.607  0.8929  0.4041 -1.9989
  479MOL0     H66071  12.697   2.075   3.770 -1.7230  1.9398  1.4215
  479MOL0     H66072  12.861   2.229   3.761 -0.4994  1.0748 -0.2128
  479MOL0     H66073  12.796   2.332   3.645  1.5181  0.8934  0.9453
  479MOL0     H66074  12.850   2.174   3.458  3.3071 -1.3510 -2.3999
  479MOL0     H66075  12.996   2.227   3.539  0.9844 -1.9612  0.3258
  479MOL0     H66076  12.854   1.958   3.564  0.7421  0.3764 -0.5550
  479MOL0     H66077  12.954   2.013   3.692  1.8899 -0.7299 -0.8176
  479MOL0     H66078  13.151   1.957   3.577  0.9560 -0.6249 -1.7648
  479MOL0     H66079  13.087   2.027   3.421  4.3677 -1.5279 -0.3650
  479MOL0     H66080  13.036   1.761   3.560  0.0810 -1.0075 -0.7223
  479MOL0     H66081  13.145   1.767   3.441 -1.9525 -3.4338  0.7813
  479MOL0     H66082  12.369   2.456   3.964 -1.6988 -1.6990 -0.0380
  479MOL0     H66083  12.298   2.676   3.933  5.2437 -2.9603  0.3483
  479MOL0     H66084  11.963   2.849   3.562 -0.4900  0.7929 -2.1325
  479MOL0     H66085  11.839   3.012   3.443  0.0526  0.2996 -1.2649
  479MOL0     H66086  10.949   3.305   3.263  0.0678  0.5064  1.4746
  479MOL0     H66087  10.874   3.066   3.364 -0.9839 -0.5556 -2.0262
  479MOL0     H66088  10.863   2.768   3.546 -0.6871 -0.9692  1.3036
  479MOL0     H66089  10.717   2.610   3.650  0.2678 -0.1371  1.0457
  479MOL0     H66090  10.696   2.394   3.824  0.1018 -1.1751  1.8240
  479MOL0     H66091  10.693   2.227   3.789  0.4965 -1.0421 -3.9009
  479MOL0     H66092  10.943   2.396   3.829 -1.0384  0.3357 -1.7709
  479MOL0     H66093  10.958   2.243   3.746 -1.6304 -3.7326 -0.2285
  479MOL0     H66094  10.820   2.246   4.017  0.9824  1.7318  0.4327
  479MOL0     H66095  10.862   2.106   3.910 -1.4262 -0.5453  0.4916
  479MOL0     H66096  11.097   2.171   3.942 -0.6389 -0.9037 -0.7533
  479MOL0     H66097  10.999   2.079   4.056  1.6987 -1.2619 -1.2176
  479MOL0     H66098  11.129   2.400   4.288 -0.4456  1.8260 -2.0755
  479MOL0     H66099  10.967   2.294   3.507  1.5656  1.4850  3.3279
  479MOL0     H66100  11.140   2.485   3.242 -2.4413  1.0984  0.9841
  479MOL0     H66101  11.224   2.405   3.383 -0.4271 -1.0803  1.5216
  479MOL0     H66102  11.096   2.337   3.287 -2.1254 -0.4454  3.0702
  480MOL0     O66103   2.181  10.985   1.090  0.1228 -0.6373 -0.1425
  480MOL0     C66104   2.282  10.963   1.156 -0.6604  0.5698  0.9760
  480MOL0     O66105   2.346  11.032   1.251  0.3939  0.9054 -0.1374
  480MOL0     C66106   2.291  11.148   1.294 -0.6100 -0.0128 -0.7010
  480MOL0     C66107   2.341  11.278   1.267 -0.4846  0.6355 -0.4250
  480MOL0     C66108   2.257  11.383   1.288  0.0114  0.5601  1.4767
  480MOL0     C66109   2.124  11.375   1.337 -0.4778 -0.5517  0.1784
  480MOL0     O66110   2.053  11.491   1.352  0.1019  0.2531  1.5251
  480MOL0     C66111   1.935  11.513   1.426 -0.1839 -0.6615 -0.0790
  480MOL0     C66112   1.919  11.664   1.452 -0.1428  0.5155  1.1752
  480MOL0     C66113   1.947  11.695   1.597 -0.3690 -0.2526 -0.2537
  480MOL0     C66114   1.943  11.840   1.639  0.3785 -1.3772 -0.0148
  480MOL0     C66115   1.918  11.861   1.791  0.2182  0.4479  1.3791
  480MOL0     C66116   2.038  11.814   1.872  0.4348 -0.5779 -0.1065
  480MOL0     C66117   1.977  11.804   2.018  0.1713 -1.4676 -0.2001
  480MOL0     C66118   2.088  11.783   2.124  0.7158  0.2489  0.3087
  480MOL0     N66119   2.132  11.646   2.120  0.1257 -0.7672 -0.7848
  480MOL0     C66120   2.119  11.564   2.218  1.2478 -0.5296 -0.0605
  480MOL0     C66121   2.213  11.470   2.204  0.0907 -0.0233  0.5260
  480MOL0     C66122   2.237  11.343   2.278 -0.0658  0.0555 -0.0870
  480MOL0     C66123   2.200  11.209   2.199 -0.0190 -0.9154 -1.7754
  480MOL0     C66124   2.054  11.189   2.171  0.4666  0.4731 -0.0650
  480MOL0     C66125   2.019  11.039   2.164 -1.0298  0.3994 -0.2235
  480MOL0     O66126   1.884  11.022   2.128  0.3751 -0.1711  0.0114
  480MOL0     C66127   1.834  10.911   2.188  0.8407  0.6405  0.1265
  480MOL0     C66128   1.797  10.813   2.092 -0.4006 -0.4595  0.1573
  480MOL0     C66129   1.758  10.676   2.135 -0.5497 -1.3368 -0.4146
  480MOL0     C66130   1.732  10.575   2.026  0.5183  0.4835 -0.5974
  480MOL0     C66131   1.744  10.656   2.272  0.4335  0.2718 -0.4948
  480MOL0     C66132   1.705  10.525   2.336  0.6276  0.2322  0.0284
  480MOL0     O66133   1.724  10.513   2.473 -0.0188 -0.0951 -0.8233
  480MOL0     C66134   1.686  10.395   2.523  1.1563 -0.3994 -0.1217
  480MOL0     C66135   1.740  10.276   2.480  0.1810  0.3923 -1.3681
  480MOL0     C66136   1.698  10.162   2.534 -0.7449 -0.3037 -2.0587
  480MOL0     C66137   1.588  10.156   2.627 -1.0375 -0.2485 -0.9674
  480MOL0     O66138   1.554  10.035   2.690  0.3473 -0.3057  0.4986
  480MOL0     C66139   1.427  10.001   2.714 -0.5091  0.0902  0.0917
  480MOL0     C66140   1.359   9.923   2.595 -0.0704  0.1433  0.1091
  480MOL0     C66141   1.228   9.962   2.547 -1.2806 -0.4371  0.6023
  480MOL0     C66142   1.130   9.971   2.652  0.0568 -0.9332 -0.3988
  480MOL0     C66143   1.025  10.079   2.608 -0.6445 -0.4364 -0.3156
  480MOL0     C66144   0.984  10.154   2.744 -0.8685 -1.0848  0.4594
  480MOL0     C66145   0.895  10.078   2.848 -0.6843 -0.2322 -0.6745
  480MOL0     C66146   0.844  10.190   2.945  0.5957  1.0875 -0.8140
  480MOL0    Cl66147   0.732  10.120   3.059  0.2477 -0.2094 -0.5621
  480MOL0     C66148   1.523  10.273   2.666 -2.3050 -0.1012  0.1470
  480MOL0     C66149   1.577  10.394   2.614 -0.7276  0.4504 -0.1538
  480MOL0     O66150   1.653  10.443   2.269  0.0012  0.2584  0.2178
  480MOL0     C66151   1.787  10.756   2.360 -0.6823  0.1272 -0.7740
  480MOL0     C66152   1.825  10.881   2.325 -0.3057  1.1125 -0.1494
  480MOL0     N66153   2.277  11.494   2.083  0.2542  0.4009 -0.4719
  480MOL0     N66154   2.219  11.600   2.036 -0.9889 -0.1064  0.6496
  480MOL0     C66155   2.082  11.253   1.388  0.0669 -0.4966 -0.0162
  480MOL0     C66156   2.162  11.143   1.363 -0.1852  0.1699 -0.6516
  480MOL0     C66157   2.364  10.851   1.108 -0.0322  0.6570 -0.0721
  480MOL0     C66158   2.477  10.878   1.030 -0.4302 -0.8819  0.1452
  480MOL0     C66159   2.567  10.775   0.981  0.6399  0.3894  0.5287
  480MOL0     C66160   2.528  10.643   1.002  0.6099  0.8169 -1.0033
  480MOL0     O66161   2.605  10.557   0.933 -0.0507  0.3880 -0.3047
  480MOL0     C66162   2.557  10.424   0.903 -0.2000  0.0777 -0.8059
  480MOL0     C66163   2.451  10.410   0.786 -0.5397  0.5125 -0.2179
  480MOL0     C66164   2.480  10.471   0.654 -0.2963  0.1921 -0.2461
  480MOL0     C66165   2.497  10.625   0.665 -0.0954 -0.2354  0.2478
  480MOL0     C66166   2.527  10.676   0.527  0.4119 -0.0576  0.0843
  480MOL0     C66167   2.573  10.744   0.431 -0.1769  0.7169  0.3327
  480MOL0     C66168   2.423  10.613   1.095  0.5921 -0.4600 -0.8456
  480MOL0     C66169   2.335  10.716   1.140  0.4061 -0.1896  0.0575
  480MOL0     C66170   2.235  10.667   1.229  0.3136 -0.7185 -0.8996
  480MOL0     H66171   2.437  11.279   1.217  0.9450 -0.3364  2.1146
  480MOL0     H66172   2.287  11.484   1.261  4.0474 -0.7445  0.4357
  480MOL0     H66173   1.937  11.462   1.523 -0.1009 -1.1483 -0.3310
  480MOL0     H66174   1.838  11.483   1.385 -0.3689 -0.5581  0.2799
  480MOL0     H66175   1.979  11.728   1.387 -3.2602  2.1401 -0.3476
  480MOL0     H66176   1.816  11.699   1.438 -0.2623  0.0987  1.0102
  480MOL0     H66177   1.882  11.633   1.660 -0.2566  0.4541  0.5732
  480MOL0     H66178   2.048  11.658   1.614 -0.6071 -0.4609  0.7718
  480MOL0     H66179   2.037  11.886   1.606  0.0420 -2.4959 -2.7767
  480MOL0     H66180   1.856  11.894   1.599  0.0437 -3.7479 -2.7651
  480MOL0     H66181   1.826  11.809   1.822 -0.4142  0.9779  0.4490
  480MOL0     H66182   1.905  11.968   1.812  0.3905  0.7986 -0.1693
  480MOL0     H66183   2.070  11.714   1.842 -2.2608 -2.0907  1.7161
  480MOL0     H66184   2.115  11.892   1.864  1.0832 -0.8812  2.3996
  480MOL0     H66185   1.908  11.720   2.031 -0.8296 -0.5465  0.6324
  480MOL0     H66186   1.918  11.894   2.032  3.7257  1.2989 -1.4391
  480MOL0     H66187   2.174  11.844   2.095  2.3237 -1.9842  0.1462
  480MOL0     H66188   2.039  11.812   2.217 -0.8316 -0.4410 -0.2427
  480MOL0     H66189   2.040  11.568   2.293  0.7168  0.5617 -0.6635
  480MOL0     H66190   2.177  11.344   2.369  0.3538  0.1064  0.1889
  480MOL0     H66191   2.343  11.341   2.306 -0.7063  2.3060  3.0528
  480MOL0     H66192   2.258  11.214   2.106  3.1655 -0.2225  0.1161
  480MOL0     H66193   2.236  11.127   2.260 -1.1575  0.4507  0.9160
  480MOL0     H66194   1.995  11.233   2.252  0.2415 -0.1862  0.1400
  480MOL0     H66195   2.023  11.229   2.075  0.6977  2.4466  0.6261
  480MOL0     H66196   2.081  10.995   2.085 -0.4284 -1.3247  1.1541
  480MOL0     H66197   2.053  11.008   2.263  1.7526  3.0130 -0.2046
  480MOL0     H66198   1.805  10.832   1.986 -1.3875 -1.8932 -0.2052
  480MOL0     H66199   1.792  10.483   2.031 -1.9741 -1.3067 -1.3893
  480MOL0     H66200   1.748  10.620   1.928  0.7401 -1.5145 -1.5448
  480MOL0     H66201   1.628  10.541   2.030  1.3391 -2.3050 -0.1382
  480MOL0     H66202   1.827  10.282   2.416  1.4731  1.2214  0.3988
  480MOL0     H66203   1.730  10.067   2.493  1.5160  0.1496 -1.4819
  480MOL0     H66204   1.422   9.944   2.807  0.5270  1.7076  1.1908
  480MOL0     H66205   1.367  10.091   2.728 -1.1466 -0.8228  4.8173
  480MOL0     H66206   1.420   9.942   2.506 -0.5768  1.3610  0.0087
  480MOL0     H66207   1.355   9.816   2.617 -2.2224  0.4054  1.2855
  480MOL0     H66208   1.194   9.903   2.461 -1.2476 -2.1840  1.7434
  480MOL0     H66209   1.246  10.061   2.503 -0.6745  0.2471  2.3224
  480MOL0     H66210   1.177  10.002   2.746  1.6135  0.4645 -1.5728
  480MOL0     H66211   1.094   9.872   2.682  0.7863 -1.6621 -1.7986
  480MOL0     H66212   1.065  10.141   2.526  0.2496 -2.4782 -1.4848
  480MOL0     H66213   0.935  10.029   2.571 -1.0779  0.9755 -1.2564
  480MOL0     H66214   0.920  10.238   2.717 -1.3076 -1.9741 -1.4690
  480MOL0     H66215   1.067  10.210   2.788 -2.5172  0.5762  1.6122
  480MOL0     H66216   0.943   9.994   2.900 -0.5443  0.3366  0.1294
  480MOL0     H66217   0.812  10.033   2.793 -1.6520  1.3845 -0.5758
  480MOL0     H66218   0.805  10.283   2.901 -2.7996 -1.2405 -3.2376
  480MOL0     H66219   0.931  10.228   2.999  0.3668  3.3719 -1.9024
  480MOL0     H66220   1.444  10.268   2.741 -1.8015 -3.4913  0.5917
  480MOL0     H66221   1.534  10.478   2.667 -3.2106  0.6042 -2.2018
  480MOL0     H66222   1.796  10.725   2.463  1.3089 -0.7436 -1.1471
  480MOL0     H66223   1.851  10.953   2.402 -5.0621  1.8697  1.0947
  480MOL0     H66224   1.985  11.247   1.436  0.6558  0.4278  1.3284
  480MOL0     H66225   2.120  11.049   1.399 -0.6298  1.3171  2.0419
  480MOL0     H66226   2.494  10.985   1.027  3.2066 -1.3270 -0.0853
  480MOL0     H66227   2.639  10.806   0.906 -0.5842  2.4543  0.1010
  480MOL0     H66228   2.644  10.357   0.898 -2.0536 -2.7599  1.6650
  480MOL0     H66229   2.504  10.392   0.993 -0.4929  0.1909 -0.9366
  480MOL0     H66230   2.355  10.444   0.825  0.7727  1.3171  2.5270
  480MOL0     H66231   2.434  10.307   0.753 -0.8768  0.7766 -0.8805
  480MOL0     H66232   2.566  10.418   0.611  0.5272  0.9752  0.3843
  480MOL0     H66233   2.398  10.445   0.587 -2.4622  0.5179  2.1601
  480MOL0     H66234   2.583  10.667   0.718 -0.1607  1.3319 -0.8410
  480MOL0     H66235   2.400  10.669   0.691 -0.3745  0.9338 -2.4601
  480MOL0     H66236   2.614  10.808   0.355 -1.7750  0.0606 -1.1658
  480MOL0     H66237   2.410  10.506   1.110  0.7840 -0.8091 -2.8443
  480MOL0     H66238   2.160  10.742   1.256  0.2099 -1.5372  1.3494
  480MOL0     H66239   2.168  10.590   1.192 -1.5542 -0.5180  1.7423
  480MOL0     H66240   2.286  10.640   1.323 -0.5022 -2.3704 -0.8942
  481MOL0     O66241  10.219   7.768   1.039 -0.0743  0.2375 -0.8813
  481MOL0     C66242  10.157   7.859   0.987  0.2867  1.0702 -0.6060
  481MOL0     O66243  10.210   7.962   0.908  0.8344  0.4879  0.1084
  481MOL0     C66244  10.300   7.907   0.820  0.7554  0.5636  0.1396
  481MOL0     C66245  10.247   7.835   0.708  0.1659 -1.5487  0.6912
  481MOL0     C66246  10.343   7.792   0.614  0.1155  0.7800  0.5631
  481MOL0     C66247  10.486   7.799   0.638  0.1815  0.2021 -0.1165
  481MOL0     O66248  10.559   7.739   0.551  0.4692 -0.8089 -0.0104
  481MOL0     C66249  10.698   7.727   0.582  0.6440  0.8262  0.3797
  481MOL0     C66250  10.778   7.683   0.453 -0.6633  1.0786 -0.2727
  481MOL0     C66251  10.933   7.689   0.464  0.4107 -0.2119 -0.0293
  481MOL0     C66252  10.985   7.677   0.323 -0.1260  0.0203 -0.3064
  481MOL0     C66253  11.132   7.638   0.316  0.8015 -0.5783  0.5658
  481MOL0     C66254  11.226   7.743   0.367 -0.4115  0.1000 -0.1595
  481MOL0     C66255  11.375   7.697   0.351  0.3131  0.3626  0.1348
  481MOL0     C66256  11.414   7.558   0.402 -0.6013  0.0041  0.7163
  481MOL0     N66257  11.558   7.546   0.401 -0.1647 -0.5384  0.1634
  481MOL0     C66258  11.636   7.548   0.515  0.1979 -1.1216  0.0780
  481MOL0     C66259  11.759   7.557   0.467 -0.1899 -0.1684  0.4288
  481MOL0     C66260  11.887   7.579   0.538 -1.0028 -0.0420  0.0042
  481MOL0     C66261  11.973   7.452   0.563 -1.2678 -0.8141  0.1037
  481MOL0     C66262  12.107   7.481   0.640 -0.0266  0.4072 -0.0585
  481MOL0     C66263  12.162   7.624   0.612  0.0441  0.3781 -0.0862
  481MOL0     O66264  12.291   7.638   0.662  0.3819  0.3108 -0.2865
  481MOL0     C66265  12.331   7.764   0.708  0.3201  0.3066 -0.7156
  481MOL0     C66266  12.299   7.887   0.638  0.6258  0.0039  0.3177
  481MOL0     C66267  12.358   8.008   0.671  0.0213 -0.1439 -0.2851
  481MOL0     C66268  12.328   8.122   0.581 -0.0969 -0.8409 -0.3401
  481MOL0     C66269  12.434   8.020   0.787 -0.5249  1.3181  0.5872
  481MOL0     C66270  12.491   8.157   0.835 -0.7177  0.4209  0.7066
  481MOL0     O66271  12.588   8.137   0.926 -0.2572 -0.6114 -0.0992
  481MOL0     C66272  12.641   8.222   1.016  0.3044 -0.5255 -0.2094
  481MOL0     C66273  12.633   8.365   1.011 -0.4928  0.0784  1.0615
  481MOL0     C66274  12.721   8.450   1.076  0.5691 -0.4674 -1.0519
  481MOL0     C66275  12.789   8.399   1.185  0.0675 -0.6941 -0.0876
  481MOL0     O66276  12.861   8.488   1.270  0.1112  0.0420  0.6358
  481MOL0     C66277  12.824   8.623   1.276  0.2623  0.5791  1.3204
  481MOL0     C66278  12.904   8.687   1.386  0.6480  0.0914 -0.3690
  481MOL0     C66279  13.060   8.664   1.364 -0.9654  1.4260  0.2419
  481MOL0     C66280  13.127   8.547   1.434 -0.4494  0.2363 -0.6934
  481MOL0     C66281  13.179   8.602   1.563  0.3805  0.3488  0.5095
  481MOL0     C66282  13.233   8.491   1.657 -0.1522 -0.0615 -0.3399
  481MOL0     C66283  13.319   8.544   1.777 -0.8079  0.2051  0.5270
  481MOL0     C66284  13.232   8.567   1.903  0.4812  0.7607 -0.0190
  481MOL0    Cl66285  13.118   8.714   1.888 -0.4646  0.3017  0.4126
  481MOL0     C66286  12.779   8.262   1.214 -0.2131 -0.5349 -0.2794
  481MOL0     C66287  12.713   8.170   1.122  0.4607  0.0633 -0.0396
  481MOL0     O66288  12.441   8.264   0.800  0.3071  0.2601  0.8168
  481MOL0     C66289  12.457   7.901   0.868  0.2154  0.3921  0.4065
  481MOL0     C66290  12.414   7.771   0.830  0.3692 -0.6861 -0.2081
  481MOL0     N66291  11.757   7.552   0.323 -0.4874  0.4814 -0.6888
  481MOL0     N66292  11.631   7.558   0.285 -0.9060 -0.2216 -0.7531
  481MOL0     C66293  10.531   7.865   0.757 -0.2535  0.3984  0.5836
  481MOL0     C66294  10.435   7.922   0.840 -0.3312  1.0609  0.6550
  481MOL0     C66295  10.018   7.865   1.027  0.3050 -0.3617  0.4887
  481MOL0     C66296   9.916   7.892   0.932 -0.0154 -0.0474 -0.9547
  481MOL0     C66297   9.783   7.920   0.966 -0.3888 -0.0494  0.5847
  481MOL0     C66298   9.739   7.920   1.102  0.0231  0.0527 -0.0832
  481MOL0     O66299   9.614   7.953   1.148  0.4122  0.2125  0.3161
  481MOL0     C66300   9.582   8.090   1.124  0.9128 -0.4167 -0.2932
  481MOL0     C66301   9.461   8.119   1.219  0.7081 -0.7934  0.5870
  481MOL0     C66302   9.419   8.268   1.190  1.4749  0.5432 -0.1038
  481MOL0     C66303   9.303   8.321   1.277 -0.3648 -0.0233  0.0111
  481MOL0     C66304   9.183   8.246   1.235  0.3981 -0.0910 -0.0979
  481MOL0     C66305   9.082   8.191   1.192  0.2756 -0.5471  0.2613
  481MOL0     C66306   9.829   7.872   1.198 -0.3389  0.5943  0.9112
  481MOL0     C66307   9.970   7.853   1.161  0.2356  1.5518 -0.3251
  481MOL0     C66308  10.071   7.835   1.272 -0.5560  0.2056  0.1034
  481MOL0     H66309  10.139   7.830   0.699  0.0785  1.9413 -2.8936
  481MOL0     H66310  10.289   7.740   0.535 -2.8129  1.2194  2.0985
  481MOL0     H66311  10.706   7.658   0.666 -0.4218  0.0755 -0.1124
  481MOL0     H66312  10.742   7.824   0.610  2.0861 -0.5478  3.2905
  481MOL0     H66313  10.746   7.582   0.425  3.5098 -0.0796 -1.5939
  481MOL0     H66314  10.743   7.748   0.372 -2.6061 -2.3411 -2.4432
  481MOL0     H66315  10.960   7.779   0.521 -0.4759  0.3678 -0.5077
  481MOL0     H66316  10.978   7.613   0.529 -0.3777 -0.3096  0.4150
  481MOL0     H66317  10.936   7.599   0.265  1.3203 -0.7722 -0.5199
  481MOL0     H66318  10.961   7.758   0.254  0.9245  0.2211 -0.4520
  481MOL0     H66319  11.157   7.614   0.212 -0.0838  1.5999 -0.2118
  481MOL0     H66320  11.147   7.550   0.379 -1.6223 -2.3288 -1.1062
  481MOL0     H66321  11.213   7.834   0.308 -2.5548  0.5519  0.9054
  481MOL0     H66322  11.213   7.762   0.474  1.7558 -1.1021  0.3724
  481MOL0     H66323  11.438   7.759   0.415 -0.8963 -0.0605  1.7981
  481MOL0     H66324  11.418   7.710   0.251  3.5921 -2.0972  1.0680
  481MOL0     H66325  11.369   7.538   0.499  0.6102 -0.0416  1.2823
  481MOL0     H66326  11.387   7.482   0.328 -1.0184 -0.6472  1.5183
  481MOL0     H66327  11.607   7.546   0.620 -0.3620 -1.6425 -0.0757
  481MOL0     H66328  11.870   7.631   0.633  0.7886 -0.5925  0.6591
  481MOL0     H66329  11.951   7.642   0.476  0.1140 -0.4045  0.7635
  481MOL0     H66330  11.917   7.384   0.628 -0.3306 -0.6662  1.0865
  481MOL0     H66331  11.999   7.406   0.467  4.5432  1.5033  0.1264
  481MOL0     H66332  12.087   7.486   0.748 -1.1185  0.8488 -0.2653
  481MOL0     H66333  12.190   7.412   0.623  0.5956  1.0130  0.4372
  481MOL0     H66334  12.160   7.649   0.506 -0.0816  0.6007 -0.0324
  481MOL0     H66335  12.097   7.698   0.660 -1.6862 -1.7190  0.9868
  481MOL0     H66336  12.226   7.886   0.557  0.8046 -2.1477  0.1317
  481MOL0     H66337  12.412   8.190   0.564 -0.7256  1.5715  4.4430
  481MOL0     H66338  12.250   8.181   0.630 -0.1311 -1.9092  0.9266
  481MOL0     H66339  12.294   8.088   0.483  2.2289 -0.2961 -1.4026
  481MOL0     H66340  12.565   8.413   0.941  1.7261  3.9429  1.2838
  481MOL0     H66341  12.721   8.556   1.050  2.0368 -0.7388 -2.2806
  481MOL0     H66342  12.844   8.668   1.178 -2.0265  0.2627  0.6660
  481MOL0     H66343  12.716   8.628   1.291 -0.0708  0.5111 -0.7347
  481MOL0     H66344  12.877   8.793   1.386 -1.9178 -0.4929  0.0439
  481MOL0     H66345  12.888   8.660   1.491  0.4244  0.7610 -0.2217
  481MOL0     H66346  13.117   8.755   1.384  3.5010 -1.3536  1.6124
  481MOL0     H66347  13.085   8.648   1.258  0.6239  5.0834 -0.0533
  481MOL0     H66348  13.209   8.495   1.384  1.2585 -1.8111  3.7075
  481MOL0     H66349  13.048   8.473   1.452 -1.7005  1.5578 -0.4979
  481MOL0     H66350  13.264   8.667   1.538 -0.9556  1.7398 -0.6339
  481MOL0     H66351  13.101   8.665   1.606 -0.2368  1.6836 -2.2889
  481MOL0     H66352  13.300   8.424   1.602 -0.4412  2.2764 -3.8369
  481MOL0     H66353  13.157   8.418   1.688 -0.0457  0.7824  2.1312
  481MOL0     H66354  13.374   8.636   1.754 -0.0451 -0.6994 -1.5125
  481MOL0     H66355  13.397   8.474   1.808 -0.8383  0.7975  2.0468
  481MOL0     H66356  13.302   8.587   1.984  1.5580  0.1644 -0.7699
  481MOL0     H66357  13.172   8.480   1.931 -1.1510  0.9048 -2.6932
  481MOL0     H66358  12.825   8.228   1.306 -0.8023 -0.6066 -0.0084
  481MOL0     H66359  12.716   8.064   1.141  0.3006 -0.3619 -2.0910
  481MOL0     H66360  12.511   7.911   0.961  0.4399 -5.1656  1.1739
  481MOL0     H66361  12.437   7.682   0.888 -2.1581 -1.0640  0.3561
  481MOL0     H66362  10.635   7.887   0.778  0.8340 -3.2132 -0.3284
  481MOL0     H66363  10.469   7.969   0.931  2.9376  0.5900 -0.1730
  481MOL0     H66364   9.947   7.890   0.828 -0.9854 -3.7379 -1.3378
  481MOL0     H66365   9.711   7.956   0.893  1.2483 -1.1159 -1.6664
  481MOL0     H66366   9.673   8.142   1.156  3.8299 -2.7580 -3.9779
  481MOL0     H66367   9.554   8.098   1.019  0.9737  0.7593 -0.2361
  481MOL0     H66368   9.502   8.115   1.320  1.9272  0.2770  0.1564
  481MOL0     H66369   9.371   8.059   1.200  0.4879  0.2657 -2.2701
  481MOL0     H66370   9.512   8.318   1.219  1.3020  1.1522 -0.5863
  481MOL0     H66371   9.400   8.293   1.085 -1.3977 -0.0031  0.2082
  481MOL0     H66372   9.283   8.428   1.269 -0.6386  0.3107  3.7629
  481MOL0     H66373   9.325   8.290   1.379 -1.1475 -0.9058 -0.0718
  481MOL0     H66374   8.994   8.138   1.160  0.5312 -0.2223 -1.0286
  481MOL0     H66375   9.794   7.858   1.299 -3.8044 -1.5940 -0.4129
  481MOL0     H66376  10.112   7.734   1.266 -0.9120  0.1326 -1.8890
  481MOL0     H66377  10.152   7.908   1.269 -0.0696 -0.3582 -2.0811
  481MOL0     H66378  10.029   7.822   1.372  1.3851 -3.6762  0.5968
  482MOL0     O66379   6.281   9.232   0.647  0.5642  0.0011  0.0525
  482MOL0     C66380   6.384   9.190   0.595 -0.1124 -0.5838 -0.0301
  482MOL0     O66381   6.452   9.254   0.503  0.6396 -0.1325 -0.3533
  482MOL0     C66382   6.433   9.381   0.447  0.4292  0.3653  0.7536
  482MOL0     C66383   6.516   9.412   0.339  0.6685 -0.4339 -0.4035
  482MOL0     C66384   6.509   9.540   0.294 -0.1176 -0.2460  0.5145
  482MOL0     C66385   6.418   9.642   0.340 -0.6700  0.0723  0.6363
  482MOL0     O66386   6.406   9.761   0.266 -1.1991 -0.3107  0.2452
  482MOL0     C66387   6.288   9.840   0.278  0.7677 -0.3605  0.4623
  482MOL0     C66388   6.287   9.965   0.187 -0.0191 -0.1089  0.4802
  482MOL0     C66389   6.170  10.065   0.217 -0.1571 -0.2682 -0.3384
  482MOL0     C66390   6.033   9.996   0.201 -0.0634  1.1589 -0.2616
  482MOL0     C66391   5.901  10.082   0.204  0.1242 -0.5935  0.2508
  482MOL0     C66392   5.866  10.163   0.336 -0.0557  0.5571 -0.1387
  482MOL0     C66393   5.832  10.077   0.466 -0.5030  0.3324  0.4013
  482MOL0     C66394   5.811  10.166   0.584 -0.1799 -0.0875  0.1016
  482MOL0     N66395   5.758  10.087   0.702 -0.3187  0.7719 -0.2291
  482MOL0     C66396   5.799  10.097   0.834 -0.4565  0.4436  0.3635
  482MOL0     C66397   5.713  10.019   0.903  0.4597 -0.0023  0.1907
  482MOL0     C66398   5.709  10.011   1.048 -0.1722 -0.6530  0.4676
  482MOL0     C66399   5.801   9.891   1.097 -1.0967 -0.9933  0.9282
  482MOL0     C66400   5.839   9.915   1.243 -0.2378  0.6861 -1.2647
  482MOL0     C66401   5.951  10.014   1.301 -0.3969  0.6853  0.5741
  482MOL0     O66402   5.953  10.148   1.246  0.1100  0.2420  0.6153
  482MOL0     C66403   5.900  10.247   1.318 -0.4706  0.0221  1.6583
  482MOL0     C66404   5.979  10.366   1.313 -0.4551  0.0915  0.0568
  482MOL0     C66405   5.921  10.478   1.349 -0.1878 -0.9846 -0.8788
  482MOL0     C66406   6.002  10.602   1.314 -0.9600 -0.8942 -0.6925
  482MOL0     C66407   5.802  10.488   1.423 -0.1585  0.5290 -0.6096
  482MOL0     C66408   5.750  10.608   1.494  0.0702 -0.5147 -0.2284
  482MOL0     O66409   5.632  10.599   1.555  0.3936 -0.7506  0.7161
  482MOL0     C66410   5.596  10.713   1.638  0.5103  1.1610  0.6615
  482MOL0     C66411   5.509  10.804   1.579  0.1490  0.0012  0.1682
  482MOL0     C66412   5.486  10.918   1.649 -0.4913  0.2726 -0.5630
  482MOL0     C66413   5.536  10.941   1.780  0.5532 -0.2980  0.2964
  482MOL0     O66414   5.494  11.044   1.863  0.0316 -0.4121  0.7099
  482MOL0     C66415   5.399  11.153   1.824 -0.3870 -0.0174 -0.1299
  482MOL0     C66416   5.414  11.261   1.923  0.1705 -0.7638  0.0553
  482MOL0     C66417   5.559  11.329   1.937 -0.4424 -0.5251  0.7432
  482MOL0     C66418   5.576  11.447   1.847  0.3041  0.2298 -0.2904
  482MOL0     C66419   5.493  11.569   1.901  0.2544 -0.2771  0.4360
  482MOL0     C66420   5.545  11.646   2.012 -0.3715 -0.0263 -0.2216
  482MOL0     C66421   5.471  11.779   2.040  0.3993 -0.0582  0.1530
  482MOL0     C66422   5.559  11.884   2.114  0.0998  0.0113  0.1097
  482MOL0    Cl66423   5.597  11.836   2.280 -0.4423 -0.1239 -0.1592
  482MOL0     C66424   5.615  10.844   1.835 -0.5803 -0.6910  0.5796
  482MOL0     C66425   5.649  10.736   1.759  0.1622  0.3447 -0.1565
  482MOL0     O66426   5.825  10.707   1.504  0.4655 -0.3899  0.0948
  482MOL0     C66427   5.726  10.363   1.433 -0.1659  0.3834 -0.0901
  482MOL0     C66428   5.778  10.242   1.384  0.3250 -0.1537 -0.3737
  482MOL0     N66429   5.624   9.963   0.807  0.5363  0.3243 -0.5129
  482MOL0     N66430   5.650  10.007   0.690  0.5146 -0.0211  0.0340
  482MOL0     C66431   6.334   9.600   0.445  0.1302 -0.2126  0.5345
  482MOL0     C66432   6.346   9.473   0.499  1.0333  1.0963  0.1386
  482MOL0     C66433   6.432   9.062   0.650 -0.1159 -0.2122 -0.3509
  482MOL0     C66434   6.336   8.988   0.727 -0.0441  0.0837  1.1217
  482MOL0     C66435   6.359   8.854   0.764 -0.1584  0.6176  0.0469
  482MOL0     C66436   6.490   8.792   0.752  0.2308  0.5286  0.6451
  482MOL0     O66437   6.498   8.661   0.801  0.2283  0.3868  0.2931
  482MOL0     C66438   6.631   8.603   0.785 -0.3035 -0.9356  0.6112
  482MOL0     C66439   6.634   8.465   0.842  0.2554  0.7439 -0.0681
  482MOL0     C66440   6.757   8.389   0.818  0.7632  0.4237  0.1299
  482MOL0     C66441   6.743   8.238   0.839 -0.1352  0.0275 -0.6080
  482MOL0     C66442   6.696   8.203   0.973  0.3770 -0.1005 -0.3226
  482MOL0     C66443   6.654   8.186   1.088 -0.6995  0.1559  1.2654
  482MOL0     C66444   6.584   8.873   0.677 -0.3513  0.2389 -0.9698
  482MOL0     C66445   6.556   8.999   0.630  0.0238 -0.3139  0.4132
  482MOL0     C66446   6.662   9.061   0.523  0.0342  0.6001 -0.5466
  482MOL0     H66447   6.580   9.340   0.289  2.2245  2.0611 -2.2437
  482MOL0     H66448   6.570   9.562   0.207  0.2377 -1.3664  0.4618
  482MOL0     H66449   6.283   9.888   0.376 -0.9971  4.1137 -1.5501
  482MOL0     H66450   6.196   9.787   0.252  1.2112 -1.7379  1.5452
  482MOL0     H66451   6.386  10.010   0.195 -0.6629  2.1090 -2.3515
  482MOL0     H66452   6.279   9.939   0.081 -0.9001  3.7295 -0.5555
  482MOL0     H66453   6.179  10.100   0.320 -0.0624  0.5430 -0.6147
  482MOL0     H66454   6.181  10.148   0.146  0.8494  1.9778  2.2769
  482MOL0     H66455   6.040   9.946   0.104  5.1650  3.4670 -1.4185
  482MOL0     H66456   6.020   9.916   0.274 -1.6038  2.8622  1.4407
  482MOL0     H66457   5.821  10.010   0.184  2.0949 -2.7350 -0.3522
  482MOL0     H66458   5.910  10.157   0.125  0.0187  1.7544  2.3393
  482MOL0     H66459   5.946  10.233   0.360 -1.2145  1.9235 -0.1343
  482MOL0     H66460   5.777  10.219   0.304  0.0625 -0.0693 -1.6496
  482MOL0     H66461   5.909  10.007   0.499 -1.8995 -1.8750 -0.7869
  482MOL0     H66462   5.749  10.007   0.453  1.5091 -2.0312 -0.4292
  482MOL0     H66463   5.908  10.205   0.619  0.1140 -0.8892  0.1943
  482MOL0     H66464   5.738  10.243   0.557  0.9891  0.8181 -0.5997
  482MOL0     H66465   5.879  10.152   0.883  1.7196 -0.9899 -1.3982
  482MOL0     H66466   5.609   9.987   1.087  0.2362  2.5663  4.0822
  482MOL0     H66467   5.741  10.107   1.090  0.6155  0.5010 -2.5232
  482MOL0     H66468   5.745   9.798   1.082 -0.5922 -1.6606  2.8687
  482MOL0     H66469   5.892   9.901   1.037 -1.3882 -0.5848  0.5453
  482MOL0     H66470   5.751   9.942   1.302  0.2594  3.3558 -1.6262
  482MOL0     H66471   5.874   9.816   1.274 -1.8050 -0.2212 -2.2445
  482MOL0     H66472   5.955  10.015   1.410  0.1818 -0.0576  0.5753
  482MOL0     H66473   6.047   9.975   1.264 -0.5330  1.0591 -0.1960
  482MOL0     H66474   6.077  10.367   1.267 -0.6510  0.8590 -0.3563
  482MOL0     H66475   6.097  10.573   1.268 -1.4520 -0.8019 -1.8059
  482MOL0     H66476   6.021  10.669   1.398  1.7019 -1.8072 -0.4738
  482MOL0     H66477   5.960  10.665   1.235 -0.4891 -1.7394 -1.6540
  482MOL0     H66478   5.451  10.795   1.487 -2.2876  0.3639  1.5708
  482MOL0     H66479   5.418  10.991   1.605 -0.8158  1.1024  1.2362
  482MOL0     H66480   5.431  11.199   1.729 -1.1443 -2.5876 -1.7305
  482MOL0     H66481   5.299  11.110   1.815 -0.4490 -0.1049  0.8861
  482MOL0     H66482   5.337  11.338   1.912 -1.6377 -2.7421 -2.1348
  482MOL0     H66483   5.391  11.209   2.017 -2.3183  0.5355  0.2461
  482MOL0     H66484   5.634  11.252   1.918 -1.0852 -0.5492 -2.1721
  482MOL0     H66485   5.560  11.360   2.042 -1.4401  2.1107  0.0513
  482MOL0     H66486   5.567  11.434   1.739  2.0985 -2.2322 -0.2059
  482MOL0     H66487   5.678  11.481   1.865  0.4667 -0.0360 -0.6985
  482MOL0     H66488   5.496  11.645   1.822  0.0855  2.1884  2.6559
  482MOL0     H66489   5.394  11.544   1.941  1.6564 -1.2679  3.6414
  482MOL0     H66490   5.652  11.668   2.002 -0.8351  2.0776 -0.9368
  482MOL0     H66491   5.543  11.587   2.104  1.5524 -0.4522 -0.4164
  482MOL0     H66492   5.377  11.762   2.093 -0.2584  1.1284 -0.5662
  482MOL0     H66493   5.437  11.819   1.944  0.2398  2.5634  1.2011
  482MOL0     H66494   5.486  11.965   2.125  0.9229  0.7913 -0.0500
  482MOL0     H66495   5.635  11.922   2.045  0.4996 -2.2677 -0.7939
  482MOL0     H66496   5.654  10.855   1.936 -0.5777  0.7134  0.4530
  482MOL0     H66497   5.721  10.661   1.789 -0.1834 -0.8156 -2.0106
  482MOL0     H66498   5.630  10.359   1.484 -0.1186 -0.1604 -0.0459
  482MOL0     H66499   5.739  10.143   1.406  2.6748 -1.1149 -0.2515
  482MOL0     H66500   6.256   9.662   0.488  0.1341  0.2960 -0.1797
  482MOL0     H66501   6.295   9.444   0.591 -2.0151  2.6743 -0.9187
  482MOL0     H66502   6.235   9.028   0.736  2.0103  6.4774  0.8043
  482MOL0     H66503   6.277   8.808   0.816 -1.8714  0.3178 -2.7056
  482MOL0     H66504   6.652   8.603   0.678 -0.5137  1.4759  0.5111
  482MOL0     H66505   6.702   8.670   0.834  2.4929 -1.8033 -1.9550
  482MOL0     H66506   6.550   8.407   0.804 -2.4784  2.4234  2.7856
  482MOL0     H66507   6.623   8.474   0.951 -2.9191 -1.7141 -0.0442
  482MOL0     H66508   6.800   8.409   0.719  0.4322 -4.4974 -1.2920
  482MOL0     H66509   6.829   8.421   0.893  0.3413  1.1499  0.2358
  482MOL0     H66510   6.839   8.188   0.825 -0.3305 -1.1830  1.9128
  482MOL0     H66511   6.683   8.184   0.764 -0.8441 -5.2280  3.2357
  482MOL0     H66512   6.620   8.188   1.190 -0.8395  2.3109  1.2139
  482MOL0     H66513   6.679   8.832   0.645 -0.6878 -1.8417  0.5172
  482MOL0     H66514   6.714   9.149   0.561  1.9695  0.2720 -2.2793
  482MOL0     H66515   6.734   8.982   0.500  0.0145 -0.4353  2.4706
  482MOL0     H66516   6.605   9.089   0.434  2.7273 -0.1560 -2.6388
  483MOL0     O66517   4.014   0.498   1.876  0.2973 -0.5368 -0.3964
  483MOL0     C66518   4.015   0.405   1.961  0.4768  0.5342 -0.7877
  483MOL0     O66519   3.916   0.391   2.055 -0.2470 -0.5842 -0.1876
  483MOL0     C66520   3.820   0.490   2.073  0.0074  0.3162  0.1886
  483MOL0     C66521   3.851   0.623   2.080 -0.3718 -0.2123  0.8936
  483MOL0     C66522   3.751   0.711   2.095  0.2088 -0.6505  0.2748
  483MOL0     C66523   3.622   0.673   2.126  0.3834  0.4067  0.7060
  483MOL0     O66524   3.511   0.759   2.138 -0.4478 -0.6407  0.3855
  483MOL0     C66525   3.540   0.899   2.151 -0.5581  0.8692  0.1200
  483MOL0     C66526   3.409   0.986   2.164  0.5130  0.0450  0.7183
  483MOL0     C66527   3.321   0.992   2.042  0.5436 -0.0925  0.3142
  483MOL0     C66528   3.375   1.057   1.910  1.0491 -1.3267 -0.2232
  483MOL0     C66529   3.359   1.206   1.883  0.6987  0.6457 -0.1574
  483MOL0     C66530   3.475   1.290   1.942  0.1037  0.2443 -0.6874
  483MOL0     C66531   3.511   1.412   1.854 -1.0476  0.1197  0.1235
  483MOL0     C66532   3.602   1.364   1.747 -0.4344  0.4998 -0.6923
  483MOL0     N66533   3.616   1.459   1.648 -0.9868 -0.3355  0.5740
  483MOL0     C66534   3.527   1.502   1.556  0.6759  0.7238  0.7470
  483MOL0     C66535   3.594   1.599   1.479  0.6562  0.4531  0.0630
  483MOL0     C66536   3.530   1.662   1.355 -0.1918 -0.1422 -0.3551
  483MOL0     C66537   3.630   1.744   1.269  1.3677  0.7269  0.1601
  483MOL0     C66538   3.679   1.878   1.329 -0.3803  0.4508  0.0348
  483MOL0     C66539   3.589   2.001   1.319 -0.1311  0.6672  0.0362
  483MOL0     O66540   3.483   1.997   1.418 -0.8941 -0.3938 -0.5018
  483MOL0     C66541   3.390   2.102   1.409  0.1896  0.9878 -0.8926
  483MOL0     C66542   3.395   2.215   1.336  0.4149  0.3465 -0.4788
  483MOL0     C66543   3.307   2.325   1.343  0.5426  0.3477 -0.6597
  483MOL0     C66544   3.332   2.450   1.257 -0.4035 -0.2912 -0.3811
  483MOL0     C66545   3.189   2.306   1.425 -0.1591  1.1068 -0.2657
  483MOL0     C66546   3.093   2.404   1.447  0.7894 -0.4246 -0.3839
  483MOL0     O66547   3.104   2.494   1.549 -0.7121  0.2562  0.4548
  483MOL0     C66548   2.991   2.568   1.587  0.0881 -0.0381 -0.2577
  483MOL0     C66549   2.942   2.675   1.513 -0.8850  0.1204  0.6492
  483MOL0     C66550   2.828   2.744   1.545 -0.3767 -0.2935 -0.1907
  483MOL0     C66551   2.754   2.719   1.659 -0.3356 -0.4365 -0.9181
  483MOL0     O66552   2.642   2.795   1.686 -0.1362  0.6708  0.1006
  483MOL0     C66553   2.540   2.726   1.769 -0.0492 -0.0779 -1.4305
  483MOL0     C66554   2.418   2.820   1.781  0.6893 -0.6168 -0.1643
  483MOL0     C66555   2.308   2.798   1.891 -0.8345  0.9347 -0.6004
  483MOL0     C66556   2.217   2.684   1.866 -0.6389  0.8077  0.9258
  483MOL0     C66557   2.125   2.722   1.752  0.4539 -0.7508  0.4544
  483MOL0     C66558   2.088   2.606   1.659 -0.1157  0.3660  0.1950
  483MOL0     C66559   1.936   2.571   1.660  0.2261  0.0715  0.7606
  483MOL0     C66560   1.893   2.501   1.778  0.3387  0.3507 -0.5326
  483MOL0    Cl66561   1.958   2.342   1.807  0.3094  0.1497  0.0230
  483MOL0     C66562   2.807   2.612   1.742 -0.6336  0.3669  0.2374
  483MOL0     C66563   2.919   2.539   1.705 -0.2596 -0.9410 -0.0876
  483MOL0     O66564   2.990   2.383   1.375  0.0660 -1.2204 -0.1506
  483MOL0     C66565   3.188   2.184   1.505  0.3119 -0.4032 -0.3577
  483MOL0     C66566   3.285   2.085   1.505 -0.4317 -0.3341 -0.0947
  483MOL0     N66567   3.726   1.605   1.520  0.8523  0.3537 -0.1678
  483MOL0     N66568   3.738   1.516   1.618  0.9684  0.3500 -0.1436
  483MOL0     C66569   3.586   0.533   2.125 -0.5720  0.2240 -0.7618
  483MOL0     C66570   3.685   0.440   2.103  1.3588  0.1320  0.4981
  483MOL0     C66571   4.112   0.302   1.979  0.3576  0.8369 -0.6784
  483MOL0     C66572   4.084   0.183   2.052  0.4914  0.4213 -0.6508
  483MOL0     C66573   4.171   0.086   2.097 -0.3345  0.1355  0.1789
  483MOL0     C66574   4.303   0.095   2.051 -1.3172  0.1040  0.5571
  483MOL0     O66575   4.411   0.012   2.077  0.2303 -0.3449 -0.5671
  483MOL0     C66576   4.388  -0.106   2.155 -0.0001  0.2770  0.7867
  483MOL0     C66577   4.373  -0.076   2.299  0.7205 -0.4604 -0.3717
  483MOL0     C66578   4.483   0.013   2.364  0.9001  0.1228 -0.2922
  483MOL0     C66579   4.612  -0.064   2.381 -0.7277 -0.0765 -0.5163
  483MOL0     C66580   4.607  -0.167   2.490  0.8027  0.0494 -1.0545
  483MOL0     C66581   4.604  -0.267   2.562 -0.3894  0.9003  0.9711
  483MOL0     C66582   4.340   0.195   1.970  0.8866  0.0913 -0.8148
  483MOL0     C66583   4.248   0.309   1.938  0.6305 -0.3597  0.0276
  483MOL0     C66584   4.302   0.428   1.851  0.5204  0.2124 -0.6211
  483MOL0     H66585   3.951   0.664   2.070 -0.6781  1.2682  3.0011
  483MOL0     H66586   3.787   0.814   2.103  1.3920 -1.0245 -0.0174
  483MOL0     H66587   3.596   0.929   2.061  2.0795  2.4857  2.1506
  483MOL0     H66588   3.608   0.912   2.235  1.8046 -0.5027 -1.4766
  483MOL0     H66589   3.350   0.957   2.251  1.6894 -0.1609  1.4695
  483MOL0     H66590   3.426   1.093   2.184  0.2079  0.2963 -0.3109
  483MOL0     H66591   3.297   0.887   2.025  0.7610 -0.4435  1.9445
  483MOL0     H66592   3.230   1.048   2.066  0.2265  0.9656 -2.8827
  483MOL0     H66593   3.481   1.029   1.900  2.1518  0.5568  3.9485
  483MOL0     H66594   3.311   1.011   1.835  1.1331 -1.0078 -0.4947
  483MOL0     H66595   3.261   1.247   1.909  0.3897  1.1175 -1.8825
  483MOL0     H66596   3.369   1.215   1.774  1.7617  0.7947 -0.0583
  483MOL0     H66597   3.444   1.325   2.041  1.9116 -0.3904  0.1605
  483MOL0     H66598   3.569   1.235   1.957  0.3855 -0.0362 -3.0495
  483MOL0     H66599   3.553   1.496   1.911 -1.2355  0.7431 -0.6386
  483MOL0     H66600   3.411   1.443   1.824 -1.9653 -1.5758  1.2661
  483MOL0     H66601   3.702   1.367   1.792 -0.9513  4.6347  0.5899
  483MOL0     H66602   3.593   1.262   1.708  3.7534 -0.4689  0.2987
  483MOL0     H66603   3.429   1.475   1.520  0.4330  0.8524  1.3051
  483MOL0     H66604   3.452   1.736   1.378 -0.7030 -0.7466 -0.1279
  483MOL0     H66605   3.491   1.582   1.291  0.0239  1.7228 -2.9873
  483MOL0     H66606   3.711   1.678   1.237 -0.8174 -1.5674 -1.0189
  483MOL0     H66607   3.574   1.758   1.175  0.8565 -1.6458  0.0566
  483MOL0     H66608   3.708   1.854   1.431  1.4537 -1.9638 -0.9576
  483MOL0     H66609   3.760   1.905   1.260 -0.5787  1.2043  0.0871
  483MOL0     H66610   3.647   2.092   1.335  3.0083 -1.3529  1.0738
  483MOL0     H66611   3.558   1.993   1.215  0.2649 -0.6880  0.0065
  483MOL0     H66612   3.480   2.220   1.269  2.3831 -1.2514  1.7769
  483MOL0     H66613   3.413   2.509   1.302 -1.2934  1.2424 -0.7222
  483MOL0     H66614   3.241   2.510   1.246 -0.9825 -1.0912 -0.0691
  483MOL0     H66615   3.385   2.415   1.168  1.9878 -1.3159  1.3393
  483MOL0     H66616   2.986   2.694   1.416 -2.3521 -1.4623 -0.3855
  483MOL0     H66617   2.800   2.811   1.465 -1.8668  1.1262  1.4178
  483MOL0     H66618   2.507   2.635   1.717 -2.3320  1.3284 -2.6291
  483MOL0     H66619   2.574   2.698   1.869 -2.4058  0.5568 -0.3792
  483MOL0     H66620   2.458   2.916   1.815 -3.3451  1.5574 -1.0039
  483MOL0     H66621   2.375   2.827   1.681  3.0349 -1.9400 -1.3393
  483MOL0     H66622   2.254   2.893   1.886  0.7689  1.8227 -2.8123
  483MOL0     H66623   2.355   2.783   1.989 -1.9491  2.5264  0.2279
  483MOL0     H66624   2.154   2.661   1.952 -0.5314 -0.0136  0.7935
  483MOL0     H66625   2.271   2.591   1.850 -5.5835 -2.0464 -1.4860
  483MOL0     H66626   2.042   2.764   1.809 -0.1021  0.6116 -1.2571
  483MOL0     H66627   2.156   2.811   1.697 -0.7700  0.6958  2.0300
  483MOL0     H66628   2.146   2.516   1.680  1.6366  0.9935 -1.5979
  483MOL0     H66629   2.119   2.629   1.556  6.0666 -2.6887  0.8636
  483MOL0     H66630   1.911   2.506   1.576  1.3419 -0.0751  0.5304
  483MOL0     H66631   1.884   2.667   1.652 -0.6521 -0.1324  3.0539
  483MOL0     H66632   1.784   2.496   1.769  0.2057  2.9867 -1.3475
  483MOL0     H66633   1.918   2.560   1.867  2.3514 -0.8035 -0.2808
  483MOL0     H66634   2.751   2.592   1.832 -0.5333  1.3773  0.5389
  483MOL0     H66635   2.958   2.464   1.773  1.1149  0.8415  1.1615
  483MOL0     H66636   3.100   2.180   1.568 -0.2215  0.6205 -1.0129
  483MOL0     H66637   3.283   1.993   1.563  1.3908  0.2783  1.0034
  483MOL0     H66638   3.487   0.498   2.152 -1.6698  1.9298 -2.3100
  483MOL0     H66639   3.655   0.336   2.100 -0.4304  0.6275 -1.4327
  483MOL0     H66640   3.984   0.159   2.087  0.9326  0.0040  0.3580
  483MOL0     H66641   4.131   0.005   2.156 -0.1387  0.8944  1.3967
  483MOL0     H66642   4.302  -0.166   2.122  2.8330 -4.6992  1.4052
  483MOL0     H66643   4.468  -0.179   2.143  0.0311  0.8265 -4.2856
  483MOL0     H66644   4.352  -0.167   2.356 -1.3388 -1.1209 -2.0558
  483MOL0     H66645   4.285  -0.014   2.318  1.7863  1.1431 -0.4232
  483MOL0     H66646   4.503   0.098   2.297 -0.8399  1.4127  0.7358
  483MOL0     H66647   4.448   0.041   2.464  0.0729  1.7889 -1.0070
  483MOL0     H66648   4.698   0.000   2.400 -0.2394 -0.3323 -1.7486
  483MOL0     H66649   4.624  -0.120   2.287  2.0406 -2.9741  1.3415
  483MOL0     H66650   4.593  -0.354   2.623 -2.6480  0.3751 -0.0461
  483MOL0     H66651   4.446   0.209   1.949  2.0487  2.1228  4.7203
  483MOL0     H66652   4.297   0.518   1.913 -0.8732 -0.4582  0.2875
  483MOL0     H66653   4.406   0.421   1.819  0.4113  0.2032 -0.9835
  483MOL0     H66654   4.236   0.435   1.764 -4.5258  1.2072  2.8644
  484MOL0     O66655   8.980   2.867   6.518 -0.0860 -0.0141  0.3887
  484MOL0     C66656   9.015   2.963   6.448  0.0681 -0.4314 -0.4342
  484MOL0     O66657   9.115   2.956   6.354  0.3141  0.1364  0.6276
  484MOL0     C66658   9.153   2.832   6.305 -0.2369  0.2745  0.0376
  484MOL0     C66659   9.065   2.742   6.243 -0.4568  0.0708 -0.3738
  484MOL0     C66660   9.120   2.622   6.200  0.3946  0.6852  0.4808
  484MOL0     C66661   9.246   2.583   6.235 -0.1988 -0.2558  0.2274
  484MOL0     O66662   9.291   2.459   6.190 -0.8192 -0.2362  0.1167
  484MOL0     C66663   9.376   2.390   6.278  0.4217 -0.5166 -0.0498
  484MOL0     C66664   9.341   2.239   6.262  0.0215 -0.8026  0.0873
  484MOL0     C66665   9.382   2.183   6.122  0.2728 -0.3513  0.2770
  484MOL0     C66666   9.525   2.131   6.120 -0.0415 -0.7144 -1.2876
  484MOL0     C66667   9.568   2.084   5.981 -0.0721 -1.1620  0.4162
  484MOL0     C66668   9.695   1.996   5.972  0.2484  0.4062  0.2303
  484MOL0     C66669   9.713   1.951   5.822 -0.1493 -0.4760 -0.5991
  484MOL0     C66670   9.771   2.061   5.732 -0.8265 -0.2926  0.1334
  484MOL0     N66671   9.915   2.037   5.704 -0.3333  0.6902  0.4330
  484MOL0     C66672  10.017   2.057   5.788  0.2558  0.2792 -0.0766
  484MOL0     C66673  10.125   2.021   5.720 -0.1108  0.5231 -0.3844
  484MOL0     C66674  10.262   2.040   5.774 -0.9360 -0.5049 -0.1471
  484MOL0     C66675  10.365   2.094   5.688 -0.0366 -0.3819 -0.2331
  484MOL0     C66676  10.505   2.103   5.758  0.3315  0.9345 -0.2094
  484MOL0     C66677  10.600   2.185   5.666 -0.3434 -0.2045  0.3617
  484MOL0     O66678  10.698   2.252   5.745 -0.3942  0.1229  0.1531
  484MOL0     C66679  10.836   2.229   5.711 -0.1838 -0.4723  0.1082
  484MOL0     C66680  10.888   2.186   5.588  0.4097  0.5448  0.0704
  484MOL0     C66681  11.028   2.159   5.571 -0.8825 -0.1829 -0.5876
  484MOL0     C66682  11.065   2.123   5.429  0.8772 -0.9208  0.1780
  484MOL0     C66683  11.116   2.185   5.677  0.1241  0.3907  0.9875
  484MOL0     C66684  11.258   2.171   5.656 -0.0680 -1.1472 -0.0479
  484MOL0     O66685  11.343   2.138   5.767 -0.1808 -0.1208 -0.0217
  484MOL0     C66686  11.475   2.161   5.761 -0.0716 -0.7268 -0.4804
  484MOL0     C66687  11.538   2.253   5.849  0.7398 -0.9480  0.2911
  484MOL0     C66688  11.687   2.246   5.860  0.8509 -0.7930  0.0813
  484MOL0     C66689  11.764   2.156   5.793  0.8849 -0.8025  0.0544
  484MOL0     O66690  11.900   2.155   5.817  0.1940 -0.2071 -0.4687
  484MOL0     C66691  11.932   2.079   5.936  0.2561 -0.0947 -0.0015
  484MOL0     C66692  12.063   2.003   5.937  0.0350 -0.7753  0.7738
  484MOL0     C66693  12.118   1.953   5.797  0.3383 -0.2129  0.3045
  484MOL0     C66694  12.087   1.795   5.777  0.6878  0.5808 -0.5348
  484MOL0     C66695  12.147   1.750   5.643 -0.1334 -0.1658 -0.2301
  484MOL0     C66696  12.106   1.609   5.602  0.1966  0.2609  0.0164
  484MOL0     C66697  12.194   1.572   5.481 -0.4912 -0.7370 -0.1704
  484MOL0     C66698  12.157   1.443   5.414 -0.0500  0.2651  0.0312
  484MOL0    Cl66699  12.211   1.296   5.511 -0.0267  0.1440 -0.0876
  484MOL0     C66700  11.696   2.068   5.703 -0.3296 -1.3725  0.5674
  484MOL0     C66701  11.553   2.068   5.688  0.9374 -0.6734 -0.4247
  484MOL0     O66702  11.300   2.191   5.543 -0.2492 -0.7443  0.3887
  484MOL0     C66703  11.070   2.226   5.793 -0.3792  0.0579 -0.0403
  484MOL0     C66704  10.930   2.251   5.814 -0.7598 -0.1697  0.0597
  484MOL0     N66705  10.096   1.974   5.590 -0.3236  0.1903  0.1710
  484MOL0     N66706   9.966   1.974   5.588  0.9346 -0.2756  0.1200
  484MOL0     C66707   9.321   2.669   6.320 -0.1692 -0.0171 -1.4131
  484MOL0     C66708   9.273   2.790   6.350 -0.5786 -0.4529 -1.1280
  484MOL0     C66709   8.941   3.105   6.472  0.2565  1.3281 -0.6382
  484MOL0     C66710   9.001   3.223   6.414  0.1421  0.6778  0.4776
  484MOL0     C66711   8.957   3.358   6.438 -0.7222  0.4674  0.7273
  484MOL0     C66712   8.841   3.381   6.499  0.5194 -0.3334 -0.1203
  484MOL0     O66713   8.793   3.506   6.531 -0.1887  0.0811 -0.3752
  484MOL0     C66714   8.764   3.592   6.432  0.2729 -0.4811 -0.5577
  484MOL0     C66715   8.645   3.688   6.475 -0.0004 -0.7599  0.9192
  484MOL0     C66716   8.516   3.614   6.517 -0.2320  0.2233 -0.6318
  484MOL0     C66717   8.392   3.703   6.542  0.3994  0.1693 -0.4477
  484MOL0     C66718   8.276   3.613   6.556 -0.0787  0.4087 -0.3564
  484MOL0     C66719   8.181   3.541   6.555 -0.3405  0.8315 -0.1761
  484MOL0     C66720   8.788   3.271   6.569 -0.4971 -0.1711 -0.9271
  484MOL0     C66721   8.836   3.132   6.560 -0.3482  0.3445  0.2298
  484MOL0     C66722   8.741   3.022   6.617 -0.6924 -0.0455 -0.8232
  484MOL0     H66723   8.969   2.781   6.209 -1.1693 -0.1473  1.2742
  484MOL0     H66724   9.069   2.556   6.131  2.6420 -1.4943  0.7447
  484MOL0     H66725   9.350   2.420   6.380 -1.8942 -2.6465  0.0826
  484MOL0     H66726   9.478   2.424   6.256  1.2450 -2.4761  0.5470
  484MOL0     H66727   9.404   2.191   6.338  1.8695  2.8171  1.0756
  484MOL0     H66728   9.233   2.245   6.274 -0.0183  0.1027 -0.6076
  484MOL0     H66729   9.330   2.089   6.102 -2.3515  1.1119 -0.1832
  484MOL0     H66730   9.359   2.262   6.050  1.2792 -0.1389  0.1655
  484MOL0     H66731   9.595   2.208   6.155  2.3248 -3.3681  0.2182
  484MOL0     H66732   9.535   2.039   6.178  2.1398 -0.9303 -1.8940
  484MOL0     H66733   9.583   2.166   5.911  1.6763 -2.9749 -1.4908
  484MOL0     H66734   9.492   2.013   5.947 -1.9544  1.0289 -0.2186
  484MOL0     H66735   9.775   2.057   6.015 -0.6927  2.8035 -1.2212
  484MOL0     H66736   9.678   1.900   6.022  3.2240 -0.1323  0.3833
  484MOL0     H66737   9.612   1.927   5.787 -0.6775 -1.4016  1.4081
  484MOL0     H66738   9.760   1.852   5.818  0.8279 -0.1610  1.4943
  484MOL0     H66739   9.732   2.038   5.633  2.4524 -1.2046 -1.0700
  484MOL0     H66740   9.722   2.157   5.754 -2.5733 -0.6780 -1.7274
  484MOL0     H66741  10.004   2.104   5.885  0.2226 -2.2962  1.2629
  484MOL0     H66742  10.299   1.947   5.817  2.2831 -0.3226 -2.1991
  484MOL0     H66743  10.256   2.105   5.862  1.3797 -2.4796  1.6134
  484MOL0     H66744  10.380   2.030   5.600 -2.9042 -0.2352 -0.9224
  484MOL0     H66745  10.339   2.195   5.653  1.6069 -0.7172 -2.6820
  484MOL0     H66746  10.488   2.140   5.859 -1.9784 -0.3908 -0.0364
  484MOL0     H66747  10.547   2.003   5.773 -1.6830  0.2861  1.5281
  484MOL0     H66748  10.647   2.115   5.596  1.4664 -2.0896  3.2787
  484MOL0     H66749  10.542   2.259   5.610  1.1817 -0.9136 -2.3216
  484MOL0     H66750  10.816   2.186   5.507 -2.7005  0.3959  2.6248
  484MOL0     H66751  11.065   2.210   5.363 -0.5654 -1.2810 -0.3314
  484MOL0     H66752  10.988   2.064   5.378 -1.6660  2.8250 -0.7263
  484MOL0     H66753  11.155   2.067   5.403  0.3812 -0.4311 -3.0094
  484MOL0     H66754  11.484   2.316   5.919  0.5819 -3.7118  2.8374
  484MOL0     H66755  11.737   2.295   5.942 -2.4455  1.0860  1.1606
  484MOL0     H66756  11.922   2.146   6.023 -0.2892 -1.1416  0.7639
  484MOL0     H66757  11.852   2.006   5.953  1.3926 -2.0468 -2.4566
  484MOL0     H66758  12.139   2.074   5.970  0.7914 -1.9445  1.5864
  484MOL0     H66759  12.052   1.917   6.003  0.3034  0.0721  1.9548
  484MOL0     H66760  12.225   1.977   5.800  0.2165  0.2215  1.5719
  484MOL0     H66761  12.072   2.011   5.716  0.6320  0.7913  0.8351
  484MOL0     H66762  11.979   1.781   5.766  0.4459  2.0606 -0.2467
  484MOL0     H66763  12.144   1.739   5.852  0.0867 -3.5940 -2.8659
  484MOL0     H66764  12.121   1.818   5.562 -1.7502 -3.4177 -2.7116
  484MOL0     H66765  12.255   1.761   5.657 -0.1172  3.3164 -2.0166
  484MOL0     H66766  12.001   1.608   5.570  0.5811  0.3285 -1.3160
  484MOL0     H66767  12.113   1.528   5.676 -1.9725 -1.7606 -1.8275
  484MOL0     H66768  12.299   1.578   5.512  0.1661 -2.1287 -1.9295
  484MOL0     H66769  12.178   1.651   5.406 -0.5109 -1.0615 -0.5081
  484MOL0     H66770  12.193   1.445   5.311  0.2040  3.0703  0.0939
  484MOL0     H66771  12.049   1.430   5.401  0.0552  0.4636 -1.1763
  484MOL0     H66772  11.755   1.993   5.651  3.0330  1.6034 -0.2786
  484MOL0     H66773  11.505   1.990   5.630 -0.6744 -1.9158  2.3508
  484MOL0     H66774  11.144   2.238   5.871 -0.3853  0.3197 -0.0767
  484MOL0     H66775  10.897   2.281   5.913  0.8643 -1.4701  1.0401
  484MOL0     H66776   9.417   2.634   6.358  0.9086  2.8716 -1.1842
  484MOL0     H66777   9.332   2.840   6.426  1.0879 -5.1781  1.0317
  484MOL0     H66778   9.095   3.219   6.359  0.6823  4.4908  0.8054
  484MOL0     H66779   9.017   3.442   6.403 -0.2844 -0.1999 -0.1751
  484MOL0     H66780   8.857   3.648   6.416  0.2175 -0.4154 -0.6578
  484MOL0     H66781   8.745   3.528   6.345  3.1096 -2.4282  0.1243
  484MOL0     H66782   8.620   3.759   6.396  1.8578  0.3934  1.3165
  484MOL0     H66783   8.686   3.759   6.547  1.3310  0.9774 -1.3959
  484MOL0     H66784   8.499   3.542   6.437  0.3790 -0.0162 -0.5506
  484MOL0     H66785   8.532   3.552   6.606 -0.4574  0.1103 -0.6692
  484MOL0     H66786   8.377   3.766   6.454  2.2768 -3.0950 -3.3901
  484MOL0     H66787   8.410   3.757   6.635  0.1015  0.3110 -0.4703
  484MOL0     H66788   8.115   3.457   6.560  0.8064  0.0068  2.4180
  484MOL0     H66789   8.701   3.305   6.626 -0.3036  2.3450 -1.9921
  484MOL0     H66790   8.762   3.001   6.722 -0.6201  0.5758 -0.7046
  484MOL0     H66791   8.634   3.044   6.618 -1.1912 -2.1615  1.0401
  484MOL0     H66792   8.752   2.932   6.556  2.2171  0.5665 -1.3549
  485MOL0     O66793   7.463   0.752   9.587 -0.1160  0.1112 -0.2311
  485MOL0     C66794   7.394   0.654   9.560  0.4947 -0.4422  0.2418
  485MOL0     O66795   7.412   0.562   9.464 -0.2182 -0.3373 -0.3404
  485MOL0     C66796   7.538   0.547   9.414  0.3764 -0.5320 -0.1318
  485MOL0     C66797   7.579   0.415   9.403  0.3322  0.0406 -0.2458
  485MOL0     C66798   7.715   0.374   9.349 -0.0676 -0.1026 -0.8073
  485MOL0     C66799   7.798   0.473   9.302  0.1973  1.1315 -0.6084
  485MOL0     O66800   7.913   0.421   9.252 -0.9499 -0.2185 -0.7283
  485MOL0     C66801   7.991   0.512   9.178  0.8520 -0.0039  0.2931
  485MOL0     C66802   8.118   0.452   9.118 -0.3367 -0.1941  0.2695
  485MOL0     C66803   8.102   0.323   9.028  0.2268  0.7004  1.3944
  485MOL0     C66804   8.237   0.270   8.974 -0.4702  0.2289  0.4413
  485MOL0     C66805   8.205   0.136   8.901 -0.3134 -0.6588 -0.3998
  485MOL0     C66806   8.329   0.102   8.811 -0.2069  0.3394  0.5618
  485MOL0     C66807   8.295  -0.012   8.724  0.2484 -0.0564 -0.7543
  485MOL0     C66808   8.394  -0.032   8.613  0.7296 -0.9440  0.0386
  485MOL0     N66809   8.533  -0.007   8.647 -0.6736  0.8210  0.0088
  485MOL0     C66810   8.615   0.089   8.590 -0.3066  0.0186 -0.0202
  485MOL0     C66811   8.720   0.103   8.673  0.0868  0.3949  0.4524
  485MOL0     C66812   8.825   0.194   8.642  0.7172 -0.9221 -0.2884
  485MOL0     C66813   8.951   0.104   8.655 -0.7621  0.5635  0.7094
  485MOL0     C66814   8.962  -0.007   8.555 -0.0873 -0.1239  0.2838
  485MOL0     C66815   9.100  -0.049   8.529 -0.0524  0.2551  0.5151
  485MOL0     O66816   9.104  -0.147   8.428  0.2827 -1.0276 -0.2569
  485MOL0     C66817   9.234  -0.183   8.387  0.3528  0.7963  0.1022
  485MOL0     C66818   9.249  -0.246   8.264  0.7454  0.1883  0.5019
  485MOL0     C66819   9.373  -0.285   8.206 -0.2901 -0.2596  0.9167
  485MOL0     C66820   9.362  -0.362   8.076 -0.0262 -0.2827  0.1387
  485MOL0     C66821   9.489  -0.269   8.276  0.7042  0.2221 -0.4467
  485MOL0     C66822   9.616  -0.324   8.235  1.1878 -0.2878 -0.2265
  485MOL0     O66823   9.686  -0.405   8.334  0.1494 -0.5226  0.1348
  485MOL0     C66824   9.814  -0.434   8.296 -0.2572 -0.7093 -0.1902
  485MOL0     C66825   9.919  -0.356   8.326 -0.5266  0.4703 -0.4107
  485MOL0     C66826  10.048  -0.395   8.293 -0.1174 -0.5700 -0.7392
  485MOL0     C66827  10.070  -0.527   8.242  0.3114  0.2923 -0.2854
  485MOL0     O66828  10.187  -0.592   8.208 -0.6206  0.5101 -0.2495
  485MOL0     C66829  10.294  -0.515   8.170  1.0529  0.2447  0.5216
  485MOL0     C66830  10.412  -0.595   8.110  0.1863  0.7185  0.4431
  485MOL0     C66831  10.384  -0.643   7.971  0.3171 -0.5612  0.4168
  485MOL0     C66832  10.417  -0.542   7.862 -0.0747  0.2086 -0.5362
  485MOL0     C66833  10.318  -0.544   7.743 -1.0043  0.0855 -1.3675
  485MOL0     C66834  10.320  -0.646   7.632  0.7527 -0.0788  0.4528
  485MOL0     C66835  10.197  -0.636   7.528  0.9377 -0.7457 -0.2765
  485MOL0     C66836  10.124  -0.768   7.473  0.5893 -0.8187 -0.0367
  485MOL0    Cl66837  10.043  -0.864   7.598  0.0348  0.0857  0.3630
  485MOL0     C66838   9.958  -0.614   8.220  0.2032 -0.9259 -1.5358
  485MOL0     C66839   9.832  -0.567   8.255  0.2915  0.7095  0.5741
  485MOL0     O66840   9.663  -0.279   8.130  0.2250  0.6861 -1.0549
  485MOL0     C66841   9.478  -0.207   8.398 -0.7872 -0.7281 -0.4995
  485MOL0     C66842   9.353  -0.151   8.451  0.8281 -0.7229 -0.2100
  485MOL0     N66843   8.703   0.016   8.783  0.3334  0.3110  0.0986
  485MOL0     N66844   8.598  -0.054   8.758  1.2281  0.8580 -0.1606
  485MOL0     C66845   7.756   0.611   9.303  0.8420  0.3860  0.0113
  485MOL0     C66846   7.620   0.644   9.363 -0.2929 -0.1314 -0.0683
  485MOL0     C66847   7.257   0.646   9.627  0.0051 -0.0389 -0.1557
  485MOL0     C66848   7.173   0.537   9.599  0.3416 -0.2978 -0.4676
  485MOL0     C66849   7.042   0.517   9.653  0.7356 -0.3004  0.0158
  485MOL0     C66850   7.001   0.615   9.754 -0.0543 -0.1140 -0.1300
  485MOL0     O66851   6.878   0.593   9.803  0.2170 -0.2849 -0.7439
  485MOL0     C66852   6.840   0.628   9.934  1.3422  0.3839 -0.3493
  485MOL0     C66853   6.907   0.532  10.039 -0.3542 -0.1577 -0.6127
  485MOL0     C66854   6.884   0.392  10.001  0.3909  0.1629  0.3132
  485MOL0     C66855   6.744   0.339   9.992  0.1570 -0.0137  1.1718
  485MOL0     C66856   6.680   0.324  10.122 -0.4072  0.8758  0.7834
  485MOL0     C66857   6.636   0.316  10.242  0.4750 -0.3025 -0.0648
  485MOL0     C66858   7.079   0.727   9.779  0.2526  0.3100  0.7568
  485MOL0     C66859   7.199   0.745   9.713  1.1863 -0.5217  0.5089
  485MOL0     C66860   7.268   0.873   9.735 -0.3347 -0.4939 -0.2261
  485MOL0     H66861   7.505   0.343   9.436 -2.8219  2.7662 -0.9532
  485MOL0     H66862   7.748   0.270   9.356  0.3390  0.1187  1.3115
  485MOL0     H66863   8.014   0.595   9.246  2.6936  1.7897 -2.3145
  485MOL0     H66864   7.941   0.555   9.091  0.4340  1.4511  1.2119
  485MOL0     H66865   8.147   0.519   9.036  2.7665 -1.1726  0.4264
  485MOL0     H66866   8.191   0.450   9.200 -1.6468 -0.6886  1.4627
  485MOL0     H66867   8.062   0.242   9.089 -2.3513  0.4139 -0.5497
  485MOL0     H66868   8.035   0.351   8.947  1.3517  0.9183  0.5044
  485MOL0     H66869   8.280   0.350   8.912  2.4936 -1.2804  0.3683
  485MOL0     H66870   8.302   0.258   9.061 -1.5419 -0.2601  1.2025
  485MOL0     H66871   8.123   0.153   8.831  0.4711 -1.8203 -1.6360
  485MOL0     H66872   8.186   0.054   8.971  0.4182 -3.3993 -3.2059
  485MOL0     H66873   8.366   0.178   8.742 -1.1699 -0.1990 -0.5753
  485MOL0     H66874   8.419   0.080   8.869  2.7255  0.1362 -3.6696
  485MOL0     H66875   8.199   0.022   8.684  0.9475  1.9241 -0.8941
  485MOL0     H66876   8.296  -0.098   8.792  1.0133  0.1476 -0.4924
  485MOL0     H66877   8.366  -0.124   8.559 -0.6724 -0.4288 -0.1646
  485MOL0     H66878   8.364   0.043   8.539  1.4114 -1.1094 -0.4165
  485MOL0     H66879   8.592   0.124   8.489 -2.4289 -3.3860 -0.8899
  485MOL0     H66880   8.819   0.277   8.713 -2.2108 -2.5733  1.6486
  485MOL0     H66881   8.818   0.240   8.543 -6.2809 -0.4286 -0.0372
  485MOL0     H66882   9.041   0.166   8.657  0.5098 -1.2263  1.2147
  485MOL0     H66883   8.967   0.055   8.752 -3.2847  0.8398  1.3212
  485MOL0     H66884   8.910  -0.099   8.581  1.4300 -2.4294 -3.8974
  485MOL0     H66885   8.921   0.030   8.460 -1.2411 -0.1948  0.7404
  485MOL0     H66886   9.160   0.039   8.504  0.1422 -0.1901 -0.6485
  485MOL0     H66887   9.136  -0.104   8.616 -1.7434 -4.8503 -1.6184
  485MOL0     H66888   9.159  -0.272   8.210 -0.0134 -0.0427  1.8416
  485MOL0     H66889   9.263  -0.342   8.033 -1.5246  0.2619  3.4376
  485MOL0     H66890   9.388  -0.464   8.106  1.9197  0.1605  0.0647
  485MOL0     H66891   9.441  -0.332   8.007  1.4176 -2.3225  0.8283
  485MOL0     H66892   9.911  -0.259   8.372  1.6477  0.9753 -0.9724
  485MOL0     H66893  10.134  -0.330   8.304  0.3359 -1.2266 -0.3665
  485MOL0     H66894  10.262  -0.457   8.083  1.4461  0.3146  0.4229
  485MOL0     H66895  10.338  -0.457   8.252  3.4020 -1.3142  0.4375
  485MOL0     H66896  10.505  -0.538   8.114  0.3195  0.5826 -0.5464
  485MOL0     H66897  10.429  -0.689   8.162  0.8451  0.9642  0.6776
  485MOL0     H66898  10.282  -0.684   7.965  0.0274  0.3314 -1.6602
  485MOL0     H66899  10.445  -0.730   7.946  2.1783  0.7969  0.0201
  485MOL0     H66900  10.518  -0.543   7.819  0.1069 -1.4841 -0.1277
  485MOL0     H66901  10.398  -0.441   7.899  1.5083  0.2902  0.1244
  485MOL0     H66902  10.213  -0.529   7.770 -0.9017 -1.8186  0.3734
  485MOL0     H66903  10.339  -0.455   7.683 -2.3160  2.1153  1.0104
  485MOL0     H66904  10.310  -0.741   7.685 -1.4824  0.4144  1.0301
  485MOL0     H66905  10.418  -0.638   7.584  0.5196  0.0192 -0.0188
  485MOL0     H66906  10.225  -0.576   7.441 -2.6985  3.2844  0.9771
  485MOL0     H66907  10.118  -0.571   7.566 -1.0760 -0.9293 -3.7855
  485MOL0     H66908  10.186  -0.828   7.405 -0.8481  1.2550 -3.4563
  485MOL0     H66909  10.042  -0.743   7.405  1.4453 -1.2065 -1.2416
  485MOL0     H66910   9.981  -0.704   8.164 -1.8973 -0.6973 -2.8739
  485MOL0     H66911   9.751  -0.638   8.240  1.8777 -0.9147 -0.8438
  485MOL0     H66912   9.573  -0.193   8.449 -0.5753 -0.1680 -1.0242
  485MOL0     H66913   9.344  -0.094   8.543 -0.0703  2.2251 -1.9916
  485MOL0     H66914   7.823   0.691   9.274 -1.8498  1.6523 -3.4763
  485MOL0     H66915   7.596   0.749   9.378 -1.7774 -0.4779  0.1220
  485MOL0     H66916   7.210   0.457   9.535 -2.6405 -2.5348  0.3627
  485MOL0     H66917   6.983   0.429   9.631  0.8025  0.2735 -2.7472
  485MOL0     H66918   6.872   0.727   9.969  0.3625  0.5975 -0.0126
  485MOL0     H66919   6.733   0.608   9.945  1.8930 -3.4911 -0.5544
  485MOL0     H66920   6.866   0.552  10.139 -0.4661 -0.0430 -0.6808
  485MOL0     H66921   7.014   0.553  10.038 -0.1132 -1.3296 -0.3744
  485MOL0     H66922   6.920   0.365   9.901 -0.6022 -4.2368  0.9184
  485MOL0     H66923   6.943   0.330  10.070  2.5249  0.9932 -0.6805
  485MOL0     H66924   6.734   0.239   9.947  0.7907  0.4357 -0.0072
  485MOL0     H66925   6.679   0.400   9.928  1.1665 -2.4225 -2.5095
  485MOL0     H66926   6.583   0.309  10.335  2.5009  1.5470  1.3321
  485MOL0     H66927   7.045   0.813   9.837 -1.2147  1.0985 -1.1519
  485MOL0     H66928   7.361   0.860   9.791 -1.3382  1.6203  2.0824
  485MOL0     H66929   7.272   0.942   9.650 -1.4379 -0.9072 -0.6354
  485MOL0     H66930   7.203   0.933   9.800 -0.2488  0.9150 -1.3881
  486MOL0     O66931   2.380   2.070   7.742 -0.1659  0.6299  0.1135
  486MOL0     C66932   2.275   2.009   7.723 -0.3726 -0.3843 -0.3993
  486MOL0     O66933   2.210   1.942   7.822  0.2478 -0.0635 -0.5861
  486MOL0     C66934   2.270   1.939   7.952 -0.8492  0.0131  0.8125
  486MOL0     C66935   2.257   2.045   8.042 -1.0717 -2.1296 -0.0508
  486MOL0     C66936   2.303   2.039   8.175  1.0219  0.0119  0.3959
  486MOL0     C66937   2.355   1.919   8.222 -1.2004 -0.9862 -0.4097
  486MOL0     O66938   2.408   1.915   8.353 -0.0512 -0.6166 -0.4989
  486MOL0     C66939   2.357   1.997   8.463  0.5341 -0.5947 -0.0003
  486MOL0     C66940   2.223   1.953   8.518  0.2922  0.0614 -0.3668
  486MOL0     C66941   2.163   2.061   8.606  0.3655 -1.0179  0.2064
  486MOL0     C66942   2.015   2.028   8.644 -0.0617 -0.3261  0.3256
  486MOL0     C66943   1.958   2.128   8.734 -0.0345 -0.7275  0.1803
  486MOL0     C66944   1.812   2.111   8.762  0.9773  0.2460 -0.8386
  486MOL0     C66945   1.753   2.210   8.860 -0.3574 -0.6480 -0.9630
  486MOL0     C66946   1.607   2.201   8.899  0.1848 -0.4153 -0.0176
  486MOL0     N66947   1.515   2.311   8.838 -1.2813 -0.2842 -0.8647
  486MOL0     C66948   1.540   2.444   8.863 -0.8895 -0.2862 -0.6374
  486MOL0     C66949   1.432   2.505   8.799 -0.1080 -1.0014 -0.0577
  486MOL0     C66950   1.411   2.653   8.780 -0.2809 -0.1041 -0.1246
  486MOL0     C66951   1.395   2.697   8.638 -0.4548 -0.0376 -0.8153
  486MOL0     C66952   1.361   2.852   8.613  0.0299  0.6303  0.2561
  486MOL0     C66953   1.477   2.945   8.613  0.0389 -0.4554  0.3346
  486MOL0     O66954   1.615   2.885   8.626  1.1630  0.0923  0.5280
  486MOL0     C66955   1.688   2.912   8.738 -0.2303 -0.6028 -0.3511
  486MOL0     C66956   1.755   2.803   8.795  0.5068 -0.1903 -0.1154
  486MOL0     C66957   1.835   2.819   8.910 -0.3023 -0.2282  0.7022
  486MOL0     C66958   1.889   2.697   8.970  1.0107  0.7465  0.0281
  486MOL0     C66959   1.866   2.949   8.959  0.7642  0.5018  0.3294
  486MOL0     C66960   1.956   2.993   9.071  0.4719 -0.6701 -0.1786
  486MOL0     O66961   2.024   2.897   9.142 -1.0230 -0.5762  0.3133
  486MOL0     C66962   2.077   2.929   9.257  0.4204 -0.3835 -1.1655
  486MOL0     C66963   2.011   2.951   9.381 -0.5729  0.6729  0.8590
  486MOL0     C66964   2.079   2.982   9.495 -0.9131  0.0206 -0.6335
  486MOL0     C66965   2.220   2.970   9.505  0.1744  0.2416  0.0509
  486MOL0     O66966   2.282   2.968   9.628 -0.0809 -0.5506  0.8908
  486MOL0     C66967   2.408   3.024   9.636 -0.9225  0.5415 -0.0897
  486MOL0     C66968   2.411   3.082   9.777  0.4253 -0.1218  0.1097
  486MOL0     C66969   2.523   3.178   9.814  0.6545  0.5461 -0.1649
  486MOL0     C66970   2.521   3.222   9.963  0.4809 -0.5690  0.0546
  486MOL0     C66971   2.446   3.363   9.990 -0.1805  1.3784  0.7828
  486MOL0     C66972   2.301   3.335   9.996  0.4345  0.5084  0.6221
  486MOL0     C66973   2.222   3.451  10.047  0.2635 -0.3734  0.0457
  486MOL0     C66974   2.212   3.567   9.942  0.1547 -0.1505  0.1898
  486MOL0    Cl66975   2.124   3.541   9.798 -0.0290  0.0626  0.1283
  486MOL0     C66976   2.286   2.953   9.384 -0.9861  0.1205 -1.1121
  486MOL0     C66977   2.217   2.946   9.263  0.4761 -0.2255 -0.0287
  486MOL0     O66978   1.937   3.103   9.118 -0.3403 -0.1176  0.6951
  486MOL0     C66979   1.792   3.060   8.894  0.5421  0.0013 -0.7352
  486MOL0     C66980   1.714   3.039   8.784 -0.1205  1.3757 -0.5066
  486MOL0     N66981   1.349   2.413   8.752  0.2030 -0.3267  0.3907
  486MOL0     N66982   1.394   2.297   8.773 -0.0464 -0.0984 -0.5252
  486MOL0     C66983   2.383   1.824   8.125  0.0032  0.0444  0.2419
  486MOL0     C66984   2.331   1.828   7.994  0.3592  0.1660 -0.1627
  486MOL0     C66985   2.202   2.023   7.591  0.1291  0.5336 -0.1111
  486MOL0     C66986   2.060   2.025   7.594  0.4938  0.1807  0.1730
  486MOL0     C66987   1.981   2.032   7.479  0.7564 -0.0275 -0.1478
  486MOL0     C66988   2.036   2.061   7.353 -1.0514 -0.3106 -0.9961
  486MOL0     O66989   1.963   2.124   7.264 -0.7885 -0.3047  0.6911
  486MOL0     C66990   1.934   2.026   7.159 -0.4941  0.8210 -0.1042
  486MOL0     C66991   1.903   2.105   7.026  0.3492  1.4624  0.7250
  486MOL0     C66992   2.021   2.199   6.997 -0.8470  0.0592  0.3458
  486MOL0     C66993   1.998   2.297   6.880 -0.3324  0.1969 -0.8498
  486MOL0     C66994   1.979   2.226   6.752  0.5312 -0.5219  0.1585
  486MOL0     C66995   1.949   2.161   6.654 -0.1042 -0.4158  0.0423
  486MOL0     C66996   2.185   2.069   7.349  0.5778  0.0728 -0.0829
  486MOL0     C66997   2.259   2.050   7.462  0.2534  0.4791 -0.6997
  486MOL0     C66998   2.404   2.073   7.447 -0.1989 -0.7111 -0.5727
  486MOL0     H66999   2.202   2.133   8.012  2.5146  1.4037  2.7566
  486MOL0     H67000   2.282   2.128   8.234  1.2702 -0.2666  0.9111
  486MOL0     H67001   2.341   2.100   8.430 -1.0047 -1.0180 -0.6672
  486MOL0     H67002   2.428   1.991   8.546  1.9546  1.5431 -0.9644
  486MOL0     H67003   2.153   1.940   8.435 -1.4207  2.8829  0.4947
  486MOL0     H67004   2.239   1.862   8.577 -0.7378  1.8189  2.9390
  486MOL0     H67005   2.224   2.072   8.697 -1.2939  3.0631  1.0823
  486MOL0     H67006   2.160   2.159   8.556  0.3106 -1.0655  0.1172
  486MOL0     H67007   1.949   2.030   8.556 -0.6568  1.6544  0.7555
  486MOL0     H67008   1.999   1.933   8.695 -1.6530  0.5494  1.5561
  486MOL0     H67009   1.969   2.235   8.709 -1.4198  0.2758  3.4007
  486MOL0     H67010   2.007   2.118   8.832 -2.6566 -0.2977  1.6161
  486MOL0     H67011   1.754   2.123   8.669  1.7516 -1.0368 -1.5197
  486MOL0     H67012   1.791   2.005   8.778 -0.1939  0.3185 -1.7056
  486MOL0     H67013   1.767   2.307   8.812  0.3947  0.6943  1.7770
  486MOL0     H67014   1.819   2.207   8.947  0.7471  0.9897 -1.6923
  486MOL0     H67015   1.565   2.104   8.872  1.1189 -0.6419 -0.6766
  486MOL0     H67016   1.599   2.204   9.008 -0.9555 -1.3088 -0.0586
  486MOL0     H67017   1.627   2.494   8.905 -0.9212 -0.7846  0.0282
  486MOL0     H67018   1.496   2.709   8.820 -1.4123 -0.9152  3.8909
  486MOL0     H67019   1.327   2.685   8.842  0.4205 -1.2362  1.4921
  486MOL0     H67020   1.469   2.657   8.567 -0.8305 -2.5455  0.0970
  486MOL0     H67021   1.306   2.645   8.601 -0.4666  0.5001 -1.5672
  486MOL0     H67022   1.318   2.861   8.512 -0.0090  0.6839  0.2773
  486MOL0     H67023   1.287   2.888   8.684 -0.4847  4.3063 -1.8742
  486MOL0     H67024   1.489   2.996   8.516  1.3346  1.3421  1.3587
  486MOL0     H67025   1.458   3.025   8.685 -0.6024 -4.0350  4.5176
  486MOL0     H67026   1.744   2.706   8.748 -0.7655  0.1100 -0.4623
  486MOL0     H67027   1.886   2.688   9.079  3.4611 -2.6833 -0.0255
  486MOL0     H67028   1.995   2.682   8.946  0.5033 -0.2634 -1.6922
  486MOL0     H67029   1.832   2.609   8.939  0.6007  1.3939 -1.1148
  486MOL0     H67030   1.904   2.946   9.365 -0.6957  0.0977  1.7592
  486MOL0     H67031   2.025   2.998   9.588 -0.6031 -1.0735 -0.2555
  486MOL0     H67032   2.477   2.940   9.628 -1.9813 -0.7696  2.8312
  486MOL0     H67033   2.425   3.104   9.563 -0.7386 -0.9015 -1.6825
  486MOL0     H67034   2.313   3.126   9.799  0.1001 -1.4353  1.3919
  486MOL0     H67035   2.408   3.002   9.851 -4.0195  1.5600  2.1075
  486MOL0     H67036   2.520   3.266   9.750 -3.6240  1.6479  1.2340
  486MOL0     H67037   2.609   3.110   9.805 -0.1161 -0.7604  1.6777
  486MOL0     H67038   2.622   3.255   9.989  0.7124  0.7069 -2.1934
  486MOL0     H67039   2.500   3.139  10.032 -0.3360  1.5145  2.4669
  486MOL0     H67040   2.479   3.405  10.086  1.6799  0.7691  0.4499
  486MOL0     H67041   2.462   3.444   9.918 -4.5538  2.1405  0.4437
  486MOL0     H67042   2.284   3.244  10.054  0.1809 -0.8592 -1.4967
  486MOL0     H67043   2.275   3.321   9.891  1.0020  1.1477  0.3900
  486MOL0     H67044   2.269   3.493  10.136  0.5591  0.6109 -0.5528
  486MOL0     H67045   2.127   3.407  10.078  0.3192 -0.2464  0.3898
  486MOL0     H67046   2.312   3.601   9.914 -0.8754  1.7153 -1.4781
  486MOL0     H67047   2.163   3.640  10.007  1.8665  1.5456 -0.3671
  486MOL0     H67048   2.394   2.944   9.374 -1.0251  0.0305 -1.4960
  486MOL0     H67049   2.279   2.937   9.175  4.1210  1.1034  2.1726
  486MOL0     H67050   1.800   3.163   8.928 -0.8983 -0.0045 -0.3206
  486MOL0     H67051   1.671   3.119   8.723  0.5841  0.7609 -1.8640
  486MOL0     H67052   2.439   1.736   8.153 -0.7586  0.4404  3.4352
  486MOL0     H67053   2.334   1.738   7.933 -1.8562 -1.8843  2.5276
  486MOL0     H67054   2.006   2.019   7.687  1.3629 -0.0975  0.6689
  486MOL0     H67055   1.873   2.035   7.480  0.6763  0.7470 -2.9082
  486MOL0     H67056   2.013   1.956   7.132 -0.1186  2.2131 -3.1169
  486MOL0     H67057   1.846   1.966   7.183  0.7156 -1.0306 -0.1273
  486MOL0     H67058   1.815   2.169   7.028  2.0444  3.9321  1.3320
  486MOL0     H67059   1.890   2.025   6.952 -0.6448  1.5765  0.7653
  486MOL0     H67060   2.047   2.248   7.091 -0.6757  0.1008  0.2759
  486MOL0     H67061   2.101   2.131   6.970 -0.5728  1.7975 -4.0525
  486MOL0     H67062   2.083   2.366   6.877  1.4932 -1.7722  1.1045
  486MOL0     H67063   1.918   2.368   6.900  2.1978  2.7616  1.0904
  486MOL0     H67064   1.931   2.077   6.590  1.0490  0.4800 -1.5162
  486MOL0     H67065   2.237   2.096   7.258  0.9728  2.1816  0.7260
  486MOL0     H67066   2.442   2.078   7.345  0.8199 -3.3672 -0.3939
  486MOL0     H67067   2.437   2.165   7.496 -3.5211  0.6148 -0.5478
  486MOL0     H67068   2.457   1.987   7.489 -1.3123 -1.5675 -0.8645
  487MOL0     O67069   3.947   4.041   3.670 -0.4943  1.0735 -0.3934
  487MOL0     C67070   4.068   4.066   3.705  0.7356  1.6417  0.6268
  487MOL0     O67071   4.178   4.012   3.637  0.8775 -0.9161  1.2953
  487MOL0     C67072   4.161   3.919   3.537  0.6027 -0.0961  0.9599
  487MOL0     C67073   4.210   3.934   3.404  0.8647 -0.2506  0.7626
  487MOL0     C67074   4.202   3.829   3.305 -0.1460 -0.6898  0.0221
  487MOL0     C67075   4.126   3.715   3.329  0.1189  0.9068  0.1632
  487MOL0     O67076   4.073   3.642   3.228 -0.0806  0.6507  0.2199
  487MOL0     C67077   3.996   3.522   3.249 -0.1800 -0.3752 -0.5603
  487MOL0     C67078   3.966   3.451   3.112  0.0425  0.1357 -0.4640
  487MOL0     C67079   3.828   3.493   3.047 -0.9511  1.0046  0.1890
  487MOL0     C67080   3.779   3.444   2.909 -0.7712  0.5483 -0.8611
  487MOL0     C67081   3.635   3.499   2.884  0.7625  0.0111 -0.3002
  487MOL0     C67082   3.584   3.461   2.749  1.0283  0.9443  0.3749
  487MOL0     C67083   3.437   3.479   2.742 -1.0122  0.4310  0.0248
  487MOL0     C67084   3.360   3.362   2.822 -0.5237  0.3696  0.5355
  487MOL0     N67085   3.238   3.327   2.749  0.3143 -0.0391 -0.1648
  487MOL0     C67086   3.221   3.211   2.672 -0.5663  0.8198  0.1014
  487MOL0     C67087   3.100   3.228   2.618  0.1062 -0.4868 -0.0443
  487MOL0     C67088   3.014   3.122   2.551  0.1473  0.6902 -0.5459
  487MOL0     C67089   3.079   3.018   2.460 -0.5302 -0.4141 -1.0345
  487MOL0     C67090   3.142   3.084   2.337 -0.3920 -0.1414  0.1121
  487MOL0     C67091   3.276   3.018   2.308 -0.6522  0.1215 -0.2622
  487MOL0     O67092   3.320   3.055   2.171 -0.1526 -0.7334  0.3598
  487MOL0     C67093   3.417   2.995   2.104 -0.2766  1.1614 -0.7187
  487MOL0     C67094   3.445   3.020   1.974 -0.0373 -0.1110 -0.4139
  487MOL0     C67095   3.539   2.950   1.888 -0.2108 -0.0497 -0.2686
  487MOL0     C67096   3.555   3.006   1.748 -0.4035 -0.5871  0.2664
  487MOL0     C67097   3.621   2.843   1.948 -0.0351 -0.2282 -0.3009
  487MOL0     C67098   3.736   2.780   1.883  0.0236  0.1161  0.0455
  487MOL0     O67099   3.744   2.781   1.744 -1.0624 -0.0730  0.9736
  487MOL0     C67100   3.868   2.755   1.686  0.6843 -0.6530 -0.7620
  487MOL0     C67101   3.906   2.840   1.577  0.2392  0.6026  0.2271
  487MOL0     C67102   4.028   2.815   1.514 -0.2351  0.2923  0.3985
  487MOL0     C67103   4.114   2.717   1.561 -0.9513  0.3250 -0.0985
  487MOL0     O67104   4.243   2.701   1.502 -0.4040  0.3814  0.7368
  487MOL0     C67105   4.343   2.802   1.525 -0.8663 -0.0529 -0.0380
  487MOL0     C67106   4.471   2.714   1.539  0.2461 -0.8054  0.1849
  487MOL0     C67107   4.591   2.809   1.567 -0.9547 -0.2123 -0.3385
  487MOL0     C67108   4.702   2.721   1.580 -0.0728  0.1785 -0.0144
  487MOL0     C67109   4.836   2.802   1.600  0.9441 -1.1369 -0.2863
  487MOL0     C67110   4.970   2.727   1.600 -0.4166  0.6485  0.1182
  487MOL0     C67111   5.103   2.807   1.595 -0.0022 -0.0914 -0.5044
  487MOL0     C67112   5.222   2.707   1.577  0.1491  0.1162  0.5168
  487MOL0    Cl67113   5.250   2.660   1.407  0.1305 -0.1166 -0.0804
  487MOL0     C67114   4.078   2.634   1.663 -0.3792  0.8674 -0.1632
  487MOL0     C67115   3.948   2.645   1.725 -1.1357 -0.1672 -1.1115
  487MOL0     O67116   3.804   2.720   1.957  0.0645  0.6657 -0.6480
  487MOL0     C67117   3.584   2.812   2.078  0.0518  0.2742  0.4195
  487MOL0     C67118   3.489   2.879   2.158  0.5375 -0.5247 -0.4411
  487MOL0     N67119   3.045   3.351   2.646 -0.6775 -0.0584 -0.3259
  487MOL0     N67120   3.131   3.409   2.725 -0.7836 -0.0493  0.0454
  487MOL0     C67121   4.076   3.701   3.460  0.4467  0.0187  0.0387
  487MOL0     C67122   4.099   3.800   3.562  1.2140  0.4324  0.7956
  487MOL0     C67123   4.100   4.142   3.828 -0.7617 -0.1017 -0.4321
  487MOL0     C67124   4.205   4.234   3.823  0.0421  0.4822 -0.0604
  487MOL0     C67125   4.239   4.302   3.937 -0.1669 -0.2995  0.2386
  487MOL0     C67126   4.164   4.291   4.053  0.6522  0.1652 -0.6291
  487MOL0     O67127   4.171   4.366   4.170 -0.4415 -0.1552  0.9839
  487MOL0     C67128   4.280   4.464   4.182  0.5427  0.5419  1.2380
  487MOL0     C67129   4.269   4.523   4.321 -0.0085 -0.0454  0.3946
  487MOL0     C67130   4.294   4.428   4.435 -0.1625 -0.1890 -0.1448
  487MOL0     C67131   4.296   4.501   4.572  0.2203 -0.3730  0.5001
  487MOL0     C67132   4.421   4.567   4.596 -0.2547 -0.5283 -0.0182
  487MOL0     C67133   4.507   4.639   4.643 -0.6528  0.1814  0.5097
  487MOL0     C67134   4.056   4.194   4.057 -0.0106 -0.7496 -0.0989
  487MOL0     C67135   4.028   4.116   3.946 -0.4332  0.0811 -0.1634
  487MOL0     C67136   3.936   4.004   3.959 -0.0806  1.2091  0.3212
  487MOL0     H67137   4.258   4.027   3.376  1.5077 -0.6876  0.3925
  487MOL0     H67138   4.237   3.839   3.203 -0.0593 -2.3717 -0.1488
  487MOL0     H67139   3.907   3.529   3.313 -0.4927  0.0488 -1.0269
  487MOL0     H67140   4.058   3.458   3.312  0.0642  1.5765  1.3047
  487MOL0     H67141   4.049   3.480   3.047  0.8918 -1.1721 -0.0102
  487MOL0     H67142   3.959   3.345   3.138 -0.7307  0.1191 -0.7281
  487MOL0     H67143   3.749   3.458   3.115 -1.5873 -1.8407 -1.8553
  487MOL0     H67144   3.830   3.603   3.046  2.8754  1.0957 -1.9560
  487MOL0     H67145   3.845   3.472   2.827 -0.3557  0.5637 -0.5304
  487MOL0     H67146   3.777   3.335   2.906  2.3642  0.4262 -2.5167
  487MOL0     H67147   3.660   3.603   2.910  2.5159 -0.8369  1.7241
  487MOL0     H67148   3.565   3.455   2.955 -0.3454  3.3625  0.8967
  487MOL0     H67149   3.633   3.526   2.677  1.1256 -1.0270 -1.4139
  487MOL0     H67150   3.606   3.356   2.728  1.7693  0.9110  1.2274
  487MOL0     H67151   3.413   3.473   2.636  2.2110  2.4288 -0.9817
  487MOL0     H67152   3.414   3.574   2.793  1.9417  0.8839  0.7229
  487MOL0     H67153   3.422   3.275   2.845 -1.0755 -0.5656 -1.3245
  487MOL0     H67154   3.343   3.415   2.916  0.4688  0.3042  0.7662
  487MOL0     H67155   3.289   3.127   2.668 -0.5635  0.5098  3.5754
  487MOL0     H67156   2.926   3.168   2.506 -0.4167 -1.3429 -1.6480
  487MOL0     H67157   2.978   3.065   2.637 -2.8177  1.9097 -0.8718
  487MOL0     H67158   3.141   2.941   2.507 -0.7010 -0.7250 -1.3098
  487MOL0     H67159   3.006   2.942   2.430  0.1997 -1.7782  0.4481
  487MOL0     H67160   3.072   3.046   2.262 -1.2331 -0.0152  0.8332
  487MOL0     H67161   3.143   3.192   2.349 -1.6430 -0.1605  0.5117
  487MOL0     H67162   3.350   3.056   2.380  1.6110 -0.9236 -1.9061
  487MOL0     H67163   3.269   2.910   2.320  1.2882 -0.0505 -0.3330
  487MOL0     H67164   3.415   3.114   1.929 -0.5408 -0.7291 -1.4111
  487MOL0     H67165   3.477   3.078   1.723 -0.4478  0.1045  2.2632
  487MOL0     H67166   3.554   2.936   1.664 -1.5829 -0.0760 -0.1620
  487MOL0     H67167   3.646   3.066   1.748 -0.6519 -0.1810 -0.9110
  487MOL0     H67168   3.831   2.913   1.549 -1.2683 -0.3086  1.7412
  487MOL0     H67169   4.058   2.889   1.440 -1.5849  0.8063  0.3498
  487MOL0     H67170   4.346   2.875   1.444  0.0051  1.1351  1.0128
  487MOL0     H67171   4.335   2.853   1.622 -0.3215 -0.8512  0.4385
  487MOL0     H67172   4.464   2.659   1.633  1.1976  1.4124  1.6543
  487MOL0     H67173   4.482   2.661   1.445  0.0919 -2.9946  1.3422
  487MOL0     H67174   4.580   2.868   1.658 -3.0941 -0.0460 -0.6602
  487MOL0     H67175   4.612   2.887   1.493 -2.7338  1.0343  0.4209
  487MOL0     H67176   4.704   2.651   1.496 -3.9271 -1.3379  0.9444
  487MOL0     H67177   4.689   2.657   1.668  1.6188 -1.1178 -0.6576
  487MOL0     H67178   4.858   2.872   1.518 -0.7987 -0.0390  0.1259
  487MOL0     H67179   4.817   2.861   1.690 -0.6246  1.6195 -2.2485
  487MOL0     H67180   4.962   2.647   1.526 -3.7331 -1.6928  2.6550
  487MOL0     H67181   4.967   2.668   1.693 -0.0805  0.0797 -0.2279
  487MOL0     H67182   5.113   2.863   1.688  0.5341 -0.8514 -0.0837
  487MOL0     H67183   5.110   2.892   1.526  1.0897 -0.0259 -0.3429
  487MOL0     H67184   5.218   2.623   1.648  0.6623 -3.6391 -3.4599
  487MOL0     H67185   5.315   2.759   1.602  1.8066 -1.1848 -2.4677
  487MOL0     H67186   4.142   2.549   1.681  1.3244  2.5053  2.1177
  487MOL0     H67187   3.916   2.569   1.795  2.9633 -2.3840 -1.3248
  487MOL0     H67188   3.654   2.747   2.129  0.7081  1.2887  0.8399
  487MOL0     H67189   3.489   2.839   2.259  1.0421  0.3960 -0.0556
  487MOL0     H67190   4.019   3.616   3.497 -1.5606  0.9214 -0.8431
  487MOL0     H67191   4.050   3.771   3.654  2.1179 -1.2582  0.7932
  487MOL0     H67192   4.267   4.241   3.734 -1.2364  3.1806 -0.8591
  487MOL0     H67193   4.321   4.373   3.930 -2.8805  3.0742  0.3348
  487MOL0     H67194   4.373   4.410   4.163  1.1077  1.5484  1.0359
  487MOL0     H67195   4.267   4.538   4.102 -1.5714  0.4729  1.4708
  487MOL0     H67196   4.171   4.571   4.328 -0.4413 -0.6327 -1.0999
  487MOL0     H67197   4.337   4.608   4.321 -3.3710  2.9016 -1.0743
  487MOL0     H67198   4.203   4.368   4.439 -3.2923  4.1869  0.2992
  487MOL0     H67199   4.379   4.364   4.409  1.0341  0.8380  1.1106
  487MOL0     H67200   4.275   4.424   4.647  0.2571 -2.5154 -1.5587
  487MOL0     H67201   4.223   4.582   4.575  0.4351 -0.0390 -1.6191
  487MOL0     H67202   4.587   4.703   4.673 -0.3062  1.2117 -2.3055
  487MOL0     H67203   4.003   4.182   4.151  0.1702  0.3139  0.1524
  487MOL0     H67204   3.839   4.023   3.914 -0.0410 -1.3642 -0.9686
  487MOL0     H67205   3.968   3.920   3.898 -0.5704  1.9665 -1.0147
  487MOL0     H67206   3.916   3.992   4.066  0.8702  2.1828  0.6329
  488MOL0     O67207   5.495  10.129   4.704 -0.0838  0.1265 -0.2241
  488MOL0     C67208   5.387  10.181   4.727 -0.0836 -0.7452  0.0201
  488MOL0     O67209   5.334  10.284   4.646 -0.5169  0.0819 -0.4212
  488MOL0     C67210   5.383  10.288   4.518  0.9843  0.3308  0.1107
  488MOL0     C67211   5.424  10.188   4.430 -0.4216  0.1306  0.5857
  488MOL0     C67212   5.459  10.215   4.294 -0.6465  0.1203  0.4089
  488MOL0     C67213   5.471  10.354   4.258  0.1926 -0.4976  0.1588
  488MOL0     O67214   5.518  10.395   4.137 -0.2243  0.1083 -0.5539
  488MOL0     C67215   5.498  10.316   4.028 -0.0386 -0.9244  0.8796
  488MOL0     C67216   5.617  10.359   3.922  0.7089  0.4555  0.3790
  488MOL0     C67217   5.598  10.287   3.789 -1.0934  0.8235  0.1040
  488MOL0     C67218   5.698  10.339   3.686 -0.0634 -0.6927  0.7554
  488MOL0     C67219   5.724  10.239   3.583  0.2600  0.0823  0.8631
  488MOL0     C67220   5.799  10.317   3.468  0.1788 -0.4552 -0.1215
  488MOL0     C67221   5.802  10.227   3.343 -1.0034 -0.0290 -0.4043
  488MOL0     C67222   5.670  10.209   3.266  0.3971  0.7232 -0.0905
  488MOL0     N67223   5.692  10.179   3.127 -1.5481  0.0224 -0.0265
  488MOL0     C67224   5.748  10.070   3.067 -0.3762 -0.0423  1.0560
  488MOL0     C67225   5.756  10.087   2.933  0.8302 -0.1817 -0.3821
  488MOL0     C67226   5.809   9.985   2.836  0.0953 -0.4020 -0.4119
  488MOL0     C67227   5.726   9.851   2.856 -0.4474 -0.0168  0.1757
  488MOL0     C67228   5.789   9.752   2.959 -0.6107 -0.1844  0.0894
  488MOL0     C67229   5.742   9.608   2.938  1.3398  0.1073 -0.4338
  488MOL0     O67230   5.755   9.523   3.051 -0.0614 -0.1730 -0.8541
  488MOL0     C67231   5.874   9.478   3.102 -0.7980  0.3659 -0.3951
  488MOL0     C67232   6.003   9.516   3.057  0.6183  0.3333  0.1981
  488MOL0     C67233   6.119   9.454   3.101  0.7942 -0.3216 -0.5751
  488MOL0     C67234   6.241   9.472   3.023 -0.3464 -0.1264 -0.6446
  488MOL0     C67235   6.109   9.370   3.211  0.4086 -0.6200  0.0528
  488MOL0     C67236   6.230   9.314   3.295 -0.2242  0.2950 -0.3264
  488MOL0     O67237   6.347   9.365   3.276  0.4514 -0.2581  0.1362
  488MOL0     C67238   6.446   9.274   3.320  0.5856 -0.2644  0.0293
  488MOL0     C67239   6.524   9.306   3.432 -0.9208  0.2856 -0.2517
  488MOL0     C67240   6.640   9.232   3.459  0.0553 -0.5528 -0.1070
  488MOL0     C67241   6.675   9.115   3.383 -0.1053 -0.7160  0.1798
  488MOL0     O67242   6.796   9.056   3.396 -0.2261 -0.1541 -0.1143
  488MOL0     C67243   6.911   9.130   3.443 -0.5314 -0.0312  0.0222
  488MOL0     C67244   6.994   9.176   3.325 -0.4570 -1.5442  0.3488
  488MOL0     C67245   7.116   9.254   3.362  0.8645  0.7728  0.3772
  488MOL0     C67246   7.213   9.267   3.239 -0.4464  0.1536  0.4502
  488MOL0     C67247   7.356   9.323   3.282  0.3019 -0.1977  0.8262
  488MOL0     C67248   7.440   9.357   3.157 -0.3876 -0.0524  0.2408
  488MOL0     C67249   7.503   9.243   3.095 -0.0323  0.6049 -0.5623
  488MOL0     C67250   7.623   9.278   3.006  0.1132 -0.1470  0.7345
  488MOL0    Cl67251   7.603   9.394   2.869  0.3005 -0.1638 -0.3226
  488MOL0     C67252   6.580   9.076   3.282 -0.3898  0.5930  0.3658
  488MOL0     C67253   6.476   9.158   3.246  0.8907 -0.5780 -0.4432
  488MOL0     O67254   6.205   9.229   3.379  0.8793 -0.0876 -0.1639
  488MOL0     C67255   5.984   9.348   3.274 -0.0584 -0.0851  0.8091
  488MOL0     C67256   5.871   9.396   3.219  0.8225 -0.1596 -0.7999
  488MOL0     N67257   5.695  10.210   2.911  0.2018 -0.0873 -0.2060
  488MOL0     N67258   5.657  10.260   3.021 -0.1346  0.0582 -0.7223
  488MOL0     C67259   5.447  10.453   4.354 -0.0741 -0.1292 -0.7816
  488MOL0     C67260   5.396  10.417   4.479  0.7038 -0.4878  0.0146
  488MOL0     C67261   5.316  10.139   4.845 -0.4876  0.0156 -0.1139
  488MOL0     C67262   5.228  10.034   4.832 -0.1878 -0.8761 -0.1838
  488MOL0     C67263   5.148  10.007   4.940  0.0545  0.1199 -0.2193
  488MOL0     C67264   5.180  10.060   5.065 -0.3154 -0.4604 -0.5039
  488MOL0     O67265   5.107   9.987   5.158  0.8233 -0.3479  1.0788
  488MOL0     C67266   5.149   9.998   5.293 -0.1961  0.3357 -1.0315
  488MOL0     C67267   5.064   9.897   5.370  0.5327 -0.8410  0.4314
  488MOL0     C67268   5.130   9.765   5.398  0.5718  0.5253 -0.2773
  488MOL0     C67269   5.038   9.662   5.464 -0.7112  0.4696 -0.7925
  488MOL0     C67270   5.097   9.531   5.511  0.4349  0.2834 -0.9298
  488MOL0     C67271   5.161   9.437   5.557 -0.1446 -0.3848 -0.6019
  488MOL0     C67272   5.281  10.152   5.088  0.3583 -0.3279 -0.0476
  488MOL0     C67273   5.350  10.195   4.971  0.2671 -0.0805 -1.6898
  488MOL0     C67274   5.443  10.307   4.991 -0.5872 -0.2286 -0.2981
  488MOL0     H67275   5.422  10.082   4.452 -0.6378 -0.2912 -1.3064
  488MOL0     H67276   5.469  10.135   4.221  2.0020  0.1217  0.6872
  488MOL0     H67277   5.407  10.346   3.975  1.3428  0.1124 -1.0288
  488MOL0     H67278   5.482  10.208   4.031 -4.2724 -0.5175 -0.3849
  488MOL0     H67279   5.601  10.467   3.912 -0.1548  0.5412  2.2369
  488MOL0     H67280   5.714  10.333   3.966  1.1257  1.0160 -0.1950
  488MOL0     H67281   5.631  10.184   3.807  4.0382  2.1140 -0.3111
  488MOL0     H67282   5.496  10.283   3.751  0.1064 -1.7508 -3.3725
  488MOL0     H67283   5.648  10.425   3.639  0.2617  0.3930  2.2979
  488MOL0     H67284   5.784  10.375   3.743 -0.9052 -0.8970  2.2349
  488MOL0     H67285   5.637  10.193   3.537  1.0843 -2.2055  1.4521
  488MOL0     H67286   5.796  10.164   3.619  3.9611  0.2411 -4.9118
  488MOL0     H67287   5.730  10.401   3.458 -1.3395 -1.8819 -2.3913
  488MOL0     H67288   5.900  10.343   3.501  0.7608 -2.7420  0.1050
  488MOL0     H67289   5.845  10.130   3.368  2.4367  1.2257 -0.8289
  488MOL0     H67290   5.878  10.267   3.275 -0.9615  0.8535  0.1445
  488MOL0     H67291   5.606  10.132   3.310  1.5359 -1.1027 -1.5211
  488MOL0     H67292   5.625  10.308   3.281  3.0468  1.6442  2.9580
  488MOL0     H67293   5.787   9.985   3.121 -2.1371 -1.5563  0.0647
  488MOL0     H67294   5.910   9.970   2.876 -0.4936  2.1393  2.3709
  488MOL0     H67295   5.814  10.012   2.731  1.3852  2.6383  0.3271
  488MOL0     H67296   5.623   9.866   2.888 -0.0038  0.0331  1.6804
  488MOL0     H67297   5.732   9.794   2.763  1.1298 -2.6038  1.7288
  488MOL0     H67298   5.896   9.763   2.939 -0.9217  1.5344 -0.8216
  488MOL0     H67299   5.773   9.777   3.065  2.2607  1.2002  0.2995
  488MOL0     H67300   5.636   9.619   2.915  1.0153  4.3230  2.0339
  488MOL0     H67301   5.795   9.561   2.855  2.9967 -3.3666  2.3163
  488MOL0     H67302   6.003   9.573   2.966  0.7997  0.4701  0.2829
  488MOL0     H67303   6.293   9.560   3.062 -1.7227 -0.5377  2.4051
  488MOL0     H67304   6.214   9.479   2.917 -4.2732 -0.4432  0.1913
  488MOL0     H67305   6.292   9.375   3.015  2.0718  1.1767 -2.0440
  488MOL0     H67306   6.494   9.396   3.485 -0.4096  0.9278 -1.0301
  488MOL0     H67307   6.691   9.276   3.544  1.1156 -1.1835 -0.3923
  488MOL0     H67308   6.889   9.206   3.519  1.5635  0.3889  0.2615
  488MOL0     H67309   6.976   9.056   3.489 -0.1935  0.7774  0.8903
  488MOL0     H67310   7.023   9.097   3.255 -1.9245 -1.3347 -0.5372
  488MOL0     H67311   6.935   9.246   3.265 -0.7759 -2.7408 -0.8021
  488MOL0     H67312   7.156   9.200   3.449 -1.1034 -0.2419  0.7181
  488MOL0     H67313   7.082   9.352   3.398  1.9545  0.3482  2.7708
  488MOL0     H67314   7.170   9.321   3.154  1.5247  2.2698  0.6956
  488MOL0     H67315   7.223   9.176   3.179  0.3670  0.6363 -0.1698
  488MOL0     H67316   7.344   9.416   3.338 -0.1525  0.6254 -0.5804
  488MOL0     H67317   7.383   9.242   3.349 -1.5897  0.0950  2.0232
  488MOL0     H67318   7.519   9.430   3.180 -2.2179  1.5990  1.7130
  488MOL0     H67319   7.381   9.410   3.082  0.3008 -0.4754 -0.6225
  488MOL0     H67320   7.433   9.188   3.031  2.1849 -2.3818 -0.6038
  488MOL0     H67321   7.542   9.175   3.171 -2.2683 -0.4408 -0.2556
  488MOL0     H67322   7.662   9.182   2.971 -0.3884 -0.2766  0.5246
  488MOL0     H67323   7.698   9.333   3.064  1.2025  0.4144 -1.1437
  488MOL0     H67324   6.586   8.996   3.209  1.7566  1.1802 -0.1863
  488MOL0     H67325   6.410   9.135   3.162 -2.4132  2.8033  0.9648
  488MOL0     H67326   5.979   9.299   3.371  0.9740 -3.0949 -0.5273
  488MOL0     H67327   5.774   9.367   3.260  0.6620 -1.7508 -2.2087
  488MOL0     H67328   5.460  10.550   4.308 -0.9754 -0.0690 -0.9256
  488MOL0     H67329   5.371  10.490   4.556 -2.6438 -1.4461  0.0166
  488MOL0     H67330   5.206   9.984   4.738 -0.2914 -1.8221  0.3311
  488MOL0     H67331   5.064   9.940   4.925  0.3682 -0.6168  1.1230
  488MOL0     H67332   5.257   9.989   5.302 -0.2220  0.5031 -0.5469
  488MOL0     H67333   5.125  10.096   5.335 -2.9234 -0.7341  0.1074
  488MOL0     H67334   4.971   9.886   5.315 -0.2548  0.6283  1.3964
  488MOL0     H67335   5.037   9.931   5.470 -1.5173  0.1873 -0.4219
  488MOL0     H67336   5.158   9.721   5.302 -1.2606  2.5507 -1.8246
  488MOL0     H67337   5.218   9.777   5.463 -0.9921 -0.3857  2.1416
  488MOL0     H67338   4.977   9.616   5.386  1.5539 -1.7094 -1.4183
  488MOL0     H67339   4.968   9.700   5.539 -1.1584 -5.0684  2.1380
  488MOL0     H67340   5.217   9.362   5.608  1.5566  1.2257  0.0170
  488MOL0     H67341   5.281  10.204   5.183 -0.6949  1.0838 -0.7709
  488MOL0     H67342   5.535  10.287   4.936  2.4392  3.6402  2.8038
  488MOL0     H67343   5.406  10.404   4.959  1.1894  1.1663  1.6151
  488MOL0     H67344   5.482  10.316   5.093  1.1037 -0.9478 -0.8576
  489MOL0     O67345   1.674   1.372   1.072 -0.9360  0.6473  0.0972
  489MOL0     C67346   1.794   1.396   1.112  0.3823  0.4101 -0.4793
  489MOL0     O67347   1.846   1.519   1.112  0.3909  0.4245  0.0077
  489MOL0     C67348   1.789   1.607   1.026 -0.4418  0.0883  0.8978
  489MOL0     C67349   1.865   1.652   0.914 -0.4523  0.9612  0.5833
  489MOL0     C67350   1.821   1.748   0.826 -1.0919  0.7984  0.5383
  489MOL0     C67351   1.708   1.820   0.852 -0.0407 -0.5591  0.4716
  489MOL0     O67352   1.657   1.922   0.786  0.2002 -0.6137 -0.4963
  489MOL0     C67353   1.701   1.953   0.656 -0.1488  0.7544  0.0568
  489MOL0     C67354   1.667   1.854   0.545  0.1242  0.6067 -0.0366
  489MOL0     C67355   1.716   1.918   0.411  0.5231  0.1161 -0.1191
  489MOL0     C67356   1.695   1.815   0.299  0.3632  0.5352 -0.9982
  489MOL0     C67357   1.684   1.863   0.149 -0.8254 -0.1315 -0.5357
  489MOL0     C67358   1.533   1.864   0.095 -0.4944 -0.4686 -0.1898
  489MOL0     C67359   1.430   1.931   0.191  0.6419 -0.2849  0.8388
  489MOL0     C67360   1.275   1.908   0.168  0.0644  0.5859 -0.1182
  489MOL0     N67361   1.248   1.954   0.030  1.5325 -0.3011 -0.3856
  489MOL0     C67362   1.189   1.882  -0.070 -0.2495  0.8235  0.2386
  489MOL0     C67363   1.181   1.975  -0.173 -0.1030 -1.0113 -0.1207
  489MOL0     C67364   1.135   1.940  -0.308 -0.2802  0.2064  0.7558
  489MOL0     C67365   1.240   1.974  -0.421  0.5136 -0.4539  0.0221
  489MOL0     C67366   1.354   1.870  -0.405 -0.9048  1.1647  0.0014
  489MOL0     C67367   1.470   1.900  -0.507  0.8630  0.2466 -0.1506
  489MOL0     O67368   1.575   1.809  -0.493 -0.5499 -0.3718 -0.5795
  489MOL0     C67369   1.681   1.840  -0.402 -0.3716 -0.7250 -0.3406
  489MOL0     C67370   1.798   1.771  -0.408 -0.4417  0.4702 -0.1961
  489MOL0     C67371   1.903   1.784  -0.315  0.0586  0.3012  0.4332
  489MOL0     C67372   2.028   1.720  -0.360  0.2536 -0.2657 -0.3286
  489MOL0     C67373   1.894   1.874  -0.212 -0.1593  0.5074  0.5100
  489MOL0     C67374   1.993   1.914  -0.113 -0.6877 -1.7276  0.7669
  489MOL0     O67375   1.954   1.975  -0.000 -0.7884  0.4699  0.2605
  489MOL0     C67376   2.023   2.006   0.114  0.4985  0.2255 -0.0525
  489MOL0     C67377   1.970   2.084   0.210  0.6855  1.0909 -0.2220
  489MOL0     C67378   2.033   2.131   0.331  0.3859  0.5595 -0.1401
  489MOL0     C67379   2.157   2.087   0.348 -0.7475  0.1173  0.5641
  489MOL0     O67380   2.237   2.149   0.438  0.5483  0.0691  0.1065
  489MOL0     C67381   2.239   2.295   0.437 -0.8589 -0.6971 -0.5584
  489MOL0     C67382   2.362   2.320   0.529 -0.9680  0.3532  0.7383
  489MOL0     C67383   2.353   2.473   0.581  0.3217  0.6626  0.6237
  489MOL0     C67384   2.483   2.563   0.586 -0.7912  0.2555  0.0297
  489MOL0     C67385   2.428   2.700   0.530 -0.4775 -0.0286 -1.5405
  489MOL0     C67386   2.313   2.772   0.616  0.1460 -0.5143  0.0044
  489MOL0     C67387   2.345   2.786   0.764 -0.1177  0.0202 -0.1397
  489MOL0     C67388   2.462   2.886   0.794 -0.2064 -0.2163  0.4419
  489MOL0    Cl67389   2.451   3.022   0.676  0.2679  0.1625 -0.2208
  489MOL0     C67390   2.211   1.996   0.266  0.1438 -0.3074  0.1927
  489MOL0     C67391   2.148   1.949   0.145  0.2433 -0.2920  0.9989
  489MOL0     O67392   2.112   1.892  -0.139 -0.4228  0.6146 -0.4622
  489MOL0     C67393   1.768   1.944  -0.205  0.4016 -0.4967 -0.5789
  489MOL0     C67394   1.662   1.924  -0.292 -0.4532  0.2723 -0.9402
  489MOL0     N67395   1.242   2.097  -0.130  0.1562 -1.0858  0.4128
  489MOL0     N67396   1.289   2.078  -0.012 -0.7093 -0.3546  0.1875
  489MOL0     C67397   1.628   1.776   0.970  0.5530 -0.5254 -0.6553
  489MOL0     C67398   1.672   1.677   1.059  0.8333 -0.2804  0.7185
  489MOL0     C67399   1.875   1.283   1.160 -0.2219 -0.0068  0.3298
  489MOL0     C67400   1.797   1.179   1.219 -1.1849 -1.0049 -0.3287
  489MOL0     C67401   1.856   1.077   1.290  0.4723  0.1620 -0.0642
  489MOL0     C67402   1.988   1.093   1.330 -0.2970  0.2326  0.2145
  489MOL0     O67403   2.050   0.993   1.400  0.1706 -0.4012 -0.3977
  489MOL0     C67404   1.994   0.862   1.434  0.3847  0.0072 -0.3526
  489MOL0     C67405   1.956   0.769   1.312 -0.1025 -0.6707 -0.6469
  489MOL0     C67406   1.848   0.668   1.343 -0.5979  0.3872 -0.4338
  489MOL0     C67407   1.904   0.535   1.397  0.2077 -0.3750 -0.4789
  489MOL0     C67408   1.992   0.525   1.521  0.5464  0.6656  0.3167
  489MOL0     C67409   2.077   0.516   1.602 -0.4559 -0.0288 -0.0044
  489MOL0     C67410   2.065   1.193   1.282  0.1017 -0.7220  0.2470
  489MOL0     C67411   2.019   1.276   1.180  0.1824  0.2105  0.6205
  489MOL0     C67412   2.112   1.382   1.132  0.8714  0.6564 -0.0699
  489MOL0     H67413   1.960   1.603   0.895 -1.0570 -1.6455  3.3689
  489MOL0     H67414   1.884   1.758   0.738 -1.3630 -2.4978 -0.1699
  489MOL0     H67415   1.811   1.956   0.659 -0.1076 -0.5202  1.5728
  489MOL0     H67416   1.675   2.056   0.628 -1.7440  0.4719  0.4099
  489MOL0     H67417   1.713   1.755   0.543  1.0868  1.0247  0.6483
  489MOL0     H67418   1.558   1.848   0.532  0.1704 -0.1828 -0.1021
  489MOL0     H67419   1.672   2.016   0.391  0.6909 -0.1128 -1.7431
  489MOL0     H67420   1.823   1.940   0.407  0.5654 -0.1428 -3.3186
  489MOL0     H67421   1.786   1.755   0.305 -0.2545 -0.3116  2.7982
  489MOL0     H67422   1.608   1.750   0.312  0.2717  0.1803 -3.0955
  489MOL0     H67423   1.737   1.800   0.077 -2.3543 -0.4179 -1.4698
  489MOL0     H67424   1.720   1.965   0.134 -1.6997 -0.1387 -3.2760
  489MOL0     H67425   1.526   1.897  -0.009 -3.8635  1.1335  0.3823
  489MOL0     H67426   1.496   1.761   0.102 -1.6118 -0.1092 -0.5839
  489MOL0     H67427   1.448   2.039   0.197  1.4144 -0.4898  3.2817
  489MOL0     H67428   1.455   1.894   0.291 -0.9887 -2.4757  0.5156
  489MOL0     H67429   1.267   1.800   0.161  0.4425  0.6485 -2.6200
  489MOL0     H67430   1.212   1.957   0.242  0.5735  3.1477 -1.2543
  489MOL0     H67431   1.157   1.778  -0.069 -1.6466  1.2285 -0.4299
  489MOL0     H67432   1.037   1.976  -0.340 -0.4633 -0.5548  0.4420
  489MOL0     H67433   1.129   1.831  -0.302  2.4598 -0.1021 -0.4403
  489MOL0     H67434   1.198   1.960  -0.521 -2.8218 -1.8099  1.4550
  489MOL0     H67435   1.283   2.074  -0.411  3.4774 -1.6332  0.0068
  489MOL0     H67436   1.395   1.869  -0.303  4.4241 -2.8345 -1.6953
  489MOL0     H67437   1.312   1.770  -0.423 -0.6759  1.2100 -0.8125
  489MOL0     H67438   1.426   1.877  -0.605  2.3575 -2.4620 -0.2827
  489MOL0     H67439   1.504   2.003  -0.517 -0.2462  0.6848  0.3621
  489MOL0     H67440   1.809   1.698  -0.488  0.2113  0.0367  0.2791
  489MOL0     H67441   2.015   1.664  -0.453  5.9739  0.3794 -1.8926
  489MOL0     H67442   2.060   1.660  -0.274 -1.9112  0.6307  1.2105
  489MOL0     H67443   2.099   1.800  -0.381 -0.0571 -0.6692 -3.3081
  489MOL0     H67444   1.867   2.110   0.192  0.2549 -1.7495 -2.7450
  489MOL0     H67445   1.984   2.193   0.406 -1.2919  1.1146 -1.6266
  489MOL0     H67446   2.268   2.324   0.336  1.2928 -0.9810 -0.0650
  489MOL0     H67447   2.143   2.346   0.448  0.2444  1.7459 -1.4341
  489MOL0     H67448   2.368   2.248   0.611  0.1353 -0.4143  0.0173
  489MOL0     H67449   2.456   2.323   0.473 -1.7278  2.3333 -0.4997
  489MOL0     H67450   2.311   2.469   0.682  1.7532  2.4567  1.3422
  489MOL0     H67451   2.276   2.523   0.522 -1.1647  2.8160  4.0600
  489MOL0     H67452   2.564   2.546   0.515  2.6685  1.5905  3.3051
  489MOL0     H67453   2.525   2.554   0.687  3.0008 -2.0446 -1.5337
  489MOL0     H67454   2.508   2.772   0.547 -0.3936 -1.0414  4.6930
  489MOL0     H67455   2.387   2.695   0.428  0.4321  1.9901 -2.0530
  489MOL0     H67456   2.219   2.715   0.625 -0.4897  0.7852  2.7096
  489MOL0     H67457   2.278   2.865   0.569  0.2922 -0.3329  0.2550
  489MOL0     H67458   2.369   2.690   0.810  3.6043  1.2022  0.7728
  489MOL0     H67459   2.256   2.835   0.805  0.0689  1.5295 -1.4334
  489MOL0     H67460   2.560   2.839   0.782 -1.5352 -2.5596 -3.2648
  489MOL0     H67461   2.451   2.919   0.897 -0.8042 -1.2334  0.7183
  489MOL0     H67462   2.305   1.950   0.295 -0.7448 -2.4252 -0.0767
  489MOL0     H67463   2.196   1.870   0.089 -4.8270 -2.9767 -0.1716
  489MOL0     H67464   1.748   2.017  -0.127  1.5589  0.9437 -1.5724
  489MOL0     H67465   1.575   1.987  -0.280  0.7860  2.4868 -2.8818
  489MOL0     H67466   1.533   1.826   0.982  1.0748  0.2761  0.4343
  489MOL0     H67467   1.614   1.659   1.149 -0.6654  4.6942  1.0824
  489MOL0     H67468   1.691   1.175   1.196 -0.8975  1.0228 -2.2929
  489MOL0     H67469   1.796   0.998   1.334 -0.9427  1.1566 -0.1469
  489MOL0     H67470   2.050   0.795   1.500 -2.0939 -3.0630 -1.1080
  489MOL0     H67471   1.904   0.879   1.493 -1.3517 -3.1883 -1.8093
  489MOL0     H67472   2.048   0.725   1.272  0.0643  0.1687 -1.2166
  489MOL0     H67473   1.926   0.834   1.229  2.5891  1.9222  0.2363
  489MOL0     H67474   1.772   0.703   1.413  0.5464  2.4479 -0.1569
  489MOL0     H67475   1.810   0.640   1.245 -1.0275  1.0835 -0.4701
  489MOL0     H67476   1.975   0.505   1.320  0.6534  3.0969 -1.5782
  489MOL0     H67477   1.824   0.459   1.396  0.9695 -1.2231  0.5240
  489MOL0     H67478   2.140   0.492   1.685  0.0379 -0.6935 -0.5532
  489MOL0     H67479   2.162   1.214   1.327 -0.3596 -0.7277  1.2763
  489MOL0     H67480   2.214   1.350   1.111 -0.0492 -3.6280  1.0472
  489MOL0     H67481   2.069   1.444   1.052 -0.4698  0.5886  0.5641
  489MOL0     H67482   2.122   1.449   1.218  3.8157 -0.7271  0.7656
  490MOL0     O67483   2.042   5.601   3.164 -0.3314 -0.4125 -0.3066
  490MOL0     C67484   2.042   5.647   3.276  0.0757 -0.0986 -0.2534
  490MOL0     O67485   1.970   5.756   3.307 -0.2867  0.5175 -0.6544
  490MOL0     C67486   1.946   5.855   3.217  0.2263  0.2202  0.5604
  490MOL0     C67487   1.818   5.910   3.220 -0.4460  1.5608 -0.5217
  490MOL0     C67488   1.760   5.993   3.122 -0.0424  1.1374  0.6765
  490MOL0     C67489   1.842   6.021   3.009 -0.2197  0.4665 -0.8080
  490MOL0     O67490   1.799   6.089   2.903  0.0340  1.6219 -0.7517
  490MOL0     C67491   1.711   6.009   2.816 -0.0010 -0.7176  0.5843
  490MOL0     C67492   1.781   6.003   2.676 -0.0295  0.1413 -0.6955
  490MOL0     C67493   1.760   6.119   2.578  1.6323 -0.0960 -0.3800
  490MOL0     C67494   1.883   6.109   2.482 -0.3659 -1.0563 -0.4108
  490MOL0     C67495   1.892   6.252   2.409  0.0770  0.6561 -0.7234
  490MOL0     C67496   1.797   6.252   2.291  0.5408  0.0055 -0.7810
  490MOL0     C67497   1.780   6.403   2.248  0.7644 -0.1659 -1.1623
  490MOL0     C67498   1.716   6.442   2.111 -0.0829  0.2437 -0.3846
  490MOL0     N67499   1.802   6.423   1.993 -0.1483  0.6289  0.6519
  490MOL0     C67500   1.802   6.299   1.920 -0.1042  0.1521  0.1943
  490MOL0     C67501   1.903   6.313   1.831  0.2400  0.2216  1.0521
  490MOL0     C67502   1.966   6.201   1.758  0.4578 -0.1615 -0.2222
  490MOL0     C67503   1.871   6.186   1.630  0.3032 -1.4479 -0.1198
  490MOL0     C67504   1.916   6.078   1.531 -0.0045 -0.2342  0.4501
  490MOL0     C67505   1.889   5.933   1.559 -0.4595  0.8921 -0.1402
  490MOL0     O67506   1.950   5.911   1.685 -0.2244 -0.7219 -0.4948
  490MOL0     C67507   1.939   5.792   1.755  1.0934 -0.4295 -0.7489
  490MOL0     C67508   1.867   5.680   1.708 -0.4231 -0.0222  0.5880
  490MOL0     C67509   1.833   5.570   1.791  0.0935 -0.4311  0.6752
  490MOL0     C67510   1.745   5.456   1.739 -0.1563 -0.1335  0.5115
  490MOL0     C67511   1.894   5.568   1.921 -0.9112 -0.1570 -0.3718
  490MOL0     C67512   1.893   5.463   2.019 -0.4971  0.0295  0.2473
  490MOL0     O67513   1.988   5.459   2.115  0.1368  0.0038  0.2732
  490MOL0     C67514   2.030   5.340   2.165 -0.0292 -0.0414  0.8420
  490MOL0     C67515   2.165   5.298   2.154  0.2632  1.2513 -0.1406
  490MOL0     C67516   2.195   5.174   2.206  0.0689  0.3890 -0.3776
  490MOL0     C67517   2.099   5.099   2.268 -0.4830  0.6274 -0.7675
  490MOL0     O67518   2.121   4.968   2.284  0.1825 -0.5404 -0.8380
  490MOL0     C67519   2.129   4.906   2.412 -0.0540 -1.1023  0.0923
  490MOL0     C67520   2.249   4.962   2.493  1.2502 -0.5889 -0.0836
  490MOL0     C67521   2.385   4.950   2.420 -0.4598  0.5807  0.4238
  490MOL0     C67522   2.466   5.077   2.456  0.8888 -0.1569 -0.8146
  490MOL0     C67523   2.606   5.064   2.407  0.2402 -0.2923 -0.4996
  490MOL0     C67524   2.623   5.111   2.260  0.2159 -0.5986 -0.4087
  490MOL0     C67525   2.754   5.058   2.201  0.1554 -0.6835  0.0467
  490MOL0     C67526   2.807   5.112   2.077 -0.5848 -0.4053  0.3848
  490MOL0    Cl67527   2.819   5.286   2.099 -0.0446  0.5360 -0.3593
  490MOL0     C67528   1.977   5.150   2.299 -0.7723  0.3142  0.3664
  490MOL0     C67529   1.946   5.278   2.257 -0.4451  0.9854  0.6524
  490MOL0     O67530   1.809   5.373   2.006  0.0776 -1.1687  0.5633
  490MOL0     C67531   1.967   5.677   1.959 -0.8412  0.1177 -0.2461
  490MOL0     C67532   1.993   5.785   1.881 -0.1021 -0.0667 -0.2869
  490MOL0     N67533   1.960   6.440   1.848  0.1643  0.3865  0.8911
  490MOL0     N67534   1.893   6.504   1.927  0.0719 -0.0734  0.1958
  490MOL0     C67535   1.973   5.982   3.007 -0.3514  0.7234  0.1504
  490MOL0     C67536   2.029   5.892   3.107 -0.3416  0.2553 -0.1090
  490MOL0     C67537   2.121   5.593   3.394  0.6427 -0.6673  1.0749
  490MOL0     C67538   2.125   5.675   3.512 -0.3296  0.7876  0.3766
  490MOL0     C67539   2.204   5.629   3.614  0.4434 -0.3139 -0.2336
  490MOL0     C67540   2.290   5.522   3.602 -0.2499 -0.2432  1.0068
  490MOL0     O67541   2.363   5.483   3.714  0.9031 -0.4834 -0.0380
  490MOL0     C67542   2.499   5.475   3.695 -0.0713  0.5389  0.5530
  490MOL0     C67543   2.568   5.549   3.807 -0.1195 -0.2476 -0.5885
  490MOL0     C67544   2.726   5.531   3.812  0.6054 -0.7700  0.3594
  490MOL0     C67545   2.790   5.596   3.942  0.1019 -0.1335  0.0845
  490MOL0     C67546   2.716   5.556   4.063  1.1681 -0.3309 -0.5979
  490MOL0     C67547   2.636   5.535   4.151 -0.2159 -0.2440 -0.2684
  490MOL0     C67548   2.290   5.446   3.488  0.2744  0.3882 -0.6257
  490MOL0     C67549   2.200   5.485   3.379  0.0115  0.5046 -0.7406
  490MOL0     C67550   2.194   5.384   3.269  0.7517  0.4108  0.4753
  490MOL0     H67551   1.755   5.856   3.291 -0.4810  0.3882 -1.4215
  490MOL0     H67552   1.652   6.002   3.118 -0.3754 -1.8428 -0.5074
  490MOL0     H67553   1.610   6.044   2.797  0.2158 -0.2416  0.2973
  490MOL0     H67554   1.698   5.907   2.854  1.1367 -0.8132  0.7725
  490MOL0     H67555   1.885   5.978   2.697 -0.3591 -1.7651 -1.1059
  490MOL0     H67556   1.743   5.911   2.630  3.8359 -1.8831 -0.2190
  490MOL0     H67557   1.667   6.101   2.524  3.0882 -2.0522 -2.4133
  490MOL0     H67558   1.762   6.211   2.638  1.6663  1.2840 -2.3802
  490MOL0     H67559   1.973   6.105   2.544 -0.9595 -3.1510  0.4102
  490MOL0     H67560   1.884   6.018   2.423 -0.5165 -0.7442 -0.8996
  490MOL0     H67561   1.995   6.257   2.372  2.7307 -1.9072  4.9731
  490MOL0     H67562   1.879   6.337   2.477 -0.9872 -2.8052  3.9933
  490MOL0     H67563   1.831   6.189   2.209 -0.7639 -1.5950 -0.1356
  490MOL0     H67564   1.698   6.220   2.325  0.1793  0.1891 -1.6318
  490MOL0     H67565   1.876   6.454   2.262  0.6177  0.2996 -1.8032
  490MOL0     H67566   1.718   6.433   2.333 -1.6665 -3.1925 -1.6705
  490MOL0     H67567   1.617   6.398   2.095  0.4094 -0.7546 -0.8249
  490MOL0     H67568   1.699   6.549   2.117 -2.6367 -0.1181 -0.0339
  490MOL0     H67569   1.742   6.209   1.923  0.1437 -0.2933 -3.5963
  490MOL0     H67570   1.972   6.113   1.823 -3.3070  0.6702  1.5585
  490MOL0     H67571   2.070   6.224   1.736  0.6588  1.0433  1.7444
  490MOL0     H67572   1.774   6.169   1.677  0.0204 -0.8786 -0.4968
  490MOL0     H67573   1.880   6.278   1.571  2.5517 -1.3107  0.3392
  490MOL0     H67574   1.863   6.113   1.442 -0.1992  0.4297  0.8222
  490MOL0     H67575   2.021   6.098   1.505 -0.3238  0.8529 -0.0537
  490MOL0     H67576   1.782   5.910   1.567 -0.4902  0.8686 -0.5652
  490MOL0     H67577   1.929   5.873   1.477 -0.1456  0.6136  0.2138
  490MOL0     H67578   1.840   5.693   1.604 -0.0960  1.1579  0.6375
  490MOL0     H67579   1.660   5.437   1.805 -1.4560 -1.2263 -1.3771
  490MOL0     H67580   1.809   5.367   1.735 -1.1768 -0.8362 -2.4676
  490MOL0     H67581   1.707   5.473   1.638 -0.1480  0.9565  0.6765
  490MOL0     H67582   2.243   5.355   2.105  1.4438 -0.4096 -0.2583
  490MOL0     H67583   2.294   5.133   2.190 -0.3337 -0.9725  0.5147
  490MOL0     H67584   2.043   4.920   2.478 -1.1473 -0.5810 -1.3688
  490MOL0     H67585   2.157   4.801   2.400  3.1022 -0.1199 -3.0442
  490MOL0     H67586   2.233   5.069   2.512 -0.8701 -0.5274 -1.9051
  490MOL0     H67587   2.261   4.901   2.584 -1.2870 -0.6671  0.2691
  490MOL0     H67588   2.383   4.935   2.311  0.8886  1.3175  0.2704
  490MOL0     H67589   2.438   4.862   2.457  3.1861  2.1940 -0.5249
  490MOL0     H67590   2.461   5.087   2.565 -3.1404  0.8042 -0.9151
  490MOL0     H67591   2.419   5.167   2.414  0.8290 -0.8398 -2.2872
  490MOL0     H67592   2.658   5.139   2.468 -1.1598 -1.5804  2.5045
  490MOL0     H67593   2.640   4.962   2.427 -2.2939 -1.4122 -1.4730
  490MOL0     H67594   2.614   5.220   2.253 -0.3477 -0.6079  0.1871
  490MOL0     H67595   2.545   5.052   2.211  0.8726 -2.9574  1.1867
  490MOL0     H67596   2.745   4.950   2.184 -1.1104 -0.8827  1.7517
  490MOL0     H67597   2.827   5.072   2.280 -0.9659 -1.3425  1.2374
  490MOL0     H67598   2.750   5.089   1.987  1.0185 -0.3678 -0.6720
  490MOL0     H67599   2.906   5.066   2.072 -0.0857  0.0440  3.6574
  490MOL0     H67600   1.905   5.087   2.351 -1.2755  0.5454 -0.0355
  490MOL0     H67601   1.847   5.323   2.264 -3.0049 -3.9198 -0.0444
  490MOL0     H67602   2.016   5.685   2.056  1.0777  0.1547 -1.1621
  490MOL0     H67603   2.051   5.870   1.915 -2.8169  1.0962  1.8346
  490MOL0     H67604   2.042   6.015   2.930 -2.1051  1.4352 -1.1795
  490MOL0     H67605   2.128   5.853   3.088  0.0734  0.3545  1.6772
  490MOL0     H67606   2.054   5.756   3.525 -1.9193 -0.1658 -1.6737
  490MOL0     H67607   2.195   5.677   3.711  2.7164  0.8538 -0.5075
  490MOL0     H67608   2.523   5.369   3.705  5.0926  1.4185  0.1743
  490MOL0     H67609   2.539   5.507   3.598 -1.0632  0.2474  0.0343
  490MOL0     H67610   2.524   5.517   3.902 -0.2707 -0.5621 -0.7612
  490MOL0     H67611   2.544   5.654   3.790 -1.7026 -0.6636 -1.1878
  490MOL0     H67612   2.739   5.422   3.813  1.3381 -0.6903 -0.0900
  490MOL0     H67613   2.766   5.575   3.720 -2.0770 -2.1404 -1.6287
  490MOL0     H67614   2.802   5.704   3.926  4.5953 -0.1870  1.8757
  490MOL0     H67615   2.894   5.564   3.940 -0.2274 -1.2330 -1.7521
  490MOL0     H67616   2.570   5.517   4.233 -1.7111 -1.9170 -1.7239
  490MOL0     H67617   2.362   5.365   3.476  2.1332  1.5385  1.9220
  490MOL0     H67618   2.243   5.289   3.290 -0.8658 -0.8047 -0.8932
  490MOL0     H67619   2.087   5.375   3.247  0.6533  1.6048  0.3605
  490MOL0     H67620   2.241   5.424   3.178  1.1928 -0.4490  0.3259
  491MOL0     O67621   8.273   7.567   5.795  0.5791 -0.5883 -0.3796
  491MOL0     C67622   8.298   7.664   5.722 -0.1608  0.5928  0.3822
  491MOL0     O67623   8.265   7.666   5.587  0.7371 -0.0776  0.5548
  491MOL0     C67624   8.176   7.589   5.519 -0.4077 -0.6234  0.1051
  491MOL0     C67625   8.051   7.578   5.571  1.1678  0.1494 -0.5639
  491MOL0     C67626   7.947   7.516   5.506 -0.5598  0.0947 -0.1221
  491MOL0     C67627   7.971   7.448   5.386  0.3439  0.6352  0.0952
  491MOL0     O67628   7.874   7.365   5.338 -0.7412  0.8245  0.4217
  491MOL0     C67629   7.864   7.358   5.192 -0.2130 -0.0138  0.3733
  491MOL0     C67630   7.742   7.286   5.129  1.0661  0.6420  0.5683
  491MOL0     C67631   7.756   7.137   5.147  0.9925 -1.3400  0.0255
  491MOL0     C67632   7.694   7.056   5.036  0.2723  0.0631  0.0286
  491MOL0     C67633   7.734   6.911   5.053  0.5692 -0.5628  0.3428
  491MOL0     C67634   7.652   6.818   4.966  0.3407  0.6272 -0.1957
  491MOL0     C67635   7.691   6.662   4.998  0.1097 -0.1937 -0.0396
  491MOL0     C67636   7.565   6.589   4.931 -0.1669  0.0802 -0.1270
  491MOL0     N67637   7.551   6.607   4.785 -0.1565 -0.2613  0.1017
  491MOL0     C67638   7.651   6.594   4.691  0.5860  1.5218  0.0623
  491MOL0     C67639   7.589   6.623   4.577 -0.1012 -0.0321 -0.6396
  491MOL0     C67640   7.658   6.623   4.450 -0.6247  0.7201 -0.8998
  491MOL0     C67641   7.608   6.488   4.381  0.4344  1.0123  0.4595
  491MOL0     C67642   7.706   6.407   4.301  0.2189  0.5813 -0.5574
  491MOL0     C67643   7.833   6.378   4.379 -0.4425 -0.7636  0.0024
  491MOL0     O67644   7.804   6.301   4.494  0.0750 -1.0652  0.1901
  491MOL0     C67645   7.783   6.167   4.488 -0.0357 -0.9717  0.6880
  491MOL0     C67646   7.737   6.102   4.607  0.6105 -0.7210 -0.0301
  491MOL0     C67647   7.745   5.957   4.627  0.7111  0.6508  0.7378
  491MOL0     C67648   7.683   5.901   4.756 -0.1415  0.2355  0.1054
  491MOL0     C67649   7.813   5.877   4.535  0.3257  0.0427 -0.3838
  491MOL0     C67650   7.839   5.739   4.540 -0.0288  0.5262 -1.0845
  491MOL0     O67651   7.967   5.707   4.509  1.8798  0.0305  0.3921
  491MOL0     C67652   7.995   5.572   4.504 -0.1178 -0.1010 -0.7530
  491MOL0     C67653   8.023   5.532   4.375  0.1489 -1.1512 -0.3338
  491MOL0     C67654   8.063   5.393   4.358  0.4696 -0.3735  0.7885
  491MOL0     C67655   8.079   5.309   4.467 -0.5845  0.8738  0.9470
  491MOL0     O67656   8.119   5.184   4.437 -0.2530  0.0714  0.2445
  491MOL0     C67657   8.070   5.081   4.525  0.2881 -0.5904  0.6568
  491MOL0     C67658   8.028   4.964   4.437 -0.7140  0.4434  0.6870
  491MOL0     C67659   8.039   4.839   4.524 -0.5845 -0.1824 -0.0650
  491MOL0     C67660   7.994   4.722   4.425  0.2491  0.1816 -0.7465
  491MOL0     C67661   8.000   4.586   4.495  0.3974  0.7916  0.7596
  491MOL0     C67662   7.899   4.506   4.415 -0.0816 -0.4257  0.1738
  491MOL0     C67663   7.751   4.524   4.462  1.6789  0.4009  0.6821
  491MOL0     C67664   7.649   4.488   4.352  0.8957  0.7819 -0.5335
  491MOL0    Cl67665   7.634   4.305   4.316  0.0279  0.6898 -0.6621
  491MOL0     C67666   8.049   5.352   4.595 -0.4547  0.2064 -1.6424
  491MOL0     C67667   8.011   5.488   4.620 -0.9710 -0.5279  0.7575
  491MOL0     O67668   7.755   5.656   4.579  0.2811 -0.2546 -0.2681
  491MOL0     C67669   7.849   5.945   4.415  0.4062  0.1133  0.3433
  491MOL0     C67670   7.822   6.079   4.389  0.2091  0.2029 -0.1275
  491MOL0     N67671   7.458   6.651   4.604  0.7469  0.4214  0.1251
  491MOL0     N67672   7.431   6.641   4.728 -0.0517  0.4155 -0.2661
  491MOL0     C67673   8.107   7.456   5.331 -0.2179 -0.1279  0.0276
  491MOL0     C67674   8.195   7.544   5.387  0.0743 -0.5261  0.9869
  491MOL0     C67675   8.376   7.773   5.779  0.0816 -0.6197 -0.4786
  491MOL0     C67676   8.458   7.853   5.694  0.4508 -0.3680 -0.3110
  491MOL0     C67677   8.543   7.955   5.731  0.6839  0.3997  0.1884
  491MOL0     C67678   8.559   7.983   5.868  0.0194  0.2354 -0.1938
  491MOL0     O67679   8.630   8.085   5.917  0.6575  0.8325 -0.2088
  491MOL0     C67680   8.632   8.208   5.850 -0.3571 -0.0836 -0.8728
  491MOL0     C67681   8.779   8.262   5.827  0.1247  0.1610 -0.1018
  491MOL0     C67682   8.831   8.237   5.682  0.2176  0.7118 -1.0240
  491MOL0     C67683   8.748   8.307   5.575  0.3932 -1.0365 -0.5248
  491MOL0     C67684   8.736   8.455   5.588 -0.4396 -0.0381 -0.7930
  491MOL0     C67685   8.722   8.569   5.616 -0.3277  0.0897 -0.8324
  491MOL0     C67686   8.495   7.902   5.956  0.1672  0.2080  0.2177
  491MOL0     C67687   8.395   7.801   5.914  0.7006 -0.2324 -0.1423
  491MOL0     C67688   8.342   7.708   6.020  0.7507  0.3293  0.1807
  491MOL0     H67689   8.026   7.622   5.667  3.1357  1.1459 -0.4596
  491MOL0     H67690   7.854   7.534   5.559  0.2897  0.5587  1.2417
  491MOL0     H67691   7.954   7.313   5.149 -1.5016 -1.8545 -0.5319
  491MOL0     H67692   7.858   7.459   5.153 -1.6463 -0.0560  0.4380
  491MOL0     H67693   7.644   7.303   5.176  1.2379  2.1262  0.4295
  491MOL0     H67694   7.730   7.313   5.024 -1.2659 -3.6568 -0.5173
  491MOL0     H67695   7.863   7.118   5.154  0.5084 -4.0066  2.0483
  491MOL0     H67696   7.710   7.112   5.243 -0.4045  0.1378 -0.2178
  491MOL0     H67697   7.585   7.063   5.043 -0.1309 -0.6617 -3.5033
  491MOL0     H67698   7.714   7.098   4.937  3.0921  1.2844  0.9865
  491MOL0     H67699   7.725   6.876   5.156  1.9655 -0.9667  0.3555
  491MOL0     H67700   7.837   6.894   5.021  1.0657  2.4280  0.1112
  491MOL0     H67701   7.549   6.840   4.993  0.3375  2.5061 -1.5112
  491MOL0     H67702   7.665   6.853   4.863  0.7175  2.4607  0.4259
  491MOL0     H67703   7.705   6.629   5.102  1.3029  2.3355  0.6845
  491MOL0     H67704   7.783   6.650   4.941  0.2099  1.6971 -0.3551
  491MOL0     H67705   7.568   6.481   4.947 -0.0019 -0.5888 -3.8003
  491MOL0     H67706   7.473   6.623   4.980 -0.3078 -0.5336  0.0389
  491MOL0     H67707   7.758   6.576   4.696  0.5739  0.9740 -1.2729
  491MOL0     H67708   7.763   6.647   4.467  0.2300 -1.8624 -1.9107
  491MOL0     H67709   7.618   6.703   4.388  0.0114  2.5233  0.9322
  491MOL0     H67710   7.557   6.413   4.442  0.6881 -1.2934 -1.9742
  491MOL0     H67711   7.521   6.518   4.321 -0.2539  0.0804  0.9583
  491MOL0     H67712   7.664   6.318   4.253  1.9775 -1.4554  1.4448
  491MOL0     H67713   7.724   6.475   4.217 -2.3893  3.2150  0.8502
  491MOL0     H67714   7.910   6.339   4.310  1.6519 -0.5086  2.0796
  491MOL0     H67715   7.880   6.469   4.417  0.2663 -0.8012 -0.7314
  491MOL0     H67716   7.702   6.155   4.695 -1.3852 -0.5860 -0.8508
  491MOL0     H67717   7.598   5.961   4.791 -1.8815 -1.7088 -0.5709
  491MOL0     H67718   7.760   5.908   4.833  1.8302 -0.4872 -1.7116
  491MOL0     H67719   7.650   5.801   4.727 -1.6226  0.0943  2.0835
  491MOL0     H67720   8.016   5.607   4.297 -1.4246  0.7024  1.4721
  491MOL0     H67721   8.073   5.363   4.254 -4.6047 -0.7649  0.1595
  491MOL0     H67722   8.150   5.047   4.591  1.4118 -0.0486 -0.4035
  491MOL0     H67723   7.976   5.114   4.572 -0.8035 -1.2847 -0.9586
  491MOL0     H67724   7.922   4.965   4.409 -0.7035 -0.4387  0.5859
  491MOL0     H67725   8.095   4.977   4.351  0.7947  3.8392  2.1811
  491MOL0     H67726   7.972   4.857   4.608 -2.3054 -2.3632 -0.8903
  491MOL0     H67727   8.137   4.815   4.568 -0.6420  0.6251  0.5227
  491MOL0     H67728   8.070   4.733   4.347 -1.8755  2.1176 -2.7055
  491MOL0     H67729   7.894   4.750   4.391  0.7113  1.4339 -1.1210
  491MOL0     H67730   8.098   4.538   4.495  0.6722  1.2650 -1.1572
  491MOL0     H67731   7.965   4.587   4.599 -3.0441  0.2129 -0.2854
  491MOL0     H67732   7.919   4.399   4.429  1.1831 -0.1584  0.5217
  491MOL0     H67733   7.922   4.529   4.311 -0.8154  0.4752  0.1949
  491MOL0     H67734   7.722   4.623   4.499 -0.5355  0.5987 -1.3506
  491MOL0     H67735   7.723   4.466   4.550 -2.4570 -1.7365 -1.7407
  491MOL0     H67736   7.672   4.540   4.258  1.2888 -1.7283 -1.9226
  491MOL0     H67737   7.551   4.530   4.378 -0.2664  0.1239 -3.4237
  491MOL0     H67738   8.060   5.289   4.683  1.3144 -0.0757 -2.0216
  491MOL0     H67739   8.000   5.529   4.720  1.7521  1.4464  0.3558
  491MOL0     H67740   7.908   5.894   4.340 -1.3760 -3.0716  0.9144
  491MOL0     H67741   7.858   6.109   4.290  1.3360  1.1526  0.5386
  491MOL0     H67742   8.135   7.402   5.241 -3.6493 -1.7420 -0.2528
  491MOL0     H67743   8.295   7.573   5.355 -0.2457  3.4117  3.0580
  491MOL0     H67744   8.437   7.815   5.594  0.2547 -0.3562 -0.2743
  491MOL0     H67745   8.600   8.008   5.655 -0.5606  0.2789 -0.8551
  491MOL0     H67746   8.568   8.208   5.762 -1.5790  0.3070 -0.0058
  491MOL0     H67747   8.591   8.289   5.911  1.2035  0.2916 -0.2523
  491MOL0     H67748   8.835   8.199   5.896  0.3878 -2.3371 -2.3944
  491MOL0     H67749   8.773   8.366   5.862 -2.3466 -0.7210  2.5063
  491MOL0     H67750   8.937   8.262   5.671  0.1383  1.1790 -0.7868
  491MOL0     H67751   8.832   8.130   5.664  0.9441  0.0790  2.1413
  491MOL0     H67752   8.653   8.257   5.554 -0.3107  0.3434 -0.6978
  491MOL0     H67753   8.810   8.294   5.486  1.5251  3.8080 -0.7435
  491MOL0     H67754   8.724   8.673   5.639  0.6187  0.3459 -1.9996
  491MOL0     H67755   8.529   7.904   6.059  0.8307 -0.0069  0.0144
  491MOL0     H67756   8.233   7.714   6.011  0.9716  2.6091 -2.3726
  491MOL0     H67757   8.386   7.609   6.005  0.1560  0.1631 -0.5531
  491MOL0     H67758   8.371   7.741   6.120 -1.6041 -0.2814  1.1527
  492MOL0     O67759   6.150   6.735   8.703 -0.3825  0.4748 -0.4778
  492MOL0     C67760   6.130   6.645   8.625 -0.1620 -0.0223  0.0798
  492MOL0     O67761   6.128   6.512   8.654 -0.0864  0.9797 -0.7726
  492MOL0     C67762   6.153   6.467   8.784  0.8621 -0.2243 -0.4178
  492MOL0     C67763   6.281   6.427   8.829  0.5981 -1.6014 -0.7341
  492MOL0     C67764   6.294   6.404   8.968 -0.4131  0.1372  0.5968
  492MOL0     C67765   6.191   6.407   9.057  0.5520 -0.0012  0.1360
  492MOL0     O67766   6.212   6.372   9.191 -0.1582 -0.3854 -0.0579
  492MOL0     C67767   6.232   6.483   9.286 -0.4584 -0.1098  0.3796
  492MOL0     C67768   6.278   6.442   9.428 -0.2773  0.8614  0.2623
  492MOL0     C67769   6.184   6.332   9.490  0.7749 -0.5972 -0.7065
  492MOL0     C67770   6.245   6.272   9.622  0.1218  0.3313 -0.7069
  492MOL0     C67771   6.140   6.189   9.694  0.2413  1.1205  0.4539
  492MOL0     C67772   6.189   6.110   9.816 -0.2498 -0.4086  0.2936
  492MOL0     C67773   6.244   6.200   9.928  0.5654  0.1360  0.6453
  492MOL0     C67774   6.300   6.110  10.038 -0.2143  0.0966 -0.8669
  492MOL0     N67775   6.190   6.022  10.098  0.1519  0.4217 -0.2515
  492MOL0     C67776   6.087   6.076  10.173 -1.2168 -0.2416 -1.0773
  492MOL0     C67777   6.002   5.973  10.200  0.7682 -0.3303  0.8646
  492MOL0     C67778   5.885   5.989  10.286  0.9022  0.5121 -0.7602
  492MOL0     C67779   5.921   5.924  10.424  0.0148 -0.7667 -0.0155
  492MOL0     C67780   5.806   5.924  10.528  0.4858 -0.6832 -0.0107
  492MOL0     C67781   5.681   5.838  10.483 -0.4436  0.3311 -0.2662
  492MOL0     O67782   5.725   5.703  10.487 -0.1575 -0.0759  0.2301
  492MOL0     C67783   5.760   5.641  10.604 -0.6473  0.5231  0.0209
  492MOL0     C67784   5.841   5.530  10.585  0.6133 -0.1032  0.2174
  492MOL0     C67785   5.894   5.456  10.695  0.9238  0.1270  0.7315
  492MOL0     C67786   5.979   5.339  10.668  0.5605  0.1959 -0.3490
  492MOL0     C67787   5.859   5.486  10.828  0.4433  1.3125 -0.1415
  492MOL0     C67788   5.916   5.429  10.951  0.4322 -0.3498  0.4967
  492MOL0     O67789   5.824   5.420  11.057  0.0611 -0.0924 -0.8228
  492MOL0     C67790   5.846   5.373  11.186 -0.4610 -0.6768  0.5343
  492MOL0     C67791   5.975   5.351  11.235 -0.3455 -0.2118  0.1333
  492MOL0     C67792   5.986   5.337  11.366 -0.0332  0.6383 -0.1897
  492MOL0     C67793   5.884   5.340  11.456  0.8316  0.1761  0.3995
  492MOL0     O67794   5.901   5.321  11.592  0.3667 -0.7611 -0.3157
  492MOL0     C67795   5.942   5.188  11.641 -0.8651  0.2053  0.3837
  492MOL0     C67796   5.908   5.178  11.787  0.7078  0.6619 -0.3935
  492MOL0     C67797   5.980   5.066  11.847 -0.2066  0.5180 -0.0753
  492MOL0     C67798   5.940   5.042  11.993  0.0963 -1.2000 -0.6298
  492MOL0     C67799   6.007   4.913  12.051 -0.1088  0.1270 -0.4116
  492MOL0     C67800   5.983   4.892  12.205 -0.1075 -0.2680  1.0298
  492MOL0     C67801   5.991   4.747  12.253  0.6554 -0.4460 -0.1203
  492MOL0     C67802   6.134   4.692  12.235  0.0766 -0.9533 -0.2746
  492MOL0    Cl67803   6.140   4.522  12.283 -0.4068  0.1267  0.7013
  492MOL0     C67804   5.752   5.371  11.408  0.4382 -0.2357 -0.7132
  492MOL0     C67805   5.738   5.379  11.273 -0.0725 -0.6798  0.0727
  492MOL0     O67806   6.032   5.396  10.941  0.4342 -0.6498 -0.2276
  492MOL0     C67807   5.779   5.600  10.846 -0.5118  0.5536  0.4498
  492MOL0     C67808   5.727   5.675  10.735  0.2765 -0.0403  0.0569
  492MOL0     N67809   6.059   5.853  10.152 -0.8549  0.4238  0.9197
  492MOL0     N67810   6.172   5.888  10.102 -0.3300  0.2323 -0.0743
  492MOL0     C67811   6.056   6.428   9.014  0.5341 -0.3815  1.4863
  492MOL0     C67812   6.046   6.454   8.873  0.6559 -0.9044  0.6741
  492MOL0     C67813   6.119   6.678   8.480 -0.4514  0.3525 -0.3979
  492MOL0     C67814   6.072   6.576   8.397 -0.3578 -0.4801  0.1885
  492MOL0     C67815   6.035   6.595   8.263  0.5693 -0.5129  0.1699
  492MOL0     C67816   6.048   6.716   8.203 -0.3052 -0.0998  1.0703
  492MOL0     O67817   5.989   6.726   8.073  0.9365  0.0450 -0.3758
  492MOL0     C67818   6.052   6.833   8.011 -1.0838 -0.0984  0.2878
  492MOL0     C67819   6.010   6.857   7.867  0.7505 -0.4791 -0.0470
  492MOL0     C67820   5.863   6.874   7.862  0.9207 -0.8277  0.6848
  492MOL0     C67821   5.832   7.015   7.800 -0.1763  0.4093  0.4907
  492MOL0     C67822   5.871   7.116   7.890  0.3407  0.1794  0.3200
  492MOL0     C67823   5.893   7.197   7.981  0.5344  1.1043 -0.4151
  492MOL0     C67824   6.098   6.819   8.287 -0.5826  0.7976 -0.3760
  492MOL0     C67825   6.137   6.805   8.423 -0.3755 -0.6961  0.0828
  492MOL0     C67826   6.187   6.932   8.498  0.4102 -0.9487  0.1342
  492MOL0     H67827   6.366   6.432   8.761  0.9932  1.7535 -0.1514
  492MOL0     H67828   6.395   6.376   8.996  0.7076 -0.0990 -3.1172
  492MOL0     H67829   6.136   6.534   9.299  0.5529  1.4417  2.2926
  492MOL0     H67830   6.304   6.559   9.254 -1.7340  0.2608 -1.7985
  492MOL0     H67831   6.385   6.420   9.436 -0.3944 -1.7961 -3.1742
  492MOL0     H67832   6.270   6.534   9.485  1.2934  2.7059 -2.3018
  492MOL0     H67833   6.086   6.381   9.495  0.3297 -1.6090  2.2072
  492MOL0     H67834   6.180   6.245   9.423 -1.7246 -2.2327  1.3880
  492MOL0     H67835   6.326   6.202   9.601  1.2894  1.1869  0.7973
  492MOL0     H67836   6.289   6.355   9.676  2.5120 -1.2802 -0.0342
  492MOL0     H67837   6.099   6.125   9.615 -1.7478  0.3261  2.0489
  492MOL0     H67838   6.060   6.260   9.720 -3.9158  0.0761 -6.6640
  492MOL0     H67839   6.107   6.044   9.848 -0.9010  0.3805  0.2697
  492MOL0     H67840   6.272   6.048   9.780  0.2449  0.9669 -0.9999
  492MOL0     H67841   6.158   6.251   9.973 -2.2847 -3.5363 -0.0943
  492MOL0     H67842   6.311   6.275   9.887 -2.4073  1.9513 -1.3110
  492MOL0     H67843   6.384   6.046  10.009 -1.4467 -2.6145  1.0778
  492MOL0     H67844   6.345   6.168  10.118  0.1184 -0.1824 -0.8480
  492MOL0     H67845   6.100   6.178  10.210  1.6063 -1.4557  1.8552
  492MOL0     H67846   5.790   5.949  10.249  2.2017 -3.0652 -0.6782
  492MOL0     H67847   5.874   6.096  10.306 -2.4003 -0.1005  1.3929
  492MOL0     H67848   5.945   5.818  10.410 -4.1883 -2.3558  2.5490
  492MOL0     H67849   6.005   5.985  10.457 -1.1512  1.9782 -1.7932
  492MOL0     H67850   5.857   5.891  10.619  0.3434 -2.0532 -0.4020
  492MOL0     H67851   5.771   6.025  10.550  0.5851 -0.6074 -0.1977
  492MOL0     H67852   5.595   5.860  10.546  0.5442  0.3703  1.1213
  492MOL0     H67853   5.663   5.854  10.377 -0.1716 -0.6903 -0.4732
  492MOL0     H67854   5.859   5.488  10.487 -1.4040  1.9353 -1.1148
  492MOL0     H67855   5.943   5.255  10.728 -2.0362  3.5575  3.3785
  492MOL0     H67856   6.082   5.363  10.694  1.5281 -3.7339  0.0430
  492MOL0     H67857   5.976   5.317  10.561 -0.4879  0.4358 -0.3854
  492MOL0     H67858   6.071   5.370  11.187  1.3555 -5.3484  0.9385
  492MOL0     H67859   6.090   5.340  11.398  0.4105 -3.1458 -0.7915
  492MOL0     H67860   5.874   5.116  11.595  0.5950 -0.1824 -1.2748
  492MOL0     H67861   6.042   5.177  11.597 -1.4436 -3.7461 -0.3293
  492MOL0     H67862   5.919   5.272  11.841 -2.0807 -0.5501  2.6156
  492MOL0     H67863   5.800   5.159  11.784  0.7378  0.5326 -0.8369
  492MOL0     H67864   6.088   5.082  11.844 -0.1058  1.0039  2.9293
  492MOL0     H67865   5.949   4.979  11.790  0.5274  0.0732  0.1925
  492MOL0     H67866   5.831   5.030  11.996 -0.2234  1.2056 -0.7714
  492MOL0     H67867   5.959   5.137  12.045  1.5630 -1.5075 -0.5548
  492MOL0     H67868   5.981   4.818  12.005  0.8136 -0.8174  0.9481
  492MOL0     H67869   6.115   4.921  12.039  0.1662 -1.2242  0.8392
  492MOL0     H67870   5.882   4.927  12.230 -0.1527  0.8397 -0.6021
  492MOL0     H67871   6.045   4.957  12.267  0.2549  0.2060  0.1809
  492MOL0     H67872   5.922   4.687  12.193  2.3466 -0.8067 -1.8208
  492MOL0     H67873   5.959   4.746  12.357 -0.7361  1.4019 -0.4657
  492MOL0     H67874   6.213   4.751  12.282 -0.7306  1.5055 -1.8103
  492MOL0     H67875   6.165   4.688  12.130  1.9071 -0.0983  0.1850
  492MOL0     H67876   5.668   5.388  11.475 -0.7760  0.9802 -2.4752
  492MOL0     H67877   5.643   5.410  11.230  0.0813 -0.8335 -0.3897
  492MOL0     H67878   5.752   5.634  10.946  0.6865 -0.2983  1.0842
  492MOL0     H67879   5.672   5.760  10.775 -0.7250 -1.8059  2.6939
  492MOL0     H67880   5.960   6.426   9.065  0.6818  1.4635  1.8948
  492MOL0     H67881   5.948   6.466   8.829  2.1482  1.4841 -2.4075
  492MOL0     H67882   6.051   6.473   8.422 -0.0363 -0.2781  1.3694
  492MOL0     H67883   5.995   6.513   8.204 -0.2503  0.9242 -1.3656
  492MOL0     H67884   6.043   6.919   8.077  3.5742 -1.6434  3.4401
  492MOL0     H67885   6.159   6.814   8.015 -0.7524  1.7906  1.8420
  492MOL0     H67886   6.038   6.766   7.813  0.3117  0.3356 -1.7243
  492MOL0     H67887   6.085   6.928   7.830  0.8094 -0.0023  0.9685
  492MOL0     H67888   5.830   6.792   7.798  3.1724 -0.9835 -0.3739
  492MOL0     H67889   5.806   6.852   7.952 -0.8730  3.5392  0.8880
  492MOL0     H67890   5.725   7.026   7.782 -0.1562  1.2362  0.8132
  492MOL0     H67891   5.873   7.014   7.699 -3.1664 -4.6950 -1.0239
  492MOL0     H67892   5.909   7.286   8.039 -1.3420  1.2135  0.0306
  492MOL0     H67893   6.112   6.923   8.259 -0.4118  0.2918 -2.3271
  492MOL0     H67894   6.102   6.999   8.512 -0.0940 -1.3045 -1.1215
  492MOL0     H67895   6.240   6.914   8.592  1.3042  0.6607 -0.0155
  492MOL0     H67896   6.270   6.974   8.440 -0.0114  1.5638  1.2164
  493MOL0     O67897   1.241   9.583   4.898 -0.0460 -0.7363 -0.1592
  493MOL0     C67898   1.122   9.584   4.870  0.4121 -0.3637  0.1553
  493MOL0     O67899   1.043   9.687   4.872 -0.1400  0.2099  0.6770
  493MOL0     C67900   1.098   9.804   4.903  0.6117  0.4341 -0.5412
  493MOL0     C67901   1.038   9.873   5.013 -0.3766  0.5978  0.3378
  493MOL0     C67902   1.073  10.002   5.045 -0.7258  0.6481  0.0006
  493MOL0     C67903   1.164  10.067   4.969  0.0303  0.3444 -0.4170
  493MOL0     O67904   1.213  10.191   4.995  0.7763  0.4431 -0.6790
  493MOL0     C67905   1.123  10.291   5.063  0.7657  0.2479 -0.1043
  493MOL0     C67906   1.191  10.432   5.044  0.4590  0.8751 -0.0945
  493MOL0     C67907   1.096  10.522   5.120  0.0977 -0.2317 -0.2431
  493MOL0     C67908   1.117  10.672   5.086  0.6522  0.2469 -0.1963
  493MOL0     C67909   1.033  10.757   5.188  0.1300 -1.4304 -0.0284
  493MOL0     C67910   0.914  10.823   5.127  0.2066  0.3563  0.7099
  493MOL0     C67911   0.849  10.928   5.216 -0.5439 -0.2097  0.3952
  493MOL0     C67912   0.797  11.041   5.119 -0.1899 -0.2263 -0.8828
  493MOL0     N67913   0.674  11.097   5.162 -0.4368 -0.9983 -0.6545
  493MOL0     C67914   0.650  11.190   5.257  0.6331 -0.8272  0.7520
  493MOL0     C67915   0.518  11.205   5.278  0.8885 -1.1345 -0.4341
  493MOL0     C67916   0.461  11.295   5.396  0.2951  0.2118  0.1891
  493MOL0     C67917   0.315  11.306   5.395  0.0830  0.5321 -0.2912
  493MOL0     C67918   0.273  11.432   5.479 -0.0588  0.0635 -0.3933
  493MOL0     C67919   0.120  11.459   5.488  0.3512  0.0798 -0.6663
  493MOL0     O67920   0.082  11.510   5.355  0.4835  0.0535 -0.3933
  493MOL0     C67921  -0.051  11.530   5.326  0.3501 -0.6421 -0.3616
  493MOL0     C67922  -0.139  11.584   5.422 -0.1282 -0.1569 -0.4747
  493MOL0     C67923  -0.271  11.619   5.394  0.0400  0.8000 -0.0998
  493MOL0     C67924  -0.351  11.679   5.511  0.3494  0.8417 -0.4937
  493MOL0     C67925  -0.327  11.578   5.270 -0.0197 -0.2199  0.8624
  493MOL0     C67926  -0.469  11.589   5.225  1.1541  0.4857 -0.4071
  493MOL0     O67927  -0.494  11.550   5.100  0.3923  0.3296 -0.5631
  493MOL0     C67928  -0.626  11.567   5.050 -1.4959 -0.7572 -0.9466
  493MOL0     C67929  -0.690  11.683   5.017 -0.5954  0.1122 -0.5235
  493MOL0     C67930  -0.818  11.683   4.963 -0.2287  0.1039  0.5228
  493MOL0     C67931  -0.876  11.557   4.941  0.5679 -0.7743  0.3199
  493MOL0     O67932  -0.994  11.545   4.874 -0.1184 -0.1354  0.2670
  493MOL0     C67933  -1.064  11.658   4.818 -0.1672 -0.7182  1.2904
  493MOL0     C67934  -1.192  11.628   4.745 -0.3038  0.5855  0.7581
  493MOL0     C67935  -1.176  11.622   4.590 -0.0549 -0.3946  0.0752
  493MOL0     C67936  -1.302  11.550   4.530  0.4051 -1.7059  0.5036
  493MOL0     C67937  -1.433  11.635   4.573 -0.0631 -0.7396  0.9919
  493MOL0     C67938  -1.529  11.546   4.647  0.5215 -0.4933 -0.2252
  493MOL0     C67939  -1.649  11.623   4.699 -0.0050 -0.4350 -0.1137
  493MOL0     C67940  -1.750  11.658   4.588  0.5093  0.3080 -0.6659
  493MOL0    Cl67941  -1.801  11.525   4.482 -0.2580  0.2545 -0.2900
  493MOL0     C67942  -0.803  11.440   4.953 -0.9553  0.6952 -0.5422
  493MOL0     C67943  -0.684  11.451   5.022  0.0411 -0.3453  0.1086
  493MOL0     O67944  -0.560  11.616   5.306 -0.2503  0.4110 -1.3557
  493MOL0     C67945  -0.234  11.533   5.166  0.3544 -0.6200 -0.0474
  493MOL0     C67946  -0.105  11.506   5.201  0.4592 -0.5140 -1.1512
  493MOL0     N67947   0.452  11.122   5.186 -0.7400  0.5847  0.4940
  493MOL0     N67948   0.550  11.064   5.130  0.4554  0.0816  0.4659
  493MOL0     C67949   1.236   9.999   4.867  0.1549  0.2048  0.4659
  493MOL0     C67950   1.201   9.864   4.833 -0.2020 -0.7740  0.0653
  493MOL0     C67951   1.065   9.456   4.841 -0.5429  0.6357  0.0385
  493MOL0     C67952   1.067   9.354   4.936  0.0472 -0.1765 -0.1175
  493MOL0     C67953   1.024   9.227   4.899 -0.7367 -0.3188 -1.0333
  493MOL0     C67954   0.963   9.205   4.777 -0.3844  0.6305  0.4616
  493MOL0     O67955   0.904   9.077   4.753  0.2748 -0.2410  0.0545
  493MOL0     C67956   0.961   8.998   4.644  0.7412 -0.4769  0.2742
  493MOL0     C67957   0.858   8.894   4.614 -0.6674 -0.6081 -1.4203
  493MOL0     C67958   0.886   8.771   4.700 -0.3996 -0.0918 -0.0471
  493MOL0     C67959   0.780   8.660   4.682 -0.3871 -0.1976  1.2886
  493MOL0     C67960   0.654   8.714   4.732  0.5327  0.6045  1.1289
  493MOL0     C67961   0.553   8.763   4.767  1.9726 -0.4810 -0.0145
  493MOL0     C67962   0.964   9.301   4.680 -0.3287 -0.8217 -0.2777
  493MOL0     C67963   1.015   9.433   4.706 -0.2689  0.8374 -0.7527
  493MOL0     C67964   1.021   9.534   4.605 -0.1684 -0.9387 -0.3420
  493MOL0     H67965   0.964   9.827   5.079 -0.5134  2.6173  1.6930
  493MOL0     H67966   1.038  10.047   5.138 -2.1641  1.2208 -0.7906
  493MOL0     H67967   1.104  10.261   5.167  3.2044 -0.3277  0.2352
  493MOL0     H67968   1.030  10.276   5.008  1.5276 -2.7386 -0.7104
  493MOL0     H67969   1.289  10.431   5.091  0.6220 -2.1282 -0.3370
  493MOL0     H67970   1.197  10.456   4.938 -2.6495  0.9251 -0.3752
  493MOL0     H67971   0.991  10.491   5.109 -0.1195 -0.2288  1.5080
  493MOL0     H67972   1.106  10.511   5.228 -0.4900  0.2651 -0.1307
  493MOL0     H67973   1.223  10.691   5.106  0.5684  0.6416 -0.1099
  493MOL0     H67974   1.097  10.702   4.983 -0.3479 -0.4151 -0.2096
  493MOL0     H67975   1.092  10.829   5.245  1.7572 -2.1240 -0.7787
  493MOL0     H67976   0.991  10.690   5.263 -0.4675  0.4245  1.3839
  493MOL0     H67977   0.936  10.866   5.029 -0.5030 -0.3859  0.2143
  493MOL0     H67978   0.845  10.742   5.103  0.7530 -0.1804  0.9151
  493MOL0     H67979   0.927  10.961   5.285  0.6894 -2.0100 -0.0704
  493MOL0     H67980   0.757  10.893   5.264 -1.2664  2.0175  0.7817
  493MOL0     H67981   0.871  11.123   5.123  0.2753 -0.6789  0.4316
  493MOL0     H67982   0.787  11.021   5.013 -2.0048  1.0320 -0.9861
  493MOL0     H67983   0.730  11.247   5.304 -0.2019 -0.2239  1.4774
  493MOL0     H67984   0.504  11.395   5.395 -1.7397  1.1394  0.1750
  493MOL0     H67985   0.501  11.247   5.486  1.4498  2.8004  1.1517
  493MOL0     H67986   0.290  11.318   5.289 -0.3221 -0.2541 -0.2947
  493MOL0     H67987   0.276  11.211   5.433 -1.0126  0.6704 -1.0311
  493MOL0     H67988   0.302  11.411   5.582 -1.4543 -0.2814 -0.0507
  493MOL0     H67989   0.334  11.519   5.454  2.0424 -1.1036  0.4071
  493MOL0     H67990   0.060  11.370   5.506  1.1760 -0.7207 -1.7244
  493MOL0     H67991   0.098  11.542   5.555  1.4400  0.9835 -1.3853
  493MOL0     H67992  -0.103  11.617   5.519  3.0397  0.3442 -1.7049
  493MOL0     H67993  -0.415  11.596   5.543 -1.3366  1.9000 -0.9619
  493MOL0     H67994  -0.410  11.766   5.481 -1.7145 -0.8417 -1.5592
  493MOL0     H67995  -0.279  11.709   5.588  1.1605  1.8256 -1.6016
  493MOL0     H67996  -0.649  11.783   5.031 -0.5400 -0.1716  1.6580
  493MOL0     H67997  -0.862  11.780   4.942  1.9613  0.7360 -1.7056
  493MOL0     H67998  -1.074  11.707   4.916  1.2996 -1.4771  1.8488
  493MOL0     H67999  -1.006  11.721   4.751 -3.3780  1.3864  0.2755
  493MOL0     H68000  -1.244  11.539   4.781 -0.5782 -0.4360 -1.9421
  493MOL0     H68001  -1.253  11.711   4.783  0.0095 -0.3776  3.6673
  493MOL0     H68002  -1.095  11.554   4.564  0.9890  1.5294 -2.0689
  493MOL0     H68003  -1.135  11.706   4.533 -1.2710 -1.0629 -1.8974
  493MOL0     H68004  -1.321  11.454   4.577  0.1704 -2.4564 -1.0775
  493MOL0     H68005  -1.288  11.529   4.424  2.2628  1.4149 -0.0019
  493MOL0     H68006  -1.405  11.723   4.632 -1.1990  1.8061 -1.9866
  493MOL0     H68007  -1.471  11.683   4.482  0.8923  0.3667  1.1454
  493MOL0     H68008  -1.469  11.512   4.732  2.1649 -1.3396 -1.6760
  493MOL0     H68009  -1.560  11.461   4.586  2.9725 -0.9364 -0.9492
  493MOL0     H68010  -1.605  11.714   4.739  1.4114 -0.8005 -0.7723
  493MOL0     H68011  -1.682  11.564   4.785 -1.2134 -1.0768 -0.9796
  493MOL0     H68012  -1.716  11.736   4.519 -0.0180 -0.9302 -2.3895
  493MOL0     H68013  -1.847  11.695   4.624  0.3205  1.1578 -2.0036
  493MOL0     H68014  -0.852  11.355   4.906  0.4831 -0.1466 -0.5631
  493MOL0     H68015  -0.633  11.359   5.052  3.0443  1.2860  0.3915
  493MOL0     H68016  -0.264  11.505   5.066  0.4052  1.6221 -0.7373
  493MOL0     H68017  -0.039  11.464   5.126  1.4918 -0.2975 -0.3774
  493MOL0     H68018   1.311  10.061   4.818 -1.9588  2.7221  0.1509
  493MOL0     H68019   1.250   9.811   4.751  1.7269  3.2420 -1.6630
  493MOL0     H68020   1.101   9.382   5.035  1.2507 -1.3210 -0.1902
  493MOL0     H68021   1.033   9.150   4.975  0.8932  0.9659  0.1194
  493MOL0     H68022   0.973   9.065   4.558 -1.7197  1.0618  1.0240
  493MOL0     H68023   1.058   8.956   4.673  1.6577  0.5945 -1.1008
  493MOL0     H68024   0.869   8.876   4.507  1.6340 -0.5546 -1.2324
  493MOL0     H68025   0.757   8.933   4.634  0.7882  3.4547 -1.1285
  493MOL0     H68026   0.987   8.732   4.685 -0.0607  0.0062  1.7561
  493MOL0     H68027   0.893   8.794   4.806 -2.3129  1.9376 -0.3001
  493MOL0     H68028   0.816   8.582   4.749  0.1372 -0.3425  0.8423
  493MOL0     H68029   0.785   8.613   4.583  2.5176 -1.7184  2.0458
  493MOL0     H68030   0.473   8.823   4.807  2.6427 -1.2693  2.6881
  493MOL0     H68031   0.934   9.275   4.579  1.1946  0.6272 -1.1597
  493MOL0     H68032   1.121   9.577   4.608 -0.1306 -0.9242  4.2556
  493MOL0     H68033   1.015   9.498   4.501 -0.8999  2.7637 -1.7278
  493MOL0     H68034   0.941   9.606   4.625 -3.4689 -4.7469  1.7844
  494MOL0     O68035   5.150  11.123   6.282 -0.5125 -0.3948  0.8662
  494MOL0     C68036   5.142  11.156   6.402 -0.2926  0.3776  1.2105
  494MOL0     O68037   5.044  11.121   6.488  0.5086 -0.2095  0.0807
  494MOL0     C68038   4.916  11.091   6.434 -0.3746 -0.2596 -0.2732
  494MOL0     C68039   4.827  11.190   6.391 -0.5744 -1.2186 -0.5538
  494MOL0     C68040   4.699  11.155   6.352  0.7286 -0.1789  0.2301
  494MOL0     C68041   4.642  11.031   6.372 -0.4624  0.0717  0.8823
  494MOL0     O68042   4.509  10.988   6.349  0.1957 -0.3628 -0.5559
  494MOL0     C68043   4.418  11.100   6.322 -0.0723  0.3617  0.5220
  494MOL0     C68044   4.277  11.044   6.318 -0.3870 -0.2918 -1.0093
  494MOL0     C68045   4.218  11.031   6.460  0.0015  0.5673 -0.2480
  494MOL0     C68046   4.086  10.949   6.442 -0.8600 -1.1066  0.8380
  494MOL0     C68047   4.026  10.936   6.586  0.4361  0.1485 -0.4626
  494MOL0     C68048   3.877  10.905   6.592 -0.3388  0.3874 -0.2994
  494MOL0     C68049   3.808  10.911   6.733  0.9613 -0.2860  0.0390
  494MOL0     C68050   3.661  10.854   6.721  1.1341 -0.8352 -0.2674
  494MOL0     N68051   3.579  10.938   6.626  0.4469 -1.0812 -0.2727
  494MOL0     C68052   3.518  11.057   6.661  0.0027 -0.4593 -0.0444
  494MOL0     C68053   3.436  11.094   6.558  0.6129  0.2099  0.3890
  494MOL0     C68054   3.369  11.230   6.550 -0.6417 -0.0540  0.6029
  494MOL0     C68055   3.306  11.242   6.408  0.5977  1.0210 -0.2305
  494MOL0     C68056   3.414  11.285   6.304  0.2814  0.4962 -0.1181
  494MOL0     C68057   3.364  11.345   6.176 -0.3036 -0.3527 -0.3374
  494MOL0     O68058   3.472  11.418   6.111  0.9223 -0.2602 -0.4706
  494MOL0     C68059   3.427  11.519   6.031  0.2615  0.8815  1.1939
  494MOL0     C68060   3.321  11.496   5.935 -0.4558 -0.2625 -0.3481
  494MOL0     C68061   3.285  11.591   5.838 -0.7727  0.4229 -0.0296
  494MOL0     C68062   3.166  11.572   5.746  0.1835  0.0830  1.0335
  494MOL0     C68063   3.351  11.715   5.828  0.3031 -0.7659 -0.0160
  494MOL0     C68064   3.325  11.814   5.723 -0.1092 -0.3581  0.2320
  494MOL0     O68065   3.424  11.832   5.635  0.5780 -1.1135  0.1121
  494MOL0     C68066   3.400  11.922   5.536 -0.4159 -0.3002 -1.0292
  494MOL0     C68067   3.303  11.912   5.434  0.3213 -0.8474 -0.0169
  494MOL0     C68068   3.301  12.010   5.338  0.7909 -0.0558  0.0058
  494MOL0     C68069   3.383  12.125   5.342 -0.6114  0.4088 -0.4952
  494MOL0     O68070   3.362  12.225   5.251  0.3186  0.4971  0.2422
  494MOL0     C68071   3.474  12.308   5.217 -0.6117 -0.3481  0.9600
  494MOL0     C68072   3.475  12.371   5.076 -0.2506  0.1279 -0.5106
  494MOL0     C68073   3.484  12.269   4.959 -0.3696  0.4651  0.5058
  494MOL0     C68074   3.632  12.243   4.923 -0.4702 -0.8469 -0.2327
  494MOL0     C68075   3.653  12.176   4.785  0.2686  1.2202 -0.3686
  494MOL0     C68076   3.605  12.028   4.775  0.7076  0.3343  0.1099
  494MOL0     C68077   3.597  11.993   4.625  0.2979  0.4286  0.2918
  494MOL0     C68078   3.607  11.843   4.576  0.2725  0.7998 -0.4389
  494MOL0    Cl68079   3.743  11.751   4.640 -0.2940 -0.1567 -0.7871
  494MOL0     C68080   3.468  12.131   5.453  0.5759 -0.2195 -0.4926
  494MOL0     C68081   3.485  12.029   5.545 -0.1744 -0.6592  0.0025
  494MOL0     O68082   3.230  11.895   5.745  0.3008 -0.1452 -0.2479
  494MOL0     C68083   3.457  11.738   5.917  0.0905  0.4347 -0.5492
  494MOL0     C68084   3.494  11.641   6.016 -0.8163 -0.4884  0.4666
  494MOL0     N68085   3.457  10.993   6.466  0.0750 -0.0012  0.6064
  494MOL0     N68086   3.541  10.907   6.499 -0.0816  0.4131 -0.3250
  494MOL0     C68087   4.726  10.934   6.432 -0.5842  0.5143  0.2301
  494MOL0     C68088   4.861  10.960   6.454 -0.3886  0.5522 -0.0558
  494MOL0     C68089   5.244  11.256   6.433  0.0132 -0.4150 -0.2949
  494MOL0     C68090   5.199  11.390   6.458 -1.2367  0.0438 -0.0203
  494MOL0     C68091   5.301  11.484   6.486 -1.4749  0.5822 -0.3550
  494MOL0     C68092   5.438  11.449   6.498 -0.6164  1.1706 -1.0693
  494MOL0     O68093   5.542  11.538   6.533 -0.2593  0.6367 -0.5754
  494MOL0     C68094   5.508  11.666   6.572 -0.5053  0.3148  0.4857
  494MOL0     C68095   5.637  11.749   6.587 -0.9407  0.4499  0.3370
  494MOL0     C68096   5.682  11.803   6.450 -1.5931  0.7967  0.3250
  494MOL0     C68097   5.836  11.813   6.432 -0.7872 -0.5527 -0.0032
  494MOL0     C68098   5.873  11.940   6.494 -0.5245  0.0940 -0.7122
  494MOL0     C68099   5.925  12.028   6.560 -0.3929 -0.7884 -0.0387
  494MOL0     C68100   5.477  11.320   6.467 -0.3315  0.6082 -0.4906
  494MOL0     C68101   5.379  11.223   6.435 -0.0238  0.0112  0.1501
  494MOL0     C68102   5.423  11.087   6.381  0.3105 -0.5010 -0.0857
  494MOL0     H68103   4.874  11.287   6.395 -0.1182 -1.2890 -2.9175
  494MOL0     H68104   4.625  11.229   6.321 -0.0152 -0.1921  1.8751
  494MOL0     H68105   4.440  11.139   6.222  1.1133  2.5118  1.5560
  494MOL0     H68106   4.422  11.172   6.404 -2.6143  0.0810  0.9961
  494MOL0     H68107   4.211  11.115   6.266  0.1193  0.4812 -0.6121
  494MOL0     H68108   4.279  10.946   6.269  1.9075 -1.3473  1.0542
  494MOL0     H68109   4.288  10.989   6.533 -0.8757  0.1828  0.3911
  494MOL0     H68110   4.184  11.127   6.499 -0.8189  0.8384 -1.5728
  494MOL0     H68111   4.022  11.009   6.377 -0.7812 -0.8252  1.0218
  494MOL0     H68112   4.099  10.845   6.409 -0.1181 -1.1252  1.1794
  494MOL0     H68113   4.043  11.024   6.649  2.1970 -0.4884  0.0322
  494MOL0     H68114   4.070  10.860   6.651 -2.5171 -0.0614  1.4944
  494MOL0     H68115   3.821  10.966   6.521  3.3381 -0.1961 -4.0933
  494MOL0     H68116   3.862  10.805   6.550 -3.6577  0.7918 -0.3362
  494MOL0     H68117   3.819  11.002   6.792  0.1798 -2.5911  4.1251
  494MOL0     H68118   3.865  10.839   6.793 -0.2231  0.0897  1.6704
  494MOL0     H68119   3.660  10.752   6.682 -2.5388 -1.5462  1.3115
  494MOL0     H68120   3.612  10.842   6.818  2.2274 -5.6721 -0.0149
  494MOL0     H68121   3.536  11.117   6.749 -0.3740  1.7267 -1.3780
  494MOL0     H68122   3.438  11.312   6.574  0.2707 -0.4250 -0.6246
  494MOL0     H68123   3.287  11.240   6.621 -0.3015  0.3192  0.9502
  494MOL0     H68124   3.255  11.148   6.385  0.2991  0.9803  0.5737
  494MOL0     H68125   3.234  11.324   6.412 -0.3044  0.5906 -4.0400
  494MOL0     H68126   3.469  11.369   6.348  0.2238  0.5032 -0.0578
  494MOL0     H68127   3.493  11.211   6.289  1.1423  1.2896  0.3661
  494MOL0     H68128   3.332  11.263   6.111 -0.6563 -0.9912  0.6057
  494MOL0     H68129   3.272  11.400   6.199 -0.8039  0.8191 -4.4238
  494MOL0     H68130   3.276  11.397   5.929 -2.7435  0.7117 -0.2508
  494MOL0     H68131   3.121  11.472   5.743 -2.1588  1.0780  0.2196
  494MOL0     H68132   3.196  11.594   5.644  1.3100 -1.0809  1.0927
  494MOL0     H68133   3.087  11.644   5.771 -0.2842  0.0089 -0.1643
  494MOL0     H68134   3.243  11.823   5.418 -1.7494  0.1399  1.7550
  494MOL0     H68135   3.250  11.994   5.244 -1.5541 -4.1978  1.7334
  494MOL0     H68136   3.468  12.388   5.291  2.9490  1.0064  0.0026
  494MOL0     H68137   3.565  12.251   5.237 -0.4711 -0.5371 -0.1681
  494MOL0     H68138   3.383  12.427   5.055  1.1279  2.4192 -0.7367
  494MOL0     H68139   3.552  12.448   5.075 -1.1744  1.0715 -0.9890
  494MOL0     H68140   3.441  12.314   4.869 -0.6622  1.6686  1.2183
  494MOL0     H68141   3.432  12.176   4.981 -1.7220  0.8787 -0.7514
  494MOL0     H68142   3.684  12.170   4.985 -0.4105  1.1817  2.2306
  494MOL0     H68143   3.677  12.343   4.922 -2.0690 -0.0852 -1.6698
  494MOL0     H68144   3.601  12.237   4.710  0.9529  1.6629 -0.4940
  494MOL0     H68145   3.758  12.167   4.756 -0.4632  0.9481 -3.2443
  494MOL0     H68146   3.507  12.015   4.822  0.7202 -0.0895  0.0215
  494MOL0     H68147   3.678  11.971   4.833  0.1833  0.7333  1.1927
  494MOL0     H68148   3.674  12.048   4.569 -0.3458 -1.4674 -2.7232
  494MOL0     H68149   3.501  12.028   4.585  0.1976  0.4579  0.5610
  494MOL0     H68150   3.618  11.843   4.468  0.4464 -0.7053 -0.4422
  494MOL0     H68151   3.509  11.801   4.601  1.0333 -0.8094 -0.0200
  494MOL0     H68152   3.520  12.227   5.454 -3.0271  1.9462  1.2224
  494MOL0     H68153   3.557  12.038   5.626  1.2959 -0.8084 -1.2385
  494MOL0     H68154   3.524  11.823   5.908 -1.5035  1.7339 -0.5749
  494MOL0     H68155   3.589  11.650   6.067 -0.7863  2.3160  0.1144
  494MOL0     H68156   4.693  10.833   6.454 -0.8234  0.3596 -0.8171
  494MOL0     H68157   4.925  10.878   6.486  2.0153  2.2369 -0.2917
  494MOL0     H68158   5.094  11.416   6.452 -2.7091 -4.2163  2.6653
  494MOL0     H68159   5.266  11.585   6.507  2.6306  2.1041  0.1840
  494MOL0     H68160   5.442  11.697   6.491  1.6256  0.9993 -1.1026
  494MOL0     H68161   5.458  11.660   6.669 -1.9026  1.0867 -0.1612
  494MOL0     H68162   5.706  11.676   6.632 -0.9636 -0.1074 -0.5068
  494MOL0     H68163   5.635  11.838   6.651  2.8569  0.1548  1.1553
  494MOL0     H68164   5.641  11.733   6.377 -1.0860  5.0550 -4.6538
  494MOL0     H68165   5.640  11.898   6.416 -0.5517  0.3962 -2.2903
  494MOL0     H68166   5.874  11.815   6.329 -0.9242  1.3352 -0.0562
  494MOL0     H68167   5.899  11.742   6.485  0.3088  0.1562 -0.3118
  494MOL0     H68168   5.974  12.090   6.632  0.5589 -0.1724 -1.1964
  494MOL0     H68169   5.584  11.302   6.464  0.0866  2.8876 -1.5176
  494MOL0     H68170   5.347  11.009   6.389 -0.8308  0.4144 -1.3917
  494MOL0     H68171   5.447  11.098   6.274  1.5884  0.9583  0.3164
  494MOL0     H68172   5.512  11.066   6.440  0.0670  2.0814  1.3650
  495MOL0     O68173   0.261   6.430   7.709  0.0301 -0.1642  0.2958
  495MOL0     C68174   0.298   6.438   7.596 -1.0454  1.1784 -0.4434
  495MOL0     O68175   0.240   6.507   7.489  0.1009  0.5932  0.4893
  495MOL0     C68176   0.124   6.575   7.518  0.3608  0.1989  0.3301
  495MOL0     C68177   0.015   6.509   7.464  0.7803 -0.5407  0.2380
  495MOL0     C68178  -0.112   6.569   7.489 -0.0104 -0.8242 -1.8582
  495MOL0     C68179  -0.121   6.688   7.567  0.9843 -1.1379 -0.5052
  495MOL0     O68180  -0.247   6.750   7.594  0.8139  0.3190  0.6229
  495MOL0     C68181  -0.251   6.840   7.702 -0.1398  0.2636  0.0487
  495MOL0     C68182  -0.387   6.880   7.751  0.5479  0.0075 -0.1857
  495MOL0     C68183  -0.427   7.024   7.734 -0.3176 -1.0669 -0.6239
  495MOL0     C68184  -0.558   7.063   7.801  0.9870  0.1257  0.2019
  495MOL0     C68185  -0.590   7.209   7.777 -0.0596 -0.9246  0.3069
  495MOL0     C68186  -0.662   7.248   7.645  0.2706  0.6704 -0.5772
  495MOL0     C68187  -0.717   7.395   7.631  1.0641  1.1352  0.1502
  495MOL0     C68188  -0.594   7.482   7.637  0.2421 -0.1136 -0.1538
  495MOL0     N68189  -0.627   7.627   7.620  0.0215  0.5575 -0.3007
  495MOL0     C68190  -0.729   7.684   7.567  0.1548  0.2707 -0.3779
  495MOL0     C68191  -0.728   7.813   7.596  0.4177 -1.2278 -0.7673
  495MOL0     C68192  -0.826   7.924   7.563 -0.1514 -0.4764  0.3649
  495MOL0     C68193  -0.848   7.945   7.419  0.2870 -0.4101  0.5627
  495MOL0     C68194  -0.940   8.073   7.401 -0.2066  0.2485 -0.0502
  495MOL0     C68195  -1.077   8.057   7.458  0.1537 -0.9768  0.4083
  495MOL0     O68196  -1.146   7.952   7.387  0.4465  0.9758 -0.7336
  495MOL0     C68197  -1.258   7.891   7.444 -0.5488 -0.4478  0.0305
  495MOL0     C68198  -1.359   7.853   7.354  0.1893 -0.2082 -0.1719
  495MOL0     C68199  -1.480   7.796   7.406  0.7628 -0.3296 -1.0670
  495MOL0     C68200  -1.575   7.733   7.310  1.1965 -0.2190  0.3194
  495MOL0     C68201  -1.513   7.795   7.545 -1.2692 -0.3172  0.0134
  495MOL0     C68202  -1.646   7.747   7.609  0.7250  0.9447  0.5060
  495MOL0     O68203  -1.652   7.764   7.746 -0.1256  0.2008 -0.2953
  495MOL0     C68204  -1.766   7.740   7.821 -0.0384  0.1654 -0.5355
  495MOL0     C68205  -1.890   7.801   7.811  0.3123 -0.2144  0.4622
  495MOL0     C68206  -2.005   7.780   7.890 -0.8247 -0.7647  0.5150
  495MOL0     C68207  -1.998   7.686   8.000 -0.3795 -0.2926  0.0631
  495MOL0     O68208  -2.088   7.658   8.099  1.0348 -0.4568  0.3247
  495MOL0     C68209  -2.197   7.752   8.119  0.1411  0.2635 -0.1486
  495MOL0     C68210  -2.164   7.859   8.222 -0.2835 -0.2147  0.0451
  495MOL0     C68211  -2.115   7.797   8.347 -0.3018  0.3013  0.5683
  495MOL0     C68212  -2.218   7.711   8.420 -0.7852 -0.0726  0.1328
  495MOL0     C68213  -2.143   7.658   8.538  0.9970 -0.2813  1.5545
  495MOL0     C68214  -2.234   7.591   8.629  0.1245 -0.1854 -0.1095
  495MOL0     C68215  -2.170   7.549   8.758 -0.1796  0.3049 -0.3612
  495MOL0     C68216  -2.111   7.654   8.851  0.0636 -0.4492 -0.5393
  495MOL0    Cl68217  -1.947   7.713   8.801 -0.0920 -0.0596 -0.0346
  495MOL0     C68218  -1.878   7.614   8.014 -0.6147  0.5564 -0.7886
  495MOL0     C68219  -1.768   7.642   7.929  1.2533 -0.2403  0.6064
  495MOL0     O68220  -1.747   7.734   7.541 -0.4681  0.7355 -0.5903
  495MOL0     C68221  -1.412   7.852   7.635 -0.7750  0.3146  0.6900
  495MOL0     C68222  -1.281   7.884   7.582  0.3655  0.0146 -0.3297
  495MOL0     N68223  -0.618   7.842   7.674  0.6562  0.3898 -0.3622
  495MOL0     N68224  -0.560   7.721   7.687  0.6714 -0.4535 -0.2255
  495MOL0     C68225  -0.005   6.747   7.620 -0.7833 -0.0553  0.3532
  495MOL0     C68226   0.114   6.681   7.605 -0.3222 -0.0592  0.1676
  495MOL0     C68227   0.425   6.371   7.556 -0.8219  0.8261 -0.0742
  495MOL0     C68228   0.467   6.363   7.421  0.7676 -0.2894  0.1277
  495MOL0     C68229   0.586   6.306   7.377 -0.4272  1.0968 -0.9002
  495MOL0     C68230   0.664   6.234   7.469 -0.4442 -0.8017  0.0924
  495MOL0     O68231   0.765   6.161   7.416  0.4144 -0.0236  0.1187
  495MOL0     C68232   0.771   6.025   7.479 -0.5892  0.0473 -0.2742
  495MOL0     C68233   0.852   5.923   7.393 -0.5038 -0.5491  0.8348
  495MOL0     C68234   0.786   5.877   7.254  0.0299 -0.5854 -1.0005
  495MOL0     C68235   0.880   5.780   7.180 -0.4796  0.3283 -0.8087
  495MOL0     C68236   0.836   5.767   7.043 -0.5260  0.7442  0.1051
  495MOL0     C68237   0.818   5.742   6.925 -0.5057  0.2770 -0.0241
  495MOL0     C68238   0.628   6.228   7.604  0.5163 -0.5164 -0.1051
  495MOL0     C68239   0.512   6.290   7.648  0.0356 -0.6003 -0.6850
  495MOL0     C68240   0.476   6.251   7.794 -0.5484 -1.1271  0.0285
  495MOL0     H68241   0.018   6.420   7.403  1.2143  0.2079 -0.8635
  495MOL0     H68242  -0.206   6.529   7.451  0.4789 -1.8324 -2.0289
  495MOL0     H68243  -0.194   6.930   7.675  0.2725  0.3356  1.1002
  495MOL0     H68244  -0.200   6.792   7.785  2.3616  0.1406 -1.4729
  495MOL0     H68245  -0.456   6.811   7.700  2.9827 -2.7473 -0.0328
  495MOL0     H68246  -0.394   6.857   7.858 -2.7270 -0.6610 -0.4185
  495MOL0     H68247  -0.353   7.087   7.783 -0.6077  0.1376 -1.6901
  495MOL0     H68248  -0.420   7.047   7.628  2.3003 -0.3589 -0.3620
  495MOL0     H68249  -0.639   6.996   7.768  0.4960 -0.0310  1.6755
  495MOL0     H68250  -0.551   7.030   7.905  1.8431 -1.4219 -0.3173
  495MOL0     H68251  -0.493   7.258   7.786 -0.4192  0.1233 -1.1499
  495MOL0     H68252  -0.657   7.251   7.854 -0.4053 -2.1396  0.6954
  495MOL0     H68253  -0.595   7.236   7.560  2.2516  1.4418  0.7857
  495MOL0     H68254  -0.742   7.176   7.625  1.3127 -1.3504  1.9570
  495MOL0     H68255  -0.782   7.416   7.717  1.2302 -0.6010  0.7531
  495MOL0     H68256  -0.756   7.411   7.531  3.9907  1.3156 -1.0709
  495MOL0     H68257  -0.541   7.471   7.732 -2.1858  2.7923  1.7284
  495MOL0     H68258  -0.530   7.443   7.557  0.0264 -1.3381  0.2468
  495MOL0     H68259  -0.805   7.629   7.512 -0.7989  0.5155  0.6463
  495MOL0     H68260  -0.819   8.019   7.616 -2.3797 -0.3803  0.5889
  495MOL0     H68261  -0.914   7.877   7.609  0.1471 -2.5261 -1.0139
  495MOL0     H68262  -0.750   7.965   7.373  1.6491 -1.0849  2.9824
  495MOL0     H68263  -0.902   7.862   7.371  0.0106 -1.4220  2.5330
  495MOL0     H68264  -0.887   8.153   7.453  0.7810 -1.4808  1.7393
  495MOL0     H68265  -0.960   8.105   7.298 -1.9897 -0.5630  0.0000
  495MOL0     H68266  -1.075   8.049   7.568  2.1932 -2.5377  0.3180
  495MOL0     H68267  -1.132   8.146   7.426 -0.8971 -1.2123  1.4693
  495MOL0     H68268  -1.347   7.864   7.246  0.8094  1.9309  0.0671
  495MOL0     H68269  -1.658   7.804   7.304  0.4793 -0.8996  1.8384
  495MOL0     H68270  -1.614   7.638   7.344 -0.7906  0.7637  0.9332
  495MOL0     H68271  -1.525   7.708   7.216  2.3013 -1.4107  1.1934
  495MOL0     H68272  -1.885   7.874   7.731 -1.8885  0.9934  1.3251
  495MOL0     H68273  -2.091   7.843   7.873  1.8960  3.1730  0.0063
  495MOL0     H68274  -2.233   7.803   8.029 -0.9952  0.5156  0.4387
  495MOL0     H68275  -2.289   7.703   8.153  0.8841 -0.1052  1.4151
  495MOL0     H68276  -2.092   7.931   8.182  0.2657 -2.4078 -3.2913
  495MOL0     H68277  -2.254   7.916   8.246 -0.7799 -0.2858 -1.5107
  495MOL0     H68278  -2.089   7.885   8.406  0.0237  0.7072 -0.1831
  495MOL0     H68279  -2.029   7.731   8.336 -2.3245 -2.2181 -1.6294
  495MOL0     H68280  -2.240   7.632   8.349 -2.1727  2.3679 -2.3469
  495MOL0     H68281  -2.307   7.767   8.449 -0.7920 -0.4172  0.7912
  495MOL0     H68282  -2.069   7.587   8.499 -1.2629 -1.5831 -0.6462
  495MOL0     H68283  -2.079   7.731   8.589  0.9728 -0.4560  1.8400
  495MOL0     H68284  -2.289   7.504   8.591  0.5371 -1.0731  1.2373
  495MOL0     H68285  -2.313   7.661   8.658  1.1269  0.2988  1.5384
  495MOL0     H68286  -2.087   7.481   8.734  0.2726  0.4068  0.8200
  495MOL0     H68287  -2.242   7.491   8.817  1.1416 -2.3503 -1.2060
  495MOL0     H68288  -2.096   7.603   8.946 -3.6839 -0.1985  0.3301
  495MOL0     H68289  -2.187   7.732   8.861 -1.3728 -1.7960 -0.5526
  495MOL0     H68290  -1.879   7.530   8.083 -3.1822 -1.6655 -3.3045
  495MOL0     H68291  -1.671   7.596   7.946  0.8556 -1.7875 -1.0153
  495MOL0     H68292  -1.421   7.844   7.743 -1.4542 -1.1895  0.5514
  495MOL0     H68293  -1.206   7.915   7.655 -0.8918 -2.6421  2.3176
  495MOL0     H68294   0.000   6.836   7.682  3.1589  1.7596 -2.2062
  495MOL0     H68295   0.207   6.718   7.645  0.6396 -2.2186  0.0553
  495MOL0     H68296   0.411   6.418   7.346  0.2431 -0.6859  0.2239
  495MOL0     H68297   0.624   6.300   7.276  1.5207  0.7089 -0.1923
  495MOL0     H68298   0.833   6.028   7.570 -1.1987 -1.2157  0.2099
  495MOL0     H68299   0.675   5.980   7.503 -0.0469 -0.3425  1.3578
  495MOL0     H68300   0.856   5.831   7.452 -2.2670 -0.5326  1.0445
  495MOL0     H68301   0.947   5.973   7.375 -0.6174 -1.0386 -1.4061
  495MOL0     H68302   0.690   5.825   7.261  2.2774 -5.2848 -1.3774
  495MOL0     H68303   0.786   5.970   7.195  1.9030  1.1973  1.5690
  495MOL0     H68304   0.882   5.681   7.227 -0.0859  0.2239 -1.0431
  495MOL0     H68305   0.984   5.813   7.184 -0.3050 -0.3109  0.1784
  495MOL0     H68306   0.811   5.707   6.824  2.4700  0.6454 -0.4523
  495MOL0     H68307   0.691   6.167   7.668  3.3103 -1.5347 -3.5890
  495MOL0     H68308   0.380   6.199   7.796  1.3841 -5.0333  0.1387
  495MOL0     H68309   0.556   6.187   7.831 -0.9573 -2.1313 -0.7636
  495MOL0     H68310   0.469   6.348   7.844  3.3135  0.0903 -1.4248
  496MOL0     O68311  10.300   9.550   3.680  0.5886  0.2806  0.0928
  496MOL0     C68312  10.401   9.565   3.617  0.0535 -0.0420  0.8624
  496MOL0     O68313  10.400   9.575   3.484 -0.1983 -0.0772 -0.2566
  496MOL0     C68314  10.289   9.564   3.407  0.2321 -0.4620  0.5151
  496MOL0     C68315  10.260   9.441   3.343  0.0587 -0.4071 -0.6644
  496MOL0     C68316  10.135   9.421   3.286 -0.3053  0.6152 -0.3778
  496MOL0     C68317  10.044   9.522   3.266  0.3170 -0.7815 -0.4179
  496MOL0     O68318   9.921   9.490   3.210 -0.0877  0.7603  0.6613
  496MOL0     C68319   9.932   9.468   3.065  0.3123 -0.1566  0.5764
  496MOL0     C68320   9.827   9.557   2.995 -0.0676 -0.3807  0.1539
  496MOL0     C68321   9.681   9.506   3.034 -1.3996 -0.8452  0.4257
  496MOL0     C68322   9.589   9.624   3.048  0.2820  0.5319  0.1364
  496MOL0     C68323   9.438   9.584   3.077  0.2467 -0.3609 -0.2549
  496MOL0     C68324   9.337   9.660   2.988 -0.0923 -0.3499  0.1222
  496MOL0     C68325   9.199   9.603   2.997  0.0716 -0.1837  0.2129
  496MOL0     C68326   9.196   9.447   2.976  0.4257 -0.0963 -1.1738
  496MOL0     N68327   9.239   9.375   2.856  0.1995 -0.2437 -0.0170
  496MOL0     C68328   9.153   9.342   2.749 -0.2522 -0.7436  0.7569
  496MOL0     C68329   9.227   9.271   2.660 -0.5533 -0.3680  0.0970
  496MOL0     C68330   9.183   9.202   2.544  0.2922  0.2831  0.2674
  496MOL0     C68331   9.269   9.074   2.503 -0.2872  0.1513 -1.0562
  496MOL0     C68332   9.187   8.957   2.434  0.4960 -0.6009  0.3114
  496MOL0     C68333   9.073   9.006   2.348 -0.6098  0.3157 -0.1798
  496MOL0     O68334   9.036   8.900   2.255 -0.2425 -0.2495 -0.4454
  496MOL0     C68335   8.920   8.925   2.176 -0.4947 -1.4275 -0.4865
  496MOL0     C68336   8.832   9.038   2.187 -1.0939  0.0665  0.5634
  496MOL0     C68337   8.740   9.055   2.086  0.3937  0.3915 -0.6342
  496MOL0     C68338   8.675   9.192   2.099  0.0384  0.5841  0.4189
  496MOL0     C68339   8.723   8.966   1.979  0.3274 -0.8186  0.1464
  496MOL0     C68340   8.625   8.990   1.870 -0.8060  0.0532  0.6294
  496MOL0     O68341   8.568   8.875   1.810 -0.3534  0.0352  0.0239
  496MOL0     C68342   8.523   8.891   1.679  0.1396  0.9162 -1.1103
  496MOL0     C68343   8.429   8.982   1.645  0.4104 -0.4420 -0.0523
  496MOL0     C68344   8.382   9.006   1.521 -0.4663  0.0701  0.1215
  496MOL0     C68345   8.429   8.918   1.422 -0.1554 -0.1395 -0.4062
  496MOL0     O68346   8.395   8.936   1.292  0.1423 -0.1386  0.3610
  496MOL0     C68347   8.508   8.972   1.218  0.2247 -0.0786  0.1015
  496MOL0     C68348   8.486   9.117   1.159 -0.1291 -0.3502  0.5713
  496MOL0     C68349   8.486   9.226   1.267  0.8244  0.5994 -0.1679
  496MOL0     C68350   8.346   9.296   1.288 -0.8757 -0.5430 -0.0001
  496MOL0     C68351   8.366   9.371   1.420 -0.4187 -0.9312 -0.7748
  496MOL0     C68352   8.307   9.516   1.437  0.8317  0.0026  0.2704
  496MOL0     C68353   8.400   9.628   1.385 -0.0383 -0.4471 -0.3128
  496MOL0     C68354   8.353   9.775   1.395  0.4633 -0.1151  0.2288
  496MOL0    Cl68355   8.480   9.877   1.316 -0.3234 -0.1030  0.2637
  496MOL0     C68356   8.510   8.808   1.456  0.1446 -0.3232 -0.6452
  496MOL0     C68357   8.562   8.797   1.590 -1.3096 -0.5006  0.2112
  496MOL0     O68358   8.615   9.105   1.833 -1.1048  0.6633  0.1710
  496MOL0     C68359   8.806   8.854   1.970  0.3877  0.3005  0.3042
  496MOL0     C68360   8.906   8.837   2.068 -0.4830  0.5181 -0.4393
  496MOL0     N68361   9.356   9.270   2.711 -0.1676 -0.2688  0.4304
  496MOL0     N68362   9.358   9.325   2.825 -0.6139 -0.6189 -0.2722
  496MOL0     C68363  10.074   9.651   3.310  0.1359  0.0021 -0.5756
  496MOL0     C68364  10.192   9.666   3.384  1.2138 -0.2682 -0.7658
  496MOL0     C68365  10.525   9.584   3.690 -0.4406 -0.2182  0.3280
  496MOL0     C68366  10.601   9.707   3.659 -0.3705  0.3740 -0.5960
  496MOL0     C68367  10.720   9.730   3.725 -0.3133  0.0651 -0.0686
  496MOL0     C68368  10.782   9.627   3.810  0.9455 -0.4136 -0.4736
  496MOL0     O68369  10.899   9.644   3.887  0.8321 -0.6478  0.5991
  496MOL0     C68370  10.990   9.751   3.871 -0.5942  0.7871 -0.1758
  496MOL0     C68371  11.122   9.720   3.934  0.0930  0.2950  0.8868
  496MOL0     C68372  11.111   9.673   4.077 -0.4754 -0.5364 -0.9852
  496MOL0     C68373  11.240   9.608   4.141  0.3123  0.7612 -0.4802
  496MOL0     C68374  11.220   9.465   4.182  0.4918 -0.0637 -0.0037
  496MOL0     C68375  11.215   9.344   4.202  0.3931 -0.2208  0.1646
  496MOL0     C68376  10.708   9.515   3.834 -0.2685  0.0229 -0.3776
  496MOL0     C68377  10.577   9.493   3.777 -0.1940  0.3840 -0.1890
  496MOL0     C68378  10.501   9.359   3.812 -0.0092 -0.2488 -0.1791
  496MOL0     H68379  10.331   9.360   3.352  2.4447  1.6676  0.7226
  496MOL0     H68380  10.108   9.326   3.240 -3.3086  1.0649  0.1986
  496MOL0     H68381   9.911   9.361   3.050  0.4991 -0.0253 -0.7476
  496MOL0     H68382  10.029   9.489   3.018  0.6921  0.6742  1.7041
  496MOL0     H68383   9.833   9.663   3.022  4.0175 -0.3770 -0.1825
  496MOL0     H68384   9.823   9.534   2.888 -1.2720 -0.2398  0.1484
  496MOL0     H68385   9.640   9.450   2.950 -2.8545  1.5244 -0.5647
  496MOL0     H68386   9.696   9.437   3.117  3.1816  0.6183  1.1233
  496MOL0     H68387   9.625   9.698   3.119 -0.6514  0.0135  1.1705
  496MOL0     H68388   9.591   9.675   2.951  2.9221  2.2977  1.0114
  496MOL0     H68389   9.417   9.609   3.181  1.4142  0.0741 -0.1066
  496MOL0     H68390   9.437   9.476   3.066 -4.0875 -0.4665 -0.3419
  496MOL0     H68391   9.329   9.765   3.021  5.2096  0.2062  0.3600
  496MOL0     H68392   9.372   9.648   2.886 -1.2989  0.4564 -0.4095
  496MOL0     H68393   9.122   9.648   2.934 -0.7220 -0.7676  0.7471
  496MOL0     H68394   9.168   9.608   3.102 -0.2415 -3.2656  0.3684
  496MOL0     H68395   9.234   9.396   3.066  2.9442 -0.8683 -2.5857
  496MOL0     H68396   9.090   9.425   2.990  1.0938 -2.3267  1.6267
  496MOL0     H68397   9.047   9.365   2.749 -0.1167  0.9916 -3.9738
  496MOL0     H68398   9.179   9.265   2.454 -0.8787 -0.0598  0.0515
  496MOL0     H68399   9.082   9.162   2.560  0.3089  0.5200  1.0077
  496MOL0     H68400   9.343   9.102   2.428 -1.8224  0.2898 -2.5853
  496MOL0     H68401   9.325   9.035   2.588 -1.2805  3.7708  1.5105
  496MOL0     H68402   9.273   8.921   2.378  0.8358 -0.6413  0.8495
  496MOL0     H68403   9.155   8.886   2.511  1.0846  2.6298  3.8776
  496MOL0     H68404   8.987   9.054   2.397 -0.7160 -0.6312  0.5955
  496MOL0     H68405   9.101   9.089   2.283 -0.7175 -1.6642 -2.8909
  496MOL0     H68406   8.846   9.117   2.260 -0.7682  0.9549 -0.4415
  496MOL0     H68407   8.700   9.247   2.190  0.1614  2.0210 -0.4449
  496MOL0     H68408   8.567   9.175   2.088  0.6183 -3.4482 -0.6818
  496MOL0     H68409   8.722   9.253   2.021  1.7774 -0.4278  0.6164
  496MOL0     H68410   8.395   9.053   1.720 -0.1389 -4.6418  4.1316
  496MOL0     H68411   8.315   9.089   1.500 -0.7064  0.2216  1.3808
  496MOL0     H68412   8.603   8.970   1.271 -0.6382 -0.2650  1.7268
  496MOL0     H68413   8.524   8.914   1.127 -2.7620  1.3946 -1.5153
  496MOL0     H68414   8.574   9.136   1.098  0.7420 -2.4825  1.0648
  496MOL0     H68415   8.403   9.123   1.088  0.4137 -1.1078 -0.1428
  496MOL0     H68416   8.555   9.304   1.233  0.2980  0.8142 -0.7564
  496MOL0     H68417   8.517   9.181   1.362  1.4271  2.0800  0.3816
  496MOL0     H68418   8.275   9.213   1.296 -0.9422 -0.6912 -1.8443
  496MOL0     H68419   8.315   9.359   1.204  1.1655  1.9607  0.9688
  496MOL0     H68420   8.327   9.311   1.503  3.0822 -0.7184  1.2495
  496MOL0     H68421   8.471   9.375   1.452 -0.9673  0.2978  1.0856
  496MOL0     H68422   8.293   9.527   1.545 -7.0670  0.7670 -0.2291
  496MOL0     H68423   8.202   9.523   1.405 -0.2219 -4.2286  2.1689
  496MOL0     H68424   8.426   9.624   1.278 -0.6509 -2.5094 -0.4366
  496MOL0     H68425   8.493   9.616   1.441  0.6150  1.1485 -0.9981
  496MOL0     H68426   8.351   9.802   1.501  1.8934 -0.8223  0.4514
  496MOL0     H68427   8.254   9.789   1.350  0.3393 -0.9300  0.2329
  496MOL0     H68428   8.547   8.732   1.387  1.9792 -0.2645  0.2077
  496MOL0     H68429   8.632   8.718   1.613  0.4798  0.1480 -2.4757
  496MOL0     H68430   8.798   8.771   1.901  1.8844 -0.8406  1.4583
  496MOL0     H68431   8.984   8.765   2.046  2.6924  2.4143  3.3768
  496MOL0     H68432   9.991   9.721   3.309  0.0505  0.1274  2.7769
  496MOL0     H68433  10.195   9.750   3.452 -1.7146  0.8256 -1.8231
  496MOL0     H68434  10.551   9.771   3.587  0.5200 -0.7122 -2.2226
  496MOL0     H68435  10.776   9.818   3.698  0.1432  0.5270  2.1410
  496MOL0     H68436  11.010   9.776   3.766 -0.7969 -1.8359 -0.9363
  496MOL0     H68437  10.950   9.833   3.930  1.3972  0.7003  1.3883
  496MOL0     H68438  11.177   9.814   3.926 -0.5022  0.5559 -0.2076
  496MOL0     H68439  11.169   9.643   3.872 -2.6685  0.7663 -2.0278
  496MOL0     H68440  11.082   9.757   4.140  1.1694 -1.0019  0.4815
  496MOL0     H68441  11.032   9.597   4.081 -1.4462  0.5132  2.1798
  496MOL0     H68442  11.264   9.674   4.225 -1.4111  2.2599 -1.1091
  496MOL0     H68443  11.332   9.627   4.085 -0.0220  2.7537 -0.4068
  496MOL0     H68444  11.188   9.242   4.220  0.6996 -0.5352 -1.0311
  496MOL0     H68445  10.750   9.452   3.911  0.4953  2.6781  1.5559
  496MOL0     H68446  10.565   9.271   3.825  0.1697  0.0531  1.1794
  496MOL0     H68447  10.452   9.387   3.906  0.5764  1.1266 -0.2687
  496MOL0     H68448  10.426   9.336   3.736 -1.4021  0.1219  1.0269
  497MOL0     O68449   5.216   6.049   8.894 -0.1126  0.1840 -0.3492
  497MOL0     C68450   5.253   5.961   8.825 -0.0896 -0.5554  0.3793
  497MOL0     O68451   5.189   5.911   8.711 -0.4394 -0.0841 -0.3410
  497MOL0     C68452   5.080   5.978   8.654 -1.2251  0.5294  0.3496
  497MOL0     C68453   4.973   5.897   8.618  0.4585 -0.6379 -0.4206
  497MOL0     C68454   4.869   5.952   8.544  0.7711 -0.1612 -0.7681
  497MOL0     C68455   4.870   6.092   8.512 -0.8706 -0.6644  0.1889
  497MOL0     O68456   4.760   6.143   8.444  0.3910  0.1198  0.2592
  497MOL0     C68457   4.763   6.271   8.391 -0.4884 -0.5391  0.0632
  497MOL0     C68458   4.621   6.311   8.336  0.1152 -0.0155  0.7420
  497MOL0     C68459   4.612   6.455   8.284  0.1487 -0.3270 -0.2722
  497MOL0     C68460   4.475   6.476   8.231  0.5146 -0.0043 -0.1531
  497MOL0     C68461   4.427   6.615   8.239  0.4511  0.3922 -0.7819
  497MOL0     C68462   4.282   6.641   8.177 -0.2339  0.7366 -0.1627
  497MOL0     C68463   4.167   6.554   8.251  1.0138  0.5347  0.6125
  497MOL0     C68464   4.074   6.654   8.313  0.1520 -0.3373  1.0005
  497MOL0     N68465   3.949   6.604   8.379  0.2192  0.0511 -0.8218
  497MOL0     C68466   3.852   6.695   8.434 -1.0891 -0.4385  0.0880
  497MOL0     C68467   3.753   6.611   8.462 -0.1229 -0.2545 -0.5569
  497MOL0     C68468   3.620   6.661   8.504  0.2073 -0.0317 -0.6706
  497MOL0     C68469   3.539   6.718   8.390  0.1927  0.0885  0.2579
  497MOL0     C68470   3.399   6.743   8.435  0.7919 -0.2374 -0.4080
  497MOL0     C68471   3.304   6.795   8.326  0.5889  0.0075  0.1623
  497MOL0     O68472   3.283   6.684   8.237  0.1816  0.1131 -0.2499
  497MOL0     C68473   3.203   6.695   8.126 -0.1046  0.1152 -0.4530
  497MOL0     C68474   3.120   6.808   8.103 -0.4084  0.0010 -0.6426
  497MOL0     C68475   3.036   6.812   7.992 -0.2938 -0.5662 -0.0139
  497MOL0     C68476   2.932   6.920   7.992  0.9665 -0.6234  0.4726
  497MOL0     C68477   3.041   6.710   7.897 -1.2700  0.0140  0.4086
  497MOL0     C68478   2.965   6.701   7.769  0.8591  1.2470  0.7811
  497MOL0     O68479   2.834   6.735   7.765 -0.2616 -0.1327 -0.3923
  497MOL0     C68480   2.775   6.727   7.640 -1.3146 -0.2231 -0.2201
  497MOL0     C68481   2.806   6.825   7.550 -0.2753 -0.6362 -0.4160
  497MOL0     C68482   2.765   6.816   7.411  0.2112  0.0193 -0.7098
  497MOL0     C68483   2.684   6.714   7.375  0.1639 -1.5975  0.4247
  497MOL0     O68484   2.638   6.708   7.239  0.9930  0.3897 -0.0425
  497MOL0     C68485   2.682   6.797   7.139  0.1097  0.1076 -0.6625
  497MOL0     C68486   2.653   6.742   6.996  0.3078  0.5718  0.1300
  497MOL0     C68487   2.671   6.837   6.876 -0.1582 -0.6183  0.2074
  497MOL0     C68488   2.684   6.757   6.749 -0.0046 -0.1095  1.0244
  497MOL0     C68489   2.833   6.736   6.697  0.4826  0.5049  0.3421
  497MOL0     C68490   2.844   6.647   6.570 -0.7966 -1.4074  0.1219
  497MOL0     C68491   2.769   6.522   6.581  0.2979 -0.4030  0.4281
  497MOL0     C68492   2.794   6.401   6.485 -0.7569 -0.6000  0.2473
  497MOL0    Cl68493   2.733   6.439   6.320  0.2784 -0.0123 -0.6497
  497MOL0     C68494   2.642   6.622   7.472 -0.4676  0.0759  0.1004
  497MOL0     C68495   2.689   6.626   7.601 -0.6645 -0.3662  0.5929
  497MOL0     O68496   3.023   6.636   7.680 -0.3514 -0.3163 -0.3375
  497MOL0     C68497   3.125   6.601   7.923  0.6218 -1.1891  0.6233
  497MOL0     C68498   3.199   6.589   8.045  0.3409  0.6808  1.0409
  497MOL0     N68499   3.788   6.475   8.442 -0.6221  0.2930 -0.1246
  497MOL0     N68500   3.909   6.478   8.382  0.7672 -0.2144 -0.6378
  497MOL0     C68501   4.990   6.170   8.549  0.8138  0.1625  0.3509
  497MOL0     C68502   5.094   6.107   8.607 -0.6173 -0.2754 -0.4679
  497MOL0     C68503   5.376   5.888   8.874  0.1641  0.2390 -0.0700
  497MOL0     C68504   5.404   5.763   8.802  0.0409 -1.0586 -0.5383
  497MOL0     C68505   5.511   5.678   8.845 -0.2630 -0.0446 -0.7161
  497MOL0     C68506   5.599   5.713   8.947  0.5031  0.8297 -0.1328
  497MOL0     O68507   5.705   5.631   8.978  0.1199 -0.8903 -0.4392
  497MOL0     C68508   5.747   5.612   9.112  0.3907 -0.4497 -0.8146
  497MOL0     C68509   5.699   5.477   9.165  0.8078  0.2081 -0.1529
  497MOL0     C68510   5.774   5.357   9.105  0.3091  0.4229 -0.6421
  497MOL0     C68511   5.717   5.213   9.137 -0.1210 -0.8387  0.5575
  497MOL0     C68512   5.597   5.190   9.060  0.5111 -0.4777 -0.3609
  497MOL0     C68513   5.500   5.171   8.974 -0.3253  1.4393 -0.0732
  497MOL0     C68514   5.574   5.838   9.013 -0.0250  0.9994  0.1503
  497MOL0     C68515   5.457   5.917   8.980 -0.2343  0.0098  0.7735
  497MOL0     C68516   5.434   6.043   9.066 -0.1912  0.3760  0.0947
  497MOL0     H68517   4.959   5.793   8.645  0.2289 -0.8962 -1.4759
  497MOL0     H68518   4.776   5.900   8.522  0.3038  1.5303 -3.2437
  497MOL0     H68519   4.843   6.284   8.318 -2.4458  1.4795 -1.8889
  497MOL0     H68520   4.782   6.344   8.470 -0.0807  0.5833 -1.0364
  497MOL0     H68521   4.595   6.250   8.249 -1.9093 -0.9947  1.9772
  497MOL0     H68522   4.551   6.293   8.418  1.2641 -1.1611  1.5115
  497MOL0     H68523   4.637   6.526   8.364 -0.5931 -1.9750  1.5070
  497MOL0     H68524   4.683   6.475   8.204  2.1150  0.4197  1.5684
  497MOL0     H68525   4.456   6.446   8.128 -1.3812  2.1421 -0.5154
  497MOL0     H68526   4.407   6.427   8.303  2.0918 -0.4787  1.0692
  497MOL0     H68527   4.489   6.696   8.198 -1.4737  3.2268  1.4937
  497MOL0     H68528   4.429   6.644   8.344 -0.2051  0.2610 -0.7309
  497MOL0     H68529   4.247   6.743   8.163 -0.7882  0.6000  0.2137
  497MOL0     H68530   4.295   6.606   8.074 -0.4065 -0.3361  0.1594
  497MOL0     H68531   4.204   6.489   8.331 -3.1411 -2.6476  0.2978
  497MOL0     H68532   4.126   6.492   8.171  3.9927  0.3295 -0.9033
  497MOL0     H68533   4.126   6.715   8.388 -0.8347  0.0638  1.3738
  497MOL0     H68534   4.042   6.728   8.239 -0.8955  1.6417  3.2896
  497MOL0     H68535   3.844   6.803   8.442 -3.0295 -0.6065  1.1680
  497MOL0     H68536   3.627   6.734   8.585 -0.1847 -1.4836  0.6956
  497MOL0     H68537   3.570   6.577   8.551  2.5147 -1.8664 -1.3244
  497MOL0     H68538   3.588   6.807   8.349 -1.4009  0.8433 -0.0722
  497MOL0     H68539   3.524   6.647   8.308 -1.1955  3.9601 -3.1964
  497MOL0     H68540   3.351   6.650   8.467  0.2214  0.4190  0.6937
  497MOL0     H68541   3.406   6.810   8.521  2.1108  1.6364 -1.8850
  497MOL0     H68542   3.213   6.839   8.369  1.9044  0.6020  2.5582
  497MOL0     H68543   3.355   6.870   8.265 -3.3120  0.9127 -2.3707
  497MOL0     H68544   3.130   6.896   8.165 -0.5521 -0.1289 -0.4347
  497MOL0     H68545   2.962   7.004   8.056 -2.3608 -0.7150  2.3913
  497MOL0     H68546   2.837   6.877   8.025  1.5357 -1.3567  1.2038
  497MOL0     H68547   2.909   6.959   7.893  3.2136  3.3669  1.2984
  497MOL0     H68548   2.852   6.921   7.573 -0.9739 -0.6237  1.0283
  497MOL0     H68549   2.796   6.898   7.347  2.3887  0.5982  0.9695
  497MOL0     H68550   2.636   6.896   7.149 -0.1373 -0.2247  2.0951
  497MOL0     H68551   2.790   6.806   7.155 -0.2253  0.7094  1.6366
  497MOL0     H68552   2.717   6.655   6.976 -0.1611 -0.5723  3.1296
  497MOL0     H68553   2.550   6.705   6.995  1.1866 -2.1079 -1.4129
  497MOL0     H68554   2.751   6.911   6.877  0.6714 -1.3119 -3.1299
  497MOL0     H68555   2.569   6.877   6.867 -0.2879 -0.8184  0.7767
  497MOL0     H68556   2.628   6.810   6.672  0.3421 -4.8510 -3.0070
  497MOL0     H68557   2.618   6.671   6.766 -2.4658  1.2593 -0.9931
  497MOL0     H68558   2.879   6.834   6.685 -0.3900  1.0386  1.1832
  497MOL0     H68559   2.874   6.681   6.783 -2.0403  2.2716  2.8658
  497MOL0     H68560   2.948   6.614   6.562 -0.8202 -1.3593 -0.4629
  497MOL0     H68561   2.816   6.702   6.480  0.8815  0.8266  0.8724
  497MOL0     H68562   2.663   6.547   6.576 -0.2149 -1.9659  2.2115
  497MOL0     H68563   2.778   6.489   6.685 -3.0303  1.5916  1.4716
  497MOL0     H68564   2.746   6.315   6.530  2.0938 -3.4686 -1.7425
  497MOL0     H68565   2.899   6.372   6.489 -0.8014 -1.3680 -2.2347
  497MOL0     H68566   2.573   6.542   7.447  0.9052 -1.4474  0.9925
  497MOL0     H68567   2.659   6.551   7.673  0.5470 -2.1661 -0.6818
  497MOL0     H68568   3.124   6.511   7.862  1.3315 -1.8702  1.5792
  497MOL0     H68569   3.253   6.498   8.070  2.2732  0.6420 -2.5730
  497MOL0     H68570   4.988   6.272   8.512  1.0090  0.2512  0.5821
  497MOL0     H68571   5.181   6.170   8.624 -0.0100 -1.3848  0.7285
  497MOL0     H68572   5.344   5.744   8.714 -1.1427  1.5720 -0.4043
  497MOL0     H68573   5.515   5.575   8.810 -3.5213 -0.7662  0.6159
  497MOL0     H68574   5.851   5.633   9.140 -0.8884  1.1520  3.5418
  497MOL0     H68575   5.693   5.679   9.179  3.2485 -0.6651  1.9524
  497MOL0     H68576   5.592   5.467   9.148  0.9161  2.1261 -2.4135
  497MOL0     H68577   5.721   5.467   9.272  0.6196 -2.9849 -0.3203
  497MOL0     H68578   5.784   5.360   8.996 -0.3448  0.7197 -0.6977
  497MOL0     H68579   5.875   5.358   9.146  0.0714  0.8752 -0.0624
  497MOL0     H68580   5.694   5.207   9.244  1.2343 -2.8393  0.7870
  497MOL0     H68581   5.791   5.135   9.121  0.9799  0.0129  1.3291
  497MOL0     H68582   5.426   5.170   8.897  1.5635  0.6346 -1.9516
  497MOL0     H68583   5.638   5.860   9.098  1.1410 -2.0700  0.2106
  497MOL0     H68584   5.334   6.046   9.111  1.1831 -0.7941  3.5641
  497MOL0     H68585   5.499   6.060   9.152 -2.7549 -1.4434  2.6048
  497MOL0     H68586   5.454   6.134   9.009 -0.5890  0.7231  0.5005
  498MOL0     O68587   2.951   3.398   8.259  0.2428  0.9118 -0.1925
  498MOL0     C68588   2.868   3.316   8.219 -0.1972 -0.2075 -1.3382
  498MOL0     O68589   2.737   3.342   8.207 -0.0718 -0.1402 -0.2274
  498MOL0     C68590   2.678   3.444   8.262  0.1182 -0.2797  0.8504
  498MOL0     C68591   2.555   3.488   8.218  0.7803 -0.6117  0.4265
  498MOL0     C68592   2.471   3.572   8.281  0.4200 -0.1096 -1.2002
  498MOL0     C68593   2.506   3.619   8.408  0.4831 -0.1420 -1.1791
  498MOL0     O68594   2.422   3.687   8.493  0.6056  0.2476  0.3791
  498MOL0     C68595   2.365   3.810   8.432  0.1214  0.4728 -0.9263
  498MOL0     C68596   2.215   3.808   8.414 -0.5178  0.1988 -0.0940
  498MOL0     C68597   2.136   3.838   8.541 -0.1662  0.5695  0.4694
  498MOL0     C68598   2.066   3.970   8.540 -0.7440 -1.0382  0.8369
  498MOL0     C68599   1.977   3.998   8.653 -0.2847  0.5339 -0.7094
  498MOL0     C68600   1.850   3.915   8.639 -0.2613  0.0963  0.0550
  498MOL0     C68601   1.749   3.942   8.743  0.5478 -0.0504 -0.1020
  498MOL0     C68602   1.681   4.075   8.708 -0.8715 -0.5884  0.6625
  498MOL0     N68603   1.584   4.065   8.592  0.1458  0.3745  0.8677
  498MOL0     C68604   1.446   4.034   8.601  0.3491 -0.3775  0.4541
  498MOL0     C68605   1.405   4.009   8.471  0.3981  0.5644 -1.2305
  498MOL0     C68606   1.267   3.993   8.417  0.0553 -0.1468  0.2251
  498MOL0     C68607   1.228   4.093   8.309 -0.1568  0.0031  0.1209
  498MOL0     C68608   1.086   4.049   8.251 -0.0947  0.5846  0.2250
  498MOL0     C68609   1.023   4.162   8.157 -0.0305  0.1158  0.3288
  498MOL0     O68610   1.104   4.145   8.042  0.7725  0.1415  1.5740
  498MOL0     C68611   1.068   4.209   7.923 -0.4269  0.0955  0.4903
  498MOL0     C68612   0.983   4.324   7.917  0.1135 -0.4173 -0.2832
  498MOL0     C68613   0.968   4.406   7.802 -0.1390  0.4686 -0.0468
  498MOL0     C68614   0.886   4.530   7.809  0.5138 -0.4864 -0.0744
  498MOL0     C68615   1.038   4.355   7.683  0.6344  1.3514  0.6243
  498MOL0     C68616   1.028   4.433   7.552  0.1632  0.2498 -0.7178
  498MOL0     O68617   0.916   4.503   7.516 -0.2354  0.0168 -0.3798
  498MOL0     C68618   0.903   4.532   7.384  0.6552  0.0236  0.2911
  498MOL0     C68619   0.952   4.458   7.272  0.2016 -0.1855  0.3961
  498MOL0     C68620   0.943   4.509   7.137 -0.3340  0.2001  0.3495
  498MOL0     C68621   0.882   4.621   7.113  0.6014 -0.3329  0.3139
  498MOL0     O68622   0.851   4.682   6.996 -0.3759  0.0334  0.2237
  498MOL0     C68623   0.875   4.612   6.875 -0.1507 -0.2898  0.0319
  498MOL0     C68624   0.815   4.679   6.755  0.1156 -0.1205  0.3417
  498MOL0     C68625   0.682   4.740   6.759 -0.0947 -0.0750 -0.1242
  498MOL0     C68626   0.557   4.654   6.803 -0.1739  0.3232  0.1354
  498MOL0     C68627   0.421   4.737   6.806  0.3354  0.2515 -0.4506
  498MOL0     C68628   0.426   4.828   6.932 -0.0385 -1.0277 -0.4620
  498MOL0     C68629   0.338   4.782   7.058 -0.7937  1.2322 -0.4602
  498MOL0     C68630   0.381   4.642   7.107 -0.9693 -0.3545 -0.1974
  498MOL0    Cl68631   0.284   4.609   7.250  0.1120  0.7426 -0.2147
  498MOL0     C68632   0.825   4.682   7.226  0.1885 -0.0035  0.4296
  498MOL0     C68633   0.826   4.646   7.355  0.3225  0.5015  0.0547
  498MOL0     O68634   1.134   4.420   7.489  0.0302 -0.3394 -0.0020
  498MOL0     C68635   1.123   4.237   7.685  0.9449 -0.1870 -0.7720
  498MOL0     C68636   1.143   4.171   7.808  0.9189  0.2449  0.4288
  498MOL0     N68637   1.517   4.010   8.395 -0.0222 -0.2234 -0.5738
  498MOL0     N68638   1.617   4.058   8.458  0.1519  0.5250  0.1905
  498MOL0     C68639   2.634   3.595   8.460 -0.7438  0.1576  0.3907
  498MOL0     C68640   2.714   3.511   8.378  0.0356 -0.4558  0.4067
  498MOL0     C68641   2.918   3.186   8.173 -0.0618 -0.6304 -0.5611
  498MOL0     C68642   2.880   3.139   8.050  0.0130  0.0556 -1.0678
  498MOL0     C68643   2.930   3.023   7.989  0.5438 -0.8122 -0.4586
  498MOL0     C68644   3.021   2.941   8.065 -0.5080 -0.4161  0.5033
  498MOL0     O68645   3.069   2.825   8.018  1.2541  0.3794 -0.7821
  498MOL0     C68646   3.018   2.772   7.904 -0.5148  0.1649 -0.4624
  498MOL0     C68647   3.117   2.773   7.788  0.1044 -1.0150 -0.4274
  498MOL0     C68648   3.073   2.677   7.676  0.0586 -0.3101 -0.4082
  498MOL0     C68649   3.186   2.649   7.571 -0.1704  0.2660  0.1058
  498MOL0     C68650   3.119   2.634   7.445 -0.2919 -0.1901 -0.0752
  498MOL0     C68651   3.045   2.640   7.348 -0.4168 -1.3432  0.0061
  498MOL0     C68652   3.074   2.992   8.186 -0.4678  0.1602  0.0763
  498MOL0     C68653   3.029   3.121   8.234  0.9844  0.5280 -0.0015
  498MOL0     C68654   3.080   3.176   8.368  0.4791  0.8173 -0.3536
  498MOL0     H68655   2.518   3.447   8.124 -1.3743 -0.4573  1.1478
  498MOL0     H68656   2.374   3.599   8.241 -0.4340 -2.9143 -1.2111
  498MOL0     H68657   2.400   3.825   8.330 -0.8396  1.4577 -1.1404
  498MOL0     H68658   2.402   3.897   8.486 -0.5780  1.4061 -1.8968
  498MOL0     H68659   2.202   3.879   8.333 -2.3468  1.5440  1.3008
  498MOL0     H68660   2.181   3.720   8.359 -0.9173  2.0979 -3.1037
  498MOL0     H68661   2.062   3.758   8.528 -0.6763  1.2565 -1.0034
  498MOL0     H68662   2.202   3.831   8.628  2.8565  1.1609 -1.6373
  498MOL0     H68663   2.140   4.051   8.549 -1.7622 -0.1801  1.9169
  498MOL0     H68664   2.011   4.002   8.451 -1.0435 -0.9824  1.0378
  498MOL0     H68665   1.963   4.105   8.668 -0.6863  0.5097 -0.9106
  498MOL0     H68666   2.034   3.971   8.743 -0.9325  0.9097 -0.1763
  498MOL0     H68667   1.798   3.910   8.543 -1.6041  4.2972  0.3506
  498MOL0     H68668   1.877   3.811   8.661 -1.4747 -0.2319  0.1167
  498MOL0     H68669   1.793   3.940   8.843 -4.2756  0.1038  2.3197
  498MOL0     H68670   1.680   3.857   8.741 -0.6127  0.5730  4.1321
  498MOL0     H68671   1.634   4.109   8.800  1.9948  2.7902  1.0815
  498MOL0     H68672   1.757   4.153   8.693 -3.3775  1.8673 -0.1873
  498MOL0     H68673   1.377   4.030   8.685 -1.5172 -3.9109 -1.0388
  498MOL0     H68674   1.195   4.000   8.500 -1.4883  0.0959 -1.0948
  498MOL0     H68675   1.272   3.891   8.378  0.7693  1.1833 -3.5647
  498MOL0     H68676   1.227   4.188   8.363 -0.2764  1.2596 -1.9651
  498MOL0     H68677   1.303   4.090   8.230  0.0751  2.1917  0.2095
  498MOL0     H68678   1.095   3.957   8.194 -2.7635  1.0129 -1.0576
  498MOL0     H68679   1.003   4.036   8.321 -2.0822  2.5166 -1.6070
  498MOL0     H68680   0.922   4.147   8.119  0.0960  5.0716 -2.8883
  498MOL0     H68681   1.023   4.264   8.197  1.0981 -0.4286  1.8238
  498MOL0     H68682   0.938   4.357   8.009  0.4120 -1.8932  0.4238
  498MOL0     H68683   0.931   4.615   7.756 -0.5009 -0.4050 -0.8357
  498MOL0     H68684   0.851   4.563   7.907  4.9867  4.4682  0.3526
  498MOL0     H68685   0.796   4.519   7.747  2.4867 -0.8606 -3.1219
  498MOL0     H68686   0.999   4.361   7.286  2.7100  0.8481 -0.2991
  498MOL0     H68687   0.982   4.452   7.053 -0.2458 -0.9646  1.1460
  498MOL0     H68688   0.983   4.619   6.867 -0.2201  0.8903 -0.0321
  498MOL0     H68689   0.837   4.511   6.892  0.0511 -0.4416 -0.4187
  498MOL0     H68690   0.884   4.756   6.721 -3.3787  3.5745  0.9084
  498MOL0     H68691   0.817   4.605   6.674  0.4707 -0.5137  0.6989
  498MOL0     H68692   0.661   4.770   6.656  0.1282 -2.5731 -0.9453
  498MOL0     H68693   0.698   4.832   6.817 -3.1340  0.9125 -0.6310
  498MOL0     H68694   0.583   4.612   6.901 -2.1730 -0.4043  0.3985
  498MOL0     H68695   0.541   4.564   6.743  2.0855  1.2339 -1.9743
  498MOL0     H68696   0.401   4.794   6.715  0.7561  1.7378  0.3617
  498MOL0     H68697   0.341   4.662   6.811  1.7159 -1.2676 -0.0819
  498MOL0     H68698   0.410   4.934   6.913  1.2241 -0.2268  2.3751
  498MOL0     H68699   0.528   4.836   6.973 -0.7620  3.6641  0.9228
  498MOL0     H68700   0.233   4.778   7.027 -1.9457  0.4197  3.1534
  498MOL0     H68701   0.355   4.864   7.128 -0.3085  1.1483 -0.4783
  498MOL0     H68702   0.484   4.640   7.142 -1.4429  1.8150  1.5508
  498MOL0     H68703   0.363   4.561   7.035 -3.1236 -2.7780  2.7787
  498MOL0     H68704   0.807   4.786   7.200  1.3163 -0.0660 -0.7034
  498MOL0     H68705   0.762   4.703   7.421 -2.5163 -0.1237 -1.9974
  498MOL0     H68706   1.161   4.214   7.587 -0.1111 -3.5199 -0.5126
  498MOL0     H68707   1.203   4.082   7.825  0.2242 -0.0629  1.4397
  498MOL0     H68708   2.654   3.617   8.565  2.0394  0.2266 -0.0667
  498MOL0     H68709   2.805   3.473   8.423  1.3420  1.3522 -0.5710
  498MOL0     H68710   2.791   3.184   8.008 -1.1734  0.1220  1.3674
  498MOL0     H68711   2.886   3.001   7.892 -0.2635  0.7666 -0.4837
  498MOL0     H68712   2.985   2.670   7.926 -0.8156  0.8327  2.5768
  498MOL0     H68713   2.921   2.807   7.866 -0.9815 -3.5264 -3.2780
  498MOL0     H68714   3.211   2.728   7.822 -0.8643 -3.8059 -1.1923
  498MOL0     H68715   3.130   2.874   7.749  3.5896 -0.4955  1.6351
  498MOL0     H68716   3.050   2.576   7.709  2.1157 -0.8863 -0.5844
  498MOL0     H68717   2.982   2.719   7.633 -2.9052 -4.6628  0.9435
  498MOL0     H68718   3.258   2.568   7.590  1.3393 -0.0366 -5.2566
  498MOL0     H68719   3.261   2.729   7.573  0.0794  0.1481 -2.1782
  498MOL0     H68720   2.978   2.660   7.267  0.4090 -0.0674 -0.3985
  498MOL0     H68721   3.138   2.920   8.235 -1.4747 -2.3129 -1.9806
  498MOL0     H68722   2.996   3.193   8.435 -1.7049 -0.8594 -2.4921
  498MOL0     H68723   3.130   3.087   8.407  4.6014  1.6855 -3.0003
  498MOL0     H68724   3.148   3.262   8.360  0.0937  1.0392 -1.3644
  499MOL0     O68725   6.920  11.177  10.562 -0.5612 -0.0873  0.1757
  499MOL0     C68726   6.861  11.267  10.506  0.8552  0.8981 -0.0584
  499MOL0     O68727   6.754  11.340  10.560  0.3651 -0.0165 -0.2971
  499MOL0     C68728   6.724  11.294  10.684  0.1738 -0.7251  0.1198
  499MOL0     C68729   6.650  11.176  10.707 -1.3231  0.9043 -0.3815
  499MOL0     C68730   6.608  11.140  10.839 -0.3961  0.2310 -0.0242
  499MOL0     C68731   6.646  11.226  10.947  0.1632  0.1951 -0.3228
  499MOL0     O68732   6.619  11.197  11.080 -0.4130 -0.1609  0.5110
  499MOL0     C68733   6.512  11.107  11.104 -0.3713 -0.3657 -0.6458
  499MOL0     C68734   6.461  11.115  11.249 -1.9000 -0.5820  0.0050
  499MOL0     C68735   6.313  11.094  11.261 -0.3941  0.7505  1.0187
  499MOL0     C68736   6.261  10.971  11.181  0.7358  0.0174 -0.4922
  499MOL0     C68737   6.114  10.920  11.206 -0.4410 -0.0847 -0.1231
  499MOL0     C68738   6.098  10.869  11.356  0.3602 -0.0388  0.3122
  499MOL0     C68739   5.963  10.899  11.423 -0.3241  0.5272 -0.2850
  499MOL0     C68740   5.904  11.047  11.418 -0.0176  1.5184  0.7157
  499MOL0     N68741   5.790  11.061  11.508 -0.2293 -1.1453  0.0409
  499MOL0     C68742   5.746  11.191  11.535  0.0489  0.3076 -0.5941
  499MOL0     C68743   5.665  11.180  11.645 -0.0982  1.1664 -0.1753
  499MOL0     C68744   5.585  11.291  11.715  1.0220  0.3866 -0.3836
  499MOL0     C68745   5.613  11.285  11.867  0.0601 -0.0178 -0.0779
  499MOL0     C68746   5.560  11.415  11.925 -0.4474  0.3660 -1.2021
  499MOL0     C68747   5.579  11.414  12.071  0.5381 -0.3941 -0.2199
  499MOL0     O68748   5.725  11.411  12.101  0.4288  0.2943 -0.6115
  499MOL0     C68749   5.777  11.521  12.162  0.7481 -0.5500  0.3124
  499MOL0     C68750   5.811  11.632  12.092 -0.0136  0.0842  0.0197
  499MOL0     C68751   5.865  11.741  12.157 -0.2398  1.0306  0.6876
  499MOL0     C68752   5.909  11.859  12.074  0.2117  0.8844  0.4266
  499MOL0     C68753   5.882  11.744  12.295  0.1055  0.7442 -0.3347
  499MOL0     C68754   5.927  11.853  12.377 -0.4958 -0.4596  0.1960
  499MOL0     O68755   5.888  11.849  12.505 -0.2539 -0.4279 -0.5028
  499MOL0     C68756   5.960  11.909  12.610  0.0653  0.0893  0.3155
  499MOL0     C68757   5.896  11.958  12.728  0.3236 -0.2830 -1.3742
  499MOL0     C68758   5.971  12.021  12.836  0.1320 -0.2718 -0.0200
  499MOL0     C68759   6.107  12.033  12.834  0.4722  0.6410 -0.6000
  499MOL0     O68760   6.176  12.103  12.924 -0.3249 -0.0934 -0.6541
  499MOL0     C68761   6.291  12.042  12.983  0.2204  0.4396  0.6649
  499MOL0     C68762   6.344  12.129  13.105  0.0131  0.4525 -0.4733
  499MOL0     C68763   6.419  12.045  13.209  0.0429 -0.1368  0.4017
  499MOL0     C68764   6.556  12.013  13.166  0.2367  0.1868  0.5198
  499MOL0     C68765   6.627  11.909  13.247  0.2197  0.3788  0.4674
  499MOL0     C68766   6.775  11.913  13.239 -0.1151  0.7323 -0.0771
  499MOL0     C68767   6.847  11.840  13.123  0.7437  0.9268 -0.2732
  499MOL0     C68768   6.841  11.680  13.151 -0.2108 -0.1722 -0.1333
  499MOL0    Cl68769   6.938  11.600  13.029 -0.0883  0.1051  0.1857
  499MOL0     C68770   6.167  11.985  12.714 -0.6143  0.3325  1.0010
  499MOL0     C68771   6.097  11.925  12.612 -0.6408  0.4710  0.1877
  499MOL0     O68772   5.994  11.948  12.336 -0.7946  0.5977  1.2688
  499MOL0     C68773   5.845  11.623  12.370  0.8198 -1.1664 -0.4920
  499MOL0     C68774   5.791  11.517  12.303  0.3742 -0.2672 -0.2525
  499MOL0     N68775   5.664  11.045  11.686  0.0937 -0.0455 -1.0162
  499MOL0     N68776   5.748  10.976  11.610 -0.0317  0.1477 -0.1287
  499MOL0     C68777   6.726  11.337  10.920  0.8561 -0.3233  0.0245
  499MOL0     C68778   6.764  11.369  10.796 -0.1862  0.1550  0.1345
  499MOL0     C68779   6.905  11.321  10.375  0.0200 -1.0185  0.0629
  499MOL0     C68780   6.890  11.460  10.364  0.9909  1.1178  0.1973
  499MOL0     C68781   6.921  11.530  10.249  0.5349  0.2319 -0.1269
  499MOL0     C68782   6.986  11.458  10.146 -0.0276  0.3687 -0.2434
  499MOL0     O68783   7.047  11.515  10.039  1.3488 -0.2761  0.6273
  499MOL0     C68784   7.084  11.659  10.046 -0.6973  0.4706 -0.0589
  499MOL0     C68785   7.166  11.693   9.924  0.0512  0.0423 -0.4764
  499MOL0     C68786   7.237  11.831   9.908 -0.1676  0.2830  0.2091
  499MOL0     C68787   7.390  11.815   9.890  0.4852  0.5573 -0.2087
  499MOL0     C68788   7.454  11.938   9.902  0.3726  0.1594  0.2156
  499MOL0     C68789   7.514  12.044   9.915  0.8973  0.0602 -0.4488
  499MOL0     C68790   6.999  11.321  10.147  0.7640 -0.9002 -0.3992
  499MOL0     C68791   6.956  11.249  10.262  0.4315  0.0086  0.4179
  499MOL0     C68792   6.976  11.095  10.261 -0.7645 -0.0202 -0.3280
  499MOL0     H68793   6.624  11.118  10.619 -2.1240 -2.8424  2.0957
  499MOL0     H68794   6.559  11.044  10.853 -1.7405  0.8458 -0.3768
  499MOL0     H68795   6.542  11.007  11.072  2.8363 -0.6222  2.6076
  499MOL0     H68796   6.433  11.144  11.037 -0.7019 -0.3826 -0.2719
  499MOL0     H68797   6.517  11.056  11.321  0.7547  1.4866 -0.2074
  499MOL0     H68798   6.458  11.219  11.282 -2.2972 -1.3937  2.7508
  499MOL0     H68799   6.281  11.087  11.365  0.1821  1.5403  1.2606
  499MOL0     H68800   6.267  11.183  11.218  2.2343  1.7058 -0.0283
  499MOL0     H68801   6.266  11.006  11.078 -2.4844 -0.0697 -0.8002
  499MOL0     H68802   6.312  10.878  11.210 -3.5145 -2.0763  1.2301
  499MOL0     H68803   6.088  10.830  11.150  2.3401  0.5808 -2.7763
  499MOL0     H68804   6.049  11.002  11.174  0.1618  0.7688  0.7479
  499MOL0     H68805   6.112  10.761  11.365  2.8411  0.2497  0.6262
  499MOL0     H68806   6.177  10.905  11.422 -0.6091  1.2945  0.8091
  499MOL0     H68807   5.963  10.870  11.529 -0.9612  1.6576  0.0455
  499MOL0     H68808   5.890  10.845  11.363  2.1734 -3.0039 -0.4432
  499MOL0     H68809   5.981  11.117  11.452 -1.6656  3.2479  1.0596
  499MOL0     H68810   5.877  11.083  11.319 -4.5382  2.1862  1.9631
  499MOL0     H68811   5.778  11.280  11.483  0.7402  1.3186  1.4742
  499MOL0     H68812   5.476  11.298  11.705  0.9128  4.2286  1.5558
  499MOL0     H68813   5.625  11.384  11.674  1.6945  1.9095  3.3469
  499MOL0     H68814   5.562  11.205  11.921  0.4042 -1.9124 -2.3609
  499MOL0     H68815   5.721  11.277  11.878  0.0200 -0.1973  0.1951
  499MOL0     H68816   5.619  11.501  11.891 -0.3591  0.4815 -0.7603
  499MOL0     H68817   5.461  11.422  11.879  1.0297  1.7879 -4.5318
  499MOL0     H68818   5.529  11.507  12.099  0.3853 -0.2580 -0.9357
  499MOL0     H68819   5.522  11.334  12.119 -1.0726  2.3587  2.8863
  499MOL0     H68820   5.807  11.642  11.984  1.0130  2.7775  0.1668
  499MOL0     H68821   5.864  11.862  11.975 -1.9010  4.2734  1.3310
  499MOL0     H68822   6.015  11.843  12.052 -0.6056 -3.0235 -1.6292
  499MOL0     H68823   5.883  11.957  12.115  2.6612  2.0910 -0.7073
  499MOL0     H68824   5.789  11.946  12.741  0.7233 -0.7003  3.9270
  499MOL0     H68825   5.909  12.060  12.915 -0.7302  0.3000 -0.9487
  499MOL0     H68826   6.255  11.944  13.017 -1.1671 -0.3657 -2.6399
  499MOL0     H68827   6.358  12.013  12.901 -0.4627 -0.6125  0.4498
  499MOL0     H68828   6.405  12.214  13.074  0.7860  0.0352 -0.1283
  499MOL0     H68829   6.253  12.174  13.146 -2.0783 -3.2192 -0.6302
  499MOL0     H68830   6.364  11.957  13.244 -2.0256  0.9676  0.1065
  499MOL0     H68831   6.417  12.108  13.299 -4.1969 -0.3607  0.6401
  499MOL0     H68832   6.612  12.107  13.172  0.3371  0.2105 -0.5603
  499MOL0     H68833   6.557  11.979  13.062 -2.7435 -1.3042  0.8550
  499MOL0     H68834   6.589  11.934  13.346  2.8482  1.9435  1.1809
  499MOL0     H68835   6.580  11.812  13.227  1.7972 -0.4471  0.5776
  499MOL0     H68836   6.810  11.867  13.332  0.1816 -2.8658 -1.8089
  499MOL0     H68837   6.806  12.018  13.232  0.7557  0.5536  0.8987
  499MOL0     H68838   6.951  11.873  13.131  1.3124 -0.4578 -1.4878
  499MOL0     H68839   6.804  11.861  13.025 -1.3418 -0.4949  0.2736
  499MOL0     H68840   6.741  11.635  13.152 -0.2943 -0.1071 -1.9065
  499MOL0     H68841   6.903  11.674  13.241 -0.6400  1.5357  0.3113
  499MOL0     H68842   6.275  11.987  12.709 -0.5911 -1.6418 -0.1910
  499MOL0     H68843   6.159  11.887  12.531  1.4628  1.5141  1.2120
  499MOL0     H68844   5.872  11.616  12.475 -0.1031  0.4079 -0.1164
  499MOL0     H68845   5.755  11.438  12.369 -2.3256 -0.4005 -1.7184
  499MOL0     H68846   6.761  11.398  11.003  2.9781 -2.8630  1.1265
  499MOL0     H68847   6.810  11.467  10.795 -1.2937  0.7117 -1.2694
  499MOL0     H68848   6.882  11.507  10.461  2.5425 -3.4408  2.8046
  499MOL0     H68849   6.924  11.638  10.239  2.1242  0.1051 -1.5426
  499MOL0     H68850   6.987  11.708  10.055 -2.6839 -3.2174  0.8249
  499MOL0     H68851   7.149  11.687  10.129 -1.2497  0.2207  0.4680
  499MOL0     H68852   7.092  11.683   9.844 -1.7140 -1.4263  1.2513
  499MOL0     H68853   7.236  11.615   9.892 -0.5897 -0.6131 -0.2974
  499MOL0     H68854   7.197  11.880   9.819 -1.4654 -2.9519 -1.1767
  499MOL0     H68855   7.219  11.895   9.994  0.7231  1.5597 -0.5312
  499MOL0     H68856   7.404  11.777   9.788  0.5629 -2.8837  0.9644
  499MOL0     H68857   7.421  11.746   9.969 -2.8575  1.8110  2.4523
  499MOL0     H68858   7.567  12.135   9.931 -4.2736  3.2194  0.8251
  499MOL0     H68859   7.049  11.269  10.065 -0.0061  0.5861 -1.8789
  499MOL0     H68860   6.880  11.047  10.280 -1.3853 -0.2046 -3.3502
  499MOL0     H68861   7.012  11.056  10.165  1.1795  0.3814  0.1814
  499MOL0     H68862   7.056  11.075  10.333 -2.1839 -0.9133  1.0403
  500MOL0     O68863   3.801   0.131   6.171 -0.0729  0.5836 -0.4280
  500MOL0     C68864   3.781   0.243   6.220  0.3628 -0.2497 -0.1205
  500MOL0     O68865   3.807   0.361   6.171 -0.5134  0.2040 -0.2652
  500MOL0     C68866   3.902   0.373   6.074 -0.5306  0.0097  1.6742
  500MOL0     C68867   4.026   0.300   6.052 -0.7054  0.1547  0.1991
  500MOL0     C68868   4.113   0.336   5.952 -0.4214 -0.6630  0.1624
  500MOL0     C68869   4.087   0.448   5.871 -0.2866  1.0892  0.0027
  500MOL0     O68870   4.147   0.488   5.757 -0.0572 -0.0710 -0.5701
  500MOL0     C68871   4.275   0.442   5.738 -0.6283 -0.2581  0.5182
  500MOL0     C68872   4.345   0.496   5.604  0.7817 -0.4493 -0.4583
  500MOL0     C68873   4.449   0.394   5.534  0.1435 -1.0082 -0.2169
  500MOL0     C68874   4.478   0.458   5.399 -0.4562  0.3660 -0.7000
  500MOL0     C68875   4.579   0.373   5.326 -0.0356  0.6875  0.3574
  500MOL0     C68876   4.724   0.382   5.385 -0.5299 -0.4790  0.2720
  500MOL0     C68877   4.833   0.297   5.315 -0.4815  0.2367 -0.6470
  500MOL0     C68878   4.837   0.144   5.336  0.0814  0.1308 -0.6900
  500MOL0     N68879   4.902   0.101   5.458  0.5072  0.3911 -1.0466
  500MOL0     C68880   4.917  -0.036   5.479 -0.2051  0.6336  0.5588
  500MOL0     C68881   4.975  -0.038   5.601 -0.2172 -0.6263 -0.3085
  500MOL0     C68882   5.036  -0.159   5.669  0.4389  1.0682  0.2681
  500MOL0     C68883   4.995  -0.297   5.600 -0.5343 -1.2790  0.7627
  500MOL0     C68884   5.059  -0.409   5.692  0.2553 -0.7474  0.1598
  500MOL0     C68885   5.215  -0.412   5.696  0.0269  1.0236 -0.1646
  500MOL0     O68886   5.265  -0.531   5.766  0.1356 -1.1311  0.0524
  500MOL0     C68887   5.401  -0.561   5.742 -0.5453  0.2603 -0.0307
  500MOL0     C68888   5.428  -0.692   5.764 -0.6440 -0.1871 -0.0583
  500MOL0     C68889   5.556  -0.743   5.759  0.5918 -0.7344  0.5739
  500MOL0     C68890   5.562  -0.882   5.761  0.7297  0.3889  0.9261
  500MOL0     C68891   5.672  -0.660   5.736  0.3512  0.1243  0.8533
  500MOL0     C68892   5.815  -0.700   5.733 -0.1420 -0.3487 -0.5101
  500MOL0     O68893   5.905  -0.589   5.752 -0.8379  0.1505 -0.2483
  500MOL0     C68894   6.035  -0.638   5.760 -0.3996 -0.3618 -0.4293
  500MOL0     C68895   6.077  -0.688   5.886  0.4864  0.0169 -0.0263
  500MOL0     C68896   6.212  -0.738   5.908  0.9886 -0.1036 -0.2749
  500MOL0     C68897   6.306  -0.717   5.804 -0.7642 -0.0245  0.5622
  500MOL0     O68898   6.436  -0.758   5.810 -1.1869 -0.6482 -0.6517
  500MOL0     C68899   6.497  -0.757   5.941  0.3701  0.6396 -1.4448
  500MOL0     C68900   6.642  -0.792   5.907 -0.8672  0.5637 -0.3345
  500MOL0     C68901   6.722  -0.662   5.878 -0.1848 -0.2749  0.3382
  500MOL0     C68902   6.878  -0.665   5.881  0.6450  0.4446  0.7938
  500MOL0     C68903   6.955  -0.527   5.880  0.7576 -0.8811  0.1925
  500MOL0     C68904   6.946  -0.458   6.013  0.9896  0.6463  0.5310
  500MOL0     C68905   7.055  -0.506   6.109  0.1432  0.4046 -0.2002
  500MOL0     C68906   7.072  -0.411   6.231 -0.2084  1.2996  0.3373
  500MOL0    Cl68907   6.909  -0.368   6.313  0.0181 -0.1931  0.1778
  500MOL0     C68908   6.259  -0.665   5.679 -0.0819 -0.2201 -0.3983
  500MOL0     C68909   6.130  -0.624   5.661 -0.3439  1.0255 -0.2699
  500MOL0     O68910   5.839  -0.823   5.717  0.3544 -0.4311 -0.3048
  500MOL0     C68911   5.643  -0.519   5.719 -0.9372 -0.2715  0.0571
  500MOL0     C68912   5.510  -0.474   5.720 -0.5576  0.2345 -0.2667
  500MOL0     N68913   4.981   0.093   5.654  0.3764  0.4258 -0.6220
  500MOL0     N68914   4.936   0.175   5.567 -0.1592  0.1928 -0.0469
  500MOL0     C68915   3.979   0.525   5.903  0.8402 -0.0669  0.6017
  500MOL0     C68916   3.889   0.488   6.000 -0.9605 -0.2909  0.6210
  500MOL0     C68917   3.708   0.238   6.349  0.6672 -0.8787 -0.6623
  500MOL0     C68918   3.707   0.362   6.418 -0.2214  0.7417  0.8599
  500MOL0     C68919   3.656   0.386   6.544 -0.1917 -0.0530 -0.0312
  500MOL0     C68920   3.600   0.273   6.610 -0.7581 -0.6863 -0.4568
  500MOL0     O68921   3.554   0.269   6.738  0.0749 -0.7628 -0.7775
  500MOL0     C68922   3.582   0.379   6.838 -0.0937 -0.8875  0.2518
  500MOL0     C68923   3.719   0.383   6.897  0.4311  0.2551 -1.0217
  500MOL0     C68924   3.781   0.248   6.929  0.1196  0.1938 -0.8563
  500MOL0     C68925   3.934   0.238   6.927  1.0088 -0.5824  0.9842
  500MOL0     C68926   3.971   0.114   6.993  0.5853  0.6464  0.6718
  500MOL0     C68927   3.981   0.003   7.039  0.8528  0.3170 -0.2962
  500MOL0     C68928   3.588   0.157   6.542 -0.5771  0.1400  0.9571
  500MOL0     C68929   3.633   0.135   6.411 -0.2166  0.3339 -0.6465
  500MOL0     C68930   3.624  -0.010   6.369 -0.2541 -1.3412 -0.3022
  500MOL0     H68931   4.061   0.211   6.104 -0.0425  0.7673  0.8120
  500MOL0     H68932   4.209   0.287   5.942  3.8385  5.7903  2.6223
  500MOL0     H68933   4.278   0.333   5.724  1.8433 -0.1486 -0.2362
  500MOL0     H68934   4.332   0.459   5.830  0.2519 -1.6969  0.2695
  500MOL0     H68935   4.263   0.527   5.539 -0.6030  0.5327  1.6381
  500MOL0     H68936   4.396   0.590   5.628  0.9368 -0.6624  0.0699
  500MOL0     H68937   4.538   0.408   5.597 -0.0404  2.8224 -0.5890
  500MOL0     H68938   4.418   0.289   5.533 -1.6169 -0.5717  1.5801
  500MOL0     H68939   4.395   0.477   5.331 -0.4264 -0.1972 -0.8981
  500MOL0     H68940   4.515   0.561   5.411  1.5444 -0.5442  2.1538
  500MOL0     H68941   4.589   0.418   5.227 -0.1767  0.7714  0.3803
  500MOL0     H68942   4.536   0.274   5.305  0.9830  0.4809 -0.8432
  500MOL0     H68943   4.763   0.483   5.372 -0.7105 -0.5275 -0.6860
  500MOL0     H68944   4.730   0.358   5.492  4.4562 -3.5228 -0.3269
  500MOL0     H68945   4.923   0.341   5.360 -0.9429 -0.1539  0.7242
  500MOL0     H68946   4.821   0.320   5.209 -1.0047 -0.1962 -0.6848
  500MOL0     H68947   4.735   0.106   5.331  0.4796 -1.2954  1.1546
  500MOL0     H68948   4.891   0.091   5.257 -1.1620 -2.1984 -0.0463
  500MOL0     H68949   4.889  -0.121   5.418 -1.6517  0.7141  1.0632
  500MOL0     H68950   5.008  -0.167   5.775 -0.3060  0.0574  0.0060
  500MOL0     H68951   5.144  -0.139   5.666  0.2099  2.4039  0.1831
  500MOL0     H68952   4.887  -0.310   5.605 -0.8729  1.3106  1.8993
  500MOL0     H68953   5.031  -0.303   5.497  1.5396 -2.8169  1.5046
  500MOL0     H68954   5.010  -0.417   5.789 -2.6467  1.2291 -1.0141
  500MOL0     H68955   5.026  -0.494   5.631  0.8140 -0.2039 -0.9258
  500MOL0     H68956   5.258  -0.402   5.596 -1.5384 -4.1247 -1.6135
  500MOL0     H68957   5.251  -0.333   5.763 -2.2779 -0.5380  3.1498
  500MOL0     H68958   5.343  -0.749   5.800 -0.4704  2.3496  5.4029
  500MOL0     H68959   5.649  -0.926   5.811  0.5978 -2.7927 -1.3385
  500MOL0     H68960   5.555  -0.929   5.663 -3.9598 -0.5238  1.4936
  500MOL0     H68961   5.481  -0.924   5.822  1.0912 -0.2916  0.9534
  500MOL0     H68962   6.004  -0.697   5.966  1.3638 -0.0561  0.7947
  500MOL0     H68963   6.241  -0.780   6.003  1.0295  1.5342  0.4616
  500MOL0     H68964   6.492  -0.655   5.982 -0.1910 -0.0545  0.2898
  500MOL0     H68965   6.453  -0.826   6.013 -0.2182  0.3659 -2.0564
  500MOL0     H68966   6.682  -0.856   5.985  0.4054  0.5317 -0.9812
  500MOL0     H68967   6.657  -0.851   5.816  0.3709 -1.1595  0.9326
  500MOL0     H68968   6.688  -0.589   5.953 -1.8559 -2.2831  1.6705
  500MOL0     H68969   6.687  -0.635   5.778  0.2418 -0.1345  0.2255
  500MOL0     H68970   6.900  -0.731   5.796 -3.0501 -1.7163  1.2912
  500MOL0     H68971   6.909  -0.714   5.974  3.9243 -1.0840 -0.9186
  500MOL0     H68972   7.054  -0.548   5.840  1.0230  1.2979 -0.4449
  500MOL0     H68973   6.906  -0.464   5.805  0.3904 -0.6886  0.5879
  500MOL0     H68974   6.849  -0.477   6.060  1.4909 -0.4813  1.1523
  500MOL0     H68975   6.947  -0.350   5.996  0.7485  0.7900  1.3442
  500MOL0     H68976   7.159  -0.511   6.075 -0.1415  3.0518 -1.7287
  500MOL0     H68977   7.023  -0.603   6.149 -2.2261  1.0840 -0.2770
  500MOL0     H68978   7.115  -0.315   6.200 -0.7474  1.0629 -1.2642
  500MOL0     H68979   7.138  -0.448   6.309 -1.4985  1.2551  1.4404
  500MOL0     H68980   6.337  -0.669   5.604 -1.6193 -0.9565 -2.0514
  500MOL0     H68981   6.109  -0.549   5.585  1.6406  3.5306  1.4711
  500MOL0     H68982   5.725  -0.448   5.714 -0.9999 -0.2748 -1.1758
  500MOL0     H68983   5.508  -0.366   5.709 -0.3151  0.3693  0.9154
  500MOL0     H68984   3.962   0.616   5.848  1.1483  1.4633  2.8773
  500MOL0     H68985   3.809   0.561   6.009 -0.9737 -0.1283 -0.6241
  500MOL0     H68986   3.773   0.439   6.379  0.1926 -0.7768 -1.6555
  500MOL0     H68987   3.653   0.485   6.587 -0.5354  0.3777 -1.0322
  500MOL0     H68988   3.545   0.470   6.789 -0.4469 -0.5151  1.1825
  500MOL0     H68989   3.499   0.365   6.908 -3.3620 -1.4717 -3.3708
  500MOL0     H68990   3.718   0.445   6.987 -2.0629 -0.8719 -0.1620
  500MOL0     H68991   3.777   0.428   6.815  1.2208 -0.3420 -0.7953
  500MOL0     H68992   3.756   0.212   7.030  1.2536 -1.0260 -0.9844
  500MOL0     H68993   3.747   0.177   6.853  1.3454 -1.8215  0.3887
  500MOL0     H68994   3.986   0.318   6.980  0.7315  0.3741 -0.1172
  500MOL0     H68995   3.959   0.240   6.820 -0.1360  2.7230  0.6544
  500MOL0     H68996   4.002  -0.098   7.070 -3.2634 -1.3675 -2.2086
  500MOL0     H68997   3.541   0.078   6.600  0.2081 -0.5139  0.7178
  500MOL0     H68998   3.705  -0.069   6.412 -0.5604 -0.3516  1.7463
  500MOL0     H68999   3.527  -0.052   6.397 -1.1219  0.0578 -1.0890
  500MOL0     H69000   3.640  -0.017   6.261  0.9892  0.1462 -0.2443
  501MOL0     O69001   6.272   1.662   0.403 -0.0563 -0.1587 -0.1273
  501MOL0     C69002   6.242   1.781   0.421  0.2470 -0.5554 -0.2282
  501MOL0     O69003   6.316   1.877   0.471 -0.4077  0.0577 -0.6375
  501MOL0     C69004   6.429   1.848   0.552  0.7941  0.4872 -0.1481
  501MOL0     C69005   6.487   1.954   0.624 -0.3144 -0.9999  0.1631
  501MOL0     C69006   6.602   1.940   0.694  0.1510  0.7835  0.6064
  501MOL0     C69007   6.670   1.817   0.700  1.1236  0.4483 -1.2105
  501MOL0     O69008   6.795   1.823   0.756  0.2723  0.0611 -0.6484
  501MOL0     C69009   6.879   1.704   0.762  0.8818 -0.0564  0.0686
  501MOL0     C69010   7.019   1.732   0.812 -1.0068 -0.3553 -0.0275
  501MOL0     C69011   7.094   1.824   0.711  0.0977 -0.2604  0.7572
  501MOL0     C69012   7.146   1.738   0.590  0.6084 -0.8194 -0.6231
  501MOL0     C69013   7.252   1.822   0.524  0.2935 -0.9379 -0.2924
  501MOL0     C69014   7.393   1.825   0.592 -0.3935 -0.2687  0.4290
  501MOL0     C69015   7.511   1.888   0.499  0.1016 -0.1917 -0.1914
  501MOL0     C69016   7.545   1.811   0.373  0.8814 -0.6609  0.0262
  501MOL0     N69017   7.581   1.675   0.402  0.2536 -0.4813 -0.6279
  501MOL0     C69018   7.686   1.631   0.479 -0.2138 -0.0327 -0.6406
  501MOL0     C69019   7.673   1.500   0.472  0.3665  0.6483 -0.4889
  501MOL0     C69020   7.768   1.410   0.549 -0.7112 -0.1557 -0.7866
  501MOL0     C69021   7.812   1.288   0.463  0.2131 -0.5951  0.3465
  501MOL0     C69022   7.910   1.211   0.552 -0.3967 -0.8622 -0.2253
  501MOL0     C69023   7.910   1.067   0.517 -0.4241 -0.5295  0.6648
  501MOL0     O69024   7.788   0.998   0.532 -0.1421  0.1411  0.2590
  501MOL0     C69025   7.781   0.876   0.463 -0.2777  0.5887 -0.6167
  501MOL0     C69026   7.876   0.776   0.481 -0.2889 -0.2946  0.3505
  501MOL0     C69027   7.846   0.642   0.458  0.0992  0.8487 -0.0154
  501MOL0     C69028   7.961   0.547   0.502  0.1791  0.4087 -0.4747
  501MOL0     C69029   7.726   0.612   0.383  0.4156  0.1558  0.5712
  501MOL0     C69030   7.698   0.478   0.335  0.3633  0.3348  1.2741
  501MOL0     O69031   7.574   0.430   0.350 -0.1560 -0.1741  0.4475
  501MOL0     C69032   7.541   0.309   0.308 -0.0530 -0.3652 -0.1040
  501MOL0     C69033   7.514   0.211   0.401 -0.5425 -0.3183  0.0177
  501MOL0     C69034   7.453   0.090   0.361  1.0422  0.2348 -0.1164
  501MOL0     C69035   7.423   0.067   0.217  1.2200  0.5967  0.3383
  501MOL0     O69036   7.349  -0.040   0.178  0.5205 -0.3856 -0.5410
  501MOL0     C69037   7.297  -0.057   0.048  0.5437  1.0156  1.1806
  501MOL0     C69038   7.173  -0.141   0.054 -0.5682 -0.2206 -0.3241
  501MOL0     C69039   7.125  -0.209  -0.070  0.0938 -0.0545 -0.0404
  501MOL0     C69040   6.971  -0.245  -0.070  0.5414  0.7089  0.5123
  501MOL0     C69041   6.919  -0.293  -0.206 -0.1504 -1.6811  0.3200
  501MOL0     C69042   6.905  -0.186  -0.316  1.1048  0.0079  0.4737
  501MOL0     C69043   6.800  -0.083  -0.266  0.2474  0.4671  0.0126
  501MOL0     C69044   6.752  -0.001  -0.388 -0.7632  0.1645 -0.2094
  501MOL0    Cl69045   6.879   0.101  -0.481 -0.0377  0.3197 -0.1091
  501MOL0     C69046   7.472   0.166   0.126 -0.0375  0.2650  0.4258
  501MOL0     C69047   7.530   0.277   0.177 -0.4846 -0.0925 -0.4201
  501MOL0     O69048   7.789   0.413   0.285 -0.0453 -0.1375  0.2979
  501MOL0     C69049   7.636   0.711   0.354  0.4661 -0.5218  1.0223
  501MOL0     C69050   7.662   0.838   0.403  0.2559 -0.3458 -0.0256
  501MOL0     N69051   7.563   1.467   0.398  0.8515  0.3000  0.1556
  501MOL0     N69052   7.517   1.575   0.357 -0.0491  0.2175 -0.3595
  501MOL0     C69053   6.608   1.708   0.637 -0.3532 -0.3402 -0.0225
  501MOL0     C69054   6.496   1.725   0.561  0.3666 -0.1966 -0.4592
  501MOL0     C69055   6.111   1.824   0.359  0.5324  0.7292 -0.7380
  501MOL0     C69056   6.105   1.960   0.338  0.6132  0.6015  0.0439
  501MOL0     C69057   5.984   2.012   0.286  0.4073 -0.8121 -0.7448
  501MOL0     C69058   5.890   1.919   0.227 -0.0421 -0.1684  1.2295
  501MOL0     O69059   5.775   1.954   0.145  0.3611 -0.5845 -0.6460
  501MOL0     C69060   5.739   2.093   0.148  0.4638  0.0335  0.2260
  501MOL0     C69061   5.794   2.174   0.029 -0.1478  0.6829 -0.0539
  501MOL0     C69062   5.885   2.294   0.056  0.5969 -0.5648  0.5053
  501MOL0     C69063   5.898   2.379  -0.065 -0.3571 -0.1979  0.3876
  501MOL0     C69064   5.967   2.506  -0.030 -0.9544 -0.2990  1.2956
  501MOL0     C69065   6.015   2.618   0.004  0.5786  0.3534  0.3481
  501MOL0     C69066   5.902   1.781   0.240 -1.1189 -0.4632  0.1622
  501MOL0     C69067   6.007   1.735   0.318 -1.0524 -0.3340 -0.0906
  501MOL0     C69068   6.003   1.595   0.369 -0.1764  0.4216 -0.0470
  501MOL0     H69069   6.429   2.045   0.632  2.2055  0.6516  0.7600
  501MOL0     H69070   6.648   2.030   0.734 -0.5851  0.7975  1.4397
  501MOL0     H69071   6.889   1.652   0.666 -0.1780  2.3641 -1.4675
  501MOL0     H69072   6.830   1.640   0.835  1.2261 -0.7115 -0.2677
  501MOL0     H69073   6.995   1.789   0.903 -1.5110  0.3824 -0.6152
  501MOL0     H69074   7.082   1.648   0.844 -1.3280 -1.3891 -1.9543
  501MOL0     H69075   7.019   1.896   0.677 -0.1073  0.3679  2.4397
  501MOL0     H69076   7.175   1.879   0.760 -0.1388 -0.0833  0.9469
  501MOL0     H69077   7.198   1.645   0.611 -1.7679 -2.3606 -1.2214
  501MOL0     H69078   7.060   1.718   0.526 -0.9647  0.2484  1.0500
  501MOL0     H69079   7.222   1.927   0.520 -1.5986 -1.4699 -0.7901
  501MOL0     H69080   7.263   1.772   0.427 -1.1125 -1.8269 -0.0066
  501MOL0     H69081   7.393   1.894   0.677  1.3106  4.6478 -3.0857
  501MOL0     H69082   7.412   1.719   0.612 -0.6189 -0.4302 -0.2006
  501MOL0     H69083   7.604   1.882   0.557 -0.7311 -0.3242  1.1926
  501MOL0     H69084   7.490   1.992   0.472  0.7953  0.2780  0.9968
  501MOL0     H69085   7.460   1.812   0.304 -0.5056  0.4137  1.6773
  501MOL0     H69086   7.615   1.867   0.309  1.2105  1.5614  2.1815
  501MOL0     H69087   7.755   1.690   0.539 -2.2315 -0.3720  2.2047
  501MOL0     H69088   7.718   1.374   0.639 -1.2210  0.5006 -0.8030
  501MOL0     H69089   7.864   1.454   0.579 -0.0274 -1.6948 -0.6085
  501MOL0     H69090   7.719   1.235   0.442 -1.7817  2.1733  1.4739
  501MOL0     H69091   7.852   1.321   0.366  0.1630 -2.5543 -0.3830
  501MOL0     H69092   8.012   1.244   0.530 -0.1062  1.4570  3.7669
  501MOL0     H69093   7.894   1.224   0.659  1.0895 -0.7979  0.0176
  501MOL0     H69094   7.953   1.050   0.418  2.9575 -3.2278  2.3737
  501MOL0     H69095   7.979   1.024   0.591  5.3377  2.5601 -2.2669
  501MOL0     H69096   7.968   0.798   0.535  0.7588  1.8761 -2.1046
  501MOL0     H69097   7.926   0.450   0.536  0.8830 -0.1364 -1.2593
  501MOL0     H69098   8.025   0.591   0.579 -0.0805  1.0504 -0.6122
  501MOL0     H69099   8.035   0.538   0.421  1.8989  0.0638  1.0660
  501MOL0     H69100   7.536   0.243   0.502 -2.9405  0.8273  0.2503
  501MOL0     H69101   7.423   0.020   0.438 -2.6014  2.9149  1.2002
  501MOL0     H69102   7.277   0.035  -0.009  1.6665 -0.5696 -2.0238
  501MOL0     H69103   7.374  -0.112  -0.007 -0.2088  1.3163 -0.2292
  501MOL0     H69104   7.200  -0.217   0.128  1.5909 -1.7948 -2.5743
  501MOL0     H69105   7.103  -0.068   0.095 -0.4919 -0.4394  0.1997
  501MOL0     H69106   7.181  -0.300  -0.094  1.3388  0.5866  0.3475
  501MOL0     H69107   7.139  -0.138  -0.152 -3.8905  0.1602 -0.7586
  501MOL0     H69108   6.901  -0.171  -0.031 -1.9462 -1.4952  0.4959
  501MOL0     H69109   6.946  -0.329  -0.004 -3.5588  1.9336  0.7720
  501MOL0     H69110   6.990  -0.362  -0.252 -0.1082 -1.9294  0.7482
  501MOL0     H69111   6.821  -0.341  -0.196 -0.4051 -1.0066  1.2035
  501MOL0     H69112   6.871  -0.246  -0.401 -0.4861  1.1533  0.2666
  501MOL0     H69113   7.000  -0.136  -0.338 -0.8231  2.6333 -2.8681
  501MOL0     H69114   6.841  -0.019  -0.187 -1.6302 -0.4082  1.7591
  501MOL0     H69115   6.725  -0.130  -0.203  1.2342 -0.5829  0.4478
  501MOL0     H69116   6.674   0.072  -0.361  0.6535  2.0816 -1.1013
  501MOL0     H69117   6.696  -0.074  -0.448 -2.2092 -0.5637  1.8949
  501MOL0     H69118   7.471   0.172   0.018  1.9497  0.0381  0.3759
  501MOL0     H69119   7.583   0.333   0.101 -2.4386 -0.2052 -1.9428
  501MOL0     H69120   7.543   0.690   0.302  0.9965 -1.3111  0.3676
  501MOL0     H69121   7.595   0.922   0.385 -1.7146 -1.8234  0.0945
  501MOL0     H69122   6.660   1.613   0.634 -1.9264 -1.2602  0.4629
  501MOL0     H69123   6.464   1.634   0.511  2.1067 -1.3345  0.3682
  501MOL0     H69124   6.183   2.026   0.372  2.4979 -3.0927  3.8398
  501MOL0     H69125   5.971   2.120   0.279  0.8281 -0.8116 -1.7159
  501MOL0     H69126   5.631   2.089   0.131  0.8790 -0.7377 -2.8369
  501MOL0     H69127   5.766   2.140   0.242  2.3676 -3.2542  1.4741
  501MOL0     H69128   5.703   2.218  -0.014  0.3796  4.3420  2.1967
  501MOL0     H69129   5.836   2.103  -0.043 -3.6265 -1.7193  0.0252
  501MOL0     H69130   5.837   2.359   0.131 -0.7828 -0.3739 -0.4961
  501MOL0     H69131   5.986   2.263   0.085  0.9442 -2.6089 -2.5259
  501MOL0     H69132   5.799   2.410  -0.100 -0.4989 -0.5457  0.4772
  501MOL0     H69133   5.945   2.325  -0.148 -1.0387 -0.8427  0.4184
  501MOL0     H69134   6.055   2.714   0.030  0.7689  1.0667 -2.2707
  501MOL0     H69135   5.834   1.717   0.184 -1.6628  2.1584 -2.4099
  501MOL0     H69136   6.039   1.593   0.473 -0.2413 -0.5770 -0.0357
  501MOL0     H69137   5.915   1.534   0.352  2.6554 -4.1496 -0.0003
  501MOL0     H69138   6.071   1.532   0.311  0.9281 -0.0613  1.6892
  502MOL0     O69139   2.447   5.282   6.176  0.3436  0.0056  0.9594
  502MOL0     C69140   2.519   5.282   6.281  1.0987 -0.5939  0.0304
  502MOL0     O69141   2.483   5.357   6.390 -0.1004  0.5957 -1.0806
  502MOL0     C69142   2.359   5.417   6.389  0.0698  0.5660 -0.4755
  502MOL0     C69143   2.242   5.352   6.345  0.8675  0.4395  0.6755
  502MOL0     C69144   2.131   5.431   6.323  0.5019 -0.2642 -0.5526
  502MOL0     C69145   2.125   5.562   6.373 -0.7992 -0.4592 -0.3345
  502MOL0     O69146   2.022   5.634   6.371  0.2695 -0.3630 -0.1006
  502MOL0     C69147   2.033   5.749   6.277 -0.6338  0.0672  1.1400
  502MOL0     C69148   1.920   5.842   6.301  0.8684  0.2631 -1.3009
  502MOL0     C69149   1.789   5.772   6.256  0.5435  0.8316  1.1958
  502MOL0     C69150   1.680   5.877   6.270  0.7688 -0.6943 -0.9587
  502MOL0     C69151   1.542   5.809   6.293  0.3625  0.6776 -0.4162
  502MOL0     C69152   1.433   5.922   6.315 -0.5087  0.1524 -0.8565
  502MOL0     C69153   1.402   6.021   6.205 -0.6791  1.4633 -0.4292
  502MOL0     C69154   1.397   5.953   6.062 -0.7128 -0.1616  0.4571
  502MOL0     N69155   1.275   5.875   6.044  0.3970  1.3091  0.5343
  502MOL0     C69156   1.272   5.735   6.049  0.7572 -0.1601  1.4552
  502MOL0     C69157   1.146   5.699   6.047  0.3686 -0.4066 -0.1891
  502MOL0     C69158   1.085   5.562   6.041  0.8360  0.0909  0.0126
  502MOL0     C69159   1.104   5.524   5.897 -0.2792 -0.4066  0.1222
  502MOL0     C69160   1.011   5.422   5.842  0.2895  0.1377  0.2598
  502MOL0     C69161   0.989   5.299   5.935 -0.2800  0.3120  0.3596
  502MOL0     O69162   0.925   5.187   5.867 -0.2450  0.1030  0.8344
  502MOL0     C69163   0.924   5.055   5.915 -0.4774 -0.2146 -0.2196
  502MOL0     C69164   0.866   4.959   5.842  0.3292  0.7812  0.3189
  502MOL0     C69165   0.862   4.828   5.877 -0.3950  0.4026  0.7245
  502MOL0     C69166   0.779   4.742   5.778 -0.0349  0.1537 -1.1510
  502MOL0     C69167   0.917   4.785   6.002  0.2283 -0.7883 -0.6892
  502MOL0     C69168   0.895   4.648   6.057  0.4362 -0.4220 -0.6338
  502MOL0     O69169   0.822   4.631   6.182  0.6682  0.1596  0.7288
  502MOL0     C69170   0.774   4.510   6.219  0.0612 -0.7095 -0.2195
  502MOL0     C69171   0.722   4.499   6.353 -0.0160 -0.5147  0.5579
  502MOL0     C69172   0.687   4.378   6.402  1.2117 -0.4516  0.0583
  502MOL0     C69173   0.679   4.269   6.311  0.5923 -0.3943 -0.2888
  502MOL0     O69174   0.666   4.140   6.347  0.0464  0.4944  0.7171
  502MOL0     C69175   0.641   4.112   6.484  0.4789  0.1495  0.6309
  502MOL0     C69176   0.530   4.001   6.488  0.1813 -0.1297 -1.1583
  502MOL0     C69177   0.545   3.920   6.618  0.6793 -0.3948 -0.3472
  502MOL0     C69178   0.420   3.820   6.636 -0.2860  0.0458 -0.4726
  502MOL0     C69179   0.403   3.715   6.513 -0.3593  0.6443  1.0732
  502MOL0     C69180   0.523   3.620   6.508 -0.5590  0.2510  0.2263
  502MOL0     C69181   0.490   3.481   6.444  0.9475 -0.1618 -0.2896
  502MOL0     C69182   0.574   3.373   6.494 -0.8356 -0.3041 -0.2692
  502MOL0    Cl69183   0.523   3.344   6.657  0.1901 -0.6844  0.2909
  502MOL0     C69184   0.697   4.287   6.174 -0.0387 -0.0488  1.3782
  502MOL0     C69185   0.748   4.411   6.129  0.2194  0.5905 -0.6379
  502MOL0     O69186   0.953   4.553   6.003  0.6254  0.1064 -0.5597
  502MOL0     C69187   0.972   4.888   6.077  0.4465  0.2119 -0.3215
  502MOL0     C69188   0.977   5.023   6.040  0.1440 -0.2768 -0.7262
  502MOL0     N69189   1.064   5.809   6.049 -0.1185 -0.1659 -0.6602
  502MOL0     N69190   1.148   5.913   6.046 -0.9171  0.3958 -0.6210
  502MOL0     C69191   2.233   5.618   6.443  0.2984 -0.5086  0.9511
  502MOL0     C69192   2.355   5.544   6.442 -0.1628  0.5794 -0.6656
  502MOL0     C69193   2.655   5.222   6.297 -0.5787  0.3776  0.0759
  502MOL0     C69194   2.751   5.274   6.390  0.7041  0.8342 -0.5881
  502MOL0     C69195   2.879   5.223   6.403  0.2881 -0.3015  0.0768
  502MOL0     C69196   2.916   5.109   6.344  0.6809 -0.6553  0.7123
  502MOL0     O69197   3.037   5.048   6.375 -0.3243 -0.1289  0.2683
  502MOL0     C69198   3.079   5.035   6.518  0.5408 -0.4416 -0.3369
  502MOL0     C69199   3.232   5.036   6.509 -0.7574 -0.4406 -0.3854
  502MOL0     C69200   3.284   5.177   6.467  0.0089 -0.2520 -0.1046
  502MOL0     C69201   3.422   5.196   6.451  1.3370 -0.1093  1.1358
  502MOL0     C69202   3.480   5.219   6.581 -0.2966  0.4421 -0.0400
  502MOL0     C69203   3.523   5.217   6.690  0.6556 -0.3021 -0.8515
  502MOL0     C69204   2.824   5.050   6.241 -0.3639 -1.4711 -0.5337
  502MOL0     C69205   2.702   5.111   6.216  0.3698  0.1497  0.6944
  502MOL0     C69206   2.603   5.023   6.145 -0.8155 -0.5972 -0.6649
  502MOL0     H69207   2.246   5.250   6.309 -1.2611  0.5980 -0.1256
  502MOL0     H69208   2.046   5.393   6.268  1.4436 -1.9208 -0.9170
  502MOL0     H69209   2.022   5.714   6.174 -1.2799 -0.0632  1.2482
  502MOL0     H69210   2.129   5.799   6.287 -0.8801  0.7816  0.1138
  502MOL0     H69211   1.930   5.855   6.409  0.7257 -0.5709 -1.1823
  502MOL0     H69212   1.943   5.935   6.248  0.2122  1.9719  1.2179
  502MOL0     H69213   1.801   5.742   6.152  0.8489  1.7259  0.9627
  502MOL0     H69214   1.774   5.684   6.319 -0.9517 -1.1478 -1.7205
  502MOL0     H69215   1.695   5.948   6.352 -0.9329 -1.4476  0.0766
  502MOL0     H69216   1.693   5.945   6.186  0.4576  2.7153  1.5335
  502MOL0     H69217   1.522   5.737   6.373 -1.9997  1.8369  0.1252
  502MOL0     H69218   1.534   5.745   6.205  2.6557 -0.0921 -0.1449
  502MOL0     H69219   1.339   5.877   6.348 -1.3423  1.7432 -0.9910
  502MOL0     H69220   1.462   5.986   6.398 -1.7654 -1.1029  0.6040
  502MOL0     H69221   1.476   6.101   6.214  1.3990 -0.1882 -2.0237
  502MOL0     H69222   1.309   6.078   6.217 -1.0439  0.6627  0.7349
  502MOL0     H69223   1.381   6.031   5.987  0.7850 -0.2821 -0.0217
  502MOL0     H69224   1.488   5.901   6.031  0.9775  2.5034  0.6215
  502MOL0     H69225   1.355   5.666   6.045  0.0981 -1.0133  1.9708
  502MOL0     H69226   0.982   5.559   6.078  0.7734 -2.2621 -0.1758
  502MOL0     H69227   1.135   5.493   6.109 -1.1714 -0.7605  0.6996
  502MOL0     H69228   1.081   5.609   5.833  0.7162 -0.6901 -0.6455
  502MOL0     H69229   1.207   5.489   5.879  1.1123  3.3028  0.1307
  502MOL0     H69230   0.913   5.463   5.818  0.7171  2.2791  1.8297
  502MOL0     H69231   1.054   5.374   5.754  0.1789 -1.5811  1.1040
  502MOL0     H69232   1.084   5.264   5.976 -0.3781  0.8935  1.0877
  502MOL0     H69233   0.934   5.326   6.025  2.2293 -0.6659  2.3100
  502MOL0     H69234   0.821   4.990   5.748  0.1984 -1.4594 -0.4213
  502MOL0     H69235   0.853   4.672   5.738 -0.1018  0.0740 -1.1350
  502MOL0     H69236   0.722   4.796   5.702 -2.7414 -2.3721 -1.0971
  502MOL0     H69237   0.711   4.680   5.837  2.2999 -0.8148  0.6831
  502MOL0     H69238   0.732   4.578   6.426  1.7015  2.5000 -2.6272
  502MOL0     H69239   0.666   4.390   6.508 -0.3005  2.4375 -0.4530
  502MOL0     H69240   0.739   4.082   6.521  1.4878 -0.1475 -2.0573
  502MOL0     H69241   0.591   4.190   6.541  1.1234  3.4551 -2.8708
  502MOL0     H69242   0.428   4.038   6.481  0.3096  0.8319  1.2979
  502MOL0     H69243   0.545   3.936   6.401  4.9295 -1.6095  0.4378
  502MOL0     H69244   0.557   3.991   6.700  0.9230  1.0893 -1.6227
  502MOL0     H69245   0.642   3.869   6.621  1.1756  0.2002  5.1399
  502MOL0     H69246   0.329   3.881   6.638  0.9989  2.1146 -1.3081
  502MOL0     H69247   0.424   3.762   6.729 -0.4725 -3.7608 -2.6493
  502MOL0     H69248   0.312   3.654   6.524 -0.2312 -0.7061 -3.2644
  502MOL0     H69249   0.390   3.757   6.413  0.4991  1.4849  1.3112
  502MOL0     H69250   0.558   3.592   6.608  1.6074  1.4789 -0.1372
  502MOL0     H69251   0.603   3.669   6.452 -0.2703 -1.3680 -0.8474
  502MOL0     H69252   0.507   3.492   6.336 -2.7976 -0.7543 -1.0518
  502MOL0     H69253   0.385   3.453   6.444  1.2969 -1.6548  1.3996
  502MOL0     H69254   0.681   3.397   6.488 -1.0761  0.7669 -0.4652
  502MOL0     H69255   0.558   3.274   6.450 -1.7349 -0.0422 -0.5544
  502MOL0     H69256   0.685   4.208   6.102  0.5119  2.3911 -1.5978
  502MOL0     H69257   0.775   4.413   6.024  1.5201 -1.4004 -0.4000
  502MOL0     H69258   1.007   4.849   6.172 -0.6419 -1.7816 -0.6976
  502MOL0     H69259   1.023   5.096   6.106  1.4879  0.8079 -2.7881
  502MOL0     H69260   2.228   5.715   6.491 -0.4854  0.3042 -0.6916
  502MOL0     H69261   2.447   5.587   6.481  1.1364 -0.7338 -2.1499
  502MOL0     H69262   2.724   5.354   6.458  0.4493  1.1588 -1.0623
  502MOL0     H69263   2.947   5.266   6.476  0.1359  0.4923 -0.2334
  502MOL0     H69264   3.049   5.123   6.575  1.0314 -0.2191 -0.4137
  502MOL0     H69265   3.056   4.938   6.561  1.6598 -1.0267 -1.0073
  502MOL0     H69266   3.274   4.956   6.448  2.9914 -0.5153  1.9823
  502MOL0     H69267   3.271   5.017   6.609  0.7523 -2.2443 -1.2580
  502MOL0     H69268   3.248   5.201   6.366  2.4362  4.0607 -0.2091
  502MOL0     H69269   3.249   5.258   6.532  0.8268 -2.4868  3.3513
  502MOL0     H69270   3.432   5.281   6.383 -2.4210  1.3653  2.1786
  502MOL0     H69271   3.452   5.104   6.400  0.9841  0.2780  0.1971
  502MOL0     H69272   3.538   5.225   6.796 -6.5143 -0.6299  0.6416
  502MOL0     H69273   2.873   4.969   6.189  2.2651  1.0036 -2.2163
  502MOL0     H69274   2.661   4.955   6.081  1.9429 -1.9953  2.9626
  502MOL0     H69275   2.525   4.974   6.204  0.7432  1.0406  3.0223
  502MOL0     H69276   2.575   5.089   6.062  2.5660  0.1024 -1.4094
  503MOL0     O69277   6.825   3.560   7.289  0.7484  0.6791 -0.3691
  503MOL0     C69278   6.801   3.531   7.174 -0.5854  0.2365 -0.1320
  503MOL0     O69279   6.885   3.566   7.073  0.5980  0.1581  0.4166
  503MOL0     C69280   6.985   3.658   7.096 -0.2218 -0.5413  0.9919
  503MOL0     C69281   6.950   3.786   7.112 -1.2109  0.7935 -0.0123
  503MOL0     C69282   7.039   3.896   7.120  0.1855 -0.3245  0.4524
  503MOL0     C69283   7.175   3.858   7.124 -0.2141  0.9342  1.4621
  503MOL0     O69284   7.267   3.953   7.139 -0.4815  0.0937  0.1121
  503MOL0     C69285   7.260   4.022   7.263  0.0616  0.7652 -0.1092
  503MOL0     C69286   7.372   3.989   7.362  0.7652  0.2328  0.5991
  503MOL0     C69287   7.382   3.829   7.396  0.7716 -0.0164  0.0553
  503MOL0     C69288   7.430   3.806   7.531 -0.3371  0.9521  0.3236
  503MOL0     C69289   7.428   3.651   7.564  0.1730  1.0547 -0.0744
  503MOL0     C69290   7.289   3.589   7.596 -0.5480  0.0200 -0.1659
  503MOL0     C69291   7.301   3.440   7.651 -0.2896  0.8453  1.1137
  503MOL0     C69292   7.371   3.342   7.553 -0.1525  0.5282  1.1457
  503MOL0     N69293   7.503   3.312   7.595 -0.3586  0.3371 -0.2741
  503MOL0     C69294   7.561   3.285   7.720 -0.9543 -0.0716  0.3096
  503MOL0     C69295   7.694   3.287   7.698  0.2169 -0.2142  1.1792
  503MOL0     C69296   7.809   3.288   7.796  0.0285  0.7809 -0.3489
  503MOL0     C69297   7.871   3.428   7.824  1.1087  0.4127  0.1172
  503MOL0     C69298   7.976   3.439   7.923  0.0950  0.3566 -0.6454
  503MOL0     C69299   8.050   3.570   7.936 -0.2916  0.1204 -0.4669
  503MOL0     O69300   8.159   3.554   8.020  0.4293  0.0693 -0.1279
  503MOL0     C69301   8.258   3.642   8.024 -0.5376 -0.0981  0.6036
  503MOL0     C69302   8.266   3.766   7.972 -0.5805 -0.2046  0.3397
  503MOL0     C69303   8.380   3.841   7.991 -1.4186  0.5594 -0.0978
  503MOL0     C69304   8.396   3.981   7.917 -0.0978  0.4492 -0.4141
  503MOL0     C69305   8.491   3.791   8.071 -0.9333 -0.8413  0.1054
  503MOL0     C69306   8.608   3.866   8.122  0.0545 -0.6781  0.1800
  503MOL0     O69307   8.727   3.795   8.152  1.0258  0.1575 -0.0329
  503MOL0     C69308   8.841   3.851   8.191 -0.6412 -0.1822 -0.4629
  503MOL0     C69309   8.889   3.976   8.149  0.4849  0.6976 -0.2143
  503MOL0     C69310   8.997   4.031   8.218  0.1767  0.8212 -0.3970
  503MOL0     C69311   9.071   3.969   8.322 -0.4499  0.2810  1.3297
  503MOL0     O69312   9.189   4.025   8.370 -0.3658 -0.3294 -0.2389
  503MOL0     C69313   9.219   4.015   8.510 -0.4047 -0.6488 -0.4753
  503MOL0     C69314   9.336   4.094   8.555 -0.4579 -0.6312  0.2817
  503MOL0     C69315   9.459   4.004   8.532  0.5513 -0.1908 -0.5561
  503MOL0     C69316   9.514   3.976   8.396 -0.6620 -0.7146 -0.4663
  503MOL0     C69317   9.646   3.918   8.416 -1.2540 -0.2275  0.1966
  503MOL0     C69318   9.718   3.863   8.289  0.2891 -0.3648  1.0556
  503MOL0     C69319   9.720   3.970   8.182 -0.1967  0.8005  1.2525
  503MOL0     C69320   9.832   3.965   8.070 -0.3568 -0.7712 -0.2757
  503MOL0    Cl69321   9.820   3.816   7.989 -0.3081 -0.5860 -0.2040
  503MOL0     C69322   9.025   3.841   8.352 -0.8051  0.2869 -0.4561
  503MOL0     C69323   8.909   3.785   8.297 -0.6287  0.7445 -0.6422
  503MOL0     O69324   8.601   3.993   8.121 -0.2406  0.3844  0.0116
  503MOL0     C69325   8.470   3.665   8.126 -0.7890 -0.2442 -0.1736
  503MOL0     C69326   8.365   3.587   8.096  0.7715 -0.6554  0.0443
  503MOL0     N69327   7.718   3.334   7.566  0.3720  0.3597  0.7959
  503MOL0     N69328   7.605   3.333   7.509 -0.4054 -0.2346  0.8174
  503MOL0     C69329   7.225   3.723   7.109 -0.0624 -1.0113 -0.0578
  503MOL0     C69330   7.124   3.628   7.083 -0.2717  0.0932 -0.0508
  503MOL0     C69331   6.686   3.447   7.142 -0.1883  1.0725  0.3936
  503MOL0     C69332   6.692   3.358   7.032  0.0573 -0.8296 -0.4667
  503MOL0     C69333   6.594   3.263   7.013  0.7691 -0.7029  0.3537
  503MOL0     C69334   6.473   3.268   7.087  0.0280 -0.6884 -0.3455
  503MOL0     O69335   6.373   3.174   7.069 -0.1364 -0.6426  0.7627
  503MOL0     C69336   6.315   3.127   7.192 -0.6850  0.0427  1.1294
  503MOL0     C69337   6.261   2.989   7.162 -1.1705 -0.4310  0.4237
  503MOL0     C69338   6.151   2.988   7.058  0.8499 -0.0045  0.8477
  503MOL0     C69339   6.103   2.844   7.023  0.6540 -0.3213 -0.4284
  503MOL0     C69340   5.971   2.804   7.067  1.0908  0.4426 -0.5493
  503MOL0     C69341   5.859   2.759   7.094 -0.2545 -0.0621 -0.1818
  503MOL0     C69342   6.464   3.364   7.185  0.4570 -1.4404  0.0947
  503MOL0     C69343   6.562   3.454   7.215  0.1688  0.2003  0.2291
  503MOL0     C69344   6.534   3.556   7.330  1.2786 -0.2235  0.7305
  503MOL0     H69345   6.844   3.812   7.112 -1.0424  1.5267  0.9010
  503MOL0     H69346   6.994   3.995   7.116 -0.7802 -0.7291 -3.7443
  503MOL0     H69347   7.166   3.999   7.313  0.6525  0.1343  0.7379
  503MOL0     H69348   7.264   4.131   7.253  2.1185  0.9552  1.9465
  503MOL0     H69349   7.466   4.013   7.312 -0.0297  1.1024 -0.5375
  503MOL0     H69350   7.357   4.059   7.445 -2.8004  2.2142 -1.4674
  503MOL0     H69351   7.285   3.779   7.381  1.0873  0.2088 -3.3574
  503MOL0     H69352   7.447   3.781   7.322  0.1142 -1.2159  0.2206
  503MOL0     H69353   7.538   3.820   7.530 -0.0727 -0.8452 -0.3164
  503MOL0     H69354   7.388   3.871   7.609  2.5128  5.3652 -1.4515
  503MOL0     H69355   7.488   3.636   7.654  0.0175 -2.7175 -0.4225
  503MOL0     H69356   7.472   3.595   7.481  2.6936 -0.1111  1.9291
  503MOL0     H69357   7.246   3.645   7.680 -2.8560 -1.5359 -0.2411
  503MOL0     H69358   7.223   3.598   7.510 -0.6136 -4.8581 -0.9287
  503MOL0     H69359   7.197   3.408   7.662  0.0021 -0.0966  1.2850
  503MOL0     H69360   7.353   3.428   7.747 -0.4884  0.1906  1.1486
  503MOL0     H69361   7.309   3.252   7.553 -1.4953  1.3510 -1.2010
  503MOL0     H69362   7.384   3.370   7.448  0.8679 -2.0358  0.4935
  503MOL0     H69363   7.511   3.275   7.816 -2.9825  1.2635 -0.5516
  503MOL0     H69364   7.892   3.230   7.754 -2.2009 -0.9833 -2.6829
  503MOL0     H69365   7.773   3.239   7.887 -1.1591 -1.9999 -2.1801
  503MOL0     H69366   7.910   3.465   7.729 -1.8383  3.0066 -0.2148
  503MOL0     H69367   7.797   3.505   7.845  1.4594  0.6181  0.6007
  503MOL0     H69368   7.924   3.419   8.016 -0.6683 -0.8677 -1.3154
  503MOL0     H69369   8.056   3.365   7.928 -0.0973  0.1596  3.9633
  503MOL0     H69370   8.080   3.618   7.843  1.0737  0.8091  0.3168
  503MOL0     H69371   7.999   3.657   7.977  3.2192  1.2364  1.9327
  503MOL0     H69372   8.180   3.808   7.920  0.8344  1.5334 -0.7276
  503MOL0     H69373   8.313   4.002   7.849 -3.3217  3.2449  3.8001
  503MOL0     H69374   8.496   3.991   7.873  1.5810 -1.2774  2.6354
  503MOL0     H69375   8.401   4.063   7.990  1.7702 -1.1370  1.3583
  503MOL0     H69376   8.840   4.034   8.071  0.2870  1.4641  0.4634
  503MOL0     H69377   9.023   4.135   8.198  2.7018  0.5353  0.9891
  503MOL0     H69378   9.137   4.061   8.567  1.3935 -0.2245  1.9321
  503MOL0     H69379   9.225   3.912   8.549  0.5288 -0.1334  0.8082
  503MOL0     H69380   9.338   4.180   8.487 -1.0985  0.3256  1.4392
  503MOL0     H69381   9.335   4.123   8.660  3.8067 -2.3197  0.9689
  503MOL0     H69382   9.439   3.908   8.580  0.2774 -1.0077 -2.2619
  503MOL0     H69383   9.538   4.050   8.592  2.2518 -2.3936 -1.0036
  503MOL0     H69384   9.509   4.063   8.330 -1.6286 -0.4951 -0.1159
  503MOL0     H69385   9.447   3.902   8.350  0.2849 -1.3690 -0.8139
  503MOL0     H69386   9.711   3.996   8.457 -0.2928 -2.0448  2.3675
  503MOL0     H69387   9.638   3.829   8.478 -1.6926 -0.4125 -0.1215
  503MOL0     H69388   9.667   3.771   8.259  1.3252 -0.9318  1.0001
  503MOL0     H69389   9.813   3.824   8.325 -0.6248 -3.0442  0.8074
  503MOL0     H69390   9.748   4.059   8.238 -0.0043  1.0694  0.7330
  503MOL0     H69391   9.621   3.982   8.138  0.0199  4.5540  1.5164
  503MOL0     H69392   9.936   3.975   8.101  0.3555  2.4387 -3.1059
  503MOL0     H69393   9.812   4.052   8.007 -0.7153  0.2897  1.2411
  503MOL0     H69394   9.083   3.777   8.418 -1.1973  0.1047 -0.2849
  503MOL0     H69395   8.882   3.685   8.326  0.2841  0.9139  0.9002
  503MOL0     H69396   8.546   3.629   8.194 -0.2576 -1.6334 -1.4393
  503MOL0     H69397   8.356   3.488   8.139 -5.5885 -1.6847 -2.5400
  503MOL0     H69398   7.330   3.698   7.118  0.4258 -0.6946 -3.5066
  503MOL0     H69399   7.159   3.528   7.062 -0.5614  0.3572 -1.9973
  503MOL0     H69400   6.785   3.366   6.977  1.5575  2.1934  2.1753
  503MOL0     H69401   6.623   3.187   6.942  2.4116 -0.0471  0.2921
  503MOL0     H69402   6.390   3.105   7.268  0.1033 -0.6761  0.1801
  503MOL0     H69403   6.238   3.186   7.241 -0.4207  1.0438  0.3642
  503MOL0     H69404   6.223   2.950   7.256  1.2977 -1.8119  0.9304
  503MOL0     H69405   6.349   2.929   7.136 -1.5139 -0.6018 -0.3909
  503MOL0     H69406   6.071   3.058   7.085 -0.8367 -0.6550 -1.9948
  503MOL0     H69407   6.189   3.017   6.960  3.7746 -0.6722  1.6967
  503MOL0     H69408   6.173   2.775   7.072 -0.9097  0.2828  2.9991
  503MOL0     H69409   6.118   2.821   6.917  0.3243 -1.5281 -0.2324
  503MOL0     H69410   5.759   2.727   7.114 -0.2395  0.3271  0.5430
  503MOL0     H69411   6.380   3.364   7.255 -0.4757 -0.8428 -0.9832
  503MOL0     H69412   6.585   3.523   7.422 -1.9132 -1.0474  2.3656
  503MOL0     H69413   6.585   3.645   7.294 -0.4729  0.7058  0.4367
  503MOL0     H69414   6.428   3.582   7.339  1.0771 -1.6299  3.5070
  504MOL0     O69415  11.469   9.984   3.815  0.7289 -0.5710  0.1195
  504MOL0     C69416  11.530   9.874   3.797 -0.0639 -0.1473 -0.5418
  504MOL0     O69417  11.495   9.772   3.708  0.2575  0.1490 -0.7320
  504MOL0     C69418  11.376   9.764   3.636  0.8959 -0.9589 -0.2754
  504MOL0     C69419  11.276   9.866   3.606  0.1253  0.2421  0.7281
  504MOL0     C69420  11.154   9.828   3.544  0.0160  0.2849  0.3330
  504MOL0     C69421  11.146   9.706   3.494  0.8101  0.5729 -0.3150
  504MOL0     O69422  11.044   9.668   3.405  0.8363  0.5698 -0.3331
  504MOL0     C69423  10.972   9.761   3.316 -0.7188 -0.5076 -0.5697
  504MOL0     C69424  10.980   9.701   3.174  0.8464 -0.9280 -0.1285
  504MOL0     C69425  10.886   9.770   3.074 -0.2830 -0.2635  0.4068
  504MOL0     C69426  10.847   9.671   2.967  0.4218 -0.7946 -0.3886
  504MOL0     C69427  10.773   9.741   2.849  0.0019  0.1088  0.2433
  504MOL0     C69428  10.701   9.640   2.751 -0.2019  0.1181 -0.1880
  504MOL0     C69429  10.617   9.707   2.645 -0.0539  0.3780 -0.3498
  504MOL0     C69430  10.559   9.593   2.551  0.3486 -1.2597 -0.6956
  504MOL0     N69431  10.506   9.658   2.434  0.3443  0.1231  0.1699
  504MOL0     C69432  10.588   9.704   2.338 -0.5336 -0.9385 -1.6012
  504MOL0     C69433  10.509   9.788   2.257  0.4889  0.5029 -0.1260
  504MOL0     C69434  10.541   9.887   2.141 -0.1409  0.3080 -0.8623
  504MOL0     C69435  10.628   9.822   2.041 -0.1020 -0.0685 -0.3308
  504MOL0     C69436  10.639   9.923   1.916 -0.1147  0.6343  0.6863
  504MOL0     C69437  10.731   9.855   1.818  0.3563  0.1398 -0.2231
  504MOL0     O69438  10.760   9.968   1.742  0.7189 -0.5507  0.5315
  504MOL0     C69439  10.782   9.964   1.608  0.3409  0.8875 -0.1810
  504MOL0     C69440  10.788   9.845   1.533  0.2480 -0.0652  0.0994
  504MOL0     C69441  10.827   9.849   1.399 -0.6147 -0.3375 -1.0428
  504MOL0     C69442  10.851   9.714   1.338  0.1794  0.3469  0.0968
  504MOL0     C69443  10.854   9.982   1.343  0.2546  0.4438 -0.4828
  504MOL0     C69444  10.887   9.993   1.203  0.5140 -0.7294 -0.0397
  504MOL0     O69445  10.878  10.128   1.151 -0.2681 -0.5972 -0.3426
  504MOL0     C69446  10.913  10.156   1.021 -0.4684  1.0845  0.0338
  504MOL0     C69447  10.858  10.072   0.920 -0.2737  0.1591 -0.3073
  504MOL0     C69448  10.911  10.072   0.791 -0.5692  0.5206 -0.8824
  504MOL0     C69449  10.993  10.184   0.750 -1.1063  0.0248  0.9549
  504MOL0     O69450  11.052  10.194   0.623 -0.1345 -0.8995  0.4132
  504MOL0     C69451  10.950  10.161   0.520  0.7910  0.2923 -0.8208
  504MOL0     C69452  11.001  10.179   0.373 -0.0332  0.2061  1.1034
  504MOL0     C69453  10.887  10.183   0.266 -0.2625 -0.0436  0.0501
  504MOL0     C69454  10.928  10.158   0.115  0.1080  0.0116  0.2078
  504MOL0     C69455  11.023  10.267   0.056  0.9895 -0.2376  0.9880
  504MOL0     C69456  10.985  10.420   0.065 -0.6768  0.9297 -0.1943
  504MOL0     C69457  10.844  10.447   0.007 -0.5496 -0.1776  0.2107
  504MOL0     C69458  10.823  10.603   0.018  0.4978  0.3431  0.1141
  504MOL0    Cl69459  10.849  10.663   0.188 -0.2440 -0.1240 -0.1421
  504MOL0     C69460  11.035  10.276   0.844  0.3413  0.6230  0.2449
  504MOL0     C69461  10.995  10.258   0.982 -0.6967  0.2154  0.0527
  504MOL0     O69462  10.933   9.903   1.134  0.4845  0.1234  0.2618
  504MOL0     C69463  10.820  10.099   1.416 -0.7650  1.0900 -0.3714
  504MOL0     C69464  10.777  10.085   1.546  0.0704  0.4828 -0.0779
  504MOL0     N69465  10.384   9.793   2.318  0.7289 -0.4026 -0.0938
  504MOL0     N69466  10.379   9.714   2.419 -0.1210  0.5847 -0.1477
  504MOL0     C69467  11.237   9.611   3.519  0.3067  0.9947  0.0631
  504MOL0     C69468  11.345   9.632   3.596 -0.5798 -0.9131 -0.0726
  504MOL0     C69469  11.663   9.852   3.862 -0.2977  0.6636  0.8961
  504MOL0     C69470  11.770   9.813   3.781  0.7292 -0.9315  0.3929
  504MOL0     C69471  11.896   9.797   3.838 -0.1883  0.8790  0.5268
  504MOL0     C69472  11.920   9.823   3.974 -0.5240  0.2159  0.7165
  504MOL0     O69473  12.042   9.835   4.030  0.6529 -0.0926  0.2255
  504MOL0     C69474  12.157   9.857   3.946  0.0551 -0.0430  0.0069
  504MOL0     C69475  12.275   9.908   4.035  0.0596 -0.8684 -0.1287
  504MOL0     C69476  12.252  10.046   4.091  1.1586 -0.0713  0.9622
  504MOL0     C69477  12.270  10.151   3.985  0.1805  0.1842 -0.0476
  504MOL0     C69478  12.244  10.287   4.033  0.7717 -0.2173 -0.0462
  504MOL0     C69479  12.204  10.395   4.084  0.3171  0.0253  0.5464
  504MOL0     C69480  11.813   9.855   4.056  0.4718 -0.5579 -0.7753
  504MOL0     C69481  11.684   9.871   4.000 -0.8710 -0.0486  0.5415
  504MOL0     C69482  11.575   9.878   4.095 -0.6035  0.0603  0.7684
  504MOL0     H69483  11.304   9.969   3.627  2.3813  0.0514 -0.9292
  504MOL0     H69484  11.080   9.904   3.523  0.8981  1.6084  1.8505
  504MOL0     H69485  11.032   9.853   3.307 -0.7607 -0.5653 -1.5896
  504MOL0     H69486  10.871   9.785   3.348 -0.2701 -0.0219  0.5441
  504MOL0     H69487  11.077   9.709   3.124  1.6930  1.8699  1.7196
  504MOL0     H69488  10.969   9.594   3.196 -1.1045 -0.5197  1.1179
  504MOL0     H69489  10.796   9.819   3.114  1.2279  3.7668 -0.5702
  504MOL0     H69490  10.949   9.848   3.030 -0.9364 -0.4872 -0.9479
  504MOL0     H69491  10.939   9.632   2.925  0.4437 -1.6300  0.4191
  504MOL0     H69492  10.801   9.581   3.008  0.3879  0.1776  1.8857
  504MOL0     H69493  10.834   9.810   2.790 -0.2607 -1.0427 -1.4527
  504MOL0     H69494  10.695   9.801   2.897 -0.7628 -3.4231  3.9086
  504MOL0     H69495  10.763   9.565   2.701  0.0433  0.7862 -0.8978
  504MOL0     H69496  10.633   9.586   2.818  2.2575  1.0490  3.3458
  504MOL0     H69497  10.674   9.767   2.573 -0.1847 -2.2392 -2.8292
  504MOL0     H69498  10.543   9.760   2.705 -0.6180 -3.1448  2.3659
  504MOL0     H69499  10.625   9.509   2.532 -1.3968 -2.6520 -0.8849
  504MOL0     H69500  10.474   9.549   2.605  0.7746 -2.2058 -0.7905
  504MOL0     H69501  10.693   9.677   2.348 -0.3168 -0.2511 -1.9686
  504MOL0     H69502  10.592   9.974   2.184 -0.2008  1.1668 -2.4535
  504MOL0     H69503  10.451   9.929   2.095  1.8524  2.3951 -3.1620
  504MOL0     H69504  10.723   9.808   2.092 -0.4218  0.4586  0.4276
  504MOL0     H69505  10.577   9.727   2.023 -1.9276  0.5120  1.4372
  504MOL0     H69506  10.540   9.932   1.870  0.3605  0.6387 -0.3773
  504MOL0     H69507  10.677  10.018   1.955  3.6730 -0.8001  0.8807
  504MOL0     H69508  10.821   9.816   1.865 -0.4983 -0.6826  0.7823
  504MOL0     H69509  10.675   9.777   1.765 -0.2766  0.3763  0.0964
  504MOL0     H69510  10.773   9.749   1.582  1.8385 -0.2994  0.1981
  504MOL0     H69511  10.808   9.703   1.238 -0.6360 -1.6671  0.6192
  504MOL0     H69512  10.804   9.645   1.409 -0.2047  2.5928  2.1501
  504MOL0     H69513  10.959   9.697   1.328  0.7519  2.9201  1.0738
  504MOL0     H69514  10.804   9.987   0.959  0.2241  1.2191  3.0643
  504MOL0     H69515  10.886   9.987   0.728 -2.4402  1.7571 -1.9105
  504MOL0     H69516  10.923  10.056   0.537 -1.1137  0.6354 -1.4478
  504MOL0     H69517  10.862  10.224   0.534 -1.8052 -2.8838 -1.5826
  504MOL0     H69518  11.065  10.267   0.358  0.2187  0.4228  3.1276
  504MOL0     H69519  11.066  10.093   0.359 -3.2634 -2.5381  1.7978
  504MOL0     H69520  10.837  10.280   0.272  2.8222  1.6396  1.3627
  504MOL0     H69521  10.814  10.107   0.296  0.0458 -0.2177  0.3791
  504MOL0     H69522  10.835  10.153   0.057 -0.6453 -1.0895  1.4399
  504MOL0     H69523  10.970  10.058   0.099  2.6824  0.6923  2.0982
  504MOL0     H69524  11.124  10.243   0.089  0.8649 -1.5206  0.4825
  504MOL0     H69525  11.028  10.233  -0.048 -0.3097  2.2644 -0.0013
  504MOL0     H69526  11.061  10.483   0.019  0.2144  1.3743  1.8108
  504MOL0     H69527  10.975  10.448   0.170 -2.7071 -0.0893 -0.0570
  504MOL0     H69528  10.768  10.391   0.063  1.4169 -3.3007 -0.0377
  504MOL0     H69529  10.828  10.423  -0.098  1.0820  1.2466 -0.4075
  504MOL0     H69530  10.724  10.629  -0.019  0.3277 -1.2071 -0.5532
  504MOL0     H69531  10.890  10.655  -0.051  2.8216  2.0059  3.2840
  504MOL0     H69532  11.098  10.360   0.817 -0.6070  0.6699 -2.0677
  504MOL0     H69533  11.032  10.327   1.057 -2.2777 -0.4843  1.5135
  504MOL0     H69534  10.827  10.201   1.378 -1.2148  1.4375  0.4510
  504MOL0     H69535  10.756  10.172   1.607  4.1122  3.3250 -2.2006
  504MOL0     H69536  11.239   9.508   3.487  2.0343  0.9272  0.3120
  504MOL0     H69537  11.425   9.564   3.623  2.0116  1.0318 -2.2351
  504MOL0     H69538  11.752   9.804   3.675 -2.3379  3.3468  0.3078
  504MOL0     H69539  11.963   9.761   3.760 -3.1080 -3.5567 -0.2754
  504MOL0     H69540  12.182   9.767   3.888 -1.4402 -2.4233  2.8002
  504MOL0     H69541  12.121   9.939   3.885 -2.8562  0.1993  1.8846
  504MOL0     H69542  12.369   9.898   3.980 -1.0370 -3.7148 -1.7229
  504MOL0     H69543  12.283   9.836   4.116  1.2739  0.9689  1.4561
  504MOL0     H69544  12.148  10.052   4.124  0.3464  0.9429 -1.5241
  504MOL0     H69545  12.318  10.064   4.176  1.8765  1.9266  0.0391
  504MOL0     H69546  12.199  10.127   3.904  0.5473  0.5924 -0.4947
  504MOL0     H69547  12.367  10.146   3.934 -1.3226  0.3674 -3.2147
  504MOL0     H69548  12.181  10.496   4.111  1.7444  3.0106 -6.8533
  504MOL0     H69549  11.840   9.886   4.156  0.6506  1.8811 -1.5253
  504MOL0     H69550  11.538   9.775   4.097  1.4900 -0.9577 -3.0387
  504MOL0     H69551  11.607   9.911   4.194  1.0114  1.5319 -0.1921
  504MOL0     H69552  11.503   9.954   4.065 -0.1824 -0.5022 -1.8651
  505MOL0     O69553   6.412   3.305   1.414  0.6253 -0.5804  0.2278
  505MOL0     C69554   6.491   3.265   1.505 -0.4630 -0.2666  0.2216
  505MOL0     O69555   6.532   3.339   1.616 -0.1600  0.2550  0.1624
  505MOL0     C69556   6.452   3.448   1.627  0.2583 -0.1713 -0.6309
  505MOL0     C69557   6.342   3.438   1.707  0.3855 -0.3668 -0.2033
  505MOL0     C69558   6.268   3.545   1.743  0.5645 -0.0113  0.5340
  505MOL0     C69559   6.317   3.664   1.696 -0.2632 -0.0032 -0.0568
  505MOL0     O69560   6.250   3.787   1.721 -0.0559  0.3494  0.2249
  505MOL0     C69561   6.124   3.793   1.788  0.1867 -0.3137 -0.2073
  505MOL0     C69562   6.090   3.943   1.826 -0.1830  0.7366 -0.2223
  505MOL0     C69563   5.969   3.961   1.919  0.2480  0.2880 -0.0880
  505MOL0     C69564   5.938   4.109   1.931 -0.8469  0.0092 -0.0576
  505MOL0     C69565   5.807   4.140   1.986  0.0467 -0.0262  0.0386
  505MOL0     C69566   5.802   4.269   2.075 -0.1848  0.2688  0.1590
  505MOL0     C69567   5.776   4.404   1.998 -0.9580 -0.4648  0.7756
  505MOL0     C69568   5.774   4.533   2.070  0.4276 -0.5302 -0.0900
  505MOL0     N69569   5.850   4.533   2.194  0.9627 -0.6250  0.9527
  505MOL0     C69570   5.814   4.484   2.313 -0.0938 -0.2216  0.5421
  505MOL0     C69571   5.920   4.520   2.399  0.6623 -0.2757  1.0538
  505MOL0     C69572   5.946   4.475   2.534 -0.8012  0.2264 -0.3723
  505MOL0     C69573   5.891   4.582   2.632 -0.2438  0.3509 -0.1212
  505MOL0     C69574   5.981   4.601   2.747  0.4473  0.2698  0.3545
  505MOL0     C69575   5.933   4.698   2.848  1.4174 -0.1178 -0.2167
  505MOL0     O69576   5.793   4.696   2.883 -0.1514 -0.2673  0.3013
  505MOL0     C69577   5.730   4.795   2.960  1.2527  0.4308 -0.2778
  505MOL0     C69578   5.601   4.773   3.001 -1.0059  0.5064 -0.9158
  505MOL0     C69579   5.536   4.856   3.099  0.8388  0.0647 -0.1688
  505MOL0     C69580   5.393   4.834   3.141  0.1830 -0.4800 -1.3743
  505MOL0     C69581   5.601   4.967   3.146 -0.0543  0.7554 -0.3359
  505MOL0     C69582   5.551   5.051   3.250  0.7856  0.2439  0.1153
  505MOL0     O69583   5.506   4.983   3.360  0.0260  0.5561 -0.6120
  505MOL0     C69584   5.452   5.049   3.473 -0.1262 -0.1988  0.0719
  505MOL0     C69585   5.388   4.958   3.561  0.8244 -0.2131 -0.5850
  505MOL0     C69586   5.320   5.000   3.675  0.4071 -0.9048 -1.0277
  505MOL0     C69587   5.315   5.144   3.708 -0.3727  0.5524  0.6035
  505MOL0     O69588   5.252   5.177   3.824 -0.1266  0.1617  0.4352
  505MOL0     C69589   5.218   5.315   3.859 -0.4788  0.7595  0.0199
  505MOL0     C69590   5.213   5.317   4.011  0.5819 -0.2351 -0.1506
  505MOL0     C69591   5.086   5.251   4.069 -0.3107 -0.0325  0.1161
  505MOL0     C69592   5.021   5.343   4.181  0.0208  0.3889 -0.0377
  505MOL0     C69593   4.901   5.284   4.252 -0.7707 -0.2022 -0.0347
  505MOL0     C69594   4.775   5.251   4.160 -0.3855  0.0678 -0.4428
  505MOL0     C69595   4.697   5.138   4.196 -0.5183  0.0251 -0.4537
  505MOL0     C69596   4.768   5.001   4.207 -1.4894 -0.3718 -0.1896
  505MOL0    Cl69597   4.842   4.973   4.052 -0.3233  0.0239  0.0650
  505MOL0     C69598   5.389   5.232   3.626  0.1080  0.3822 -0.0951
  505MOL0     C69599   5.461   5.183   3.513  1.0188 -1.1646 -0.1440
  505MOL0     O69600   5.526   5.164   3.221  0.4398 -0.0455 -0.3378
  505MOL0     C69601   5.735   4.992   3.098  0.2982  0.8813 -0.3259
  505MOL0     C69602   5.794   4.907   3.003 -0.0844  0.8113 -0.4208
  505MOL0     N69603   6.001   4.601   2.324 -0.2106 -0.3076 -0.2157
  505MOL0     N69604   5.955   4.613   2.204  0.0503  0.2154  0.0270
  505MOL0     C69605   6.433   3.677   1.612  0.2242  0.5202 -0.2760
  505MOL0     C69606   6.505   3.565   1.575 -0.6455  0.6187  0.5755
  505MOL0     C69607   6.559   3.136   1.490  0.5042  0.3724  0.7220
  505MOL0     C69608   6.692   3.143   1.457 -0.5020 -1.2438 -0.0549
  505MOL0     C69609   6.763   3.034   1.412 -0.1686  0.3309  0.3359
  505MOL0     C69610   6.700   2.905   1.398 -0.0160 -0.4480  0.8712
  505MOL0     O69611   6.754   2.785   1.351 -0.0980 -0.3010 -0.3168
  505MOL0     C69612   6.878   2.789   1.276 -0.7274  0.0734 -0.7113
  505MOL0     C69613   6.901   2.689   1.165 -0.7860  0.4782 -0.7596
  505MOL0     C69614   6.895   2.543   1.197 -0.2262  1.1635  0.2053
  505MOL0     C69615   7.002   2.478   1.287  0.2794 -1.2949 -0.4915
  505MOL0     C69616   6.940   2.420   1.405 -0.5153 -0.0361 -0.4751
  505MOL0     C69617   6.866   2.389   1.500 -0.3435  0.0806  0.6826
  505MOL0     C69618   6.563   2.898   1.436 -0.1619 -0.1145 -0.4404
  505MOL0     C69619   6.494   3.008   1.492  0.6028 -1.0234  1.1377
  505MOL0     C69620   6.361   2.988   1.563 -0.0949 -0.2470  0.2246
  505MOL0     H69621   6.307   3.339   1.734  0.1441  0.6144  3.7435
  505MOL0     H69622   6.182   3.540   1.809  0.2253  0.5753  0.1442
  505MOL0     H69623   6.118   3.736   1.881  1.1794  0.4293  0.3382
  505MOL0     H69624   6.047   3.771   1.714  0.2912  1.8604 -1.0466
  505MOL0     H69625   6.181   3.964   1.883  0.0419 -0.6283 -0.0301
  505MOL0     H69626   6.087   4.000   1.733 -2.0823  0.8212 -0.1548
  505MOL0     H69627   5.894   3.906   1.861  0.5011  0.8975 -1.0089
  505MOL0     H69628   5.992   3.914   2.015 -0.8070 -1.1354 -0.5032
  505MOL0     H69629   6.016   4.175   1.972  2.6616 -2.1666 -2.6651
  505MOL0     H69630   5.926   4.144   1.828 -1.5330 -2.2019 -0.7835
  505MOL0     H69631   5.781   4.060   2.055  2.3940  0.5545  1.7576
  505MOL0     H69632   5.734   4.141   1.905 -2.1885  0.8605  1.9585
  505MOL0     H69633   5.726   4.257   2.153 -0.7859 -0.6521 -0.5532
  505MOL0     H69634   5.897   4.286   2.128  0.0747  1.2130 -0.5847
  505MOL0     H69635   5.683   4.401   1.942 -0.2808  1.8532 -0.6354
  505MOL0     H69636   5.862   4.412   1.930 -1.0452  0.0562  0.7217
  505MOL0     H69637   5.795   4.614   1.999 -2.5978  2.5396  2.1856
  505MOL0     H69638   5.666   4.544   2.084  0.0173 -0.8449 -2.5315
  505MOL0     H69639   5.724   4.427   2.335 -1.0899  0.7726 -0.8007
  505MOL0     H69640   6.052   4.450   2.543 -0.9169 -0.6626 -1.2203
  505MOL0     H69641   5.895   4.382   2.561  0.6093 -0.3950  0.2638
  505MOL0     H69642   5.883   4.676   2.576  0.5041 -0.6260 -1.9428
  505MOL0     H69643   5.792   4.547   2.663  0.2906 -2.0840 -0.9922
  505MOL0     H69644   6.002   4.502   2.787 -0.9273  0.6576  2.1338
  505MOL0     H69645   6.069   4.641   2.697 -0.4350  1.2265 -0.4869
  505MOL0     H69646   5.990   4.679   2.939 -0.7517 -1.2509  0.9718
  505MOL0     H69647   5.955   4.797   2.807  0.8969  1.5872  3.2393
  505MOL0     H69648   5.548   4.680   2.981 -0.8678 -0.0391  1.0383
  505MOL0     H69649   5.329   4.922   3.131  0.8719  0.2213  0.1578
  505MOL0     H69650   5.394   4.804   3.246  0.3809  2.2467 -0.5090
  505MOL0     H69651   5.344   4.747   3.096 -4.3560  0.6992  0.7030
  505MOL0     H69652   5.395   4.851   3.542 -1.6150 -0.2189 -1.8609
  505MOL0     H69653   5.267   4.923   3.730 -2.0894 -0.5413 -2.7313
  505MOL0     H69654   5.298   5.382   3.827  0.1688 -0.8154 -1.8157
  505MOL0     H69655   5.122   5.344   3.814 -2.0503  0.8417  3.1598
  505MOL0     H69656   5.295   5.264   4.062 -3.4924 -2.9740  4.4102
  505MOL0     H69657   5.216   5.421   4.042  0.1596  0.7850 -3.1719
  505MOL0     H69658   5.098   5.143   4.083 -2.1987 -0.9604 -3.9346
  505MOL0     H69659   5.007   5.253   3.994 -0.1434 -3.4630 -0.2956
  505MOL0     H69660   4.995   5.431   4.121 -0.6805 -2.0723 -3.6679
  505MOL0     H69661   5.087   5.374   4.263  1.6288 -1.5718 -0.5031
  505MOL0     H69662   4.936   5.213   4.327 -0.3442  2.1900  2.1586
  505MOL0     H69663   4.852   5.365   4.307 -0.9165  1.0977 -1.9857
  505MOL0     H69664   4.803   5.246   4.054 -0.4230 -1.2627 -0.4110
  505MOL0     H69665   4.708   5.338   4.163 -1.2580 -0.5927  2.2234
  505MOL0     H69666   4.620   5.124   4.120 -0.0721  2.8712 -1.5727
  505MOL0     H69667   4.667   5.155   4.299 -2.2710  0.1590 -0.9615
  505MOL0     H69668   4.694   4.925   4.237 -3.0450  0.7423 -1.0585
  505MOL0     H69669   4.855   4.996   4.272 -1.8326  0.8537  0.3869
  505MOL0     H69670   5.414   5.335   3.650 -3.5177  1.0336  1.4974
  505MOL0     H69671   5.526   5.251   3.460  0.5411  1.4704  2.4321
  505MOL0     H69672   5.797   5.065   3.150  0.9534 -0.5432  0.9701
  505MOL0     H69673   5.892   4.933   2.965 -0.4714  2.9328 -0.0915
  505MOL0     H69674   6.464   3.778   1.586  2.0648 -0.3542 -1.6901
  505MOL0     H69675   6.601   3.561   1.526  1.6531 -0.4886  4.7078
  505MOL0     H69676   6.750   3.234   1.471 -3.0600  0.6588 -0.9808
  505MOL0     H69677   6.866   3.052   1.382 -0.6003  0.4027 -1.1875
  505MOL0     H69678   6.876   2.886   1.225 -0.4563 -0.5141 -1.8924
  505MOL0     H69679   6.965   2.799   1.341  1.4494  1.9059 -3.6293
  505MOL0     H69680   7.001   2.699   1.121 -1.6888 -0.1742 -3.1243
  505MOL0     H69681   6.832   2.726   1.088  0.5631  3.7460 -0.5948
  505MOL0     H69682   6.803   2.508   1.244  1.8491 -1.4415  2.6908
  505MOL0     H69683   6.896   2.492   1.100  1.4854 -1.3892  1.4749
  505MOL0     H69684   7.061   2.556   1.336 -2.5479  0.2259  0.7295
  505MOL0     H69685   7.070   2.406   1.240  0.5877 -0.9789 -0.5354
  505MOL0     H69686   6.801   2.367   1.583 -2.1217  0.6066 -0.5092
  505MOL0     H69687   6.512   2.803   1.444 -0.2780 -0.2410 -2.1420
  505MOL0     H69688   6.321   2.895   1.521  1.0294 -1.2998  1.3953
  505MOL0     H69689   6.375   2.976   1.671 -0.0290 -1.3978  0.1049
  505MOL0     H69690   6.293   3.070   1.541 -1.2834 -1.6731 -1.7806
  506MOL0     O69691   6.959   3.618   5.603  0.6915 -0.0524 -0.7053
  506MOL0     C69692   6.935   3.676   5.500 -0.3292 -0.2259  0.6147
  506MOL0     O69693   7.017   3.772   5.446  0.1142  0.1125  0.3421
  506MOL0     C69694   7.125   3.823   5.512 -0.6437  0.1315 -0.3819
  506MOL0     C69695   7.128   3.865   5.646  0.9385 -0.4940  0.2459
  506MOL0     C69696   7.240   3.927   5.696  1.1348 -0.0346  0.7375
  506MOL0     C69697   7.350   3.948   5.613  0.3754 -0.6487  0.3448
  506MOL0     O69698   7.452   4.014   5.671 -0.4596  0.7286  1.0866
  506MOL0     C69699   7.545   4.091   5.585  1.2061 -0.4216  0.4600
  506MOL0     C69700   7.662   4.142   5.671  0.8140 -0.4891  0.0181
  506MOL0     C69701   7.627   4.274   5.742 -0.1268 -1.0561 -0.7470
  506MOL0     C69702   7.732   4.349   5.820  0.1493  0.1091  0.3280
  506MOL0     C69703   7.711   4.509   5.851  0.3685  0.9237  0.0939
  506MOL0     C69704   7.612   4.528   5.970 -0.1242 -0.1037 -0.8028
  506MOL0     C69705   7.619   4.672   6.019  0.9289 -0.4401  0.1791
  506MOL0     C69706   7.521   4.689   6.135  0.3916  0.9042 -0.3251
  506MOL0     N69707   7.514   4.824   6.185  0.8034  0.2135  0.5536
  506MOL0     C69708   7.587   4.885   6.285 -0.1440 -0.2151 -0.1791
  506MOL0     C69709   7.549   5.008   6.297  0.4146 -0.1647 -0.7711
  506MOL0     C69710   7.608   5.100   6.399  0.2758 -0.5016 -0.8730
  506MOL0     C69711   7.760   5.097   6.406 -0.0970 -1.1282  0.5416
  506MOL0     C69712   7.804   5.222   6.490  0.7010  0.0670 -0.0345
  506MOL0     C69713   7.933   5.201   6.556 -0.1136 -0.0847 -0.5097
  506MOL0     O69714   7.952   5.105   6.659 -0.9432 -0.6447  0.2935
  506MOL0     C69715   7.861   5.101   6.756 -0.6103  0.4106 -0.5679
  506MOL0     C69716   7.744   5.031   6.756 -0.4793 -0.2172  0.4655
  506MOL0     C69717   7.644   5.037   6.858  0.0509 -0.2358 -0.8681
  506MOL0     C69718   7.516   4.961   6.831 -1.2794 -0.4073 -0.2025
  506MOL0     C69719   7.667   5.111   6.974 -1.1785  0.1759  0.5930
  506MOL0     C69720   7.569   5.118   7.090 -0.1532  2.2201  0.5784
  506MOL0     O69721   7.441   5.086   7.067 -0.5708  0.4546 -0.3406
  506MOL0     C69722   7.361   5.075   7.177 -0.2063 -0.1713  0.0974
  506MOL0     C69723   7.282   5.179   7.220 -0.3891 -0.6171  0.0236
  506MOL0     C69724   7.194   5.165   7.324 -0.0624 -0.2207  0.5034
  506MOL0     C69725   7.191   5.053   7.400  0.5226  0.3013  0.7625
  506MOL0     O69726   7.112   5.048   7.512  0.2781  0.3237  0.9519
  506MOL0     C69727   7.116   4.928   7.596 -0.1074 -0.1309 -0.3586
  506MOL0     C69728   7.011   4.952   7.701 -0.0332 -0.4738  0.0896
  506MOL0     C69729   7.072   5.025   7.820 -0.3941 -1.5808 -0.6630
  506MOL0     C69730   6.953   5.094   7.903 -0.0555 -0.0677  0.1201
  506MOL0     C69731   6.989   5.172   8.034 -0.6468  0.7806  0.1420
  506MOL0     C69732   7.073   5.304   8.018  0.8843 -0.2713 -0.7188
  506MOL0     C69733   7.074   5.386   8.145 -0.3625 -0.3438  0.2519
  506MOL0     C69734   7.187   5.492   8.145 -1.2521  0.1551 -0.2946
  506MOL0    Cl69735   7.352   5.414   8.129  0.4086 -0.0587  0.0468
  506MOL0     C69736   7.279   4.950   7.362 -0.0881  0.1445  0.3090
  506MOL0     C69737   7.357   4.959   7.249  0.8467  0.5220  1.2265
  506MOL0     O69738   7.623   5.114   7.201  0.3512 -0.2950  1.2881
  506MOL0     C69739   7.795   5.184   6.979 -0.6727 -0.0265  0.6345
  506MOL0     C69740   7.884   5.180   6.872 -0.7318 -0.0516 -0.1124
  506MOL0     N69741   7.458   5.034   6.190 -0.6746 -0.3604  0.0981
  506MOL0     N69742   7.444   4.928   6.123  0.4586  1.0413 -0.4366
  506MOL0     C69743   7.340   3.919   5.474  0.0787 -0.3917 -0.4486
  506MOL0     C69744   7.230   3.857   5.431  1.0784 -0.4654  0.4845
  506MOL0     C69745   6.823   3.636   5.413  0.2203 -0.5402  1.1527
  506MOL0     C69746   6.835   3.682   5.275  0.2863 -0.3089  0.6110
  506MOL0     C69747   6.727   3.657   5.183  0.0327 -0.1833  0.5272
  506MOL0     C69748   6.617   3.573   5.217 -0.3962 -0.1260 -0.3729
  506MOL0     O69749   6.532   3.558   5.099 -0.4083  0.1610  0.0318
  506MOL0     C69750   6.388   3.553   5.127  0.1578  0.5855  0.6264
  506MOL0     C69751   6.328   3.687   5.166 -0.0643 -0.1258 -0.1591
  506MOL0     C69752   6.363   3.805   5.079 -0.0780 -0.6581 -0.0888
  506MOL0     C69753   6.360   3.771   4.934 -1.0997  0.0448 -0.4080
  506MOL0     C69754   6.231   3.713   4.898 -0.3380  0.2694 -0.8201
  506MOL0     C69755   6.126   3.672   4.876  0.7413  0.4993  1.8872
  506MOL0     C69756   6.624   3.513   5.343  0.6940 -0.6293 -0.6175
  506MOL0     C69757   6.721   3.548   5.446 -1.0727  0.7140  0.8023
  506MOL0     C69758   6.685   3.503   5.582  0.4782  0.2013 -0.5270
  506MOL0     H69759   7.032   3.848   5.694  0.4045  2.0466  0.2154
  506MOL0     H69760   7.262   3.966   5.794  3.4111 -1.1621  0.7377
  506MOL0     H69761   7.495   4.176   5.538  1.6317 -0.9927 -1.0902
  506MOL0     H69762   7.575   4.013   5.513  1.0508 -0.5188  0.4998
  506MOL0     H69763   7.682   4.071   5.752  0.9543 -0.8197 -0.3041
  506MOL0     H69764   7.752   4.149   5.611  1.5443 -0.8921  1.0348
  506MOL0     H69765   7.594   4.339   5.661 -1.0372 -2.3000 -1.3996
  506MOL0     H69766   7.540   4.258   5.805  1.6643  0.5035  2.3499
  506MOL0     H69767   7.731   4.292   5.914 -0.6232 -1.6880 -0.7345
  506MOL0     H69768   7.831   4.327   5.780 -0.3184 -0.7659 -0.3743
  506MOL0     H69769   7.656   4.550   5.766 -0.7985 -1.2851 -0.2865
  506MOL0     H69770   7.803   4.567   5.866 -0.4647  2.1844  0.5800
  506MOL0     H69771   7.508   4.501   5.948  0.6041 -2.5224 -1.5773
  506MOL0     H69772   7.652   4.461   6.046 -3.9589 -2.1948 -0.3926
  506MOL0     H69773   7.575   4.732   5.938  1.9684 -2.6680 -2.1520
  506MOL0     H69774   7.717   4.695   6.061  0.2080  2.2715  0.5933
  506MOL0     H69775   7.420   4.656   6.107  0.4032 -1.0055  1.5882
  506MOL0     H69776   7.548   4.620   6.216 -0.1444 -0.7710 -1.5188
  506MOL0     H69777   7.678   4.851   6.333  0.6629  0.9218 -0.8715
  506MOL0     H69778   7.579   5.065   6.498  3.9213  4.1796  2.2803
  506MOL0     H69779   7.581   5.206   6.388  4.3252  0.7279 -0.3571
  506MOL0     H69780   7.787   5.005   6.459 -2.1363 -0.2911  3.2585
  506MOL0     H69781   7.800   5.101   6.304 -1.6355 -1.1555 -0.0776
  506MOL0     H69782   7.809   5.300   6.413  0.3834 -1.4867 -1.7105
  506MOL0     H69783   7.722   5.248   6.557 -0.2202  1.0914 -1.4979
  506MOL0     H69784   8.005   5.171   6.481 -0.4256 -1.6856 -0.2049
  506MOL0     H69785   7.967   5.298   6.594 -0.4149  0.4001 -1.4552
  506MOL0     H69786   7.721   4.963   6.674 -1.4088 -1.6560  1.8471
  506MOL0     H69787   7.452   4.931   6.914 -0.5308  1.0181  0.9452
  506MOL0     H69788   7.539   4.876   6.767  0.6320  0.0229 -0.1468
  506MOL0     H69789   7.445   5.019   6.772  1.4381  1.8331 -1.5304
  506MOL0     H69790   7.287   5.273   7.165  0.6400  0.4995  1.9003
  506MOL0     H69791   7.129   5.252   7.328 -0.6885 -0.7236  2.0383
  506MOL0     H69792   7.081   4.840   7.543  0.1382 -1.6320  1.8436
  506MOL0     H69793   7.216   4.920   7.640 -0.5634  1.8208  1.2025
  506MOL0     H69794   6.938   5.012   7.646  2.0285  0.1733 -2.1161
  506MOL0     H69795   6.967   4.856   7.729  0.7041 -0.6084  0.8257
  506MOL0     H69796   7.138   5.108   7.795  0.4827  0.4098  6.1095
  506MOL0     H69797   7.132   4.950   7.872  0.5811 -0.5767 -0.3040
  506MOL0     H69798   6.884   5.011   7.916  2.7491 -2.9421 -1.8949
  506MOL0     H69799   6.907   5.156   7.826  0.7132 -2.2043 -2.1764
  506MOL0     H69800   6.893   5.197   8.080 -0.1305  0.6894  1.2970
  506MOL0     H69801   7.044   5.119   8.112  3.0844  1.0786 -2.0262
  506MOL0     H69802   7.039   5.356   7.928 -1.2042 -0.2626  0.0412
  506MOL0     H69803   7.178   5.273   8.006  1.5841  1.3191  0.7716
  506MOL0     H69804   7.091   5.321   8.231 -1.0625  0.7671  1.2674
  506MOL0     H69805   6.975   5.430   8.157  0.3812  1.6631 -0.5597
  506MOL0     H69806   7.183   5.542   8.242  1.0914 -0.7846  0.3407
  506MOL0     H69807   7.175   5.559   8.059 -5.2934  0.6727  0.4837
  506MOL0     H69808   7.280   4.860   7.422 -0.1416  1.6178  2.6431
  506MOL0     H69809   7.417   4.875   7.214 -2.1514  0.1020 -3.8159
  506MOL0     H69810   7.811   5.252   7.062  1.4210 -1.7179  1.7424
  506MOL0     H69811   7.957   5.260   6.871  1.0388 -1.5854  0.6087
  506MOL0     H69812   7.413   3.925   5.394 -0.9247  0.9526 -1.3215
  506MOL0     H69813   7.245   3.823   5.329 -1.6320  0.6411 -0.4002
  506MOL0     H69814   6.912   3.749   5.241 -1.6409  0.5304 -2.4381
  506MOL0     H69815   6.738   3.682   5.078 -1.7382 -1.2882  0.0347
  506MOL0     H69816   6.346   3.504   5.039  3.8955 -2.8117  0.3935
  506MOL0     H69817   6.366   3.493   5.216 -1.8183  2.7388  1.6934
  506MOL0     H69818   6.370   3.720   5.262  0.0779  3.7931 -1.3668
  506MOL0     H69819   6.222   3.673   5.189 -0.3558  1.6207 -0.2979
  506MOL0     H69820   6.289   3.883   5.099 -2.3538 -2.3215 -1.5197
  506MOL0     H69821   6.459   3.849   5.107  0.4849 -2.1883  0.5245
  506MOL0     H69822   6.445   3.705   4.912 -0.6057  1.1893 -2.1942
  506MOL0     H69823   6.358   3.860   4.871  0.3781  0.5892  0.2706
  506MOL0     H69824   6.031   3.645   4.834  2.7510 -0.5038 -2.5589
  506MOL0     H69825   6.553   3.447   5.390 -1.7492  1.7415 -0.7370
  506MOL0     H69826   6.684   3.588   5.652  3.1785 -0.4106  0.3840
  506MOL0     H69827   6.591   3.446   5.584  1.1745 -1.0928 -2.5562
  506MOL0     H69828   6.776   3.451   5.613  1.1048  0.6548 -1.5710
  507MOL0     O69829   6.464   8.950   6.613  0.3315 -0.0166  1.0540
  507MOL0     C69830   6.568   8.904   6.561  0.4001 -0.6450  0.1597
  507MOL0     O69831   6.661   8.986   6.514 -1.1150  0.2054  0.3740
  507MOL0     C69832   6.628   9.118   6.495 -0.7572  0.3338 -0.0824
  507MOL0     C69833   6.725   9.201   6.552  0.3387  0.1788 -0.4923
  507MOL0     C69834   6.701   9.337   6.555 -0.3584  0.1759  0.0592
  507MOL0     C69835   6.587   9.382   6.507 -0.1940 -0.2543  0.9003
  507MOL0     O69836   6.564   9.517   6.502  0.5834 -0.4897 -0.4447
  507MOL0     C69837   6.446   9.571   6.555  1.0606 -0.3995 -0.3228
  507MOL0     C69838   6.438   9.722   6.534  0.7021  0.3274 -0.5767
  507MOL0     C69839   6.428   9.761   6.392 -0.5053 -0.0013 -0.5444
  507MOL0     C69840   6.415   9.910   6.386  0.1232 -0.0523 -0.4645
  507MOL0     C69841   6.424   9.964   6.250  0.2179 -0.2400  0.8163
  507MOL0     C69842   6.368   9.879   6.131  0.2078 -0.0510  0.0405
  507MOL0     C69843   6.359   9.945   5.993  0.5389  0.1398 -0.5038
  507MOL0     C69844   6.314   9.840   5.892  0.9006  0.6618  0.1623
  507MOL0     N69845   6.328   9.882   5.751  0.1308  0.2099 -0.9468
  507MOL0     C69846   6.312  10.010   5.710  0.6333  0.9213  0.3646
  507MOL0     C69847   6.334   9.998   5.574 -0.8179  0.5852  0.1026
  507MOL0     C69848   6.328  10.109   5.466 -0.5361  0.5091  0.4538
  507MOL0     C69849   6.183  10.166   5.444  0.0658  0.3859  1.0657
  507MOL0     C69850   6.157  10.226   5.313 -1.0800 -0.2812  0.7529
  507MOL0     C69851   6.023  10.288   5.305  0.0025 -0.7862  1.3581
  507MOL0     O69852   5.914  10.193   5.326  0.3825 -0.1905 -0.4389
  507MOL0     C69853   5.799  10.232   5.394  0.1950  0.8871  0.0957
  507MOL0     C69854   5.822  10.302   5.514  0.6719  0.1072  0.5115
  507MOL0     C69855   5.713  10.344   5.596  0.5897  0.2354  0.0295
  507MOL0     C69856   5.737  10.418   5.717  0.5419  0.4532  0.7113
  507MOL0     C69857   5.579  10.304   5.554  0.8239 -0.1358  0.7513
  507MOL0     C69858   5.457  10.342   5.627 -0.0885 -0.6591  0.0861
  507MOL0     O69859   5.340  10.260   5.608 -0.1875  0.1240 -0.4534
  507MOL0     C69860   5.248  10.285   5.708 -0.3494 -0.0472 -0.2579
  507MOL0     C69861   5.143  10.365   5.683 -0.1947  0.4212  0.1552
  507MOL0     C69862   5.041  10.382   5.777  0.6957 -0.7656  1.1584
  507MOL0     C69863   5.047  10.326   5.900  0.1236 -0.6082 -0.4947
  507MOL0     O69864   4.949  10.369   5.987 -0.3192  0.6758  0.2318
  507MOL0     C69865   4.907  10.287   6.093  1.3480  0.2225 -0.2959
  507MOL0     C69866   4.808  10.379   6.157  0.3897  0.4153 -0.7187
  507MOL0     C69867   4.749  10.318   6.286 -0.7975 -0.5181 -0.4547
  507MOL0     C69868   4.783  10.405   6.398  0.5222  0.0618 -0.7531
  507MOL0     C69869   4.733  10.358   6.530  0.7277  0.0152  0.1973
  507MOL0     C69870   4.762  10.461   6.635 -0.0290  1.0367  0.9743
  507MOL0     C69871   4.708  10.401   6.770  0.8505 -1.2899  0.6839
  507MOL0     C69872   4.722  10.473   6.905 -0.5327 -1.0832 -0.3873
  507MOL0    Cl69873   4.896  10.491   6.947 -0.2036 -0.0864 -0.0206
  507MOL0     C69874   5.163  10.256   5.934  0.4555  0.1837 -0.9194
  507MOL0     C69875   5.259  10.223   5.831 -0.2524 -0.3839  0.2791
  507MOL0     O69876   5.452  10.450   5.683 -0.3863  0.0895 -0.3017
  507MOL0     C69877   5.563  10.227   5.430 -0.1567  0.0161 -0.2586
  507MOL0     C69878   5.674  10.190   5.356 -0.8089 -0.2756 -0.1027
  507MOL0     N69879   6.337   9.866   5.545 -0.4325  0.7045  0.2905
  507MOL0     N69880   6.325   9.802   5.652  0.8707 -0.3178 -0.2180
  507MOL0     C69881   6.495   9.301   6.440 -0.2800 -1.0564 -0.0858
  507MOL0     C69882   6.523   9.164   6.426 -0.0572  0.4322 -0.2275
  507MOL0     C69883   6.581   8.762   6.556 -0.5595  0.4066  0.4783
  507MOL0     C69884   6.469   8.673   6.569 -0.2330 -0.2620 -0.6096
  507MOL0     C69885   6.485   8.537   6.534  0.5707  0.5754  0.4965
  507MOL0     C69886   6.610   8.485   6.504  0.1550 -0.5471 -0.2695
  507MOL0     O69887   6.641   8.359   6.485 -0.3577  0.3530  0.1944
  507MOL0     C69888   6.594   8.251   6.572 -0.2280  0.0662 -0.0683
  507MOL0     C69889   6.477   8.167   6.521 -0.6385 -0.0152  0.1489
  507MOL0     C69890   6.490   8.026   6.594 -0.3308 -0.0154 -0.8114
  507MOL0     C69891   6.444   8.036   6.741  0.6855 -0.7072  0.8869
  507MOL0     C69892   6.299   8.047   6.727 -0.8773  0.1955  0.7033
  507MOL0     C69893   6.183   8.067   6.728  0.9561  1.1846  0.3794
  507MOL0     C69894   6.722   8.566   6.503  0.3380  0.4378 -0.3406
  507MOL0     C69895   6.708   8.703   6.534 -1.0874  0.3537 -0.0019
  507MOL0     C69896   6.843   8.773   6.539 -0.2916 -0.3180  0.2745
  507MOL0     H69897   6.816   9.163   6.599 -0.8490  0.2433  2.0313
  507MOL0     H69898   6.774   9.405   6.598  1.8186 -0.7179 -1.9864
  507MOL0     H69899   6.444   9.555   6.664 -2.2224  4.0716  0.5483
  507MOL0     H69900   6.355   9.529   6.510  0.5450 -0.0792  0.3893
  507MOL0     H69901   6.351   9.766   6.584  1.5586 -0.5772  1.8628
  507MOL0     H69902   6.525   9.772   6.577  0.0180  2.3863 -1.4583
  507MOL0     H69903   6.524   9.732   6.348 -0.1093  0.7684 -0.2025
  507MOL0     H69904   6.353   9.705   6.336 -1.3915 -1.1230  1.6046
  507MOL0     H69905   6.314   9.942   6.413  0.8308  0.4315  1.8014
  507MOL0     H69906   6.479   9.961   6.458  1.0622  2.5979 -2.9685
  507MOL0     H69907   6.530   9.982   6.227  0.6911 -1.3985  2.0059
  507MOL0     H69908   6.379  10.064   6.249  2.0620  0.6338  0.3116
  507MOL0     H69909   6.436   9.794   6.117 -0.4540 -0.8972  1.6845
  507MOL0     H69910   6.269   9.846   6.161  0.6287 -2.2389 -0.8124
  507MOL0     H69911   6.455   9.993   5.973  1.9995 -2.1289  0.6636
  507MOL0     H69912   6.282  10.023   5.990 -0.6756 -1.0113 -4.0153
  507MOL0     H69913   6.363   9.745   5.917 -2.0684 -1.4367 -1.4275
  507MOL0     H69914   6.210   9.815   5.913  0.8523  0.7570  0.0374
  507MOL0     H69915   6.310  10.100   5.772  4.0991 -0.6915  3.1828
  507MOL0     H69916   6.375  10.073   5.374  2.0179  0.3715  1.7379
  507MOL0     H69917   6.390  10.191   5.504 -1.7918  1.3342  0.7843
  507MOL0     H69918   6.113  10.082   5.451 -0.1998  0.4961 -0.1021
  507MOL0     H69919   6.157  10.241   5.519 -1.2454  0.5809  0.4522
  507MOL0     H69920   6.230  10.305   5.294  0.3434 -1.4067  1.3316
  507MOL0     H69921   6.166  10.155   5.231  0.6350  1.5276 -0.7379
  507MOL0     H69922   6.004  10.381   5.359 -3.2599  0.5023 -1.6287
  507MOL0     H69923   6.010  10.314   5.200 -1.3738  0.3466  1.7804
  507MOL0     H69924   5.925  10.307   5.549  0.9185 -0.9070 -0.0237
  507MOL0     H69925   5.685  10.373   5.802 -0.4170 -0.5338 -0.3681
  507MOL0     H69926   5.703  10.521   5.702 -2.7381 -0.8095 -1.6643
  507MOL0     H69927   5.845  10.418   5.734  0.5963 -2.8975  0.8865
  507MOL0     H69928   5.122  10.397   5.581 -1.4966 -1.2923 -0.1746
  507MOL0     H69929   4.951  10.441   5.758  0.0836 -0.6295  4.0309
  507MOL0     H69930   4.859  10.196   6.057  0.1837  0.7544 -0.1162
  507MOL0     H69931   4.990  10.260   6.160  2.1019 -0.8298 -1.5899
  507MOL0     H69932   4.853  10.474   6.187 -3.0250  1.7213  0.7735
  507MOL0     H69933   4.724  10.399   6.090 -0.0457  1.0368 -0.0101
  507MOL0     H69934   4.798  10.223   6.309 -0.3218  0.0204  0.8585
  507MOL0     H69935   4.641  10.316   6.271 -0.8842 -0.3595  0.1230
  507MOL0     H69936   4.744  10.506   6.383  3.9479  1.6169 -0.0571
  507MOL0     H69937   4.890  10.415   6.417 -0.0010  1.0426  2.0734
  507MOL0     H69938   4.630  10.323   6.523  0.7593 -1.1247  3.7422
  507MOL0     H69939   4.780  10.263   6.557 -0.6123  0.1326  3.4028
  507MOL0     H69940   4.716  10.558   6.611  0.2739  0.6680 -1.2615
  507MOL0     H69941   4.867  10.491   6.629  0.9128 -1.7766  1.7285
  507MOL0     H69942   4.742  10.299   6.792 -1.4598 -2.4250 -0.6820
  507MOL0     H69943   4.600  10.395   6.758  0.6836  1.2739  0.4465
  507MOL0     H69944   4.658  10.414   6.972 -3.7116  1.5149 -0.8548
  507MOL0     H69945   4.681  10.574   6.912  0.5505 -0.7274  1.6355
  507MOL0     H69946   5.165  10.221   6.037  2.4745  4.1869  0.6305
  507MOL0     H69947   5.345  10.157   5.842  0.1389  0.0501 -0.1699
  507MOL0     H69948   5.461  10.197   5.408 -0.4501 -0.2643  1.3461
  507MOL0     H69949   5.659  10.131   5.266  0.0400 -0.5184 -0.0926
  507MOL0     H69950   6.419   9.344   6.375  0.7513 -2.4331 -2.3007
  507MOL0     H69951   6.455   9.099   6.372  0.8704  1.2516 -2.5087
  507MOL0     H69952   6.368   8.710   6.588 -0.3130  1.7568 -4.1282
  507MOL0     H69953   6.394   8.477   6.537 -0.1230  1.4789 -1.0809
  507MOL0     H69954   6.675   8.182   6.599 -0.5500 -2.4117 -4.5220
  507MOL0     H69955   6.557   8.294   6.665 -0.2311 -2.6746  1.3003
  507MOL0     H69956   6.481   8.156   6.413 -0.0896 -0.3886  0.2038
  507MOL0     H69957   6.384   8.223   6.536 -1.6378 -0.9124 -2.2208
  507MOL0     H69958   6.424   7.949   6.552 -3.1824  1.5866  0.3968
  507MOL0     H69959   6.595   7.998   6.584 -0.2650  0.2565 -0.8824
  507MOL0     H69960   6.483   8.114   6.807  1.2358  0.8791 -1.2297
  507MOL0     H69961   6.491   7.947   6.785  0.2837 -1.4864 -0.2123
  507MOL0     H69962   6.078   8.078   6.748  0.2601 -3.8417  0.6950
  507MOL0     H69963   6.813   8.506   6.501  0.4864  0.5826  1.0457
  507MOL0     H69964   6.929   8.705   6.535 -1.8647 -2.3589 -0.8570
  507MOL0     H69965   6.860   8.852   6.465  2.0014 -1.7794 -0.8949
  507MOL0     H69966   6.833   8.824   6.635 -0.2802  1.4703 -0.6265
  508MOL0     O69967   9.487  11.596   1.678 -0.2456  0.1497 -0.2486
  508MOL0     C69968   9.512  11.667   1.579  0.3647 -0.1848 -1.0074
  508MOL0     O69969   9.419  11.699   1.483 -0.4759 -0.2350 -0.1168
  508MOL0     C69970   9.301  11.636   1.488 -0.2170  0.3208 -0.7453
  508MOL0     C69971   9.291  11.523   1.403 -0.3422 -0.2962  0.0641
  508MOL0     C69972   9.165  11.477   1.369 -0.8162 -0.0523  0.1207
  508MOL0     C69973   9.046  11.542   1.415 -0.7344  0.0268  0.1051
  508MOL0     O69974   8.915  11.519   1.371 -0.0772  0.2228 -0.4026
  508MOL0     C69975   8.858  11.395   1.360  0.2563  0.2464 -1.0127
  508MOL0     C69976   8.858  11.326   1.498  0.1935  0.4354  0.7890
  508MOL0     C69977   8.805  11.180   1.472 -0.0853  0.2587 -0.1447
  508MOL0     C69978   8.789  11.107   1.604 -0.4162 -0.1270 -0.6230
  508MOL0     C69979   8.757  10.960   1.592  0.3143 -0.5548  0.2832
  508MOL0     C69980   8.674  10.918   1.461  0.1779 -0.8088 -0.5041
  508MOL0     C69981   8.612  10.780   1.491  0.0293  0.0140 -0.3900
  508MOL0     C69982   8.701  10.683   1.571 -0.3963 -0.4228 -0.7527
  508MOL0     N69983   8.669  10.541   1.558 -0.7181 -0.1665  0.0517
  508MOL0     C69984   8.631  10.472   1.449  0.3064 -0.5422  1.5937
  508MOL0     C69985   8.580  10.349   1.477 -0.7571  0.2498  0.3303
  508MOL0     C69986   8.514  10.236   1.395 -0.4942 -0.5739  0.0766
  508MOL0     C69987   8.398  10.291   1.318  1.4044  0.6662 -0.5164
  508MOL0     C69988   8.270  10.199   1.316  0.1762 -0.2569  0.0470
  508MOL0     C69989   8.134  10.272   1.285 -0.0136 -0.2110 -0.3272
  508MOL0     O69990   8.161  10.339   1.155  0.2251 -0.5797  0.0403
  508MOL0     C69991   8.097  10.291   1.042  0.0191 -0.1951 -0.2226
  508MOL0     C69992   7.962  10.280   1.033  0.9932 -0.0656  0.4290
  508MOL0     C69993   7.912  10.229   0.908 -0.1134  0.1116 -0.0148
  508MOL0     C69994   7.764  10.237   0.900 -0.1505 -0.3949  0.2538
  508MOL0     C69995   8.002  10.173   0.816  0.1621 -0.1795 -0.6848
  508MOL0     C69996   7.974  10.118   0.680 -1.2138  1.2520 -0.4582
  508MOL0     O69997   8.058  10.011   0.637 -0.0429  0.3096 -0.5231
  508MOL0     C69998   8.039   9.942   0.523 -0.1731 -0.6340  0.5035
  508MOL0     C69999   8.154   9.881   0.467 -0.3399  0.4245  0.1004
  508MOL0     C70000   8.146   9.810   0.350 -0.4023  0.2511  0.2031
  508MOL0     C70001   8.026   9.787   0.285  0.4098 -0.1943  0.5207
  508MOL0     O70002   8.009   9.716   0.167 -1.0308  0.5483 -0.2367
  508MOL0     C70003   8.130   9.665   0.097 -0.5354 -0.2583 -0.5285
  508MOL0     C70004   8.085   9.591  -0.028 -0.1688 -0.6788  0.1193
  508MOL0     C70005   8.191   9.513  -0.110  0.0009  0.0687 -0.3682
  508MOL0     C70006   8.196   9.368  -0.064  1.0077  0.6494 -0.1980
  508MOL0     C70007   8.319   9.296  -0.125  0.3030 -0.6043 -0.3430
  508MOL0     C70008   8.297   9.146  -0.109 -0.6596  0.3276  1.0681
  508MOL0     C70009   8.413   9.057  -0.152  0.9558 -0.2079  0.1703
  508MOL0     C70010   8.389   8.911  -0.115  0.2285 -0.1520  0.9244
  508MOL0    Cl70011   8.431   8.883   0.054  0.1682 -0.0524 -0.2778
  508MOL0     C70012   7.906   9.829   0.343 -0.4836  0.0911 -0.0521
  508MOL0     C70013   7.918   9.922   0.449  0.4076 -0.9711  0.4288
  508MOL0     O70014   7.897  10.170   0.614  0.5248  0.0931 -0.4534
  508MOL0     C70015   8.133  10.195   0.828 -0.5760  0.3071  0.3219
  508MOL0     C70016   8.189  10.258   0.943 -0.1161  0.5549  1.5854
  508MOL0     N70017   8.582  10.343   1.617  0.4707 -0.3441  1.1170
  508MOL0     N70018   8.647  10.457   1.663  0.3365 -0.5126 -1.1478
  508MOL0     C70019   9.065  11.659   1.492 -1.2631 -0.0695  0.5213
  508MOL0     C70020   9.194  11.700   1.532 -0.4151 -0.2042 -0.2244
  508MOL0     C70021   9.644  11.721   1.554  0.5354  0.7051 -0.3954
  508MOL0     C70022   9.668  11.825   1.463  0.7371  0.1376 -0.7826
  508MOL0     C70023   9.795  11.890   1.444  0.6743 -0.4261  0.1789
  508MOL0     C70024   9.897  11.851   1.510 -0.0796  0.9120  0.4628
  508MOL0     O70025  10.027  11.897   1.508  0.0543  0.7915 -0.4242
  508MOL0     C70026  10.113  11.832   1.412 -0.6583 -0.3580  0.4352
  508MOL0     C70027  10.235  11.788   1.489 -0.6512 -1.2758 -0.4549
  508MOL0     C70028  10.320  11.705   1.398 -0.8277 -0.4006  0.9771
  508MOL0     C70029  10.279  11.558   1.401 -0.6802  0.2741  0.0814
  508MOL0     C70030  10.181  11.510   1.303 -0.0888  0.8959 -0.3396
  508MOL0     C70031  10.092  11.473   1.229  0.5286  0.2196  0.4456
  508MOL0     C70032   9.882  11.750   1.610  0.1264  0.4217 -0.3422
  508MOL0     C70033   9.759  11.687   1.628 -0.3090  0.4315 -0.2008
  508MOL0     C70034   9.759  11.566   1.720 -0.1832  0.7415 -0.3506
  508MOL0     H70035   9.377  11.468   1.366  0.0256  0.5697 -0.4000
  508MOL0     H70036   9.146  11.389   1.309 -1.2834 -0.7379  1.2474
  508MOL0     H70037   8.916  11.338   1.287  3.3501  1.8366  0.0282
  508MOL0     H70038   8.755  11.407   1.324 -0.7147  1.7810  1.9173
  508MOL0     H70039   8.961  11.314   1.531  1.0407  0.7278 -1.5621
  508MOL0     H70040   8.803  11.381   1.576 -0.9003 -0.6077  0.7737
  508MOL0     H70041   8.712  11.171   1.415  0.2776 -3.3194 -0.4322
  508MOL0     H70042   8.882  11.124   1.417 -0.7590  0.6664 -1.5418
  508MOL0     H70043   8.890  11.119   1.643  1.3501  0.7005 -4.8308
  508MOL0     H70044   8.711  11.151   1.666 -1.2854  1.2610 -2.5630
  508MOL0     H70045   8.711  10.924   1.684 -1.1918 -0.0652 -0.2528
  508MOL0     H70046   8.852  10.905   1.588 -0.1359 -1.4470  1.3111
  508MOL0     H70047   8.587  10.982   1.446  0.1601 -0.0806  2.1376
  508MOL0     H70048   8.745  10.913   1.378  1.9769 -1.3601  0.9962
  508MOL0     H70049   8.597  10.722   1.400 -1.8795 -1.0699  0.5639
  508MOL0     H70050   8.506  10.800   1.512 -0.0708  1.8524 -2.2768
  508MOL0     H70051   8.801  10.699   1.529 -0.3522 -0.1185 -0.5362
  508MOL0     H70052   8.717  10.720   1.673  2.5881  1.7902 -1.8662
  508MOL0     H70053   8.633  10.501   1.345 -0.2128 -1.1731  1.4048
  508MOL0     H70054   8.485  10.161   1.468  0.2924  0.7697  1.8452
  508MOL0     H70055   8.582  10.183   1.327  2.8075 -0.4420  2.9735
  508MOL0     H70056   8.367  10.392   1.346 -0.9086 -0.0515 -0.2727
  508MOL0     H70057   8.420  10.299   1.211  1.5594 -1.1871 -0.6503
  508MOL0     H70058   8.268  10.122   1.239 -4.9410  0.6733 -1.0915
  508MOL0     H70059   8.242  10.143   1.405 -1.5600  1.2212  0.4849
  508MOL0     H70060   8.049  10.203   1.287 -0.9045  0.7379 -2.5009
  508MOL0     H70061   8.100  10.347   1.357  0.6207  1.1302 -1.3631
  508MOL0     H70062   7.903  10.316   1.117  2.3788 -2.0794  2.4117
  508MOL0     H70063   7.730  10.340   0.884  0.2317 -0.1211  1.1608
  508MOL0     H70064   7.708  10.192   0.982 -0.0308 -1.8244 -0.4289
  508MOL0     H70065   7.728  10.180   0.814 -0.4835  0.3517 -0.1107
  508MOL0     H70066   8.251   9.873   0.513  0.8629  2.6521 -1.8543
  508MOL0     H70067   8.233   9.764   0.305  0.6880  1.6004  0.8642
  508MOL0     H70068   8.200   9.748   0.082  0.7607  0.0346  4.8786
  508MOL0     H70069   8.190   9.601   0.163  2.0446  1.7518 -0.7352
  508MOL0     H70070   8.004   9.531   0.013 -1.0924  2.0604  2.6925
  508MOL0     H70071   8.039   9.671  -0.086  1.8819  2.5324  2.5362
  508MOL0     H70072   8.293   9.553  -0.106  0.5350 -1.2599  3.3397
  508MOL0     H70073   8.164   9.511  -0.216 -1.1211  0.5996 -0.1088
  508MOL0     H70074   8.104   9.336  -0.114  1.8252  1.8881 -2.6297
  508MOL0     H70075   8.189   9.369   0.045  0.5336 -3.3222 -0.0305
  508MOL0     H70076   8.311   9.324  -0.231 -0.8221 -1.3708 -0.4745
  508MOL0     H70077   8.405   9.338  -0.072 -2.0938  0.0864  3.3317
  508MOL0     H70078   8.210   9.108  -0.162 -0.8876 -1.1429  2.4132
  508MOL0     H70079   8.261   9.122  -0.009 -3.4402 -2.0937 -0.3755
  508MOL0     H70080   8.507   9.092  -0.107  1.1215 -1.8340  1.1792
  508MOL0     H70081   8.422   9.073  -0.259 -1.5668 -0.1381 -0.1011
  508MOL0     H70082   8.458   8.843  -0.166  1.0442  1.5555 -0.3692
  508MOL0     H70083   8.284   8.882  -0.129  0.7660 -4.9306  4.4960
  508MOL0     H70084   7.812   9.801   0.297 -1.8678  0.3831  2.4661
  508MOL0     H70085   7.836   9.975   0.497  1.1202 -0.5850  1.2423
  508MOL0     H70086   8.190  10.155   0.745 -0.7408  0.7252  0.0040
  508MOL0     H70087   8.293  10.283   0.959  0.0023  1.9324 -0.9436
  508MOL0     H70088   8.974  11.701   1.533 -2.0318  1.5219 -2.5243
  508MOL0     H70089   9.208  11.785   1.598 -0.4869  2.1489 -2.9969
  508MOL0     H70090   9.591  11.848   1.389 -0.5665 -1.9320 -0.1516
  508MOL0     H70091   9.811  11.965   1.366  1.7562 -0.5074  0.3026
  508MOL0     H70092  10.059  11.751   1.362  0.1111 -0.1417 -0.8005
  508MOL0     H70093  10.146  11.909   1.341 -2.1373  0.6707  0.8264
  508MOL0     H70094  10.204  11.730   1.577 -2.2599 -0.1062 -0.1967
  508MOL0     H70095  10.280  11.882   1.522 -1.3009 -2.0260  2.8591
  508MOL0     H70096  10.309  11.742   1.296 -0.5254  1.3450  1.5471
  508MOL0     H70097  10.423  11.718   1.432  0.4146  0.4164 -2.6448
  508MOL0     H70098  10.239  11.532   1.500  0.2874 -0.2337  0.3430
  508MOL0     H70099  10.370  11.505   1.371 -1.9662 -2.6769  0.9270
  508MOL0     H70100  10.010  11.439   1.169 -0.4567 -0.7662  2.2639
  508MOL0     H70101   9.972  11.719   1.662  0.9086 -0.6433 -2.2396
  508MOL0     H70102   9.853  11.559   1.776 -0.8032 -0.3715  0.5958
  508MOL0     H70103   9.676  11.559   1.791 -1.1578  3.1565 -1.1278
  508MOL0     H70104   9.757  11.478   1.656  0.7790  0.8216 -0.5060
  509MOL0     O70105   0.666  11.617   4.638 -0.3709 -0.0478  0.6586
  509MOL0     C70106   0.590  11.562   4.554 -0.0173 -0.2036 -0.0270
  509MOL0     O70107   0.629  11.456   4.465 -0.3802 -1.2376  0.5006
  509MOL0     C70108   0.765  11.441   4.445  0.5415 -0.3537  0.2539
  509MOL0     C70109   0.872  11.438   4.539  0.1441 -0.6683  0.4698
  509MOL0     C70110   0.997  11.388   4.512 -0.0963  0.7006  0.0200
  509MOL0     C70111   1.030  11.345   4.381  1.2171  0.5489  0.2469
  509MOL0     O70112   1.153  11.291   4.356 -0.8918 -0.0036  0.1005
  509MOL0     C70113   1.227  11.333   4.247  0.5511  0.3774  0.6948
  509MOL0     C70114   1.361  11.250   4.222  0.8495  0.4901  0.4115
  509MOL0     C70115   1.323  11.133   4.126 -0.1587 -0.1622 -0.5218
  509MOL0     C70116   1.450  11.060   4.090 -0.9103 -0.1732 -0.5289
  509MOL0     C70117   1.422  10.906   4.058  0.3033  0.1469  0.4715
  509MOL0     C70118   1.315  10.869   3.955 -0.1563  0.1940 -0.4114
  509MOL0     C70119   1.327  10.961   3.828 -0.5679 -0.0783  0.8527
  509MOL0     C70120   1.441  10.915   3.740  0.3802  0.2699 -0.0366
  509MOL0     N70121   1.446  10.772   3.722 -0.6310 -0.2360 -1.1009
  509MOL0     C70122   1.362  10.687   3.658  0.5557  0.8573 -0.0899
  509MOL0     C70123   1.442  10.581   3.615  1.0129 -0.0032  0.3295
  509MOL0     C70124   1.385  10.470   3.523  0.3129 -0.3189 -0.5886
  509MOL0     C70125   1.350  10.348   3.608 -0.1245 -0.3733 -0.1202
  509MOL0     C70126   1.261  10.369   3.732 -0.1509 -0.3764 -0.3906
  509MOL0     C70127   1.225  10.229   3.778 -0.2723 -0.7953  0.1364
  509MOL0     O70128   1.121  10.236   3.877 -0.1421 -0.1423  0.0464
  509MOL0     C70129   1.121  10.143   3.976 -0.5117 -0.2050  0.8724
  509MOL0     C70130   1.067  10.020   3.955 -0.0646  0.4000  0.3486
  509MOL0     C70131   1.093   9.910   4.035 -0.2949  0.6725 -0.1586
  509MOL0     C70132   1.050   9.774   3.988  0.6442  0.3020 -0.0247
  509MOL0     C70133   1.173   9.934   4.148  0.2688 -0.0437  0.2974
  509MOL0     C70134   1.216   9.839   4.248  0.2612  0.3826 -0.1143
  509MOL0     O70135   1.346   9.855   4.281  0.3319  0.6940 -0.0638
  509MOL0     C70136   1.410   9.756   4.355  0.8022  0.6378  0.4416
  509MOL0     C70137   1.353   9.713   4.478  1.1137  0.3693 -0.6847
  509MOL0     C70138   1.434   9.631   4.556  0.6059  0.2430  0.1809
  509MOL0     C70139   1.554   9.586   4.508 -0.4911 -0.5559  0.3827
  509MOL0     O70140   1.627   9.499   4.601 -0.6696 -0.1040  0.1940
  509MOL0     C70141   1.585   9.372   4.616  0.2576  0.0038 -0.0913
  509MOL0     C70142   1.521   9.327   4.745 -0.4364  0.7003 -0.2345
  509MOL0     C70143   1.460   9.182   4.741 -0.3040  0.1019  0.0815
  509MOL0     C70144   1.328   9.178   4.659  0.1049  0.3318 -0.4549
  509MOL0     C70145   1.353   9.131   4.519  0.2665  0.6241 -0.3369
  509MOL0     C70146   1.240   9.055   4.461  1.6485  0.8813  0.3373
  509MOL0     C70147   1.285   8.997   4.314  0.0773  0.4340  0.8762
  509MOL0     C70148   1.154   8.944   4.253  0.5873 -0.2721  0.1113
  509MOL0    Cl70149   1.102   8.812   4.363  0.2897  0.6757  0.0496
  509MOL0     C70150   1.609   9.625   4.385  0.2659 -0.9228 -0.5805
  509MOL0     C70151   1.532   9.713   4.307  0.6008  0.3722  0.0155
  509MOL0     O70152   1.151   9.742   4.289 -0.1387 -0.0763 -0.4410
  509MOL0     C70153   1.227  10.065   4.169  0.4597  0.8739 -0.8806
  509MOL0     C70154   1.202  10.168   4.088 -0.5209 -0.4617  0.0613
  509MOL0     N70155   1.575  10.608   3.640  0.0996  0.0606  0.6168
  509MOL0     N70156   1.572  10.712   3.716  0.1606  0.9282  0.0582
  509MOL0     C70157   0.928  11.354   4.280  0.6882 -0.2414 -0.0056
  509MOL0     C70158   0.794  11.385   4.321 -0.8552 -0.7549 -0.0081
  509MOL0     C70159   0.438  11.594   4.567 -0.8554  0.3529 -0.1770
  509MOL0     C70160   0.351  11.498   4.527  0.8849 -0.1315 -0.1913
  509MOL0     C70161   0.210  11.523   4.534  0.5184 -0.1576 -0.0174
  509MOL0     C70162   0.159  11.639   4.596  0.1624 -0.5000  0.0459
  509MOL0     O70163   0.024  11.681   4.595 -0.1038 -0.2905  0.3584
  509MOL0     C70164  -0.073  11.587   4.531  0.3438 -0.7264  0.2986
  509MOL0     C70165  -0.076  11.605   4.375  0.5897 -0.8902 -0.2552
  509MOL0     C70166  -0.196  11.531   4.308 -0.2628 -0.8891  0.2783
  509MOL0     C70167  -0.244  11.396   4.365 -0.9266  0.4512 -0.1979
  509MOL0     C70168  -0.133  11.301   4.357 -0.4340 -0.4796  0.1664
  509MOL0     C70169  -0.047  11.226   4.328  0.4241  1.1602 -0.3475
  509MOL0     C70170   0.257  11.742   4.617 -1.2561 -0.5021 -0.0096
  509MOL0     C70171   0.393  11.723   4.614  0.7440  0.4755 -0.7343
  509MOL0     C70172   0.491  11.834   4.662  0.4557 -0.4869 -0.8891
  509MOL0     H70173   0.856  11.473   4.641  1.8095  3.3585 -0.4465
  509MOL0     H70174   1.079  11.380   4.583 -1.9115 -0.8872  2.0674
  509MOL0     H70175   1.248  11.439   4.260  1.6052  0.0933  1.4517
  509MOL0     H70176   1.159  11.326   4.161  0.4330 -2.6238  0.9268
  509MOL0     H70177   1.422  11.324   4.171 -0.4144  0.9212 -0.5186
  509MOL0     H70178   1.400  11.212   4.318  0.1883  2.4489  1.5075
  509MOL0     H70179   1.253  11.066   4.178 -1.0006 -0.1961 -1.6643
  509MOL0     H70180   1.272  11.167   4.036 -1.4569 -1.5039 -0.3236
  509MOL0     H70181   1.497  11.100   4.000  0.8910 -0.1988  0.3563
  509MOL0     H70182   1.526  11.067   4.168  0.4460 -1.6181 -1.6620
  509MOL0     H70183   1.400  10.847   4.148  0.9129 -1.9227 -0.6836
  509MOL0     H70184   1.519  10.865   4.030  1.3581  1.3436  2.1079
  509MOL0     H70185   1.343  10.765   3.938 -0.0449 -0.0361  1.0695
  509MOL0     H70186   1.213  10.863   3.994 -0.1281  0.0959 -0.3518
  509MOL0     H70187   1.335  11.068   3.847  0.9913 -0.0624  0.2359
  509MOL0     H70188   1.229  10.955   3.780  0.2206 -0.8111 -0.7533
  509MOL0     H70189   1.416  10.956   3.642 -2.6678  0.5550  0.7523
  509MOL0     H70190   1.538  10.948   3.777  0.8946 -0.5589 -0.6299
  509MOL0     H70191   1.263  10.714   3.624  1.4090  1.6736 -2.0969
  509MOL0     H70192   1.466  10.439   3.457 -1.4909 -2.7018 -1.8516
  509MOL0     H70193   1.304  10.507   3.460  0.7276  1.2638 -0.2265
  509MOL0     H70194   1.312  10.275   3.537 -1.9447  1.9515 -1.7078
  509MOL0     H70195   1.444  10.309   3.647  0.0684  1.1593  1.0591
  509MOL0     H70196   1.311  10.432   3.807 -3.6161  1.9120  0.2265
  509MOL0     H70197   1.166  10.421   3.714 -1.2625 -2.2459 -0.1132
  509MOL0     H70198   1.179  10.181   3.692 -0.0110 -0.2883 -0.2926
  509MOL0     H70199   1.310  10.172   3.817  1.0650  0.5341 -0.7233
  509MOL0     H70200   1.009  10.005   3.865 -0.1774 -0.4707  0.5596
  509MOL0     H70201   1.082   9.760   3.884  3.2494  1.6848  0.4841
  509MOL0     H70202   0.941   9.772   3.985  0.6249  1.5336 -0.7393
  509MOL0     H70203   1.107   9.692   4.034  1.2557 -0.4019 -1.9381
  509MOL0     H70204   1.249   9.738   4.497  1.7178  2.0095  0.7355
  509MOL0     H70205   1.391   9.595   4.649 -2.1413  2.0927 -0.2439
  509MOL0     H70206   1.505   9.359   4.542 -1.0720  0.0735  1.3033
  509MOL0     H70207   1.668   9.301   4.600 -0.5303 -0.3721 -3.3038
  509MOL0     H70208   1.595   9.338   4.825 -0.8838 -3.2875  0.9076
  509MOL0     H70209   1.438   9.394   4.771 -0.5593 -0.6726  3.5082
  509MOL0     H70210   1.433   9.167   4.846 -1.3173  3.0440  0.3301
  509MOL0     H70211   1.532   9.102   4.720 -0.7747 -0.6167  1.0757
  509MOL0     H70212   1.267   9.269   4.662 -2.1911 -1.1272  3.4532
  509MOL0     H70213   1.257   9.109   4.705 -2.4109  4.1919  1.9955
  509MOL0     H70214   1.383   9.213   4.453 -0.9604  1.6619  0.3382
  509MOL0     H70215   1.429   9.053   4.513 -1.9061 -1.5088 -2.5733
  509MOL0     H70216   1.157   9.124   4.441  2.1629  2.6027  3.4897
  509MOL0     H70217   1.214   8.974   4.530  2.1366  2.1135  2.0243
  509MOL0     H70218   1.351   8.911   4.323 -1.0793 -0.5503  0.1933
  509MOL0     H70219   1.327   9.069   4.243 -1.4802 -0.8766 -1.5071
  509MOL0     H70220   1.171   8.916   4.149 -0.2188  2.3057 -0.7934
  509MOL0     H70221   1.083   9.027   4.256  0.5796  0.4060 -6.1597
  509MOL0     H70222   1.705   9.589   4.348  2.0609  1.2302  1.6764
  509MOL0     H70223   1.571   9.742   4.210  1.4178 -1.2893 -0.1863
  509MOL0     H70224   1.277  10.106   4.257  0.5682  1.0710 -1.0344
  509MOL0     H70225   1.247  10.266   4.104 -2.2141  0.4708 -0.6562
  509MOL0     H70226   0.945  11.314   4.181  0.3444 -0.2472 -0.0651
  509MOL0     H70227   0.709  11.388   4.254 -2.2759  0.4995  1.7742
  509MOL0     H70228   0.379  11.400   4.488  0.0264 -1.6671  2.7381
  509MOL0     H70229   0.146  11.449   4.488 -0.4531  1.0442 -0.6821
  509MOL0     H70230  -0.050  11.481   4.547 -1.3543 -0.9079  1.8668
  509MOL0     H70231  -0.171  11.606   4.575  0.7382  0.6404  0.6381
  509MOL0     H70232   0.009  11.554   4.330  0.9623 -2.1732  1.7824
  509MOL0     H70233  -0.071  11.709   4.341 -3.8381 -0.5131 -0.3345
  509MOL0     H70234  -0.285  11.595   4.306 -0.8010 -1.6545 -1.5583
  509MOL0     H70235  -0.169  11.512   4.204 -0.9637 -2.6350  0.3837
  509MOL0     H70236  -0.325  11.366   4.298 -1.2393  6.0777 -2.8322
  509MOL0     H70237  -0.289  11.394   4.465 -1.1798 -0.2650 -0.3170
  509MOL0     H70238   0.029  11.156   4.301 -0.8257 -0.5167  0.2253
  509MOL0     H70239   0.215  11.834   4.656 -1.3471 -0.8304  0.6825
  509MOL0     H70240   0.439  11.931   4.668 -2.1497 -1.5862 -3.3597
  509MOL0     H70241   0.529  11.810   4.762 -0.5824  5.1301  1.2468
  509MOL0     H70242   0.571  11.850   4.589  0.6187 -1.9664 -1.0571
  510MOL0     O70243   2.616   7.921   2.203 -1.0462  1.0127  0.8272
  510MOL0     C70244   2.646   8.027   2.254 -0.3468  0.4103  0.1225
  510MOL0     O70245   2.681   8.143   2.192 -0.5235  0.2687 -0.6970
  510MOL0     C70246   2.701   8.142   2.059 -1.1675  0.0962  0.1782
  510MOL0     C70247   2.623   8.077   1.964  0.5564  0.0536  0.8500
  510MOL0     C70248   2.657   8.069   1.832  0.2929 -0.3764  0.0265
  510MOL0     C70249   2.782   8.113   1.790 -0.0092  1.0017  0.1197
  510MOL0     O70250   2.822   8.068   1.665  0.3494  0.4763  0.4406
  510MOL0     C70251   2.954   8.040   1.633 -0.7666  0.3003  1.0978
  510MOL0     C70252   2.978   7.996   1.494  0.1922  0.1249  0.7467
  510MOL0     C70253   2.923   8.102   1.399  0.0327  0.6416  1.1092
  510MOL0     C70254   2.979   8.082   1.256 -0.4015  0.0618 -0.0107
  510MOL0     C70255   2.928   8.174   1.143  0.2154  0.1606 -0.1994
  510MOL0     C70256   2.957   8.321   1.165 -0.2155 -0.2614 -0.8771
  510MOL0     C70257   2.919   8.394   1.041 -0.3741 -0.0514  0.2806
  510MOL0     C70258   2.912   8.541   1.068 -0.4961  0.4420  0.5085
  510MOL0     N70259   2.917   8.624   0.950 -0.5411  0.9872 -0.0815
  510MOL0     C70260   2.961   8.747   0.958 -0.9340  0.5099  0.0048
  510MOL0     C70261   2.987   8.776   0.828  0.1627  0.0241 -0.4459
  510MOL0     C70262   3.038   8.907   0.781 -0.3455  0.7067  0.5761
  510MOL0     C70263   2.919   8.997   0.730 -0.2117  0.0623  0.5444
  510MOL0     C70264   2.962   9.138   0.693 -0.9482  0.2140  0.1043
  510MOL0     C70265   3.070   9.199   0.774  0.4496  0.5807  0.0257
  510MOL0     O70266   3.108   9.331   0.733  0.4630 -0.4011 -0.5074
  510MOL0     C70267   3.237   9.379   0.768  1.0656 -0.6560  1.0715
  510MOL0     C70268   3.323   9.319   0.861  0.4096 -0.1028  0.4761
  510MOL0     C70269   3.444   9.381   0.900  0.5507 -0.0673  0.3885
  510MOL0     C70270   3.540   9.296   0.995 -0.3620 -0.3306  0.2341
  510MOL0     C70271   3.475   9.509   0.841 -0.0379  0.9178 -0.2093
  510MOL0     C70272   3.591   9.590   0.881  0.1729 -0.1350 -0.6704
  510MOL0     O70273   3.615   9.695   0.800  0.8433  0.1650 -0.1857
  510MOL0     C70274   3.720   9.781   0.793 -0.2021 -0.2286  0.0685
  510MOL0     C70275   3.684   9.903   0.720  0.2514  0.2678 -0.1474
  510MOL0     C70276   3.776  10.011   0.722 -0.7433 -0.0289  0.2088
  510MOL0     C70277   3.907   9.987   0.771  1.2177  0.3125  0.1859
  510MOL0     O70278   4.013  10.077   0.769 -0.3525 -0.1301  0.1745
  510MOL0     C70279   3.992  10.212   0.719 -0.3200 -0.6216 -0.1137
  510MOL0     C70280   4.106  10.308   0.753 -0.6489 -0.0347  0.8739
  510MOL0     C70281   4.070  10.456   0.727 -0.2579 -0.0560  0.1309
  510MOL0     C70282   3.944  10.511   0.785  0.3739 -0.6401  0.0773
  510MOL0     C70283   3.940  10.663   0.796  0.2301  0.1637  0.8597
  510MOL0     C70284   3.994  10.716   0.933  0.0485  0.3211 -0.1947
  510MOL0     C70285   3.971  10.862   0.945 -0.3612 -0.8329 -0.2016
  510MOL0     C70286   4.105  10.923   1.000 -0.7299  0.2397  0.8026
  510MOL0    Cl70287   4.230  10.893   0.873  0.0376  0.0496 -0.2618
  510MOL0     C70288   3.941   9.867   0.851  0.1593 -0.4937 -0.2287
  510MOL0     C70289   3.847   9.767   0.847  0.6599  0.1324 -0.1219
  510MOL0     O70290   3.648   9.564   0.989  0.0036  0.1731 -0.6871
  510MOL0     C70291   3.394   9.561   0.743 -0.3195 -0.1555  0.0648
  510MOL0     C70292   3.273   9.502   0.717  0.4415 -0.6145  0.5224
  510MOL0     N70293   2.981   8.668   0.753  0.0805  0.2550 -0.3701
  510MOL0     N70294   2.930   8.580   0.823  0.7867 -0.2347 -0.0606
  510MOL0     C70295   2.858   8.189   1.870  0.1504 -0.8988 -0.7010
  510MOL0     C70296   2.815   8.207   2.002 -0.1437 -0.2706 -0.4293
  510MOL0     C70297   2.658   8.027   2.410 -0.0576  0.8293  0.0885
  510MOL0     C70298   2.758   8.091   2.464 -0.5633  0.3051 -0.6893
  510MOL0     C70299   2.789   8.074   2.604 -0.5976  0.4234 -0.5345
  510MOL0     C70300   2.710   8.007   2.688 -0.1657 -0.2844 -0.0105
  510MOL0     O70301   2.725   8.017   2.830 -0.5883 -0.9734  0.5344
  510MOL0     C70302   2.666   7.915   2.913  0.3221 -0.8376 -0.0664
  510MOL0     C70303   2.517   7.933   2.946  0.4628 -0.6041  0.1983
  510MOL0     C70304   2.495   8.026   3.071 -0.9817  0.6695  0.1313
  510MOL0     C70305   2.356   7.995   3.122 -0.6744  0.1241  0.4010
  510MOL0     C70306   2.239   8.005   3.026 -0.1157 -0.3774 -0.0358
  510MOL0     C70307   2.150   8.024   2.946  0.9339  0.5382  0.0379
  510MOL0     C70308   2.597   7.946   2.622  0.8673  0.8391 -0.8353
  510MOL0     C70309   2.575   7.943   2.485 -0.3461 -0.8155  0.0834
  510MOL0     C70310   2.458   7.862   2.433 -0.6668 -0.0209 -0.4285
  510MOL0     H70311   2.536   8.026   2.004  0.7614 -0.1260  1.0642
  510MOL0     H70312   2.584   8.039   1.758 -1.9940  1.5004  1.3451
  510MOL0     H70313   2.988   7.965   1.705  0.6507 -0.4844 -0.3244
  510MOL0     H70314   3.006   8.135   1.650  0.2545 -0.3448  1.6741
  510MOL0     H70315   3.082   7.969   1.472  0.1218 -0.3509  0.9788
  510MOL0     H70316   2.924   7.902   1.477  0.5764  0.4281 -3.0758
  510MOL0     H70317   2.814   8.100   1.386  0.2334  0.2482 -0.7751
  510MOL0     H70318   2.945   8.199   1.444 -0.3587 -0.1293  3.0283
  510MOL0     H70319   3.086   8.098   1.266 -0.3049 -1.4041  1.6115
  510MOL0     H70320   2.960   7.982   1.216 -0.1771 -0.3004  0.7862
  510MOL0     H70321   2.820   8.159   1.136  0.0149  2.0913 -2.6508
  510MOL0     H70322   2.978   8.142   1.051  2.2378  1.9697  0.1858
  510MOL0     H70323   2.895   8.361   1.246  0.5121 -1.4004  0.2976
  510MOL0     H70324   3.060   8.325   1.204 -1.1916 -0.8756  1.9959
  510MOL0     H70325   2.818   8.356   1.021 -1.0028  1.1742  0.9938
  510MOL0     H70326   2.994   8.363   0.969  0.2410  3.2731 -0.6593
  510MOL0     H70327   2.820   8.571   1.118 -1.5058  0.2419 -1.1802
  510MOL0     H70328   3.000   8.564   1.130  0.9013 -0.9220 -0.8566
  510MOL0     H70329   2.965   8.807   1.048 -2.0451  0.8762 -0.1782
  510MOL0     H70330   3.092   8.890   0.687  2.7659  2.1749  1.9715
  510MOL0     H70331   3.112   8.941   0.853  2.5852 -0.3383 -1.7423
  510MOL0     H70332   2.874   8.948   0.643 -1.4557  1.0127  0.6341
  510MOL0     H70333   2.857   8.999   0.820  0.8792 -2.6785  1.4771
  510MOL0     H70334   2.987   9.139   0.586 -2.5343  0.7470 -0.2864
  510MOL0     H70335   2.878   9.206   0.705 -0.6533  0.9926 -1.8191
  510MOL0     H70336   3.031   9.209   0.876  1.0009 -1.0878  0.4267
  510MOL0     H70337   3.157   9.135   0.757  0.2812  0.4243 -0.2654
  510MOL0     H70338   3.289   9.222   0.897 -3.9185  1.7085  1.9874
  510MOL0     H70339   3.642   9.335   1.005 -0.8055  0.8155  0.3637
  510MOL0     H70340   3.551   9.191   0.965  2.7794  0.1066 -0.5155
  510MOL0     H70341   3.499   9.305   1.096 -0.8097  2.4611 -0.1215
  510MOL0     H70342   3.589   9.923   0.671  0.0709  1.2507  0.5783
  510MOL0     H70343   3.769  10.104   0.668  4.1087 -1.2129 -3.0978
  510MOL0     H70344   3.982  10.212   0.610  0.3446  0.6081 -0.1982
  510MOL0     H70345   3.902  10.256   0.762  0.2440  1.2409 -0.7182
  510MOL0     H70346   4.124  10.287   0.859  1.9752 -0.6429  0.3869
  510MOL0     H70347   4.187  10.272   0.688 -1.0807  0.4141  0.0808
  510MOL0     H70348   4.056  10.482   0.622  1.8862  1.0703  0.0683
  510MOL0     H70349   4.162  10.513   0.740  0.1912 -0.8268  0.3565
  510MOL0     H70350   3.925  10.470   0.885 -0.7555 -1.1238 -0.3166
  510MOL0     H70351   3.859  10.485   0.722  0.7933 -1.4871 -0.1524
  510MOL0     H70352   3.995  10.716   0.718 -0.2105  1.8458  1.6333
  510MOL0     H70353   3.837  10.694   0.780  1.4220  2.8037 -2.9995
  510MOL0     H70354   4.096  10.680   0.945 -0.4946 -0.8916  1.0047
  510MOL0     H70355   3.943  10.667   1.016  0.5713  0.6772  0.3422
  510MOL0     H70356   3.883  10.889   1.005 -1.9969 -1.9293 -2.0055
  510MOL0     H70357   3.942  10.905   0.849 -3.1863 -1.3402  0.3406
  510MOL0     H70358   4.113  10.874   1.097 -3.7439  1.7518  1.9341
  510MOL0     H70359   4.107  11.030   1.023 -0.0393  1.0072 -2.3761
  510MOL0     H70360   4.035   9.850   0.904 -1.3327 -2.9344  1.8608
  510MOL0     H70361   3.870   9.674   0.898 -0.9958 -0.4311 -0.3419
  510MOL0     H70362   3.418   9.661   0.710  3.8118 -1.8608 -3.0149
  510MOL0     H70363   3.208   9.541   0.640 -0.1368 -0.8664  0.8693
  510MOL0     H70364   2.962   8.219   1.860 -0.2547  0.5787 -0.6623
  510MOL0     H70365   2.879   8.273   2.059 -0.2291 -2.0723  1.9067
  510MOL0     H70366   2.816   8.161   2.404 -1.2402 -0.1043 -1.8453
  510MOL0     H70367   2.875   8.123   2.649  0.1176 -1.6992  0.5687
  510MOL0     H70368   2.670   7.823   2.854  0.8886 -1.9719  1.6684
  510MOL0     H70369   2.717   7.904   3.009 -0.8829 -2.0935  0.4690
  510MOL0     H70370   2.483   7.835   2.981 -3.4463  0.7428  0.5849
  510MOL0     H70371   2.452   7.964   2.864 -1.7617 -0.9980  1.7296
  510MOL0     H70372   2.574   8.000   3.142  3.1999  1.1153 -3.9416
  510MOL0     H70373   2.511   8.133   3.055  0.9547  0.8030  2.4568
  510MOL0     H70374   2.343   8.059   3.209 -0.1916 -1.9643  2.1055
  510MOL0     H70375   2.360   7.894   3.165  0.9054  0.0585  0.1526
  510MOL0     H70376   2.067   8.040   2.879  1.0865 -2.6165 -1.0837
  510MOL0     H70377   2.528   7.889   2.684  1.7100 -0.6898 -1.2484
  510MOL0     H70378   2.424   7.793   2.511  0.3629 -2.5948 -2.1183
  510MOL0     H70379   2.375   7.925   2.399 -0.5541 -0.5526 -1.7750
  510MOL0     H70380   2.487   7.809   2.341 -0.7296  1.0995 -1.1135
  511MOL0     O70381  10.560   4.601   0.462  0.3659  0.0747  0.8110
  511MOL0     C70382  10.483   4.610   0.364  0.0155  0.6917 -0.7408
  511MOL0     O70383  10.376   4.695   0.348 -0.3412  0.5977  0.1056
  511MOL0     C70384  10.371   4.814   0.420  0.0308  0.9861 -0.7326
  511MOL0     C70385  10.459   4.874   0.514  0.8859 -0.8291 -0.6808
  511MOL0     C70386  10.425   5.004   0.562 -0.0910  0.8854  0.6307
  511MOL0     C70387  10.297   5.062   0.541 -0.1417 -0.3461  0.5424
  511MOL0     O70388  10.270   5.191   0.592 -0.1905 -0.3393  0.3901
  511MOL0     C70389  10.129   5.237   0.592  0.1644  0.1295  0.4357
  511MOL0     C70390  10.122   5.373   0.659  0.2575  0.6707  0.7058
  511MOL0     C70391   9.975   5.420   0.673  0.3735 -0.6783 -1.1673
  511MOL0     C70392   9.962   5.570   0.727  0.5139 -0.5215  0.3833
  511MOL0     C70393   9.824   5.615   0.780  0.5918 -0.0255 -0.1415
  511MOL0     C70394   9.707   5.573   0.681 -0.2420  0.6716 -0.5997
  511MOL0     C70395   9.657   5.424   0.689 -0.1436 -0.1274  0.7897
  511MOL0     C70396   9.641   5.361   0.828 -0.5648 -0.6263  0.0559
  511MOL0     N70397   9.572   5.233   0.818 -0.6078  0.1055  0.1215
  511MOL0     C70398   9.442   5.214   0.828  0.4406 -0.5487  0.3488
  511MOL0     C70399   9.426   5.082   0.812  0.0994  0.2176 -0.2458
  511MOL0     C70400   9.297   5.015   0.806 -0.5909  1.1149  0.5242
  511MOL0     C70401   9.196   5.086   0.716  0.8966  0.8299 -0.2996
  511MOL0     C70402   9.068   5.013   0.673  0.1272  0.4030 -0.1685
  511MOL0     C70403   8.961   4.989   0.777  0.0994  0.1917 -0.0186
  511MOL0     O70404   8.818   4.998   0.721 -0.1754  0.2410  0.6522
  511MOL0     C70405   8.717   4.938   0.797  0.7516 -0.2655  0.4932
  511MOL0     C70406   8.717   4.895   0.936  0.0779  0.9639  1.3036
  511MOL0     C70407   8.599   4.835   1.004  0.4606  0.4839  0.4959
  511MOL0     C70408   8.611   4.831   1.152 -0.0194 -0.8051  0.3183
  511MOL0     C70409   8.482   4.807   0.924 -0.1187 -0.0969  0.6082
  511MOL0     C70410   8.370   4.719   0.974 -0.9301 -0.3877  0.0901
  511MOL0     O70411   8.249   4.735   0.910 -0.1086 -0.1078 -0.3564
  511MOL0     C70412   8.124   4.690   0.959  0.3455 -0.3296 -0.1924
  511MOL0     C70413   8.017   4.781   0.968  0.2215 -0.9123 -0.1252
  511MOL0     C70414   7.888   4.742   0.997 -0.1448  0.5113 -0.7732
  511MOL0     C70415   7.864   4.603   1.009  0.3269 -0.8574 -0.3473
  511MOL0     O70416   7.733   4.569   1.025 -0.0133  0.0859  0.8540
  511MOL0     C70417   7.681   4.441   0.972 -0.3669  0.0391  0.6838
  511MOL0     C70418   7.532   4.437   1.002  0.2037 -0.3952 -0.1800
  511MOL0     C70419   7.515   4.426   1.161 -0.7707  0.7448  0.7022
  511MOL0     C70420   7.372   4.457   1.194 -0.2977 -0.0453  1.1200
  511MOL0     C70421   7.330   4.458   1.339  0.2280 -0.1067  0.1177
  511MOL0     C70422   7.435   4.540   1.422  0.0610  1.3865  0.0947
  511MOL0     C70423   7.349   4.601   1.543  0.5420  0.8754 -0.9928
  511MOL0     C70424   7.427   4.677   1.651 -0.6111  0.2623  0.4829
  511MOL0    Cl70425   7.334   4.690   1.810 -0.4426 -0.0329  0.0884
  511MOL0     C70426   7.974   4.508   1.008 -0.4304 -0.7805 -0.1773
  511MOL0     C70427   8.100   4.549   0.985 -0.7193 -1.5465 -0.0011
  511MOL0     O70428   8.393   4.632   1.057 -0.0771 -0.6926  0.4321
  511MOL0     C70429   8.485   4.851   0.790  0.3163  0.7797 -1.1844
  511MOL0     C70430   8.594   4.917   0.730 -0.1648 -0.0040  0.2548
  511MOL0     N70431   9.544   5.021   0.795  0.6134 -0.0161  0.1421
  511MOL0     N70432   9.634   5.116   0.791 -0.3495 -0.3548  0.7998
  511MOL0     C70433  10.206   4.997   0.458 -0.7235 -1.0340  0.1613
  511MOL0     C70434  10.244   4.880   0.401 -0.3096  0.5404  0.7717
  511MOL0     C70435  10.506   4.518   0.251 -0.2748  0.3012  0.8340
  511MOL0     C70436  10.403   4.436   0.203 -0.2474  0.2442 -0.1900
  511MOL0     C70437  10.437   4.342   0.101  0.3694 -0.6204  0.5474
  511MOL0     C70438  10.569   4.320   0.057 -0.5152 -0.5194 -0.1383
  511MOL0     O70439  10.604   4.229  -0.039 -0.4792 -0.1511 -0.8974
  511MOL0     C70440  10.740   4.207  -0.094 -0.8895  0.1879  0.8544
  511MOL0     C70441  10.749   4.107  -0.208  0.5035 -0.7788  0.2746
  511MOL0     C70442  10.661   4.144  -0.328 -0.6650  0.1033 -0.2277
  511MOL0     C70443  10.692   4.058  -0.453 -0.1371  0.2556  0.0081
  511MOL0     C70444  10.580   4.050  -0.550 -0.7271 -0.4460 -0.7824
  511MOL0     C70445  10.492   4.049  -0.623  0.4725  0.6477  1.2651
  511MOL0     C70446  10.662   4.406   0.108 -0.5846  0.6032  0.1349
  511MOL0     C70447  10.633   4.504   0.203 -0.3640 -0.8295 -0.5328
  511MOL0     C70448  10.753   4.592   0.250 -0.5635 -0.8363 -0.9247
  511MOL0     H70449  10.562   4.840   0.521  1.2895  0.5742  1.0608
  511MOL0     H70450  10.510   5.047   0.615  0.7098 -0.6567  0.6408
  511MOL0     H70451  10.066   5.157   0.633 -1.9420  0.3474 -2.1300
  511MOL0     H70452  10.100   5.242   0.487  0.2434  1.0817  0.4554
  511MOL0     H70453  10.175   5.376   0.755  2.3252 -2.9466 -0.1163
  511MOL0     H70454  10.170   5.438   0.586  2.2156 -1.7499 -0.3052
  511MOL0     H70455   9.932   5.398   0.574 -1.3387  0.0869 -0.6279
  511MOL0     H70456   9.940   5.352   0.752  0.5430  1.4472  0.8320
  511MOL0     H70457  10.037   5.586   0.805  2.1737  1.5928 -1.5349
  511MOL0     H70458   9.986   5.642   0.648 -0.3244 -0.5338  0.1058
  511MOL0     H70459   9.830   5.724   0.783  0.5907 -0.0329  0.1110
  511MOL0     H70460   9.810   5.577   0.882 -1.7993 -0.9961 -0.7395
  511MOL0     H70461   9.630   5.639   0.720 -0.2777 -0.1308  0.7290
  511MOL0     H70462   9.723   5.612   0.579 -1.2508 -0.9098 -1.3959
  511MOL0     H70463   9.722   5.362   0.628 -2.8221 -1.8667 -0.4900
  511MOL0     H70464   9.561   5.413   0.637  1.1005 -0.7424 -1.5126
  511MOL0     H70465   9.740   5.353   0.872 -0.1884 -1.0349 -0.8526
  511MOL0     H70466   9.581   5.428   0.891 -0.1095  1.8079 -1.9317
  511MOL0     H70467   9.361   5.285   0.843 -0.5861 -1.3083 -1.2836
  511MOL0     H70468   9.262   5.007   0.910  3.4808  2.5071  2.1935
  511MOL0     H70469   9.318   4.918   0.759 -1.5269 -0.0731  2.4262
  511MOL0     H70470   9.178   5.177   0.774 -0.4359  0.4386 -0.0752
  511MOL0     H70471   9.247   5.112   0.623 -2.7889  3.4061 -1.7864
  511MOL0     H70472   9.026   5.077   0.595 -0.7362 -0.6009 -0.5440
  511MOL0     H70473   9.105   4.922   0.624  4.7600  1.7419  0.3277
  511MOL0     H70474   8.978   4.900   0.839 -1.2331 -1.3933 -1.7830
  511MOL0     H70475   8.961   5.062   0.857 -0.1681  0.5588 -0.3503
  511MOL0     H70476   8.798   4.919   1.004  0.2279  0.8227  1.1769
  511MOL0     H70477   8.511   4.817   1.193  0.5973 -2.1105  1.4588
  511MOL0     H70478   8.651   4.923   1.194 -1.3854  0.5283 -1.1502
  511MOL0     H70479   8.674   4.743   1.171 -2.4767 -1.9068  4.7307
  511MOL0     H70480   8.026   4.887   0.950 -0.3781 -0.7721  0.3587
  511MOL0     H70481   7.798   4.801   1.012 -1.0187 -1.3573  2.3924
  511MOL0     H70482   7.698   4.438   0.864 -0.4496 -0.7859  0.6864
  511MOL0     H70483   7.747   4.362   1.009  1.1296  0.7963 -0.3077
  511MOL0     H70484   7.489   4.531   0.968  1.0857 -0.7564 -2.4995
  511MOL0     H70485   7.485   4.349   0.956 -0.2722  1.2950 -3.1914
  511MOL0     H70486   7.579   4.490   1.222 -0.0048  0.5047  0.1671
  511MOL0     H70487   7.541   4.325   1.195  2.5591  0.7698 -1.2857
  511MOL0     H70488   7.306   4.392   1.137  2.2345 -1.1955 -0.7190
  511MOL0     H70489   7.344   4.555   1.153 -0.4407  0.4682  2.3938
  511MOL0     H70490   7.231   4.504   1.347 -0.6346 -1.8559 -0.0528
  511MOL0     H70491   7.320   4.359   1.385  2.4427  0.7595  2.7752
  511MOL0     H70492   7.488   4.620   1.369  1.2334 -0.5001 -1.7548
  511MOL0     H70493   7.506   4.466   1.461 -2.4495 -1.3040 -0.0253
  511MOL0     H70494   7.305   4.511   1.587  0.1599  1.5523  0.0379
  511MOL0     H70495   7.263   4.654   1.502 -2.1727 -0.2582  2.6656
  511MOL0     H70496   7.472   4.767   1.608  2.2628 -1.1700  0.2864
  511MOL0     H70497   7.518   4.619   1.667  0.9985  2.0134 -1.6070
  511MOL0     H70498   7.959   4.401   1.015  3.6606 -1.4460  0.5689
  511MOL0     H70499   8.187   4.485   0.990  0.1430 -0.2912  2.4669
  511MOL0     H70500   8.393   4.854   0.732 -0.6925 -0.9366  0.2521
  511MOL0     H70501   8.605   4.960   0.631  4.2318  0.7178  0.8364
  511MOL0     H70502  10.111   5.040   0.425  0.2136  0.4555 -0.7345
  511MOL0     H70503  10.177   4.850   0.321 -2.1914  0.9521  2.1441
  511MOL0     H70504  10.297   4.454   0.218  0.0545  0.8809  1.3448
  511MOL0     H70505  10.356   4.290   0.049 -0.0758  0.2726  0.3283
  511MOL0     H70506  10.755   4.305  -0.138 -0.4912 -0.0497  0.4555
  511MOL0     H70507  10.819   4.189  -0.021  1.1128  0.3246 -1.1591
  511MOL0     H70508  10.700   4.023  -0.157  0.6031 -0.7763  0.3727
  511MOL0     H70509  10.850   4.072  -0.230  1.4715  2.5818 -1.2701
  511MOL0     H70510  10.557   4.122  -0.302 -0.1161  0.8419  3.0449
  511MOL0     H70511  10.670   4.250  -0.351  0.5514 -0.1830 -1.2238
  511MOL0     H70512  10.715   3.957  -0.417 -0.6609  0.0352 -0.2759
  511MOL0     H70513  10.775   4.115  -0.496  1.2992 -2.8452 -1.5934
  511MOL0     H70514  10.402   4.061  -0.681 -0.7236  0.4042  2.9846
  511MOL0     H70515  10.766   4.410   0.078  0.0194  1.5635  2.1524
  511MOL0     H70516  10.848   4.539   0.235 -0.2416  0.1949 -2.9787
  511MOL0     H70517  10.772   4.673   0.179  0.3558 -0.4576 -0.2744
  511MOL0     H70518  10.743   4.628   0.353 -1.5155 -0.9227 -0.9842
  512MOL0     O70519   0.112   3.586   4.037  0.2652  0.6104  0.1132
  512MOL0     C70520   0.031   3.561   3.946  0.3430  1.3084  0.6824
  512MOL0     O70521  -0.032   3.443   3.924  0.0673  0.6807  0.0890
  512MOL0     C70522   0.015   3.325   3.978  0.3070 -0.3646  0.1301
  512MOL0     C70523   0.036   3.225   3.887  0.2298 -0.8633  0.9440
  512MOL0     C70524   0.063   3.095   3.942 -0.4767  0.9876  0.0372
  512MOL0     C70525   0.066   3.071   4.081  0.1917 -0.2631  0.5635
  512MOL0     O70526   0.101   2.954   4.140  0.3536  0.1567  0.2076
  512MOL0     C70527   0.127   2.829   4.059  0.5116 -0.4257  0.6928
  512MOL0     C70528   0.104   2.713   4.148  0.7965  0.2575  0.2828
  512MOL0     C70529   0.200   2.700   4.263  1.1113  0.7220  0.9249
  512MOL0     C70530   0.331   2.639   4.202 -0.2894 -0.1584  0.2832
  512MOL0     C70531   0.406   2.553   4.308  0.6078 -0.0886  0.9914
  512MOL0     C70532   0.457   2.646   4.421  0.4094  0.1836 -0.9829
  512MOL0     C70533   0.552   2.762   4.367  0.2783 -0.8667 -0.2837
  512MOL0     C70534   0.638   2.848   4.462 -1.0428  0.4351  0.1922
  512MOL0     N70535   0.717   2.956   4.395 -0.3429  0.2264  0.2020
  512MOL0     C70536   0.694   3.032   4.280 -0.4985  0.4966 -0.4219
  512MOL0     C70537   0.783   3.140   4.281 -0.1123 -0.3854 -0.0039
  512MOL0     C70538   0.830   3.219   4.159  0.1441  0.2090  0.2317
  512MOL0     C70539   0.984   3.185   4.146  0.9597 -0.1769  0.3761
  512MOL0     C70540   1.026   3.037   4.145  0.8937  0.8441  0.4845
  512MOL0     C70541   0.954   2.948   4.037  1.0788 -0.6558  0.2782
  512MOL0     O70542   0.981   3.008   3.909 -0.2549 -0.1905 -0.0401
  512MOL0     C70543   1.002   2.919   3.800 -0.4081 -0.3960 -0.4105
  512MOL0     C70544   1.089   2.951   3.698  0.0165  0.7984 -0.1454
  512MOL0     C70545   1.102   2.868   3.584 -0.2019 -0.2520 -0.8141
  512MOL0     C70546   1.208   2.901   3.479  0.2153 -0.1782  0.6474
  512MOL0     C70547   1.018   2.749   3.570 -0.3972 -0.2296  0.8398
  512MOL0     C70548   1.009   2.660   3.458  0.7849  0.4385 -0.4810
  512MOL0     O70549   0.889   2.573   3.451 -0.0158 -0.6525 -0.7522
  512MOL0     C70550   0.896   2.468   3.364 -0.0530  0.3992 -0.9768
  512MOL0     C70551   0.999   2.372   3.387 -0.8819  0.3132 -1.1381
  512MOL0     C70552   0.992   2.254   3.321 -0.3775 -0.0248  0.0248
  512MOL0     C70553   0.879   2.218   3.238 -0.6482 -0.4198 -0.0328
  512MOL0     O70554   0.871   2.098   3.176 -0.0246  0.2528 -0.9502
  512MOL0     C70555   0.979   1.997   3.201  0.7195 -0.7709  0.2547
  512MOL0     C70556   0.924   1.854   3.174 -0.3950  0.7920  0.3909
  512MOL0     C70557   1.025   1.761   3.085 -0.0847 -0.2639  0.0472
  512MOL0     C70558   0.976   1.641   3.012  0.4393 -0.4165 -0.1819
  512MOL0     C70559   0.904   1.562   3.128  0.2810  0.1509 -0.5572
  512MOL0     C70560   0.828   1.442   3.061  1.1585  0.9647  0.0180
  512MOL0     C70561   0.728   1.385   3.166 -0.4414  1.2013  0.0081
  512MOL0     C70562   0.676   1.260   3.113 -0.5936  1.3594 -0.7574
  512MOL0    Cl70563   0.505   1.269   3.137  0.7251  0.3032 -0.0004
  512MOL0     C70564   0.783   2.314   3.219  0.2887 -0.3137 -0.1360
  512MOL0     C70565   0.788   2.442   3.292 -0.0916  1.2210  0.4298
  512MOL0     O70566   1.110   2.647   3.385 -0.7638 -0.9283  1.0967
  512MOL0     C70567   0.920   2.724   3.672 -0.7306  0.0635 -0.5675
  512MOL0     C70568   0.912   2.817   3.786 -0.0724  1.3942  0.4262
  512MOL0     N70569   0.854   3.134   4.401  0.0535 -0.3348 -0.5177
  512MOL0     N70570   0.821   3.023   4.464 -0.1586 -0.9267 -0.1741
  512MOL0     C70571   0.035   3.183   4.166  0.0667 -0.4679  0.1510
  512MOL0     C70572   0.003   3.304   4.119 -0.2260 -1.4807 -0.0163
  512MOL0     C70573  -0.038   3.665   3.867 -0.6277 -0.1449  0.5672
  512MOL0     C70574  -0.168   3.656   3.819 -0.8597  0.1920  0.4831
  512MOL0     C70575  -0.226   3.768   3.758  0.3783 -0.0635 -0.3619
  512MOL0     C70576  -0.153   3.890   3.745 -0.4770  0.2819 -0.1344
  512MOL0     O70577  -0.203   4.006   3.694  0.4488  0.0876  0.0648
  512MOL0     C70578  -0.347   4.008   3.665 -0.7798  0.7719 -0.8564
  512MOL0     C70579  -0.363   3.973   3.515  0.6611  0.4273 -0.2174
  512MOL0     C70580  -0.511   3.938   3.475  0.6497 -1.0372  0.0294
  512MOL0     C70581  -0.533   3.916   3.323 -0.3769 -0.5269 -0.3193
  512MOL0     C70582  -0.485   4.028   3.234  0.9808 -0.7962 -0.3070
  512MOL0     C70583  -0.431   4.114   3.170  0.6479  0.3448  0.2451
  512MOL0     C70584  -0.024   3.893   3.780 -0.7821  0.3079 -0.2747
  512MOL0     C70585   0.044   3.779   3.839  0.4644 -0.6818 -0.6929
  512MOL0     C70586   0.187   3.795   3.868  0.2679 -0.4308 -0.1104
  512MOL0     H70587   0.040   3.247   3.781  0.5359 -1.5679  0.8057
  512MOL0     H70588   0.082   3.016   3.870 -0.8679 -0.1008  1.0771
  512MOL0     H70589   0.229   2.835   4.021  0.2431  2.1933  0.2426
  512MOL0     H70590   0.055   2.829   3.977  1.8899  1.4968 -0.6005
  512MOL0     H70591   0.002   2.718   4.187 -2.4753  2.4847 -6.8216
  512MOL0     H70592   0.109   2.621   4.089  2.6963  0.4727  0.0491
  512MOL0     H70593   0.198   2.793   4.321  1.6362  1.0112  0.4912
  512MOL0     H70594   0.166   2.619   4.328  0.5549  0.4444  0.3016
  512MOL0     H70595   0.315   2.575   4.114  2.3740 -1.1365  0.4454
  512MOL0     H70596   0.386   2.722   4.157 -0.2198 -0.0901  0.4959
  512MOL0     H70597   0.483   2.502   4.250 -0.5433  1.1785 -1.8166
  512MOL0     H70598   0.338   2.476   4.346 -2.0906  2.1527  1.0136
  512MOL0     H70599   0.375   2.679   4.485  1.1937  0.8016 -0.2746
  512MOL0     H70600   0.523   2.595   4.491 -1.7258 -0.3161  0.7637
  512MOL0     H70601   0.489   2.829   4.308  0.9284  1.4230  1.4677
  512MOL0     H70602   0.622   2.714   4.297 -0.0371 -1.2372 -0.3474
  512MOL0     H70603   0.574   2.892   4.539  1.4710  1.6341  1.7428
  512MOL0     H70604   0.705   2.781   4.517  3.0943  4.0070  0.1137
  512MOL0     H70605   0.632   3.018   4.193  2.8387 -2.0475 -2.6658
  512MOL0     H70606   0.826   3.326   4.181 -2.9427  0.6174 -1.7287
  512MOL0     H70607   0.772   3.190   4.071 -0.1530 -1.0921  0.8248
  512MOL0     H70608   1.025   3.229   4.055  1.7130  0.3583  0.9494
  512MOL0     H70609   1.016   3.234   4.239 -1.3492 -2.3225  2.4418
  512MOL0     H70610   1.132   3.048   4.121  0.0874  2.2674 -3.0500
  512MOL0     H70611   1.002   2.989   4.241  3.1800  0.1766  0.7649
  512MOL0     H70612   0.994   2.848   4.055 -4.1119 -2.8406  1.4720
  512MOL0     H70613   0.846   2.939   4.051  0.9040 -0.7403 -0.9886
  512MOL0     H70614   1.127   3.052   3.708 -1.3513  1.6387 -2.6681
  512MOL0     H70615   1.154   2.937   3.391 -2.5938  1.1932  2.7732
  512MOL0     H70616   1.271   2.814   3.458  1.5214  0.9221 -0.1884
  512MOL0     H70617   1.278   2.980   3.507 -1.9547  2.5215 -1.0156
  512MOL0     H70618   1.078   2.396   3.458  0.5772 -2.3295 -1.7555
  512MOL0     H70619   1.074   2.184   3.332  0.3756  0.9018  0.5291
  512MOL0     H70620   1.065   2.019   3.138  2.2137  0.9611  2.7295
  512MOL0     H70621   1.016   1.990   3.304 -2.4501  0.7309  1.6669
  512MOL0     H70622   0.903   1.815   3.274 -2.6834  3.3688  1.0004
  512MOL0     H70623   0.829   1.861   3.122 -1.9746 -0.2915  2.9050
  512MOL0     H70624   1.089   1.719   3.163  1.8320  1.2393 -0.6259
  512MOL0     H70625   1.083   1.812   3.007  1.3342 -1.3892  0.3309
  512MOL0     H70626   1.052   1.576   2.967 -1.9764 -1.5112 -3.0451
  512MOL0     H70627   0.913   1.668   2.927 -1.1562 -1.0270  0.7370
  512MOL0     H70628   0.976   1.530   3.204 -1.9650  0.4734  1.8550
  512MOL0     H70629   0.839   1.623   3.191  1.9322  0.3445  1.0087
  512MOL0     H70630   0.902   1.370   3.025  0.7802  1.5094 -1.9786
  512MOL0     H70631   0.754   1.462   2.983 -0.4111 -0.9883  0.9013
  512MOL0     H70632   0.646   1.456   3.177  1.6090  3.7250  0.0457
  512MOL0     H70633   0.778   1.364   3.262  0.5969 -0.8069 -0.9284
  512MOL0     H70634   0.706   1.169   3.166 -0.6648  1.3262 -0.7753
  512MOL0     H70635   0.689   1.242   3.006  0.2168  0.3257 -0.4949
  512MOL0     H70636   0.701   2.297   3.150 -1.1311  0.0379  1.4067
  512MOL0     H70637   0.707   2.509   3.269 -1.7018 -0.1151  1.9616
  512MOL0     H70638   0.845   2.646   3.671 -3.1067  2.1682  0.4229
  512MOL0     H70639   0.825   2.795   3.848 -0.9128 -2.6566 -1.8911
  512MOL0     H70640   0.043   3.154   4.270  0.5965  1.1088  0.5739
  512MOL0     H70641  -0.028   3.388   4.180  0.4403 -1.6933  0.6340
  512MOL0     H70642  -0.223   3.563   3.824 -1.6859  0.5594 -1.1109
  512MOL0     H70643  -0.329   3.751   3.727  0.4390 -0.2727 -0.4540
  512MOL0     H70644  -0.403   3.942   3.731 -1.2535  1.0147 -1.0104
  512MOL0     H70645  -0.375   4.113   3.678  0.7886  1.0145  1.0320
  512MOL0     H70646  -0.303   3.883   3.497 -2.6218 -2.1964  0.8396
  512MOL0     H70647  -0.318   4.055   3.459  0.1644  3.1609  3.0186
  512MOL0     H70648  -0.518   3.839   3.521  3.4726 -0.9104  0.9720
  512MOL0     H70649  -0.581   4.006   3.524  1.4627 -0.5801  0.5965
  512MOL0     H70650  -0.638   3.891   3.306 -0.8250  0.1173  1.2823
  512MOL0     H70651  -0.469   3.829   3.302  0.3034 -0.2582  0.5743
  512MOL0     H70652  -0.366   4.175   3.110 -1.5617  2.5746 -0.0337
  512MOL0     H70653   0.026   3.989   3.766 -1.4464  0.4765 -1.7806
  512MOL0     H70654   0.205   3.812   3.975 -2.2846 -1.6565  0.5959
  512MOL0     H70655   0.243   3.711   3.825 -1.9588 -2.2215  0.2997
  512MOL0     H70656   0.219   3.883   3.813 -0.4601  0.6483  1.1233
  513MOL0     O70657   0.406   3.484  10.963  0.2536  0.2291 -0.2461
  513MOL0     C70658   0.300   3.523  11.012  0.2627  0.2283 -0.6310
  513MOL0     O70659   0.171   3.500  10.971 -0.1571  0.5449  0.2562
  513MOL0     C70660   0.140   3.473  10.834 -1.0231  0.2832 -1.3021
  513MOL0     C70661   0.017   3.407  10.815  0.2012 -0.5060 -0.0047
  513MOL0     C70662  -0.029   3.384  10.684 -0.8544  0.4480  0.2808
  513MOL0     C70663   0.045   3.417  10.571 -0.4986 -0.5931  0.2397
  513MOL0     O70664   0.007   3.396  10.443  0.5543 -0.0658 -0.0283
  513MOL0     C70665   0.010   3.264  10.407 -0.5433 -0.0775  0.4520
  513MOL0     C70666  -0.063   3.237  10.274 -0.6158 -0.0104  0.3543
  513MOL0     C70667  -0.055   3.098  10.208  0.2015 -0.2667  0.5776
  513MOL0     C70668  -0.118   3.080  10.070  0.5265 -0.5998 -0.0181
  513MOL0     C70669  -0.061   2.951   9.993  1.4698 -0.5637  0.3358
  513MOL0     C70670  -0.136   2.827  10.060 -1.6227  0.6027  0.4652
  513MOL0     C70671  -0.112   2.705   9.968  0.6473  0.1670  0.1775
  513MOL0     C70672  -0.175   2.577  10.032 -0.9304 -0.7356  1.3688
  513MOL0     N70673  -0.109   2.520  10.143 -0.8790 -0.5147 -0.8112
  513MOL0     C70674  -0.103   2.390  10.193 -1.0719 -1.3988  0.4278
  513MOL0     C70675  -0.039   2.392  10.318  0.4349 -0.3976  0.7025
  513MOL0     C70676  -0.001   2.270  10.403  0.5835  0.4998  0.3842
  513MOL0     C70677   0.070   2.150  10.332 -0.2416  0.4450  0.7941
  513MOL0     C70678   0.214   2.185  10.286  0.6370  1.8556  0.9894
  513MOL0     C70679   0.318   2.202  10.392  1.0813 -0.3363  0.2372
  513MOL0     O70680   0.442   2.239  10.334 -0.1216  0.7084 -0.6546
  513MOL0     C70681   0.507   2.146  10.254 -0.0818  1.2534 -0.6421
  513MOL0     C70682   0.623   2.194  10.181  2.2888  0.2827  0.1657
  513MOL0     C70683   0.696   2.102  10.103  0.6614 -0.3249  0.0617
  513MOL0     C70684   0.827   2.149  10.027 -0.1921  0.4071 -0.1343
  513MOL0     C70685   0.660   1.968  10.095  0.3952 -0.3028 -0.0131
  513MOL0     C70686   0.728   1.864  10.011  0.3349  0.5365 -0.5647
  513MOL0     O70687   0.661   1.815   9.903 -0.3989  0.0627 -0.1851
  513MOL0     C70688   0.725   1.779   9.788  0.1737  0.3594 -0.1413
  513MOL0     C70689   0.846   1.824   9.735 -1.1529  0.1383  0.2152
  513MOL0     C70690   0.902   1.778   9.614  0.0512  0.0631  0.5395
  513MOL0     C70691   0.827   1.695   9.536 -0.5272  0.4476  0.5872
  513MOL0     O70692   0.881   1.659   9.420 -0.1193 -0.4789 -0.6091
  513MOL0     C70693   0.971   1.554   9.426 -0.3094  0.0146 -1.0141
  513MOL0     C70694   1.012   1.519   9.288  0.4910 -0.1043  0.5544
  513MOL0     C70695   0.886   1.498   9.196  0.3602  0.7709  0.3000
  513MOL0     C70696   0.899   1.611   9.088  1.4351  0.2889  0.8637
  513MOL0     C70697   0.768   1.615   9.002  0.5287  1.3031 -0.9285
  513MOL0     C70698   0.773   1.704   8.880 -0.5045  0.3912 -0.8145
  513MOL0     C70699   0.798   1.856   8.908  0.0873  0.1614  0.6339
  513MOL0     C70700   0.800   1.944   8.780 -0.6718 -0.8342  0.2818
  513MOL0    Cl70701   0.656   1.917   8.673  0.1367 -0.2987  0.1227
  513MOL0     C70702   0.701   1.654   9.568  0.0008  1.4734 -0.7961
  513MOL0     C70703   0.655   1.690   9.704 -0.2057  0.6771  1.4648
  513MOL0     O70704   0.843   1.830  10.045 -0.8837  0.2015 -0.6954
  513MOL0     C70705   0.545   1.925  10.159 -0.1980 -1.6475  0.1340
  513MOL0     C70706   0.474   2.010  10.244 -0.5379  0.2475  0.4722
  513MOL0     N70707  -0.014   2.524  10.339 -0.1147 -0.1075  0.5822
  513MOL0     N70708  -0.051   2.596  10.248 -0.5940 -0.0461 -0.0123
  513MOL0     C70709   0.158   3.492  10.594  0.2560 -0.5895 -0.1327
  513MOL0     C70710   0.215   3.522  10.724 -0.2469  0.6224  0.0482
  513MOL0     C70711   0.323   3.615  11.129  0.6035  0.1798 -0.0096
  513MOL0     C70712   0.228   3.619  11.228 -0.4817  0.6055  0.2926
  513MOL0     C70713   0.241   3.698  11.339 -0.4547  1.1825  0.6364
  513MOL0     C70714   0.347   3.791  11.352 -0.3067 -0.2069 -0.6846
  513MOL0     O70715   0.363   3.868  11.459  0.7303 -0.3538 -0.0517
  513MOL0     C70716   0.469   3.846  11.552 -0.1455  0.0751  0.0998
  513MOL0     C70717   0.501   3.964  11.642 -0.2842 -0.5606 -0.5693
  513MOL0     C70718   0.571   3.939  11.780  0.3399 -0.2039  0.6674
  513MOL0     C70719   0.618   4.083  11.832 -0.4266  0.2112  0.0681
  513MOL0     C70720   0.645   4.082  11.971  0.3281  0.5565 -0.1678
  513MOL0     C70721   0.664   4.096  12.091  0.0901 -0.1138  0.3693
  513MOL0     C70722   0.448   3.778  11.255  0.4446  0.5484  0.4131
  513MOL0     C70723   0.436   3.702  11.138  0.3830 -0.1101  0.5524
  513MOL0     C70724   0.555   3.704  11.050  0.5035 -0.1154  1.2169
  513MOL0     H70725  -0.047   3.379  10.898 -0.8431 -0.4354 -0.7786
  513MOL0     H70726  -0.128   3.339  10.678 -0.4138 -0.6358  0.8820
  513MOL0     H70727  -0.021   3.193  10.484 -1.2131  1.3754  1.5938
  513MOL0     H70728   0.115   3.239  10.395 -0.6293  0.0506 -0.6955
  513MOL0     H70729  -0.170   3.255  10.292 -0.8727 -2.5830  1.8550
  513MOL0     H70730  -0.020   3.314  10.208 -0.0125  0.4559  1.2703
  513MOL0     H70731   0.052   3.088  10.188  0.1705  2.0414 -1.1043
  513MOL0     H70732  -0.077   3.012  10.272  0.6523 -0.2911  0.7071
  513MOL0     H70733  -0.226   3.078  10.081  0.0667 -3.4031 -3.2489
  513MOL0     H70734  -0.094   3.169  10.011 -0.9326 -0.2237 -0.0672
  513MOL0     H70735   0.048   2.940  10.004  1.2776 -2.1001  0.9202
  513MOL0     H70736  -0.088   2.966   9.888  2.0649 -2.0335 -0.0503
  513MOL0     H70737  -0.109   2.800  10.162  0.1052 -2.5479 -0.6930
  513MOL0     H70738  -0.245   2.838  10.069 -1.4749  1.0771  2.0380
  513MOL0     H70739  -0.007   2.678   9.983  0.3327 -0.6739  0.9827
  513MOL0     H70740  -0.133   2.725   9.862 -1.8119 -0.5173  0.4635
  513MOL0     H70741  -0.274   2.606  10.070 -0.8927  0.9515  0.2851
  513MOL0     H70742  -0.185   2.495   9.961 -0.4661 -1.3315  1.9802
  513MOL0     H70743  -0.129   2.289  10.162 -0.0162 -2.3012  2.3027
  513MOL0     H70744  -0.095   2.229  10.443 -0.9494  1.2524 -2.2064
  513MOL0     H70745   0.055   2.317  10.484 -0.0630  1.4768  0.2830
  513MOL0     H70746   0.057   2.068  10.404 -0.1463  2.8527  3.7791
  513MOL0     H70747   0.015   2.122  10.242  1.2309 -0.8268  0.2565
  513MOL0     H70748   0.233   2.108  10.211 -2.7680  1.4280  0.4113
  513MOL0     H70749   0.199   2.270  10.220 -1.5745 -0.0053 -1.0688
  513MOL0     H70750   0.284   2.297  10.435 -2.2071 -1.4329  0.3297
  513MOL0     H70751   0.322   2.123  10.467  2.3560  0.3738  0.9550
  513MOL0     H70752   0.644   2.301  10.179  1.4444  0.4456 -0.6811
  513MOL0     H70753   0.805   2.254  10.004  2.7790  1.1726  0.0593
  513MOL0     H70754   0.844   2.104   9.929 -2.3328  2.7783 -1.7292
  513MOL0     H70755   0.907   2.151  10.102 -0.7939  0.4919  0.5241
  513MOL0     H70756   0.920   1.880   9.790  0.2917  0.3721 -1.8453
  513MOL0     H70757   0.995   1.816   9.573  0.9909 -2.8300 -0.2083
  513MOL0     H70758   1.064   1.579   9.478 -1.6304 -1.9202  2.6312
  513MOL0     H70759   0.925   1.469   9.476 -0.4146  1.6434  1.8628
  513MOL0     H70760   1.081   1.582   9.231 -0.8837 -0.5132 -1.6689
  513MOL0     H70761   1.059   1.420   9.291  0.5376 -0.1508 -0.9303
  513MOL0     H70762   0.804   1.515   9.267  2.0772  3.5571  1.8120
  513MOL0     H70763   0.892   1.402   9.144 -3.0392  1.3802 -1.5023
  513MOL0     H70764   0.982   1.583   9.023  0.5958 -0.3222  0.0268
  513MOL0     H70765   0.924   1.707   9.135 -0.7233  0.5159  1.6419
  513MOL0     H70766   0.747   1.512   8.973  3.5633  0.4436 -0.4147
  513MOL0     H70767   0.686   1.638   9.071  3.3982  1.9833  2.4897
  513MOL0     H70768   0.672   1.697   8.837  0.4040 -2.8938 -2.8648
  513MOL0     H70769   0.837   1.661   8.802 -0.8891 -3.5107  0.7978
  513MOL0     H70770   0.880   1.868   8.979 -1.1016  0.9129  1.9385
  513MOL0     H70771   0.711   1.898   8.960  1.3646  3.0132  0.6126
  513MOL0     H70772   0.889   1.916   8.722  1.4046  0.9929  2.4044
  513MOL0     H70773   0.799   2.051   8.801  2.9948 -0.7856  0.8893
  513MOL0     H70774   0.650   1.587   9.500  2.0020 -2.0337  0.8906
  513MOL0     H70775   0.552   1.661   9.722 -0.6073  1.9960  1.3949
  513MOL0     H70776   0.507   1.824  10.147 -0.0955 -1.5290 -1.3424
  513MOL0     H70777   0.395   1.951  10.290 -0.5175  0.5555  0.9087
  513MOL0     H70778   0.210   3.531  10.507  0.7733  2.0705  1.2688
  513MOL0     H70779   0.302   3.585  10.741  2.0500 -2.0131 -1.0255
  513MOL0     H70780   0.135   3.563  11.224 -0.3541  0.3718  0.5510
  513MOL0     H70781   0.162   3.693  11.413 -1.7485 -4.0850 -0.6621
  513MOL0     H70782   0.438   3.769  11.624  1.5553 -0.5549  0.1966
  513MOL0     H70783   0.555   3.809  11.496 -1.2669  1.6084 -2.8583
  513MOL0     H70784   0.396   3.992  11.654 -0.3611 -0.5742 -1.2193
  513MOL0     H70785   0.556   4.047  11.596 -2.8983  1.7661  0.1790
  513MOL0     H70786   0.495   3.879  11.830 -1.9250  0.7074 -1.4347
  513MOL0     H70787   0.662   3.881  11.765  0.4694  0.4859 -1.5903
  513MOL0     H70788   0.538   4.157  11.830 -2.0760 -1.4823  0.7143
  513MOL0     H70789   0.699   4.122  11.770 -0.4865 -1.5251 -1.1523
  513MOL0     H70790   0.673   4.102  12.197  1.2828  0.4710  0.2525
  513MOL0     H70791   0.527   3.853  11.258  1.8414 -0.8522 -0.2034
  513MOL0     H70792   0.627   3.633  11.090  0.5598 -0.0792  1.1776
  513MOL0     H70793   0.538   3.664  10.949  1.9766 -3.9581  2.3367
  513MOL0     H70794   0.605   3.801  11.063 -0.3719  0.7370 -1.1658
  514MOL0     O70795   8.147   3.746   4.425 -0.4740 -0.2233 -0.2621
  514MOL0     C70796   8.057   3.819   4.401 -0.3814 -0.0333  0.3916
  514MOL0     O70797   8.065   3.956   4.378 -0.8156  0.8158 -0.1682
  514MOL0     C70798   8.178   4.041   4.378  0.5561  0.9782 -0.1161
  514MOL0     C70799   8.145   4.169   4.345 -0.6220 -1.4107 -0.4201
  514MOL0     C70800   8.252   4.258   4.324  0.9522 -0.6625 -0.3671
  514MOL0     C70801   8.382   4.218   4.335  0.3032 -0.2036 -0.4270
  514MOL0     O70802   8.482   4.313   4.305 -0.1409 -0.3139  1.0609
  514MOL0     C70803   8.596   4.314   4.397 -0.3557  0.4705  0.0008
  514MOL0     C70804   8.558   4.329   4.546 -0.7840  0.0059  0.2483
  514MOL0     C70805   8.665   4.400   4.639 -0.1012 -0.5212 -0.3255
  514MOL0     C70806   8.621   4.418   4.779  0.9902 -0.6486  0.3139
  514MOL0     C70807   8.732   4.498   4.862 -0.3991  0.5235 -0.2529
  514MOL0     C70808   8.711   4.652   4.842 -0.3329  0.7083  0.3275
  514MOL0     C70809   8.815   4.734   4.921  0.6911 -0.0434 -0.3049
  514MOL0     C70810   8.833   4.882   4.888 -0.9214 -0.7628 -1.0415
  514MOL0     N70811   8.940   4.935   4.974 -0.2829  0.5572  0.7810
  514MOL0     C70812   8.932   4.983   5.099  0.5897 -0.7765  1.0498
  514MOL0     C70813   9.059   5.012   5.134 -0.0862  0.0964 -0.2015
  514MOL0     C70814   9.127   5.032   5.266 -0.4517  0.5859 -0.4397
  514MOL0     C70815   9.151   5.181   5.299 -0.0881 -0.3642 -0.1692
  514MOL0     C70816   9.235   5.224   5.425 -1.2434  0.1929  0.6733
  514MOL0     C70817   9.267   5.381   5.408  1.2332 -0.1410 -0.1342
  514MOL0     O70818   9.143   5.451   5.439  0.2310  0.3427 -0.3745
  514MOL0     C70819   9.137   5.590   5.429 -0.1585 -0.0766  0.6131
  514MOL0     C70820   9.236   5.672   5.390  0.7103 -0.7109  0.5014
  514MOL0     C70821   9.211   5.805   5.391 -0.0134 -0.1196  0.7290
  514MOL0     C70822   9.320   5.897   5.340  0.1873 -0.2346  1.2309
  514MOL0     C70823   9.088   5.862   5.431  0.1146  0.2052  0.1923
  514MOL0     C70824   9.061   6.013   5.435 -0.1466 -0.6843  0.6781
  514MOL0     O70825   9.084   6.084   5.553  0.1942 -0.4857  0.9101
  514MOL0     C70826   9.038   6.206   5.572  0.7057 -0.1411  0.4422
  514MOL0     C70827   9.123   6.307   5.615 -1.1706  0.4775 -0.1003
  514MOL0     C70828   9.078   6.434   5.640  0.7619  0.3233  1.0035
  514MOL0     C70829   8.947   6.461   5.601  0.1711 -0.9049  0.7853
  514MOL0     O70830   8.883   6.586   5.616 -0.6519  0.4362  0.2481
  514MOL0     C70831   8.974   6.686   5.669 -0.3166 -0.3620 -0.6175
  514MOL0     C70832   8.891   6.817   5.683 -0.2648 -0.9671 -0.5886
  514MOL0     C70833   8.975   6.923   5.746 -0.5354 -1.2627 -0.6543
  514MOL0     C70834   8.908   7.061   5.745 -0.4938 -0.1239  0.0928
  514MOL0     C70835   8.922   7.134   5.607 -0.6049 -0.5663  0.6765
  514MOL0     C70836   9.064   7.193   5.589 -0.5543  0.1325  0.2978
  514MOL0     C70837   9.096   7.268   5.465 -0.6533 -0.3258  0.4996
  514MOL0     C70838   9.102   7.167   5.350 -0.0044  0.3714 -0.6100
  514MOL0    Cl70839   9.173   7.222   5.203  0.5789  0.0722 -0.1886
  514MOL0     C70840   8.866   6.361   5.550  0.0009 -0.6440  0.0320
  514MOL0     C70841   8.902   6.231   5.539  0.0267 -0.0217  0.2515
  514MOL0     O70842   9.014   6.066   5.337 -0.4325 -0.2308  0.2475
  514MOL0     C70843   8.982   5.782   5.467 -0.0749 -0.1613  0.5770
  514MOL0     C70844   9.013   5.642   5.462 -0.1903  0.7019  0.3427
  514MOL0     N70845   9.134   4.998   5.023  0.8570 -0.2612  0.5211
  514MOL0     N70846   9.064   4.947   4.933 -0.7780  0.2106  0.7940
  514MOL0     C70847   8.405   4.084   4.371 -0.0807  0.1483  0.5620
  514MOL0     C70848   8.308   3.996   4.386  1.0101 -0.6326  0.1385
  514MOL0     C70849   7.919   3.766   4.426  0.0903  0.2931 -0.7993
  514MOL0     C70850   7.818   3.868   4.425  0.2157 -0.5583  0.1261
  514MOL0     C70851   7.681   3.828   4.407 -0.1955  0.9620 -0.5055
  514MOL0     C70852   7.652   3.691   4.403 -0.3761  0.2400  1.0639
  514MOL0     O70853   7.527   3.666   4.385  0.1919 -0.5428  0.8331
  514MOL0     C70854   7.484   3.556   4.459  0.9222 -0.2313 -0.4892
  514MOL0     C70855   7.326   3.553   4.468 -0.8729 -0.0794 -0.2913
  514MOL0     C70856   7.251   3.668   4.541 -0.9815  0.4535 -0.1945
  514MOL0     C70857   7.213   3.627   4.690 -0.2672 -0.9692  0.4654
  514MOL0     C70858   7.142   3.745   4.750 -0.7048  0.6801 -2.0180
  514MOL0     C70859   7.085   3.840   4.799  0.1596  0.3905  0.1286
  514MOL0     C70860   7.752   3.595   4.426  0.1506  0.2423  0.6282
  514MOL0     C70861   7.882   3.630   4.449  0.2170  0.0728 -0.2143
  514MOL0     C70862   7.975   3.514   4.483  0.7902 -0.1815  0.2299
  514MOL0     H70863   8.042   4.202   4.332 -0.8217 -1.2888  1.2672
  514MOL0     H70864   8.247   4.366   4.309  2.3648 -0.2655  1.6441
  514MOL0     H70865   8.660   4.399   4.371  0.0154  0.4588  0.8594
  514MOL0     H70866   8.650   4.218   4.395 -2.1856 -0.6165 -1.4954
  514MOL0     H70867   8.472   4.397   4.544 -0.1756  0.7850 -0.8548
  514MOL0     H70868   8.514   4.239   4.588 -0.4316 -0.5810 -0.6068
  514MOL0     H70869   8.760   4.346   4.630  0.6034 -0.1321  3.3124
  514MOL0     H70870   8.690   4.497   4.596 -0.6133  0.9418  2.4477
  514MOL0     H70871   8.526   4.473   4.771  2.0716  1.5703  1.6968
  514MOL0     H70872   8.608   4.316   4.815 -0.3043 -2.3730 -4.2529
  514MOL0     H70873   8.836   4.476   4.837 -0.4136  1.0381 -0.7729
  514MOL0     H70874   8.729   4.465   4.966 -0.6737  2.8837  0.5493
  514MOL0     H70875   8.709   4.674   4.735 -3.8344  0.6823  0.2941
  514MOL0     H70876   8.615   4.676   4.888  0.9499 -0.0989  3.7423
  514MOL0     H70877   8.914   4.687   4.915  0.1360 -1.2944  0.1632
  514MOL0     H70878   8.789   4.710   5.025  2.1457 -1.1884 -0.1664
  514MOL0     H70879   8.858   4.886   4.782 -2.6862 -0.4748 -1.4753
  514MOL0     H70880   8.738   4.934   4.905  0.8517  2.4655  0.1140
  514MOL0     H70881   8.845   4.971   5.162  1.3311 -0.7289  2.1181
  514MOL0     H70882   9.222   4.977   5.266 -0.2754  0.8825 -1.0485
  514MOL0     H70883   9.053   5.003   5.342 -1.3207  0.1436 -1.4287
  514MOL0     H70884   9.203   5.219   5.210  3.0072  1.2331  2.1507
  514MOL0     H70885   9.054   5.231   5.300 -0.9276 -1.8978 -0.8834
  514MOL0     H70886   9.173   5.204   5.512  0.3685 -1.3900  1.5459
  514MOL0     H70887   9.329   5.168   5.435 -0.8539  0.1217 -2.3623
  514MOL0     H70888   9.345   5.415   5.477  2.5959  1.1490 -2.1877
  514MOL0     H70889   9.299   5.415   5.309  2.0996  0.1270  0.2202
  514MOL0     H70890   9.319   5.625   5.338  0.3028 -1.1609  0.2453
  514MOL0     H70891   9.272   5.980   5.287  0.5644 -0.7322  0.0706
  514MOL0     H70892   9.387   5.847   5.269 -1.4986  1.1381 -1.4946
  514MOL0     H70893   9.377   5.943   5.421  1.5512 -1.3681  0.9557
  514MOL0     H70894   9.224   6.275   5.638 -2.7841 -3.5873  2.4051
  514MOL0     H70895   9.156   6.499   5.676 -2.8059  2.8699  5.1728
  514MOL0     H70896   9.005   6.650   5.768 -0.5598 -2.0444 -1.1260
  514MOL0     H70897   9.051   6.717   5.598 -0.1543 -0.4958 -0.4994
  514MOL0     H70898   8.862   6.856   5.585  0.1152  2.0052  0.3603
  514MOL0     H70899   8.806   6.793   5.746  1.6431 -1.7557  1.8538
  514MOL0     H70900   9.067   6.923   5.686 -0.7963  0.4673 -1.1039
  514MOL0     H70901   8.983   6.903   5.853 -3.5024  1.2368  0.1735
  514MOL0     H70902   8.953   7.128   5.819  1.6224 -1.8701  0.4981
  514MOL0     H70903   8.802   7.046   5.765 -0.7182  2.0429  0.7658
  514MOL0     H70904   8.901   7.064   5.525  0.9987 -0.6598  0.3209
  514MOL0     H70905   8.848   7.214   5.611 -0.7918 -0.7019  0.0363
  514MOL0     H70906   9.139   7.114   5.591 -0.5969  0.0447 -1.0359
  514MOL0     H70907   9.093   7.240   5.684  0.0629  0.1514  0.1029
  514MOL0     H70908   9.192   7.320   5.472 -0.4095 -0.5123 -1.0254
  514MOL0     H70909   9.022   7.348   5.461 -0.0401  0.2329  0.2667
  514MOL0     H70910   8.998   7.142   5.324  0.0481 -0.0708 -0.4171
  514MOL0     H70911   9.164   7.079   5.371 -1.1643 -0.1234  0.9728
  514MOL0     H70912   8.766   6.398   5.530  0.5148  0.2541 -0.9777
  514MOL0     H70913   8.835   6.153   5.506 -0.3731  1.8787 -4.0949
  514MOL0     H70914   8.885   5.824   5.488 -2.0868 -2.8683 -2.3954
  514MOL0     H70915   8.942   5.562   5.483 -1.7009  2.2542  1.4374
  514MOL0     H70916   8.508   4.051   4.360  0.8499  2.7227  0.9443
  514MOL0     H70917   8.340   3.892   4.391  0.4340 -1.0684 -3.0020
  514MOL0     H70918   7.828   3.976   4.428 -1.9003 -0.3220  0.2069
  514MOL0     H70919   7.593   3.888   4.386 -3.3822 -1.1390  4.9013
  514MOL0     H70920   7.518   3.463   4.414 -2.0394 -1.5271 -0.2688
  514MOL0     H70921   7.532   3.551   4.558  4.7028 -2.4107 -2.2323
  514MOL0     H70922   7.296   3.457   4.510 -1.4587  1.0732  2.0813
  514MOL0     H70923   7.295   3.552   4.363  0.6463  1.1127 -0.8051
  514MOL0     H70924   7.320   3.752   4.535 -1.5975  0.8561 -2.4773
  514MOL0     H70925   7.162   3.691   4.482 -0.2957  0.2843 -1.3052
  514MOL0     H70926   7.314   3.616   4.732  0.1712  1.1333  0.0586
  514MOL0     H70927   7.166   3.528   4.692  0.7461 -1.6115 -2.5694
  514MOL0     H70928   7.029   3.923   4.838 -0.8521 -0.6324  0.9366
  514MOL0     H70929   7.732   3.489   4.436  3.8915 -0.5448  1.3667
  514MOL0     H70930   8.068   3.538   4.534  1.0902 -0.5551 -0.1419
  514MOL0     H70931   7.921   3.450   4.554 -0.2410 -2.0612 -2.0819
  514MOL0     H70932   7.993   3.474   4.383 -1.8693 -2.0342  0.3851
  515MOL0     O70933   6.995   1.707  11.566 -1.0746  0.0379  0.3352
  515MOL0     C70934   6.928   1.694  11.663  1.4362 -1.0118  0.3691
  515MOL0     O70935   6.822   1.609  11.668 -0.1564 -0.7253 -0.6500
  515MOL0     C70936   6.787   1.543  11.554  0.2435  0.0988 -0.2729
  515MOL0     C70937   6.703   1.593  11.457 -0.4049  0.0718 -0.3197
  515MOL0     C70938   6.642   1.516  11.361  1.4149  0.5537  0.5194
  515MOL0     C70939   6.666   1.381  11.350 -0.2900  0.3967 -0.0729
  515MOL0     O70940   6.591   1.291  11.275  0.2783  0.3128  0.4736
  515MOL0     C70941   6.579   1.331  11.139 -0.3998 -0.2967 -0.1415
  515MOL0     C70942   6.438   1.295  11.096  0.5767  0.3979  0.6077
  515MOL0     C70943   6.414   1.143  11.092 -0.0711  0.7195 -0.1997
  515MOL0     C70944   6.277   1.111  11.048  0.8336 -1.5754 -0.5641
  515MOL0     C70945   6.251   0.961  11.053 -0.1043 -0.7096 -0.7944
  515MOL0     C70946   6.133   0.924  10.960 -0.5618  0.2781 -1.1129
  515MOL0     C70947   5.995   0.959  11.020 -0.2600 -1.1277 -1.0617
  515MOL0     C70948   5.905   1.044  10.924 -0.1892  0.0788  0.7077
  515MOL0     N70949   5.955   1.183  10.932  0.2519 -0.0144 -0.2979
  515MOL0     C70950   5.943   1.270  11.043 -0.1885  0.9510 -1.3758
  515MOL0     C70951   6.010   1.380  11.012  0.4766 -0.4017 -0.8262
  515MOL0     C70952   6.004   1.508  11.086 -0.4157 -0.0735 -0.2773
  515MOL0     C70953   6.070   1.478  11.228  0.6346  0.6291 -0.0284
  515MOL0     C70954   6.064   1.605  11.315 -0.2233 -0.9573 -0.1801
  515MOL0     C70955   5.914   1.631  11.360 -0.4077  0.2642  0.9373
  515MOL0     O70956   5.827   1.520  11.393 -0.3543  0.8104 -0.4209
  515MOL0     C70957   5.723   1.521  11.490  1.2503 -0.4349 -0.3120
  515MOL0     C70958   5.637   1.416  11.497  0.1681 -0.8123 -0.4073
  515MOL0     C70959   5.534   1.409  11.586 -0.2149  0.1835  0.1107
  515MOL0     C70960   5.459   1.273  11.598 -0.8643 -0.0532  0.9327
  515MOL0     C70961   5.484   1.531  11.647  1.0428  0.0153 -0.1020
  515MOL0     C70962   5.358   1.546  11.724 -0.3745  0.2901  1.5070
  515MOL0     O70963   5.326   1.675  11.774  0.1708  0.1503  0.3160
  515MOL0     C70964   5.217   1.678  11.858  0.2655 -0.7619  0.4289
  515MOL0     C70965   5.086   1.705  11.811 -0.2343  0.1560  0.0139
  515MOL0     C70966   4.979   1.701  11.897  0.5332 -0.4938  0.1581
  515MOL0     C70967   4.998   1.674  12.036 -0.3370  0.6861  0.7674
  515MOL0     O70968   4.905   1.664  12.136  0.2673 -0.2590 -0.1000
  515MOL0     C70969   4.782   1.605  12.100  0.2258  0.1689 -0.0257
  515MOL0     C70970   4.716   1.525  12.213  0.2779 -0.4146  0.4705
  515MOL0     C70971   4.578   1.485  12.174  0.7045  0.1709  0.2184
  515MOL0     C70972   4.571   1.401  12.043 -0.1188  0.6341 -0.3062
  515MOL0     C70973   4.444   1.319  12.047 -0.2088 -0.1766 -0.1279
  515MOL0     C70974   4.416   1.236  11.916  0.1325 -0.3992  0.7898
  515MOL0     C70975   4.515   1.129  11.893  0.1281  0.0750 -0.0906
  515MOL0     C70976   4.476   1.031  11.778 -0.1391 -0.4255  0.6244
  515MOL0    Cl70977   4.456   1.098  11.613 -0.2753  0.0982 -0.3769
  515MOL0     C70978   5.127   1.648  12.082  0.1580  0.2479  0.3296
  515MOL0     C70979   5.233   1.642  11.993  0.2244  0.4276  0.5535
  515MOL0     O70980   5.275   1.458  11.713 -0.6193 -0.0433 -0.0665
  515MOL0     C70981   5.569   1.637  11.631 -0.6446 -0.8617 -0.2794
  515MOL0     C70982   5.687   1.635  11.558  0.1824  0.5178 -0.1897
  515MOL0     N70983   6.060   1.370  10.883 -0.6471  0.6140 -0.4685
  515MOL0     N70984   6.026   1.249  10.833 -0.7637  0.1542  0.3068
  515MOL0     C70985   6.756   1.326  11.438 -0.0683 -0.0684 -0.4330
  515MOL0     C70986   6.824   1.403  11.533 -0.3496  0.4741 -0.5892
  515MOL0     C70987   6.947   1.791  11.781 -0.2664  0.1873  0.0936
  515MOL0     C70988   7.046   1.897  11.768 -0.5073  0.5103  0.7530
  515MOL0     C70989   7.063   1.996  11.858 -0.3192  0.0200  0.4230
  515MOL0     C70990   7.000   1.991  11.977 -0.1211  1.0610 -0.1870
  515MOL0     O70991   7.034   2.089  12.070 -0.2977  0.8437  0.2392
  515MOL0     C70992   6.935   2.119  12.157  0.0599 -0.2481  0.3498
  515MOL0     C70993   6.957   2.257  12.219  0.1388 -0.1049 -0.0378
  515MOL0     C70994   7.105   2.278  12.274  1.3983 -0.9556 -0.5266
  515MOL0     C70995   7.097   2.375  12.398  0.2420 -0.3343  0.5549
  515MOL0     C70996   7.200   2.358  12.499 -0.3258 -0.3772  0.0054
  515MOL0     C70997   7.295   2.347  12.572 -1.0982 -0.8959 -1.5082
  515MOL0     C70998   6.913   1.881  12.006 -0.2121 -0.1004 -0.4501
  515MOL0     C70999   6.891   1.777  11.910 -0.1946 -0.2998 -0.2719
  515MOL0     C71000   6.813   1.653  11.949  0.1693  0.1917 -0.4176
  515MOL0     H71001   6.667   1.695  11.460  1.5828  0.8024  2.1742
  515MOL0     H71002   6.567   1.571  11.305  1.3483 -0.6007 -0.5717
  515MOL0     H71003   6.652   1.284  11.072 -2.9232 -3.3243 -1.0363
  515MOL0     H71004   6.578   1.440  11.135 -1.1332 -0.1867  1.9178
  515MOL0     H71005   6.372   1.330  11.176 -0.1783 -1.4133  0.8330
  515MOL0     H71006   6.397   1.344  11.006 -0.2190 -0.2547  0.6008
  515MOL0     H71007   6.484   1.101  11.020 -0.1592  1.4208 -0.6990
  515MOL0     H71008   6.417   1.097  11.192 -1.9218 -0.3201 -0.5666
  515MOL0     H71009   6.207   1.162  11.114  0.1887 -1.1831 -1.5216
  515MOL0     H71010   6.253   1.144  10.946 -0.9901  3.7318  1.2309
  515MOL0     H71011   6.230   0.937  11.157 -0.1125  1.2470 -0.3226
  515MOL0     H71012   6.341   0.905  11.027  1.6642  2.1115 -1.1242
  515MOL0     H71013   6.141   0.967  10.859 -1.8932  2.4374 -0.3588
  515MOL0     H71014   6.138   0.815  10.956 -3.1636 -0.0006  0.7004
  515MOL0     H71015   6.016   1.008  11.116  2.4836 -2.4966 -0.8461
  515MOL0     H71016   5.942   0.866  11.041  2.0300 -1.8525  2.4124
  515MOL0     H71017   5.894   0.992  10.829  2.5924 -2.2806  1.5381
  515MOL0     H71018   5.803   1.056  10.963 -0.8636  0.4256 -1.0938
  515MOL0     H71019   5.896   1.250  11.139  1.3190 -0.0402 -0.8113
  515MOL0     H71020   5.905   1.554  11.084 -1.1866 -1.6208 -3.3288
  515MOL0     H71021   6.066   1.581  11.034 -1.7324  1.6153  0.4327
  515MOL0     H71022   6.015   1.391  11.267  0.0115  0.9064 -0.2866
  515MOL0     H71023   6.177   1.453  11.233  0.7215  1.0665  0.4097
  515MOL0     H71024   6.124   1.589  11.405 -1.0558 -2.2083  0.1862
  515MOL0     H71025   6.106   1.691  11.263 -1.7913  1.0108  1.5895
  515MOL0     H71026   5.901   1.707  11.438 -1.8335  1.3311 -0.2551
  515MOL0     H71027   5.866   1.676  11.272 -0.6314 -1.8215 -0.0524
  515MOL0     H71028   5.669   1.338  11.429  4.6036  0.2113  0.1940
  515MOL0     H71029   5.377   1.257  11.527  0.2700 -0.2064 -0.3810
  515MOL0     H71030   5.430   1.251  11.701  1.9298  0.3389  1.8975
  515MOL0     H71031   5.535   1.197  11.580  0.3148  1.5130 -1.1217
  515MOL0     H71032   5.059   1.743  11.713  0.3725 -3.9433 -1.9605
  515MOL0     H71033   4.876   1.723  11.871  0.6720  0.2052  0.1981
  515MOL0     H71034   4.717   1.693  12.090  0.2836  0.6379  2.7469
  515MOL0     H71035   4.794   1.539  12.014  1.7227  1.8298 -1.1383
  515MOL0     H71036   4.788   1.444  12.229  0.4076 -0.2790  0.5751
  515MOL0     H71037   4.728   1.584  12.305  0.8010  1.2235 -0.6110
  515MOL0     H71038   4.517   1.574  12.154  0.8929  0.1015 -0.6833
  515MOL0     H71039   4.546   1.424  12.259 -1.7276  0.9974 -0.0178
  515MOL0     H71040   4.655   1.331  12.043 -1.0902 -0.6256  1.3515
  515MOL0     H71041   4.572   1.473  11.961 -3.1575 -1.0582 -2.0148
  515MOL0     H71042   4.451   1.251  12.132  0.9051  0.7878  0.5709
  515MOL0     H71043   4.358   1.385  12.062 -0.4763  0.0276 -2.2359
  515MOL0     H71044   4.420   1.298  11.827 -1.3625  1.5116  1.9745
  515MOL0     H71045   4.320   1.183  11.920  0.3880 -1.0542 -0.9841
  515MOL0     H71046   4.529   1.077  11.988  0.9988  0.8030  0.1927
  515MOL0     H71047   4.616   1.164  11.866  1.0885 -2.4391 -0.0477
  515MOL0     H71048   4.383   0.979  11.801  0.7096 -3.2812 -1.7962
  515MOL0     H71049   4.554   0.957  11.762 -0.0828 -0.3307  0.4542
  515MOL0     H71050   5.133   1.603  12.180 -4.9265 -1.0642  0.2792
  515MOL0     H71051   5.337   1.615  12.012 -0.4983 -2.5762  0.7127
  515MOL0     H71052   5.555   1.733  11.680  0.1455 -0.5046 -0.7297
  515MOL0     H71053   5.726   1.736  11.551 -2.3732  1.8400  2.3449
  515MOL0     H71054   6.779   1.220  11.425  0.1783  0.1810 -2.3342
  515MOL0     H71055   6.877   1.337  11.601  0.7136 -0.1593 -1.9848
  515MOL0     H71056   7.098   1.899  11.673 -0.6407 -0.5253  0.6446
  515MOL0     H71057   7.135   2.077  11.853  0.3462 -0.5211  1.0423
  515MOL0     H71058   6.838   2.124  12.106  0.7916  3.3826 -1.0176
  515MOL0     H71059   6.925   2.056  12.246  0.9684 -0.8632  0.0243
  515MOL0     H71060   6.887   2.271  12.302 -2.7407 -3.3181 -1.6275
  515MOL0     H71061   6.935   2.327  12.138  1.4699 -1.7010 -1.8577
  515MOL0     H71062   7.136   2.188  12.329 -2.7665 -0.8257  2.5077
  515MOL0     H71063   7.164   2.307  12.186 -2.2309  0.2799 -2.7713
  515MOL0     H71064   6.996   2.364  12.439 -1.0682 -0.8041 -2.4906
  515MOL0     H71065   7.098   2.480  12.366  1.2653 -0.7886 -1.0126
  515MOL0     H71066   7.377   2.326  12.638 -1.1600 -0.2098 -1.2043
  515MOL0     H71067   6.865   1.857  12.100  0.0566 -0.3970 -0.3864
  515MOL0     H71068   6.826   1.637  12.056  2.4017 -0.8573 -0.7764
  515MOL0     H71069   6.710   1.651  11.913  0.4568 -2.4691 -1.2763
  515MOL0     H71070   6.852   1.565  11.897  0.1456  0.7521 -1.4081
  516MOL0     O71071  10.182   2.610   9.541 -0.3050  0.0201 -0.2587
  516MOL0     C71072  10.073   2.589   9.486 -0.4227  0.5820 -0.9659
  516MOL0     O71073   9.984   2.492   9.520 -0.4393  0.5284  0.0304
  516MOL0     C71074  10.002   2.397   9.618 -0.4269 -0.9410 -0.1946
  516MOL0     C71075  10.067   2.415   9.739 -0.4798  0.7677 -0.1040
  516MOL0     C71076  10.070   2.300   9.833 -0.6911 -0.0063  0.3711
  516MOL0     C71077  10.006   2.181   9.800  0.8091 -0.2083  0.2760
  516MOL0     O71078  10.011   2.087   9.899  0.1759  0.4545 -0.0054
  516MOL0     C71079   9.911   1.986   9.903 -0.7755  0.2479  0.0019
  516MOL0     C71080   9.894   1.915  10.036 -0.8731 -0.0410 -0.0821
  516MOL0     C71081  10.026   1.862  10.089  0.8495 -0.1835  0.5531
  516MOL0     C71082  10.091   1.977  10.178 -0.6123 -0.0415 -0.1900
  516MOL0     C71083  10.162   1.902  10.291 -0.7098 -0.6244 -0.0803
  516MOL0     C71084  10.288   1.829  10.233 -0.2658 -0.3964 -1.0662
  516MOL0     C71085  10.334   1.728  10.341 -0.7668  0.4366 -0.0322
  516MOL0     C71086  10.465   1.652  10.314 -0.9014  0.2853 -0.3614
  516MOL0     N71087  10.487   1.570  10.433 -0.4352 -0.8641 -1.0147
  516MOL0     C71088  10.401   1.479  10.491 -1.4558 -0.7314  0.2928
  516MOL0     C71089  10.471   1.439  10.601 -0.6156 -0.5054  0.1242
  516MOL0     C71090  10.417   1.331  10.690  0.7851 -0.0860 -0.2939
  516MOL0     C71091  10.515   1.232  10.724 -0.3044 -0.3435 -0.2531
  516MOL0     C71092  10.463   1.099  10.763  0.4829 -0.5051  0.0419
  516MOL0     C71093  10.568   1.023  10.831 -1.1119 -0.8373  0.4323
  516MOL0     O71094  10.568   1.060  10.966  0.9619  0.6663  0.1145
  516MOL0     C71095  10.675   1.017  11.046 -1.2959 -0.9276  0.4835
  516MOL0     C71096  10.792   0.954  11.006  0.5938  0.9172  0.5241
  516MOL0     C71097  10.898   0.922  11.100  1.0019 -0.1278  0.1417
  516MOL0     C71098  10.998   0.828  11.037 -0.3940 -0.0270 -0.7022
  516MOL0     C71099  10.891   0.973  11.230 -0.3329 -0.8289 -0.1995
  516MOL0     C71100  10.994   0.951  11.339  0.5627 -0.3801 -0.3437
  516MOL0     O71101  10.962   0.998  11.460 -0.2152 -0.1213 -0.4353
  516MOL0     C71102  11.032   0.948  11.573 -0.2458 -0.2652  0.2320
  516MOL0     C71103  11.162   0.990  11.593  0.6372  0.8922  0.3346
  516MOL0     C71104  11.238   0.960  11.707 -0.6699 -0.2098  0.5780
  516MOL0     C71105  11.170   0.882  11.806 -0.6189 -0.6390  1.1068
  516MOL0     O71106  11.245   0.860  11.917  0.1982  0.0397 -0.4759
  516MOL0     C71107  11.230   0.725  11.974  0.6473 -0.9319 -0.0451
  516MOL0     C71108  11.224   0.602  11.882 -0.1029  0.1848 -0.0751
  516MOL0     C71109  11.358   0.588  11.806  0.3911 -0.2119  0.2112
  516MOL0     C71110  11.345   0.478  11.703  0.4606  1.1380 -0.0592
  516MOL0     C71111  11.462   0.410  11.641 -0.5018  0.1286 -0.4921
  516MOL0     C71112  11.427   0.291  11.558 -0.0282  0.4831 -0.4177
  516MOL0     C71113  11.556   0.225  11.520 -0.7902  0.3638  0.2289
  516MOL0     C71114  11.560   0.104  11.431 -0.7554  0.4875 -0.3955
  516MOL0    Cl71115  11.466   0.141  11.277  0.1516  0.0841 -0.1143
  516MOL0     C71116  11.036   0.842  11.789  0.2621  0.7669  0.6771
  516MOL0     C71117  10.968   0.869  11.669  0.5359 -0.1508 -0.3197
  516MOL0     O71118  11.090   0.873  11.308  0.2552 -0.7303  0.2891
  516MOL0     C71119  10.771   1.052  11.273  0.3362  0.4981 -0.0654
  516MOL0     C71120  10.667   1.070  11.179 -0.4006  0.0895 -1.0419
  516MOL0     N71121  10.577   1.527  10.629 -0.1156 -0.0681 -0.4112
  516MOL0     N71122  10.594   1.593  10.519 -0.5551  0.2883  0.2574
  516MOL0     C71123   9.940   2.165   9.673  0.1444  0.2147 -0.1289
  516MOL0     C71124   9.947   2.275   9.585 -0.7838  1.0094 -0.9943
  516MOL0     C71125  10.032   2.657   9.355 -0.1494  0.2404 -1.1122
  516MOL0     C71126   9.894   2.640   9.322  0.2844  0.9000  1.3308
  516MOL0     C71127   9.849   2.674   9.191  0.1465 -0.2010 -1.1854
  516MOL0     C71128   9.937   2.739   9.102  0.2120 -0.7846 -0.5131
  516MOL0     O71129   9.884   2.774   8.983  0.1537 -0.1077 -0.7337
  516MOL0     C71130   9.960   2.722   8.881 -0.2597  0.5822  0.0609
  516MOL0     C71131   9.867   2.720   8.759  0.4765  0.2084  0.0742
  516MOL0     C71132   9.776   2.597   8.760  0.7222  0.2738  0.5803
  516MOL0     C71133   9.652   2.621   8.680  0.3737  0.0382 -0.4253
  516MOL0     C71134   9.570   2.498   8.701  0.3495  0.3457 -0.3590
  516MOL0     C71135   9.517   2.397   8.716 -0.3503 -0.0165 -1.1595
  516MOL0     C71136  10.067   2.778   9.139  0.9727 -0.1877  0.8001
  516MOL0     C71137  10.120   2.731   9.267  0.8989  0.3669 -0.7926
  516MOL0     C71138  10.265   2.752   9.296 -0.5315 -0.1714 -0.1187
  516MOL0     H71139  10.112   2.508   9.774  2.1905 -0.1383 -0.8493
  516MOL0     H71140  10.118   2.316   9.929  3.3926 -0.3774 -1.3719
  516MOL0     H71141   9.939   1.911   9.829 -3.7020  1.2412 -2.2974
  516MOL0     H71142   9.816   2.032   9.873 -0.1713  1.7807  0.3229
  516MOL0     H71143   9.857   1.986  10.109 -1.7375  0.6728 -1.1831
  516MOL0     H71144   9.826   1.830  10.026 -1.8667  0.6600  0.5898
  516MOL0     H71145  10.014   1.774  10.152 -0.4411 -0.5028 -0.1043
  516MOL0     H71146  10.087   1.829  10.004 -2.8167 -1.2543 -1.8876
  516MOL0     H71147  10.153   2.045  10.119  2.2613 -1.5576  0.8702
  516MOL0     H71148  10.012   2.037  10.226  1.1677 -1.1371  4.7921
  516MOL0     H71149  10.089   1.830  10.331  0.8735 -3.8956 -2.5323
  516MOL0     H71150  10.210   1.970  10.362  2.6766  0.7006 -3.3032
  516MOL0     H71151  10.260   1.754  10.159  0.1363  0.7331 -2.4103
  516MOL0     H71152  10.360   1.899  10.189 -0.3656  0.7616  0.5272
  516MOL0     H71153  10.261   1.648  10.333 -0.1443  0.0127 -1.9194
  516MOL0     H71154  10.324   1.774  10.440 -1.9379 -1.6023  0.8622
  516MOL0     H71155  10.461   1.593  10.221 -2.4743 -0.5399  0.1837
  516MOL0     H71156  10.549   1.720  10.305 -0.1144 -0.7933 -1.6015
  516MOL0     H71157  10.301   1.450  10.463 -1.8388  2.0857 -1.6861
  516MOL0     H71158  10.329   1.277  10.652 -1.0394  0.8946  2.2765
  516MOL0     H71159  10.371   1.377  10.778 -0.3545 -1.8232  0.0743
  516MOL0     H71160  10.579   1.215  10.637 -1.0327 -2.9933 -0.3637
  516MOL0     H71161  10.573   1.280  10.803  0.3946 -1.5750 -0.0010
  516MOL0     H71162  10.379   1.120  10.830 -1.2417 -1.9570 -1.5447
  516MOL0     H71163  10.432   1.036  10.679 -1.1841  0.9851 -0.5236
  516MOL0     H71164  10.561   0.915  10.817 -0.5730 -0.6769 -1.4133
  516MOL0     H71165  10.654   1.065  10.778 -2.9093  5.1210  1.5041
  516MOL0     H71166  10.813   0.918  10.906  1.7322 -0.0889  1.0965
  516MOL0     H71167  10.951   0.774  10.954 -1.9838  2.4644 -1.5040
  516MOL0     H71168  11.031   0.753  11.109 -0.9700 -2.4157 -2.7682
  516MOL0     H71169  11.079   0.889  10.997 -1.9420  2.4914 -0.1593
  516MOL0     H71170  11.197   1.058  11.515 -1.8943  0.9082 -0.8904
  516MOL0     H71171  11.335   1.007  11.720 -0.8606 -0.3793  3.2350
  516MOL0     H71172  11.314   0.710  12.043  0.1743  0.7041  0.9511
  516MOL0     H71173  11.135   0.734  12.028 -0.3567 -0.5808 -1.7678
  516MOL0     H71174  11.205   0.511  11.939  1.6774 -0.5278 -0.5626
  516MOL0     H71175  11.139   0.607  11.813 -0.8325 -1.9365  0.5930
  516MOL0     H71176  11.446   0.582  11.871  0.2737 -1.4081  0.2772
  516MOL0     H71177  11.370   0.677  11.744  1.5775 -0.2631  0.3362
  516MOL0     H71178  11.293   0.536  11.627 -1.6665  1.8002  1.8051
  516MOL0     H71179  11.276   0.399  11.735 -0.1595  0.8337 -1.9956
  516MOL0     H71180  11.526   0.481  11.588  2.0658 -0.5621  1.4833
  516MOL0     H71181  11.528   0.383  11.724 -1.0649 -0.6248 -0.2761
  516MOL0     H71182  11.381   0.313  11.461 -3.2685  0.0780  0.9016
  516MOL0     H71183  11.365   0.228  11.624  1.0958 -1.7061 -1.3447
  516MOL0     H71184  11.611   0.197  11.611 -2.4912 -4.5891  0.0169
  516MOL0     H71185  11.622   0.285  11.456  0.1970 -2.2661 -1.3470
  516MOL0     H71186  11.518   0.015  11.478 -2.0788 -0.8845 -3.9040
  516MOL0     H71187  11.660   0.084  11.392 -1.4628 -1.1526 -1.4324
  516MOL0     H71188  10.995   0.793  11.876 -0.2553 -0.3193 -0.1521
  516MOL0     H71189  10.865   0.840  11.650  0.6429 -1.5272  1.0019
  516MOL0     H71190  10.764   1.111  11.364  0.7966 -0.0582  0.3353
  516MOL0     H71191  10.575   1.122  11.200  0.4372  1.5728 -0.9085
  516MOL0     H71192   9.889   2.076   9.638  0.0319  0.9807 -2.0296
  516MOL0     H71193   9.883   2.286   9.497 -1.2114 -0.2896 -0.8610
  516MOL0     H71194   9.824   2.587   9.385 -1.0770 -0.5306 -1.2575
  516MOL0     H71195   9.755   2.632   9.158 -0.4909  0.2192  0.0332
  516MOL0     H71196  10.039   2.797   8.872  0.1370  0.5357  2.5407
  516MOL0     H71197  10.000   2.626   8.914 -0.7126  0.7381  1.0857
  516MOL0     H71198   9.922   2.731   8.665  0.9688 -0.3519  0.2912
  516MOL0     H71199   9.808   2.811   8.747 -2.3131 -1.4883 -0.2029
  516MOL0     H71200   9.837   2.522   8.709  2.1804  2.1451 -0.5340
  516MOL0     H71201   9.761   2.570   8.866 -1.5915  1.9469  0.7624
  516MOL0     H71202   9.676   2.647   8.576  3.1902  1.9749  0.5702
  516MOL0     H71203   9.596   2.703   8.725  0.4225 -0.4090  0.4779
  516MOL0     H71204   9.457   2.308   8.728 -2.8133  1.6094 -0.6020
  516MOL0     H71205  10.135   2.835   9.076 -0.8224  1.6478  0.4329
  516MOL0     H71206  10.309   2.661   9.338 -2.7318 -0.8542  0.8189
  516MOL0     H71207  10.320   2.768   9.203 -0.6264  0.9067 -0.0016
  516MOL0     H71208  10.288   2.845   9.350 -1.7951  0.4342 -0.5898
  517MOL0     O71209   1.210   7.786   9.700  0.1846 -0.3662 -0.0808
  517MOL0     C71210   1.216   7.868   9.607  0.5999 -0.7271 -0.5144
  517MOL0     O71211   1.208   7.835   9.477  0.1349  0.1533 -0.4100
  517MOL0     C71212   1.219   7.709   9.427 -0.0146 -0.0925 -0.6970
  517MOL0     C71213   1.179   7.593   9.485  0.6376  0.3074 -0.0195
  517MOL0     C71214   1.200   7.473   9.422  0.4091  0.1360  0.2901
  517MOL0     C71215   1.245   7.463   9.292 -0.2767 -0.8138  0.6055
  517MOL0     O71216   1.268   7.337   9.245 -0.4083  0.4452 -0.6778
  517MOL0     C71217   1.367   7.317   9.147  0.2140  0.0232 -0.1197
  517MOL0     C71218   1.399   7.164   9.143  0.4426 -0.9600  0.3222
  517MOL0     C71219   1.511   7.114   9.058 -0.5241  0.0265  0.7341
  517MOL0     C71220   1.653   7.093   9.123 -0.9522  0.8248 -0.5510
  517MOL0     C71221   1.653   7.001   9.243 -0.9950  0.1535 -1.2990
  517MOL0     C71222   1.584   6.870   9.219 -0.8512  0.7415  0.1970
  517MOL0     C71223   1.627   6.756   9.313 -0.4365  0.6825  0.2790
  517MOL0     C71224   1.729   6.659   9.248  0.6099  0.1392 -1.4293
  517MOL0     N71225   1.751   6.543   9.336  0.1796  0.4591  0.0438
  517MOL0     C71226   1.791   6.562   9.464 -0.4171 -0.6024 -0.5714
  517MOL0     C71227   1.859   6.455   9.498  0.5881  0.6486 -1.1489
  517MOL0     C71228   1.918   6.437   9.631 -0.4832  0.3707  0.3871
  517MOL0     C71229   1.827   6.430   9.748  0.2249  0.0658 -0.2607
  517MOL0     C71230   1.901   6.422   9.883  0.0384  0.7467  0.8002
  517MOL0     C71231   1.819   6.360   9.987  1.4488 -0.8570  0.1561
  517MOL0     O71232   1.802   6.222   9.966  0.9380  0.3856 -0.7147
  517MOL0     C71233   1.669   6.183   9.972 -0.5382  0.0099 -0.5593
  517MOL0     C71234   1.607   6.177  10.092  0.3905  0.0930 -0.3510
  517MOL0     C71235   1.470   6.134  10.104 -0.0075  0.6607  0.7067
  517MOL0     C71236   1.416   6.132  10.239 -0.0985  0.0071  0.3214
  517MOL0     C71237   1.404   6.088   9.987  0.0604  0.5170 -0.5601
  517MOL0     C71238   1.266   6.034   9.983  0.2222  0.3954 -0.7322
  517MOL0     O71239   1.221   5.986   9.859  0.1496 -0.3216  0.0519
  517MOL0     C71240   1.091   5.930   9.833 -0.1900 -0.1117 -1.0555
  517MOL0     C71241   1.069   5.877   9.700  0.8307 -0.1789  0.2596
  517MOL0     C71242   0.955   5.810   9.668 -0.1424 -0.1388 -0.7835
  517MOL0     C71243   0.861   5.783   9.764 -0.4450 -0.1571  0.7272
  517MOL0     O71244   0.759   5.702   9.733 -0.3316  0.8511  0.0986
  517MOL0     C71245   0.806   5.570   9.697  0.4357 -0.1777  0.5154
  517MOL0     C71246   0.678   5.484   9.720 -0.6725  0.0897 -1.1509
  517MOL0     C71247   0.654   5.463   9.862 -0.0909 -0.8838 -0.8728
  517MOL0     C71248   0.522   5.398   9.897 -0.2334  0.0672  0.0415
  517MOL0     C71249   0.504   5.370  10.053 -0.1043  0.0203  0.1436
  517MOL0     C71250   0.366   5.322  10.072  0.3898  0.2236 -0.1792
  517MOL0     C71251   0.318   5.304  10.221 -0.1664 -0.2415  0.2814
  517MOL0     C71252   0.177   5.361  10.253  0.2767  0.0275  0.0536
  517MOL0    Cl71253   0.204   5.542  10.253 -0.0431 -0.3886  0.3964
  517MOL0     C71254   0.881   5.817   9.896 -0.4208 -0.2015 -0.3030
  517MOL0     C71255   1.003   5.879   9.928  0.3761 -0.6249  0.2991
  517MOL0     O71256   1.194   6.041  10.091 -0.0488  0.6468 -0.1371
  517MOL0     C71257   1.476   6.085   9.870 -0.8484  0.1637  1.0083
  517MOL0     C71258   1.606   6.137   9.854 -0.3658  0.1159  0.0709
  517MOL0     N71259   1.858   6.368   9.392  0.3186  0.3019 -0.9054
  517MOL0     N71260   1.800   6.421   9.295  0.0935  0.1111  0.1206
  517MOL0     C71261   1.271   7.583   9.219 -0.2629 -0.2660 -0.5803
  517MOL0     C71262   1.257   7.706   9.295  0.4555 -0.1056  1.0445
  517MOL0     C71263   1.243   8.017   9.630  0.6571 -0.3928 -0.5301
  517MOL0     C71264   1.271   8.096   9.518 -0.1395 -0.4231 -1.1194
  517MOL0     C71265   1.307   8.229   9.531  0.0467  1.1149  0.5024
  517MOL0     C71266   1.312   8.293   9.654  0.2283  1.0656  0.3411
  517MOL0     O71267   1.364   8.415   9.658  0.4002  0.0238 -0.1790
  517MOL0     C71268   1.314   8.504   9.764 -0.1291 -0.1235  0.4308
  517MOL0     C71269   1.339   8.662   9.724 -0.2572  1.2594  0.2967
  517MOL0     C71270   1.301   8.691   9.586 -0.1388  0.1607  0.7759
  517MOL0     C71271   1.374   8.821   9.538 -0.0233  0.2099 -0.3881
  517MOL0     C71272   1.298   8.937   9.583 -0.6529  1.1138 -0.5078
  517MOL0     C71273   1.233   9.023   9.641 -0.9708  0.5552  0.5059
  517MOL0     C71274   1.270   8.220   9.766  0.4808 -0.0207 -0.2624
  517MOL0     C71275   1.243   8.080   9.759 -0.3354  0.0155 -0.6507
  517MOL0     C71276   1.200   8.017   9.888  1.0105  0.0810 -1.2556
  517MOL0     H71277   1.152   7.593   9.591  2.3044  2.9353  0.4889
  517MOL0     H71278   1.203   7.381   9.480 -2.5141  0.5761  1.3038
  517MOL0     H71279   1.457   7.371   9.178 -0.5455  0.9906  0.4491
  517MOL0     H71280   1.337   7.352   9.047 -0.3026  0.1842  0.0877
  517MOL0     H71281   1.409   7.136   9.249 -0.2849  2.7266  1.5306
  517MOL0     H71282   1.309   7.112   9.109  1.4065  1.0708 -6.9485
  517MOL0     H71283   1.487   7.015   9.018  3.5698 -0.6340 -0.5158
  517MOL0     H71284   1.522   7.186   8.977 -1.2099 -1.7258 -1.0008
  517MOL0     H71285   1.719   7.045   9.050 -0.8452  2.1480 -1.3431
  517MOL0     H71286   1.698   7.188   9.152  0.1968  0.0246  0.3916
  517MOL0     H71287   1.595   7.050   9.322 -1.8086 -1.0985 -1.0866
  517MOL0     H71288   1.755   6.994   9.282 -0.6455  0.0193 -2.2016
  517MOL0     H71289   1.475   6.878   9.211 -0.9002 -1.4005 -2.1965
  517MOL0     H71290   1.607   6.839   9.117 -3.3071 -0.7925  0.0201
  517MOL0     H71291   1.538   6.695   9.328  0.3380 -0.7260 -0.6699
  517MOL0     H71292   1.658   6.786   9.413  0.3242  2.0472 -0.3265
  517MOL0     H71293   1.703   6.633   9.145 -2.2960 -2.3036 -0.2429
  517MOL0     H71294   1.821   6.718   9.237  0.7901  0.5992  1.6639
  517MOL0     H71295   1.790   6.652   9.524 -0.9929 -0.6075 -0.5638
  517MOL0     H71296   1.990   6.519   9.643 -0.9730  1.1952 -1.8728
  517MOL0     H71297   1.968   6.340   9.643 -1.8938 -0.4056  0.2003
  517MOL0     H71298   1.784   6.531   9.751 -0.3771 -0.1493 -1.1040
  517MOL0     H71299   1.748   6.355   9.736 -0.3483  0.3511  1.4401
  517MOL0     H71300   1.994   6.366   9.874 -0.0795  0.3520  1.8690
  517MOL0     H71301   1.924   6.525   9.912  0.9181  0.9025 -0.3842
  517MOL0     H71302   1.883   6.372  10.076  2.6432  1.5514 -0.9313
  517MOL0     H71303   1.730   6.420  10.006  3.4065  1.5263  2.6789
  517MOL0     H71304   1.663   6.204  10.181 -3.9547  3.0993  1.8841
  517MOL0     H71305   1.348   6.214  10.264  3.1624  2.6932  1.0802
  517MOL0     H71306   1.499   6.144  10.309 -1.1152  1.4088  1.3258
  517MOL0     H71307   1.370   6.034  10.257 -0.0370  0.3360  2.4263
  517MOL0     H71308   1.143   5.893   9.621 -0.1376  2.5495 -0.1809
  517MOL0     H71309   0.937   5.766   9.570  1.5654 -0.3362 -1.0489
  517MOL0     H71310   0.827   5.553   9.591 -0.1652 -0.7715  0.4886
  517MOL0     H71311   0.894   5.545   9.757  2.0867  2.4658 -0.6072
  517MOL0     H71312   0.589   5.529   9.673  0.0292  3.6275  0.5129
  517MOL0     H71313   0.699   5.381   9.691  2.9248  0.3151  0.1419
  517MOL0     H71314   0.647   5.565   9.900 -0.8571  0.2194 -3.7166
  517MOL0     H71315   0.732   5.409   9.916  2.5784  2.0829 -1.4624
  517MOL0     H71316   0.507   5.299   9.854 -1.4431  0.1524  0.2214
  517MOL0     H71317   0.445   5.463   9.855  0.5659  1.7850  1.1112
  517MOL0     H71318   0.568   5.288  10.086  0.8099  0.7039  0.0953
  517MOL0     H71319   0.525   5.464  10.105  0.2530  0.1065 -0.1472
  517MOL0     H71320   0.362   5.228  10.017  1.3359  0.0270  0.0591
  517MOL0     H71321   0.295   5.380  10.012  1.0817 -1.1823 -2.4698
  517MOL0     H71322   0.388   5.363  10.282  1.9643  0.8988 -3.0266
  517MOL0     H71323   0.316   5.201  10.258  1.7292 -1.1652 -1.9821
  517MOL0     H71324   0.150   5.323  10.352  0.5125  2.3983  1.1110
  517MOL0     H71325   0.103   5.331  10.179  0.0868  0.4691  0.0621
  517MOL0     H71326   0.810   5.802   9.976 -2.7105  2.1471 -1.7681
  517MOL0     H71327   1.027   5.893  10.033  0.6642 -1.7379  0.3927
  517MOL0     H71328   1.434   6.035   9.783 -0.3096  0.6807  0.4427
  517MOL0     H71329   1.665   6.139   9.762 -1.3219 -1.7868 -0.6364
  517MOL0     H71330   1.312   7.582   9.118 -0.9708  1.6645 -0.9249
  517MOL0     H71331   1.280   7.792   9.232 -4.0666  0.0459 -0.8406
  517MOL0     H71332   1.272   8.048   9.421 -1.3633 -0.8598 -0.9245
  517MOL0     H71333   1.319   8.284   9.439  2.7228 -0.3256 -0.0978
  517MOL0     H71334   1.205   8.507   9.771 -0.0274  0.6341  2.4930
  517MOL0     H71335   1.366   8.478   9.857 -1.3884  1.0927  1.5101
  517MOL0     H71336   1.446   8.678   9.738  0.0889  1.0699 -1.8535
  517MOL0     H71337   1.280   8.723   9.793 -0.6836  1.1065  0.0748
  517MOL0     H71338   1.308   8.612   9.511  0.7089  2.3218 -1.5578
  517MOL0     H71339   1.193   8.703   9.577 -0.6236 -3.1251  0.9081
  517MOL0     H71340   1.383   8.828   9.429 -2.4360 -1.3620 -0.7598
  517MOL0     H71341   1.480   8.823   9.567  0.0369 -0.1091 -0.5781
  517MOL0     H71342   1.174   9.102   9.683 -1.1214  0.6736  0.0781
  517MOL0     H71343   1.263   8.259   9.867 -3.8803 -0.8532 -0.0416
  517MOL0     H71344   1.287   7.957   9.914  1.7771  0.9990 -1.6754
  517MOL0     H71345   1.171   8.091   9.963 -0.4306 -2.9261  1.4326
  517MOL0     H71346   1.111   7.954   9.874  0.4710  0.4420  0.2996
  518MOL0     O71347   2.022   0.610   0.527  0.2152  0.4182  0.2877
  518MOL0     C71348   2.074   0.718   0.555  0.0576 -0.3703  0.1961
  518MOL0     O71349   2.167   0.736   0.649 -0.5584 -0.0490 -0.5991
  518MOL0     C71350   2.183   0.640   0.752  0.6087  0.7382 -0.0426
  518MOL0     C71351   2.317   0.618   0.787 -0.0359  0.8787 -0.1206
  518MOL0     C71352   2.346   0.552   0.905 -0.1588  0.0113 -0.4013
  518MOL0     C71353   2.253   0.484   0.981  0.1221  0.6689  0.9849
  518MOL0     O71354   2.299   0.444   1.102  0.4548  0.0452  0.0129
  518MOL0     C71355   2.208   0.388   1.196  1.3391 -0.6878  0.4256
  518MOL0     C71356   2.153   0.240   1.170  1.5696  0.1418 -0.3972
  518MOL0     C71357   2.188   0.179   1.033  0.3123  0.2886 -0.0265
  518MOL0     C71358   2.188   0.025   1.019 -0.7632  0.3201  0.3563
  518MOL0     C71359   2.060  -0.050   1.047  0.4078  1.1397  0.4794
  518MOL0     C71360   1.948  -0.021   0.938  0.2213  0.0327  1.1577
  518MOL0     C71361   1.810  -0.084   0.968 -0.6634  0.9131  0.1056
  518MOL0     C71362   1.793  -0.227   0.926 -0.3082  0.1109 -0.3306
  518MOL0     N71363   1.807  -0.319   1.044  0.0137  0.9994  0.1901
  518MOL0     C71364   1.889  -0.431   1.056 -0.1332  1.0387  1.1807
  518MOL0     C71365   1.837  -0.512   1.148 -1.0446 -0.4756  0.3666
  518MOL0     C71366   1.883  -0.658   1.162 -0.8832 -0.8775 -0.4711
  518MOL0     C71367   1.786  -0.752   1.229  0.4809 -0.1210 -0.0984
  518MOL0     C71368   1.834  -0.893   1.234  0.3691  0.4583  0.8397
  518MOL0     C71369   1.762  -0.979   1.322  0.9479  0.4241  0.5411
  518MOL0     O71370   1.623  -0.996   1.283 -0.1247 -0.0408  0.0671
  518MOL0     C71371   1.601  -1.090   1.178  0.3741  0.0898  0.0498
  518MOL0     C71372   1.472  -1.100   1.134  0.8166 -0.8790  0.1753
  518MOL0     C71373   1.438  -1.191   1.022  0.0201 -1.0458 -0.6224
  518MOL0     C71374   1.298  -1.185   0.977 -0.3182 -0.6262  1.1996
  518MOL0     C71375   1.541  -1.271   0.970 -0.0458 -0.4834  0.1222
  518MOL0     C71376   1.511  -1.382   0.874  0.3716 -0.0263  0.7186
  518MOL0     O71377   1.570  -1.512   0.876 -0.2659  0.4463 -0.0458
  518MOL0     C71378   1.504  -1.629   0.818 -0.3167 -0.8736 -0.7031
  518MOL0     C71379   1.382  -1.630   0.747 -0.4444  0.0354  0.0203
  518MOL0     C71380   1.355  -1.753   0.685  0.7417  0.0600 -0.7753
  518MOL0     C71381   1.436  -1.867   0.686  0.0555 -0.9021  0.6095
  518MOL0     O71382   1.400  -1.982   0.616  0.1290 -0.1698  0.1526
  518MOL0     C71383   1.496  -2.078   0.568  0.1175 -1.6122  0.4652
  518MOL0     C71384   1.422  -2.197   0.497  0.2563 -0.0662 -0.3724
  518MOL0     C71385   1.353  -2.174   0.364 -0.3689 -0.0459 -0.2648
  518MOL0     C71386   1.225  -2.089   0.381 -0.1439 -0.1924 -0.7622
  518MOL0     C71387   1.136  -2.087   0.264  0.3136 -0.2453  0.4530
  518MOL0     C71388   1.184  -1.970   0.169  0.1904 -0.1263  0.5969
  518MOL0     C71389   1.059  -1.938   0.073  0.1952 -1.3682  0.1610
  518MOL0     C71390   1.071  -1.801   0.017  0.3537  0.4466 -0.1353
  518MOL0    Cl71391   1.206  -1.783  -0.107  0.0423 -0.2871  0.0767
  518MOL0     C71392   1.550  -1.854   0.752 -0.0124  0.0004  0.1801
  518MOL0     C71393   1.583  -1.741   0.834 -0.0130  0.2379 -0.1878
  518MOL0     O71394   1.429  -1.344   0.786 -0.4569  0.4382  0.0641
  518MOL0     C71395   1.674  -1.256   1.015  0.4106 -0.7586 -0.2657
  518MOL0     C71396   1.703  -1.169   1.118  0.7206 -0.7888 -0.0129
  518MOL0     N71397   1.713  -0.463   1.185  0.5740  0.5459 -0.1810
  518MOL0     N71398   1.693  -0.353   1.123 -1.5028 -0.4046 -0.4739
  518MOL0     C71399   2.113   0.502   0.943 -0.3071  0.4265  0.3908
  518MOL0     C71400   2.073   0.569   0.832 -0.2722  0.4794  1.1640
  518MOL0     C71401   2.057   0.842   0.466 -0.1613  1.0724 -0.7205
  518MOL0     C71402   2.117   0.969   0.495 -0.0586 -0.3007 -0.0057
  518MOL0     C71403   2.121   1.075   0.414 -0.2731 -0.6669  0.6370
  518MOL0     C71404   2.059   1.062   0.286  0.2200 -0.2865  0.0939
  518MOL0     O71405   2.053   1.175   0.209 -0.3415  0.3263  0.7161
  518MOL0     C71406   2.120   1.168   0.084 -0.3815 -0.4733 -0.0826
  518MOL0     C71407   2.030   1.214  -0.036  0.5697  0.0370  0.7379
  518MOL0     C71408   1.949   1.338  -0.013 -0.0221 -0.0837  0.2200
  518MOL0     C71409   2.009   1.459  -0.074  0.3783 -0.2459 -0.0230
  518MOL0     C71410   2.131   1.496   0.009  0.5009 -0.4815  0.7441
  518MOL0     C71411   2.233   1.531   0.065 -0.5438 -0.2688  0.7610
  518MOL0     C71412   1.986   0.952   0.244 -0.1967 -0.7346  0.5591
  518MOL0     C71413   1.982   0.849   0.340 -0.2751 -0.3849 -0.3742
  518MOL0     C71414   1.896   0.728   0.294 -0.1615  0.0426 -0.6918
  518MOL0     H71415   2.397   0.661   0.727 -1.9135 -0.5687 -4.0587
  518MOL0     H71416   2.449   0.558   0.937 -1.2988  0.4068  3.8599
  518MOL0     H71417   2.120   0.454   1.196  0.8283 -1.2489 -2.0541
  518MOL0     H71418   2.250   0.398   1.296  1.2237  1.4465  0.2981
  518MOL0     H71419   2.204   0.183   1.248  2.8300 -1.5735 -2.3585
  518MOL0     H71420   2.045   0.241   1.188  2.1029  1.3649  3.8495
  518MOL0     H71421   2.115   0.212   0.959 -0.8385 -0.6552  0.6593
  518MOL0     H71422   2.286   0.223   1.011 -1.3722  3.4677 -1.8806
  518MOL0     H71423   2.222   0.002   0.917  2.9235  0.5948  1.3761
  518MOL0     H71424   2.270  -0.006   1.084  0.6917 -1.9024 -2.3387
  518MOL0     H71425   2.031  -0.004   1.143  0.0137  2.2000 -0.1245
  518MOL0     H71426   2.073  -0.158   1.055 -0.7797  1.1180  3.7154
  518MOL0     H71427   1.936   0.086   0.918  2.0137  0.2138  0.8678
  518MOL0     H71428   1.988  -0.061   0.845  0.8743  3.8946 -0.4116
  518MOL0     H71429   1.734  -0.022   0.919  0.1902  1.0084 -1.1596
  518MOL0     H71430   1.811  -0.075   1.077  1.0739  3.7874 -0.0438
  518MOL0     H71431   1.700  -0.246   0.872  0.1128  2.2457 -1.9177
  518MOL0     H71432   1.874  -0.247   0.855  1.7121  0.4591  1.7589
  518MOL0     H71433   1.979  -0.455   1.001  0.1013 -0.1126  2.0249
  518MOL0     H71434   1.979  -0.669   1.212 -0.0846 -2.6494 -2.2768
  518MOL0     H71435   1.908  -0.691   1.061  2.5808 -0.5897  0.1832
  518MOL0     H71436   1.780  -0.716   1.332  0.3982  0.0783 -0.1715
  518MOL0     H71437   1.693  -0.743   1.173  0.1988 -0.0354  0.3798
  518MOL0     H71438   1.836  -0.917   1.127 -1.2884  1.8468  0.4554
  518MOL0     H71439   1.935  -0.894   1.275  0.8387 -0.3401 -0.3196
  518MOL0     H71440   1.813  -1.074   1.346 -0.0708  0.4434  3.2064
  518MOL0     H71441   1.755  -0.933   1.421  2.5311  0.2841  0.7415
  518MOL0     H71442   1.397  -1.028   1.167  0.5581 -2.3615  3.0983
  518MOL0     H71443   1.238  -1.100   1.011 -3.1047 -1.2226 -1.7285
  518MOL0     H71444   1.247  -1.274   1.015 -0.0792 -0.8937  0.9036
  518MOL0     H71445   1.288  -1.179   0.868  0.6630  0.8613  1.1602
  518MOL0     H71446   1.321  -1.544   0.721 -0.8247 -0.5017 -0.9354
  518MOL0     H71447   1.263  -1.760   0.627  2.2321  0.1002 -3.2801
  518MOL0     H71448   1.572  -2.031   0.506 -0.9870  1.8082  1.4892
  518MOL0     H71449   1.559  -2.121   0.647  0.7742 -1.2332  0.1539
  518MOL0     H71450   1.507  -2.261   0.470 -0.3355 -0.8214 -0.4607
  518MOL0     H71451   1.357  -2.253   0.564 -1.1001 -0.3902 -1.8998
  518MOL0     H71452   1.339  -2.272   0.318  1.8311 -1.7501  2.3940
  518MOL0     H71453   1.424  -2.125   0.298 -0.2382 -1.7564 -1.4521
  518MOL0     H71454   1.239  -1.985   0.413  0.8742 -0.7259  0.6274
  518MOL0     H71455   1.168  -2.145   0.455 -1.4187  0.1173 -1.4766
  518MOL0     H71456   1.142  -2.186   0.216  1.2516  0.5656 -1.1887
  518MOL0     H71457   1.035  -2.076   0.305 -0.1492  1.0513 -0.9562
  518MOL0     H71458   1.272  -1.995   0.109  0.2825  0.9657  0.2540
  518MOL0     H71459   1.220  -1.885   0.227  0.1188  1.3459 -1.3821
  518MOL0     H71460   0.972  -1.943   0.140  1.9257  3.1875  3.2264
  518MOL0     H71461   1.047  -2.019   0.001  2.0284 -2.0421  0.5658
  518MOL0     H71462   1.094  -1.740   0.104  5.0115 -1.3447  0.1967
  518MOL0     H71463   0.979  -1.767  -0.031 -1.1301 -2.4325  0.4387
  518MOL0     H71464   1.619  -1.937   0.765 -0.8311 -0.7323 -0.0776
  518MOL0     H71465   1.682  -1.739   0.878  0.9002 -3.7822 -1.6898
  518MOL0     H71466   1.750  -1.321   0.972  3.6478  0.1182  3.4774
  518MOL0     H71467   1.808  -1.156   1.143  1.6082 -2.4169 -2.5024
  518MOL0     H71468   2.032   0.455   0.997 -0.3791  1.4444  1.1996
  518MOL0     H71469   1.968   0.586   0.811  0.0219 -0.8300 -1.8697
  518MOL0     H71470   2.153   0.979   0.597  0.7015 -1.5414 -0.1230
  518MOL0     H71471   2.170   1.167   0.443 -1.6878 -0.1808  1.6131
  518MOL0     H71472   2.209   1.231   0.088 -0.1721 -0.8582  2.4071
  518MOL0     H71473   2.136   1.063   0.058 -2.5378 -0.3521 -2.3546
  518MOL0     H71474   1.970   1.123  -0.046  0.1322  0.3613  0.4037
  518MOL0     H71475   2.095   1.223  -0.124  0.2694  1.0949  0.6064
  518MOL0     H71476   1.849   1.324  -0.055  1.1793 -0.1548 -2.8574
  518MOL0     H71477   1.945   1.349   0.096  2.1888  0.7526  0.2754
  518MOL0     H71478   1.932   1.535  -0.056  2.1683  0.9494  3.4548
  518MOL0     H71479   2.032   1.464  -0.180 -2.2388  2.1483 -0.6147
  518MOL0     H71480   2.328   1.540   0.114  1.4110  3.4727 -3.0888
  518MOL0     H71481   1.943   0.955   0.145  0.4334  2.0438  0.2841
  518MOL0     H71482   1.973   0.662   0.253  0.7722 -0.1766  1.2961
  518MOL0     H71483   1.845   0.665   0.367  0.2503 -0.3075 -0.7085
  518MOL0     H71484   1.826   0.750   0.212 -1.0992  1.2476  0.3948
  519MOL0     O71485   4.189   8.951   2.960  0.1185  0.0531 -0.6724
  519MOL0     C71486   4.239   9.061   2.950  0.0035  0.1901 -1.0664
  519MOL0     O71487   4.176   9.164   2.896  0.3429 -0.1163 -0.0910
  519MOL0     C71488   4.057   9.140   2.840 -0.1799 -0.2474 -0.3134
  519MOL0     C71489   3.937   9.180   2.898  0.2177  0.0519 -0.4868
  519MOL0     C71490   3.810   9.159   2.839  0.3228  0.2195 -0.3793
  519MOL0     C71491   3.809   9.098   2.716  0.6297 -0.9177 -0.4658
  519MOL0     O71492   3.702   9.074   2.632 -0.2015  0.3325 -0.6912
  519MOL0     C71493   3.570   9.074   2.686 -0.5438  0.6812  0.1071
  519MOL0     C71494   3.482   9.130   2.568 -0.6007  0.0406 -0.3080
  519MOL0     C71495   3.333   9.119   2.607 -0.0476 -0.2092 -0.4586
  519MOL0     C71496   3.250   9.158   2.484  0.2850  0.3872 -0.8118
  519MOL0     C71497   3.209   9.305   2.485 -0.6187  0.2956 -0.3044
  519MOL0     C71498   3.146   9.346   2.351  0.1687  0.3573 -0.1435
  519MOL0     C71499   3.042   9.459   2.365 -0.6733 -0.2073  0.6222
  519MOL0     C71500   3.089   9.604   2.385  0.7400  0.7894 -0.3938
  519MOL0     N71501   3.175   9.630   2.506  0.8169 -0.2755  0.1029
  519MOL0     C71502   3.147   9.605   2.640  0.4723  0.6934 -0.5996
  519MOL0     C71503   3.262   9.636   2.706 -1.0873  0.5902  0.3853
  519MOL0     C71504   3.256   9.626   2.856  0.1642 -0.4195 -0.3633
  519MOL0     C71505   3.360   9.717   2.916 -0.2152 -0.8770  0.7955
  519MOL0     C71506   3.388   9.721   3.067 -0.2183  0.4966  0.6399
  519MOL0     C71507   3.453   9.592   3.119  0.9130  1.0766 -0.7427
  519MOL0     O71508   3.583   9.570   3.053  0.2496 -0.2211 -0.0423
  519MOL0     C71509   3.692   9.503   3.128  0.8208  0.5499 -0.1842
  519MOL0     C71510   3.824   9.548   3.102  0.6724 -0.6646  0.2569
  519MOL0     C71511   3.925   9.481   3.176  0.1663 -0.6669 -0.2639
  519MOL0     C71512   4.064   9.522   3.136  0.1794  0.0341  0.3443
  519MOL0     C71513   3.892   9.381   3.264  0.7441 -0.4004  1.2869
  519MOL0     C71514   3.990   9.290   3.319  0.0435  0.3527 -1.3038
  519MOL0     O71515   3.986   9.152   3.289 -0.7838 -0.0869  0.0844
  519MOL0     C71516   4.076   9.076   3.358  0.1286  1.6950 -0.5420
  519MOL0     C71517   4.212   9.111   3.377  0.8589  0.2687  0.1046
  519MOL0     C71518   4.307   9.026   3.450 -0.8123 -1.0324 -0.8492
  519MOL0     C71519   4.253   8.919   3.525 -0.4981  1.2298 -0.4610
  519MOL0     O71520   4.335   8.831   3.597  0.7922 -0.3195  0.2133
  519MOL0     C71521   4.439   8.896   3.682  0.3517  0.1271  0.4988
  519MOL0     C71522   4.409   8.871   3.826  0.3023 -0.1430  0.7376
  519MOL0     C71523   4.291   8.958   3.875  0.2792 -0.4252 -0.8075
  519MOL0     C71524   4.308   8.994   4.022  0.6379  0.3653  0.5245
  519MOL0     C71525   4.177   9.010   4.090  0.3002  0.9601 -0.9781
  519MOL0     C71526   4.076   9.113   4.029 -0.7767  0.5827 -0.0863
  519MOL0     C71527   4.055   9.220   4.142  0.2203 -0.1313 -0.5706
  519MOL0     C71528   3.953   9.325   4.102 -0.3338  0.7832 -0.9358
  519MOL0    Cl71529   4.009   9.484   4.144  0.3556  0.2257  0.0429
  519MOL0     C71530   4.115   8.897   3.526 -0.2098 -0.3576  1.4206
  519MOL0     C71531   4.032   8.968   3.435 -0.5849  0.5374  0.2784
  519MOL0     O71532   4.082   9.344   3.384  0.0109 -0.5338  0.2372
  519MOL0     C71533   3.757   9.334   3.269  0.5144  0.3186  0.4757
  519MOL0     C71534   3.660   9.396   3.202  0.6336  1.1247  0.2973
  519MOL0     N71535   3.358   9.662   2.616 -0.6347  0.7101  0.7182
  519MOL0     N71536   3.307   9.669   2.491  0.2137  0.3621  0.5085
  519MOL0     C71537   3.930   9.081   2.654  0.5841  0.1277  0.5202
  519MOL0     C71538   4.059   9.101   2.707 -0.4792  0.4094 -0.3547
  519MOL0     C71539   4.372   9.077   3.003  0.2753  0.7492 -1.0901
  519MOL0     C71540   4.398   9.195   3.066  0.3122  0.0638 -0.1008
  519MOL0     C71541   4.530   9.217   3.110  0.3283 -0.1917 -0.0460
  519MOL0     C71542   4.632   9.128   3.116 -0.3578 -0.2503 -0.4073
  519MOL0     O71543   4.758   9.165   3.164 -0.9598 -0.1047  0.1461
  519MOL0     C71544   4.842   9.066   3.232 -0.2870 -1.0114 -0.0247
  519MOL0     C71545   4.784   8.996   3.349  0.2878 -1.1448 -0.2855
  519MOL0     C71546   4.880   8.973   3.464  0.7573 -0.3487  0.6252
  519MOL0     C71547   5.000   8.896   3.426  0.1599  0.1316 -0.2935
  519MOL0     C71548   5.110   8.982   3.383 -0.5456 -0.8080  0.4549
  519MOL0     C71549   5.215   9.031   3.339  0.5864 -0.4447 -0.9017
  519MOL0     C71550   4.592   9.002   3.077  0.3451 -0.0527 -0.5132
  519MOL0     C71551   4.465   8.972   3.021  0.1176 -0.5766  0.2725
  519MOL0     C71552   4.441   8.824   2.988 -0.3903 -0.1067 -0.2785
  519MOL0     H71553   3.927   9.232   2.993  3.0121 -1.9919  1.0501
  519MOL0     H71554   3.721   9.188   2.894  0.3504 -3.5102  2.0143
  519MOL0     H71555   3.553   9.139   2.773  1.0714 -1.2838  2.0088
  519MOL0     H71556   3.532   8.975   2.714  0.8301 -0.7635 -2.6767
  519MOL0     H71557   3.509   9.224   2.519 -3.1122  0.1905 -1.5690
  519MOL0     H71558   3.485   9.052   2.491  0.6701 -0.4651  0.2291
  519MOL0     H71559   3.311   9.016   2.638  2.6754 -0.0381  2.5890
  519MOL0     H71560   3.298   9.176   2.693 -1.6702 -1.8017  0.0061
  519MOL0     H71561   3.307   9.140   2.393  3.4487  0.1682  1.0437
  519MOL0     H71562   3.153   9.109   2.493 -0.1433  1.4549  5.9895
  519MOL0     H71563   3.291   9.376   2.503  0.1831 -0.0416 -2.3411
  519MOL0     H71564   3.135   9.323   2.563 -1.4294  0.5995 -1.1290
  519MOL0     H71565   3.225   9.370   2.279 -1.4308  2.6097 -1.2857
  519MOL0     H71566   3.094   9.255   2.321 -0.3278  0.9368 -1.0731
  519MOL0     H71567   2.981   9.454   2.456  2.0843  1.7240  2.7843
  519MOL0     H71568   2.973   9.460   2.281 -0.6848  1.0862  0.6331
  519MOL0     H71569   3.116   9.657   2.293  1.1182  2.4375  0.6251
  519MOL0     H71570   2.994   9.650   2.413 -1.8948 -2.6003 -2.9141
  519MOL0     H71571   3.063   9.550   2.681  0.8026 -2.1148 -3.3513
  519MOL0     H71572   3.283   9.524   2.882  0.8405 -0.8796 -2.6962
  519MOL0     H71573   3.156   9.655   2.891  0.6584  0.1292  0.6594
  519MOL0     H71574   3.455   9.694   2.867 -1.3481 -1.5756 -1.1933
  519MOL0     H71575   3.321   9.815   2.890 -1.8905 -2.1421 -1.9541
  519MOL0     H71576   3.451   9.806   3.095 -2.4704  2.0214  1.3328
  519MOL0     H71577   3.286   9.742   3.100 -0.7458 -2.6420  1.3291
  519MOL0     H71578   3.466   9.598   3.228 -1.3662  0.4038 -0.3766
  519MOL0     H71579   3.397   9.499   3.100  0.7018  1.5261 -2.5066
  519MOL0     H71580   3.837   9.637   3.041  0.3765 -1.9614 -1.8022
  519MOL0     H71581   4.057   9.623   3.094 -4.4761  0.2317  1.0699
  519MOL0     H71582   4.105   9.459   3.056 -2.8561  0.6415 -1.8733
  519MOL0     H71583   4.138   9.530   3.217 -3.2727  0.3518  3.7390
  519MOL0     H71584   4.249   9.195   3.319  1.8803  0.1880  0.6167
  519MOL0     H71585   4.413   9.051   3.459 -1.1047 -0.3818  1.1723
  519MOL0     H71586   4.540   8.858   3.670  1.2649  1.2120  3.6944
  519MOL0     H71587   4.453   9.004   3.666 -0.2065  0.1570  0.1633
  519MOL0     H71588   4.375   8.769   3.841 -0.6649  0.4488  2.8515
  519MOL0     H71589   4.499   8.899   3.882  0.0896  0.4073  0.8084
  519MOL0     H71590   4.195   8.905   3.867 -0.3307  0.9332 -3.2804
  519MOL0     H71591   4.280   9.050   3.817 -7.1782 -1.6818 -2.3907
  519MOL0     H71592   4.362   9.089   4.037 -0.4100  0.8947  1.0405
  519MOL0     H71593   4.361   8.913   4.073 -2.9450 -1.3425  1.7947
  519MOL0     H71594   4.116   8.919   4.092 -0.7311  1.6505 -0.0338
  519MOL0     H71595   4.190   9.010   4.199 -1.8249 -0.0404 -0.6652
  519MOL0     H71596   3.978   9.069   4.005 -2.1782  2.8044  1.1520
  519MOL0     H71597   4.121   9.158   3.941  0.6213  0.5298  0.5821
  519MOL0     H71598   4.147   9.275   4.162  1.1547 -2.0242  0.5545
  519MOL0     H71599   4.026   9.175   4.237 -1.7654  2.8455  0.3909
  519MOL0     H71600   3.861   9.304   4.157  2.0111 -0.0185  3.0700
  519MOL0     H71601   3.945   9.327   3.993  2.9160  0.2215 -1.2950
  519MOL0     H71602   4.066   8.815   3.579 -0.7490  0.5080  2.2838
  519MOL0     H71603   3.928   8.947   3.415 -0.1642  0.3990 -2.0667
  519MOL0     H71604   3.717   9.257   3.334  0.6616  0.1375  0.3507
  519MOL0     H71605   3.558   9.380   3.235  0.7693  2.2166  1.3325
  519MOL0     H71606   3.904   9.062   2.551 -1.4692 -1.2033  1.2209
  519MOL0     H71607   4.156   9.083   2.660 -1.0383 -1.0567 -1.0069
  519MOL0     H71608   4.336   9.283   3.076  0.3184  0.1904 -1.1313
  519MOL0     H71609   4.544   9.316   3.152 -2.9750  0.2548  0.2947
  519MOL0     H71610   4.864   8.991   3.156  0.8167 -2.3685  1.5458
  519MOL0     H71611   4.932   9.122   3.259 -2.8030  1.6636  3.9430
  519MOL0     H71612   4.748   8.901   3.309 -0.4610 -0.4398 -1.3485
  519MOL0     H71613   4.692   9.039   3.391 -1.3335 -0.1110 -4.3695
  519MOL0     H71614   4.901   9.078   3.490 -1.7390  0.5799 -0.7648
  519MOL0     H71615   4.819   8.923   3.540 -5.3089  2.8136 -1.4960
  519MOL0     H71616   4.973   8.840   3.336 -1.8356 -0.5614  0.6708
  519MOL0     H71617   5.017   8.836   3.516  0.4132  1.1756  0.3782
  519MOL0     H71618   5.306   9.062   3.292  1.0825  0.1155  0.3647
  519MOL0     H71619   4.668   8.925   3.082 -0.6219 -1.2463 -2.6148
  519MOL0     H71620   4.360   8.819   2.914  1.1701  0.3832 -2.0882
  519MOL0     H71621   4.535   8.784   2.948  0.9617  0.1787  2.4109
  519MOL0     H71622   4.411   8.766   3.075 -0.7820  2.1214  1.1395
  520MOL0     O71623   2.750   7.984   5.116 -0.2731 -0.5897 -0.5041
  520MOL0     C71624   2.743   8.010   4.996  0.4443 -0.2060 -0.2174
  520MOL0     O71625   2.847   8.008   4.909  0.1960  0.5475 -0.3801
  520MOL0     C71626   2.980   8.034   4.944  0.3662 -0.2774  0.4464
  520MOL0     C71627   3.065   7.988   5.055  0.6520 -0.7242  0.2881
  520MOL0     C71628   3.205   8.007   5.047  0.3707  0.0515 -1.2841
  520MOL0     C71629   3.260   8.082   4.942  0.1908  0.6006  0.1296
  520MOL0     O71630   3.391   8.124   4.948 -0.1639  0.0486 -0.7550
  520MOL0     C71631   3.454   8.165   5.070  0.2908 -0.5866  0.7664
  520MOL0     C71632   3.400   8.299   5.127  0.0660  0.9015 -0.3321
  520MOL0     C71633   3.492   8.347   5.245  0.6877  0.0516  0.4340
  520MOL0     C71634   3.410   8.383   5.367 -0.6186 -0.5500  0.1228
  520MOL0     C71635   3.494   8.401   5.489  0.3378  0.0244  0.5131
  520MOL0     C71636   3.581   8.521   5.472  0.2504  0.5356 -0.2672
  520MOL0     C71637   3.672   8.553   5.584 -0.1665 -0.1798  0.1849
  520MOL0     C71638   3.769   8.656   5.542 -1.1965 -0.4157 -0.3119
  520MOL0     N71639   3.885   8.587   5.483 -0.1305  0.5266  0.3405
  520MOL0     C71640   3.999   8.547   5.542  0.5930  0.2256  0.1554
  520MOL0     C71641   4.074   8.489   5.438  0.7328  0.0983  0.8610
  520MOL0     C71642   4.217   8.453   5.454  0.0800  0.2151 -0.2562
  520MOL0     C71643   4.304   8.586   5.458 -0.5264 -0.2528  0.1795
  520MOL0     C71644   4.448   8.556   5.450  0.4669  0.4001 -1.1134
  520MOL0     C71645   4.550   8.674   5.462  0.1790  0.5466  1.0168
  520MOL0     O71646   4.645   8.659   5.558 -0.1524  0.5798 -0.0561
  520MOL0     C71647   4.766   8.593   5.538  1.4415 -0.3955  0.3170
  520MOL0     C71648   4.853   8.596   5.648  0.0945 -0.0138 -0.1971
  520MOL0     C71649   4.985   8.555   5.637 -0.6865 -1.3765 -0.3434
  520MOL0     C71650   5.080   8.597   5.746 -0.3983  0.7049  0.3503
  520MOL0     C71651   5.034   8.506   5.517 -0.4579 -0.3022  0.5689
  520MOL0     C71652   5.179   8.483   5.490 -1.2445  0.1726  0.6539
  520MOL0     O71653   5.235   8.524   5.368  0.0905 -0.0336 -0.1778
  520MOL0     C71654   5.370   8.537   5.367 -0.1416  0.8384 -0.2712
  520MOL0     C71655   5.447   8.422   5.354 -0.0302 -0.3781 -0.0291
  520MOL0     C71656   5.586   8.433   5.374 -0.3293  0.2303  0.2401
  520MOL0     C71657   5.648   8.547   5.408 -0.5974 -0.3725  0.1334
  520MOL0     O71658   5.788   8.537   5.431 -0.0032  1.2708  0.2163
  520MOL0     C71659   5.847   8.617   5.532 -0.8771 -0.7110 -0.2885
  520MOL0     C71660   5.951   8.541   5.599  0.5506 -0.2836 -0.2795
  520MOL0     C71661   5.910   8.426   5.689 -0.1162 -0.4272  0.2822
  520MOL0     C71662   6.038   8.331   5.727 -0.0087 -0.9558  0.5964
  520MOL0     C71663   6.114   8.270   5.605  0.0495  0.7783 -0.7948
  520MOL0     C71664   6.173   8.133   5.625 -0.3637  0.6318  0.3489
  520MOL0     C71665   6.269   8.131   5.752 -0.2390  0.2406  0.1627
  520MOL0     C71666   6.347   8.003   5.756 -0.1032  0.5099 -0.2772
  520MOL0    Cl71667   6.247   7.869   5.836  0.0531  0.1170  0.3095
  520MOL0     C71668   5.573   8.668   5.425  0.8227  0.4327  1.1352
  520MOL0     C71669   5.437   8.659   5.404  0.2938  0.5927 -0.1594
  520MOL0     O71670   5.240   8.425   5.580  0.1943 -0.4545  0.7837
  520MOL0     C71671   4.935   8.498   5.411  0.0200  0.0123 -0.2682
  520MOL0     C71672   4.806   8.527   5.424 -0.0659  0.4034  0.4652
  520MOL0     N71673   4.003   8.516   5.320 -0.3012 -0.7652  0.7592
  520MOL0     N71674   3.893   8.566   5.352 -0.1270  0.0191  0.6087
  520MOL0     C71675   3.177   8.130   4.842  0.2592 -0.1399  0.6052
  520MOL0     C71676   3.041   8.104   4.835  0.3970  0.1901  0.1861
  520MOL0     C71677   2.598   8.008   4.940 -0.2385  1.0069  0.6130
  520MOL0     C71678   2.594   7.995   4.796 -0.8326 -0.6934  1.0262
  520MOL0     C71679   2.470   7.995   4.723  0.8645  0.5105 -0.8779
  520MOL0     C71680   2.350   8.010   4.802 -1.3048  0.2294 -0.5320
  520MOL0     O71681   2.223   8.028   4.755  0.4001 -0.1493  0.6617
  520MOL0     C71682   2.211   8.043   4.610  0.7711  0.1142  0.6119
  520MOL0     C71683   2.095   8.121   4.562 -0.0226  0.3587 -0.4807
  520MOL0     C71684   1.965   8.061   4.620 -0.7641  0.3226  0.4310
  520MOL0     C71685   1.852   8.158   4.591 -0.9335  0.1582  0.2709
  520MOL0     C71686   1.851   8.260   4.689  0.3625  0.4344  0.2005
  520MOL0     C71687   1.868   8.357   4.763  0.8069  0.2399  0.0762
  520MOL0     C71688   2.360   8.006   4.933 -0.5252 -0.3454  0.6798
  520MOL0     C71689   2.479   8.010   5.007  0.0001  0.3021 -1.5247
  520MOL0     C71690   2.459   8.010   5.157  0.2423  0.2522  0.4891
  520MOL0     H71691   3.019   7.934   5.137  1.1055 -1.4667  0.0641
  520MOL0     H71692   3.269   7.977   5.129 -0.8873 -2.8733 -1.2846
  520MOL0     H71693   3.555   8.198   5.042  0.2615 -1.0284  0.1284
  520MOL0     H71694   3.453   8.090   5.149 -2.1597 -1.6227 -0.1503
  520MOL0     H71695   3.390   8.378   5.052 -1.1806 -1.2841 -2.6215
  520MOL0     H71696   3.300   8.270   5.162  0.7878 -2.1783 -0.5451
  520MOL0     H71697   3.546   8.259   5.282 -0.2306  0.6975  3.6015
  520MOL0     H71698   3.565   8.421   5.213 -0.3889  1.0332  0.1912
  520MOL0     H71699   3.346   8.470   5.356  0.7651  0.8608  2.5072
  520MOL0     H71700   3.343   8.297   5.377 -0.4097 -0.9598 -1.6613
  520MOL0     H71701   3.551   8.309   5.506 -0.8712 -0.6935  0.7583
  520MOL0     H71702   3.429   8.406   5.577  1.2560  1.6275  1.1468
  520MOL0     H71703   3.648   8.516   5.386 -1.2188 -0.6672 -1.3701
  520MOL0     H71704   3.507   8.600   5.459 -0.4475  0.0129  0.4680
  520MOL0     H71705   3.724   8.464   5.622  0.4726 -0.3418 -1.0305
  520MOL0     H71706   3.608   8.597   5.661 -2.3919 -3.0229  0.1213
  520MOL0     H71707   3.723   8.737   5.485 -0.7302 -0.3797 -0.6422
  520MOL0     H71708   3.830   8.701   5.621  0.0934 -2.9012  0.2226
  520MOL0     H71709   4.018   8.556   5.649  0.4579  0.2144  0.1802
  520MOL0     H71710   4.237   8.389   5.368  1.7239  0.1122  0.1754
  520MOL0     H71711   4.235   8.393   5.544 -0.8688 -1.1805 -0.9568
  520MOL0     H71712   4.278   8.651   5.374 -4.2339 -2.4428 -0.6207
  520MOL0     H71713   4.279   8.643   5.549  1.0103  1.1811 -0.2558
  520MOL0     H71714   4.478   8.485   5.528  1.7188  1.2213 -0.8051
  520MOL0     H71715   4.480   8.506   5.358  3.3852 -1.3964  0.6917
  520MOL0     H71716   4.602   8.684   5.367  0.4533  1.2347  1.2288
  520MOL0     H71717   4.494   8.765   5.488  2.3727  0.7620  6.5795
  520MOL0     H71718   4.836   8.658   5.735 -1.2920  1.5917 -1.5391
  520MOL0     H71719   5.019   8.646   5.822 -2.5241 -5.4596  3.3281
  520MOL0     H71720   5.153   8.665   5.702  0.7074 -0.3335  0.5327
  520MOL0     H71721   5.118   8.502   5.785 -2.2227  0.0264  0.6084
  520MOL0     H71722   5.407   8.322   5.346 -1.2190 -0.1028  1.9316
  520MOL0     H71723   5.650   8.346   5.364  0.5393  1.0549 -2.5568
  520MOL0     H71724   5.900   8.705   5.494 -0.7683 -0.0145  1.4068
  520MOL0     H71725   5.773   8.666   5.595  0.4742 -0.3142  1.0670
  520MOL0     H71726   6.021   8.504   5.524  0.2555 -1.0448 -0.1885
  520MOL0     H71727   6.016   8.599   5.666  0.8681 -1.0349  0.0739
  520MOL0     H71728   5.842   8.364   5.630  1.8773 -2.7905  0.2932
  520MOL0     H71729   5.849   8.462   5.773  0.3175  0.9332  0.0429
  520MOL0     H71730   6.009   8.248   5.792  0.4386 -0.0552  1.9680
  520MOL0     H71731   6.100   8.395   5.790 -0.6142  1.3335 -1.0157
  520MOL0     H71732   6.050   8.251   5.519 -0.1543 -0.3201 -0.4192
  520MOL0     H71733   6.187   8.345   5.573  0.5344  1.6354  2.0572
  520MOL0     H71734   6.235   8.121   5.536 -1.8154  0.9022 -0.7320
  520MOL0     H71735   6.102   8.050   5.626 -1.1722  1.3120  1.9174
  520MOL0     H71736   6.204   8.149   5.837 -2.0368  0.2544 -1.1528
  520MOL0     H71737   6.343   8.204   5.717  0.3213 -1.0128 -1.4352
  520MOL0     H71738   6.425   8.016   5.833 -1.2105  0.5473  0.8786
  520MOL0     H71739   6.390   7.978   5.659  0.8023  2.1035 -0.3126
  520MOL0     H71740   5.618   8.765   5.444 -1.8862  2.0906 -0.2541
  520MOL0     H71741   5.371   8.744   5.420  0.1802  0.6383 -0.8316
  520MOL0     H71742   4.970   8.461   5.316  2.5293 -1.6252  1.1638
  520MOL0     H71743   4.745   8.535   5.335 -0.5860  3.1857  0.9630
  520MOL0     H71744   3.214   8.189   4.758  0.0973 -2.0663 -0.8786
  520MOL0     H71745   2.994   8.156   4.752  1.3181  0.7382 -0.0093
  520MOL0     H71746   2.677   7.983   4.727 -2.0728 -0.5809 -0.5434
  520MOL0     H71747   2.481   8.007   4.616  0.6253 -1.3425 -1.1456
  520MOL0     H71748   2.294   8.097   4.565 -0.0454  0.2582 -0.7786
  520MOL0     H71749   2.208   7.944   4.565  0.0549  1.2438 -2.0310
  520MOL0     H71750   2.079   8.141   4.456 -0.8921 -0.4399 -0.5195
  520MOL0     H71751   2.108   8.220   4.607  2.0692 -0.5456  1.0897
  520MOL0     H71752   1.955   7.965   4.570  2.2680  0.0564  0.1461
  520MOL0     H71753   1.967   8.050   4.729  0.6370  0.2991  0.4188
  520MOL0     H71754   1.760   8.099   4.581  0.5121 -1.9933 -1.1653
  520MOL0     H71755   1.877   8.202   4.494  1.0323  0.9903  1.1000
  520MOL0     H71756   1.892   8.446   4.818  2.4581 -0.8089  1.1312
  520MOL0     H71757   2.264   7.997   4.983  0.9242 -2.6458  3.3941
  520MOL0     H71758   2.549   8.043   5.209  0.5039 -1.8063  1.4117
  520MOL0     H71759   2.371   8.071   5.182 -0.5348  0.4692 -2.3961
  520MOL0     H71760   2.444   7.905   5.185  0.4942  1.1534  4.7173
  521MOL0     O71761   0.515   3.924   5.377  0.6644  0.2274 -0.1656
  521MOL0     C71762   0.515   3.866   5.267 -0.0549 -0.4884 -0.4086
  521MOL0     O71763   0.446   3.756   5.228  0.3545  0.0213 -0.1884
  521MOL0     C71764   0.359   3.696   5.329 -0.2811 -0.3729  0.8251
  521MOL0     C71765   0.232   3.673   5.299  0.5231  0.9380  0.0291
  521MOL0     C71766   0.146   3.601   5.384 -0.2912  0.8118 -0.2133
  521MOL0     C71767   0.190   3.543   5.502 -0.3400  1.0887  0.9024
  521MOL0     O71768   0.122   3.443   5.568  0.0482  0.2184  0.1541
  521MOL0     C71769   0.070   3.487   5.692  0.0521 -0.1823 -0.5909
  521MOL0     C71770   0.020   3.374   5.789 -0.4896 -0.5276  0.9163
  521MOL0     C71771  -0.060   3.439   5.909 -0.5215  0.2230  0.2879
  521MOL0     C71772  -0.113   3.328   5.994  0.3159 -0.1479 -0.1468
  521MOL0     C71773  -0.165   3.374   6.125 -0.2369  0.8092 -0.4318
  521MOL0     C71774  -0.246   3.266   6.182  0.0783  0.8154  0.2025
  521MOL0     C71775  -0.281   3.296   6.327 -0.1238  0.2021 -0.1597
  521MOL0     C71776  -0.374   3.409   6.354 -0.8040 -0.8215 -0.7400
  521MOL0     N71777  -0.389   3.421   6.504  0.2069  0.3556  0.8955
  521MOL0     C71778  -0.389   3.532   6.581 -0.1632  0.6344  1.3650
  521MOL0     C71779  -0.440   3.514   6.702 -0.4606  0.1067  0.3358
  521MOL0     C71780  -0.436   3.626   6.799  0.0498  1.0211 -0.4346
  521MOL0     C71781  -0.519   3.625   6.926  0.2853 -0.2222  1.0834
  521MOL0     C71782  -0.452   3.594   7.063 -0.0869  0.6414  0.7562
  521MOL0     C71783  -0.547   3.537   7.162 -0.9059  0.3651 -0.8593
  521MOL0     O71784  -0.667   3.598   7.196 -0.1065 -0.5804  0.9033
  521MOL0     C71785  -0.750   3.537   7.295  0.1640 -0.4515  0.0034
  521MOL0     C71786  -0.716   3.542   7.430 -0.3045  0.0755 -0.0856
  521MOL0     C71787  -0.795   3.494   7.528 -0.0767 -0.4126  0.2391
  521MOL0     C71788  -0.740   3.506   7.666 -0.3404  0.8117  0.0637
  521MOL0     C71789  -0.921   3.431   7.492  0.4608  0.5046 -0.8836
  521MOL0     C71790  -1.016   3.364   7.593  1.0156 -0.9097  0.5748
  521MOL0     O71791  -0.984   3.369   7.735  0.3088  0.4192  0.6453
  521MOL0     C71792  -1.050   3.287   7.823  0.6431  0.4062  0.7793
  521MOL0     C71793  -0.974   3.197   7.909  1.7087 -0.7299 -1.1138
  521MOL0     C71794  -1.039   3.109   7.991  0.1070  0.2813  0.3686
  521MOL0     C71795  -1.188   3.122   8.005  0.1763  0.1324  0.4975
  521MOL0     O71796  -1.248   3.028   8.088  0.3817  0.6823 -0.8046
  521MOL0     C71797  -1.389   3.009   8.075  0.9472 -0.1341  0.1604
  521MOL0     C71798  -1.461   3.090   8.187 -0.3423 -0.2807  0.1247
  521MOL0     C71799  -1.417   3.031   8.329  0.0529 -0.6313 -0.7505
  521MOL0     C71800  -1.473   3.118   8.441  0.6686 -1.4460 -0.0804
  521MOL0     C71801  -1.429   3.083   8.576  1.4149  0.5742 -0.1430
  521MOL0     C71802  -1.481   3.189   8.672  0.8819  0.1356 -0.5270
  521MOL0     C71803  -1.478   3.153   8.825 -0.0624 -0.0154 -0.3931
  521MOL0     C71804  -1.345   3.120   8.890 -0.7453  0.4545  0.4128
  521MOL0    Cl71805  -1.328   2.940   8.905 -0.3433 -0.0856 -0.5404
  521MOL0     C71806  -1.253   3.218   7.922  0.5412 -0.7269  0.4629
  521MOL0     C71807  -1.181   3.296   7.836 -0.4024 -1.0237  0.5459
  521MOL0     O71808  -1.116   3.310   7.552 -0.5874  0.1534  1.3065
  521MOL0     C71809  -0.949   3.414   7.358  0.3990  0.4914  0.3113
  521MOL0     C71810  -0.866   3.463   7.260  0.0083 -0.5769  0.3228
  521MOL0     N71811  -0.461   3.378   6.707  0.2148 -0.2239 -0.5343
  521MOL0     N71812  -0.448   3.331   6.588 -0.1902 -0.2782 -0.4592
  521MOL0     C71813   0.323   3.551   5.521 -0.7998  0.3281 -0.0411
  521MOL0     C71814   0.411   3.624   5.435  0.4141  0.8959 -0.7785
  521MOL0     C71815   0.596   3.920   5.155  1.2925 -0.6225 -0.1569
  521MOL0     C71816   0.539   3.923   5.023 -0.1581 -0.2191  0.0779
  521MOL0     C71817   0.601   3.992   4.923  0.4205 -0.5238 -0.6735
  521MOL0     C71818   0.718   4.064   4.950 -0.3346 -0.3151 -0.6672
  521MOL0     O71819   0.768   4.144   4.849 -0.1866  1.1168  0.0174
  521MOL0     C71820   0.878   4.227   4.880 -0.0733 -0.5880  0.4588
  521MOL0     C71821   0.926   4.301   4.751 -0.0324 -0.0850 -1.1349
  521MOL0     C71822   1.063   4.360   4.774  0.4425 -0.1804 -0.4615
  521MOL0     C71823   1.170   4.268   4.715 -1.3573 -0.8187  0.1104
  521MOL0     C71824   1.302   4.327   4.751  0.4417 -0.1326  0.3748
  521MOL0     C71825   1.415   4.368   4.770 -0.0592  0.4103  0.3175
  521MOL0     C71826   0.774   4.053   5.078  0.4712  0.0595  1.1224
  521MOL0     C71827   0.712   3.988   5.183 -0.7174 -0.7735  0.3448
  521MOL0     C71828   0.797   3.982   5.313  0.4507  0.3539  0.1289
  521MOL0     H71829   0.188   3.722   5.213 -2.5495  2.6383  2.3744
  521MOL0     H71830   0.043   3.587   5.353  0.2982 -1.3029 -1.3885
  521MOL0     H71831  -0.014   3.552   5.667  0.1743  0.3968  0.4525
  521MOL0     H71832   0.152   3.539   5.744 -2.6957  4.1831 -0.1208
  521MOL0     H71833  -0.043   3.304   5.734  1.1586  1.6749 -4.3589
  521MOL0     H71834   0.110   3.326   5.826  2.5887  4.0981  0.3336
  521MOL0     H71835   0.020   3.489   5.965  2.4534  1.2602 -4.3078
  521MOL0     H71836  -0.134   3.513   5.878  0.0947  0.2638 -1.1478
  521MOL0     H71837  -0.192   3.285   5.932  1.2121 -0.8414 -0.8415
  521MOL0     H71838  -0.040   3.249   6.016  1.8584  1.4916  0.9590
  521MOL0     H71839  -0.222   3.467   6.121 -3.6542 -1.1200 -0.4235
  521MOL0     H71840  -0.072   3.390   6.180  0.3386  1.6697 -1.5844
  521MOL0     H71841  -0.329   3.256   6.112 -1.7458  3.9899  1.6488
  521MOL0     H71842  -0.195   3.170   6.184 -2.1313 -0.4820  3.1824
  521MOL0     H71843  -0.189   3.314   6.382 -0.6992 -1.7390  1.5676
  521MOL0     H71844  -0.321   3.206   6.375  1.0010  0.0362  0.4996
  521MOL0     H71845  -0.334   3.505   6.319 -0.2869 -0.3876  0.9454
  521MOL0     H71846  -0.476   3.397   6.315 -1.3901 -1.6614  0.9632
  521MOL0     H71847  -0.356   3.625   6.536  0.8036 -0.1632  0.3717
  521MOL0     H71848  -0.465   3.716   6.744  1.9430  1.2815 -1.0921
  521MOL0     H71849  -0.333   3.633   6.836  0.0212 -2.4280  0.6415
  521MOL0     H71850  -0.563   3.725   6.936 -3.1241 -1.3991 -0.6070
  521MOL0     H71851  -0.607   3.560   6.921  1.3664 -1.6896  0.6220
  521MOL0     H71852  -0.364   3.537   7.033 -0.5959  1.2041 -2.2012
  521MOL0     H71853  -0.415   3.694   7.088 -2.0152  1.8730 -0.8962
  521MOL0     H71854  -0.571   3.441   7.115  1.8957 -0.1424 -1.4290
  521MOL0     H71855  -0.480   3.516   7.246  0.7148  4.2066 -0.9711
  521MOL0     H71856  -0.618   3.588   7.437 -1.3675  2.5100 -0.3818
  521MOL0     H71857  -0.638   3.546   7.670  0.5021 -1.2462  0.5849
  521MOL0     H71858  -0.743   3.406   7.712  3.8788 -1.5466 -3.9494
  521MOL0     H71859  -0.808   3.567   7.726 -2.0686  1.3654 -2.3492
  521MOL0     H71860  -0.866   3.192   7.899  2.1085  0.3149  1.8692
  521MOL0     H71861  -0.980   3.037   8.047 -0.6783 -1.6819 -1.2176
  521MOL0     H71862  -1.425   3.051   7.981  3.5052  4.3379  0.8804
  521MOL0     H71863  -1.414   2.902   8.079 -0.6366  0.0005 -2.9756
  521MOL0     H71864  -1.427   3.194   8.192 -1.2853  0.0866 -0.7142
  521MOL0     H71865  -1.570   3.096   8.180 -0.4931  0.4536  2.3480
  521MOL0     H71866  -1.309   3.044   8.331 -0.2599  2.9951  1.1744
  521MOL0     H71867  -1.456   2.930   8.343 -0.9261 -0.1927 -0.1807
  521MOL0     H71868  -1.583   3.120   8.438  0.6685  0.6312 -0.2555
  521MOL0     H71869  -1.451   3.223   8.418 -0.2784 -1.2874 -0.3054
  521MOL0     H71870  -1.472   2.988   8.610  0.3983  1.1670  0.2729
  521MOL0     H71871  -1.321   3.076   8.558  1.4740  3.3772 -1.3833
  521MOL0     H71872  -1.584   3.219   8.653  0.8995  1.1445  0.7918
  521MOL0     H71873  -1.413   3.275   8.665  3.7650 -1.7681  1.4422
  521MOL0     H71874  -1.534   3.060   8.836  0.9109 -0.4324  1.4061
  521MOL0     H71875  -1.530   3.232   8.879  0.5393 -1.2306  2.1322
  521MOL0     H71876  -1.337   3.168   8.988 -2.0483  0.6511  0.4395
  521MOL0     H71877  -1.265   3.163   8.829 -1.5142  0.7253 -0.4319
  521MOL0     H71878  -1.359   3.239   7.931  0.9079  0.6744  1.8916
  521MOL0     H71879  -1.246   3.366   7.784  0.2469  0.6456  1.8927
  521MOL0     H71880  -1.033   3.354   7.325  2.1007 -0.8557 -1.7412
  521MOL0     H71881  -0.902   3.464   7.157 -0.4940  1.3947  0.4782
  521MOL0     H71882   0.353   3.480   5.598 -1.7067 -1.9488 -1.6674
  521MOL0     H71883   0.517   3.614   5.455  0.1088 -1.0463  0.0091
  521MOL0     H71884   0.448   3.868   5.002 -1.4787  1.8309  0.1025
  521MOL0     H71885   0.559   4.013   4.826 -1.3696  0.9774  0.3681
  521MOL0     H71886   0.835   4.289   4.959 -1.9754 -3.0259  1.4970
  521MOL0     H71887   0.966   4.172   4.913  0.5140 -0.5276 -0.9529
  521MOL0     H71888   0.854   4.381   4.733  1.7464  2.2195  1.2981
  521MOL0     H71889   0.938   4.236   4.664  0.8312  1.7802 -2.4770
  521MOL0     H71890   1.081   4.453   4.721 -0.4204  0.7318  0.7748
  521MOL0     H71891   1.073   4.384   4.880 -0.3469 -1.7811  0.0123
  521MOL0     H71892   1.175   4.262   4.606 -0.2902 -2.1627  0.2074
  521MOL0     H71893   1.154   4.164   4.745  0.3586 -0.8192  1.0943
  521MOL0     H71894   1.509   4.412   4.797  1.0362 -3.2342  3.2828
  521MOL0     H71895   0.863   4.113   5.093  0.3021  1.1531 -1.6446
  521MOL0     H71896   0.905   3.990   5.302  0.1192  1.7130 -3.0359
  521MOL0     H71897   0.769   4.064   5.380  0.4955  1.4850 -1.1929
  521MOL0     H71898   0.775   3.892   5.372 -0.6778  0.1479 -0.5746
  522MOL0     O71899   0.360   4.987   5.188 -0.0627 -0.7285  0.5196
  522MOL0     C71900   0.243   5.028   5.211 -0.6802  0.4334  0.4169
  522MOL0     O71901   0.174   5.001   5.321 -0.3713  0.0787  0.9328
  522MOL0     C71902   0.235   4.936   5.428  1.1253 -0.8367 -0.4013
  522MOL0     C71903   0.270   4.803   5.431  0.0016  0.6964 -0.0568
  522MOL0     C71904   0.325   4.732   5.541 -0.1373  0.3942 -0.0449
  522MOL0     C71905   0.365   4.807   5.650  0.0990  0.3072 -0.1281
  522MOL0     O71906   0.428   4.753   5.763 -0.0147 -0.6776 -0.3454
  522MOL0     C71907   0.392   4.813   5.898 -0.1228  0.5176  0.6947
  522MOL0     C71908   0.386   4.695   5.991 -0.2980  0.9177 -0.5704
  522MOL0     C71909   0.318   4.728   6.127  0.1362 -0.4531  0.7540
  522MOL0     C71910   0.312   4.609   6.217  0.5851  1.4318 -0.3418
  522MOL0     C71911   0.368   4.653   6.348  0.4530 -1.4191  0.0237
  522MOL0     C71912   0.288   4.762   6.423 -0.2030 -0.4518 -0.1408
  522MOL0     C71913   0.192   4.711   6.530 -0.5196 -0.2387 -0.8209
  522MOL0     C71914   0.057   4.650   6.468 -0.7032  0.0441 -0.3728
  522MOL0     N71915  -0.005   4.552   6.551  0.4869 -0.4144 -0.2104
  522MOL0     C71916  -0.035   4.421   6.507  1.7719 -0.2633 -0.1334
  522MOL0     C71917  -0.101   4.363   6.610 -0.2985  0.0570 -0.2500
  522MOL0     C71918  -0.158   4.222   6.618 -0.2098  0.1346  0.7280
  522MOL0     C71919  -0.193   4.179   6.756  0.1167 -0.7174 -0.2925
  522MOL0     C71920  -0.215   4.027   6.760 -0.1976  0.3286  0.4863
  522MOL0     C71921  -0.159   3.980   6.905 -0.0789  0.0175 -0.8105
  522MOL0     O71922  -0.216   4.063   7.006 -0.3912 -0.3164 -0.0274
  522MOL0     C71923  -0.169   4.040   7.136 -0.4185 -0.0758 -0.4541
  522MOL0     C71924  -0.211   4.122   7.239 -0.0670  0.4969 -0.0468
  522MOL0     C71925  -0.183   4.097   7.367 -0.3439 -0.7419 -0.3416
  522MOL0     C71926  -0.246   4.181   7.470  0.1338 -0.1474 -0.3503
  522MOL0     C71927  -0.100   3.989   7.406  0.2886  0.2258  0.8517
  522MOL0     C71928  -0.049   3.960   7.539  0.6267 -1.4281  0.0958
  522MOL0     O71929   0.056   3.879   7.533  0.3519  0.1569 -0.0921
  522MOL0     C71930   0.110   3.831   7.647 -1.0126 -0.6856 -0.2528
  522MOL0     C71931   0.040   3.747   7.738  0.7126  0.2911 -0.1432
  522MOL0     C71932   0.108   3.710   7.857 -0.0837  0.9869  0.2047
  522MOL0     C71933   0.232   3.766   7.890  0.2535  0.3165  0.6983
  522MOL0     O71934   0.302   3.731   8.002 -0.2317  0.2471 -0.1849
  522MOL0     C71935   0.238   3.655   8.114 -0.0760  1.0000  0.7355
  522MOL0     C71936   0.315   3.670   8.241 -0.0368 -0.1614  0.3547
  522MOL0     C71937   0.475   3.641   8.215 -0.4444  0.6208 -0.2358
  522MOL0     C71938   0.543   3.688   8.346  0.1774 -0.6476  0.5843
  522MOL0     C71939   0.692   3.719   8.338  0.3429 -0.3703  0.5459
  522MOL0     C71940   0.767   3.626   8.238  0.2780  0.2155  0.3507
  522MOL0     C71941   0.919   3.642   8.248 -0.3406 -0.3533  0.1980
  522MOL0     C71942   0.989   3.567   8.141 -0.2191  0.8902 -0.3146
  522MOL0    Cl71943   0.978   3.699   8.011 -0.3787  0.5790 -0.2556
  522MOL0     C71944   0.293   3.849   7.803 -0.7382  0.3475  0.6973
  522MOL0     C71945   0.235   3.883   7.679  0.5370 -0.5492  0.4244
  522MOL0     O71946  -0.100   4.012   7.640 -0.1502  0.7681  0.7022
  522MOL0     C71947  -0.077   3.889   7.306 -0.4639 -1.0701 -0.7221
  522MOL0     C71948  -0.093   3.929   7.173  0.3093 -0.5455  0.0397
  522MOL0     N71949  -0.135   4.472   6.691 -0.7296  0.8697 -1.1337
  522MOL0     N71950  -0.075   4.584   6.662 -0.6172 -0.3736 -0.3709
  522MOL0     C71951   0.326   4.943   5.652  0.4679  0.9571  0.2246
  522MOL0     C71952   0.261   5.013   5.552 -0.9455 -0.1996 -0.0959
  522MOL0     C71953   0.178   5.118   5.114  0.2109 -1.2923 -0.0405
  522MOL0     C71954   0.040   5.147   5.118 -0.2278  0.2239  0.2489
  522MOL0     C71955  -0.037   5.217   5.026  0.4083  0.4724  1.4665
  522MOL0     C71956   0.027   5.287   4.919 -0.1287 -0.0379  0.3630
  522MOL0     O71957  -0.058   5.342   4.822 -0.0054 -0.3529 -1.2484
  522MOL0     C71958  -0.015   5.384   4.699 -0.8222  0.3303 -0.2311
  522MOL0     C71959  -0.049   5.272   4.600  0.5132 -0.5887 -0.1486
  522MOL0     C71960   0.032   5.280   4.465  0.1604  0.4762 -0.5520
  522MOL0     C71961  -0.017   5.177   4.352 -0.7410 -0.6278  0.7266
  522MOL0     C71962   0.000   5.041   4.406 -0.8086 -0.4138  0.0570
  522MOL0     C71963   0.002   4.927   4.462  0.1942 -0.5071  0.0284
  522MOL0     C71964   0.169   5.284   4.919 -0.0112 -0.3077  0.5933
  522MOL0     C71965   0.242   5.196   5.012  0.1478  0.5621 -0.3812
  522MOL0     C71966   0.391   5.191   4.991 -0.2846  0.4365 -1.0607
  522MOL0     H71967   0.231   4.758   5.340 -2.1306 -0.7261  1.4798
  522MOL0     H71968   0.348   4.626   5.537  0.8930  0.4133  2.9856
  522MOL0     H71969   0.295   4.864   5.896 -0.3678  0.1405 -2.8381
  522MOL0     H71970   0.463   4.888   5.932  0.6196  0.8471 -1.4208
  522MOL0     H71971   0.328   4.618   5.940 -1.6998  2.8617 -2.0583
  522MOL0     H71972   0.485   4.656   6.018  0.0791  0.5021 -2.4049
  522MOL0     H71973   0.363   4.817   6.172  2.0433 -0.3489 -1.2056
  522MOL0     H71974   0.214   4.754   6.105  0.7545  0.5291 -1.2158
  522MOL0     H71975   0.206   4.584   6.224  0.6049  1.0840 -1.2262
  522MOL0     H71976   0.366   4.525   6.172 -1.1608 -0.3354  0.6735
  522MOL0     H71977   0.473   4.683   6.344 -0.2454  1.3216  0.0338
  522MOL0     H71978   0.364   4.560   6.405 -0.6998 -2.5243 -1.7468
  522MOL0     H71979   0.358   4.829   6.474  0.7567  0.6579 -2.7448
  522MOL0     H71980   0.227   4.817   6.350 -0.6016  0.4800  0.8531
  522MOL0     H71981   0.167   4.785   6.607 -0.5711 -2.1981  1.1481
  522MOL0     H71982   0.242   4.635   6.590 -1.0965  0.9346  1.2327
  522MOL0     H71983  -0.008   4.731   6.435 -0.1398  0.3993 -0.6278
  522MOL0     H71984   0.090   4.586   6.385  0.0527 -3.7548  2.5727
  522MOL0     H71985   0.004   4.372   6.418  0.0264 -1.3608 -0.3255
  522MOL0     H71986  -0.081   4.158   6.575 -1.6511 -1.1280 -0.0391
  522MOL0     H71987  -0.247   4.216   6.555  1.1031  2.8357 -1.6260
  522MOL0     H71988  -0.106   4.203   6.819 -0.7555 -1.7900  1.3787
  522MOL0     H71989  -0.277   4.238   6.795  0.3089 -0.5507 -0.1237
  522MOL0     H71990  -0.317   3.988   6.760  0.8546 -2.6835 -1.1083
  522MOL0     H71991  -0.158   3.976   6.683  0.3062  0.4187  0.7985
  522MOL0     H71992  -0.183   3.874   6.916  4.6622 -1.1756  0.2777
  522MOL0     H71993  -0.051   3.994   6.903 -0.2650  1.9766  0.3476
  522MOL0     H71994  -0.262   4.212   7.206  0.3341  0.9059  0.4223
  522MOL0     H71995  -0.326   4.127   7.520  1.7225 -1.1268  1.2403
  522MOL0     H71996  -0.289   4.271   7.424 -0.1790  2.8956  4.9921
  522MOL0     H71997  -0.183   4.220   7.551 -3.3059  2.0853  1.5135
  522MOL0     H71998  -0.057   3.705   7.717  0.1338  0.7417  1.4346
  522MOL0     H71999   0.060   3.634   7.918 -0.4707 -0.5623 -1.9307
  522MOL0     H72000   0.131   3.680   8.112 -0.0994  1.0491 -2.0467
  522MOL0     H72001   0.247   3.550   8.088 -0.3839  0.7499  1.6117
  522MOL0     H72002   0.302   3.774   8.271 -2.3216 -0.7444  1.6486
  522MOL0     H72003   0.276   3.599   8.315 -2.4971  0.2718 -0.4594
  522MOL0     H72004   0.512   3.695   8.127  0.3168  1.2502  0.4558
  522MOL0     H72005   0.494   3.534   8.204 -3.0121 -0.3852  3.3975
  522MOL0     H72006   0.528   3.604   8.414  4.4833  0.8881  3.8708
  522MOL0     H72007   0.489   3.773   8.388  2.7535  0.8959  0.9895
  522MOL0     H72008   0.701   3.824   8.308  1.5431 -0.7783 -0.6001
  522MOL0     H72009   0.737   3.721   8.438 -0.0416  1.4995  0.7303
  522MOL0     H72010   0.723   3.647   8.139 -0.1296 -0.5109  0.3720
  522MOL0     H72011   0.742   3.520   8.247 -1.6772  0.1754 -3.4947
  522MOL0     H72012   0.943   3.605   8.348  1.0086 -2.0960 -0.7197
  522MOL0     H72013   0.949   3.747   8.254  1.4220 -0.8463  0.6774
  522MOL0     H72014   0.935   3.476   8.112 -1.9413  0.7544  2.8337
  522MOL0     H72015   1.094   3.538   8.154 -0.5222  0.1309  0.6346
  522MOL0     H72016   0.391   3.884   7.832 -0.7357 -1.1127  2.6146
  522MOL0     H72017   0.281   3.935   7.596  3.0475 -1.6018  1.0682
  522MOL0     H72018  -0.016   3.800   7.313  2.3088  0.5976 -2.2289
  522MOL0     H72019  -0.071   3.848   7.104  0.5793 -2.8864  2.6756
  522MOL0     H72020   0.325   5.002   5.742 -1.2086 -2.9542  3.0732
  522MOL0     H72021   0.234   5.117   5.568  0.6030  0.5446 -1.8418
  522MOL0     H72022  -0.019   5.095   5.193 -0.3838  0.5170  0.3290
  522MOL0     H72023  -0.143   5.237   5.034  0.2234 -0.5819  1.8847
  522MOL0     H72024  -0.067   5.469   4.656  0.2970  0.1330 -2.0686
  522MOL0     H72025   0.093   5.398   4.711 -1.0970  3.3905 -0.7099
  522MOL0     H72026  -0.153   5.293   4.574  0.7049  0.8295  0.1860
  522MOL0     H72027  -0.044   5.167   4.631 -1.7984 -0.0157  2.5241
  522MOL0     H72028   0.024   5.379   4.419 -0.4305 -0.9243 -3.7316
  522MOL0     H72029   0.138   5.260   4.484 -0.6029 -3.1379  0.6919
  522MOL0     H72030   0.042   5.181   4.260 -0.8369 -2.2256  0.5629
  522MOL0     H72031  -0.119   5.210   4.332 -0.1070  1.9863  1.4622
  522MOL0     H72032  -0.002   4.835   4.517 -1.4407 -0.0686  0.6972
  522MOL0     H72033   0.227   5.331   4.840 -1.5758  0.7025 -0.0167
  522MOL0     H72034   0.431   5.210   5.091 -0.8495  1.7456 -1.0695
  522MOL0     H72035   0.430   5.102   4.941 -0.4263 -1.2124  1.5925
  522MOL0     H72036   0.420   5.278   4.932  1.5122  0.1290 -0.6981
  523MOL0     O72037  10.763  10.744   6.217 -0.4809 -0.6132  0.1721
  523MOL0     C72038  10.782  10.755   6.101 -0.2229 -0.7757  1.1714
  523MOL0     O72039  10.690  10.765   6.000  0.4569  0.1256 -0.3676
  523MOL0     C72040  10.582  10.677   6.000 -0.0378 -0.9607  0.0666
  523MOL0     C72041  10.496  10.702   5.899 -0.1270 -0.5097  0.1833
  523MOL0     C72042  10.379  10.626   5.882  0.5752  0.8317 -0.0291
  523MOL0     C72043  10.349  10.522   5.968 -0.4136  0.6402 -0.0882
  523MOL0     O72044  10.227  10.462   5.939 -0.3714 -0.1715  0.3385
  523MOL0     C72045  10.159  10.403   6.054  0.0209 -0.0518  0.2091
  523MOL0     C72046  10.014  10.367   6.007 -0.2593 -1.0299 -0.0628
  523MOL0     C72047   9.911  10.321   6.118 -0.1019 -0.0039  0.1545
  523MOL0     C72048   9.884  10.428   6.215 -0.1827  0.2653  0.8039
  523MOL0     C72049   9.801  10.375   6.339 -0.1235  0.3998  0.0300
  523MOL0     C72050   9.787  10.489   6.436  0.7009 -0.0626  0.6645
  523MOL0     C72051   9.866  10.453   6.566  0.4790  0.7481 -0.1912
  523MOL0     C72052   9.823  10.551   6.679 -0.6260  0.7397 -0.1680
  523MOL0     N72053   9.889  10.512   6.801  0.0394 -0.2693  0.1317
  523MOL0     C72054   9.830  10.422   6.891 -0.7332 -1.6167 -0.0203
  523MOL0     C72055   9.908  10.431   7.001 -0.3199  0.9264 -0.6933
  523MOL0     C72056   9.890  10.328   7.121  0.7971 -0.7808  0.2755
  523MOL0     C72057   9.910  10.180   7.070  0.2068  0.1686 -0.0755
  523MOL0     C72058   9.877  10.079   7.174  0.0454 -0.1345 -0.0088
  523MOL0     C72059   9.857   9.936   7.121 -0.3192 -0.1298 -0.0165
  523MOL0     O72060   9.949   9.880   7.021 -0.2128  0.3024  0.5042
  523MOL0     C72061   9.957   9.741   7.003 -1.0194 -0.6349  0.3669
  523MOL0     C72062   9.841   9.661   7.012 -0.2678  0.0461  0.4335
  523MOL0     C72063   9.855   9.515   6.996  0.3335  0.3331 -0.3987
  523MOL0     C72064   9.733   9.427   7.030  0.3166  0.8894 -0.4003
  523MOL0     C72065   9.985   9.461   6.963  0.0305 -0.4668  0.2866
  523MOL0     C72066  10.009   9.315   6.952 -0.2457  0.7363 -0.3462
  523MOL0     O72067  10.136   9.270   6.978 -0.1204  0.8940 -0.8472
  523MOL0     C72068  10.173   9.145   6.928  0.3474 -0.4537  0.7129
  523MOL0     C72069  10.225   9.145   6.798 -0.4922  0.4571  0.2747
  523MOL0     C72070  10.255   9.016   6.746  0.4227  0.5724  0.9527
  523MOL0     C72071  10.238   8.904   6.817  1.2280  0.2488 -0.7322
  523MOL0     O72072  10.231   8.781   6.746  1.0546  0.9634  0.0358
  523MOL0     C72073  10.144   8.681   6.802  0.2593 -0.7000  0.3848
  523MOL0     C72074  10.142   8.575   6.696  0.0766  0.3970 -0.8623
  523MOL0     C72075  10.091   8.606   6.556 -0.9316 -0.0133 -0.0762
  523MOL0     C72076  10.164   8.533   6.437 -0.3746 -0.3678  0.3077
  523MOL0     C72077  10.105   8.584   6.306 -0.7839 -0.6935 -0.1244
  523MOL0     C72078  10.152   8.497   6.191 -0.5935  0.1122  0.3452
  523MOL0     C72079  10.160   8.565   6.051 -0.6433 -0.8827  0.2526
  523MOL0     C72080  10.226   8.477   5.948 -0.7503  0.2756  0.3466
  523MOL0    Cl72081  10.111   8.350   5.897  0.6794 -0.5928 -0.5550
  523MOL0     C72082  10.216   8.913   6.951  0.0510  0.3213 -0.6036
  523MOL0     C72083  10.174   9.030   7.004  0.2256  0.0682  0.6289
  523MOL0     O72084   9.920   9.243   6.923 -0.2822 -0.2811  0.1402
  523MOL0     C72085  10.100   9.545   6.956  0.5054  0.6615 -0.0430
  523MOL0     C72086  10.082   9.686   6.960  0.2633  0.7994 -0.1303
  523MOL0     N72087  10.010  10.515   6.984  0.2266  0.0596  0.4559
  523MOL0     N72088   9.984  10.580   6.874 -0.1344 -0.2667  0.4780
  523MOL0     C72089  10.442  10.493   6.077 -0.4228  0.0330  0.5352
  523MOL0     C72090  10.556  10.572   6.091 -0.3311  0.4239  0.5336
  523MOL0     C72091  10.912  10.781   6.043  0.0375  0.1788  0.3215
  523MOL0     C72092  10.942  10.742   5.911  0.3610  0.4488 -0.3475
  523MOL0     C72093  11.067  10.780   5.850 -0.0675  0.6405 -0.3077
  523MOL0     C72094  11.158  10.863   5.919 -0.7937 -0.5852 -0.0259
  523MOL0     O72095  11.266  10.935   5.871  1.2807  0.8670  0.8235
  523MOL0     C72096  11.293  10.923   5.729  0.1568  0.2398 -0.4191
  523MOL0     C72097  11.433  10.985   5.692  0.8063  0.8124 -0.0185
  523MOL0     C72098  11.546  10.975   5.792 -0.6459 -0.6366  0.3578
  523MOL0     C72099  11.662  11.048   5.736 -0.0698 -0.5882  0.2647
  523MOL0     C72100  11.734  10.968   5.644  0.9688 -0.2197 -0.6001
  523MOL0     C72101  11.820  10.931   5.564 -0.9100 -0.9317  1.0728
  523MOL0     C72102  11.129  10.894   6.051  0.3325  0.7808  0.0587
  523MOL0     C72103  11.017  10.846   6.115  0.4407 -1.0622 -0.0721
  523MOL0     C72104  10.988  10.920   6.249  0.1826  0.3630  0.1949
  523MOL0     H72105  10.526  10.765   5.816  3.1042 -2.3269 -0.1831
  523MOL0     H72106  10.313  10.650   5.799  0.9652 -0.0849 -0.6257
  523MOL0     H72107  10.141  10.468   6.140  0.6409 -0.6026  0.7635
  523MOL0     H72108  10.208  10.313   6.090  1.2859  0.9940  1.2055
  523MOL0     H72109   9.977  10.449   5.947 -0.4541 -1.1807 -0.1471
  523MOL0     H72110  10.030  10.284   5.937  2.2592 -0.2637 -0.5255
  523MOL0     H72111   9.822  10.277   6.072  1.5970 -2.6711 -0.8172
  523MOL0     H72112   9.945  10.234   6.174 -2.0397 -0.5557  0.5246
  523MOL0     H72113   9.979  10.472   6.250  1.7731 -1.0585 -2.4305
  523MOL0     H72114   9.829  10.508   6.165  2.4358  0.0909 -2.7478
  523MOL0     H72115   9.864  10.299   6.387  0.5646  2.4843  2.6668
  523MOL0     H72116   9.703  10.342   6.304 -0.4963  1.1681  0.3459
  523MOL0     H72117   9.822  10.583   6.391  0.9764 -2.0102 -3.6443
  523MOL0     H72118   9.681  10.506   6.456  0.5732 -2.1056  2.0415
  523MOL0     H72119   9.974  10.455   6.548  0.2197  2.3910 -1.9528
  523MOL0     H72120   9.843  10.353   6.602  3.4827 -1.1969 -3.1492
  523MOL0     H72121   9.840  10.651   6.638 -1.9610  0.6496 -1.0146
  523MOL0     H72122   9.715  10.533   6.691 -0.7148  1.5624  0.3181
  523MOL0     H72123   9.744  10.359   6.872 -0.8855 -1.6682  0.8013
  523MOL0     H72124   9.800  10.344   7.183  0.7904 -3.3912  1.0600
  523MOL0     H72125   9.967  10.353   7.195  3.1691 -0.9408 -2.0130
  523MOL0     H72126   9.850  10.153   6.982  2.2569  0.1479 -1.5384
  523MOL0     H72127  10.008  10.164   7.024  1.0747 -1.9139  2.2500
  523MOL0     H72128   9.957  10.063   7.247  1.3649 -2.9440 -1.9247
  523MOL0     H72129   9.789  10.115   7.230 -0.1705  3.3048 -2.2360
  523MOL0     H72130   9.870   9.881   7.215 -0.2352  1.3976  0.9099
  523MOL0     H72131   9.752   9.921   7.094 -0.9480 -1.3556  2.7535
  523MOL0     H72132   9.742   9.704   7.022 -0.3730 -0.3560  1.2109
  523MOL0     H72133   9.669   9.408   6.943 -0.0683 -0.2720  0.1120
  523MOL0     H72134   9.680   9.486   7.106 -0.8138  1.4774 -1.6078
  523MOL0     H72135   9.763   9.328   7.064  2.4190  0.0083 -4.3074
  523MOL0     H72136  10.242   9.231   6.734  2.9612 -0.1928  0.1414
  523MOL0     H72137  10.280   9.012   6.640 -0.8635 -1.3462  0.6709
  523MOL0     H72138  10.171   8.649   6.903 -0.7733 -4.3305 -0.3547
  523MOL0     H72139  10.040   8.712   6.810  0.6076  0.2080  1.8752
  523MOL0     H72140  10.240   8.530   6.679 -0.2395 -0.3172 -0.8674
  523MOL0     H72141  10.081   8.493   6.737  0.1246  0.3377 -0.9107
  523MOL0     H72142  10.077   8.712   6.532 -1.0555 -0.0623 -0.2144
  523MOL0     H72143   9.985   8.579   6.553 -1.1986  0.6311  2.0230
  523MOL0     H72144  10.160   8.424   6.430  2.0043 -0.6715  2.3933
  523MOL0     H72145  10.270   8.558   6.433 -0.1331 -1.4514 -0.9857
  523MOL0     H72146   9.996   8.585   6.308 -0.9681  2.6936 -2.8458
  523MOL0     H72147  10.138   8.686   6.284  1.4382 -1.8940 -3.1581
  523MOL0     H72148  10.107   8.399   6.174  1.8293 -1.0275  0.0695
  523MOL0     H72149  10.256   8.470   6.210 -1.0748 -0.8137  1.8464
  523MOL0     H72150  10.214   8.661   6.058  0.4313 -1.5335  1.5174
  523MOL0     H72151  10.060   8.600   6.024 -1.7741 -0.7427  4.0255
  523MOL0     H72152  10.328   8.458   5.984  1.5275  5.8542 -1.9158
  523MOL0     H72153  10.244   8.542   5.862  0.7700  2.3581  2.1251
  523MOL0     H72154  10.232   8.820   7.004  6.1790  1.0234 -0.5553
  523MOL0     H72155  10.158   9.038   7.111 -0.9101  2.6100  0.3328
  523MOL0     H72156  10.200   9.508   6.935  0.0406  0.7177 -2.7064
  523MOL0     H72157  10.167   9.752   6.944 -1.8115  2.8607 -4.2599
  523MOL0     H72158  10.429  10.403   6.137  4.9309 -1.1026  0.4791
  523MOL0     H72159  10.631  10.538   6.162  1.2551  0.2268 -1.1725
  523MOL0     H72160  10.869  10.689   5.852  1.9026 -2.4949  0.2232
  523MOL0     H72161  11.085  10.749   5.748  0.5642 -4.0493  0.9621
  523MOL0     H72162  11.299  10.816   5.705  2.4979  0.5204 -1.3648
  523MOL0     H72163  11.208  10.961   5.672 -1.4592 -2.8174 -0.2287
  523MOL0     H72164  11.414  11.089   5.665 -1.3252 -0.2274 -3.1351
  523MOL0     H72165  11.462  10.932   5.601 -0.8125 -1.6537  0.8113
  523MOL0     H72166  11.503  11.028   5.878 -0.9511 -0.3867  0.0564
  523MOL0     H72167  11.567  10.874   5.829 -0.6824 -0.0385  2.1087
  523MOL0     H72168  11.720  11.077   5.824 -1.3972  2.0383  0.3872
  523MOL0     H72169  11.630  11.143   5.690  0.6974  0.0824  1.0758
  523MOL0     H72170  11.898  10.917   5.491 -0.8753 -3.1610  1.4772
  523MOL0     H72171  11.196  10.956   6.110  1.6707  1.1932 -1.7818
  523MOL0     H72172  11.006  10.854   6.335  0.9345  1.3410  0.8148
  523MOL0     H72173  11.050  11.009   6.244 -1.3701  1.5037  0.6227
  523MOL0     H72174  10.886  10.958   6.257  0.3109  1.0290 -1.1186
  524MOL0     O72175   6.181   2.029   3.813  0.2471  0.0254 -0.2992
  524MOL0     C72176   6.105   1.986   3.898  0.3626  0.1477 -0.3068
  524MOL0     O72177   6.068   2.050   4.013  0.0339 -0.4162  0.5609
  524MOL0     C72178   6.092   2.189   4.031 -0.6895  0.4783  0.2362
  524MOL0     C72179   6.131   2.245   4.149 -0.0646 -0.9712 -1.0693
  524MOL0     C72180   6.127   2.381   4.178 -0.1882  0.3376  0.1804
  524MOL0     C72181   6.101   2.469   4.074 -0.0320 -0.0781  0.2688
  524MOL0     O72182   6.114   2.608   4.070  0.1186  0.0976  0.9749
  524MOL0     C72183   6.120   2.688   4.187 -0.0621  0.3048 -0.1672
  524MOL0     C72184   6.109   2.840   4.156 -0.0932  0.1235 -0.5995
  524MOL0     C72185   6.072   2.933   4.267  0.0995 -0.4705 -0.0103
  524MOL0     C72186   5.926   2.922   4.295 -0.1883 -0.3102 -0.7254
  524MOL0     C72187   5.886   3.002   4.422 -0.2138  0.1103  0.2016
  524MOL0     C72188   5.735   2.982   4.444 -0.5673 -0.1738 -0.2992
  524MOL0     C72189   5.703   3.020   4.592  0.0784  0.7412  0.2504
  524MOL0     C72190   5.555   2.992   4.627  0.1374  0.2337 -0.6785
  524MOL0     N72191   5.537   2.951   4.768 -0.7417  0.0427  0.4927
  524MOL0     C72192   5.549   3.024   4.874 -0.5069 -0.5951 -0.1789
  524MOL0     C72193   5.527   2.945   4.982  0.3981 -0.5836  0.4602
  524MOL0     C72194   5.515   2.987   5.121 -0.5914 -0.2051  0.2991
  524MOL0     C72195   5.479   2.891   5.232 -0.7663  0.0313  0.3098
  524MOL0     C72196   5.334   2.825   5.240 -0.2173 -0.1881  0.1769
  524MOL0     C72197   5.312   2.701   5.150 -0.2241  0.2132 -1.0606
  524MOL0     O72198   5.198   2.632   5.209  0.6218  0.3798  0.1917
  524MOL0     C72199   5.065   2.691   5.179 -0.8942  1.4488 -0.7359
  524MOL0     C72200   5.035   2.798   5.099 -0.2105 -0.1564 -0.5327
  524MOL0     C72201   4.908   2.838   5.082  0.9080  0.2961 -1.3256
  524MOL0     C72202   4.873   2.965   5.017 -0.0507  0.2530  0.8617
  524MOL0     C72203   4.794   2.770   5.153  0.4765  0.9773 -0.4096
  524MOL0     C72204   4.643   2.808   5.148  0.2085 -0.3755  0.1256
  524MOL0     O72205   4.581   2.810   5.268  0.7177 -0.1125  0.1887
  524MOL0     C72206   4.469   2.881   5.289 -0.0217 -0.1025 -0.1906
  524MOL0     C72207   4.364   2.832   5.369 -0.6611  0.8082  0.8653
  524MOL0     C72208   4.240   2.892   5.394 -1.1230  0.3125 -0.2349
  524MOL0     C72209   4.219   3.013   5.325  0.3373  0.3505 -1.1728
  524MOL0     O72210   4.085   3.053   5.336  0.5349  1.1751 -0.0894
  524MOL0     C72211   4.016   3.138   5.242 -0.1166  0.1775  0.1781
  524MOL0     C72212   3.906   3.222   5.310 -0.3313  1.1841 -0.4355
  524MOL0     C72213   3.768   3.148   5.310 -0.7299  0.1120 -1.0221
  524MOL0     C72214   3.728   3.087   5.176  0.1526  0.0168 -0.2021
  524MOL0     C72215   3.582   3.056   5.147 -0.1251 -0.4153 -0.9158
  524MOL0     C72216   3.508   3.171   5.082  0.8463 -0.0793 -0.1684
  524MOL0     C72217   3.358   3.140   5.058 -1.3090  0.6919 -0.4537
  524MOL0     C72218   3.265   3.234   4.975  0.3202 -0.2780  0.7125
  524MOL0    Cl72219   3.356   3.273   4.831 -0.2398 -0.1617  0.0811
  524MOL0     C72220   4.322   3.075   5.256  0.2258  0.2904  0.0174
  524MOL0     C72221   4.446   3.012   5.236  0.5430 -0.7407 -0.2004
  524MOL0     O72222   4.590   2.813   5.041 -0.4414  0.2919  0.2792
  524MOL0     C72223   4.826   2.661   5.227  0.1742  0.6889  0.0963
  524MOL0     C72224   4.966   2.621   5.242 -0.4183  0.1114  0.6506
  524MOL0     N72225   5.502   2.818   4.936  0.1382  0.1912 -0.2320
  524MOL0     N72226   5.520   2.819   4.808  0.1518  0.4034 -0.9498
  524MOL0     C72227   6.066   2.413   3.949  0.0572 -0.3827  0.0001
  524MOL0     C72228   6.052   2.272   3.926  0.5894  0.4467 -0.3416
  524MOL0     C72229   6.074   1.850   3.881 -0.6066 -0.2605  0.5953
  524MOL0     C72230   6.089   1.773   3.997  0.2485  0.2206  0.1180
  524MOL0     C72231   6.062   1.636   4.001 -0.3696  0.0342 -0.1834
  524MOL0     C72232   6.031   1.573   3.884 -0.8152 -0.5793 -0.2441
  524MOL0     O72233   6.009   1.442   3.875  0.4844 -0.2796 -0.1485
  524MOL0     C72234   6.115   1.367   3.928 -1.5787  0.0597 -0.3249
  524MOL0     C72235   6.128   1.225   3.880 -0.0043  0.1485 -0.4212
  524MOL0     C72236   6.241   1.138   3.934 -0.4334  0.3276 -0.1415
  524MOL0     C72237   6.252   0.993   3.868  0.6365 -0.5708  0.1701
  524MOL0     C72238   6.336   0.918   3.959  0.4213  1.2737  0.3288
  524MOL0     C72239   6.407   0.854   4.039 -0.3131  0.3618 -0.3168
  524MOL0     C72240   6.032   1.644   3.761  0.6127  0.4514 -1.1670
  524MOL0     C72241   6.056   1.784   3.757  0.5197  0.6395 -0.6721
  524MOL0     C72242   6.041   1.850   3.621  0.4716 -0.5680  0.4651
  524MOL0     H72243   6.161   2.184   4.233  1.4502  1.7003  0.4606
  524MOL0     H72244   6.157   2.399   4.281  3.3976 -1.3112 -0.4172
  524MOL0     H72245   6.217   2.675   4.235  0.0153 -0.6374 -0.5599
  524MOL0     H72246   6.049   2.659   4.264 -1.5560 -0.8613 -1.9000
  524MOL0     H72247   6.206   2.868   4.114  0.9195 -0.6839  1.0701
  524MOL0     H72248   6.035   2.857   4.078  0.0761  0.0349 -0.7806
  524MOL0     H72249   6.122   2.907   4.361  0.1505 -1.5179 -0.3057
  524MOL0     H72250   6.108   3.032   4.238  1.6775 -1.1363 -0.4673
  524MOL0     H72251   5.884   2.979   4.211 -0.6851 -0.5019 -0.6063
  524MOL0     H72252   5.898   2.817   4.295 -0.6403 -0.2003  0.2079
  524MOL0     H72253   5.914   3.108   4.424 -0.9525  0.3081  1.8315
  524MOL0     H72254   5.937   2.961   4.509  4.0714 -0.0856 -2.1155
  524MOL0     H72255   5.682   3.054   4.381 -1.5126  1.7818  2.5335
  524MOL0     H72256   5.710   2.878   4.424  1.1011 -0.9547  1.3869
  524MOL0     H72257   5.720   3.128   4.596 -1.9976  1.1209 -0.0815
  524MOL0     H72258   5.765   2.968   4.665 -1.2304  0.2991  1.0894
  524MOL0     H72259   5.479   3.067   4.603 -1.6363 -0.3598  2.5449
  524MOL0     H72260   5.515   2.906   4.573 -4.2955  1.7546 -0.1857
  524MOL0     H72261   5.568   3.131   4.876 -1.6027 -0.3541 -1.3491
  524MOL0     H72262   5.446   3.072   5.124 -0.5747 -0.1950  0.4336
  524MOL0     H72263   5.614   3.031   5.135 -1.3670  2.5520 -1.9158
  524MOL0     H72264   5.552   2.809   5.232 -1.9484 -1.2392 -3.5494
  524MOL0     H72265   5.490   2.945   5.327  0.2588 -0.6153  0.5703
  524MOL0     H72266   5.318   2.781   5.339 -1.1761 -2.0875 -0.7500
  524MOL0     H72267   5.266   2.907   5.217  2.4084  2.0440 -0.0393
  524MOL0     H72268   5.302   2.736   5.047 -0.6953 -0.5035 -1.2693
  524MOL0     H72269   5.399   2.636   5.140 -0.5666 -0.1350 -1.8376
  524MOL0     H72270   5.114   2.856   5.052 -1.0120  0.7386 -0.8136
  524MOL0     H72271   4.782   2.974   4.958  2.0624  3.0619 -2.3618
  524MOL0     H72272   4.954   2.990   4.948  1.5814 -0.8847  2.2729
  524MOL0     H72273   4.889   3.040   5.094  3.8888  2.5172 -1.7941
  524MOL0     H72274   4.373   2.734   5.414 -1.5264  0.1493 -0.3231
  524MOL0     H72275   4.166   2.849   5.462  0.9332  0.6980  2.4052
  524MOL0     H72276   4.089   3.213   5.209 -1.7010  2.4120  1.4203
  524MOL0     H72277   3.977   3.074   5.162  1.6620 -0.3901 -0.2783
  524MOL0     H72278   3.930   3.247   5.413  2.4362 -2.1094 -0.1131
  524MOL0     H72279   3.889   3.318   5.260  1.5530  2.4124  1.1488
  524MOL0     H72280   3.698   3.218   5.357  2.1155  1.2564  1.8678
  524MOL0     H72281   3.790   3.053   5.360  3.2463  1.7120  0.6858
  524MOL0     H72282   3.785   2.995   5.163  3.5364  1.6294  2.0437
  524MOL0     H72283   3.766   3.151   5.096 -2.0738 -1.2411 -2.4300
  524MOL0     H72284   3.578   2.963   5.089  3.4544  0.3295 -2.6409
  524MOL0     H72285   3.531   3.045   5.243 -1.5635 -2.4138 -1.8212
  524MOL0     H72286   3.556   3.181   4.984 -0.4652 -3.9085 -1.3612
  524MOL0     H72287   3.515   3.265   5.137  0.3426 -0.0572 -0.1408
  524MOL0     H72288   3.313   3.135   5.157 -0.7210  4.5179  0.1662
  524MOL0     H72289   3.348   3.043   5.009 -0.5144  1.0673 -1.3929
  524MOL0     H72290   3.242   3.322   5.036  1.0327 -1.1588  2.3466
  524MOL0     H72291   3.171   3.181   4.953 -0.3560  0.2497  2.1642
  524MOL0     H72292   4.299   3.163   5.196  0.9932  0.5707  0.1254
  524MOL0     H72293   4.525   3.050   5.171  2.5774 -2.8736  0.8641
  524MOL0     H72294   4.743   2.616   5.280 -0.5688 -0.2679 -1.7944
  524MOL0     H72295   4.994   2.541   5.310 -1.8515  0.9981  2.3791
  524MOL0     H72296   6.044   2.477   3.864 -0.5572  1.6726  1.6140
  524MOL0     H72297   6.020   2.244   3.826  3.5062 -0.1541 -1.1998
  524MOL0     H72298   6.107   1.813   4.096  1.1550 -0.6392  0.3245
  524MOL0     H72299   6.064   1.597   4.102 -3.0996  2.0846  0.7886
  524MOL0     H72300   6.208   1.413   3.893 -1.6801  0.9929  0.5847
  524MOL0     H72301   6.101   1.367   4.036 -2.6136  1.1991 -0.4349
  524MOL0     H72302   6.141   1.231   3.771  0.1426  0.4319 -0.3897
  524MOL0     H72303   6.035   1.169   3.893 -0.7622  0.7460 -2.7111
  524MOL0     H72304   6.325   1.206   3.925 -2.3425  2.7960 -0.2644
  524MOL0     H72305   6.224   1.125   4.041  0.0247 -0.7144 -0.1838
  524MOL0     H72306   6.291   1.002   3.766 -4.2806 -0.9783 -2.0762
  524MOL0     H72307   6.155   0.942   3.862 -1.2381  2.7742 -0.7707
  524MOL0     H72308   6.460   0.815   4.124 -0.4063  0.3569 -0.2606
  524MOL0     H72309   6.025   1.590   3.668 -2.4621 -0.0211 -0.7562
  524MOL0     H72310   5.952   1.912   3.606 -0.2308 -2.1567 -2.7338
  524MOL0     H72311   6.128   1.913   3.602 -0.4488  0.2831 -1.1713
  524MOL0     H72312   6.036   1.774   3.542  1.6294 -0.5268  0.3307
  525MOL0     O72313   6.358   0.568   5.673  0.3766 -0.3113 -0.5310
  525MOL0     C72314   6.360   0.497   5.776  0.1322 -0.5677 -0.9716
  525MOL0     O72315   6.376   0.553   5.906  0.6063 -0.7202 -0.1737
  525MOL0     C72316   6.368   0.692   5.914 -0.5878 -0.6083 -0.4962
  525MOL0     C72317   6.479   0.759   5.961  0.5520  0.7769 -0.5611
  525MOL0     C72318   6.477   0.902   5.968 -0.3481 -0.4268  0.4627
  525MOL0     C72319   6.372   0.974   5.911  0.9293  0.6529  0.6738
  525MOL0     O72320   6.378   1.109   5.908 -0.3275  0.2204 -1.1878
  525MOL0     C72321   6.254   1.183   5.887  0.5431 -0.4306  0.9042
  525MOL0     C72322   6.162   1.190   6.009 -0.4169 -0.3550  0.1889
  525MOL0     C72323   6.203   1.274   6.137 -1.0625 -0.8601 -1.3083
  525MOL0     C72324   6.220   1.425   6.108 -0.7247 -0.3428  0.9690
  525MOL0     C72325   6.286   1.498   6.224 -0.3013 -0.2700 -0.4486
  525MOL0     C72326   6.188   1.531   6.345  0.1274  0.8774 -0.2301
  525MOL0     C72327   6.252   1.579   6.471 -0.2484  0.0916 -1.0634
  525MOL0     C72328   6.330   1.473   6.542  0.2276  0.0666 -1.2551
  525MOL0     N72329   6.404   1.517   6.664  0.7082 -0.2497  0.2182
  525MOL0     C72330   6.400   1.452   6.785 -0.5631  0.5781 -0.6133
  525MOL0     C72331   6.463   1.534   6.874  0.6305 -1.1887 -0.4315
  525MOL0     C72332   6.496   1.492   7.021 -0.6668 -0.2047 -0.3580
  525MOL0     C72333   6.622   1.552   7.084 -0.8014  0.5712 -0.2402
  525MOL0     C72334   6.653   1.498   7.224 -0.0396  0.6137 -0.6798
  525MOL0     C72335   6.769   1.581   7.289 -0.6395 -0.0388  0.2635
  525MOL0     O72336   6.874   1.575   7.198 -0.0032 -0.6540 -0.7539
  525MOL0     C72337   7.002   1.557   7.242  0.4582 -0.2496  0.6765
  525MOL0     C72338   7.090   1.514   7.143 -0.0395  0.5571  0.8534
  525MOL0     C72339   7.235   1.508   7.161  0.1745  0.3973 -0.4719
  525MOL0     C72340   7.324   1.445   7.057  0.6749  0.8550  1.2641
  525MOL0     C72341   7.287   1.555   7.290 -0.2915 -0.7401  0.0210
  525MOL0     C72342   7.442   1.545   7.331  0.8358 -0.2184 -0.8604
  525MOL0     O72343   7.474   1.585   7.455 -0.0216  1.1272 -0.0743
  525MOL0     C72344   7.605   1.578   7.502 -0.1956  0.9342  0.3934
  525MOL0     C72345   7.718   1.614   7.435 -1.1022  0.8531 -0.8713
  525MOL0     C72346   7.848   1.614   7.497  0.2505  0.4212  0.1756
  525MOL0     C72347   7.872   1.550   7.619 -0.0446 -0.1083 -0.3351
  525MOL0     O72348   7.992   1.547   7.674  0.5971  0.2460 -0.2935
  525MOL0     C72349   8.032   1.422   7.739 -0.4246 -0.3140  0.1854
  525MOL0     C72350   8.158   1.357   7.679 -0.1274 -0.5063 -0.0636
  525MOL0     C72351   8.270   1.463   7.678  0.8067  0.6037 -0.3542
  525MOL0     C72352   8.328   1.496   7.819  0.1752  1.0521  0.0645
  525MOL0     C72353   8.442   1.601   7.810  0.4947  0.2618 -0.1623
  525MOL0     C72354   8.543   1.596   7.925 -0.3784 -0.4062  0.7886
  525MOL0     C72355   8.675   1.668   7.892  0.2847 -0.4342  0.1210
  525MOL0     C72356   8.783   1.590   7.809 -1.1730  0.5378  0.3170
  525MOL0    Cl72357   8.816   1.426   7.887 -0.2075 -0.4299  0.1511
  525MOL0     C72358   7.750   1.511   7.688  0.1259 -0.7801 -0.3289
  525MOL0     C72359   7.619   1.530   7.626 -0.1579 -0.1881 -0.3737
  525MOL0     O72360   7.519   1.507   7.245  0.2961 -0.8066 -0.2740
  525MOL0     C72361   7.190   1.609   7.384 -0.2106 -0.1465  0.2437
  525MOL0     C72362   7.048   1.600   7.368 -1.2931  0.7834  0.8840
  525MOL0     N72363   6.505   1.645   6.797  0.3342 -0.4141 -0.6270
  525MOL0     N72364   6.482   1.629   6.668  0.9837 -0.4021 -0.2331
  525MOL0     C72365   6.254   0.903   5.866 -0.0909 -0.0154 -0.6060
  525MOL0     C72366   6.253   0.762   5.868  0.5719  0.3664 -0.5245
  525MOL0     C72367   6.363   0.352   5.789  1.3725 -0.1480  0.3085
  525MOL0     C72368   6.401   0.282   5.911 -0.1900  0.0093  0.0688
  525MOL0     C72369   6.404   0.144   5.916 -0.5121 -0.7254 -0.2948
  525MOL0     C72370   6.372   0.067   5.801  0.6399  0.3330 -1.4736
  525MOL0     O72371   6.378  -0.065   5.810  0.0139 -0.5736  0.6572
  525MOL0     C72372   6.287  -0.148   5.736 -0.8979  0.4386 -0.3185
  525MOL0     C72373   6.137  -0.112   5.753 -0.0472  1.3554 -0.2688
  525MOL0     C72374   6.043  -0.226   5.712 -1.5122 -0.4028 -0.1232
  525MOL0     C72375   6.062  -0.266   5.568  1.0743  0.5405  0.3541
  525MOL0     C72376   5.947  -0.354   5.522 -0.2919  0.5322  0.5397
  525MOL0     C72377   5.875  -0.436   5.473  0.3004  0.2763 -0.4487
  525MOL0     C72378   6.332   0.133   5.685  0.3361 -0.6734 -0.8369
  525MOL0     C72379   6.324   0.269   5.681  0.0308  0.5605  0.6280
  525MOL0     C72380   6.278   0.317   5.541 -1.2488  0.3350 -0.1632
  525MOL0     H72381   6.573   0.716   5.995  0.8906  0.8064 -1.4366
  525MOL0     H72382   6.566   0.959   5.993 -1.6288  1.5084  0.8681
  525MOL0     H72383   6.185   1.165   5.805 -2.3763  0.9792  2.8800
  525MOL0     H72384   6.289   1.283   5.862  1.1435 -1.4857 -3.1457
  525MOL0     H72385   6.071   1.233   5.967  0.0140  0.5077  0.1265
  525MOL0     H72386   6.153   1.089   6.051  0.0015 -1.0239 -1.2620
  525MOL0     H72387   6.143   1.263   6.228  1.2208  4.0236  1.1741
  525MOL0     H72388   6.305   1.240   6.159 -1.4134 -0.7005  0.7479
  525MOL0     H72389   6.287   1.439   6.022  1.6891  0.7306  2.9145
  525MOL0     H72390   6.123   1.471   6.085 -1.0410 -0.6896  1.5891
  525MOL0     H72391   6.314   1.594   6.179 -3.3142  0.2152 -1.4801
  525MOL0     H72392   6.379   1.458   6.265 -0.5803  2.6507  3.5871
  525MOL0     H72393   6.108   1.602   6.320 -0.8175 -0.8409 -2.4091
  525MOL0     H72394   6.130   1.441   6.369  1.0662  0.1696 -0.5843
  525MOL0     H72395   6.179   1.611   6.545  1.7993  1.8562  0.3016
  525MOL0     H72396   6.319   1.659   6.440  1.1207 -0.5443  0.1366
  525MOL0     H72397   6.268   1.389   6.576  0.7145 -0.3129 -1.2879
  525MOL0     H72398   6.399   1.418   6.477 -2.3639 -4.0486 -0.9300
  525MOL0     H72399   6.359   1.357   6.817 -0.5635  0.8444  0.2027
  525MOL0     H72400   6.516   1.385   7.013  0.5485 -0.3340  2.9557
  525MOL0     H72401   6.411   1.515   7.087 -0.3412  0.2384 -0.0861
  525MOL0     H72402   6.709   1.532   7.020  2.8693 -3.0085  5.1204
  525MOL0     H72403   6.600   1.658   7.100  0.0423  0.3998  2.5644
  525MOL0     H72404   6.560   1.510   7.280 -0.6680 -0.3881 -1.4715
  525MOL0     H72405   6.672   1.391   7.212 -3.1889  0.2877 -4.7806
  525MOL0     H72406   6.752   1.686   7.315  0.4943  0.0935  0.5231
  525MOL0     H72407   6.800   1.530   7.381  1.2120  0.8115  0.1659
  525MOL0     H72408   7.049   1.463   7.057 -0.8362 -0.8078  1.9958
  525MOL0     H72409   7.254   1.429   6.974  1.3033 -1.3177  1.0992
  525MOL0     H72410   7.368   1.352   7.092  1.4586  0.7718  0.0945
  525MOL0     H72411   7.396   1.510   7.007  1.3769  0.3936  1.6714
  525MOL0     H72412   7.711   1.638   7.330  3.1000 -1.0064 -1.8135
  525MOL0     H72413   7.932   1.644   7.436 -0.3028 -0.8588 -1.3169
  525MOL0     H72414   8.061   1.449   7.841 -2.5792 -0.3662  0.8567
  525MOL0     H72415   7.958   1.341   7.748  2.3112 -2.9857  0.5800
  525MOL0     H72416   8.186   1.258   7.716 -0.5290 -0.9077 -0.7967
  525MOL0     H72417   8.145   1.346   7.570  0.0681 -0.0055 -0.1400
  525MOL0     H72418   8.231   1.553   7.631 -1.3830  0.7042  1.4887
  525MOL0     H72419   8.355   1.420   7.623 -0.0550 -2.3552  0.4507
  525MOL0     H72420   8.346   1.399   7.866 -2.5676 -0.0733 -1.0058
  525MOL0     H72421   8.257   1.545   7.885 -0.3024 -1.5294  1.5960
  525MOL0     H72422   8.504   1.575   7.724  1.9862 -0.1195  0.9943
  525MOL0     H72423   8.413   1.704   7.789  1.3027  0.3263 -1.0474
  525MOL0     H72424   8.567   1.490   7.920 -0.8124 -0.4896  0.4267
  525MOL0     H72425   8.504   1.633   8.021 -0.8178  1.1537  0.0462
  525MOL0     H72426   8.720   1.675   7.992  1.9635 -1.4271 -0.5283
  525MOL0     H72427   8.654   1.770   7.859  0.7218  0.5373  2.5774
  525MOL0     H72428   8.882   1.635   7.800 -1.3039  0.5084 -1.8437
  525MOL0     H72429   8.759   1.575   7.703 -0.2690 -1.9332  0.3809
  525MOL0     H72430   7.763   1.462   7.784 -1.3418  0.4672  0.5593
  525MOL0     H72431   7.533   1.491   7.678 -2.7165  2.7459 -2.0246
  525MOL0     H72432   7.232   1.645   7.478  0.0772  0.2484 -0.0331
  525MOL0     H72433   6.985   1.621   7.454 -5.2591 -5.4897  0.2333
  525MOL0     H72434   6.165   0.958   5.838 -0.6000 -0.0251  0.8884
  525MOL0     H72435   6.170   0.705   5.828  2.4052 -0.0716 -4.0381
  525MOL0     H72436   6.429   0.341   5.997 -0.1038  2.6446 -1.6430
  525MOL0     H72437   6.443   0.095   6.004 -1.3049 -1.1581 -0.1728
  525MOL0     H72438   6.320  -0.141   5.632  3.8947 -0.3333  0.8944
  525MOL0     H72439   6.312  -0.246   5.779  1.2993  0.6299 -1.0663
  525MOL0     H72440   6.114  -0.023   5.695  2.3078  3.2526  1.4766
  525MOL0     H72441   6.122  -0.094   5.860  3.2375  0.2763  0.4905
  525MOL0     H72442   6.049  -0.320   5.767 -2.8452  0.7052  2.0690
  525MOL0     H72443   5.942  -0.185   5.722 -0.7414  1.4997  0.2517
  525MOL0     H72444   6.154  -0.324   5.557  1.7385  1.6577 -0.1287
  525MOL0     H72445   6.066  -0.175   5.506  3.1737  0.0653 -0.2957
  525MOL0     H72446   5.803  -0.515   5.460 -1.2957  0.7495  3.9808
  525MOL0     H72447   6.296   0.082   5.596  0.5192 -2.8354  0.2408
  525MOL0     H72448   6.246   0.227   5.488 -5.8151  0.5506  1.7475
  525MOL0     H72449   6.184   0.372   5.553 -1.3421  0.0230  0.6158
  525MOL0     H72450   6.347   0.370   5.475 -2.2742 -1.3266 -2.7242
  526MOL0     O72451   5.712   8.289   0.454  0.7715  0.2659  0.4285
  526MOL0     C72452   5.696   8.265   0.334  0.5813 -0.0303 -0.0109
  526MOL0     O72453   5.581   8.232   0.281  0.2030  0.1636  0.5334
  526MOL0     C72454   5.488   8.158   0.350  0.0453  0.2430  0.7118
  526MOL0     C72455   5.535   8.046   0.432  0.9717  0.8612 -0.0579
  526MOL0     C72456   5.439   7.973   0.509 -1.3185 -0.3943  0.4835
  526MOL0     C72457   5.306   8.000   0.500 -1.0297 -0.0423  0.5332
  526MOL0     O72458   5.206   7.928   0.567  0.8618  0.4058  0.7213
  526MOL0     C72459   5.248   7.822   0.649 -1.0734  0.3015  1.3101
  526MOL0     C72460   5.134   7.739   0.704  1.1152  0.4555 -0.0522
  526MOL0     C72461   5.076   7.652   0.588 -0.0310 -1.5057 -0.1106
  526MOL0     C72462   4.935   7.603   0.632  1.0104  0.9639  0.1488
  526MOL0     C72463   4.828   7.722   0.623  0.4864  0.3684 -0.2866
  526MOL0     C72464   4.720   7.721   0.723 -0.4187  0.0912 -0.4183
  526MOL0     C72465   4.633   7.598   0.728  0.3381  0.4133 -0.2838
  526MOL0     C72466   4.557   7.574   0.600 -0.7137  1.0974 -0.4783
  526MOL0     N72467   4.456   7.669   0.564 -0.0830  0.4591  0.6163
  526MOL0     C72468   4.329   7.659   0.621  0.1782 -0.1107  0.8147
  526MOL0     C72469   4.278   7.783   0.630 -0.7324 -1.0030 -0.2418
  526MOL0     C72470   4.145   7.800   0.685 -0.0436 -0.0476  0.2906
  526MOL0     C72471   4.021   7.806   0.586 -0.3595  0.8203  0.0529
  526MOL0     C72472   3.924   7.696   0.638  0.2621 -0.0893 -0.0174
  526MOL0     C72473   3.961   7.555   0.601 -0.1111 -0.2866  1.1063
  526MOL0     O72474   3.853   7.460   0.621 -0.3221  0.3013  0.0420
  526MOL0     C72475   3.816   7.413   0.744  0.2317 -0.3091 -0.1514
  526MOL0     C72476   3.870   7.433   0.862  0.0793  0.6591 -0.0570
  526MOL0     C72477   3.817   7.380   0.980 -0.7870 -0.3984 -0.0640
  526MOL0     C72478   3.892   7.420   1.107 -1.2256 -0.0230 -0.3020
  526MOL0     C72479   3.694   7.318   0.970 -0.1824 -0.5319  0.3558
  526MOL0     C72480   3.625   7.270   1.089 -0.6355 -0.4005  0.0101
  526MOL0     O72481   3.486   7.261   1.082 -0.6191 -0.9174 -0.1143
  526MOL0     C72482   3.410   7.228   1.191 -0.6403  0.4824  0.7404
  526MOL0     C72483   3.438   7.253   1.325  0.1449  0.5943 -0.2634
  526MOL0     C72484   3.351   7.199   1.425  0.3325 -0.8577  0.4440
  526MOL0     C72485   3.249   7.117   1.393  0.5908 -0.0155  0.1583
  526MOL0     O72486   3.183   7.066   1.493 -0.0570  0.0334  0.3830
  526MOL0     C72487   3.097   7.156   1.555 -1.0231  1.1971 -0.5781
  526MOL0     C72488   2.969   7.088   1.610  0.2522 -1.5302  0.0225
  526MOL0     C72489   2.984   6.939   1.647  0.0716  0.2466  1.7160
  526MOL0     C72490   2.881   6.886   1.755  0.5368 -0.0365 -0.1707
  526MOL0     C72491   2.738   6.889   1.707 -0.6293 -1.2997  0.1859
  526MOL0     C72492   2.642   6.849   1.814 -0.4741  0.2503  0.3557
  526MOL0     C72493   2.622   6.700   1.838  1.7333 -0.3461 -0.0472
  526MOL0     C72494   2.565   6.617   1.723 -0.4703  0.9039 -0.6174
  526MOL0    Cl72495   2.530   6.456   1.801  0.1624 -0.0356  0.4526
  526MOL0     C72496   3.218   7.084   1.265 -0.8200 -0.3377 -0.2985
  526MOL0     C72497   3.303   7.142   1.167  1.4003  0.1023 -0.3693
  526MOL0     O72498   3.696   7.231   1.186  0.3509  0.0094 -0.6430
  526MOL0     C72499   3.635   7.293   0.842  0.5773 -0.4228 -0.6727
  526MOL0     C72500   3.711   7.334   0.729  1.7000  0.0503 -0.8762
  526MOL0     N72501   4.370   7.871   0.576  0.6704  0.6847  1.4169
  526MOL0     N72502   4.482   7.803   0.548  0.1534  0.2425 -0.4777
  526MOL0     C72503   5.264   8.107   0.420  0.0177  0.2814 -0.3015
  526MOL0     C72504   5.350   8.194   0.355 -0.3415 -0.5073 -0.1819
  526MOL0     C72505   5.803   8.299   0.241 -0.5163  0.2055  0.9666
  526MOL0     C72506   5.820   8.214   0.123  0.2814  0.4011 -0.3503
  526MOL0     C72507   5.936   8.226   0.040 -0.9855 -0.6185 -0.1968
  526MOL0     C72508   6.032   8.325   0.067 -0.1946  0.6986 -1.2979
  526MOL0     O72509   6.163   8.336   0.006  0.3427  0.2749 -0.7564
  526MOL0     C72510   6.160   8.303  -0.129  0.0711 -0.4512 -0.3648
  526MOL0     C72511   6.277   8.372  -0.212 -0.3597  0.4068  0.3330
  526MOL0     C72512   6.262   8.370  -0.363 -0.0844 -1.0289  0.1610
  526MOL0     C72513   6.286   8.238  -0.434  0.6093  0.5396  0.2928
  526MOL0     C72514   6.413   8.170  -0.403 -0.3272  1.2274  0.1613
  526MOL0     C72515   6.508   8.115  -0.356 -0.5601  0.1609 -0.5270
  526MOL0     C72516   6.021   8.407   0.180  0.9634  0.9271  0.0773
  526MOL0     C72517   5.902   8.403   0.260  0.6336 -1.2653 -0.1652
  526MOL0     C72518   5.895   8.506   0.372  0.4296  0.6955 -0.6091
  526MOL0     H72519   5.638   8.015   0.425  1.0083  0.7856  0.7155
  526MOL0     H72520   5.467   7.884   0.563 -2.6900  0.1788  2.2192
  526MOL0     H72521   5.307   7.852   0.736  1.5744 -0.9996  0.0816
  526MOL0     H72522   5.309   7.747   0.598 -0.2008  0.9489  1.3790
  526MOL0     H72523   5.167   7.669   0.781 -3.0368 -0.1311  1.4908
  526MOL0     H72524   5.061   7.790   0.768 -1.7514 -2.3328 -0.8303
  526MOL0     H72525   5.066   7.717   0.500 -0.5673 -0.5676  0.6261
  526MOL0     H72526   5.147   7.570   0.576  0.2959 -1.5871  2.0051
  526MOL0     H72527   4.903   7.515   0.574  2.7182  0.7078 -0.4454
  526MOL0     H72528   4.947   7.549   0.727  0.5558 -0.8896 -0.7974
  526MOL0     H72529   4.776   7.735   0.528 -1.1469  1.5085  0.7153
  526MOL0     H72530   4.887   7.813   0.641  3.0586 -1.1747 -0.3786
  526MOL0     H72531   4.770   7.704   0.818 -2.2373 -2.3118  0.2110
  526MOL0     H72532   4.667   7.817   0.727  2.3911  1.7464  0.2760
  526MOL0     H72533   4.569   7.599   0.817  0.6895 -3.5325  0.2214
  526MOL0     H72534   4.702   7.514   0.742  2.8587  2.2032 -1.1210
  526MOL0     H72535   4.627   7.556   0.518 -2.1040  3.0808 -2.2238
  526MOL0     H72536   4.496   7.486   0.619  2.0425 -1.0142 -0.7811
  526MOL0     H72537   4.282   7.567   0.655 -2.2628  0.5630 -0.4991
  526MOL0     H72538   4.142   7.898   0.732 -0.0616  1.2082 -2.1517
  526MOL0     H72539   4.135   7.721   0.760 -0.4820  0.1123  0.4022
  526MOL0     H72540   3.975   7.904   0.601  1.8084  1.9123  0.0531
  526MOL0     H72541   4.052   7.805   0.481 -0.9561  0.0321 -0.1253
  526MOL0     H72542   3.923   7.700   0.747 -0.5710 -1.3943  0.0361
  526MOL0     H72543   3.822   7.725   0.610  0.9212  1.8856 -0.5555
  526MOL0     H72544   3.997   7.538   0.499 -1.6345 -5.7466  1.1665
  526MOL0     H72545   4.046   7.523   0.662  0.9302 -1.4346 -0.8352
  526MOL0     H72546   3.957   7.497   0.879 -2.0712  4.4857 -2.0528
  526MOL0     H72547   3.959   7.341   1.142 -0.4557  1.0788  0.8070
  526MOL0     H72548   3.828   7.438   1.194  0.5025 -0.9697  1.2550
  526MOL0     H72549   3.944   7.516   1.100  0.4717 -0.8262  0.7055
  526MOL0     H72550   3.514   7.322   1.358  0.1365  0.3188  0.3509
  526MOL0     H72551   3.359   7.220   1.531  1.5303 -2.2048  0.6394
  526MOL0     H72552   3.131   7.226   1.632 -2.4472  2.7795 -1.3165
  526MOL0     H72553   3.071   7.233   1.481  0.9438  1.1935 -1.3445
  526MOL0     H72554   2.933   7.153   1.690 -3.2228  1.2358 -3.4260
  526MOL0     H72555   2.880   7.088   1.548 -1.1780  0.8480  1.8893
  526MOL0     H72556   3.084   6.928   1.690  2.1436  0.1638 -2.5708
  526MOL0     H72557   2.977   6.884   1.552 -0.8824 -0.8659  2.4147
  526MOL0     H72558   2.889   6.939   1.851  0.4247 -2.0581  1.0214
  526MOL0     H72559   2.905   6.780   1.772  0.5467 -0.3336 -1.8475
  526MOL0     H72560   2.713   6.989   1.669 -0.2515 -1.0369  0.6156
  526MOL0     H72561   2.724   6.817   1.627  1.0293 -1.0890 -0.3296
  526MOL0     H72562   2.545   6.898   1.813  0.6007  2.5322 -0.6133
  526MOL0     H72563   2.695   6.885   1.903 -1.4019 -1.6030  1.7130
  526MOL0     H72564   2.549   6.705   1.920  0.1551  0.8183 -1.4605
  526MOL0     H72565   2.707   6.651   1.887  0.9361 -1.2012  0.5202
  526MOL0     H72566   2.629   6.611   1.634 -0.9580  2.9434 -1.1811
  526MOL0     H72567   2.483   6.669   1.671 -1.6589  3.6799  3.5379
  526MOL0     H72568   3.136   7.013   1.252  0.1299 -2.0753  2.4582
  526MOL0     H72569   3.275   7.125   1.064 -3.1190  1.6913  0.3775
  526MOL0     H72570   3.546   7.233   0.831  0.7493 -1.9175  4.0396
  526MOL0     H72571   3.677   7.322   0.627 -1.2478  1.9873 -0.2419
  526MOL0     H72572   5.159   8.136   0.416  0.0156  0.1570 -1.8954
  526MOL0     H72573   5.330   8.276   0.288  2.1727 -0.9311 -1.5969
  526MOL0     H72574   5.760   8.126   0.102  2.7905 -0.9188 -2.5610
  526MOL0     H72575   5.959   8.155  -0.038 -2.3151 -0.9887 -0.2901
  526MOL0     H72576   6.170   8.194  -0.134  0.3636 -0.4245 -0.3717
  526MOL0     H72577   6.063   8.341  -0.165 -0.0119 -0.2151  0.0960
  526MOL0     H72578   6.376   8.336  -0.183 -0.6343 -0.1395  0.6066
  526MOL0     H72579   6.281   8.476  -0.180 -0.3444 -0.0003  1.6959
  526MOL0     H72580   6.165   8.415  -0.388  1.8222  3.0381 -0.8424
  526MOL0     H72581   6.329   8.448  -0.402  1.2934 -1.6731  1.1683
  526MOL0     H72582   6.284   8.248  -0.543 -0.6946 -6.4399 -0.8312
  526MOL0     H72583   6.210   8.166  -0.399 -0.3376  0.8199 -1.0970
  526MOL0     H72584   6.600   8.066  -0.328 -1.8083 -0.4673  3.1177
  526MOL0     H72585   6.099   8.481   0.197  0.3270  1.2620  1.7081
  526MOL0     H72586   5.796   8.551   0.381 -0.4778 -1.4313  0.7819
  526MOL0     H72587   5.913   8.453   0.466  2.2416 -1.5016 -2.0806
  526MOL0     H72588   5.979   8.575   0.361  2.0779 -1.0956  0.2923
  527MOL0     O72589   3.502   1.897   2.115 -0.1418  0.7338 -0.6705
  527MOL0     C72590   3.577   1.851   2.026 -1.3104 -0.7972  0.6231
  527MOL0     O72591   3.614   1.926   1.916  0.5064  0.3458  0.5157
  527MOL0     C72592   3.564   2.056   1.904  0.7403 -0.5603  0.5007
  527MOL0     C72593   3.594   2.151   2.000 -0.1213  0.7009 -0.6283
  527MOL0     C72594   3.556   2.284   1.986 -0.0812  0.4038  0.6240
  527MOL0     C72595   3.504   2.332   1.866 -0.7308  0.0235  0.5635
  527MOL0     O72596   3.501   2.469   1.850 -0.5529 -0.5553 -0.2566
  527MOL0     C72597   3.401   2.526   1.770 -0.2576  1.0422 -0.0884
  527MOL0     C72598   3.258   2.533   1.843  0.1459  0.2927  0.0344
  527MOL0     C72599   3.270   2.613   1.971 -0.3600 -0.4469  0.0334
  527MOL0     C72600   3.169   2.564   2.075  0.4586  0.0223 -1.1061
  527MOL0     C72601   3.167   2.661   2.191 -0.0385  0.0697  0.1192
  527MOL0     C72602   3.092   2.598   2.306 -0.0595 -0.0522  0.1020
  527MOL0     C72603   2.945   2.550   2.282  0.2549 -0.3100 -0.7033
  527MOL0     C72604   2.873   2.541   2.422 -1.2406  0.3816  0.4484
  527MOL0     N72605   2.733   2.513   2.390 -0.1776 -0.3527 -0.4122
  527MOL0     C72606   2.659   2.415   2.446 -0.2829  0.0326  0.2706
  527MOL0     C72607   2.542   2.435   2.386  0.6522  0.2215  0.5555
  527MOL0     C72608   2.439   2.330   2.382  0.0150  0.1314 -0.1284
  527MOL0     C72609   2.472   2.208   2.308 -0.2036 -0.9974  0.3700
  527MOL0     C72610   2.386   2.096   2.323  0.7110 -0.2993 -0.5557
  527MOL0     C72611   2.434   1.990   2.220  0.5432 -0.7925  0.7897
  527MOL0     O72612   2.569   1.947   2.247  0.4668  0.0065  1.0425
  527MOL0     C72613   2.611   1.835   2.180  0.1513  0.4555  0.1565
  527MOL0     C72614   2.610   1.720   2.252  0.1296  0.2230  0.3115
  527MOL0     C72615   2.660   1.595   2.198  0.6083 -0.5089  0.7136
  527MOL0     C72616   2.639   1.469   2.281 -0.0177 -0.7364  1.1178
  527MOL0     C72617   2.709   1.605   2.066 -0.7767  0.3078 -0.0764
  527MOL0     C72618   2.754   1.483   1.984  0.1409  0.5912  0.0442
  527MOL0     O72619   2.838   1.399   2.041 -0.1740 -1.3925  0.2154
  527MOL0     C72620   2.859   1.283   1.971  0.3381 -0.5540 -0.2917
  527MOL0     C72621   2.943   1.292   1.859  1.1077 -0.5074 -0.2989
  527MOL0     C72622   2.958   1.179   1.783 -0.2374  0.0990  0.8203
  527MOL0     C72623   2.900   1.057   1.818  0.8681  0.2000 -0.3105
  527MOL0     O72624   2.905   0.944   1.744  0.1477  0.5576 -0.1637
  527MOL0     C72625   3.024   0.921   1.671 -0.1642  0.8219 -0.5880
  527MOL0     C72626   3.031   0.773   1.609 -0.2508  0.1259 -0.6849
  527MOL0     C72627   3.080   0.675   1.717  0.6566 -0.6343 -0.3291
  527MOL0     C72628   3.218   0.691   1.783 -0.3641  0.7526 -0.3539
  527MOL0     C72629   3.244   0.567   1.866 -0.1130  0.2558 -0.0107
  527MOL0     C72630   3.262   0.438   1.785  0.2001 -0.1241 -0.2198
  527MOL0     C72631   3.401   0.443   1.728 -0.2716 -0.7700  0.0751
  527MOL0     C72632   3.457   0.303   1.730 -0.0249  0.7443  0.0187
  527MOL0    Cl72633   3.502   0.227   1.887 -0.4625 -0.1846  0.0260
  527MOL0     C72634   2.822   1.050   1.930 -0.0079  0.0216 -0.5797
  527MOL0     C72635   2.802   1.160   2.008 -0.4058 -0.2811  0.3578
  527MOL0     O72636   2.722   1.480   1.868  1.0364 -0.3507 -0.0695
  527MOL0     C72637   2.707   1.728   1.994 -0.3057  0.2007  0.0608
  527MOL0     C72638   2.659   1.842   2.051 -0.5918  0.1719 -0.1021
  527MOL0     N72639   2.542   2.544   2.307  0.3130 -0.1264  0.4348
  527MOL0     N72640   2.657   2.600   2.320 -0.0052 -0.4542 -0.3562
  527MOL0     C72641   3.482   2.236   1.759 -0.1982 -0.4098  0.4106
  527MOL0     C72642   3.505   2.099   1.783  0.5116  0.6804  0.2726
  527MOL0     C72643   3.644   1.718   2.032  0.1384  0.2578 -0.8486
  527MOL0     C72644   3.750   1.704   1.942 -0.5245 -1.0523  0.5330
  527MOL0     C72645   3.827   1.588   1.932  0.0737  0.3145  0.3796
  527MOL0     C72646   3.806   1.475   2.017 -0.1684 -0.4308 -0.6650
  527MOL0     O72647   3.884   1.356   2.019  0.2070  0.2526 -0.0929
  527MOL0     C72648   3.991   1.332   1.926 -0.3522  0.4771  0.0253
  527MOL0     C72649   4.101   1.245   1.992 -0.8429 -0.3747  1.3358
  527MOL0     C72650   4.082   1.102   1.967  0.1240  0.4835  1.0932
  527MOL0     C72651   4.152   1.052   1.833  0.6821  0.1533  0.3012
  527MOL0     C72652   4.135   0.914   1.800 -0.4688  0.1869  0.2616
  527MOL0     C72653   4.129   0.793   1.793 -0.6654  0.0345 -0.3430
  527MOL0     C72654   3.706   1.490   2.114 -0.4906 -0.6668  0.7130
  527MOL0     C72655   3.629   1.610   2.121  1.1438 -0.0250 -0.7575
  527MOL0     C72656   3.526   1.625   2.236 -0.0907  0.5038  0.4345
  527MOL0     H72657   3.640   2.115   2.091 -1.5722 -3.8666 -1.4206
  527MOL0     H72658   3.571   2.376   2.041  1.9391  1.6766 -1.8016
  527MOL0     H72659   3.386   2.468   1.679  0.5240  1.8739 -0.7663
  527MOL0     H72660   3.434   2.628   1.746  1.2149  0.0952 -2.3541
  527MOL0     H72661   3.187   2.573   1.770 -1.7138  1.3194  2.3039
  527MOL0     H72662   3.212   2.436   1.863 -0.5738  0.9292  1.5508
  527MOL0     H72663   3.364   2.618   2.026  0.1933  5.7957 -0.7566
  527MOL0     H72664   3.240   2.716   1.949  1.3170 -0.2607 -1.6417
  527MOL0     H72665   3.070   2.549   2.030 -1.0079 -1.2998  2.1853
  527MOL0     H72666   3.194   2.466   2.116 -2.1813 -1.1871 -2.1562
  527MOL0     H72667   3.127   2.753   2.148  1.5952 -0.2869 -2.3412
  527MOL0     H72668   3.264   2.680   2.238 -1.4517 -0.0569  3.3623
  527MOL0     H72669   3.146   2.514   2.350  0.2938  1.5490  2.9843
  527MOL0     H72670   3.088   2.679   2.380  2.2639  2.1153 -1.9760
  527MOL0     H72671   2.952   2.446   2.249  2.1684 -0.9175  1.3350
  527MOL0     H72672   2.896   2.618   2.212  0.2226 -0.4736 -0.8397
  527MOL0     H72673   2.931   2.460   2.466 -0.1838  0.2407 -1.1357
  527MOL0     H72674   2.889   2.636   2.476 -1.1771  2.0589 -2.3280
  527MOL0     H72675   2.687   2.334   2.512  1.6318 -0.9231 -1.5765
  527MOL0     H72676   2.342   2.362   2.342 -0.0551 -2.9320 -2.9286
  527MOL0     H72677   2.428   2.303   2.487 -1.4832  0.7934 -0.0859
  527MOL0     H72678   2.455   2.233   2.203  0.3987 -0.8960  0.2945
  527MOL0     H72679   2.574   2.186   2.338  0.2501  2.2667  1.5288
  527MOL0     H72680   2.387   2.060   2.426  1.3949 -0.5546 -0.6428
  527MOL0     H72681   2.289   2.139   2.295 -0.5957  0.2076  4.0170
  527MOL0     H72682   2.357   1.915   2.239 -1.5321  0.9483 -0.2949
  527MOL0     H72683   2.429   2.028   2.118 -0.3762  0.1638  1.1702
  527MOL0     H72684   2.554   1.722   2.345 -0.5667 -0.9658 -0.0577
  527MOL0     H72685   2.623   1.482   2.388  2.4262 -2.2147  1.7341
  527MOL0     H72686   2.723   1.399   2.286  2.3607  1.9812  2.0911
  527MOL0     H72687   2.550   1.419   2.241  1.9759 -2.7978 -1.0604
  527MOL0     H72688   2.984   1.385   1.822  2.3469 -0.7014  0.5348
  527MOL0     H72689   3.029   1.184   1.701 -3.5052  2.1616 -2.1776
  527MOL0     H72690   3.019   1.004   1.599  4.5433  4.4036  2.5747
  527MOL0     H72691   3.113   0.949   1.728  0.1589  2.9266 -1.9636
  527MOL0     H72692   2.935   0.732   1.575 -2.3321  1.1111  3.4250
  527MOL0     H72693   3.110   0.770   1.534  1.9587  0.0937  1.5240
  527MOL0     H72694   3.070   0.579   1.667  0.0258 -1.9671  2.2313
  527MOL0     H72695   3.003   0.665   1.793  0.7606 -0.0860 -0.1456
  527MOL0     H72696   3.228   0.778   1.848 -2.0972  0.7758 -0.0774
  527MOL0     H72697   3.305   0.690   1.717  2.0789  1.7305  2.5980
  527MOL0     H72698   3.336   0.580   1.924  0.4980  0.9849 -1.1103
  527MOL0     H72699   3.174   0.567   1.950 -0.4161  0.3827 -0.2600
  527MOL0     H72700   3.185   0.433   1.707 -0.8152 -0.9274  0.8118
  527MOL0     H72701   3.246   0.359   1.858  2.6705  1.3999  2.1757
  527MOL0     H72702   3.468   0.509   1.784  1.0527 -2.5676  0.6771
  527MOL0     H72703   3.385   0.487   1.629 -0.8637  1.5191  1.1167
  527MOL0     H72704   3.554   0.304   1.679 -1.6547  2.1871 -3.3884
  527MOL0     H72705   3.385   0.244   1.673 -0.5240  0.8881  0.4870
  527MOL0     H72706   2.775   0.958   1.964  1.0438 -0.5214 -0.5690
  527MOL0     H72707   2.751   1.151   2.103 -0.1915 -0.8169  0.4274
  527MOL0     H72708   2.742   1.725   1.891 -3.6168  0.3771 -1.1999
  527MOL0     H72709   2.689   1.931   1.997  1.6580 -1.5760 -1.9527
  527MOL0     H72710   3.441   2.261   1.661  1.2272 -0.5698 -0.2587
  527MOL0     H72711   3.472   2.031   1.705 -0.5462  1.5021 -0.0219
  527MOL0     H72712   3.780   1.775   1.866 -1.6172 -0.9731  0.1670
  527MOL0     H72713   3.903   1.590   1.855  1.0233 -3.2357  1.0638
  527MOL0     H72714   3.948   1.280   1.840  0.6058  0.7014 -0.5983
  527MOL0     H72715   4.027   1.429   1.892 -2.1658  1.1544 -0.0659
  527MOL0     H72716   4.083   1.264   2.098  6.5156 -0.2809  3.1135
  527MOL0     H72717   4.203   1.279   1.969 -1.0472  1.8840  3.3536
  527MOL0     H72718   4.138   1.066   2.054 -1.2513  1.8515  2.5975
  527MOL0     H72719   3.976   1.079   1.970 -0.1827  0.8732 -2.5381
  527MOL0     H72720   4.259   1.072   1.836  0.7598 -0.2264  0.0841
  527MOL0     H72721   4.117   1.115   1.751  4.2950  1.6468 -0.2839
  527MOL0     H72722   4.136   0.686   1.793 -1.8632 -0.1955  3.2106
  527MOL0     H72723   3.703   1.410   2.187  0.3653 -1.3412  0.0183
  527MOL0     H72724   3.429   1.635   2.187  0.3219 -2.5466 -1.2341
  527MOL0     H72725   3.524   1.530   2.290 -2.9537  0.0831 -0.2820
  527MOL0     H72726   3.535   1.705   2.311  2.6313  1.6177 -0.9243
  528MOL0     O72727   6.029   5.864   4.102 -0.6545 -0.2489 -0.1107
  528MOL0     C72728   5.955   5.776   4.124 -0.1412  0.4791  0.5244
  528MOL0     O72729   5.917   5.682   4.027  0.1790  0.1410  0.4235
  528MOL0     C72730   5.982   5.675   3.912 -0.7759  0.2511 -0.1098
  528MOL0     C72731   6.024   5.774   3.830  0.7644  1.0970  1.1279
  528MOL0     C72732   6.087   5.743   3.703  0.4341 -0.2487 -0.3745
  528MOL0     C72733   6.093   5.618   3.660  0.0494  0.2965  0.6463
  528MOL0     O72734   6.135   5.579   3.534  0.8954 -0.6716  0.6176
  528MOL0     C72735   6.276   5.554   3.523  0.4911 -0.4071  0.4731
  528MOL0     C72736   6.304   5.455   3.408  0.0280 -0.2224  0.1208
  528MOL0     C72737   6.250   5.317   3.439  0.8743 -0.5680  0.3003
  528MOL0     C72738   6.349   5.205   3.401  0.7290 -1.0070  0.2604
  528MOL0     C72739   6.382   5.172   3.265  0.0500 -0.0715 -0.1664
  528MOL0     C72740   6.268   5.106   3.182 -0.4541 -0.7376 -0.8916
  528MOL0     C72741   6.308   5.082   3.035 -0.5390 -0.3324 -0.2324
  528MOL0     C72742   6.189   5.044   2.940  0.8157  0.9011  0.4604
  528MOL0     N72743   6.236   4.980   2.816  1.0072  0.3147  0.6583
  528MOL0     C72744   6.274   5.039   2.700  0.2377 -0.3871 -1.0342
  528MOL0     C72745   6.304   4.926   2.623  0.1492  0.0484 -0.2896
  528MOL0     C72746   6.324   4.923   2.478  0.3066 -0.8440 -0.9739
  528MOL0     C72747   6.201   4.993   2.403  0.1009  0.4257 -0.9466
  528MOL0     C72748   6.207   5.012   2.244 -0.5415  0.0706 -0.4546
  528MOL0     C72749   6.218   4.879   2.170 -0.0477  0.0282 -0.2311
  528MOL0     O72750   6.276   4.905   2.041 -0.0182 -0.3397 -0.0042
  528MOL0     C72751   6.241   4.812   1.943 -0.0197 -0.7432 -0.2085
  528MOL0     C72752   6.220   4.852   1.811 -0.3871  0.7785 -0.5132
  528MOL0     C72753   6.208   4.754   1.709 -0.2665  0.7010  0.2164
  528MOL0     C72754   6.206   4.819   1.567  0.4117  0.9195  0.0803
  528MOL0     C72755   6.202   4.617   1.735  0.1435 -0.0281 -0.1274
  528MOL0     C72756   6.189   4.503   1.634  0.4082  1.0374  0.4480
  528MOL0     O72757   6.175   4.382   1.686  0.8157 -0.5163 -0.4236
  528MOL0     C72758   6.107   4.288   1.618 -0.4693 -0.4466  0.0137
  528MOL0     C72759   6.190   4.188   1.575 -0.1259 -0.3543 -0.3481
  528MOL0     C72760   6.131   4.084   1.494 -0.9631 -1.5129 -0.2090
  528MOL0     C72761   5.996   4.088   1.456 -0.8980 -0.5881  0.2437
  528MOL0     O72762   5.919   3.991   1.390 -0.8077 -0.3884 -0.1582
  528MOL0     C72763   5.994   3.892   1.313 -0.6824  0.4529 -0.3917
  528MOL0     C72764   6.009   3.768   1.405 -0.0360  0.3963  0.5204
  528MOL0     C72765   6.078   3.652   1.330 -0.1924  0.1371 -0.2882
  528MOL0     C72766   6.077   3.524   1.420  0.1717  0.5523 -0.1823
  528MOL0     C72767   6.029   3.406   1.341  0.1903 -0.5360  0.1886
  528MOL0     C72768   6.028   3.273   1.424 -0.1065 -0.0845 -0.1523
  528MOL0     C72769   6.023   3.140   1.330 -0.3626 -0.3913 -1.6254
  528MOL0     C72770   5.884   3.131   1.265 -0.0294 -0.5849 -0.0173
  528MOL0    Cl72771   5.886   3.206   1.102 -0.0732 -0.3085  0.1422
  528MOL0     C72772   5.915   4.195   1.503 -0.2623  0.5346  0.4363
  528MOL0     C72773   5.970   4.299   1.575  0.4860  0.7305 -0.0008
  528MOL0     O72774   6.213   4.521   1.516 -0.2309  0.0979 -0.4825
  528MOL0     C72775   6.215   4.575   1.874 -0.8296 -0.0461 -0.1842
  528MOL0     C72776   6.240   4.671   1.968 -0.0287  0.7733 -0.9203
  528MOL0     N72777   6.295   4.810   2.699  0.8475 -0.4565  1.2920
  528MOL0     N72778   6.243   4.844   2.808  0.2966  0.4202 -0.9304
  528MOL0     C72779   6.066   5.519   3.749  0.2003  0.5822 -0.5706
  528MOL0     C72780   6.008   5.540   3.873 -0.3529  0.3894 -0.4152
  528MOL0     C72781   5.877   5.763   4.250 -0.4998 -0.7254  0.2608
  528MOL0     C72782   5.839   5.887   4.311  0.1076 -0.1252  1.5763
  528MOL0     C72783   5.766   5.891   4.428 -0.3092 -0.3030 -0.7493
  528MOL0     C72784   5.740   5.775   4.498  0.3227  0.9339  0.6249
  528MOL0     O72785   5.676   5.785   4.619  0.6947  0.2966 -0.3350
  528MOL0     C72786   5.541   5.762   4.620 -0.1783  0.0262 -0.1284
  528MOL0     C72787   5.487   5.768   4.760  0.9293  0.0560 -0.5554
  528MOL0     C72788   5.524   5.908   4.826  0.7597  0.4634  0.4528
  528MOL0     C72789   5.427   6.006   4.750 -0.8834  0.0632  0.6184
  528MOL0     C72790   5.428   6.136   4.831 -0.3135  1.7346  0.6605
  528MOL0     C72791   5.444   6.238   4.890  0.3943 -0.2090  0.0421
  528MOL0     C72792   5.792   5.651   4.455  0.3092  0.4812  0.0259
  528MOL0     C72793   5.865   5.649   4.328  0.2525 -0.8483 -0.6348
  528MOL0     C72794   5.918   5.509   4.286  0.3536  0.2413  0.5637
  528MOL0     H72795   6.013   5.874   3.871  0.6830  1.6187 -0.1395
  528MOL0     H72796   6.120   5.829   3.645 -0.4550  1.6754  1.8254
  528MOL0     H72797   6.331   5.520   3.611 -0.5432  1.6646  1.9963
  528MOL0     H72798   6.326   5.646   3.491  1.1193 -0.5216  1.1073
  528MOL0     H72799   6.259   5.494   3.317  1.5637  0.6027 -0.3054
  528MOL0     H72800   6.412   5.444   3.396  0.3234  1.5943  0.8243
  528MOL0     H72801   6.232   5.305   3.546  1.5299 -3.6745  0.1574
  528MOL0     H72802   6.155   5.309   3.385  0.8269 -1.1970  0.4757
  528MOL0     H72803   6.442   5.226   3.454 -1.0142  3.9448  1.9220
  528MOL0     H72804   6.305   5.112   3.438  0.1654  0.0498  2.3522
  528MOL0     H72805   6.477   5.118   3.266  0.2158  0.0810  3.2379
  528MOL0     H72806   6.401   5.256   3.198  0.4955  0.9003  1.1464
  528MOL0     H72807   6.249   5.013   3.237  1.0624 -0.3018  0.4415
  528MOL0     H72808   6.174   5.159   3.199  0.4772  0.5194  0.6333
  528MOL0     H72809   6.393   5.015   3.024 -2.9740 -3.1691 -4.3366
  528MOL0     H72810   6.345   5.181   3.005  2.4437 -0.5811  2.2107
  528MOL0     H72811   6.122   4.979   2.997  0.6333 -0.5362 -1.2974
  528MOL0     H72812   6.133   5.133   2.910  4.0082  2.3296 -1.7842
  528MOL0     H72813   6.272   5.146   2.681  0.9225 -0.2122 -0.1586
  528MOL0     H72814   6.337   4.821   2.441  1.4459 -1.7043  1.6115
  528MOL0     H72815   6.418   4.974   2.455 -0.5406  1.1837 -0.2465
  528MOL0     H72816   6.107   4.952   2.440 -0.5024  3.0110  0.6148
  528MOL0     H72817   6.191   5.099   2.427 -0.8378  0.2530 -0.5273
  528MOL0     H72818   6.124   5.067   2.200 -1.0084 -1.1736 -1.2081
  528MOL0     H72819   6.300   5.063   2.216 -0.5504  1.5682  1.9950
  528MOL0     H72820   6.291   4.815   2.221  3.6954  2.7340 -1.7464
  528MOL0     H72821   6.120   4.831   2.159 -0.0405  0.5571 -3.5217
  528MOL0     H72822   6.233   4.958   1.791  1.3860  0.1020 -3.4806
  528MOL0     H72823   6.298   4.775   1.529 -0.3915 -1.8381  1.1341
  528MOL0     H72824   6.209   4.929   1.574 -0.3815  0.8699  2.1880
  528MOL0     H72825   6.119   4.795   1.506  0.5743 -2.3083  0.9284
  528MOL0     H72826   6.296   4.181   1.597 -0.8236 -2.2180  3.1040
  528MOL0     H72827   6.200   4.008   1.460  3.0606  0.9211  1.7503
  528MOL0     H72828   5.934   3.854   1.230 -0.5592 -0.8845  0.1015
  528MOL0     H72829   6.091   3.929   1.280 -1.2580  1.5460 -0.8855
  528MOL0     H72830   6.072   3.794   1.491  0.3990  3.7760 -0.6817
  528MOL0     H72831   5.911   3.742   1.446 -1.0146  4.4508  1.2561
  528MOL0     H72832   6.176   3.678   1.290 -1.1195  2.1730 -1.4015
  528MOL0     H72833   6.013   3.631   1.244 -1.1251  2.4208 -0.1920
  528MOL0     H72834   6.009   3.535   1.504  0.6615 -1.7624  0.6047
  528MOL0     H72835   6.171   3.510   1.474 -0.4417  0.2295  0.8312
  528MOL0     H72836   5.926   3.433   1.316  0.7670  0.1470 -1.6160
  528MOL0     H72837   6.091   3.383   1.254  1.1426 -2.0403  1.2003
  528MOL0     H72838   5.946   3.279   1.496  1.9738  2.0722  2.2268
  528MOL0     H72839   6.121   3.278   1.481  0.6172  1.6875 -1.4128
  528MOL0     H72840   6.046   3.062   1.404  1.4796 -0.4015 -2.1631
  528MOL0     H72841   6.091   3.133   1.245 -0.6073 -1.2507 -1.7672
  528MOL0     H72842   5.796   3.171   1.316 -2.0078 -1.9521 -2.1414
  528MOL0     H72843   5.874   3.022   1.264 -0.0252 -0.6032 -2.0515
  528MOL0     H72844   5.808   4.198   1.483  0.0978 -0.4585 -1.9223
  528MOL0     H72845   5.914   4.381   1.619 -2.7495 -2.0406  1.4774
  528MOL0     H72846   6.217   4.469   1.897 -1.6539  0.0164  0.2095
  528MOL0     H72847   6.269   4.631   2.065  1.6423  2.2958 -0.7416
  528MOL0     H72848   6.068   5.419   3.708  1.2845  0.3176  0.0773
  528MOL0     H72849   5.992   5.451   3.934 -1.4964 -1.5538 -3.3307
  528MOL0     H72850   5.863   5.976   4.254  2.4571 -2.2197 -1.0014
  528MOL0     H72851   5.722   5.986   4.455  2.0916  1.5942 -3.0049
  528MOL0     H72852   5.493   5.832   4.551 -1.0510 -2.1001 -1.8050
  528MOL0     H72853   5.540   5.660   4.582 -0.6146 -0.2279  0.5539
  528MOL0     H72854   5.536   5.687   4.815 -1.5727 -1.5371 -0.5523
  528MOL0     H72855   5.379   5.753   4.761  0.9195 -0.1294 -2.1737
  528MOL0     H72856   5.498   5.911   4.932 -2.4252 -0.8130 -0.2017
  528MOL0     H72857   5.632   5.923   4.817  0.8334 -0.2668  0.0658
  528MOL0     H72858   5.322   5.980   4.740 -0.6174 -0.1738 -3.7296
  528MOL0     H72859   5.471   6.019   4.650 -1.6620  0.5556  0.3277
  528MOL0     H72860   5.464   6.330   4.941 -1.4925 -0.3142  1.0587
  528MOL0     H72861   5.756   5.566   4.511 -3.2843  3.2380  2.3699
  528MOL0     H72862   5.954   5.456   4.375 -2.2969  0.6498  1.9858
  528MOL0     H72863   5.846   5.438   4.245  3.6173 -3.7520  1.1817
  528MOL0     H72864   5.994   5.520   4.207 -2.4339  0.6222 -2.2707
  529MOL0     O72865   5.120  10.311   8.340  0.3244  0.1368 -0.3178
  529MOL0     C72866   5.108  10.262   8.457  1.2384 -0.0108  0.3682
  529MOL0     O72867   5.170  10.154   8.497 -0.6274  0.0602  0.0570
  529MOL0     C72868   5.238  10.061   8.425 -0.7535 -0.4576  0.2425
  529MOL0     C72869   5.349   9.996   8.475  0.4153 -0.4223 -0.7470
  529MOL0     C72870   5.426   9.912   8.396  0.2623 -0.0399 -0.2774
  529MOL0     C72871   5.395   9.888   8.260 -0.3106  0.0724  0.1172
  529MOL0     O72872   5.462   9.806   8.174  0.4018 -0.3692 -0.1313
  529MOL0     C72873   5.556   9.710   8.226 -0.1204  0.1893  0.9841
  529MOL0     C72874   5.646   9.672   8.121  0.7536 -0.6211  0.8037
  529MOL0     C72875   5.730   9.790   8.071 -0.6388 -0.3209  0.5783
  529MOL0     C72876   5.837   9.746   7.975  0.3226 -1.1913  0.8220
  529MOL0     C72877   5.921   9.858   7.921 -0.5997  0.9550  0.3347
  529MOL0     C72878   6.023   9.796   7.816 -0.2596  0.4710 -1.1158
  529MOL0     C72879   6.108   9.900   7.745 -0.2790  0.0369  1.1488
  529MOL0     C72880   6.169  10.024   7.817  0.2680 -0.2575 -0.1711
  529MOL0     N72881   6.246  10.122   7.727  0.5628  0.8357  0.7081
  529MOL0     C72882   6.179  10.210   7.641 -0.3376 -0.6979  0.2805
  529MOL0     C72883   6.276  10.272   7.573 -0.1851 -0.1433  0.3909
  529MOL0     C72884   6.275  10.382   7.473 -0.8458 -0.0854  1.2155
  529MOL0     C72885   6.295  10.526   7.518 -0.1386 -0.5624 -0.6083
  529MOL0     C72886   6.292  10.628   7.407  0.4161 -0.4362  0.6150
  529MOL0     C72887   6.304  10.774   7.452  0.2033  0.1176  0.4493
  529MOL0     O72888   6.232  10.849   7.353  0.0902 -0.5635 -0.1009
  529MOL0     C72889   6.109  10.889   7.380  0.9190  0.0318  0.7811
  529MOL0     C72890   6.042  10.960   7.272 -0.0680  0.6235 -1.0243
  529MOL0     C72891   5.907  10.984   7.271  0.5524 -0.1902  0.5650
  529MOL0     C72892   5.843  11.035   7.139  0.0923 -0.3994 -0.7975
  529MOL0     C72893   5.835  10.967   7.389 -0.1760 -0.1208  0.1478
  529MOL0     C72894   5.690  11.015   7.397  0.0519 -0.5632  0.1216
  529MOL0     O72895   5.674  11.147   7.364  0.3238  0.3759  0.4535
  529MOL0     C72896   5.542  11.191   7.334 -0.5956 -0.9500 -0.9329
  529MOL0     C72897   5.442  11.117   7.270  0.7339 -0.7677  0.8440
  529MOL0     C72898   5.311  11.174   7.245 -0.4072  0.2395  0.5483
  529MOL0     C72899   5.283  11.308   7.286  0.1561 -0.4129 -0.7779
  529MOL0     O72900   5.161  11.368   7.248 -0.0050 -0.6542 -0.3500
  529MOL0     C72901   5.132  11.503   7.290 -0.5619 -0.2025  0.0142
  529MOL0     C72902   4.991  11.511   7.264  0.7268 -0.5384  0.2692
  529MOL0     C72903   4.919  11.651   7.297  0.7149 -0.6319 -0.1654
  529MOL0     C72904   4.758  11.650   7.311 -0.8939 -0.1667 -1.2388
  529MOL0     C72905   4.723  11.707   7.459 -0.0482 -0.0794  0.1367
  529MOL0     C72906   4.747  11.611   7.578 -0.5580 -0.1314  0.3324
  529MOL0     C72907   4.749  11.688   7.703  0.8226 -0.7274  0.1643
  529MOL0     C72908   4.886  11.763   7.723 -0.3357  0.1284 -0.0377
  529MOL0    Cl72909   5.017  11.629   7.746 -0.0839  0.3515  0.2975
  529MOL0     C72910   5.377  11.372   7.364 -0.8114 -0.7548  0.7888
  529MOL0     C72911   5.502  11.316   7.380  0.0137  0.1611 -0.1322
  529MOL0     O72912   5.601  10.940   7.439 -0.5873 -0.2449 -1.0981
  529MOL0     C72913   5.894  10.903   7.498 -0.9144  0.1393  0.4088
  529MOL0     C72914   6.030  10.858   7.491  0.5848  1.2006  0.0155
  529MOL0     N72915   6.400  10.222   7.621  0.7947  0.4861 -0.1295
  529MOL0     N72916   6.376  10.119   7.690 -0.3399 -0.0801 -0.9947
  529MOL0     C72917   5.280   9.940   8.205 -0.2384  0.0590  0.6245
  529MOL0     C72918   5.219  10.038   8.286  0.4300 -0.4312  0.3687
  529MOL0     C72919   5.004  10.320   8.552  0.1520  0.0868  0.8879
  529MOL0     C72920   5.027  10.313   8.692  0.9869  0.6251 -1.2416
  529MOL0     C72921   4.941  10.387   8.766  0.0604 -0.0009  1.0413
  529MOL0     C72922   4.820  10.435   8.707  1.1725  0.2549 -0.3617
  529MOL0     O72923   4.733  10.499   8.792 -0.2394 -0.6298 -0.1773
  529MOL0     C72924   4.752  10.503   8.936  0.6414  0.2172 -0.1015
  529MOL0     C72925   4.716  10.374   9.008 -0.1489  0.5351  0.1876
  529MOL0     C72926   4.584  10.300   8.961  0.4094  0.0993  0.0183
  529MOL0     C72927   4.461  10.395   8.983 -0.6784  0.4645 -0.1507
  529MOL0     C72928   4.417  10.392   9.120  1.3332  0.1639  0.4104
  529MOL0     C72929   4.393  10.381   9.238  0.4927  0.6951  0.4256
  529MOL0     C72930   4.783  10.405   8.577 -0.1000 -0.3419  1.1629
  529MOL0     C72931   4.873  10.340   8.494  0.4939  0.0113  0.7530
  529MOL0     C72932   4.836  10.319   8.352  0.0958  0.4344  1.2770
  529MOL0     H72933   5.384  10.007   8.577 -1.1778 -3.1557  0.1949
  529MOL0     H72934   5.511   9.865   8.444 -0.2486 -0.3178  0.3782
  529MOL0     H72935   5.487   9.628   8.248 -3.4829  2.1558 -1.3663
  529MOL0     H72936   5.619   9.732   8.313  2.1535 -0.9829 -0.2562
  529MOL0     H72937   5.714   9.597   8.163 -1.3332 -2.8217  0.4223
  529MOL0     H72938   5.591   9.628   8.038 -2.2791  1.7582  1.3744
  529MOL0     H72939   5.666   9.867   8.028 -1.0838 -0.1805  1.4608
  529MOL0     H72940   5.785   9.845   8.149 -0.0669 -1.2423  0.8438
  529MOL0     H72941   5.896   9.662   8.013 -0.2308 -1.4336  1.1538
  529MOL0     H72942   5.785   9.707   7.886 -2.8215  0.5037  1.7756
  529MOL0     H72943   5.969   9.910   8.005 -4.0567  1.5717  2.1185
  529MOL0     H72944   5.859   9.942   7.887  0.8654  3.4414  3.2898
  529MOL0     H72945   6.090   9.731   7.872  1.4109  3.2181  0.2992
  529MOL0     H72946   5.970   9.745   7.735 -2.7812  0.2330  0.5695
  529MOL0     H72947   6.051   9.948   7.665  1.1952  0.4629  0.2978
  529MOL0     H72948   6.189   9.853   7.689 -0.9180  1.9031 -1.5360
  529MOL0     H72949   6.088  10.072   7.873  1.7906  2.2303  0.0386
  529MOL0     H72950   6.244   9.988   7.888  1.1427  2.0203  0.1648
  529MOL0     H72951   6.073  10.227   7.627 -0.9691 -3.9780  0.2609
  529MOL0     H72952   6.179  10.385   7.420 -0.7994  0.2233  1.1480
  529MOL0     H72953   6.339  10.357   7.389  0.0598 -0.7208  2.0772
  529MOL0     H72954   6.219  10.540   7.596  0.3103  2.0870 -0.5265
  529MOL0     H72955   6.391  10.517   7.569  0.4190  0.1269 -1.5072
  529MOL0     H72956   6.364  10.618   7.325 -1.4513  1.6223 -1.4431
  529MOL0     H72957   6.198  10.613   7.352  0.1245  1.6585  0.4480
  529MOL0     H72958   6.267  10.776   7.554 -2.0314  2.0572 -0.3282
  529MOL0     H72959   6.409  10.804   7.466  0.6179 -2.0825  2.9332
  529MOL0     H72960   6.111  10.994   7.196  1.0999 -0.7454 -0.6180
  529MOL0     H72961   5.746  10.992   7.115  0.1160 -2.0574  1.6911
  529MOL0     H72962   5.907  11.010   7.054 -0.8773 -0.7087 -1.4481
  529MOL0     H72963   5.855  11.144   7.150  0.3108 -0.5066  0.0770
  529MOL0     H72964   5.474  11.017   7.243  0.0489 -0.7578 -0.0360
  529MOL0     H72965   5.245  11.129   7.171  1.9440 -0.9794 -0.9389
  529MOL0     H72966   5.155  11.518   7.396  3.8155  4.9408 -1.1977
  529MOL0     H72967   5.186  11.578   7.232  0.3283  0.5273  1.6920
  529MOL0     H72968   4.972  11.486   7.159  0.9212 -0.0162  0.1069
  529MOL0     H72969   4.942  11.435   7.327 -1.1270 -1.4374 -2.1105
  529MOL0     H72970   4.954  11.722   7.221 -0.6956 -1.3421 -1.5364
  529MOL0     H72971   4.949  11.698   7.391 -0.9980 -0.5381  0.3542
  529MOL0     H72972   4.742  11.544   7.292  2.2407 -0.6974 -1.3891
  529MOL0     H72973   4.729  11.713   7.227  0.5617  1.8183 -0.3290
  529MOL0     H72974   4.770  11.805   7.471 -4.2422  2.5120 -2.1114
  529MOL0     H72975   4.616  11.730   7.448  0.6405  2.9373 -1.4392
  529MOL0     H72976   4.838  11.551   7.571  0.1253  1.0614 -4.8741
  529MOL0     H72977   4.656  11.550   7.573 -1.6272  1.0632  3.2457
  529MOL0     H72978   4.709  11.630   7.786 -1.3843  0.4464 -0.0024
  529MOL0     H72979   4.667  11.760   7.690  0.8984 -0.8151 -0.9614
  529MOL0     H72980   4.892  11.836   7.804 -2.8275  0.3538  0.0012
  529MOL0     H72981   4.912  11.813   7.629  0.2292 -1.3932 -0.7232
  529MOL0     H72982   5.362  11.468   7.411 -1.5143 -0.7512  0.5666
  529MOL0     H72983   5.569  11.387   7.427 -0.6399 -0.1175  1.2630
  529MOL0     H72984   5.846  10.893   7.595 -1.7304  1.1944  0.1217
  529MOL0     H72985   6.073  10.809   7.577 -1.2878 -2.4367 -0.9268
  529MOL0     H72986   5.244   9.933   8.103  1.2218 -0.7637  0.1455
  529MOL0     H72987   5.132  10.083   8.238  3.0990  4.5281 -0.4495
  529MOL0     H72988   5.104  10.260   8.747  1.1019  2.6874  0.7026
  529MOL0     H72989   4.984  10.396   8.865  1.4401 -0.8640  0.5520
  529MOL0     H72990   4.852  10.536   8.964  2.6092 -2.0164 -3.7815
  529MOL0     H72991   4.671  10.571   8.967  1.1264  2.0630 -2.5866
  529MOL0     H72992   4.708  10.401   9.114  0.5813 -0.1949  0.4401
  529MOL0     H72993   4.801  10.305   9.000 -1.1001 -0.7955  1.1714
  529MOL0     H72994   4.590  10.282   8.853  0.4790 -3.0803  0.4617
  529MOL0     H72995   4.570  10.208   9.018  2.6648  0.5754  1.4737
  529MOL0     H72996   4.379  10.357   8.920 -0.2655  1.1170 -1.1020
  529MOL0     H72997   4.477  10.500   8.958 -0.5867  0.0133 -2.1444
  529MOL0     H72998   4.383  10.351   9.340  3.4826 -0.9080  0.3716
  529MOL0     H72999   4.679  10.417   8.549  0.1458  1.7336  0.9606
  529MOL0     H73000   4.889  10.230   8.314 -3.6726 -2.2147  1.6625
  529MOL0     H73001   4.732  10.288   8.344  0.4837 -0.5260 -0.6125
  529MOL0     H73002   4.854  10.411   8.296  0.4341 -0.8929 -0.9114
  530MOL0     O73003   0.235   3.337   4.561 -0.3999  0.0042  0.4015
  530MOL0     C73004   0.275   3.227   4.520  0.2217  0.6004  0.2989
  530MOL0     O73005   0.376   3.205   4.429  0.3574  0.4723  0.5679
  530MOL0     C73006   0.446   3.305   4.368 -0.7832  0.4721 -0.4735
  530MOL0     C73007   0.473   3.292   4.236 -0.3141 -0.4094  0.3432
  530MOL0     C73008   0.532   3.397   4.161  0.2010 -0.8900  0.2479
  530MOL0     C73009   0.551   3.527   4.218 -0.2943 -0.6637  0.4592
  530MOL0     O73010   0.600   3.627   4.139  0.6611 -0.8631  0.1987
  530MOL0     C73011   0.492   3.711   4.084 -0.5168  0.0473  0.0446
  530MOL0     C73012   0.538   3.854   4.079  0.4840 -0.5781  1.0284
  530MOL0     C73013   0.657   3.879   3.983 -0.3889 -0.0765 -0.1358
  530MOL0     C73014   0.737   4.002   4.022 -0.1527 -0.0251 -0.7312
  530MOL0     C73015   0.849   4.034   3.918 -0.0415 -1.1166 -0.9001
  530MOL0     C73016   0.910   4.163   3.958 -0.2483 -1.9036 -0.7692
  530MOL0     C73017   1.042   4.186   3.885  0.0756  0.6861 -0.2164
  530MOL0     C73018   1.131   4.289   3.961  0.1124 -0.4543  0.6627
  530MOL0     N73019   1.262   4.325   3.899  0.2609  0.5992  0.0936
  530MOL0     C73020   1.362   4.424   3.931  0.6635  0.0809 -0.0259
  530MOL0     C73021   1.464   4.401   3.843 -0.3288 -1.0140  0.5400
  530MOL0     C73022   1.601   4.461   3.840 -0.5114 -0.4972 -0.4265
  530MOL0     C73023   1.679   4.437   3.970 -0.1557 -0.3185 -0.1064
  530MOL0     C73024   1.693   4.285   4.016  0.4497  0.3547 -0.0104
  530MOL0     C73025   1.838   4.232   4.037  0.4829  0.7080 -0.1442
  530MOL0     O73026   1.916   4.313   4.123 -1.3252 -0.8644  0.4292
  530MOL0     C73027   1.906   4.324   4.259 -0.3696  0.3335  0.5700
  530MOL0     C73028   1.992   4.407   4.325  0.3413 -0.8982  0.4583
  530MOL0     C73029   1.992   4.434   4.462  0.1718  1.3410  0.1941
  530MOL0     C73030   2.095   4.533   4.509 -0.3394 -1.2561 -0.7206
  530MOL0     C73031   1.894   4.374   4.549  0.2782  0.3926 -0.0653
  530MOL0     C73032   1.894   4.382   4.694  0.9707  0.0001  0.4879
  530MOL0     O73033   1.936   4.498   4.750 -0.5220 -0.1663  0.4251
  530MOL0     C73034   1.921   4.528   4.887 -1.1545 -0.0320 -0.6028
  530MOL0     C73035   1.843   4.638   4.935  1.1889 -0.0221  0.3120
  530MOL0     C73036   1.832   4.653   5.072 -0.2573  1.2748 -0.6448
  530MOL0     C73037   1.900   4.569   5.165 -0.0810 -0.7124 -0.1655
  530MOL0     O73038   1.903   4.592   5.307  0.3614 -0.0799  0.1276
  530MOL0     C73039   1.796   4.660   5.368  0.2496  0.4655 -0.5975
  530MOL0     C73040   1.786   4.613   5.518  0.0943  0.1786  0.7975
  530MOL0     C73041   1.748   4.463   5.537 -0.0783  0.4730 -0.2026
  530MOL0     C73042   1.752   4.436   5.692 -0.5040  0.7215 -0.3694
  530MOL0     C73043   1.722   4.294   5.723 -0.2047  0.1553 -0.1139
  530MOL0     C73044   1.766   4.249   5.862  0.0458  0.5517  0.7482
  530MOL0     C73045   1.700   4.305   5.984 -0.2542 -0.5155 -0.3459
  530MOL0     C73046   1.671   4.197   6.078 -0.3411  1.0447  0.1540
  530MOL0    Cl73047   1.817   4.118   6.142 -0.5645 -0.4649  0.0951
  530MOL0     C73048   1.976   4.467   5.121 -0.0017 -1.1524  0.0753
  530MOL0     C73049   1.981   4.445   4.984  0.3317  0.9054  0.5051
  530MOL0     O73050   1.861   4.281   4.758  0.3225  0.8204  0.1162
  530MOL0     C73051   1.800   4.302   4.482  0.6971 -0.9339  0.7629
  530MOL0     C73052   1.805   4.282   4.345  0.5865 -0.2039 -0.5648
  530MOL0     N73053   1.432   4.298   3.764  0.2184 -0.1486  0.2876
  530MOL0     N73054   1.319   4.249   3.805 -0.6661 -0.5026 -0.1616
  530MOL0     C73055   0.531   3.541   4.354  0.0064 -0.0314  0.4613
  530MOL0     C73056   0.482   3.428   4.433 -0.3839 -0.7051 -0.1650
  530MOL0     C73057   0.212   3.113   4.588  0.0227 -0.1221  0.4588
  530MOL0     C73058   0.216   2.989   4.516 -0.3862 -0.5793 -0.3011
  530MOL0     C73059   0.167   2.869   4.579 -1.1600  0.1151  0.6821
  530MOL0     C73060   0.136   2.862   4.716 -1.3087  0.5133  0.4070
  530MOL0     O73061   0.091   2.738   4.755 -0.2132 -0.3335  0.3764
  530MOL0     C73062   0.055   2.709   4.895 -0.3811  0.0810 -0.1094
  530MOL0     C73063   0.051   2.564   4.913  0.2878  0.2177  1.1371
  530MOL0     C73064   0.181   2.496   4.875  0.1569  0.0055  0.5831
  530MOL0     C73065   0.171   2.342   4.885  0.7761 -0.9096  0.0090
  530MOL0     C73066   0.289   2.280   4.823  0.6934  0.6120 -0.6657
  530MOL0     C73067   0.376   2.224   4.763  0.4041  0.9562  0.4570
  530MOL0     C73068   0.137   2.974   4.785 -0.1060  0.1357  0.2825
  530MOL0     C73069   0.166   3.103   4.720  0.2547  1.2574  0.7674
  530MOL0     C73070   0.171   3.223   4.818  1.6992 -0.5977  0.5843
  530MOL0     H73071   0.447   3.200   4.185  2.0821 -0.9375 -0.0215
  530MOL0     H73072   0.567   3.380   4.060 -0.7970  0.2496 -0.3174
  530MOL0     H73073   0.402   3.712   4.146 -1.3401  1.4626 -1.1178
  530MOL0     H73074   0.481   3.669   3.984  1.3040  1.4669 -0.8221
  530MOL0     H73075   0.457   3.921   4.047  0.9007 -2.1397 -4.2800
  530MOL0     H73076   0.562   3.880   4.182  2.4448  0.3579  0.3840
  530MOL0     H73077   0.715   3.787   3.994 -4.2770 -2.7793 -0.2678
  530MOL0     H73078   0.629   3.891   3.878 -1.7141  1.0570  0.3148
  530MOL0     H73079   0.669   4.087   4.033  0.1268  0.3860 -1.9912
  530MOL0     H73080   0.778   3.989   4.123  1.1493 -2.5387 -1.4968
  530MOL0     H73081   0.795   4.045   3.823 -0.6138 -0.6662 -0.5306
  530MOL0     H73082   0.923   3.953   3.918 -0.8742 -1.9947 -3.5278
  530MOL0     H73083   0.839   4.243   3.936  1.4635  0.6618  2.1609
  530MOL0     H73084   0.915   4.175   4.067  0.7648  0.1950 -1.0093
  530MOL0     H73085   1.017   4.235   3.790  2.0738  0.0760 -1.0894
  530MOL0     H73086   1.084   4.086   3.881 -0.4140  0.2897  2.5372
  530MOL0     H73087   1.070   4.377   3.982  0.3504 -0.2503  0.4994
  530MOL0     H73088   1.157   4.246   4.058 -1.1791  0.1262  1.3008
  530MOL0     H73089   1.346   4.496   4.011 -0.3694 -0.7379  0.5259
  530MOL0     H73090   1.591   4.569   3.826 -1.8121 -0.8076 -2.2532
  530MOL0     H73091   1.643   4.418   3.748  1.3420  0.0304  0.1255
  530MOL0     H73092   1.779   4.481   3.963 -0.1178 -0.5392 -1.0342
  530MOL0     H73093   1.631   4.493   4.051  3.7945 -0.3664  2.5450
  530MOL0     H73094   1.631   4.266   4.105 -0.9085 -1.5129 -1.2603
  530MOL0     H73095   1.639   4.214   3.953  1.5110 -1.9433  1.5229
  530MOL0     H73096   1.839   4.135   4.087  0.6479  0.2992 -0.9192
  530MOL0     H73097   1.891   4.222   3.942  0.5689 -0.9488  0.0509
  530MOL0     H73098   2.062   4.458   4.259 -1.5631  2.0103  0.4927
  530MOL0     H73099   2.040   4.623   4.537 -2.6794 -3.3407  1.9326
  530MOL0     H73100   2.172   4.555   4.434  1.0754 -2.2596  0.3569
  530MOL0     H73101   2.151   4.501   4.597  1.9616  0.5875 -1.4257
  530MOL0     H73102   1.790   4.702   4.865 -3.6943 -2.1322  1.6429
  530MOL0     H73103   1.765   4.732   5.103 -3.5758 -0.2281 -3.3656
  530MOL0     H73104   1.823   4.766   5.374  1.3625  0.1185  1.4091
  530MOL0     H73105   1.701   4.652   5.314  0.9568  3.1035 -2.4331
  530MOL0     H73106   1.887   4.627   5.558 -0.5982  1.3759  2.2096
  530MOL0     H73107   1.711   4.676   5.565 -2.1533 -0.4072 -1.7431
  530MOL0     H73108   1.802   4.388   5.478 -1.8277 -1.3964  0.4557
  530MOL0     H73109   1.645   4.461   5.502 -0.0341  2.9583 -0.6026
  530MOL0     H73110   1.681   4.490   5.756  0.7946 -0.4516  2.2318
  530MOL0     H73111   1.851   4.473   5.721  0.0409  0.7801 -2.2090
  530MOL0     H73112   1.613   4.285   5.719 -0.1278 -1.2078  0.4556
  530MOL0     H73113   1.768   4.234   5.644  1.9391  1.0894  0.3360
  530MOL0     H73114   1.867   4.289   5.872 -1.1024  3.7837  0.4995
  530MOL0     H73115   1.760   4.139   5.860 -0.3491  0.5713 -1.5439
  530MOL0     H73116   1.612   4.360   5.951 -0.5523 -0.9358 -0.2684
  530MOL0     H73117   1.769   4.379   6.026 -0.2926  0.7984 -2.4673
  530MOL0     H73118   1.606   4.115   6.045 -2.2903  1.6905  2.1477
  530MOL0     H73119   1.620   4.242   6.163 -0.0999  2.6203 -0.5006
  530MOL0     H73120   2.033   4.408   5.192 -0.9915  0.3126  2.2227
  530MOL0     H73121   2.050   4.363   4.964  0.5339  0.7787  1.6906
  530MOL0     H73122   1.716   4.261   4.537 -1.6908 -0.0861 -1.9977
  530MOL0     H73123   1.714   4.232   4.312 -3.5006  4.2876  2.3951
  530MOL0     H73124   0.548   3.642   4.391  0.9688  2.1408 -4.8443
  530MOL0     H73125   0.445   3.444   4.534 -0.5540 -4.3149  0.4889
  530MOL0     H73126   0.238   2.995   4.410 -0.7914 -0.9232 -0.4101
  530MOL0     H73127   0.161   2.769   4.539 -1.1876  0.1540  0.5903
  530MOL0     H73128   0.135   2.742   4.962  0.1593  2.4119 -1.7824
  530MOL0     H73129  -0.043   2.743   4.930 -0.9964 -2.0755  0.4213
  530MOL0     H73130  -0.029   2.534   4.845  1.6857  0.7518 -0.8305
  530MOL0     H73131   0.007   2.534   5.009 -0.4795 -1.3140  0.3503
  530MOL0     H73132   0.210   2.510   4.771  1.6631 -2.5041  0.5775
  530MOL0     H73133   0.274   2.538   4.915 -0.2668  1.5553 -0.0082
  530MOL0     H73134   0.079   2.309   4.835 -0.1071  0.9626  0.3091
  530MOL0     H73135   0.170   2.306   4.988 -0.0171  1.6900  0.9739
  530MOL0     H73136   0.459   2.191   4.703 -0.4080 -0.5498  0.1180
  530MOL0     H73137   0.110   2.971   4.890  1.9671  0.2139  0.8609
  530MOL0     H73138   0.132   3.316   4.774  1.7238  0.3688  2.5069
  530MOL0     H73139   0.104   3.201   4.902 -2.4554  0.5201 -2.1149
  530MOL0     H73140   0.274   3.237   4.851  1.9570  2.9161 -1.2539
  531MOL0     O73141   8.621   9.955   9.171 -0.2976 -0.5439 -0.3674
  531MOL0     C73142   8.501   9.947   9.179  0.4234  0.2351 -0.5412
  531MOL0     O73143   8.425   9.830   9.185 -0.3936  0.1773  0.9531
  531MOL0     C73144   8.484   9.709   9.146  0.2183 -0.5812 -1.2891
  531MOL0     C73145   8.597   9.686   9.076  0.2554  0.2381 -0.1114
  531MOL0     C73146   8.640   9.567   9.025  0.7818 -0.4022 -0.0650
  531MOL0     C73147   8.566   9.451   9.059 -0.2911 -0.2405 -0.5272
  531MOL0     O73148   8.608   9.328   9.023 -0.1360 -0.7191 -0.0347
  531MOL0     C73149   8.729   9.307   8.949  1.2508 -0.4041  0.2775
  531MOL0     C73150   8.771   9.168   8.969  0.3993 -0.0933 -0.2189
  531MOL0     C73151   8.672   9.070   8.891  0.0692 -0.2579  0.0653
  531MOL0     C73152   8.698   8.931   8.953 -0.3122 -0.5365 -0.2693
  531MOL0     C73153   8.622   8.830   8.863 -0.3416  0.1145  1.4405
  531MOL0     C73154   8.646   8.681   8.898  1.1166  0.2841  0.9995
  531MOL0     C73155   8.578   8.577   8.803 -1.3326 -0.5351  0.2085
  531MOL0     C73156   8.424   8.576   8.792  0.1224 -0.5817 -0.9782
  531MOL0     N73157   8.390   8.457   8.716  0.0046  0.5773 -0.6877
  531MOL0     C73158   8.424   8.444   8.581  0.1281 -0.0817 -0.1810
  531MOL0     C73159   8.376   8.325   8.552 -0.6116  0.5546 -0.2566
  531MOL0     C73160   8.394   8.244   8.431 -0.6750 -0.0240  0.5933
  531MOL0     C73161   8.540   8.193   8.406 -0.3479 -0.6946  0.4058
  531MOL0     C73162   8.560   8.168   8.264  0.1414 -0.4194  0.0358
  531MOL0     C73163   8.672   8.077   8.214  1.0596  0.1231  0.5541
  531MOL0     O73164   8.661   7.939   8.251  0.7353 -0.0874  0.2059
  531MOL0     C73165   8.575   7.860   8.182  0.6802  0.7368 -0.4213
  531MOL0     C73166   8.517   7.888   8.059 -0.3989 -0.3939 -1.0496
  531MOL0     C73167   8.439   7.796   7.993 -0.0581 -0.0415 -0.6667
  531MOL0     C73168   8.353   7.838   7.879  0.4568  0.4331 -0.0259
  531MOL0     C73169   8.438   7.660   8.035 -0.2398 -0.2157 -0.1963
  531MOL0     C73170   8.380   7.554   7.960 -0.2643 -0.8301  0.2878
  531MOL0     O73171   8.321   7.456   8.035 -0.2635  0.7040 -1.3011
  531MOL0     C73172   8.210   7.387   7.992  0.9707  0.7458  0.5485
  531MOL0     C73173   8.130   7.417   7.877 -0.7543 -1.1151 -0.4199
  531MOL0     C73174   8.007   7.358   7.850  0.4964  0.6235 -0.2908
  531MOL0     C73175   7.949   7.258   7.938 -1.0790 -0.7950 -0.0947
  531MOL0     O73176   7.828   7.193   7.933 -0.3220 -0.2310  0.7487
  531MOL0     C73177   7.712   7.255   7.878 -0.7532  0.4386 -0.1933
  531MOL0     C73178   7.600   7.151   7.870 -0.0443  0.1558 -1.1890
  531MOL0     C73179   7.546   7.115   8.015  0.0482 -1.0358  1.1180
  531MOL0     C73180   7.437   7.206   8.066 -0.1172  0.0388  0.6690
  531MOL0     C73181   7.311   7.175   7.991 -0.5778 -0.9899  0.1439
  531MOL0     C73182   7.201   7.139   8.082  1.5172  0.0597 -0.5390
  531MOL0     C73183   7.064   7.142   8.012  0.0767 -0.9405 -0.2235
  531MOL0     C73184   6.945   7.166   8.103  0.3717  0.3983  0.0147
  531MOL0    Cl73185   6.796   7.166   8.010 -0.1338  0.4861  0.3970
  531MOL0     C73186   8.038   7.223   8.039 -1.3240  0.7014  0.1727
  531MOL0     C73187   8.165   7.272   8.065 -0.3133  0.4586 -0.6944
  531MOL0     O73188   8.379   7.554   7.836  0.9148 -0.3330  0.0153
  531MOL0     C73189   8.507   7.625   8.151  0.3180  0.1645 -0.4040
  531MOL0     C73190   8.567   7.726   8.232  0.4114  0.1553  0.6418
  531MOL0     N73191   8.325   8.266   8.670 -0.3463  0.1697 -0.0509
  531MOL0     N73192   8.329   8.354   8.759  1.0830  1.2685  0.2057
  531MOL0     C73193   8.465   9.462   9.146  0.0973 -0.7783  0.1667
  531MOL0     C73194   8.425   9.585   9.193  0.0267 -0.1982 -0.4522
  531MOL0     C73195   8.436  10.072   9.206  0.1673  0.0273  0.1446
  531MOL0     C73196   8.454  10.182   9.118  0.8961  0.1154 -0.2812
  531MOL0     C73197   8.376  10.295   9.128 -0.5309  0.0171 -1.0175
  531MOL0     C73198   8.289  10.310   9.237 -0.8976 -0.8020  0.5382
  531MOL0     O73199   8.220  10.430   9.250  0.4849 -0.1332  0.0514
  531MOL0     C73200   8.128  10.441   9.363  0.2182  0.0907 -0.0388
  531MOL0     C73201   8.065  10.589   9.367 -0.0485  0.2101 -0.8281
  531MOL0     C73202   8.188  10.682   9.391  0.4633 -1.2466  0.3326
  531MOL0     C73203   8.129  10.826   9.416  0.0421  0.5852 -0.5654
  531MOL0     C73204   8.077  10.864   9.551 -0.4396 -0.3101 -0.7201
  531MOL0     C73205   8.039  10.903   9.660 -0.8578  0.4708  0.5233
  531MOL0     C73206   8.280  10.201   9.327 -0.2679  0.9676 -0.1199
  531MOL0     C73207   8.331  10.076   9.308  0.0965  0.2863  0.6028
  531MOL0     C73208   8.310   9.970   9.407  1.0609 -1.4290 -0.1569
  531MOL0     H73209   8.681   9.751   9.053  2.1348 -2.7821 -2.6950
  531MOL0     H73210   8.731   9.559   8.967  1.3739  0.6642  0.6688
  531MOL0     H73211   8.809   9.367   8.993  0.4617  1.0379 -0.1958
  531MOL0     H73212   8.722   9.331   8.843  1.0807  2.2353  0.8041
  531MOL0     H73213   8.876   9.142   8.950  0.0658 -0.5097 -1.6113
  531MOL0     H73214   8.768   9.145   9.076 -2.0984  1.4908  0.1132
  531MOL0     H73215   8.566   9.094   8.902 -0.4537 -3.1670  2.6243
  531MOL0     H73216   8.704   9.087   8.788  0.4328  1.6213  0.4483
  531MOL0     H73217   8.807   8.915   8.953  0.1399  2.0031  0.9468
  531MOL0     H73218   8.660   8.930   9.055 -0.0696  0.2209 -0.1594
  531MOL0     H73219   8.641   8.852   8.758  4.5153 -0.7526  1.8907
  531MOL0     H73220   8.519   8.852   8.890 -0.2617 -0.0007  1.8564
  531MOL0     H73221   8.753   8.661   8.889  0.3630 -3.9975 -0.6270
  531MOL0     H73222   8.607   8.665   8.999 -1.4976 -0.9528 -0.1043
  531MOL0     H73223   8.611   8.475   8.822 -3.7476 -1.6696 -1.2546
  531MOL0     H73224   8.620   8.605   8.707 -2.3369  1.1373  0.2126
  531MOL0     H73225   8.379   8.576   8.892 -0.0418  0.4774 -1.0331
  531MOL0     H73226   8.372   8.659   8.744  1.9360  0.4972 -1.1913
  531MOL0     H73227   8.476   8.515   8.518  1.3656 -2.1603 -1.6495
  531MOL0     H73228   8.357   8.289   8.338  2.4116 -3.8577 -2.9177
  531MOL0     H73229   8.337   8.153   8.448 -1.0473 -0.4332 -2.2949
  531MOL0     H73230   8.602   8.276   8.439  2.1116 -1.5665 -1.6899
  531MOL0     H73231   8.566   8.107   8.468  0.6677  0.2012  1.2656
  531MOL0     H73232   8.464   8.132   8.225  0.8124 -2.5159  0.2294
  531MOL0     H73233   8.583   8.262   8.213 -0.6221 -1.0619 -1.5794
  531MOL0     H73234   8.675   8.073   8.105 -0.1506 -6.0518  0.4252
  531MOL0     H73235   8.763   8.118   8.260  2.6908  1.5813 -3.5121
  531MOL0     H73236   8.513   7.992   8.027  1.6447 -0.3467 -1.2730
  531MOL0     H73237   8.330   7.944   7.896  1.8183  0.5512  1.2860
  531MOL0     H73238   8.258   7.788   7.865  0.4722  0.9706 -2.5321
  531MOL0     H73239   8.414   7.838   7.788 -0.1637 -0.1813 -0.4507
  531MOL0     H73240   8.156   7.497   7.807 -4.4603  0.8746  0.2024
  531MOL0     H73241   7.950   7.390   7.763  0.0490  3.1926  0.8642
  531MOL0     H73242   7.678   7.340   7.938 -1.5445 -0.2088  0.3074
  531MOL0     H73243   7.728   7.289   7.775  0.4542  1.0749  0.1835
  531MOL0     H73244   7.516   7.195   7.816 -0.9864 -0.9044 -0.6322
  531MOL0     H73245   7.632   7.061   7.817 -0.1977 -0.8299  0.3322
  531MOL0     H73246   7.638   7.124   8.073  0.2904 -0.3012  0.6318
  531MOL0     H73247   7.509   7.012   8.013 -2.6068 -0.1673  1.5736
  531MOL0     H73248   7.466   7.308   8.042 -1.8885  0.9529  2.1601
  531MOL0     H73249   7.432   7.200   8.175  0.2585  0.4148  0.7091
  531MOL0     H73250   7.284   7.270   7.944  1.6473 -1.5640 -2.5721
  531MOL0     H73251   7.327   7.098   7.915 -0.0072  0.2029 -0.9757
  531MOL0     H73252   7.198   7.197   8.176  0.0751  0.3289 -0.7216
  531MOL0     H73253   7.228   7.044   8.128  2.5181  1.3002  1.6364
  531MOL0     H73254   7.054   7.043   7.967  0.2107 -1.7520  1.4610
  531MOL0     H73255   7.072   7.213   7.929  0.7867  0.8029  1.2390
  531MOL0     H73256   6.948   7.256   8.165  0.7382 -0.8557  1.9054
  531MOL0     H73257   6.943   7.085   8.177  0.6610  0.0551 -0.3466
  531MOL0     H73258   8.004   7.145   8.106 -3.3637  0.3485 -1.1994
  531MOL0     H73259   8.232   7.250   8.148 -1.5960  0.6640  0.4421
  531MOL0     H73260   8.504   7.519   8.173  0.0286 -0.2559 -2.2721
  531MOL0     H73261   8.631   7.692   8.312  0.5780 -3.2234 -0.7422
  531MOL0     H73262   8.411   9.380   9.193 -3.8971  1.6361  0.1918
  531MOL0     H73263   8.342   9.594   9.262  0.9241  0.9771  0.5317
  531MOL0     H73264   8.517  10.163   9.031  0.8885  1.1513 -0.5329
  531MOL0     H73265   8.385  10.377   9.057  0.2752  0.0868 -0.8461
  531MOL0     H73266   8.040  10.376   9.363 -0.1555  0.4425  2.9564
  531MOL0     H73267   8.190  10.414   9.449 -0.3839  1.4400  0.8511
  531MOL0     H73268   8.000  10.617   9.451  1.5248  1.2535  0.0956
  531MOL0     H73269   8.018  10.607   9.270  1.5144  3.5023 -1.1465
  531MOL0     H73270   8.250  10.644   9.473  0.3177 -1.1908  0.4689
  531MOL0     H73271   8.252  10.675   9.303 -0.0656 -1.8131 -0.0216
  531MOL0     H73272   8.042  10.834   9.350 -1.0619 -2.7506  0.2693
  531MOL0     H73273   8.193  10.902   9.371  1.9422 -1.8316 -2.1713
  531MOL0     H73274   8.005  10.927   9.759  1.2875  0.8789  1.2110
  531MOL0     H73275   8.214  10.204   9.413 -1.7945  0.7759 -1.2307
  531MOL0     H73276   8.409   9.928   9.426  1.5332 -0.1926  0.2266
  531MOL0     H73277   8.273  10.022   9.496  2.5091 -1.1766  0.3293
  531MOL0     H73278   8.236   9.894   9.380  1.1108 -1.7608  0.5981
  532MOL0     O73279   2.306  10.482   8.487  0.2525  0.7364 -0.4230
  532MOL0     C73280   2.367  10.586   8.467 -0.4338 -0.8397 -0.5973
  532MOL0     O73281   2.372  10.696   8.550  0.1684  1.0675 -0.5844
  532MOL0     C73282   2.321  10.690   8.681 -0.8125  0.9642 -0.3552
  532MOL0     C73283   2.419  10.668   8.778  0.2650 -0.3198 -0.0835
  532MOL0     C73284   2.378  10.679   8.916 -0.2744  0.7164  0.0671
  532MOL0     C73285   2.245  10.679   8.937  0.6512 -0.0448 -0.4273
  532MOL0     O73286   2.205  10.680   9.073  0.5146  0.3680 -0.0741
  532MOL0     C73287   2.160  10.802   9.123  0.0806 -0.5684  0.1969
  532MOL0     C73288   2.186  10.837   9.267  0.9748  1.1625  0.2086
  532MOL0     C73289   2.326  10.800   9.317 -0.4863 -0.3746 -0.0637
  532MOL0     C73290   2.345  10.833   9.468 -0.2290 -0.6720 -1.0113
  532MOL0     C73291   2.489  10.798   9.518  1.0487  0.6558  0.4514
  532MOL0     C73292   2.608  10.866   9.446  0.9496  0.6803 -0.1255
  532MOL0     C73293   2.617  11.012   9.491  0.3311 -0.4682 -1.0679
  532MOL0     C73294   2.762  11.055   9.463 -0.0813 -0.0083 -0.5690
  532MOL0     N73295   2.784  11.204   9.461  0.7645  0.0882 -0.0180
  532MOL0     C73296   2.782  11.285   9.573  0.0648  0.9266  0.1652
  532MOL0     C73297   2.820  11.405   9.521 -0.8628  1.4280 -0.9359
  532MOL0     C73298   2.836  11.513   9.622 -0.2894  0.2448  0.3686
  532MOL0     C73299   2.959  11.594   9.599 -0.7904 -0.1981 -0.4304
  532MOL0     C73300   3.079  11.525   9.675 -0.1359  1.1628 -0.1299
  532MOL0     C73301   3.220  11.581   9.650  0.2119 -0.0015  0.2136
  532MOL0     O73302   3.243  11.551   9.514 -0.2749 -0.3123 -0.0522
  532MOL0     C73303   3.328  11.639   9.448  0.4537  0.3619 -0.1587
  532MOL0     C73304   3.411  11.734   9.505  0.1652  0.0773 -0.2189
  532MOL0     C73305   3.472  11.832   9.425 -0.1236 -0.8172  0.2810
  532MOL0     C73306   3.532  11.953   9.490 -1.0562  0.1169  0.0926
  532MOL0     C73307   3.456  11.820   9.279  0.2503 -0.6786 -0.1057
  532MOL0     C73308   3.507  11.916   9.178 -0.4644 -0.1899 -0.0974
  532MOL0     O73309   3.417  11.955   9.077  0.5043  0.0298 -0.0783
  532MOL0     C73310   3.460  12.041   8.976  0.6410 -0.9446 -1.5726
  532MOL0     C73311   3.509  12.171   9.015  0.3750  0.2972  0.5397
  532MOL0     C73312   3.536  12.262   8.912 -0.1626 -0.6184 -0.1321
  532MOL0     C73313   3.518  12.232   8.770 -0.7366 -0.4994  0.5331
  532MOL0     O73314   3.528  12.326   8.674 -0.5083 -0.0355  0.3271
  532MOL0     C73315   3.575  12.298   8.548 -0.4691  0.1698 -0.5623
  532MOL0     C73316   3.611  12.433   8.491 -0.3107 -0.1618 -0.3777
  532MOL0     C73317   3.482  12.516   8.459 -0.0291 -0.2812  0.0045
  532MOL0     C73318   3.522  12.659   8.429  0.6558  0.1821  0.0118
  532MOL0     C73319   3.391  12.757   8.404 -0.9546 -1.0706  0.2987
  532MOL0     C73320   3.301  12.695   8.294 -0.1986  0.3084  0.0930
  532MOL0     C73321   3.371  12.696   8.156  0.2530  0.2856  0.3331
  532MOL0     C73322   3.294  12.625   8.042  0.3322  0.2143 -1.0247
  532MOL0    Cl73323   3.398  12.654   7.898 -0.0071 -0.0150 -0.1886
  532MOL0     C73324   3.484  12.102   8.737 -0.0010 -0.4256 -0.1129
  532MOL0     C73325   3.446  12.021   8.841  0.7312  0.0128  0.5134
  532MOL0     O73326   3.630  11.933   9.189 -0.1963 -0.1059 -0.3601
  532MOL0     C73327   3.375  11.719   9.215  0.2421 -0.1722  0.2159
  532MOL0     C73328   3.310  11.631   9.308  0.1145 -0.1117  0.4845
  532MOL0     N73329   2.811  11.400   9.385 -0.0736  0.1834 -0.6005
  532MOL0     N73330   2.802  11.276   9.349 -0.8917  0.7745  0.2868
  532MOL0     C73331   2.145  10.679   8.839 -0.8236  1.1195  0.4447
  532MOL0     C73332   2.186  10.692   8.701 -0.3759 -0.2816  0.4716
  532MOL0     C73333   2.409  10.607   8.332 -0.6598  0.6519  0.3157
  532MOL0     C73334   2.371  10.730   8.270  0.7412  1.2492  0.1035
  532MOL0     C73335   2.406  10.746   8.134 -0.6492 -0.5413  1.2659
  532MOL0     C73336   2.475  10.648   8.063  0.3124 -0.3817  0.1333
  532MOL0     O73337   2.519  10.690   7.938  0.7678 -0.5355 -0.2244
  532MOL0     C73338   2.626  10.613   7.877 -0.2107  0.0084  0.7188
  532MOL0     C73339   2.666  10.691   7.753 -0.3168 -0.3364  0.1595
  532MOL0     C73340   2.816  10.647   7.717  0.0353  0.3070 -0.0760
  532MOL0     C73341   2.874  10.712   7.589  0.0576 -0.4517 -0.7420
  532MOL0     C73342   2.922  10.849   7.625  0.1562  0.9018  0.4019
  532MOL0     C73343   2.966  10.963   7.645 -0.1022 -0.4463  0.0194
  532MOL0     C73344   2.512  10.526   8.118 -0.8590 -0.1120 -0.4490
  532MOL0     C73345   2.464  10.503   8.249  0.8800 -0.2296 -0.3770
  532MOL0     C73346   2.513  10.368   8.300  0.3862  0.3890  0.1075
  532MOL0     H73347   2.525  10.671   8.754  0.5989  0.1637  1.3183
  532MOL0     H73348   2.453  10.670   8.994  1.8030  1.6819 -1.7303
  532MOL0     H73349   2.055  10.820   9.097 -0.2069 -3.0608 -0.6845
  532MOL0     H73350   2.206  10.883   9.067 -0.7322 -0.8807 -0.9675
  532MOL0     H73351   2.168  10.944   9.277 -0.8836  1.4747 -4.1614
  532MOL0     H73352   2.120  10.779   9.331  0.8501 -0.4043 -1.2587
  532MOL0     H73353   2.332  10.692   9.298 -1.2212 -0.1775 -1.6204
  532MOL0     H73354   2.409  10.847   9.263 -0.7445  1.3081  0.9240
  532MOL0     H73355   2.338  10.936   9.503  1.5938 -0.7322 -0.3854
  532MOL0     H73356   2.277  10.766   9.521  1.6784 -0.8448  1.3857
  532MOL0     H73357   2.503  10.690   9.508  0.8102  0.5506  1.2383
  532MOL0     H73358   2.486  10.802   9.627 -1.2818  0.4338  0.4353
  532MOL0     H73359   2.700  10.808   9.458  2.5266  2.6739 -1.7862
  532MOL0     H73360   2.600  10.861   9.337  3.8445 -4.5502 -0.4243
  532MOL0     H73361   2.599  11.013   9.599  0.5490 -1.2793 -1.0209
  532MOL0     H73362   2.545  11.079   9.443 -1.7993 -0.5638  1.7377
  532MOL0     H73363   2.822  11.009   9.542  0.6467  0.3608 -0.9029
  532MOL0     H73364   2.794  11.008   9.370  1.2101 -1.1813  0.4328
  532MOL0     H73365   2.763  11.261   9.677 -2.7457 -3.1050 -1.0156
  532MOL0     H73366   2.822  11.480   9.726 -0.8447  0.7643  0.4637
  532MOL0     H73367   2.758  11.588   9.607  2.2989  3.0497  0.0659
  532MOL0     H73368   2.982  11.590   9.492 -1.5661 -3.5829 -0.5707
  532MOL0     H73369   2.944  11.696   9.636  0.0322 -0.8515  1.8733
  532MOL0     H73370   3.064  11.514   9.783 -1.7287  1.1026 -0.3432
  532MOL0     H73371   3.075  11.420   9.643  1.2447  1.5548 -1.7339
  532MOL0     H73372   3.212  11.689   9.667 -4.1590  0.0771 -1.0420
  532MOL0     H73373   3.294  11.534   9.715 -0.7494  0.6038  1.7963
  532MOL0     H73374   3.414  11.749   9.612  1.9722  1.5474 -0.4364
  532MOL0     H73375   3.564  11.934   9.593  5.2120 -0.1468 -1.4838
  532MOL0     H73376   3.455  12.031   9.488 -0.0361  1.1434 -2.2345
  532MOL0     H73377   3.620  11.983   9.434 -2.3316  2.4647 -0.7886
  532MOL0     H73378   3.513  12.195   9.121  0.4876 -1.9451  1.1099
  532MOL0     H73379   3.556  12.368   8.926 -5.9968  0.9342 -1.0482
  532MOL0     H73380   3.658  12.229   8.566 -0.3142  0.2905 -0.8003
  532MOL0     H73381   3.505  12.242   8.485 -0.2054 -0.2210 -0.5108
  532MOL0     H73382   3.662  12.495   8.566  1.6262 -2.4915  0.3597
  532MOL0     H73383   3.681  12.408   8.410 -0.6975 -3.2763  0.1183
  532MOL0     H73384   3.419  12.524   8.548 -0.5921  1.2453 -0.4980
  532MOL0     H73385   3.418  12.473   8.381  0.3257  0.4228 -0.6884
  532MOL0     H73386   3.595  12.666   8.348  1.0664 -2.0305  0.1382
  532MOL0     H73387   3.564  12.708   8.518 -1.7721  2.6627 -0.0600
  532MOL0     H73388   3.332  12.775   8.495  1.5747  3.1510  1.3797
  532MOL0     H73389   3.436  12.852   8.376  0.8192 -2.9460 -4.2050
  532MOL0     H73390   3.207  12.750   8.286 -0.4161  0.6099  3.4043
  532MOL0     H73391   3.270  12.596   8.328  0.8954  0.7144  2.4932
  532MOL0     H73392   3.470  12.649   8.158  0.6441  0.9727 -1.4744
  532MOL0     H73393   3.397  12.799   8.129  1.0820  0.5318  1.9464
  532MOL0     H73394   3.195  12.666   8.022  0.0494 -0.5268 -1.1941
  532MOL0     H73395   3.282  12.516   8.052 -2.6923  0.4583 -1.0238
  532MOL0     H73396   3.462  12.058   8.640  0.2121  1.0132 -0.8370
  532MOL0     H73397   3.399  11.927   8.812 -1.0716  0.8908  0.4775
  532MOL0     H73398   3.364  11.719   9.107  1.2191  0.8299  0.1002
  532MOL0     H73399   3.238  11.562   9.266 -1.2815  1.1118  0.7863
  532MOL0     H73400   2.044  10.677   8.879 -0.2538 -1.9073  2.0527
  532MOL0     H73401   2.124  10.706   8.613  0.8474  0.6274 -0.2792
  532MOL0     H73402   2.328  10.803   8.339 -3.0786  1.7122 -2.4433
  532MOL0     H73403   2.384  10.842   8.088 -0.4631 -1.5825 -1.1511
  532MOL0     H73404   2.712  10.615   7.945  2.0002  1.4748 -1.9056
  532MOL0     H73405   2.599  10.510   7.851 -1.1276  0.4534 -0.1431
  532MOL0     H73406   2.662  10.797   7.779  2.3128  0.2904 -1.5952
  532MOL0     H73407   2.603  10.674   7.665 -0.1002  0.4339 -0.1476
  532MOL0     H73408   2.876  10.652   7.808 -1.1938 -3.8960  1.1828
  532MOL0     H73409   2.812  10.540   7.696  0.4043  0.0054  1.2838
  532MOL0     H73410   2.796  10.718   7.513  0.4445 -4.4929 -1.6627
  532MOL0     H73411   2.954  10.650   7.547 -0.8827 -2.4102  0.2314
  532MOL0     H73412   3.032  11.047   7.657  1.5363 -1.1427 -3.1572
  532MOL0     H73413   2.585  10.458   8.076 -0.6219  0.3905 -0.8584
  532MOL0     H73414   2.618  10.359   8.268  0.1387  0.9561 -0.8989
  532MOL0     H73415   2.538  10.379   8.406  1.2257 -0.3197 -0.0079
  532MOL0     H73416   2.455  10.276   8.287 -0.7785  0.9912  0.8493
  533MOL0     O73417   2.932   6.613   3.786 -0.3318 -0.5097 -0.3746
  533MOL0     C73418   2.902   6.563   3.682 -0.1784 -0.3285  0.2872
  533MOL0     O73419   2.807   6.609   3.598  0.1660  0.3252 -0.1589
  533MOL0     C73420   2.722   6.715   3.624 -0.0785 -0.6761 -0.4522
  533MOL0     C73421   2.662   6.772   3.513 -0.3550 -0.1408 -0.4694
  533MOL0     C73422   2.586   6.886   3.522  1.3560  0.9247  0.5478
  533MOL0     C73423   2.560   6.949   3.640 -0.7458  0.0344 -0.2970
  533MOL0     O73424   2.480   7.055   3.637  0.1680 -0.3230 -0.2597
  533MOL0     C73425   2.472   7.120   3.765 -0.8641  0.3488 -0.3974
  533MOL0     C73426   2.364   7.221   3.741 -0.6057  0.1527 -0.3374
  533MOL0     C73427   2.225   7.176   3.713  0.8460 -0.1051 -0.3149
  533MOL0     C73428   2.130   7.298   3.701  0.0173 -0.3897 -0.7240
  533MOL0     C73429   1.997   7.266   3.761  0.7164 -0.1398 -0.3687
  533MOL0     C73430   1.900   7.378   3.746 -0.4668 -0.3246 -0.0147
  533MOL0     C73431   1.756   7.351   3.804 -0.3961 -0.4519  0.3075
  533MOL0     C73432   1.670   7.485   3.803  1.0166 -0.7426  0.3226
  533MOL0     N73433   1.679   7.571   3.678  0.6126 -0.3426  0.3993
  533MOL0     C73434   1.658   7.523   3.551  0.5876  0.0100  0.2492
  533MOL0     C73435   1.672   7.633   3.475  0.0166  0.7425 -0.0233
  533MOL0     C73436   1.656   7.629   3.329  0.0546 -0.4066 -0.6359
  533MOL0     C73437   1.655   7.775   3.274  0.1903 -0.6020  0.6678
  533MOL0     C73438   1.665   7.766   3.120  0.2138  0.3534  0.4123
  533MOL0     C73439   1.694   7.897   3.045  0.9856 -0.2217 -0.0008
  533MOL0     O73440   1.601   8.005   3.075 -0.6733 -0.0012  0.4595
  533MOL0     C73441   1.625   8.133   3.030  0.3289  0.2118 -0.6635
  533MOL0     C73442   1.517   8.222   3.038 -0.0333 -0.1086 -0.7860
  533MOL0     C73443   1.530   8.351   2.989 -0.3878  0.6088  0.4383
  533MOL0     C73444   1.397   8.432   2.985  0.0254  0.0880  0.3689
  533MOL0     C73445   1.645   8.395   2.931 -0.3868 -0.4145 -0.2735
  533MOL0     C73446   1.652   8.534   2.860  0.1021 -0.4687  0.5817
  533MOL0     O73447   1.750   8.544   2.770 -0.1972 -0.9141  0.3470
  533MOL0     C73448   1.778   8.668   2.708 -0.4432  0.4219  0.3348
  533MOL0     C73449   1.909   8.696   2.679 -0.1016 -0.1143  0.3444
  533MOL0     C73450   1.954   8.815   2.617  0.1350 -0.0307  0.4697
  533MOL0     C73451   1.864   8.918   2.578  0.7157 -0.2971 -1.5110
  533MOL0     O73452   1.882   9.038   2.514  0.0349  0.2816  0.5087
  533MOL0     C73453   2.003   9.104   2.551  0.2585  0.8485  0.3478
  533MOL0     C73454   2.016   9.232   2.483 -0.5778 -0.3812  0.1119
  533MOL0     C73455   2.145   9.295   2.536  0.8842 -0.2173 -0.1074
  533MOL0     C73456   2.272   9.246   2.477  0.3491  0.1362 -1.1323
  533MOL0     C73457   2.389   9.343   2.510  0.4115 -0.5975  0.1727
  533MOL0     C73458   2.503   9.336   2.413  0.2084  0.3219  1.1301
  533MOL0     C73459   2.591   9.212   2.410  2.1264  0.3819  0.3087
  533MOL0     C73460   2.709   9.205   2.316  0.0412 -0.1367  0.3994
  533MOL0    Cl73461   2.771   9.044   2.283 -0.1497 -0.6243  0.0253
  533MOL0     C73462   1.728   8.891   2.612  0.2040  0.7001  0.2263
  533MOL0     C73463   1.686   8.768   2.670  0.5190  0.2262  0.6882
  533MOL0     O73464   1.586   8.633   2.900 -0.0048 -0.5519  0.2878
  533MOL0     C73465   1.755   8.301   2.930  0.3089 -0.3102 -0.4360
  533MOL0     C73466   1.742   8.170   2.976 -0.0596  0.1383 -0.0043
  533MOL0     N73467   1.720   7.737   3.544 -0.6382 -0.0975  0.6196
  533MOL0     N73468   1.719   7.697   3.669  0.2095 -0.4305 -0.0230
  533MOL0     C73469   2.601   6.882   3.754  0.7307 -0.3225  0.3811
  533MOL0     C73470   2.678   6.766   3.747  0.5424  0.5191 -0.2565
  533MOL0     C73471   2.984   6.449   3.635  0.6629  0.3020  0.1392
  533MOL0     C73472   2.993   6.418   3.500  0.7215  0.2222  0.9479
  533MOL0     C73473   3.069   6.310   3.448  0.4021 -0.2025 -0.2438
  533MOL0     C73474   3.140   6.231   3.538  0.1633 -0.1640  0.4302
  533MOL0     O73475   3.224   6.120   3.509 -0.2099 -0.7155  0.7859
  533MOL0     C73476   3.147   6.013   3.452  0.1974  0.4772 -0.9433
  533MOL0     C73477   3.157   6.019   3.299 -0.3739  0.5305  0.1344
  533MOL0     C73478   3.102   5.886   3.237 -0.4374 -0.6708 -0.6774
  533MOL0     C73479   3.084   5.917   3.089 -0.3600  0.0232  0.7390
  533MOL0     C73480   3.000   5.813   3.026 -0.5662  1.4192 -0.1438
  533MOL0     C73481   2.933   5.724   2.974 -1.0284 -0.3715 -0.2802
  533MOL0     C73482   3.146   6.271   3.666 -0.7417 -1.0405 -0.1852
  533MOL0     C73483   3.073   6.374   3.720  0.1828 -0.4916 -0.0111
  533MOL0     C73484   3.111   6.405   3.859 -0.1945  0.2044 -0.7278
  533MOL0     H73485   2.707   6.740   3.419  2.1869 -0.3337  0.7347
  533MOL0     H73486   2.543   6.938   3.437  0.4615  2.1021  1.6802
  533MOL0     H73487   2.565   7.161   3.805 -0.1255  0.4966 -2.1680
  533MOL0     H73488   2.426   7.044   3.829 -0.2110 -0.2538 -0.6195
  533MOL0     H73489   2.358   7.277   3.834 -2.8471  1.2159 -1.0554
  533MOL0     H73490   2.403   7.287   3.663  2.4625 -0.2466  0.7081
  533MOL0     H73491   2.223   7.127   3.615 -0.7816 -2.8972  1.0258
  533MOL0     H73492   2.200   7.101   3.787 -2.1181 -0.9362 -1.9922
  533MOL0     H73493   2.164   7.383   3.760  1.3672 -2.7691  2.1549
  533MOL0     H73494   2.120   7.322   3.594  1.3240 -0.3936 -0.8543
  533MOL0     H73495   2.010   7.231   3.864  2.5051  0.0830 -0.4759
  533MOL0     H73496   1.964   7.183   3.699 -1.2765  0.2977  0.0326
  533MOL0     H73497   1.953   7.464   3.788  0.8362 -1.5354  0.9171
  533MOL0     H73498   1.886   7.380   3.638 -0.6931  1.8008  0.0081
  533MOL0     H73499   1.761   7.331   3.911 -2.1017 -3.4659 -0.0813
  533MOL0     H73500   1.705   7.272   3.749  0.2433 -0.6029 -0.0815
  533MOL0     H73501   1.565   7.455   3.807  1.4245 -2.4509 -0.5606
  533MOL0     H73502   1.690   7.551   3.888  0.0862  0.8355 -0.6404
  533MOL0     H73503   1.621   7.422   3.533  1.7653 -0.9242  2.5668
  533MOL0     H73504   1.554   7.593   3.310 -1.6347  3.6295 -0.2283
  533MOL0     H73505   1.741   7.585   3.275 -0.9916 -2.1526 -0.9384
  533MOL0     H73506   1.554   7.813   3.292  0.0301  0.1364 -1.5368
  533MOL0     H73507   1.726   7.841   3.326  0.4357 -2.2984  2.6252
  533MOL0     H73508   1.741   7.694   3.089 -0.4353 -0.0896 -0.2024
  533MOL0     H73509   1.568   7.726   3.087  0.1595 -1.3651  2.4899
  533MOL0     H73510   1.796   7.931   3.065  0.3639  0.6042  1.9378
  533MOL0     H73511   1.682   7.886   2.936 -0.0918  3.4198 -0.3986
  533MOL0     H73512   1.423   8.196   3.086  1.4620 -1.7912  1.4082
  533MOL0     H73513   1.388   8.463   2.880 -0.3875  0.1995  0.4367
  533MOL0     H73514   1.423   8.513   3.055  0.4076  0.1847  0.1178
  533MOL0     H73515   1.313   8.370   3.017 -1.1148  1.0978 -0.5408
  533MOL0     H73516   1.969   8.608   2.701 -5.2336 -3.6644  2.1081
  533MOL0     H73517   2.059   8.833   2.595  0.1781 -0.4444  0.3309
  533MOL0     H73518   2.007   9.120   2.659 -0.9534 -1.3849  0.7914
  533MOL0     H73519   2.088   9.039   2.529 -0.9504 -0.5856 -0.2608
  533MOL0     H73520   2.036   9.221   2.376  1.5576  0.2253  0.4143
  533MOL0     H73521   1.935   9.304   2.493  1.1195  1.5965  0.1440
  533MOL0     H73522   2.153   9.279   2.644  1.3023  1.2976  0.1114
  533MOL0     H73523   2.150   9.404   2.535  5.1486 -0.2127  2.1660
  533MOL0     H73524   2.268   9.248   2.368  0.5516  1.3073 -1.1374
  533MOL0     H73525   2.297   9.145   2.509  3.0778  0.7550 -1.0829
  533MOL0     H73526   2.355   9.446   2.503  0.5689 -0.5515  0.0940
  533MOL0     H73527   2.414   9.321   2.615  2.7695 -1.2055 -0.4629
  533MOL0     H73528   2.563   9.428   2.420 -1.3045  2.1115 -4.2713
  533MOL0     H73529   2.466   9.341   2.310 -0.6904 -1.2859  1.3644
  533MOL0     H73530   2.529   9.126   2.384  3.1305 -1.7156  4.0585
  533MOL0     H73531   2.633   9.186   2.508  1.0336 -0.5345  0.5583
  533MOL0     H73532   2.788   9.268   2.358 -1.2622 -0.0954  2.9410
  533MOL0     H73533   2.681   9.254   2.222  0.7777  1.3337  0.9204
  533MOL0     H73534   1.647   8.959   2.588 -4.2383 -4.2588 -0.6385
  533MOL0     H73535   1.582   8.754   2.699  0.2478 -0.3136 -0.4879
  533MOL0     H73536   1.845   8.335   2.880 -0.3811  0.9064 -0.8967
  533MOL0     H73537   1.830   8.106   2.970 -1.0236 -2.2201  5.3290
  533MOL0     H73538   2.563   6.895   3.855  1.4832  0.9094  0.5246
  533MOL0     H73539   2.718   6.728   3.841 -0.8658  2.0163  1.0149
  533MOL0     H73540   2.923   6.462   3.430 -1.2912 -1.8649  1.5278
  533MOL0     H73541   3.065   6.283   3.343 -1.9107 -2.1383  0.2550
  533MOL0     H73542   3.168   5.911   3.487 -0.9027 -0.2029 -2.1742
  533MOL0     H73543   3.043   6.020   3.484 -0.1243  0.3547 -1.9355
  533MOL0     H73544   3.256   6.047   3.262  0.7215 -0.8952  1.8434
  533MOL0     H73545   3.095   6.102   3.264  0.3643  0.8329 -0.4783
  533MOL0     H73546   3.169   5.802   3.261 -0.4614 -0.0324  1.8572
  533MOL0     H73547   3.006   5.871   3.286  0.5139  1.8982  2.3114
  533MOL0     H73548   3.187   5.922   3.052 -0.5776  0.4283  0.1675
  533MOL0     H73549   3.027   6.009   3.072  2.5197  1.7764 -0.0990
  533MOL0     H73550   2.884   5.639   2.932 -0.5339 -1.1311  0.6474
  533MOL0     H73551   3.225   6.219   3.719  1.8737  3.2412  0.5919
  533MOL0     H73552   3.157   6.504   3.866 -1.0318  0.4733  3.3059
  533MOL0     H73553   3.022   6.401   3.922  1.6830  1.6689  2.2593
  533MOL0     H73554   3.186   6.333   3.893  0.8659  0.4033 -2.4763
  534MOL0     O73555   6.998   1.736  10.500 -0.1549 -0.1828 -0.1766
  534MOL0     C73556   7.062   1.653  10.560 -0.5268  0.2534 -0.4365
  534MOL0     O73557   7.138   1.683  10.676  0.6136  1.2504  0.2257
  534MOL0     C73558   7.131   1.816  10.724  0.5310  0.0905  0.7893
  534MOL0     C73559   7.043   1.830  10.822  0.0991 -0.9018 -0.7821
  534MOL0     C73560   7.015   1.954  10.881 -1.3678 -0.0779  0.6194
  534MOL0     C73561   7.094   2.060  10.831 -0.4080 -0.0548  0.5718
  534MOL0     O73562   7.086   2.180  10.888  0.3939 -1.1993 -0.7057
  534MOL0     C73563   6.983   2.244  10.803  0.7214  0.5287 -0.6048
  534MOL0     C73564   6.979   2.393  10.834  0.2619 -0.2872  0.3683
  534MOL0     C73565   6.990   2.466  10.695  0.0419  0.0510 -0.7708
  534MOL0     C73566   7.036   2.607  10.718 -0.1231  0.3359 -0.0260
  534MOL0     C73567   6.979   2.671  10.587 -0.2159 -0.0252  0.0892
  534MOL0     C73568   7.022   2.807  10.577  0.6923 -0.9650 -0.3229
  534MOL0     C73569   7.003   2.869  10.433 -0.2413  0.0058  0.0148
  534MOL0     C73570   7.080   2.795  10.324 -0.9438  0.7812 -0.3773
  534MOL0     N73571   7.208   2.859  10.299 -0.5254 -0.1280  0.5883
  534MOL0     C73572   7.237   2.963  10.213  0.1672  0.3145 -0.9425
  534MOL0     C73573   7.372   2.973  10.216 -1.4473  0.3939 -0.3581
  534MOL0     C73574   7.447   3.067  10.128 -0.2739 -0.3986  0.7066
  534MOL0     C73575   7.493   3.209  10.182 -0.0218 -0.3608 -0.9051
  534MOL0     C73576   7.591   3.185  10.303 -0.8585 -0.1598  0.2017
  534MOL0     C73577   7.660   3.317  10.343  0.3942 -0.4945 -1.1974
  534MOL0     O73578   7.751   3.360  10.246  0.1045 -0.1939  0.7890
  534MOL0     C73579   7.823   3.473  10.260 -0.1735  0.5272 -0.0479
  534MOL0     C73580   7.782   3.585  10.335 -0.1841 -0.4821 -0.2146
  534MOL0     C73581   7.859   3.703  10.334  0.8437  0.6042  0.2468
  534MOL0     C73582   7.811   3.809  10.423  0.1304  0.2944 -0.0995
  534MOL0     C73583   7.986   3.700  10.271  0.3806  0.2748 -0.0328
  534MOL0     C73584   8.092   3.805  10.306 -0.0785 -0.6109 -1.3132
  534MOL0     O73585   8.211   3.784  10.243 -0.1258 -0.0875  0.4700
  534MOL0     C73586   8.324   3.849  10.284 -0.6439  0.4648  0.4483
  534MOL0     C73587   8.433   3.856  10.197 -0.4087  0.9022 -0.9236
  534MOL0     C73588   8.554   3.907  10.227  0.2994 -0.6475 -0.5485
  534MOL0     C73589   8.569   3.987  10.335 -0.3363  0.0139  0.4450
  534MOL0     O73590   8.696   4.025  10.369  0.6258 -0.1334  0.8220
  534MOL0     C73591   8.742   3.979  10.493  0.2802  0.3906 -0.6721
  534MOL0     C73592   8.884   4.013  10.500 -0.1598 -0.0253  0.7093
  534MOL0     C73593   8.914   4.163  10.524  0.8725 -0.7813 -0.3389
  534MOL0     C73594   9.069   4.169  10.531 -0.2898 -0.3443 -0.5756
  534MOL0     C73595   9.123   4.304  10.526 -0.2710  0.1946 -0.4007
  534MOL0     C73596   9.258   4.320  10.583  0.1093 -0.2789  0.0581
  534MOL0     C73597   9.363   4.263  10.491  0.2540 -0.0507  0.2190
  534MOL0     C73598   9.504   4.295  10.544 -0.0780 -0.5119  0.4934
  534MOL0    Cl73599   9.549   4.466  10.502 -0.4506  0.1961  0.3015
  534MOL0     C73600   8.463   4.016  10.423 -0.6431  0.1154  0.4810
  534MOL0     C73601   8.346   3.929  10.403 -0.1747  0.7041 -0.4342
  534MOL0     O73602   8.067   3.905  10.378  0.1257  0.2776  0.0631
  534MOL0     C73603   8.020   3.589  10.200  0.1674  0.8355  0.6411
  534MOL0     C73604   7.942   3.477  10.185 -1.1235 -0.1302  1.2240
  534MOL0     N73605   7.422   2.871  10.303  0.8979 -0.0780 -0.0522
  534MOL0     N73606   7.324   2.817  10.360  0.5183 -0.2730 -0.4319
  534MOL0     C73607   7.194   2.043  10.737  0.8012  0.3826 -0.2896
  534MOL0     C73608   7.213   1.917  10.691 -0.2152 -0.8147  0.0894
  534MOL0     C73609   7.047   1.513  10.511  0.5615  1.3217 -0.4823
  534MOL0     C73610   7.023   1.413  10.609  0.0497  0.3482 -0.0731
  534MOL0     C73611   7.012   1.272  10.570  0.1763 -0.7807 -1.3384
  534MOL0     C73612   6.987   1.238  10.440  0.9193  0.1548 -0.4957
  534MOL0     O73613   6.953   1.108  10.422  0.6029 -0.0475 -0.1038
  534MOL0     C73614   7.051   1.017  10.386 -0.4711  0.3395 -0.0790
  534MOL0     C73615   7.002   0.871  10.370  0.6950 -0.7593 -0.1188
  534MOL0     C73616   7.093   0.795  10.283 -0.1447  0.7696 -0.0905
  534MOL0     C73617   7.199   0.714  10.348 -0.4254 -0.2486 -1.4010
  534MOL0     C73618   7.333   0.716  10.279  1.5253 -0.0695  0.9002
  534MOL0     C73619   7.437   0.714  10.217 -0.5764 -1.1381  0.3226
  534MOL0     C73620   6.999   1.335  10.343 -0.0211  0.5141  1.0953
  534MOL0     C73621   7.036   1.469  10.378  0.1449  0.2020  0.3124
  534MOL0     C73622   7.038   1.572  10.259 -0.8764  0.4157  0.3953
  534MOL0     H73623   6.967   1.755  10.841 -1.7528  0.7715 -1.1708
  534MOL0     H73624   6.939   1.967  10.957  0.3754  2.0936  2.1204
  534MOL0     H73625   6.884   2.207  10.833  0.8049  1.6482  1.1785
  534MOL0     H73626   6.997   2.228  10.695  1.6986 -2.9122 -0.0665
  534MOL0     H73627   6.885   2.416  10.885 -2.0254 -2.1044 -2.6581
  534MOL0     H73628   7.053   2.431  10.904  0.4456  0.6607 -0.3067
  534MOL0     H73629   7.058   2.421  10.622  2.3698  1.8620  0.1405
  534MOL0     H73630   6.891   2.462  10.650  0.0941  1.6864 -1.0993
  534MOL0     H73631   6.984   2.655  10.801  1.0342  2.6816 -0.5592
  534MOL0     H73632   7.145   2.617  10.721  0.2766 -2.9640  2.4834
  534MOL0     H73633   6.870   2.678  10.585 -0.1696  3.0830  2.2132
  534MOL0     H73634   7.004   2.615  10.496  1.3054 -1.2181  1.1890
  534MOL0     H73635   6.971   2.855  10.660  0.3346 -0.7612 -0.6593
  534MOL0     H73636   7.128   2.821  10.602  0.0879  2.4498  0.8997
  534MOL0     H73637   7.026   2.976  10.430 -0.2794  0.0660 -4.5151
  534MOL0     H73638   6.898   2.859  10.404 -0.7239  3.9267 -0.1122
  534MOL0     H73639   7.100   2.688  10.335 -1.2675  0.7708  0.1178
  534MOL0     H73640   7.032   2.809  10.226  0.2639  1.2109 -0.9382
  534MOL0     H73641   7.173   3.025  10.150  0.9084  1.1612 -0.8750
  534MOL0     H73642   7.388   3.088  10.038  2.8740  0.9154 -1.2509
  534MOL0     H73643   7.533   3.006  10.100 -0.3995  0.5548 -2.1319
  534MOL0     H73644   7.536   3.278  10.109 -3.1437  1.9102 -0.8229
  534MOL0     H73645   7.398   3.251  10.215 -1.3225 -1.3988 -3.0882
  534MOL0     H73646   7.540   3.147  10.392  0.0155 -2.9586 -0.3914
  534MOL0     H73647   7.667   3.112  10.274 -1.2497 -1.0116  1.2702
  534MOL0     H73648   7.574   3.383  10.355  1.8217  1.8248 -2.9682
  534MOL0     H73649   7.705   3.318  10.443 -3.5127 -2.0838  0.7798
  534MOL0     H73650   7.685   3.592  10.385  0.2490  4.0610  0.3927
  534MOL0     H73651   7.819   3.909  10.381 -4.9615  0.4451 -1.3142
  534MOL0     H73652   7.856   3.801  10.522 -0.2388 -2.0828 -0.0559
  534MOL0     H73653   7.703   3.804  10.442 -0.4255  1.2659 -2.6432
  534MOL0     H73654   8.416   3.811  10.099  2.6949 -0.3535 -1.0095
  534MOL0     H73655   8.626   3.911  10.146 -0.1492 -0.0339 -0.9282
  534MOL0     H73656   8.694   4.033  10.575  2.2960  0.7740  0.3174
  534MOL0     H73657   8.717   3.872  10.498  2.2242 -0.0750  0.2469
  534MOL0     H73658   8.929   3.948  10.577  1.0252  1.1454  1.0390
  534MOL0     H73659   8.938   3.972  10.414 -2.0120 -0.1803 -0.4223
  534MOL0     H73660   8.867   4.204  10.615 -2.1151 -0.6741 -1.8194
  534MOL0     H73661   8.876   4.210  10.433 -1.8986 -4.1710 -1.1089
  534MOL0     H73662   9.110   4.115  10.445 -0.4324 -0.5413 -0.5189
  534MOL0     H73663   9.089   4.129  10.630 -5.4439 -0.1842  0.7957
  534MOL0     H73664   9.106   4.336  10.423 -2.7495 -0.3245 -0.2224
  534MOL0     H73665   9.057   4.361  10.592  0.8643  0.5593  0.4351
  534MOL0     H73666   9.266   4.261  10.674  1.4920 -1.4491 -0.7813
  534MOL0     H73667   9.284   4.425  10.598 -0.5151  0.1778 -1.7050
  534MOL0     H73668   9.346   4.288  10.386  0.7784 -6.4910 -1.8627
  534MOL0     H73669   9.351   4.154  10.494 -2.1487  0.1037 -1.0318
  534MOL0     H73670   9.564   4.220  10.492 -2.9595 -2.1615 -0.6436
  534MOL0     H73671   9.515   4.285  10.653  2.0442  1.8323  0.5932
  534MOL0     H73672   8.481   4.084  10.506  2.1273 -1.3440  1.2067
  534MOL0     H73673   8.267   3.935  10.477  1.2846 -0.2013  1.2819
  534MOL0     H73674   8.120   3.590  10.159 -0.0802  2.4924 -0.0073
  534MOL0     H73675   7.975   3.398  10.119  0.3193  2.2795 -1.1386
  534MOL0     H73676   7.249   2.132  10.707  0.7151  0.6911  0.4404
  534MOL0     H73677   7.290   1.887  10.621  1.6142 -2.5017  2.6259
  534MOL0     H73678   7.017   1.446  10.712 -2.7722  0.7211 -0.2989
  534MOL0     H73679   6.998   1.189  10.640 -1.2825 -0.1018 -0.7888
  534MOL0     H73680   7.083   1.042  10.285 -0.5230 -2.0303 -0.7439
  534MOL0     H73681   7.132   1.028  10.458  0.0599  0.2564 -0.6633
  534MOL0     H73682   6.902   0.877  10.326 -0.1628 -3.0158  1.3396
  534MOL0     H73683   6.991   0.816  10.464  1.3359 -2.4507 -0.9863
  534MOL0     H73684   7.042   0.712  10.232  0.8419 -1.7773  2.7465
  534MOL0     H73685   7.127   0.857  10.200 -0.7736  1.3434  0.0722
  534MOL0     H73686   7.156   0.613  10.353 -0.9886  0.0355 -0.1313
  534MOL0     H73687   7.213   0.744  10.452 -1.2634 -1.3121 -0.9647
  534MOL0     H73688   7.529   0.711  10.162 -1.5386 -0.0765 -1.4351
  534MOL0     H73689   6.987   1.324  10.236  2.4047 -1.5620  0.9476
  534MOL0     H73690   7.126   1.637  10.270 -1.0755  1.5628 -3.2782
  534MOL0     H73691   7.047   1.523  10.161 -0.1636  0.3949  0.4626
  534MOL0     H73692   6.942   1.618  10.232  0.1060  1.2927 -1.8544
  535MOL0     O73693   4.718   0.402   8.489  0.0516 -0.1319  0.1402
  535MOL0     C73694   4.832   0.410   8.537 -0.0906  0.9453  0.3644
  535MOL0     O73695   4.948   0.456   8.474 -0.1222  0.2944  0.4346
  535MOL0     C73696   4.930   0.459   8.343 -0.5577  0.9594  0.7348
  535MOL0     C73697   4.950   0.579   8.279  0.7852 -0.5579  1.3455
  535MOL0     C73698   4.938   0.588   8.137  0.5796  0.0315 -0.0397
  535MOL0     C73699   4.903   0.483   8.051 -0.5687  0.2457 -0.0039
  535MOL0     O73700   4.879   0.492   7.920 -0.0848  0.0084 -0.2792
  535MOL0     C73701   4.929   0.603   7.843 -1.1665  0.6120 -0.7084
  535MOL0     C73702   5.070   0.562   7.809  0.4744  0.9779  0.2884
  535MOL0     C73703   5.097   0.436   7.733 -0.2397  1.0087 -0.0305
  535MOL0     C73704   5.147   0.461   7.587  0.3595 -0.1400  0.7560
  535MOL0     C73705   5.191   0.341   7.511 -0.3279 -0.2797 -0.1036
  535MOL0     C73706   5.293   0.243   7.569 -0.2180 -0.3002 -0.4629
  535MOL0     C73707   5.434   0.302   7.613  0.6490 -0.0156  0.2870
  535MOL0     C73708   5.519   0.194   7.684 -0.2052 -0.6373  0.6600
  535MOL0     N73709   5.596   0.115   7.597  0.5791 -0.4403 -0.1220
  535MOL0     C73710   5.718   0.156   7.553  0.7061 -0.0155 -0.4513
  535MOL0     C73711   5.763   0.058   7.470 -0.5490  0.2415 -0.1465
  535MOL0     C73712   5.901   0.071   7.412  0.1761  0.2187  0.9929
  535MOL0     C73713   6.003  -0.044   7.439 -0.3875  0.5892 -0.2210
  535MOL0     C73714   5.941  -0.181   7.391  0.2682 -0.3875  0.2573
  535MOL0     C73715   6.036  -0.305   7.397  0.3069 -0.7064  0.2770
  535MOL0     O73716   6.070  -0.349   7.533 -0.5027  0.4672  0.2090
  535MOL0     C73717   6.207  -0.335   7.566  0.0861  0.0025 -0.1731
  535MOL0     C73718   6.262  -0.441   7.631  0.0561  0.2680 -0.0956
  535MOL0     C73719   6.401  -0.447   7.655  0.5698  0.0447 -0.2536
  535MOL0     C73720   6.459  -0.578   7.696  0.1820 -0.4243 -0.0215
  535MOL0     C73721   6.484  -0.330   7.629  0.0134  0.2951 -1.1008
  535MOL0     C73722   6.633  -0.326   7.631 -1.1035 -0.1096  0.0151
  535MOL0     O73723   6.682  -0.206   7.578  0.7411 -0.1361 -0.2495
  535MOL0     C73724   6.811  -0.163   7.560  0.0808  0.4335  1.0928
  535MOL0     C73725   6.932  -0.213   7.616 -0.1745 -0.3915  0.9194
  535MOL0     C73726   7.055  -0.154   7.586 -0.2030 -0.1105  0.6089
  535MOL0     C73727   7.068  -0.046   7.499  0.1377  0.4288 -0.4269
  535MOL0     O73728   7.179   0.024   7.472  0.3031  0.1696 -0.3933
  535MOL0     C73729   7.295  -0.031   7.523  0.5870  0.8213  0.6124
  535MOL0     C73730   7.417   0.059   7.494  0.7360 -0.1252  1.1260
  535MOL0     C73731   7.392   0.197   7.558 -0.7314 -0.0370  0.1961
  535MOL0     C73732   7.524   0.269   7.551 -0.6875  0.8976  0.7214
  535MOL0     C73733   7.501   0.406   7.623 -0.6720  1.0903  0.2125
  535MOL0     C73734   7.456   0.513   7.531 -0.8556 -0.4424  0.0169
  535MOL0     C73735   7.435   0.653   7.582 -0.8155 -0.1010 -0.0464
  535MOL0     C73736   7.571   0.705   7.649 -0.5166  0.1121 -0.5975
  535MOL0    Cl73737   7.717   0.691   7.554 -0.1205  0.0382 -0.0034
  535MOL0     C73738   6.949  -0.002   7.440 -0.6998  0.6311 -0.0406
  535MOL0     C73739   6.827  -0.053   7.476  0.0611  0.4109  1.0049
  535MOL0     O73740   6.703  -0.415   7.677  0.0655  0.2210  0.5864
  535MOL0     C73741   6.415  -0.216   7.587  0.2758  0.0418  0.3942
  535MOL0     C73742   6.282  -0.214   7.557 -0.4936  1.2029  0.8055
  535MOL0     N73743   5.668  -0.049   7.480  0.4102 -0.4265 -0.3227
  535MOL0     N73744   5.577  -0.011   7.567 -0.4069  1.3523 -0.3901
  535MOL0     C73745   4.894   0.358   8.115  1.2227 -0.3495 -0.7302
  535MOL0     C73746   4.912   0.348   8.256 -0.0426  0.2421 -0.0599
  535MOL0     C73747   4.849   0.348   8.670  0.0764  0.0683 -0.4207
  535MOL0     C73748   4.951   0.413   8.746 -0.1849 -0.5870 -0.8491
  535MOL0     C73749   4.989   0.366   8.878  0.1049  0.2675  0.9319
  535MOL0     C73750   4.931   0.246   8.930 -0.1975 -1.3304 -0.1643
  535MOL0     O73751   4.973   0.199   9.050  0.3520  0.2852 -0.0843
  535MOL0     C73752   4.960   0.067   9.104  0.1067  0.0985 -0.1811
  535MOL0     C73753   5.082   0.000   9.036 -0.1301  0.7158  1.1511
  535MOL0     C73754   5.206   0.080   9.075  0.7697 -0.0190  0.4247
  535MOL0     C73755   5.313   0.013   8.986  0.4403  0.4569 -0.0266
  535MOL0     C73756   5.441   0.050   9.030  0.7402  0.8141  0.0542
  535MOL0     C73757   5.554   0.080   9.048 -0.7386 -1.4738  0.3959
  535MOL0     C73758   4.829   0.187   8.854 -0.1486 -0.3905  0.2895
  535MOL0     C73759   4.781   0.241   8.728 -0.3546 -0.3113  0.4132
  535MOL0     C73760   4.661   0.179   8.669 -0.5709 -0.3563 -0.0091
  535MOL0     H73761   4.952   0.674   8.333 -2.1625 -0.3159  1.1790
  535MOL0     H73762   4.944   0.685   8.089  1.1750 -0.9242 -2.0162
  535MOL0     H73763   4.927   0.698   7.898 -0.4673 -0.9793  2.2956
  535MOL0     H73764   4.866   0.608   7.754  0.0997  0.4850 -1.6434
  535MOL0     H73765   5.107   0.639   7.740  1.4153 -0.0125 -0.3530
  535MOL0     H73766   5.143   0.572   7.890  4.4060  0.2016 -2.8314
  535MOL0     H73767   5.169   0.375   7.790  0.9937  2.4117 -0.0019
  535MOL0     H73768   5.014   0.365   7.734  2.9030 -3.0741  1.8591
  535MOL0     H73769   5.066   0.502   7.526  1.1203  0.2296 -0.0268
  535MOL0     H73770   5.228   0.534   7.589  0.8443 -0.6784  0.9931
  535MOL0     H73771   5.247   0.383   7.428 -1.3335 -1.1057 -1.2297
  535MOL0     H73772   5.099   0.296   7.472  0.1786 -0.3761 -1.2027
  535MOL0     H73773   5.252   0.188   7.653  0.3339  0.1177  0.0920
  535MOL0     H73774   5.313   0.161   7.499  0.3241  0.1876 -0.8988
  535MOL0     H73775   5.411   0.382   7.684 -2.4491 -1.1041  0.6926
  535MOL0     H73776   5.488   0.343   7.527 -1.5267  0.1050 -1.1302
  535MOL0     H73777   5.588   0.252   7.745 -0.4887  1.0180 -0.5143
  535MOL0     H73778   5.449   0.126   7.734 -2.5373  1.9893  1.2244
  535MOL0     H73779   5.784   0.236   7.586  2.7106 -1.9566  0.5741
  535MOL0     H73780   5.940   0.171   7.438  3.6578 -0.2173 -1.7673
  535MOL0     H73781   5.892   0.064   7.304 -0.6821 -0.5328  1.1053
  535MOL0     H73782   6.092  -0.030   7.377  1.7982 -2.6221  1.8233
  535MOL0     H73783   6.028  -0.053   7.546 -0.0344 -0.7845 -0.4063
  535MOL0     H73784   5.853  -0.196   7.453 -0.0573  0.5555  0.0435
  535MOL0     H73785   5.902  -0.172   7.289  4.1834  0.6029 -1.3627
  535MOL0     H73786   5.980  -0.385   7.346  1.4043 -0.3798 -1.5097
  535MOL0     H73787   6.127  -0.285   7.340  0.1483 -2.0205 -0.4832
  535MOL0     H73788   6.197  -0.521   7.665  1.1691 -0.2513  0.9317
  535MOL0     H73789   6.382  -0.656   7.698 -3.3608  2.7307  2.2113
  535MOL0     H73790   6.505  -0.569   7.794 -1.9812  2.5235  0.8787
  535MOL0     H73791   6.540  -0.589   7.623  0.5861  1.0262  0.1816
  535MOL0     H73792   6.928  -0.301   7.679  3.3482 -0.6604  1.0171
  535MOL0     H73793   7.146  -0.197   7.626 -0.1001  0.7657  1.3529
  535MOL0     H73794   7.297  -0.047   7.631  1.6621 -1.2562  0.3272
  535MOL0     H73795   7.304  -0.123   7.465  2.4273  1.7767 -0.7306
  535MOL0     H73796   7.510   0.018   7.534  2.5595  0.5451 -2.1024
  535MOL0     H73797   7.414   0.086   7.388 -3.0951  3.8503  1.9607
  535MOL0     H73798   7.360   0.182   7.661 -2.7775  1.1708 -0.2170
  535MOL0     H73799   7.312   0.256   7.515 -0.4570 -0.1622 -0.5027
  535MOL0     H73800   7.551   0.294   7.448  2.5192 -2.5082  0.5059
  535MOL0     H73801   7.596   0.203   7.601 -0.1584  0.3059 -0.7769
  535MOL0     H73802   7.428   0.398   7.704 -1.0219  2.0419  0.0158
  535MOL0     H73803   7.594   0.439   7.670 -0.5850 -2.1421  2.6531
  535MOL0     H73804   7.363   0.467   7.495  0.1863 -1.5474 -1.3794
  535MOL0     H73805   7.525   0.522   7.447 -1.7780  1.3897 -0.5923
  535MOL0     H73806   7.359   0.654   7.661 -0.0005  2.2246  0.8069
  535MOL0     H73807   7.392   0.725   7.513 -1.2449 -1.2147 -0.9664
  535MOL0     H73808   7.591   0.669   7.750  1.0435  1.8712 -0.2136
  535MOL0     H73809   7.560   0.813   7.655  4.8815  0.9668 -0.5094
  535MOL0     H73810   6.938   0.082   7.372 -3.4634  0.0920 -0.3881
  535MOL0     H73811   6.731  -0.014   7.442  0.1346  0.4307  0.8170
  535MOL0     H73812   6.461  -0.118   7.586  0.7570 -0.0233  3.6505
  535MOL0     H73813   6.225  -0.123   7.540 -1.4085  1.0815  2.9823
  535MOL0     H73814   4.871   0.279   8.045  0.7037  1.0625 -2.2109
  535MOL0     H73815   4.899   0.253   8.306  0.0002  1.1691  1.7758
  535MOL0     H73816   5.005   0.500   8.708  2.2003 -0.9935  1.3365
  535MOL0     H73817   5.074   0.408   8.932  4.5809 -4.1048 -1.8985
  535MOL0     H73818   4.965   0.057   9.213 -0.0523  0.7800 -0.1101
  535MOL0     H73819   4.866   0.020   9.073 -2.7256  5.4318 -0.7340
  535MOL0     H73820   5.071   0.005   8.927  1.1235  0.6306  1.0012
  535MOL0     H73821   5.086  -0.108   9.052 -2.3312  0.1368 -1.4203
  535MOL0     H73822   5.198   0.187   9.056 -1.3506  0.0605  1.5007
  535MOL0     H73823   5.220   0.071   9.183 -1.3427 -1.0901  0.6675
  535MOL0     H73824   5.310   0.044   8.881  0.9621 -1.2151 -0.5677
  535MOL0     H73825   5.313  -0.097   8.987  0.7148  0.3945  3.1323
  535MOL0     H73826   5.661   0.088   9.054 -0.2186 -5.8383  0.0956
  535MOL0     H73827   4.763   0.117   8.905 -0.3013 -0.5181 -0.0855
  535MOL0     H73828   4.628   0.203   8.567 -0.1784 -4.5083 -1.3008
  535MOL0     H73829   4.686   0.073   8.663 -1.1911 -0.6394  1.8265
  535MOL0     H73830   4.572   0.190   8.731 -2.8840 -0.1522 -3.1057
  536MOL0     O73831   2.994   4.844   8.289 -0.0029  0.6492 -0.2775
  536MOL0     C73832   2.901   4.916   8.243  0.2666  0.1869 -0.9168
  536MOL0     O73833   2.773   4.931   8.298 -0.0179  0.3770  0.2389
  536MOL0     C73834   2.751   4.877   8.427  1.0043 -0.2389  0.1852
  536MOL0     C73835   2.629   4.824   8.452  0.5231  0.9256  0.3174
  536MOL0     C73836   2.599   4.760   8.570 -0.3648  0.8072 -0.9611
  536MOL0     C73837   2.698   4.740   8.666 -0.2037  0.4504 -0.8250
  536MOL0     O73838   2.671   4.680   8.788 -0.7503  0.8519  0.3190
  536MOL0     C73839   2.698   4.537   8.783  0.4501  0.1036  0.3284
  536MOL0     C73840   2.562   4.478   8.732 -0.4020 -0.4376  0.6157
  536MOL0     C73841   2.550   4.326   8.763  0.2347 -0.1372  0.6504
  536MOL0     C73842   2.403   4.289   8.785  1.2311 -0.5381  0.0562
  536MOL0     C73843   2.367   4.136   8.778  0.7004 -0.3967  0.0815
  536MOL0     C73844   2.447   4.039   8.873 -0.7800  0.4517 -0.1198
  536MOL0     C73845   2.410   3.889   8.866  0.6449  0.1890 -1.0301
  536MOL0     C73846   2.460   3.792   8.977  1.0117  0.1534 -0.1544
  536MOL0     N73847   2.579   3.716   8.937  0.4458  0.1129  0.8850
  536MOL0     C73848   2.586   3.625   8.838 -0.6551  0.6991  0.3766
  536MOL0     C73849   2.709   3.567   8.844 -1.2152  0.4375  0.4878
  536MOL0     C73850   2.763   3.449   8.754 -0.0049  0.4329 -0.2771
  536MOL0     C73851   2.780   3.317   8.833  0.4494 -0.5410  0.4701
  536MOL0     C73852   2.815   3.204   8.737  0.4018  0.8144  0.7426
  536MOL0     C73853   2.789   3.060   8.783  1.3582 -0.7409  0.8671
  536MOL0     O73854   2.807   2.971   8.669  0.5533 -0.5828  0.2370
  536MOL0     C73855   2.864   2.846   8.680  0.6798 -0.5339 -0.2331
  536MOL0     C73856   2.891   2.789   8.563 -1.0053  0.5417  0.6527
  536MOL0     C73857   2.922   2.653   8.564  0.3630 -0.4760 -0.1229
  536MOL0     C73858   2.944   2.594   8.426  0.2601  0.4390  0.6414
  536MOL0     C73859   2.937   2.578   8.686 -0.3473 -0.5391 -0.4964
  536MOL0     C73860   2.952   2.433   8.686  0.0965  0.0100 -0.4867
  536MOL0     O73861   2.935   2.353   8.571  0.2356 -0.0915 -0.1358
  536MOL0     C73862   2.942   2.213   8.585  0.9439 -0.3669  0.4306
  536MOL0     C73863   2.852   2.136   8.507  1.3657 -0.4196  0.0704
  536MOL0     C73864   2.852   1.994   8.516 -0.4474 -0.6502  1.0043
  536MOL0     C73865   2.943   1.936   8.607 -0.1561  0.4992 -0.6724
  536MOL0     O73866   2.947   1.803   8.635  0.4418 -0.3392  0.0387
  536MOL0     C73867   2.815   1.757   8.676 -0.9372  0.2651  0.3121
  536MOL0     C73868   2.808   1.609   8.732 -1.0582 -0.0601  0.1931
  536MOL0     C73869   2.917   1.582   8.839 -0.2015 -0.2124 -0.7280
  536MOL0     C73870   2.935   1.440   8.844  0.2742 -0.0649  0.1264
  536MOL0     C73871   3.031   1.400   8.954 -0.1151 -0.3591 -0.6798
  536MOL0     C73872   3.036   1.252   8.952 -0.7654 -0.3400  0.4183
  536MOL0     C73873   2.917   1.192   9.031  1.3048 -0.6054  0.3844
  536MOL0     C73874   2.911   1.042   9.019  0.8906  0.4197 -0.2081
  536MOL0    Cl73875   2.775   0.977   9.102  0.3344  0.1408  0.0119
  536MOL0     C73876   3.028   2.016   8.685  0.2055  0.7143  1.0633
  536MOL0     C73877   3.035   2.150   8.662 -0.8758 -0.0481 -0.1744
  536MOL0     O73878   2.987   2.393   8.797  0.4272 -0.3330 -1.1789
  536MOL0     C73879   2.929   2.653   8.808 -0.0321 -0.4094 -0.1970
  536MOL0     C73880   2.877   2.786   8.805 -0.2134  0.6425 -0.4708
  536MOL0     N73881   2.779   3.619   8.952 -0.3502 -0.5861 -0.7306
  536MOL0     N73882   2.706   3.721   8.993  0.7242  1.2646 -0.1232
  536MOL0     C73883   2.823   4.800   8.650 -0.3035  0.0212  0.5889
  536MOL0     C73884   2.853   4.860   8.530  0.4226 -0.6943  0.3634
  536MOL0     C73885   2.929   5.006   8.127  0.0580 -0.9593  0.5183
  536MOL0     C73886   2.856   5.121   8.124 -0.0552 -0.5505  0.6331
  536MOL0     C73887   2.875   5.207   8.016  0.2044 -0.2139  0.5408
  536MOL0     C73888   2.968   5.189   7.917  1.1395 -0.1594  0.1730
  536MOL0     O73889   2.970   5.282   7.813 -0.4202  0.4459 -0.2500
  536MOL0     C73890   3.089   5.298   7.739 -0.9388 -0.6470  0.0792
  536MOL0     C73891   3.107   5.432   7.664 -0.1730  0.1155 -0.3369
  536MOL0     C73892   3.131   5.544   7.762  0.5977 -0.1480  0.6656
  536MOL0     C73893   3.269   5.611   7.760 -0.3273  0.0931  1.0564
  536MOL0     C73894   3.368   5.528   7.836  0.3913 -0.7528  0.2672
  536MOL0     C73895   3.449   5.473   7.900 -0.2315  1.0049  0.7541
  536MOL0     C73896   3.035   5.070   7.922 -0.4658  0.1162  0.6038
  536MOL0     C73897   3.024   4.980   8.029 -0.1208 -0.2883  0.5797
  536MOL0     C73898   3.102   4.845   8.031  0.3800  0.8221  0.0124
  536MOL0     H73899   2.554   4.837   8.374 -0.6861 -0.6511  1.1447
  536MOL0     H73900   2.505   4.706   8.583 -0.1771  0.5027 -0.8702
  536MOL0     H73901   2.726   4.505   8.884 -2.0936  1.2171  1.4693
  536MOL0     H73902   2.779   4.511   8.715  0.0985 -1.9807  0.6333
  536MOL0     H73903   2.482   4.536   8.780 -0.8723  0.1395 -0.8225
  536MOL0     H73904   2.562   4.493   8.624 -0.0627  1.7290  0.8670
  536MOL0     H73905   2.587   4.258   8.686 -1.2628 -1.2652  0.8770
  536MOL0     H73906   2.605   4.299   8.853  0.4119  0.0358  0.5939
  536MOL0     H73907   2.382   4.328   8.885  2.7080  1.1018 -0.2232
  536MOL0     H73908   2.335   4.336   8.713  0.4499  1.0131  1.7186
  536MOL0     H73909   2.372   4.113   8.671 -0.6730 -0.8809  0.1009
  536MOL0     H73910   2.262   4.144   8.806  1.2295  3.3486  1.7299
  536MOL0     H73911   2.552   4.055   8.847 -0.0255  2.2585  3.3299
  536MOL0     H73912   2.447   4.078   8.976  1.0368  1.8519 -0.6022
  536MOL0     H73913   2.443   3.855   8.768  2.1302 -1.1687 -0.1074
  536MOL0     H73914   2.301   3.873   8.871  0.6275 -0.8223 -3.3042
  536MOL0     H73915   2.479   3.857   9.063 -2.1419  1.6610 -0.4624
  536MOL0     H73916   2.377   3.732   9.015 -0.3148  1.6485 -0.5692
  536MOL0     H73917   2.500   3.613   8.774 -0.5414 -0.7836  0.4525
  536MOL0     H73918   2.860   3.488   8.722 -0.4315  0.9925 -0.9272
  536MOL0     H73919   2.702   3.433   8.665  1.0581  1.5557 -1.2370
  536MOL0     H73920   2.862   3.331   8.904  1.9377  2.9214 -1.6712
  536MOL0     H73921   2.690   3.298   8.892  0.4799  3.6312  2.1868
  536MOL0     H73922   2.780   3.214   8.634  0.8894  0.1232  0.4990
  536MOL0     H73923   2.922   3.204   8.716  0.4371 -2.6156  0.2614
  536MOL0     H73924   2.861   3.038   8.863  1.9478 -1.4820  0.1486
  536MOL0     H73925   2.687   3.065   8.822  1.6585  1.5126  1.5363
  536MOL0     H73926   2.894   2.841   8.467 -1.2623 -1.5661 -0.5568
  536MOL0     H73927   2.848   2.554   8.394  1.7179 -1.2393 -1.9947
  536MOL0     H73928   3.017   2.516   8.402  0.0566  1.2614 -3.2105
  536MOL0     H73929   2.984   2.653   8.344 -0.9685  0.3925 -0.0003
  536MOL0     H73930   2.796   2.199   8.440 -0.7635 -1.1320  1.1112
  536MOL0     H73931   2.796   1.944   8.438  0.2181  2.6331 -1.8227
  536MOL0     H73932   2.765   1.833   8.737  2.4543  1.9995  1.1967
  536MOL0     H73933   2.752   1.756   8.587  1.4624  3.1044 -1.6290
  536MOL0     H73934   2.709   1.604   8.778 -1.3027 -0.8777 -0.3968
  536MOL0     H73935   2.813   1.547   8.641 -1.5793  0.9456 -0.5422
  536MOL0     H73936   2.877   1.620   8.933 -0.5361  1.2447 -1.4251
  536MOL0     H73937   3.010   1.640   8.832  0.2747 -0.7669  0.7799
  536MOL0     H73938   2.958   1.391   8.748  0.9601  1.7309 -0.6592
  536MOL0     H73939   2.833   1.406   8.868 -0.6411  2.8654  0.6909
  536MOL0     H73940   3.134   1.428   8.930 -0.6782 -0.8639 -4.2338
  536MOL0     H73941   3.007   1.437   9.054  0.3359  0.1431 -0.7526
  536MOL0     H73942   3.132   1.219   8.994  0.1388 -1.1243 -2.0555
  536MOL0     H73943   3.045   1.217   8.849 -0.6028  1.5614 -0.2486
  536MOL0     H73944   2.820   1.227   8.993  1.3507 -3.0566 -2.3801
  536MOL0     H73945   2.925   1.217   9.137  3.5439  0.8882 -0.0738
  536MOL0     H73946   3.002   1.007   9.067  1.7637  0.9854 -1.4151
  536MOL0     H73947   2.896   0.999   8.919 -3.8376 -0.3483  0.5546
  536MOL0     H73948   3.103   1.963   8.742  1.9836  2.8999  0.9298
  536MOL0     H73949   3.122   2.200   8.702  2.9692 -4.8348 -1.5474
  536MOL0     H73950   2.958   2.605   8.901 -2.8859 -1.9698  0.0090
  536MOL0     H73951   2.846   2.832   8.898 -0.0409  1.2212 -0.6957
  536MOL0     H73952   2.896   4.788   8.730  1.9512  0.1317 -1.3448
  536MOL0     H73953   2.955   4.896   8.520  1.0373 -2.0456  1.4548
  536MOL0     H73954   2.782   5.160   8.192  0.0973  3.4217 -1.1959
  536MOL0     H73955   2.826   5.303   8.003 -0.9656 -1.0641 -2.0626
  536MOL0     H73956   3.179   5.292   7.802  0.4732  2.6642 -1.3495
  536MOL0     H73957   3.108   5.223   7.662  2.8837 -2.4073  2.4311
  536MOL0     H73958   3.010   5.452   7.618 -0.6188  2.2691  1.4194
  536MOL0     H73959   3.187   5.418   7.590 -0.2185 -2.9586  0.0738
  536MOL0     H73960   3.052   5.614   7.736  1.2098  0.7925  1.2843
  536MOL0     H73961   3.111   5.507   7.863  0.2021 -1.7355  0.0282
  536MOL0     H73962   3.255   5.708   7.809 -3.5544  0.1440  0.2519
  536MOL0     H73963   3.299   5.618   7.655 -2.0129  1.4623  0.6217
  536MOL0     H73964   3.531   5.425   7.950  0.9915 -0.0665 -2.0744
  536MOL0     H73965   3.113   5.046   7.851  0.6316  1.4855  1.2997
  536MOL0     H73966   3.030   4.762   8.030  0.0338  1.1203 -0.4492
  536MOL0     H73967   3.167   4.831   7.944  2.2376 -0.0577  1.4783
  536MOL0     H73968   3.175   4.836   8.111  3.0035 -1.4971 -2.4122
  537MOL0     O73969   8.335   4.184   0.391 -0.1191  0.3165  0.0111
  537MOL0     C73970   8.317   4.248   0.490 -0.4123  0.7532 -0.2182
  537MOL0     O73971   8.363   4.370   0.520  0.6576 -0.9011 -0.9787
  537MOL0     C73972   8.454   4.449   0.443  0.6390  0.0278  0.4732
  537MOL0     C73973   8.461   4.440   0.300 -0.4400 -0.1175 -1.4720
  537MOL0     C73974   8.547   4.518   0.227  0.6030  0.1881  0.1117
  537MOL0     C73975   8.610   4.631   0.287 -0.0346  1.0406 -1.5991
  537MOL0     O73976   8.687   4.721   0.229 -0.5724  0.3779 -0.1595
  537MOL0     C73977   8.676   4.865   0.255  0.3313  0.4176 -0.0918
  537MOL0     C73978   8.746   4.946   0.151 -0.1582  0.2336  0.6261
  537MOL0     C73979   8.666   4.970   0.018 -0.6853  0.3458 -0.2342
  537MOL0     C73980   8.762   5.007  -0.099 -0.0204 -0.7197  0.3253
  537MOL0     C73981   8.852   4.900  -0.150  0.3439 -0.1172 -0.0333
  537MOL0     C73982   8.796   4.759  -0.180  0.1052 -0.2543  0.1230
  537MOL0     C73983   8.706   4.750  -0.304  0.1178  0.7453  0.2564
  537MOL0     C73984   8.689   4.608  -0.363 -0.9307  0.8313  0.1432
  537MOL0     N73985   8.597   4.519  -0.281  0.8284 -0.0384  0.7928
  537MOL0     C73986   8.547   4.403  -0.331 -0.0778 -0.9526  0.6239
  537MOL0     C73987   8.470   4.352  -0.226 -0.0534 -0.3614  0.1478
  537MOL0     C73988   8.409   4.224  -0.231 -0.0621 -0.0535 -0.1625
  537MOL0     C73989   8.494   4.114  -0.271  0.0105  0.5286  0.3270
  537MOL0     C73990   8.427   3.989  -0.215  0.0586  0.7923 -0.3013
  537MOL0     C73991   8.474   3.858  -0.273 -0.6710 -0.2009 -0.1762
  537MOL0     O73992   8.443   3.842  -0.415 -0.7421  0.4457  0.0585
  537MOL0     C73993   8.421   3.711  -0.469  0.0953 -0.9120 -0.0111
  537MOL0     C73994   8.339   3.614  -0.406  0.7064 -1.1003 -0.0446
  537MOL0     C73995   8.297   3.498  -0.469 -0.9628 -0.2218  0.0641
  537MOL0     C73996   8.206   3.404  -0.397  0.7942 -0.1845 -0.2668
  537MOL0     C73997   8.359   3.469  -0.597 -0.4102 -0.3586  0.0054
  537MOL0     C73998   8.305   3.345  -0.662  0.5637  0.0570 -0.4104
  537MOL0     O73999   8.166   3.324  -0.663  0.6577 -0.4374  0.3779
  537MOL0     C74000   8.108   3.263  -0.772 -0.8544 -0.1472 -0.8783
  537MOL0     C74001   8.021   3.326  -0.859 -0.0525 -1.1181  0.2183
  537MOL0     C74002   7.939   3.248  -0.939  0.7786  0.6436  0.1230
  537MOL0     C74003   7.951   3.108  -0.947  0.3861  0.5972  0.2103
  537MOL0     O74004   7.867   3.052  -1.031 -0.1989 -0.1311 -0.3389
  537MOL0     C74005   7.936   3.015  -1.143 -0.0161 -0.4242 -0.1691
  537MOL0     C74006   7.928   2.873  -1.166  0.0972 -0.2827  0.1966
  537MOL0     C74007   7.787   2.829  -1.204 -0.4908  0.4085 -1.0261
  537MOL0     C74008   7.786   2.673  -1.200 -0.5113 -0.7194 -0.4707
  537MOL0     C74009   7.648   2.625  -1.214  0.3173  0.2087  0.5478
  537MOL0     C74010   7.634   2.480  -1.169  0.7834 -0.2126  0.5091
  537MOL0     C74011   7.503   2.417  -1.226 -0.5705  0.4424  0.1862
  537MOL0     C74012   7.501   2.266  -1.227  0.1877 -0.1969 -0.3624
  537MOL0    Cl74013   7.494   2.193  -1.058 -0.6390 -0.0698  0.3202
  537MOL0     C74014   8.023   3.046  -0.853  0.2881  0.2512 -0.4073
  537MOL0     C74015   8.113   3.124  -0.776  0.6223  0.0947  0.0022
  537MOL0     O74016   8.387   3.281  -0.728  0.1426 -0.2189  0.5236
  537MOL0     C74017   8.460   3.553  -0.652  0.1360 -0.1866 -0.0177
  537MOL0     C74018   8.491   3.683  -0.586  0.7865  0.7119 -0.7572
  537MOL0     N74019   8.487   4.438  -0.114  0.0921  0.6114 -0.9337
  537MOL0     N74020   8.562   4.534  -0.155 -0.8919 -0.1776 -0.2870
  537MOL0     C74021   8.605   4.644   0.431 -0.2504 -0.7523 -0.6194
  537MOL0     C74022   8.527   4.556   0.508 -0.2141  0.5892  0.6070
  537MOL0     C74023   8.233   4.190   0.592  0.0684  0.6164  0.9122
  537MOL0     C74024   8.114   4.124   0.544 -0.1314  0.3267 -0.1970
  537MOL0     C74025   8.017   4.099   0.632  0.7858 -1.1689 -0.3913
  537MOL0     C74026   8.026   4.126   0.771 -0.6318 -0.2628  0.4176
  537MOL0     O74027   7.910   4.104   0.844 -0.8524 -1.1591  0.2167
  537MOL0     C74028   7.934   4.115   0.980 -0.5510  0.1382 -0.5837
  537MOL0     C74029   7.799   4.079   1.026 -0.1944 -0.0758  0.8976
  537MOL0     C74030   7.786   3.936   1.054 -0.1534 -0.1118  0.0369
  537MOL0     C74031   7.652   3.899   1.102 -0.5471  0.7710  0.5930
  537MOL0     C74032   7.661   3.778   1.174  0.0633 -0.1319 -0.5339
  537MOL0     C74033   7.653   3.693   1.253 -0.6749  0.2169  0.1758
  537MOL0     C74034   8.147   4.175   0.820  0.0802 -0.0908 -0.0260
  537MOL0     C74035   8.246   4.211   0.729 -0.2944 -1.2872  0.3556
  537MOL0     C74036   8.363   4.268   0.791  0.4416 -0.9762  0.1929
  537MOL0     H74037   8.416   4.356   0.248  0.9567 -1.9108  0.0542
  537MOL0     H74038   8.541   4.497   0.121  0.6198  0.5666  0.0335
  537MOL0     H74039   8.719   4.886   0.354  0.8923 -0.3774 -0.1580
  537MOL0     H74040   8.571   4.891   0.270  0.7429  1.0799  2.0507
  537MOL0     H74041   8.766   5.043   0.197 -2.7877  2.3670 -2.3196
  537MOL0     H74042   8.843   4.896   0.138 -0.1430  0.6483 -1.1441
  537MOL0     H74043   8.612   4.875   0.005  0.3334 -0.7831  2.8185
  537MOL0     H74044   8.592   5.049   0.035 -1.6124 -0.4875 -0.2935
  537MOL0     H74045   8.702   5.042  -0.183 -0.2223 -0.9358  0.3797
  537MOL0     H74046   8.830   5.089  -0.075 -0.7416  0.8990 -2.6739
  537MOL0     H74047   8.929   4.885  -0.073  1.8098 -0.3160 -1.4704
  537MOL0     H74048   8.900   4.931  -0.243 -0.7406  1.4572 -0.1000
  537MOL0     H74049   8.890   4.703  -0.190 -0.4518 -1.1892  0.0346
  537MOL0     H74050   8.751   4.718  -0.090  0.3272  0.5720  0.6133
  537MOL0     H74051   8.758   4.813  -0.377 -0.6189  0.5801 -0.4256
  537MOL0     H74052   8.612   4.803  -0.284  0.9281  1.5709  2.0404
  537MOL0     H74053   8.657   4.622  -0.467  2.0790  1.0230 -0.8463
  537MOL0     H74054   8.791   4.570  -0.367  0.0143  3.2675 -0.2390
  537MOL0     H74055   8.564   4.356  -0.427  0.0274  1.5414 -0.6699
  537MOL0     H74056   8.327   4.232  -0.303 -1.4149 -0.3415  1.2819
  537MOL0     H74057   8.362   4.200  -0.135 -0.5600  0.8877 -0.1587
  537MOL0     H74058   8.493   4.102  -0.379 -0.5583 -0.1367  0.3992
  537MOL0     H74059   8.598   4.128  -0.241  0.8996 -1.3037 -1.6875
  537MOL0     H74060   8.457   3.996  -0.110  0.7201  3.1691 -0.5897
  537MOL0     H74061   8.318   3.998  -0.226 -0.3009  0.8380  2.5564
  537MOL0     H74062   8.579   3.833  -0.259 -0.2299  1.0683 -0.9990
  537MOL0     H74063   8.412   3.786  -0.219 -2.9557  2.6377  1.2484
  537MOL0     H74064   8.297   3.623  -0.307 -1.8432  1.8310 -1.2266
  537MOL0     H74065   8.221   3.419  -0.290 -1.1093 -0.3443  0.0446
  537MOL0     H74066   8.226   3.298  -0.411 -0.0987 -0.6642  1.8384
  537MOL0     H74067   8.102   3.432  -0.417  0.4074 -1.7475 -0.5735
  537MOL0     H74068   7.991   3.430  -0.863 -2.1862 -1.7036 -3.2957
  537MOL0     H74069   7.867   3.293  -1.007 -1.3691  0.0956  1.9257
  537MOL0     H74070   7.890   3.078  -1.220  0.7462  3.3524  2.1924
  537MOL0     H74071   8.042   3.043  -1.152  0.3436 -1.0849  1.6875
  537MOL0     H74072   8.007   2.844  -1.236  1.8840 -0.5897  2.2165
  537MOL0     H74073   7.954   2.819  -1.074 -1.8349 -1.9228 -0.1652
  537MOL0     H74074   7.749   2.865  -1.300 -0.3265  0.2245 -1.1591
  537MOL0     H74075   7.706   2.860  -1.137 -1.6298  0.1328 -2.2320
  537MOL0     H74076   7.819   2.634  -1.103  1.2890 -0.6521 -1.0218
  537MOL0     H74077   7.851   2.635  -1.279  0.3156  1.3078 -0.8340
  537MOL0     H74078   7.581   2.687  -1.153 -0.7991 -0.4083 -0.0066
  537MOL0     H74079   7.604   2.631  -1.314 -2.3850 -0.8483  1.5559
  537MOL0     H74080   7.640   2.481  -1.060 -3.2768  0.9238  0.8704
  537MOL0     H74081   7.714   2.422  -1.216  1.7438  2.2034 -1.0430
  537MOL0     H74082   7.486   2.455  -1.327 -2.9471 -0.3592  0.2344
  537MOL0     H74083   7.430   2.446  -1.150  0.0552  0.2782  0.8647
  537MOL0     H74084   7.579   2.221  -1.289  0.7689 -0.0186  0.2284
  537MOL0     H74085   7.416   2.223  -1.279  0.5902  1.2105 -2.3046
  537MOL0     H74086   8.038   2.940  -0.840  0.5308  0.2925 -0.3451
  537MOL0     H74087   8.162   3.070  -0.696 -1.0148 -1.1219  0.2558
  537MOL0     H74088   8.507   3.529  -0.747 -2.8933  0.8770 -1.9548
  537MOL0     H74089   8.582   3.741  -0.598  1.4774  1.6499  5.5610
  537MOL0     H74090   8.661   4.716   0.490 -3.2541  0.8326  0.5391
  537MOL0     H74091   8.518   4.563   0.616 -0.1854 -1.7291  0.8143
  537MOL0     H74092   8.097   4.110   0.438 -1.5977 -4.0951  0.4564
  537MOL0     H74093   7.920   4.068   0.592  0.6144 -1.3768  0.1855
  537MOL0     H74094   8.007   4.041   1.014 -0.8237  0.5755  1.0444
  537MOL0     H74095   7.965   4.216   1.008 -1.5377  0.8772 -2.0084
  537MOL0     H74096   7.726   4.092   0.946 -0.3996 -3.9697  0.2271
  537MOL0     H74097   7.780   4.142   1.113  3.0074 -1.4653  2.8257
  537MOL0     H74098   7.815   3.877   0.966  1.9611  2.8182 -1.4173
  537MOL0     H74099   7.860   3.923   1.133 -1.2766  3.9282  2.0302
  537MOL0     H74100   7.588   3.889   1.014 -0.4794  2.1444  0.3680
  537MOL0     H74101   7.619   3.989   1.154 -0.5755  2.1472 -1.6476
  537MOL0     H74102   7.626   3.614   1.321  1.7593 -3.6081 -2.8153
  537MOL0     H74103   8.154   4.191   0.927 -1.6668 -1.9085  0.4228
  537MOL0     H74104   8.353   4.377   0.791  3.3305 -0.6290 -1.4335
  537MOL0     H74105   8.375   4.226   0.892  0.5639  1.5699  1.3193
  537MOL0     H74106   8.456   4.242   0.741  0.9582  1.5348 -0.2805
  538MOL0     O74107   5.972   3.296   6.049 -1.1002  0.1215  0.1656
  538MOL0     C74108   5.980   3.253   6.162 -0.2437 -0.0666 -0.2418
  538MOL0     O74109   6.090   3.246   6.242  0.4082 -0.2743  0.1600
  538MOL0     C74110   6.204   3.299   6.196 -0.3014 -0.3424  0.1925
  538MOL0     C74111   6.219   3.436   6.164  1.0679 -0.1627 -0.1401
  538MOL0     C74112   6.346   3.495   6.134  0.1077 -0.2207  0.0592
  538MOL0     C74113   6.467   3.418   6.121 -0.0048  0.5346  0.6796
  538MOL0     O74114   6.586   3.480   6.083 -0.2364 -0.2149 -0.4187
  538MOL0     C74115   6.673   3.421   5.982  0.1469  0.1683  0.3013
  538MOL0     C74116   6.772   3.524   5.923 -0.6724  0.4229  0.1033
  538MOL0     C74117   6.845   3.598   6.031  0.7734  0.2482  0.8060
  538MOL0     C74118   6.949   3.680   5.964 -0.2866 -0.6538 -0.5961
  538MOL0     C74119   7.040   3.773   6.048 -0.2661 -0.5839 -1.0215
  538MOL0     C74120   7.101   3.703   6.174  0.8442  0.4240 -0.2798
  538MOL0     C74121   7.173   3.803   6.257  0.7675  0.9672 -0.4807
  538MOL0     C74122   7.191   3.748   6.400 -0.3677  0.9312  0.0871
  538MOL0     N74123   7.261   3.837   6.480 -0.4130  0.1266 -0.1925
  538MOL0     C74124   7.251   3.837   6.620 -0.4627 -0.2241 -0.1067
  538MOL0     C74125   7.351   3.919   6.657 -0.4151 -0.0141 -0.6758
  538MOL0     C74126   7.368   3.960   6.806 -0.5476  0.7976 -0.0830
  538MOL0     C74127   7.382   4.112   6.818  0.1441  0.1005 -0.3277
  538MOL0     C74128   7.264   4.186   6.764 -0.0598  0.1476 -0.1736
  538MOL0     C74129   7.128   4.175   6.833 -1.1019  0.4068  0.8166
  538MOL0     O74130   7.146   4.236   6.956  0.7397 -0.7182  0.0081
  538MOL0     C74131   7.033   4.247   7.030 -0.0785  0.1630 -1.6990
  538MOL0     C74132   7.040   4.337   7.137  0.6519  0.2749 -0.4098
  538MOL0     C74133   6.927   4.371   7.227  0.6039  0.2006  0.9835
  538MOL0     C74134   6.959   4.474   7.333 -0.2209 -0.1092 -0.5531
  538MOL0     C74135   6.808   4.302   7.200 -0.2612 -0.3993  0.7141
  538MOL0     C74136   6.678   4.330   7.264  0.2119  0.5345  0.3175
  538MOL0     O74137   6.579   4.234   7.257  0.2839  0.6362  0.0444
  538MOL0     C74138   6.456   4.289   7.298  1.2323  1.1681  0.5287
  538MOL0     C74139   6.389   4.380   7.209 -0.1723  0.0069 -0.2970
  538MOL0     C74140   6.267   4.425   7.247  0.5437  0.4064 -0.7201
  538MOL0     C74141   6.197   4.377   7.366 -1.0268  1.0452 -0.3080
  538MOL0     O74142   6.076   4.413   7.408  0.0872 -0.2471 -0.1216
  538MOL0     C74143   5.993   4.487   7.320 -0.4741 -0.8051 -0.2828
  538MOL0     C74144   5.853   4.454   7.374 -0.8625 -0.6085 -0.2051
  538MOL0     C74145   5.834   4.562   7.482 -0.7534  0.5853  0.2725
  538MOL0     C74146   5.688   4.576   7.529 -0.1405  0.3545 -0.0908
  538MOL0     C74147   5.671   4.687   7.630  0.0633 -0.3390  0.0228
  538MOL0     C74148   5.656   4.823   7.561 -0.5201 -0.0878 -1.0980
  538MOL0     C74149   5.617   4.924   7.662 -0.4460 -0.3687 -0.4416
  538MOL0     C74150   5.599   5.052   7.589 -1.3574 -1.0056 -0.9602
  538MOL0    Cl74151   5.566   5.163   7.720 -0.0017 -0.2493 -0.2259
  538MOL0     C74152   6.259   4.273   7.440  0.9954  0.4016  1.0293
  538MOL0     C74153   6.387   4.225   7.399  0.0909  0.3835 -0.5649
  538MOL0     O74154   6.669   4.448   7.302  0.3586 -0.3061  0.3379
  538MOL0     C74155   6.802   4.211   7.090  0.2221  0.2496  0.6877
  538MOL0     C74156   6.911   4.184   7.004 -0.9279 -0.0645  0.3091
  538MOL0     N74157   7.419   3.966   6.544 -0.2862  0.3986 -0.0668
  538MOL0     N74158   7.367   3.910   6.445  0.1720 -0.4247  0.8177
  538MOL0     C74159   6.451   3.278   6.137 -0.2113  0.1238  0.7850
  538MOL0     C74160   6.327   3.224   6.177 -0.2595  0.8994 -2.1245
  538MOL0     C74161   5.845   3.211   6.229 -0.3265 -0.9480  0.7420
  538MOL0     C74162   5.736   3.215   6.141 -0.4271 -0.3310  0.3155
  538MOL0     C74163   5.602   3.210   6.188 -0.1014  0.3288 -0.0870
  538MOL0     C74164   5.579   3.174   6.321  0.5981  0.2143 -1.0214
  538MOL0     O74165   5.442   3.174   6.357  0.8911 -0.1042 -0.6462
  538MOL0     C74166   5.399   3.222   6.486 -0.2280  0.0723  0.9750
  538MOL0     C74167   5.252   3.202   6.523 -0.3040 -0.4479 -0.2634
  538MOL0     C74168   5.235   3.281   6.662 -1.1948 -0.3247  1.0631
  538MOL0     C74169   5.336   3.234   6.780  0.7385  1.0488  0.7895
  538MOL0     C74170   5.324   3.330   6.892 -0.1819  0.0803 -0.2208
  538MOL0     C74171   5.316   3.423   6.975 -0.1310  0.8502 -0.4995
  538MOL0     C74172   5.686   3.163   6.415  0.4559 -1.1642 -0.5570
  538MOL0     C74173   5.818   3.183   6.369  0.4888 -0.0976  0.3507
  538MOL0     C74174   5.919   3.190   6.475 -0.5280  0.5298 -0.5279
  538MOL0     H74175   6.129   3.496   6.166  2.3567  2.0853 -2.7252
  538MOL0     H74176   6.355   3.602   6.118  0.4099 -0.4647 -1.5074
  538MOL0     H74177   6.617   3.391   5.894  1.6764 -0.6757 -0.4175
  538MOL0     H74178   6.729   3.336   6.021  1.4768  2.0735  2.8451
  538MOL0     H74179   6.847   3.494   5.849  2.0737  1.7425  2.1863
  538MOL0     H74180   6.722   3.611   5.880  1.5857  2.2893  1.0149
  538MOL0     H74181   6.779   3.671   6.080  0.5294 -0.5058  1.6253
  538MOL0     H74182   6.892   3.520   6.091  4.6881  0.0405 -2.1361
  538MOL0     H74183   7.024   3.616   5.916 -0.7136 -2.1269  0.6087
  538MOL0     H74184   6.913   3.748   5.886 -0.0951 -1.0666 -1.0482
  538MOL0     H74185   6.981   3.859   6.079 -0.0573 -0.3243 -1.3451
  538MOL0     H74186   7.125   3.804   5.987 -0.4774 -0.4925 -1.2723
  538MOL0     H74187   7.010   3.673   6.228  0.3087 -1.2654 -1.9910
  538MOL0     H74188   7.153   3.613   6.137  2.1270  1.3197 -0.7123
  538MOL0     H74189   7.105   3.889   6.256 -2.0351 -1.1041 -0.9804
  538MOL0     H74190   7.274   3.817   6.219  1.3984 -3.5721 -0.9281
  538MOL0     H74191   7.092   3.719   6.435 -1.5665  0.7989 -3.0526
  538MOL0     H74192   7.245   3.653   6.393 -0.1535  1.0302  0.3920
  538MOL0     H74193   7.178   3.789   6.685 -2.2848  2.3259 -0.0945
  538MOL0     H74194   7.446   3.901   6.855 -0.2084  1.2154 -0.1078
  538MOL0     H74195   7.281   3.922   6.860  2.0808 -4.7950  0.9120
  538MOL0     H74196   7.395   4.135   6.925 -0.2844  0.3360 -0.3234
  538MOL0     H74197   7.478   4.148   6.778 -0.6872  3.2126  0.1668
  538MOL0     H74198   7.288   4.292   6.756  0.4561  0.1368  0.9544
  538MOL0     H74199   7.255   4.155   6.660 -0.3880 -2.7368  0.6278
  538MOL0     H74200   7.070   4.225   6.756  0.2063 -4.9042 -4.3998
  538MOL0     H74201   7.090   4.074   6.850  1.5123 -0.2171  4.0353
  538MOL0     H74202   7.133   4.393   7.147  0.4834  0.6367 -0.8673
  538MOL0     H74203   6.865   4.504   7.381 -2.3978 -7.0780  0.6909
  538MOL0     H74204   7.033   4.546   7.297 -1.6960  1.7033 -0.1218
  538MOL0     H74205   7.002   4.416   7.415 -2.3660 -0.4660  0.3861
  538MOL0     H74206   6.437   4.421   7.121  2.2412 -0.6642  0.6393
  538MOL0     H74207   6.216   4.494   7.181  0.5829  2.6417  1.4678
  538MOL0     H74208   6.016   4.594   7.313  3.9148 -1.6635 -4.0601
  538MOL0     H74209   5.999   4.453   7.216 -0.0096  0.2245 -0.6014
  538MOL0     H74210   5.786   4.475   7.290 -0.5483  1.8756  0.0950
  538MOL0     H74211   5.850   4.353   7.417 -3.9320 -0.6064 -0.1840
  538MOL0     H74212   5.865   4.660   7.446  2.6134 -0.4612 -0.0169
  538MOL0     H74213   5.900   4.530   7.563  0.9631 -1.6573 -1.8380
  538MOL0     H74214   5.647   4.484   7.571 -2.8716  1.1072 -0.9045
  538MOL0     H74215   5.630   4.602   7.440 -0.8579  2.6266  0.9754
  538MOL0     H74216   5.579   4.653   7.679 -0.3579 -2.0201 -1.7883
  538MOL0     H74217   5.754   4.694   7.700  0.9869 -0.4000 -1.0492
  538MOL0     H74218   5.581   4.809   7.483 -0.4550  0.8314 -1.3433
  538MOL0     H74219   5.750   4.849   7.511  0.0475  1.6218  0.7294
  538MOL0     H74220   5.699   4.931   7.734  1.2571  1.6972 -2.4029
  538MOL0     H74221   5.523   4.893   7.708  0.4649 -0.8023  1.1822
  538MOL0     H74222   5.520   5.044   7.514 -2.7372  3.4537 -0.2782
  538MOL0     H74223   5.688   5.086   7.535 -1.6276 -1.2859 -1.5882
  538MOL0     H74224   6.196   4.230   7.517 -1.6436 -1.6658 -1.9713
  538MOL0     H74225   6.432   4.134   7.438  1.5136  2.1399  2.1445
  538MOL0     H74226   6.703   4.172   7.066 -0.5475  3.9948 -3.6316
  538MOL0     H74227   6.881   4.117   6.924 -1.1951 -1.3069  1.4061
  538MOL0     H74228   6.531   3.211   6.109  0.7983  0.8590  1.8333
  538MOL0     H74229   6.308   3.118   6.176  1.4066  0.5098  0.3510
  538MOL0     H74230   5.752   3.224   6.034 -0.6040 -0.4199  0.2814
  538MOL0     H74231   5.513   3.221   6.127  0.6253  0.8417 -1.0869
  538MOL0     H74232   5.454   3.161   6.558 -0.7654  0.5820  1.8348
  538MOL0     H74233   5.410   3.329   6.505 -3.0336  0.2472  2.1417
  538MOL0     H74234   5.222   3.099   6.541 -1.4816 -0.5465 -2.5229
  538MOL0     H74235   5.185   3.240   6.446  0.2438 -1.6699 -1.3710
  538MOL0     H74236   5.248   3.389   6.654  1.5828 -0.6314  0.0151
  538MOL0     H74237   5.134   3.252   6.691 -1.2494 -1.8097 -0.4543
  538MOL0     H74238   5.442   3.241   6.756  0.6074  2.2993  0.4711
  538MOL0     H74239   5.313   3.132   6.811  2.2598  0.2199 -0.6530
  538MOL0     H74240   5.319   3.505   7.043  0.7076 -0.0668  0.5979
  538MOL0     H74241   5.660   3.152   6.520  0.6515  0.0692 -0.3662
  538MOL0     H74242   5.948   3.295   6.488 -2.1018  0.7611  1.7352
  538MOL0     H74243   5.871   3.155   6.567  0.4635 -1.5869 -0.7552
  538MOL0     H74244   6.008   3.130   6.452 -1.0735 -0.2645 -0.5983
  539MOL0     O74245   3.465  11.257  10.285  0.4018  0.3167  0.5653
  539MOL0     C74246   3.386  11.183  10.340 -0.7340  0.8006 -0.5710
  539MOL0     O74247   3.392  11.044  10.326  0.2485 -0.5390 -0.0730
  539MOL0     C74248   3.472  11.002  10.224 -0.7749  0.3596 -0.1218
  539MOL0     C74249   3.419  10.989  10.094 -0.8284 -0.5668  0.1052
  539MOL0     C74250   3.499  10.937   9.994 -0.2396 -0.6267  0.5869
  539MOL0     C74251   3.630  10.916  10.019  0.2312  0.2038  0.0656
  539MOL0     O74252   3.701  10.868   9.918  0.2459 -0.3696 -0.0358
  539MOL0     C74253   3.818  10.787   9.939  0.3076 -0.1130  0.1048
  539MOL0     C74254   3.906  10.774   9.816  0.0443 -1.0098 -0.5899
  539MOL0     C74255   3.968  10.900   9.752 -0.2099 -1.0904 -0.3767
  539MOL0     C74256   4.025  11.013   9.855 -1.1979 -0.1387 -0.8658
  539MOL0     C74257   4.145  10.944   9.926 -0.3038 -0.1222 -0.9447
  539MOL0     C74258   4.187  11.011  10.058  0.0464 -0.7470 -0.5349
  539MOL0     C74259   4.273  11.144  10.032  0.8061  0.1184 -0.0081
  539MOL0     C74260   4.294  11.232  10.162 -0.6103  0.6699 -0.4221
  539MOL0     N74261   4.374  11.147  10.258  0.3885  0.1257 -1.0294
  539MOL0     C74262   4.319  11.098  10.374 -0.1358  0.3021  0.2473
  539MOL0     C74263   4.423  11.058  10.446 -0.0355  0.6434  0.4309
  539MOL0     C74264   4.454  10.985  10.570 -0.4183  0.6171 -1.4568
  539MOL0     C74265   4.337  10.907  10.628  0.1571  0.5761 -0.5600
  539MOL0     C74266   4.379  10.781  10.706  0.6176  0.0944 -0.1757
  539MOL0     C74267   4.466  10.805  10.825 -0.0205 -0.4552 -0.0277
  539MOL0     O74268   4.389  10.851  10.944  0.2157 -0.1895  0.1901
  539MOL0     C74269   4.469  10.918  11.025  0.5796 -0.2818  0.4115
  539MOL0     C74270   4.437  11.044  11.075  0.2356  0.0308 -0.3315
  539MOL0     C74271   4.493  11.110  11.180 -0.0607  0.2838  0.3300
  539MOL0     C74272   4.435  11.243  11.210  0.3598  0.1690 -0.0703
  539MOL0     C74273   4.613  11.049  11.229 -0.0253 -0.0787  0.5997
  539MOL0     C74274   4.698  11.117  11.340  0.9535  0.2984 -0.0300
  539MOL0     O74275   4.790  11.040  11.400  0.4013  0.2318 -0.1129
  539MOL0     C74276   4.867  11.106  11.492 -0.1200  0.2246  0.3487
  539MOL0     C74277   4.971  11.177  11.440 -0.2628 -0.3026 -0.7987
  539MOL0     C74278   5.070  11.229  11.523 -0.9740  0.4420 -0.7123
  539MOL0     C74279   5.063  11.218  11.659  0.1876 -0.0995  0.1745
  539MOL0     O74280   5.181  11.248  11.725  0.5829 -0.1637 -1.0168
  539MOL0     C74281   5.170  11.245  11.872  0.3857 -0.8219 -0.7311
  539MOL0     C74282   5.093  11.373  11.916  0.5586 -1.0280 -0.9167
  539MOL0     C74283   5.081  11.394  12.067  0.1160 -0.4366 -0.6002
  539MOL0     C74284   5.129  11.275  12.154  0.5956 -0.8460 -0.5037
  539MOL0     C74285   5.076  11.297  12.298 -0.7687  0.5088  0.4744
  539MOL0     C74286   5.095  11.170  12.382 -0.8298  0.2040  0.5474
  539MOL0     C74287   5.047  11.174  12.529 -0.1277  0.0119  0.0142
  539MOL0     C74288   5.113  11.274  12.622 -0.7466 -0.2116 -0.4227
  539MOL0    Cl74289   5.000  11.405  12.640  0.0471 -0.2688 -0.3025
  539MOL0     C74290   4.948  11.151  11.712 -0.0811  1.0095  0.4562
  539MOL0     C74291   4.852  11.090  11.631 -0.0875  0.1363 -0.0340
  539MOL0     O74292   4.682  11.239  11.361  0.2653 -0.4633  0.1504
  539MOL0     C74293   4.663  10.928  11.181 -0.3499  0.4105  0.5455
  539MOL0     C74294   4.593  10.863  11.084  0.5029  1.3932 -0.5409
  539MOL0     N74295   4.533  11.089  10.372  0.1914 -0.6060 -0.1067
  539MOL0     N74296   4.512  11.147  10.270 -0.5256  0.4831  0.2222
  539MOL0     C74297   3.688  10.941  10.143 -0.8876 -1.2085 -0.1264
  539MOL0     C74298   3.605  10.973  10.248  0.7781  0.0631  0.5986
  539MOL0     C74299   3.257  11.233  10.388 -0.3354 -1.0266 -0.7670
  539MOL0     C74300   3.150  11.147  10.417 -0.2349  0.0134 -0.6222
  539MOL0     C74301   3.030  11.190  10.472 -0.0409  0.1998 -0.4833
  539MOL0     C74302   3.008  11.319  10.513  0.2089  1.0183  0.6577
  539MOL0     O74303   2.888  11.353  10.578 -0.2644 -0.5619 -0.2880
  539MOL0     C74304   2.779  11.350  10.482  0.2763 -0.1756 -0.3069
  539MOL0     C74305   2.792  11.470  10.400 -0.0751 -0.1776 -1.1904
  539MOL0     C74306   2.791  11.602  10.473 -0.3838  0.2898  0.2178
  539MOL0     C74307   2.804  11.729  10.385 -0.4244  0.3020  0.0532
  539MOL0     C74308   2.690  11.743  10.290  0.2564 -0.2222 -0.2491
  539MOL0     C74309   2.602  11.749  10.204  1.2232 -0.3978 -0.2820
  539MOL0     C74310   3.118  11.405  10.492  0.2742 -0.0579  0.5196
  539MOL0     C74311   3.232  11.372  10.421  0.8271  0.1370  0.3666
  539MOL0     C74312   3.329  11.479  10.390  0.1053  0.3440 -0.1759
  539MOL0     H74313   3.315  11.008  10.067  0.0246  2.1717 -1.5457
  539MOL0     H74314   3.459  10.914   9.896 -2.6838 -1.4173  1.7129
  539MOL0     H74315   3.789  10.684   9.962  0.0491 -0.0576  0.0271
  539MOL0     H74316   3.880  10.827  10.020  0.3349  1.7905 -0.8054
  539MOL0     H74317   3.984  10.701   9.843 -1.1474 -1.3305  2.3547
  539MOL0     H74318   3.856  10.742   9.724  2.1648  1.5324 -2.8216
  539MOL0     H74319   4.045  10.866   9.682  1.0461  0.2583  0.3171
  539MOL0     H74320   3.888  10.940   9.689 -1.6859 -1.5390  1.1384
  539MOL0     H74321   4.068  11.103   9.811 -0.4345 -0.1604 -0.1878
  539MOL0     H74322   3.946  11.027   9.929 -0.2966 -2.6344  0.6879
  539MOL0     H74323   4.238  10.943   9.868 -0.0946 -4.0135 -0.7481
  539MOL0     H74324   4.133  10.838   9.950  0.6426  0.3164  1.7812
  539MOL0     H74325   4.096  11.047  10.107  1.1182  0.9896  0.2815
  539MOL0     H74326   4.245  10.944  10.122 -1.1251 -1.6362 -0.3760
  539MOL0     H74327   4.219  11.211   9.964 -0.3742  0.4021  1.1628
  539MOL0     H74328   4.367  11.127   9.978 -1.0032 -2.2572 -2.7237
  539MOL0     H74329   4.342  11.329  10.144  0.1536  0.6934  1.5351
  539MOL0     H74330   4.193  11.253  10.199 -0.5173 -1.6712  1.3937
  539MOL0     H74331   4.218  11.066  10.398 -0.0024 -1.7541 -1.5974
  539MOL0     H74332   4.494  11.056  10.642  0.9850 -3.0223  1.7120
  539MOL0     H74333   4.524  10.904  10.548 -0.6886  0.1152 -0.5449
  539MOL0     H74334   4.286  10.955  10.711  0.4162 -1.9753  1.1759
  539MOL0     H74335   4.269  10.867  10.552 -0.9835  2.4260 -0.5963
  539MOL0     H74336   4.296  10.715  10.733  0.9813 -0.9433 -1.5078
  539MOL0     H74337   4.445  10.721  10.643  0.3394  0.9035 -1.2643
  539MOL0     H74338   4.534  10.720  10.838  1.4574  0.7959  0.7140
  539MOL0     H74339   4.540  10.883  10.803  0.0241 -0.2792  0.7230
  539MOL0     H74340   4.350  11.084  11.024  0.9287  1.9776 -0.0494
  539MOL0     H74341   4.348  11.260  11.146  0.9181  1.6501 -0.4589
  539MOL0     H74342   4.488  11.334  11.183  0.5513  0.1213  0.1370
  539MOL0     H74343   4.381  11.259  11.304  1.8074  3.4288  0.3306
  539MOL0     H74344   4.989  11.186  11.333  1.0437  0.1114 -0.5560
  539MOL0     H74345   5.153  11.276  11.470  0.0781 -0.5148  0.0335
  539MOL0     H74346   5.141  11.149  11.916 -3.3508  0.6215  0.3421
  539MOL0     H74347   5.269  11.261  11.917 -0.2037  1.7006 -0.1708
  539MOL0     H74348   5.129  11.462  11.864  0.6467  1.0063  2.3167
  539MOL0     H74349   4.989  11.363  11.882  0.6406 -0.8615 -1.2168
  539MOL0     H74350   4.973  11.406  12.080  0.1722 -0.1174 -0.4254
  539MOL0     H74351   5.121  11.492  12.094  2.1253 -1.5323  0.6274
  539MOL0     H74352   5.235  11.247  12.156  1.8486  3.3292  0.6275
  539MOL0     H74353   5.071  11.199  12.100 -2.2298  1.2704 -0.6540
  539MOL0     H74354   5.135  11.380  12.339 -0.3709  0.3514  0.2295
  539MOL0     H74355   4.968  11.313  12.298 -1.4080 -2.8676  1.4413
  539MOL0     H74356   5.196  11.130  12.388 -1.4554 -1.3808  1.2758
  539MOL0     H74357   5.029  11.100  12.329  0.5927 -1.6786  1.1550
  539MOL0     H74358   5.064  11.076  12.574  4.4020  2.4483  4.6109
  539MOL0     H74359   4.938  11.186  12.538 -0.3041 -0.3331 -1.4683
  539MOL0     H74360   5.195  11.318  12.565  1.4857 -1.8432  1.3281
  539MOL0     H74361   5.152  11.237  12.717 -0.0975  2.4508  0.4390
  539MOL0     H74362   4.933  11.126  11.817  1.2764  0.9645  0.6597
  539MOL0     H74363   4.773  11.023  11.662 -1.6926  2.2088  0.5355
  539MOL0     H74364   4.755  10.895  11.229  0.8517  3.8473  0.8719
  539MOL0     H74365   4.630  10.765  11.055 -1.9430 -0.1379  1.0806
  539MOL0     H74366   3.793  10.938  10.169 -1.2291 -1.9921  1.2860
  539MOL0     H74367   3.654  11.005  10.340  1.0723  0.2609  0.3774
  539MOL0     H74368   3.158  11.040  10.400  0.6274 -0.1829  0.8365
  539MOL0     H74369   2.959  11.114  10.501  1.4867 -1.9045 -2.0120
  539MOL0     H74370   2.760  11.257  10.428 -2.0985  0.7022 -1.0914
  539MOL0     H74371   2.684  11.361  10.534  0.1235 -1.4721 -0.2834
  539MOL0     H74372   2.724  11.465  10.314  1.8154 -0.0237 -2.7790
  539MOL0     H74373   2.891  11.474  10.352 -0.1044  2.0865 -1.1968
  539MOL0     H74374   2.692  11.617  10.516 -0.1953 -0.5809  0.9979
  539MOL0     H74375   2.861  11.598  10.557 -0.8448 -0.7909  0.5626
  539MOL0     H74376   2.901  11.718  10.336 -0.1608 -0.1835  0.6688
  539MOL0     H74377   2.810  11.821  10.444  0.6437  0.4607 -0.2926
  539MOL0     H74378   2.517  11.760  10.140 -0.4060 -1.4907  1.5783
  539MOL0     H74379   3.109  11.507  10.529  3.4175  0.6662 -0.3576
  539MOL0     H74380   3.377  11.473  10.291  0.4518  1.3764 -0.0744
  539MOL0     H74381   3.285  11.579  10.388  2.2650  1.3662  0.3654
  539MOL0     H74382   3.412  11.470  10.460 -0.0236 -0.3303 -0.1040
  540MOL0     O74383   6.867   8.597   9.178 -0.1629 -0.0285 -0.3428
  540MOL0     C74384   6.884   8.559   9.291  0.2971  0.8290  0.2216
  540MOL0     O74385   6.837   8.618   9.399  0.7531  0.3860  0.6339
  540MOL0     C74386   6.763   8.734   9.387 -0.1397 -0.2417 -0.2307
  540MOL0     C74387   6.824   8.860   9.361  0.0621  0.7813  1.1223
  540MOL0     C74388   6.746   8.977   9.359  0.2713 -0.1140  0.1519
  540MOL0     C74389   6.615   8.978   9.397  0.2496  0.3863  0.4112
  540MOL0     O74390   6.547   9.090   9.404  0.4721 -0.0298 -0.7577
  540MOL0     C74391   6.434   9.096   9.487  0.3066 -0.6052 -0.1169
  540MOL0     C74392   6.394   9.234   9.531  0.7930 -1.6357 -0.6855
  540MOL0     C74393   6.249   9.256   9.598 -0.3051  0.7306  0.3221
  540MOL0     C74394   6.231   9.182   9.736 -1.1402  0.1825  0.6908
  540MOL0     C74395   6.090   9.207   9.800 -0.9487  0.8720  0.3808
  540MOL0     C74396   6.073   9.132   9.934 -0.0466 -0.0820  0.1986
  540MOL0     C74397   5.941   9.166  10.006  0.9154  0.0411  0.1272
  540MOL0     C74398   5.929   9.071  10.128  0.4502 -0.6441 -0.2202
  540MOL0     N74399   5.800   9.076  10.185 -0.3623 -0.3917 -0.2455
  540MOL0     C74400   5.720   9.189  10.181  0.1371 -0.3676 -1.4890
  540MOL0     C74401   5.617   9.147  10.260  0.1053  0.8354 -0.2742
  540MOL0     C74402   5.482   9.221  10.300 -0.5579  0.1856  0.1964
  540MOL0     C74403   5.360   9.135  10.266  0.3326 -0.3253  0.2344
  540MOL0     C74404   5.345   9.132  10.118  0.7825  1.1603  0.4072
  540MOL0     C74405   5.242   9.012  10.086 -1.1585 -0.0710 -0.3515
  540MOL0     O74406   5.109   9.057  10.116  0.6098  0.6301  0.0036
  540MOL0     C74407   5.000   8.970  10.117 -1.6646  0.2031 -0.0431
  540MOL0     C74408   4.879   9.025  10.164  0.6493 -0.4449  1.3040
  540MOL0     C74409   4.754   8.957  10.163 -0.8049  0.0750  1.0244
  540MOL0     C74410   4.636   9.013  10.219  0.4573 -0.5796 -1.3734
  540MOL0     C74411   4.761   8.819  10.119 -0.0907 -0.1694  0.8002
  540MOL0     C74412   4.646   8.727  10.102  0.6542  0.5847  0.5079
  540MOL0     O74413   4.532   8.754  10.187  0.5829  0.5479 -0.8845
  540MOL0     C74414   4.427   8.665  10.196 -0.2175 -0.5047 -0.3544
  540MOL0     C74415   4.301   8.703  10.190 -0.1710  0.0130 -0.1750
  540MOL0     C74416   4.193   8.608  10.230  0.1219  0.2123  0.2223
  540MOL0     C74417   4.233   8.479  10.274  0.7078  0.1940  0.4622
  540MOL0     O74418   4.146   8.374  10.305  0.1345  1.0951  0.5779
  540MOL0     C74419   4.012   8.393  10.346 -0.6206  0.4369 -1.0947
  540MOL0     C74420   4.011   8.396  10.494 -0.3094 -0.0507  0.3618
  540MOL0     C74421   4.061   8.258  10.549 -0.4985 -0.0371  0.0021
  540MOL0     C74422   3.946   8.154  10.559 -0.0761 -0.2267  0.5172
  540MOL0     C74423   3.985   8.010  10.599 -0.7704 -0.1608  0.0347
  540MOL0     C74424   4.064   7.936  10.489  1.0145  0.6489 -0.2805
  540MOL0     C74425   4.065   7.796  10.523 -1.0225  0.4493  0.3097
  540MOL0     C74426   4.073   7.703  10.394 -0.5042 -0.0570  0.5326
  540MOL0    Cl74427   3.965   7.732  10.249  0.1247  0.0132 -0.0797
  540MOL0     C74428   4.363   8.449  10.281  0.0484 -0.6473  0.0409
  540MOL0     C74429   4.456   8.541  10.239  0.1431  1.2520 -1.0612
  540MOL0     O74430   4.651   8.645  10.005  1.0347 -0.4694 -0.1977
  540MOL0     C74431   4.882   8.766  10.065  0.0198 -1.3573  0.1998
  540MOL0     C74432   5.002   8.845  10.059  0.0296  0.4862 -0.7359
  540MOL0     N74433   5.630   9.017  10.304  0.0984  0.7082 -0.7509
  540MOL0     N74434   5.750   8.978  10.261 -0.0352 -0.0499  0.6440
  540MOL0     C74435   6.556   8.856   9.430  0.1192 -0.2169 -0.6100
  540MOL0     C74436   6.625   8.736   9.418 -0.0690  0.1348  0.6538
  540MOL0     C74437   6.945   8.427   9.318 -0.8714 -0.9170 -0.7600
  540MOL0     C74438   6.957   8.373   9.446  0.3976 -0.4739 -0.0845
  540MOL0     C74439   7.012   8.253   9.477  0.3020  0.3875  0.8295
  540MOL0     C74440   7.058   8.171   9.380  1.7043  0.8874  0.3883
  540MOL0     O74441   7.121   8.051   9.401  0.0590  0.3239 -0.1557
  540MOL0     C74442   7.229   8.059   9.501  0.3587  1.0981 -0.5940
  540MOL0     C74443   7.318   7.930   9.494  0.1391 -0.5820 -0.7759
  540MOL0     C74444   7.411   7.925   9.618 -0.0576  0.4948  0.4859
  540MOL0     C74445   7.481   7.792   9.636  0.1048  0.2696 -0.4316
  540MOL0     C74446   7.385   7.690   9.650  0.5495 -0.5972 -0.6151
  540MOL0     C74447   7.307   7.598   9.654 -0.7660 -0.3211  0.4113
  540MOL0     C74448   7.034   8.209   9.247 -1.1479  0.8477  0.0834
  540MOL0     C74449   6.993   8.338   9.213 -0.3387  0.2327 -0.3346
  540MOL0     C74450   6.982   8.369   9.058  0.1925 -0.7723 -0.2679
  540MOL0     H74451   6.927   8.864   9.327  0.2798 -0.4184  1.6001
  540MOL0     H74452   6.796   9.065   9.318  1.7263 -2.0511 -2.5783
  540MOL0     H74453   6.446   9.034   9.576 -3.5980 -1.4978 -0.0579
  540MOL0     H74454   6.350   9.059   9.429 -1.2723  0.5834  1.3180
  540MOL0     H74455   6.470   9.272   9.600  0.6852  1.6658 -2.2303
  540MOL0     H74456   6.393   9.290   9.438 -2.0110  1.0941  0.7834
  540MOL0     H74457   6.222   9.360   9.613  0.6834  0.9709  0.5415
  540MOL0     H74458   6.175   9.205   9.535  2.3913 -4.1634  0.5465
  540MOL0     H74459   6.260   9.078   9.717 -2.6281 -0.5622  2.2831
  540MOL0     H74460   6.312   9.215   9.803  0.7478 -0.7167 -1.0214
  540MOL0     H74461   6.009   9.171   9.735  0.3899 -1.5436 -0.0434
  540MOL0     H74462   6.089   9.312   9.831 -0.0845  1.3956 -1.2270
  540MOL0     H74463   6.088   9.025   9.914 -0.0410 -0.0035 -0.2360
  540MOL0     H74464   6.149   9.172  10.001  0.3896 -2.1731  1.0347
  540MOL0     H74465   5.857   9.143   9.939  0.2847 -3.6226  1.8960
  540MOL0     H74466   5.938   9.271  10.033  0.5776  0.2783 -0.7929
  540MOL0     H74467   5.940   8.967  10.098  0.9579 -0.6309 -0.0958
  540MOL0     H74468   6.014   9.081  10.196  2.1443 -0.7581 -2.2323
  540MOL0     H74469   5.738   9.289  10.144 -0.2814  0.3371  0.1198
  540MOL0     H74470   5.490   9.314  10.243  1.7624  1.1936  2.0363
  540MOL0     H74471   5.480   9.263  10.400 -1.0646  0.8007 -0.0621
  540MOL0     H74472   5.374   9.038  10.315  1.9164 -0.0840  0.3190
  540MOL0     H74473   5.274   9.185  10.311  0.6590 -0.1333  0.6575
  540MOL0     H74474   5.295   9.222  10.084 -5.1726 -2.5835 -2.2688
  540MOL0     H74475   5.440   9.107  10.068  1.0284  0.0412  1.3805
  540MOL0     H74476   5.243   8.994   9.978 -2.6637  2.5474 -0.8798
  540MOL0     H74477   5.282   8.930  10.147  0.3749  3.1651  3.3993
  540MOL0     H74478   4.870   9.128  10.199  1.4063 -0.4899  1.6380
  540MOL0     H74479   4.559   9.026  10.142  1.4175  2.7499 -1.9116
  540MOL0     H74480   4.645   9.110  10.267  1.1328 -0.2627 -2.1322
  540MOL0     H74481   4.588   8.947  10.292 -1.1557  2.5627  0.6167
  540MOL0     H74482   4.278   8.800  10.146  0.2646  0.9473  1.5812
  540MOL0     H74483   4.093   8.632  10.196 -0.5437 -1.8720  0.5491
  540MOL0     H74484   3.990   8.493  10.308 -1.6677  1.2726  1.4712
  540MOL0     H74485   3.942   8.316  10.313 -2.8282  1.2068  1.4394
  540MOL0     H74486   4.062   8.485  10.531  0.0134  0.8887 -2.1090
  540MOL0     H74487   3.907   8.418  10.520 -1.1763 -0.0576 -2.6543
  540MOL0     H74488   4.094   8.270  10.653  0.7981  2.6221 -0.6076
  540MOL0     H74489   4.142   8.212  10.491 -0.9894  0.0973 -0.8009
  540MOL0     H74490   3.900   8.142  10.460  2.4778 -1.6679 -0.6128
  540MOL0     H74491   3.868   8.205  10.615  0.6146  1.1527  0.2797
  540MOL0     H74492   4.047   8.017  10.688 -1.5823  2.2310  0.5041
  540MOL0     H74493   3.895   7.951  10.618  1.0699 -2.2517  3.0099
  540MOL0     H74494   4.167   7.970  10.479  1.5544 -0.2412  1.8302
  540MOL0     H74495   4.000   7.947  10.401 -0.5153  0.6276  0.7826
  540MOL0     H74496   3.965   7.763  10.555 -0.4197  0.9505  2.8972
  540MOL0     H74497   4.140   7.755  10.591  0.2611 -0.3868 -1.5170
  540MOL0     H74498   4.061   7.599  10.425  1.7609 -1.4076 -2.5152
  540MOL0     H74499   4.178   7.719  10.367 -0.4641  1.0873  1.2922
  540MOL0     H74500   4.382   8.344  10.298  1.4582 -0.6325 -1.2303
  540MOL0     H74501   4.558   8.505  10.246 -0.1301  0.6791  0.2811
  540MOL0     H74502   4.907   8.671  10.019  3.5506  0.3197 -1.6813
  540MOL0     H74503   5.087   8.798  10.009 -1.3949 -0.8705 -1.9981
  540MOL0     H74504   6.452   8.840   9.458  1.1625 -3.0997  2.2152
  540MOL0     H74505   6.579   8.641   9.443 -0.1895 -0.9878 -3.2587
  540MOL0     H74506   6.906   8.424   9.526  1.9065  1.1438 -0.0947
  540MOL0     H74507   7.024   8.208   9.575  2.5033 -2.3920 -0.5295
  540MOL0     H74508   7.291   8.144   9.474  0.5784  0.7322 -1.2656
  540MOL0     H74509   7.190   8.070   9.603 -1.1909  0.4335 -1.0827
  540MOL0     H74510   7.381   7.945   9.406  0.8919  0.0932 -0.1495
  540MOL0     H74511   7.268   7.834   9.480  0.7395 -0.5564 -3.7061
  540MOL0     H74512   7.488   8.000   9.602  0.3994 -0.2663 -1.1424
  540MOL0     H74513   7.375   7.967   9.712 -1.0664  0.1855  0.2547
  540MOL0     H74514   7.528   7.805   9.734 -4.7771  2.1835  1.9851
  540MOL0     H74515   7.543   7.779   9.547  2.1746 -1.7346  1.1789
  540MOL0     H74516   7.236   7.519   9.659 -2.4792  1.1480  0.4691
  540MOL0     H74517   7.076   8.138   9.177  2.1333 -0.7766  3.3480
  540MOL0     H74518   7.024   8.294   8.990  0.1170 -0.7217 -0.3696
  540MOL0     H74519   6.875   8.382   9.041  0.4847  1.3581 -0.7468
  540MOL0     H74520   7.026   8.465   9.030  4.2279 -2.5265 -0.6833
  541MOL0     O74521   9.409   3.338   2.882 -0.1188  0.3038 -0.5123
  541MOL0     C74522   9.335   3.239   2.872  0.4538  0.6567  0.6287
  541MOL0     O74523   9.233   3.225   2.789  1.0134 -0.2402  0.1780
  541MOL0     C74524   9.174   3.334   2.737  0.7121 -1.1805 -1.0900
  541MOL0     C74525   9.122   3.441   2.815  1.0338  0.6035  1.0016
  541MOL0     C74526   9.063   3.554   2.756  0.2589  1.3645  0.0014
  541MOL0     C74527   9.052   3.562   2.616 -1.0875 -1.0528 -0.7333
  541MOL0     O74528   8.992   3.675   2.572 -1.0703 -0.3364 -0.1325
  541MOL0     C74529   8.995   3.694   2.427  0.4000  0.6206 -0.0588
  541MOL0     C74530   8.935   3.828   2.388 -0.0335 -0.0775 -0.2496
  541MOL0     C74531   8.791   3.840   2.429  1.0757  0.2456 -0.4444
  541MOL0     C74532   8.749   3.994   2.436  1.3529  0.0864  0.4328
  541MOL0     C74533   8.604   4.015   2.463  1.1782  0.5826  0.3841
  541MOL0     C74534   8.555   4.154   2.467 -0.6955  0.4780  0.4039
  541MOL0     C74535   8.406   4.180   2.493 -0.3792  0.0028 -0.1409
  541MOL0     C74536   8.317   4.174   2.360  0.0526  0.0707 -0.2926
  541MOL0     N74537   8.269   4.042   2.294 -0.3657  0.1590 -0.0177
  541MOL0     C74538   8.279   3.913   2.360 -0.0753  0.0404  0.3850
  541MOL0     C74539   8.224   3.828   2.267  0.6063 -0.3757  0.1570
  541MOL0     C74540   8.221   3.683   2.278 -0.5002  0.2731  0.3225
  541MOL0     C74541   8.360   3.630   2.254 -1.2374  0.4158  0.4444
  541MOL0     C74542   8.371   3.478   2.234  0.3041 -0.0184 -0.1378
  541MOL0     C74543   8.520   3.426   2.261 -0.2112  0.5878 -0.4865
  541MOL0     O74544   8.541   3.292   2.225 -0.6787 -0.3681 -0.0652
  541MOL0     C74545   8.673   3.240   2.218 -0.3586 -0.6082  0.2846
  541MOL0     C74546   8.684   3.107   2.189 -0.1954  0.1389  0.4558
  541MOL0     C74547   8.808   3.043   2.187 -0.4001 -0.4030  0.5261
  541MOL0     C74548   8.807   2.896   2.175  0.8767 -0.1597 -0.2176
  541MOL0     C74549   8.924   3.115   2.204 -0.0872  0.7230 -0.6739
  541MOL0     C74550   9.058   3.066   2.197  0.4396  0.3779  0.6776
  541MOL0     O74551   9.093   2.962   2.128 -0.4149  0.6195 -0.2350
  541MOL0     C74552   9.216   2.909   2.108 -0.3791  0.6661  0.1361
  541MOL0     C74553   9.227   2.765   2.090 -0.1258 -0.1273 -0.1079
  541MOL0     C74554   9.354   2.704   2.063 -0.3512 -0.1794 -0.5960
  541MOL0     C74555   9.476   2.777   2.073 -0.5705  0.3358 -0.0761
  541MOL0     O74556   9.603   2.714   2.061  0.0725 -0.4000  0.5955
  541MOL0     C74557   9.667   2.673   2.183 -0.0366  0.2518 -0.5572
  541MOL0     C74558   9.605   2.546   2.241 -0.9868 -1.1938  0.7957
  541MOL0     C74559   9.648   2.406   2.180  0.2438 -0.5074  0.3291
  541MOL0     C74560   9.557   2.292   2.224 -0.4831 -0.2264  0.8078
  541MOL0     C74561   9.609   2.160   2.156  0.0630  0.3097  1.1104
  541MOL0     C74562   9.731   2.101   2.230 -0.6845  0.1285  0.0772
  541MOL0     C74563   9.802   2.017   2.123  0.0718 -1.1281 -0.6652
  541MOL0     C74564   9.914   1.943   2.186 -1.1484  0.0227  0.0680
  541MOL0    Cl74565   9.861   1.830   2.324  0.0380  0.2232 -0.1350
  541MOL0     C74566   9.466   2.917   2.099  0.2449  0.1900 -1.1364
  541MOL0     C74567   9.338   2.979   2.110 -0.2375  0.0857 -0.5889
  541MOL0     O74568   9.146   3.131   2.256  0.4963 -0.2171  0.1110
  541MOL0     C74569   8.918   3.260   2.215 -0.0200  1.0603 -0.3120
  541MOL0     C74570   8.792   3.313   2.236 -0.3347 -0.6439 -1.0590
  541MOL0     N74571   8.189   3.903   2.149  0.4061  0.9591 -0.3309
  541MOL0     N74572   8.220   4.027   2.166 -0.0540  0.0622  0.1595
  541MOL0     C74573   9.100   3.458   2.538 -0.4996 -0.2442  0.8334
  541MOL0     C74574   9.159   3.343   2.598  0.5120 -0.9830 -0.5099
  541MOL0     C74575   9.365   3.117   2.958 -0.1890 -0.8661  0.4522
  541MOL0     C74576   9.322   2.996   2.906 -1.1296  0.3828  0.7791
  541MOL0     C74577   9.367   2.872   2.950  0.0135 -0.2147  0.6540
  541MOL0     C74578   9.452   2.867   3.058  0.8711  1.4261  0.2999
  541MOL0     O74579   9.492   2.744   3.104  0.2633  0.1203 -1.2158
  541MOL0     C74580   9.575   2.732   3.226 -0.2713 -0.2773  0.9959
  541MOL0     C74581   9.495   2.741   3.359  0.1469 -0.4268  0.6357
  541MOL0     C74582   9.544   2.639   3.457  1.2867  0.2407  0.2283
  541MOL0     C74583   9.445   2.633   3.585  0.1811 -0.7349  0.5110
  541MOL0     C74584   9.482   2.740   3.677 -0.4636 -0.0311 -1.4072
  541MOL0     C74585   9.504   2.817   3.769  0.3693 -0.5074 -0.7276
  541MOL0     C74586   9.491   2.991   3.125 -0.4876  0.7029 -0.3403
  541MOL0     C74587   9.443   3.115   3.074 -0.0047  0.1132  0.0083
  541MOL0     C74588   9.488   3.238   3.148 -0.0151 -0.4609  0.0745
  541MOL0     H74589   9.144   3.438   2.922  0.5184 -3.4229  1.1430
  541MOL0     H74590   9.043   3.641   2.818 -1.8408  0.0125  1.3744
  541MOL0     H74591   8.929   3.617   2.387  3.2745 -1.6609 -0.7146
  541MOL0     H74592   9.090   3.683   2.374  0.3087  1.8926 -0.5278
  541MOL0     H74593   9.004   3.900   2.432  1.1579 -2.1930  1.5428
  541MOL0     H74594   8.943   3.841   2.279 -0.9642  0.7769 -0.2284
  541MOL0     H74595   8.727   3.789   2.356  2.5403 -2.6530  0.1670
  541MOL0     H74596   8.779   3.787   2.524  2.7081  0.4387 -0.1075
  541MOL0     H74597   8.808   4.047   2.512  0.3821 -0.4958  1.6251
  541MOL0     H74598   8.776   4.038   2.339  2.3447 -2.7362 -0.6599
  541MOL0     H74599   8.591   3.972   2.563 -0.3781 -0.3346 -0.1713
  541MOL0     H74600   8.540   3.968   2.387 -2.0186  0.8391  2.6778
  541MOL0     H74601   8.620   4.200   2.542 -0.5476 -2.6479  2.3768
  541MOL0     H74602   8.581   4.210   2.377  1.8071  1.6360  1.7500
  541MOL0     H74603   8.396   4.275   2.546  2.5066 -1.1702  2.8482
  541MOL0     H74604   8.363   4.101   2.556  0.1894 -1.7325 -1.8286
  541MOL0     H74605   8.229   4.239   2.367 -0.8638 -0.8540 -2.4219
  541MOL0     H74606   8.379   4.213   2.279 -2.7679  0.4152 -2.4439
  541MOL0     H74607   8.313   3.884   2.459  1.2536  3.0286  0.9056
  541MOL0     H74608   8.165   3.643   2.193 -1.3069  0.9889  0.4963
  541MOL0     H74609   8.171   3.658   2.372  1.0090 -2.1296  0.5729
  541MOL0     H74610   8.415   3.677   2.172 -2.4582 -0.2645 -0.7995
  541MOL0     H74611   8.415   3.658   2.344 -0.2359 -1.6171  0.5388
  541MOL0     H74612   8.296   3.406   2.268 -0.4732 -0.6155 -2.8385
  541MOL0     H74613   8.351   3.451   2.130 -0.0923 -1.2721  0.2396
  541MOL0     H74614   8.592   3.501   2.226  0.2665 -0.2589 -1.3650
  541MOL0     H74615   8.521   3.433   2.371  0.4664 -2.6300 -0.1824
  541MOL0     H74616   8.593   3.050   2.171 -1.8337  3.3358 -2.6301
  541MOL0     H74617   8.875   2.848   2.245  0.7955  1.1507  0.7950
  541MOL0     H74618   8.833   2.872   2.071 -1.8197  0.7544 -1.2195
  541MOL0     H74619   8.705   2.865   2.200  0.9671 -0.3398 -0.0770
  541MOL0     H74620   9.133   2.711   2.098 -0.3391  0.2128 -0.2662
  541MOL0     H74621   9.352   2.598   2.041 -3.5887  0.1559 -2.5978
  541MOL0     H74622   9.770   2.654   2.152 -0.9159 -1.1888 -2.8451
  541MOL0     H74623   9.659   2.754   2.256 -0.1709  0.8458 -1.2280
  541MOL0     H74624   9.637   2.550   2.346  2.5715  3.0419 -0.1760
  541MOL0     H74625   9.497   2.563   2.233 -0.8517 -0.7229 -0.1242
  541MOL0     H74626   9.749   2.383   2.213  0.7505  0.7591 -0.2577
  541MOL0     H74627   9.659   2.397   2.072  3.9043 -4.8709  0.8074
  541MOL0     H74628   9.457   2.307   2.183 -0.9047  1.4540  2.3385
  541MOL0     H74629   9.541   2.291   2.332  0.8961  2.0195  1.0870
  541MOL0     H74630   9.524   2.091   2.154 -2.1149  2.7746  2.3394
  541MOL0     H74631   9.623   2.198   2.054 -1.3569 -1.5815  0.1396
  541MOL0     H74632   9.704   2.051   2.323 -2.8498  3.5730  1.5001
  541MOL0     H74633   9.803   2.180   2.251 -1.2535  0.5681  0.4037
  541MOL0     H74634   9.846   2.084   2.049  1.2062 -1.5209 -0.3690
  541MOL0     H74635   9.727   1.958   2.068 -0.1167 -2.6632  1.1290
  541MOL0     H74636   9.983   2.014   2.233 -0.6694 -0.6547  0.3976
  541MOL0     H74637   9.972   1.889   2.112  3.5929  3.0908  1.1013
  541MOL0     H74638   9.560   2.969   2.110 -0.0983  0.3482  1.7277
  541MOL0     H74639   9.334   3.087   2.117  2.6545  0.3036 -1.3010
  541MOL0     H74640   9.006   3.323   2.214  0.4178  0.4638 -0.1146
  541MOL0     H74641   8.791   3.418   2.261  1.2360 -0.3983 -1.9058
  541MOL0     H74642   9.108   3.457   2.430  0.1816 -0.1872  0.8741
  541MOL0     H74643   9.211   3.277   2.529 -0.7539 -0.9595 -1.5239
  541MOL0     H74644   9.262   3.011   2.817  2.1500  4.2321 -1.1348
  541MOL0     H74645   9.343   2.794   2.878  0.3636  1.4686 -1.3766
  541MOL0     H74646   9.630   2.638   3.232  0.2219  0.0311  1.3123
  541MOL0     H74647   9.644   2.815   3.238 -2.8586  1.6745  3.9360
  541MOL0     H74648   9.390   2.726   3.334 -0.3647  2.0440  0.9735
  541MOL0     H74649   9.495   2.844   3.398 -0.8810 -0.1893  0.0536
  541MOL0     H74650   9.535   2.538   3.415 -1.1904  0.2975  0.4782
  541MOL0     H74651   9.644   2.659   3.498  0.5029 -0.8399  2.8762
  541MOL0     H74652   9.461   2.544   3.646  1.7762  0.0777  1.3335
  541MOL0     H74653   9.338   2.638   3.562 -0.8173  1.4209  4.6572
  541MOL0     H74654   9.513   2.889   3.847  1.3528  0.0623 -1.3499
  541MOL0     H74655   9.556   2.991   3.212  0.2692 -0.9728 -0.8559
  541MOL0     H74656   9.548   3.305   3.087 -0.7114 -0.2762 -0.4176
  541MOL0     H74657   9.401   3.297   3.180  0.4092  1.9203 -2.7776
  541MOL0     H74658   9.548   3.216   3.237 -0.6246  3.0252  1.5267
  542MOL0     O74659   5.969   9.582   4.426 -0.1969  0.8491  0.5197
  542MOL0     C74660   5.877   9.650   4.470  0.2920  0.3282  0.6797
  542MOL0     O74661   5.872   9.787   4.463  0.3695 -0.2304 -0.2771
  542MOL0     C74662   5.962   9.848   4.379 -0.0650 -0.4790  0.9771
  542MOL0     C74663   5.983   9.799   4.248  0.4404 -0.9623  0.5967
  542MOL0     C74664   6.068   9.863   4.154  0.2244  0.4554  1.2659
  542MOL0     C74665   6.139   9.973   4.192  0.4776 -0.2389  0.6926
  542MOL0     O74666   6.232  10.045   4.118 -0.3363  0.4789 -0.1560
  542MOL0     C74667   6.252  10.025   3.976 -0.0345  0.6988  0.4654
  542MOL0     C74668   6.394  10.053   3.925  0.1438  0.6347  0.2250
  542MOL0     C74669   6.501   9.972   4.006 -0.3310 -0.2813  0.1132
  542MOL0     C74670   6.525   9.828   3.975  0.2642  0.1037  0.6877
  542MOL0     C74671   6.561   9.808   3.830  0.4504  0.4799 -0.3825
  542MOL0     C74672   6.700   9.862   3.776 -0.5441  0.4863  0.7402
  542MOL0     C74673   6.700   9.847   3.623  0.3377 -0.0150  0.5049
  542MOL0     C74674   6.809   9.935   3.562 -0.0125 -0.5787 -0.7037
  542MOL0     N74675   6.938   9.879   3.592 -0.0546 -0.2245  0.4144
  542MOL0     C74676   7.047   9.958   3.628  1.0799  0.1696 -0.0200
  542MOL0     C74677   7.150   9.862   3.627  0.1234  0.3032  0.5063
  542MOL0     C74678   7.293   9.880   3.636  0.1459 -1.1334  0.1039
  542MOL0     C74679   7.334   9.920   3.771 -0.5263  0.0563 -0.7816
  542MOL0     C74680   7.433  10.049   3.778  0.1002  0.5784 -0.8691
  542MOL0     C74681   7.461  10.087   3.928 -0.0631  0.8296 -0.1103
  542MOL0     O74682   7.551  10.203   3.917 -0.1991 -0.7495  0.3972
  542MOL0     C74683   7.631  10.259   4.016 -0.9712 -0.1519 -0.3346
  542MOL0     C74684   7.761  10.272   3.992 -0.2988  0.0423  1.0086
  542MOL0     C74685   7.845  10.325   4.091  0.1023  0.8842  0.7174
  542MOL0     C74686   7.992  10.347   4.053  0.0833  0.3225 -0.1727
  542MOL0     C74687   7.796  10.372   4.213 -0.5726 -0.2702 -0.5283
  542MOL0     C74688   7.886  10.446   4.301  0.1669 -0.6374  0.4514
  542MOL0     O74689   7.797  10.514   4.390  0.2115 -0.4874  0.2679
  542MOL0     C74690   7.827  10.617   4.472  0.8057 -0.3132 -0.2415
  542MOL0     C74691   7.959  10.685   4.465 -0.5487  0.3870 -0.2542
  542MOL0     C74692   7.975  10.789   4.565  0.3594 -0.4737  0.5097
  542MOL0     C74693   7.878  10.829   4.656  0.6956  0.1998 -0.4994
  542MOL0     O74694   7.908  10.930   4.751  1.2822  0.0498 -0.2527
  542MOL0     C74695   7.802  10.974   4.844 -0.1695 -0.6691  1.1638
  542MOL0     C74696   7.817  11.124   4.879 -0.8042 -0.0292  0.4430
  542MOL0     C74697   7.712  11.184   4.977  0.6742  0.3914  0.2410
  542MOL0     C74698   7.697  11.332   4.976 -0.2987 -0.2858  0.0825
  542MOL0     C74699   7.546  11.368   4.997 -0.6692  0.1289 -0.4557
  542MOL0     C74700   7.531  11.525   4.980  0.1945  0.9267  0.4881
  542MOL0     C74701   7.594  11.604   5.097 -0.0172 -0.0855 -0.1165
  542MOL0     C74702   7.508  11.731   5.120  0.2447  0.1422 -0.1664
  542MOL0    Cl74703   7.589  11.835   5.229 -0.4093 -0.5851 -0.0807
  542MOL0     C74704   7.743  10.761   4.648  0.0871 -0.4264  0.2262
  542MOL0     C74705   7.720  10.658   4.560 -0.6410  0.0646  0.2839
  542MOL0     O74706   8.005  10.446   4.313  0.2370 -0.1582  0.2616
  542MOL0     C74707   7.659  10.349   4.231  0.1535 -0.3202 -1.2155
  542MOL0     C74708   7.578  10.298   4.134 -0.0177 -1.0722  0.6701
  542MOL0     N74709   7.084   9.737   3.622  0.5790 -0.1733  0.5372
  542MOL0     N74710   6.959   9.747   3.598 -0.1159 -0.7958 -0.2383
  542MOL0     C74711   6.114  10.031   4.316  0.2887 -0.3557 -0.0930
  542MOL0     C74712   6.020   9.972   4.399 -0.1952  0.3964 -0.1803
  542MOL0     C74713   5.767   9.587   4.540  1.0135  0.4201 -0.3002
  542MOL0     C74714   5.709   9.666   4.643  0.6091  0.5001  0.5134
  542MOL0     C74715   5.621   9.608   4.732 -0.4602  0.3500 -0.3023
  542MOL0     C74716   5.581   9.476   4.720 -0.5087  0.6680 -0.2548
  542MOL0     O74717   5.503   9.416   4.813 -0.2603 -0.4417  0.1244
  542MOL0     C74718   5.548   9.422   4.947 -0.7827 -0.8238  0.4930
  542MOL0     C74719   5.451   9.332   5.036  0.1023  0.2814 -0.1891
  542MOL0     C74720   5.297   9.359   5.013 -0.6140  0.9328  0.9728
  542MOL0     C74721   5.246   9.483   5.091  0.3494 -0.8139  0.5104
  542MOL0     C74722   5.111   9.463   5.117  0.2405  0.5178 -0.2147
  542MOL0     C74723   4.994   9.456   5.134  0.3951  0.1010 -0.3259
  542MOL0     C74724   5.639   9.404   4.620  0.1962 -0.2068 -0.0360
  542MOL0     C74725   5.723   9.451   4.525 -0.1184 -0.6331  0.2553
  542MOL0     C74726   5.778   9.360   4.422 -0.0915  0.2171 -0.0243
  542MOL0     H74727   5.935   9.706   4.221  2.4714 -1.2186 -2.7458
  542MOL0     H74728   6.060   9.834   4.050 -2.4348  1.9484  0.9765
  542MOL0     H74729   6.185  10.093   3.923 -2.0502 -0.7385  1.0558
  542MOL0     H74730   6.218   9.922   3.962 -2.5026  0.9709  3.4796
  542MOL0     H74731   6.388  10.024   3.819 -4.7474 -0.4070  0.5374
  542MOL0     H74732   6.419  10.160   3.919  0.1338  0.5852 -1.1112
  542MOL0     H74733   6.594  10.026   3.993  1.3003 -1.9782  3.4546
  542MOL0     H74734   6.486   9.978   4.114 -0.8143  1.4064 -0.0322
  542MOL0     H74735   6.605   9.803   4.045  0.9042  2.9302  1.0780
  542MOL0     H74736   6.436   9.768   3.997  1.0944 -1.2475  0.5156
  542MOL0     H74737   6.482   9.859   3.774  0.3043  0.4455 -0.2070
  542MOL0     H74738   6.566   9.703   3.800  1.2739  0.3387  0.2036
  542MOL0     H74739   6.714   9.963   3.813  1.3552  0.7419 -0.5315
  542MOL0     H74740   6.790   9.814   3.817  0.6317  1.3625 -0.7068
  542MOL0     H74741   6.602   9.887   3.596  0.4179  0.4333  0.8629
  542MOL0     H74742   6.711   9.741   3.598  2.5271  0.3986 -0.4565
  542MOL0     H74743   6.792   9.947   3.455  0.6667 -4.0813 -1.3020
  542MOL0     H74744   6.813  10.037   3.601  2.4797 -0.3621 -1.3268
  542MOL0     H74745   7.058  10.065   3.641  1.1311  0.1147  0.3764
  542MOL0     H74746   7.313   9.958   3.563 -0.8928 -0.7439  0.2301
  542MOL0     H74747   7.336   9.783   3.609 -1.1121 -1.8898  0.7250
  542MOL0     H74748   7.244   9.922   3.834 -0.9594 -2.2916 -1.2490
  542MOL0     H74749   7.395   9.840   3.812  0.3401  1.7620  1.4564
  542MOL0     H74750   7.534  10.032   3.738  1.3089  1.4670  1.5757
  542MOL0     H74751   7.380  10.124   3.719 -0.1843  2.3166  1.4355
  542MOL0     H74752   7.366  10.119   3.973  1.3947  4.4786  0.6606
  542MOL0     H74753   7.498  10.001   3.984 -2.8921 -2.3719 -2.6714
  542MOL0     H74754   7.796  10.236   3.895  4.2433 -0.4171  2.5542
  542MOL0     H74755   8.063  10.312   4.128 -1.3117 -1.3190  0.4605
  542MOL0     H74756   7.997  10.450   4.017 -3.0975  0.7104  0.2411
  542MOL0     H74757   8.016  10.280   3.970  1.6782  0.3843  0.1997
  542MOL0     H74758   8.028  10.667   4.383 -0.4113 -1.3587  0.1997
  542MOL0     H74759   8.079  10.820   4.562  0.8071 -1.8298 -2.9220
  542MOL0     H74760   7.706  10.967   4.792  0.9636  2.3852 -1.7639
  542MOL0     H74761   7.808  10.920   4.938 -1.1234  3.8152  4.0874
  542MOL0     H74762   7.920  11.144   4.912  1.0990 -0.7859 -4.2419
  542MOL0     H74763   7.800  11.179   4.786 -4.0500 -1.8360 -0.1706
  542MOL0     H74764   7.732  11.139   5.075 -2.6321 -1.5986  0.1437
  542MOL0     H74765   7.616  11.136   4.956  2.5452 -4.1474  0.8578
  542MOL0     H74766   7.750  11.375   4.891  3.2848  1.3964  2.8945
  542MOL0     H74767   7.747  11.373   5.064 -1.5993  2.3155 -0.3110
  542MOL0     H74768   7.488  11.325   4.914  0.8691  1.3445 -2.2365
  542MOL0     H74769   7.510  11.325   5.091 -0.1708  0.6010 -0.0419
  542MOL0     H74770   7.423  11.541   4.979  0.1403  0.7597 -1.9258
  542MOL0     H74771   7.557  11.552   4.877 -2.9461 -0.7405 -0.8791
  542MOL0     H74772   7.696  11.633   5.072  0.2899 -0.9918  0.0584
  542MOL0     H74773   7.601  11.544   5.188  0.6031 -0.5032 -0.4371
  542MOL0     H74774   7.407  11.697   5.147 -0.6809  1.5190 -1.7011
  542MOL0     H74775   7.500  11.792   5.029  0.7000  1.2871  0.5403
  542MOL0     H74776   7.664  10.783   4.719 -0.1478  1.0716 -0.4650
  542MOL0     H74777   7.634  10.593   4.549  0.1545 -0.7206 -1.6475
  542MOL0     H74778   7.609  10.396   4.314 -0.9369 -3.2054 -0.1135
  542MOL0     H74779   7.469  10.302   4.139 -0.2731  0.3326 -3.2142
  542MOL0     H74780   6.181  10.109   4.350  2.9221 -3.1025  1.5452
  542MOL0     H74781   6.007  10.012   4.499  1.7850  2.1973 -0.5667
  542MOL0     H74782   5.748   9.767   4.649 -0.7174  1.3352 -2.8092
  542MOL0     H74783   5.595   9.674   4.814 -1.5363 -1.3085  0.7587
  542MOL0     H74784   5.648   9.381   4.963 -0.8351 -0.4374  1.9691
  542MOL0     H74785   5.549   9.526   4.981  1.3885 -0.5392 -0.3208
  542MOL0     H74786   5.459   9.342   5.145 -1.0237  2.6446 -0.2530
  542MOL0     H74787   5.467   9.227   5.011 -0.8520  0.7511 -3.1661
  542MOL0     H74788   5.281   9.378   4.906 -1.4842  3.7265  1.4989
  542MOL0     H74789   5.243   9.272   5.049  0.4239 -1.2552 -2.3321
  542MOL0     H74790   5.242   9.564   5.018 -0.9536  0.4752  1.9538
  542MOL0     H74791   5.295   9.498   5.188  0.4526 -3.6539  0.9889
  542MOL0     H74792   4.893   9.465   5.169  0.8937  0.7684  1.0242
  542MOL0     H74793   5.628   9.299   4.643  1.4002  0.3721  3.9995
  542MOL0     H74794   5.849   9.292   4.471 -0.8863 -0.7686 -0.2225
  542MOL0     H74795   5.707   9.287   4.383 -2.3540  0.6457  2.9503
  542MOL0     H74796   5.830   9.408   4.339  1.6212 -0.5529  0.5462
  543MOL0     O74797   5.827  10.387   6.095  0.6044  0.5003 -0.2450
  543MOL0     C74798   5.938  10.403   6.138 -0.0235 -0.6624 -0.0514
  543MOL0     O74799   6.024  10.302   6.149  0.0218 -0.9283 -0.1790
  543MOL0     C74800   5.994  10.180   6.094  0.1562  0.4231 -0.6204
  543MOL0     C74801   6.011  10.060   6.171 -0.5092  0.0378 -0.7372
  543MOL0     C74802   5.994   9.935   6.115 -0.1449  0.1118  0.2313
  543MOL0     C74803   5.951   9.923   5.984 -0.1109  1.4854 -1.1170
  543MOL0     O74804   5.938   9.791   5.939 -0.4532 -0.0642  0.7489
  543MOL0     C74805   5.958   9.780   5.797 -0.0542 -0.3709  0.4433
  543MOL0     C74806   6.002   9.640   5.772 -0.2726 -0.9477  0.2534
  543MOL0     C74807   5.877   9.544   5.804 -0.3601 -0.0642 -0.5741
  543MOL0     C74808   5.940   9.405   5.812  0.0965  0.3117 -0.6601
  543MOL0     C74809   5.845   9.290   5.825 -0.7821  0.6871 -0.1319
  543MOL0     C74810   5.897   9.150   5.780 -0.4183  0.1061  0.5403
  543MOL0     C74811   6.033   9.109   5.846 -0.2410  1.5145 -0.6830
  543MOL0     C74812   6.078   8.965   5.833  0.3022 -0.1078  0.0762
  543MOL0     N74813   6.153   8.934   5.708  0.9720 -0.3214 -0.0194
  543MOL0     C74814   6.286   8.898   5.710 -0.6925  0.4944  0.3726
  543MOL0     C74815   6.299   8.846   5.586 -0.0078  0.1736  1.3000
  543MOL0     C74816   6.419   8.787   5.515 -0.3935 -1.1291 -0.7277
  543MOL0     C74817   6.442   8.860   5.382  0.1755 -0.0540  0.9267
  543MOL0     C74818   6.577   8.808   5.329  0.1955 -0.3808  0.6766
  543MOL0     C74819   6.668   8.895   5.225 -0.0118  0.1847 -1.2492
  543MOL0     O74820   6.804   8.844   5.216 -0.2128 -0.3276 -1.0515
  543MOL0     C74821   6.825   8.730   5.139  0.0395  0.6167 -1.5223
  543MOL0     C74822   6.737   8.674   5.047  0.0446 -0.2054 -0.0809
  543MOL0     C74823   6.774   8.558   4.981  0.3083  0.0435 -0.3695
  543MOL0     C74824   6.674   8.494   4.886 -0.2204  0.3347 -1.2779
  543MOL0     C74825   6.900   8.498   5.008 -0.4197  0.7375 -0.4836
  543MOL0     C74826   6.929   8.370   4.947 -0.1757 -0.0509 -0.5922
  543MOL0     O74827   6.923   8.368   4.802  0.1653  0.1914 -0.1706
  543MOL0     C74828   6.957   8.258   4.747 -0.3849  0.0388 -0.0313
  543MOL0     C74829   7.080   8.251   4.689  0.4035 -0.0055 -0.0308
  543MOL0     C74830   7.120   8.120   4.632  0.7993  0.5058  0.6877
  543MOL0     C74831   7.042   8.003   4.668  0.7998 -0.3263 -0.8226
  543MOL0     O74832   7.075   7.882   4.621 -1.1828  0.0156 -0.2434
  543MOL0     C74833   7.216   7.842   4.623  0.8926 -0.5270  0.6099
  543MOL0     C74834   7.243   7.774   4.482 -1.0488  1.1269  0.5840
  543MOL0     C74835   7.144   7.659   4.441  0.2935 -0.2814  0.3611
  543MOL0     C74836   7.153   7.537   4.533 -0.5814 -0.1072 -0.2019
  543MOL0     C74837   7.034   7.445   4.519  0.3212 -0.9735  0.2004
  543MOL0     C74838   6.984   7.381   4.393  0.0863 -0.4937  0.1538
  543MOL0     C74839   7.092   7.279   4.338  0.0795  0.4361 -0.7614
  543MOL0     C74840   7.059   7.225   4.201 -0.4505 -0.1370 -0.2463
  543MOL0    Cl74841   6.935   7.096   4.214 -0.1391 -0.0910 -0.4702
  543MOL0     C74842   6.918   8.017   4.744  0.1797  0.8761 -0.2740
  543MOL0     C74843   6.869   8.146   4.765  0.3312  0.5191 -1.0407
  543MOL0     O74844   6.979   8.284   5.016 -0.3753  0.2670  0.0616
  543MOL0     C74845   6.996   8.567   5.088  0.3751  0.2344  0.5663
  543MOL0     C74846   6.951   8.677   5.154  0.2562 -0.1379  0.8019
  543MOL0     N74847   6.177   8.858   5.511  0.7358 -0.3800 -0.4644
  543MOL0     N74848   6.091   8.907   5.589  0.4224  0.0657  0.6820
  543MOL0     C74849   5.936  10.036   5.915  0.5424 -0.5129  0.3180
  543MOL0     C74850   5.964  10.165   5.956  0.3293 -0.7111 -0.3906
  543MOL0     C74851   5.981  10.532   6.196 -0.0685 -0.2868  0.0069
  543MOL0     C74852   6.068  10.520   6.310  0.6788  0.7371 -0.1126
  543MOL0     C74853   6.118  10.627   6.383 -0.3220 -0.3018  0.1289
  543MOL0     C74854   6.080  10.758   6.347 -0.3321 -0.2014  0.1359
  543MOL0     O74855   6.152  10.850   6.433  0.4123  0.0588 -0.2645
  543MOL0     C74856   6.134  10.991   6.426  0.1463  0.7979  0.6170
  543MOL0     C74857   6.260  11.062   6.441  0.4084  0.4271 -0.0520
  543MOL0     C74858   6.380  10.999   6.367  0.2036 -0.2079  0.0794
  543MOL0     C74859   6.451  11.118   6.302 -0.6993  0.7279 -0.3239
  543MOL0     C74860   6.379  11.179   6.192 -0.9853 -0.8734  0.4707
  543MOL0     C74861   6.324  11.218   6.092 -0.2028  0.1865  0.1062
  543MOL0     C74862   5.997  10.782   6.233  0.2617  1.0758  0.0254
  543MOL0     C74863   5.944  10.670   6.166 -0.5192  0.7841  0.7845
  543MOL0     C74864   5.847  10.698   6.052 -0.3916  0.0304 -1.0503
  543MOL0     H74865   6.019  10.064   6.279 -1.2887 -0.8823 -0.6397
  543MOL0     H74866   6.011   9.849   6.179  2.6914 -3.1774 -4.3058
  543MOL0     H74867   6.033   9.845   5.751 -0.9165  0.3280 -0.0326
  543MOL0     H74868   5.857   9.804   5.761 -1.5187  0.3144  4.4872
  543MOL0     H74869   6.033   9.632   5.668  3.9376 -2.3764  1.4134
  543MOL0     H74870   6.092   9.612   5.828  0.5665 -0.2203 -0.7065
  543MOL0     H74871   5.824   9.556   5.899 -0.4191 -4.4077  0.1564
  543MOL0     H74872   5.807   9.546   5.720  1.0247 -0.7679 -1.7906
  543MOL0     H74873   5.997   9.387   5.721 -0.8278 -0.6063 -1.0761
  543MOL0     H74874   6.017   9.397   5.890 -0.6065 -0.0413  0.0201
  543MOL0     H74875   5.747   9.318   5.784 -1.4737  2.2596  2.3935
  543MOL0     H74876   5.813   9.279   5.929  3.1157  2.2212  1.4137
  543MOL0     H74877   5.815   9.078   5.790  0.1127 -0.7686 -1.0148
  543MOL0     H74878   5.917   9.164   5.673  0.1851  2.9327  0.9482
  543MOL0     H74879   6.027   9.135   5.952  0.0847 -0.0505 -0.2574
  543MOL0     H74880   6.117   9.170   5.811  0.6551  1.0792  0.6136
  543MOL0     H74881   6.150   8.948   5.914  0.1520 -0.8009  0.0767
  543MOL0     H74882   5.996   8.892   5.839  1.6707 -1.8823 -1.3383
  543MOL0     H74883   6.353   8.879   5.793 -2.0480  0.4328  1.4906
  543MOL0     H74884   6.406   8.680   5.499  2.1830 -1.3800 -1.5894
  543MOL0     H74885   6.506   8.819   5.573 -1.4825  1.6313 -0.4207
  543MOL0     H74886   6.361   8.838   5.311 -0.6904  1.4471  1.3849
  543MOL0     H74887   6.439   8.967   5.405 -2.4686 -0.3854  2.6584
  543MOL0     H74888   6.639   8.798   5.418 -0.5819  2.9733  1.7464
  543MOL0     H74889   6.550   8.718   5.274 -2.9079  0.3871  0.7617
  543MOL0     H74890   6.619   8.910   5.129 -1.5555  2.3393 -0.1947
  543MOL0     H74891   6.671   8.995   5.269 -1.0429  0.4386 -1.7190
  543MOL0     H74892   6.640   8.719   5.028 -0.3960 -1.4090 -0.7998
  543MOL0     H74893   6.647   8.396   4.926 -4.5201  1.7214 -0.2068
  543MOL0     H74894   6.700   8.492   4.780 -0.6615  5.3605 -1.7294
  543MOL0     H74895   6.581   8.552   4.893  0.5998  1.9878 -2.9873
  543MOL0     H74896   7.141   8.341   4.699 -1.1706  1.4168 -2.1320
  543MOL0     H74897   7.206   8.124   4.565  0.4955  3.4972  0.3501
  543MOL0     H74898   7.285   7.923   4.650  1.3505 -1.2604  1.6693
  543MOL0     H74899   7.235   7.774   4.706 -1.2247  0.5434  2.0554
  543MOL0     H74900   7.243   7.849   4.403  0.3712  0.7108  0.1501
  543MOL0     H74901   7.347   7.744   4.499 -1.0569  0.1864 -0.8598
  543MOL0     H74902   7.158   7.644   4.334  0.8823  4.3459 -0.4291
  543MOL0     H74903   7.040   7.692   4.452  0.9431  1.3097  2.3911
  543MOL0     H74904   7.167   7.564   4.638 -1.2243 -2.3370  0.5156
  543MOL0     H74905   7.240   7.477   4.504 -0.9203  0.0977 -1.7622
  543MOL0     H74906   7.063   7.364   4.587 -1.9857 -1.4518  0.7045
  543MOL0     H74907   6.945   7.498   4.554 -1.9908 -0.9064 -4.8751
  543MOL0     H74908   6.981   7.461   4.318  5.8931  0.5149  0.5046
  543MOL0     H74909   6.889   7.327   4.396 -1.2976  1.7796  3.6750
  543MOL0     H74910   7.113   7.210   4.421 -1.9741 -0.7655 -1.1870
  543MOL0     H74911   7.183   7.339   4.326  2.5581 -2.9957 -0.5983
  543MOL0     H74912   7.150   7.195   4.147 -0.9671  1.8206 -2.3369
  543MOL0     H74913   7.014   7.298   4.134  2.1765  1.5092 -0.3728
  543MOL0     H74914   6.881   7.917   4.759  3.3925 -0.7519 -2.0953
  543MOL0     H74915   6.776   8.158   4.819  0.4492 -0.5556 -0.5772
  543MOL0     H74916   7.093   8.521   5.104 -0.3701 -2.3191 -1.5078
  543MOL0     H74917   7.009   8.713   5.238 -1.5313 -1.1495  2.5866
  543MOL0     H74918   5.907  10.034   5.810  1.7159  3.5815 -0.2714
  543MOL0     H74919   5.942  10.249   5.891  1.4060 -0.7289 -0.8085
  543MOL0     H74920   6.100  10.418   6.331  4.6696  1.7698 -0.3637
  543MOL0     H74921   6.198  10.616   6.455 -0.2085 -2.6717 -0.2792
  543MOL0     H74922   6.104  11.002   6.321 -1.8698 -5.7507  0.0484
  543MOL0     H74923   6.055  11.018   6.496 -2.4928 -4.3602  0.1677
  543MOL0     H74924   6.282  11.066   6.548 -1.1000  0.6775  0.2671
  543MOL0     H74925   6.232  11.161   6.402 -1.0311  0.5089  1.1246
  543MOL0     H74926   6.445  10.948   6.438 -0.8590  0.6251  1.7179
  543MOL0     H74927   6.344  10.934   6.286 -1.4232  0.8823 -0.1333
  543MOL0     H74928   6.552  11.091   6.268 -0.3296  4.0110 -2.2454
  543MOL0     H74929   6.476  11.198   6.372 -0.4932  0.1851  0.2375
  543MOL0     H74930   6.286  11.244   5.995 -0.3589 -1.1588 -0.2104
  543MOL0     H74931   5.968  10.881   6.200 -1.6576 -0.3560 -3.0504
  543MOL0     H74932   5.904  10.704   5.959 -0.0088  2.8943 -0.7368
  543MOL0     H74933   5.768  10.622   6.052 -0.6058  0.2073 -2.9494
  543MOL0     H74934   5.801  10.796   6.067  2.2322  1.2286 -0.2833
  544MOL0     O74935   3.809   4.588  10.293 -0.2633 -0.5881 -0.0475
  544MOL0     C74936   3.817   4.535  10.405  0.4276  0.2011  0.8326
  544MOL0     O74937   3.807   4.602  10.518 -0.9644 -0.3011 -0.1103
  544MOL0     C74938   3.811   4.735  10.521 -0.1285 -0.2315 -0.8651
  544MOL0     C74939   3.925   4.812  10.508 -0.2526 -0.4059  0.6923
  544MOL0     C74940   3.929   4.942  10.530 -0.9788  0.1388 -0.3915
  544MOL0     C74941   3.822   5.015  10.566  0.0725 -0.1833  0.0533
  544MOL0     O74942   3.838   5.149  10.594 -0.5353 -0.0490 -0.4814
  544MOL0     C74943   3.725   5.234  10.567  0.2783 -0.4231  0.2196
  544MOL0     C74944   3.763   5.380  10.581 -0.2664  0.2219  0.0143
  544MOL0     C74945   3.715   5.471  10.473 -0.0885 -0.7677  0.3780
  544MOL0     C74946   3.580   5.538  10.497 -0.4600 -0.8691 -0.7786
  544MOL0     C74947   3.527   5.618  10.384  0.7100 -1.0360  0.5073
  544MOL0     C74948   3.379   5.669  10.418  0.2617  0.9810  0.3930
  544MOL0     C74949   3.269   5.615  10.322 -1.0802 -0.7405  0.2997
  544MOL0     C74950   3.212   5.484  10.360  0.0745 -0.0242  0.6312
  544MOL0     N74951   3.093   5.461  10.284  0.2339 -0.1513 -0.6284
  544MOL0     C74952   3.096   5.421  10.151 -0.4650 -0.5645  0.0921
  544MOL0     C74953   2.964   5.397  10.122  0.0314  0.0987  0.6438
  544MOL0     C74954   2.922   5.337   9.993  1.1290  0.0259  0.1386
  544MOL0     C74955   2.950   5.185   9.996  0.9060  0.2678  0.7240
  544MOL0     C74956   2.858   5.131   9.883 -0.7749  0.3053 -0.2659
  544MOL0     C74957   2.886   4.980   9.866  0.8519 -0.4814 -0.0710
  544MOL0     O74958   2.842   4.940   9.733 -0.7957  0.8995  0.6564
  544MOL0     C74959   2.729   4.862   9.733  0.4963  0.1061  0.9320
  544MOL0     C74960   2.620   4.874   9.816 -0.1131 -0.2466  0.2545
  544MOL0     C74961   2.511   4.791   9.822  0.1387  0.1854 -1.0439
  544MOL0     C74962   2.393   4.845   9.904  0.3971  0.5379 -0.7246
  544MOL0     C74963   2.515   4.679   9.730 -0.0645 -0.0646  0.5495
  544MOL0     C74964   2.396   4.589   9.697 -0.1031  0.1650 -0.3712
  544MOL0     O74965   2.396   4.525   9.580  0.4307  0.0568  0.1638
  544MOL0     C74966   2.298   4.428   9.557  0.3312 -0.4635 -0.6087
  544MOL0     C74967   2.163   4.450   9.544  0.8229 -0.2802  0.2811
  544MOL0     C74968   2.079   4.346   9.537 -0.1861 -0.0547 -0.2232
  544MOL0     C74969   2.121   4.217   9.541 -0.6034 -0.0816 -0.3563
  544MOL0     O74970   2.024   4.124   9.542  0.0327  1.2089  0.3494
  544MOL0     C74971   2.064   3.988   9.583 -0.3349 -0.0313  0.0926
  544MOL0     C74972   1.943   3.903   9.624  1.0130  0.1638  0.7559
  544MOL0     C74973   1.886   3.928   9.758  0.1816  0.0949 -0.2094
  544MOL0     C74974   1.877   3.792   9.853  1.0522  0.4686 -0.2885
  544MOL0     C74975   1.791   3.817   9.969  0.7469  0.3062  0.1541
  544MOL0     C74976   1.805   3.690  10.061  0.3813 -0.8064  1.2635
  544MOL0     C74977   1.685   3.675  10.148  0.4846 -0.3328 -0.1834
  544MOL0     C74978   1.562   3.611  10.086  0.1557 -0.4225 -0.3892
  544MOL0    Cl74979   1.586   3.440  10.110 -0.0914 -0.0217  0.2253
  544MOL0     C74980   2.260   4.191   9.542  0.3984  0.8921  0.6993
  544MOL0     C74981   2.347   4.302   9.558 -0.1691  0.5880 -0.2193
  544MOL0     O74982   2.311   4.567   9.784 -0.1761 -0.2335 -0.5881
  544MOL0     C74983   2.630   4.655   9.648  0.9360 -0.2233  0.3385
  544MOL0     C74984   2.731   4.752   9.643  0.0122  0.0478  0.1697
  544MOL0     N74985   2.891   5.434  10.236 -0.0722  0.0061  0.5356
  544MOL0     N74986   2.966   5.477  10.332 -0.4978 -1.1991 -0.1794
  544MOL0     C74987   3.692   4.941  10.573 -1.3268  0.0992 -0.2506
  544MOL0     C74988   3.701   4.802  10.553  0.3684 -0.0300  0.0703
  544MOL0     C74989   3.841   4.396  10.404 -0.2830  0.1702 -0.0509
  544MOL0     C74990   3.799   4.320  10.298  0.8130 -0.0149 -0.0796
  544MOL0     C74991   3.819   4.182  10.305 -0.6697  0.3048 -0.0601
  544MOL0     C74992   3.891   4.128  10.413  0.1769 -0.1479  0.0440
  544MOL0     O74993   3.922   3.992  10.406 -0.4555  0.2059  1.2126
  544MOL0     C74994   3.809   3.910  10.452 -0.1189  0.4127  0.3297
  544MOL0     C74995   3.865   3.779  10.489 -0.5706  0.5603 -0.5884
  544MOL0     C74996   3.918   3.667  10.396  0.5595  0.0714 -0.5145
  544MOL0     C74997   3.817   3.572  10.349  0.6431 -0.0597 -0.0047
  544MOL0     C74998   3.875   3.461  10.259 -0.3924 -0.1426 -0.3103
  544MOL0     C74999   3.933   3.363  10.212  0.3718  0.6011 -0.3937
  544MOL0     C75000   3.930   4.199  10.513 -0.2888 -0.0502 -0.4921
  544MOL0     C75001   3.924   4.332  10.501 -0.2988 -1.1490 -0.1150
  544MOL0     C75002   4.016   4.414  10.594  0.0229 -0.5542 -1.2242
  544MOL0     H75003   4.015   4.763  10.474 -1.5066 -2.8305  0.6163
  544MOL0     H75004   4.016   5.006  10.516 -0.9970  0.2818  0.1149
  544MOL0     H75005   3.645   5.204  10.636  1.4924 -1.3369  1.2902
  544MOL0     H75006   3.689   5.210  10.466 -1.2827 -0.7250  0.8237
  544MOL0     H75007   3.718   5.413  10.675  0.6963 -0.1138  0.5959
  544MOL0     H75008   3.872   5.384  10.578 -0.3026  1.3072 -2.2870
  544MOL0     H75009   3.779   5.559  10.465  0.3536 -1.1652 -0.5823
  544MOL0     H75010   3.711   5.412  10.380  1.8581  1.5234 -1.2909
  544MOL0     H75011   3.504   5.463  10.524 -0.5219 -0.8107 -0.7922
  544MOL0     H75012   3.596   5.611  10.577  0.1388 -1.8269  0.0001
  544MOL0     H75013   3.515   5.557  10.294 -1.3898 -0.2456  0.1843
  544MOL0     H75014   3.591   5.704  10.362 -0.4393 -0.3091 -0.0803
  544MOL0     H75015   3.352   5.656  10.523 -1.5490  2.4366  0.1620
  544MOL0     H75016   3.387   5.776  10.394 -1.7820  0.9419 -0.6246
  544MOL0     H75017   3.316   5.606  10.223 -0.0805  1.0230  0.5611
  544MOL0     H75018   3.187   5.684  10.301 -2.6702 -2.2723  1.2374
  544MOL0     H75019   3.291   5.409  10.344 -1.0333 -0.8225 -1.5608
  544MOL0     H75020   3.180   5.476  10.464 -0.8300 -0.7989  0.3150
  544MOL0     H75021   3.186   5.392  10.098  0.6094  0.4224  1.3017
  544MOL0     H75022   2.971   5.381   9.906  2.0776  2.9518  2.0121
  544MOL0     H75023   2.814   5.350   9.984  0.5239 -4.4666 -2.3165
  544MOL0     H75024   3.058   5.174   9.980  0.3441 -1.0954 -3.1071
  544MOL0     H75025   2.912   5.143  10.090 -3.8332 -1.7573 -1.7813
  544MOL0     H75026   2.754   5.136   9.918 -0.5194 -0.6672  0.6784
  544MOL0     H75027   2.872   5.177   9.785 -1.6316  1.1508 -0.0121
  544MOL0     H75028   2.990   4.948   9.875  0.0161 -3.7549 -1.0376
  544MOL0     H75029   2.831   4.927   9.944  1.5478  2.4194  2.6298
  544MOL0     H75030   2.611   4.959   9.883  0.9866 -0.4496  0.6817
  544MOL0     H75031   2.399   4.798  10.003 -1.1347  1.2213 -0.2748
  544MOL0     H75032   2.295   4.813   9.868  0.3625  1.8152 -1.8548
  544MOL0     H75033   2.392   4.953   9.921 -1.6214  0.4727 -0.2668
  544MOL0     H75034   2.131   4.554   9.549  2.4790  0.3095 -0.4302
  544MOL0     H75035   1.971   4.356   9.533 -0.4263 -2.2786 -0.9558
  544MOL0     H75036   2.112   3.937   9.499  0.3889  1.9526 -0.7500
  544MOL0     H75037   2.125   3.998   9.674  1.1659  1.0839 -0.9841
  544MOL0     H75038   1.872   3.933   9.547  3.8851 -3.6915 -3.9844
  544MOL0     H75039   1.953   3.797   9.602 -3.0058 -0.1045 -0.6103
  544MOL0     H75040   1.782   3.962   9.753  0.3452  1.2547  2.5057
  544MOL0     H75041   1.942   4.001   9.817 -4.2165  2.0817  1.9840
  544MOL0     H75042   1.977   3.770   9.890  0.5314  0.7013  1.3382
  544MOL0     H75043   1.820   3.719   9.794 -0.0416  0.0999  1.1675
  544MOL0     H75044   1.814   3.916  10.011 -3.5940  1.5713  0.0133
  544MOL0     H75045   1.687   3.834   9.940  0.7107  3.3065  1.6041
  544MOL0     H75046   1.886   3.712  10.131 -2.0647  3.7572  3.1334
  544MOL0     H75047   1.811   3.608   9.989 -0.1972  0.9406 -0.8884
  544MOL0     H75048   1.646   3.768  10.187  0.5701 -1.8887  4.1165
  544MOL0     H75049   1.716   3.613  10.233  2.4941 -0.1027 -0.7003
  544MOL0     H75050   1.557   3.653   9.985  3.2905 -1.0513 -0.9212
  544MOL0     H75051   1.467   3.629  10.137  0.6334  2.7751 -0.4097
  544MOL0     H75052   2.295   4.088   9.540  2.2212  1.3055  4.0864
  544MOL0     H75053   2.454   4.292   9.574 -0.6249 -3.6198  1.3974
  544MOL0     H75054   2.628   4.582   9.568  0.5699 -1.3809  1.3578
  544MOL0     H75055   2.802   4.749   9.561 -1.9951  2.6109 -1.8644
  544MOL0     H75056   3.596   4.984  10.601 -0.0456  2.4472  0.8817
  544MOL0     H75057   3.610   4.747  10.576  0.5390  0.9920  3.8462
  544MOL0     H75058   3.747   4.344  10.206  0.5022 -0.4448 -0.0160
  544MOL0     H75059   3.787   4.110  10.230 -1.5445  1.8603 -1.2362
  544MOL0     H75060   3.764   3.956  10.540 -0.6835 -0.9826  0.8055
  544MOL0     H75061   3.729   3.896  10.379  1.3650  1.2203 -1.5531
  544MOL0     H75062   3.776   3.727  10.526  0.3342 -0.6233 -0.0275
  544MOL0     H75063   3.934   3.796  10.572  1.9105 -0.7608 -2.2340
  544MOL0     H75064   3.962   3.707  10.304 -1.4576 -0.8066 -1.9372
  544MOL0     H75065   3.996   3.606  10.444  2.2159 -0.5758 -3.7543
  544MOL0     H75066   3.735   3.627  10.303  0.8467  0.3611  0.1375
  544MOL0     H75067   3.770   3.519  10.433  0.6786  0.3967  0.3064
  544MOL0     H75068   4.001   3.285  10.186  0.4223  0.6210 -0.3235
  544MOL0     H75069   3.988   4.157  10.594  1.2959 -0.5721 -1.8515
  544MOL0     H75070   3.953   4.467  10.666  2.0331  0.8713 -0.4231
  544MOL0     H75071   4.065   4.338  10.655 -0.6631 -0.6200 -0.7374
  544MOL0     H75072   4.085   4.482  10.545 -1.7150  1.4624 -1.0376
  545MOL0     O75073   6.447   9.758   1.307 -0.2094 -0.6276  0.0549
  545MOL0     C75074   6.498   9.831   1.224  0.2918  0.2605 -0.1267
  545MOL0     O75075   6.481   9.970   1.215 -0.4711 -0.2150  0.2203
  545MOL0     C75076   6.417  10.051   1.309  0.4022  0.4566  0.1523
  545MOL0     C75077   6.330  10.008   1.410 -0.8725  0.4876  0.1911
  545MOL0     C75078   6.267  10.094   1.495 -0.3141 -1.0163 -0.3491
  545MOL0     C75079   6.283  10.237   1.482 -0.5120 -0.5598  0.5405
  545MOL0     O75080   6.237  10.336   1.567 -0.3166  1.1378  0.7287
  545MOL0     C75081   6.166  10.307   1.692 -0.0717 -0.1261  0.6466
  545MOL0     C75082   6.011  10.307   1.661 -0.0917  1.2214 -0.5748
  545MOL0     C75083   5.929  10.256   1.783 -0.2557  0.6969 -0.9313
  545MOL0     C75084   5.860  10.361   1.858  1.1736 -0.4985  0.4748
  545MOL0     C75085   5.946  10.422   1.971  0.2083  0.3147  0.2927
  545MOL0     C75086   5.877  10.531   2.051  0.6824  0.1108 -0.2155
  545MOL0     C75087   5.763  10.468   2.142 -0.4502 -0.5812  0.7654
  545MOL0     C75088   5.687  10.577   2.218  0.4464  0.7053  0.8555
  545MOL0     N75089   5.591  10.540   2.323 -0.1135 -0.2957  0.1250
  545MOL0     C75090   5.641  10.523   2.447  0.0132  0.8752 -0.7932
  545MOL0     C75091   5.542  10.476   2.523  0.9992 -0.6616  0.0572
  545MOL0     C75092   5.550  10.417   2.659 -0.3304 -1.0974  0.7863
  545MOL0     C75093   5.533  10.528   2.778  0.6825  1.3546  0.2321
  545MOL0     C75094   5.422  10.634   2.747 -0.4702 -0.2522  0.1137
  545MOL0     C75095   5.276  10.580   2.734  0.6481 -0.1088  0.4656
  545MOL0     O75096   5.193  10.686   2.745 -0.2922  0.1542 -0.1737
  545MOL0     C75097   5.059  10.660   2.784  0.0041 -0.2775  0.2137
  545MOL0     C75098   4.996  10.771   2.835  0.5618  0.4606  0.5157
  545MOL0     C75099   4.863  10.764   2.881  0.1000 -0.7673  0.1850
  545MOL0     C75100   4.800  10.890   2.936  0.1313 -0.2122  0.8445
  545MOL0     C75101   4.796  10.641   2.896  0.1007  0.5266  0.2908
  545MOL0     C75102   4.657  10.615   2.948  0.8114  0.0116  0.6265
  545MOL0     O75103   4.641  10.489   3.005 -0.3224  0.6945 -0.0280
  545MOL0     C75104   4.513  10.460   3.068 -0.3094 -1.0214 -0.0046
  545MOL0     C75105   4.398  10.452   2.984  0.8334  0.7779 -0.1408
  545MOL0     C75106   4.275  10.424   3.048  0.4690 -0.0871  0.4982
  545MOL0     C75107   4.264  10.424   3.188 -0.6970  0.4291  0.6372
  545MOL0     O75108   4.140  10.438   3.247 -0.0424  0.4902  0.0010
  545MOL0     C75109   4.020  10.401   3.179  0.0620  0.0463  0.2395
  545MOL0     C75110   3.895  10.430   3.266  0.3419 -0.7353  0.9425
  545MOL0     C75111   3.871  10.320   3.365  0.1421  0.9405  0.4030
  545MOL0     C75112   3.962  10.333   3.493  0.6561  0.3072 -0.6702
  545MOL0     C75113   3.892  10.285   3.623  0.0012 -0.1693  1.2769
  545MOL0     C75114   3.763  10.357   3.667 -0.2094 -0.4603  0.5397
  545MOL0     C75115   3.680  10.281   3.772 -0.7330 -0.5047 -0.0786
  545MOL0     C75116   3.636  10.135   3.741 -0.1362 -1.2580  0.3710
  545MOL0    Cl75117   3.550  10.079   3.893  0.4964  0.0633 -0.0576
  545MOL0     C75118   4.374  10.426   3.262 -0.2426  1.1924 -0.1571
  545MOL0     C75119   4.501  10.437   3.202  0.7321  1.1502 -0.8738
  545MOL0     O75120   4.565  10.707   2.947 -0.7841  1.0725 -0.1834
  545MOL0     C75121   4.865  10.530   2.846  0.1709  0.4738  0.6332
  545MOL0     C75122   4.992  10.539   2.782  0.2660  0.5817 -0.0749
  545MOL0     N75123   5.431  10.497   2.445 -0.2412 -0.8159 -0.7056
  545MOL0     N75124   5.456  10.529   2.324 -0.0530  0.6135  0.2385
  545MOL0     C75125   6.358  10.283   1.371  0.5060  0.0672 -0.0714
  545MOL0     C75126   6.422  10.192   1.288  0.1545  0.3308  0.5213
  545MOL0     C75127   6.572   9.764   1.112  0.2226  0.3650 -0.2488
  545MOL0     C75128   6.518   9.649   1.060 -0.1826 -0.3112  0.4824
  545MOL0     C75129   6.582   9.575   0.960  0.5494  0.5343 -1.2221
  545MOL0     C75130   6.706   9.612   0.917 -0.3944 -0.3536 -0.8974
  545MOL0     O75131   6.794   9.524   0.846 -0.1297  0.2298 -0.0831
  545MOL0     C75132   6.741   9.431   0.754  0.3598 -0.2540  0.0440
  545MOL0     C75133   6.712   9.505   0.626  0.0604  0.9308 -0.8787
  545MOL0     C75134   6.849   9.542   0.553 -0.3285  1.3816  0.4747
  545MOL0     C75135   6.908   9.440   0.460 -0.5433  0.3370  0.1685
  545MOL0     C75136   7.034   9.492   0.404 -0.5778 -0.1872 -0.4104
  545MOL0     C75137   7.139   9.529   0.355  0.7770 -0.0363  1.0606
  545MOL0     C75138   6.759   9.738   0.967  0.3037  0.8602 -0.2330
  545MOL0     C75139   6.683   9.821   1.052  0.9419 -0.6275  0.6764
  545MOL0     C75140   6.743   9.937   1.116 -0.4423  0.2297 -0.9195
  545MOL0     H75141   6.310   9.902   1.424 -1.0054  0.4532 -0.2517
  545MOL0     H75142   6.200  10.048   1.567  0.8488  2.8347  3.6644
  545MOL0     H75143   6.189  10.381   1.770 -0.8067  1.9403 -0.9860
  545MOL0     H75144   6.194  10.206   1.721 -1.1159 -0.9408 -0.9912
  545MOL0     H75145   5.985  10.411   1.641 -0.0210  2.9192  5.9119
  545MOL0     H75146   6.010  10.254   1.565  1.6209  0.2494 -0.0999
  545MOL0     H75147   5.843  10.199   1.746  1.3341 -2.1584 -0.5400
  545MOL0     H75148   5.985  10.181   1.840  1.9163  2.8445 -0.0470
  545MOL0     H75149   5.828  10.443   1.794  0.7411 -0.5610  0.6098
  545MOL0     H75150   5.767  10.330   1.906  0.5756  0.0652 -0.2993
  545MOL0     H75151   6.036  10.474   1.937 -0.2525  1.8332  1.3337
  545MOL0     H75152   5.972  10.345   2.045  3.4128  1.8534  0.9363
  545MOL0     H75153   5.958  10.585   2.100  2.0033 -0.4883 -1.6619
  545MOL0     H75154   5.840  10.601   1.976 -3.0251 -2.6190 -1.2479
  545MOL0     H75155   5.816  10.408   2.217 -0.7063 -2.0529 -0.1799
  545MOL0     H75156   5.696  10.401   2.088  1.0726 -0.3294 -1.5976
  545MOL0     H75157   5.757  10.645   2.266  1.7913 -0.0124 -0.0295
  545MOL0     H75158   5.640  10.632   2.136  1.2451 -0.4222 -0.4025
  545MOL0     H75159   5.747  10.522   2.467  0.0547  2.4383 -0.8561
  545MOL0     H75160   5.648  10.369   2.666  0.2817 -0.2450 -1.1668
  545MOL0     H75161   5.465  10.349   2.672  0.1956 -2.8010 -3.2692
  545MOL0     H75162   5.502  10.465   2.862  0.4279 -1.1305 -1.5898
  545MOL0     H75163   5.634  10.566   2.798  0.4838  1.6984  0.5944
  545MOL0     H75164   5.435  10.688   2.841 -1.5406 -0.4108  0.3627
  545MOL0     H75165   5.447  10.690   2.656 -2.0786 -1.6553 -1.2518
  545MOL0     H75166   5.269  10.555   2.628  3.3137 -1.4464  0.5079
  545MOL0     H75167   5.246  10.503   2.805  0.2612 -0.2104  0.1955
  545MOL0     H75168   5.043  10.867   2.854  0.2362  0.4212  1.5665
  545MOL0     H75169   4.793  10.853   3.039 -1.8198 -4.6867 -0.6060
  545MOL0     H75170   4.705  10.919   2.890  0.5195 -0.0216  0.1480
  545MOL0     H75171   4.865  10.977   2.930  0.5742 -0.6334 -1.7511
  545MOL0     H75172   4.407  10.478   2.879 -1.8029 -2.7371 -1.4390
  545MOL0     H75173   4.186  10.441   2.989 -1.0887  0.2414  2.7987
  545MOL0     H75174   4.012  10.456   3.085  1.4032  0.1131  0.1516
  545MOL0     H75175   4.026  10.295   3.155 -1.0658  0.4697 -2.2370
  545MOL0     H75176   3.921  10.529   3.303  0.7273 -0.6527  0.4694
  545MOL0     H75177   3.814  10.439   3.193  1.1613  0.6229  0.1733
  545MOL0     H75178   3.894  10.226   3.313  0.9950  2.5867 -2.4277
  545MOL0     H75179   3.768  10.309   3.398  0.1267 -4.1454 -0.5630
  545MOL0     H75180   3.997  10.436   3.503  4.2627 -0.9692  1.9572
  545MOL0     H75181   4.050  10.272   3.468  1.0907  1.3290 -1.7211
  545MOL0     H75182   3.868  10.178   3.620 -2.3964  0.3476 -0.0178
  545MOL0     H75183   3.954  10.305   3.711  2.8439 -0.7596 -0.4485
  545MOL0     H75184   3.696  10.367   3.581  3.7253  1.3923 -2.6109
  545MOL0     H75185   3.794  10.453   3.709 -0.3563 -0.5632  0.8863
  545MOL0     H75186   3.593  10.343   3.794 -0.4444 -1.1964  3.7661
  545MOL0     H75187   3.734  10.281   3.867  1.6128  0.8208 -1.3325
  545MOL0     H75188   3.718  10.062   3.735  1.0861  0.0772  0.2823
  545MOL0     H75189   3.574  10.145   3.652  0.1894  0.2199  0.2974
  545MOL0     H75190   4.360  10.431   3.370 -1.3524 -1.9305 -0.0572
  545MOL0     H75191   4.597  10.424   3.251 -0.4055 -4.6031  0.6481
  545MOL0     H75192   4.814  10.434   2.848 -3.7324  2.2364 -1.6729
  545MOL0     H75193   5.044  10.446   2.757 -1.5744 -0.4804 -0.1404
  545MOL0     H75194   6.349  10.387   1.344  0.3616  0.0527 -0.0816
  545MOL0     H75195   6.482  10.219   1.201  2.0772 -0.3240  1.5915
  545MOL0     H75196   6.420   9.615   1.094 -2.1682  4.0922 -0.1001
  545MOL0     H75197   6.539   9.478   0.936  1.2575  0.4526 -2.2444
  545MOL0     H75198   6.815   9.352   0.738  0.3712 -0.2713  0.1830
  545MOL0     H75199   6.646   9.386   0.784 -0.4102  0.9089 -0.5795
  545MOL0     H75200   6.659   9.601   0.626  0.5702  1.2398 -2.3320
  545MOL0     H75201   6.656   9.441   0.557  1.2895 -0.7811 -0.3432
  545MOL0     H75202   6.824   9.624   0.486  3.1169 -0.5748 -3.6387
  545MOL0     H75203   6.933   9.578   0.612  2.8866 -2.5530 -1.2506
  545MOL0     H75204   6.839   9.415   0.379 -2.1746  1.3285  1.1936
  545MOL0     H75205   6.919   9.348   0.518 -3.5543 -0.1791  0.0927
  545MOL0     H75206   7.232   9.549   0.305  1.5733 -2.5321  1.3875
  545MOL0     H75207   6.859   9.767   0.935  0.6320 -0.5465 -0.5391
  545MOL0     H75208   6.733   9.940   1.225  5.4613  0.0093 -0.0338
  545MOL0     H75209   6.851   9.941   1.101 -0.2193  1.3604  0.7233
  545MOL0     H75210   6.700  10.028   1.074 -2.4191  0.3003  1.0762
  546MOL0     O75211   4.337   7.287   0.748 -0.4319  0.0168 -0.0862
  546MOL0     C75212   4.303   7.174   0.739  0.2378  0.4072  0.5948
  546MOL0     O75213   4.315   7.104   0.622  0.2850  0.6147 -0.0169
  546MOL0     C75214   4.405   7.172   0.535 -0.4399 -0.1848  0.2766
  546MOL0     C75215   4.544   7.142   0.522  0.3141 -0.1113  0.4412
  546MOL0     C75216   4.626   7.205   0.429 -0.8256  0.2380  0.4350
  546MOL0     C75217   4.567   7.296   0.334 -0.8060  0.5199 -0.4927
  546MOL0     O75218   4.652   7.343   0.232  0.0984 -0.2051 -0.0698
  546MOL0     C75219   4.636   7.479   0.185  0.1922  0.5772  0.2631
  546MOL0     C75220   4.750   7.528   0.097 -0.1765 -0.0189 -0.0056
  546MOL0     C75221   4.698   7.655   0.027  1.0437  0.2714 -0.3205
  546MOL0     C75222   4.812   7.715  -0.060  0.1124 -0.3379 -0.0528
  546MOL0     C75223   4.845   7.870  -0.050 -0.3197  0.5408  0.4377
  546MOL0     C75224   4.935   7.920  -0.160 -0.1328  0.0110  0.1406
  546MOL0     C75225   4.945   8.074  -0.142 -0.5012  0.7222 -1.6253
  546MOL0     C75226   4.866   8.161  -0.234  0.5765  0.1888 -0.4428
  546MOL0     N75227   4.901   8.147  -0.373  0.6555  0.5236 -0.2496
  546MOL0     C75228   5.005   8.217  -0.434  0.9400  0.3618 -0.0311
  546MOL0     C75229   4.999   8.172  -0.563 -0.0999 -0.6354 -0.1651
  546MOL0     C75230   5.078   8.216  -0.681 -0.1622 -0.2604 -0.7146
  546MOL0     C75231   5.115   8.366  -0.682 -0.1267  0.2862  0.4343
  546MOL0     C75232   5.222   8.393  -0.788 -0.7535 -0.3096 -0.3823
  546MOL0     C75233   5.271   8.542  -0.772  0.4864 -0.2624  0.7069
  546MOL0     O75234   5.172   8.638  -0.772 -0.2836  0.0818  0.2243
  546MOL0     C75235   5.220   8.761  -0.796 -0.4105  0.2591  0.2954
  546MOL0     C75236   5.181   8.836  -0.902  0.3424 -0.5627  0.7870
  546MOL0     C75237   5.219   8.968  -0.928 -0.1153 -0.3852  0.1832
  546MOL0     C75238   5.174   9.033  -1.059  0.5729  0.6441 -0.6437
  546MOL0     C75239   5.302   9.040  -0.831  0.4166 -0.3293  0.0467
  546MOL0     C75240   5.357   9.174  -0.843  0.0511  0.1221  0.3943
  546MOL0     O75241   5.482   9.194  -0.799 -0.7664  1.3894  0.1807
  546MOL0     C75242   5.533   9.316  -0.773 -0.0202 -0.2559 -0.0925
  546MOL0     C75243   5.596   9.347  -0.654  0.0570 -0.4033 -1.1242
  546MOL0     C75244   5.633   9.476  -0.622  0.1032 -0.5250 -0.0298
  546MOL0     C75245   5.630   9.578  -0.714  0.4215  0.6739 -0.0737
  546MOL0     O75246   5.651   9.701  -0.662  0.0318 -0.2168  0.2087
  546MOL0     C75247   5.649   9.820  -0.748  0.4071 -0.1453  0.2238
  546MOL0     C75248   5.691   9.947  -0.671 -0.1829  0.2950  0.5969
  546MOL0     C75249   5.751  10.049  -0.772  0.8271 -1.0432 -1.1049
  546MOL0     C75250   5.797  10.178  -0.696  0.1803  0.1326  0.2374
  546MOL0     C75251   5.849  10.275  -0.797 -0.7074 -0.2066  0.5056
  546MOL0     C75252   5.760  10.391  -0.856 -0.1149 -0.7855 -0.1677
  546MOL0     C75253   5.848  10.492  -0.929 -0.4496 -0.1032 -0.8135
  546MOL0     C75254   5.765  10.586  -1.006  0.7521  0.3080  0.5461
  546MOL0    Cl75255   5.716  10.514  -1.175 -0.2977  0.1906 -0.0598
  546MOL0     C75256   5.596   9.541  -0.848  0.4593  0.1939 -0.2614
  546MOL0     C75257   5.535   9.411  -0.876  0.0544 -0.0201 -0.3589
  546MOL0     O75258   5.275   9.264  -0.872 -0.7527  0.3077 -0.6561
  546MOL0     C75259   5.342   8.970  -0.726  0.6040  0.2635  0.2449
  546MOL0     C75260   5.306   8.835  -0.698  0.5078 -0.3552 -0.0719
  546MOL0     N75261   4.900   8.075  -0.567 -0.4744 -0.6359  0.4745
  546MOL0     N75262   4.856   8.051  -0.450 -0.5781  0.6776  0.0561
  546MOL0     C75263   4.428   7.322   0.347 -0.4844 -0.4849 -0.4877
  546MOL0     C75264   4.351   7.269   0.451 -0.9347 -0.1355  1.6237
  546MOL0     C75265   4.226   7.098   0.848 -0.1127  0.7778 -0.7370
  546MOL0     C75266   4.109   7.156   0.908 -0.0184 -0.5150  0.8429
  546MOL0     C75267   4.026   7.078   0.991 -0.3821  0.3419 -1.2433
  546MOL0     C75268   4.052   6.942   1.016 -0.1218 -0.0319  0.1232
  546MOL0     O75269   4.001   6.861   1.116  0.1915  0.8480 -0.0129
  546MOL0     C75270   3.851   6.850   1.107 -0.5007  0.3386  0.7900
  546MOL0     C75271   3.821   6.713   1.048 -0.5246  0.0973 -0.4407
  546MOL0     C75272   3.670   6.682   1.047  0.6837  0.1359 -1.3029
  546MOL0     C75273   3.586   6.786   0.972 -0.4239 -0.6101 -0.5767
  546MOL0     C75274   3.451   6.745   0.971 -0.2007  0.2676  0.4876
  546MOL0     C75275   3.332   6.720   0.977  0.1890  0.5286  0.6500
  546MOL0     C75276   4.163   6.890   0.957 -0.0159 -0.0196 -0.5931
  546MOL0     C75277   4.258   6.962   0.881  0.6074 -1.0918 -0.2573
  546MOL0     C75278   4.391   6.904   0.851 -0.3136 -0.4520 -0.9396
  546MOL0     H75279   4.588   7.077   0.597  0.8641 -1.7893 -1.2529
  546MOL0     H75280   4.734   7.197   0.440 -0.6353 -1.3063 -1.7794
  546MOL0     H75281   4.626   7.550   0.268  0.8483 -1.9707  2.6467
  546MOL0     H75282   4.538   7.471   0.137  1.7091 -0.3333 -2.9703
  546MOL0     H75283   4.833   7.542   0.167 -0.6865 -1.5824  0.9655
  546MOL0     H75284   4.789   7.458   0.022 -0.4529 -1.5127  1.1891
  546MOL0     H75285   4.617   7.630  -0.043  0.6110 -0.5476  0.4631
  546MOL0     H75286   4.667   7.728   0.103 -0.1351 -1.9280  1.4057
  546MOL0     H75287   4.897   7.653  -0.032  0.4392 -0.2079 -0.7290
  546MOL0     H75288   4.799   7.699  -0.168  5.1742  0.7353 -1.0682
  546MOL0     H75289   4.905   7.886   0.039  0.7575 -1.2888  0.1041
  546MOL0     H75290   4.759   7.936  -0.066  1.2700  2.4602 -0.6132
  546MOL0     H75291   5.028   7.863  -0.170 -1.4142 -1.9064 -1.7794
  546MOL0     H75292   4.883   7.897  -0.254 -0.7311 -2.0901  0.9265
  546MOL0     H75293   5.049   8.092  -0.172 -0.8783  1.4206 -2.5739
  546MOL0     H75294   4.922   8.112  -0.042  1.4211 -2.5248  0.2154
  546MOL0     H75295   4.763   8.127  -0.219  1.0084 -1.2229 -0.5757
  546MOL0     H75296   4.875   8.268  -0.215 -3.2731  0.9228 -1.7101
  546MOL0     H75297   5.065   8.296  -0.389  0.7597  0.8577 -0.6449
  546MOL0     H75298   5.025   8.190  -0.774  0.0110  0.2342 -0.9534
  546MOL0     H75299   5.176   8.168  -0.677 -1.0565 -2.1483 -0.2811
  546MOL0     H75300   5.020   8.415  -0.707 -2.0222 -3.6944 -1.1284
  546MOL0     H75301   5.156   8.388  -0.583 -0.9058 -0.5328  0.9581
  546MOL0     H75302   5.290   8.309  -0.806 -2.6460 -1.8700 -0.7047
  546MOL0     H75303   5.159   8.393  -0.878  1.2024  1.2452 -1.8359
  546MOL0     H75304   5.335   8.551  -0.684  1.4465  2.0609 -0.1665
  546MOL0     H75305   5.341   8.560  -0.854  0.2388  2.2971  0.9856
  546MOL0     H75306   5.125   8.794  -0.985 -0.0132  3.4358 -1.2660
  546MOL0     H75307   5.248   9.105  -1.094  0.6154  0.4300 -0.9933
  546MOL0     H75308   5.073   9.076  -1.051 -1.4673 -3.5614 -0.7920
  546MOL0     H75309   5.176   8.956  -1.136  1.1245 -1.6087  1.4763
  546MOL0     H75310   5.596   9.259  -0.590  1.0979  0.9899  0.8926
  546MOL0     H75311   5.645   9.501  -0.517 -2.0837  1.3222 -0.1578
  546MOL0     H75312   5.727   9.805  -0.824 -0.3617 -0.3337 -0.5514
  546MOL0     H75313   5.549   9.834  -0.792  1.7400  0.3015 -2.9631
  546MOL0     H75314   5.602   9.988  -0.624  0.8245  3.2629  0.0969
  546MOL0     H75315   5.759   9.916  -0.591  0.8839  0.8021 -0.0918
  546MOL0     H75316   5.662  10.076  -0.831 -0.7769  1.8151  2.2960
  546MOL0     H75317   5.832  10.012  -0.836 -0.6311  0.7418 -4.2210
  546MOL0     H75318   5.878  10.152  -0.627  1.1162  0.1828 -0.8206
  546MOL0     H75319   5.717  10.224  -0.637 -0.7942  0.8782 -1.5976
  546MOL0     H75320   5.928  10.326  -0.741 -1.3017  0.5257  0.7019
  546MOL0     H75321   5.893  10.216  -0.878 -0.2305 -1.5481  1.6986
  546MOL0     H75322   5.717  10.458  -0.782  3.2186  0.2413  1.0208
  546MOL0     H75323   5.680  10.339  -0.910 -2.2034 -0.3136  2.3331
  546MOL0     H75324   5.913  10.446  -1.005 -0.9589 -0.5705 -0.9664
  546MOL0     H75325   5.912  10.551  -0.862 -1.4510  1.2917 -1.0687
  546MOL0     H75326   5.820  10.680  -1.016  0.0991  0.4950 -1.7160
  546MOL0     H75327   5.671  10.623  -0.963  0.2563 -0.7634  0.4083
  546MOL0     H75328   5.589   9.612  -0.930  0.2379 -1.7010 -1.9664
  546MOL0     H75329   5.496   9.384  -0.973 -2.4424 -0.1548  0.5970
  546MOL0     H75330   5.403   9.021  -0.653  2.6461 -0.1452 -1.0990
  546MOL0     H75331   5.326   8.793  -0.599 -1.0721 -2.0467 -0.4078
  546MOL0     H75332   4.379   7.376   0.267 -0.2494 -3.2547 -2.6486
  546MOL0     H75333   4.246   7.291   0.463 -1.4058 -1.6111  0.5218
  546MOL0     H75334   4.083   7.259   0.886  1.8069 -0.0588  0.7004
  546MOL0     H75335   3.939   7.120   1.040  0.6257 -1.6526  2.6757
  546MOL0     H75336   3.803   6.863   1.205 -0.3582 -2.1778  1.2746
  546MOL0     H75337   3.818   6.929   1.039 -1.1533  2.8400  3.7400
  546MOL0     H75338   3.869   6.631   1.103 -2.1077 -0.5146  0.1027
  546MOL0     H75339   3.852   6.727   0.944 -2.7093  0.5050 -1.0756
  546MOL0     H75340   3.644   6.583   1.008 -4.4466  1.0195 -0.8110
  546MOL0     H75341   3.625   6.668   1.146  0.0480  0.1751 -1.5812
  546MOL0     H75342   3.621   6.802   0.869 -0.9701  1.1920 -0.5100
  546MOL0     H75343   3.592   6.880   1.028 -0.2928 -2.2775  2.4072
  546MOL0     H75344   3.232   6.688   0.997  0.0183 -0.5282 -1.6449
  546MOL0     H75345   4.195   6.800   1.009 -2.7665 -0.2106  1.0117
  546MOL0     H75346   4.382   6.838   0.764  2.4681 -3.3058  0.7632
  546MOL0     H75347   4.466   6.982   0.834 -2.7403  2.6518  1.2167
  546MOL0     H75348   4.424   6.850   0.940  2.9479  3.3932  0.4706
  547MOL0     O75349  10.276  10.469   5.538 -0.1395 -0.3160  0.7196
  547MOL0     C75350  10.294  10.372   5.604  0.4452  0.0992  0.8211
  547MOL0     O75351  10.200  10.282   5.631 -0.3997  0.1278  0.5041
  547MOL0     C75352  10.080  10.273   5.566 -0.6689 -0.2832  0.2599
  547MOL0     C75353   9.976  10.224   5.653  0.8484 -0.6849  0.0257
  547MOL0     C75354   9.854  10.207   5.599 -0.6005  0.4857  0.5668
  547MOL0     C75355   9.837  10.216   5.459 -0.4676  0.5692  0.0706
  547MOL0     O75356   9.714  10.169   5.408  0.2261  0.0753  0.3722
  547MOL0     C75357   9.697  10.032   5.384  0.0823  0.2719  0.8487
  547MOL0     C75358   9.753   9.976   5.255  0.1129 -0.3229  0.2955
  547MOL0     C75359   9.719  10.054   5.126 -0.6651  0.2777 -0.7183
  547MOL0     C75360   9.695   9.976   5.001 -0.2084  0.6866 -1.4589
  547MOL0     C75361   9.663  10.077   4.888 -0.1773  0.0769  0.4285
  547MOL0     C75362   9.682  10.011   4.757 -0.2063  0.1413 -0.6752
  547MOL0     C75363   9.623  10.106   4.641 -0.0176  0.8124  0.3237
  547MOL0     C75364   9.471  10.107   4.628  0.8966 -0.2123 -0.4297
  547MOL0     N75365   9.444  10.209   4.525  0.2271 -0.1327 -1.0803
  547MOL0     C75366   9.457  10.204   4.391  0.0115 -0.6836  0.1574
  547MOL0     C75367   9.426  10.328   4.346 -0.4071 -0.1590 -0.1848
  547MOL0     C75368   9.438  10.383   4.205  0.2923 -0.2578 -0.2182
  547MOL0     C75369   9.563  10.478   4.199  0.3085 -0.0450 -1.2511
  547MOL0     C75370   9.565  10.541   4.060 -0.4547  0.4263 -0.6089
  547MOL0     C75371   9.694  10.608   4.030 -0.5000 -0.4061  0.3793
  547MOL0     O75372   9.716  10.639   3.886  0.7273 -0.7021 -0.7858
  547MOL0     C75373   9.830  10.710   3.860  0.0671  0.5760  0.0502
  547MOL0     C75374   9.941  10.723   3.949  0.8310 -0.0700 -0.6767
  547MOL0     C75375  10.057  10.769   3.904  0.2359 -0.0341 -0.1228
  547MOL0     C75376  10.163  10.778   4.003 -0.0130  0.7718  0.1752
  547MOL0     C75377  10.073  10.808   3.772 -0.4435  0.0667  0.4241
  547MOL0     C75378  10.211  10.860   3.737 -0.2320  0.0285 -0.7167
  547MOL0     O75379  10.285  10.937   3.821 -0.3738  0.2405  0.1969
  547MOL0     C75380  10.414  10.968   3.776 -1.1980 -0.1375  0.1297
  547MOL0     C75381  10.515  10.876   3.800  1.0251  0.4288 -0.1360
  547MOL0     C75382  10.643  10.914   3.754 -0.6001  0.8507 -0.6698
  547MOL0     C75383  10.668  11.032   3.688 -0.4851  0.3249 -0.7540
  547MOL0     O75384  10.795  11.065   3.650 -0.8295  0.1274 -0.5310
  547MOL0     C75385  10.853  11.165   3.737  0.1214  0.0391 -0.4904
  547MOL0     C75386  10.887  11.297   3.655 -0.1022  0.2961  0.2046
  547MOL0     C75387  10.959  11.403   3.740  0.3847 -0.3699 -0.1850
  547MOL0     C75388  10.884  11.456   3.859  0.0604 -0.3579  0.1371
  547MOL0     C75389  10.755  11.524   3.817 -0.4311 -0.3740 -0.5986
  547MOL0     C75390  10.669  11.563   3.948  0.0560  0.5342 -0.1055
  547MOL0     C75391  10.521  11.561   3.904  0.3930 -0.6593  0.3371
  547MOL0     C75392  10.489  11.685   3.814  0.2288  0.4090  0.3600
  547MOL0    Cl75393  10.319  11.693   3.789 -0.2030 -0.1645  0.7409
  547MOL0     C75394  10.567  11.123   3.671  0.7157 -0.2463 -0.1049
  547MOL0     C75395  10.438  11.097   3.715  0.1134  0.1639 -0.5746
  547MOL0     O75396  10.231  10.834   3.619 -0.8719 -0.5827  0.1145
  547MOL0     C75397   9.966  10.800   3.679 -0.5616  0.6729 -0.7148
  547MOL0     C75398   9.842  10.748   3.728 -0.2376 -0.2738  0.8732
  547MOL0     N75399   9.374  10.404   4.449 -0.5805  0.1617 -1.1299
  547MOL0     N75400   9.385  10.328   4.559 -0.5305 -0.3058 -0.1473
  547MOL0     C75401   9.937  10.260   5.369  1.0094  0.1545  0.9298
  547MOL0     C75402  10.059  10.283   5.426 -0.2979 -0.4780 -0.9191
  547MOL0     C75403  10.429  10.352   5.659  0.8586 -0.0030 -0.4574
  547MOL0     C75404  10.535  10.431   5.620 -0.2209  0.5134  0.0984
  547MOL0     C75405  10.661  10.409   5.658 -0.6204  0.8524 -0.3562
  547MOL0     C75406  10.694  10.310   5.744  0.1949  0.6379  0.8843
  547MOL0     O75407  10.827  10.297   5.775  0.4643  0.1717 -0.1986
  547MOL0     C75408  10.858  10.215   5.893  0.1109  0.2185 -0.6265
  547MOL0     C75409  10.826  10.305   6.010 -0.0758  0.2891 -0.4321
  547MOL0     C75410  10.820  10.234   6.147  0.2065  0.9864 -0.1953
  547MOL0     C75411  10.804  10.331   6.266 -0.0043 -0.2076 -0.0420
  547MOL0     C75412  10.915  10.429   6.276 -0.0232  1.2238  0.2986
  547MOL0     C75413  11.003  10.505   6.301 -0.0269 -0.2639 -0.4148
  547MOL0     C75414  10.598  10.231   5.801 -1.0681  0.9474  0.4538
  547MOL0     C75415  10.464  10.242   5.753  0.5537 -0.6482 -0.4622
  547MOL0     C75416  10.366  10.144   5.803 -0.2381  1.4675 -0.2316
  547MOL0     H75417   9.993  10.201   5.758 -1.2131 -0.6185  0.4306
  547MOL0     H75418   9.765  10.165   5.646 -1.3274 -0.5825 -1.6126
  547MOL0     H75419   9.588  10.022   5.383  0.3119 -5.3431  0.2633
  547MOL0     H75420   9.733   9.976   5.471 -1.6838  0.5634  1.8221
  547MOL0     H75421   9.861   9.974   5.267  0.7161  3.8637 -2.4503
  547MOL0     H75422   9.699   9.881   5.253  0.1550 -0.3395 -0.3043
  547MOL0     H75423   9.623  10.104   5.143 -0.1995  2.7084 -4.2154
  547MOL0     H75424   9.799  10.127   5.112  0.9966 -1.4396 -0.4943
  547MOL0     H75425   9.786   9.924   4.972  0.7304  2.0177 -1.0344
  547MOL0     H75426   9.608   9.912   5.017  0.4676 -0.2441 -1.4711
  547MOL0     H75427   9.737  10.159   4.886 -0.0644  0.0025  1.2250
  547MOL0     H75428   9.565  10.123   4.903  0.4036  1.1918  1.0045
  547MOL0     H75429   9.789   9.994   4.740  0.8462  4.7192  0.1464
  547MOL0     H75430   9.642   9.909   4.761  1.9702 -0.7558  0.9839
  547MOL0     H75431   9.656  10.057   4.549 -0.1840  0.0777  0.6463
  547MOL0     H75432   9.670  10.204   4.642  4.3279 -1.0211  2.4615
  547MOL0     H75433   9.445  10.004   4.600  1.0483 -0.9056  1.7487
  547MOL0     H75434   9.422  10.129   4.723 -3.0524  1.5085 -2.6499
  547MOL0     H75435   9.499  10.119   4.338 -2.3559  0.0752 -3.2837
  547MOL0     H75436   9.354  10.444   4.170  1.9963  2.5427  0.2179
  547MOL0     H75437   9.458  10.305   4.132  0.6477 -0.9038  0.5555
  547MOL0     H75438   9.562  10.544   4.287  1.7978 -3.9193  1.9848
  547MOL0     H75439   9.652  10.418   4.218 -0.1649  0.0073  1.7051
  547MOL0     H75440   9.555  10.465   3.982 -0.3413 -0.9928  0.7290
  547MOL0     H75441   9.477  10.605   4.050 -0.7984 -0.2541 -2.3743
  547MOL0     H75442   9.710  10.704   4.079  1.4701  0.1092 -1.1157
  547MOL0     H75443   9.775  10.537   4.051  0.6533  0.8959  0.5078
  547MOL0     H75444   9.940  10.690   4.052  0.9272  1.3481 -0.1997
  547MOL0     H75445  10.174  10.876   4.050  1.5559 -0.3329  2.2755
  547MOL0     H75446  10.254  10.733   3.963 -0.9760 -1.1601  0.0515
  547MOL0     H75447  10.148  10.718   4.093 -1.2569  0.5080 -0.1865
  547MOL0     H75448  10.496  10.771   3.820  1.3544 -0.3824 -3.3896
  547MOL0     H75449  10.724  10.843   3.765 -1.5831 -0.3309 -0.7942
  547MOL0     H75450  10.798  11.176   3.831 -0.1841  0.8167 -0.7459
  547MOL0     H75451  10.940  11.118   3.782 -1.8351 -1.0291  2.4929
  547MOL0     H75452  10.956  11.280   3.572 -2.0598 -1.6841 -1.1258
  547MOL0     H75453  10.805  11.348   3.604 -1.5499  0.2302  2.3389
  547MOL0     H75454  10.974  11.472   3.656 -2.8184 -2.6083 -2.8336
  547MOL0     H75455  11.064  11.379   3.763  0.2362 -0.8508  0.0014
  547MOL0     H75456  10.947  11.532   3.906  0.0076  0.4947 -1.1015
  547MOL0     H75457  10.864  11.375   3.930  2.3264 -1.3936 -0.2987
  547MOL0     H75458  10.773  11.613   3.756 -0.4253 -0.8901 -1.3587
  547MOL0     H75459  10.696  11.455   3.756 -1.1006 -1.1443  0.8672
  547MOL0     H75460  10.700  11.658   3.993 -1.4876 -0.0902  2.4774
  547MOL0     H75461  10.688  11.481   4.019 -0.9392 -3.6901 -4.1840
  547MOL0     H75462  10.471  11.564   4.002  2.0882 -0.6788  1.2433
  547MOL0     H75463  10.498  11.467   3.853 -1.7378 -0.4666  0.8453
  547MOL0     H75464  10.548  11.674   3.722  1.0303 -3.6452  1.1585
  547MOL0     H75465  10.520  11.779   3.861  0.5912 -1.0598  3.2682
  547MOL0     H75466  10.599  11.214   3.622  2.0045 -1.7913 -2.2847
  547MOL0     H75467  10.352  11.162   3.701  0.0427 -0.0628 -1.2170
  547MOL0     H75468   9.979  10.824   3.574 -1.8340  1.1018 -0.7877
  547MOL0     H75469   9.774  10.733   3.645  1.6372 -0.3523 -0.7282
  547MOL0     H75470   9.908  10.281   5.267  0.3239  0.0248  1.0920
  547MOL0     H75471  10.153  10.290   5.371  0.9780  1.1550  1.3170
  547MOL0     H75472  10.524  10.497   5.534 -1.0216  2.6061  1.7242
  547MOL0     H75473  10.740  10.448   5.595  2.0635 -2.4273  0.6345
  547MOL0     H75474  10.806  10.120   5.884 -1.9754  1.4134 -2.3464
  547MOL0     H75475  10.964  10.188   5.898  0.5613  1.9141 -0.4716
  547MOL0     H75476  10.726  10.347   5.997 -1.7533 -3.2409 -0.1988
  547MOL0     H75477  10.909  10.375   6.015 -0.4419  0.8395 -1.7859
  547MOL0     H75478  10.729  10.174   6.149  0.9697 -0.2918  2.8122
  547MOL0     H75479  10.906  10.166   6.160 -1.4582 -1.6268 -1.8972
  547MOL0     H75480  10.811  10.271   6.357  1.2192  1.2765  0.9141
  547MOL0     H75481  10.710  10.385   6.283  1.9749  3.3856  0.6560
  547MOL0     H75482  11.081  10.577   6.317 -1.3953  0.9731  1.0440
  547MOL0     H75483  10.631  10.157   5.873  4.1791  4.0078  1.6933
  547MOL0     H75484  10.277  10.183   5.853 -0.6465  1.1720 -0.7099
  547MOL0     H75485  10.332  10.095   5.711  1.5417 -1.3195  0.4520
  547MOL0     H75486  10.401  10.063   5.868 -3.5493  2.9436  3.7997
  548MOL0     O75487  10.420   9.627   5.323  0.0577  0.0438 -0.7170
  548MOL0     C75488  10.327   9.587   5.402  0.3407  0.8564  0.9235
  548MOL0     O75489  10.204   9.640   5.401  0.6163 -0.1813  0.8223
  548MOL0     C75490  10.183   9.752   5.316 -0.2851 -0.5584 -1.3213
  548MOL0     C75491  10.192   9.882   5.369  1.0700 -0.4756 -0.3662
  548MOL0     C75492  10.174   9.994   5.290 -1.5602  0.8857 -0.3881
  548MOL0     C75493  10.117   9.978   5.164 -0.0324  0.3528  0.4003
  548MOL0     O75494  10.116  10.092   5.076  0.2441  0.8407  0.6159
  548MOL0     C75495  10.105  10.067   4.933  0.2055  0.5473 -0.4652
  548MOL0     C75496  10.133  10.199   4.862  0.0613 -0.6020 -0.7857
  548MOL0     C75497  10.140  10.179   4.707  1.0830 -0.0599 -1.5395
  548MOL0     C75498  10.144  10.319   4.629 -0.1197 -0.2225 -0.1142
  548MOL0     C75499  10.009  10.393   4.636  0.6221  0.0668 -0.8529
  548MOL0     C75500  10.015  10.539   4.570  1.2655  0.0939  0.5226
  548MOL0     C75501  10.097  10.648   4.649  0.3253 -0.1433 -0.8753
  548MOL0     C75502  10.121  10.784   4.586  0.3531  0.0891 -0.2969
  548MOL0     N75503  10.036  10.825   4.472  0.2529  0.8226 -1.1230
  548MOL0     C75504   9.944  10.929   4.492  0.0119  0.2529 -0.0527
  548MOL0     C75505   9.907  10.970   4.369 -0.0556  0.2558  0.6437
  548MOL0     C75506   9.805  11.077   4.356  0.0322  0.2286 -0.0716
  548MOL0     C75507   9.672  11.045   4.419  0.6603 -0.4272 -0.4425
  548MOL0     C75508   9.627  10.907   4.362  0.6528  0.4020 -1.5984
  548MOL0     C75509   9.489  10.867   4.409  0.3343  0.1753  0.2997
  548MOL0     O75510   9.457  10.882   4.543 -0.7575 -0.0037 -0.2408
  548MOL0     C75511   9.523  10.808   4.643 -0.0836 -0.7709  0.3248
  548MOL0     C75512   9.582  10.685   4.639  0.1078 -0.7529 -0.3377
  548MOL0     C75513   9.614  10.614   4.753 -0.2405 -0.7616 -0.0480
  548MOL0     C75514   9.648  10.470   4.746  0.4035 -0.5547  0.1154
  548MOL0     C75515   9.592  10.683   4.874  0.1559 -0.4398  0.3910
  548MOL0     C75516   9.632  10.615   5.000 -0.9045  1.2293  0.9678
  548MOL0     O75517   9.755  10.633   5.049 -0.2010 -0.4894  0.3110
  548MOL0     C75518   9.758  10.638   5.185  0.2668 -0.0155 -1.1345
  548MOL0     C75519   9.776  10.771   5.244  2.3823  0.3502  0.4190
  548MOL0     C75520   9.794  10.782   5.375 -0.6221 -0.4523  0.8458
  548MOL0     C75521   9.781  10.677   5.458 -0.3143  0.1214  0.1412
  548MOL0     O75522   9.785  10.688   5.597 -0.1312 -0.6654 -0.6765
  548MOL0     C75523   9.899  10.636   5.672  0.3595 -0.6159 -0.5634
  548MOL0     C75524  10.009  10.757   5.687 -0.1666  0.3525 -0.3712
  548MOL0     C75525   9.964  10.875   5.766  0.3791  0.0068  0.2299
  548MOL0     C75526   9.951  10.824   5.916  0.1661 -0.4513  0.1135
  548MOL0     C75527  10.069  10.843   6.002 -0.2866 -0.4036 -0.6080
  548MOL0     C75528  10.049  10.794   6.137  0.4832  1.0775  0.0825
  548MOL0     C75529  10.185  10.783   6.196  0.8048 -0.5288 -1.0278
  548MOL0     C75530  10.188  10.711   6.332  0.6528 -0.1387  0.4888
  548MOL0    Cl75531  10.045  10.738   6.443 -0.3061  0.1969  0.3357
  548MOL0     C75532   9.757  10.542   5.410  1.0404 -0.6296 -0.9214
  548MOL0     C75533   9.745  10.532   5.268 -0.4618  1.0150  0.0260
  548MOL0     O75534   9.546  10.541   5.047 -0.2473 -0.0360  0.8811
  548MOL0     C75535   9.531  10.809   4.877  0.2509  0.7023  0.5641
  548MOL0     C75536   9.494  10.880   4.763  0.2881 -0.3365  0.2359
  548MOL0     N75537   9.967  10.885   4.272  0.2292 -0.3151 -0.2608
  548MOL0     N75538  10.045  10.807   4.336  0.5313  0.4026 -0.4737
  548MOL0     C75539  10.094   9.850   5.121  0.5052  0.6591  0.4443
  548MOL0     C75540  10.125   9.737   5.195  0.9307  0.1659  0.6065
  548MOL0     C75541  10.360   9.464   5.492 -0.2329 -0.9505 -0.3792
  548MOL0     C75542  10.488   9.404   5.480  0.0831 -0.5810  0.0211
  548MOL0     C75543  10.527   9.295   5.554  0.0488  0.0890 -0.4175
  548MOL0     C75544  10.434   9.223   5.632 -0.3209  0.8234 -0.0837
  548MOL0     O75545  10.473   9.109   5.699  0.0748  0.7313 -0.2156
  548MOL0     C75546  10.396   9.059   5.804  0.3077  0.4712 -0.5277
  548MOL0     C75547  10.381   9.137   5.937 -0.1225 -0.9645  0.3548
  548MOL0     C75548  10.317   9.072   6.061 -0.3335  0.1156  0.4680
  548MOL0     C75549  10.429   8.995   6.141  0.5212  0.1599  0.2660
  548MOL0     C75550  10.363   8.951   6.264  0.0930  0.0816 -0.6545
  548MOL0     C75551  10.344   8.893   6.371 -0.5362  0.2081  1.2155
  548MOL0     C75552  10.304   9.270   5.631  0.8248  0.1099  0.1210
  548MOL0     C75553  10.269   9.390   5.574  0.1928  0.1537 -0.8078
  548MOL0     C75554  10.123   9.435   5.588 -0.7498  0.2844  0.2751
  548MOL0     H75555  10.210   9.883   5.476 -4.8873  3.3956  1.0952
  548MOL0     H75556  10.197  10.093   5.329 -0.2265  1.6502 -2.8898
  548MOL0     H75557  10.008  10.029   4.900  0.9940  0.4526 -2.8497
  548MOL0     H75558  10.180   9.989   4.913 -0.7329 -0.3926 -0.3811
  548MOL0     H75559  10.071  10.281   4.900  2.2844  3.3094 -4.6526
  548MOL0     H75560  10.233  10.242   4.876  0.1558 -1.4411  1.4852
  548MOL0     H75561  10.233  10.126   4.686  1.2967  0.9853 -3.4359
  548MOL0     H75562  10.053  10.121   4.676 -0.3623  2.2832 -2.1612
  548MOL0     H75563  10.211  10.391   4.677 -0.6603  0.6760 -0.6733
  548MOL0     H75564  10.174  10.298   4.526  1.7438 -0.4348  0.4337
  548MOL0     H75565   9.980  10.411   4.740  0.5225  1.0989 -1.0463
  548MOL0     H75566   9.920  10.347   4.591 -1.4528  0.2715  2.6585
  548MOL0     H75567  10.053  10.529   4.468  1.5792 -1.0609  0.7387
  548MOL0     H75568   9.910  10.567   4.555 -0.0851 -4.0029  1.0590
  548MOL0     H75569  10.189  10.604   4.690 -1.1965 -0.8027  2.1030
  548MOL0     H75570  10.036  10.675   4.735 -0.8485  1.9650 -2.2834
  548MOL0     H75571  10.093  10.847   4.670 -3.1035 -4.1871  2.2181
  548MOL0     H75572  10.228  10.797   4.566  0.7202  3.1473  2.7159
  548MOL0     H75573   9.923  10.976   4.587  2.2159 -0.4759  0.8571
  548MOL0     H75574   9.795  11.102   4.250 -0.2748  3.5727  0.6234
  548MOL0     H75575   9.831  11.177   4.393  0.7754  1.1563 -2.8326
  548MOL0     H75576   9.699  11.053   4.525  1.6249  0.6663 -0.7393
  548MOL0     H75577   9.592  11.117   4.401 -2.2718 -3.5017 -0.7101
  548MOL0     H75578   9.632  10.883   4.256  1.1861  0.0398 -1.4942
  548MOL0     H75579   9.703  10.839   4.401  2.3525  3.1721  0.2642
  548MOL0     H75580   9.429  10.939   4.353  0.5058  3.2849  3.7883
  548MOL0     H75581   9.469  10.767   4.369  1.9410 -1.0130  2.3023
  548MOL0     H75582   9.581  10.643   4.539 -2.5259  1.8312 -1.5489
  548MOL0     H75583   9.751  10.443   4.773  1.7210 -0.0613 -3.7668
  548MOL0     H75584   9.644  10.415   4.651 -1.0125  3.4073 -2.3896
  548MOL0     H75585   9.566  10.418   4.796 -1.3826  0.0691 -1.9834
  548MOL0     H75586   9.793  10.848   5.169  0.4908  2.0505  1.6237
  548MOL0     H75587   9.821  10.885   5.396  0.5824 -0.6268  0.2033
  548MOL0     H75588   9.872  10.592   5.768  0.3369  2.3844  0.9507
  548MOL0     H75589   9.946  10.550   5.625  1.5625 -1.1579  1.5131
  548MOL0     H75590  10.100  10.715   5.730 -0.7708 -0.0475  0.5422
  548MOL0     H75591  10.037  10.798   5.589 -0.6702 -1.0148 -1.1170
  548MOL0     H75592   9.873  10.915   5.720  1.1797 -0.3266 -1.7231
  548MOL0     H75593  10.038  10.955   5.761 -0.2713  0.6751  0.8641
  548MOL0     H75594   9.911  10.724   5.935 -0.1694 -0.0465  1.7102
  548MOL0     H75595   9.883  10.898   5.959  1.2895 -0.4582  2.0511
  548MOL0     H75596  10.138  10.779   5.946 -3.5065 -3.5976 -1.2707
  548MOL0     H75597  10.102  10.947   6.015  1.5916 -0.7998 -1.8228
  548MOL0     H75598   9.992  10.701   6.148 -1.1212  1.8474 -1.2162
  548MOL0     H75599   9.990  10.865   6.195 -2.3173 -0.3640 -0.8173
  548MOL0     H75600  10.223  10.884   6.212  0.3577 -0.7201  1.8966
  548MOL0     H75601  10.248  10.718   6.135  0.4373 -1.8584 -0.0386
  548MOL0     H75602  10.284  10.744   6.374  1.1523  1.0574 -1.4431
  548MOL0     H75603  10.202  10.603   6.316 -3.0357 -0.7388  0.6180
  548MOL0     H75604   9.735  10.453   5.468 -2.3224  0.2342 -0.6600
  548MOL0     H75605   9.741  10.429   5.236 -1.0349 -0.4918  4.2696
  548MOL0     H75606   9.501  10.851   4.972  0.6744 -1.3260  1.6581
  548MOL0     H75607   9.435  10.971   4.762  1.0058  0.1298 -0.7909
  548MOL0     H75608  10.055   9.842   5.020 -0.7174  1.8153  0.7972
  548MOL0     H75609  10.098   9.636   5.166  2.0264 -0.6332  2.2342
  548MOL0     H75610  10.563   9.459   5.425 -0.9624  0.7197 -0.1570
  548MOL0     H75611  10.626   9.253   5.539  0.5821  1.4787 -0.9078
  548MOL0     H75612  10.303   9.023   5.760  0.5016  1.0529 -1.4330
  548MOL0     H75613  10.449   8.965   5.823 -1.6753 -0.6542 -0.2692
  548MOL0     H75614  10.316   9.220   5.907 -0.9608 -0.8692  2.3268
  548MOL0     H75615  10.473   9.178   5.978 -0.3164 -0.0257 -0.1275
  548MOL0     H75616  10.267   9.146   6.124 -1.3488  0.2804 -0.5076
  548MOL0     H75617  10.237   9.005   6.029 -1.2934  0.4985  1.9892
  548MOL0     H75618  10.508   9.064   6.169  1.1504 -1.0567  1.6599
  548MOL0     H75619  10.482   8.919   6.083 -0.9361 -1.5630  1.0928
  548MOL0     H75620  10.342   8.835   6.461  0.8285 -1.6266  0.1522
  548MOL0     H75621  10.228   9.214   5.685 -1.5000 -0.2598 -3.2272
  548MOL0     H75622  10.115   9.512   5.666 -3.9344 -1.4933  1.9343
  548MOL0     H75623  10.070   9.469   5.499 -1.7084 -1.2157  0.2339
  548MOL0     H75624  10.061   9.357   5.635 -2.5155  1.9630  0.8796
  549MOL0     O75625   1.272   9.943  11.110 -0.3435 -0.2668 -0.9212
  549MOL0     C75626   1.372   9.994  11.061  0.4623 -0.5840 -0.2163
  549MOL0     O75627   1.381  10.119  11.006  0.7850  0.7465 -0.6044
  549MOL0     C75628   1.283  10.216  11.034  0.2329  0.3582  0.1159
  549MOL0     C75629   1.332  10.345  11.029  1.0980  0.4976 -0.1661
  549MOL0     C75630   1.254  10.457  11.049  0.4663 -1.2778  0.2055
  549MOL0     C75631   1.112  10.448  11.066  0.0860  0.2405 -0.3975
  549MOL0     O75632   1.032  10.556  11.066 -0.2537 -0.3690  0.2346
  549MOL0     C75633   0.891  10.531  11.075 -0.5671 -0.5605 -0.0938
  549MOL0     C75634   0.820  10.668  11.060  0.2688 -0.5707 -0.7898
  549MOL0     C75635   0.715  10.682  10.954  0.2508  0.0690 -0.3503
  549MOL0     C75636   0.602  10.581  10.994  0.5079 -0.1423  0.1866
  549MOL0     C75637   0.502  10.550  10.875 -0.4106  1.0503  0.0719
  549MOL0     C75638   0.412  10.672  10.852  0.7069 -1.2439  0.3064
  549MOL0     C75639   0.285  10.669  10.755  0.6106  0.1572 -0.4028
  549MOL0     C75640   0.335  10.653  10.610 -0.0651 -0.4082  0.0971
  549MOL0     N75641   0.399  10.535  10.555  0.5929  0.0911 -0.6074
  549MOL0     C75642   0.493  10.544  10.453  0.6272 -1.2535 -0.1369
  549MOL0     C75643   0.519  10.417  10.429  0.3503  0.2979 -0.5210
  549MOL0     C75644   0.627  10.373  10.336  0.4334  0.0986 -0.0360
  549MOL0     C75645   0.643  10.228  10.300  0.1297 -0.7179  1.2319
  549MOL0     C75646   0.722  10.140  10.387 -0.4456  0.4551 -0.6649
  549MOL0     C75647   0.797  10.036  10.311  0.4519 -0.4212 -0.2810
  549MOL0     O75648   0.697   9.954  10.239  0.2348 -0.0730  0.2722
  549MOL0     C75649   0.678   9.839  10.302 -0.1925 -0.7808  0.3453
  549MOL0     C75650   0.562   9.825  10.378  1.2281  0.6098  0.4693
  549MOL0     C75651   0.540   9.708  10.456 -0.6455  0.3209 -0.6024
  549MOL0     C75652   0.421   9.705  10.549 -1.0465  0.0972  0.6453
  549MOL0     C75653   0.644   9.608  10.454 -0.2279  0.7861 -0.6599
  549MOL0     C75654   0.645   9.480  10.547 -0.8356  0.2074 -0.7255
  549MOL0     O75655   0.761   9.420  10.580 -0.1199  0.2654 -0.0224
  549MOL0     C75656   0.752   9.302  10.637 -0.4477 -0.1906 -0.9349
  549MOL0     C75657   0.744   9.180  10.567  0.5556  0.1651 -0.8409
  549MOL0     C75658   0.750   9.056  10.638 -0.0534 -0.7409  0.3231
  549MOL0     C75659   0.740   9.058  10.780  0.8603  0.6778  0.6497
  549MOL0     O75660   0.706   8.938  10.835  0.1499 -0.0736  0.2952
  549MOL0     C75661   0.675   8.930  10.973 -0.2427  0.2740 -0.1552
  549MOL0     C75662   0.530   8.963  10.988  0.2492  0.6400  0.3842
  549MOL0     C75663   0.500   9.047  11.114  0.0933 -0.3921 -0.5332
  549MOL0     C75664   0.351   9.061  11.140 -0.2306  0.8607  0.2007
  549MOL0     C75665   0.294   9.045  11.284  1.4577  0.4263  0.4471
  549MOL0     C75666   0.326   9.156  11.375 -1.1525  0.7776  0.1221
  549MOL0     C75667   0.476   9.165  11.418 -0.7037 -0.1025 -0.4401
  549MOL0     C75668   0.492   9.221  11.559 -0.7950  0.3204  0.7477
  549MOL0    Cl75669   0.413   9.376  11.590  0.4458  0.1992 -0.4365
  549MOL0     C75670   0.733   9.188  10.843  0.3801 -0.1582 -0.0721
  549MOL0     C75671   0.741   9.305  10.775  0.8887  0.8043 -0.3641
  549MOL0     O75672   0.532   9.451  10.590  0.4743  0.3308 -0.4517
  549MOL0     C75673   0.751   9.627  10.361  0.4435  0.3927  0.2354
  549MOL0     C75674   0.760   9.733  10.279 -0.4039 -0.5212  0.3953
  549MOL0     N75675   0.442  10.329  10.515  0.2298  0.6384 -0.2250
  549MOL0     N75676   0.380  10.406  10.602 -0.5540 -0.2726  0.5655
  549MOL0     C75677   1.064  10.316  11.089  0.6679  0.8872 -0.5929
  549MOL0     C75678   1.149  10.210  11.071 -0.1779  0.5981  0.9716
  549MOL0     C75679   1.492   9.920  11.067  0.3759  0.9503 -0.1695
  549MOL0     C75680   1.595   9.955  10.973 -0.4452 -1.0429 -0.8310
  549MOL0     C75681   1.713   9.885  10.950  0.2471  0.2955  0.3891
  549MOL0     C75682   1.754   9.785  11.047  0.1754  0.5239  0.9127
  549MOL0     O75683   1.882   9.733  11.038  0.2716 -0.6367  0.1368
  549MOL0     C75684   1.952   9.691  11.156 -0.8631 -0.4791  0.0722
  549MOL0     C75685   2.100   9.654  11.145 -0.4021  0.1170  0.8482
  549MOL0     C75686   2.128   9.614  11.002 -0.8908 -0.1797 -0.0142
  549MOL0     C75687   2.264   9.561  10.980 -0.1818 -0.1761 -0.4693
  549MOL0     C75688   2.283   9.583  10.839 -0.1391 -0.8267  0.0790
  549MOL0     C75689   2.288   9.607  10.720 -0.5078  0.5551 -0.7512
  549MOL0     C75690   1.656   9.740  11.141 -0.7962  0.4671  1.3251
  549MOL0     C75691   1.523   9.800  11.150 -0.7190  0.3271  0.1338
  549MOL0     C75692   1.419   9.744  11.243  0.4212  0.5986 -0.8327
  549MOL0     H75693   1.429  10.362  10.984  1.0343  1.0417 -0.0998
  549MOL0     H75694   1.296  10.555  11.028 -2.5443  0.6248  2.2128
  549MOL0     H75695   0.864  10.500  11.176  2.1106  0.7393  1.1088
  549MOL0     H75696   0.861  10.462  10.995 -1.3849  1.3790 -1.5426
  549MOL0     H75697   0.764  10.695  11.150  0.9085 -1.4351 -0.1037
  549MOL0     H75698   0.895  10.746  11.048 -1.4000  1.2791  0.1019
  549MOL0     H75699   0.667  10.780  10.949 -5.2774 -2.2940 -0.8863
  549MOL0     H75700   0.757  10.667  10.855  0.4252  1.9223 -0.5883
  549MOL0     H75701   0.648  10.484  11.012  1.2002  0.0104 -0.6970
  549MOL0     H75702   0.551  10.613  11.085  1.2405 -2.8541  1.6472
  549MOL0     H75703   0.452  10.461  10.914  1.2997 -0.1086 -0.2521
  549MOL0     H75704   0.562  10.527  10.786  2.3579  3.5043  1.1176
  549MOL0     H75705   0.370  10.704  10.948  1.4324 -2.1990  0.9636
  549MOL0     H75706   0.487  10.748  10.830  1.3271 -1.7336  0.6955
  549MOL0     H75707   0.226  10.761  10.766  0.6535 -0.0025  1.5937
  549MOL0     H75708   0.223  10.582  10.778 -1.1851  0.8771 -2.2628
  549MOL0     H75709   0.244  10.668  10.549 -0.1781 -2.6544 -0.3593
  549MOL0     H75710   0.400  10.738  10.591  2.9251 -2.5817 -0.0272
  549MOL0     H75711   0.534  10.629  10.400  1.4362 -1.1406  0.6516
  549MOL0     H75712   0.713  10.422  10.382 -1.1615  2.5062  0.5804
  549MOL0     H75713   0.600  10.432  10.249  0.5882  0.7927  0.3785
  549MOL0     H75714   0.541  10.189  10.296 -1.0550  2.1817 -0.1553
  549MOL0     H75715   0.683  10.228  10.198 -2.2594 -0.8647  0.2306
  549MOL0     H75716   0.788  10.190  10.458  0.6301  0.7591 -1.8501
  549MOL0     H75717   0.652  10.092  10.456  0.5399  1.2935  0.9683
  549MOL0     H75718   0.875  10.076  10.246 -1.2167 -1.9822 -3.5055
  549MOL0     H75719   0.846   9.974  10.387 -1.3428  0.0611  1.3408
  549MOL0     H75720   0.488   9.904  10.374 -0.7543 -1.0835  1.6050
  549MOL0     H75721   0.374   9.804  10.556 -1.7589 -0.0904 -1.1332
  549MOL0     H75722   0.461   9.677  10.647  2.2515  1.6189 -0.1362
  549MOL0     H75723   0.346   9.634  10.514  0.7227 -1.0393 -1.0756
  549MOL0     H75724   0.749   9.197  10.460  0.7181 -3.8082 -1.5881
  549MOL0     H75725   0.751   8.967  10.576  0.7477  0.6554 -1.8090
  549MOL0     H75726   0.677   8.824  11.001 -0.5664 -0.0791 -1.4410
  549MOL0     H75727   0.740   8.973  11.049 -0.6884  0.5378  0.0834
  549MOL0     H75728   0.481   9.008  10.901  0.0861  0.9730  0.6470
  549MOL0     H75729   0.473   8.870  10.998 -0.9951  1.3962  0.5353
  549MOL0     H75730   0.530   9.149  11.089  1.3754 -1.1368 -2.1784
  549MOL0     H75731   0.556   9.008  11.200 -0.3912 -0.9443 -0.4620
  549MOL0     H75732   0.309   8.975  11.086  2.5506  0.6480 -1.8271
  549MOL0     H75733   0.321   9.154  11.091  2.0996  1.1701 -0.7866
  549MOL0     H75734   0.185   9.041  11.292  1.4917 -3.4415  0.9629
  549MOL0     H75735   0.339   8.949  11.311  1.8465 -0.2276 -2.2289
  549MOL0     H75736   0.264   9.161  11.464 -0.3625 -1.1833  0.8379
  549MOL0     H75737   0.308   9.246  11.315 -1.2860 -0.0651 -1.1424
  549MOL0     H75738   0.522   9.237  11.350  0.7550 -0.5087  0.0926
  549MOL0     H75739   0.525   9.067  11.412  0.8493  0.6713 -0.6843
  549MOL0     H75740   0.598   9.225  11.584 -0.5043 -0.4722 -0.3142
  549MOL0     H75741   0.444   9.151  11.628 -2.2215 -1.7372 -2.1269
  549MOL0     H75742   0.720   9.204  10.950 -2.7164  1.3437 -0.5660
  549MOL0     H75743   0.725   9.389  10.841  0.6468  0.8775 -0.5137
  549MOL0     H75744   0.823   9.546  10.353 -3.0412 -2.7555 -3.3806
  549MOL0     H75745   0.841   9.726  10.207 -0.2016 -1.2491  0.6834
  549MOL0     H75746   0.961  10.304  11.120  1.2946 -0.7280  1.0435
  549MOL0     H75747   1.101  10.113  11.069  1.8991 -0.4972 -1.7785
  549MOL0     H75748   1.572  10.039  10.907  0.6011  0.5355  0.7083
  549MOL0     H75749   1.784   9.917  10.874 -1.1064  3.3478  0.2563
  549MOL0     H75750   1.953   9.776  11.224 -1.7677 -0.2339 -0.2086
  549MOL0     H75751   1.894   9.614  11.208 -0.6351 -0.0402  0.9918
  549MOL0     H75752   2.137   9.575  11.211  2.8059 -0.0819 -1.0056
  549MOL0     H75753   2.163   9.739  11.170 -0.4268  0.1778  0.7045
  549MOL0     H75754   2.053   9.542  10.970  1.5602 -1.2863 -4.0747
  549MOL0     H75755   2.099   9.701  10.941  1.1658 -0.2098 -1.1430
  549MOL0     H75756   2.274   9.458  11.015  1.5224  0.1261  0.0369
  549MOL0     H75757   2.330   9.630  11.033  0.9760 -0.4718 -1.4757
  549MOL0     H75758   2.277   9.630  10.616  3.9733 -1.1860 -1.8447
  549MOL0     H75759   1.686   9.667  11.216  3.4514  0.4716 -0.0765
  549MOL0     H75760   1.342   9.812  11.278 -1.6309 -2.6943  1.7174
  549MOL0     H75761   1.368   9.666  11.185  0.8944 -0.5017  0.1888
  549MOL0     H75762   1.462   9.693  11.329  0.3587  0.5509 -0.8307
  550MOL0     O75763   3.238   8.659   8.546  0.3653 -0.6937  0.0959
  550MOL0     C75764   3.335   8.604   8.494  0.5912 -0.4824 -0.3249
  550MOL0     O75765   3.332   8.494   8.417 -0.7792  0.9328  0.6028
  550MOL0     C75766   3.213   8.430   8.395  0.2371 -0.3412  0.1461
  550MOL0     C75767   3.093   8.493   8.346 -0.2812  0.2963  0.7518
  550MOL0     C75768   2.985   8.413   8.303  0.4849 -0.4372 -0.9579
  550MOL0     C75769   2.974   8.275   8.333 -0.5420  1.2729  0.9165
  550MOL0     O75770   2.871   8.206   8.282  1.2387 -0.5633 -0.1745
  550MOL0     C75771   2.879   8.064   8.288  0.2100 -0.6672 -0.5546
  550MOL0     C75772   2.980   8.015   8.179 -0.2831 -0.8426  0.1049
  550MOL0     C75773   2.969   8.073   8.033 -0.3718  0.3924 -0.5018
  550MOL0     C75774   3.035   7.973   7.934 -0.5042  0.4768 -0.0856
  550MOL0     C75775   3.061   8.006   7.786 -0.1179 -0.2845 -0.5703
  550MOL0     C75776   3.121   8.156   7.769  0.1388  0.7832  0.2957
  550MOL0     C75777   3.264   8.186   7.837  0.3330  0.2936  0.6441
  550MOL0     C75778   3.390   8.128   7.767  0.2635 -1.2688 -0.4320
  550MOL0     N75779   3.390   8.139   7.622  0.4520 -0.1733  0.2455
  550MOL0     C75780   3.377   8.251   7.540  0.2695  0.8700 -0.3676
  550MOL0     C75781   3.403   8.202   7.417  0.6639 -0.6453  0.4337
  550MOL0     C75782   3.398   8.293   7.298  0.0819 -0.3092  0.1823
  550MOL0     C75783   3.266   8.361   7.277  0.8117 -0.3645  0.7734
  550MOL0     C75784   3.178   8.286   7.185  0.2786  0.4520  0.7340
  550MOL0     C75785   3.125   8.156   7.225  0.6241  0.7650 -0.8789
  550MOL0     O75786   3.036   8.158   7.335  0.8609 -0.1294 -0.4566
  550MOL0     C75787   2.902   8.197   7.329  0.8949  0.0864  0.5701
  550MOL0     C75788   2.845   8.224   7.450 -0.4193  0.0934  0.1087
  550MOL0     C75789   2.721   8.279   7.472  0.2260 -0.6178 -1.2156
  550MOL0     C75790   2.696   8.310   7.627 -0.9242 -0.1354 -0.0291
  550MOL0     C75791   2.638   8.308   7.356  0.0869 -0.0325 -0.0152
  550MOL0     C75792   2.505   8.353   7.370  0.2953 -0.2926  0.5539
  550MOL0     O75793   2.424   8.342   7.261 -1.2597  0.0486  1.4077
  550MOL0     C75794   2.291   8.354   7.266 -0.6984  0.0664  0.0141
  550MOL0     C75795   2.225   8.465   7.319  1.2883 -1.2091  0.1682
  550MOL0     C75796   2.081   8.454   7.331 -1.0170 -0.0033  0.0820
  550MOL0     C75797   2.006   8.343   7.280  1.3777 -0.8818 -0.0369
  550MOL0     O75798   1.874   8.338   7.304  0.5604 -0.1522 -0.8772
  550MOL0     C75799   1.785   8.244   7.245 -0.3053 -0.8848 -0.2496
  550MOL0     C75800   1.646   8.283   7.298 -0.1663 -0.2371  0.5001
  550MOL0     C75801   1.542   8.194   7.253 -0.3275 -1.1301  0.2066
  550MOL0     C75802   1.408   8.239   7.322 -0.0930 -0.1044  1.1270
  550MOL0     C75803   1.321   8.120   7.331  1.1825  0.1596 -0.3478
  550MOL0     C75804   1.194   8.154   7.404  0.1044 -0.3527  1.2221
  550MOL0     C75805   1.106   8.023   7.418 -0.2033 -0.5817 -0.1639
  550MOL0     C75806   1.113   7.916   7.313 -1.5879 -0.7103 -0.2449
  550MOL0    Cl75807   1.015   7.776   7.375 -0.2040  0.1253 -0.0206
  550MOL0     C75808   2.074   8.245   7.214  0.2501 -0.4087  0.9287
  550MOL0     C75809   2.213   8.254   7.205 -0.4776 -0.8394 -0.8440
  550MOL0     O75810   2.468   8.385   7.481  0.2979 -0.2292 -1.1529
  550MOL0     C75811   2.699   8.273   7.231 -0.1070  0.2140  0.2586
  550MOL0     C75812   2.822   8.214   7.215 -0.6004 -1.3843  1.2856
  550MOL0     N75813   3.429   8.070   7.424  1.0256  0.0451 -0.5961
  550MOL0     N75814   3.407   8.028   7.550 -0.8402 -0.0121  0.7039
  550MOL0     C75815   3.086   8.215   8.388  0.2655  0.0680 -0.4618
  550MOL0     C75816   3.206   8.291   8.414 -0.1668 -1.5729  0.3356
  550MOL0     C75817   3.457   8.683   8.508 -0.3044 -0.0718  0.1540
  550MOL0     C75818   3.466   8.815   8.574  0.4845 -0.3941  0.0348
  550MOL0     C75819   3.590   8.891   8.583 -0.0009 -0.7226 -0.2654
  550MOL0     C75820   3.709   8.836   8.546 -0.3980 -0.5421  0.1195
  550MOL0     O75821   3.837   8.889   8.562  0.0274 -0.6444 -0.0936
  550MOL0     C75822   3.861   9.014   8.629  1.4703  0.1711 -0.2216
  550MOL0     C75823   4.000   9.061   8.590 -0.6272  0.1647 -0.4480
  550MOL0     C75824   4.051   9.199   8.628  0.8135 -0.2046  0.5308
  550MOL0     C75825   4.037   9.205   8.781 -0.8196 -0.3400 -0.2105
  550MOL0     C75826   4.134   9.119   8.847 -0.3415  0.0567 -0.2868
  550MOL0     C75827   4.213   9.039   8.898  0.9392 -0.4676  0.4091
  550MOL0     C75828   3.705   8.710   8.479  0.2798  0.3718  0.7003
  550MOL0     C75829   3.588   8.636   8.470  0.0579  1.3406  0.0921
  550MOL0     C75830   3.607   8.495   8.411 -0.2088 -0.9406 -1.0241
  550MOL0     H75831   3.087   8.599   8.324 -0.9651 -0.2442 -2.1467
  550MOL0     H75832   2.894   8.454   8.260 -1.6052 -3.0511  0.6498
  550MOL0     H75833   2.782   8.022   8.259 -0.9749  1.9411 -0.6345
  550MOL0     H75834   2.892   8.028   8.390 -2.0388 -0.7201 -0.2490
  550MOL0     H75835   3.083   8.044   8.202  0.5680 -2.6014 -1.2378
  550MOL0     H75836   2.965   7.907   8.185  0.1079 -0.8951  0.1097
  550MOL0     H75837   2.864   8.084   8.005 -0.2981 -1.4598 -1.6879
  550MOL0     H75838   3.029   8.164   8.030  1.1673 -0.4970  1.2905
  550MOL0     H75839   3.132   7.949   7.978 -1.0184  2.0764  2.0806
  550MOL0     H75840   2.978   7.880   7.947  1.3977 -0.4516  2.2173
  550MOL0     H75841   2.964   8.011   7.736 -0.2033 -0.5041 -0.4281
  550MOL0     H75842   3.122   7.924   7.747  0.9021 -0.5163  1.3741
  550MOL0     H75843   3.126   8.166   7.660  1.1193  1.0438  0.3511
  550MOL0     H75844   3.054   8.232   7.811  1.3766  1.0374  1.9004
  550MOL0     H75845   3.261   8.166   7.944 -0.1727 -1.2688  0.3647
  550MOL0     H75846   3.274   8.295   7.839  5.9232  0.0870 -0.5632
  550MOL0     H75847   3.477   8.173   7.815 -0.9545 -1.8978  2.5577
  550MOL0     H75848   3.392   8.023   7.794 -1.1978 -0.5151  3.0817
  550MOL0     H75849   3.358   8.355   7.566 -3.7639 -0.4257  2.7641
  550MOL0     H75850   3.439   8.244   7.210  1.8425  0.3074  0.6201
  550MOL0     H75851   3.468   8.372   7.326  2.0629 -2.0961  0.4722
  550MOL0     H75852   3.220   8.375   7.376 -0.8856 -0.3392  0.0263
  550MOL0     H75853   3.270   8.460   7.231 -3.4980 -0.2831  0.1143
  550MOL0     H75854   3.093   8.351   7.160 -0.3356 -0.4014  0.5675
  550MOL0     H75855   3.236   8.269   7.094 -1.5703  2.1762 -0.8743
  550MOL0     H75856   3.086   8.114   7.132  1.7110  1.1082 -1.5097
  550MOL0     H75857   3.209   8.094   7.259 -0.7124 -1.6901 -1.8176
  550MOL0     H75858   2.918   8.231   7.531  2.7334  1.0908 -2.6018
  550MOL0     H75859   2.648   8.407   7.645  1.2097  1.0088 -0.1130
  550MOL0     H75860   2.794   8.324   7.675 -0.8093 -4.5016  1.5144
  550MOL0     H75861   2.643   8.223   7.666  1.0924 -1.3266  0.2133
  550MOL0     H75862   2.263   8.556   7.364 -3.9373  0.2027  2.4714
  550MOL0     H75863   2.022   8.538   7.367  1.2046  1.5229  0.3528
  550MOL0     H75864   1.795   8.246   7.136 -1.8568 -1.5135 -0.4289
  550MOL0     H75865   1.818   8.147   7.283  2.1139  0.9376  2.7739
  550MOL0     H75866   1.641   8.285   7.408  1.5596  1.4205  0.6056
  550MOL0     H75867   1.639   8.390   7.275 -0.4623 -0.6927 -1.6864
  550MOL0     H75868   1.568   8.092   7.283 -0.3151 -1.5170 -1.0382
  550MOL0     H75869   1.519   8.202   7.146 -0.4364  2.4268  0.3654
  550MOL0     H75870   1.355   8.304   7.252  0.0782 -0.7960  0.3383
  550MOL0     H75871   1.416   8.283   7.422  0.9020 -2.9746  2.4352
  550MOL0     H75872   1.308   8.079   7.230  0.6389 -2.5924  0.7496
  550MOL0     H75873   1.369   8.044   7.393  1.6199  0.8851  0.2195
  550MOL0     H75874   1.137   8.221   7.339 -0.0701 -0.7209  0.9870
  550MOL0     H75875   1.212   8.199   7.502 -1.6491  0.2270  1.3223
  550MOL0     H75876   1.000   8.052   7.413  0.2804  1.1119 -3.4377
  550MOL0     H75877   1.135   7.997   7.520 -1.5432  1.4181  0.7921
  550MOL0     H75878   1.217   7.888   7.292 -0.6864  2.0850  0.0750
  550MOL0     H75879   1.077   7.958   7.218  0.5513  4.5966  0.9068
  550MOL0     H75880   2.029   8.163   7.159  1.0071  0.3369 -0.8911
  550MOL0     H75881   2.265   8.170   7.161 -2.5535 -2.8554  0.2701
  550MOL0     H75882   2.654   8.306   7.138  2.5402 -1.6131 -1.8235
  550MOL0     H75883   2.862   8.173   7.123 -1.8694 -0.5858  0.3548
  550MOL0     H75884   3.100   8.109   8.408 -0.2808 -0.1986 -1.4571
  550MOL0     H75885   3.302   8.254   8.446  1.2473  1.6470  0.2262
  550MOL0     H75886   3.370   8.848   8.610  0.5536 -2.6984  2.7033
  550MOL0     H75887   3.605   8.988   8.630 -0.4253 -0.3719 -0.8459
  550MOL0     H75888   3.779   9.083   8.603  2.1538  0.9285 -0.4080
  550MOL0     H75889   3.871   9.007   8.738 -1.1314  2.0739  0.2543
  550MOL0     H75890   4.015   9.053   8.482  3.6454  1.0721 -0.1121
  550MOL0     H75891   4.064   8.985   8.635 -0.0648  1.1341  0.4281
  550MOL0     H75892   4.152   9.219   8.591  0.0853  1.2326 -0.8154
  550MOL0     H75893   3.978   9.269   8.588  0.6760 -0.6162  0.0466
  550MOL0     H75894   3.939   9.176   8.821 -0.1809 -0.4301  1.3319
  550MOL0     H75895   4.063   9.308   8.810 -4.9312  1.3186 -1.6275
  550MOL0     H75896   4.259   8.951   8.937  0.7328  0.0026  1.7714
  550MOL0     H75897   3.804   8.672   8.453 -0.5962 -0.5864 -1.4868
  550MOL0     H75898   3.593   8.425   8.494 -1.3680  1.4301  0.9131
  550MOL0     H75899   3.553   8.477   8.317 -0.8488 -0.5454 -0.7387
  550MOL0     H75900   3.710   8.481   8.378  0.7740  0.2948  1.3547
  551MOL0     O75901   6.217   4.494   3.318  0.7860 -0.1945 -0.2785
  551MOL0     C75902   6.306   4.517   3.231  0.8876 -0.1890  0.5830
  551MOL0     O75903   6.407   4.596   3.254  0.1345 -0.2066 -0.8898
  551MOL0     C75904   6.411   4.674   3.368 -0.1122 -0.5530 -0.2314
  551MOL0     C75905   6.311   4.763   3.408 -0.3337 -0.2573  0.2512
  551MOL0     C75906   6.322   4.822   3.536  0.1541  0.0721  0.0723
  551MOL0     C75907   6.428   4.808   3.622 -0.5201 -0.3243 -0.2765
  551MOL0     O75908   6.455   4.866   3.738 -0.3206  0.5170 -0.6053
  551MOL0     C75909   6.366   4.966   3.777 -0.1090 -0.4554 -1.1794
  551MOL0     C75910   6.404   5.022   3.918 -0.8764  1.2619  1.1234
  551MOL0     C75911   6.290   5.116   3.973  0.3663 -0.9968 -1.6511
  551MOL0     C75912   6.357   5.224   4.065  0.1808 -0.0789  1.9591
  551MOL0     C75913   6.432   5.322   3.972  0.3706  0.2985 -0.2186
  551MOL0     C75914   6.357   5.448   3.949  0.7924  0.2708 -0.2664
  551MOL0     C75915   6.382   5.547   4.064 -1.0950 -0.2296 -0.1152
  551MOL0     C75916   6.354   5.494   4.204 -0.2983 -0.7605 -0.9758
  551MOL0     N75917   6.400   5.604   4.296  0.5456 -0.9945  0.5279
  551MOL0     C75918   6.327   5.714   4.322  0.5154 -0.5573 -0.2835
  551MOL0     C75919   6.416   5.792   4.394  0.5244  0.0691 -0.5199
  551MOL0     C75920   6.367   5.919   4.464 -0.1010  0.0757  0.1196
  551MOL0     C75921   6.303   5.889   4.601 -1.0358 -0.3958  0.6531
  551MOL0     C75922   6.171   5.802   4.590 -0.5010 -0.1973 -0.5893
  551MOL0     C75923   6.070   5.822   4.713  0.0693  0.1776  0.8166
  551MOL0     O75924   6.004   5.943   4.716 -0.3281  0.2037 -0.1640
  551MOL0     C75925   5.948   5.984   4.831  0.7560 -0.0472 -0.8278
  551MOL0     C75926   5.920   6.122   4.837 -0.1958 -0.7394 -0.4278
  551MOL0     C75927   5.827   6.169   4.928  0.7653  0.4302 -0.0273
  551MOL0     C75928   5.796   6.317   4.908  0.7603 -0.6213 -0.3967
  551MOL0     C75929   5.774   6.093   5.041  0.2620  0.5432 -0.2297
  551MOL0     C75930   5.682   6.147   5.149  0.5170  0.7576  0.1993
  551MOL0     O75931   5.625   6.045   5.223  0.5996  0.2612  0.3446
  551MOL0     C75932   5.522   6.076   5.312 -0.2841  0.0163 -0.3087
  551MOL0     C75933   5.537   6.099   5.447 -0.3821 -1.0599  0.2965
  551MOL0     C75934   5.419   6.114   5.526  0.3018 -0.8513  0.0556
  551MOL0     C75935   5.287   6.117   5.468  0.0767  0.8474  0.0541
  551MOL0     O75936   5.172   6.145   5.533  0.3313  0.0470 -0.0334
  551MOL0     C75937   5.052   6.095   5.482  0.7892 -0.5630  0.0396
  551MOL0     C75938   4.941   6.101   5.589 -0.0837  0.6205  1.2305
  551MOL0     C75939   4.970   5.990   5.683 -1.2364  0.3814 -0.6105
  551MOL0     C75940   4.850   5.906   5.729 -0.1636 -0.9152  0.2551
  551MOL0     C75941   4.881   5.848   5.866 -0.3112  0.4134 -1.0839
  551MOL0     C75942   5.003   5.758   5.869 -0.2221  0.0744 -0.0354
  551MOL0     C75943   5.048   5.743   6.014 -0.5485  0.6151  0.1864
  551MOL0     C75944   4.945   5.658   6.084 -0.2656  0.9027  0.9940
  551MOL0    Cl75945   4.990   5.636   6.254  0.2153 -0.3244  0.2762
  551MOL0     C75946   5.282   6.085   5.330  0.2638  0.4197 -0.0889
  551MOL0     C75947   5.394   6.080   5.262 -0.6680 -0.3163  0.3978
  551MOL0     O75948   5.654   6.261   5.161 -0.0167  0.5734  0.2176
  551MOL0     C75949   5.816   5.961   5.031 -0.0300 -0.3996  0.8684
  551MOL0     C75950   5.900   5.904   4.927  0.4898 -0.1995 -0.5629
  551MOL0     N75951   6.507   5.702   4.439  0.0912 -0.2934  0.5871
  551MOL0     N75952   6.503   5.594   4.369 -1.0594 -0.4594 -0.0449
  551MOL0     C75953   6.534   4.728   3.572 -0.2207  0.3345 -0.2882
  551MOL0     C75954   6.518   4.662   3.451  0.0074  0.2727  0.5491
  551MOL0     C75955   6.315   4.436   3.102 -0.3295 -0.7823 -0.0970
  551MOL0     C75956   6.373   4.506   2.996 -1.1291  0.2740  0.3691
  551MOL0     C75957   6.383   4.438   2.871 -0.6622 -0.7326 -0.5310
  551MOL0     C75958   6.330   4.311   2.846 -1.2349 -0.4536 -0.0951
  551MOL0     O75959   6.335   4.252   2.718  0.3338 -0.3214 -0.5530
  551MOL0     C75960   6.370   4.320   2.600  0.1360 -0.9662  0.4264
  551MOL0     C75961   6.515   4.353   2.581 -0.2695  0.1518  0.5814
  551MOL0     C75962   6.555   4.431   2.451 -0.4940 -0.3573  0.1171
  551MOL0     C75963   6.709   4.456   2.455  0.0159 -1.1662  1.1639
  551MOL0     C75964   6.787   4.443   2.333  0.3604 -0.1835 -0.4151
  551MOL0     C75965   6.849   4.427   2.237 -0.0328 -0.5538  1.3919
  551MOL0     C75966   6.262   4.251   2.946  0.5336 -0.0545  0.1512
  551MOL0     C75967   6.252   4.314   3.078  0.6350 -0.3102  0.0281
  551MOL0     C75968   6.178   4.244   3.189 -0.1283  0.0706 -0.8325
  551MOL0     H75969   6.218   4.770   3.352  2.0881 -0.2653 -4.1767
  551MOL0     H75970   6.235   4.885   3.550 -2.0641 -2.8489  0.5823
  551MOL0     H75971   6.273   4.916   3.804  1.6838 -1.4596  4.6425
  551MOL0     H75972   6.359   5.035   3.692  4.1291 -1.9131 -2.9729
  551MOL0     H75973   6.416   4.931   3.977 -5.0098 -1.6950 -1.9074
  551MOL0     H75974   6.503   5.067   3.906  0.3486 -1.3704  0.4809
  551MOL0     H75975   6.219   5.150   3.897 -3.7891 -3.6077  0.6499
  551MOL0     H75976   6.228   5.056   4.041 -0.7239  1.0655 -0.7243
  551MOL0     H75977   6.284   5.278   4.126  1.8900  4.2345  0.5964
  551MOL0     H75978   6.440   5.180   4.121  2.8462  0.8400 -0.9515
  551MOL0     H75979   6.453   5.279   3.874  0.8763 -1.0635  0.4726
  551MOL0     H75980   6.530   5.329   4.020  1.7712 -0.9327 -2.6806
  551MOL0     H75981   6.386   5.490   3.852  0.2278  1.8567  0.2184
  551MOL0     H75982   6.249   5.433   3.939  0.7546  0.2080  0.2155
  551MOL0     H75983   6.338   5.646   4.053  2.0293  1.7682  3.2062
  551MOL0     H75984   6.489   5.571   4.057 -1.6794  2.1156 -3.1131
  551MOL0     H75985   6.247   5.479   4.221  0.1494 -1.0754  2.0321
  551MOL0     H75986   6.404   5.401   4.232 -0.6973 -0.4882  0.7550
  551MOL0     H75987   6.219   5.726   4.320  0.4748 -0.4645  1.0955
  551MOL0     H75988   6.294   5.968   4.398  0.5387  1.2657  0.2717
  551MOL0     H75989   6.453   5.987   4.474  0.3027 -0.6583  2.1585
  551MOL0     H75990   6.365   5.843   4.678 -0.0045 -2.5456 -1.3317
  551MOL0     H75991   6.271   5.989   4.633  1.0465  0.9374 -1.1361
  551MOL0     H75992   6.111   5.826   4.502 -1.3073 -0.6952 -0.1886
  551MOL0     H75993   6.207   5.700   4.607 -2.9258 -1.1150 -0.6542
  551MOL0     H75994   6.004   5.736   4.706  0.1254  0.2343 -1.0067
  551MOL0     H75995   6.122   5.802   4.807  0.1186  2.0846  1.2502
  551MOL0     H75996   5.956   6.184   4.756  2.7607 -2.4442 -0.5324
  551MOL0     H75997   5.687   6.325   4.898  0.6516 -2.1570 -0.6976
  551MOL0     H75998   5.816   6.362   4.810 -4.3685 -1.0292 -1.9467
  551MOL0     H75999   5.843   6.381   4.984 -1.2657  0.8433 -0.2603
  551MOL0     H76000   5.636   6.088   5.490  0.9148  1.5143 -1.7782
  551MOL0     H76001   5.426   6.124   5.634  1.2657 -2.1667  0.1386
  551MOL0     H76002   5.025   6.163   5.401  2.3506 -2.2804 -2.0298
  551MOL0     H76003   5.063   5.997   5.435 -0.2413 -0.1826 -1.0422
  551MOL0     H76004   4.947   6.195   5.644 -0.8825  2.4033 -1.5500
  551MOL0     H76005   4.848   6.102   5.532  1.1654  2.0144 -0.9027
  551MOL0     H76006   5.011   6.041   5.771  1.0653 -1.1186 -0.7412
  551MOL0     H76007   5.043   5.919   5.642 -3.4751 -3.1010  0.9390
  551MOL0     H76008   4.831   5.830   5.652  0.8021 -1.1148  0.2087
  551MOL0     H76009   4.762   5.970   5.722 -0.4504 -1.4663 -2.7098
  551MOL0     H76010   4.890   5.930   5.938 -1.5667 -0.3388 -0.0242
  551MOL0     H76011   4.796   5.784   5.890  0.8280 -0.8374 -0.2678
  551MOL0     H76012   5.091   5.798   5.816  1.2704 -0.8419  1.6413
  551MOL0     H76013   4.986   5.662   5.820 -0.3237  0.2080 -0.2639
  551MOL0     H76014   5.055   5.838   6.068 -0.1765  0.4170  0.4882
  551MOL0     H76015   5.149   5.702   6.012 -1.0812 -0.7631  0.2560
  551MOL0     H76016   4.944   5.558   6.040  2.0632 -0.3519  3.5238
  551MOL0     H76017   4.845   5.701   6.076 -1.0330 -0.8507  0.7086
  551MOL0     H76018   5.191   6.084   5.271 -1.0509 -0.0174  1.8598
  551MOL0     H76019   5.398   6.092   5.154  3.5941  3.8447  0.6489
  551MOL0     H76020   5.769   5.901   5.109 -2.7522 -1.7091 -1.6025
  551MOL0     H76021   5.927   5.800   4.917 -0.6103 -0.3814 -1.9225
  551MOL0     H76022   6.618   4.716   3.639 -0.9061  1.5291  0.8376
  551MOL0     H76023   6.600   4.598   3.421 -0.7727 -0.4053 -0.1956
  551MOL0     H76024   6.406   4.609   3.005 -0.4497 -0.0249  1.5561
  551MOL0     H76025   6.436   4.489   2.792  2.5441 -1.5746  0.9320
  551MOL0     H76026   6.333   4.281   2.504 -0.9745  2.6717 -0.7697
  551MOL0     H76027   6.318   4.416   2.599 -0.3741 -1.2421  0.1120
  551MOL0     H76028   6.561   4.254   2.572 -3.8542 -1.8635  2.3492
  551MOL0     H76029   6.560   4.413   2.661  1.6584  2.0594 -1.7599
  551MOL0     H76030   6.528   4.373   2.363 -1.2678 -1.5018  1.0680
  551MOL0     H76031   6.503   4.526   2.445  0.1636 -0.0422 -0.8016
  551MOL0     H76032   6.743   4.362   2.500  1.1368 -1.3565 -0.0374
  551MOL0     H76033   6.735   4.550   2.504  1.9991  0.2462 -2.2571
  551MOL0     H76034   6.898   4.402   2.145 -0.5220  0.6815  0.7797
  551MOL0     H76035   6.205   4.162   2.925 -2.7273  1.0662  3.2393
  551MOL0     H76036   6.228   4.245   3.286 -1.7945 -0.6644  0.0654
  551MOL0     H76037   6.073   4.272   3.199 -0.1291 -0.2821  0.2375
  551MOL0     H76038   6.187   4.137   3.167  5.1305  0.0441  0.2439
  552MOL0     O76039   9.050   1.708   2.395  0.3628  0.2805  0.3901
  552MOL0     C76040   9.060   1.817   2.447  0.2817 -0.0339  0.2270
  552MOL0     O76041   9.165   1.871   2.521 -0.1068 -0.5072  0.6000
  552MOL0     C76042   9.290   1.816   2.523  0.1336  0.9609 -0.6065
  552MOL0     C76043   9.336   1.764   2.646 -0.1461  0.7401  0.2061
  552MOL0     C76044   9.450   1.691   2.655  0.6467 -0.7482 -0.4245
  552MOL0     C76045   9.536   1.674   2.543 -0.3441 -0.9181  0.5458
  552MOL0     O76046   9.657   1.620   2.554 -0.1508 -0.4912 -0.6857
  552MOL0     C76047   9.750   1.670   2.656  0.1902 -0.3643 -0.7808
  552MOL0     C76048   9.808   1.545   2.710  0.5637 -0.0802  1.1166
  552MOL0     C76049   9.701   1.466   2.788 -0.3666  0.4785 -0.5395
  552MOL0     C76050   9.770   1.323   2.830  0.4424 -0.3123 -0.5235
  552MOL0     C76051   9.695   1.225   2.919  0.0907  0.2447 -0.3986
  552MOL0     C76052   9.785   1.150   3.018 -0.1946  0.6040  0.4081
  552MOL0     C76053   9.693   1.074   3.114  0.7337  0.3990  0.2137
  552MOL0     C76054   9.766   1.024   3.233 -0.1260  0.9092 -0.6760
  552MOL0     N76055   9.697   0.927   3.321  0.2756 -0.1107 -0.3392
  552MOL0     C76056   9.743   0.811   3.371 -0.3270 -0.3245  0.7669
  552MOL0     C76057   9.634   0.738   3.398 -0.4209 -0.3393 -0.0697
  552MOL0     C76058   9.633   0.604   3.462  0.3409  0.2700  0.7366
  552MOL0     C76059   9.530   0.585   3.582 -0.2050 -0.0781  0.0128
  552MOL0     C76060   9.551   0.657   3.716 -0.6403  0.9068 -0.5305
  552MOL0     C76061   9.600   0.807   3.705  0.4166 -0.9190 -1.0739
  552MOL0     O76062   9.577   0.879   3.825 -0.3725 -0.4361  0.1069
  552MOL0     C76063   9.651   0.817   3.919 -0.2256  0.0516 -0.0423
  552MOL0     C76064   9.582   0.734   4.017  0.9215  0.3856  0.2323
  552MOL0     C76065   9.650   0.672   4.117  0.2634 -0.6713 -0.0122
  552MOL0     C76066   9.577   0.571   4.205  0.3755  0.9902  0.4160
  552MOL0     C76067   9.790   0.699   4.126 -0.4571 -0.5003 -0.3732
  552MOL0     C76068   9.866   0.648   4.240 -0.1489  0.3977 -0.9517
  552MOL0     O76069   9.982   0.719   4.270 -0.1014 -0.3297 -0.5151
  552MOL0     C76070  10.084   0.676   4.356  0.2312 -0.1714 -0.1530
  552MOL0     C76071  10.167   0.777   4.402  0.3157 -0.0075 -0.0870
  552MOL0     C76072  10.276   0.743   4.476  0.2018 -0.8785  1.0155
  552MOL0     C76073  10.312   0.610   4.514 -0.3576 -0.3312 -0.3726
  552MOL0     O76074  10.434   0.580   4.573  0.0655 -0.0213  0.0841
  552MOL0     C76075  10.447   0.633   4.703  0.7179 -0.1910 -0.4405
  552MOL0     C76076  10.572   0.590   4.774  0.2391 -0.1890  0.3504
  552MOL0     C76077  10.552   0.462   4.861  0.3124  0.9764  0.0492
  552MOL0     C76078  10.567   0.502   5.009 -0.1579 -0.1095  0.2339
  552MOL0     C76079  10.570   0.381   5.109  0.9946  0.1714  0.3786
  552MOL0     C76080  10.717   0.361   5.141  0.9713 -0.5269 -0.7025
  552MOL0     C76081  10.772   0.475   5.238  0.2772  0.1767 -0.5974
  552MOL0     C76082  10.891   0.407   5.302  0.8136  0.1007  0.7320
  552MOL0    Cl76083  11.003   0.360   5.177 -0.0683 -0.0659  0.2858
  552MOL0     C76084  10.219   0.514   4.471 -0.1140  0.0848 -0.0917
  552MOL0     C76085  10.102   0.547   4.402 -0.7048  0.2476 -0.6830
  552MOL0     O76086   9.832   0.537   4.279  0.2615 -0.5825 -0.4532
  552MOL0     C76087   9.859   0.780   4.026  0.5346  0.0419  0.3385
  552MOL0     C76088   9.786   0.847   3.922  0.2297  0.2643 -1.2384
  552MOL0     N76089   9.521   0.815   3.366 -0.1037  0.8730  0.3891
  552MOL0     N76090   9.566   0.932   3.334 -0.4246  0.5141  0.1244
  552MOL0     C76091   9.488   1.732   2.421 -0.7892  0.5026  0.3131
  552MOL0     C76092   9.368   1.794   2.407  1.5593  0.7956  0.5476
  552MOL0     C76093   8.950   1.907   2.413  0.0181  0.5658 -0.7653
  552MOL0     C76094   8.824   1.853   2.433 -0.2607 -0.1371  1.0872
  552MOL0     C76095   8.704   1.911   2.401  0.2290 -0.1838 -0.3160
  552MOL0     C76096   8.715   2.039   2.342  0.1438 -0.2080 -0.5032
  552MOL0     O76097   8.602   2.113   2.292  0.6006  1.1125 -0.1114
  552MOL0     C76098   8.480   2.043   2.261  0.3846 -0.4501  0.7303
  552MOL0     C76099   8.373   2.032   2.380  0.3117  0.3980 -0.3433
  552MOL0     C76100   8.230   1.976   2.328 -0.0174 -1.4585 -0.3551
  552MOL0     C76101   8.142   2.087   2.274  0.4471  0.1537  0.8590
  552MOL0     C76102   8.034   2.020   2.203 -0.2562 -0.0850  0.1671
  552MOL0     C76103   7.947   1.956   2.153 -0.5978 -0.0741  0.0926
  552MOL0     C76104   8.836   2.095   2.313  0.1867 -0.4038  0.2491
  552MOL0     C76105   8.956   2.025   2.344 -0.2612 -0.0023 -0.3799
  552MOL0     C76106   9.088   2.084   2.298  0.2699  0.4388 -0.4568
  552MOL0     H76107   9.277   1.763   2.736  0.9872  0.0643  0.9752
  552MOL0     H76108   9.467   1.651   2.754 -1.6271  1.6913  1.0780
  552MOL0     H76109   9.706   1.737   2.730 -0.9498  0.8121 -2.4523
  552MOL0     H76110   9.823   1.737   2.610  1.7187 -1.5835 -0.2213
  552MOL0     H76111   9.842   1.489   2.622 -4.2536  0.8572 -1.7243
  552MOL0     H76112   9.894   1.560   2.776  1.5030  0.4938 -0.2094
  552MOL0     H76113   9.677   1.514   2.883 -2.4092 -2.2637  0.4474
  552MOL0     H76114   9.604   1.450   2.738  1.9967 -2.8216 -4.8542
  552MOL0     H76115   9.781   1.275   2.732  1.2718  1.4876 -1.3567
  552MOL0     H76116   9.869   1.343   2.873  0.1890 -1.7764  0.8376
  552MOL0     H76117   9.638   1.149   2.865 -0.4378  1.0178 -0.9667
  552MOL0     H76118   9.627   1.280   2.984 -0.0605  0.7128 -0.9407
  552MOL0     H76119   9.839   1.067   2.971 -4.9162 -4.2553  2.5190
  552MOL0     H76120   9.847   1.212   3.083 -3.1918  2.5279  1.6457
  552MOL0     H76121   9.641   0.987   3.072  0.7202 -1.0049  2.9172
  552MOL0     H76122   9.618   1.141   3.157 -1.9877 -1.1203 -1.8406
  552MOL0     H76123   9.859   0.976   3.201  0.2006  0.1056  1.3293
  552MOL0     H76124   9.792   1.107   3.300  0.0696 -0.7602  1.4088
  552MOL0     H76125   9.844   0.790   3.405 -0.5178  0.4598  1.9002
  552MOL0     H76126   9.738   0.589   3.489  0.0802 -0.9317  1.1223
  552MOL0     H76127   9.606   0.529   3.388  2.5639 -0.3107  0.4477
  552MOL0     H76128   9.435   0.620   3.541 -0.1053 -3.7799 -4.0769
  552MOL0     H76129   9.524   0.477   3.591  5.7653 -0.7108  0.1546
  552MOL0     H76130   9.467   0.634   3.782  0.3395 -1.3173  0.0001
  552MOL0     H76131   9.630   0.603   3.769 -2.5194 -0.1138  1.3704
  552MOL0     H76132   9.702   0.821   3.669 -0.5185  2.0338 -2.9238
  552MOL0     H76133   9.546   0.872   3.635 -1.8036  0.9280  2.0787
  552MOL0     H76134   9.478   0.707   4.006  1.7904 -2.9005 -1.2425
  552MOL0     H76135   9.594   0.572   4.314 -0.8208 -0.6717  0.6450
  552MOL0     H76136   9.606   0.469   4.179 -0.6814  0.2888  1.8483
  552MOL0     H76137   9.471   0.584   4.182  0.5547  3.7017  0.6783
  552MOL0     H76138  10.159   0.880   4.368 -1.6850  0.8072  2.5346
  552MOL0     H76139  10.329   0.836   4.497 -0.3462  0.0550 -1.4274
  552MOL0     H76140  10.455   0.741   4.692  0.8877 -0.2528 -0.9736
  552MOL0     H76141  10.360   0.607   4.764  2.0439 -2.0519  0.7680
  552MOL0     H76142  10.653   0.574   4.702 -0.3530  1.5985 -0.7642
  552MOL0     H76143  10.595   0.677   4.836 -1.3520 -0.2424  1.0460
  552MOL0     H76144  10.637   0.399   4.835 -1.2661 -0.1605 -2.7341
  552MOL0     H76145  10.450   0.426   4.842 -0.5408  3.0211  0.4375
  552MOL0     H76146  10.478   0.558   5.038 -0.1923 -0.0725  0.0584
  552MOL0     H76147  10.654   0.569   5.014  1.6148 -2.1832 -0.8082
  552MOL0     H76148  10.504   0.385   5.197 -0.2561 -2.1767 -0.3606
  552MOL0     H76149  10.522   0.293   5.066  1.6706  0.2924 -0.6771
  552MOL0     H76150  10.782   0.350   5.054 -0.5748 -0.5022 -1.9129
  552MOL0     H76151  10.717   0.268   5.199  2.5051  1.7255  3.3579
  552MOL0     H76152  10.709   0.510   5.320  2.1535  1.6903  0.2797
  552MOL0     H76153  10.812   0.561   5.182  3.1116  1.1672  2.6112
  552MOL0     H76154  10.864   0.312   5.349  3.0909 -2.4117 -2.5750
  552MOL0     H76155  10.943   0.476   5.369  0.7570 -0.0066  0.8867
  552MOL0     H76156  10.236   0.410   4.500  2.4398  0.7987  1.2976
  552MOL0     H76157  10.021   0.475   4.392  0.0115 -0.4165 -2.0204
  552MOL0     H76158   9.965   0.807   4.030  0.2137  1.4058  0.3365
  552MOL0     H76159   9.828   0.920   3.852 -0.0109  0.5461 -1.0930
  552MOL0     H76160   9.558   1.722   2.339  0.4696 -2.2914  1.6113
  552MOL0     H76161   9.334   1.841   2.316  2.3981  0.0162 -0.1902
  552MOL0     H76162   8.823   1.757   2.484 -1.9948  0.0496  1.4611
  552MOL0     H76163   8.611   1.862   2.426 -0.2945  0.6188 -0.6608
  552MOL0     H76164   8.422   2.091   2.182  0.0928 -1.5820  0.2411
  552MOL0     H76165   8.505   1.948   2.213 -1.2672 -0.3344 -0.4484
  552MOL0     H76166   8.350   2.127   2.428  0.8391 -0.0734  0.8798
  552MOL0     H76167   8.413   1.980   2.468  0.3752  0.2118 -0.4817
  552MOL0     H76168   8.258   1.907   2.248  0.1127  0.6907 -2.2622
  552MOL0     H76169   8.179   1.931   2.414  0.2237  1.0497  1.2061
  552MOL0     H76170   8.218   2.141   2.216 -0.9779 -1.3327 -2.7086
  552MOL0     H76171   8.092   2.158   2.340  0.7629  5.0934 -3.5714
  552MOL0     H76172   7.881   1.901   2.089  0.3181  1.8823 -2.7403
  552MOL0     H76173   8.844   2.189   2.260 -2.3106 -1.2413 -1.7825
  552MOL0     H76174   9.067   2.130   2.201  0.6032  2.1790  0.2592
  552MOL0     H76175   9.117   2.165   2.366  0.0788 -1.1985  1.6582
  552MOL0     H76176   9.167   2.010   2.285  0.3843  0.4609  0.1057
  553MOL0     O76177   4.496   1.866   0.413 -0.5038 -0.0550  1.2701
  553MOL0     C76178   4.485   1.893   0.535 -0.8856 -0.3722  0.6543
  553MOL0     O76179   4.361   1.888   0.602  0.2450  0.3600  0.0514
  553MOL0     C76180   4.242   1.861   0.540  0.1898 -0.0352 -0.0697
  553MOL0     C76181   4.125   1.916   0.598 -1.3935  1.2744 -0.1840
  553MOL0     C76182   3.998   1.886   0.549 -0.0303  0.0479 -0.7516
  553MOL0     C76183   3.978   1.795   0.446  1.1772 -0.9276 -0.2516
  553MOL0     O76184   3.848   1.763   0.394  0.5631 -1.0291  0.3598
  553MOL0     C76185   3.783   1.877   0.345 -0.0060 -0.6080  1.0589
  553MOL0     C76186   3.658   1.832   0.287  0.1921 -0.1520 -0.3518
  553MOL0     C76187   3.577   1.755   0.395  0.8344  0.3854 -0.1872
  553MOL0     C76188   3.432   1.737   0.351 -0.6019 -0.1427  0.7053
  553MOL0     C76189   3.420   1.609   0.276 -0.0538 -0.4759  0.0474
  553MOL0     C76190   3.318   1.612   0.158 -0.8186  0.0054 -0.5384
  553MOL0     C76191   3.171   1.616   0.215 -0.5677 -1.0092  0.2567
  553MOL0     C76192   3.071   1.603   0.099  0.8793 -0.9809  0.3432
  553MOL0     N76193   3.035   1.736   0.043 -0.6235 -0.1239  0.2822
  553MOL0     C76194   3.111   1.819  -0.022  0.4583 -0.5023 -0.5636
  553MOL0     C76195   3.042   1.932  -0.042 -0.4907  0.2176  0.3165
  553MOL0     C76196   3.099   2.064  -0.105 -0.1917  1.0266  0.3124
  553MOL0     C76197   3.026   2.110  -0.234 -0.2378 -0.4799 -0.0873
  553MOL0     C76198   3.092   2.240  -0.293  0.4157 -0.4301  0.9355
  553MOL0     C76199   3.026   2.363  -0.236  1.1613 -0.6127 -1.1669
  553MOL0     O76200   3.084   2.479  -0.298 -0.1429 -0.2737  0.3096
  553MOL0     C76201   3.041   2.601  -0.264  0.3750 -0.0209  0.0195
  553MOL0     C76202   3.081   2.689  -0.364  0.4489 -0.0816 -0.6457
  553MOL0     C76203   3.036   2.823  -0.361  0.4136  0.3162  1.4296
  553MOL0     C76204   3.068   2.895  -0.491 -0.8688 -0.0160 -0.1771
  553MOL0     C76205   2.950   2.865  -0.264 -0.3676 -0.7452 -0.0265
  553MOL0     C76206   2.880   2.995  -0.267  0.5194  0.0181  0.6674
  553MOL0     O76207   2.823   3.038  -0.162 -0.6288  0.7605 -1.2336
  553MOL0     C76208   2.745   3.150  -0.148  1.4488  0.6188  0.2110
  553MOL0     C76209   2.602   3.128  -0.144 -0.0611  0.4245  0.5687
  553MOL0     C76210   2.524   3.248  -0.136  0.0490  0.4261 -0.4689
  553MOL0     C76211   2.580   3.368  -0.107 -0.4175 -0.3435  0.0793
  553MOL0     O76212   2.515   3.490  -0.096 -0.0941  0.3977 -0.4043
  553MOL0     C76213   2.374   3.480  -0.048 -0.7220 -0.1536  0.5264
  553MOL0     C76214   2.380   3.454   0.101 -0.7041 -0.5971  0.5047
  553MOL0     C76215   2.455   3.565   0.190 -0.3420 -0.0582  1.0314
  553MOL0     C76216   2.479   3.503   0.338  0.6885  0.3788  0.7266
  553MOL0     C76217   2.548   3.588   0.440 -0.3281  0.0536  0.9015
  553MOL0     C76218   2.701   3.595   0.406  0.0262 -0.0098 -1.0986
  553MOL0     C76219   2.771   3.685   0.516  0.4890  0.4362 -0.4629
  553MOL0     C76220   2.772   3.655   0.672  0.6776  0.3759  0.1207
  553MOL0    Cl76221   2.784   3.804   0.756  0.2786  0.1156 -0.0617
  553MOL0     C76222   2.721   3.384  -0.098  0.2192  0.9207  0.3483
  553MOL0     C76223   2.802   3.279  -0.123  0.3587 -0.6662  0.6714
  553MOL0     O76224   2.868   3.046  -0.379  1.2625 -0.1055 -0.2887
  553MOL0     C76225   2.922   2.777  -0.162  0.4382  0.9167  0.0192
  553MOL0     C76226   2.967   2.644  -0.157 -0.0180 -1.2749 -0.5262
  553MOL0     N76227   2.915   1.916   0.008 -0.2748  1.1028 -0.6383
  553MOL0     N76228   2.912   1.796   0.060  0.5852  0.4028 -0.2320
  553MOL0     C76229   4.096   1.738   0.395  0.2279  0.5816 -0.3372
  553MOL0     C76230   4.225   1.766   0.435  0.3866  0.2600  0.9147
  553MOL0     C76231   4.604   1.923   0.619  0.9490  0.2893 -0.3687
  553MOL0     C76232   4.591   1.900   0.757 -0.4677 -1.0473 -0.9372
  553MOL0     C76233   4.694   1.941   0.842  0.9698  0.2413  0.1713
  553MOL0     C76234   4.814   1.999   0.799 -0.2619 -0.1466 -0.2639
  553MOL0     O76235   4.915   2.050   0.881 -0.0103  0.8538  0.7815
  553MOL0     C76236   4.903   2.032   1.024  0.5014 -0.0587  0.4068
  553MOL0     C76237   4.972   1.905   1.071  0.0084 -0.2335  0.5732
  553MOL0     C76238   4.970   1.882   1.218 -0.3638 -0.3451 -0.0657
  553MOL0     C76239   5.032   1.749   1.256 -0.1142 -0.1279 -0.1912
  553MOL0     C76240   5.180   1.750   1.245  0.2282 -0.0550  0.3667
  553MOL0     C76241   5.303   1.762   1.225  0.8131 -0.0212 -0.8634
  553MOL0     C76242   4.827   2.020   0.664  0.8693 -0.4373  0.9133
  553MOL0     C76243   4.725   1.987   0.570 -0.4482 -0.4078 -1.1047
  553MOL0     C76244   4.737   2.028   0.423 -0.3088  0.1200 -0.3302
  553MOL0     H76245   4.132   1.980   0.686  1.9434 -2.8749  2.9686
  553MOL0     H76246   3.912   1.929   0.600  0.1152  1.3291 -1.5258
  553MOL0     H76247   3.855   1.922   0.276  1.3613 -1.7689  1.6662
  553MOL0     H76248   3.766   1.951   0.425  1.8915 -1.3863  2.2757
  553MOL0     H76249   3.605   1.922   0.253  1.6667  0.7038 -0.4329
  553MOL0     H76250   3.670   1.758   0.207  0.0031 -2.5523  1.7055
  553MOL0     H76251   3.617   1.654   0.409 -1.0936 -0.4771 -0.4783
  553MOL0     H76252   3.566   1.796   0.496  0.6385 -4.6369  2.1679
  553MOL0     H76253   3.365   1.737   0.438  1.7919  4.9033  2.9987
  553MOL0     H76254   3.409   1.816   0.279 -0.7409  1.0493  2.0178
  553MOL0     H76255   3.402   1.532   0.351 -2.7001  1.7182  1.8603
  553MOL0     H76256   3.511   1.583   0.222 -0.5559 -2.1656 -0.0245
  553MOL0     H76257   3.339   1.692   0.087 -0.3329 -0.2227 -0.6565
  553MOL0     H76258   3.317   1.513   0.110  0.2208 -1.9893  3.1761
  553MOL0     H76259   3.152   1.710   0.267  3.3444 -0.8464  1.6922
  553MOL0     H76260   3.171   1.529   0.281  1.5164 -0.8177  0.5701
  553MOL0     H76261   3.107   1.535   0.020  0.5150 -2.6708  1.5687
  553MOL0     H76262   2.974   1.565   0.131 -0.3703  0.9234 -1.0094
  553MOL0     H76263   3.212   1.800  -0.056  1.1434 -1.1828  1.7034
  553MOL0     H76264   3.206   2.072  -0.122 -0.2641  5.4522  0.8122
  553MOL0     H76265   3.079   2.140  -0.029 -3.4146 -0.4246  1.0856
  553MOL0     H76266   3.028   2.019  -0.294  1.2169 -0.5558  0.0590
  553MOL0     H76267   2.922   2.133  -0.208  0.9807  1.8487  3.3381
  553MOL0     H76268   3.194   2.245  -0.255  0.0779 -1.0739  1.9610
  553MOL0     H76269   3.090   2.234  -0.402 -2.1133  0.4591  0.8579
  553MOL0     H76270   2.922   2.366  -0.269  1.5331  1.8089 -2.3115
  553MOL0     H76271   3.030   2.375  -0.128 -3.5652 -0.1004 -0.8647
  553MOL0     H76272   3.133   2.648  -0.449  0.4557 -1.2997 -0.0755
  553MOL0     H76273   3.154   2.839  -0.532 -0.2578 -0.4604  1.6390
  553MOL0     H76274   3.092   3.000  -0.471  3.2675 -0.7881 -0.1560
  553MOL0     H76275   2.979   2.879  -0.553  0.2578 -0.3079 -1.7921
  553MOL0     H76276   2.556   3.030  -0.151  2.5268 -0.8696  0.4614
  553MOL0     H76277   2.417   3.230  -0.146 -0.8510  2.2316  3.8449
  553MOL0     H76278   2.333   3.581  -0.063 -0.7863 -0.1707  0.5864
  553MOL0     H76279   2.309   3.404  -0.093  0.4243 -0.5399 -0.5210
  553MOL0     H76280   2.273   3.455   0.123 -1.3292  2.5577 -1.8562
  553MOL0     H76281   2.421   3.353   0.108  4.1597  0.7738 -3.1811
  553MOL0     H76282   2.409   3.664   0.190  1.9254  1.1268 -1.6323
  553MOL0     H76283   2.552   3.584   0.144 -1.3953  2.3189 -0.3717
  553MOL0     H76284   2.526   3.405   0.333 -0.4948 -0.2065  0.5673
  553MOL0     H76285   2.378   3.498   0.379 -0.4345 -0.1493 -1.8886
  553MOL0     H76286   2.497   3.684   0.436 -0.6477  0.0050  2.7174
  553MOL0     H76287   2.532   3.542   0.538 -0.6407 -2.4209 -0.2243
  553MOL0     H76288   2.726   3.619   0.303  0.7517 -3.1746 -1.7655
  553MOL0     H76289   2.733   3.492   0.422 -1.4931 -0.8766 -3.2241
  553MOL0     H76290   2.700   3.766   0.499 -0.9040 -0.7031 -0.2101
  553MOL0     H76291   2.872   3.716   0.488  1.1490 -0.4861  0.8127
  553MOL0     H76292   2.854   3.589   0.700  0.9155  0.4711 -0.3486
  553MOL0     H76293   2.682   3.601   0.703 -1.3989  1.6721 -3.0638
  553MOL0     H76294   2.765   3.476  -0.062  0.5015  0.0119  2.5024
  553MOL0     H76295   2.910   3.292  -0.132  0.1953 -0.1812 -0.9602
  553MOL0     H76296   2.846   2.811  -0.092 -3.5599 -0.8838 -3.0185
  553MOL0     H76297   2.932   2.569  -0.087  1.0192 -1.5135 -0.2361
  553MOL0     H76298   4.090   1.662   0.318 -0.6425  3.0252 -2.8519
  553MOL0     H76299   4.309   1.713   0.390  1.3718  1.2915  1.5013
  553MOL0     H76300   4.500   1.868   0.807 -0.2647  1.5556  1.3272
  553MOL0     H76301   4.674   1.924   0.947 -0.8689 -2.8486 -0.5576
  553MOL0     H76302   4.939   2.117   1.083  1.9428 -1.7406  2.0443
  553MOL0     H76303   4.809   2.014   1.078  0.1372  3.4072  1.1744
  553MOL0     H76304   5.078   1.902   1.044  0.1831 -3.1477  1.2285
  553MOL0     H76305   4.920   1.818   1.031 -1.2055 -0.0307  1.6379
  553MOL0     H76306   5.030   1.954   1.275  2.4969 -1.9779 -0.7611
  553MOL0     H76307   4.867   1.890   1.253 -0.8114 -0.5379 -1.2923
  553MOL0     H76308   4.984   1.671   1.196  0.3421 -0.9107  0.4469
  553MOL0     H76309   5.001   1.724   1.358 -0.9279 -4.1808 -1.2545
  553MOL0     H76310   5.408   1.782   1.221  1.3474 -1.3017  3.0781
  553MOL0     H76311   4.916   2.079   0.645 -0.9331  1.8180 -1.0138
  553MOL0     H76312   4.756   1.934   0.370 -3.0753 -0.3422 -0.6698
  553MOL0     H76313   4.656   2.084   0.375  1.0308  0.9034 -1.7476
  553MOL0     H76314   4.824   2.094   0.415  0.3449 -0.5333  1.0185
  554MOL0     O76315  10.419   4.085  10.414 -0.7518 -0.8172  1.3888
  554MOL0     C76316  10.453   4.095  10.294 -1.0752 -0.2069 -1.1802
  554MOL0     O76317  10.523   3.998  10.230  0.0669 -0.4782 -0.1253
  554MOL0     C76318  10.590   3.903  10.303 -0.0365  0.9860  0.2834
  554MOL0     C76319  10.681   3.929  10.413  0.9682  0.3077 -0.2517
  554MOL0     C76320  10.748   3.823  10.484  0.0003 -0.5351  0.3489
  554MOL0     C76321  10.712   3.690  10.457  0.1791 -0.7455 -0.5476
  554MOL0     O76322  10.788   3.597  10.534 -0.1809 -0.3791 -0.7337
  554MOL0     C76323  10.844   3.486  10.461  0.1662  0.5571 -1.0233
  554MOL0     C76324  10.979   3.447  10.508  0.0333  0.8758  0.0142
  554MOL0     C76325  10.978   3.440  10.658  1.0736  0.1653 -0.0341
  554MOL0     C76326  11.104   3.372  10.707 -0.1992  1.1477 -0.8212
  554MOL0     C76327  11.060   3.320  10.850 -0.1995 -0.7143 -0.0922
  554MOL0     C76328  11.174   3.241  10.931  0.9385  1.2962 -0.0977
  554MOL0     C76329  11.142   3.216  11.081  0.1584 -0.3717 -0.1115
  554MOL0     C76330  11.230   3.110  11.157  0.1330 -0.3176  0.6809
  554MOL0     N76331  11.371   3.148  11.143  0.1619 -0.4323  0.4663
  554MOL0     C76332  11.463   3.074  11.079  0.0742 -0.7251  0.3874
  554MOL0     C76333  11.575   3.147  11.082  0.5160 -0.2818 -0.0254
  554MOL0     C76334  11.706   3.112  11.026  0.0732  0.0273  0.5282
  554MOL0     C76335  11.815   3.136  11.121 -0.5414  0.1018 -0.6660
  554MOL0     C76336  11.818   3.037  11.240  0.0054 -1.1428 -0.3701
  554MOL0     C76337  11.872   3.110  11.367 -0.4014  0.2860  0.1175
  554MOL0     O76338  12.003   3.168  11.336 -0.0199  0.7696 -0.0015
  554MOL0     C76339  12.070   3.250  11.418 -0.3903 -0.0089 -0.4408
  554MOL0     C76340  12.152   3.337  11.359  0.5666  0.1993  0.1688
  554MOL0     C76341  12.230   3.433  11.436  0.0607  0.5899  0.9242
  554MOL0     C76342  12.305   3.536  11.363 -0.6404  0.2249  0.3874
  554MOL0     C76343  12.220   3.416  11.575  0.0414 -0.0182 -0.1538
  554MOL0     C76344  12.280   3.514  11.666  0.3525  0.8152  0.3181
  554MOL0     O76345  12.217   3.519  11.788  0.4323 -0.7020 -0.2985
  554MOL0     C76346  12.281   3.577  11.899 -0.3136 -1.0295 -0.7213
  554MOL0     C76347  12.202   3.649  11.989 -0.5176 -0.8675  0.1773
  554MOL0     C76348  12.276   3.737  12.077 -1.0449  0.0660 -0.1023
  554MOL0     C76349  12.409   3.736  12.092 -1.6028  0.3929  0.1064
  554MOL0     O76350  12.467   3.831  12.173 -0.0527  0.5802 -0.2002
  554MOL0     C76351  12.607   3.861  12.176  0.0183 -0.7729 -0.2092
  554MOL0     C76352  12.617   3.967  12.288 -0.1238 -0.4782  0.7926
  554MOL0     C76353  12.760   3.981  12.331 -0.2844 -0.0203  0.2475
  554MOL0     C76354  12.770   4.090  12.447  0.8564  0.6109 -0.1576
  554MOL0     C76355  12.918   4.074  12.498 -0.8551  0.5179 -0.7893
  554MOL0     C76356  13.011   4.170  12.424  0.0172 -0.1941  0.0722
  554MOL0     C76357  13.125   4.212  12.522 -0.5836  0.6518  0.1923
  554MOL0     C76358  13.215   4.310  12.445  0.4173  0.3517  0.3228
  554MOL0    Cl76359  13.137   4.472  12.404  0.7434 -0.8349 -0.4999
  554MOL0     C76360  12.481   3.641  12.016 -0.6030  0.4955 -0.6399
  554MOL0     C76361  12.424   3.571  11.918  0.9089  0.4392  0.2408
  554MOL0     O76362  12.381   3.567  11.637  0.0538 -0.1573 -0.3245
  554MOL0     C76363  12.139   3.323  11.639 -0.4100 -0.4580 -0.5215
  554MOL0     C76364  12.063   3.244  11.555  0.0377  0.7799 -0.6703
  554MOL0     N76365  11.543   3.266  11.157 -0.9323  0.2557  0.0191
  554MOL0     N76366  11.422   3.266  11.202 -0.2795 -0.7921  0.0276
  554MOL0     C76367  10.626   3.664  10.348 -0.8463 -0.1750  0.7360
  554MOL0     C76368  10.566   3.759  10.265  0.1530  0.3563 -0.4524
  554MOL0     C76369  10.419   4.223  10.219 -0.2737  0.3682 -0.4470
  554MOL0     C76370  10.456   4.223  10.084 -0.7406 -0.3667  0.1792
  554MOL0     C76371  10.434   4.336  10.010 -0.1694  0.1546 -0.2863
  554MOL0     C76372  10.383   4.454  10.064  0.1257  1.1145  0.6144
  554MOL0     O76373  10.366   4.574   9.997 -0.2699  0.6450 -0.0345
  554MOL0     C76374  10.316   4.563   9.863 -0.6834  0.0125 -0.1342
  554MOL0     C76375  10.157   4.557   9.854 -0.3635 -0.5515  0.2117
  554MOL0     C76376  10.120   4.697   9.806  0.1998 -0.0761  0.1011
  554MOL0     C76377   9.973   4.727   9.822  0.0841 -0.1522 -0.2125
  554MOL0     C76378   9.913   4.808   9.717 -0.1407  0.1789  0.3307
  554MOL0     C76379   9.879   4.860   9.618 -0.7471 -0.0045 -0.6398
  554MOL0     C76380  10.358   4.461  10.196  0.4939  0.0296  0.3688
  554MOL0     C76381  10.361   4.344  10.276  0.2652  0.6054  0.9360
  554MOL0     C76382  10.325   4.372  10.423  0.1177 -0.5787 -0.9866
  554MOL0     H76383  10.693   4.030  10.450 -1.0377 -0.5607  3.3241
  554MOL0     H76384  10.823   3.854  10.556  0.4801 -2.0783  0.5429
  554MOL0     H76385  10.865   3.508  10.356 -0.4598  0.4194 -1.1792
  554MOL0     H76386  10.778   3.400  10.472  2.0380 -1.0554 -1.7338
  554MOL0     H76387  11.002   3.347  10.469 -0.9723  0.5790  0.1617
  554MOL0     H76388  11.067   3.507  10.483  0.2038  1.1660  1.2643
  554MOL0     H76389  10.974   3.541  10.698  0.3626  0.3052 -0.4359
  554MOL0     H76390  10.888   3.392  10.698  1.2692  0.3465  0.6223
  554MOL0     H76391  11.129   3.292  10.636 -2.9363  0.0802 -0.7235
  554MOL0     H76392  11.192   3.436  10.714 -0.1689  0.9974  0.4981
  554MOL0     H76393  10.973   3.252  10.851 -0.3524 -0.5397  1.4503
  554MOL0     H76394  11.031   3.405  10.913 -1.6123 -0.2931 -1.2557
  554MOL0     H76395  11.176   3.151  10.869  1.6563  3.4908 -3.5090
  554MOL0     H76396  11.271   3.290  10.932  2.3781 -1.3443 -0.4586
  554MOL0     H76397  11.039   3.187  11.103 -0.3607  1.6856  0.3907
  554MOL0     H76398  11.163   3.316  11.121  2.4946  1.1047 -4.3866
  554MOL0     H76399  11.204   3.124  11.263  1.2494 -2.1029  1.2366
  554MOL0     H76400  11.216   3.005  11.129  1.9199 -0.2952 -0.4269
  554MOL0     H76401  11.445   2.976  11.035 -1.9681  0.0768 -0.7097
  554MOL0     H76402  11.728   3.166  10.934  0.5655 -3.9711 -1.9191
  554MOL0     H76403  11.705   3.004  11.006 -1.1661 -0.7046  3.9001
  554MOL0     H76404  11.913   3.132  11.072  0.5595  3.0813  1.0302
  554MOL0     H76405  11.800   3.236  11.162 -0.2399 -0.9423  2.1784
  554MOL0     H76406  11.716   3.004  11.262 -0.2256  0.1057  0.5940
  554MOL0     H76407  11.872   2.943  11.228  1.5961 -0.4605  0.9851
  554MOL0     H76408  11.810   3.196  11.389 -1.0247  0.3540 -1.7216
  554MOL0     H76409  11.882   3.049  11.457  2.4217 -1.2703 -1.0835
  554MOL0     H76410  12.165   3.332  11.251 -4.1223 -1.7373 -0.5246
  554MOL0     H76411  12.411   3.524  11.341 -0.2058  2.3299  1.1299
  554MOL0     H76412  12.296   3.624  11.428  2.7193  1.7651 -0.9995
  554MOL0     H76413  12.264   3.568  11.267  3.1436 -1.1820 -1.9287
  554MOL0     H76414  12.094   3.658  11.985 -0.5919 -2.1426 -1.2934
  554MOL0     H76415  12.212   3.806  12.131 -1.2522  1.6707 -2.2416
  554MOL0     H76416  12.648   3.762  12.197 -1.7622 -2.4571 -3.7171
  554MOL0     H76417  12.649   3.897  12.081  1.0462  2.0403  1.2007
  554MOL0     H76418  12.560   4.056  12.259 -2.0679 -1.0533  2.6086
  554MOL0     H76419  12.561   3.927  12.373 -4.5926  0.4208 -1.4381
  554MOL0     H76420  12.826   4.010  12.248  1.8798  1.3308  2.2950
  554MOL0     H76421  12.788   3.880  12.363 -0.7952  0.2635  1.6426
  554MOL0     H76422  12.705   4.068  12.532  3.3903  0.7458  1.9694
  554MOL0     H76423  12.740   4.186  12.403  1.0349  1.1790  0.9104
  554MOL0     H76424  12.917   4.117  12.599 -0.3855  4.3726 -2.2407
  554MOL0     H76425  12.948   3.969  12.501 -0.9534  0.4714 -1.2987
  554MOL0     H76426  12.966   4.263  12.389  0.5763  0.4241  0.9720
  554MOL0     H76427  13.046   4.123  12.332  1.4778  2.6886 -0.9663
  554MOL0     H76428  13.189   4.127  12.546 -1.2240  0.2516  0.5063
  554MOL0     H76429  13.077   4.250  12.613 -0.4731 -1.9256  1.4397
  554MOL0     H76430  13.243   4.262  12.351 -1.4370  0.6134 -0.4097
  554MOL0     H76431  13.299   4.324  12.514  0.9101 -1.4581  0.1396
  554MOL0     H76432  12.589   3.639  12.024 -0.3382  0.4997 -3.2470
  554MOL0     H76433  12.478   3.504  11.852  0.5161 -2.6372  2.8001
  554MOL0     H76434  12.128   3.315  11.746  2.3176  1.9753  0.0592
  554MOL0     H76435  11.986   3.182  11.600 -2.3309  2.3911 -2.2421
  554MOL0     H76436  10.612   3.559  10.326  1.6158 -0.8224  1.9095
  554MOL0     H76437  10.490   3.732  10.192 -2.3669 -0.6946  2.3254
  554MOL0     H76438  10.508   4.141  10.036  0.7534 -0.9336  2.6022
  554MOL0     H76439  10.473   4.335   9.909 -0.4050 -1.0022 -0.3713
  554MOL0     H76440  10.358   4.642   9.801 -0.6675 -0.4498 -0.7211
  554MOL0     H76441  10.343   4.472   9.808  1.2913 -0.0958  0.9025
  554MOL0     H76442  10.123   4.540   9.957  0.4863  1.2863  0.8305
  554MOL0     H76443  10.129   4.470   9.794  2.4050 -0.4115 -1.4190
  554MOL0     H76444  10.176   4.766   9.871 -0.5254 -1.3832  2.2109
  554MOL0     H76445  10.150   4.720   9.703  0.8665  0.3842  0.3858
  554MOL0     H76446   9.956   4.783   9.914  1.7231  1.9019 -1.0804
  554MOL0     H76447   9.924   4.629   9.829 -2.2013  0.7430 -2.2175
  554MOL0     H76448   9.847   4.910   9.529  3.2699 -0.6284 -2.6824
  554MOL0     H76449  10.312   4.549  10.239  1.4629  0.5911  0.2876
  554MOL0     H76450  10.409   4.356  10.491 -0.6104 -3.4200 -0.6254
  554MOL0     H76451  10.275   4.466  10.445  3.6234  1.1629  0.2644
  554MOL0     H76452  10.255   4.291  10.448  0.9838 -1.1210 -0.2130
  555MOL0     O76453   1.066   4.169   9.784 -0.5458  0.4278  0.6707
  555MOL0     C76454   1.031   4.174   9.905 -0.6499 -0.0438  0.0312
  555MOL0     O76455   1.066   4.275   9.988  0.4095 -0.2333 -0.5810
  555MOL0     C76456   1.110   4.390   9.924  0.1499  0.5769 -0.4460
  555MOL0     C76457   1.033   4.502   9.954  0.4237  0.0890  0.5477
  555MOL0     C76458   1.067   4.620   9.888  0.2486 -0.2059 -0.6427
  555MOL0     C76459   1.167   4.633   9.788 -0.2872  0.1422  0.4010
  555MOL0     O76460   1.187   4.750   9.720  0.4043 -0.8095 -1.5096
  555MOL0     C76461   1.196   4.864   9.809 -0.3808  0.5210  0.8356
  555MOL0     C76462   1.302   4.959   9.757 -0.5485  0.7250 -0.6281
  555MOL0     C76463   1.338   5.050   9.870 -0.8110 -0.0973 -0.0460
  555MOL0     C76464   1.466   5.124   9.842  0.2063 -0.1349 -0.1513
  555MOL0     C76465   1.480   5.248   9.934  0.4879 -0.3167  0.4604
  555MOL0     C76466   1.540   5.192  10.065  0.4748  0.0301  0.0552
  555MOL0     C76467   1.689   5.192  10.073  0.3170 -0.4272 -0.1128
  555MOL0     C76468   1.751   5.131  10.204  0.2162  0.2298  0.2016
  555MOL0     N76469   1.712   5.218  10.318 -0.5965 -0.0393 -0.9571
  555MOL0     C76470   1.680   5.181  10.445 -0.0184  0.1525  0.9069
  555MOL0     C76471   1.658   5.293  10.505  0.3878  0.7206  0.6020
  555MOL0     C76472   1.607   5.314  10.645 -0.1854 -0.0503 -0.1713
  555MOL0     C76473   1.666   5.208  10.746  0.2356  1.0859 -0.2419
  555MOL0     C76474   1.569   5.181  10.860  0.3828  0.3654  0.3332
  555MOL0     C76475   1.472   5.078  10.794 -0.0780 -0.5625  0.7151
  555MOL0     O76476   1.370   5.027  10.889 -0.8670 -0.5342  0.4049
  555MOL0     C76477   1.278   5.112  10.945  0.4843  0.7189 -0.6993
  555MOL0     C76478   1.171   5.176  10.880 -0.6244 -0.3895 -0.1973
  555MOL0     C76479   1.072   5.238  10.951 -0.0261 -0.4785 -0.6675
  555MOL0     C76480   0.965   5.307  10.871 -0.4072  0.2970  0.6040
  555MOL0     C76481   1.083   5.265  11.086  0.8787  0.2361  0.4659
  555MOL0     C76482   0.976   5.324  11.165  0.9630  0.6027  0.5050
  555MOL0     O76483   1.023   5.440  11.225  0.5754  0.2137  0.2913
  555MOL0     C76484   0.929   5.512  11.299  0.2767  0.0271 -0.1397
  555MOL0     C76485   0.891   5.639  11.260  0.8092 -0.8918  0.3538
  555MOL0     C76486   0.790   5.708  11.324 -0.1631 -0.5397  0.4273
  555MOL0     C76487   0.719   5.652  11.432  0.4806 -0.0189 -0.8342
  555MOL0     O76488   0.611   5.720  11.482  0.0200 -0.8797 -0.4464
  555MOL0     C76489   0.638   5.780  11.608  0.4394 -0.3458 -0.1971
  555MOL0     C76490   0.520   5.851  11.655 -0.1791 -0.1869  0.3700
  555MOL0     C76491   0.533   5.927  11.787 -0.6261 -0.2203  0.3565
  555MOL0     C76492   0.403   5.989  11.828 -0.0276  0.4958 -0.5378
  555MOL0     C76493   0.397   6.072  11.950 -0.1540 -0.3676 -1.5231
  555MOL0     C76494   0.487   6.198  11.961  0.2450 -0.4364 -0.1224
  555MOL0     C76495   0.420   6.295  12.063  0.2861 -1.1949  0.2045
  555MOL0     C76496   0.288   6.360  12.012 -0.2298  0.1560 -0.0443
  555MOL0    Cl76497   0.255   6.506  12.110 -0.0206  0.3313 -0.1146
  555MOL0     C76498   0.763   5.532  11.484 -0.2699  0.4089 -0.0840
  555MOL0     C76499   0.865   5.460  11.416 -0.2769 -0.5708 -0.2740
  555MOL0     O76500   0.861   5.287  11.168  0.6327 -0.7069 -0.7979
  555MOL0     C76501   1.198   5.224  11.153  0.7157  0.1210  0.6718
  555MOL0     C76502   1.300   5.149  11.080  0.0810 -0.4509 -0.3191
  555MOL0     N76503   1.664   5.401  10.418  0.1900 -0.1279 -0.1668
  555MOL0     N76504   1.702   5.357  10.305  0.3309  0.2223 -0.0628
  555MOL0     C76505   1.242   4.525   9.767 -0.3784  0.5504  0.0342
  555MOL0     C76506   1.220   4.405   9.830  0.1563 -0.4085  0.7497
  555MOL0     C76507   0.969   4.057   9.960  0.1331  0.0979 -0.3704
  555MOL0     C76508   0.987   3.933   9.893  0.2899  0.6657  0.3920
  555MOL0     C76509   0.918   3.818   9.930  0.6047 -0.8817  0.0966
  555MOL0     C76510   0.830   3.820  10.037  0.3395 -0.6461 -0.8498
  555MOL0     O76511   0.731   3.722  10.040 -0.3826  0.0927  0.2316
  555MOL0     C76512   0.597   3.771  10.021  0.9425 -0.8286 -0.3148
  555MOL0     C76513   0.510   3.671   9.946  0.0371  0.1314 -0.0388
  555MOL0     C76514   0.522   3.687   9.792 -0.1589  0.4562 -0.0924
  555MOL0     C76515   0.448   3.577   9.714 -0.1129 -0.5888 -0.1673
  555MOL0     C76516   0.456   3.599   9.566  0.3139  0.0913  0.4186
  555MOL0     C76517   0.462   3.601   9.439 -0.0973  0.2760 -0.1540
  555MOL0     C76518   0.811   3.941  10.112 -0.0118  0.3306  0.4833
  555MOL0     C76519   0.881   4.056  10.079 -0.2034  0.0933 -0.1491
  555MOL0     C76520   0.855   4.177  10.163  0.6069 -0.5350  0.6618
  555MOL0     H76521   0.957   4.508  10.031  0.4552  0.0828  0.5798
  555MOL0     H76522   1.006   4.702   9.924  0.7446 -0.6468  1.2855
  555MOL0     H76523   1.204   4.831   9.913 -0.9883 -2.0952  0.1320
  555MOL0     H76524   1.101   4.919   9.801 -2.2025 -2.7004 -1.8729
  555MOL0     H76525   1.386   4.901   9.718 -0.8223  0.7528 -1.2766
  555MOL0     H76526   1.256   4.999   9.666 -4.6687  0.3301  1.0738
  555MOL0     H76527   1.252   5.117   9.872 -1.3998 -0.8427  0.1794
  555MOL0     H76528   1.333   5.000   9.967 -1.5198  1.6765  0.8732
  555MOL0     H76529   1.552   5.059   9.859 -0.0756  0.0076  2.1597
  555MOL0     H76530   1.455   5.149   9.736 -1.4367 -1.5914 -0.3714
  555MOL0     H76531   1.378   5.284   9.955 -0.2388 -3.0973  2.1101
  555MOL0     H76532   1.539   5.328   9.887 -1.2312 -0.6174 -2.4980
  555MOL0     H76533   1.498   5.260  10.139 -2.7421 -1.5961 -0.0652
  555MOL0     H76534   1.501   5.091  10.081  0.3659 -0.2482 -1.7012
  555MOL0     H76535   1.741   5.286  10.050  3.0248 -2.5283 -3.7027
  555MOL0     H76536   1.726   5.128   9.992  1.2293  1.0987 -0.9417
  555MOL0     H76537   1.712   5.030  10.214  1.9292 -0.5542 -0.7015
  555MOL0     H76538   1.859   5.146  10.212 -0.3102  3.9747  4.3610
  555MOL0     H76539   1.674   5.084  10.493  1.2581 -0.9563 -1.0491
  555MOL0     H76540   1.499   5.300  10.641 -0.1169 -0.9200  0.5827
  555MOL0     H76541   1.633   5.415  10.680  1.2395 -0.4655  0.0704
  555MOL0     H76542   1.711   5.116  10.709 -1.0731  0.3798 -0.1561
  555MOL0     H76543   1.748   5.260  10.797 -1.8276  2.4864  1.8968
  555MOL0     H76544   1.621   5.130  10.942 -0.2510 -1.4974 -0.3736
  555MOL0     H76545   1.515   5.268  10.898  0.3806 -0.6538  2.9210
  555MOL0     H76546   1.425   5.120  10.704 -1.1803  1.3666  2.1109
  555MOL0     H76547   1.529   4.990  10.764 -0.8822 -0.1269 -2.4291
  555MOL0     H76548   1.164   5.163  10.773  1.2903  0.7825 -0.5135
  555MOL0     H76549   0.990   5.410  10.843 -3.9987  1.4508  1.1050
  555MOL0     H76550   0.866   5.303  10.919 -0.3343  0.8853  0.8045
  555MOL0     H76551   0.955   5.260  10.773  2.2509  1.7526 -0.4686
  555MOL0     H76552   0.937   5.675  11.168  2.1294  2.1898  2.0643
  555MOL0     H76553   0.742   5.799  11.290 -2.0515 -1.1763  1.2686
  555MOL0     H76554   0.650   5.711  11.692  1.2192  1.0029  0.8622
  555MOL0     H76555   0.720   5.852  11.596  0.7277 -0.7871 -0.9504
  555MOL0     H76556   0.493   5.922  11.576  2.0842  1.4719  0.9824
  555MOL0     H76557   0.439   5.778  11.656  1.3513 -1.9618  1.9997
  555MOL0     H76558   0.608   6.007  11.782 -1.2049  0.2894 -0.3784
  555MOL0     H76559   0.558   5.847  11.857 -0.3809 -2.1520 -1.8308
  555MOL0     H76560   0.342   5.900  11.849  0.2196  0.1384 -1.2851
  555MOL0     H76561   0.379   6.050  11.741  0.4156 -2.0120 -2.5626
  555MOL0     H76562   0.290   6.097  11.956 -0.1546 -0.6695  1.7266
  555MOL0     H76563   0.409   6.012  12.041 -0.1643 -0.1355 -1.3668
  555MOL0     H76564   0.481   6.255  11.867 -1.3053 -0.3042  0.0343
  555MOL0     H76565   0.591   6.182  11.991  0.3593  2.9592  1.7967
  555MOL0     H76566   0.498   6.371  12.076  0.1132 -1.0581  0.4367
  555MOL0     H76567   0.404   6.249  12.161  5.6743  0.0932  2.0631
  555MOL0     H76568   0.208   6.285  12.018  0.7001 -0.8745 -0.2748
  555MOL0     H76569   0.296   6.396  11.909  1.7082 -0.6044 -0.1985
  555MOL0     H76570   0.728   5.491  11.578 -1.5196  2.8111  0.6021
  555MOL0     H76571   0.899   5.361  11.445  1.9739 -0.3446 -1.8657
  555MOL0     H76572   1.212   5.251  11.257  1.7544  1.1942  0.2751
  555MOL0     H76573   1.382   5.110  11.139  0.8668  3.2409  1.3011
  555MOL0     H76574   1.329   4.520   9.701 -1.6205 -1.6307 -1.5783
  555MOL0     H76575   1.272   4.318   9.792 -2.0435 -1.6355  0.3479
  555MOL0     H76576   1.054   3.928   9.807  0.9322 -0.2103  0.9208
  555MOL0     H76577   0.920   3.722   9.880 -1.7607 -2.0094  1.9707
  555MOL0     H76578   0.552   3.780  10.120  1.8253  2.5369 -0.1025
  555MOL0     H76579   0.593   3.869   9.972  0.1529  0.0134  1.3470
  555MOL0     H76580   0.403   3.682   9.965  0.0183  1.1178 -0.6767
  555MOL0     H76581   0.559   3.575   9.966  1.8997  0.5499 -2.1332
  555MOL0     H76582   0.494   3.789   9.765  1.0534  0.8409  0.0714
  555MOL0     H76583   0.630   3.683   9.774  0.2703 -3.3326  2.1818
  555MOL0     H76584   0.342   3.585   9.742 -0.1111  0.2846 -0.3968
  555MOL0     H76585   0.480   3.476   9.741  2.0080  0.2388  0.6241
  555MOL0     H76586   0.460   3.618   9.333 -2.1033  1.0270 -0.0494
  555MOL0     H76587   0.733   3.947  10.187  0.7883  2.6171  1.2238
  555MOL0     H76588   0.815   4.253  10.095 -2.0141 -3.3732 -1.2489
  555MOL0     H76589   0.785   4.153  10.244  0.0369  1.0684  0.6790
  555MOL0     H76590   0.949   4.211  10.208  1.2169 -2.3208  0.8120
  556MOL0     O76591   7.345  10.513   6.406 -0.5288 -0.0021 -0.2801
  556MOL0     C76592   7.256  10.592   6.422 -0.4295  0.1981  0.3224
  556MOL0     O76593   7.252  10.677   6.531 -0.4495 -0.4228  0.4781
  556MOL0     C76594   7.358  10.671   6.622 -0.9809 -0.5764 -0.3128
  556MOL0     C76595   7.406  10.546   6.675 -0.7796  0.1046  0.4819
  556MOL0     C76596   7.505  10.549   6.772  1.4804  0.3875 -0.0757
  556MOL0     C76597   7.548  10.671   6.820 -0.3674 -0.4229 -0.0386
  556MOL0     O76598   7.661  10.662   6.902 -0.0911 -0.5510  0.3429
  556MOL0     C76599   7.741  10.779   6.906 -0.9058 -0.7932  0.1211
  556MOL0     C76600   7.867  10.748   6.989  0.0798  0.2724 -0.1597
  556MOL0     C76601   7.947  10.642   6.927 -0.9278  0.6459 -0.0850
  556MOL0     C76602   8.086  10.638   6.979 -0.6967  0.6464 -0.0705
  556MOL0     C76603   8.193  10.562   6.898  0.5165 -0.6444 -0.1043
  556MOL0     C76604   8.337  10.552   6.953  0.5899 -0.1955  0.6861
  556MOL0     C76605   8.444  10.541   6.845 -0.0159 -0.5430  0.0365
  556MOL0     C76606   8.456  10.406   6.778 -0.8045  0.2151 -0.2295
  556MOL0     N76607   8.441  10.421   6.633  0.5798 -0.2994  0.2320
  556MOL0     C76608   8.515  10.511   6.553 -0.3139  0.0170  0.5135
  556MOL0     C76609   8.456  10.506   6.426 -0.4126  0.1242  0.0230
  556MOL0     C76610   8.513  10.584   6.311  0.2136 -0.1272  0.5672
  556MOL0     C76611   8.453  10.719   6.297  0.3162 -0.6350  0.1290
  556MOL0     C76612   8.444  10.795   6.434 -1.0058  0.1305 -0.0665
  556MOL0     C76613   8.413  10.936   6.410  1.0553  0.2313 -0.1896
  556MOL0     O76614   8.537  11.014   6.389 -0.1018  0.4221 -0.0396
  556MOL0     C76615   8.521  11.115   6.301 -1.0056 -1.3147  0.8170
  556MOL0     C76616   8.583  11.116   6.174  0.3688  0.4841 -0.1362
  556MOL0     C76617   8.591  11.238   6.107  0.4633  0.4400 -0.5746
  556MOL0     C76618   8.666  11.238   5.973 -0.9005 -0.9300  0.0521
  556MOL0     C76619   8.522  11.352   6.145  0.4650 -0.2200 -0.2215
  556MOL0     C76620   8.511  11.480   6.076  0.2680  0.3696 -0.1395
  556MOL0     O76621   8.582  11.499   5.960  0.1153  0.2664  0.2020
  556MOL0     C76622   8.619  11.620   5.915 -0.4641  0.0063  0.7905
  556MOL0     C76623   8.609  11.631   5.773  0.9783 -0.4070 -0.3144
  556MOL0     C76624   8.632  11.752   5.705 -0.2527 -0.1977 -0.6777
  556MOL0     C76625   8.661  11.866   5.786 -0.8114 -0.0080  0.2144
  556MOL0     O76626   8.659  11.993   5.729 -0.0277 -1.3044  0.4718
  556MOL0     C76627   8.716  12.112   5.781 -0.0023 -0.5683  0.1125
  556MOL0     C76628   8.690  12.222   5.676  0.5869 -0.1655 -0.1106
  556MOL0     C76629   8.663  12.356   5.742 -0.6219 -0.5285 -0.0604
  556MOL0     C76630   8.797  12.419   5.783 -0.5767 -0.1168  0.3814
  556MOL0     C76631   8.781  12.539   5.877  1.0413  0.2146  0.8929
  556MOL0     C76632   8.917  12.567   5.936 -0.4127  0.0536  0.9906
  556MOL0     C76633   8.903  12.693   6.023  0.6173 -0.4311 -0.3111
  556MOL0     C76634   8.983  12.680   6.153  0.4609  0.0100  0.4082
  556MOL0    Cl76635   8.959  12.821   6.253  0.2668 -0.1978 -0.0571
  556MOL0     C76636   8.687  11.851   5.922  0.4718  0.2933  0.2008
  556MOL0     C76637   8.670  11.727   5.982 -0.2604 -0.4116  0.5360
  556MOL0     O76638   8.446  11.563   6.132  0.1316  0.0847 -0.8471
  556MOL0     C76639   8.460  11.343   6.270 -0.5977 -0.0227  0.0508
  556MOL0     C76640   8.458  11.231   6.346 -0.5427  0.0582  1.0845
  556MOL0     N76641   8.343  10.428   6.429 -0.1097  0.7491 -0.4238
  556MOL0     N76642   8.343  10.381   6.551  1.4415  0.5266  0.3112
  556MOL0     C76643   7.500  10.792   6.777 -0.6758 -0.6984  0.1851
  556MOL0     C76644   7.395  10.793   6.680  0.1732 -0.3398 -0.1586
  556MOL0     C76645   7.150  10.597   6.314  0.4946  1.1618  1.1719
  556MOL0     C76646   7.164  10.500   6.207  0.9352 -0.4552  0.2456
  556MOL0     C76647   7.074  10.499   6.095  0.9708 -0.8546 -0.1182
  556MOL0     C76648   6.965  10.592   6.091 -0.5891  0.3576 -0.2607
  556MOL0     O76649   6.858  10.586   6.007  0.0639  0.3572 -0.0068
  556MOL0     C76650   6.860  10.497   5.890 -0.6053  0.1082  0.0042
  556MOL0     C76651   6.817  10.354   5.935  0.2512 -0.2410 -0.5191
  556MOL0     C76652   6.836  10.253   5.822  0.1407 -0.3456 -0.2463
  556MOL0     C76653   6.788  10.103   5.858  0.0384  0.2542  0.6816
  556MOL0     C76654   6.775  10.021   5.738  0.4591 -0.2754  0.8129
  556MOL0     C76655   6.745   9.951   5.643  1.0483 -1.2855  0.3263
  556MOL0     C76656   6.961  10.680   6.193  0.2817  0.4659 -1.1427
  556MOL0     C76657   7.045  10.688   6.310  0.2789  0.1868 -0.2460
  556MOL0     C76658   7.023  10.805   6.405  0.6955  0.7377 -0.0884
  556MOL0     H76659   7.382  10.446   6.642 -0.2048 -0.4070  1.5618
  556MOL0     H76660   7.549  10.455   6.804  0.9517  0.0324 -0.3807
  556MOL0     H76661   7.690  10.865   6.951 -0.2067  0.1085 -0.7706
  556MOL0     H76662   7.766  10.800   6.802  1.2412 -0.8311  0.5801
  556MOL0     H76663   7.935  10.833   7.004  1.5745 -0.8778 -0.2303
  556MOL0     H76664   7.826  10.703   7.079 -1.3978 -1.3152 -1.5452
  556MOL0     H76665   7.904  10.542   6.921 -0.4698  0.2654  2.0797
  556MOL0     H76666   7.938  10.665   6.820 -4.7729 -0.5543 -0.1837
  556MOL0     H76667   8.122  10.742   6.976 -1.0683  0.7765 -0.1014
  556MOL0     H76668   8.096  10.612   7.084  0.2073 -0.3687 -0.3985
  556MOL0     H76669   8.194  10.597   6.795  1.7366  0.0790  0.1371
  556MOL0     H76670   8.157  10.459   6.885 -0.8807  0.1854 -4.1791
  556MOL0     H76671   8.363  10.642   7.010  4.1093 -1.1613  0.8506
  556MOL0     H76672   8.342  10.464   7.017  2.1926  0.5790  1.7034
  556MOL0     H76673   8.531  10.551   6.912  1.0285 -4.6313 -0.4173
  556MOL0     H76674   8.432  10.626   6.777 -4.0211 -0.6251  0.4323
  556MOL0     H76675   8.531  10.339   6.820 -1.9952  0.1295  1.9183
  556MOL0     H76676   8.368  10.354   6.817  0.2326 -0.7175  0.9614
  556MOL0     H76677   8.594  10.580   6.579  0.1879 -0.8032  1.2078
  556MOL0     H76678   8.512  10.529   6.216 -0.6534  2.9166 -1.3419
  556MOL0     H76679   8.621  10.585   6.322  0.6459  0.4788 -2.6064
  556MOL0     H76680   8.526  10.784   6.249  0.7103  0.3133  1.9547
  556MOL0     H76681   8.359  10.726   6.241  0.8468  0.3202 -0.6887
  556MOL0     H76682   8.368  10.752   6.499 -0.9109  0.0019 -0.0415
  556MOL0     H76683   8.538  10.785   6.490  0.5489 -0.0281 -2.5483
  556MOL0     H76684   8.344  10.944   6.326 -2.8454 -3.1364  2.3273
  556MOL0     H76685   8.352  10.981   6.489  0.5245 -0.5805 -0.1259
  556MOL0     H76686   8.645  11.038   6.131  0.4199  0.6079 -0.2883
  556MOL0     H76687   8.717  11.142   5.957  3.5578  1.2510 -0.5889
  556MOL0     H76688   8.755  11.302   5.976  0.4608 -2.6732 -1.2467
  556MOL0     H76689   8.606  11.255   5.884  0.1470  1.4723 -0.2739
  556MOL0     H76690   8.592  11.547   5.707 -1.3461 -0.6625  0.5017
  556MOL0     H76691   8.618  11.753   5.598 -3.9151 -1.2562 -0.3214
  556MOL0     H76692   8.662  12.131   5.874  1.2950  0.7907  0.6270
  556MOL0     H76693   8.823  12.106   5.802  0.2147  1.3782 -0.3004
  556MOL0     H76694   8.767  12.234   5.600  1.9514  1.5250  1.4668
  556MOL0     H76695   8.590  12.208   5.632  1.3160 -1.5686 -1.4138
  556MOL0     H76696   8.596  12.353   5.828 -1.4455 -3.3837 -0.6761
  556MOL0     H76697   8.602  12.412   5.670  1.3235 -1.4280 -2.5609
  556MOL0     H76698   8.877  12.446   5.713  1.0497 -0.8569  1.8601
  556MOL0     H76699   8.857  12.347   5.840  2.6946  2.6074  0.7249
  556MOL0     H76700   8.732  12.618   5.819  0.3198 -0.2520  0.8579
  556MOL0     H76701   8.707  12.521   5.956 -1.5143 -3.6240 -2.0356
  556MOL0     H76702   8.983  12.594   5.852 -1.1494 -0.3906  0.2551
  556MOL0     H76703   8.957  12.481   5.989  0.6423  1.1894  2.0981
  556MOL0     H76704   8.801  12.698   6.062  1.9226 -2.5960  4.0314
  556MOL0     H76705   8.936  12.783   5.970 -3.9127 -0.0254 -2.9804
  556MOL0     H76706   9.089  12.670   6.128  0.2675  0.5701 -0.6839
  556MOL0     H76707   8.948  12.589   6.203 -0.1277 -0.6465 -1.1333
  556MOL0     H76708   8.714  11.944   5.972  1.5975  0.0855  0.0083
  556MOL0     H76709   8.679  11.713   6.089  0.0205 -0.1502  0.5492
  556MOL0     H76710   8.406  11.428   6.311 -0.8886 -0.1237 -0.1188
  556MOL0     H76711   8.432  11.229   6.452 -1.9209 -0.8603  0.7562
  556MOL0     H76712   7.540  10.886   6.815  2.0775 -1.7659  0.1811
  556MOL0     H76713   7.368  10.884   6.627  0.7731 -0.2363 -0.2895
  556MOL0     H76714   7.246  10.429   6.208  2.6895  1.4253 -1.7682
  556MOL0     H76715   7.077  10.415   6.026 -1.5051 -0.5079 -0.7626
  556MOL0     H76716   6.780  10.531   5.823 -3.2750  0.4007  3.0839
  556MOL0     H76717   6.956  10.492   5.838 -1.7392  1.6564 -2.3909
  556MOL0     H76718   6.713  10.355   5.969  0.1170 -3.4785 -0.4911
  556MOL0     H76719   6.873  10.316   6.021 -0.3714  1.2802  0.5907
  556MOL0     H76720   6.787  10.291   5.732  0.7335  4.0588  1.0255
  556MOL0     H76721   6.942  10.249   5.798  0.3037  1.8465 -0.1424
  556MOL0     H76722   6.697  10.115   5.917 -0.9088  2.6841 -1.0944
  556MOL0     H76723   6.855  10.057   5.932 -0.6498  2.3504  2.7126
  556MOL0     H76724   6.713   9.903   5.553  0.8358 -2.1489  0.8607
  556MOL0     H76725   6.876  10.745   6.209 -2.1211 -3.1043  2.8697
  556MOL0     H76726   7.009  10.751   6.499 -0.2810  1.2129  0.0522
  556MOL0     H76727   7.112  10.867   6.413  2.2754 -1.6501  2.9346
  556MOL0     H76728   6.925  10.850   6.385 -2.2832 -4.6488  0.3623
  557MOL0     O76729  11.531   6.819   6.171  0.2544  0.2961  0.5508
  557MOL0     C76730  11.564   6.719   6.230  0.4229  0.0784 -0.3892
  557MOL0     O76731  11.536   6.595   6.178  0.9063 -0.9203  0.1049
  557MOL0     C76732  11.516   6.577   6.046 -1.6300 -0.2069  0.2808
  557MOL0     C76733  11.392   6.537   5.994  1.1160 -0.3103  0.8117
  557MOL0     C76734  11.380   6.519   5.853 -0.2465 -0.9096 -0.9913
  557MOL0     C76735  11.483   6.535   5.766 -0.6588 -0.1617  0.5162
  557MOL0     O76736  11.450   6.524   5.635 -0.5596  0.2581  0.0278
  557MOL0     C76737  11.545   6.560   5.528  0.3663 -0.6196 -1.0437
  557MOL0     C76738  11.554   6.462   5.411  0.7887 -0.5413 -0.0551
  557MOL0     C76739  11.494   6.321   5.454 -0.5264 -0.4748 -0.4057
  557MOL0     C76740  11.606   6.206   5.487 -0.4868 -0.1498 -0.6682
  557MOL0     C76741  11.548   6.066   5.502 -0.5351 -0.8266  1.0621
  557MOL0     C76742  11.451   6.068   5.622  0.1517 -0.1990 -0.3345
  557MOL0     C76743  11.499   6.132   5.748 -0.1551  0.3386  0.3247
  557MOL0     C76744  11.390   6.104   5.858 -0.0475 -0.3856  0.1662
  557MOL0     N76745  11.428   6.118   5.994 -0.7156 -0.8393 -0.0462
  557MOL0     C76746  11.555   6.146   6.054  0.6324 -0.5399  0.7442
  557MOL0     C76747  11.523   6.202   6.174  0.6361 -0.1242  1.1547
  557MOL0     C76748  11.620   6.258   6.272  0.1644 -0.9796  0.7870
  557MOL0     C76749  11.610   6.163   6.398  0.5333  0.2674  0.0342
  557MOL0     C76750  11.673   6.217   6.525 -1.1091 -0.3121  0.2585
  557MOL0     C76751  11.817   6.246   6.499  0.8117 -0.4951 -0.5133
  557MOL0     O76752  11.883   6.148   6.414  0.6625  0.3295 -0.4283
  557MOL0     C76753  11.932   6.040   6.482 -0.6834  0.8778 -0.2065
  557MOL0     C76754  12.057   6.063   6.549 -1.5301 -0.0425  0.1453
  557MOL0     C76755  12.107   5.951   6.622  0.4160  0.0582  0.0228
  557MOL0     C76756  12.231   5.976   6.699  0.9416 -0.4830  0.0277
  557MOL0     C76757  12.047   5.818   6.617 -0.2678 -0.3229  0.8946
  557MOL0     C76758  12.117   5.693   6.666  0.0659  0.6901  0.7950
  557MOL0     O76759  12.040   5.602   6.712  0.3645 -0.5881  0.3921
  557MOL0     C76760  12.082   5.514   6.808  1.1477 -0.4486 -0.3560
  557MOL0     C76761  12.140   5.558   6.928 -0.6296  0.5064 -0.4363
  557MOL0     C76762  12.201   5.465   7.021 -0.5227  1.1237  0.6063
  557MOL0     C76763  12.183   5.328   6.994 -0.1546  0.9548  0.2638
  557MOL0     O76764  12.239   5.243   7.082 -0.1914 -0.7591  0.5052
  557MOL0     C76765  12.198   5.104   7.077 -0.6581 -0.6560  0.6462
  557MOL0     C76766  12.221   5.052   7.221 -0.2286 -0.3925 -0.1027
  557MOL0     C76767  12.144   5.113   7.341 -0.3496  1.0848  1.0033
  557MOL0     C76768  12.150   5.024   7.463  0.6379 -0.6635  0.0727
  557MOL0     C76769  12.043   4.917   7.467  0.6171 -0.2035  0.0016
  557MOL0     C76770  12.021   4.826   7.584 -0.1757  0.4259  0.5570
  557MOL0     C76771  12.098   4.684   7.590  0.7820  0.7557  0.5987
  557MOL0     C76772  12.084   4.606   7.716  0.5331  0.1152 -0.3847
  557MOL0    Cl76773  12.101   4.697   7.865 -0.2200 -0.0539  0.1559
  557MOL0     C76774  12.097   5.289   6.885 -0.2644 -0.2133  1.0100
  557MOL0     C76775  12.055   5.384   6.789  0.4064  0.8105  0.6266
  557MOL0     O76776  12.235   5.683   6.662 -0.3851 -0.2785  0.3648
  557MOL0     C76777  11.930   5.800   6.535  0.1581  0.1719  1.0958
  557MOL0     C76778  11.869   5.916   6.480 -0.4495 -0.3774  0.5720
  557MOL0     N76779  11.387   6.206   6.193  0.2980 -0.0498 -0.7068
  557MOL0     N76780  11.337   6.164   6.083 -0.3190 -0.7239  0.2188
  557MOL0     C76781  11.618   6.565   5.818  0.9844  0.4054  1.0704
  557MOL0     C76782  11.634   6.589   5.955 -0.4929  1.0190  0.7792
  557MOL0     C76783  11.645   6.710   6.359  0.6594 -0.5493 -0.5575
  557MOL0     C76784  11.747   6.614   6.382  0.3063 -0.3713  0.3579
  557MOL0     C76785  11.831   6.606   6.491  0.4061 -0.1805 -0.6513
  557MOL0     C76786  11.803   6.692   6.603 -0.7825 -0.4898  0.3956
  557MOL0     O76787  11.884   6.703   6.718  0.5279  0.0970  0.8814
  557MOL0     C76788  11.985   6.592   6.740  0.5408 -0.4459  0.0686
  557MOL0     C76789  12.067   6.604   6.866  0.5431  1.1945 -0.1157
  557MOL0     C76790  11.979   6.645   6.991  0.4891 -0.3263  0.1580
  557MOL0     C76791  12.035   6.627   7.133 -0.4937 -0.0679  0.3070
  557MOL0     C76792  12.153   6.714   7.144 -0.8690 -0.1070 -0.2641
  557MOL0     C76793  12.262   6.774   7.167 -0.4805  0.3483 -0.0317
  557MOL0     C76794  11.700   6.776   6.591  0.2501  0.4331 -0.3448
  557MOL0     C76795  11.623   6.802   6.470 -0.7644 -0.4122 -0.5129
  557MOL0     C76796  11.522   6.907   6.464  0.4012  0.3316 -0.2849
  557MOL0     H76797  11.309   6.525   6.063  1.0331 -0.0446  0.7598
  557MOL0     H76798  11.287   6.496   5.802  0.0399 -1.7165 -1.1602
  557MOL0     H76799  11.646   6.582   5.563 -0.6310  3.3237 -0.0741
  557MOL0     H76800  11.520   6.655   5.478  2.2573  0.3158 -0.3240
  557MOL0     H76801  11.505   6.490   5.318  2.7216  2.4933 -0.2870
  557MOL0     H76802  11.662   6.449   5.395  0.8421  0.5273 -0.6236
  557MOL0     H76803  11.409   6.328   5.522 -1.8035 -0.3872 -1.9635
  557MOL0     H76804  11.444   6.282   5.366 -0.9366  1.4109 -1.0626
  557MOL0     H76805  11.669   6.192   5.398 -0.1728 -0.5428 -0.3854
  557MOL0     H76806  11.667   6.232   5.573 -0.4631  1.6351 -1.1791
  557MOL0     H76807  11.634   6.001   5.520 -0.4098 -0.6325  1.1637
  557MOL0     H76808  11.494   6.029   5.414  2.2556 -1.1389 -0.6520
  557MOL0     H76809  11.349   6.103   5.600  1.4096  1.5716 -4.1925
  557MOL0     H76810  11.447   5.963   5.654  1.2348 -0.0776  0.2331
  557MOL0     H76811  11.503   6.241   5.748 -5.9970  0.8680  0.6823
  557MOL0     H76812  11.596   6.095   5.782 -0.1049  2.9682  3.5672
  557MOL0     H76813  11.298   6.161   5.844 -2.0529 -2.8346  2.3565
  557MOL0     H76814  11.344   6.005   5.845 -0.5565 -0.3684  1.5988
  557MOL0     H76815  11.651   6.148   6.003 -0.4284 -3.2444 -1.6559
  557MOL0     H76816  11.583   6.358   6.297 -3.4198 -0.5852 -4.4737
  557MOL0     H76817  11.722   6.266   6.233 -0.9261 -2.0402 -2.6599
  557MOL0     H76818  11.507   6.141   6.427  0.7046  0.5304  0.8544
  557MOL0     H76819  11.639   6.064   6.363 -2.2161 -0.4378 -0.5193
  557MOL0     H76820  11.621   6.304   6.568  2.0278  0.4231  3.0459
  557MOL0     H76821  11.655   6.148   6.608 -0.0615 -1.7477 -0.6666
  557MOL0     H76822  11.826   6.340   6.445  1.0422 -1.4289 -2.1647
  557MOL0     H76823  11.866   6.262   6.596  2.5959 -2.1402 -1.0849
  557MOL0     H76824  12.100   6.163   6.554 -4.1042  1.2624 -1.6129
  557MOL0     H76825  12.215   5.956   6.806 -2.8764 -1.5243 -0.5802
  557MOL0     H76826  12.265   6.080   6.691 -0.4725  0.1232  1.2063
  557MOL0     H76827  12.299   5.908   6.648  0.5467  0.6774 -2.1606
  557MOL0     H76828  12.147   5.662   6.958  0.2747  0.1669  0.5826
  557MOL0     H76829  12.252   5.495   7.112 -0.2723  0.7375  0.5938
  557MOL0     H76830  12.092   5.089   7.052 -0.0382 -2.6250 -1.1507
  557MOL0     H76831  12.257   5.047   7.005 -0.6312  0.8458 -0.5837
  557MOL0     H76832  12.217   4.943   7.228  0.9037 -0.4122  0.3206
  557MOL0     H76833  12.326   5.076   7.237 -0.2138  0.3764 -1.2156
  557MOL0     H76834  12.042   5.143   7.316 -0.6530  0.5911  1.6270
  557MOL0     H76835  12.185   5.210   7.370  3.1240  0.1503 -0.2930
  557MOL0     H76836  12.140   5.097   7.545 -0.3590  0.5721 -1.0934
  557MOL0     H76837  12.238   4.961   7.472  2.7262  1.9057 -0.9346
  557MOL0     H76838  11.944   4.961   7.449  1.5041  1.4686 -1.0604
  557MOL0     H76839  12.046   4.853   7.379  0.2284  2.5935 -2.1870
  557MOL0     H76840  11.915   4.800   7.595  0.3491 -2.1631  0.0666
  557MOL0     H76841  12.056   4.875   7.675  0.8162 -1.2317  1.1114
  557MOL0     H76842  12.200   4.711   7.561  0.2237  2.1449 -0.1779
  557MOL0     H76843  12.058   4.617   7.514  0.7765  0.7912  0.5700
  557MOL0     H76844  12.142   4.514   7.720 -1.9874 -1.6032 -0.8267
  557MOL0     H76845  11.981   4.570   7.708  0.8582 -0.6829 -1.1223
  557MOL0     H76846  12.088   5.185   6.858 -0.3739  0.3232 -1.2845
  557MOL0     H76847  12.005   5.357   6.696  5.2278 -1.9179 -1.5439
  557MOL0     H76848  11.892   5.700   6.513  0.6351 -0.2016  1.9284
  557MOL0     H76849  11.781   5.905   6.416 -0.7055 -2.0528  1.1560
  557MOL0     H76850  11.705   6.600   5.763 -0.5036 -0.1642 -1.8741
  557MOL0     H76851  11.730   6.615   5.998  0.1700  1.9810 -1.1900
  557MOL0     H76852  11.774   6.552   6.298  2.6077  1.5327 -0.3846
  557MOL0     H76853  11.920   6.546   6.481  1.8403  1.3566  1.8182
  557MOL0     H76854  11.938   6.494   6.742 -1.3436  0.3854 -0.9249
  557MOL0     H76855  12.053   6.573   6.656  1.6489 -1.3684  1.1396
  557MOL0     H76856  12.153   6.670   6.855  2.1572 -0.8096 -0.2226
  557MOL0     H76857  12.123   6.513   6.890  1.1841  1.1482 -1.6642
  557MOL0     H76858  11.931   6.740   6.968  0.1424 -0.5617 -0.0900
  557MOL0     H76859  11.893   6.578   6.982 -0.6437  0.9092  1.3892
  557MOL0     H76860  12.071   6.527   7.159  0.0254 -0.0018 -0.1407
  557MOL0     H76861  11.971   6.666   7.213  0.5856  1.4948  0.4554
  557MOL0     H76862  12.353   6.824   7.192  0.1898 -0.5527 -0.5931
  557MOL0     H76863  11.676   6.825   6.685 -0.4575 -2.3852  1.0547
  557MOL0     H76864  11.428   6.852   6.465  1.3617 -1.3556 -0.2664
  557MOL0     H76865  11.530   6.970   6.554 -2.2978 -0.8622  0.9044
  557MOL0     H76866  11.532   6.960   6.369 -2.9090  2.7802  0.5642
  558MOL0     O76867   8.504   1.378   9.526  0.8287  0.1823  0.9196
  558MOL0     C76868   8.550   1.316   9.622 -1.1160 -0.1849 -0.1312
  558MOL0     O76869   8.685   1.322   9.651  0.9157 -0.4534 -0.0944
  558MOL0     C76870   8.771   1.390   9.571 -0.0235 -0.1701 -0.8641
  558MOL0     C76871   8.759   1.529   9.543  0.0465  0.5718 -0.3177
  558MOL0     C76872   8.858   1.590   9.473 -0.4321  0.2018  1.2733
  558MOL0     C76873   8.970   1.515   9.425 -0.1408  1.1000  0.0410
  558MOL0     O76874   9.070   1.569   9.346 -0.1883  0.2880  0.2294
  558MOL0     C76875   9.058   1.707   9.308  0.6737 -0.6883 -0.2732
  558MOL0     C76876   9.151   1.731   9.201  0.0717  0.2918  1.3481
  558MOL0     C76877   9.293   1.701   9.249 -0.6300 -0.3073  0.6702
  558MOL0     C76878   9.397   1.744   9.140  0.0096 -0.2699  0.1996
  558MOL0     C76879   9.530   1.756   9.207 -0.6830  0.0847  1.3097
  558MOL0     C76880   9.590   1.626   9.272  0.1866  0.3401  0.1325
  558MOL0     C76881   9.741   1.616   9.258 -0.8296  0.0763  0.0242
  558MOL0     C76882   9.780   1.566   9.115 -0.0564 -0.1006  1.3591
  558MOL0     N76883   9.901   1.631   9.058 -0.1742 -1.0414  0.8253
  558MOL0     C76884  10.027   1.614   9.099 -0.5808 -0.2736 -0.3511
  558MOL0     C76885  10.108   1.685   9.012 -0.3846  0.5765 -0.8001
  558MOL0     C76886  10.262   1.711   9.019  0.4137 -1.0701 -0.5807
  558MOL0     C76887  10.350   1.588   8.996  0.0822  0.8359 -0.2939
  558MOL0     C76888  10.362   1.561   8.848  0.4153 -0.4375  0.0010
  558MOL0     C76889  10.447   1.646   8.759 -0.5895  0.1427 -0.0091
  558MOL0     O76890  10.411   1.783   8.759 -0.0884  0.4136 -0.6274
  558MOL0     C76891  10.289   1.825   8.699 -0.7819  0.0112  0.0713
  558MOL0     C76892  10.223   1.940   8.752  0.8040 -1.1050  0.1990
  558MOL0     C76893  10.116   1.992   8.688  0.3849 -0.1353 -0.1520
  558MOL0     C76894  10.064   2.122   8.746  1.3121 -0.1301 -0.1405
  558MOL0     C76895  10.061   1.926   8.579 -0.0498 -0.0050  1.1541
  558MOL0     C76896   9.948   1.984   8.495 -0.0535  0.5179  0.5422
  558MOL0     O76897   9.828   2.012   8.548 -0.8661 -0.1742  0.1070
  558MOL0     C76898   9.727   2.066   8.470 -0.4863  0.0535 -0.9600
  558MOL0     C76899   9.670   1.993   8.369  0.5662  1.4831  0.9835
  558MOL0     C76900   9.549   2.050   8.308 -0.9902 -0.1135 -0.6126
  558MOL0     C76901   9.509   2.185   8.337  0.3899 -0.0137  0.6584
  558MOL0     O76902   9.395   2.223   8.271 -0.1930  0.0191  0.5392
  558MOL0     C76903   9.358   2.363   8.268  0.1235  0.3510  0.0808
  558MOL0     C76904   9.255   2.394   8.372 -0.1605 -1.0462 -0.3487
  558MOL0     C76905   9.219   2.540   8.349 -0.8419 -0.5520 -0.3520
  558MOL0     C76906   9.150   2.618   8.466  0.4546  0.1223 -0.2080
  558MOL0     C76907   9.002   2.571   8.484  0.2149  0.1657  0.7086
  558MOL0     C76908   8.928   2.660   8.572  0.1059 -0.6285 -0.2897
  558MOL0     C76909   8.789   2.609   8.608 -0.2263  0.1657  0.2524
  558MOL0     C76910   8.752   2.638   8.755  0.1386  0.9461  0.0767
  558MOL0    Cl76911   8.680   2.494   8.824 -0.2931 -0.0604 -0.2518
  558MOL0     C76912   9.579   2.250   8.428 -0.6406 -0.1567 -0.1630
  558MOL0     C76913   9.683   2.187   8.504  0.2479 -0.7578  0.0334
  558MOL0     O76914   9.975   2.005   8.375  0.0158  0.2950 -0.6644
  558MOL0     C76915  10.112   1.803   8.545 -0.9042 -0.0531 -0.1764
  558MOL0     C76916  10.239   1.761   8.593  0.1627 -0.2117  0.4514
  558MOL0     N76917  10.031   1.728   8.910 -0.1449  0.0219 -1.0220
  558MOL0     N76918   9.910   1.700   8.937  0.1884  0.0670  1.0498
  558MOL0     C76919   8.968   1.374   9.447 -0.4873  0.0281  0.5334
  558MOL0     C76920   8.867   1.312   9.521 -0.5229  0.1696  0.0443
  558MOL0     C76921   8.454   1.245   9.721 -0.3182 -0.2139 -0.0419
  558MOL0     C76922   8.315   1.263   9.703  0.2843  0.3810 -0.0461
  558MOL0     C76923   8.221   1.202   9.790 -0.4824 -1.3616 -0.1798
  558MOL0     C76924   8.266   1.112   9.890  0.1199 -0.4123  0.0325
  558MOL0     O76925   8.164   1.056   9.959 -0.2508  0.5827  0.2394
  558MOL0     C76926   8.191   0.940  10.048  0.0805  0.2142  0.6315
  558MOL0     C76927   8.063   0.867  10.089 -1.3960 -0.5484 -0.1620
  558MOL0     C76928   7.940   0.942  10.140  0.6751 -0.1994  0.1372
  558MOL0     C76929   7.814   0.862  10.142  0.3689  0.7141 -0.5373
  558MOL0     C76930   7.803   0.758  10.243 -0.1922 -0.4327  1.1132
  558MOL0     C76931   7.781   0.693  10.344 -0.2350 -0.9651 -0.5212
  558MOL0     C76932   8.399   1.087   9.898 -1.3467  0.3460 -0.3242
  558MOL0     C76933   8.495   1.156   9.826 -0.3344 -0.2153 -0.2095
  558MOL0     C76934   8.642   1.116   9.856 -0.3269  0.8635 -0.1987
  558MOL0     H76935   8.680   1.585   9.592  0.6289 -0.5475  2.0590
  558MOL0     H76936   8.854   1.699   9.469 -0.8373  0.1550 -0.1903
  558MOL0     H76937   9.080   1.773   9.392 -0.3319 -0.4325 -0.2014
  558MOL0     H76938   8.957   1.727   9.270  0.7995 -3.0679 -2.1647
  558MOL0     H76939   9.129   1.663   9.118  0.2561  0.4952  1.1309
  558MOL0     H76940   9.149   1.831   9.156  1.4970 -0.6255 -0.9335
  558MOL0     H76941   9.307   1.769   9.334 -1.3881  0.7028  0.0003
  558MOL0     H76942   9.303   1.605   9.301 -2.1335  0.8103  3.2096
  558MOL0     H76943   9.406   1.672   9.058 -1.0350 -0.1501 -0.0346
  558MOL0     H76944   9.371   1.838   9.090 -0.3026 -0.8722 -0.8206
  558MOL0     H76945   9.516   1.839   9.277 -3.7459  3.1419 -2.4541
  558MOL0     H76946   9.592   1.793   9.125 -3.8078 -0.1844 -1.3900
  558MOL0     H76947   9.556   1.627   9.376 -1.9415  0.0680 -0.5333
  558MOL0     H76948   9.540   1.542   9.224 -1.2260  1.3495 -0.2244
  558MOL0     H76949   9.774   1.535   9.324 -0.8352 -0.0612 -0.1420
  558MOL0     H76950   9.787   1.712   9.283 -1.6432  0.1001  1.5602
  558MOL0     H76951   9.791   1.459   9.134 -1.5535 -0.5907 -0.2611
  558MOL0     H76952   9.691   1.585   9.055 -1.4593 -1.4206  2.8973
  558MOL0     H76953  10.061   1.570   9.192 -1.8711  0.4585  0.5063
  558MOL0     H76954  10.286   1.749   9.119  1.0090 -3.3546  0.2207
  558MOL0     H76955  10.287   1.798   8.958 -2.1503 -1.7200 -2.7405
  558MOL0     H76956  10.450   1.595   9.040 -1.3253 -1.9461  3.9567
  558MOL0     H76957  10.289   1.508   9.040  0.8337 -0.2913 -1.2516
  558MOL0     H76958  10.400   1.459   8.839  2.5477  0.4389 -2.1278
  558MOL0     H76959  10.263   1.565   8.801  1.3319 -1.6575 -2.2088
  558MOL0     H76960  10.554   1.645   8.781  0.3793  0.3428 -3.9071
  558MOL0     H76961  10.448   1.604   8.658  0.7984  0.6239 -0.2202
  558MOL0     H76962  10.262   1.996   8.836  1.2150 -0.4110 -0.4396
  558MOL0     H76963  10.031   2.113   8.850 -1.0853  3.7133 -0.3887
  558MOL0     H76964   9.966   2.148   8.703  0.9577 -1.8098 -0.4200
  558MOL0     H76965  10.122   2.214   8.736 -1.0967  1.4006 -0.9640
  558MOL0     H76966   9.703   1.893   8.344  0.0510  1.6055 -0.2368
  558MOL0     H76967   9.506   1.995   8.225  0.4240  0.4062 -1.7178
  558MOL0     H76968   9.447   2.426   8.279  0.4320 -0.4876  3.8148
  558MOL0     H76969   9.308   2.393   8.176 -3.5419 -4.0016  0.3029
  558MOL0     H76970   9.165   2.334   8.355 -1.0106  1.1177 -5.0786
  558MOL0     H76971   9.303   2.381   8.470  0.9016  3.1333 -0.1362
  558MOL0     H76972   9.166   2.559   8.255 -0.6661  2.1416  0.0135
  558MOL0     H76973   9.303   2.608   8.332 -0.1257 -1.9547 -3.0553
  558MOL0     H76974   9.132   2.724   8.449 -1.0074  0.2644  1.7844
  558MOL0     H76975   9.210   2.601   8.556 -1.0657 -0.2756  0.7631
  558MOL0     H76976   8.953   2.566   8.387  0.9262  1.7116  0.2441
  558MOL0     H76977   9.008   2.472   8.531 -0.2334 -0.3841 -0.3679
  558MOL0     H76978   8.915   2.757   8.524  2.4547  1.5917  3.1356
  558MOL0     H76979   8.997   2.676   8.655  0.7702  4.2199 -1.4861
  558MOL0     H76980   8.782   2.503   8.582  1.4976 -0.1236  0.8153
  558MOL0     H76981   8.726   2.657   8.533 -0.4863  0.6600  0.7765
  558MOL0     H76982   8.682   2.718   8.732 -1.5953 -0.8877 -1.3799
  558MOL0     H76983   8.838   2.672   8.813  3.6684 -1.5490 -3.2100
  558MOL0     H76984   9.552   2.352   8.451  1.8069  0.2038  1.5467
  558MOL0     H76985   9.747   2.240   8.575  3.8307 -1.9282 -2.0832
  558MOL0     H76986  10.076   1.739   8.465  1.3648 -0.4734 -0.9470
  558MOL0     H76987  10.282   1.676   8.541 -2.0994 -0.4097 -1.3065
  558MOL0     H76988   9.052   1.314   9.414 -0.4430 -2.2583  4.2354
  558MOL0     H76989   8.860   1.205   9.534 -1.1971  0.0846 -0.8746
  558MOL0     H76990   8.290   1.335   9.626  0.5318 -0.1107 -0.5948
  558MOL0     H76991   8.114   1.221   9.794 -0.2048  0.0591  2.5518
  558MOL0     H76992   8.250   0.872   9.986  1.5510  2.3364 -0.4400
  558MOL0     H76993   8.240   0.981  10.137 -0.4463 -1.6698  1.8247
  558MOL0     H76994   8.077   0.797  10.172  2.7858  0.4423  0.2211
  558MOL0     H76995   8.041   0.801  10.004 -0.7979 -1.4458  0.3647
  558MOL0     H76996   7.965   0.989  10.236  3.3431 -4.3880  1.7896
  558MOL0     H76997   7.919   1.023  10.070 -4.3617 -0.6345  0.8008
  558MOL0     H76998   7.804   0.811  10.046  2.1086  0.6743 -0.7305
  558MOL0     H76999   7.726   0.928  10.149  0.1468  0.2321  2.0173
  558MOL0     H77000   7.769   0.639  10.436  0.7489  2.3628  1.7794
  558MOL0     H77001   8.419   1.015   9.977 -1.8614  0.2696 -0.2617
  558MOL0     H77002   8.674   1.157   9.952  0.1263  0.2670 -0.0934
  558MOL0     H77003   8.642   1.007   9.855 -2.0101  0.8027  1.2031
  558MOL0     H77004   8.710   1.139   9.774 -0.4381  0.5278 -0.3880
  559MOL0     O77005   4.568   1.307   1.761  0.9933 -0.2227  0.2434
  559MOL0     C77006   4.643   1.293   1.855  0.2132  0.8697  0.6268
  559MOL0     O77007   4.633   1.373   1.977  0.0249  0.1029 -0.5980
  559MOL0     C77008   4.530   1.459   1.996 -0.4081  0.0871 -0.5096
  559MOL0     C77009   4.548   1.593   1.966 -0.7302  0.7097 -0.5027
  559MOL0     C77010   4.446   1.680   1.987 -0.6488 -0.3796  0.4073
  559MOL0     C77011   4.319   1.640   2.038 -0.0862  0.2129  0.2685
  559MOL0     O77012   4.214   1.733   2.065 -1.1281 -0.0115 -0.2870
  559MOL0     C77013   4.213   1.840   1.966  0.9459  1.0292  0.1581
  559MOL0     C77014   4.076   1.898   1.947  0.8859 -0.3782 -0.3600
  559MOL0     C77015   4.094   2.003   1.845 -0.3153 -0.6584 -0.6187
  559MOL0     C77016   3.960   2.081   1.853 -0.3383  0.7613 -0.0267
  559MOL0     C77017   3.957   2.197   1.758 -0.1660 -0.1343  0.7534
  559MOL0     C77018   3.916   2.167   1.611  0.6922  0.1284  1.0269
  559MOL0     C77019   3.886   2.293   1.529  0.2028 -0.2061 -0.5891
  559MOL0     C77020   3.751   2.355   1.550  0.5672  0.0437 -0.4387
  559MOL0     N77021   3.711   2.456   1.452 -0.4230 -0.5795  0.3889
  559MOL0     C77022   3.657   2.585   1.482 -0.7127  0.0621  0.1463
  559MOL0     C77023   3.626   2.639   1.358  0.1250 -0.2598 -0.9418
  559MOL0     C77024   3.563   2.774   1.337  0.3858  0.0360 -0.0016
  559MOL0     C77025   3.416   2.767   1.325 -0.7278 -0.6961 -0.2051
  559MOL0     C77026   3.348   2.899   1.296  0.2610 -0.2851 -0.2557
  559MOL0     C77027   3.346   2.985   1.426 -0.6431  0.1027  0.2494
  559MOL0     O77028   3.315   2.903   1.541  0.2504 -0.8673 -0.7508
  559MOL0     C77029   3.193   2.926   1.608 -0.5392  0.5156  0.8132
  559MOL0     C77030   3.069   2.982   1.558  0.1508  0.3010  0.3153
  559MOL0     C77031   2.968   3.014   1.641 -1.0517 -0.1727 -0.0910
  559MOL0     C77032   2.842   3.076   1.578 -0.0946 -0.3625 -0.8454
  559MOL0     C77033   2.981   2.991   1.786 -0.9168  0.5272 -0.1461
  559MOL0     C77034   2.868   3.009   1.889 -1.2326 -0.5447  0.3640
  559MOL0     O77035   2.891   2.965   2.006  0.7583 -0.1403  0.1042
  559MOL0     C77036   2.802   3.013   2.106 -0.2527  0.2788  0.9380
  559MOL0     C77037   2.818   3.143   2.138 -1.0584  0.0992  0.0172
  559MOL0     C77038   2.767   3.200   2.248  0.3407  0.2534  0.4836
  559MOL0     C77039   2.682   3.117   2.324  0.3863 -0.1033  0.1177
  559MOL0     O77040   2.627   3.177   2.431 -0.2536 -0.0336 -0.3748
  559MOL0     C77041   2.538   3.103   2.515  0.1132  0.6601  0.1984
  559MOL0     C77042   2.458   3.201   2.609 -0.3836 -0.3246  0.2403
  559MOL0     C77043   2.376   3.305   2.542  0.4807  0.1487  0.5253
  559MOL0     C77044   2.309   3.409   2.630 -0.7884 -0.7197  0.5332
  559MOL0     C77045   2.228   3.512   2.544 -0.3081  0.9027 -0.4985
  559MOL0     C77046   2.162   3.599   2.644 -0.1443  1.2001  0.2274
  559MOL0     C77047   2.073   3.528   2.754 -0.2535  1.1763  0.1185
  559MOL0     C77048   1.977   3.632   2.810 -0.1733  1.0775  1.0958
  559MOL0    Cl77049   2.047   3.742   2.929 -0.0235  0.1774 -0.2303
  559MOL0     C77050   2.661   2.987   2.287 -0.0810  0.4078  0.2738
  559MOL0     C77051   2.724   2.928   2.178 -1.0157  0.5432 -0.0189
  559MOL0     O77052   2.774   3.078   1.853  0.5359 -0.6500 -0.0676
  559MOL0     C77053   3.104   2.938   1.832 -0.8806 -0.3541  0.9738
  559MOL0     C77054   3.205   2.917   1.741 -0.4693  0.4376  0.5065
  559MOL0     N77055   3.671   2.550   1.261  0.6906 -0.2021  0.5038
  559MOL0     N77056   3.729   2.453   1.314 -0.0282  0.0793  0.4578
  559MOL0     C77057   4.309   1.510   2.084 -0.2483  0.7496  0.9510
  559MOL0     C77058   4.411   1.416   2.050 -0.2492 -0.2858  0.2230
  559MOL0     C77059   4.739   1.181   1.849  0.1431  0.3808 -1.2065
  559MOL0     C77060   4.765   1.126   1.976  0.9726  0.4039  0.1975
  559MOL0     C77061   4.856   1.020   1.992  0.2207 -0.5862 -0.3087
  559MOL0     C77062   4.911   0.946   1.885 -0.7565  0.2964  0.0857
  559MOL0     O77063   4.999   0.845   1.898  0.1604  0.7147 -0.5752
  559MOL0     C77064   5.011   0.757   2.015  0.5199  0.2427  0.2496
  559MOL0     C77065   5.127   0.656   1.993  0.3759 -0.0138  0.3179
  559MOL0     C77066   5.168   0.586   2.124 -0.9971 -0.6664  0.1207
  559MOL0     C77067   5.207   0.434   2.103 -0.3614  0.2535  0.2439
  559MOL0     C77068   5.250   0.388   2.228  0.7925 -1.2405  0.5951
  559MOL0     C77069   5.276   0.365   2.340  0.4058  0.0872  0.2342
  559MOL0     C77070   4.899   1.011   1.753 -0.1730 -0.0776  0.2923
  559MOL0     C77071   4.807   1.122   1.735 -0.2542 -0.4423  0.4485
  559MOL0     C77072   4.771   1.165   1.594 -0.7093  1.0906  0.0117
  559MOL0     H77073   4.640   1.603   1.908  0.5880 -1.8119  0.9657
  559MOL0     H77074   4.444   1.787   1.967 -1.2253 -0.4921 -0.1725
  559MOL0     H77075   4.245   1.791   1.874  1.5420  3.5648 -1.0403
  559MOL0     H77076   4.286   1.915   1.997  2.7646  0.2313 -1.9732
  559MOL0     H77077   4.006   1.823   1.912  1.5432 -0.9271 -0.5199
  559MOL0     H77078   4.056   1.939   2.047  2.1941  2.9454 -1.2976
  559MOL0     H77079   4.191   2.053   1.850  0.2693 -1.4371 -2.8414
  559MOL0     H77080   4.086   1.961   1.744 -1.2675  1.5604 -1.5288
  559MOL0     H77081   3.879   2.009   1.838  0.0824  0.7141 -2.4094
  559MOL0     H77082   3.943   2.124   1.952 -0.9148  0.5391 -0.0221
  559MOL0     H77083   4.052   2.248   1.740  0.4382 -0.9462  1.5552
  559MOL0     H77084   3.897   2.276   1.805 -0.9687  0.3268 -0.9521
  559MOL0     H77085   3.991   2.119   1.547  0.8263 -0.4834  1.6289
  559MOL0     H77086   3.829   2.103   1.622 -0.7682  2.0448  1.0375
  559MOL0     H77087   3.904   2.283   1.422  2.5246  0.8241 -0.3620
  559MOL0     H77088   3.940   2.385   1.553 -1.4278  0.5447  0.3705
  559MOL0     H77089   3.682   2.270   1.558 -0.8484  1.3223  3.1765
  559MOL0     H77090   3.733   2.400   1.648 -1.3253 -0.8288 -0.3283
  559MOL0     H77091   3.647   2.644   1.573 -1.0845  0.5376 -0.1971
  559MOL0     H77092   3.599   2.822   1.246 -1.7047  3.3450  0.7039
  559MOL0     H77093   3.604   2.830   1.421  0.9904  1.6876 -1.3543
  559MOL0     H77094   3.413   2.717   1.228 -2.1114 -2.0576  0.4861
  559MOL0     H77095   3.368   2.695   1.392  0.7150  0.4757  2.2329
  559MOL0     H77096   3.396   2.954   1.214 -1.5516 -0.9582 -1.8598
  559MOL0     H77097   3.249   2.872   1.259  0.0207  0.0397  0.1518
  559MOL0     H77098   3.451   3.012   1.438  0.3533 -2.5119 -1.6938
  559MOL0     H77099   3.279   3.071   1.436  1.0305  1.1850  4.1401
  559MOL0     H77100   3.058   2.998   1.452 -5.0782 -0.8471  0.4427
  559MOL0     H77101   2.759   3.020   1.625  0.5300  2.2123  4.0301
  559MOL0     H77102   2.826   3.077   1.470 -5.9657 -0.5573 -0.3207
  559MOL0     H77103   2.829   3.176   1.621 -1.1302  0.1822 -2.3602
  559MOL0     H77104   2.886   3.201   2.076  2.1113 -2.2074  1.0615
  559MOL0     H77105   2.791   3.303   2.273 -1.4526  2.4270 -5.1349
  559MOL0     H77106   2.471   3.046   2.450  3.6957 -0.8804 -2.4483
  559MOL0     H77107   2.592   3.032   2.579 -1.6618 -1.2719 -0.3444
  559MOL0     H77108   2.396   3.131   2.667  0.7877  0.6041  2.7737
  559MOL0     H77109   2.534   3.248   2.672 -0.1815  0.8770 -0.8474
  559MOL0     H77110   2.292   3.249   2.501  1.7727  1.1545 -4.1026
  559MOL0     H77111   2.436   3.351   2.464 -0.2506  0.4281  0.1154
  559MOL0     H77112   2.386   3.471   2.678 -0.3372  0.7187 -1.9145
  559MOL0     H77113   2.248   3.361   2.707 -1.4999 -0.2175  0.2928
  559MOL0     H77114   2.297   3.566   2.478  0.0909  0.1432 -0.7074
  559MOL0     H77115   2.158   3.475   2.469 -2.7882  0.7286  1.7721
  559MOL0     H77116   2.100   3.665   2.583 -1.1467  0.0860  0.0036
  559MOL0     H77117   2.236   3.661   2.696  1.2167 -1.5539  1.8399
  559MOL0     H77118   2.135   3.481   2.831 -0.5682  0.0180 -0.3190
  559MOL0     H77119   2.008   3.452   2.709  0.6691  0.3287  0.1919
  559MOL0     H77120   1.902   3.577   2.868 -0.2252  1.4537  1.3947
  559MOL0     H77121   1.920   3.675   2.726  0.2671  0.0126  0.2293
  559MOL0     H77122   2.597   2.924   2.348 -2.5388  3.6999  1.3966
  559MOL0     H77123   2.704   2.823   2.159 -0.4079  0.5614 -0.8108
  559MOL0     H77124   3.134   2.925   1.936  2.2337  1.5863  0.4569
  559MOL0     H77125   3.303   2.881   1.772  1.0887  0.3326 -3.7675
  559MOL0     H77126   4.213   1.470   2.118  0.2729 -3.1013 -1.5248
  559MOL0     H77127   4.410   1.308   2.062 -1.2210 -0.7961 -3.3362
  559MOL0     H77128   4.724   1.179   2.062 -2.0254 -1.5049  0.0873
  559MOL0     H77129   4.884   0.992   2.093  2.1985  1.0315 -0.3451
  559MOL0     H77130   5.024   0.814   2.107 -1.1393  1.0507  0.0259
  559MOL0     H77131   4.923   0.693   2.031  1.0817  0.0760  3.2716
  559MOL0     H77132   5.209   0.722   1.964  0.3343  0.0621  0.3750
  559MOL0     H77133   5.115   0.591   1.905  1.4205 -0.2461  0.3316
  559MOL0     H77134   5.252   0.643   2.164 -0.2769 -1.4540 -0.2124
  559MOL0     H77135   5.080   0.585   2.190 -2.4566  0.7229 -1.7006
  559MOL0     H77136   5.283   0.415   2.027  0.7251  2.7402  0.6111
  559MOL0     H77137   5.115   0.384   2.070 -2.8604  4.6009 -0.2548
  559MOL0     H77138   5.325   0.348   2.433 -1.0918  2.0907  1.4799
  559MOL0     H77139   4.948   0.957   1.673  3.0513  1.1731  1.2680
  559MOL0     H77140   4.677   1.216   1.571 -1.8484 -1.3048 -1.0419
  559MOL0     H77141   4.845   1.236   1.555 -0.6690  3.8361  4.3526
  559MOL0     H77142   4.761   1.076   1.532 -2.3639  0.2482  1.4052
  560MOL0     O77143   1.087   7.689  10.108  0.7947  0.0088 -0.4591
  560MOL0     C77144   1.082   7.774  10.197 -0.9864 -0.8982  0.9106
  560MOL0     O77145   1.199   7.839  10.245  0.5153 -0.1460 -0.5334
  560MOL0     C77146   1.330   7.786  10.234  1.3425  0.3097  0.7397
  560MOL0     C77147   1.401   7.760  10.353 -0.5649  0.0443  0.4114
  560MOL0     C77148   1.525   7.696  10.344 -1.2025  0.5004  0.3747
  560MOL0     C77149   1.601   7.684  10.225  0.4595 -0.6077  0.3711
  560MOL0     O77150   1.730   7.645  10.234 -0.5038 -1.1007  0.3545
  560MOL0     C77151   1.795   7.603  10.118 -0.5706  0.0941  0.2820
  560MOL0     C77152   1.952   7.585  10.128  0.6722  0.4298 -0.7664
  560MOL0     C77153   2.025   7.715  10.129  0.3521  0.4326  0.1389
  560MOL0     C77154   1.981   7.819  10.227  0.5042 -0.0400  0.7085
  560MOL0     C77155   2.085   7.930  10.259  0.5298  0.0803 -0.0954
  560MOL0     C77156   2.139   7.991  10.126  0.6004  0.0784  0.6703
  560MOL0     C77157   2.203   8.125  10.150 -0.5581 -0.1187 -0.7499
  560MOL0     C77158   2.120   8.255  10.151  0.7290  0.2691  1.0196
  560MOL0     N77159   2.065   8.294  10.026 -1.0466 -0.6285 -0.0941
  560MOL0     C77160   2.085   8.422   9.988 -0.6080 -0.0379 -0.1539
  560MOL0     C77161   2.036   8.425   9.865 -0.4926  0.2911 -0.2705
  560MOL0     C77162   2.032   8.552   9.785 -0.6175  1.2076  0.1554
  560MOL0     C77163   2.117   8.668   9.844 -0.6494  0.7641  0.6570
  560MOL0     C77164   2.271   8.647   9.835 -0.3050  0.8931 -0.2645
  560MOL0     C77165   2.345   8.778   9.870  0.0215  0.6611 -0.2035
  560MOL0     O77166   2.312   8.875   9.771  0.0451 -0.2349 -0.1997
  560MOL0     C77167   2.393   8.880   9.653  0.7775 -0.1183 -0.9606
  560MOL0     C77168   2.331   8.941   9.547 -0.1557 -0.8337  0.7441
  560MOL0     C77169   2.390   8.956   9.424 -0.8891 -0.3466  0.6720
  560MOL0     C77170   2.324   9.046   9.325 -0.2455  0.4456 -0.7383
  560MOL0     C77171   2.524   8.916   9.406 -0.6920 -1.3538 -0.2191
  560MOL0     C77172   2.610   8.952   9.286  1.1178  0.7086 -0.2758
  560MOL0     O77173   2.604   8.863   9.188  1.2278 -0.1917 -0.5076
  560MOL0     C77174   2.649   8.904   9.065 -0.8823 -0.4048  0.9609
  560MOL0     C77175   2.761   8.835   9.018  0.4757  0.0104  0.5237
  560MOL0     C77176   2.819   8.860   8.894  0.4305  0.4481  1.1860
  560MOL0     C77177   2.770   8.970   8.813 -0.4484  0.7819  0.1422
  560MOL0     O77178   2.826   9.007   8.694 -0.5936 -0.0486 -0.0708
  560MOL0     C77179   2.893   8.907   8.610 -0.6226 -0.9680 -0.7386
  560MOL0     C77180   2.802   8.808   8.549 -0.0050  0.9561 -0.1464
  560MOL0     C77181   2.728   8.884   8.440 -0.1342  0.4373 -0.0909
  560MOL0     C77182   2.613   8.812   8.356 -0.7865  0.7849 -0.5865
  560MOL0     C77183   2.685   8.694   8.283 -0.3605 -0.0177  0.6858
  560MOL0     C77184   2.587   8.658   8.168  0.0109 -0.2576 -0.9094
  560MOL0     C77185   2.609   8.517   8.104 -1.0203 -0.2228  0.3652
  560MOL0     C77186   2.541   8.502   7.968  0.2707  0.6090  1.2690
  560MOL0    Cl77187   2.584   8.333   7.910  0.1778 -0.1227 -0.0723
  560MOL0     C77188   2.661   9.041   8.861  0.0074 -0.4482 -0.6830
  560MOL0     C77189   2.604   9.018   8.989  0.3049  0.7844  0.2706
  560MOL0     O77190   2.654   9.063   9.288 -1.3051  0.0637  0.3252
  560MOL0     C77191   2.589   8.857   9.512 -0.6633  0.0323  0.5037
  560MOL0     C77192   2.525   8.835   9.630  0.4588  0.5046 -1.2504
  560MOL0     N77193   1.999   8.301   9.828  0.5057  0.3298 -0.9710
  560MOL0     N77194   2.017   8.220   9.927 -0.1890 -0.1304 -0.2962
  560MOL0     C77195   1.532   7.717  10.103 -0.0625 -0.3959 -0.2533
  560MOL0     C77196   1.398   7.761  10.111 -0.1001 -0.0653 -0.4171
  560MOL0     C77197   0.948   7.821  10.246 -0.0839 -0.1845 -0.2569
  560MOL0     C77198   0.936   7.959  10.269 -0.4346  0.0675  0.2701
  560MOL0     C77199   0.805   8.009  10.306 -0.4584  0.1814  0.0108
  560MOL0     C77200   0.705   7.925  10.345  0.1370  0.6087 -0.4532
  560MOL0     O77201   0.585   7.970  10.398 -0.3339  0.5042  0.2387
  560MOL0     C77202   0.617   8.038  10.518 -0.3549  0.3235  0.1032
  560MOL0     C77203   0.486   8.029  10.596  0.5884 -0.0478 -0.1989
  560MOL0     C77204   0.380   8.114  10.539  0.2097  0.3002 -0.1235
  560MOL0     C77205   0.273   8.027  10.463  0.4276 -0.3533 -0.3186
  560MOL0     C77206   0.177   7.984  10.562 -0.4577 -0.2915  0.1204
  560MOL0     C77207   0.083   7.951  10.635 -0.4284 -1.3859 -0.1683
  560MOL0     C77208   0.721   7.788  10.320 -0.1587 -0.1046  1.8283
  560MOL0     C77209   0.845   7.735  10.278 -0.1888  0.3431 -0.2092
  560MOL0     C77210   0.858   7.585  10.310  0.2846  0.4128 -0.8175
  560MOL0     H77211   1.362   7.795  10.448 -0.1229  3.2489 -0.4616
  560MOL0     H77212   1.565   7.654  10.436 -1.8605 -2.9266 -0.7811
  560MOL0     H77213   1.787   7.686  10.048  2.8030  1.5172  1.3912
  560MOL0     H77214   1.753   7.514  10.069 -0.0585  2.0328 -4.1620
  560MOL0     H77215   1.976   7.528  10.219 -1.8213  0.2406 -0.1550
  560MOL0     H77216   2.003   7.521  10.055  3.8978 -1.8670  3.0354
  560MOL0     H77217   2.127   7.683  10.152  1.7938  3.5514 -1.3611
  560MOL0     H77218   2.023   7.764  10.031 -0.1245 -0.5347 -0.3590
  560MOL0     H77219   1.885   7.865  10.203  0.0728 -1.2919 -0.0425
  560MOL0     H77220   1.967   7.764  10.320  0.1590 -0.0919  0.6247
  560MOL0     H77221   2.168   7.874  10.304  1.7695  1.2660 -0.8297
  560MOL0     H77222   2.037   8.005  10.323 -7.5094  0.2948 -4.9389
  560MOL0     H77223   2.207   7.921  10.076  0.5340  1.0657 -0.8658
  560MOL0     H77224   2.055   7.998  10.056 -1.6914 -1.6843  3.0452
  560MOL0     H77225   2.282   8.129  10.075 -1.3422  0.8269 -1.5557
  560MOL0     H77226   2.245   8.105  10.249 -3.0902  1.8712  0.8550
  560MOL0     H77227   2.030   8.251  10.213 -1.4505  2.6595 -1.6669
  560MOL0     H77228   2.183   8.333  10.193  1.8231  1.3634 -2.3517
  560MOL0     H77229   2.101   8.504  10.057 -3.6385  1.6467 -1.2463
  560MOL0     H77230   1.930   8.590   9.770  0.0127  3.3877  0.9031
  560MOL0     H77231   2.079   8.517   9.693  1.0200 -2.7205  2.2372
  560MOL0     H77232   2.092   8.748   9.775  1.1337  1.3441  0.6531
  560MOL0     H77233   2.085   8.694   9.946 -3.1140  1.1482 -0.1398
  560MOL0     H77234   2.304   8.575   9.910  3.2878  2.4071 -0.1986
  560MOL0     H77235   2.295   8.611   9.735  0.5410 -2.0960  0.8961
  560MOL0     H77236   2.310   8.799   9.972  1.6488  0.2515  0.4752
  560MOL0     H77237   2.450   8.747   9.869  0.2094  1.2573  0.4191
  560MOL0     H77238   2.231   8.981   9.555 -0.4072 -1.4795  0.9107
  560MOL0     H77239   2.322   8.996   9.228  0.5052 -0.4584 -0.3126
  560MOL0     H77240   2.380   9.140   9.318  0.3559  0.4195  2.3140
  560MOL0     H77241   2.219   9.054   9.355  0.4531  0.6728  1.9564
  560MOL0     H77242   2.807   8.751   9.069  0.0856  1.0678  2.7824
  560MOL0     H77243   2.900   8.790   8.876 -0.7363 -0.2720 -1.9421
  560MOL0     H77244   2.969   8.955   8.547 -2.1867  1.4697 -0.9500
  560MOL0     H77245   2.965   8.857   8.674  0.4780 -0.3937 -1.4826
  560MOL0     H77246   2.856   8.725   8.503 -2.1929  0.5471 -2.1121
  560MOL0     H77247   2.738   8.777   8.632 -1.2034  0.3584 -1.2738
  560MOL0     H77248   2.798   8.917   8.363 -0.5970  0.7210 -0.3898
  560MOL0     H77249   2.690   8.968   8.500  0.7679 -0.6062  2.0686
  560MOL0     H77250   2.580   8.881   8.278  1.8502  0.2991 -2.2562
  560MOL0     H77251   2.536   8.775   8.425  2.3298 -3.2237  1.2132
  560MOL0     H77252   2.781   8.714   8.235 -0.3305 -0.3412  0.6120
  560MOL0     H77253   2.693   8.613   8.356  2.7088 -1.6200 -1.2413
  560MOL0     H77254   2.594   8.737   8.093  0.4851  0.8255  0.2304
  560MOL0     H77255   2.484   8.675   8.200  0.1747 -0.5570 -0.1952
  560MOL0     H77256   2.578   8.436   8.171  0.9058 -2.1532 -0.9349
  560MOL0     H77257   2.716   8.515   8.082 -1.1379  1.9556 -0.6712
  560MOL0     H77258   2.577   8.581   7.901 -1.8547  3.3042  3.1150
  560MOL0     H77259   2.433   8.496   7.981  0.0055  2.7723  0.4509
  560MOL0     H77260   2.632   9.129   8.805 -1.1005 -1.5043 -1.8116
  560MOL0     H77261   2.523   9.084   9.015 -1.8899 -2.4425  2.4214
  560MOL0     H77262   2.690   8.817   9.516 -0.4754 -0.0834 -2.6651
  560MOL0     H77263   2.565   8.788   9.719 -1.0108  3.3840  1.1074
  560MOL0     H77264   1.588   7.711  10.010  2.2212  2.3591  0.8211
  560MOL0     H77265   1.326   7.768  10.030 -0.4217 -2.3658 -0.3853
  560MOL0     H77266   1.016   8.030  10.249 -0.7651  0.2830 -0.3301
  560MOL0     H77267   0.796   8.117  10.317  1.7133  0.1869  2.7212
  560MOL0     H77268   0.689   7.988  10.584 -1.7268 -0.9048  0.7071
  560MOL0     H77269   0.646   8.144  10.512  1.9055 -0.2466  0.0852
  560MOL0     H77270   0.501   8.063  10.699 -0.7766  0.9749 -0.3194
  560MOL0     H77271   0.454   7.924  10.598  0.9752 -0.1915  2.2910
  560MOL0     H77272   0.330   8.162  10.624 -1.1464 -0.3081 -0.5469
  560MOL0     H77273   0.420   8.188  10.469  1.9448 -0.0660  0.4337
  560MOL0     H77274   0.325   7.939  10.425  1.0841 -2.0389  3.8759
  560MOL0     H77275   0.228   8.085  10.382  0.0225  1.1597  0.9328
  560MOL0     H77276  -0.003   7.922  10.692  0.5380 -2.2568  0.8929
  560MOL0     H77277   0.651   7.708  10.341 -0.8291 -0.3300 -0.9024
  560MOL0     H77278   0.772   7.523  10.284 -0.7370  1.1747  0.6261
  560MOL0     H77279   0.942   7.545  10.252  0.6503  0.5997 -0.4223
  560MOL0     H77280   0.863   7.583  10.419 -4.9928  3.4080 -0.1570
  561MOL0     O77281   0.392   1.901   2.962  0.3334 -0.7352 -0.3037
  561MOL0     C77282   0.489   1.825   2.958  0.1943  0.7564 -0.7199
  561MOL0     O77283   0.526   1.735   3.049  0.2833  0.2059 -1.0389
  561MOL0     C77284   0.452   1.707   3.161  0.1526 -1.0742 -0.3717
  561MOL0     C77285   0.405   1.577   3.171  0.6798  0.2429 -0.3714
  561MOL0     C77286   0.329   1.537   3.291  1.0432 -0.7854 -0.6337
  561MOL0     C77287   0.313   1.620   3.400  0.2973  0.5704 -0.1021
  561MOL0     O77288   0.274   1.567   3.518 -0.2740 -0.5394  0.3915
  561MOL0     C77289   0.146   1.604   3.566 -0.3619  0.1386  0.4257
  561MOL0     C77290   0.044   1.496   3.517 -0.8578 -0.2924 -0.3852
  561MOL0     C77291   0.080   1.350   3.535 -0.0761  0.2884  0.0854
  561MOL0     C77292  -0.017   1.250   3.474  1.5300  0.0763  0.4376
  561MOL0     C77293  -0.018   1.246   3.321 -0.2968  0.6166  0.3850
  561MOL0     C77294  -0.139   1.169   3.260 -0.7888 -0.3374 -0.1918
  561MOL0     C77295  -0.132   1.013   3.264  0.5862  0.2543 -1.0791
  561MOL0     C77296  -0.222   0.958   3.149  0.0391  0.6751 -0.4557
  561MOL0     N77297  -0.367   0.990   3.174 -0.2336 -0.9129 -0.6984
  561MOL0     C77298  -0.442   0.936   3.272 -0.6769  0.3150 -0.9766
  561MOL0     C77299  -0.559   1.004   3.265  0.5517 -0.9098 -0.2701
  561MOL0     C77300  -0.694   0.962   3.334 -0.1151  0.3480  0.4594
  561MOL0     C77301  -0.774   0.898   3.226 -0.4138 -0.6086 -0.2870
  561MOL0     C77302  -0.838   0.981   3.111  1.1144 -0.4409  0.6169
  561MOL0     C77303  -0.931   1.095   3.152  0.1849 -0.3545  0.4530
  561MOL0     O77304  -1.039   1.113   3.050 -0.1002 -0.0939 -0.1893
  561MOL0     C77305  -1.161   1.044   3.051  0.5349  0.2750 -0.3443
  561MOL0     C77306  -1.257   1.058   2.947  0.4641 -0.7196 -0.2216
  561MOL0     C77307  -1.384   0.986   2.941  1.0287  0.0772  0.3071
  561MOL0     C77308  -1.484   1.026   2.822 -0.2959  0.9456 -0.0106
  561MOL0     C77309  -1.408   0.899   3.053 -0.6580  0.2920 -0.5989
  561MOL0     C77310  -1.525   0.813   3.047 -0.2292 -0.8670 -0.5091
  561MOL0     O77311  -1.525   0.706   3.132  0.5587 -0.1395  0.3960
  561MOL0     C77312  -1.640   0.621   3.146  0.5901  0.2477 -0.3767
  561MOL0     C77313  -1.779   0.656   3.129 -0.1638  0.3194 -0.0647
  561MOL0     C77314  -1.882   0.560   3.133 -1.4030 -0.0339 -0.3612
  561MOL0     C77315  -1.853   0.424   3.160  0.9411  0.4672 -0.0354
  561MOL0     O77316  -1.971   0.343   3.170 -0.7191  0.3654  0.7283
  561MOL0     C77317  -1.954   0.219   3.236 -0.6125 -0.1942  1.1806
  561MOL0     C77318  -2.064   0.121   3.190 -0.1273  0.0376 -0.7319
  561MOL0     C77319  -2.019  -0.030   3.208 -1.1666 -1.0498 -0.8729
  561MOL0     C77320  -2.111  -0.118   3.136 -0.0020  0.0688  0.4254
  561MOL0     C77321  -2.083  -0.267   3.179 -0.7480 -0.5651 -0.6375
  561MOL0     C77322  -1.947  -0.314   3.121  1.2904  0.7098  0.2402
  561MOL0     C77323  -1.924  -0.290   2.972 -0.9406  0.4741 -0.1094
  561MOL0     C77324  -2.047  -0.324   2.886 -0.8568  0.3610 -0.4817
  561MOL0    Cl77325  -2.072  -0.504   2.859 -0.0041  0.6467  0.0954
  561MOL0     C77326  -1.724   0.392   3.175 -0.1508 -0.0011  0.3358
  561MOL0     C77327  -1.615   0.482   3.163  0.3344  0.6288  0.2803
  561MOL0     O77328  -1.618   0.844   2.976 -0.0240  0.2843  1.1730
  561MOL0     C77329  -1.321   0.889   3.159  0.4698  0.0662 -0.2651
  561MOL0     C77330  -1.204   0.964   3.159 -0.5111 -0.8081 -0.4273
  561MOL0     N77331  -0.541   1.115   3.175  1.5654  0.1539 -0.3930
  561MOL0     N77332  -0.433   1.098   3.120 -0.6924 -0.3254 -0.6157
  561MOL0     C77333   0.370   1.754   3.388 -0.0035  0.3813  0.2797
  561MOL0     C77334   0.441   1.795   3.264  0.1580  0.3644 -0.3133
  561MOL0     C77335   0.570   1.799   2.840  0.5453  0.5212  0.2901
  561MOL0     C77336   0.626   1.670   2.818 -1.0463 -0.3168  0.3851
  561MOL0     C77337   0.697   1.635   2.699  0.2139 -1.3450 -0.9786
  561MOL0     C77338   0.704   1.734   2.596  0.5059 -0.2467  0.0136
  561MOL0     O77339   0.761   1.705   2.479  0.1952 -0.4571  0.4603
  561MOL0     C77340   0.709   1.769   2.354  0.7330 -0.4367  0.2100
  561MOL0     C77341   0.827   1.840   2.273 -0.2771  0.2252  1.0636
  561MOL0     C77342   0.792   1.932   2.153 -0.2593  0.1500 -0.4570
  561MOL0     C77343   0.902   2.034   2.117  0.4172  0.1780 -0.7894
  561MOL0     C77344   0.955   2.117   2.221  0.4796  0.4566  0.6351
  561MOL0     C77345   1.019   2.177   2.305 -0.1914  0.5157 -0.0104
  561MOL0     C77346   0.641   1.857   2.620  0.6501 -0.1172  0.1808
  561MOL0     C77347   0.587   1.900   2.742 -0.6977 -0.1525  0.7485
  561MOL0     C77348   0.546   2.048   2.746  0.6814  0.3306 -0.1319
  561MOL0     H77349   0.418   1.512   3.085 -0.7521 -1.2162  0.4697
  561MOL0     H77350   0.287   1.438   3.303  3.5712 -2.2411 -2.8390
  561MOL0     H77351   0.134   1.711   3.546  2.8835  0.4945 -0.3342
  561MOL0     H77352   0.142   1.585   3.674  0.2673 -1.7320  0.1658
  561MOL0     H77353  -0.055   1.516   3.559 -1.3222 -1.3956 -0.9151
  561MOL0     H77354   0.030   1.526   3.412 -0.7647  2.9645  0.4147
  561MOL0     H77355   0.165   1.321   3.472 -0.8730 -0.8870 -0.4874
  561MOL0     H77356   0.094   1.330   3.642 -1.3724  1.8327  0.5768
  561MOL0     H77357   0.010   1.152   3.513  1.6443 -0.1639 -0.2384
  561MOL0     H77358  -0.121   1.265   3.504  0.7009 -0.5333 -1.8841
  561MOL0     H77359   0.073   1.190   3.298 -2.1926 -1.8210 -2.0211
  561MOL0     H77360  -0.008   1.344   3.274  0.2624 -0.5811 -2.1705
  561MOL0     H77361  -0.229   1.218   3.299 -0.2981  2.8716 -2.6664
  561MOL0     H77362  -0.150   1.203   3.157 -0.3461  0.8271  0.1266
  561MOL0     H77363  -0.169   0.984   3.363  0.7640  1.2617 -0.7004
  561MOL0     H77364  -0.028   0.981   3.257  1.9232  4.1117 -1.3508
  561MOL0     H77365  -0.186   1.001   3.055  1.2657  0.9027  0.1074
  561MOL0     H77366  -0.210   0.850   3.135 -0.1018  0.6724 -0.5574
  561MOL0     H77367  -0.422   0.841   3.321 -2.3853 -0.7684 -2.2642
  561MOL0     H77368  -0.747   1.054   3.360 -0.3569  1.5524 -3.6200
  561MOL0     H77369  -0.676   0.896   3.419 -3.5844 -3.2160 -1.2478
  561MOL0     H77370  -0.714   0.820   3.180  0.6425  1.0403 -1.8493
  561MOL0     H77371  -0.859   0.846   3.271  0.2470 -2.6006 -1.2093
  561MOL0     H77372  -0.749   1.015   3.058  0.1953  3.1432  1.0780
  561MOL0     H77373  -0.898   0.918   3.045 -0.9644  3.3129 -1.4747
  561MOL0     H77374  -0.966   1.073   3.253  0.0808 -0.3820  0.4107
  561MOL0     H77375  -0.862   1.179   3.158  1.2817 -1.0556 -1.3829
  561MOL0     H77376  -1.238   1.139   2.877 -0.6546 -1.3005 -1.2218
  561MOL0     H77377  -1.530   0.936   2.779  1.6243  0.3569 -0.9263
  561MOL0     H77378  -1.420   1.072   2.747  1.0773  0.6884  0.9754
  561MOL0     H77379  -1.563   1.086   2.867 -1.0275 -1.8332  2.8230
  561MOL0     H77380  -1.811   0.758   3.108 -0.2321 -0.0862 -2.1799
  561MOL0     H77381  -1.987   0.588   3.126 -1.1832  1.0242  0.2729
  561MOL0     H77382  -1.852   0.187   3.211  0.5885  1.6321  3.3399
  561MOL0     H77383  -1.950   0.248   3.341  2.6494 -3.3026  2.1186
  561MOL0     H77384  -2.158   0.138   3.243 -0.8670 -3.7934 -0.5473
  561MOL0     H77385  -2.088   0.132   3.083  0.1090 -1.3334 -0.9504
  561MOL0     H77386  -1.999  -0.060   3.311  0.1083  1.2825 -0.3599
  561MOL0     H77387  -1.920  -0.031   3.162 -1.0586  0.9079 -0.7846
  561MOL0     H77388  -2.118  -0.094   3.029 -1.4053 -1.2214  0.2034
  561MOL0     H77389  -2.207  -0.092   3.180  0.5527  1.1421  1.0352
  561MOL0     H77390  -2.072  -0.292   3.285  0.6815 -1.9303 -1.0668
  561MOL0     H77391  -2.166  -0.331   3.148 -0.7639 -1.4994  1.1592
  561MOL0     H77392  -1.933  -0.421   3.137 -2.5602  0.4582  3.5158
  561MOL0     H77393  -1.874  -0.260   3.183 -1.6102  2.4523  2.3842
  561MOL0     H77394  -1.829  -0.335   2.942  0.3938  2.6663  0.5836
  561MOL0     H77395  -1.900  -0.184   2.964 -0.7449  0.3246 -1.8308
  561MOL0     H77396  -2.026  -0.272   2.792  0.7173  2.4474  0.9205
  561MOL0     H77397  -2.143  -0.300   2.931 -1.1199  0.2344 -0.9628
  561MOL0     H77398  -1.684   0.295   3.202  0.3244  0.9022  3.1798
  561MOL0     H77399  -1.519   0.438   3.187 -1.5200 -4.8499 -0.7925
  561MOL0     H77400  -1.348   0.824   3.242  0.0901 -2.4041 -2.2072
  561MOL0     H77401  -1.148   0.961   3.252 -0.7439 -0.6480 -0.2811
  561MOL0     H77402   0.376   1.821   3.473 -3.0658  0.2255  0.7085
  561MOL0     H77403   0.494   1.889   3.251  4.3419 -1.6482  0.6842
  561MOL0     H77404   0.627   1.585   2.885 -0.7806 -0.7965 -0.2097
  561MOL0     H77405   0.751   1.541   2.692  1.4349 -0.5695 -3.0914
  561MOL0     H77406   0.662   1.693   2.290  0.0225  1.7081 -1.9919
  561MOL0     H77407   0.623   1.832   2.378 -1.2095 -3.1514  0.9136
  561MOL0     H77408   0.893   1.755   2.254 -0.4488 -0.2180  2.3861
  561MOL0     H77409   0.877   1.899   2.349  0.6197 -1.2031  1.6108
  561MOL0     H77410   0.791   1.856   2.074  2.6231 -3.0582  2.2640
  561MOL0     H77411   0.691   1.972   2.162 -0.1515  1.0194 -2.4107
  561MOL0     H77412   0.872   2.089   2.028  0.2238 -1.6672 -1.9089
  561MOL0     H77413   0.984   1.974   2.076 -2.1550 -3.8465 -0.5950
  561MOL0     H77414   1.072   2.243   2.371  2.0334 -1.0806 -0.0940
  561MOL0     H77415   0.646   1.928   2.538 -5.0827 -1.3895 -1.7248
  561MOL0     H77416   0.572   2.091   2.843  0.1307 -0.6629  0.4722
  561MOL0     H77417   0.593   2.119   2.678  2.2762  3.0276  3.4333
  561MOL0     H77418   0.437   2.042   2.734  0.8722  0.1771 -2.0342
  562MOL0     O77419   7.911   9.798  11.254 -0.5261  0.5117  0.2585
  562MOL0     C77420   7.853   9.896  11.294 -0.1785  0.7124 -0.2652
  562MOL0     O77421   7.729   9.930  11.254  0.2642  0.1705  0.0290
  562MOL0     C77422   7.665   9.839  11.174 -0.4121 -0.7237  0.5564
  562MOL0     C77423   7.684   9.854  11.040  0.7356  1.2834 -0.0770
  562MOL0     C77424   7.644   9.745  10.955 -0.0462  0.0245  0.2703
  562MOL0     C77425   7.596   9.623  11.002  0.3918 -0.5343  0.4485
  562MOL0     O77426   7.556   9.521  10.924 -0.9007  0.1688 -0.2178
  562MOL0     C77427   7.655   9.432  10.892 -0.0204  0.4839 -0.6667
  562MOL0     C77428   7.607   9.288  10.903 -0.4411 -0.2898 -0.8609
  562MOL0     C77429   7.578   9.242  11.046 -0.4048  0.0400  0.7046
  562MOL0     C77430   7.524   9.100  11.055  0.5861 -0.4122 -0.5423
  562MOL0     C77431   7.375   9.088  11.096  0.5896  1.4679  0.3723
  562MOL0     C77432   7.345   8.947  11.151 -0.8110  0.5649 -0.4143
  562MOL0     C77433   7.206   8.927  11.209  0.7932 -1.3135  0.7541
  562MOL0     C77434   7.174   8.793  11.280  0.6193 -0.0637  0.2127
  562MOL0     N77435   7.026   8.783  11.299  0.0295  0.3190 -0.1948
  562MOL0     C77436   6.954   8.685  11.243  0.2422  0.6889 -0.2587
  562MOL0     C77437   6.838   8.687  11.323  0.3646 -1.1955  0.2781
  562MOL0     C77438   6.715   8.602  11.301  0.9828  0.4002  0.1457
  562MOL0     C77439   6.689   8.482  11.392  0.5830  0.2350 -0.3195
  562MOL0     C77440   6.698   8.527  11.535  0.0339 -0.0744 -0.6392
  562MOL0     C77441   6.587   8.467  11.619  0.0055  0.2812 -0.4826
  562MOL0     O77442   6.623   8.332  11.630  0.9756 -0.0383  0.3694
  562MOL0     C77443   6.530   8.240  11.675 -0.4085 -0.7227 -0.3055
  562MOL0     C77444   6.515   8.119  11.612  1.2293  0.4692 -0.3273
  562MOL0     C77445   6.426   8.028  11.659  0.3626  0.0445  0.9848
  562MOL0     C77446   6.449   7.887  11.600 -0.2676  0.8561  0.0648
  562MOL0     C77447   6.325   8.072  11.748 -0.0969  0.7755  0.1866
  562MOL0     C77448   6.200   8.000  11.770  0.2780 -0.1616 -0.3055
  562MOL0     O77449   6.136   8.039  11.881  0.1609  0.0145  0.5563
  562MOL0     C77450   6.035   7.967  11.946 -0.5387 -1.2232 -0.0042
  562MOL0     C77451   5.995   7.841  11.910  0.0537  0.2174  0.3239
  562MOL0     C77452   5.903   7.765  11.980  0.3443 -0.1984  0.7234
  562MOL0     C77453   5.844   7.819  12.090 -0.0925  0.0516 -0.2296
  562MOL0     O77454   5.750   7.761  12.170 -0.0782  0.0719  0.1090
  562MOL0     C77455   5.802   7.671  12.265  0.5458 -0.0157 -0.1585
  562MOL0     C77456   5.695   7.641  12.376  0.5669  0.1655 -0.9729
  562MOL0     C77457   5.742   7.538  12.467  0.2667 -0.2987  1.7724
  562MOL0     C77458   5.631   7.481  12.556  0.3633  0.6050 -0.6082
  562MOL0     C77459   5.662   7.357  12.642 -0.8822 -0.0342 -0.1353
  562MOL0     C77460   5.557   7.327  12.749  0.3634 -0.1308 -0.7308
  562MOL0     C77461   5.580   7.203  12.838 -1.3946  0.1479  0.7121
  562MOL0     C77462   5.472   7.202  12.946  0.3418  0.0891 -0.0563
  562MOL0    Cl77463   5.535   7.096  13.081 -0.0157  0.1020  0.1243
  562MOL0     C77464   5.871   7.957  12.118 -1.2594  0.5062 -0.5278
  562MOL0     C77465   5.974   8.029  12.055  0.8960  0.0689  0.8757
  562MOL0     O77466   6.167   7.917  11.687 -0.0869 -0.1970 -0.4399
  562MOL0     C77467   6.344   8.204  11.821  0.0780  0.1758  0.4570
  562MOL0     C77468   6.444   8.281  11.776 -0.2191 -0.8859 -0.6695
  562MOL0     N77469   6.854   8.780  11.424  0.3316 -0.3022 -1.1603
  562MOL0     N77470   6.963   8.846  11.405 -0.5538  0.2059  0.1048
  562MOL0     C77471   7.585   9.618  11.137 -0.1851  0.1998  0.6337
  562MOL0     C77472   7.619   9.719  11.226 -0.3939  1.3721 -0.5802
  562MOL0     C77473   7.928   9.974  11.395 -1.3658 -0.6335 -0.2991
  562MOL0     C77474   7.865  10.006  11.519 -0.1810  0.1515 -1.4393
  562MOL0     C77475   7.929  10.073  11.619 -0.3727 -0.3731 -0.6773
  562MOL0     C77476   8.065  10.115  11.592 -0.2599 -0.3938  0.6019
  562MOL0     O77477   8.144  10.189  11.669 -0.0402 -0.3336 -0.5758
  562MOL0     C77478   8.080  10.268  11.780 -0.6669 -0.3369 -0.2327
  562MOL0     C77479   8.132  10.194  11.905 -0.2349 -0.5912 -0.2680
  562MOL0     C77480   8.280  10.172  11.922 -0.3012  0.8814 -0.1310
  562MOL0     C77481   8.373  10.290  11.902  0.2054 -0.1152 -1.1221
  562MOL0     C77482   8.497  10.271  11.985 -0.0609 -0.3106  0.1997
  562MOL0     C77483   8.600  10.252  12.040 -0.4999 -0.6673 -0.3541
  562MOL0     C77484   8.132  10.072  11.472  0.2783 -0.3009  0.6574
  562MOL0     C77485   8.060  10.012  11.369 -0.0727  0.7286 -0.7717
  562MOL0     C77486   8.140   9.978  11.244 -0.6150 -0.0485  0.3163
  562MOL0     H77487   7.731   9.941  10.996  2.1735  1.9093  2.5416
  562MOL0     H77488   7.648   9.763  10.847 -0.2394  0.7535  0.3762
  562MOL0     H77489   7.740   9.447  10.958 -0.4469 -2.4612  0.7123
  562MOL0     H77490   7.695   9.444  10.790  0.8917 -1.0541 -0.5152
  562MOL0     H77491   7.507   9.285  10.860 -0.1302  0.4647 -1.6581
  562MOL0     H77492   7.679   9.220  10.856 -0.9405 -2.1531  0.8918
  562MOL0     H77493   7.669   9.240  11.107 -0.2267 -2.1198  0.4160
  562MOL0     H77494   7.500   9.308  11.086 -1.7103 -1.2393  0.3291
  562MOL0     H77495   7.543   9.040  10.966  1.0068  1.1660 -1.5610
  562MOL0     H77496   7.579   9.052  11.137 -0.5107 -3.6000 -1.5532
  562MOL0     H77497   7.315   9.096  11.005 -2.5118  0.1841  2.1190
  562MOL0     H77498   7.339   9.160  11.170 -1.8618 -0.9136  1.7107
  562MOL0     H77499   7.350   8.873  11.071 -1.3757 -1.3699  1.2487
  562MOL0     H77500   7.415   8.916  11.230  0.0404 -0.2910 -1.4793
  562MOL0     H77501   7.146   8.945  11.119 -0.2766  2.5354  2.0629
  562MOL0     H77502   7.181   9.015  11.269 -4.0273 -0.6017 -1.8062
  562MOL0     H77503   7.206   8.711  11.215 -2.1899  0.3383 -1.8633
  562MOL0     H77504   7.240   8.787  11.367  1.0100  0.2040 -0.0638
  562MOL0     H77505   6.981   8.610  11.168  3.7224 -2.2843  3.5525
  562MOL0     H77506   6.726   8.547  11.207 -2.3089 -1.6225  0.7659
  562MOL0     H77507   6.621   8.657  11.297 -0.3232 -1.7560 -0.2048
  562MOL0     H77508   6.592   8.435  11.370 -0.3312  1.5632  0.6482
  562MOL0     H77509   6.759   8.399  11.380  1.3268  0.2749  2.8650
  562MOL0     H77510   6.800   8.510  11.569 -1.0425 -3.1682  1.5342
  562MOL0     H77511   6.679   8.633  11.553  0.1309 -0.2491  0.5590
  562MOL0     H77512   6.587   8.510  11.720  1.9119 -1.3461  0.2587
  562MOL0     H77513   6.483   8.468  11.585  0.1777 -1.7731 -1.1938
  562MOL0     H77514   6.585   8.089  11.535  0.7516  3.6172 -2.1602
  562MOL0     H77515   6.557   7.870  11.586 -0.2248  1.1196  0.0751
  562MOL0     H77516   6.398   7.885  11.504 -4.7473 -0.4707  2.2095
  562MOL0     H77517   6.418   7.795  11.651  0.3458 -2.0116 -4.2003
  562MOL0     H77518   6.051   7.781  11.838 -0.4420 -3.1661  2.5387
  562MOL0     H77519   5.882   7.660  11.965  0.9131 -0.4063  1.3683
  562MOL0     H77520   5.822   7.578  12.212 -0.8145 -0.4804  0.1047
  562MOL0     H77521   5.890   7.698  12.324  1.5490 -1.8937 -0.7212
  562MOL0     H77522   5.685   7.731  12.438 -0.4460 -0.5082 -0.1205
  562MOL0     H77523   5.594   7.608  12.350  1.3025 -0.5405 -3.1296
  562MOL0     H77524   5.827   7.582  12.520 -1.0071  3.6283  0.8610
  562MOL0     H77525   5.762   7.451  12.402  0.0866  1.6482 -1.0837
  562MOL0     H77526   5.535   7.472  12.503 -1.2400  0.1076  2.1730
  562MOL0     H77527   5.618   7.570  12.618  1.6411 -1.3419  2.7338
  562MOL0     H77528   5.688   7.272  12.579  0.6964  0.7276 -0.5479
  562MOL0     H77529   5.756   7.375  12.695  0.7153 -1.8923 -2.1668
  562MOL0     H77530   5.471   7.303  12.685 -0.0389  1.8848 -1.0121
  562MOL0     H77531   5.537   7.413  12.813 -1.4431 -0.6004 -0.5986
  562MOL0     H77532   5.680   7.213  12.880  0.1416 -1.1207 -2.4271
  562MOL0     H77533   5.589   7.107  12.787  2.1305  0.1020  1.1984
  562MOL0     H77534   5.384   7.145  12.916  1.6398 -2.3974  0.5769
  562MOL0     H77535   5.450   7.302  12.983 -0.5930 -0.2534  0.3539
  562MOL0     H77536   5.802   7.990  12.195 -0.9487  0.5214 -0.2545
  562MOL0     H77537   6.008   8.130  12.078  3.0822 -0.1099 -1.1813
  562MOL0     H77538   6.277   8.253  11.891 -1.8741 -1.6743 -0.0201
  562MOL0     H77539   6.465   8.378  11.820  0.6418 -1.4363  0.1804
  562MOL0     H77540   7.541   9.529  11.181  3.2107 -1.3678  1.1629
  562MOL0     H77541   7.607   9.709  11.333  0.3449  1.3439 -0.4955
  562MOL0     H77542   7.762   9.973  11.528 -0.0383 -0.2782 -1.3442
  562MOL0     H77543   7.885  10.092  11.716  0.2644 -0.6247 -0.3312
  562MOL0     H77544   8.112  10.372  11.774  1.1373 -0.7697  1.2066
  562MOL0     H77545   7.971  10.282  11.773 -0.5434  0.2726 -5.3762
  562MOL0     H77546   8.084  10.096  11.902  0.5730 -0.9960 -0.1494
  562MOL0     H77547   8.086  10.250  11.988 -0.4703 -1.4003  0.1592
  562MOL0     H77548   8.294  10.136  12.024  0.7352  3.4124  0.7122
  562MOL0     H77549   8.319  10.088  11.863  1.6735 -0.5585  2.9753
  562MOL0     H77550   8.338  10.385  11.943  4.3647  0.4652  1.6756
  562MOL0     H77551   8.410  10.307  11.801 -1.4200  1.0415 -1.5735
  562MOL0     H77552   8.698  10.239  12.081 -0.1120  0.2229 -0.9489
  562MOL0     H77553   8.239  10.088  11.462  0.7267 -1.7860  2.3790
  562MOL0     H77554   8.179   9.876  11.241  1.6887  0.7990 -2.1415
  562MOL0     H77555   8.103  10.004  11.145  0.5756 -1.6887 -0.5963
  562MOL0     H77556   8.234  10.034  11.240  1.2951 -3.0159 -4.4748
  563MOL0     O77557   7.140   3.061   4.082  0.5525 -0.0079  0.1412
  563MOL0     C77558   7.252   3.105   4.114  0.6376  0.0359 -0.2152
  563MOL0     O77559   7.362   3.030   4.141  0.0523 -0.5345  0.0158
  563MOL0     C77560   7.360   2.899   4.097  0.8936  0.0312  0.1556
  563MOL0     C77561   7.248   2.807   4.116 -0.0953  0.9673 -0.4710
  563MOL0     C77562   7.267   2.674   4.063  0.0469 -0.2199  0.2045
  563MOL0     C77563   7.379   2.637   3.994  0.0449  1.0503 -0.7534
  563MOL0     O77564   7.404   2.511   3.948  0.3462  0.3869 -0.1089
  563MOL0     C77565   7.343   2.388   4.003  0.1779  0.7089 -0.3225
  563MOL0     C77566   7.442   2.267   4.004  0.0062 -0.5665  0.4832
  563MOL0     C77567   7.446   2.204   3.868  0.5386  0.3798 -0.4128
  563MOL0     C77568   7.564   2.101   3.856  0.7082 -0.2031  0.1771
  563MOL0     C77569   7.563   1.989   3.751  0.0277 -0.4905  0.2767
  563MOL0     C77570   7.571   2.046   3.614  0.0146  0.2489  0.3005
  563MOL0     C77571   7.578   1.932   3.513  0.3126  0.4934  0.4456
  563MOL0     C77572   7.542   1.980   3.374  0.4368 -0.0607 -0.1912
  563MOL0     N77573   7.519   1.860   3.289 -0.8068  0.5706  0.4218
  563MOL0     C77574   7.422   1.860   3.187 -0.0642  0.0386  0.3578
  563MOL0     C77575   7.448   1.752   3.109  0.5091 -0.4023 -0.0814
  563MOL0     C77576   7.387   1.706   2.986  0.3809 -0.2281 -0.5297
  563MOL0     C77577   7.480   1.627   2.900  0.3392  0.0877  0.9775
  563MOL0     C77578   7.490   1.475   2.948 -0.2484  0.0457  0.8246
  563MOL0     C77579   7.409   1.366   2.893 -0.9551 -0.9050 -0.4993
  563MOL0     O77580   7.269   1.406   2.914 -0.1033  0.5414 -0.2404
  563MOL0     C77581   7.212   1.325   3.010 -0.1785 -0.5777  0.4801
  563MOL0     C77582   7.126   1.228   2.975 -1.0095  0.4964 -0.1999
  563MOL0     C77583   7.076   1.132   3.060 -0.3503  0.1189 -0.0943
  563MOL0     C77584   6.983   1.024   2.996 -0.1570 -0.3781  0.0562
  563MOL0     C77585   7.114   1.126   3.200  0.2568  1.4662  0.1937
  563MOL0     C77586   7.076   1.029   3.293 -0.0460 -0.6346 -0.0923
  563MOL0     O77587   7.179   0.956   3.345  0.0485 -0.5905  0.5507
  563MOL0     C77588   7.146   0.856   3.434  1.2657 -0.2147  0.6905
  563MOL0     C77589   7.125   0.886   3.570  0.1533 -1.0881  0.1580
  563MOL0     C77590   7.097   0.785   3.651  0.4024 -0.1439 -0.5507
  563MOL0     C77591   7.078   0.651   3.614 -0.2917  0.8121  0.2921
  563MOL0     O77592   7.059   0.551   3.710  0.2539  0.3412  0.4531
  563MOL0     C77593   7.143   0.442   3.684  0.2688 -0.5267 -0.3200
  563MOL0     C77594   7.277   0.443   3.754 -0.0057  0.1348 -0.5062
  563MOL0     C77595   7.275   0.422   3.905 -0.9625  0.3690 -0.1139
  563MOL0     C77596   7.390   0.339   3.954  0.1838  0.4309  0.4823
  563MOL0     C77597   7.395   0.316   4.101  1.3579 -0.1892 -0.9626
  563MOL0     C77598   7.475   0.419   4.179  0.1482  0.6915  0.5094
  563MOL0     C77599   7.505   0.375   4.323 -0.1895  0.3873 -0.5989
  563MOL0     C77600   7.608   0.465   4.392 -0.5280 -0.0062  0.4929
  563MOL0    Cl77601   7.768   0.425   4.320 -0.3104 -0.0148  0.2610
  563MOL0     C77602   7.086   0.629   3.473 -0.5233  0.7114  0.6920
  563MOL0     C77603   7.132   0.732   3.384 -0.3197  0.3420 -0.1790
  563MOL0     O77604   6.957   1.007   3.318  0.5377 -0.8606 -0.3024
  563MOL0     C77605   7.212   1.226   3.233 -0.7013  1.3965  0.0429
  563MOL0     C77606   7.259   1.319   3.142 -0.6527  0.0092 -0.4478
  563MOL0     N77607   7.539   1.680   3.182  0.0879 -0.3890  0.1501
  563MOL0     N77608   7.582   1.739   3.290  0.5120  0.2872  0.1006
  563MOL0     C77609   7.481   2.730   3.975 -0.5090  0.2082 -0.4576
  563MOL0     C77610   7.480   2.848   4.037 -0.3594 -0.1337 -0.3011
  563MOL0     C77611   7.269   3.251   4.120 -0.0020 -0.6930  0.8813
  563MOL0     C77612   7.408   3.304   4.125 -0.1103 -0.6438 -0.9464
  563MOL0     C77613   7.441   3.443   4.104  0.6964  0.2686 -0.8114
  563MOL0     C77614   7.335   3.525   4.060 -0.8204 -0.3564 -0.2622
  563MOL0     O77615   7.347   3.657   4.014 -0.2612 -0.0482 -0.2993
  563MOL0     C77616   7.471   3.717   4.034  0.3209 -0.1336  0.3218
  563MOL0     C77617   7.465   3.868   3.989  0.3602  0.4586 -0.3510
  563MOL0     C77618   7.396   3.964   4.085 -0.3672 -0.0776  0.2648
  563MOL0     C77619   7.268   4.015   4.030  0.5335 -0.3190  0.1448
  563MOL0     C77620   7.208   4.132   4.099 -0.2221  0.1623 -0.8346
  563MOL0     C77621   7.173   4.229   4.161  0.1854 -0.1376 -0.3467
  563MOL0     C77622   7.206   3.479   4.064  0.3412 -0.3062 -0.2164
  563MOL0     C77623   7.175   3.347   4.089 -0.8004  0.2291  0.0022
  563MOL0     C77624   7.023   3.319   4.074 -0.9896  0.1500  0.1178
  563MOL0     H77625   7.150   2.831   4.157 -1.2994 -0.3349 -2.4604
  563MOL0     H77626   7.188   2.602   4.085 -3.7612  3.5069  0.1017
  563MOL0     H77627   7.253   2.356   3.949  1.6417 -3.2403 -0.7527
  563MOL0     H77628   7.326   2.409   4.109  1.2247 -0.6707  0.1503
  563MOL0     H77629   7.543   2.299   4.034  0.2572 -1.8412  1.0571
  563MOL0     H77630   7.403   2.197   4.078  0.1287 -1.8428 -0.6166
  563MOL0     H77631   7.355   2.149   3.841  0.5596  0.3108 -0.3433
  563MOL0     H77632   7.447   2.287   3.795 -0.7905  3.2264  2.5412
  563MOL0     H77633   7.652   2.165   3.846  1.7562 -1.8941 -3.0258
  563MOL0     H77634   7.568   2.052   3.954 -0.1574 -0.0584  0.2916
  563MOL0     H77635   7.478   1.924   3.773 -0.5174  0.1935  0.2495
  563MOL0     H77636   7.650   1.927   3.770 -1.0968 -2.3794 -0.4658
  563MOL0     H77637   7.495   2.123   3.608  0.7416  0.9413 -0.2130
  563MOL0     H77638   7.661   2.108   3.616 -0.5215  1.0215  0.9343
  563MOL0     H77639   7.514   1.848   3.543 -1.9905  1.7398 -0.6936
  563MOL0     H77640   7.682   1.898   3.516 -0.8372 -3.6990  0.0804
  563MOL0     H77641   7.447   2.035   3.379  0.8862  1.0269 -2.2475
  563MOL0     H77642   7.624   2.040   3.334  0.6257  0.9718  1.6684
  563MOL0     H77643   7.346   1.934   3.162  0.2450 -0.2352 -1.5594
  563MOL0     H77644   7.348   1.792   2.931  1.1300  0.4391 -0.0404
  563MOL0     H77645   7.298   1.643   2.990 -3.2589  4.4259  0.4355
  563MOL0     H77646   7.443   1.634   2.797  2.6548 -0.2448  0.0701
  563MOL0     H77647   7.576   1.676   2.886 -0.4129  0.6847 -3.4492
  563MOL0     H77648   7.594   1.455   2.919 -0.5466  1.5867 -1.5392
  563MOL0     H77649   7.487   1.476   3.057 -0.0541 -3.4177  0.9708
  563MOL0     H77650   7.419   1.351   2.785  0.5739  1.8066 -0.8267
  563MOL0     H77651   7.424   1.270   2.942 -1.0722  0.5690  2.6253
  563MOL0     H77652   7.095   1.221   2.871 -2.7867 -2.3552  0.4154
  563MOL0     H77653   6.885   1.025   3.044  0.3828 -0.2258  1.1897
  563MOL0     H77654   7.013   0.921   3.015 -2.5025 -1.7785 -3.0138
  563MOL0     H77655   6.986   1.031   2.887  0.2657 -1.5001 -0.0199
  563MOL0     H77656   7.128   0.993   3.592  4.8236 -0.9421 -0.1716
  563MOL0     H77657   7.080   0.809   3.756  2.0504 -2.9799  0.4892
  563MOL0     H77658   7.089   0.354   3.722  0.0202 -1.5342 -2.8388
  563MOL0     H77659   7.156   0.412   3.580  0.0250 -1.5816 -0.0654
  563MOL0     H77660   7.335   0.365   3.703 -2.9683 -1.6779 -1.3775
  563MOL0     H77661   7.337   0.531   3.732 -0.0603  0.2340 -0.2568
  563MOL0     H77662   7.178   0.383   3.939 -0.1631 -0.2483  1.5966
  563MOL0     H77663   7.286   0.522   3.947  0.9513  0.3950 -0.5874
  563MOL0     H77664   7.480   0.390   3.918 -1.9169  1.5922 -3.7636
  563MOL0     H77665   7.389   0.239   3.909  2.0588  0.4094  0.4171
  563MOL0     H77666   7.291   0.334   4.133  0.4811  1.1742 -4.1537
  563MOL0     H77667   7.421   0.210   4.111  1.6786 -0.1447 -1.3206
  563MOL0     H77668   7.427   0.517   4.185 -1.0599  0.1359  0.0867
  563MOL0     H77669   7.572   0.439   4.133  0.7412 -0.3365  1.2744
  563MOL0     H77670   7.548   0.274   4.328 -0.8152  0.1681  0.9623
  563MOL0     H77671   7.413   0.375   4.384  0.0351 -1.3267 -0.2165
  563MOL0     H77672   7.610   0.428   4.494 -0.3231  0.9496  0.8495
  563MOL0     H77673   7.589   0.573   4.394 -2.0741 -0.2452  0.4681
  563MOL0     H77674   7.072   0.531   3.430 -0.4413  1.6327 -1.5439
  563MOL0     H77675   7.143   0.721   3.276  2.5313 -2.0181  0.2109
  563MOL0     H77676   7.247   1.229   3.335 -1.8196  0.7753  0.4487
  563MOL0     H77677   7.311   1.407   3.180 -0.4607  0.3600 -1.5045
  563MOL0     H77678   7.570   2.706   3.917 -1.9323  1.2179 -3.2056
  563MOL0     H77679   7.577   2.896   4.030  0.9252 -2.3272  1.2844
  563MOL0     H77680   7.489   3.237   4.153 -1.6918 -1.9812  0.6523
  563MOL0     H77681   7.538   3.486   4.127 -1.0214  2.7700  2.6531
  563MOL0     H77682   7.499   3.703   4.139 -0.4026 -1.2098  0.3918
  563MOL0     H77683   7.545   3.679   3.962 -0.5268  0.8298 -1.1220
  563MOL0     H77684   7.416   3.871   3.891  0.8459 -4.3779 -1.0005
  563MOL0     H77685   7.571   3.889   3.970  0.6735  0.2258  1.0568
  563MOL0     H77686   7.372   3.920   4.182  1.4685 -1.4350  0.1492
  563MOL0     H77687   7.470   4.044   4.101 -1.7181  1.1966  0.3676
  563MOL0     H77688   7.192   3.936   4.034  0.2406 -0.0232  0.4957
  563MOL0     H77689   7.276   4.051   3.927 -1.2564  1.3597  0.5158
  563MOL0     H77690   7.131   4.320   4.199  2.7869 -0.0960  2.9642
  563MOL0     H77691   7.125   3.545   4.035  1.3429  1.4049  0.7496
  563MOL0     H77692   7.004   3.264   3.982 -2.1531  0.8441 -0.0763
  563MOL0     H77693   6.983   3.272   4.164  1.6507  0.7270  1.7165
  563MOL0     H77694   6.969   3.412   4.050 -1.3722  0.8556  3.3308
  564MOL0     O77695   0.182   7.733   4.290  0.9236  0.7196  0.5847
  564MOL0     C77696   0.294   7.693   4.276 -0.1541  0.1911  0.1046
  564MOL0     O77697   0.348   7.577   4.338  0.3340  0.2355 -0.2189
  564MOL0     C77698   0.272   7.518   4.434  0.5543  0.3605  0.9885
  564MOL0     C77699   0.188   7.410   4.409 -0.0055 -0.6295 -0.8259
  564MOL0     C77700   0.133   7.344   4.518 -0.5594  0.6641  0.8384
  564MOL0     C77701   0.150   7.376   4.650 -0.6840 -0.1622 -0.1542
  564MOL0     O77702   0.106   7.303   4.760 -0.1193 -0.0577  0.9716
  564MOL0     C77703   0.038   7.175   4.737 -0.0822  0.2546 -0.3883
  564MOL0     C77704   0.029   7.107   4.877 -0.9940 -0.1022  0.3363
  564MOL0     C77705  -0.088   7.164   4.950 -0.2333 -0.5854 -0.0402
  564MOL0     C77706  -0.126   7.096   5.077 -1.1569  0.2104 -1.4562
  564MOL0     C77707  -0.250   7.155   5.138  1.0363 -0.7950  0.2076
  564MOL0     C77708  -0.280   7.102   5.278  0.5529 -0.2473  0.4840
  564MOL0     C77709  -0.405   7.154   5.337 -0.8514  0.4904  0.3009
  564MOL0     C77710  -0.392   7.263   5.447 -0.1550  0.2835 -0.5931
  564MOL0     N77711  -0.522   7.310   5.493  0.6895 -0.2486  1.2692
  564MOL0     C77712  -0.573   7.443   5.493  0.3049 -0.6055  1.2122
  564MOL0     C77713  -0.682   7.434   5.566  0.1677 -0.4141 -0.2541
  564MOL0     C77714  -0.800   7.537   5.566 -0.2533  0.7950 -0.0670
  564MOL0     C77715  -0.918   7.495   5.471  0.6374 -0.3669 -0.0670
  564MOL0     C77716  -1.030   7.601   5.497 -0.6751 -0.8629  0.0172
  564MOL0     C77717  -1.107   7.589   5.633  0.8704 -0.2940  0.5018
  564MOL0     O77718  -1.211   7.480   5.619  0.0123 -0.9667  0.0817
  564MOL0     C77719  -1.294   7.449   5.719  0.7032 -0.5971 -0.5095
  564MOL0     C77720  -1.366   7.552   5.786 -0.3393  0.0454 -0.6067
  564MOL0     C77721  -1.468   7.509   5.880 -0.7241  0.3322 -0.7167
  564MOL0     C77722  -1.535   7.628   5.947 -0.1253  0.0045 -0.5125
  564MOL0     C77723  -1.482   7.375   5.931  1.1748 -0.4232 -0.4771
  564MOL0     C77724  -1.577   7.324   6.029 -0.3033  0.3207  0.4952
  564MOL0     O77725  -1.661   7.419   6.092  0.1323  0.7992 -0.5348
  564MOL0     C77726  -1.764   7.376   6.170 -0.3171  0.0529 -0.3947
  564MOL0     C77727  -1.772   7.446   6.289  0.7264  0.0539  0.1725
  564MOL0     C77728  -1.878   7.424   6.377 -0.2318  0.0664  0.0779
  564MOL0     C77729  -1.955   7.301   6.362  0.7102  0.9295  1.0617
  564MOL0     O77730  -2.046   7.267   6.461 -0.6474  0.9117  0.9588
  564MOL0     C77731  -2.114   7.144   6.449 -1.4123 -0.1465 -0.2197
  564MOL0     C77732  -2.207   7.109   6.561 -1.1880 -1.2642  1.1169
  564MOL0     C77733  -2.261   7.243   6.627  0.1806 -0.3496  1.1141
  564MOL0     C77734  -2.365   7.299   6.527 -0.1352 -0.3007 -0.3919
  564MOL0     C77735  -2.420   7.435   6.566  0.1507 -0.5888  0.9148
  564MOL0     C77736  -2.479   7.442   6.707 -0.1351 -0.2717 -0.4924
  564MOL0     C77737  -2.542   7.584   6.736 -0.0574 -0.0445 -0.2789
  564MOL0     C77738  -2.544   7.612   6.881  0.1168 -0.1180 -0.8418
  564MOL0    Cl77739  -2.678   7.730   6.924 -0.3053  0.2546 -0.2149
  564MOL0     C77740  -1.940   7.233   6.239 -0.0457 -0.4213  0.1205
  564MOL0     C77741  -1.856   7.278   6.142 -0.3928 -0.1064 -0.7095
  564MOL0     O77742  -1.577   7.205   6.053  0.4111 -0.7350 -0.2976
  564MOL0     C77743  -1.400   7.282   5.868  0.3248 -0.3512 -0.1966
  564MOL0     C77744  -1.316   7.314   5.756  0.5022 -0.9113  0.5947
  564MOL0     N77745  -0.698   7.310   5.621 -0.3585  0.1688  0.4428
  564MOL0     N77746  -0.604   7.237   5.562 -0.7039  0.2437  0.1699
  564MOL0     C77747   0.218   7.494   4.680 -0.0774 -0.1227 -0.6381
  564MOL0     C77748   0.285   7.563   4.572 -0.1901  0.0047  0.9125
  564MOL0     C77749   0.380   7.763   4.180 -0.3867  0.6481 -0.2157
  564MOL0     C77750   0.512   7.803   4.215 -1.0678 -0.5853  0.1186
  564MOL0     C77751   0.584   7.888   4.131 -0.4744 -1.4688 -0.0717
  564MOL0     C77752   0.526   7.942   4.017  0.7927 -0.1108  0.4049
  564MOL0     O77753   0.595   8.028   3.931 -0.1252  0.1968 -0.6179
  564MOL0     C77754   0.532   8.156   3.922 -0.6913  0.8086 -0.0037
  564MOL0     C77755   0.645   8.250   3.965  0.0401  0.1392  0.1177
  564MOL0     C77756   0.766   8.229   3.880 -0.6514  0.3104  0.5395
  564MOL0     C77757   0.871   8.334   3.905 -0.4100  0.5784  1.0550
  564MOL0     C77758   1.001   8.298   3.850  0.3160 -0.0550  0.4654
  564MOL0     C77759   1.114   8.268   3.807  0.5804  0.8508  0.3223
  564MOL0     C77760   0.393   7.899   3.988 -0.3606 -1.0119  0.0014
  564MOL0     C77761   0.321   7.809   4.061 -0.3971 -0.0578 -0.8686
  564MOL0     C77762   0.189   7.771   4.016 -1.3255 -0.4629 -0.3649
  564MOL0     H77763   0.175   7.381   4.305  0.7143  1.9272 -1.6842
  564MOL0     H77764   0.070   7.260   4.489 -2.1337  2.0068  0.2770
  564MOL0     H77765   0.094   7.107   4.672 -1.0519 -1.1050  0.1485
  564MOL0     H77766  -0.057   7.202   4.690  0.4654 -0.8231 -2.2320
  564MOL0     H77767   0.004   7.003   4.854 -1.4858  0.5795 -2.5428
  564MOL0     H77768   0.120   7.129   4.933  3.0063  1.9657 -5.8948
  564MOL0     H77769  -0.062   7.269   4.966  0.6358 -0.2610 -3.0003
  564MOL0     H77770  -0.182   7.171   4.893 -0.6165 -1.3845  0.4818
  564MOL0     H77771  -0.134   6.990   5.050 -0.1311  0.2549 -1.9950
  564MOL0     H77772  -0.051   7.099   5.157 -1.2079  1.2605 -1.4367
  564MOL0     H77773  -0.335   7.129   5.075 -0.5445  0.4598  1.7194
  564MOL0     H77774  -0.243   7.264   5.144  1.6046 -0.8659  4.7335
  564MOL0     H77775  -0.293   6.995   5.260  0.2162  0.2725 -3.1760
  564MOL0     H77776  -0.200   7.108   5.352 -0.3570  0.4444  1.4369
  564MOL0     H77777  -0.445   7.069   5.393  6.0069 -1.9183  2.5183
  564MOL0     H77778  -0.472   7.171   5.251  1.4744  0.5078 -1.6207
  564MOL0     H77779  -0.332   7.250   5.538  0.9657  5.2024 -0.3459
  564MOL0     H77780  -0.362   7.354   5.395 -0.4344  1.9724  2.0050
  564MOL0     H77781  -0.547   7.533   5.438 -1.2148  0.1200  1.6430
  564MOL0     H77782  -0.761   7.635   5.538  0.2973  0.9138  1.0582
  564MOL0     H77783  -0.837   7.538   5.669 -5.0469  2.6325 -1.5093
  564MOL0     H77784  -0.888   7.486   5.366 -1.1652 -1.6736 -0.5193
  564MOL0     H77785  -0.950   7.394   5.498  1.7886 -0.3940  1.2688
  564MOL0     H77786  -0.999   7.705   5.507 -1.5031 -0.7069  1.2351
  564MOL0     H77787  -1.111   7.587   5.426 -1.4903  1.1657  0.4947
  564MOL0     H77788  -1.036   7.537   5.698 -0.4682 -1.4056  1.1164
  564MOL0     H77789  -1.158   7.683   5.658 -1.2177 -0.9134 -1.1910
  564MOL0     H77790  -1.344   7.653   5.753 -0.3284 -0.1886 -1.3351
  564MOL0     H77791  -1.509   7.634   6.053  2.9184 -1.2416 -1.0904
  564MOL0     H77792  -1.639   7.596   5.951 -0.2053 -0.0770  4.7049
  564MOL0     H77793  -1.509   7.719   5.893  1.0971 -0.5607 -0.9157
  564MOL0     H77794  -1.697   7.519   6.317  0.4541  0.1087  0.7770
  564MOL0     H77795  -1.887   7.488   6.463  0.5745  1.1358 -0.6042
  564MOL0     H77796  -2.176   7.129   6.361  1.2089 -0.3451 -2.1470
  564MOL0     H77797  -2.041   7.063   6.437 -1.7888 -0.3827 -0.9502
  564MOL0     H77798  -2.288   7.044   6.527 -0.5067 -1.7896  0.4593
  564MOL0     H77799  -2.153   7.055   6.640  1.1528  0.1284  0.5606
  564MOL0     H77800  -2.185   7.316   6.656  0.0757 -1.2479  3.8743
  564MOL0     H77801  -2.317   7.219   6.718  2.0414 -2.2251  1.8353
  564MOL0     H77802  -2.444   7.225   6.533  0.2391 -0.8402 -1.7929
  564MOL0     H77803  -2.315   7.310   6.430  0.9479  1.6623  0.3212
  564MOL0     H77804  -2.339   7.505   6.548 -0.4152 -0.2336 -0.3816
  564MOL0     H77805  -2.496   7.466   6.493  0.3274 -0.8210  0.6304
  564MOL0     H77806  -2.402   7.419   6.781  1.2233  0.3211 -1.6818
  564MOL0     H77807  -2.557   7.366   6.715  2.0213 -2.4512  2.9331
  564MOL0     H77808  -2.640   7.598   6.690 -1.7277 -2.0128  2.4053
  564MOL0     H77809  -2.471   7.655   6.692 -1.8117  1.5559 -0.6787
  564MOL0     H77810  -2.446   7.652   6.907  0.2130 -0.2472 -1.0075
  564MOL0     H77811  -2.563   7.531   6.952 -3.7761  1.5456  0.2702
  564MOL0     H77812  -2.009   7.153   6.215 -0.3678 -0.6794  1.8145
  564MOL0     H77813  -1.849   7.219   6.051  2.2843 -0.2003 -0.5223
  564MOL0     H77814  -1.380   7.180   5.900  0.6736  0.2149  1.4807
  564MOL0     H77815  -1.248   7.236   5.724  1.1394 -0.1596  0.0572
  564MOL0     H77816   0.222   7.526   4.783  1.1866 -1.9292 -0.0760
  564MOL0     H77817   0.339   7.653   4.599  0.1710  0.0235  0.1519
  564MOL0     H77818   0.561   7.778   4.308  2.2310  2.6926 -0.4635
  564MOL0     H77819   0.682   7.917   4.166 -1.8939  1.3391  1.9836
  564MOL0     H77820   0.517   8.159   3.814  0.4237 -0.7229 -0.2350
  564MOL0     H77821   0.434   8.177   3.966 -1.2814 -1.3326 -0.1973
  564MOL0     H77822   0.675   8.227   4.068  0.5356 -0.1564 -0.0895
  564MOL0     H77823   0.619   8.355   3.948  2.6631  0.9918  0.9538
  564MOL0     H77824   0.802   8.126   3.891 -0.5586  0.3610  0.7264
  564MOL0     H77825   0.736   8.237   3.775 -1.5269 -2.0707  0.5488
  564MOL0     H77826   0.877   8.348   4.013  1.7199 -1.3763  1.2654
  564MOL0     H77827   0.832   8.429   3.867 -1.2189 -0.6234 -1.3784
  564MOL0     H77828   1.209   8.244   3.764 -1.3694  0.3823 -4.4183
  564MOL0     H77829   0.346   7.947   3.903  2.3767  0.4314 -0.8008
  564MOL0     H77830   0.171   7.666   4.039 -1.2705 -0.3809  0.0640
  564MOL0     H77831   0.116   7.832   4.071  1.7163  2.7533  0.4299
  564MOL0     H77832   0.171   7.776   3.909 -2.9770  1.0699 -0.0697
  565MOL0     O77833  10.765   3.535  10.883 -1.3449  0.1332 -0.8422
  565MOL0     C77834  10.761   3.650  10.934 -0.6758 -0.2836 -0.4761
  565MOL0     O77835  10.680   3.751  10.888  0.0814  0.4756 -0.1450
  565MOL0     C77836  10.574   3.735  10.798 -1.1050 -0.0715 -0.1530
  565MOL0     C77837  10.513   3.611  10.775 -0.2662 -0.0055  1.4441
  565MOL0     C77838  10.418   3.595  10.680 -0.5572 -0.0692  0.7168
  565MOL0     C77839  10.368   3.714  10.620 -0.2213 -0.1353  0.2642
  565MOL0     O77840  10.269   3.693  10.522 -0.6894  0.1734  0.0651
  565MOL0     C77841  10.237   3.788  10.420 -0.3254  0.9842 -0.0612
  565MOL0     C77842  10.170   3.722  10.313  0.5496 -0.0906  0.1544
  565MOL0     C77843  10.165   3.823  10.191  0.0765 -0.2149  0.7832
  565MOL0     C77844  10.079   3.947  10.224 -1.0339 -0.5888 -1.2346
  565MOL0     C77845  10.084   4.058  10.123 -0.7242 -0.7267 -0.1106
  565MOL0     C77846   9.954   4.117  10.088 -0.6201 -0.8232  0.3189
  565MOL0     C77847   9.870   4.148  10.208  0.8735 -0.5607 -0.1335
  565MOL0     C77848   9.776   4.263  10.190 -0.0563 -0.4670 -1.0554
  565MOL0     N77849   9.846   4.400  10.193  0.8056 -0.0915  0.0181
  565MOL0     C77850   9.876   4.471  10.305 -0.0674  0.5566 -0.1982
  565MOL0     C77851   9.935   4.587  10.263  0.5222  0.6746  0.1153
  565MOL0     C77852   9.975   4.710  10.338 -0.6879 -0.2816 -0.3479
  565MOL0     C77853   9.895   4.838  10.316 -0.5886 -0.2877 -0.4253
  565MOL0     C77854   9.964   4.977  10.346  0.7524  0.0378 -0.1295
  565MOL0     C77855   9.884   5.101  10.317  0.5753  0.6213  0.0627
  565MOL0     O77856   9.861   5.110  10.175  0.7346 -0.8411  0.0267
  565MOL0     C77857   9.797   5.225  10.123 -0.5710 -0.5704 -1.2989
  565MOL0     C77858   9.798   5.246   9.990 -0.1213  0.3482 -0.0187
  565MOL0     C77859   9.708   5.338   9.930  0.2371  0.3158  2.2155
  565MOL0     C77860   9.703   5.353   9.773 -0.6699  0.0600  0.2975
  565MOL0     C77861   9.602   5.396  10.013 -0.7119  0.5068  0.9589
  565MOL0     C77862   9.497   5.470   9.958  0.3423  0.1859 -0.3575
  565MOL0     O77863   9.475   5.591  10.026 -0.3865  0.9118 -0.6134
  565MOL0     C77864   9.376   5.673   9.976  0.2962 -0.0521  0.6665
  565MOL0     C77865   9.245   5.622   9.941 -0.0042 -0.0328  0.1262
  565MOL0     C77866   9.145   5.717   9.886  0.3415  0.0787 -0.7563
  565MOL0     C77867   9.173   5.855   9.877  0.5649  1.3620 -0.1386
  565MOL0     O77868   9.080   5.944   9.838  0.3236 -0.2681 -0.5173
  565MOL0     C77869   8.933   5.905   9.851 -0.0926 -0.9318 -0.6303
  565MOL0     C77870   8.888   5.921   9.998  0.6124 -0.4099 -0.4342
  565MOL0     C77871   8.757   5.855  10.008  0.0442 -0.1325  0.1691
  565MOL0     C77872   8.713   5.830  10.149  0.6001 -0.2438  0.0118
  565MOL0     C77873   8.566   5.796  10.176  0.1585 -0.6247  1.4253
  565MOL0     C77874   8.495   5.935  10.179 -0.8337 -0.6190  0.1014
  565MOL0     C77875   8.360   5.908  10.213 -0.1297  1.1689  0.4372
  565MOL0     C77876   8.284   6.031  10.230 -0.2140  0.0737 -0.7821
  565MOL0    Cl77877   8.287   6.114  10.065  0.1028 -0.1543 -0.0854
  565MOL0     C77878   9.305   5.892   9.898  0.0663  0.2043 -0.9876
  565MOL0     C77879   9.401   5.808   9.954  0.6308 -0.1634 -0.3387
  565MOL0     O77880   9.447   5.432   9.852 -0.5542  0.1050 -0.5000
  565MOL0     C77881   9.601   5.374  10.150 -0.7393  0.0711  0.6527
  565MOL0     C77882   9.702   5.297  10.203  0.5823  0.4057  0.1181
  565MOL0     N77883   9.952   4.569  10.125  0.3278  0.1907 -0.5299
  565MOL0     N77884   9.900   4.458  10.081  0.6489 -0.5303  1.1672
  565MOL0     C77885  10.425   3.835  10.640  0.1130  0.9189 -0.0170
  565MOL0     C77886  10.527   3.849  10.727 -0.0725 -0.1881  0.9616
  565MOL0     C77887  10.858   3.689  11.038 -0.5160  0.0621  0.3067
  565MOL0     C77888  10.909   3.820  11.039 -0.6844 -0.0123 -0.2752
  565MOL0     C77889  11.002   3.863  11.138 -0.5237 -0.7573 -0.1925
  565MOL0     C77890  11.025   3.785  11.248  0.3638 -0.4311  0.5863
  565MOL0     O77891  11.101   3.834  11.345 -0.3080  1.2663  0.6124
  565MOL0     C77892  11.123   3.762  11.471  0.4492  0.5165  0.3259
  565MOL0     C77893  11.165   3.851  11.584 -0.2510  0.3800  0.6049
  565MOL0     C77894  11.095   3.990  11.597  0.0669 -0.1880  0.0907
  565MOL0     C77895  11.083   4.050  11.748 -0.3847 -0.7100 -0.0926
  565MOL0     C77896  10.982   3.990  11.831  0.0527 -0.3074 -0.4005
  565MOL0     C77897  10.901   3.910  11.875  0.1084 -0.3945  0.6118
  565MOL0     C77898  10.972   3.656  11.239  0.6761  0.0705  0.4061
  565MOL0     C77899  10.882   3.608  11.143 -0.2567  0.2233 -1.2674
  565MOL0     C77900  10.829   3.459  11.163 -0.4705 -0.0084 -0.8596
  565MOL0     H77901  10.542   3.520  10.827  1.7680  0.1191  0.6016
  565MOL0     H77902  10.373   3.497  10.668 -1.6331  0.4475  0.3180
  565MOL0     H77903  10.335   3.823  10.386  0.8699 -1.3214  0.7922
  565MOL0     H77904  10.180   3.870  10.466 -0.7453  0.0928  1.0605
  565MOL0     H77905  10.213   3.626  10.282 -2.1182 -0.6359 -2.3596
  565MOL0     H77906  10.071   3.684  10.342 -0.1538  1.4499 -0.0875
  565MOL0     H77907  10.268   3.855  10.169  0.2939 -0.9987  0.6549
  565MOL0     H77908  10.132   3.787  10.094  1.3935  1.2299 -0.2605
  565MOL0     H77909   9.976   3.925  10.253 -0.3044 -1.0499  1.2244
  565MOL0     H77910  10.116   3.993  10.316 -0.2094 -2.2506 -0.6894
  565MOL0     H77911  10.124   4.006  10.036  1.8001 -1.7954  1.5612
  565MOL0     H77912  10.162   4.124  10.163 -0.2196 -1.9823  1.0360
  565MOL0     H77913   9.974   4.212  10.038 -0.3666 -1.0770 -0.0649
  565MOL0     H77914   9.894   4.054  10.022 -1.7818  0.6462 -0.0796
  565MOL0     H77915   9.934   4.155  10.296  0.0328 -0.2692  0.4697
  565MOL0     H77916   9.809   4.060  10.228  1.8420 -0.9891  1.0834
  565MOL0     H77917   9.742   4.262  10.087  2.2741  1.0751 -1.9341
  565MOL0     H77918   9.699   4.254  10.267  0.3144  0.1221 -0.6041
  565MOL0     H77919   9.846   4.447  10.406 -1.1387 -0.7574 -0.7974
  565MOL0     H77920  10.079   4.731  10.311 -1.0872  0.1798 -1.6208
  565MOL0     H77921   9.990   4.695  10.445  0.7278  3.0327  0.0281
  565MOL0     H77922   9.873   4.842  10.209 -0.4290  1.6243 -0.4105
  565MOL0     H77923   9.798   4.829  10.367 -1.1087 -1.2521 -1.5306
  565MOL0     H77924  10.012   4.976  10.444 -0.1024 -1.1801  0.3066
  565MOL0     H77925  10.051   4.982  10.280 -0.0079 -1.8715 -1.3710
  565MOL0     H77926   9.783   5.093  10.357 -1.3125 -0.0534 -4.2765
  565MOL0     H77927   9.917   5.200  10.352 -5.1121  2.1432  2.3524
  565MOL0     H77928   9.869   5.196   9.925  1.1422  3.0911 -0.9271
  565MOL0     H77929   9.804   5.363   9.733 -2.1419  0.5647 -3.7427
  565MOL0     H77930   9.651   5.445   9.743  2.5006  1.0926 -2.6576
  565MOL0     H77931   9.662   5.262   9.729  1.0701  0.3772 -2.1912
  565MOL0     H77932   9.205   5.522   9.950  0.5946 -0.3237 -0.3764
  565MOL0     H77933   9.051   5.670   9.860 -0.4115  1.6639 -0.9541
  565MOL0     H77934   8.884   5.978   9.785 -0.0127 -1.5546 -1.3948
  565MOL0     H77935   8.906   5.810   9.803  0.9151 -0.4585 -2.1925
  565MOL0     H77936   8.966   5.888  10.067  1.0198 -1.6231 -1.4347
  565MOL0     H77937   8.885   6.027  10.027  1.9866 -1.7357  6.0672
  565MOL0     H77938   8.757   5.769   9.940  0.8467  2.5218 -3.5028
  565MOL0     H77939   8.685   5.927   9.968  2.1622  1.3833 -1.1657
  565MOL0     H77940   8.744   5.918  10.205 -1.3035  0.9310 -0.6816
  565MOL0     H77941   8.768   5.740  10.179 -0.9263 -1.2986 -0.2302
  565MOL0     H77942   8.519   5.739  10.095  0.6310 -2.9399  2.6849
  565MOL0     H77943   8.550   5.740  10.269 -1.7315  0.4366  1.7942
  565MOL0     H77944   8.507   5.983  10.081  0.6282 -1.4011 -0.1410
  565MOL0     H77945   8.554   5.997  10.248 -0.8657 -0.8528  0.3393
  565MOL0     H77946   8.362   5.867  10.314  0.4961 -0.6214 -0.2709
  565MOL0     H77947   8.295   5.851  10.146  2.3672 -1.1257 -0.2378
  565MOL0     H77948   8.332   6.091  10.309  2.2135 -3.2612  0.5158
  565MOL0     H77949   8.182   6.002  10.258 -0.1186 -1.2771 -1.7842
  565MOL0     H77950   9.324   5.991   9.856  0.5721  0.1725 -0.8423
  565MOL0     H77951   9.500   5.849   9.970  0.6358 -0.3975  0.2569
  565MOL0     H77952   9.526   5.411  10.219 -0.0283  0.5603  1.1807
  565MOL0     H77953   9.705   5.290  10.312  2.1041  2.3004  0.2427
  565MOL0     H77954  10.386   3.928  10.600  0.4152  3.6129  5.0855
  565MOL0     H77955  10.571   3.947  10.744  1.2892 -0.6751  0.3673
  565MOL0     H77956  10.881   3.890  10.961  0.9331  2.3207  1.1085
  565MOL0     H77957  11.039   3.965  11.133 -2.4373  0.0279  0.6544
  565MOL0     H77958  11.029   3.714  11.502  0.3996  2.2320  3.2150
  565MOL0     H77959  11.189   3.677  11.457 -4.5802 -3.9150  0.1809
  565MOL0     H77960  11.271   3.871  11.567 -0.0440 -0.5899  0.6761
  565MOL0     H77961  11.157   3.800  11.680 -0.2553 -0.0819  0.3643
  565MOL0     H77962  11.148   4.062  11.534 -0.8844  1.3770  1.0269
  565MOL0     H77963  10.997   3.973  11.551 -0.1351 -0.3469  0.5737
  565MOL0     H77964  11.043   4.151  11.737  2.6594  0.4920 -1.0997
  565MOL0     H77965  11.178   4.054  11.801 -0.8876 -0.9319  0.8446
  565MOL0     H77966  10.830   3.853  11.931  1.1952 -3.4958 -0.9513
  565MOL0     H77967  11.009   3.596  11.322 -0.9930 -0.2204  0.9724
  565MOL0     H77968  10.720   3.463  11.174 -0.8121  0.2635 -3.5459
  565MOL0     H77969  10.858   3.394  11.080 -3.5938 -1.1277 -1.2082
  565MOL0     H77970  10.875   3.418  11.253 -0.8668  2.1165  0.3735
  566MOL0     O77971   1.135   1.591   8.227 -0.2090  0.1744 -0.2809
  566MOL0     C77972   1.069   1.500   8.276  0.1528  0.0431 -0.5275
  566MOL0     O77973   1.103   1.363   8.264  0.0928 -0.4771 -0.2083
  566MOL0     C77974   1.238   1.331   8.235  0.8193 -0.1114  0.0443
  566MOL0     C77975   1.252   1.242   8.128  0.0420 -0.8345 -1.1485
  566MOL0     C77976   1.384   1.210   8.103  0.5475  0.6323  0.7823
  566MOL0     C77977   1.489   1.238   8.191 -0.3443 -0.1802  1.0225
  566MOL0     O77978   1.620   1.195   8.153 -1.0242  0.2130 -0.0521
  566MOL0     C77979   1.714   1.163   8.262 -0.4246  0.5345 -0.4878
  566MOL0     C77980   1.782   1.029   8.216 -0.1717  0.5588 -0.1796
  566MOL0     C77981   1.856   1.031   8.078  0.0676  0.4593  0.2665
  566MOL0     C77982   1.973   0.923   8.100  1.1529 -0.5029  0.1160
  566MOL0     C77983   2.079   0.930   7.992  0.3183 -0.4396 -0.1068
  566MOL0     C77984   2.042   0.855   7.862  0.5930  0.5052 -1.2841
  566MOL0     C77985   2.142   0.868   7.751 -0.5141  0.0179 -0.6382
  566MOL0     C77986   2.120   0.770   7.641 -0.1383  0.6614 -0.1244
  566MOL0     N77987   1.996   0.805   7.590 -0.3911  0.8327  0.4108
  566MOL0     C77988   1.879   0.739   7.607  0.1255 -0.2218  0.2416
  566MOL0     C77989   1.783   0.823   7.565  0.0208  0.2063  0.7162
  566MOL0     C77990   1.639   0.800   7.561 -0.2956  0.1025 -0.1115
  566MOL0     C77991   1.562   0.794   7.698 -0.7307  0.2345  0.7199
  566MOL0     C77992   1.591   0.917   7.779 -0.7304  0.1705  1.3001
  566MOL0     C77993   1.559   0.902   7.921 -0.3457  1.2027 -0.7983
  566MOL0     O77994   1.642   0.792   7.981  0.4166  0.6738 -0.3826
  566MOL0     C77995   1.588   0.682   8.052 -0.1957  0.0430  0.8978
  566MOL0     C77996   1.655   0.617   8.157 -0.3641 -0.5440 -0.2806
  566MOL0     C77997   1.595   0.511   8.234  0.0116  0.2825  0.1960
  566MOL0     C77998   1.689   0.445   8.343  1.0053 -0.6063  0.1532
  566MOL0     C77999   1.484   0.443   8.175  0.4709 -0.5452 -1.3419
  566MOL0     C78000   1.422   0.319   8.233 -0.1328  0.4763 -0.5045
  566MOL0     O78001   1.330   0.259   8.153 -1.2413  0.3005  0.6591
  566MOL0     C78002   1.282   0.138   8.185  1.0205 -0.0044 -0.4260
  566MOL0     C78003   1.268   0.031   8.094 -1.0757 -0.8061 -0.2753
  566MOL0     C78004   1.195  -0.077   8.128  1.0918 -0.1650 -0.0600
  566MOL0     C78005   1.131  -0.098   8.254 -1.1608 -0.6705 -0.0548
  566MOL0     O78006   1.050  -0.205   8.274 -0.9975 -0.5755 -0.4933
  566MOL0     C78007   1.122  -0.325   8.294  0.2131 -0.1993 -0.2997
  566MOL0     C78008   1.073  -0.446   8.219 -0.4074 -0.5390  0.3439
  566MOL0     C78009   0.944  -0.500   8.282 -0.2783 -0.1026 -0.1349
  566MOL0     C78010   0.821  -0.415   8.263 -0.2816 -0.4880  0.9215
  566MOL0     C78011   0.685  -0.466   8.328  0.4848  0.0812 -0.4042
  566MOL0     C78012   0.701  -0.465   8.480 -0.4168  0.6379  0.5839
  566MOL0     C78013   0.578  -0.532   8.559  0.1151 -0.2495 -0.6911
  566MOL0     C78014   0.564  -0.467   8.697 -0.8378  1.1636 -0.2933
  566MOL0    Cl78015   0.725  -0.492   8.773  0.1590  0.0514 -0.1217
  566MOL0     C78016   1.132   0.013   8.340  0.1121  0.0454  0.3317
  566MOL0     C78017   1.194   0.126   8.302 -0.4622 -0.1475 -0.1929
  566MOL0     O78018   1.449   0.286   8.349 -0.3070 -0.1196  0.4560
  566MOL0     C78019   1.423   0.505   8.071  0.1749 -0.8038  0.0870
  566MOL0     C78020   1.464   0.626   8.009 -1.1425  0.6539  0.4251
  566MOL0     N78021   1.845   0.923   7.492 -0.8857 -0.2765 -0.5662
  566MOL0     N78022   1.976   0.910   7.510  0.1832 -0.4021 -0.9835
  566MOL0     C78023   1.464   1.325   8.298  0.4272  0.5446 -0.4857
  566MOL0     C78024   1.336   1.362   8.322  0.9652 -0.1399  0.1760
  566MOL0     C78025   0.939   1.532   8.331 -0.2073  0.9229 -0.9017
  566MOL0     C78026   0.846   1.431   8.322 -0.6509  0.0850  0.0679
  566MOL0     C78027   0.711   1.441   8.360 -0.8040  0.2200 -1.3748
  566MOL0     C78028   0.668   1.550   8.435  0.5957 -0.2106  0.5225
  566MOL0     O78029   0.534   1.545   8.473  0.1789  0.3154 -0.2132
  566MOL0     C78030   0.486   1.659   8.544  0.2931 -0.2544 -0.4110
  566MOL0     C78031   0.342   1.631   8.589  0.1729  0.8676  0.2459
  566MOL0     C78032   0.272   1.761   8.629  0.1577  0.0304  0.8842
  566MOL0     C78033   0.153   1.741   8.724 -0.7232 -0.7853  0.5025
  566MOL0     C78034   0.065   1.862   8.726 -0.1591  0.0157  0.7832
  566MOL0     C78035  -0.009   1.957   8.722  1.2524  0.7224 -0.5748
  566MOL0     C78036   0.764   1.660   8.449  0.2870  0.4728 -0.9442
  566MOL0     C78037   0.891   1.656   8.391 -0.0531  0.4794  1.4283
  566MOL0     C78038   0.983   1.770   8.431  0.1598 -0.3175 -0.4569
  566MOL0     H78039   1.169   1.204   8.069 -1.6715 -0.5023  0.9073
  566MOL0     H78040   1.405   1.135   8.028 -1.8978 -1.0385  1.6111
  566MOL0     H78041   1.668   1.138   8.357  1.2725  3.1485  1.1356
  566MOL0     H78042   1.775   1.254   8.262 -1.3615  1.1958 -1.9302
  566MOL0     H78043   1.834   1.004   8.309 -1.4167  0.4062  0.4893
  566MOL0     H78044   1.712   0.945   8.212  1.3432 -0.7393 -0.6654
  566MOL0     H78045   1.785   1.008   7.999 -0.3838 -2.2704  1.3617
  566MOL0     H78046   1.899   1.129   8.054 -0.7971  0.6936 -0.3825
  566MOL0     H78047   2.011   0.929   8.202 -0.2626  1.2088  0.5776
  566MOL0     H78048   1.925   0.824   8.098 -0.6202  0.3246  0.2310
  566MOL0     H78049   2.169   0.886   8.037  1.4254  1.3574 -0.4635
  566MOL0     H78050   2.114   1.031   7.968 -0.7902 -0.0688 -0.2188
  566MOL0     H78051   2.045   0.747   7.879 -0.1715  0.4603 -1.3841
  566MOL0     H78052   1.949   0.901   7.828  0.1303  1.2687  0.8327
  566MOL0     H78053   2.241   0.847   7.793 -1.2621  0.7714  1.6533
  566MOL0     H78054   2.135   0.971   7.714  1.3324  0.1428 -0.7762
  566MOL0     H78055   2.198   0.786   7.566  0.7764 -1.2536  0.3363
  566MOL0     H78056   2.128   0.665   7.672 -3.4768  1.1019  2.8330
  566MOL0     H78057   1.861   0.642   7.652 -0.5952  0.2514  0.9993
  566MOL0     H78058   1.612   0.709   7.508 -0.8374  0.4967 -0.5299
  566MOL0     H78059   1.597   0.887   7.509 -0.1546  0.1955 -0.0716
  566MOL0     H78060   1.454   0.795   7.678 -0.6274 -0.6874  0.0283
  566MOL0     H78061   1.593   0.704   7.752 -3.4201 -0.6301  0.9845
  566MOL0     H78062   1.695   0.950   7.774 -1.6159  3.1645  0.1818
  566MOL0     H78063   1.521   0.995   7.747 -1.8984 -1.3878 -0.1645
  566MOL0     H78064   1.595   0.989   7.976  2.9173 -1.4414  1.7330
  566MOL0     H78065   1.453   0.880   7.938 -0.1379 -0.5890 -1.5781
  566MOL0     H78066   1.747   0.658   8.197 -1.6070  0.5461  1.6439
  566MOL0     H78067   1.782   0.502   8.356  0.7568 -0.2378  0.3187
  566MOL0     H78068   1.716   0.342   8.317  0.2243 -0.9070  0.5374
  566MOL0     H78069   1.641   0.441   8.441  2.3868 -2.2582  0.8217
  566MOL0     H78070   1.326   0.048   8.004  0.2088  3.3276  1.1165
  566MOL0     H78071   1.199  -0.163   8.062  3.4940 -0.9490  0.9939
  566MOL0     H78072   1.227  -0.306   8.268  0.1405  0.9448  0.2007
  566MOL0     H78073   1.120  -0.339   8.402 -1.2386 -0.7006 -0.3666
  566MOL0     H78074   1.058  -0.427   8.112  1.1859 -0.8997  0.0223
  566MOL0     H78075   1.150  -0.522   8.235 -1.4820 -1.9587 -0.9695
  566MOL0     H78076   0.961  -0.524   8.388 -2.3964 -1.8993 -0.1303
  566MOL0     H78077   0.936  -0.605   8.252  3.6046 -0.1685 -1.4540
  566MOL0     H78078   0.800  -0.399   8.157  0.1150  1.2583  1.0792
  566MOL0     H78079   0.843  -0.319   8.310 -2.1251  1.3882 -1.7407
  566MOL0     H78080   0.610  -0.396   8.290  2.1273  2.0916 -0.1206
  566MOL0     H78081   0.666  -0.563   8.282  1.5072  0.1499 -1.0119
  566MOL0     H78082   0.722  -0.360   8.499  0.8070  0.3311  1.0378
  566MOL0     H78083   0.794  -0.516   8.508  0.1710  0.6226 -1.2752
  566MOL0     H78084   0.589  -0.641   8.564 -2.4052 -0.5321  0.9661
  566MOL0     H78085   0.484  -0.518   8.505 -1.8437 -2.0965  1.9597
  566MOL0     H78086   0.486  -0.524   8.749  0.8277 -0.2462  0.7794
  566MOL0     H78087   0.538  -0.361   8.706 -3.7211  0.4334  1.4897
  566MOL0     H78088   1.080   0.016   8.436  2.0775  4.7571  1.5244
  566MOL0     H78089   1.171   0.207   8.371 -0.5797  0.6228 -1.1181
  566MOL0     H78090   1.329   0.473   8.027 -0.0164  0.2848 -0.3317
  566MOL0     H78091   1.410   0.672   7.927  2.0379  2.8535 -0.6319
  566MOL0     H78092   1.545   1.347   8.367  1.7394 -2.8729 -0.7009
  566MOL0     H78093   1.310   1.421   8.409 -2.1763 -0.8627 -0.1593
  566MOL0     H78094   0.877   1.340   8.273  1.4781  0.4766  0.5638
  566MOL0     H78095   0.636   1.363   8.351 -0.9254  0.2219 -0.5168
  566MOL0     H78096   0.548   1.672   8.634 -1.8849  0.3603  1.0722
  566MOL0     H78097   0.490   1.751   8.486 -2.5408 -0.5902 -1.2928
  566MOL0     H78098   0.349   1.566   8.677  1.3652 -1.5925 -1.5348
  566MOL0     H78099   0.293   1.590   8.500 -0.6590  1.5847  0.3637
  566MOL0     H78100   0.351   1.809   8.686  0.9686 -2.4992  2.0451
  566MOL0     H78101   0.232   1.817   8.544  0.3982  0.4356  1.0387
  566MOL0     H78102   0.193   1.718   8.824  0.7505 -0.5105  0.0054
  566MOL0     H78103   0.089   1.659   8.691  0.1441 -1.3675  0.2190
  566MOL0     H78104  -0.073   2.043   8.719  3.1445  2.1517 -1.3986
  566MOL0     H78105   0.729   1.746   8.505  0.8848  1.1401 -1.5818
  566MOL0     H78106   0.957   1.859   8.373 -3.1615 -1.1207 -0.4011
  566MOL0     H78107   0.959   1.794   8.535 -0.3269 -1.0438 -0.3913
  566MOL0     H78108   1.089   1.745   8.420  0.3352 -1.3182  2.4785
  567MOL0     O78109  11.105  10.996   6.877 -0.8996 -1.2077 -0.3246
  567MOL0     C78110  11.131  11.043   6.765  0.2148  0.8721 -0.1120
  567MOL0     O78111  11.121  10.973   6.652  0.2094  0.0018  0.8589
  567MOL0     C78112  11.087  10.844   6.664 -0.4195  0.5598  0.2740
  567MOL0     C78113  11.189  10.761   6.697 -0.3936 -0.3870  0.0520
  567MOL0     C78114  11.165  10.632   6.714 -0.9108  0.5048  0.6825
  567MOL0     C78115  11.042  10.567   6.691 -0.1492  0.4221 -0.2902
  567MOL0     O78116  11.026  10.440   6.721 -0.6631  0.1381  0.1820
  567MOL0     C78117  11.006  10.362   6.598  0.1680  0.2396 -0.0105
  567MOL0     C78118  11.027  10.220   6.614  0.1243 -0.4831 -0.6097
  567MOL0     C78119  10.960  10.152   6.730 -0.1018  0.1736 -0.1894
  567MOL0     C78120  10.813  10.179   6.744 -0.7652  0.1174 -0.2063
  567MOL0     C78121  10.735  10.137   6.621  0.7964 -0.6886  0.8810
  567MOL0     C78122  10.588  10.108   6.647 -0.0795 -0.4130  0.8358
  567MOL0     C78123  10.530  10.025   6.529  0.5021 -0.0132  0.3625
  567MOL0     C78124  10.539  10.096   6.391  0.0852  0.2699  0.1182
  567MOL0     N78125  10.426  10.054   6.304  0.1804 -0.1749  0.8111
  567MOL0     C78126  10.371   9.924   6.283 -0.2533 -0.5697 -0.7697
  567MOL0     C78127  10.297   9.928   6.176 -0.6946  0.0078  0.2149
  567MOL0     C78128  10.206   9.815   6.134 -0.1861 -0.1601  0.3950
  567MOL0     C78129  10.056   9.839   6.142 -0.3421  0.6039  1.1082
  567MOL0     C78130  10.000   9.941   6.034  0.2409  0.5994  0.1878
  567MOL0     C78131   9.920   9.881   5.916 -0.8246 -0.3450  0.3224
  567MOL0     O78132   9.973   9.755   5.867  0.1492 -0.2108 -0.5416
  567MOL0     C78133   9.896   9.712   5.756 -0.1755  0.5509  0.3113
  567MOL0     C78134   9.855   9.579   5.750 -0.0847  0.8124  0.6179
  567MOL0     C78135   9.807   9.514   5.631  0.8992 -0.4126  0.0474
  567MOL0     C78136   9.771   9.368   5.642 -0.8614 -0.9722 -0.2596
  567MOL0     C78137   9.802   9.588   5.513  0.5372  0.0324 -0.0206
  567MOL0     C78138   9.750   9.539   5.383 -0.7127  0.4234  0.5802
  567MOL0     O78139   9.743   9.635   5.289 -0.0437 -0.7602 -0.8145
  567MOL0     C78140   9.637   9.632   5.196  0.3900 -0.5806  0.6296
  567MOL0     C78141   9.512   9.604   5.231  1.0173  0.3980  0.6569
  567MOL0     C78142   9.412   9.563   5.135  0.8923 -0.3874 -0.3252
  567MOL0     C78143   9.450   9.553   5.002  0.2628  0.2032 -1.1278
  567MOL0     O78144   9.358   9.515   4.912 -0.1520  0.7786  0.7413
  567MOL0     C78145   9.375   9.373   4.879  0.4127 -0.3620 -1.0923
  567MOL0     C78146   9.246   9.310   4.834  0.0748  0.6460  0.0274
  567MOL0     C78147   9.142   9.309   4.948  0.6444 -0.0071  0.1478
  567MOL0     C78148   8.997   9.285   4.892  0.5239 -0.1117 -0.4570
  567MOL0     C78149   8.899   9.335   4.990 -1.4095  0.7815 -0.5789
  567MOL0     C78150   8.757   9.276   4.981 -0.9424  0.0387  0.6001
  567MOL0     C78151   8.692   9.319   4.855 -0.9831  0.3032  0.6997
  567MOL0     C78152   8.630   9.458   4.862 -0.2628  0.7358  0.1684
  567MOL0    Cl78153   8.585   9.498   4.696 -0.2476 -0.2210  0.2930
  567MOL0     C78154   9.577   9.597   4.961  0.0989 -0.1472  0.4850
  567MOL0     C78155   9.673   9.631   5.059  0.7233  0.6840 -0.2124
  567MOL0     O78156   9.690   9.436   5.374 -0.0656  0.3092 -0.0236
  567MOL0     C78157   9.851   9.720   5.523 -0.3759  0.2131  0.7468
  567MOL0     C78158   9.885   9.786   5.643  0.0394 -0.5218  1.0906
  567MOL0     N78159  10.295  10.060   6.128 -0.1129  0.2941 -0.1479
  567MOL0     N78160  10.389  10.124   6.192 -0.1380 -0.5103 -0.9570
  567MOL0     C78161  10.936  10.652   6.649 -0.2675  0.5904  0.2107
  567MOL0     C78162  10.960  10.789   6.647  0.6263 -0.2691  0.0312
  567MOL0     C78163  11.166  11.183   6.749  0.4694 -0.0079  0.0379
  567MOL0     C78164  11.227  11.220   6.629  0.0258 -0.0255  0.3787
  567MOL0     C78165  11.261  11.351   6.596  0.0206  0.1640  0.7643
  567MOL0     C78166  11.266  11.447   6.692  1.0358 -0.4154  0.1616
  567MOL0     O78167  11.293  11.571   6.644 -0.6553 -0.5491 -0.5529
  567MOL0     C78168  11.252  11.681   6.722  1.1156 -1.0130  0.7228
  567MOL0     C78169  11.096  11.707   6.711 -0.1711  0.3380  0.4481
  567MOL0     C78170  11.045  11.793   6.821 -0.1839  0.0369 -0.5542
  567MOL0     C78171  10.889  11.820   6.825  0.2794 -0.5434 -0.1788
  567MOL0     C78172  10.847  11.876   6.952 -0.9833 -0.1723 -0.1878
  567MOL0     C78173  10.815  11.914   7.064  0.5538 -0.2700 -0.5595
  567MOL0     C78174  11.220  11.406   6.821  0.7287  0.0961  0.0166
  567MOL0     C78175  11.161  11.281   6.848  0.7900  0.1882 -0.2160
  567MOL0     C78176  11.105  11.272   6.990 -0.0361  0.7294 -0.5435
  567MOL0     H78177  11.285  10.806   6.722  0.5078 -1.8633 -0.6305
  567MOL0     H78178  11.258  10.585   6.746 -0.5984  2.1512  2.3454
  567MOL0     H78179  11.081  10.371   6.519 -2.6055 -0.8778 -3.0049
  567MOL0     H78180  10.914  10.392   6.547  1.4065  3.5646 -0.5493
  567MOL0     H78181  11.005  10.169   6.520 -4.3360  0.6102 -0.3586
  567MOL0     H78182  11.132  10.198   6.639 -0.5757 -1.2731  1.8678
  567MOL0     H78183  10.960  10.044   6.716  0.3700 -0.1942  2.2280
  567MOL0     H78184  11.013  10.173   6.824  1.4176 -3.1998 -0.1624
  567MOL0     H78185  10.792  10.121   6.834 -3.2470 -1.6577 -1.8069
  567MOL0     H78186  10.780  10.282   6.761 -0.2898  0.9624 -3.5640
  567MOL0     H78187  10.787  10.058   6.567  2.8923 -0.0456  1.8459
  567MOL0     H78188  10.736  10.226   6.558 -1.5423 -1.3987 -0.2438
  567MOL0     H78189  10.586  10.050   6.740  0.6144 -0.2883  0.9317
  567MOL0     H78190  10.539  10.206   6.658  1.8053  0.5608  1.0540
  567MOL0     H78191  10.425  10.009   6.553 -0.1303 -0.0195 -2.1508
  567MOL0     H78192  10.575   9.926   6.517 -0.1025 -0.2319 -0.1358
  567MOL0     H78193  10.533  10.202   6.416 -1.7875  0.0956  0.5518
  567MOL0     H78194  10.637  10.075   6.348 -0.8594 -2.8832 -0.7914
  567MOL0     H78195  10.391   9.853   6.363 -2.3570  1.4140  1.7150
  567MOL0     H78196  10.221   9.726   6.197 -2.4237  0.5782  2.0992
  567MOL0     H78197  10.252   9.785   6.039  3.2598 -0.9640  2.1374
  567MOL0     H78198   9.998   9.747   6.131 -0.1900  0.7440 -1.2533
  567MOL0     H78199  10.043   9.880   6.243 -2.1724  1.1817  0.6795
  567MOL0     H78200   9.936  10.020   6.075  0.8267 -0.7906  4.2942
  567MOL0     H78201  10.081   9.999   5.990  0.8285 -0.0216  0.4221
  567MOL0     H78202   9.823   9.858   5.961 -0.8819 -2.0784 -0.6094
  567MOL0     H78203   9.907   9.958   5.839  2.1524 -2.9444 -3.1111
  567MOL0     H78204   9.878   9.512   5.833  1.2275  1.2699  0.6501
  567MOL0     H78205   9.784   9.332   5.744  0.4219  0.0151 -0.0493
  567MOL0     H78206   9.847   9.310   5.588  0.4032  1.1108 -0.8613
  567MOL0     H78207   9.666   9.349   5.615 -1.2482 -0.4461  0.8371
  567MOL0     H78208   9.488   9.603   5.337  1.4544  0.3370  0.7569
  567MOL0     H78209   9.309   9.540   5.159  0.8569 -0.4421 -0.5299
  567MOL0     H78210   9.459   9.353   4.811  1.3014  0.6147 -0.3125
  567MOL0     H78211   9.400   9.319   4.970 -1.3487  0.2320 -0.2168
  567MOL0     H78212   9.211   9.365   4.746 -0.5198  1.1002  0.5420
  567MOL0     H78213   9.261   9.207   4.802  2.0738  0.4135  1.5236
  567MOL0     H78214   9.134   9.403   5.004 -0.9486 -1.4024  2.4806
  567MOL0     H78215   9.168   9.227   5.016  2.7460  2.6908  2.8838
  567MOL0     H78216   8.984   9.183   4.856  0.7672  0.3992 -2.0704
  567MOL0     H78217   8.978   9.346   4.803 -4.1604 -2.0963 -1.0893
  567MOL0     H78218   8.925   9.304   5.091 -0.8554 -2.4458 -1.5888
  567MOL0     H78219   8.906   9.444   4.991 -0.1246  0.7180  1.7104
  567MOL0     H78220   8.688   9.299   5.063 -2.5816  4.1691 -1.6212
  567MOL0     H78221   8.768   9.168   4.973 -2.6691 -0.0463 -1.7024
  567MOL0     H78222   8.616   9.246   4.823  0.5658 -0.4875 -1.4141
  567MOL0     H78223   8.761   9.317   4.770  0.2220 -3.8653  1.5357
  567MOL0     H78224   8.685   9.540   4.910  0.2594  0.5832 -0.1616
  567MOL0     H78225   8.539   9.448   4.922 -0.8493 -1.2836 -0.9872
  567MOL0     H78226   9.598   9.597   4.855 -0.8743 -3.1377  0.2020
  567MOL0     H78227   9.775   9.653   5.031  0.2210 -0.7419 -3.6728
  567MOL0     H78228   9.864   9.782   5.435  3.8654  2.8479  2.8681
  567MOL0     H78229   9.933   9.883   5.649 -2.0651  0.8502 -1.9795
  567MOL0     H78230  10.837  10.608   6.639  0.9301 -3.1126  2.5662
  567MOL0     H78231  10.877  10.853   6.618  1.8723  2.0774  1.3130
  567MOL0     H78232  11.246  11.147   6.550 -0.1940 -0.8047  1.0280
  567MOL0     H78233  11.305  11.373   6.499 -2.0353 -0.8747 -0.4718
  567MOL0     H78234  11.276  11.672   6.828 -1.9333 -0.5641  1.5462
  567MOL0     H78235  11.314  11.760   6.681  2.7804 -1.9329  1.3903
  567MOL0     H78236  11.061  11.604   6.725  2.4017 -0.1075  6.6442
  567MOL0     H78237  11.069  11.747   6.613  0.1209 -0.5844 -0.0339
  567MOL0     H78238  11.075  11.746   6.915 -3.4520  1.4859  1.4204
  567MOL0     H78239  11.091  11.892   6.806  2.1872 -1.1089 -1.3221
  567MOL0     H78240  10.840  11.724   6.807 -1.0345  0.3384 -1.5734
  567MOL0     H78241  10.853  11.887   6.746  2.2620  0.7763 -0.0423
  567MOL0     H78242  10.790  11.953   7.161 -3.7730 -1.6418 -0.8896
  567MOL0     H78243  11.213  11.476   6.904 -0.5864 -1.8427  1.6411
  567MOL0     H78244  11.179  11.213   7.045 -1.9555 -0.5851  0.7517
  567MOL0     H78245  11.104  11.368   7.043  4.1196  0.1038  1.0611
  567MOL0     H78246  11.006  11.226   6.999 -2.0786  4.4983 -1.5501
  568MOL0     O78247   2.436   1.486   8.187  0.3691  0.3897  0.4729
  568MOL0     C78248   2.371   1.510   8.284  1.0177 -0.2154  0.8568
  568MOL0     O78249   2.428   1.535   8.408 -0.3638  0.4916  0.2268
  568MOL0     C78250   2.569   1.511   8.402  0.2335  0.3569 -0.8548
  568MOL0     C78251   2.653   1.617   8.364 -0.4697 -0.2881  0.1351
  568MOL0     C78252   2.787   1.596   8.329 -0.4782 -1.2525 -0.8275
  568MOL0     C78253   2.839   1.463   8.335  0.2709  0.0107  0.1984
  568MOL0     O78254   2.977   1.447   8.331  0.4156  0.4302  0.7867
  568MOL0     C78255   3.034   1.385   8.442  0.2753  0.2852  0.1491
  568MOL0     C78256   3.174   1.440   8.464  0.7644  1.3830 -0.2972
  568MOL0     C78257   3.165   1.585   8.504 -0.1807 -0.1866 -0.1485
  568MOL0     C78258   3.296   1.655   8.498 -0.5739 -0.6503  0.2856
  568MOL0     C78259   3.306   1.750   8.610  1.1661 -0.3573 -0.4427
  568MOL0     C78260   3.442   1.812   8.617  0.3452 -0.5688  0.9026
  568MOL0     C78261   3.476   1.880   8.481  0.2236 -0.0812  0.3626
  568MOL0     C78262   3.580   1.984   8.492  0.2828  0.0031 -0.0187
  568MOL0     N78263   3.623   2.035   8.365 -0.0076  0.4849  1.2215
  568MOL0     C78264   3.599   2.167   8.322  0.2974 -0.0631 -0.6807
  568MOL0     C78265   3.648   2.173   8.196  0.0909 -0.1919 -0.6756
  568MOL0     C78266   3.640   2.301   8.125  1.1023  0.0207  0.7812
  568MOL0     C78267   3.545   2.301   8.014  0.7751  0.9727 -0.9539
  568MOL0     C78268   3.395   2.307   8.053 -0.0829  0.3572  0.0476
  568MOL0     C78269   3.362   2.437   8.139 -1.1167 -0.0335 -0.0882
  568MOL0     O78270   3.393   2.417   8.280 -0.3588 -0.5501 -0.4328
  568MOL0     C78271   3.359   2.515   8.373 -0.4358 -1.1726  0.3138
  568MOL0     C78272   3.370   2.488   8.510  0.6279  0.1108 -0.3341
  568MOL0     C78273   3.339   2.582   8.613 -0.3239 -0.4126  0.5612
  568MOL0     C78274   3.333   2.539   8.759  0.1304  0.3158  0.0924
  568MOL0     C78275   3.316   2.716   8.576 -0.3805  0.1499  1.2915
  568MOL0     C78276   3.300   2.829   8.670  0.7316 -1.0117  1.2050
  568MOL0     O78277   3.313   2.949   8.623 -0.2554 -0.2959 -0.4304
  568MOL0     C78278   3.302   3.054   8.707 -0.5787 -1.2576 -0.4303
  568MOL0     C78279   3.177   3.102   8.747  0.1004 -0.6074  1.6389
  568MOL0     C78280   3.173   3.205   8.840 -0.0659 -0.1737  0.1948
  568MOL0     C78281   3.282   3.281   8.871 -1.1708 -0.6403 -1.6881
  568MOL0     O78282   3.274   3.390   8.962 -0.7137  0.2491  0.0232
  568MOL0     C78283   3.172   3.486   8.935  0.6654 -0.3044 -0.1675
  568MOL0     C78284   3.198   3.538   8.788  0.6619  0.9108 -0.4730
  568MOL0     C78285   3.130   3.675   8.745  0.0641 -0.2883 -0.2935
  568MOL0     C78286   3.159   3.697   8.597  0.9077  1.1236 -0.3143
  568MOL0     C78287   3.099   3.820   8.531  0.3358 -0.4939 -0.5058
  568MOL0     C78288   2.948   3.843   8.538 -0.0345  0.1643 -0.2839
  568MOL0     C78289   2.882   3.941   8.433  0.2176 -0.7381 -0.7816
  568MOL0     C78290   2.719   3.936   8.441 -0.1905  0.1687  0.7245
  568MOL0    Cl78291   2.641   4.028   8.571 -0.3963  0.6156 -0.1397
  568MOL0     C78292   3.409   3.236   8.831 -0.0063  0.2155  0.0266
  568MOL0     C78293   3.425   3.120   8.749 -0.5685  0.6231 -0.8288
  568MOL0     O78294   3.256   2.805   8.788 -0.2377  0.2520  0.1175
  568MOL0     C78295   3.314   2.741   8.431 -0.4251 -0.1110  0.6747
  568MOL0     C78296   3.328   2.644   8.332 -0.4513  0.1632 -0.4089
  568MOL0     N78297   3.704   2.053   8.163 -0.8073 -0.8644 -1.1211
  568MOL0     N78298   3.685   1.968   8.260  1.7624  0.4687  0.3220
  568MOL0     C78299   2.757   1.356   8.373  0.0833 -0.0691 -0.5860
  568MOL0     C78300   2.621   1.382   8.406 -0.4852  0.2123  0.2876
  568MOL0     C78301   2.216   1.518   8.271 -0.9340 -0.0583  0.2665
  568MOL0     C78302   2.165   1.629   8.327 -1.9856 -0.7026 -0.3543
  568MOL0     C78303   2.024   1.651   8.314 -0.7202 -0.1425 -0.4882
  568MOL0     C78304   1.947   1.573   8.227  0.2327 -0.4071 -1.1065
  568MOL0     O78305   1.816   1.605   8.206  1.0776  0.0901  0.0182
  568MOL0     C78306   1.786   1.743   8.181  0.7707 -0.0780 -0.2543
  568MOL0     C78307   1.655   1.754   8.106 -0.9628  0.1584 -0.7651
  568MOL0     C78308   1.617   1.890   8.095  0.7212  0.6593  0.8540
  568MOL0     C78309   1.709   1.993   8.036  0.1657 -0.0545 -0.2770
  568MOL0     C78310   1.742   1.960   7.898 -0.6083  0.2405 -0.3259
  568MOL0     C78311   1.762   1.915   7.789 -0.0589  0.6935  0.2082
  568MOL0     C78312   2.010   1.471   8.153 -0.7249  0.0373 -0.8350
  568MOL0     C78313   2.142   1.441   8.184  0.1755  0.9557  0.0699
  568MOL0     C78314   2.192   1.317   8.109 -0.7857 -0.7634  0.7316
  568MOL0     H78315   2.607   1.715   8.362 -0.7490 -0.3915 -2.5714
  568MOL0     H78316   2.851   1.676   8.293 -2.2450  0.1665 -1.0033
  568MOL0     H78317   3.040   1.277   8.430  2.8795  0.4510 -0.5989
  568MOL0     H78318   2.979   1.397   8.536  2.0181 -0.6750  1.3444
  568MOL0     H78319   3.210   1.391   8.555  0.4356  1.0950 -0.3236
  568MOL0     H78320   3.244   1.429   8.380 -2.0190  0.1171 -2.6277
  568MOL0     H78321   3.094   1.641   8.443 -0.2658  2.4540  2.1826
  568MOL0     H78322   3.131   1.586   8.608  0.4064  0.5355  0.0466
  568MOL0     H78323   3.373   1.578   8.509  0.8034  0.8600  1.8097
  568MOL0     H78324   3.306   1.703   8.401  1.9577 -3.3406 -0.9437
  568MOL0     H78325   3.297   1.691   8.701 -1.6044  0.5007 -0.0756
  568MOL0     H78326   3.223   1.821   8.617  0.1098 -1.6761  1.1594
  568MOL0     H78327   3.432   1.878   8.704 -3.4752  1.4665 -0.7929
  568MOL0     H78328   3.515   1.735   8.643  1.7601  0.3399 -0.2510
  568MOL0     H78329   3.382   1.920   8.443 -1.0554 -0.0225  3.3031
  568MOL0     H78330   3.512   1.803   8.412 -1.9046 -1.6311  0.8691
  568MOL0     H78331   3.541   2.072   8.544  0.9178 -0.3740  1.1533
  568MOL0     H78332   3.669   1.946   8.543  1.1170  2.6793  0.7092
  568MOL0     H78333   3.537   2.240   8.374  1.6340 -0.0942  1.0787
  568MOL0     H78334   3.734   2.340   8.086  0.1717  0.4739 -1.1443
  568MOL0     H78335   3.615   2.385   8.191 -0.3843  0.1609  0.0666
  568MOL0     H78336   3.561   2.375   7.934  1.6700 -0.7875 -2.4604
  568MOL0     H78337   3.564   2.206   7.965 -0.3046 -0.8273  1.8837
  568MOL0     H78338   3.333   2.297   7.963 -3.2484  3.9234  1.5777
  568MOL0     H78339   3.382   2.215   8.111  0.9738  0.3062  0.2329
  568MOL0     H78340   3.411   2.524   8.093 -1.5403  2.3389  3.5681
  568MOL0     H78341   3.254   2.452   8.134 -0.7320  3.1834 -1.7762
  568MOL0     H78342   3.400   2.389   8.542 -2.1542 -0.1577  1.9012
  568MOL0     H78343   3.394   2.449   8.774  0.6221  0.6041 -0.1345
  568MOL0     H78344   3.227   2.535   8.786  0.7692 -2.5510  2.8027
  568MOL0     H78345   3.393   2.600   8.828  0.4513  1.3528 -1.0605
  568MOL0     H78346   3.095   3.046   8.706  0.3307 -0.2537  0.6766
  568MOL0     H78347   3.079   3.234   8.885 -0.7637  3.4635 -3.0137
  568MOL0     H78348   3.066   3.459   8.949  0.6400 -1.9901 -2.8779
  568MOL0     H78349   3.176   3.561   9.015 -4.5892  3.3477 -2.7359
  568MOL0     H78350   3.305   3.556   8.775  0.4412  1.7565 -1.2686
  568MOL0     H78351   3.174   3.456   8.719  0.7332  0.2081  0.3316
  568MOL0     H78352   3.175   3.764   8.791  2.5637 -1.0307 -1.1141
  568MOL0     H78353   3.022   3.678   8.765  0.3805  4.8371  2.6059
  568MOL0     H78354   3.119   3.606   8.550 -2.3881  1.7601  0.9509
  568MOL0     H78355   3.267   3.713   8.592  0.8567  1.6126  0.1135
  568MOL0     H78356   3.149   3.910   8.567  0.8622 -0.2303 -1.8279
  568MOL0     H78357   3.147   3.828   8.433 -0.1246 -1.1598 -0.7932
  568MOL0     H78358   2.916   3.865   8.640 -4.4107  3.3890 -2.0231
  568MOL0     H78359   2.893   3.752   8.514  0.3893 -0.2431  0.2737
  568MOL0     H78360   2.926   3.921   8.335  2.3829  0.6165 -0.1546
  568MOL0     H78361   2.910   4.044   8.460 -0.6559 -0.0710 -2.3176
  568MOL0     H78362   2.681   3.833   8.445  0.4449 -0.0711  0.7063
  568MOL0     H78363   2.676   3.977   8.349  1.1967 -2.6494 -1.3460
  568MOL0     H78364   3.505   3.279   8.857 -0.1875  1.6569 -1.4877
  568MOL0     H78365   3.524   3.089   8.720 -0.0959  3.1203 -2.2453
  568MOL0     H78366   3.269   2.831   8.391  2.5962  1.8713  1.4398
  568MOL0     H78367   3.320   2.668   8.226 -3.2017  0.7424 -0.1424
  568MOL0     H78368   2.789   1.253   8.386 -2.8563 -0.9361  0.6280
  568MOL0     H78369   2.556   1.302   8.441  1.9703 -1.6776  0.8668
  568MOL0     H78370   2.217   1.699   8.392  1.2156 -3.1008 -0.0807
  568MOL0     H78371   1.976   1.723   8.379 -3.1064 -2.1537  0.1310
  568MOL0     H78372   1.782   1.799   8.275 -1.1374  3.5308 -2.2894
  568MOL0     H78373   1.866   1.788   8.121  1.7954  0.5760  1.5171
  568MOL0     H78374   1.577   1.702   8.161  1.2981  0.0974  2.6556
  568MOL0     H78375   1.665   1.694   8.014  0.1051  0.6718 -1.0034
  568MOL0     H78376   1.534   1.898   8.023 -0.5744 -1.3801  2.0438
  568MOL0     H78377   1.580   1.936   8.188 -2.2628 -2.0984  1.2095
  568MOL0     H78378   1.796   2.009   8.101 -1.4522  2.7033  1.4227
  568MOL0     H78379   1.653   2.087   8.035 -2.5294 -1.5808 -1.5126
  568MOL0     H78380   1.788   1.878   7.692 -2.2903  1.6458 -0.8227
  568MOL0     H78381   1.945   1.409   8.091  0.3833 -0.6898 -1.3098
  568MOL0     H78382   2.257   1.260   8.175  1.0260  2.7989  2.2773
  568MOL0     H78383   2.118   1.243   8.079 -3.0769  0.0958  3.7632
  568MOL0     H78384   2.245   1.352   8.020 -0.2626 -3.9314 -0.3139
  569MOL0     O78385   3.231   5.340  10.695 -0.7434 -0.2531  0.3974
  569MOL0     C78386   3.235   5.379  10.806 -0.1147 -0.3221 -0.5602
  569MOL0     O78387   3.313   5.309  10.910 -0.1366  0.5273  0.8706
  569MOL0     C78388   3.328   5.171  10.880  0.2655  0.0618  0.4410
  569MOL0     C78389   3.455   5.114  10.876  0.2034  0.2835 -0.4294
  569MOL0     C78390   3.474   4.977  10.847 -0.2524 -0.3704 -0.4346
  569MOL0     C78391   3.356   4.888  10.840 -0.0691  0.4944 -0.8149
  569MOL0     O78392   3.359   4.749  10.846  0.2112  0.6063  0.3638
  569MOL0     C78393   3.483   4.678  10.862  1.0676  0.4636 -0.2340
  569MOL0     C78394   3.495   4.536  10.817 -0.2516  0.8841 -0.1320
  569MOL0     C78395   3.441   4.433  10.926 -0.6051 -0.4784  0.2392
  569MOL0     C78396   3.485   4.287  10.895  0.1809  0.6749 -0.1334
  569MOL0     C78397   3.466   4.205  11.019  0.8834  0.0711  0.6750
  569MOL0     C78398   3.513   4.065  11.005  0.4542  0.4823  0.6127
  569MOL0     C78399   3.427   3.987  10.906  0.1199 -0.1274  0.6157
  569MOL0     C78400   3.423   3.828  10.927  0.3631 -0.0342 -0.2525
  569MOL0     N78401   3.533   3.757  10.861 -0.0658 -0.0662 -0.8046
  569MOL0     C78402   3.640   3.686  10.931  0.1317  0.1099  0.0531
  569MOL0     C78403   3.694   3.618  10.832  0.0207  0.3323 -0.2881
  569MOL0     C78404   3.818   3.529  10.853 -0.0373 -0.6276  0.9589
  569MOL0     C78405   3.810   3.419  10.739 -0.0368 -0.1811 -0.6671
  569MOL0     C78406   3.897   3.294  10.760  0.3961  0.2298 -0.0265
  569MOL0     C78407   3.919   3.207  10.635 -0.2163 -0.3159  0.4587
  569MOL0     O78408   3.792   3.193  10.562  0.0919  0.1410 -0.4318
  569MOL0     C78409   3.790   3.068  10.505  0.2343 -0.4384  0.5509
  569MOL0     C78410   3.851   3.053  10.383 -0.7215 -0.1711  1.1505
  569MOL0     C78411   3.861   2.928  10.317  0.1410  0.2962  0.3942
  569MOL0     C78412   3.934   2.915  10.177 -0.8764 -0.5584 -0.0606
  569MOL0     C78413   3.815   2.814  10.387  0.4483  0.1633  0.1952
  569MOL0     C78414   3.839   2.671  10.351  0.1850  1.1516  0.4074
  569MOL0     O78415   3.743   2.585  10.389  0.2011 -0.2570 -0.1311
  569MOL0     C78416   3.762   2.447  10.376  0.2099 -0.1146  0.3931
  569MOL0     C78417   3.832   2.368  10.472  0.5727  0.1726  0.6435
  569MOL0     C78418   3.844   2.235  10.451 -0.3649  0.3792 -0.0783
  569MOL0     C78419   3.782   2.179  10.344  0.6295 -1.0625 -0.4279
  569MOL0     O78420   3.794   2.047  10.305 -0.4057 -0.1493 -0.4505
  569MOL0     C78421   3.871   1.956  10.390  0.3951 -1.2816 -0.5957
  569MOL0     C78422   3.843   1.811  10.344  0.1894  0.6250  0.2990
  569MOL0     C78423   3.695   1.765  10.338 -0.7857 -0.7567 -0.3125
  569MOL0     C78424   3.686   1.637  10.420  1.0532  0.2666 -0.3092
  569MOL0     C78425   3.755   1.509  10.366  0.0525 -0.2322  0.2701
  569MOL0     C78426   3.773   1.410  10.477 -0.7608  0.5052 -0.5528
  569MOL0     C78427   3.853   1.284  10.420 -0.4747  0.1188 -0.0026
  569MOL0     C78428   3.885   1.176  10.532 -0.6094  0.4044  0.2352
  569MOL0    Cl78429   3.952   1.026  10.466 -0.1447  0.5993 -0.1572
  569MOL0     C78430   3.701   2.249  10.255 -0.5597  0.1365  0.5031
  569MOL0     C78431   3.693   2.386  10.273  0.0331  0.1712  0.2863
  569MOL0     O78432   3.938   2.637  10.284  0.0480  0.6494  0.8055
  569MOL0     C78433   3.740   2.840  10.512  0.3406  0.3099 -0.1897
  569MOL0     C78434   3.720   2.969  10.556  0.5278  0.2638 -0.7141
  569MOL0     N78435   3.634   3.631  10.706 -0.3828 -0.2396  0.2964
  569MOL0     N78436   3.541   3.718  10.731 -0.5084 -0.5042  0.1732
  569MOL0     C78437   3.230   4.950  10.831  0.1151 -0.3974  0.1349
  569MOL0     C78438   3.221   5.088  10.861 -0.3693  0.3119 -0.9045
  569MOL0     C78439   3.185   5.515  10.851  0.0430 -0.5979  0.6151
  569MOL0     C78440   3.277   5.588  10.929  0.7056  0.5315  0.1859
  569MOL0     C78441   3.237   5.704  10.992 -0.1405  0.3750  0.5919
  569MOL0     C78442   3.131   5.784  10.948 -0.1598 -0.2561 -0.5322
  569MOL0     O78443   3.114   5.913  10.990 -0.8993 -0.8465  0.6164
  569MOL0     C78444   2.995   5.993  10.970  1.1986 -0.4650 -1.6241
  569MOL0     C78445   2.953   6.066  11.102 -0.5987 -1.3623  0.4648
  569MOL0     C78446   2.924   5.980  11.220 -0.1917 -0.6449 -1.2053
  569MOL0     C78447   2.820   5.877  11.201  0.8529 -0.2855  0.5264
  569MOL0     C78448   2.695   5.936  11.142  0.0862  0.8646  0.1074
  569MOL0     C78449   2.583   5.983  11.112  0.1971  0.0011  1.0046
  569MOL0     C78450   3.046   5.719  10.865 -0.3209 -0.4036 -0.1785
  569MOL0     C78451   3.069   5.585  10.812  0.3150 -0.1216  0.2300
  569MOL0     C78452   2.955   5.529  10.727  0.8255  0.0511  0.3855
  569MOL0     H78453   3.543   5.177  10.877  0.4897 -0.0726 -1.6039
  569MOL0     H78454   3.577   4.943  10.842 -0.0306  0.2475 -0.1973
  569MOL0     H78455   3.506   4.682  10.969 -1.0232 -3.2433  0.5356
  569MOL0     H78456   3.570   4.728  10.818  0.5400  0.2595 -1.5663
  569MOL0     H78457   3.458   4.526  10.715  1.7712 -0.6046 -0.7862
  569MOL0     H78458   3.599   4.508  10.795 -1.7281 -3.9625 -2.4734
  569MOL0     H78459   3.482   4.457  11.024 -1.8500  3.6225 -0.0496
  569MOL0     H78460   3.331   4.428  10.922 -0.5922 -0.0976 -1.7086
  569MOL0     H78461   3.423   4.242  10.817  1.2335 -0.5383 -0.3014
  569MOL0     H78462   3.592   4.269  10.877 -0.1860 -3.0079  0.5958
  569MOL0     H78463   3.359   4.204  11.042  1.0119  1.8163  1.5728
  569MOL0     H78464   3.520   4.247  11.105  1.1541  1.5006 -0.1563
  569MOL0     H78465   3.619   4.056  10.977 -0.2988 -3.6297 -1.6652
  569MOL0     H78466   3.499   4.023  11.105 -1.4616 -1.7343 -0.4999
  569MOL0     H78467   3.478   4.012  10.813  0.6536  1.8431  1.3997
  569MOL0     H78468   3.326   4.029  10.902  1.5721  3.6318 -0.9765
  569MOL0     H78469   3.437   3.803  11.032  2.3074 -0.5412 -0.5942
  569MOL0     H78470   3.325   3.791  10.894  1.1437 -3.0077  0.4557
  569MOL0     H78471   3.676   3.681  11.033  0.2746 -0.8442 -0.0394
  569MOL0     H78472   3.813   3.499  10.958 -0.5503  4.2359  2.6056
  569MOL0     H78473   3.904   3.596  10.842 -0.5008  0.1954  2.1647
  569MOL0     H78474   3.706   3.384  10.740 -0.5017  0.8898  3.0857
  569MOL0     H78475   3.832   3.462  10.641  1.3338 -1.6475 -1.0578
  569MOL0     H78476   3.996   3.322  10.797  1.1974 -0.0801 -1.8364
  569MOL0     H78477   3.849   3.226  10.831  0.5101  2.5217  2.3753
  569MOL0     H78478   3.997   3.251  10.572 -0.7570  1.9175  1.2629
  569MOL0     H78479   3.964   3.113  10.668 -0.2130 -0.8864 -1.1017
  569MOL0     H78480   3.881   3.137  10.322  2.1334 -1.6608  0.3296
  569MOL0     H78481   3.869   2.844  10.124 -5.5965  2.6511  0.7220
  569MOL0     H78482   4.039   2.885  10.183 -0.1290  1.6591 -0.9172
  569MOL0     H78483   3.937   3.006  10.116  4.3850 -1.2723 -1.2926
  569MOL0     H78484   3.882   2.409  10.559 -0.7349  2.7649  0.2821
  569MOL0     H78485   3.909   2.184  10.523  2.9521  1.5322 -2.0183
  569MOL0     H78486   3.976   1.985  10.379 -0.0235  1.7893  2.0218
  569MOL0     H78487   3.852   1.953  10.498  0.7938  2.2736 -0.3049
  569MOL0     H78488   3.877   1.806  10.240 -1.7769  2.9189 -0.5300
  569MOL0     H78489   3.911   1.754  10.408  1.3670  0.7260 -0.8129
  569MOL0     H78490   3.656   1.759  10.236 -0.0072 -0.0171 -0.6679
  569MOL0     H78491   3.629   1.841  10.382 -2.9552 -1.9674 -1.3304
  569MOL0     H78492   3.581   1.609  10.435  1.0465  0.3683 -0.1593
  569MOL0     H78493   3.718   1.648  10.524 -0.5592 -0.2341  0.2839
  569MOL0     H78494   3.698   1.467  10.283  1.1580  0.0487 -0.6590
  569MOL0     H78495   3.855   1.544  10.338 -0.8798  3.0913  0.6358
  569MOL0     H78496   3.683   1.368  10.523 -0.1682  1.1181  1.2619
  569MOL0     H78497   3.827   1.455  10.561 -0.6955 -0.1294 -0.2459
  569MOL0     H78498   3.950   1.308  10.375  0.1262 -4.0782 -1.3163
  569MOL0     H78499   3.792   1.245  10.338  1.9406 -1.6515 -1.0462
  569MOL0     H78500   3.787   1.143  10.567 -0.6538 -2.7363 -2.3936
  569MOL0     H78501   3.949   1.208  10.614 -1.9783 -0.1936  1.5752
  569MOL0     H78502   3.644   2.193  10.181 -1.9289  3.6444 -1.3285
  569MOL0     H78503   3.632   2.455  10.215  0.6423  2.4050  2.1348
  569MOL0     H78504   3.709   2.754  10.569  0.3529 -0.4710 -1.3280
  569MOL0     H78505   3.657   2.990  10.641  2.1027  2.2709  0.0391
  569MOL0     H78506   3.141   4.893  10.808 -1.0368  2.1867 -2.6621
  569MOL0     H78507   3.124   5.124  10.892 -0.7453 -2.9040  2.3210
  569MOL0     H78508   3.370   5.536  10.950  0.9275  1.3541  1.3646
  569MOL0     H78509   3.295   5.755  11.067 -2.1369  0.2293  2.3223
  569MOL0     H78510   2.996   6.070  10.892 -3.4363 -1.3813 -2.9177
  569MOL0     H78511   2.911   5.930  10.943  0.9381 -0.1507 -1.5597
  569MOL0     H78512   2.873   6.135  11.071 -0.3111 -1.7073 -1.1185
  569MOL0     H78513   3.034   6.131  11.136  0.1184 -2.6703  1.3005
  569MOL0     H78514   3.024   5.939  11.236 -0.0152  0.1161 -0.2548
  569MOL0     H78515   2.896   6.054  11.295 -0.4550 -2.7340  0.8522
  569MOL0     H78516   2.783   5.838  11.296 -4.3056  2.9712  0.2589
  569MOL0     H78517   2.856   5.794  11.140 -0.7087  0.9858 -2.3591
  569MOL0     H78518   2.491   6.019  11.070 -0.1595 -1.9813 -0.0181
  569MOL0     H78519   2.956   5.769  10.832  0.6016  1.4036 -0.1243
  569MOL0     H78520   2.965   5.579  10.629  3.8105 -2.0943 -0.5632
  569MOL0     H78521   2.968   5.422  10.712 -2.0656  0.0432 -4.0132
  569MOL0     H78522   2.857   5.543  10.773  0.8536 -0.7380  0.6886
  570MOL0     O78523   0.211  10.138   9.895  0.2776  0.0491 -0.0114
  570MOL0     C78524   0.246  10.176  10.009 -0.3452  1.3502 -0.1251
  570MOL0     O78525   0.371  10.219  10.043  0.3497 -0.1776 -0.6172
  570MOL0     C78526   0.454  10.256   9.943 -0.5912 -0.2556  0.2791
  570MOL0     C78527   0.581  10.213   9.922 -0.3025  0.5422 -1.7046
  570MOL0     C78528   0.653  10.254   9.806 -0.3119  0.2151  0.0015
  570MOL0     C78529   0.601  10.357   9.731  1.3380 -0.4495 -0.3298
  570MOL0     O78530   0.686  10.432   9.651  0.4818 -0.3644  0.0882
  570MOL0     C78531   0.775  10.359   9.565  0.2574 -0.4310 -0.1165
  570MOL0     C78532   0.870  10.449   9.479 -0.8489  0.1675 -0.4518
  570MOL0     C78533   0.793  10.539   9.370  0.4038 -0.3271  0.2064
  570MOL0     C78534   0.885  10.606   9.268 -0.7224  0.0278 -0.3033
  570MOL0     C78535   0.846  10.740   9.208 -0.4432  0.0770 -0.0158
  570MOL0     C78536   0.873  10.859   9.298 -1.1682 -0.5285 -0.9656
  570MOL0     C78537   0.822  10.993   9.236  0.7509  0.4520 -0.4306
  570MOL0     C78538   0.840  11.119   9.321 -0.4177  1.0028 -0.0857
  570MOL0     N78539   0.777  11.112   9.461  0.0447 -0.3705 -0.1960
  570MOL0     C78540   0.788  11.216   9.553  0.4241  0.0220 -0.6776
  570MOL0     C78541   0.726  11.168   9.672  0.2119 -0.2838 -0.1699
  570MOL0     C78542   0.713  11.248   9.796 -0.6345  0.5977  0.2055
  570MOL0     C78543   0.830  11.219   9.886 -0.1486 -0.1588 -1.1715
  570MOL0     C78544   0.796  11.117   9.988 -0.0524 -0.9443  0.2411
  570MOL0     C78545   0.885  11.125  10.113 -0.4398 -0.1277  0.8791
  570MOL0     O78546   0.834  11.016  10.190 -0.8699 -0.1445  0.8770
  570MOL0     C78547   0.910  10.965  10.289  0.7899 -0.0162  0.6480
  570MOL0     C78548   0.845  10.867  10.356 -0.0010  0.6567  0.0042
  570MOL0     C78549   0.898  10.793  10.457 -1.3477  0.0866  1.2619
  570MOL0     C78550   0.808  10.695  10.531  0.4112  0.1547  1.2961
  570MOL0     C78551   1.035  10.806  10.481 -0.7990 -0.3287  0.3719
  570MOL0     C78552   1.104  10.717  10.576  0.0367  0.7972  0.7454
  570MOL0     O78553   1.240  10.720  10.559  0.3958 -0.2089  0.4601
  570MOL0     C78554   1.331  10.637  10.611 -1.0952 -0.4119  0.2648
  570MOL0     C78555   1.324  10.505  10.655  0.2647 -0.5929 -0.5152
  570MOL0     C78556   1.441  10.444  10.692 -0.0206 -0.5698  0.4313
  570MOL0     C78557   1.566  10.502  10.699  0.1073  0.2226  0.6952
  570MOL0     O78558   1.665  10.422  10.743 -0.6819 -0.1792 -0.0219
  570MOL0     C78559   1.792  10.448  10.680 -0.3729 -0.9090 -0.3715
  570MOL0     C78560   1.871  10.320  10.629 -0.8505 -0.5162  0.0535
  570MOL0     C78561   1.923  10.237  10.745 -0.4984  0.0971  0.3035
  570MOL0     C78562   1.992  10.118  10.680 -0.0110  0.1146  0.7047
  570MOL0     C78563   2.079  10.032  10.771  0.4126 -0.5552 -0.0497
  570MOL0     C78564   2.128   9.900  10.719  0.3821  0.3813 -1.0722
  570MOL0     C78565   2.216   9.918  10.597 -1.0184  0.0302 -0.1107
  570MOL0     C78566   2.359   9.952  10.639 -0.4577 -0.4070 -0.3962
  570MOL0    Cl78567   2.475  10.002  10.494 -0.2275 -0.0065 -0.1873
  570MOL0     C78568   1.577  10.633  10.657  0.8643 -0.2723  0.0419
  570MOL0     C78569   1.458  10.700  10.611  0.4196  0.7626 -0.4307
  570MOL0     O78570   1.053  10.658  10.669 -0.0024 -0.4835  0.2569
  570MOL0     C78571   1.113  10.900  10.397 -0.0975  0.5684 -0.3480
  570MOL0     C78572   1.051  10.982  10.308  0.5204  0.5262  0.0414
  570MOL0     N78573   0.683  11.034   9.636  0.0374  0.0575 -0.7064
  570MOL0     N78574   0.713  11.007   9.514  0.4077  0.0733 -0.0417
  570MOL0     C78575   0.466  10.403   9.747 -0.1641 -0.5747 -1.1452
  570MOL0     C78576   0.397  10.355   9.856 -0.8519  0.2178  0.3155
  570MOL0     C78577   0.161  10.160  10.122  0.2141  0.5675 -0.6901
  570MOL0     C78578   0.224  10.161  10.256  0.1600 -0.4277 -0.0612
  570MOL0     C78579   0.150  10.159  10.369 -0.2977  0.1691 -0.1280
  570MOL0     C78580   0.012  10.154  10.364 -0.1192 -0.3912 -0.2295
  570MOL0     O78581  -0.062  10.168  10.480 -0.7565 -0.2569 -0.0519
  570MOL0     C78582  -0.008  10.176  10.615  1.1124 -0.8968  0.0722
  570MOL0     C78583   0.049  10.312  10.640 -0.2507  0.2325 -0.1509
  570MOL0     C78584  -0.056  10.420  10.664 -0.0489 -0.0872 -0.0358
  570MOL0     C78585  -0.102  10.420  10.810  0.4176  0.9769  0.1236
  570MOL0     C78586  -0.020  10.479  10.911 -0.8541 -1.1607  0.3361
  570MOL0     C78587   0.024  10.570  10.984  0.3509  0.2565  0.5891
  570MOL0     C78588  -0.049  10.135  10.241 -0.1912  0.3716  0.5909
  570MOL0     C78589   0.018  10.138  10.115  0.2980  0.8216  0.1708
  570MOL0     C78590  -0.065  10.138   9.992 -0.4013 -0.2263 -1.0916
  570MOL0     H78591   0.612  10.119   9.968 -0.1649 -0.0083 -2.8757
  570MOL0     H78592   0.753  10.214   9.793 -0.5767  0.4528 -3.6300
  570MOL0     H78593   0.716  10.292   9.502 -0.2311  0.0632 -0.1985
  570MOL0     H78594   0.841  10.302   9.630  0.1183  0.6281  0.9982
  570MOL0     H78595   0.930  10.513   9.544 -1.3054 -1.1207  1.3212
  570MOL0     H78596   0.941  10.383   9.429  0.8837  0.1539  1.8644
  570MOL0     H78597   0.710  10.494   9.313  1.0585 -2.3217  0.7385
  570MOL0     H78598   0.741  10.614   9.430  1.5440  3.0645 -2.7123
  570MOL0     H78599   0.983  10.600   9.318 -2.8259 -2.2927  4.1741
  570MOL0     H78600   0.879  10.539   9.182 -4.3809 -0.2201 -0.0168
  570MOL0     H78601   0.738  10.728   9.196 -0.4821 -0.2474  0.6124
  570MOL0     H78602   0.895  10.762   9.113  0.6685  3.0632  1.1450
  570MOL0     H78603   0.843  10.822   9.397 -1.7208 -3.3912 -2.0921
  570MOL0     H78604   0.981  10.871   9.307 -1.5659  3.2425  0.5942
  570MOL0     H78605   0.716  10.981   9.209  0.2303  2.5707  0.4373
  570MOL0     H78606   0.870  11.004   9.139  0.0051 -2.4424 -1.2084
  570MOL0     H78607   0.948  11.134   9.316  0.3329 -3.6099 -2.7898
  570MOL0     H78608   0.801  11.211   9.276  0.1251  1.6877  0.7925
  570MOL0     H78609   0.849  11.305   9.557  0.2343  0.1444  3.8428
  570MOL0     H78610   0.616  11.242   9.846 -0.8017 -0.0610 -0.1782
  570MOL0     H78611   0.717  11.353   9.769  1.4465  0.0834 -1.7758
  570MOL0     H78612   0.922  11.191   9.834  0.1833 -0.3484 -0.4962
  570MOL0     H78613   0.845  11.307   9.949 -0.0956 -2.8596  3.0555
  570MOL0     H78614   0.693  11.128  10.024 -0.2774 -1.4960 -0.2117
  570MOL0     H78615   0.798  11.016   9.947 -1.1206 -0.7062 -0.4306
  570MOL0     H78616   0.987  11.096  10.086  0.1907  0.9523  1.9707
  570MOL0     H78617   0.890  11.224  10.161 -1.4062  1.1775 -1.4934
  570MOL0     H78618   0.744  10.849  10.320  0.8228 -0.5199 -1.8894
  570MOL0     H78619   0.826  10.685  10.638  0.5822  1.5215  1.4213
  570MOL0     H78620   0.822  10.599  10.481  1.1952  1.5845 -1.4679
  570MOL0     H78621   0.704  10.731  10.523  0.8555  1.6100  1.7059
  570MOL0     H78622   1.225  10.461  10.658  0.9086 -2.0701  0.9454
  570MOL0     H78623   1.437  10.342  10.728  2.1142  0.0102  2.5666
  570MOL0     H78624   1.785  10.506  10.588  1.5751  2.2912  1.3068
  570MOL0     H78625   1.853  10.498  10.757  1.1137 -1.4313 -1.1631
  570MOL0     H78626   1.793  10.275  10.567 -0.9897 -0.2416  0.0236
  570MOL0     H78627   1.961  10.347  10.574 -0.3799 -0.0415  1.0372
  570MOL0     H78628   1.843  10.203  10.811 -1.3074  0.6004 -0.4011
  570MOL0     H78629   2.001  10.289  10.802  1.2907 -0.9783 -1.0205
  570MOL0     H78630   2.052  10.158  10.597  0.9813  0.3362  1.5158
  570MOL0     H78631   1.916  10.052  10.635 -1.1072  2.1858 -0.6604
  570MOL0     H78632   2.170  10.088  10.798  0.6111 -0.0249 -1.7087
  570MOL0     H78633   2.021  10.023  10.863 -1.7609  0.9563 -1.1914
  570MOL0     H78634   2.042   9.834  10.704  2.1853 -2.4995  0.3735
  570MOL0     H78635   2.198   9.854  10.788  2.9418  3.5045 -1.3093
  570MOL0     H78636   2.171  10.001  10.541 -3.3252 -1.3012 -0.3277
  570MOL0     H78637   2.218   9.830  10.533 -1.1756 -1.5793  1.9668
  570MOL0     H78638   2.404   9.861  10.678  0.6927 -0.1490 -1.0628
  570MOL0     H78639   2.368  10.033  10.711  3.5105 -0.1774 -0.8960
  570MOL0     H78640   1.677  10.677  10.658  1.3305 -1.1603 -2.1007
  570MOL0     H78641   1.460  10.798  10.566 -0.9209  0.9528 -0.1391
  570MOL0     H78642   1.218  10.917  10.418 -0.1087  2.8615 -1.9082
  570MOL0     H78643   1.120  11.047  10.255  0.5140 -0.3934 -1.1549
  570MOL0     H78644   0.427  10.487   9.690 -2.1859 -0.9290 -0.3613
  570MOL0     H78645   0.303  10.401   9.884 -0.6803  0.9817 -0.3226
  570MOL0     H78646   0.330  10.177  10.271  0.0642  1.3627 -1.0218
  570MOL0     H78647   0.207  10.162  10.462 -2.4475  0.4872  1.2462
  570MOL0     H78648  -0.082  10.153  10.693  1.0554  0.1634  0.3481
  570MOL0     H78649   0.071  10.101  10.626 -0.2832 -2.0644  3.7831
  570MOL0     H78650   0.110  10.329  10.551 -0.6301 -2.3438 -0.9773
  570MOL0     H78651   0.117  10.308  10.726  1.3398 -1.4033 -1.4022
  570MOL0     H78652  -0.007  10.516  10.650  1.5639 -1.0282 -1.2393
  570MOL0     H78653  -0.139  10.409  10.593 -1.4295 -5.0377  1.8626
  570MOL0     H78654  -0.118  10.316  10.842 -1.8181  1.0309 -0.6490
  570MOL0     H78655  -0.201  10.466  10.805  0.8667  2.4671  3.0397
  570MOL0     H78656   0.070  10.643  11.048  0.6803  1.5343 -1.0457
  570MOL0     H78657  -0.156  10.148  10.237 -0.0599  1.1274 -1.0928
  570MOL0     H78658  -0.028  10.059   9.926 -0.5671  0.3213 -1.8537
  570MOL0     H78659  -0.164  10.105  10.025 -0.1615 -1.2945 -1.3819
  570MOL0     H78660  -0.073  10.237   9.947 -1.7412  0.5494  0.7047
  571MOL0     O78661   8.603   4.316   1.068  0.2153 -0.8294  0.0293
  571MOL0     C78662   8.659   4.275   0.975 -0.5545  1.0208  0.6100
  571MOL0     O78663   8.652   4.151   0.916 -0.3297  0.7516  0.6763
  571MOL0     C78664   8.595   4.049   0.988  0.8728  0.3751  0.5765
  571MOL0     C78665   8.491   3.976   0.930  0.0454 -0.8326  0.4822
  571MOL0     C78666   8.407   3.897   1.007  0.0294  0.4996 -0.3396
  571MOL0     C78667   8.439   3.857   1.138  0.1078 -1.5524  0.0658
  571MOL0     O78668   8.337   3.779   1.197  0.7082  0.0615 -0.0237
  571MOL0     C78669   8.284   3.816   1.322  0.4688 -0.9562 -0.0245
  571MOL0     C78670   8.134   3.803   1.354 -0.1414 -0.3851 -0.0447
  571MOL0     C78671   8.041   3.689   1.279 -0.5973 -0.3601  0.0058
  571MOL0     C78672   8.120   3.552   1.279 -0.5076 -0.0917  0.0610
  571MOL0     C78673   8.029   3.438   1.221  0.7988  0.4705 -0.5438
  571MOL0     C78674   8.083   3.290   1.249 -0.5998 -0.3603  0.2916
  571MOL0     C78675   8.052   3.256   1.396 -0.3622 -0.6512  0.1974
  571MOL0     C78676   8.050   3.108   1.422 -0.4188  0.8156 -0.1125
  571MOL0     N78677   8.183   3.045   1.410  0.2668 -0.4857 -0.1848
  571MOL0     C78678   8.286   3.095   1.480 -0.6753  1.3659  0.2474
  571MOL0     C78679   8.393   3.041   1.415  0.5500 -0.9429  0.6648
  571MOL0     C78680   8.533   3.070   1.452  0.8660 -0.4966  0.1212
  571MOL0     C78681   8.600   3.157   1.340 -0.3194  0.4179  0.5217
  571MOL0     C78682   8.746   3.125   1.335  0.3369  0.1633  0.9685
  571MOL0     C78683   8.803   3.186   1.204  0.2211 -0.5457  0.0918
  571MOL0     O78684   8.921   3.113   1.179 -0.2011  0.2175  0.0122
  571MOL0     C78685   9.039   3.177   1.205 -0.3318 -0.0953 -0.8891
  571MOL0     C78686   9.050   3.299   1.273 -0.3600  0.2978  0.3464
  571MOL0     C78687   9.179   3.357   1.311  0.1747 -0.5510 -0.1582
  571MOL0     C78688   9.172   3.495   1.390 -1.3081 -0.0302  0.4381
  571MOL0     C78689   9.295   3.284   1.280 -0.6585 -1.3545 -0.0662
  571MOL0     C78690   9.425   3.330   1.325 -0.3055 -0.5472 -0.1988
  571MOL0     O78691   9.433   3.391   1.453 -0.4525 -0.9836  0.1086
  571MOL0     C78692   9.541   3.475   1.468 -1.7087 -0.4493 -0.1239
  571MOL0     C78693   9.592   3.553   1.363 -0.3981 -0.5712 -0.9354
  571MOL0     C78694   9.713   3.626   1.390 -0.8256  0.5054 -0.3576
  571MOL0     C78695   9.779   3.613   1.515 -0.2953  0.7424  0.6166
  571MOL0     O78696   9.897   3.673   1.547  0.5839  0.5898  0.5978
  571MOL0     C78697   9.950   3.789   1.469  0.2783  0.1006  0.3298
  571MOL0     C78698  10.073   3.740   1.389 -0.3118 -0.1164 -0.0929
  571MOL0     C78699  10.141   3.846   1.290  0.5308  0.4693  0.2532
  571MOL0     C78700  10.239   3.771   1.201  0.8654  0.4020 -0.2303
  571MOL0     C78701  10.251   3.828   1.063 -0.0094 -0.1096 -0.9422
  571MOL0     C78702  10.319   3.970   1.056  0.5641  0.0396  0.0078
  571MOL0     C78703  10.383   3.997   0.915  0.5124 -0.0138  0.7172
  571MOL0     C78704  10.535   3.974   0.896 -0.2643 -0.9426 -0.0566
  571MOL0    Cl78705  10.612   4.137   0.903  0.0077 -0.0174 -0.3705
  571MOL0     C78706   9.723   3.535   1.613  0.7751 -0.6381  0.1841
  571MOL0     C78707   9.606   3.465   1.591 -0.1785 -0.4876  0.7871
  571MOL0     O78708   9.520   3.295   1.259 -0.1485  0.0901  0.5587
  571MOL0     C78709   9.282   3.168   1.202  0.2869  0.6625  1.2332
  571MOL0     C78710   9.160   3.117   1.161  0.1772  0.0931 -0.2820
  571MOL0     N78711   8.351   2.965   1.304  0.1011 -0.1225 -0.3247
  571MOL0     N78712   8.219   2.966   1.307 -0.9481  0.3183 -0.5013
  571MOL0     C78713   8.535   3.933   1.202  0.8784  0.2367 -0.3935
  571MOL0     C78714   8.617   4.021   1.123 -0.5936  0.5724  0.2070
  571MOL0     C78715   8.743   4.373   0.900  0.2930 -0.1624  1.2482
  571MOL0     C78716   8.753   4.360   0.760  0.1842  0.5456  0.0765
  571MOL0     C78717   8.831   4.441   0.679  0.6415 -0.5102  0.1863
  571MOL0     C78718   8.904   4.550   0.737  1.1100 -0.4747 -0.3816
  571MOL0     O78719   8.982   4.640   0.663 -0.3281 -0.9277 -0.4669
  571MOL0     C78720   8.983   4.641   0.512 -0.4941  0.0443 -0.4266
  571MOL0     C78721   9.106   4.563   0.454  0.5525  0.0745  0.7564
  571MOL0     C78722   9.234   4.651   0.468 -0.6417  0.9837  0.5207
  571MOL0     C78723   9.363   4.577   0.432  0.5985 -0.0007 -0.1767
  571MOL0     C78724   9.476   4.666   0.448  0.6421 -0.4105 -0.0556
  571MOL0     C78725   9.566   4.744   0.466 -0.0993  0.6626  0.3822
  571MOL0     C78726   8.897   4.558   0.880 -0.5350 -0.5957  0.2590
  571MOL0     C78727   8.817   4.474   0.966 -0.8398 -0.2109 -0.0332
  571MOL0     C78728   8.815   4.502   1.107 -0.1242  0.5031  0.3225
  571MOL0     H78729   8.468   3.988   0.825 -0.8891  0.1986  0.7816
  571MOL0     H78730   8.322   3.852   0.956  0.6654 -1.3625  0.1841
  571MOL0     H78731   8.312   3.921   1.336  0.7450 -0.9525 -0.5748
  571MOL0     H78732   8.340   3.758   1.397  2.4857 -1.7826 -2.0658
  571MOL0     H78733   8.124   3.789   1.462 -2.6554 -4.0682 -0.5597
  571MOL0     H78734   8.088   3.899   1.330 -0.5021 -0.9847 -1.9382
  571MOL0     H78735   7.948   3.683   1.336  0.0325 -0.6828  1.0390
  571MOL0     H78736   8.021   3.709   1.173  0.4099  0.4666 -0.0446
  571MOL0     H78737   8.208   3.551   1.214  0.8657  0.7936  1.8070
  571MOL0     H78738   8.147   3.535   1.384 -0.7864 -0.3306  0.0947
  571MOL0     H78739   8.030   3.454   1.112  1.1878  0.7759 -0.4954
  571MOL0     H78740   7.925   3.447   1.253  1.2795 -1.8887  2.0836
  571MOL0     H78741   8.032   3.215   1.187 -0.8871 -0.2726  0.4226
  571MOL0     H78742   8.192   3.293   1.243 -0.5145  1.3454  1.8474
  571MOL0     H78743   7.949   3.291   1.410 -1.2054 -1.5089 -3.0944
  571MOL0     H78744   8.126   3.301   1.463 -1.8997 -0.2612  1.7225
  571MOL0     H78745   8.010   3.105   1.525 -0.4275  1.1162 -0.1058
  571MOL0     H78746   7.969   3.067   1.360  0.7179 -1.7709 -0.0218
  571MOL0     H78747   8.301   3.161   1.564  1.0063  1.9343 -0.4599
  571MOL0     H78748   8.584   2.974   1.467  1.0247 -0.4893 -0.3757
  571MOL0     H78749   8.529   3.124   1.547 -0.3348  4.3305 -2.3725
  571MOL0     H78750   8.544   3.135   1.249 -3.3001  2.5889  1.7034
  571MOL0     H78751   8.597   3.264   1.359 -0.5737  0.4444  0.3304
  571MOL0     H78752   8.797   3.175   1.418  0.4755  0.2244  0.8465
  571MOL0     H78753   8.774   3.020   1.338  3.2966  0.7973 -0.5057
  571MOL0     H78754   8.732   3.165   1.124 -0.6120 -1.4003  1.0157
  571MOL0     H78755   8.803   3.295   1.195 -1.5945 -0.6952 -3.0789
  571MOL0     H78756   8.962   3.353   1.307 -0.3511 -0.4445  1.6029
  571MOL0     H78757   9.260   3.558   1.370 -0.4727 -2.3751 -6.0666
  571MOL0     H78758   9.172   3.481   1.498 -0.9745  1.0545  0.5851
  571MOL0     H78759   9.079   3.549   1.372 -0.6720  1.1778  0.6614
  571MOL0     H78760   9.545   3.565   1.266 -0.5122 -0.9002 -0.9222
  571MOL0     H78761   9.752   3.691   1.313  0.9082 -0.2538 -0.1711
  571MOL0     H78762   9.876   3.826   1.397 -0.0260 -0.1183  0.5281
  571MOL0     H78763   9.971   3.862   1.548 -0.8177 -0.3646  1.0858
  571MOL0     H78764  10.147   3.690   1.453  1.2876 -6.0317 -5.4730
  571MOL0     H78765  10.043   3.662   1.318  2.4325 -0.6843 -0.7619
  571MOL0     H78766  10.189   3.929   1.342 -0.6928 -0.3025  2.7441
  571MOL0     H78767  10.056   3.883   1.231 -0.1315  0.7045  1.3374
  571MOL0     H78768  10.219   3.663   1.197 -0.7103  0.5614  1.8871
  571MOL0     H78769  10.342   3.778   1.238  1.0335 -0.3944 -0.5217
  571MOL0     H78770  10.312   3.764   0.998  1.0370  1.6643 -1.8053
  571MOL0     H78771  10.152   3.847   1.021 -0.3893  1.7625  0.6300
  571MOL0     H78772  10.401   3.979   1.128  3.5057 -2.4318 -2.6892
  571MOL0     H78773  10.251   4.053   1.073  1.6076  0.9904 -0.3126
  571MOL0     H78774  10.356   4.102   0.900  0.3549 -0.2926 -1.0917
  571MOL0     H78775  10.334   3.935   0.840  3.6488 -0.6041 -1.0038
  571MOL0     H78776  10.554   3.936   0.795  2.7163 -0.0455  0.0898
  571MOL0     H78777  10.574   3.905   0.971 -1.0505 -0.0236  1.2560
  571MOL0     H78778   9.780   3.529   1.706  2.2971  1.3158 -0.5549
  571MOL0     H78779   9.565   3.402   1.670 -1.8496  1.4129  1.5049
  571MOL0     H78780   9.372   3.112   1.180 -0.3181  0.4916 -1.0765
  571MOL0     H78781   9.146   3.038   1.088  1.6419 -0.9672  0.5259
  571MOL0     H78782   8.554   3.915   1.308 -0.1012 -4.8957 -0.7907
  571MOL0     H78783   8.707   4.064   1.166 -0.6056  1.4020 -0.5725
  571MOL0     H78784   8.711   4.275   0.708  0.7304 -1.4275  2.6470
  571MOL0     H78785   8.855   4.418   0.575 -0.3483  1.9666 -0.6788
  571MOL0     H78786   8.891   4.591   0.481  1.0295 -2.2890 -1.4499
  571MOL0     H78787   8.973   4.745   0.480 -1.0622  0.8936  2.2512
  571MOL0     H78788   9.087   4.529   0.352 -0.6614 -3.3065  1.9750
  571MOL0     H78789   9.125   4.467   0.504 -0.4961  0.4929  2.0010
  571MOL0     H78790   9.223   4.743   0.410 -2.5242  1.2319  1.2139
  571MOL0     H78791   9.253   4.672   0.573  1.1342  1.7690  0.0757
  571MOL0     H78792   9.359   4.561   0.323  2.6660 -3.4228  0.0851
  571MOL0     H78793   9.370   4.484   0.488  2.2642 -1.3594 -2.4510
  571MOL0     H78794   9.663   4.788   0.478 -0.1501  0.5634  1.2166
  571MOL0     H78795   8.967   4.634   0.912  1.1667 -2.8518  2.3194
  571MOL0     H78796   8.880   4.586   1.134 -1.9334  1.5983  1.5210
  571MOL0     H78797   8.718   4.532   1.147  0.5487  1.4100  1.3562
  571MOL0     H78798   8.850   4.412   1.157 -0.0239  1.5147  2.1841
  572MOL0     O78799   0.404   3.725   3.562  0.5160 -0.0570  0.8365
  572MOL0     C78800   0.438   3.842   3.534  0.0045  0.0373  0.0950
  572MOL0     O78801   0.559   3.882   3.493  0.1605 -1.0763 -0.9391
  572MOL0     C78802   0.653   3.793   3.475  0.0609 -0.0214  0.1950
  572MOL0     C78803   0.672   3.726   3.348 -0.2131 -0.4231 -1.0780
  572MOL0     C78804   0.778   3.637   3.329 -0.6435  0.1375  0.7990
  572MOL0     C78805   0.881   3.637   3.429 -0.3476  0.8003  0.4715
  572MOL0     O78806   0.994   3.566   3.393  0.5053 -1.1419 -0.1586
  572MOL0     C78807   1.071   3.503   3.496 -0.6211  0.0616  0.2547
  572MOL0     C78808   1.195   3.430   3.436 -0.4386  0.3132 -0.1738
  572MOL0     C78809   1.147   3.359   3.311  0.0264  0.1133  0.4107
  572MOL0     C78810   1.259   3.270   3.255 -0.0315  0.2591 -0.2321
  572MOL0     C78811   1.273   3.289   3.104 -0.8130 -0.6586  0.0074
  572MOL0     C78812   1.370   3.193   3.038  0.5623  0.1506 -0.3277
  572MOL0     C78813   1.378   3.228   2.888 -0.2260 -0.1027 -0.8311
  572MOL0     C78814   1.465   3.365   2.868  0.3511 -0.3607  0.3546
  572MOL0     N78815   1.405   3.456   2.772  0.0055 -1.0260 -0.9582
  572MOL0     C78816   1.272   3.498   2.788  0.3473 -0.5073  0.3838
  572MOL0     C78817   1.265   3.598   2.699 -0.5518  1.0277  0.4678
  572MOL0     C78818   1.159   3.698   2.675  0.3194  0.0612 -0.2843
  572MOL0     C78819   1.032   3.636   2.599 -0.4690 -0.1521 -0.3043
  572MOL0     C78820   1.076   3.598   2.455 -0.9968  0.2837 -0.5130
  572MOL0     C78821   0.958   3.522   2.388 -0.4588 -0.7760  0.6432
  572MOL0     O78822   0.859   3.609   2.327  0.9422  0.1524 -0.2999
  572MOL0     C78823   0.909   3.675   2.221 -0.2932  0.9426  0.2613
  572MOL0     C78824   0.917   3.606   2.089  0.1648 -0.0610 -0.1800
  572MOL0     C78825   0.956   3.681   1.977  0.6350 -0.2431  0.8612
  572MOL0     C78826   1.005   3.606   1.859 -0.3360 -0.5244 -0.0128
  572MOL0     C78827   0.970   3.829   1.983 -0.7373  0.5842  0.9458
  572MOL0     C78828   0.995   3.925   1.867 -0.6409  0.3146  0.4639
  572MOL0     O78829   0.962   4.057   1.885 -0.2629  0.1857 -1.1006
  572MOL0     C78830   1.041   4.161   1.840  0.9205  0.4555  0.0334
  572MOL0     C78831   1.182   4.144   1.823  0.5324 -0.0986 -0.6221
  572MOL0     C78832   1.252   4.247   1.771  0.1556  0.4286  1.1928
  572MOL0     C78833   1.186   4.376   1.738 -0.8257 -0.1659 -0.3202
  572MOL0     O78834   1.250   4.476   1.669 -0.0420  0.9403  0.5162
  572MOL0     C78835   1.393   4.472   1.668 -0.7641  0.0611  0.7299
  572MOL0     C78836   1.441   4.606   1.622 -0.2413 -0.8220 -0.6740
  572MOL0     C78837   1.440   4.610   1.472 -0.3998  0.2953  0.3678
  572MOL0     C78838   1.300   4.626   1.411  0.2458 -0.7692  0.3719
  572MOL0     C78839   1.291   4.671   1.263 -0.3499 -0.6168  0.4515
  572MOL0     C78840   1.143   4.654   1.207  0.0268  0.0826  0.4604
  572MOL0     C78841   1.115   4.700   1.059  0.9263 -0.1176 -0.1324
  572MOL0     C78842   1.216   4.633   0.969  0.9036 -0.1896  0.6865
  572MOL0    Cl78843   1.166   4.462   0.928 -0.0685  0.3782 -0.1274
  572MOL0     C78844   1.051   4.388   1.764  0.3230  0.1296  0.8367
  572MOL0     C78845   0.974   4.281   1.816 -0.3328  0.8696 -0.3458
  572MOL0     O78846   1.022   3.875   1.756  0.6772 -0.1614 -0.4610
  572MOL0     C78847   0.940   3.889   2.104  0.1895  0.3669 -0.5741
  572MOL0     C78848   0.925   3.810   2.216  0.6727  0.1089 -0.4528
  572MOL0     N78849   1.376   3.594   2.628 -0.2204  0.3387  0.0156
  572MOL0     N78850   1.465   3.509   2.666  0.1004  0.4022  0.4933
  572MOL0     C78851   0.860   3.705   3.553  0.6968 -1.2544 -0.4754
  572MOL0     C78852   0.742   3.777   3.583 -0.2644 -0.8065  0.3413
  572MOL0     C78853   0.338   3.951   3.546  0.7876  0.0824 -0.7159
  572MOL0     C78854   0.205   3.920   3.494  0.8061  0.1050 -0.8022
  572MOL0     C78855   0.110   4.012   3.490  1.3984 -0.3874 -0.0135
  572MOL0     C78856   0.138   4.147   3.534 -0.1368  0.0272  0.2197
  572MOL0     O78857   0.048   4.256   3.534 -0.0409  0.1997  0.2471
  572MOL0     C78858  -0.075   4.240   3.451  0.1944 -0.1619 -0.3954
  572MOL0     C78859  -0.150   4.375   3.448  0.3900  0.5040 -0.1041
  572MOL0     C78860  -0.280   4.362   3.356  0.6279 -0.4478 -0.7090
  572MOL0     C78861  -0.354   4.494   3.315  0.3324 -1.1851 -1.9672
  572MOL0     C78862  -0.398   4.558   3.442 -1.1836  0.4632 -0.8804
  572MOL0     C78863  -0.437   4.620   3.540 -0.5500 -0.5949 -0.1391
  572MOL0     C78864   0.266   4.180   3.572  0.0142 -0.2542  1.0753
  572MOL0     C78865   0.367   4.086   3.588 -0.5638 -0.6850  0.3357
  572MOL0     C78866   0.498   4.140   3.641  0.0313  1.2962 -0.2224
  572MOL0     H78867   0.611   3.749   3.261  1.0593  0.7935 -1.6832
  572MOL0     H78868   0.806   3.586   3.237  1.0027  2.7138 -0.2438
  572MOL0     H78869   1.003   3.441   3.555  1.0832 -0.7028  1.5214
  572MOL0     H78870   1.101   3.570   3.578 -0.0609  0.5058 -0.3018
  572MOL0     H78871   1.254   3.510   3.391 -0.7123 -1.7289 -4.7360
  572MOL0     H78872   1.251   3.373   3.510  0.3141  2.8923  1.3790
  572MOL0     H78873   1.062   3.291   3.323 -0.9676  1.0060 -1.2097
  572MOL0     H78874   1.120   3.433   3.236  2.4076  2.6261  1.8676
  572MOL0     H78875   1.353   3.307   3.296 -1.2637  3.7430 -0.2375
  572MOL0     H78876   1.248   3.163   3.275  1.7073 -0.0996 -1.0866
  572MOL0     H78877   1.293   3.389   3.064 -0.7208 -0.0733  1.4573
  572MOL0     H78878   1.177   3.262   3.059  0.1849 -1.4369 -1.7622
  572MOL0     H78879   1.475   3.200   3.066  1.2093  1.7279 -2.7597
  572MOL0     H78880   1.342   3.089   3.052 -2.1764  1.0723  2.2088
  572MOL0     H78881   1.275   3.244   2.855 -0.6912  2.9720  1.6385
  572MOL0     H78882   1.416   3.140   2.836  0.1950 -2.2544  2.7312
  572MOL0     H78883   1.475   3.423   2.960 -0.9909  1.9183 -0.8455
  572MOL0     H78884   1.565   3.340   2.833 -0.4874 -3.5816 -0.1282
  572MOL0     H78885   1.201   3.475   2.866 -1.5981 -0.0813 -1.1815
  572MOL0     H78886   1.200   3.778   2.613  1.3573 -1.4734 -1.6785
  572MOL0     H78887   1.128   3.740   2.771  0.5615  0.2419 -0.2853
  572MOL0     H78888   1.003   3.544   2.652 -0.0759  0.3976  0.9069
  572MOL0     H78889   0.947   3.702   2.616 -1.0415 -0.3292 -2.2436
  572MOL0     H78890   1.091   3.693   2.401  0.0619 -0.4678 -1.5903
  572MOL0     H78891   1.167   3.538   2.453 -1.7290 -1.0049  1.6045
  572MOL0     H78892   0.991   3.442   2.321 -2.7671  0.9051 -2.7839
  572MOL0     H78893   0.911   3.470   2.471  1.5077 -2.4410  0.7837
  572MOL0     H78894   0.927   3.498   2.096 -4.8021 -0.6264  4.3441
  572MOL0     H78895   1.111   3.624   1.841 -0.8934  0.5968 -2.5823
  572MOL0     H78896   0.960   3.645   1.767  3.7816 -0.4508 -2.2406
  572MOL0     H78897   0.997   3.497   1.867  0.4814 -0.8714 -2.8456
  572MOL0     H78898   1.231   4.047   1.820 -3.4649 -2.3370 -1.8447
  572MOL0     H78899   1.360   4.239   1.766 -0.0229 -1.8829 -0.6364
  572MOL0     H78900   1.427   4.461   1.772  1.7524  1.0768  0.0716
  572MOL0     H78901   1.436   4.396   1.603 -1.1791  0.0803  0.4306
  572MOL0     H78902   1.376   4.687   1.658  1.2296  0.1992 -0.2045
  572MOL0     H78903   1.544   4.625   1.653 -0.3547  0.2065 -0.8726
  572MOL0     H78904   1.497   4.529   1.426  2.0926  1.9217  0.4059
  572MOL0     H78905   1.489   4.699   1.432  2.0008 -1.4301 -0.7920
  572MOL0     H78906   1.248   4.690   1.482  0.3811 -1.4388  1.0858
  572MOL0     H78907   1.247   4.530   1.415 -0.2209 -0.7433 -2.7308
  572MOL0     H78908   1.327   4.772   1.240  0.3575 -1.1741 -1.0311
  572MOL0     H78909   1.356   4.598   1.216  0.1709  1.6934 -2.8209
  572MOL0     H78910   1.083   4.717   1.273  0.4345 -0.6954  1.6223
  572MOL0     H78911   1.107   4.551   1.216  1.6416 -0.7108 -1.4409
  572MOL0     H78912   1.124   4.808   1.043  2.1534 -0.3586 -1.2450
  572MOL0     H78913   1.010   4.693   1.032  0.0448  0.4804  2.8185
  572MOL0     H78914   1.319   4.629   1.005  1.1446 -1.9717 -0.0762
  572MOL0     H78915   1.212   4.696   0.879  0.1467 -0.2627  0.6621
  572MOL0     H78916   1.009   4.488   1.760 -0.3301 -0.1896 -0.8974
  572MOL0     H78917   0.867   4.294   1.826 -0.3523 -0.4088  1.7116
  572MOL0     H78918   0.955   3.996   2.116 -0.9669  0.6460 -1.3966
  572MOL0     H78919   0.900   3.868   2.304 -0.3310 -0.2394 -0.4935
  572MOL0     H78920   0.928   3.683   3.635  1.6545 -1.8984 -1.4150
  572MOL0     H78921   0.723   3.830   3.676  2.6346  0.6409  0.2080
  572MOL0     H78922   0.189   3.829   3.435  0.6800 -1.0690  0.9814
  572MOL0     H78923   0.012   3.981   3.455 -0.2184 -0.6819  4.1916
  572MOL0     H78924  -0.041   4.204   3.354  1.1504  0.5685 -0.3426
  572MOL0     H78925  -0.133   4.166   3.508  2.0267 -1.3499  0.0124
  572MOL0     H78926  -0.077   4.449   3.413  0.6881  0.6172  0.7332
  572MOL0     H78927  -0.192   4.406   3.544  0.6228 -4.2904  1.8224
  572MOL0     H78928  -0.249   4.317   3.261 -0.1010  2.5112 -2.4492
  572MOL0     H78929  -0.335   4.300   3.428  3.0825  0.2404  1.9271
  572MOL0     H78930  -0.439   4.485   3.247 -0.0720  1.1416 -1.8429
  572MOL0     H78931  -0.284   4.565   3.272  1.7118 -1.7765 -0.7948
  572MOL0     H78932  -0.483   4.687   3.609  2.0460  1.0042  0.2108
  572MOL0     H78933   0.285   4.284   3.597 -0.1525  1.5437 -4.7605
  572MOL0     H78934   0.463   4.232   3.689  1.7680  3.2296 -2.3859
  572MOL0     H78935   0.541   4.081   3.723  3.8082 -0.5175 -3.1888
  572MOL0     H78936   0.576   4.164   3.568 -1.9363  2.9030 -1.9356
  573MOL0     O78937   8.139   5.233   0.041 -0.2824 -1.1045  0.3570
  573MOL0     C78938   8.138   5.144  -0.037  0.2834  0.6243 -0.1743
  573MOL0     O78939   8.117   5.014  -0.006 -0.3578  0.5454 -0.8188
  573MOL0     C78940   8.148   4.973   0.116  0.1174 -0.3178  0.1583
  573MOL0     C78941   8.055   4.988   0.227  0.3536 -0.4043 -0.3390
  573MOL0     C78942   8.079   4.926   0.348  0.8567 -0.1608  1.2974
  573MOL0     C78943   8.190   4.855   0.370 -0.3481  0.0810  0.2425
  573MOL0     O78944   8.203   4.794   0.493  0.7179 -0.3620  0.0663
  573MOL0     C78945   8.170   4.653   0.489  0.2727  0.6392 -0.0539
  573MOL0     C78946   8.103   4.612   0.622  0.2056  0.5425  0.6264
  573MOL0     C78947   8.025   4.486   0.603  0.4141 -0.0296  0.0394
  573MOL0     C78948   7.886   4.520   0.556 -0.8413 -0.3672  0.5149
  573MOL0     C78949   7.809   4.386   0.542 -0.6319  0.1964 -0.1791
  573MOL0     C78950   7.664   4.404   0.484  0.1615 -0.5137 -0.7174
  573MOL0     C78951   7.578   4.286   0.475 -0.6509  0.1116  0.1562
  573MOL0     C78952   7.564   4.215   0.335 -0.9266  0.6860 -0.7756
  573MOL0     N78953   7.708   4.177   0.301 -0.6757 -0.4882  0.7600
  573MOL0     C78954   7.780   4.234   0.191  0.4564  0.3766  0.0996
  573MOL0     C78955   7.897   4.161   0.189 -0.5436  0.3407  0.4289
  573MOL0     C78956   8.016   4.193   0.106  0.2515 -0.2601  0.0027
  573MOL0     C78957   8.050   4.341   0.112  0.5365  1.0368 -0.0282
  573MOL0     C78958   8.176   4.390   0.032 -0.5531 -0.4065 -0.6560
  573MOL0     C78959   8.175   4.544   0.019  0.2093  0.1806 -0.0473
  573MOL0     O78960   8.080   4.600  -0.073 -0.3940  0.0286 -0.3403
  573MOL0     C78961   7.957   4.628  -0.026  0.5431  0.4066  0.7339
  573MOL0     C78962   7.855   4.602  -0.114 -0.3674  0.3438  0.6377
  573MOL0     C78963   7.722   4.639  -0.090  0.6695 -1.0692 -0.5484
  573MOL0     C78964   7.609   4.618  -0.201  0.0692 -0.0433 -0.2929
  573MOL0     C78965   7.690   4.689   0.034 -0.2951  0.1232  0.0643
  573MOL0     C78966   7.553   4.720   0.073  0.4193 -0.9017  0.1688
  573MOL0     O78967   7.498   4.818  -0.007 -0.2223  0.7099 -0.5702
  573MOL0     C78968   7.364   4.860   0.022  0.2523  0.0167  0.2062
  573MOL0     C78969   7.269   4.878  -0.084 -0.1291  0.7577 -0.0185
  573MOL0     C78970   7.142   4.929  -0.061  0.4312  0.2220 -0.7662
  573MOL0     C78971   7.102   4.977   0.060  0.5708  0.2958  0.0569
  573MOL0     O78972   6.977   5.031   0.072  0.0494 -1.2320  0.1615
  573MOL0     C78973   6.966   5.165   0.133 -0.6800 -0.1141 -0.0687
  573MOL0     C78974   7.045   5.279   0.069  0.1846  0.3658 -0.3861
  573MOL0     C78975   7.016   5.415   0.127  0.0521  0.2664  0.7058
  573MOL0     C78976   6.877   5.475   0.087  0.1389 -0.1424 -0.1443
  573MOL0     C78977   6.872   5.635   0.091 -0.7378  0.3491 -0.5302
  573MOL0     C78978   6.772   5.698  -0.002 -0.3432  0.5581  0.2311
  573MOL0     C78979   6.823   5.843  -0.047 -0.5394 -0.7330  0.2948
  573MOL0     C78980   6.702   5.941  -0.061 -0.6436  0.8441 -1.7079
  573MOL0    Cl78981   6.741   6.086  -0.167  0.8209  0.0753 -0.3108
  573MOL0     C78982   7.184   4.962   0.176  0.0839 -0.2000  0.6090
  573MOL0     C78983   7.316   4.900   0.152  0.9386 -0.2719 -0.0497
  573MOL0     O78984   7.493   4.663   0.158 -0.2622  0.3478  0.0814
  573MOL0     C78985   7.786   4.692   0.132  0.7517 -0.3509 -0.4799
  573MOL0     C78986   7.922   4.678   0.106  0.0035  0.0701  0.0847
  573MOL0     N78987   7.888   4.061   0.280  0.3427 -0.6155  1.0022
  573MOL0     N78988   7.773   4.063   0.333 -0.8679  0.5867 -1.4158
  573MOL0     C78989   8.286   4.834   0.269  0.1305  1.1392  0.1129
  573MOL0     C78990   8.266   4.893   0.136  0.4517  0.2847 -0.8491
  573MOL0     C78991   8.154   5.169  -0.181 -0.7067  0.5963 -0.4708
  573MOL0     C78992   8.068   5.097  -0.264  0.1062 -0.0264  0.0642
  573MOL0     C78993   8.083   5.093  -0.401 -0.8576  0.0874  0.5588
  573MOL0     C78994   8.179   5.178  -0.468  1.1057 -0.4856  0.9234
  573MOL0     O78995   8.180   5.170  -0.599 -0.9323 -0.0378  0.5861
  573MOL0     C78996   8.263   5.258  -0.677 -0.5076 -0.3476 -0.1548
  573MOL0     C78997   8.230   5.251  -0.828  0.2898  0.2143  0.0901
  573MOL0     C78998   8.260   5.104  -0.868  0.6408 -0.6086 -0.3918
  573MOL0     C78999   8.136   5.045  -0.936 -0.7215 -0.0679  0.2620
  573MOL0     C79000   8.025   5.022  -0.832 -0.0340 -0.1206  0.4446
  573MOL0     C79001   7.951   5.000  -0.741 -0.1571  0.6005  0.2724
  573MOL0     C79002   8.258   5.254  -0.381  0.0374  0.3658 -0.2906
  573MOL0     C79003   8.258   5.233  -0.242 -0.0000 -0.1635  0.6188
  573MOL0     C79004   8.371   5.282  -0.170 -0.9108  0.1723 -0.6019
  573MOL0     H79005   7.956   5.030   0.212 -1.0429 -3.2477  0.1787
  573MOL0     H79006   8.010   4.938   0.431 -0.3623  0.1350  0.2810
  573MOL0     H79007   8.257   4.591   0.468  0.2201  0.5501 -0.0099
  573MOL0     H79008   8.095   4.628   0.414  0.4942  3.0700 -1.1793
  573MOL0     H79009   8.173   4.600   0.706 -1.2220  1.3447  1.9987
  573MOL0     H79010   8.037   4.693   0.655 -0.6389 -0.7091  2.2183
  573MOL0     H79011   8.082   4.428   0.531  1.3982  0.4076  0.4380
  573MOL0     H79012   8.033   4.435   0.700  1.7146  1.8926  1.0202
  573MOL0     H79013   7.839   4.594   0.622 -0.5429  0.9720 -0.7088
  573MOL0     H79014   7.894   4.576   0.462 -5.2343  4.1136  2.3092
  573MOL0     H79015   7.814   4.329   0.635  2.8464  0.8954  0.2136
  573MOL0     H79016   7.866   4.324   0.471 -0.9041  1.8427 -1.9342
  573MOL0     H79017   7.608   4.460   0.561  1.4255 -0.0932 -0.0814
  573MOL0     H79018   7.659   4.469   0.396 -2.6746 -0.4620 -0.6148
  573MOL0     H79019   7.481   4.301   0.524  0.4015  1.8127  1.8418
  573MOL0     H79020   7.616   4.206   0.540 -1.2166 -1.8218 -1.7545
  573MOL0     H79021   7.499   4.129   0.321  3.2513 -3.4802  2.2224
  573MOL0     H79022   7.526   4.288   0.263 -2.7363  1.5518  0.9631
  573MOL0     H79023   7.734   4.314   0.135 -0.4476 -0.6147 -0.6164
  573MOL0     H79024   8.005   4.176  -0.001  6.1217  3.0477 -1.6063
  573MOL0     H79025   8.102   4.134   0.142  2.2508  0.5824 -2.9974
  573MOL0     H79026   7.965   4.397   0.072 -1.4453 -0.7756  1.3613
  573MOL0     H79027   8.069   4.375   0.214  3.2706  0.5079 -0.2854
  573MOL0     H79028   8.261   4.347   0.085 -1.4800 -2.2289 -0.5483
  573MOL0     H79029   8.174   4.356  -0.073 -0.5676 -0.2640 -0.7017
  573MOL0     H79030   8.178   4.594   0.116  1.5594 -0.9359  0.5119
  573MOL0     H79031   8.271   4.572  -0.025  1.4094 -1.6963  1.2381
  573MOL0     H79032   7.873   4.565  -0.215 -2.9194 -3.6833  1.4275
  573MOL0     H79033   7.534   4.564  -0.142 -0.4716  0.3275 -0.6258
  573MOL0     H79034   7.648   4.557  -0.283 -2.0913 -0.6532 -0.9457
  573MOL0     H79035   7.573   4.715  -0.237  2.3997 -0.4106 -4.2780
  573MOL0     H79036   7.309   4.856  -0.182  0.2984 -2.2894  0.7218
  573MOL0     H79037   7.079   4.954  -0.146  1.5371 -1.9305 -2.3151
  573MOL0     H79038   6.858   5.185   0.128 -0.3826  1.7511  0.0846
  573MOL0     H79039   6.997   5.162   0.238 -0.0361  0.3777 -0.2392
  573MOL0     H79040   7.151   5.250   0.074 -0.5584 -2.4593  1.9182
  573MOL0     H79041   7.015   5.266  -0.036  1.5557 -1.9555 -0.5712
  573MOL0     H79042   7.084   5.490   0.088  0.7301  0.1690  1.6688
  573MOL0     H79043   7.021   5.419   0.237  1.0577 -0.3521  0.6879
  573MOL0     H79044   6.798   5.435   0.151  0.9094  0.9021  1.5131
  573MOL0     H79045   6.860   5.440  -0.015  0.9436  0.9476 -0.6726
  573MOL0     H79046   6.834   5.649   0.192  1.7270 -0.0305  0.5111
  573MOL0     H79047   6.969   5.680   0.070  0.3638 -1.3289  0.6957
  573MOL0     H79048   6.667   5.694   0.029 -1.5769 -1.4779 -3.5417
  573MOL0     H79049   6.772   5.638  -0.093 -2.5886  1.2988 -0.3043
  573MOL0     H79050   6.867   5.832  -0.147 -0.2208 -0.6070  0.4213
  573MOL0     H79051   6.892   5.892   0.021 -2.7539  1.7890  0.8875
  573MOL0     H79052   6.676   5.982   0.036  0.9613 -0.3926 -0.6968
  573MOL0     H79053   6.616   5.889  -0.105  0.1781 -1.6079 -0.6241
  573MOL0     H79054   7.151   4.999   0.272 -3.3931  0.6389 -0.7511
  573MOL0     H79055   7.380   4.887   0.238  0.6072  3.4699  0.9213
  573MOL0     H79056   7.764   4.722   0.234 -1.3313 -1.2267 -0.6270
  573MOL0     H79057   7.992   4.699   0.186  0.2380 -0.4653  0.0267
  573MOL0     H79058   8.371   4.769   0.289 -3.4224 -4.2492 -0.1253
  573MOL0     H79059   8.335   4.866   0.057  0.5793  0.0650 -0.6653
  573MOL0     H79060   7.992   5.043  -0.209  0.2332  1.5906  1.9610
  573MOL0     H79061   8.022   5.038  -0.472 -0.9254  1.7301 -0.7022
  573MOL0     H79062   8.260   5.364  -0.650  4.6434 -0.2308  1.0283
  573MOL0     H79063   8.360   5.211  -0.658 -1.2023 -1.5670  0.5545
  573MOL0     H79064   8.290   5.323  -0.884 -0.8785  2.3545  1.4722
  573MOL0     H79065   8.123   5.258  -0.849  0.7169  1.1130 -2.0505
  573MOL0     H79066   8.342   5.096  -0.941  1.3791  0.0463  0.3447
  573MOL0     H79067   8.282   5.036  -0.786 -1.8778  2.2216  2.9029
  573MOL0     H79068   8.157   4.959  -1.000 -1.1036 -0.2457  0.3675
  573MOL0     H79069   8.095   5.122  -1.002  2.3661  1.9904  0.5660
  573MOL0     H79070   7.880   4.979  -0.664 -0.7286  0.6976 -0.2196
  573MOL0     H79071   8.344   5.304  -0.425 -0.9231 -1.9490 -5.6195
  573MOL0     H79072   8.386   5.384  -0.208  2.0078 -0.3899 -1.2163
  573MOL0     H79073   8.361   5.290  -0.062  3.1197 -1.7606  0.1022
  573MOL0     H79074   8.455   5.215  -0.190 -1.5780 -1.3576  1.4668
  574MOL0     O79075   4.224   9.007   5.853  0.2344 -0.3462  0.1198
  574MOL0     C79076   4.268   8.902   5.809 -1.0010 -1.1925  0.2051
  574MOL0     O79077   4.198   8.822   5.720 -0.3006  0.3594  0.6597
  574MOL0     C79078   4.096   8.879   5.650  0.0117 -0.2657  0.1769
  574MOL0     C79079   4.103   8.870   5.507  0.0895  0.1107  0.7374
  574MOL0     C79080   4.001   8.910   5.428  0.5023  0.1129  0.8324
  574MOL0     C79081   3.877   8.966   5.492  0.3260 -0.0317  0.5043
  574MOL0     O79082   3.777   8.999   5.403 -0.5869 -0.5567  0.2979
  574MOL0     C79083   3.647   9.026   5.465 -0.1815  0.3042  0.2285
  574MOL0     C79084   3.552   9.087   5.366  0.4403  0.4035  1.0277
  574MOL0     C79085   3.519   8.983   5.263  0.5665  0.5152  0.6344
  574MOL0     C79086   3.402   9.022   5.178  0.2087 -0.5207  0.3770
  574MOL0     C79087   3.364   8.917   5.066  0.5971  0.4592 -0.3502
  574MOL0     C79088   3.468   8.872   4.969 -0.2730  0.4445 -0.4580
  574MOL0     C79089   3.415   8.776   4.865 -0.1107  0.9078 -0.2220
  574MOL0     C79090   3.410   8.621   4.912  0.3611 -0.2588 -0.8522
  574MOL0     N79091   3.425   8.519   4.813  0.3446  0.2997  0.0864
  574MOL0     C79092   3.523   8.420   4.824 -0.1282  0.5346 -0.5942
  574MOL0     C79093   3.501   8.342   4.718  0.2811 -0.6002 -0.4191
  574MOL0     C79094   3.585   8.216   4.684  0.7969 -0.0364  0.5966
  574MOL0     C79095   3.735   8.251   4.691  0.7207  0.2839  0.2693
  574MOL0     C79096   3.785   8.378   4.613 -1.2856 -0.4456 -0.8630
  574MOL0     C79097   3.935   8.396   4.634  0.4450  0.1089  0.2436
  574MOL0     O79098   3.968   8.421   4.772 -0.0362  0.0642  0.3145
  574MOL0     C79099   4.102   8.424   4.792  0.7341  0.9583 -1.1227
  574MOL0     C79100   4.208   8.392   4.704 -0.1639 -0.1093 -0.4323
  574MOL0     C79101   4.340   8.419   4.735 -1.0545 -0.0146 -0.0858
  574MOL0     C79102   4.447   8.395   4.621  0.2132  0.0486 -0.6894
  574MOL0     C79103   4.374   8.460   4.864  0.5011 -0.3081 -0.3629
  574MOL0     C79104   4.518   8.489   4.900  0.0228  0.0839 -0.2947
  574MOL0     O79105   4.594   8.566   4.813 -0.6180 -0.1615  0.0189
  574MOL0     C79106   4.726   8.594   4.838 -0.5886 -0.2896  0.4199
  574MOL0     C79107   4.759   8.726   4.814 -1.1789  0.4828  0.3046
  574MOL0     C79108   4.891   8.768   4.811  0.4272  0.0863 -0.4545
  574MOL0     C79109   4.990   8.676   4.822  0.4744  0.8127 -0.0783
  574MOL0     O79110   5.115   8.706   4.777 -0.7231  0.0344  0.0012
  574MOL0     C79111   5.184   8.801   4.851 -0.0360 -0.3975  0.0625
  574MOL0     C79112   5.177   8.941   4.779  1.1267 -0.6132 -0.3258
  574MOL0     C79113   5.301   9.020   4.796  0.0348  0.3552 -0.2986
  574MOL0     C79114   5.407   8.965   4.704  0.1151 -0.2827 -0.9081
  574MOL0     C79115   5.540   9.032   4.724 -0.2496  0.6746 -0.1642
  574MOL0     C79116   5.619   9.020   4.590  0.1661 -0.7249 -0.7147
  574MOL0     C79117   5.647   8.871   4.558  0.1043  0.0517  0.4239
  574MOL0     C79118   5.768   8.846   4.470  0.7563  0.4356 -0.4962
  574MOL0    Cl79119   5.785   8.952   4.328 -0.7938 -0.2718  0.0408
  574MOL0     C79120   4.961   8.537   4.850  0.5795  1.3326  1.2708
  574MOL0     C79121   4.826   8.498   4.859  0.5249 -0.0999  0.9902
  574MOL0     O79122   4.555   8.451   5.009  0.2416  0.1044 -0.3302
  574MOL0     C79123   4.273   8.467   4.965  0.4473 -0.3052  0.1778
  574MOL0     C79124   4.133   8.463   4.932 -0.7778 -0.7104  0.5985
  574MOL0     N79125   3.400   8.399   4.640  0.1668  0.3192 -0.4803
  574MOL0     N79126   3.351   8.499   4.697 -0.2040 -1.0475 -0.7601
  574MOL0     C79127   3.867   8.961   5.632 -0.4352  0.2846 -0.3764
  574MOL0     C79128   3.982   8.924   5.714 -0.2527  0.2750  0.1912
  574MOL0     C79129   4.382   8.829   5.866  0.8459 -0.1082  0.1654
  574MOL0     C79130   4.425   8.715   5.794 -0.0442  1.1503  0.2485
  574MOL0     C79131   4.541   8.641   5.832 -0.5256 -0.1771  0.6654
  574MOL0     C79132   4.606   8.676   5.950 -0.3013 -0.1395  0.5111
  574MOL0     O79133   4.725   8.609   5.979 -0.2161 -0.3845  0.1514
  574MOL0     C79134   4.811   8.653   6.085  0.0729 -0.5029 -0.3605
  574MOL0     C79135   4.883   8.783   6.067 -0.4613 -0.3884  0.3548
  574MOL0     C79136   4.994   8.810   6.168  0.8000 -0.8434  0.0759
  574MOL0     C79137   4.972   8.783   6.308 -0.1637  0.1550 -0.0313
  574MOL0     C79138   4.862   8.864   6.380 -1.2944  0.6654  0.2799
  574MOL0     C79139   4.762   8.912   6.426  0.0098  0.3773 -0.1880
  574MOL0     C79140   4.551   8.767   6.034  0.5516 -0.8410 -0.7553
  574MOL0     C79141   4.435   8.846   5.998 -0.1792 -0.0158  0.0537
  574MOL0     C79142   4.385   8.942   6.100 -0.0691  0.1929 -0.3364
  574MOL0     H79143   4.187   8.822   5.458  0.3880  1.1581  0.1972
  574MOL0     H79144   4.028   8.906   5.323  0.6082 -1.4197  0.8844
  574MOL0     H79145   3.649   9.093   5.552 -0.0621  0.2859  0.2405
  574MOL0     H79146   3.617   8.926   5.499 -1.3782  0.7764  0.6173
  574MOL0     H79147   3.464   9.123   5.419 -0.0427  0.8056 -0.0277
  574MOL0     H79148   3.599   9.173   5.317  0.1709 -0.1570 -0.2630
  574MOL0     H79149   3.603   8.957   5.199 -1.9895 -2.3706 -1.8836
  574MOL0     H79150   3.495   8.887   5.310 -0.8047  0.4157 -0.2128
  574MOL0     H79151   3.308   9.040   5.231  0.6861  0.1177  1.0256
  574MOL0     H79152   3.431   9.119   5.137  0.4290 -1.1069 -0.9317
  574MOL0     H79153   3.286   8.953   4.999  0.4277  1.6785  0.4699
  574MOL0     H79154   3.324   8.833   5.123 -1.4466  0.9409 -1.0200
  574MOL0     H79155   3.516   8.956   4.918  3.4032 -0.4300  1.2573
  574MOL0     H79156   3.553   8.819   5.013 -0.0122 -1.3559 -2.9238
  574MOL0     H79157   3.486   8.781   4.783  1.6445 -0.1078  1.1589
  574MOL0     H79158   3.323   8.815   4.821  1.6897  1.6430 -3.5672
  574MOL0     H79159   3.486   8.595   4.985  0.5722 -0.6689 -1.2149
  574MOL0     H79160   3.323   8.602   4.977  1.2159 -1.4549 -0.0159
  574MOL0     H79161   3.593   8.395   4.904 -0.4679 -3.9015 -1.3853
  574MOL0     H79162   3.566   8.200   4.577 -2.9455  0.9819  0.9810
  574MOL0     H79163   3.556   8.141   4.758  2.1092 -0.6224  0.5416
  574MOL0     H79164   3.760   8.275   4.795  2.1953  0.6654 -0.1554
  574MOL0     H79165   3.794   8.162   4.666  1.0791  0.9644 -1.4595
  574MOL0     H79166   3.757   8.353   4.510 -1.9432 -3.9037  0.0065
  574MOL0     H79167   3.745   8.476   4.641 -0.9453 -1.0711  2.2523
  574MOL0     H79168   3.978   8.301   4.603  0.0588 -0.7726  2.2459
  574MOL0     H79169   3.962   8.481   4.571 -0.5491  1.1378  1.1499
  574MOL0     H79170   4.176   8.374   4.602  1.8277 -4.9581 -0.4591
  574MOL0     H79171   4.390   8.356   4.536  1.8480  2.5809 -3.1210
  574MOL0     H79172   4.527   8.330   4.658 -1.9883 -2.7028 -0.3975
  574MOL0     H79173   4.490   8.489   4.585 -0.3966  1.2395  1.5472
  574MOL0     H79174   4.701   8.813   4.785  0.9874  1.9342  0.0612
  574MOL0     H79175   4.911   8.871   4.784  0.1071 -0.0986 -1.4212
  574MOL0     H79176   5.143   8.813   4.951 -1.5058  3.0310 -0.8088
  574MOL0     H79177   5.286   8.763   4.865 -0.0368  0.1644  1.7741
  574MOL0     H79178   5.162   8.933   4.671  2.3196 -0.9232 -0.4818
  574MOL0     H79179   5.089   8.999   4.808  0.5435 -0.5106 -2.1629
  574MOL0     H79180   5.343   9.017   4.897 -0.5402 -3.8629  0.0091
  574MOL0     H79181   5.284   9.124   4.766 -0.9612  0.3136  0.0820
  574MOL0     H79182   5.374   9.003   4.607 -3.8678 -0.4985  0.1631
  574MOL0     H79183   5.400   8.856   4.698 -1.5646 -0.2709  0.0239
  574MOL0     H79184   5.538   9.140   4.744  0.6573  1.4651 -3.6767
  574MOL0     H79185   5.597   8.979   4.801 -3.4143 -2.1169  0.4900
  574MOL0     H79186   5.710   9.080   4.592 -1.0253  1.2384 -1.7872
  574MOL0     H79187   5.569   9.063   4.502  1.2088  0.8051 -0.5959
  574MOL0     H79188   5.561   8.817   4.516  0.7043 -1.7638  1.3885
  574MOL0     H79189   5.669   8.827   4.655  1.5196  0.1869  0.1888
  574MOL0     H79190   5.784   8.741   4.443 -2.2436 -0.1870 -0.1952
  574MOL0     H79191   5.856   8.874   4.529 -0.5460  2.6786  0.4857
  574MOL0     H79192   5.041   8.464   4.858 -0.0477  0.5549  0.5537
  574MOL0     H79193   4.802   8.393   4.870 -2.7348  0.4246 -0.1189
  574MOL0     H79194   4.298   8.487   5.069 -5.5744  2.7436  1.5013
  574MOL0     H79195   4.057   8.478   5.009  0.5022  2.9584  1.3537
  574MOL0     H79196   3.790   9.007   5.693  2.7608  4.6379  0.9004
  574MOL0     H79197   3.963   8.910   5.820 -0.8464 -1.5699 -0.1120
  574MOL0     H79198   4.384   8.673   5.703 -3.4541  1.5072  1.4920
  574MOL0     H79199   4.569   8.553   5.775 -1.3891 -1.4257  2.0829
  574MOL0     H79200   4.752   8.658   6.177  1.7360  1.7009  0.7020
  574MOL0     H79201   4.889   8.578   6.105 -0.2316 -0.7791 -0.1937
  574MOL0     H79202   4.809   8.863   6.079 -1.0312 -1.0339  1.2120
  574MOL0     H79203   4.924   8.784   5.965 -2.8773  2.9581 -0.7656
  574MOL0     H79204   5.078   8.742   6.148 -0.6788 -2.7886  0.1364
  574MOL0     H79205   5.024   8.915   6.162 -2.8443  0.3043 -0.2080
  574MOL0     H79206   5.072   8.790   6.351 -0.8475 -3.0371  2.5524
  574MOL0     H79207   4.944   8.679   6.327  1.7976 -0.2172  1.0592
  574MOL0     H79208   4.676   8.946   6.480 -0.6422 -2.5402  0.7754
  574MOL0     H79209   4.580   8.772   6.139 -3.1778 -1.7312  0.4911
  574MOL0     H79210   4.465   8.992   6.156  0.1781 -1.1495  0.5419
  574MOL0     H79211   4.345   9.029   6.046 -0.4812  2.7625  3.6560
  574MOL0     H79212   4.323   8.893   6.176 -1.7425  0.8553 -1.2094
  575MOL0     O79213   9.578   7.522   9.828  0.1676  0.9014  1.1974
  575MOL0     C79214   9.589   7.642   9.789 -0.4898 -0.1597  0.5649
  575MOL0     O79215   9.621   7.681   9.662  0.2142  0.3437  0.0773
  575MOL0     C79216   9.646   7.587   9.564  0.6054  1.3436 -0.4713
  575MOL0     C79217   9.597   7.597   9.436  0.3118 -1.5125  0.7159
  575MOL0     C79218   9.633   7.516   9.332 -1.6473 -0.7987  0.6093
  575MOL0     C79219   9.732   7.420   9.358 -0.0045 -0.3130  0.4149
  575MOL0     O79220   9.789   7.334   9.267 -0.1510 -0.1754 -0.4718
  575MOL0     C79221   9.756   7.336   9.127  0.2004  0.0680  0.3584
  575MOL0     C79222   9.787   7.205   9.050 -0.9447 -0.1686 -0.7127
  575MOL0     C79223   9.787   7.218   8.901  1.2497 -0.0910 -0.4181
  575MOL0     C79224   9.875   7.112   8.821  0.3982  0.7476 -0.6342
  575MOL0     C79225   9.858   6.966   8.864 -0.0603 -0.1404 -0.3031
  575MOL0     C79226   9.918   6.869   8.756  0.5809  0.5767  0.8068
  575MOL0     C79227   9.892   6.715   8.769 -1.0810  1.4009  0.9314
  575MOL0     C79228   9.936   6.643   8.895 -0.1124 -0.2671  0.2658
  575MOL0     N79229  10.084   6.674   8.897  0.8517 -0.5878 -0.4618
  575MOL0     C79230  10.143   6.746   9.003  1.1955  0.2423  0.6531
  575MOL0     C79231  10.271   6.709   8.996 -0.4085 -0.0741  0.6701
  575MOL0     C79232  10.370   6.782   9.098  0.1494  0.3344 -0.4139
  575MOL0     C79233  10.376   6.718   9.230  0.7766  0.3566 -0.8048
  575MOL0     C79234  10.479   6.606   9.237 -0.1120 -0.7103 -0.1345
  575MOL0     C79235  10.499   6.547   9.374  0.4500 -0.6680 -1.1619
  575MOL0     O79236  10.496   6.646   9.482 -0.2708  0.0779 -0.0216
  575MOL0     C79237  10.616   6.716   9.520 -0.3393  0.5341  0.2661
  575MOL0     C79238  10.599   6.800   9.632 -0.4736 -0.1855  0.5396
  575MOL0     C79239  10.706   6.870   9.689 -0.6758 -0.3671 -0.9535
  575MOL0     C79240  10.670   6.945   9.809  0.2863  0.8095  0.7277
  575MOL0     C79241  10.842   6.849   9.633  0.7155  0.5423 -0.6387
  575MOL0     C79242  10.969   6.902   9.700  0.2290 -1.1286  0.2660
  575MOL0     O79243  11.078   6.839   9.662 -0.1332  0.7389 -0.7646
  575MOL0     C79244  11.198   6.888   9.705 -0.3351 -0.1136 -0.2760
  575MOL0     C79245  11.257   6.998   9.642 -0.4497 -0.3854  1.1367
  575MOL0     C79246  11.389   7.026   9.676 -0.4569 -0.7591  0.5476
  575MOL0     C79247  11.449   6.956   9.779 -0.6396 -0.5230  0.3216
  575MOL0     O79248  11.574   6.982   9.832  0.0580  0.3127  0.1215
  575MOL0     C79249  11.611   7.117   9.849 -0.3018  0.0429 -1.0941
  575MOL0     C79250  11.745   7.146   9.931  0.4362  0.1556  0.1136
  575MOL0     C79251  11.730   7.287   9.994 -0.3957 -0.8214  0.6344
  575MOL0     C79252  11.863   7.341  10.060  0.5519 -0.8113  0.4499
  575MOL0     C79253  11.844   7.485  10.124  1.1086  0.6215 -0.7521
  575MOL0     C79254  11.983   7.552  10.130  0.5404 -0.3755  0.5640
  575MOL0     C79255  11.985   7.705  10.166  0.4074  0.9585  0.0813
  575MOL0     C79256  12.064   7.797  10.066 -0.2268  0.0878 -1.1415
  575MOL0    Cl79257  11.961   7.832   9.927  0.3556 -0.2939 -0.1694
  575MOL0     C79258  11.389   6.854   9.835  0.2870 -0.6943 -0.6404
  575MOL0     C79259  11.257   6.819   9.801  0.6472  0.3331 -0.1142
  575MOL0     O79260  10.965   6.997   9.776 -0.2644  0.4106 -0.4855
  575MOL0     C79261  10.861   6.757   9.519 -0.4272  0.2175  0.0824
  575MOL0     C79262  10.749   6.695   9.464 -0.0752 -0.1893 -0.5763
  575MOL0     N79263  10.292   6.622   8.890 -1.2173  0.0590  0.1591
  575MOL0     N79264  10.181   6.600   8.835  0.4231 -0.1141  0.6152
  575MOL0     C79265   9.773   7.391   9.497  0.0559  0.1714  0.3058
  575MOL0     C79266   9.731   7.480   9.592  0.3499 -0.2160 -0.9985
  575MOL0     C79267   9.551   7.757   9.874  0.2311 -0.0761  0.9443
  575MOL0     C79268   9.499   7.871   9.805 -0.3148  0.4183  0.3609
  575MOL0     C79269   9.476   7.990   9.889  0.6855  1.1402 -0.0414
  575MOL0     C79270   9.497   7.989  10.032 -0.0849 -0.0633  1.0214
  575MOL0     O79271   9.466   8.102  10.100 -0.3147 -0.1161 -0.3092
  575MOL0     C79272   9.542   8.132  10.216 -0.8272  0.4646 -0.5766
  575MOL0     C79273   9.454   8.135  10.354 -0.0258 -0.7647  0.7373
  575MOL0     C79274   9.346   8.035  10.353  0.2516  0.2884 -0.1685
  575MOL0     C79275   9.278   8.040  10.493 -0.7496  1.3656  0.2019
  575MOL0     C79276   9.196   8.161  10.513  0.2507  0.3155  0.9891
  575MOL0     C79277   9.138   8.265  10.509 -0.4275  0.4014  0.1791
  575MOL0     C79278   9.552   7.877  10.086 -0.2433  0.8701 -0.6923
  575MOL0     C79279   9.582   7.768  10.005  0.6352 -0.9344 -0.6279
  575MOL0     C79280   9.644   7.645  10.073 -0.5574  0.1784  0.4698
  575MOL0     H79281   9.513   7.664   9.419  0.0622 -1.2909  2.5440
  575MOL0     H79282   9.595   7.538   9.232  0.2674  2.5396  0.4523
  575MOL0     H79283   9.805   7.413   9.067 -2.7884  1.8833  0.0182
  575MOL0     H79284   9.649   7.354   9.116  0.1814  1.6123  2.3794
  575MOL0     H79285   9.887   7.179   9.085 -0.8426 -0.8726 -1.4858
  575MOL0     H79286   9.716   7.127   9.079  0.1325  0.1441  3.3080
  575MOL0     H79287   9.679   7.207   8.885  0.6541  3.2071  0.5216
  575MOL0     H79288   9.799   7.320   8.863 -0.1117 -0.5603 -2.2498
  575MOL0     H79289   9.829   7.123   8.722 -4.0231 -3.7060  0.5324
  575MOL0     H79290   9.981   7.140   8.821  0.6108 -0.0268 -0.1928
  575MOL0     H79291   9.753   6.942   8.881 -0.5084  0.8885 -1.5245
  575MOL0     H79292   9.914   6.958   8.958  0.2947  1.9397 -0.2990
  575MOL0     H79293   9.872   6.894   8.660 -0.3261 -4.6803 -0.4241
  575MOL0     H79294  10.026   6.885   8.761  0.3089  3.0379  0.4075
  575MOL0     H79295   9.951   6.665   8.692 -1.1159  3.2211 -0.3479
  575MOL0     H79296   9.785   6.701   8.751 -0.8851  2.0468 -0.8633
  575MOL0     H79297   9.886   6.693   8.979 -1.8113 -0.2304 -0.7182
  575MOL0     H79298   9.909   6.537   8.899 -0.9161 -0.1368 -1.0325
  575MOL0     H79299  10.096   6.816   9.071  0.6255  1.5720 -1.0148
  575MOL0     H79300  10.355   6.890   9.109  2.5260  0.8009 -1.1804
  575MOL0     H79301  10.470   6.783   9.053  0.2515  4.0510 -0.4057
  575MOL0     H79302  10.397   6.790   9.309  0.6510 -0.4194 -0.0424
  575MOL0     H79303  10.278   6.675   9.254  1.8322 -0.8297  1.6961
  575MOL0     H79304  10.454   6.524   9.168 -0.1546 -1.4359  0.7155
  575MOL0     H79305  10.571   6.654   9.205  0.3573 -0.0767  2.0040
  575MOL0     H79306  10.439   6.457   9.391 -0.6268  0.5427  2.4477
  575MOL0     H79307  10.599   6.506   9.360  0.7894  0.0784 -1.0054
  575MOL0     H79308  10.493   6.814   9.646 -0.6441  1.1801 -1.5963
  575MOL0     H79309  10.697   6.898   9.904 -0.4872  0.4171  0.7610
  575MOL0     H79310  10.564   6.972   9.807  0.4049  1.7846  3.5216
  575MOL0     H79311  10.716   7.044   9.807 -0.9124  1.5289  3.5087
  575MOL0     H79312  11.204   7.058   9.569 -2.4176 -2.9161  0.3212
  575MOL0     H79313  11.443   7.094   9.612 -3.3511  1.0564 -0.1656
  575MOL0     H79314  11.618   7.156   9.747  0.1760  2.0232 -0.3503
  575MOL0     H79315  11.531   7.172   9.898  1.7439  2.5567 -0.3055
  575MOL0     H79316  11.788   7.065   9.992 -0.1833 -1.3752 -1.4091
  575MOL0     H79317  11.819   7.150   9.851  1.5461 -3.5456  0.7575
  575MOL0     H79318  11.664   7.277  10.081  0.8777 -1.1997  1.5924
  575MOL0     H79319  11.683   7.360   9.927 -0.9080 -0.8803  0.9269
  575MOL0     H79320  11.925   7.360   9.972 -1.2764  4.6025 -0.0486
  575MOL0     H79321  11.897   7.258  10.123 -2.1492 -2.5303 -0.1936
  575MOL0     H79322  11.779   7.544  10.058 -1.0033 -2.7192 -1.9259
  575MOL0     H79323  11.806   7.472  10.226 -0.2278 -2.1225 -1.4907
  575MOL0     H79324  12.029   7.542  10.032 -0.5533 -1.3982  0.1317
  575MOL0     H79325  12.051   7.495  10.195 -1.6602 -1.0207  2.4269
  575MOL0     H79326  12.025   7.714  10.268  1.9212  0.9196 -0.4785
  575MOL0     H79327  11.884   7.744  10.154  0.7402  2.1073  0.8299
  575MOL0     H79328  12.157   7.754  10.029 -1.4648 -0.8384 -3.4004
  575MOL0     H79329  12.080   7.899  10.102  1.7487  0.3171 -2.5521
  575MOL0     H79330  11.430   6.796   9.917 -1.2568  2.3793  2.6016
  575MOL0     H79331  11.204   6.733   9.841  0.1666  0.3205 -0.7548
  575MOL0     H79332  10.953   6.716   9.478 -1.2290 -4.0892  2.0481
  575MOL0     H79333  10.763   6.635   9.375  0.2930 -1.6780  0.4513
  575MOL0     H79334   9.825   7.301   9.529 -1.0593 -1.5676 -2.3659
  575MOL0     H79335   9.771   7.473   9.693  0.1789  1.9131 -0.7249
  575MOL0     H79336   9.484   7.878   9.698  1.6438  3.5062  0.1688
  575MOL0     H79337   9.449   8.082   9.839  2.0280  1.8559  0.5035
  575MOL0     H79338   9.625   8.067  10.247 -0.5622  0.3509 -1.4902
  575MOL0     H79339   9.587   8.230  10.198 -2.5973  0.8890 -3.4791
  575MOL0     H79340   9.416   8.237  10.353 -0.7599 -1.0354 -0.5780
  575MOL0     H79341   9.523   8.125  10.439 -0.3171  1.8792  1.3594
  575MOL0     H79342   9.274   8.048  10.272 -1.1886  0.8309  1.1368
  575MOL0     H79343   9.397   7.941  10.333 -1.1510 -0.1518 -2.0144
  575MOL0     H79344   9.346   8.032  10.577  0.6746 -1.6558 -1.0766
  575MOL0     H79345   9.203   7.960  10.486 -1.7069  2.0315  2.1953
  575MOL0     H79346   9.105   8.366  10.515  0.8482  0.7632  2.5323
  575MOL0     H79347   9.554   7.876  10.195  1.3205  0.4716 -0.6984
  575MOL0     H79348   9.678   7.681  10.171 -0.4141 -1.7647  1.1777
  575MOL0     H79349   9.579   7.557  10.076  0.1297 -0.3229  1.3121
  575MOL0     H79350   9.741   7.619  10.029  0.0919 -0.3087  2.1200
  576MOL0     O79351   9.169   5.991   8.816 -0.2826  0.3506  0.1771
  576MOL0     C79352   9.060   6.038   8.809  0.5784 -1.6618  0.3147
  576MOL0     O79353   8.956   6.017   8.894 -0.3486  0.5830  0.2450
  576MOL0     C79354   8.962   5.894   8.954  0.0115  0.0432  0.8740
  576MOL0     C79355   9.047   5.847   9.052  0.0528 -0.2648  0.8462
  576MOL0     C79356   9.023   5.728   9.113  0.2703 -0.0566  0.3464
  576MOL0     C79357   8.921   5.638   9.070 -0.4212 -0.1844 -0.5824
  576MOL0     O79358   8.903   5.526   9.145 -0.0770 -0.0911  0.8616
  576MOL0     C79359   8.766   5.482   9.142  0.5294 -0.1140  0.2915
  576MOL0     C79360   8.756   5.372   9.247 -0.2809  0.4540  0.1805
  576MOL0     C79361   8.616   5.301   9.246  0.4471 -0.5908 -0.0727
  576MOL0     C79362   8.610   5.218   9.118  0.5600  0.3494  1.0697
  576MOL0     C79363   8.569   5.080   9.151 -0.0080 -0.2707 -0.1094
  576MOL0     C79364   8.537   4.998   9.024  0.1086  0.9089  1.2564
  576MOL0     C79365   8.517   4.846   9.033  0.5108 -0.7585  0.7103
  576MOL0     C79366   8.454   4.797   8.894  0.0492 -0.5400 -0.8706
  576MOL0     N79367   8.532   4.847   8.785 -0.3096 -0.6889 -1.2706
  576MOL0     C79368   8.671   4.816   8.765 -0.2348  0.0058  0.1351
  576MOL0     C79369   8.696   4.855   8.642  0.2073 -0.1708  0.3398
  576MOL0     C79370   8.817   4.870   8.560 -0.5806  0.1210 -0.2320
  576MOL0     C79371   8.842   5.020   8.547 -1.3267  1.1453  0.0496
  576MOL0     C79372   8.958   5.044   8.448 -1.4203 -0.3366 -0.1553
  576MOL0     C79373   8.913   5.058   8.299  0.5352 -0.1965  0.4780
  576MOL0     O79374   8.883   4.924   8.252  0.0809  0.2077 -0.4088
  576MOL0     C79375   8.983   4.831   8.209 -0.1051 -0.7051  0.9369
  576MOL0     C79376   8.953   4.693   8.199  0.4782 -0.2483  0.3003
  576MOL0     C79377   9.044   4.597   8.152 -0.1415 -0.6807 -0.5305
  576MOL0     C79378   8.994   4.450   8.154  0.7463 -1.1775 -0.1490
  576MOL0     C79379   9.179   4.637   8.113 -0.4080 -0.5002 -0.0205
  576MOL0     C79380   9.278   4.552   8.052 -0.5678 -0.2692 -0.3417
  576MOL0     O79381   9.237   4.440   7.973 -0.0979  0.2705  0.8362
  576MOL0     C79382   9.329   4.360   7.914 -0.3569  0.8728  0.5378
  576MOL0     C79383   9.287   4.228   7.889  0.1346  0.0860 -0.1425
  576MOL0     C79384   9.369   4.149   7.810 -1.0703  0.8457  1.6647
  576MOL0     C79385   9.493   4.200   7.751 -0.9667  0.5334 -0.1222
  576MOL0     O79386   9.586   4.124   7.681 -0.3959 -0.1286  0.4330
  576MOL0     C79387   9.547   3.989   7.641  0.0191  0.5029  0.2507
  576MOL0     C79388   9.629   3.960   7.513 -0.0461 -0.1893  0.7171
  576MOL0     C79389   9.694   3.819   7.515  0.5966 -0.1979 -0.2995
  576MOL0     C79390   9.820   3.820   7.604  0.1404 -1.0687 -0.5801
  576MOL0     C79391   9.888   3.684   7.637  1.0103  1.3128 -0.0088
  576MOL0     C79392   9.791   3.597   7.715 -0.2320  0.7409 -0.9435
  576MOL0     C79393   9.870   3.468   7.747  0.0986  0.7930 -0.4237
  576MOL0     C79394   9.946   3.475   7.879 -0.6162 -0.4893  0.4915
  576MOL0    Cl79395  10.007   3.318   7.943 -0.1882 -0.2440 -0.2442
  576MOL0     C79396   9.521   4.334   7.769  0.3789  0.1300 -0.6112
  576MOL0     C79397   9.442   4.414   7.850 -0.5178 -0.9345  0.3530
  576MOL0     O79398   9.393   4.588   8.074 -0.0304 -0.3058  0.4497
  576MOL0     C79399   9.212   4.778   8.125 -0.0118  0.5935 -0.1805
  576MOL0     C79400   9.117   4.872   8.165 -0.1958 -0.4628  0.2008
  576MOL0     N79401   8.580   4.897   8.583  0.2075  0.7973 -0.1756
  576MOL0     N79402   8.476   4.892   8.672 -0.5510 -0.5404  0.4482
  576MOL0     C79403   8.856   5.673   8.946 -1.0823 -0.3072  1.2688
  576MOL0     C79404   8.880   5.796   8.890 -0.0171  0.4701  1.1685
  576MOL0     C79405   9.027   6.142   8.705 -0.3430  0.6765 -0.1247
  576MOL0     C79406   8.896   6.158   8.653  0.4380  0.5860 -0.3560
  576MOL0     C79407   8.859   6.254   8.564  0.2905  0.9329 -0.5583
  576MOL0     C79408   8.951   6.356   8.528 -0.7382  0.3470  1.1040
  576MOL0     O79409   8.940   6.453   8.434 -0.0099 -0.7117 -0.7267
  576MOL0     C79410   8.808   6.513   8.434 -0.2315 -0.2368  0.3673
  576MOL0     C79411   8.795   6.603   8.563  0.0569 -0.2618 -0.6065
  576MOL0     C79412   8.666   6.685   8.573  0.2177  0.0423  0.3859
  576MOL0     C79413   8.546   6.598   8.563 -0.1536  0.8004 -0.5157
  576MOL0     C79414   8.527   6.480   8.649  0.1379  0.3193  0.1163
  576MOL0     C79415   8.521   6.374   8.708  0.4369  0.9264 -0.4304
  576MOL0     C79416   9.085   6.342   8.568 -0.2341 -0.8066  0.4090
  576MOL0     C79417   9.125   6.238   8.658  1.0982 -0.0550  0.4026
  576MOL0     C79418   9.271   6.243   8.689 -0.2311 -0.1216  0.4074
  576MOL0     H79419   9.139   5.893   9.087 -0.5120 -0.3186  2.4912
  576MOL0     H79420   9.073   5.703   9.205  1.3414  0.7182 -0.0113
  576MOL0     H79421   8.729   5.448   9.045  0.5149  0.0445  0.2405
  576MOL0     H79422   8.702   5.565   9.176  1.2832  1.1616 -1.2822
  576MOL0     H79423   8.839   5.303   9.231 -1.2100 -0.7811  0.5495
  576MOL0     H79424   8.780   5.411   9.347  0.4894 -0.5495  0.4026
  576MOL0     H79425   8.606   5.243   9.338 -1.5146 -2.4380 -1.3610
  576MOL0     H79426   8.527   5.363   9.233 -0.7424 -2.7615 -4.1401
  576MOL0     H79427   8.531   5.257   9.053  1.0048  3.0958  2.0071
  576MOL0     H79428   8.701   5.215   9.058 -1.6036  0.1171 -2.5133
  576MOL0     H79429   8.474   5.078   9.206 -0.1633 -2.1840 -0.3864
  576MOL0     H79430   8.655   5.031   9.197  0.9957 -1.6737 -3.2147
  576MOL0     H79431   8.439   5.043   9.007 -1.1484 -1.1649  2.6285
  576MOL0     H79432   8.604   5.033   8.945  1.6597  0.9796  2.5645
  576MOL0     H79433   8.440   4.820   9.107  0.3531  0.9560  1.1835
  576MOL0     H79434   8.610   4.792   9.053  0.8622 -0.2599  0.4256
  576MOL0     H79435   8.456   4.688   8.883  1.3277 -0.6574  0.2061
  576MOL0     H79436   8.350   4.828   8.890  0.7611  1.9087 -2.6248
  576MOL0     H79437   8.743   4.777   8.836  1.2359 -0.3107 -1.4747
  576MOL0     H79438   8.812   4.813   8.466  1.9093 -2.1747  0.8805
  576MOL0     H79439   8.900   4.824   8.614  1.2017  2.2848 -0.9205
  576MOL0     H79440   8.758   5.077   8.506 -0.8161  1.5085 -0.5078
  576MOL0     H79441   8.875   5.055   8.645  1.8659  1.9305 -1.1787
  576MOL0     H79442   8.995   5.144   8.471  2.6577 -1.2528 -1.8680
  576MOL0     H79443   9.049   4.987   8.466  0.1830 -0.5471 -6.6078
  576MOL0     H79444   8.820   5.116   8.293  0.5647 -0.3071 -4.2462
  576MOL0     H79445   8.986   5.108   8.235 -0.5703  2.6705  1.3206
  576MOL0     H79446   8.845   4.687   8.207  0.2784  0.2297 -1.6510
  576MOL0     H79447   8.891   4.440   8.189 -0.1286 -2.4078 -2.7804
  576MOL0     H79448   9.054   4.399   8.229 -2.2369 -3.2075  1.0404
  576MOL0     H79449   8.993   4.411   8.052 -1.6343  0.5191 -0.8698
  576MOL0     H79450   9.203   4.181   7.939 -0.0520  1.8415  1.3169
  576MOL0     H79451   9.337   4.046   7.805 -1.0526  0.8148  2.1542
  576MOL0     H79452   9.556   3.916   7.722 -0.8543  0.8646  0.6749
  576MOL0     H79453   9.443   3.979   7.611 -0.1559  0.9653  0.6941
  576MOL0     H79454   9.568   3.966   7.422  0.7070 -0.9119  0.1402
  576MOL0     H79455   9.702   4.039   7.494 -0.9327  0.0156 -2.3059
  576MOL0     H79456   9.707   3.777   7.415 -2.6337  1.7093 -1.6846
  576MOL0     H79457   9.621   3.750   7.558  1.6295 -0.0765  1.7504
  576MOL0     H79458   9.794   3.860   7.702  1.0282 -0.8837 -0.4147
  576MOL0     H79459   9.895   3.888   7.562  0.8012 -0.5152  1.3992
  576MOL0     H79460   9.934   3.642   7.547 -0.1424  0.2191 -0.1188
  576MOL0     H79461   9.969   3.701   7.708 -0.1193  1.1040  1.3738
  576MOL0     H79462   9.708   3.570   7.649 -1.1479  2.4972 -0.5625
  576MOL0     H79463   9.744   3.641   7.804 -4.2255 -0.9818 -1.9739
  576MOL0     H79464   9.937   3.441   7.664  0.6890  2.5486 -0.5650
  576MOL0     H79465   9.792   3.392   7.753 -0.9781  1.7980 -1.2517
  576MOL0     H79466   9.883   3.533   7.947 -3.3966 -1.1235 -1.3821
  576MOL0     H79467  10.032   3.533   7.843 -1.8464  0.0306 -1.7841
  576MOL0     H79468   9.621   4.364   7.741  1.1542 -0.7904  1.0234
  576MOL0     H79469   9.481   4.512   7.875  3.0056 -1.6295 -1.8531
  576MOL0     H79470   9.310   4.806   8.088  1.0789 -2.6139  0.0222
  576MOL0     H79471   9.127   4.980   8.157 -3.5196  0.0181  1.0219
  576MOL0     H79472   8.774   5.620   8.900 -1.6317  2.3719 -1.2040
  576MOL0     H79473   8.831   5.819   8.796 -2.2216 -2.8540  1.3393
  576MOL0     H79474   8.833   6.085   8.703  0.2731  1.0800  0.1704
  576MOL0     H79475   8.751   6.251   8.550 -0.0421  1.6744  1.4931
  576MOL0     H79476   8.818   6.578   8.347  2.1535  2.6969  2.6255
  576MOL0     H79477   8.726   6.441   8.431  0.5330 -1.1847  1.2842
  576MOL0     H79478   8.874   6.679   8.566 -0.3023  0.1047  2.1844
  576MOL0     H79479   8.812   6.550   8.657 -0.7970  2.9347  1.5288
  576MOL0     H79480   8.655   6.732   8.672 -1.1379  0.9843 -0.1838
  576MOL0     H79481   8.651   6.770   8.506 -0.8201  2.4111  3.3745
  576MOL0     H79482   8.547   6.553   8.464  3.5065 -1.7434  0.4168
  576MOL0     H79483   8.461   6.666   8.570 -0.3910  1.1179 -4.4159
  576MOL0     H79484   8.508   6.283   8.763  0.9868 -0.0567 -1.8831
  576MOL0     H79485   9.158   6.415   8.535  0.0642 -1.6421 -0.8318
  576MOL0     H79486   9.313   6.175   8.614 -2.6905  0.5337 -1.6858
  576MOL0     H79487   9.317   6.341   8.669 -0.6913  0.2850  1.2722
  576MOL0     H79488   9.294   6.200   8.787 -1.1976 -0.1630  0.6268
  577MOL0     O79489   2.268   6.895   6.460  0.0700 -0.3024 -1.4543
  577MOL0     C79490   2.259   6.779   6.447  0.1859  0.2015 -0.7727
  577MOL0     O79491   2.196   6.690   6.538 -0.4444  0.8805  0.1113
  577MOL0     C79492   2.113   6.744   6.639  0.2538  0.6518 -0.1942
  577MOL0     C79493   1.980   6.738   6.618 -0.3186  0.0607  0.3470
  577MOL0     C79494   1.893   6.779   6.713  0.7684  0.3642 -0.0467
  577MOL0     C79495   1.938   6.831   6.834  0.0505  0.1424  0.6541
  577MOL0     O79496   1.848   6.860   6.936  0.3279  0.7507 -0.4195
  577MOL0     C79497   1.851   6.750   7.041 -0.0135 -0.5339 -0.0349
  577MOL0     C79498   1.710   6.709   7.084 -0.1690  0.6887 -0.7183
  577MOL0     C79499   1.629   6.812   7.170  0.1719 -0.5823  1.5104
  577MOL0     C79500   1.509   6.741   7.244 -0.6180 -0.2955 -0.2334
  577MOL0     C79501   1.411   6.847   7.299  0.3690  0.2144 -0.3848
  577MOL0     C79502   1.320   6.780   7.411 -0.3160 -0.1816  0.5593
  577MOL0     C79503   1.190   6.852   7.440 -0.2078  0.7959  0.0234
  577MOL0     C79504   1.198   6.919   7.579 -0.3765 -0.0912 -0.4276
  577MOL0     N79505   1.071   6.996   7.592  0.3020 -0.9501  0.3566
  577MOL0     C79506   0.954   6.944   7.647 -0.1040  0.3157  0.2791
  577MOL0     C79507   0.854   7.022   7.612 -0.7797 -0.1634 -0.7201
  577MOL0     C79508   0.702   6.997   7.637  0.2927 -0.2135 -0.5825
  577MOL0     C79509   0.651   6.907   7.527 -0.2018  0.5641  0.3152
  577MOL0     C79510   0.708   6.769   7.564  0.0174  0.2496 -0.5127
  577MOL0     C79511   0.631   6.649   7.517  0.5854  0.3423 -0.5787
  577MOL0     O79512   0.701   6.533   7.548 -0.6858 -0.1316 -0.0744
  577MOL0     C79513   0.819   6.517   7.472 -0.4395  0.2345 -0.5929
  577MOL0     C79514   0.928   6.466   7.537  0.9317  0.5501  0.0476
  577MOL0     C79515   1.054   6.441   7.478  0.0124 -0.6667  0.2653
  577MOL0     C79516   1.168   6.379   7.568  0.3776 -0.4233 -0.5570
  577MOL0     C79517   1.056   6.453   7.335 -0.2236  0.5341  0.5889
  577MOL0     C79518   1.178   6.427   7.260  0.5467 -0.1833 -0.0919
  577MOL0     O79519   1.253   6.312   7.292  0.7973  0.1945  0.2523
  577MOL0     C79520   1.370   6.289   7.217 -0.7089  1.4084 -1.1628
  577MOL0     C79521   1.378   6.190   7.113  0.5997 -0.6127 -0.9731
  577MOL0     C79522   1.487   6.160   7.040 -0.7008  0.1215  0.0013
  577MOL0     C79523   1.605   6.243   7.062 -0.1126 -0.1585 -0.3127
  577MOL0     O79524   1.713   6.217   6.980  0.7837 -0.0934 -0.2603
  577MOL0     C79525   1.815   6.321   6.978 -0.6003 -0.3666  0.6087
  577MOL0     C79526   1.877   6.339   6.837  0.6758  0.7148 -0.2795
  577MOL0     C79527   1.786   6.425   6.742  0.7501  0.1342 -0.1523
  577MOL0     C79528   1.689   6.337   6.649  0.6065  0.0413  0.9667
  577MOL0     C79529   1.663   6.412   6.517  0.5039 -0.2828 -0.4300
  577MOL0     C79530   1.555   6.331   6.436 -0.3539  0.2941 -0.8168
  577MOL0     C79531   1.531   6.395   6.299  0.4722  0.7771 -0.6739
  577MOL0     C79532   1.652   6.409   6.223 -0.8180  0.1100 -0.3608
  577MOL0    Cl79533   1.753   6.269   6.176  0.3292 -0.0449  0.0031
  577MOL0     C79534   1.606   6.334   7.169  0.5398 -0.4817 -0.1765
  577MOL0     C79535   1.491   6.357   7.244 -0.7613  0.3722 -0.5836
  577MOL0     O79536   1.204   6.510   7.178 -0.7637 -0.8201  0.1666
  577MOL0     C79537   0.952   6.516   7.270 -0.0016  0.0578 -0.1038
  577MOL0     C79538   0.841   6.551   7.339  0.5006 -0.4814 -1.3652
  577MOL0     N79539   0.915   7.129   7.538  0.0581 -0.2041  0.0483
  577MOL0     N79540   1.048   7.112   7.532  0.5044 -0.3862 -0.1887
  577MOL0     C79541   2.076   6.839   6.853 -0.0973 -0.2380  0.2329
  577MOL0     C79542   2.166   6.797   6.754 -0.5163 -0.8093  0.1590
  577MOL0     C79543   2.314   6.731   6.319  0.6673 -0.2552  0.4816
  577MOL0     C79544   2.210   6.663   6.249  0.3548 -1.5559  0.5599
  577MOL0     C79545   2.232   6.632   6.115 -1.9823  0.0772  0.3454
  577MOL0     C79546   2.362   6.642   6.062  1.4305 -1.1256 -0.5981
  577MOL0     O79547   2.389   6.601   5.932 -0.4959 -0.1838 -0.0109
  577MOL0     C79548   2.302   6.644   5.818 -0.9073 -0.4602  0.5380
  577MOL0     C79549   2.279   6.794   5.819  0.2046  0.0163 -0.3711
  577MOL0     C79550   2.409   6.876   5.814 -0.8957  0.4864  1.8398
  577MOL0     C79551   2.380   7.032   5.829 -0.6159  0.6431 -0.4150
  577MOL0     C79552   2.342   7.043   5.970  0.6087 -0.9835  1.0121
  577MOL0     C79553   2.323   7.053   6.087  0.9342 -0.7653  0.3399
  577MOL0     C79554   2.464   6.693   6.143  0.2269  0.0225  0.2951
  577MOL0     C79555   2.436   6.744   6.273  0.0618  1.2020 -1.0041
  577MOL0     C79556   2.543   6.792   6.363 -0.0011 -0.5430  0.2288
  577MOL0     H79557   1.952   6.711   6.516  4.0903  2.1197 -1.6698
  577MOL0     H79558   1.789   6.754   6.699  0.9032  1.1946 -3.1290
  577MOL0     H79559   1.913   6.767   7.130  0.2661  2.4970 -0.6915
  577MOL0     H79560   1.908   6.671   6.992  0.9469  0.6627 -0.9097
  577MOL0     H79561   1.655   6.689   6.992  0.4314  0.4457 -1.0338
  577MOL0     H79562   1.713   6.621   7.148  0.2733  0.9046 -0.4365
  577MOL0     H79563   1.695   6.873   7.232  1.6618 -0.7766  0.2069
  577MOL0     H79564   1.583   6.879   7.097 -0.9676  0.1721  2.8812
  577MOL0     H79565   1.457   6.670   7.179 -0.6288  1.5911 -2.4309
  577MOL0     H79566   1.549   6.687   7.331 -0.3976 -3.6434 -2.2155
  577MOL0     H79567   1.343   6.883   7.222 -0.1343  2.5379  1.0431
  577MOL0     H79568   1.470   6.925   7.348  4.6233 -3.3881  0.9976
  577MOL0     H79569   1.287   6.682   7.375 -0.5194 -0.5104  1.6063
  577MOL0     H79570   1.388   6.764   7.495  3.3352 -2.2272 -2.5124
  577MOL0     H79571   1.108   6.781   7.442  0.6722 -0.5355  5.4059
  577MOL0     H79572   1.174   6.926   7.361 -1.7700  0.2657 -0.1798
  577MOL0     H79573   1.207   6.854   7.666 -3.8064  0.4086  0.4577
  577MOL0     H79574   1.274   6.997   7.588  1.2110 -1.5036 -1.0099
  577MOL0     H79575   0.951   6.849   7.699 -0.7607  0.0427 -0.2509
  577MOL0     H79576   0.659   7.098   7.632  0.7884  0.1998  1.9918
  577MOL0     H79577   0.683   6.956   7.736 -1.3247  0.6592 -0.5086
  577MOL0     H79578   0.542   6.902   7.527 -0.3154  0.4557 -3.2506
  577MOL0     H79579   0.686   6.932   7.426  0.5131 -1.2335  0.0672
  577MOL0     H79580   0.811   6.760   7.528  0.7952  0.7206  1.4621
  577MOL0     H79581   0.708   6.771   7.673  2.6561  2.2120 -0.4574
  577MOL0     H79582   0.536   6.657   7.571  0.2519 -3.7765 -0.2462
  577MOL0     H79583   0.601   6.659   7.412 -1.2222  1.3666 -0.0142
  577MOL0     H79584   0.920   6.462   7.645 -1.6126  0.7538 -0.0572
  577MOL0     H79585   1.133   6.374   7.672  0.4812  2.3793 -0.3108
  577MOL0     H79586   1.257   6.443   7.573  0.1821 -0.1792 -0.0733
  577MOL0     H79587   1.199   6.278   7.540 -0.9690  0.1407 -4.6331
  577MOL0     H79588   1.295   6.121   7.109 -0.8140  0.1736  4.9452
  577MOL0     H79589   1.488   6.085   6.962  4.7309  0.1219 -0.3166
  577MOL0     H79590   1.783   6.418   7.018  4.7186  0.8474  2.8020
  577MOL0     H79591   1.898   6.289   7.041  0.5525  1.1669 -0.0621
  577MOL0     H79592   1.974   6.388   6.849 -0.1070  1.8696  1.9819
  577MOL0     H79593   1.896   6.234   6.812 -1.0384  0.5947 -1.1976
  577MOL0     H79594   1.838   6.489   6.670  0.1343 -1.2034 -1.8876
  577MOL0     H79595   1.725   6.494   6.800 -2.1655 -0.2663 -2.4631
  577MOL0     H79596   1.596   6.305   6.696 -0.2042  0.8429 -0.0353
  577MOL0     H79597   1.750   6.252   6.618 -1.1023 -0.9318  0.1472
  577MOL0     H79598   1.635   6.518   6.518 -0.1532 -0.4104 -1.8401
  577MOL0     H79599   1.760   6.412   6.467  2.1395  3.9738  2.2683
  577MOL0     H79600   1.463   6.324   6.494 -0.9758  1.8239 -1.5479
  577MOL0     H79601   1.598   6.232   6.420 -1.7955 -0.1195 -2.3861
  577MOL0     H79602   1.488   6.495   6.311 -0.9550  0.1579 -0.3552
  577MOL0     H79603   1.462   6.332   6.242  1.3605 -1.7414  0.8485
  577MOL0     H79604   1.709   6.480   6.283 -2.6705  0.8251  0.6279
  577MOL0     H79605   1.626   6.467   6.134 -1.4722  3.5607  1.8822
  577MOL0     H79606   1.683   6.404   7.201 -0.7282  1.4559 -1.1849
  577MOL0     H79607   1.499   6.438   7.316 -0.1909 -0.2381  0.0577
  577MOL0     H79608   0.955   6.542   7.165  0.8989  0.6028  0.0507
  577MOL0     H79609   0.754   6.601   7.297 -1.3461 -1.1638  1.3664
  577MOL0     H79610   2.103   6.878   6.950  3.4604 -2.1272  0.1342
  577MOL0     H79611   2.273   6.791   6.775 -0.5309 -1.2168  0.1194
  577MOL0     H79612   2.110   6.669   6.291  0.7577  0.7850  1.3474
  577MOL0     H79613   2.149   6.592   6.057 -0.9758 -4.3539  1.6061
  577MOL0     H79614   2.349   6.627   5.720  1.9135  1.9006  1.3366
  577MOL0     H79615   2.208   6.588   5.820 -0.3112 -1.4821  0.9139
  577MOL0     H79616   2.228   6.831   5.909  0.0387  0.4712 -0.6434
  577MOL0     H79617   2.207   6.820   5.740 -2.3184 -2.4012  0.9600
  577MOL0     H79618   2.478   6.833   5.886 -1.0088  0.3671  1.8780
  577MOL0     H79619   2.446   6.852   5.714 -6.4351 -0.2333 -0.3967
  577MOL0     H79620   2.303   7.072   5.762  0.1718  2.0509 -0.5115
  577MOL0     H79621   2.474   7.081   5.802 -1.2024  1.8239 -0.3674
  577MOL0     H79622   2.284   7.055   6.187 -1.8756 -0.9271 -0.6621
  577MOL0     H79623   2.564   6.689   6.101 -0.6399 -0.7925 -1.8249
  577MOL0     H79624   2.517   6.888   6.408  0.0681 -0.1940 -0.4647
  577MOL0     H79625   2.559   6.726   6.449  1.4807  3.5463  3.4247
  577MOL0     H79626   2.631   6.803   6.299  0.1261 -1.7465  0.1704
  578MOL0     O79627   1.255   5.657   8.456  0.0978 -0.4645  0.3029
  578MOL0     C79628   1.281   5.724   8.353  1.1393  0.1900 -0.1712
  578MOL0     O79629   1.275   5.855   8.343 -0.5008  0.3293  0.0731
  578MOL0     C79630   1.224   5.923   8.449  0.8183  0.1740 -0.5672
  578MOL0     C79631   1.300   6.002   8.525  0.5722 -1.1164  0.0427
  578MOL0     C79632   1.241   6.057   8.642 -0.1301 -0.0857 -0.0870
  578MOL0     C79633   1.106   6.043   8.684 -0.1932 -0.3629  0.4060
  578MOL0     O79634   1.058   6.112   8.797 -0.5096  0.1405  0.1953
  578MOL0     C79635   0.927   6.078   8.842  0.2381 -0.3609 -0.5439
  578MOL0     C79636   0.909   6.120   8.984 -0.3700  0.0100 -0.3223
  578MOL0     C79637   0.765   6.105   9.041 -0.6280  0.1937  0.2431
  578MOL0     C79638   0.769   6.125   9.188  0.3104 -0.2218 -0.8360
  578MOL0     C79639   0.647   6.097   9.268 -0.3141 -0.0224  0.2130
  578MOL0     C79640   0.675   6.111   9.413 -0.1337 -0.2261  0.3361
  578MOL0     C79641   0.555   6.074   9.499 -0.1833 -0.6719 -0.3185
  578MOL0     C79642   0.552   5.935   9.536  0.4432  0.8414 -0.3611
  578MOL0     N79643   0.475   5.915   9.657  0.2389  0.4709 -0.8773
  578MOL0     C79644   0.455   5.798   9.713 -0.0095  0.5949 -0.3197
  578MOL0     C79645   0.375   5.812   9.824  0.8624 -0.0082  0.4154
  578MOL0     C79646   0.317   5.709   9.916 -0.7988  1.3679  0.4492
  578MOL0     C79647   0.197   5.759   9.992  0.2778 -0.1429 -1.1343
  578MOL0     C79648   0.073   5.798   9.906 -0.1126  0.5858  0.3733
  578MOL0     C79649  -0.030   5.847   9.987 -0.3237 -0.1968 -0.0799
  578MOL0     O79650  -0.111   5.952   9.922  0.2947 -0.1842  0.3633
  578MOL0     C79651  -0.120   6.083   9.954 -0.6939  0.7527  0.8893
  578MOL0     C79652  -0.237   6.141   9.923  0.0590  0.5502  0.4633
  578MOL0     C79653  -0.259   6.272   9.961  0.6301 -0.2554 -0.4388
  578MOL0     C79654  -0.402   6.313   9.946  1.5951 -0.8399  0.0200
  578MOL0     C79655  -0.152   6.347  10.025  0.0946  0.6772 -0.5009
  578MOL0     C79656  -0.173   6.488  10.078 -0.5087 -0.3413  0.4352
  578MOL0     O79657  -0.091   6.539  10.177  0.2927  0.0683  0.3535
  578MOL0     C79658  -0.140   6.660  10.225 -0.6820 -0.3665 -0.5313
  578MOL0     C79659  -0.255   6.666  10.310 -1.4369  0.5203  0.4798
  578MOL0     C79660  -0.307   6.783  10.351 -0.7842  0.0335  0.2125
  578MOL0     C79661  -0.244   6.905  10.309  0.5289 -0.4317 -0.2245
  578MOL0     O79662  -0.304   7.026  10.349  0.1197 -0.3356 -0.0189
  578MOL0     C79663  -0.255   7.151  10.292  0.2486  0.5600  0.6764
  578MOL0     C79664  -0.324   7.272  10.360 -0.8030  0.5904  1.1024
  578MOL0     C79665  -0.371   7.380  10.255  0.9374  0.2795 -0.3340
  578MOL0     C79666  -0.247   7.423  10.184  0.1084 -0.7741  0.0886
  578MOL0     C79667  -0.274   7.555  10.108  0.0622 -0.1275 -0.2183
  578MOL0     C79668  -0.372   7.548   9.994  0.7556  0.3743  0.0388
  578MOL0     C79669  -0.342   7.414   9.915 -1.1355 -0.1014  0.2828
  578MOL0     C79670  -0.385   7.419   9.766  0.8913 -1.2466 -0.6699
  578MOL0    Cl79671  -0.560   7.392   9.758  0.0973  0.4785 -0.1553
  578MOL0     C79672  -0.136   6.900  10.213  0.2016  0.5273  0.1963
  578MOL0     C79673  -0.081   6.776  10.174  1.4397  0.7918  1.0997
  578MOL0     O79674  -0.268   6.550  10.029  0.3690 -0.6303  1.0288
  578MOL0     C79675  -0.037   6.283  10.052  0.1509  0.5668 -0.6291
  578MOL0     C79676  -0.016   6.151  10.009 -0.2316 -0.8944 -0.0220
  578MOL0     N79677   0.349   5.948   9.826  0.5122  0.7538 -0.0954
  578MOL0     N79678   0.410   6.008   9.730  0.8956  0.5910  0.4424
  578MOL0     C79679   1.031   5.960   8.596  0.0409 -0.8268 -0.0200
  578MOL0     C79680   1.092   5.897   8.484  0.3956  0.8313 -0.6910
  578MOL0     C79681   1.327   5.654   8.227  0.7222 -0.2516 -0.5993
  578MOL0     C79682   1.366   5.726   8.120  0.9306  0.5026  0.6248
  578MOL0     C79683   1.413   5.664   8.008  0.9049  0.0397 -0.6814
  578MOL0     C79684   1.395   5.528   7.983 -0.1261 -0.3080 -0.6393
  578MOL0     O79685   1.431   5.455   7.874  0.1685  1.0109  0.3015
  578MOL0     C79686   1.463   5.525   7.755  0.1019  0.1271 -0.1700
  578MOL0     C79687   1.349   5.540   7.663  1.4558  0.3539 -0.0663
  578MOL0     C79688   1.227   5.611   7.726  0.2954 -0.3866 -0.1788
  578MOL0     C79689   1.112   5.614   7.624 -0.9805  0.5241  0.3663
  578MOL0     C79690   0.984   5.626   7.681  0.9207  0.0244 -0.3650
  578MOL0     C79691   0.869   5.627   7.725 -0.0076 -0.1057 -0.7653
  578MOL0     C79692   1.336   5.452   8.078  1.0915  0.6660 -0.0829
  578MOL0     C79693   1.307   5.511   8.199  0.3516  0.0927 -0.2428
  578MOL0     C79694   1.246   5.420   8.300  0.3511 -0.4097 -0.0674
  578MOL0     H79695   1.406   5.998   8.501  0.7038  1.3185 -0.0640
  578MOL0     H79696   1.306   6.111   8.710 -2.0146 -1.0404  2.6734
  578MOL0     H79697   0.917   5.970   8.826  1.6152 -0.7064  0.6910
  578MOL0     H79698   0.850   6.128   8.782 -2.7461 -5.2653 -1.3522
  578MOL0     H79699   0.977   6.060   9.045 -1.8494  0.0941  1.5025
  578MOL0     H79700   0.938   6.224   8.995 -1.0679  0.2390 -0.5822
  578MOL0     H79701   0.697   6.179   8.995  0.2099  0.5941 -0.3756
  578MOL0     H79702   0.740   6.004   9.008 -1.2439  0.8356 -1.3961
  578MOL0     H79703   0.839   6.052   9.231 -2.1703 -0.3516  3.5849
  578MOL0     H79704   0.811   6.225   9.203  1.5862 -0.9054  0.4208
  578MOL0     H79705   0.647   5.990   9.246 -0.1175  0.4351 -2.2883
  578MOL0     H79706   0.553   6.143   9.236  0.9009  0.9322 -2.2112
  578MOL0     H79707   0.764   6.050   9.434  0.6212  0.1954 -1.4383
  578MOL0     H79708   0.710   6.211   9.441  0.6574 -0.1671 -0.8038
  578MOL0     H79709   0.466   6.097   9.440 -0.9058  1.4116  1.4561
  578MOL0     H79710   0.551   6.140   9.586  0.3514 -0.2411 -0.6133
  578MOL0     H79711   0.488   5.881   9.465 -0.3659  2.3233 -0.8019
  578MOL0     H79712   0.652   5.892   9.544  1.0140  2.2218  0.3076
  578MOL0     H79713   0.488   5.698   9.687 -1.1332  0.1868 -0.2253
  578MOL0     H79714   0.395   5.679   9.986  1.0753 -0.9310 -2.3918
  578MOL0     H79715   0.285   5.619   9.863  0.9166  2.2625 -2.3544
  578MOL0     H79716   0.175   5.672  10.054 -2.5842 -0.2676 -2.1957
  578MOL0     H79717   0.232   5.839  10.059  0.2859 -1.5163  0.5597
  578MOL0     H79718   0.090   5.875   9.830 -2.4299  0.7131 -0.0803
  578MOL0     H79719   0.039   5.703   9.863  4.0904 -0.9768 -0.0494
  578MOL0     H79720  -0.101   5.768  10.013  1.1826 -1.4541  0.3754
  578MOL0     H79721   0.003   5.885  10.084 -3.1904  0.9066  0.5779
  578MOL0     H79722  -0.313   6.073   9.886  0.2225  2.3679 -3.7324
  578MOL0     H79723  -0.450   6.340  10.041 -0.1854 -0.6702 -0.8917
  578MOL0     H79724  -0.471   6.236   9.910 -1.1485  0.8046  1.4151
  578MOL0     H79725  -0.419   6.399   9.881 -1.9092 -0.6643  0.9693
  578MOL0     H79726  -0.321   6.581  10.324 -1.5800  0.2237 -1.5660
  578MOL0     H79727  -0.387   6.803  10.422 -0.3547  5.0965 -0.3557
  578MOL0     H79728  -0.147   7.157  10.307  1.2778 -1.9325 -3.8843
  578MOL0     H79729  -0.276   7.138  10.186  2.5245 -0.8729  0.3224
  578MOL0     H79730  -0.413   7.222  10.400 -2.2955  0.5062 -2.0315
  578MOL0     H79731  -0.260   7.330  10.429  0.6181 -2.3806  2.4613
  578MOL0     H79732  -0.428   7.459  10.305 -0.5148 -0.7186 -0.3483
  578MOL0     H79733  -0.438   7.332  10.184 -1.0323  2.2352  0.0925
  578MOL0     H79734  -0.209   7.341  10.122  0.3540 -1.5237  1.1992
  578MOL0     H79735  -0.169   7.445  10.258  1.4283  3.0952 -2.1675
  578MOL0     H79736  -0.301   7.631  10.182  0.8344  0.1612 -0.2282
  578MOL0     H79737  -0.176   7.590  10.075  0.8531  1.5272  3.4268
  578MOL0     H79738  -0.375   7.637   9.931  2.6340 -1.4006 -2.8248
  578MOL0     H79739  -0.475   7.538  10.030  1.5195 -1.3878  1.8984
  578MOL0     H79740  -0.377   7.329   9.975  0.2091  0.0722  1.3463
  578MOL0     H79741  -0.234   7.405   9.914 -1.0092  0.4175 -3.4546
  578MOL0     H79742  -0.328   7.350   9.704  3.6016 -2.7432  3.0645
  578MOL0     H79743  -0.363   7.521   9.732 -2.4810  0.2703  1.1542
  578MOL0     H79744  -0.081   6.989  10.185  2.3012  0.4368  3.4250
  578MOL0     H79745   0.004   6.773  10.107  1.4299  0.5942  1.0950
  578MOL0     H79746   0.057   6.320  10.093  2.2220 -1.0323 -3.5875
  578MOL0     H79747   0.076   6.096  10.025 -0.3996 -0.5821  2.5486
  578MOL0     H79748   0.924   5.944   8.610  0.0110 -1.0222 -0.4739
  578MOL0     H79749   1.028   5.836   8.421 -0.3494  1.0731 -0.1891
  578MOL0     H79750   1.381   5.834   8.124 -1.2193  0.8053  1.8978
  578MOL0     H79751   1.442   5.718   7.918 -2.5069  4.3485  0.4631
  578MOL0     H79752   1.518   5.619   7.771 -3.1188  2.4843 -1.6543
  578MOL0     H79753   1.537   5.471   7.696 -0.0839  0.7559 -1.0044
  578MOL0     H79754   1.326   5.443   7.619  3.6424 -0.1189 -0.2531
  578MOL0     H79755   1.377   5.600   7.576  0.1059 -0.2041 -0.9232
  578MOL0     H79756   1.195   5.555   7.814  0.8428 -2.1579 -1.0521
  578MOL0     H79757   1.247   5.714   7.758 -0.0105 -1.0419  2.2934
  578MOL0     H79758   1.116   5.512   7.584  2.1290  0.9450 -0.6203
  578MOL0     H79759   1.120   5.682   7.539 -0.3543 -0.6262 -0.5147
  578MOL0     H79760   0.773   5.637   7.771  1.6561  0.4274  2.9947
  578MOL0     H79761   1.328   5.345   8.063 -4.1269  0.2264  3.3258
  578MOL0     H79762   1.172   5.461   8.369 -1.1760 -1.6669 -0.8820
  578MOL0     H79763   1.208   5.325   8.260  2.0350 -1.7041  1.2618
  578MOL0     H79764   1.328   5.380   8.360 -0.4724 -0.3935  1.0931
  579MOL0     O79765  11.204   8.677   9.774  0.2149 -0.6099 -0.2391
  579MOL0     C79766  11.213   8.633   9.663 -0.3219 -0.3223  0.6289
  579MOL0     O79767  11.240   8.503   9.641 -0.5076  0.0995 -0.3765
  579MOL0     C79768  11.262   8.425   9.752  1.5371 -0.6783  0.2431
  579MOL0     C79769  11.393   8.376   9.771 -1.0092  0.0292 -0.1290
  579MOL0     C79770  11.426   8.296   9.876  0.6877  1.0206 -0.1609
  579MOL0     C79771  11.331   8.265   9.962 -0.7053 -0.0279  0.2385
  579MOL0     O79772  11.366   8.180  10.066  0.5855  0.2128 -0.5410
  579MOL0     C79773  11.270   8.136  10.165  0.5555  0.6476  0.5975
  579MOL0     C79774  11.166   8.026  10.119 -0.6678  0.2187 -0.4568
  579MOL0     C79775  11.115   7.926  10.236  0.1246  0.7589  0.7043
  579MOL0     C79776  11.007   7.817  10.179 -1.2940 -0.6165  0.2591
  579MOL0     C79777  10.978   7.713  10.287 -0.0843 -0.4909  0.2200
  579MOL0     C79778  10.894   7.605  10.225 -0.3573 -0.7992 -0.2454
  579MOL0     C79779  10.873   7.483  10.325  0.5087  0.7453  1.1713
  579MOL0     C79780  10.860   7.504  10.478  0.2780 -0.3491  0.2283
  579MOL0     N79781  10.745   7.579  10.506  0.6015  0.1529 -0.2159
  579MOL0     C79782  10.607   7.553  10.483  0.3356 -0.3239  0.0680
  579MOL0     C79783  10.538   7.655  10.543 -0.7843 -0.0672  0.3517
  579MOL0     C79784  10.394   7.672  10.548 -0.2837 -0.2193 -0.6056
  579MOL0     C79785  10.344   7.778  10.651  0.4516 -0.3175 -0.3470
  579MOL0     C79786  10.385   7.745  10.793 -0.2526 -0.2470  0.4597
  579MOL0     C79787  10.312   7.829  10.894  0.5511  0.1957  0.4035
  579MOL0     O79788  10.193   7.750  10.946  0.7641 -0.2687 -0.0536
  579MOL0     C79789  10.144   7.799  11.061 -0.5233  0.5645  0.2231
  579MOL0     C79790  10.180   7.732  11.176  0.2920 -0.3736  0.3256
  579MOL0     C79791  10.106   7.746  11.301 -0.3417  0.0933 -0.6294
  579MOL0     C79792  10.146   7.647  11.408  0.4550 -0.3477  0.2622
  579MOL0     C79793  10.014   7.849  11.324  1.0508  0.4837  0.9954
  579MOL0     C79794   9.930   7.880  11.443 -1.3832 -1.1191  0.2724
  579MOL0     O79795   9.861   7.996  11.430 -0.5988  0.6331  0.0565
  579MOL0     C79796   9.762   8.009  11.525  0.8943 -0.7274  0.1115
  579MOL0     C79797   9.764   8.133  11.583 -0.5728  0.7288 -0.2155
  579MOL0     C79798   9.660   8.160  11.670  0.1661 -0.2829  0.9884
  579MOL0     C79799   9.567   8.057  11.716 -0.0226  0.7746 -0.0040
  579MOL0     O79800   9.476   8.094  11.813  0.4886  0.5211  0.0505
  579MOL0     C79801   9.393   7.994  11.880 -0.7475 -0.0352  0.9063
  579MOL0     C79802   9.328   8.081  11.986 -0.0379 -0.0474 -0.3869
  579MOL0     C79803   9.229   8.008  12.074 -0.0960  0.5836 -0.9706
  579MOL0     C79804   9.090   8.075  12.079 -0.2030  0.1124 -0.2513
  579MOL0     C79805   9.000   7.986  12.166 -0.5399 -0.9874  0.9520
  579MOL0     C79806   9.015   8.019  12.317 -0.9621  0.0229 -0.2508
  579MOL0     C79807   8.882   7.969  12.379 -0.7084  0.5476 -0.5778
  579MOL0     C79808   8.885   8.008  12.521  0.2500 -0.2217  0.6618
  579MOL0    Cl79809   9.039   7.948  12.588 -0.2004  0.1896  0.2067
  579MOL0     C79810   9.574   7.933  11.658 -0.1031  0.0987  0.6118
  579MOL0     C79811   9.674   7.900  11.566  0.2387 -0.0753  0.1351
  579MOL0     O79812   9.956   7.834  11.558  0.5287 -0.0426  0.4193
  579MOL0     C79813   9.995   7.931  11.208 -0.6655  0.3310  0.4865
  579MOL0     C79814  10.061   7.905  11.082 -0.5769 -0.1636  1.4926
  579MOL0     N79815  10.630   7.751  10.600 -0.5779  0.3091  0.8574
  579MOL0     N79816  10.756   7.700  10.571 -0.3353  0.6922 -0.2863
  579MOL0     C79817  11.205   8.308   9.949  0.7528 -0.5410  0.6397
  579MOL0     C79818  11.160   8.387   9.839 -0.6173  0.1910 -0.0436
  579MOL0     C79819  11.216   8.722   9.541  0.7498  0.5655  0.3929
  579MOL0     C79820  11.267   8.665   9.424 -0.2818 -0.4734  0.4251
  579MOL0     C79821  11.276   8.726   9.297  0.1768 -1.2798  0.5215
  579MOL0     C79822  11.224   8.862   9.279 -0.7679  1.0434 -0.3415
  579MOL0     O79823  11.210   8.934   9.164 -0.5002  0.5149  0.2543
  579MOL0     C79824  11.301   8.913   9.053 -0.2304 -0.1425  0.2807
  579MOL0     C79825  11.242   8.821   8.934 -0.1714 -0.0536  0.1590
  579MOL0     C79826  11.355   8.791   8.822 -0.7956  0.6392  1.0758
  579MOL0     C79827  11.429   8.915   8.773  0.1949  0.2880  0.0515
  579MOL0     C79828  11.342   9.022   8.730  0.1067  0.4274  0.6006
  579MOL0     C79829  11.258   9.101   8.689  0.0943 -0.5395 -0.7206
  579MOL0     C79830  11.187   8.919   9.400 -0.7741  0.2220  0.4142
  579MOL0     C79831  11.173   8.853   9.534 -0.1420 -0.0143  0.3595
  579MOL0     C79832  11.124   8.929   9.658  0.1772 -0.1455 -0.2393
  579MOL0     H79833  11.461   8.402   9.690  0.1715 -2.6440 -0.1167
  579MOL0     H79834  11.527   8.257   9.877  1.2234  2.3128  1.9073
  579MOL0     H79835  11.218   8.224  10.203 -1.8452  0.2874 -1.5395
  579MOL0     H79836  11.334   8.081  10.235 -0.3344 -2.4446 -0.8170
  579MOL0     H79837  11.071   8.079  10.105 -1.6302 -0.6624  2.1452
  579MOL0     H79838  11.196   7.979  10.024  0.2422  1.4542 -0.8038
  579MOL0     H79839  11.203   7.876  10.278  0.5975  2.3671  1.7146
  579MOL0     H79840  11.079   7.981  10.323  1.0825  0.7156  1.1351
  579MOL0     H79841  10.921   7.872  10.141 -1.5271 -0.9685  0.2751
  579MOL0     H79842  11.046   7.768  10.089 -3.1254  0.0871 -0.9674
  579MOL0     H79843  10.931   7.758  10.375 -1.0404  1.2276 -1.1053
  579MOL0     H79844  11.076   7.670  10.309 -0.2469 -5.0602 -5.5444
  579MOL0     H79845  10.806   7.670  10.215  1.2345  1.9286  1.9347
  579MOL0     H79846  10.929   7.570  10.128 -0.2545  0.4072 -0.6602
  579MOL0     H79847  10.941   7.401  10.299 -1.5442 -0.3279 -1.3703
  579MOL0     H79848  10.784   7.431  10.289  2.4256 -1.6997 -0.4599
  579MOL0     H79849  10.856   7.406  10.527  1.2172 -1.2357 -1.3988
  579MOL0     H79850  10.946   7.558  10.518  0.9248  0.9469 -2.6666
  579MOL0     H79851  10.554   7.467  10.443  1.7269 -0.3010 -1.9841
  579MOL0     H79852  10.343   7.577  10.565  0.4771 -0.8337 -1.6495
  579MOL0     H79853  10.368   7.695  10.444 -4.0660 -1.3108 -0.0392
  579MOL0     H79854  10.374   7.873  10.604 -0.0311 -0.7913 -1.6674
  579MOL0     H79855  10.238   7.804  10.642  0.6994  2.0482  2.2352
  579MOL0     H79856  10.350   7.641  10.799 -1.0765  0.0853  1.8612
  579MOL0     H79857  10.494   7.753  10.790 -0.2694 -0.2057 -0.6082
  579MOL0     H79858  10.380   7.851  10.977 -0.5637 -1.7269  1.9190
  579MOL0     H79859  10.278   7.923  10.849 -1.2387 -0.1395  0.9967
  579MOL0     H79860  10.258   7.658  11.163  1.7136  0.6963  2.2280
  579MOL0     H79861  10.066   7.573  11.425  0.9520 -0.8825  0.3279
  579MOL0     H79862  10.160   7.703  11.501  3.2294  2.8646 -1.8804
  579MOL0     H79863  10.241   7.598  11.388 -0.1451 -0.9975 -1.1648
  579MOL0     H79864   9.850   8.193  11.559  0.1326  0.2702  1.0611
  579MOL0     H79865   9.651   8.263  11.704  1.9594 -0.1152  1.0699
  579MOL0     H79866   9.332   7.925  11.821 -0.2120 -1.6432  2.1477
  579MOL0     H79867   9.461   7.922  11.926 -1.3224 -2.2802 -1.4866
  579MOL0     H79868   9.405   8.134  12.042  3.6873 -1.3109 -3.8046
  579MOL0     H79869   9.270   8.153  11.928  1.6846 -0.1710 -2.3770
  579MOL0     H79870   9.277   8.008  12.172  1.7768 -1.9929 -1.7745
  579MOL0     H79871   9.222   7.904  12.040 -0.4292  0.1626  0.3357
  579MOL0     H79872   9.055   8.079  11.975  4.9059 -0.2902 -2.2629
  579MOL0     H79873   9.097   8.180  12.110  1.1333  0.8108 -2.6778
  579MOL0     H79874   8.896   7.998  12.134 -0.3282  0.3506  0.6956
  579MOL0     H79875   9.026   7.880  12.157 -2.3014 -1.5440  1.8927
  579MOL0     H79876   9.019   8.126  12.338 -1.4437  0.0506 -0.2853
  579MOL0     H79877   9.107   7.975  12.357 -0.0762  3.2215  1.5745
  579MOL0     H79878   8.874   7.861  12.369  0.4303  0.5891 -2.4433
  579MOL0     H79879   8.792   8.015  12.338 -0.6605  0.6166 -0.6040
  579MOL0     H79880   8.806   7.973  12.588  0.2845  1.9303  1.9328
  579MOL0     H79881   8.886   8.118  12.519 -0.6186 -0.1428 -3.1619
  579MOL0     H79882   9.494   7.860  11.666 -0.6376  0.5757 -0.2814
  579MOL0     H79883   9.674   7.811  11.504 -2.2430  0.4465 -0.7399
  579MOL0     H79884   9.926   8.015  11.203 -0.4617  0.4646 -0.2291
  579MOL0     H79885  10.039   7.966  10.995 -1.5681  0.6179  2.2660
  579MOL0     H79886  11.127   8.291  10.023 -0.8397 -0.0727 -0.8578
  579MOL0     H79887  11.065   8.439   9.835 -0.8439 -0.2343 -0.1836
  579MOL0     H79888  11.290   8.558   9.425 -1.7140 -0.8175 -0.4045
  579MOL0     H79889  11.312   8.669   9.211 -2.4486  0.2470 -1.7758
  579MOL0     H79890  11.331   9.011   9.016 -2.3778 -0.1939 -1.8611
  579MOL0     H79891  11.392   8.858   9.079  2.2307  2.4241 -2.1911
  579MOL0     H79892  11.164   8.885   8.893 -0.6799 -0.3661  0.6320
  579MOL0     H79893  11.206   8.728   8.977  0.4556  0.5412  2.0434
  579MOL0     H79894  11.427   8.725   8.871 -2.9426 -2.5372  0.2670
  579MOL0     H79895  11.304   8.735   8.743  1.2208  1.2223 -0.7362
  579MOL0     H79896  11.495   8.891   8.690 -0.1136  0.4374 -0.2405
  579MOL0     H79897  11.489   8.956   8.855  1.4385  1.4595 -1.4076
  579MOL0     H79898  11.200   9.178   8.642  2.4381  1.7634 -0.0313
  579MOL0     H79899  11.145   9.019   9.392  0.3936  0.6042 -1.6694
  579MOL0     H79900  11.027   8.903   9.701  1.6899 -0.4266  3.3987
  579MOL0     H79901  11.203   8.919   9.733  0.0007 -0.8738 -0.1452
  579MOL0     H79902  11.122   9.036   9.632 -2.3733 -0.4627 -1.5887
  580MOL0     O79903  11.029   4.751  10.056  0.4479  0.1247  0.6630
  580MOL0     C79904  11.147   4.778  10.040 -0.6294  0.1789  0.4106
  580MOL0     O79905  11.183   4.864   9.946  0.6068  0.6589 -0.1418
  580MOL0     C79906  11.081   4.942   9.902 -0.5175 -0.6871  1.1663
  580MOL0     C79907  11.065   5.066   9.974 -0.7585 -0.3461 -0.0403
  580MOL0     C79908  10.957   5.145   9.946 -0.2106  0.9846  0.0149
  580MOL0     C79909  10.868   5.113   9.843 -0.7676 -0.2236 -0.5862
  580MOL0     O79910  10.758   5.190   9.816 -0.1391  0.1640  0.2735
  580MOL0     C79911  10.737   5.320   9.862  0.1833 -0.8103  0.9575
  580MOL0     C79912  10.624   5.383   9.778 -0.2141 -0.3174  0.8186
  580MOL0     C79913  10.615   5.536   9.771  0.1288 -0.6514  0.1255
  580MOL0     C79914  10.479   5.576   9.702 -0.6907  0.5172  0.5734
  580MOL0     C79915  10.476   5.723   9.664 -0.3508 -0.5976 -1.1242
  580MOL0     C79916  10.596   5.782   9.594  0.0837  0.5472 -0.3669
  580MOL0     C79917  10.578   5.906   9.512  0.1738 -0.3154 -0.9987
  580MOL0     C79918  10.511   5.879   9.375  0.2032 -0.6999 -0.1417
  580MOL0     N79919  10.479   6.012   9.314  0.3020  0.9175  1.1657
  580MOL0     C79920  10.364   6.024   9.231 -0.6433  0.6199  0.4238
  580MOL0     C79921  10.390   6.148   9.178  0.7475 -0.3602 -0.1588
  580MOL0     C79922  10.305   6.195   9.068  0.2255  0.7686 -0.4469
  580MOL0     C79923  10.163   6.226   9.097  0.2326 -0.2699 -0.4431
  580MOL0     C79924  10.147   6.378   9.119  0.0069  0.3281 -0.5649
  580MOL0     C79925  10.015   6.420   9.178  0.2959 -0.2301 -0.8215
  580MOL0     O79926   9.896   6.388   9.118 -0.3291  0.1610 -0.3982
  580MOL0     C79927   9.774   6.411   9.184  0.2359  0.3102  0.6166
  580MOL0     C79928   9.662   6.338   9.135  0.0968 -0.0592 -0.0132
  580MOL0     C79929   9.538   6.333   9.206 -0.7637  0.1896 -1.7582
  580MOL0     C79930   9.414   6.249   9.151 -0.6532 -0.6157 -0.1664
  580MOL0     C79931   9.533   6.396   9.339 -0.3421 -0.5335 -1.2221
  580MOL0     C79932   9.426   6.373   9.434 -0.0047 -0.5082  0.5062
  580MOL0     O79933   9.457   6.409   9.568 -0.6970 -1.2078 -0.6278
  580MOL0     C79934   9.361   6.416   9.667  0.7105 -0.2101 -0.2540
  580MOL0     C79935   9.378   6.400   9.800 -0.1333  0.2321 -0.6517
  580MOL0     C79936   9.263   6.411   9.881  0.9468  0.5815  0.0798
  580MOL0     C79937   9.136   6.448   9.845  0.9323  0.5516 -0.5238
  580MOL0     O79938   9.033   6.455   9.937  0.0646  0.2803 -0.3325
  580MOL0     C79939   8.911   6.409   9.895  0.5795  0.8120 -0.0124
  580MOL0     C79940   8.838   6.367  10.021 -0.2587  0.3967  0.0202
  580MOL0     C79941   8.697   6.318   9.985  0.2372  0.2562  0.8426
  580MOL0     C79942   8.584   6.356  10.082  0.0574  0.4468  0.0616
  580MOL0     C79943   8.556   6.513  10.103  0.6889  0.2159  0.2996
  580MOL0     C79944   8.518   6.579   9.975 -0.4774  0.1758  0.3156
  580MOL0     C79945   8.516   6.728   9.995  1.1243  0.8573 -0.5215
  580MOL0     C79946   8.659   6.784   9.987 -1.2851  0.2922  0.8802
  580MOL0    Cl79947   8.718   6.795   9.816  0.6583  0.3758 -0.3545
  580MOL0     C79948   9.129   6.480   9.708  0.5153  0.7145 -0.0710
  580MOL0     C79949   9.236   6.468   9.624  0.9413 -0.2196  0.7656
  580MOL0     O79950   9.318   6.336   9.397 -0.1597 -0.3122  0.2063
  580MOL0     C79951   9.637   6.485   9.371  0.8934 -0.0905 -0.7764
  580MOL0     C79952   9.760   6.480   9.299 -0.1936  0.2455  0.3207
  580MOL0     N79953  10.498   6.210   9.225  0.0408  0.5859  0.0550
  580MOL0     N79954  10.560   6.124   9.303 -0.2064  0.6978  0.6083
  580MOL0     C79955  10.885   4.998   9.764  0.9294 -0.3130  0.7500
  580MOL0     C79956  10.991   4.909   9.792  1.3420  0.2588 -0.3055
  580MOL0     C79957  11.246   4.696  10.118 -1.0100  0.6554 -0.1634
  580MOL0     C79958  11.379   4.714  10.070  0.3351  0.0065  0.8711
  580MOL0     C79959  11.477   4.639  10.132 -0.9257 -0.2284 -0.6786
  580MOL0     C79960  11.461   4.547  10.239  0.3843 -0.4210  0.3113
  580MOL0     O79961  11.552   4.469  10.305 -0.6281  0.2951  0.7795
  580MOL0     C79962  11.687   4.476  10.262 -1.0777  0.0084 -0.0494
  580MOL0     C79963  11.786   4.370  10.321 -0.1793 -0.9596  0.0844
  580MOL0     C79964  11.818   4.399  10.469 -0.5346 -0.9164  0.4239
  580MOL0     C79965  11.935   4.500  10.496 -0.1935  0.4109 -1.0321
  580MOL0     C79966  12.016   4.476  10.614  0.3903  0.0535  1.0036
  580MOL0     C79967  12.095   4.454  10.703  0.2711  0.6131  0.0340
  580MOL0     C79968  11.326   4.536  10.278 -1.0513  0.3010  0.2502
  580MOL0     C79969  11.222   4.618  10.233  0.7401  0.6012  0.9000
  580MOL0     C79970  11.092   4.609  10.317  0.5044  0.1849 -0.0299
  580MOL0     H79971  11.131   5.096  10.055 -0.1533 -0.7884 -0.3639
  580MOL0     H79972  10.946   5.235  10.006  0.3004  0.7459  0.4653
  580MOL0     H79973  10.824   5.384   9.847 -1.7229  1.7410  0.0661
  580MOL0     H79974  10.689   5.315   9.960  1.3506  1.7033  1.7055
  580MOL0     H79975  10.654   5.354   9.677 -0.3072  0.5522  0.5301
  580MOL0     H79976  10.532   5.330   9.807 -0.8274  0.6357  0.6557
  580MOL0     H79977  10.610   5.588   9.867 -3.4049  1.8308 -1.1432
  580MOL0     H79978  10.705   5.576   9.723  1.6408 -4.2636 -0.3191
  580MOL0     H79979  10.469   5.512   9.614  2.4066  0.2515  0.3098
  580MOL0     H79980  10.399   5.552   9.772 -3.6444 -1.2414 -3.0364
  580MOL0     H79981  10.453   5.785   9.752  0.4581  0.4612 -1.6482
  580MOL0     H79982  10.388   5.738   9.601 -0.2491 -0.1981 -1.1737
  580MOL0     H79983  10.671   5.798   9.672 -0.4517  0.1861  0.2283
  580MOL0     H79984  10.639   5.702   9.534  0.6925 -0.3138  1.1622
  580MOL0     H79985  10.674   5.951   9.485  0.6317 -2.5513 -3.5978
  580MOL0     H79986  10.518   5.975   9.571 -0.1494  0.0973 -1.7986
  580MOL0     H79987  10.583   5.825   9.312  1.1632  3.6612 -3.3076
  580MOL0     H79988  10.423   5.813   9.380  1.0969 -2.0428 -1.2897
  580MOL0     H79989  10.287   5.955   9.199 -1.1943 -0.0709  3.0010
  580MOL0     H79990  10.318   6.115   8.995 -0.6694 -1.2516  1.4787
  580MOL0     H79991  10.357   6.287   9.041 -1.2741  2.2696  1.4652
  580MOL0     H79992  10.093   6.200   9.017 -1.7797  0.3029  1.0756
  580MOL0     H79993  10.141   6.165   9.184  2.7931 -2.1456 -0.9898
  580MOL0     H79994  10.235   6.407   9.177 -0.6402 -0.2273  0.7374
  580MOL0     H79995  10.141   6.428   9.021 -1.0871 -1.0400 -1.2216
  580MOL0     H79996  10.008   6.379   9.279  1.2464 -1.3493 -1.1850
  580MOL0     H79997  10.022   6.529   9.187 -0.9076 -0.0531 -1.7611
  580MOL0     H79998   9.669   6.270   9.051 -0.2545  1.3434 -1.2222
  580MOL0     H79999   9.411   6.160   9.215  2.0068  0.6439  1.9285
  580MOL0     H80000   9.438   6.216   9.050 -1.2923  0.6335 -0.7491
  580MOL0     H80001   9.317   6.300   9.154  0.8109  2.3613  1.7555
  580MOL0     H80002   9.473   6.372   9.844 -0.6132  0.3278  0.4684
  580MOL0     H80003   9.282   6.397   9.987 -4.6101 -1.1451  1.1375
  580MOL0     H80004   8.864   6.486   9.834 -1.3207 -0.9492 -0.9332
  580MOL0     H80005   8.930   6.327   9.825  3.8428  1.5669 -0.1529
  580MOL0     H80006   8.891   6.283  10.068  4.3028  4.1422  2.4186
  580MOL0     H80007   8.830   6.445  10.097 -1.0811  0.2337  0.1137
  580MOL0     H80008   8.697   6.209   9.983 -1.5086  0.2268 -1.7317
  580MOL0     H80009   8.664   6.345   9.885  2.3404  1.6372  0.4461
  580MOL0     H80010   8.602   6.307  10.177  2.0529 -1.7183 -1.3302
  580MOL0     H80011   8.487   6.311  10.055  1.0372 -0.5975 -1.9650
  580MOL0     H80012   8.474   6.525  10.175 -0.1312 -0.8863 -0.4257
  580MOL0     H80013   8.640   6.564  10.152  0.8020  0.5623 -0.2419
  580MOL0     H80014   8.420   6.551   9.935  0.5009 -3.0235 -0.1289
  580MOL0     H80015   8.600   6.554   9.908 -0.0308 -1.5843  1.4670
  580MOL0     H80016   8.472   6.762  10.089 -0.4110 -3.6619  0.6057
  580MOL0     H80017   8.449   6.775   9.922 -1.6014  1.4060  2.1768
  580MOL0     H80018   8.732   6.724  10.043 -1.3164 -0.0686  0.5419
  580MOL0     H80019   8.650   6.883  10.032 -1.6384  1.1908 -1.0420
  580MOL0     H80020   9.036   6.519   9.668 -0.4660  1.9738  3.0933
  580MOL0     H80021   9.218   6.511   9.526  0.3464 -2.2919 -0.0886
  580MOL0     H80022   9.640   6.541   9.463  0.8319  1.1892 -1.5206
  580MOL0     H80023   9.839   6.546   9.336  0.1856  1.2796 -2.1548
  580MOL0     H80024  10.820   4.989   9.678  2.0223 -0.3259 -0.1020
  580MOL0     H80025  10.990   4.812   9.744 -2.0197 -1.1441  2.1794
  580MOL0     H80026  11.396   4.764   9.975 -1.1355 -0.7997  0.1533
  580MOL0     H80027  11.573   4.657  10.085 -2.6729  0.0731 -4.5236
  580MOL0     H80028  11.702   4.458  10.155  1.9004  2.6209 -0.2150
  580MOL0     H80029  11.731   4.575  10.280  0.7874 -0.7489 -0.3120
  580MOL0     H80030  11.877   4.370  10.259  1.2917  1.3886  2.0387
  580MOL0     H80031  11.753   4.267  10.313  1.9118 -1.6634 -0.1410
  580MOL0     H80032  11.732   4.441  10.523  1.0081  0.3686  1.9648
  580MOL0     H80033  11.848   4.299  10.503  1.7004 -0.1141  1.0043
  580MOL0     H80034  11.896   4.601  10.504 -0.0149  0.3858  0.5842
  580MOL0     H80035  12.010   4.504  10.416  2.0048  0.1193  0.9019
  580MOL0     H80036  12.171   4.446  10.777 -0.3795  1.9878  0.8866
  580MOL0     H80037  11.296   4.463  10.352 -2.3933  1.2904  0.7189
  580MOL0     H80038  11.064   4.706  10.358 -1.3309 -0.1509 -0.3993
  580MOL0     H80039  11.013   4.570  10.252 -0.0159 -0.6356  1.0523
  580MOL0     H80040  11.096   4.528  10.391  1.7103 -0.5088 -0.8082
  581MOL0     O80041  11.411   7.163   0.311  0.0352  0.1124 -0.1541
  581MOL0     C80042  11.434   7.077   0.393 -0.3048 -1.0335 -0.5475
  581MOL0     O80043  11.352   7.026   0.491 -0.1662 -0.2118 -0.4712
  581MOL0     C80044  11.217   7.072   0.480 -1.1047 -1.2431  0.8764
  581MOL0     C80045  11.111   6.999   0.426 -0.4385  0.2952 -0.0178
  581MOL0     C80046  10.984   7.059   0.421 -0.3674  0.0841  1.0334
  581MOL0     C80047  10.956   7.182   0.481 -0.6476  0.4066 -0.0567
  581MOL0     O80048  10.838   7.247   0.485 -0.3248  0.5357 -0.6080
  581MOL0     C80049  10.714   7.162   0.487 -0.7626 -0.3565  0.4095
  581MOL0     C80050  10.595   7.238   0.549  0.7046  0.2343 -0.9972
  581MOL0     C80051  10.644   7.302   0.679 -0.3826  0.0412 -1.1151
  581MOL0     C80052  10.538   7.367   0.770 -0.0283  0.6255 -0.1768
  581MOL0     C80053  10.600   7.451   0.884 -0.0560  0.7306  0.2048
  581MOL0     C80054  10.493   7.536   0.941  0.0893 -0.1842 -0.4599
  581MOL0     C80055  10.450   7.502   1.081  0.0877 -0.4297 -0.3456
  581MOL0     C80056  10.572   7.533   1.181  0.8139  0.4733  0.2129
  581MOL0     N80057  10.592   7.674   1.222  0.0770 -0.8235  0.3185
  581MOL0     C80058  10.512   7.786   1.217  0.5826  1.0463 -0.3622
  581MOL0     C80059  10.585   7.892   1.272 -0.3172 -0.3056 -0.3969
  581MOL0     C80060  10.535   8.035   1.282  0.3143 -0.1237  1.1090
  581MOL0     C80061  10.600   8.121   1.389 -0.1798  0.1717 -0.1859
  581MOL0     C80062  10.554   8.128   1.537  0.2571  0.0746  0.0591
  581MOL0     C80063  10.443   8.226   1.544  0.2705  0.7981 -0.1757
  581MOL0     O80064  10.317   8.165   1.505  0.7435 -0.1895  0.1808
  581MOL0     C80065  10.205   8.240   1.521  0.3948 -0.6057 -0.2099
  581MOL0     C80066  10.091   8.172   1.534 -0.9497  0.3087  0.1795
  581MOL0     C80067   9.970   8.232   1.526  0.1037 -0.1010 -0.6423
  581MOL0     C80068   9.852   8.136   1.530 -0.2631  0.3888  0.0126
  581MOL0     C80069   9.957   8.373   1.531 -0.1596  0.0150 -0.4608
  581MOL0     C80070   9.835   8.453   1.514  0.4422  0.6997  0.2673
  581MOL0     O80071   9.853   8.594   1.535 -0.3721 -0.0900 -0.1710
  581MOL0     C80072   9.767   8.703   1.501  0.1254 -0.6052 -0.0551
  581MOL0     C80073   9.661   8.693   1.414  0.5374  1.3167 -0.4285
  581MOL0     C80074   9.582   8.806   1.385  0.0048  0.3390  0.3029
  581MOL0     C80075   9.607   8.926   1.442  0.3926  0.8834  0.1348
  581MOL0     O80076   9.512   9.017   1.396 -0.3906 -0.5097  0.1983
  581MOL0     C80077   9.569   9.150   1.411  0.2120  0.9855  0.0609
  581MOL0     C80078   9.449   9.260   1.413  0.3937 -0.8029 -0.2318
  581MOL0     C80079   9.327   9.241   1.333  0.1869  0.2341  0.4474
  581MOL0     C80080   9.350   9.196   1.180  0.4120 -0.1055 -0.3116
  581MOL0     C80081   9.236   9.194   1.083  0.2319  0.2310  0.5827
  581MOL0     C80082   9.263   9.111   0.958 -0.5774 -0.1065 -0.4197
  581MOL0     C80083   9.145   9.089   0.859 -0.1017 -0.3056  0.1411
  581MOL0     C80084   9.067   9.216   0.812  0.6547 -0.1492  1.1265
  581MOL0    Cl80085   8.927   9.184   0.697 -0.5318  0.8339  0.1036
  581MOL0     C80086   9.719   8.939   1.526  0.2528 -0.8421 -1.4732
  581MOL0     C80087   9.801   8.825   1.556 -0.4204  0.2963 -0.9102
  581MOL0     O80088   9.736   8.404   1.462  0.4521  0.7488  0.2053
  581MOL0     C80089  10.083   8.445   1.539 -0.3559 -0.8523  0.1017
  581MOL0     C80090  10.202   8.384   1.525  0.3891  0.3190 -0.0410
  581MOL0     N80091  10.706   7.841   1.318 -0.4175 -0.5300  0.1221
  581MOL0     N80092  10.701   7.707   1.295 -0.9164  0.1140 -1.0222
  581MOL0     C80093  11.069   7.249   0.536  0.0006 -0.6851 -1.1069
  581MOL0     C80094  11.194   7.192   0.542 -0.2527 -0.1340  0.1225
  581MOL0     C80095  11.564   7.007   0.369  0.0581  0.6485 -0.6854
  581MOL0     C80096  11.553   6.867   0.373  0.2869  0.3849  0.1956
  581MOL0     C80097  11.653   6.784   0.333  0.0612  0.5023 -0.6330
  581MOL0     C80098  11.769   6.830   0.276 -0.0502 -1.3479  0.8926
  581MOL0     O80099  11.858   6.737   0.230  0.1837  0.4069  0.7221
  581MOL0     C80100  11.975   6.786   0.151  1.0261  0.1840  0.0693
  581MOL0     C80101  12.067   6.660   0.133  0.4338 -1.0568 -0.2017
  581MOL0     C80102  12.169   6.627   0.242 -0.1175 -1.1190 -0.9430
  581MOL0     C80103  12.280   6.739   0.262  0.0011  0.2832 -0.4490
  581MOL0     C80104  12.367   6.740   0.146 -0.5580 -0.2653 -0.0401
  581MOL0     C80105  12.437   6.727   0.045  0.2419  0.0993 -1.2840
  581MOL0     C80106  11.786   6.971   0.275  0.7991  0.3602  0.1127
  581MOL0     C80107  11.683   7.062   0.325 -0.7452 -0.1919 -0.1104
  581MOL0     C80108  11.703   7.211   0.316  0.0145  0.1455 -0.4743
  581MOL0     H80109  11.134   6.909   0.369 -0.7451 -0.2085  0.6340
  581MOL0     H80110  10.905   7.001   0.375  1.9343 -1.7437 -0.8578
  581MOL0     H80111  10.731   7.064   0.532  1.8825 -0.0393  0.2163
  581MOL0     H80112  10.682   7.133   0.386  1.2331 -3.2322  0.4822
  581MOL0     H80113  10.567   7.309   0.470  0.8443 -2.3041 -3.5138
  581MOL0     H80114  10.508   7.172   0.555  0.5873  0.3490 -1.3676
  581MOL0     H80115  10.704   7.235   0.741 -0.5798  0.2602 -0.6841
  581MOL0     H80116  10.720   7.376   0.651 -0.4468 -0.2403 -2.0781
  581MOL0     H80117  10.469   7.425   0.708 -5.5131 -2.6964  2.0899
  581MOL0     H80118  10.477   7.287   0.813 -0.4172  0.2935 -1.3187
  581MOL0     H80119  10.676   7.518   0.842  0.8381 -0.6907 -0.5217
  581MOL0     H80120  10.648   7.388   0.960 -0.0328  0.8322  0.2748
  581MOL0     H80121  10.529   7.639   0.928  1.8028 -0.8597 -1.4194
  581MOL0     H80122  10.401   7.536   0.883  0.5357 -0.3007 -1.1810
  581MOL0     H80123  10.432   7.396   1.099 -0.8356 -0.1769  0.3170
  581MOL0     H80124  10.364   7.564   1.110  1.5965  3.4304 -3.1522
  581MOL0     H80125  10.555   7.475   1.272  0.1332 -0.7104 -0.6250
  581MOL0     H80126  10.668   7.494   1.145  0.3033  0.5330 -1.3120
  581MOL0     H80127  10.411   7.801   1.182  0.7447  3.3530  0.0132
  581MOL0     H80128  10.429   8.044   1.306  0.7602  4.0097  2.2877
  581MOL0     H80129  10.553   8.086   1.187  0.1159 -3.6109 -0.9597
  581MOL0     H80130  10.704   8.088   1.401 -0.5551 -0.9605  0.1719
  581MOL0     H80131  10.590   8.220   1.346 -1.6582 -0.1543 -0.6491
  581MOL0     H80132  10.499   8.040   1.571 -1.5022  1.0662 -0.0989
  581MOL0     H80133  10.633   8.146   1.610 -1.0901 -5.2760  3.4486
  581MOL0     H80134  10.442   8.249   1.651  2.5931 -0.4969  0.1845
  581MOL0     H80135  10.469   8.325   1.505 -0.9010  0.4217 -2.0140
  581MOL0     H80136  10.088   8.064   1.544 -2.9647  0.2566 -0.5627
  581MOL0     H80137   9.760   8.187   1.560  0.0927  1.2151 -0.2810
  581MOL0     H80138   9.869   8.055   1.602  1.3334 -0.2220 -1.0050
  581MOL0     H80139   9.842   8.083   1.435  3.9094  1.5328 -1.2602
  581MOL0     H80140   9.636   8.593   1.381  1.0320 -0.0797  3.0047
  581MOL0     H80141   9.505   8.788   1.311  1.1317 -4.3485 -0.0618
  581MOL0     H80142   9.623   9.160   1.506  3.9380 -0.3086 -1.7279
  581MOL0     H80143   9.650   9.172   1.341  0.8348 -0.2628  0.3668
  581MOL0     H80144   9.421   9.267   1.519 -1.4451  0.6202 -0.7597
  581MOL0     H80145   9.497   9.358   1.399 -0.3470 -0.2868  0.7252
  581MOL0     H80146   9.273   9.336   1.330  0.7284  0.5803  1.3556
  581MOL0     H80147   9.260   9.170   1.382 -3.0276  1.9429 -1.1834
  581MOL0     H80148   9.376   9.090   1.182 -1.6829 -0.6610  0.4429
  581MOL0     H80149   9.425   9.262   1.136  0.5348  1.2626  1.8201
  581MOL0     H80150   9.154   9.134   1.124 -0.9838 -0.5817 -2.7199
  581MOL0     H80151   9.203   9.297   1.066  2.7861  0.8401 -1.2088
  581MOL0     H80152   9.301   9.012   0.984 -0.5530  0.1145  0.4087
  581MOL0     H80153   9.342   9.157   0.899 -1.1041  2.2188  0.5793
  581MOL0     H80154   9.078   9.022   0.914 -1.1511 -2.2924 -3.2878
  581MOL0     H80155   9.183   9.041   0.768  0.5662 -0.9479  0.7429
  581MOL0     H80156   9.137   9.285   0.764  1.6711 -1.6438  0.3986
  581MOL0     H80157   9.015   9.275   0.888 -3.2157  0.8899 -1.9811
  581MOL0     H80158   9.752   9.023   1.586 -0.8911 -1.5971  0.2724
  581MOL0     H80159   9.890   8.823   1.618 -2.1898  1.9037  1.8981
  581MOL0     H80160  10.091   8.553   1.536  2.7088 -0.8465  3.1270
  581MOL0     H80161  10.295   8.439   1.522  0.7035 -0.2513 -2.4353
  581MOL0     H80162  11.038   7.351   0.559 -0.8844 -1.0869 -0.4678
  581MOL0     H80163  11.280   7.243   0.585 -0.6777  0.1050  0.6974
  581MOL0     H80164  11.464   6.813   0.402  0.4961 -2.0155 -3.1065
  581MOL0     H80165  11.638   6.678   0.311  0.7462  0.7015 -2.2437
  581MOL0     H80166  11.947   6.826   0.053  3.4041  0.6611 -0.4643
  581MOL0     H80167  12.016   6.860   0.220 -3.4853  2.0202  1.1258
  581MOL0     H80168  12.126   6.690   0.046 -1.2796  2.7650 -0.2081
  581MOL0     H80169  12.005   6.575   0.101  0.4934 -2.0048  2.0022
  581MOL0     H80170  12.129   6.598   0.339  2.7873  2.1631  1.5104
  581MOL0     H80171  12.227   6.545   0.197  0.8017 -2.3032  2.1363
  581MOL0     H80172  12.339   6.708   0.348 -1.3628 -1.2356 -0.0005
  581MOL0     H80173  12.241   6.840   0.272 -4.2308 -1.0442 -1.3569
  581MOL0     H80174  12.484   6.720  -0.051 -0.2775 -2.2533 -1.4404
  581MOL0     H80175  11.870   7.021   0.228 -1.1648 -0.0933 -4.4835
  581MOL0     H80176  11.629   7.263   0.378 -0.3277 -0.8964  0.0232
  581MOL0     H80177  11.807   7.226   0.344 -0.4201  1.3968  0.5856
  581MOL0     H80178  11.691   7.248   0.214  1.0495  0.8709 -0.3459
  582MOL0     O80179   6.894   2.733   9.552  0.6765 -0.3065 -0.0553
  582MOL0     C80180   6.900   2.612   9.578 -0.0039  1.0054  0.4211
  582MOL0     O80181   6.800   2.543   9.627  0.4091  0.6800  0.0875
  582MOL0     C80182   6.706   2.606   9.704  1.1281 -0.0596 -0.1774
  582MOL0     C80183   6.651   2.739   9.707 -0.0728  0.8083 -0.8963
  582MOL0     C80184   6.563   2.784   9.806 -1.1342  0.9160 -0.8350
  582MOL0     C80185   6.519   2.706   9.915 -0.2933  0.1685 -0.5923
  582MOL0     O80186   6.437   2.758  10.016  0.9580 -1.1747 -0.3244
  582MOL0     C80187   6.438   2.691  10.136  1.4195 -0.0989 -0.5853
  582MOL0     C80188   6.345   2.757  10.244 -0.6063  0.9206 -0.2786
  582MOL0     C80189   6.198   2.748  10.194  0.4796  0.1580 -0.2117
  582MOL0     C80190   6.099   2.824  10.285  0.7445 -0.5321 -0.1093
  582MOL0     C80191   5.997   2.711  10.343  0.1248 -0.9629  0.2638
  582MOL0     C80192   6.065   2.620  10.439 -0.0798 -0.8834 -0.0468
  582MOL0     C80193   6.035   2.472  10.413  0.2121 -0.0719  0.3139
  582MOL0     C80194   6.081   2.380  10.530  0.0037 -0.3477  0.0846
  582MOL0     N80195   5.975   2.389  10.634  0.2535  0.6517  0.1453
  582MOL0     C80196   5.863   2.301  10.634  0.5030 -0.7817  0.3795
  582MOL0     C80197   5.790   2.338  10.745  0.2486  0.3255  0.2326
  582MOL0     C80198   5.651   2.294  10.798 -0.4734  0.4418 -0.3669
  582MOL0     C80199   5.542   2.319  10.695 -0.2496  0.4313 -0.2132
  582MOL0     C80200   5.526   2.191  10.605 -0.0482  0.8001  0.0829
  582MOL0     C80201   5.424   2.216  10.495  0.0297 -0.1889  0.0665
  582MOL0     O80202   5.485   2.319  10.402 -0.6088  0.0139 -0.4221
  582MOL0     C80203   5.399   2.393  10.331 -0.2665  0.5348  1.2128
  582MOL0     C80204   5.260   2.378  10.309 -0.0016 -0.1323 -0.9977
  582MOL0     C80205   5.185   2.477  10.244 -0.3622 -0.3718 -1.1938
  582MOL0     C80206   5.045   2.452  10.213 -0.2174  0.7704  0.6547
  582MOL0     C80207   5.250   2.592  10.186 -0.7315  0.5582  0.2991
  582MOL0     C80208   5.185   2.700  10.113 -0.0970  0.5330  0.9877
  582MOL0     O80209   5.264   2.793  10.053 -0.6396  0.6851  0.0078
  582MOL0     C80210   5.207   2.912  10.025 -0.5264 -0.8212  0.4670
  582MOL0     C80211   5.199   2.954   9.893  0.0003 -0.0366 -0.3384
  582MOL0     C80212   5.154   3.085   9.865  1.1568  0.3949  0.4132
  582MOL0     C80213   5.105   3.177   9.960 -0.3543 -0.3396  0.4301
  582MOL0     O80214   5.051   3.303   9.926 -0.0131  1.1133  0.6480
  582MOL0     C80215   5.005   3.316   9.792 -0.1866 -0.1887  0.0311
  582MOL0     C80216   4.906   3.433   9.757 -0.0503 -0.1341  0.3076
  582MOL0     C80217   4.945   3.540   9.867  0.2448 -0.1036  0.8677
  582MOL0     C80218   4.845   3.659   9.827 -0.7133  0.6096 -0.1395
  582MOL0     C80219   4.859   3.777   9.933 -0.1216 -0.2475  0.4496
  582MOL0     C80220   4.723   3.789  10.006 -0.2134 -0.2702 -0.1419
  582MOL0     C80221   4.742   3.893  10.119  0.3611 -0.0436  0.1165
  582MOL0     C80222   4.611   3.935  10.183 -0.5597  0.0099 -0.5936
  582MOL0    Cl80223   4.514   4.023  10.053  0.0395 -0.3289 -0.2073
  582MOL0     C80224   5.118   3.132  10.099 -0.7824 -0.0607  0.1245
  582MOL0     C80225   5.170   3.005  10.125 -0.2650 -0.8569 -0.0069
  582MOL0     O80226   5.067   2.700  10.094  0.1479  0.7984  0.4778
  582MOL0     C80227   5.392   2.596  10.202 -0.0729 -0.2327  0.2605
  582MOL0     C80228   5.460   2.505  10.278  0.3387 -0.4455  0.0952
  582MOL0     N80229   5.867   2.434  10.812  0.6961  0.0396 -1.0299
  582MOL0     N80230   5.976   2.452  10.755  0.8320 -0.2343  0.5054
  582MOL0     C80231   6.572   2.570   9.912 -0.3176 -0.1561 -0.7016
  582MOL0     C80232   6.662   2.531   9.814 -0.1245 -0.0449 -1.0781
  582MOL0     C80233   7.023   2.539   9.543  0.1041  0.3322 -0.8291
  582MOL0     C80234   7.137   2.609   9.525  0.1007  0.9265 -0.3464
  582MOL0     C80235   7.270   2.558   9.518  0.4866 -0.6594 -0.0249
  582MOL0     C80236   7.276   2.420   9.533  0.6182 -0.6221  0.4621
  582MOL0     O80237   7.396   2.358   9.549  0.4290  0.3640  0.1016
  582MOL0     C80238   7.520   2.424   9.521 -0.8644 -0.1134 -0.0168
  582MOL0     C80239   7.590   2.473   9.655 -0.3008 -0.2770  0.6261
  582MOL0     C80240   7.666   2.605   9.632 -1.0882 -0.0899 -0.2565
  582MOL0     C80241   7.779   2.590   9.538  0.3034  0.9860 -0.1203
  582MOL0     C80242   7.852   2.715   9.547 -0.2801 -0.0193  0.4140
  582MOL0     C80243   7.893   2.825   9.566 -1.0943 -0.2524  0.9646
  582MOL0     C80244   7.160   2.349   9.537 -0.2383 -0.4453 -0.0621
  582MOL0     C80245   7.026   2.403   9.541 -0.3617  0.2817  0.2115
  582MOL0     C80246   6.917   2.298   9.569 -0.2959  0.5499  0.4320
  582MOL0     H80247   6.682   2.813   9.634  0.6160  0.0387 -1.4059
  582MOL0     H80248   6.548   2.890   9.792  0.5909  1.0790 -1.7490
  582MOL0     H80249   6.539   2.678  10.177  0.3443 -3.6575  1.3762
  582MOL0     H80250   6.409   2.590  10.107  0.6791 -0.4133  1.1264
  582MOL0     H80251   6.339   2.695  10.334 -1.8069 -1.3138 -1.8172
  582MOL0     H80252   6.381   2.860  10.252  0.1341  0.6656 -0.2464
  582MOL0     H80253   6.183   2.801  10.100  3.1565  1.7044  0.1263
  582MOL0     H80254   6.164   2.645  10.184 -1.2792  0.6601  0.3061
  582MOL0     H80255   6.157   2.875  10.362 -2.8954  0.5638  2.1267
  582MOL0     H80256   6.053   2.901  10.223  1.5329 -0.1339 -0.2158
  582MOL0     H80257   5.957   2.657  10.257 -0.0374 -1.4241  0.6207
  582MOL0     H80258   5.913   2.759  10.395  0.7257  1.1191 -0.5841
  582MOL0     H80259   6.171   2.644  10.443  0.0529 -1.4882  0.2487
  582MOL0     H80260   6.040   2.634  10.545 -2.6892 -2.4123 -0.3563
  582MOL0     H80261   6.095   2.445  10.325 -0.8655  1.0533 -0.8014
  582MOL0     H80262   5.927   2.465  10.404 -0.1022  0.5887  2.7301
  582MOL0     H80263   6.087   2.276  10.495 -1.0615  0.0634 -1.4235
  582MOL0     H80264   6.186   2.401  10.553  0.7398 -3.3595 -0.0878
  582MOL0     H80265   5.843   2.220  10.564  0.3087 -0.3623 -0.0560
  582MOL0     H80266   5.636   2.360  10.884  0.8631  1.2671 -0.7426
  582MOL0     H80267   5.654   2.188  10.823  0.3563  0.2894 -1.0806
  582MOL0     H80268   5.443   2.331  10.740 -0.9932 -0.9972 -1.3875
  582MOL0     H80269   5.566   2.411  10.642  3.0599  0.3805  0.9758
  582MOL0     H80270   5.621   2.177  10.553  0.7496  2.4461  1.0305
  582MOL0     H80271   5.501   2.102  10.663 -0.5390  1.0599  0.2803
  582MOL0     H80272   5.392   2.132  10.433 -3.4583  1.5145 -0.7095
  582MOL0     H80273   5.338   2.262  10.544  1.7026 -1.8765  5.1429
  582MOL0     H80274   5.210   2.287  10.339 -3.1105  2.5373  3.0070
  582MOL0     H80275   5.028   2.440  10.106  1.5029  0.8067  0.3617
  582MOL0     H80276   4.972   2.531  10.233  0.8843  2.3600 -1.3321
  582MOL0     H80277   4.998   2.380  10.281  0.2066  1.0091  1.2051
  582MOL0     H80278   5.232   2.883   9.818 -1.2781 -1.0119 -0.0174
  582MOL0     H80279   5.151   3.091   9.757  0.7886 -1.3341  0.2972
  582MOL0     H80280   5.098   3.338   9.739 -0.6390 -1.2753 -1.2883
  582MOL0     H80281   4.974   3.223   9.744 -0.6641  0.2561 -0.5375
  582MOL0     H80282   4.930   3.471   9.657 -1.0242 -1.3445 -0.4247
  582MOL0     H80283   4.799   3.413   9.747 -0.6155  3.0066 -0.9232
  582MOL0     H80284   5.052   3.563   9.866 -0.0705  1.7262 -1.8283
  582MOL0     H80285   4.922   3.493   9.963  0.4798 -2.1550 -0.0221
  582MOL0     H80286   4.745   3.618   9.816 -0.3533  0.0975 -1.7407
  582MOL0     H80287   4.881   3.698   9.731  1.8291  0.0779  0.5221
  582MOL0     H80288   4.938   3.757  10.006  1.1775  0.5637 -0.6870
  582MOL0     H80289   4.899   3.867   9.886 -0.0783 -0.2113  0.5563
  582MOL0     H80290   4.725   3.689  10.051  0.5153  0.2976  1.1540
  582MOL0     H80291   4.636   3.801   9.941  0.3814 -2.3137 -1.3927
  582MOL0     H80292   4.797   3.985  10.099  3.1103 -0.7601  3.4007
  582MOL0     H80293   4.798   3.844  10.200  0.3133  1.6301  1.2167
  582MOL0     H80294   4.624   4.001  10.269  0.9254  0.7430 -1.3533
  582MOL0     H80295   4.550   3.848  10.209 -2.2880  1.1582 -0.6032
  582MOL0     H80296   5.076   3.201  10.172  2.3591  2.4877 -0.2680
  582MOL0     H80297   5.195   2.981  10.229 -0.3030 -1.9628 -0.2398
  582MOL0     H80298   5.443   2.673  10.146 -2.0351  1.0701  0.1757
  582MOL0     H80299   5.566   2.529  10.274  0.5581 -1.5164 -1.2866
  582MOL0     H80300   6.563   2.507  10.000 -0.5641 -0.8233 -1.2019
  582MOL0     H80301   6.698   2.429   9.817 -0.5506 -0.2615  3.1643
  582MOL0     H80302   7.136   2.717   9.528  1.8362  1.0173  3.8767
  582MOL0     H80303   7.350   2.624   9.487  0.3558 -1.8239 -3.1614
  582MOL0     H80304   7.584   2.347   9.478  0.1227  0.5449  0.2305
  582MOL0     H80305   7.524   2.497   9.439  2.3318  0.8989  0.8878
  582MOL0     H80306   7.650   2.398   9.706 -2.4161 -2.4170  0.1094
  582MOL0     H80307   7.511   2.499   9.725 -1.5214  0.9284 -1.0941
  582MOL0     H80308   7.610   2.683   9.580 -0.3980 -0.2932 -1.3473
  582MOL0     H80309   7.700   2.648   9.727 -3.8570  1.4746  0.1427
  582MOL0     H80310   7.752   2.579   9.432  1.2475  1.7077 -0.4510
  582MOL0     H80311   7.843   2.510   9.576  2.8246  1.5326 -2.8620
  582MOL0     H80312   7.927   2.926   9.570  0.3956 -0.7552  1.9333
  582MOL0     H80313   7.181   2.243   9.527 -3.1668 -0.9980 -1.5679
  582MOL0     H80314   6.960   2.197   9.581  0.4221  0.6846 -0.7804
  582MOL0     H80315   6.860   2.324   9.658  1.1058  0.0877  1.5149
  582MOL0     H80316   6.846   2.273   9.489 -2.1853 -1.9988  2.7128
  583MOL0     O80317  10.350   5.758   9.980 -0.9039 -0.0841 -0.9880
  583MOL0     C80318  10.312   5.655  10.034  0.4150  0.0460  0.7416
  583MOL0     O80319  10.191   5.598  10.031  0.2012  0.4983 -0.0805
  583MOL0     C80320  10.085   5.637   9.953 -1.4577 -0.4917  0.4174
  583MOL0     C80321  10.094   5.696   9.829  0.4311 -0.4533  1.0203
  583MOL0     C80322   9.976   5.724   9.768 -0.1054 -0.1624  0.7744
  583MOL0     C80323   9.849   5.698   9.831 -0.0677  0.2921  0.1572
  583MOL0     O80324   9.732   5.734   9.778 -0.2606 -0.4437 -0.1427
  583MOL0     C80325   9.710   5.706   9.641 -0.4346  0.3094  0.0703
  583MOL0     C80326   9.566   5.684   9.605  0.2870 -0.8819  0.3066
  583MOL0     C80327   9.481   5.813   9.607  0.8259 -0.6315  0.4693
  583MOL0     C80328   9.346   5.798   9.521  0.5141 -0.4528  0.4715
  583MOL0     C80329   9.268   5.930   9.514 -0.1201 -0.5220  0.4460
  583MOL0     C80330   9.145   5.926   9.434 -0.0436  0.4225  0.9568
  583MOL0     C80331   9.078   6.062   9.418 -0.7035 -0.5782  0.6364
  583MOL0     C80332   9.032   6.112   9.558 -0.7637 -0.4898  0.0903
  583MOL0     N80333   8.942   6.223   9.544 -0.1314  0.6540  0.6225
  583MOL0     C80334   8.952   6.329   9.457  0.1259  0.5370  0.3990
  583MOL0     C80335   8.838   6.393   9.465  0.4342  0.9446  0.3451
  583MOL0     C80336   8.791   6.512   9.385  0.3153 -0.1521  0.1590
  583MOL0     C80337   8.848   6.647   9.425 -0.5281 -0.1618  0.3677
  583MOL0     C80338   8.837   6.741   9.307  0.5199 -0.5591  0.9206
  583MOL0     C80339   8.908   6.875   9.324 -0.0616  0.5956  0.4688
  583MOL0     O80340   8.865   6.974   9.222 -0.1552  0.9308 -0.6606
  583MOL0     C80341   8.764   7.057   9.249  1.0232  0.0774  0.6194
  583MOL0     C80342   8.787   7.191   9.290  0.7431 -0.8480  0.4427
  583MOL0     C80343   8.688   7.269   9.333  0.5539  0.6491 -0.2927
  583MOL0     C80344   8.734   7.408   9.371  0.2005 -0.4692  0.4899
  583MOL0     C80345   8.554   7.221   9.332  0.7175 -0.6933  0.4190
  583MOL0     C80346   8.439   7.308   9.372 -0.5263  0.0600 -0.9356
  583MOL0     O80347   8.316   7.271   9.328  0.1527 -0.1849  0.5371
  583MOL0     C80348   8.208   7.333   9.396 -0.2721  0.6934 -0.2823
  583MOL0     C80349   8.098   7.395   9.342  0.4161  0.1509 -0.3185
  583MOL0     C80350   7.982   7.434   9.413 -0.3955  0.8797 -0.5297
  583MOL0     C80351   7.968   7.398   9.542  0.6630  0.1515 -0.7202
  583MOL0     O80352   7.852   7.413   9.623  0.6161  0.5664 -0.0531
  583MOL0     C80353   7.848   7.542   9.676 -0.1561 -0.3680 -0.0518
  583MOL0     C80354   7.735   7.569   9.763  0.2741  0.7340  0.2441
  583MOL0     C80355   7.740   7.524   9.902  0.4489  0.7995 -0.8482
  583MOL0     C80356   7.753   7.367   9.914  1.3475 -0.3202  0.8018
  583MOL0     C80357   7.624   7.296   9.838 -0.2575 -0.7365 -0.4953
  583MOL0     C80358   7.497   7.351   9.898  0.6885 -1.0201  0.3302
  583MOL0     C80359   7.382   7.262   9.859 -0.2340 -0.0201  1.2468
  583MOL0     C80360   7.250   7.309   9.911 -0.6031  0.7501  0.0918
  583MOL0    Cl80361   7.247   7.310  10.098  0.0957  0.4019 -0.5276
  583MOL0     C80362   8.066   7.316   9.607 -0.2119 -0.1951  0.6156
  583MOL0     C80363   8.185   7.280   9.533 -0.3908 -0.7514 -0.3142
  583MOL0     O80364   8.463   7.387   9.460 -0.0522  0.3915  0.4037
  583MOL0     C80365   8.525   7.088   9.298 -0.7357  0.2008  0.3559
  583MOL0     C80366   8.635   7.014   9.244  0.3203  0.5519  0.2284
  583MOL0     N80367   8.753   6.319   9.542 -0.1711  0.3779  0.6621
  583MOL0     N80368   8.808   6.213   9.587  0.4306  0.0790  0.1881
  583MOL0     C80369   9.848   5.642   9.959 -0.1045 -0.6567  0.7486
  583MOL0     C80370   9.966   5.603  10.013  0.5237 -0.6564  0.9799
  583MOL0     C80371  10.409   5.572  10.111 -0.3407 -0.2342  0.1396
  583MOL0     C80372  10.385   5.432  10.125  0.8704  0.1841 -0.7885
  583MOL0     C80373  10.470   5.358  10.195  0.4583  0.6384  0.3373
  583MOL0     C80374  10.588   5.413  10.243  0.2316  0.3788 -0.2458
  583MOL0     O80375  10.676   5.331  10.318 -0.2150 -0.3910 -0.4656
  583MOL0     C80376  10.762   5.390  10.421 -0.0568 -0.9102 -0.3624
  583MOL0     C80377  10.795   5.280  10.520 -0.0388 -0.0076 -0.0997
  583MOL0     C80378  10.859   5.156  10.460  0.0733 -0.3164  0.8024
  583MOL0     C80379  10.972   5.191  10.363  0.9699  0.8975 -0.3217
  583MOL0     C80380  11.087   5.270  10.395 -0.0782 -0.2136 -0.0239
  583MOL0     C80381  11.178   5.341  10.441  0.0979  0.1706 -0.0178
  583MOL0     C80382  10.617   5.543  10.211 -0.0623  0.1139  0.0027
  583MOL0     C80383  10.529   5.632  10.157  0.3038 -0.1852  1.2217
  583MOL0     C80384  10.569   5.779  10.136 -0.2657 -0.6982  0.2715
  583MOL0     H80385  10.190   5.705   9.780  0.1921 -2.8422 -0.0239
  583MOL0     H80386   9.975   5.760   9.666  0.8079  0.5853  1.0135
  583MOL0     H80387   9.764   5.614   9.620 -0.3204  0.8366 -2.1794
  583MOL0     H80388   9.743   5.790   9.579 -2.0816  2.9785  2.5527
  583MOL0     H80389   9.544   5.637   9.509 -2.6041 -1.0349  0.9546
  583MOL0     H80390   9.523   5.618   9.681 -0.1530 -1.6546 -0.5961
  583MOL0     H80391   9.451   5.856   9.703 -2.0706  3.9229 -2.0850
  583MOL0     H80392   9.539   5.892   9.558  3.4412 -1.6488  1.7429
  583MOL0     H80393   9.367   5.763   9.419  1.1102 -1.1436  0.8253
  583MOL0     H80394   9.276   5.728   9.569 -0.2535  2.2457  3.6073
  583MOL0     H80395   9.339   6.007   9.482  1.2426 -1.3093  1.4560
  583MOL0     H80396   9.235   5.959   9.615  0.0043  1.6123 -0.0759
  583MOL0     H80397   9.177   5.889   9.336 -2.3786  2.1654 -0.5801
  583MOL0     H80398   9.078   5.850   9.475  1.7253 -0.6137  2.0420
  583MOL0     H80399   8.989   6.032   9.362 -0.6451  1.8630 -0.9329
  583MOL0     H80400   9.136   6.127   9.352 -1.2770 -4.1133 -3.7290
  583MOL0     H80401   8.984   6.025   9.604 -1.9005  0.3972  0.6296
  583MOL0     H80402   9.109   6.148   9.627  0.3748 -1.9921 -0.3461
  583MOL0     H80403   9.044   6.356   9.406 -0.1874 -0.3997 -0.7146
  583MOL0     H80404   8.682   6.515   9.387  0.1182 -3.1198 -0.6215
  583MOL0     H80405   8.811   6.489   9.280  0.4223 -3.2357  0.7549
  583MOL0     H80406   8.800   6.682   9.517 -1.0938  0.5962 -0.1990
  583MOL0     H80407   8.955   6.646   9.445  0.0897  0.0168 -2.5387
  583MOL0     H80408   8.856   6.696   9.209 -5.5916 -1.0993 -0.4010
  583MOL0     H80409   8.731   6.758   9.290  0.6835  0.7430  1.1347
  583MOL0     H80410   8.889   6.913   9.425  2.3752 -1.4409  1.8156
  583MOL0     H80411   9.017   6.863   9.331 -0.3514 -4.4678  0.1155
  583MOL0     H80412   8.888   7.230   9.286  0.2374  0.6514  1.5128
  583MOL0     H80413   8.677   7.478   9.309 -0.1915 -1.6518 -0.5269
  583MOL0     H80414   8.837   7.432   9.343  0.1562  0.6463  1.2165
  583MOL0     H80415   8.720   7.428   9.478 -0.5336  0.3572  0.2533
  583MOL0     H80416   8.090   7.426   9.238  0.0187 -1.1847 -0.6959
  583MOL0     H80417   7.909   7.485   9.351  1.0499  1.9995 -1.3665
  583MOL0     H80418   7.942   7.557   9.730 -0.9647 -0.0614  1.3264
  583MOL0     H80419   7.845   7.601   9.585 -1.5425  1.1421  0.9255
  583MOL0     H80420   7.716   7.676   9.769  1.6510  0.9693  0.8102
  583MOL0     H80421   7.641   7.543   9.713 -0.2330  0.0907  1.4939
  583MOL0     H80422   7.653   7.556   9.959  0.5888 -0.9086  0.4084
  583MOL0     H80423   7.814   7.580   9.960 -1.9351 -0.5634  4.0925
  583MOL0     H80424   7.750   7.325  10.016 -0.0690 -2.8087 -0.1573
  583MOL0     H80425   7.844   7.344   9.859  0.1834  0.0617 -1.3884
  583MOL0     H80426   7.631   7.323   9.733 -0.9311  3.7330  0.4229
  583MOL0     H80427   7.626   7.187   9.850  0.5011 -0.7350 -0.5777
  583MOL0     H80428   7.469   7.453   9.871 -4.9519 -2.1626  0.5898
  583MOL0     H80429   7.504   7.344  10.007  0.2652 -6.0507  0.2790
  583MOL0     H80430   7.394   7.168   9.912 -0.4270 -0.8554 -0.1421
  583MOL0     H80431   7.394   7.226   9.756  0.8616  0.7024  1.0963
  583MOL0     H80432   7.167   7.243   9.885  1.8204 -3.1629  1.3583
  583MOL0     H80433   7.227   7.407   9.868 -2.4812 -0.3655 -1.6493
  583MOL0     H80434   8.058   7.296   9.713  1.1416  2.7836  1.3844
  583MOL0     H80435   8.259   7.209   9.568  2.4926  2.4734  0.7180
  583MOL0     H80436   8.427   7.045   9.285 -1.5658  2.5767 -1.9134
  583MOL0     H80437   8.613   6.908   9.229  1.8586 -0.1828  2.6284
  583MOL0     H80438   9.753   5.627  10.009 -0.6200 -0.4684 -0.1406
  583MOL0     H80439   9.961   5.550  10.107  2.0854 -1.4787  0.6289
  583MOL0     H80440  10.289   5.396  10.089 -0.2876 -0.6045  2.7207
  583MOL0     H80441  10.455   5.253  10.215 -0.3594  0.5136 -0.8150
  583MOL0     H80442  10.849   5.431  10.370 -1.2258  2.8879  0.3596
  583MOL0     H80443  10.713   5.470  10.479  1.2794  0.4921 -1.1025
  583MOL0     H80444  10.700   5.252  10.566  0.3527  0.2646  0.9007
  583MOL0     H80445  10.857   5.319  10.602 -0.8286  3.4150 -0.9605
  583MOL0     H80446  10.892   5.098  10.546 -1.9279 -1.9174  0.5512
  583MOL0     H80447  10.779   5.099  10.411 -0.0484 -2.4817  3.3272
  583MOL0     H80448  10.949   5.217  10.259  4.3273 -2.4572 -2.1618
  583MOL0     H80449  11.014   5.090  10.356  2.0115  0.9318  3.4455
  583MOL0     H80450  11.249   5.408  10.486  1.9679 -3.8068  3.8226
  583MOL0     H80451  10.706   5.581  10.260 -1.4319 -1.3521  4.0199
  583MOL0     H80452  10.486   5.840  10.174 -1.5800  0.4348 -3.9392
  583MOL0     H80453  10.664   5.810  10.181 -2.4897  2.5736  3.3078
  583MOL0     H80454  10.583   5.806  10.031 -0.3248  0.0323  0.4412
  584MOL0     O80455   2.956   5.291   0.566 -0.4632  0.1859  0.5436
  584MOL0     C80456   2.988   5.226   0.466  0.3065 -0.8317 -0.7878
  584MOL0     O80457   3.112   5.221   0.412  0.1754 -0.8101  0.0704
  584MOL0     C80458   3.220   5.237   0.493  0.0653  0.1094 -0.0051
  584MOL0     C80459   3.267   5.356   0.536 -0.6239 -0.4568 -0.2921
  584MOL0     C80460   3.380   5.372   0.608 -0.5462  0.5972 -0.2397
  584MOL0     C80461   3.460   5.264   0.636 -0.5872  0.0746 -0.1216
  584MOL0     O80462   3.579   5.269   0.703  0.5787  0.4841  0.6159
  584MOL0     C80463   3.631   5.394   0.749  0.5494  0.0552 -0.1561
  584MOL0     C80464   3.781   5.380   0.773 -0.5879 -0.6587 -0.7646
  584MOL0     C80465   3.843   5.516   0.836  0.2952 -0.5575  0.9370
  584MOL0     C80466   3.981   5.482   0.890 -0.2699  1.3169 -1.0033
  584MOL0     C80467   4.039   5.599   0.959  0.0105 -0.3844 -0.4570
  584MOL0     C80468   4.110   5.699   0.859 -0.1022  0.2102  0.3757
  584MOL0     C80469   4.039   5.821   0.813  1.1176  0.0393  0.1499
  584MOL0     C80470   4.115   5.888   0.691  0.0749  0.1998  0.1984
  584MOL0     N80471   4.057   6.013   0.652  0.5091 -1.0851 -0.2602
  584MOL0     C80472   3.946   6.021   0.573 -0.4180  0.7901 -0.5614
  584MOL0     C80473   3.937   6.159   0.565  0.0945  0.7325 -0.0355
  584MOL0     C80474   3.826   6.237   0.505 -0.2871 -1.1013  0.1376
  584MOL0     C80475   3.879   6.354   0.427  0.4850 -0.9093  0.2976
  584MOL0     C80476   3.765   6.419   0.349 -0.2177 -0.2108 -0.2393
  584MOL0     C80477   3.817   6.555   0.302 -0.9595  1.2428 -0.1310
  584MOL0     O80478   3.922   6.553   0.203 -0.7939  0.2127 -0.3430
  584MOL0     C80479   3.898   6.583   0.074 -0.4980 -0.4735 -0.2421
  584MOL0     C80480   3.809   6.516  -0.005 -0.7595  0.3880 -0.8735
  584MOL0     C80481   3.790   6.537  -0.142  0.4057 -0.0061  0.0657
  584MOL0     C80482   3.702   6.446  -0.228 -0.7098  0.0629  0.0608
  584MOL0     C80483   3.859   6.655  -0.197 -0.8139  1.6306  0.0504
  584MOL0     C80484   3.841   6.719  -0.338 -0.0983  0.5045 -0.1270
  584MOL0     O80485   3.934   6.817  -0.370 -0.2657  0.5316  0.1614
  584MOL0     C80486   3.936   6.894  -0.484 -1.1090 -0.8279  1.1229
  584MOL0     C80487   3.862   6.881  -0.603  0.2040  0.2000  0.8251
  584MOL0     C80488   3.863   6.986  -0.695 -0.7236 -0.1437  1.1610
  584MOL0     C80489   3.952   7.088  -0.690 -0.3084 -0.6228 -0.9976
  584MOL0     O80490   3.945   7.181  -0.788 -0.2905  0.4139 -0.6193
  584MOL0     C80491   3.819   7.255  -0.765  0.2748  0.5795 -0.0594
  584MOL0     C80492   3.832   7.375  -0.864 -0.9630 -0.4497 -0.2527
  584MOL0     C80493   3.727   7.499  -0.859 -0.9752  0.3728  0.4792
  584MOL0     C80494   3.688   7.541  -1.002 -0.5787  0.7051  0.5081
  584MOL0     C80495   3.581   7.641  -0.985  0.4434 -0.0894 -0.4733
  584MOL0     C80496   3.522   7.709  -1.107  0.1635 -0.3704 -0.1106
  584MOL0     C80497   3.572   7.652  -1.241 -0.9507  1.0354  0.8378
  584MOL0     C80498   3.515   7.724  -1.363  0.1659  0.4764  0.5340
  584MOL0    Cl80499   3.571   7.903  -1.353 -0.8816  0.2018  0.1716
  584MOL0     C80500   4.043   7.098  -0.580  0.5484  0.6438  1.1163
  584MOL0     C80501   4.036   7.002  -0.477  0.3407  0.5302 -0.4495
  584MOL0     O80502   3.748   6.687  -0.409  0.7595  0.7798  0.5983
  584MOL0     C80503   3.953   6.716  -0.116  0.2210 -0.6410 -0.9480
  584MOL0     C80504   3.971   6.685   0.020 -0.5895 -0.1544  0.9480
  584MOL0     N80505   4.042   6.220   0.638 -0.0237  0.1564  0.2137
  584MOL0     N80506   4.109   6.136   0.691 -0.9800  0.4744  0.3206
  584MOL0     C80507   3.422   5.143   0.583  0.9612  0.2981 -0.7364
  584MOL0     C80508   3.301   5.121   0.512 -0.3790 -0.3287  0.1005
  584MOL0     C80509   2.888   5.142   0.411 -0.1896  0.5095 -0.5229
  584MOL0     C80510   2.913   5.001   0.417  0.8491 -0.2785 -0.9631
  584MOL0     C80511   2.809   4.914   0.377  0.3791  0.6358  0.5464
  584MOL0     C80512   2.692   4.956   0.317 -1.0619 -0.3377  0.5092
  584MOL0     O80513   2.592   4.876   0.271  0.4031  0.1593 -0.1979
  584MOL0     C80514   2.586   4.740   0.316 -0.2708  0.9492  0.6724
  584MOL0     C80515   2.444   4.685   0.288 -0.3056  0.3740  0.2772
  584MOL0     C80516   2.434   4.548   0.347 -0.2044  0.2669 -0.0162
  584MOL0     C80517   2.525   4.436   0.291  0.5351 -0.2436  0.4052
  584MOL0     C80518   2.554   4.435   0.147 -0.6259  0.0161  1.1534
  584MOL0     C80519   2.558   4.430   0.020  0.0399 -0.2098 -0.3983
  584MOL0     C80520   2.670   5.093   0.309 -0.0881 -0.3721  0.1218
  584MOL0     C80521   2.762   5.191   0.365 -0.7444  1.0747 -0.1860
  584MOL0     C80522   2.736   5.335   0.344  0.0349 -0.8860  0.6418
  584MOL0     H80523   3.209   5.448   0.526  1.4206  1.0753  1.2095
  584MOL0     H80524   3.399   5.472   0.646 -0.7883  0.4878  0.1794
  584MOL0     H80525   3.571   5.430   0.834 -2.0962 -0.7589 -1.5633
  584MOL0     H80526   3.621   5.470   0.671  4.9322 -0.3460 -1.3455
  584MOL0     H80527   3.816   5.290   0.824  0.3896 -0.1091 -0.4371
  584MOL0     H80528   3.815   5.362   0.671 -1.1534  0.3110 -1.1428
  584MOL0     H80529   3.853   5.592   0.758 -0.5567 -0.5809  0.7931
  584MOL0     H80530   3.790   5.540   0.929  0.9537  2.3196  0.6432
  584MOL0     H80531   3.979   5.396   0.958  1.8417  2.3816  0.5333
  584MOL0     H80532   4.049   5.443   0.814  1.1325  1.3715  0.1740
  584MOL0     H80533   4.113   5.566   1.033 -1.7263 -1.1533  0.9966
  584MOL0     H80534   3.962   5.652   1.015 -2.9721 -1.1812 -3.5122
  584MOL0     H80535   4.203   5.732   0.906  1.5826 -2.3649 -0.9364
  584MOL0     H80536   4.146   5.643   0.772  3.4951  1.3198  1.0090
  584MOL0     H80537   4.038   5.873   0.909  0.9689 -1.6067  1.0760
  584MOL0     H80538   3.933   5.810   0.793  0.6611 -1.3049  2.8875
  584MOL0     H80539   4.215   5.900   0.734 -1.3999  1.7555  3.6256
  584MOL0     H80540   4.122   5.820   0.606 -0.6495  2.4894 -1.8238
  584MOL0     H80541   3.865   5.955   0.546 -2.2058  2.2752  0.8636
  584MOL0     H80542   3.760   6.280   0.581  2.6253 -0.6262  2.6062
  584MOL0     H80543   3.778   6.171   0.432  0.3709  1.8343 -3.1662
  584MOL0     H80544   3.944   6.425   0.479  0.0060  0.5561 -1.0028
  584MOL0     H80545   3.951   6.312   0.356  0.7754  2.4028 -1.5832
  584MOL0     H80546   3.728   6.353   0.270 -0.2276  1.2664 -1.5097
  584MOL0     H80547   3.679   6.430   0.416  1.1793  0.0742  1.5989
  584MOL0     H80548   3.737   6.615   0.259 -2.0927  1.6040  2.3319
  584MOL0     H80549   3.862   6.617   0.380  0.3909  1.4997 -1.0690
  584MOL0     H80550   3.747   6.434   0.032 -0.6680  0.2783 -0.9621
  584MOL0     H80551   3.763   6.413  -0.313  2.4479  3.0659  0.9103
  584MOL0     H80552   3.610   6.484  -0.273  0.3857 -1.6204 -4.0279
  584MOL0     H80553   3.679   6.362  -0.162 -0.5287  0.0992  0.1733
  584MOL0     H80554   3.799   6.793  -0.616 -2.9036  1.9818  2.7591
  584MOL0     H80555   3.797   6.993  -0.781  0.0582  5.6517  0.5981
  584MOL0     H80556   3.722   7.208  -0.782 -0.5019  1.1920  2.2748
  584MOL0     H80557   3.813   7.287  -0.660  0.3231 -2.4919  0.9751
  584MOL0     H80558   3.929   7.419  -0.839 -1.1631 -1.1636  2.0033
  584MOL0     H80559   3.840   7.332  -0.964  3.0037 -3.7878  1.2287
  584MOL0     H80560   3.775   7.579  -0.802 -1.1926 -0.2019  1.4967
  584MOL0     H80561   3.637   7.478  -0.802 -0.2344 -4.2593  0.3598
  584MOL0     H80562   3.644   7.458  -1.057  3.6223 -1.0765 -0.6181
  584MOL0     H80563   3.771   7.589  -1.056 -3.1564  3.0047 -1.6832
  584MOL0     H80564   3.502   7.598  -0.923  2.1870  0.7121  2.5088
  584MOL0     H80565   3.616   7.729  -0.931 -1.0767 -1.1847  2.5209
  584MOL0     H80566   3.549   7.815  -1.103  3.8010 -1.1980  2.0766
  584MOL0     H80567   3.415   7.691  -1.115  0.2352 -0.1441 -2.1939
  584MOL0     H80568   3.557   7.544  -1.246  1.4286  0.7045 -1.4402
  584MOL0     H80569   3.681   7.659  -1.244 -0.9337  1.4685  1.9806
  584MOL0     H80570   3.405   7.724  -1.363  0.0586  1.2677  4.1293
  584MOL0     H80571   3.544   7.685  -1.461 -0.5587  3.4069 -0.9943
  584MOL0     H80572   4.110   7.182  -0.563 -0.1541  0.8162  3.4918
  584MOL0     H80573   4.092   7.013  -0.385 -4.4213 -0.4000  2.9887
  584MOL0     H80574   4.023   6.793  -0.148 -0.4062  0.5289  0.3756
  584MOL0     H80575   4.044   6.753   0.061 -0.1229 -1.1104  1.7430
  584MOL0     H80576   3.492   5.066   0.614  1.6816  0.2718 -2.3569
  584MOL0     H80577   3.289   5.019   0.475 -0.3815 -0.1718 -0.3364
  584MOL0     H80578   3.007   4.958   0.451  1.0410 -0.1241 -1.2996
  584MOL0     H80579   2.824   4.807   0.384  1.4138  0.5470 -1.9384
  584MOL0     H80580   2.659   4.662   0.290 -3.6753 -2.1506 -0.4394
  584MOL0     H80581   2.579   4.744   0.425  0.4792 -0.2716  0.7901
  584MOL0     H80582   2.435   4.673   0.179  1.5685 -0.0506  0.1222
  584MOL0     H80583   2.371   4.757   0.324  0.5818  1.7510 -0.5373
  584MOL0     H80584   2.452   4.566   0.454 -0.0203 -1.1932  0.2181
  584MOL0     H80585   2.327   4.528   0.339 -0.6585  2.3151  0.3819
  584MOL0     H80586   2.489   4.335   0.313 -1.3451  0.8470  2.9227
  584MOL0     H80587   2.616   4.444   0.352  0.1261  0.8851  0.9005
  584MOL0     H80588   2.554   4.431  -0.087  2.4158 -1.0720 -0.5519
  584MOL0     H80589   2.584   5.139   0.262  0.3188 -0.8346 -1.1378
  584MOL0     H80590   2.826   5.382   0.302 -1.7003 -0.6722 -3.2584
  584MOL0     H80591   2.674   5.339   0.254  2.1299  2.4618 -0.8770
  584MOL0     H80592   2.692   5.393   0.425 -0.1561  1.7378 -1.1950
  585MOL0     O80593  10.395   9.865   3.960 -0.7057  0.1967  0.3713
  585MOL0     C80594  10.299   9.791   3.948 -0.1925 -0.0308  0.1542
  585MOL0     O80595  10.270   9.690   4.037  1.0097  0.0285  0.5828
  585MOL0     C80596  10.348   9.636   4.131  0.2868  0.4874 -0.2001
  585MOL0     C80597  10.492   9.625   4.117  0.1235 -0.1924 -0.0204
  585MOL0     C80598  10.574   9.577   4.228  0.3204 -0.0823 -0.6661
  585MOL0     C80599  10.504   9.547   4.356 -0.2779 -0.7706  0.6295
  585MOL0     O80600  10.577   9.523   4.469 -0.4751 -0.1632  0.4315
  585MOL0     C80601  10.591   9.385   4.509 -0.3805 -1.2284  0.1793
  585MOL0     C80602  10.633   9.402   4.652  0.0389  0.7307  0.4144
  585MOL0     C80603  10.675   9.278   4.714  0.0336  0.8225  0.1254
  585MOL0     C80604  10.740   9.315   4.852 -0.0912 -0.1796 -0.8804
  585MOL0     C80605  10.803   9.188   4.925  0.7539 -0.4582 -0.1694
  585MOL0     C80606  10.702   9.102   5.008 -1.6015  0.1382  0.0121
  585MOL0     C80607  10.762   9.001   5.100 -0.8142  0.4103 -0.0349
  585MOL0     C80608  10.648   8.950   5.198  0.1356 -0.6162 -0.0937
  585MOL0     N80609  10.710   8.851   5.288 -0.2799 -0.0601  0.2421
  585MOL0     C80610  10.710   8.717   5.275  0.6501  0.1276  0.1370
  585MOL0     C80611  10.805   8.671   5.359  0.6820  0.5299  0.4504
  585MOL0     C80612  10.857   8.526   5.381  1.8433  0.6632  0.0517
  585MOL0     C80613  10.992   8.501   5.443 -0.2789  0.3287  0.5244
  585MOL0     C80614  11.036   8.350   5.430 -0.8765  0.4396  0.0992
  585MOL0     C80615  11.126   8.320   5.542 -0.2502  0.3866 -0.2214
  585MOL0     O80616  11.161   8.180   5.528  0.2134  0.0380  0.1507
  585MOL0     C80617  11.256   8.143   5.614 -0.0656  0.2598  0.1883
  585MOL0     C80618  11.250   8.151   5.747  0.0612 -0.0474  0.4402
  585MOL0     C80619  11.360   8.112   5.832  0.0783  0.0829  0.6935
  585MOL0     C80620  11.325   8.124   5.983  0.5702  0.8053  0.7127
  585MOL0     C80621  11.482   8.065   5.777  0.4016 -0.0589  0.4678
  585MOL0     C80622  11.593   8.001   5.856 -0.0157 -0.7938 -0.3570
  585MOL0     O80623  11.688   7.921   5.790  0.0411 -0.4603 -0.1549
  585MOL0     C80624  11.776   7.840   5.864  0.3385 -0.0910  0.4540
  585MOL0     C80625  11.907   7.835   5.826  0.2648 -0.9338  0.5173
  585MOL0     C80626  11.989   7.746   5.899 -0.2194  0.2854  0.2172
  585MOL0     C80627  11.949   7.665   6.001 -0.3571  0.6799  0.3937
  585MOL0     O80628  12.050   7.579   6.062  0.3420 -0.3296  0.4053
  585MOL0     C80629  12.021   7.534   6.194  0.2863  0.2137 -0.3850
  585MOL0     C80630  12.136   7.456   6.259  0.4982  1.4234  0.4823
  585MOL0     C80631  12.259   7.545   6.298 -0.4720 -0.2569 -0.5626
  585MOL0     C80632  12.360   7.473   6.386  0.4346 -0.4414  0.2519
  585MOL0     C80633  12.493   7.545   6.397  0.0709  0.4976  0.1545
  585MOL0     C80634  12.498   7.667   6.488  0.1730  0.6821  0.5189
  585MOL0     C80635  12.631   7.719   6.542 -0.2682 -0.1618 -0.1262
  585MOL0     C80636  12.685   7.844   6.476  0.3639 -1.5553  0.8881
  585MOL0    Cl80637  12.660   7.859   6.303 -0.1482 -0.0296 -0.0729
  585MOL0     C80638  11.811   7.674   6.036  0.2429 -0.5941 -0.2014
  585MOL0     C80639  11.728   7.765   5.972 -0.4195  0.1170  0.5929
  585MOL0     O80640  11.593   8.026   5.980  0.7235  0.5726 -0.9084
  585MOL0     C80641  11.480   8.055   5.632 -1.1295 -0.6688  0.1109
  585MOL0     C80642  11.371   8.081   5.555  0.5171 -0.5128 -0.8464
  585MOL0     N80643  10.848   8.781   5.428 -0.0270  0.1240 -0.3353
  585MOL0     N80644  10.798   8.888   5.382 -0.4669  0.5860 -0.2555
  585MOL0     C80645  10.362   9.558   4.354 -1.1397  0.0644 -0.0312
  585MOL0     C80646  10.284   9.599   4.248  0.6561  0.5042 -0.1690
  585MOL0     C80647  10.208   9.817   3.828 -0.0991 -0.2314  1.0393
  585MOL0     C80648  10.096   9.735   3.817  0.0474  0.3827 -0.5039
  585MOL0     C80649  10.004   9.742   3.720 -0.4817  0.3901  0.2882
  585MOL0     C80650  10.008   9.848   3.630 -0.1027 -0.5289 -0.7262
  585MOL0     O80651   9.901   9.857   3.537 -0.2553 -0.7950 -0.3272
  585MOL0     C80652   9.899   9.975   3.452 -1.2100 -0.1695  0.1171
  585MOL0     C80653   9.768  10.013   3.391 -0.8604 -0.7176 -0.7412
  585MOL0     C80654   9.691   9.890   3.355 -1.2117  0.6160  0.2273
  585MOL0     C80655   9.567   9.927   3.271 -1.0261 -0.3604  0.3632
  585MOL0     C80656   9.590   9.977   3.137 -0.4933 -0.0516  0.1610
  585MOL0     C80657   9.629  10.017   3.026 -0.4842  0.7076  0.0561
  585MOL0     C80658  10.111   9.942   3.639 -0.6026 -0.2686 -0.5827
  585MOL0     C80659  10.214   9.922   3.733 -0.0416 -0.3411 -0.0864
  585MOL0     C80660  10.317  10.023   3.729 -0.4434  0.8792 -0.5232
  585MOL0     H80661  10.546   9.649   4.026  0.3107 -2.1828 -0.4646
  585MOL0     H80662  10.682   9.571   4.227  0.2606 -2.3170  0.0200
  585MOL0     H80663  10.663   9.325   4.452 -0.3234  0.3180 -1.4531
  585MOL0     H80664  10.498   9.328   4.517 -2.3178  1.8711  1.5847
  585MOL0     H80665  10.726   9.459   4.653  3.3458 -3.9697 -1.4091
  585MOL0     H80666  10.556   9.436   4.721  1.4788  0.1726  2.3921
  585MOL0     H80667  10.590   9.211   4.730  0.7353 -0.3538 -0.9255
  585MOL0     H80668  10.738   9.218   4.648  0.4743  0.4492  0.8604
  585MOL0     H80669  10.809   9.398   4.841  0.2039 -0.3474 -0.3153
  585MOL0     H80670  10.657   9.344   4.917  2.0326  2.1085  0.9939
  585MOL0     H80671  10.882   9.221   4.993  1.4342 -3.1478  0.4427
  585MOL0     H80672  10.840   9.123   4.846 -1.7375 -1.4472 -0.6314
  585MOL0     H80673  10.649   9.190   5.046  1.0522  3.2376 -2.7662
  585MOL0     H80674  10.634   9.052   4.939 -2.4570  1.7443 -0.3507
  585MOL0     H80675  10.855   9.036   5.145 -0.9912 -0.9222  1.4429
  585MOL0     H80676  10.799   8.924   5.032  3.9180  3.0454 -0.8598
  585MOL0     H80677  10.604   9.027   5.262  2.1997  2.2762 -1.9380
  585MOL0     H80678  10.568   8.904   5.139  0.0781  0.9774 -1.2976
  585MOL0     H80679  10.652   8.671   5.195  1.2007  2.8223 -1.9903
  585MOL0     H80680  10.855   8.474   5.285  2.2069 -1.0508  0.9428
  585MOL0     H80681  10.785   8.485   5.452 -0.6451  3.1032 -0.8952
  585MOL0     H80682  11.066   8.571   5.404  3.0651 -2.5083  1.2527
  585MOL0     H80683  10.980   8.527   5.549 -1.6248  0.4521  0.3662
  585MOL0     H80684  10.953   8.280   5.435  0.7924 -1.7577 -1.0812
  585MOL0     H80685  11.079   8.327   5.332  1.2023 -0.7846  1.2286
  585MOL0     H80686  11.214   8.385   5.544 -0.3799  0.5691  1.9763
  585MOL0     H80687  11.067   8.333   5.633 -1.4071 -2.4939 -0.4266
  585MOL0     H80688  11.167   8.207   5.790  1.4926  0.1351  3.2337
  585MOL0     H80689  11.397   8.202   6.009 -1.3844  3.9865 -2.4907
  585MOL0     H80690  11.326   8.029   6.038 -0.7908  0.3242 -0.0346
  585MOL0     H80691  11.225   8.166   5.996 -0.1654 -0.6525  0.0304
  585MOL0     H80692  11.935   7.904   5.747 -1.2248 -0.4049  0.4269
  585MOL0     H80693  12.096   7.739   5.882 -0.1984 -0.1467  0.5161
  585MOL0     H80694  12.019   7.628   6.250  0.5737 -0.1295  0.2211
  585MOL0     H80695  11.928   7.476   6.197  1.0644 -1.0571  0.4562
  585MOL0     H80696  12.100   7.421   6.356  0.7747  1.5681  0.6352
  585MOL0     H80697  12.149   7.367   6.196 -3.0416  0.5817  0.7195
  585MOL0     H80698  12.216   7.639   6.333 -2.8595 -1.2652 -0.5744
  585MOL0     H80699  12.312   7.580   6.209  1.7332  1.5639  1.3289
  585MOL0     H80700  12.379   7.371   6.350  0.4666 -0.7311  1.0487
  585MOL0     H80701  12.313   7.480   6.485 -0.0379 -0.2597  0.0154
  585MOL0     H80702  12.562   7.475   6.446  1.0459  0.3055 -1.4159
  585MOL0     H80703  12.540   7.571   6.302  2.2523  0.2609  1.1171
  585MOL0     H80704  12.438   7.641   6.576 -0.4689 -0.8281 -0.3213
  585MOL0     H80705  12.451   7.752   6.435  1.6983  2.2828  1.6453
  585MOL0     H80706  12.710   7.643   6.545  4.3132  4.1315  1.7758
  585MOL0     H80707  12.621   7.752   6.646 -2.2005  0.7136 -0.5458
  585MOL0     H80708  12.783   7.877   6.509  0.4103  0.8261 -1.3042
  585MOL0     H80709  12.617   7.920   6.516  0.5250 -1.4198  0.9010
  585MOL0     H80710  11.774   7.615   6.119  1.8082 -1.3875 -0.0421
  585MOL0     H80711  11.623   7.772   5.999 -0.5229  1.5146 -0.1076
  585MOL0     H80712  11.570   8.013   5.589 -1.0724 -1.5963  1.0861
  585MOL0     H80713  11.370   8.068   5.448 -3.1637  1.7506 -1.2658
  585MOL0     H80714  10.306   9.539   4.445 -1.8058 -1.2350 -0.6967
  585MOL0     H80715  10.176   9.601   4.240  0.6380 -1.4162 -0.7193
  585MOL0     H80716  10.076   9.658   3.891 -0.0707 -0.6836 -1.6174
  585MOL0     H80717   9.920   9.673   3.720 -1.3755  1.4538  0.3945
  585MOL0     H80718   9.923  10.065   3.510 -3.5029 -0.0332  0.9767
  585MOL0     H80719   9.977   9.953   3.379 -1.6059 -1.8687  0.1638
  585MOL0     H80720   9.774  10.088   3.311 -0.4226 -1.8837 -1.8266
  585MOL0     H80721   9.713  10.055   3.476  0.0607  4.1706 -2.2071
  585MOL0     H80722   9.758   9.833   3.291 -3.2912  0.5477 -2.0481
  585MOL0     H80723   9.661   9.834   3.444  0.2071  2.4854  1.9818
  585MOL0     H80724   9.512  10.005   3.325 -0.5163 -0.2733  0.7607
  585MOL0     H80725   9.504   9.838   3.260 -0.5998 -0.3320 -3.8801
  585MOL0     H80726   9.664  10.036   2.927  2.8284 -4.0418 -0.0048
  585MOL0     H80727  10.102  10.018   3.562  0.7119  1.5801  0.9939
  585MOL0     H80728  10.288  10.108   3.791  0.5359 -0.0386  1.2771
  585MOL0     H80729  10.410   9.976   3.763 -1.9007 -0.4019  2.0629
  585MOL0     H80730  10.327  10.050   3.624 -1.3678 -1.4025 -1.2675
  586MOL0     O80731   2.761   7.159  10.693 -0.0975 -0.3550  0.5178
  586MOL0     C80732   2.643   7.185  10.670  0.1392  0.2054  0.6469
  586MOL0     O80733   2.594   7.295  10.603  0.2152  0.0308  0.0113
  586MOL0     C80734   2.672   7.342  10.499  0.9641 -0.4434  0.2220
  586MOL0     C80735   2.709   7.478  10.503  0.0421  1.3735  0.5614
  586MOL0     C80736   2.786   7.536  10.400  0.0662  0.3043  0.0528
  586MOL0     C80737   2.822   7.461  10.284  0.1517  0.8680 -0.0129
  586MOL0     O80738   2.888   7.523  10.184  0.0931  0.0089 -0.5713
  586MOL0     C80739   2.941   7.467  10.061 -0.0370  0.1231 -1.5124
  586MOL0     C80740   3.045   7.555   9.985 -0.0036 -0.8381 -1.5212
  586MOL0     C80741   3.004   7.709   9.990 -0.4754  0.0872 -0.1695
  586MOL0     C80742   2.870   7.727   9.921  0.0466  0.3625 -0.9526
  586MOL0     C80743   2.832   7.881   9.909 -0.5940  1.0119 -0.1009
  586MOL0     C80744   2.687   7.928   9.864 -0.2667  1.2601 -0.6008
  586MOL0     C80745   2.577   7.860   9.958 -0.5490 -0.2373 -0.5511
  586MOL0     C80746   2.602   7.865  10.116 -0.2254  1.1010  1.0754
  586MOL0     N80747   2.508   7.771  10.185 -0.5898 -0.7771  0.3979
  586MOL0     C80748   2.518   7.632  10.204 -0.1922 -0.4207  0.0891
  586MOL0     C80749   2.431   7.604  10.291  0.2298  0.7815 -1.4691
  586MOL0     C80750   2.389   7.462  10.330  1.1464  0.0260  0.0038
  586MOL0     C80751   2.325   7.440  10.466 -0.1096 -0.0929 -0.9598
  586MOL0     C80752   2.170   7.465  10.467 -0.1057 -0.7466 -0.1898
  586MOL0     C80753   2.119   7.442  10.613  0.0075  0.6296  0.5366
  586MOL0     O80754   1.982   7.475  10.599 -0.8645 -0.0120 -0.4359
  586MOL0     C80755   1.898   7.483  10.713  0.1830  0.6275  0.4622
  586MOL0     C80756   1.766   7.478  10.666 -0.2313  0.1743  0.2829
  586MOL0     C80757   1.667   7.476  10.776  0.1865 -0.3166 -0.0494
  586MOL0     C80758   1.525   7.481  10.746  0.8373 -0.8141  0.4219
  586MOL0     C80759   1.701   7.486  10.912  0.1443 -0.3518  0.0549
  586MOL0     C80760   1.612   7.480  11.025  0.2741 -0.3672 -0.5946
  586MOL0     O80761   1.626   7.570  11.130  0.2729  0.1624 -0.5354
  586MOL0     C80762   1.535   7.568  11.233 -0.9087 -0.2313  0.2913
  586MOL0     C80763   1.557   7.483  11.338 -0.4203  0.8012 -0.1245
  586MOL0     C80764   1.478   7.480  11.451  1.0659 -0.2027  0.3009
  586MOL0     C80765   1.356   7.551  11.451 -0.1661  1.0909 -1.0431
  586MOL0     O80766   1.253   7.528  11.534  0.3735  0.4389 -0.0475
  586MOL0     C80767   1.163   7.429  11.475  0.3591 -0.2296 -0.9121
  586MOL0     C80768   1.012   7.471  11.502  0.2019  0.4575 -0.4348
  586MOL0     C80769   0.992   7.594  11.606 -0.7638 -0.1510 -0.1380
  586MOL0     C80770   1.000   7.537  11.752 -0.4501 -0.1020  0.1583
  586MOL0     C80771   0.931   7.640  11.841  0.9326 -0.0004  0.4830
  586MOL0     C80772   0.894   7.567  11.983 -0.6487  0.4519 -0.2589
  586MOL0     C80773   1.013   7.550  12.079  0.2485 -0.1163  0.1562
  586MOL0     C80774   1.096   7.424  12.052 -0.5319 -0.6613 -1.0067
  586MOL0    Cl80775   0.994   7.296  12.102  0.3608 -0.5385 -0.3944
  586MOL0     C80776   1.327   7.641  11.348 -0.5995  0.1143  0.0197
  586MOL0     C80777   1.409   7.636  11.239  0.3571  0.2164  0.5737
  586MOL0     O80778   1.523   7.398  11.016  0.0470 -0.2715 -1.1502
  586MOL0     C80779   1.837   7.503  10.945  0.6502 -0.0114  0.0949
  586MOL0     C80780   1.935   7.497  10.846  0.9316  1.0161  0.3988
  586MOL0     N80781   2.375   7.717  10.344  0.7486 -0.2148 -0.0930
  586MOL0     N80782   2.409   7.812  10.268  0.9138  0.7088 -0.0925
  586MOL0     C80783   2.782   7.329  10.277  0.9961 -0.3782 -0.7890
  586MOL0     C80784   2.713   7.270  10.389 -0.2443  1.0665 -0.2213
  586MOL0     C80785   2.543   7.105  10.745 -0.0462  0.0885 -0.1980
  586MOL0     C80786   2.428   7.171  10.785 -0.4175 -0.4261  0.1144
  586MOL0     C80787   2.331   7.099  10.859 -0.0867 -0.5661 -0.6618
  586MOL0     C80788   2.346   6.964  10.892 -0.5318  0.5629  0.4152
  586MOL0     O80789   2.240   6.900  10.954 -0.7070 -0.2575  0.2591
  586MOL0     C80790   2.198   6.949  11.079 -0.0039 -0.6299 -0.0808
  586MOL0     C80791   2.148   6.823  11.135 -0.3563 -0.1354 -0.8227
  586MOL0     C80792   2.067   6.846  11.261  0.9076  0.4128 -0.0882
  586MOL0     C80793   1.943   6.758  11.278  0.0514  0.7271 -0.1242
  586MOL0     C80794   1.909   6.755  11.419 -0.6690  0.1922 -0.2914
  586MOL0     C80795   1.893   6.737  11.542 -0.6751 -0.8897 -0.9934
  586MOL0     C80796   2.465   6.900  10.858  0.0281  0.1464 -0.5138
  586MOL0     C80797   2.561   6.967  10.781  0.4016 -0.2859  0.2624
  586MOL0     C80798   2.678   6.886  10.729 -0.3026 -0.9375 -0.5975
  586MOL0     H80799   2.674   7.540  10.585  1.0634 -0.1591  2.2135
  586MOL0     H80800   2.836   7.630  10.419 -0.6991  0.7675 -0.1627
  586MOL0     H80801   2.858   7.461   9.990 -1.0363  3.4746 -0.8182
  586MOL0     H80802   2.985   7.368  10.072 -1.1206 -0.2117  0.1606
  586MOL0     H80803   3.146   7.539  10.024  0.6262  3.8727 -0.6343
  586MOL0     H80804   3.041   7.527   9.879  0.4990  0.8268 -2.0166
  586MOL0     H80805   3.006   7.736  10.096  2.1572  0.8778 -0.3614
  586MOL0     H80806   3.087   7.761   9.943 -1.1077  0.9391 -0.3557
  586MOL0     H80807   2.871   7.690   9.818  0.2500  0.1601 -0.8785
  586MOL0     H80808   2.794   7.676   9.982  1.5969 -1.3210 -0.3524
  586MOL0     H80809   2.910   7.925   9.847  0.1406 -0.1976 -0.0615
  586MOL0     H80810   2.855   7.918  10.009  4.2957 -3.6506  0.9557
  586MOL0     H80811   2.679   8.037   9.855 -2.5869  1.0779 -1.2923
  586MOL0     H80812   2.676   7.892   9.762 -2.7092 -1.1836  0.3918
  586MOL0     H80813   2.563   7.755   9.935 -1.2030  0.0938 -1.7076
  586MOL0     H80814   2.476   7.900   9.946 -0.8918 -1.0127 -0.2728
  586MOL0     H80815   2.708   7.847  10.135 -0.2265  0.0628  0.1558
  586MOL0     H80816   2.573   7.968  10.140 -0.7484  2.8133 -4.9773
  586MOL0     H80817   2.586   7.575  10.142  1.6796  0.8275  0.8829
  586MOL0     H80818   2.478   7.401  10.308  2.0637  0.2513  2.6415
  586MOL0     H80819   2.320   7.429  10.252  0.5653 -1.7397  1.1984
  586MOL0     H80820   2.352   7.341  10.505  0.5997  0.7004  0.6507
  586MOL0     H80821   2.377   7.504  10.537 -2.5207 -0.8934  1.6914
  586MOL0     H80822   2.162   7.571  10.444 -0.0977 -0.7605 -0.2545
  586MOL0     H80823   2.110   7.419  10.388 -0.6182 -0.6742  0.1516
  586MOL0     H80824   2.137   7.340  10.646  0.5641  0.3797 -0.5090
  586MOL0     H80825   2.158   7.526  10.671 -1.1405  1.7648 -0.2735
  586MOL0     H80826   1.746   7.497  10.561 -0.3539  1.2466  0.4825
  586MOL0     H80827   1.476   7.387  10.770  0.0829  0.0999  2.7542
  586MOL0     H80828   1.520   7.505  10.639  1.7363  0.8733  0.7197
  586MOL0     H80829   1.490   7.565  10.807 -0.0588 -1.9542  1.5121
  586MOL0     H80830   1.654   7.436  11.348 -1.2008 -0.9683 -0.3753
  586MOL0     H80831   1.496   7.412  11.535 -0.1121  0.6122  1.2402
  586MOL0     H80832   1.170   7.410  11.367  0.1261  0.4601 -1.0516
  586MOL0     H80833   1.191   7.342  11.536 -0.6692  0.3556  0.4250
  586MOL0     H80834   0.974   7.507  11.406 -0.6013 -0.2630 -0.4017
  586MOL0     H80835   0.958   7.379  11.527  0.1642 -0.3639 -3.2095
  586MOL0     H80836   0.900   7.651  11.594  0.1819  1.5656  0.3272
  586MOL0     H80837   1.068   7.669  11.582 -1.4001  0.6934  0.4194
  586MOL0     H80838   1.103   7.508  11.773 -0.5042 -1.5720 -1.3648
  586MOL0     H80839   0.946   7.442  11.754 -0.8817  0.1415  1.6838
  586MOL0     H80840   0.991   7.724  11.876 -0.0953  0.3059  1.5940
  586MOL0     H80841   0.845   7.688  11.794  1.4926 -1.2750 -2.0011
  586MOL0     H80842   0.845   7.471  11.965  0.2143  0.1869 -1.3287
  586MOL0     H80843   0.823   7.631  12.037 -0.3990 -0.2797  0.9681
  586MOL0     H80844   0.967   7.538  12.178 -3.9728 -0.3205 -1.6299
  586MOL0     H80845   1.078   7.639  12.081  0.6159 -0.2301  4.5523
  586MOL0     H80846   1.184   7.426  12.118 -1.6425  1.9192  0.5431
  586MOL0     H80847   1.136   7.410  11.951 -0.9608  0.2237 -1.3074
  586MOL0     H80848   1.231   7.691  11.338 -1.4455 -1.5113 -0.2446
  586MOL0     H80849   1.388   7.704  11.157  0.6706 -0.9898 -0.5357
  586MOL0     H80850   1.859   7.509  11.051 -2.0186  1.7624  0.6560
  586MOL0     H80851   2.037   7.508  10.881  1.5516  1.5600 -1.4610
  586MOL0     H80852   2.811   7.274  10.188  0.6927 -1.0713 -0.4676
  586MOL0     H80853   2.680   7.166  10.389 -1.1543  1.3091 -2.1692
  586MOL0     H80854   2.428   7.278  10.770  2.6071 -0.1335  1.4012
  586MOL0     H80855   2.241   7.154  10.882  1.7312  1.6617  1.6130
  586MOL0     H80856   2.279   7.001  11.130 -0.6176 -0.1502  0.4113
  586MOL0     H80857   2.113   7.016  11.064 -0.2378  0.2341  4.0385
  586MOL0     H80858   2.230   6.756  11.161 -1.9053 -2.5779 -1.8891
  586MOL0     H80859   2.086   6.783  11.054  1.7129 -2.0518 -1.5478
  586MOL0     H80860   2.114   6.852  11.359 -0.4791 -0.4875  0.6646
  586MOL0     H80861   2.030   6.949  11.257  0.9516  0.3981 -1.0150
  586MOL0     H80862   1.963   6.658  11.238 -1.6314  0.0796  0.5711
  586MOL0     H80863   1.860   6.797  11.218 -1.3090 -3.2665 -1.1694
  586MOL0     H80864   1.857   6.727  11.642  1.0730  1.7571  0.0222
  586MOL0     H80865   2.481   6.795  10.881  2.2135 -0.1913 -3.0449
  586MOL0     H80866   2.695   6.890  10.621  2.5094  0.3662 -0.2108
  586MOL0     H80867   2.776   6.918  10.766 -0.1449 -0.2539 -1.5461
  586MOL0     H80868   2.671   6.779  10.750  1.6955 -1.2347 -1.2013
  587MOL0     O80869   6.069   7.439   4.318  0.1924  0.7190  0.3018
  587MOL0     C80870   6.033   7.382   4.213  1.1684 -0.9788 -0.2290
  587MOL0     O80871   5.983   7.253   4.212  0.1383 -0.1850 -0.0367
  587MOL0     C80872   5.958   7.173   4.320 -0.6288  0.2480 -0.6695
  587MOL0     C80873   6.040   7.060   4.351  0.7691 -0.4845 -0.3108
  587MOL0     C80874   6.023   7.002   4.480 -0.1265 -0.4834  0.0953
  587MOL0     C80875   5.923   7.042   4.570  0.0328  0.0323  0.0127
  587MOL0     O80876   5.918   6.983   4.693  0.6128  0.0301 -0.4333
  587MOL0     C80877   5.812   7.005   4.786  1.1777 -0.4617  0.6899
  587MOL0     C80878   5.793   6.875   4.874  0.3684 -0.3148  0.2196
  587MOL0     C80879   5.920   6.859   4.957 -0.3573  0.0770  0.4460
  587MOL0     C80880   5.922   6.720   5.024  0.4552  0.4070 -0.5746
  587MOL0     C80881   5.831   6.711   5.152  0.5054  0.7075 -0.0220
  587MOL0     C80882   5.853   6.583   5.222  0.1829 -0.0223 -0.5008
  587MOL0     C80883   5.743   6.583   5.329 -0.3162 -0.0018  0.5156
  587MOL0     C80884   5.770   6.462   5.413  0.4684  0.5685  0.6111
  587MOL0     N80885   5.718   6.466   5.547  0.6609  0.2751 -1.2173
  587MOL0     C80886   5.774   6.408   5.655 -0.0400  0.1214  0.2493
  587MOL0     C80887   5.685   6.423   5.757 -0.1962  0.6810  0.6816
  587MOL0     C80888   5.684   6.344   5.885  0.6688  0.1155  0.0159
  587MOL0     C80889   5.608   6.214   5.868 -0.2706  0.8813  0.1699
  587MOL0     C80890   5.641   6.121   5.979 -0.7952 -0.1471 -0.8578
  587MOL0     C80891   5.583   5.980   5.955  0.5540  1.0519 -0.0147
  587MOL0     O80892   5.439   5.970   5.946 -0.1878  0.1487  0.1633
  587MOL0     C80893   5.378   5.966   6.061 -0.0145 -0.3354 -0.2010
  587MOL0     C80894   5.274   6.062   6.073 -0.3917  0.1989  0.9395
  587MOL0     C80895   5.195   6.058   6.196  0.3990 -0.0324  0.4035
  587MOL0     C80896   5.084   6.155   6.205  0.0614 -0.0856  0.3140
  587MOL0     C80897   5.214   5.943   6.285  0.3871  0.5258 -0.1360
  587MOL0     C80898   5.140   5.925   6.412 -0.5025  0.5923 -0.3791
  587MOL0     O80899   5.130   5.794   6.455 -0.0328  0.2925 -0.0570
  587MOL0     C80900   5.082   5.762   6.578 -0.6397  0.2991  0.5590
  587MOL0     C80901   5.153   5.811   6.700 -0.3951 -0.0001  1.2343
  587MOL0     C80902   5.092   5.814   6.824 -1.2532 -0.9637  0.4440
  587MOL0     C80903   4.964   5.766   6.842  0.3167  1.1593  0.9216
  587MOL0     O80904   4.905   5.763   6.966 -0.4717 -0.2251  0.2441
  587MOL0     C80905   4.933   5.868   7.063 -1.0164 -0.1887 -0.5386
  587MOL0     C80906   4.825   5.864   7.174 -0.4512  0.5576 -0.6347
  587MOL0     C80907   4.849   5.743   7.266  0.9150  0.3754  0.4491
  587MOL0     C80908   4.837   5.787   7.406 -0.8989 -0.1183 -0.8366
  587MOL0     C80909   4.970   5.869   7.444 -0.4384 -0.4566 -0.1457
  587MOL0     C80910   4.954   5.946   7.572  0.0773 -0.3055 -0.6075
  587MOL0     C80911   5.044   6.063   7.587 -0.0770  0.6376  0.4269
  587MOL0     C80912   5.027   6.119   7.735 -0.0407  0.4834  0.9077
  587MOL0    Cl80913   5.137   6.257   7.766  0.1277 -0.3344  0.1184
  587MOL0     C80914   4.905   5.706   6.726 -0.5674 -0.7696 -0.7581
  587MOL0     C80915   4.962   5.708   6.597  0.3840 -0.7211 -0.6069
  587MOL0     O80916   5.114   6.018   6.477  0.1609 -0.2803 -0.3465
  587MOL0     C80917   5.320   5.849   6.262 -0.8987  0.5133 -0.4424
  587MOL0     C80918   5.413   5.868   6.160  0.1808 -0.0621  0.6618
  587MOL0     N80919   5.568   6.490   5.705 -0.5106 -0.0779 -0.3058
  587MOL0     N80920   5.598   6.519   5.583 -0.4264 -0.1541 -0.3798
  587MOL0     C80921   5.849   7.157   4.540 -1.0768  0.6595 -0.1309
  587MOL0     C80922   5.874   7.226   4.420 -0.8419  0.4700  0.2885
  587MOL0     C80923   6.054   7.466   4.097 -0.0234 -0.5425  0.3260
  587MOL0     C80924   6.014   7.397   3.974 -0.5926  0.4398 -0.2377
  587MOL0     C80925   6.046   7.453   3.850 -0.0206 -0.6104  0.1133
  587MOL0     C80926   6.105   7.577   3.839  0.4990 -0.0612 -1.0399
  587MOL0     O80927   6.122   7.644   3.720  0.3704  0.1275  0.4759
  587MOL0     C80928   6.035   7.601   3.618 -0.0587 -0.2988  1.0130
  587MOL0     C80929   6.049   7.718   3.528 -0.7140 -0.1138 -0.6317
  587MOL0     C80930   5.971   7.838   3.579 -0.1106 -0.3491  0.2798
  587MOL0     C80931   5.823   7.852   3.521 -0.0680  0.4432 -0.8435
  587MOL0     C80932   5.731   7.769   3.601  0.2046  0.1339  0.2629
  587MOL0     C80933   5.661   7.704   3.670  1.1157 -0.2983  1.1597
  587MOL0     C80934   6.123   7.650   3.961  0.3169  0.3768  0.2124
  587MOL0     C80935   6.103   7.594   4.082 -0.1745  0.3539 -0.3918
  587MOL0     C80936   6.135   7.684   4.196  0.5147  0.7250  0.6079
  587MOL0     H80937   6.127   7.046   4.287  0.9689  0.0155 -0.1586
  587MOL0     H80938   6.085   6.923   4.522  0.5915  1.6548  3.4536
  587MOL0     H80939   5.712   7.022   4.744  1.6400 -1.5997 -0.9517
  587MOL0     H80940   5.835   7.094   4.845  1.3297 -0.0744  0.0617
  587MOL0     H80941   5.706   6.887   4.939  0.1113  2.4704 -0.5315
  587MOL0     H80942   5.780   6.786   4.811  1.1862 -2.3904  2.8068
  587MOL0     H80943   6.014   6.864   4.900 -0.5035  0.3046  0.2220
  587MOL0     H80944   5.927   6.938   5.032 -2.4492  1.1819 -0.4320
  587MOL0     H80945   5.888   6.645   4.951 -0.9047  0.6288 -0.1914
  587MOL0     H80946   6.020   6.680   5.050  0.8186 -1.4231 -4.1307
  587MOL0     H80947   5.726   6.720   5.123  0.0023  1.4221  1.8669
  587MOL0     H80948   5.856   6.790   5.224 -1.2717  1.8874 -0.6261
  587MOL0     H80949   5.863   6.493   5.161  0.4932  0.2837 -0.9122
  587MOL0     H80950   5.955   6.592   5.263 -0.4664 -1.9482  1.7761
  587MOL0     H80951   5.644   6.576   5.284  0.9706 -1.9747 -2.3088
  587MOL0     H80952   5.755   6.668   5.397  0.3116 -0.8778  1.5244
  587MOL0     H80953   5.747   6.365   5.368 -0.1633  0.4803  1.1047
  587MOL0     H80954   5.876   6.464   5.441  0.4265  0.3146  0.7836
  587MOL0     H80955   5.859   6.341   5.652 -0.6810 -0.6582 -1.7903
  587MOL0     H80956   5.644   6.401   5.969 -1.3727 -0.5483 -0.4464
  587MOL0     H80957   5.790   6.322   5.903  0.1990 -2.5652 -0.0730
  587MOL0     H80958   5.500   6.228   5.861 -0.3527 -0.4424 -2.4602
  587MOL0     H80959   5.639   6.164   5.775  0.3893 -1.4384  1.5341
  587MOL0     H80960   5.749   6.112   5.999 -1.0456 -3.4092 -0.5000
  587MOL0     H80961   5.595   6.153   6.072 -2.4285 -2.0294 -0.9664
  587MOL0     H80962   5.612   5.939   5.857 -5.8890 -1.2363 -1.4291
  587MOL0     H80963   5.635   5.906   6.017 -2.7568 -1.0582  0.4647
  587MOL0     H80964   5.255   6.130   5.990 -2.7001 -1.3537  0.0894
  587MOL0     H80965   5.115   6.223   6.285 -0.5877  1.7818 -0.9504
  587MOL0     H80966   4.981   6.122   6.218 -0.8410  2.4312  0.0669
  587MOL0     H80967   5.066   6.204   6.109  5.1282  0.0269 -0.8753
  587MOL0     H80968   5.251   5.856   6.691 -1.2213  2.3865  3.2241
  587MOL0     H80969   5.145   5.870   6.900  0.9776  0.4368 -1.9890
  587MOL0     H80970   5.028   5.859   7.117 -1.9844 -3.7097  0.9286
  587MOL0     H80971   4.920   5.966   7.016 -2.3597  0.3644  0.8948
  587MOL0     H80972   4.826   5.959   7.229 -1.1299 -0.1019  0.5598
  587MOL0     H80973   4.731   5.851   7.119 -0.6765  0.3094 -0.1904
  587MOL0     H80974   4.939   5.682   7.251 -0.1887 -1.2081 -0.0528
  587MOL0     H80975   4.763   5.676   7.259  2.0978 -1.8225  3.9418
  587MOL0     H80976   4.841   5.697   7.468  1.5301  0.2914 -0.3003
  587MOL0     H80977   4.745   5.842   7.426  0.2172  2.4140 -2.1521
  587MOL0     H80978   5.050   5.796   7.458 -2.1449 -3.0035 -2.6563
  587MOL0     H80979   4.995   5.933   7.359 -0.4908  2.7562  2.0475
  587MOL0     H80980   4.991   5.877   7.649 -0.5966 -0.1628 -0.1497
  587MOL0     H80981   4.855   5.985   7.598 -0.1649 -0.2996 -1.5057
  587MOL0     H80982   5.024   6.141   7.513  5.6850  0.5632 -1.7341
  587MOL0     H80983   5.144   6.027   7.559 -1.6865 -0.6879 -4.6375
  587MOL0     H80984   5.053   6.045   7.811  1.2457 -0.6555 -0.5674
  587MOL0     H80985   4.924   6.150   7.756 -1.2202 -1.6939 -1.1566
  587MOL0     H80986   4.801   5.675   6.730 -1.3711  1.8162  1.5252
  587MOL0     H80987   4.917   5.671   6.506 -1.7235 -0.1021  0.1345
  587MOL0     H80988   5.336   5.761   6.323  0.3862 -1.6276 -3.6090
  587MOL0     H80989   5.499   5.809   6.131  0.5411  1.3144 -1.2925
  587MOL0     H80990   5.801   7.215   4.618  2.0267 -1.9394  4.1917
  587MOL0     H80991   5.817   7.316   4.397 -2.1037  0.1477  1.9529
  587MOL0     H80992   5.990   7.292   3.968  1.5434 -0.0664 -0.8116
  587MOL0     H80993   6.033   7.403   3.755 -0.4038  0.3515 -0.3558
  587MOL0     H80994   6.084   7.511   3.581  1.0928 -0.1878  2.1986
  587MOL0     H80995   5.931   7.583   3.649 -0.0295  1.6549  2.4768
  587MOL0     H80996   6.004   7.697   3.431 -1.3673 -0.3524 -0.2758
  587MOL0     H80997   6.155   7.746   3.517 -0.8655  0.2678 -1.1243
  587MOL0     H80998   5.972   7.855   3.687  0.4972 -1.8759  0.5404
  587MOL0     H80999   6.023   7.927   3.542 -0.6825 -0.9290 -2.0579
  587MOL0     H81000   5.816   7.814   3.418 -4.6546 -0.3530 -0.4418
  587MOL0     H81001   5.783   7.954   3.514  0.8470  0.9351  0.7005
  587MOL0     H81002   5.589   7.653   3.733  0.0933  1.4871  1.4972
  587MOL0     H81003   6.133   7.757   3.942 -2.2119  0.4997 -0.8188
  587MOL0     H81004   6.241   7.673   4.221  0.6204  0.7604  0.1841
  587MOL0     H81005   6.123   7.788   4.164 -1.3970  0.0259 -1.2157
  587MOL0     H81006   6.067   7.668   4.280 -2.0297 -0.4180 -1.5144
  588MOL0     O81007   2.007   2.228  10.986 -0.3843 -0.0495  0.2413
  588MOL0     C81008   1.972   2.112  10.976 -0.0409  0.4624 -0.4403
  588MOL0     O81009   1.837   2.064  11.007  0.6323  0.1086  0.7378
  588MOL0     C81010   1.735   2.154  11.045  0.7246  0.6634  0.3302
  588MOL0     C81011   1.626   2.169  10.956  0.9016 -0.4402  0.4392
  588MOL0     C81012   1.518   2.251  10.978  0.6002 -0.1399  0.5729
  588MOL0     C81013   1.512   2.325  11.095  0.6480  0.1114  1.0565
  588MOL0     O81014   1.422   2.426  11.126 -0.0747 -0.0724  0.2122
  588MOL0     C81015   1.309   2.447  11.038  0.0805 -0.1058  0.2673
  588MOL0     C81016   1.198   2.350  11.073 -0.2611  0.4669  0.0003
  588MOL0     C81017   1.136   2.374  11.207  0.8100 -0.5945  0.7929
  588MOL0     C81018   1.023   2.280  11.223 -0.8096 -0.0588 -0.0917
  588MOL0     C81019   0.935   2.324  11.343 -0.4459 -0.7201  0.2794
  588MOL0     C81020   0.813   2.231  11.382 -0.0631  0.3273  0.4883
  588MOL0     C81021   0.727   2.179  11.269 -0.2557 -0.0544 -0.2857
  588MOL0     C81022   0.651   2.284  11.191  0.0111 -0.0181 -0.3944
  588MOL0     N81023   0.543   2.334  11.274  0.4830 -0.3359 -0.3510
  588MOL0     C81024   0.436   2.272  11.326  0.1561  0.0696  0.7159
  588MOL0     C81025   0.361   2.360  11.396 -0.9561  0.3162 -0.8249
  588MOL0     C81026   0.231   2.338  11.462 -0.1299  0.7924  0.2266
  588MOL0     C81027   0.209   2.393  11.604 -0.1008  0.1823 -0.2205
  588MOL0     C81028   0.067   2.385  11.654 -0.5115 -0.7034 -1.0593
  588MOL0     C81029   0.037   2.255  11.724  1.1430  0.1776  0.1133
  588MOL0     O81030  -0.104   2.251  11.762 -0.3243 -0.4726  0.2995
  588MOL0     C81031  -0.137   2.157  11.851 -0.6171  0.6684 -0.3776
  588MOL0     C81032  -0.258   2.167  11.918 -0.3331  0.0887 -0.9964
  588MOL0     C81033  -0.313   2.069  12.003 -0.7351 -0.0634 -0.3970
  588MOL0     C81034  -0.449   2.090  12.060  0.3815  1.0609 -0.3100
  588MOL0     C81035  -0.236   1.960  12.037  0.5624  0.2705  0.7520
  588MOL0     C81036  -0.258   1.845  12.132  0.1306 -0.1794 -0.8817
  588MOL0     O81037  -0.261   1.723  12.073 -0.4433  0.3699 -1.0928
  588MOL0     C81038  -0.319   1.606  12.127 -0.0720  0.7046 -0.3124
  588MOL0     C81039  -0.428   1.614  12.208 -0.2736  0.6856 -0.0949
  588MOL0     C81040  -0.487   1.504  12.265 -0.6356  0.4546 -0.8123
  588MOL0     C81041  -0.426   1.376  12.246 -0.5154  0.1331 -0.5201
  588MOL0     O81042  -0.460   1.250  12.287 -0.0171 -0.1121  0.1141
  588MOL0     C81043  -0.594   1.232  12.333 -0.1915 -0.2831 -0.3913
  588MOL0     C81044  -0.705   1.231  12.225 -0.1684  0.9235  0.0689
  588MOL0     C81045  -0.723   1.095  12.156 -0.5813  0.0909  0.3495
  588MOL0     C81046  -0.817   1.097  12.034  0.1640 -0.4209  0.5850
  588MOL0     C81047  -0.857   0.954  11.999  0.5330  0.1579 -0.5026
  588MOL0     C81048  -0.947   0.963  11.874 -1.1451  0.4722  0.3379
  588MOL0     C81049  -1.000   0.823  11.838  0.9119  0.2181 -0.1255
  588MOL0     C81050  -1.097   0.824  11.725  1.2029 -0.0237 -0.2832
  588MOL0    Cl81051  -1.143   0.650  11.683 -0.0272 -0.6364  0.3145
  588MOL0     C81052  -0.323   1.363  12.156  0.7883  0.5689  1.0287
  588MOL0     C81053  -0.267   1.478  12.101 -0.9447 -1.4664  0.3865
  588MOL0     O81054  -0.283   1.869  12.250 -0.2928  0.0816 -0.0694
  588MOL0     C81055  -0.102   1.961  11.990 -0.2543 -0.1965 -0.2818
  588MOL0     C81056  -0.060   2.046  11.894  0.2122 -0.0164  0.6873
  588MOL0     N81057   0.425   2.484  11.381 -0.7761 -0.7441  0.4695
  588MOL0     N81058   0.522   2.467  11.309 -1.0719  0.2985  0.6439
  588MOL0     C81059   1.622   2.313  11.180 -0.5554  0.7891  0.1733
  588MOL0     C81060   1.729   2.225  11.156 -1.6533  0.3908 -0.0585
  588MOL0     C81061   2.077   2.031  10.910  0.0168  0.4608 -0.2816
  588MOL0     C81062   2.090   1.909  10.977 -0.1148 -0.9946  0.1798
  588MOL0     C81063   2.191   1.821  10.943 -0.9684 -0.2270 -0.4180
  588MOL0     C81064   2.291   1.846  10.855 -0.6940  0.3689  0.5680
  588MOL0     O81065   2.400   1.768  10.819 -0.9675 -0.4400 -0.5297
  588MOL0     C81066   2.436   1.652  10.889 -0.2277  0.1125 -1.6016
  588MOL0     C81067   2.451   1.654  11.054 -0.0363 -0.2280  1.1626
  588MOL0     C81068   2.532   1.531  11.110 -0.3387  0.4001  1.5186
  588MOL0     C81069   2.426   1.419  11.141 -0.1328  0.4666  0.9749
  588MOL0     C81070   2.494   1.294  11.165 -0.0250  0.7355 -0.3859
  588MOL0     C81071   2.540   1.185  11.173 -1.0247  0.5414  0.1416
  588MOL0     C81072   2.277   1.966  10.780 -0.6984  0.5398  0.6388
  588MOL0     C81073   2.172   2.059  10.805 -0.1978  0.3897  0.0449
  588MOL0     C81074   2.174   2.178  10.706 -0.0603 -1.0026  0.0564
  588MOL0     H81075   1.625   2.119  10.860  1.2546 -0.2047  0.3074
  588MOL0     H81076   1.446   2.241  10.898 -0.2510 -2.7668  1.5496
  588MOL0     H81077   1.338   2.433  10.934  2.1514  3.1123  0.3030
  588MOL0     H81078   1.279   2.552  11.049  0.2735 -0.1586  1.4833
  588MOL0     H81079   1.124   2.355  10.993  1.3694 -1.9832 -1.7881
  588MOL0     H81080   1.242   2.251  11.084  0.3521  0.7688  0.3546
  588MOL0     H81081   1.216   2.383  11.282  1.5800 -0.6309  0.0014
  588MOL0     H81082   1.088   2.472  11.203 -1.2788 -1.6156 -0.3923
  588MOL0     H81083   0.960   2.284  11.134 -2.5928  2.1934  1.1477
  588MOL0     H81084   1.048   2.175  11.236 -2.8573 -0.5850 -0.0608
  588MOL0     H81085   0.906   2.427  11.321  1.3195 -0.4897 -1.2119
  588MOL0     H81086   0.996   2.335  11.434  1.7563  1.6348 -1.3211
  588MOL0     H81087   0.855   2.144  11.433 -2.6053 -1.3322 -0.0641
  588MOL0     H81088   0.746   2.287  11.448 -1.3003 -1.5236  0.8754
  588MOL0     H81089   0.674   2.090  11.302 -0.9318 -0.3886 -2.1383
  588MOL0     H81090   0.789   2.130  11.194  2.9803  1.3448  1.2809
  588MOL0     H81091   0.713   2.372  11.171  0.3659 -0.0559  0.4853
  588MOL0     H81092   0.600   2.241  11.104  1.8726  2.1243 -2.6845
  588MOL0     H81093   0.405   2.169  11.307 -2.3778  0.8823  0.0819
  588MOL0     H81094   0.219   2.229  11.469  0.7162  0.6897  0.1079
  588MOL0     H81095   0.160   2.376  11.388 -1.6163 -2.0881  0.0265
  588MOL0     H81096   0.281   2.358  11.679  0.9575  0.9393 -0.8382
  588MOL0     H81097   0.229   2.501  11.600 -1.1739  0.4196  0.5271
  588MOL0     H81098   0.061   2.454  11.738  2.5060 -0.3117 -1.0470
  588MOL0     H81099  -0.009   2.417  11.582  0.9080  0.7863 -1.9703
  588MOL0     H81100   0.070   2.169  11.665  0.0979  0.6869 -1.2475
  588MOL0     H81101   0.111   2.246  11.805  3.1093  2.6594 -1.2835
  588MOL0     H81102  -0.331   2.246  11.904  2.5470  3.9044  2.7445
  588MOL0     H81103  -0.456   2.176  12.126  1.4978 -0.6190  2.1335
  588MOL0     H81104  -0.479   1.998  12.112 -1.9095  1.4007 -0.8896
  588MOL0     H81105  -0.528   2.103  11.985 -1.1689  1.2673  1.2880
  588MOL0     H81106  -0.460   1.715  12.231 -4.7560  0.0038 -2.2520
  588MOL0     H81107  -0.581   1.517  12.316 -0.3207  1.7148 -0.5274
  588MOL0     H81108  -0.589   1.131  12.373  1.1207 -0.6900 -1.4747
  588MOL0     H81109  -0.614   1.313  12.404  0.4960 -0.2533 -0.2201
  588MOL0     H81110  -0.803   1.246  12.272  0.5526 -3.5681  3.6827
  588MOL0     H81111  -0.691   1.314  12.156  1.7909 -1.0090 -2.0238
  588MOL0     H81112  -0.747   1.022  12.234 -2.2622 -3.2461 -2.9632
  588MOL0     H81113  -0.624   1.059  12.127 -0.7683 -1.0793  1.0859
  588MOL0     H81114  -0.772   1.138  11.943 -0.6283  1.2328  0.8856
  588MOL0     H81115  -0.904   1.157  12.063  1.7811  2.1066  0.5164
  588MOL0     H81116  -0.777   0.881  11.988 -0.3283 -0.7119 -1.1981
  588MOL0     H81117  -0.932   0.915  12.069  1.9086 -0.1365  0.8696
  588MOL0     H81118  -0.886   1.005  11.793 -0.4160 -2.0939 -0.5438
  588MOL0     H81119  -1.029   1.033  11.892 -1.1511 -0.1040  2.9528
  588MOL0     H81120  -1.041   0.770  11.925  0.3248 -2.1892 -1.7603
  588MOL0     H81121  -0.915   0.761  11.808  1.2032  1.6133 -2.4567
  588MOL0     H81122  -1.061   0.881  11.639 -1.8336  0.7363 -1.1700
  588MOL0     H81123  -1.193   0.871  11.749  0.6725 -1.8981  1.5142
  588MOL0     H81124  -0.275   1.270  12.129  2.0890  1.4600  0.1369
  588MOL0     H81125  -0.183   1.476  12.032 -0.2063 -0.1014  1.2209
  588MOL0     H81126  -0.031   1.882  12.015  2.3587  2.0998  0.0377
  588MOL0     H81127   0.040   2.027  11.855 -0.1032  0.7824 -0.5611
  588MOL0     H81128   1.628   2.374  11.270 -1.3853 -0.6603  1.2574
  588MOL0     H81129   1.799   2.214  11.238 -0.7080 -1.0603 -1.0134
  588MOL0     H81130   2.021   1.882  11.056 -0.2495  1.1756  0.8808
  588MOL0     H81131   2.194   1.725  10.994  2.0132  0.1347  0.2794
  588MOL0     H81132   2.367   1.570  10.865 -0.8632 -0.6459  2.1008
  588MOL0     H81133   2.536   1.624  10.855  0.6419  1.5081 -0.3383
  588MOL0     H81134   2.355   1.660  11.107 -1.0329  0.0946 -0.5907
  588MOL0     H81135   2.507   1.742  11.089 -0.4031 -0.3769  2.1733
  588MOL0     H81136   2.596   1.490  11.031 -0.7410  1.5138  0.5965
  588MOL0     H81137   2.597   1.556  11.195  0.0612 -0.5652  1.5198
  588MOL0     H81138   2.372   1.395  11.049  0.6188 -2.9222  1.3092
  588MOL0     H81139   2.362   1.448  11.225  0.2367 -1.1279  1.8428
  588MOL0     H81140   2.585   1.088  11.184  1.4530  1.8695  3.4580
  588MOL0     H81141   2.346   1.990  10.700 -2.8940 -2.0714 -2.3051
  588MOL0     H81142   2.198   2.143  10.605 -2.0379 -1.0825 -0.4478
  588MOL0     H81143   2.073   2.221  10.700  0.0934 -0.8436 -2.2872
  588MOL0     H81144   2.249   2.253  10.733 -1.1337 -1.0434  3.5715
  589MOL0     O81145   8.098   8.504   6.852 -0.4197 -0.3111 -0.0026
  589MOL0     C81146   8.149   8.589   6.922 -0.5976 -0.0806 -0.7940
  589MOL0     O81147   8.247   8.560   7.014  0.3837  0.3527 -0.1987
  589MOL0     C81148   8.322   8.452   6.997 -0.5912  0.5453  0.5462
  589MOL0     C81149   8.279   8.320   7.022  0.0474 -0.4008 -0.8178
  589MOL0     C81150   8.370   8.218   6.996  0.1694  0.0163  0.5532
  589MOL0     C81151   8.491   8.236   6.931  0.3548 -0.4642 -0.6922
  589MOL0     O81152   8.559   8.125   6.904 -0.7572 -0.6377  0.1465
  589MOL0     C81153   8.641   8.078   7.016  0.0217 -0.5926 -0.2146
  589MOL0     C81154   8.787   8.087   6.965  0.0269  0.4911 -0.4670
  589MOL0     C81155   8.874   8.186   7.032  0.0871  0.2845  0.4920
  589MOL0     C81156   8.923   8.162   7.173  0.5159 -0.0890 -1.3015
  589MOL0     C81157   8.982   8.286   7.239  0.3913 -0.5889 -0.4225
  589MOL0     C81158   9.110   8.256   7.322 -0.0992 -0.6449  0.2524
  589MOL0     C81159   9.095   8.205   7.461  0.6048 -0.0947  0.0347
  589MOL0     C81160   9.220   8.212   7.555 -0.1128  0.4455  0.6567
  589MOL0     N81161   9.302   8.087   7.555 -0.3603 -0.9650 -1.0923
  589MOL0     C81162   9.310   7.991   7.458  0.9899  0.5577 -0.9426
  589MOL0     C81163   9.391   7.892   7.513 -0.0221  0.0914  0.5732
  589MOL0     C81164   9.451   7.778   7.438  0.9881  0.4962 -0.0176
  589MOL0     C81165   9.580   7.824   7.380  0.5371 -0.3813 -0.1599
  589MOL0     C81166   9.639   7.705   7.310 -0.0281 -0.2801 -0.3412
  589MOL0     C81167   9.694   7.753   7.174 -0.0660 -0.8657 -0.4118
  589MOL0     O81168   9.588   7.756   7.076  0.5372  0.4217  0.1375
  589MOL0     C81169   9.609   7.816   6.954 -0.4401  0.0305  0.0578
  589MOL0     C81170   9.566   7.740   6.840 -0.7564 -0.2886 -0.0709
  589MOL0     C81171   9.578   7.790   6.711  0.3793  0.1964 -0.4616
  589MOL0     C81172   9.537   7.699   6.592  0.9106  0.2568 -0.2054
  589MOL0     C81173   9.635   7.918   6.691  0.8120  0.2647  0.3795
  589MOL0     C81174   9.628   7.980   6.558  0.3634 -0.6314  0.5058
  589MOL0     O81175   9.531   8.082   6.536 -0.9819  0.2932 -0.9908
  589MOL0     C81176   9.527   8.164   6.427  0.2116 -0.6145 -0.4887
  589MOL0     C81177   9.407   8.208   6.377 -0.3972  0.5886 -0.3641
  589MOL0     C81178   9.393   8.292   6.271 -0.4698 -0.1604  0.9511
  589MOL0     C81179   9.508   8.370   6.236 -0.5723 -0.0778  0.7339
  589MOL0     O81180   9.499   8.461   6.133  0.0489 -0.2346  0.3275
  589MOL0     C81181   9.457   8.419   6.002 -0.0856  0.4402 -0.5326
  589MOL0     C81182   9.581   8.385   5.926 -0.8605  0.9596  0.0749
  589MOL0     C81183   9.684   8.498   5.916  0.6165 -0.2899 -0.3698
  589MOL0     C81184   9.799   8.473   5.818  0.8544 -0.4289  0.0553
  589MOL0     C81185   9.784   8.532   5.674  0.7823 -1.4372  0.5980
  589MOL0     C81186   9.906   8.486   5.588  0.7938  1.1164  0.2355
  589MOL0     C81187   9.860   8.354   5.520 -0.2597 -0.8698 -0.4401
  589MOL0     C81188   9.978   8.298   5.436 -0.2249  0.5884 -0.7232
  589MOL0    Cl81189  10.016   8.383   5.281  0.1501  0.4287  0.1069
  589MOL0     C81190   9.636   8.333   6.287  0.6659  0.0540  0.4454
  589MOL0     C81191   9.645   8.229   6.382  0.2009  0.3241 -0.0096
  589MOL0     O81192   9.700   7.931   6.470 -0.4118  0.0227 -0.0646
  589MOL0     C81193   9.673   7.989   6.798 -0.8648 -0.7584  0.2284
  589MOL0     C81194   9.661   7.943   6.931 -0.2160  0.8241 -0.0807
  589MOL0     N81195   9.440   7.939   7.636 -0.8052  0.7553  0.1238
  589MOL0     N81196   9.374   8.047   7.672  0.3889  0.1669 -0.5841
  589MOL0     C81197   8.527   8.365   6.894  0.3026  0.2101  0.0590
  589MOL0     C81198   8.452   8.469   6.947 -0.3357 -0.8994 -0.6660
  589MOL0     C81199   8.113   8.733   6.904  0.7387  0.0492  0.0151
  589MOL0     C81200   8.058   8.761   6.780  0.2559 -0.4740  0.4068
  589MOL0     C81201   8.025   8.890   6.745 -0.5307 -0.0365 -0.5806
  589MOL0     C81202   8.036   8.997   6.829 -0.2996 -0.0251  0.0492
  589MOL0     O81203   7.991   9.123   6.782  0.4190 -0.4065 -0.9185
  589MOL0     C81204   7.997   9.239   6.865 -0.0123 -0.1642  0.5459
  589MOL0     C81205   7.909   9.336   6.787  0.1359  0.1496 -0.2180
  589MOL0     C81206   7.928   9.477   6.828  1.1382 -0.5290 -0.3503
  589MOL0     C81207   7.883   9.483   6.966  0.3450  0.0694 -0.2637
  589MOL0     C81208   7.941   9.599   7.038 -0.2335  0.2688  0.4184
  589MOL0     C81209   7.994   9.683   7.101 -0.4659  0.5045 -0.0287
  589MOL0     C81210   8.080   8.962   6.963 -0.3073  0.3278  1.0922
  589MOL0     C81211   8.115   8.837   7.000 -0.3961  0.4487 -0.2197
  589MOL0     C81212   8.149   8.812   7.146 -0.1899 -0.2727  0.8130
  589MOL0     H81213   8.182   8.306   7.068  0.6214  1.6115  1.1843
  589MOL0     H81214   8.343   8.119   7.031 -1.4952  0.2230 -0.0583
  589MOL0     H81215   8.610   7.978   7.048 -1.8192  0.6843  2.4330
  589MOL0     H81216   8.634   8.138   7.107  0.0568 -2.0236  0.7628
  589MOL0     H81217   8.839   7.992   6.980  0.5996  0.7732 -0.6302
  589MOL0     H81218   8.785   8.099   6.856 -0.3817  1.3310 -0.3706
  589MOL0     H81219   8.962   8.201   6.969 -0.2784 -0.5588 -0.2373
  589MOL0     H81220   8.816   8.279   7.038 -1.9290 -0.9545  1.0246
  589MOL0     H81221   8.840   8.136   7.239  1.0419  2.2690  0.4183
  589MOL0     H81222   8.987   8.074   7.177 -1.1298 -1.3007  1.7526
  589MOL0     H81223   8.897   8.332   7.290 -1.1578 -1.2742 -2.2553
  589MOL0     H81224   9.018   8.353   7.160 -2.6485  2.7971  0.8169
  589MOL0     H81225   9.184   8.206   7.259 -1.5984 -0.8521 -1.4047
  589MOL0     H81226   9.148   8.357   7.341  1.1207 -0.9906 -0.2643
  589MOL0     H81227   9.080   8.096   7.465  1.2799 -0.2978 -1.8508
  589MOL0     H81228   9.010   8.251   7.512 -0.1899 -0.8220 -0.5862
  589MOL0     H81229   9.287   8.290   7.518 -1.0379  2.6117  3.2473
  589MOL0     H81230   9.185   8.235   7.656 -0.7555 -0.8496  0.7484
  589MOL0     H81231   9.280   7.990   7.354 -0.1968 -1.1815 -0.6254
  589MOL0     H81232   9.377   7.743   7.365  0.0512 -0.8751  1.5168
  589MOL0     H81233   9.457   7.697   7.511  2.1268  1.6355  1.2120
  589MOL0     H81234   9.556   7.906   7.311  1.3413 -0.5299 -0.6330
  589MOL0     H81235   9.655   7.864   7.449 -0.5462  0.6077  0.4868
  589MOL0     H81236   9.733   7.664   7.349  1.0607 -1.1527 -3.5293
  589MOL0     H81237   9.565   7.625   7.304  1.3132 -1.8591  2.1593
  589MOL0     H81238   9.738   7.852   7.185 -0.7501 -0.8222  2.8824
  589MOL0     H81239   9.770   7.687   7.131 -0.4018 -3.6672  2.8127
  589MOL0     H81240   9.506   7.649   6.848 -5.7312  2.4163 -1.9817
  589MOL0     H81241   9.513   7.603   6.639  0.0167  0.1682 -0.8290
  589MOL0     H81242   9.624   7.690   6.528  0.0250  1.9785 -1.7651
  589MOL0     H81243   9.448   7.739   6.542  0.8086  2.1061  1.3239
  589MOL0     H81244   9.319   8.160   6.420 -0.5893 -0.8878 -2.2874
  589MOL0     H81245   9.290   8.293   6.239 -1.7288 -1.1619  4.4743
  589MOL0     H81246   9.393   8.330   6.011 -0.9550  1.1973  1.4724
  589MOL0     H81247   9.395   8.494   5.951 -3.5410 -1.5014  0.4453
  589MOL0     H81248   9.630   8.299   5.971  2.0332  1.2741 -2.1729
  589MOL0     H81249   9.552   8.367   5.822  3.3574  0.5776 -1.2263
  589MOL0     H81250   9.718   8.513   6.019 -1.4441 -1.4284  0.5179
  589MOL0     H81251   9.622   8.584   5.889  0.5150 -0.1599  0.2528
  589MOL0     H81252   9.820   8.366   5.826 -1.7240 -0.8677  4.6221
  589MOL0     H81253   9.884   8.521   5.868 -0.0070  0.4380  0.7367
  589MOL0     H81254   9.687   8.508   5.629  1.1420 -0.8257 -0.5242
  589MOL0     H81255   9.800   8.640   5.679 -1.0764 -0.8420 -3.0881
  589MOL0     H81256   9.995   8.471   5.651  0.4846 -2.8039 -0.0298
  589MOL0     H81257   9.923   8.562   5.512 -0.0119  1.7425  0.6595
  589MOL0     H81258   9.774   8.374   5.456 -0.3295 -2.7265 -0.9807
  589MOL0     H81259   9.818   8.298   5.604 -1.9227  0.9211 -0.0039
  589MOL0     H81260   9.942   8.198   5.409 -0.4318  1.1466 -2.6799
  589MOL0     H81261  10.060   8.279   5.506 -1.1516  3.4647  1.3332
  589MOL0     H81262   9.719   8.392   6.250  1.0101  0.7107  2.1656
  589MOL0     H81263   9.743   8.214   6.425 -1.5939 -5.3420  3.0389
  589MOL0     H81264   9.714   8.088   6.786  1.3103 -1.6742 -0.4969
  589MOL0     H81265   9.689   8.017   7.004  0.7692  2.0433 -1.6330
  589MOL0     H81266   8.619   8.390   6.842  0.1130 -1.5176 -1.2201
  589MOL0     H81267   8.486   8.572   6.944  0.2475 -1.0267  1.0069
  589MOL0     H81268   8.044   8.685   6.703  1.2961 -2.7362  2.3214
  589MOL0     H81269   7.992   8.913   6.644 -1.6264 -1.1391 -0.4896
  589MOL0     H81270   7.950   9.213   6.961  1.2025 -2.2351  0.6517
  589MOL0     H81271   8.101   9.275   6.866 -0.4441  1.5237 -2.9545
  589MOL0     H81272   7.802   9.315   6.800 -0.1190  1.9001  0.9765
  589MOL0     H81273   7.932   9.333   6.681 -1.2023  1.5876 -0.6070
  589MOL0     H81274   8.031   9.506   6.807  1.9884 -1.9140  1.6304
  589MOL0     H81275   7.864   9.544   6.770  2.4068  0.0293 -1.1255
  589MOL0     H81276   7.909   9.400   7.033  0.5044  1.2345  1.1493
  589MOL0     H81277   7.774   9.486   6.969  0.3922  1.5659  1.1136
  589MOL0     H81278   8.030   9.776   7.140  1.4621  0.5826 -1.7852
  589MOL0     H81279   8.075   9.042   7.036 -5.5114  0.1263  1.2995
  589MOL0     H81280   8.060   8.837   7.204 -2.4022  1.5133 -2.9769
  589MOL0     H81281   8.182   8.712   7.177  0.2572 -0.4409 -0.1827
  589MOL0     H81282   8.227   8.882   7.178 -0.1262  0.5549 -1.0677
  590MOL0     O81283   9.036   7.241  11.072  0.0604  0.3848 -1.1423
  590MOL0     C81284   8.958   7.309  11.011 -0.7263  0.4647  0.0936
  590MOL0     O81285   8.941   7.438  11.028  0.0089  0.6012 -0.3170
  590MOL0     C81286   9.034   7.505  11.110  0.8148  0.5050 -0.1217
  590MOL0     C81287   9.125   7.595  11.058  0.0740 -0.7498  0.1421
  590MOL0     C81288   9.215   7.663  11.138 -0.0166  0.6837 -0.0261
  590MOL0     C81289   9.223   7.627  11.274  0.0519 -0.5993  0.4815
  590MOL0     O81290   9.306   7.702  11.354 -0.1225 -0.0378  0.4852
  590MOL0     C81291   9.271   7.711  11.493 -0.8162  0.5816  0.1082
  590MOL0     C81292   9.328   7.595  11.574  0.4621 -0.0878  0.3957
  590MOL0     C81293   9.230   7.561  11.690 -0.0310 -0.4857 -0.0194
  590MOL0     C81294   9.180   7.670  11.795 -0.6701 -0.3426  0.5323
  590MOL0     C81295   9.063   7.625  11.880 -0.1907  0.0790 -0.0574
  590MOL0     C81296   9.085   7.527  11.991  0.0231 -0.2857 -0.4905
  590MOL0     C81297   8.945   7.491  12.057  0.2143  0.1141  0.0344
  590MOL0     C81298   8.866   7.400  11.966  0.3143 -1.2579  0.2231
  590MOL0     N81299   8.732   7.358  12.023 -0.5432 -0.5373 -0.3448
  590MOL0     C81300   8.717   7.260  12.116  0.7300 -0.4455  0.0970
  590MOL0     C81301   8.595   7.291  12.166  0.4214  1.1341 -0.5191
  590MOL0     C81302   8.536   7.220  12.283 -1.0281  0.2628 -0.0195
  590MOL0     C81303   8.577   7.286  12.413  0.8209  0.2556  0.1544
  590MOL0     C81304   8.478   7.239  12.536  0.0598 -0.2606  0.6804
  590MOL0     C81305   8.544   7.287  12.665  1.0834 -0.0524 -0.1465
  590MOL0     O81306   8.667   7.225  12.700 -0.7143  0.7727 -0.8411
  590MOL0     C81307   8.666   7.094  12.745 -0.2602  0.5165 -0.5397
  590MOL0     C81308   8.553   7.006  12.756  0.2305 -0.1784 -0.1813
  590MOL0     C81309   8.571   6.869  12.802 -0.3912 -0.1896  0.2980
  590MOL0     C81310   8.448   6.796  12.827  0.1130 -0.3651 -0.3368
  590MOL0     C81311   8.702   6.823  12.834  0.3819 -0.2508  0.1698
  590MOL0     C81312   8.747   6.675  12.859 -0.4053 -1.1969  0.7211
  590MOL0     O81313   8.872   6.643  12.834  0.0238  0.2592  0.3348
  590MOL0     C81314   8.917   6.523  12.876  0.0344  0.7898 -0.2771
  590MOL0     C81315   8.881   6.403  12.823  0.3420 -0.0389 -0.4600
  590MOL0     C81316   8.950   6.289  12.866  1.6260  0.5166  0.6825
  590MOL0     C81317   9.045   6.289  12.970  0.3668  0.0009 -0.2785
  590MOL0     O81318   9.096   6.179  13.018 -0.1469 -0.5298 -0.3820
  590MOL0     C81319   9.238   6.182  13.039 -0.3668 -0.1643  0.4581
  590MOL0     C81320   9.294   6.043  12.997 -0.0274  0.5438  1.4294
  590MOL0     C81321   9.436   6.025  13.043  0.4944 -0.2861 -0.3028
  590MOL0     C81322   9.485   5.888  13.056  0.3651  0.2236 -0.4708
  590MOL0     C81323   9.610   5.892  13.142 -0.0651 -0.9247 -0.6210
  590MOL0     C81324   9.571   5.888  13.292 -0.6923  0.1311  1.2305
  590MOL0     C81325   9.701   5.874  13.377  0.6166  0.3304 -1.2961
  590MOL0     C81326   9.780   5.995  13.408  0.2106 -1.3708  0.0464
  590MOL0    Cl81327   9.699   6.146  13.453 -0.1858 -0.2117  0.2880
  590MOL0     C81328   9.089   6.415  13.007  2.2585 -0.2052  0.0032
  590MOL0     C81329   9.027   6.531  12.957 -1.4912 -0.7147 -0.1495
  590MOL0     O81330   8.660   6.602  12.900  0.2747  0.0123  0.3730
  590MOL0     C81331   8.810   6.910  12.816 -0.1929  0.7669  0.0386
  590MOL0     C81332   8.795   7.045  12.773 -0.7434 -0.1759 -0.5705
  590MOL0     N81333   8.550   7.416  12.123  0.0164  0.7900 -0.3534
  590MOL0     N81334   8.633   7.448  12.030  0.0674 -0.3279  0.1495
  590MOL0     C81335   9.140   7.518  11.324 -0.6271  0.8904  0.8103
  590MOL0     C81336   9.040   7.466  11.243  0.4798  0.1615  0.2566
  590MOL0     C81337   8.873   7.238  10.902 -0.5291  0.3054 -0.1808
  590MOL0     C81338   8.893   7.093  10.900  0.4139 -0.0535  0.3024
  590MOL0     C81339   8.827   7.017  10.798  0.0757  0.7224  0.0710
  590MOL0     C81340   8.739   7.080  10.712 -0.7676 -0.3556  1.5898
  590MOL0     O81341   8.667   7.016  10.604 -0.1994  0.3104 -0.6747
  590MOL0     C81342   8.741   6.906  10.548  0.0283 -0.5702  0.8089
  590MOL0     C81343   8.682   6.878  10.404  0.2286 -0.3942 -0.2499
  590MOL0     C81344   8.529   6.855  10.415  0.3813 -0.7136  0.7900
  590MOL0     C81345   8.430   6.977  10.402 -0.7497 -0.1879 -0.2844
  590MOL0     C81346   8.462   7.066  10.287 -0.7001 -0.3572 -0.1756
  590MOL0     C81347   8.504   7.129  10.194 -0.7536  0.7364 -0.5059
  590MOL0     C81348   8.714   7.226  10.719  1.1050  1.7997 -0.0380
  590MOL0     C81349   8.784   7.306  10.807 -0.3910  0.2201 -0.4830
  590MOL0     C81350   8.755   7.450  10.794  0.8504 -0.9129 -0.9218
  590MOL0     H81351   9.115   7.630  10.956 -0.0236 -0.4551  0.2528
  590MOL0     H81352   9.281   7.741  11.101  0.0371  1.7003  2.0388
  590MOL0     H81353   9.164   7.724  11.512 -0.5578  0.7168  1.5637
  590MOL0     H81354   9.311   7.805  11.531 -1.2989  0.2459  1.4905
  590MOL0     H81355   9.351   7.507  11.514  1.0690  0.2065  0.1916
  590MOL0     H81356   9.423   7.626  11.619  2.0891 -1.4651 -1.8690
  590MOL0     H81357   9.141   7.512  11.651 -2.0854  1.2078  2.2500
  590MOL0     H81358   9.273   7.479  11.749 -0.8911  0.0362  1.3853
  590MOL0     H81359   9.268   7.713  11.845 -1.9230  2.3673  0.5702
  590MOL0     H81360   9.134   7.751  11.738 -1.7552  1.0667  3.2068
  590MOL0     H81361   8.990   7.584  11.810  3.2749 -2.1149 -2.7417
  590MOL0     H81362   9.042   7.725  11.919  1.4166  2.1914 -3.9838
  590MOL0     H81363   9.132   7.436  11.953 -3.0785 -2.4117  0.4019
  590MOL0     H81364   9.151   7.573  12.065  0.4332  0.1411 -1.1111
  590MOL0     H81365   8.884   7.579  12.082 -0.7264 -0.5196  0.0057
  590MOL0     H81366   8.965   7.436  12.150 -1.1217  1.0482  0.9051
  590MOL0     H81367   8.840   7.458  11.877  0.3091 -1.4992  0.0659
  590MOL0     H81368   8.931   7.318  11.933  0.7890 -0.8909  0.2464
  590MOL0     H81369   8.797   7.187  12.125  1.6140 -0.2093 -3.9803
  590MOL0     H81370   8.574   7.118  12.295  0.9635  0.9722 -0.0285
  590MOL0     H81371   8.429   7.200  12.274 -0.5336 -2.2597 -1.3800
  590MOL0     H81372   8.674   7.249  12.446  0.3629 -2.0208 -0.8969
  590MOL0     H81373   8.580   7.395  12.402  1.4015  0.3030  0.7066
  590MOL0     H81374   8.379   7.280  12.516 -0.4719 -2.7362 -2.6010
  590MOL0     H81375   8.456   7.132  12.534 -3.2220  0.2884  1.2856
  590MOL0     H81376   8.564   7.394  12.650 -0.0268  0.6633  2.7219
  590MOL0     H81377   8.478   7.273  12.751 -0.8210 -2.5087 -1.8673
  590MOL0     H81378   8.455   7.051  12.746 -0.3980 -0.9912  1.7540
  590MOL0     H81379   8.433   6.791  12.936 -0.7960  3.0165 -0.1882
  590MOL0     H81380   8.469   6.699  12.781  0.6761  0.4383 -1.8182
  590MOL0     H81381   8.367   6.850  12.777  0.9029  0.9121 -0.2816
  590MOL0     H81382   8.803   6.414  12.749 -1.2812  1.9307  1.3926
  590MOL0     H81383   8.929   6.188  12.831 -1.9399  0.9823  1.1103
  590MOL0     H81384   9.289   6.242  12.963 -0.3577 -0.1370  0.4860
  590MOL0     H81385   9.275   6.227  13.131 -1.6320  3.8712 -0.7606
  590MOL0     H81386   9.239   5.967  13.054  3.4410 -0.9483  3.1457
  590MOL0     H81387   9.294   6.022  12.890 -0.3554 -0.3226  1.5907
  590MOL0     H81388   9.445   6.082  13.136  1.3263 -2.0619  0.7437
  590MOL0     H81389   9.500   6.085  12.978  0.6891  0.4780  0.5702
  590MOL0     H81390   9.519   5.855  12.957  1.5632  0.6786 -0.2256
  590MOL0     H81391   9.403   5.823  13.088 -1.0903  2.9303  1.6507
  590MOL0     H81392   9.684   5.815  13.119  1.8858 -0.8938  4.3119
  590MOL0     H81393   9.654   5.988  13.113 -2.7847  0.4562 -0.5600
  590MOL0     H81394   9.502   5.805  13.307  0.0500 -0.1176  3.5877
  590MOL0     H81395   9.536   5.988  13.319  0.1863  0.6451  0.5448
  590MOL0     H81396   9.764   5.796  13.332  3.0436  1.7968 -0.5855
  590MOL0     H81397   9.670   5.833  13.474 -1.4003 -0.2725 -2.1379
  590MOL0     H81398   9.843   6.008  13.319 -0.9730 -2.3900 -0.9678
  590MOL0     H81399   9.852   5.968  13.486 -0.6910 -1.1680  0.9644
  590MOL0     H81400   9.163   6.436  13.084  2.1665  2.0766 -0.4703
  590MOL0     H81401   9.051   6.630  12.995 -1.0693 -1.6476  2.1983
  590MOL0     H81402   8.909   6.868  12.825  0.2953  1.1339 -2.7624
  590MOL0     H81403   8.883   7.108  12.758 -0.6177  0.0459  0.9284
  590MOL0     H81404   9.166   7.482  11.424 -0.6696 -0.1675  0.4504
  590MOL0     H81405   8.971   7.397  11.292  0.0945  1.9452  2.3959
  590MOL0     H81406   8.969   7.038  10.954  3.0588  1.3688 -1.7372
  590MOL0     H81407   8.863   6.915  10.793 -1.6368 -0.0368  1.6903
  590MOL0     H81408   8.846   6.935  10.543  0.0731 -0.4342  2.1683
  590MOL0     H81409   8.721   6.821  10.614 -3.1174  2.1190  3.7053
  590MOL0     H81410   8.729   6.790  10.359 -2.7743 -0.8845 -2.7673
  590MOL0     H81411   8.715   6.962  10.343 -3.1446 -0.6152 -2.6226
  590MOL0     H81412   8.505   6.781  10.339 -0.4877  0.5901 -0.2506
  590MOL0     H81413   8.505   6.809  10.511 -2.9113  1.1392  1.0115
  590MOL0     H81414   8.416   7.036  10.493  1.0746  1.4872 -1.0199
  590MOL0     H81415   8.332   6.934  10.379  0.8728 -1.7805 -5.6405
  590MOL0     H81416   8.548   7.193  10.119  0.3749  0.5558 -0.0047
  590MOL0     H81417   8.648   7.269  10.644  1.5752  1.0856 -0.8755
  590MOL0     H81418   8.693   7.477  10.708  0.5640  2.1422  0.1449
  590MOL0     H81419   8.699   7.471  10.885 -2.8562  4.0686 -3.8240
  590MOL0     H81420   8.836   7.521  10.778 -2.1837  2.5450 -2.2282
  591MOL0     O81421   5.065   0.853   5.651  0.0340 -0.1929 -0.5179
  591MOL0     C81422   5.007   0.745   5.667  0.9752  0.3322 -0.3320
  591MOL0     O81423   4.937   0.684   5.574  0.2264 -0.3340 -0.0481
  591MOL0     C81424   4.930   0.747   5.453  0.6771  1.1801  0.0882
  591MOL0     C81425   5.022   0.715   5.347 -0.5303 -0.1816  0.6580
  591MOL0     C81426   5.002   0.760   5.218  0.2124 -0.0602  0.4878
  591MOL0     C81427   4.877   0.828   5.189 -0.0975  0.0555  0.3784
  591MOL0     O81428   4.831   0.861   5.066 -0.1027  0.3354 -0.3469
  591MOL0     C81429   4.923   0.878   4.954 -0.0027 -1.1841 -0.8819
  591MOL0     C81430   4.846   0.842   4.820 -0.3525 -0.1983  0.6148
  591MOL0     C81431   4.739   0.942   4.773  0.5916  0.1120  0.3166
  591MOL0     C81432   4.663   0.868   4.667  1.1818  0.3468  0.5511
  591MOL0     C81433   4.528   0.926   4.635 -0.3985 -1.0265 -0.4513
  591MOL0     C81434   4.462   0.850   4.517  0.3296 -0.1848 -0.5056
  591MOL0     C81435   4.455   0.697   4.546  0.7948 -0.3112 -0.1164
  591MOL0     C81436   4.329   0.632   4.473  0.2823 -0.9482 -0.4764
  591MOL0     N81437   4.322   0.487   4.477 -1.4833  0.2396 -0.4464
  591MOL0     C81438   4.321   0.419   4.592 -0.8506  0.2881 -0.9294
  591MOL0     C81439   4.282   0.290   4.563  1.2151 -0.8476  0.7216
  591MOL0     C81440   4.235   0.197   4.669 -0.7036 -0.6586  0.9821
  591MOL0     C81441   4.242   0.045   4.632  0.3688 -0.7779  0.5622
  591MOL0     C81442   4.382   0.001   4.624 -0.2852 -0.7185  0.2090
  591MOL0     C81443   4.380  -0.158   4.632 -0.2737  0.1440 -1.0319
  591MOL0     O81444   4.509  -0.214   4.621 -0.5682 -0.4775  0.3427
  591MOL0     C81445   4.580  -0.231   4.740 -0.7418  1.1426 -0.2590
  591MOL0     C81446   4.521  -0.264   4.871  0.0334 -0.4905  0.7390
  591MOL0     C81447   4.592  -0.284   4.989 -0.7697 -0.6488 -0.3489
  591MOL0     C81448   4.503  -0.317   5.103 -0.4220  0.0565  0.3241
  591MOL0     C81449   4.740  -0.268   4.976  0.8495  0.0474 -0.1187
  591MOL0     C81450   4.829  -0.264   5.093  0.0935 -0.6246  0.7484
  591MOL0     O81451   4.954  -0.279   5.061  0.3392 -0.2795  0.0707
  591MOL0     C81452   5.049  -0.237   5.147 -0.8576  1.1834 -0.4754
  591MOL0     C81453   5.119  -0.345   5.211 -0.6304 -0.8082 -0.3340
  591MOL0     C81454   5.234  -0.309   5.292  0.2942  0.1707  0.0017
  591MOL0     C81455   5.285  -0.176   5.282  0.3017  0.2233 -0.9852
  591MOL0     O81456   5.390  -0.134   5.357  0.1972 -0.8021 -0.1469
  591MOL0     C81457   5.458  -0.225   5.438  0.4221 -1.1914 -0.7718
  591MOL0     C81458   5.592  -0.151   5.474  0.9164 -0.9589  0.2504
  591MOL0     C81459   5.671  -0.106   5.350  0.5290 -0.8952 -0.0178
  591MOL0     C81460   5.785  -0.018   5.381  0.1835  0.2312 -0.9219
  591MOL0     C81461   5.891  -0.004   5.265  0.1974  0.6819  0.1766
  591MOL0     C81462   5.838  -0.007   5.126 -0.0186  0.3565  0.4493
  591MOL0     C81463   5.948   0.023   5.018  0.5166 -1.1624 -0.5459
  591MOL0     C81464   6.049  -0.081   5.004  0.2247 -1.0793 -0.0812
  591MOL0    Cl81465   6.139  -0.057   4.846 -0.3353 -0.2836 -0.0878
  591MOL0     C81466   5.216  -0.075   5.223  0.7335  0.5141 -0.5211
  591MOL0     C81467   5.088  -0.107   5.163 -0.8905 -0.1409 -0.3394
  591MOL0     O81468   4.786  -0.239   5.199 -0.4312 -0.2765 -0.0282
  591MOL0     C81469   4.794  -0.240   4.847 -0.8573  0.2400 -0.7484
  591MOL0     C81470   4.719  -0.213   4.736  0.4915 -0.0709  0.1606
  591MOL0     N81471   4.257   0.291   4.429  0.2185  0.1546  1.5127
  591MOL0     N81472   4.290   0.404   4.374  0.4439  0.1625  0.4564
  591MOL0     C81473   4.786   0.851   5.286  0.0699  0.4408 -0.4593
  591MOL0     C81474   4.818   0.819   5.420 -0.1586  0.2755  0.4545
  591MOL0     C81475   5.011   0.693   5.804 -0.0164  0.8033 -0.0257
  591MOL0     C81476   5.009   0.789   5.905 -0.1980  0.3083  0.9337
  591MOL0     C81477   5.013   0.756   6.036  0.1967  0.5093  0.4159
  591MOL0     C81478   5.010   0.628   6.077 -0.4505 -0.2942  0.3236
  591MOL0     O81479   5.041   0.590   6.207  0.5623  0.0363  0.4821
  591MOL0     C81480   4.988   0.471   6.268  0.0915  0.4007  1.0897
  591MOL0     C81481   5.113   0.393   6.314 -0.1700  0.1348  0.6247
  591MOL0     C81482   5.177   0.471   6.425 -0.1793 -0.5286 -0.6381
  591MOL0     C81483   5.298   0.397   6.468 -0.3670  0.0738 -0.0486
  591MOL0     C81484   5.365   0.462   6.575 -0.7671  0.3599 -1.4027
  591MOL0     C81485   5.410   0.501   6.681  0.2891 -0.2786 -0.3518
  591MOL0     C81486   5.009   0.528   5.978 -0.2332 -0.9487  0.1627
  591MOL0     C81487   4.994   0.559   5.841 -0.0445 -0.4672 -0.8460
  591MOL0     C81488   4.960   0.444   5.740 -0.0436 -0.6477  0.2353
  591MOL0     H81489   5.102   0.653   5.385 -1.8722 -0.1960  3.7340
  591MOL0     H81490   5.071   0.751   5.134 -0.5622  2.7513 -0.5718
  591MOL0     H81491   5.016   0.821   4.961  0.4036 -0.4089  0.3893
  591MOL0     H81492   4.954   0.982   4.971  3.7684 -2.5208  1.5999
  591MOL0     H81493   4.922   0.841   4.741 -2.0821  3.7907 -1.3616
  591MOL0     H81494   4.804   0.742   4.836  2.4872 -1.6409 -0.3109
  591MOL0     H81495   4.675   0.976   4.855 -0.6802  3.0398 -1.7246
  591MOL0     H81496   4.775   1.036   4.731 -1.2213  0.0426 -1.5318
  591MOL0     H81497   4.715   0.868   4.570 -0.4670  2.2337 -0.4033
  591MOL0     H81498   4.650   0.764   4.698  2.9474 -0.3757 -0.9514
  591MOL0     H81499   4.539   1.033   4.616  1.5934 -1.5560 -2.8335
  591MOL0     H81500   4.458   0.925   4.719  1.0417 -0.9984  0.7749
  591MOL0     H81501   4.364   0.895   4.500 -0.1111 -1.2104 -0.7756
  591MOL0     H81502   4.520   0.860   4.425  0.9956  0.1232 -0.0638
  591MOL0     H81503   4.447   0.679   4.654  1.5414  2.7424  0.5526
  591MOL0     H81504   4.544   0.647   4.509  0.1577 -1.1701 -0.5257
  591MOL0     H81505   4.228   0.661   4.503 -0.8543 -5.1082  0.2356
  591MOL0     H81506   4.337   0.662   4.368 -0.3712  1.6824  0.1426
  591MOL0     H81507   4.341   0.461   4.690  1.0274 -4.5001  1.0659
  591MOL0     H81508   4.130   0.218   4.693 -0.9832 -2.6422  1.7491
  591MOL0     H81509   4.301   0.221   4.752  1.8124 -1.3089 -0.7338
  591MOL0     H81510   4.186   0.001   4.715  0.6190  1.8632  2.2374
  591MOL0     H81511   4.186   0.006   4.546  0.7577 -0.2078  0.0369
  591MOL0     H81512   4.435   0.047   4.540 -0.5251  0.7759  0.8503
  591MOL0     H81513   4.432   0.022   4.719  0.9652 -1.3754 -0.2723
  591MOL0     H81514   4.320  -0.199   4.714 -2.3526  0.0029 -2.5638
  591MOL0     H81515   4.323  -0.197   4.548  1.0032  0.6042 -2.1599
  591MOL0     H81516   4.413  -0.266   4.884 -0.2548 -1.1088 -1.4395
  591MOL0     H81517   4.473  -0.421   5.091 -1.0421  0.2840 -0.1713
  591MOL0     H81518   4.413  -0.255   5.105  0.4296  1.4484 -1.1859
  591MOL0     H81519   4.552  -0.301   5.199 -2.2221  2.8368  0.8971
  591MOL0     H81520   5.082  -0.447   5.210 -2.8560 -0.0531 -0.6068
  591MOL0     H81521   5.274  -0.376   5.368 -0.0106  0.7505  0.6830
  591MOL0     H81522   5.399  -0.249   5.527  4.3697 -0.1585  2.3889
  591MOL0     H81523   5.473  -0.318   5.383 -2.0783 -1.4597 -1.1164
  591MOL0     H81524   5.570  -0.056   5.524  3.0770 -1.7794  3.0181
  591MOL0     H81525   5.650  -0.214   5.542  3.9615 -0.0923 -1.3776
  591MOL0     H81526   5.603  -0.062   5.276  1.9185 -1.0929 -1.4598
  591MOL0     H81527   5.708  -0.196   5.300  2.1086 -0.2942  0.0295
  591MOL0     H81528   5.850  -0.056   5.460  1.8263  2.4981 -1.0744
  591MOL0     H81529   5.748   0.079   5.417 -0.7404 -1.6734  3.9245
  591MOL0     H81530   5.943   0.091   5.280 -0.7895  1.2303  0.1724
  591MOL0     H81531   5.962  -0.084   5.287 -0.9555  0.3775  3.3837
  591MOL0     H81532   5.749   0.054   5.114  0.5134  0.8062 -1.6184
  591MOL0     H81533   5.802  -0.108   5.103  1.7463 -0.2747  0.2971
  591MOL0     H81534   5.988   0.120   5.050 -2.0476  0.9151 -3.0309
  591MOL0     H81535   5.906   0.037   4.918  0.1036  2.2836 -0.0291
  591MOL0     H81536   5.989  -0.172   5.011 -4.8475  1.7120 -1.6089
  591MOL0     H81537   6.112  -0.085   5.093  0.5319 -1.2526 -0.3035
  591MOL0     H81538   5.246   0.029   5.232  0.3354  0.4236  3.8639
  591MOL0     H81539   5.043  -0.022   5.112 -3.9309 -1.7951 -0.6437
  591MOL0     H81540   4.902  -0.250   4.836 -0.6130 -2.6430  2.4664
  591MOL0     H81541   4.766  -0.189   4.642  0.2824  1.5640  0.4524
  591MOL0     H81542   4.684   0.873   5.257 -0.7698 -2.2921  0.1222
  591MOL0     H81543   4.738   0.837   5.491  0.0860 -0.7888  1.0160
  591MOL0     H81544   5.007   0.891   5.866  0.8252 -0.9366 -2.8773
  591MOL0     H81545   5.037   0.831   6.110  2.1514 -1.1845  1.6199
  591MOL0     H81546   4.923   0.510   6.346 -2.6633  0.4281 -1.0761
  591MOL0     H81547   4.928   0.404   6.206 -0.0164  1.3824  0.0881
  591MOL0     H81548   5.188   0.382   6.235  0.7797 -3.2443  1.8134
  591MOL0     H81549   5.076   0.298   6.353  0.0612  0.1255  0.8244
  591MOL0     H81550   5.203   0.575   6.400 -0.0389 -0.8621 -1.9561
  591MOL0     H81551   5.096   0.482   6.498 -0.2134 -0.3253 -0.7056
  591MOL0     H81552   5.373   0.395   6.388  0.9888  0.1412  1.1720
  591MOL0     H81553   5.279   0.292   6.490 -1.6480  0.0604 -1.1473
  591MOL0     H81554   5.464   0.548   6.760  0.1266  0.6016 -0.7556
  591MOL0     H81555   5.014   0.421   5.995 -3.1854 -1.6370 -2.3824
  591MOL0     H81556   4.858   0.451   5.699 -0.7631 -0.4658  1.9488
  591MOL0     H81557   5.032   0.451   5.659  0.5527  0.3278  0.8276
  591MOL0     H81558   4.972   0.348   5.791 -1.4128  0.3082  2.5397
  592MOL0     O81559   0.645   9.394   4.609  0.3988  0.5881  0.2619
  592MOL0     C81560   0.550   9.401   4.527 -0.2892  0.0434 -0.2240
  592MOL0     O81561   0.506   9.510   4.460  0.0988 -0.4395  0.7297
  592MOL0     C81562   0.595   9.617   4.474  0.1482  0.4394 -0.1323
  592MOL0     C81563   0.715   9.615   4.405  0.5869 -0.5596  0.5015
  592MOL0     C81564   0.782   9.745   4.389  0.5629  0.4565 -0.0653
  592MOL0     C81565   0.743   9.861   4.459  0.1493 -0.4192  0.5030
  592MOL0     O81566   0.838   9.956   4.426 -1.1957  0.2799  0.2219
  592MOL0     C81567   0.806  10.078   4.472  0.3969  0.6215  0.1142
  592MOL0     C81568   0.907  10.189   4.435  1.4949  0.2093  0.9084
  592MOL0     C81569   0.889  10.252   4.291  0.0700  0.5471 -0.6298
  592MOL0     C81570   0.954  10.390   4.280 -0.7212 -0.2097 -0.2186
  592MOL0     C81571   0.960  10.443   4.140 -0.0488  0.5264 -0.8398
  592MOL0     C81572   1.022  10.585   4.141  0.6654  0.5161 -0.8674
  592MOL0     C81573   0.983  10.659   4.014 -0.8285  0.7263  0.7898
  592MOL0     C81574   1.012  10.573   3.884  1.0641 -0.4429 -0.2549
  592MOL0     N81575   0.963  10.646   3.765 -0.7804 -1.0459  0.4663
  592MOL0     C81576   0.851  10.727   3.761 -0.3328 -1.2784 -0.4841
  592MOL0     C81577   0.847  10.777   3.633 -0.0999  1.0271 -0.3388
  592MOL0     C81578   0.739  10.839   3.563  0.0402  0.2953  0.0384
  592MOL0     C81579   0.660  10.928   3.663  0.2839  0.2034  0.1625
  592MOL0     C81580   0.545  10.997   3.596 -0.2806 -0.5975 -0.2541
  592MOL0     C81581   0.488  11.123   3.668  0.0132  0.1653 -0.4472
  592MOL0     O81582   0.433  11.106   3.800 -0.1155  0.0816 -0.1385
  592MOL0     C81583   0.308  11.155   3.813  0.4094  0.0204 -0.2266
  592MOL0     C81584   0.257  11.282   3.784  0.1768  0.6095 -0.1141
  592MOL0     C81585   0.134  11.331   3.827  0.4780  0.6965 -0.6891
  592MOL0     C81586   0.086  11.477   3.799 -0.4429 -1.0943  0.7867
  592MOL0     C81587   0.045  11.231   3.888  0.5826 -0.6990 -0.2838
  592MOL0     C81588  -0.085  11.258   3.935 -1.1927 -0.3096 -1.0063
  592MOL0     O81589  -0.176  11.155   3.933  0.1233  0.6111 -0.5236
  592MOL0     C81590  -0.300  11.175   3.992 -0.2500 -0.5401 -0.1549
  592MOL0     C81591  -0.355  11.082   4.074  0.5688  1.0014  0.0023
  592MOL0     C81592  -0.480  11.103   4.146  0.8825 -0.0472  0.4026
  592MOL0     C81593  -0.532  11.230   4.151  1.6402  0.4059 -0.2730
  592MOL0     O81594  -0.641  11.255   4.243 -0.3332 -0.2314 -0.0068
  592MOL0     C81595  -0.666  11.384   4.287  0.2800  0.1775 -0.0838
  592MOL0     C81596  -0.778  11.402   4.390  0.0307 -0.0513  0.5354
  592MOL0     C81597  -0.738  11.343   4.528 -0.4451  0.3195 -0.0949
  592MOL0     C81598  -0.747  11.190   4.530 -0.0929 -1.0459 -0.4596
  592MOL0     C81599  -0.875  11.124   4.483 -0.7318 -0.2631 -0.4870
  592MOL0     C81600  -0.991  11.168   4.566 -0.4925  0.2148  1.1694
  592MOL0     C81601  -1.111  11.075   4.541 -0.5946  0.3417  0.0740
  592MOL0     C81602  -1.231  11.122   4.615 -0.4404  0.3282  0.1488
  592MOL0    Cl81603  -1.381  11.107   4.520  0.3733 -0.1599 -0.4163
  592MOL0     C81604  -0.478  11.322   4.066  0.2200 -0.3266  0.3597
  592MOL0     C81605  -0.366  11.302   3.989 -0.4257  0.8983  0.8456
  592MOL0     O81606  -0.093  11.370   3.988  0.7771 -0.1125  0.2116
  592MOL0     C81607   0.095  11.105   3.907  0.2113 -0.0741 -0.5518
  592MOL0     C81608   0.217  11.063   3.866 -0.3339 -0.1567 -0.6107
  592MOL0     N81609   0.955  10.718   3.575 -0.6980 -0.6536 -0.2132
  592MOL0     N81610   1.026  10.645   3.643  0.6877  1.9197  0.0580
  592MOL0     C81611   0.616   9.854   4.528  0.4433 -0.4125  0.2194
  592MOL0     C81612   0.545   9.725   4.540 -0.2762  0.5507 -0.2667
  592MOL0     C81613   0.503   9.270   4.489  0.8198  0.2169  0.2002
  592MOL0     C81614   0.467   9.258   4.350  1.1624 -1.2610  0.5076
  592MOL0     C81615   0.394   9.150   4.311 -0.3595 -0.0812  0.2386
  592MOL0     C81616   0.347   9.060   4.405  0.1113 -0.0909 -0.2614
  592MOL0     O81617   0.270   8.959   4.377  1.5655 -0.0805  0.4588
  592MOL0     C81618   0.233   8.912   4.242 -0.6878 -0.0257 -0.3131
  592MOL0     C81619   0.124   8.813   4.268  0.1424  0.4259 -0.8383
  592MOL0     C81620   0.093   8.743   4.138  0.0548 -0.3889  0.1960
  592MOL0     C81621  -0.006   8.621   4.162  0.6688  0.2589 -0.6708
  592MOL0     C81622  -0.145   8.666   4.190 -0.0967 -0.5961  0.3900
  592MOL0     C81623  -0.259   8.694   4.202  0.1521  0.0554 -0.3354
  592MOL0     C81624   0.390   9.070   4.534 -0.3302  0.1676 -1.2878
  592MOL0     C81625   0.481   9.164   4.577  0.3050 -0.2845  0.1325
  592MOL0     C81626   0.533   9.156   4.721  0.6921  0.2302  0.6434
  592MOL0     H81627   0.734   9.528   4.343  1.5063 -3.6489  4.7142
  592MOL0     H81628   0.875   9.738   4.334  0.8417  0.9110  0.3487
  592MOL0     H81629   0.791  10.071   4.580 -0.5457 -1.7894 -0.1074
  592MOL0     H81630   0.708  10.098   4.429 -0.6943 -2.4700  0.8524
  592MOL0     H81631   0.883  10.265   4.509 -0.1743 -0.2011  0.8247
  592MOL0     H81632   1.007  10.143   4.434  0.7145 -1.6173  1.7641
  592MOL0     H81633   0.935  10.181   4.221 -0.3579 -0.6452  0.2779
  592MOL0     H81634   0.781  10.243   4.274 -0.1715 -0.2299  1.1470
  592MOL0     H81635   0.903  10.458   4.349  1.7629 -0.0372  1.6217
  592MOL0     H81636   1.061  10.392   4.304 -1.0494  1.9493  1.4402
  592MOL0     H81637   0.859  10.450   4.100 -0.1390 -0.1127 -0.7293
  592MOL0     H81638   1.007  10.374   4.070 -0.4992 -0.5649 -0.0918
  592MOL0     H81639   0.986  10.637   4.230  2.8293 -0.5171  0.7142
  592MOL0     H81640   1.130  10.597   4.151  0.3391  2.4825  0.8979
  592MOL0     H81641   1.028  10.758   4.000  3.6531 -0.3824  4.7461
  592MOL0     H81642   0.875  10.677   4.015 -0.7773  1.1889 -0.2725
  592MOL0     H81643   1.121  10.559   3.889  0.9191 -1.3577  0.7338
  592MOL0     H81644   0.965  10.475   3.878  1.7604 -0.7968 -0.0263
  592MOL0     H81645   0.784  10.745   3.845  0.5364 -1.9614  0.3739
  592MOL0     H81646   0.663  10.775   3.517 -2.8815  3.8745 -0.5275
  592MOL0     H81647   0.777  10.895   3.478 -0.7858 -0.2408 -0.7022
  592MOL0     H81648   0.606  10.869   3.738 -2.4966 -0.0834 -1.9027
  592MOL0     H81649   0.729  10.994   3.716  0.8330  0.2159 -0.5527
  592MOL0     H81650   0.585  11.037   3.502 -0.0391 -3.6026 -1.5435
  592MOL0     H81651   0.465  10.924   3.579 -2.5456  1.3687  1.3401
  592MOL0     H81652   0.570  11.193   3.687  0.7210 -0.1856 -2.0338
  592MOL0     H81653   0.410  11.172   3.608 -1.7993  4.8260  4.7553
  592MOL0     H81654   0.313  11.365   3.741  1.0690  0.4499  0.7031
  592MOL0     H81655  -0.021  11.488   3.783  0.0519  2.2604 -1.0777
  592MOL0     H81656   0.147  11.521   3.719 -1.1254 -4.8658 -2.0888
  592MOL0     H81657   0.112  11.541   3.884  0.8578  1.9546 -1.7146
  592MOL0     H81658  -0.301  10.988   4.083 -3.5426 -1.6313 -0.0666
  592MOL0     H81659  -0.512  11.025   4.214  1.0191 -0.2265  0.2614
  592MOL0     H81660  -0.573  11.430   4.322  0.0465  1.4855 -1.1366
  592MOL0     H81661  -0.682  11.441   4.196 -0.3087  0.7044  0.3412
  592MOL0     H81662  -0.805  11.505   4.417 -0.0094 -0.8620  4.1158
  592MOL0     H81663  -0.869  11.363   4.344 -1.9961  4.7073 -0.1604
  592MOL0     H81664  -0.808  11.382   4.602  1.1668 -0.9279  2.1950
  592MOL0     H81665  -0.642  11.377   4.569 -0.2891 -3.5225  3.3852
  592MOL0     H81666  -0.720  11.167   4.634 -1.5100 -0.6065  0.0215
  592MOL0     H81667  -0.672  11.151   4.461 -2.2830  0.1695 -3.7481
  592MOL0     H81668  -0.880  11.159   4.380 -1.5157  1.8675  0.2099
  592MOL0     H81669  -0.863  11.017   4.503 -0.3531 -0.1149  0.1390
  592MOL0     H81670  -1.014  11.272   4.545 -0.5163 -0.2089 -1.1673
  592MOL0     H81671  -0.965  11.149   4.671 -3.6116  1.5679  2.3045
  592MOL0     H81672  -1.089  10.971   4.567  3.6513  1.2979  0.9682
  592MOL0     H81673  -1.139  11.075   4.435  0.0183 -1.5959 -0.1413
  592MOL0     H81674  -1.217  11.227   4.642 -2.4049  1.5166 -2.9771
  592MOL0     H81675  -1.253  11.061   4.704 -0.5490 -0.7618 -0.6038
  592MOL0     H81676  -0.507  11.427   4.066  1.0920 -0.0548 -1.4013
  592MOL0     H81677  -0.338  11.379   3.918 -0.1611  0.0503  0.0028
  592MOL0     H81678   0.036  11.044   3.975  3.8813  0.9661  4.1089
  592MOL0     H81679   0.261  10.965   3.879  1.4500  0.1268 -3.5031
  592MOL0     H81680   0.581   9.945   4.574 -1.4831  0.4194 -2.6635
  592MOL0     H81681   0.444   9.718   4.578 -0.2129 -2.3155 -0.4409
  592MOL0     H81682   0.492   9.339   4.282  1.1256 -1.9806 -0.3845
  592MOL0     H81683   0.353   9.151   4.211  0.1174 -2.4587 -0.0411
  592MOL0     H81684   0.207   8.987   4.168  3.1351  4.3318  2.1615
  592MOL0     H81685   0.318   8.857   4.198  2.1571  2.3440  1.7899
  592MOL0     H81686   0.036   8.866   4.306 -1.5853  1.1983 -5.3263
  592MOL0     H81687   0.159   8.738   4.340 -1.8343  0.4883  0.2444
  592MOL0     H81688   0.030   8.803   4.072  1.5809  2.1436  0.9058
  592MOL0     H81689   0.180   8.706   4.083 -0.4168  2.8775 -3.1528
  592MOL0     H81690   0.018   8.548   4.240 -0.2666 -0.6632 -1.2079
  592MOL0     H81691  -0.005   8.566   4.068 -0.4492  1.1752 -1.2527
  592MOL0     H81692  -0.365   8.705   4.204  0.1311 -0.2468  0.6202
  592MOL0     H81693   0.364   8.993   4.606  1.9785 -1.1363 -1.7168
  592MOL0     H81694   0.643   9.156   4.723  0.6945  0.1807  2.3512
  592MOL0     H81695   0.506   9.247   4.775  1.2736  2.0213 -1.9266
  592MOL0     H81696   0.486   9.072   4.773  1.7508  0.5912  2.2532
  593MOL0     O81697   9.270   8.247   8.188 -0.1537 -0.6069  0.0941
  593MOL0     C81698   9.209   8.228   8.293  0.9373  0.2703 -0.5602
  593MOL0     O81699   9.067   8.232   8.299  1.0678 -0.4965  0.3369
  593MOL0     C81700   8.990   8.298   8.200 -0.6133  0.3235  0.1320
  593MOL0     C81701   8.891   8.392   8.238  0.3383  0.1132 -0.3409
  593MOL0     C81702   8.814   8.460   8.143  0.8147  0.6009 -0.4180
  593MOL0     C81703   8.841   8.444   8.004 -0.0653 -0.1836 -0.6789
  593MOL0     O81704   8.777   8.506   7.904  0.3130 -0.2459 -0.1892
  593MOL0     C81705   8.685   8.603   7.950  0.6082 -0.2360  0.0084
  593MOL0     C81706   8.554   8.523   7.974  1.0341 -0.0776 -0.8128
  593MOL0     C81707   8.474   8.482   7.852 -0.3936  1.1739 -0.0049
  593MOL0     C81708   8.387   8.588   7.782  0.3587 -0.6583 -1.0718
  593MOL0     C81709   8.339   8.540   7.643 -0.7935 -0.8708  0.3806
  593MOL0     C81710   8.282   8.646   7.542 -0.5943 -0.1452 -0.2623
  593MOL0     C81711   8.167   8.712   7.607  1.1136 -0.1133 -1.0752
  593MOL0     C81712   8.140   8.855   7.546 -0.3278  0.1357  0.2811
  593MOL0     N81713   8.002   8.901   7.556  0.8862  1.1089  0.1530
  593MOL0     C81714   7.959   9.012   7.625  0.0577 -0.4577 -0.0179
  593MOL0     C81715   7.820   9.015   7.621 -0.2988 -0.9929  0.2724
  593MOL0     C81716   7.727   9.123   7.680 -0.4460  0.9220 -0.0616
  593MOL0     C81717   7.689   9.064   7.814 -0.6736 -0.2501  0.6329
  593MOL0     C81718   7.589   9.152   7.894 -1.1192  0.0381 -0.5969
  593MOL0     C81719   7.509   9.055   7.977  0.6936 -0.5830  0.1762
  593MOL0     O81720   7.424   9.122   8.070 -0.8041  0.0399  0.2940
  593MOL0     C81721   7.330   9.208   8.038  0.0965  0.4559 -0.2618
  593MOL0     C81722   7.280   9.292   8.136  0.1144  0.0345 -0.6736
  593MOL0     C81723   7.189   9.391   8.114  0.4329  1.3427 -0.3237
  593MOL0     C81724   7.153   9.494   8.216  0.3419  0.3471 -0.1228
  593MOL0     C81725   7.128   9.402   7.985 -0.3173  0.1027 -0.0930
  593MOL0     C81726   7.035   9.506   7.935  0.2792  0.3563  0.1207
  593MOL0     O81727   6.924   9.459   7.867  1.1281  0.6421  0.4410
  593MOL0     C81728   6.871   9.542   7.766  0.4580 -0.3834 -0.9373
  593MOL0     C81729   6.878   9.680   7.750  0.3879  0.2659  0.6945
  593MOL0     C81730   6.798   9.744   7.651  0.0232 -0.0780  0.5487
  593MOL0     C81731   6.706   9.677   7.581  0.2762  0.1797  0.1426
  593MOL0     O81732   6.601   9.729   7.510 -0.5332  0.1654  0.3524
  593MOL0     C81733   6.570   9.869   7.522 -0.5409  0.6437 -0.1981
  593MOL0     C81734   6.456   9.889   7.426  0.2277 -0.1076  0.2748
  593MOL0     C81735   6.484   9.896   7.276  0.9735  0.4745  0.3075
  593MOL0     C81736   6.521  10.029   7.234  0.6139 -0.4649  0.6487
  593MOL0     C81737   6.525  10.046   7.086 -0.6485  0.6088  0.3481
  593MOL0     C81738   6.628   9.946   7.022 -0.1765  0.2648 -0.2061
  593MOL0     C81739   6.649   9.980   6.868  0.3499 -0.4981  1.3051
  593MOL0     C81740   6.762   9.908   6.801 -0.5359  1.1955 -0.1559
  593MOL0    Cl81741   6.769   9.963   6.627 -0.2406  0.0625 -0.2110
  593MOL0     C81742   6.701   9.537   7.596  1.1707 -0.2880 -1.0608
  593MOL0     C81743   6.780   9.478   7.692 -0.7576 -0.0944  0.5642
  593MOL0     O81744   7.073   9.625   7.942  0.2206 -0.1752 -1.3646
  593MOL0     C81745   7.171   9.306   7.887  0.3266 -0.3107  0.5200
  593MOL0     C81746   7.271   9.210   7.913 -0.3040 -0.0402  0.5908
  593MOL0     N81747   7.782   8.902   7.549  0.2212  0.5512 -0.2692
  593MOL0     N81748   7.894   8.827   7.523  0.1446 -0.2584  0.7393
  593MOL0     C81749   8.931   8.345   7.970  0.9622 -0.7377 -0.0705
  593MOL0     C81750   9.013   8.283   8.058 -0.0583 -0.1988  0.7723
  593MOL0     C81751   9.283   8.187   8.416 -0.1251  0.5845  0.2114
  593MOL0     C81752   9.200   8.178   8.533  0.0388  0.2931  0.2697
  593MOL0     C81753   9.252   8.134   8.654 -0.7934 -0.4406  0.1148
  593MOL0     C81754   9.388   8.099   8.665 -0.5808  0.5041  0.0562
  593MOL0     O81755   9.439   8.042   8.784 -0.3390  0.7895 -0.2925
  593MOL0     C81756   9.543   8.113   8.851 -0.8877 -0.0524 -0.4235
  593MOL0     C81757   9.475   8.192   8.964  0.2716 -0.0576 -0.7977
  593MOL0     C81758   9.583   8.239   9.070  0.3697 -0.0986  1.3844
  593MOL0     C81759   9.658   8.135   9.131  0.2736  0.0286  0.5513
  593MOL0     C81760   9.598   8.014   9.185  0.9661  0.1456  0.7137
  593MOL0     C81761   9.560   7.905   9.221 -0.8266 -0.4228 -0.7861
  593MOL0     C81762   9.472   8.124   8.560  0.2227  0.3336 -0.2999
  593MOL0     C81763   9.424   8.171   8.435  0.1208  0.1898 -0.9118
  593MOL0     C81764   9.533   8.221   8.339 -0.4639 -0.3526 -0.4488
  593MOL0     H81765   8.880   8.429   8.340 -0.2430 -0.8536 -0.0347
  593MOL0     H81766   8.740   8.530   8.179  2.1365  2.3297 -0.9174
  593MOL0     H81767   8.665   8.682   7.876  0.2280  3.4852  3.7048
  593MOL0     H81768   8.725   8.659   8.036 -0.5419  1.5389 -0.5584
  593MOL0     H81769   8.566   8.438   8.042 -0.0489  0.3816 -0.0130
  593MOL0     H81770   8.486   8.584   8.034  3.8778  0.5655  2.0360
  593MOL0     H81771   8.543   8.445   7.776 -1.2000  1.9545 -1.1497
  593MOL0     H81772   8.403   8.400   7.863 -0.8268  1.6380  0.8406
  593MOL0     H81773   8.306   8.600   7.854  2.8974 -1.4937  2.1322
  593MOL0     H81774   8.442   8.682   7.768 -1.2871  1.0538  2.6654
  593MOL0     H81775   8.259   8.467   7.659 -0.1604 -1.9965 -1.4170
  593MOL0     H81776   8.421   8.488   7.595 -0.5630  1.5116 -2.0679
  593MOL0     H81777   8.348   8.733   7.530  0.9181 -1.1960  0.0778
  593MOL0     H81778   8.255   8.613   7.441 -1.9132 -2.7879  0.8489
  593MOL0     H81779   8.181   8.725   7.715  2.5568  2.4622 -1.5132
  593MOL0     H81780   8.073   8.655   7.598  0.3505  0.6926  1.2064
  593MOL0     H81781   8.204   8.937   7.581 -0.8758  1.1464 -1.0190
  593MOL0     H81782   8.168   8.838   7.441  1.8138 -2.7010  1.1573
  593MOL0     H81783   8.025   9.068   7.690 -1.0488 -1.6650  2.2938
  593MOL0     H81784   7.635   9.122   7.621  0.3487  2.1630 -1.4072
  593MOL0     H81785   7.766   9.225   7.681 -0.9449  1.1744  3.1742
  593MOL0     H81786   7.646   8.965   7.797 -0.1007 -0.6158  1.2559
  593MOL0     H81787   7.775   9.053   7.881 -1.0263  3.0911  1.8401
  593MOL0     H81788   7.643   9.209   7.971  0.5426 -3.1971  0.8667
  593MOL0     H81789   7.524   9.219   7.837  1.3090  1.8708 -1.3906
  593MOL0     H81790   7.445   9.003   7.905  0.1332 -0.2319  0.4190
  593MOL0     H81791   7.557   8.972   8.030  0.6560  0.6558  2.2766
  593MOL0     H81792   7.316   9.281   8.238 -3.2410 -0.7098  0.5752
  593MOL0     H81793   7.046   9.514   8.226 -0.5487 -2.5112 -2.5472
  593MOL0     H81794   7.190   9.595   8.198  0.0270  0.2110 -1.6254
  593MOL0     H81795   7.198   9.458   8.309 -2.6119 -2.2951  0.4625
  593MOL0     H81796   6.950   9.743   7.801  0.4657 -1.0938  2.3950
  593MOL0     H81797   6.798   9.852   7.653 -0.0053 -0.0756  0.4258
  593MOL0     H81798   6.549   9.891   7.627  2.7235 -2.4542  1.3296
  593MOL0     H81799   6.662   9.924   7.501  0.6136 -0.4462  1.6966
  593MOL0     H81800   6.381   9.813   7.449 -0.3672 -0.0169 -1.2925
  593MOL0     H81801   6.408   9.980   7.461 -1.5113 -0.4305 -1.1808
  593MOL0     H81802   6.395   9.862   7.223  0.5077 -0.1074  1.4150
  593MOL0     H81803   6.572   9.835   7.254 -0.4551 -1.6558  0.2225
  593MOL0     H81804   6.619  10.048   7.279  2.2674 -0.4773 -2.5958
  593MOL0     H81805   6.455  10.111   7.263  0.5651  0.4078 -1.6911
  593MOL0     H81806   6.426  10.021   7.046  0.7332 -2.3620 -1.5323
  593MOL0     H81807   6.555  10.147   7.055 -2.0983  0.0516 -3.3412
  593MOL0     H81808   6.600   9.841   7.036 -0.6098  0.2664 -0.9677
  593MOL0     H81809   6.723   9.964   7.071  1.8489 -2.7488 -2.6325
  593MOL0     H81810   6.672  10.083   6.840 -1.8721 -0.1223  0.6857
  593MOL0     H81811   6.551   9.962   6.822  0.4566 -0.5221  1.0862
  593MOL0     H81812   6.749   9.800   6.813  3.1863  0.9023  3.4278
  593MOL0     H81813   6.860   9.927   6.845 -0.6248  2.2193 -0.3625
  593MOL0     H81814   6.645   9.463   7.539  1.7470 -1.2173 -0.4471
  593MOL0     H81815   6.765   9.371   7.704  1.4101 -0.6521 -1.1802
  593MOL0     H81816   7.121   9.306   7.791 -0.1452 -1.5526  0.7454
  593MOL0     H81817   7.291   9.141   7.832 -0.6808  1.5890 -0.9605
  593MOL0     H81818   8.943   8.310   7.868  1.9085  0.7017 -0.4790
  593MOL0     H81819   9.098   8.223   8.028  0.3826  0.5103  0.6049
  593MOL0     H81820   9.094   8.197   8.522  0.3685  0.6224 -4.1274
  593MOL0     H81821   9.180   8.123   8.735 -1.6760  1.7637 -0.2922
  593MOL0     H81822   9.613   8.035   8.885 -0.5207 -2.6927 -6.1351
  593MOL0     H81823   9.591   8.185   8.785  0.3620  2.5155  2.9776
  593MOL0     H81824   9.406   8.131   9.024 -0.6786 -0.1112 -1.8973
  593MOL0     H81825   9.425   8.283   8.930  1.1925  1.7321  2.2475
  593MOL0     H81826   9.664   8.298   9.025  2.0098 -1.1048  2.9246
  593MOL0     H81827   9.528   8.307   9.136 -2.3266  0.3520 -1.1071
  593MOL0     H81828   9.726   8.184   9.201  0.7859  2.8160 -1.7212
  593MOL0     H81829   9.725   8.097   9.053 -3.5625 -1.7426 -2.1638
  593MOL0     H81830   9.549   7.807   9.263  0.0145  0.3227  1.2980
  593MOL0     H81831   9.574   8.091   8.579  0.4582 -1.7781 -4.3014
  593MOL0     H81832   9.496   8.315   8.297  3.1643 -0.4639 -4.6572
  593MOL0     H81833   9.629   8.233   8.390 -0.7774 -1.0192  0.3126
  593MOL0     H81834   9.532   8.142   8.263  0.7545 -0.2426 -0.5983
  594MOL0     O81835   6.868   8.202   8.779  0.2441  0.2437 -0.7277
  594MOL0     C81836   6.766   8.232   8.715 -1.3219 -0.5247 -0.5538
  594MOL0     O81837   6.723   8.169   8.593 -0.6735 -0.4584 -1.3125
  594MOL0     C81838   6.793   8.068   8.537 -0.0197  0.0780  0.8972
  594MOL0     C81839   6.823   7.959   8.611 -0.1076  1.0616  0.1996
  594MOL0     C81840   6.886   7.848   8.560 -0.1798  0.5437  0.1329
  594MOL0     C81841   6.927   7.843   8.421 -0.8458 -0.1449  0.6662
  594MOL0     O81842   6.991   7.741   8.360  0.1450  1.0294  0.0253
  594MOL0     C81843   7.054   7.639   8.438 -0.4117  0.2556 -0.4473
  594MOL0     C81844   6.955   7.526   8.479  0.8799 -0.4833  0.0817
  594MOL0     C81845   6.995   7.461   8.601  0.7322  0.0403 -0.6748
  594MOL0     C81846   7.086   7.344   8.550 -0.0022 -0.3385  0.2304
  594MOL0     C81847   7.102   7.237   8.650 -0.2800  0.9795 -0.5952
  594MOL0     C81848   7.228   7.158   8.626 -2.0237 -0.4122  0.1909
  594MOL0     C81849   7.227   7.056   8.499  0.4981 -0.6943 -0.4194
  594MOL0     C81850   7.376   7.001   8.467  0.6030 -0.5297 -0.6235
  594MOL0     N81851   7.428   6.911   8.572  0.2351  0.5817  0.8512
  594MOL0     C81852   7.355   6.806   8.622 -0.2064  1.0838 -0.6153
  594MOL0     C81853   7.438   6.741   8.712  0.3271 -0.2773 -0.2289
  594MOL0     C81854   7.427   6.609   8.809  0.5317  1.0941  0.3158
  594MOL0     C81855   7.549   6.522   8.808  0.8484  0.3674 -0.7095
  594MOL0     C81856   7.563   6.467   8.951  0.3125  0.7781  1.3122
  594MOL0     C81857   7.692   6.385   8.951  0.8245  0.5676 -0.0966
  594MOL0     O81858   7.667   6.252   8.891  0.1360 -0.4516  0.0162
  594MOL0     C81859   7.771   6.185   8.827  0.2593 -0.6645 -0.2631
  594MOL0     C81860   7.894   6.192   8.885  1.0651 -0.5669 -0.6923
  594MOL0     C81861   8.003   6.143   8.813  1.0190  0.7389 -0.0843
  594MOL0     C81862   8.134   6.167   8.886 -1.0442  0.6168  0.0171
  594MOL0     C81863   7.989   6.076   8.692  0.0571  0.0590 -0.3575
  594MOL0     C81864   8.106   6.031   8.606  0.9907 -0.1484 -0.2727
  594MOL0     O81865   8.069   5.945   8.500 -0.5161 -0.3080 -0.5740
  594MOL0     C81866   8.168   5.885   8.425 -0.0260  0.5729  0.3700
  594MOL0     C81867   8.225   5.941   8.308  0.4175  0.1401 -0.2191
  594MOL0     C81868   8.339   5.885   8.255 -0.8006 -0.0236  0.3155
  594MOL0     C81869   8.397   5.764   8.301 -0.9574  0.2196  0.0989
  594MOL0     O81870   8.498   5.707   8.233  0.6511  0.3702  0.5788
  594MOL0     C81871   8.586   5.603   8.287 -0.5710  0.0628  0.3321
  594MOL0     C81872   8.709   5.656   8.357  0.4527  0.5436 -0.7088
  594MOL0     C81873   8.783   5.542   8.430 -0.1802 -0.0644  0.5877
  594MOL0     C81874   8.882   5.615   8.523  0.4468 -0.3215 -0.8623
  594MOL0     C81875   9.007   5.535   8.563  0.5856 -0.2262  0.5660
  594MOL0     C81876   8.965   5.413   8.639  0.5695  1.1577  0.3709
  594MOL0     C81877   9.081   5.382   8.734  0.6075 -0.4335  0.5470
  594MOL0     C81878   9.034   5.272   8.828 -0.1047 -0.3621  0.2343
  594MOL0    Cl81879   9.063   5.300   9.003 -0.3693 -0.0199 -0.2698
  594MOL0     C81880   8.330   5.696   8.402 -0.4431  0.2045  0.0033
  594MOL0     C81881   8.220   5.758   8.465  0.1228 -0.1874  0.5592
  594MOL0     O81882   8.218   6.063   8.635 -0.0567 -0.5783  0.1539
  594MOL0     C81883   7.853   6.048   8.648  0.2516 -0.6214  0.1005
  594MOL0     C81884   7.748   6.108   8.716  0.6718 -0.1090 -0.2564
  594MOL0     N81885   7.554   6.815   8.719 -0.2565 -0.2562  0.5995
  594MOL0     N81886   7.537   6.920   8.647 -0.3079 -0.0992 -0.1721
  594MOL0     C81887   6.893   7.964   8.348 -0.5598  0.6464 -0.7385
  594MOL0     C81888   6.828   8.078   8.397 -0.4766 -0.1032 -0.6299
  594MOL0     C81889   6.693   8.354   8.765 -0.0489 -0.0665  0.3316
  594MOL0     C81890   6.773   8.461   8.808 -0.1321 -0.5517 -0.0058
  594MOL0     C81891   6.718   8.586   8.839 -0.3370  0.4379  0.1733
  594MOL0     C81892   6.584   8.593   8.833  0.5114 -0.3461 -0.2578
  594MOL0     O81893   6.517   8.697   8.892  0.5426  0.2532 -0.1250
  594MOL0     C81894   6.580   8.800   8.974  0.6062  0.2034 -0.3496
  594MOL0     C81895   6.459   8.865   9.034 -0.2173 -0.3101 -0.2963
  594MOL0     C81896   6.383   8.946   8.928  0.9626  0.0875 -0.7016
  594MOL0     C81897   6.253   9.001   8.997  0.2688 -0.4028 -0.9996
  594MOL0     C81898   6.174   8.887   9.028  0.0025  0.0855 -0.5615
  594MOL0     C81899   6.118   8.776   9.052  0.3232 -0.7316  0.9635
  594MOL0     C81900   6.503   8.496   8.778  0.4142 -0.8628  0.3634
  594MOL0     C81901   6.555   8.370   8.744  0.1810 -0.2857 -0.3263
  594MOL0     C81902   6.474   8.255   8.710  0.8570  0.3108  0.0864
  594MOL0     H81903   6.800   7.956   8.717  1.9244 -0.7047  0.6742
  594MOL0     H81904   6.904   7.769   8.632 -0.1138  0.2238 -0.2321
  594MOL0     H81905   7.094   7.688   8.527  1.6243  3.6475 -3.0153
  594MOL0     H81906   7.137   7.588   8.389  1.0706 -0.6057  2.7018
  594MOL0     H81907   6.860   7.572   8.510  1.6227 -1.6664  4.8911
  594MOL0     H81908   6.937   7.457   8.396 -0.1286 -0.2667  0.1037
  594MOL0     H81909   7.043   7.523   8.677  0.7046 -3.8893  2.8901
  594MOL0     H81910   6.908   7.411   8.646 -0.1164  1.9198 -0.1369
  594MOL0     H81911   7.040   7.303   8.460 -1.2930  2.2344 -0.3696
  594MOL0     H81912   7.189   7.376   8.531  1.4353 -2.3917  3.6080
  594MOL0     H81913   7.024   7.160   8.643  2.8769 -2.5222 -0.5491
  594MOL0     H81914   7.107   7.284   8.748  1.2594 -0.0460 -0.1470
  594MOL0     H81915   7.312   7.226   8.606 -3.0539  0.5533 -1.0117
  594MOL0     H81916   7.268   7.102   8.712  1.0603 -1.3529 -1.6942
  594MOL0     H81917   7.178   7.098   8.411 -0.9799 -2.9329 -0.7669
  594MOL0     H81918   7.160   6.979   8.540 -1.9988  1.8444  0.5882
  594MOL0     H81919   7.384   6.941   8.375 -0.8139  1.9445 -2.4841
  594MOL0     H81920   7.439   7.087   8.442 -0.9688  0.5652 -0.9535
  594MOL0     H81921   7.258   6.762   8.599  0.4279 -1.0350  0.4586
  594MOL0     H81922   7.347   6.551   8.765  3.1908 -0.6177 -2.6962
  594MOL0     H81923   7.408   6.648   8.910 -3.2777 -0.0228  0.1763
  594MOL0     H81924   7.529   6.439   8.740  1.2189 -3.3212  3.2383
  594MOL0     H81925   7.632   6.581   8.766 -2.0245  2.3835 -4.0497
  594MOL0     H81926   7.581   6.549   9.021 -0.9044  1.9632  0.2922
  594MOL0     H81927   7.476   6.407   8.980 -2.1585  2.8355 -1.2678
  594MOL0     H81928   7.778   6.424   8.896  0.5183  0.4318 -0.6846
  594MOL0     H81929   7.713   6.374   9.057 -1.6954 -2.8868  0.2156
  594MOL0     H81930   7.908   6.239   8.982 -0.5413  1.5912 -1.4121
  594MOL0     H81931   8.119   6.197   8.990  1.7820 -1.3543  1.1221
  594MOL0     H81932   8.186   6.243   8.828 -0.5707 -3.0260 -4.9784
  594MOL0     H81933   8.189   6.072   8.887  0.3128  1.2780 -2.5145
  594MOL0     H81934   8.191   6.039   8.278  0.2782 -0.0253 -0.6027
  594MOL0     H81935   8.387   5.937   8.173  2.8664 -0.6532  1.8460
  594MOL0     H81936   8.534   5.543   8.362 -2.9673  0.6438 -0.7709
  594MOL0     H81937   8.617   5.538   8.205 -1.2020 -4.6075  3.4258
  594MOL0     H81938   8.775   5.711   8.289  2.0402  0.3807  0.6345
  594MOL0     H81939   8.680   5.722   8.440 -1.1129 -0.9036 -0.0616
  594MOL0     H81940   8.848   5.492   8.357  2.1222  1.4563  1.4608
  594MOL0     H81941   8.708   5.474   8.471 -1.1209  0.2594 -0.5331
  594MOL0     H81942   8.838   5.655   8.615  1.4314 -0.2364 -0.4134
  594MOL0     H81943   8.917   5.704   8.469 -1.1635  0.8713 -0.0540
  594MOL0     H81944   9.075   5.511   8.482 -0.7773 -1.0183 -0.3933
  594MOL0     H81945   9.066   5.605   8.622  0.1410  0.5500  0.1039
  594MOL0     H81946   8.937   5.334   8.568 -3.4679  2.1658  0.6201
  594MOL0     H81947   8.882   5.449   8.700 -0.7331  0.0943 -0.7023
  594MOL0     H81948   9.083   5.472   8.796 -1.0385  0.8547 -1.1618
  594MOL0     H81949   9.180   5.361   8.695 -0.8913 -0.7073 -3.6037
  594MOL0     H81950   9.089   5.180   8.809 -2.2103 -2.6475  3.9201
  594MOL0     H81951   8.927   5.262   8.804  0.4404 -1.3616 -2.0579
  594MOL0     H81952   8.349   5.591   8.424 -1.6115 -0.3252 -1.3752
  594MOL0     H81953   8.172   5.714   8.552 -1.5158 -1.4833 -0.9404
  594MOL0     H81954   7.840   6.009   8.548  2.9018 -0.8928 -0.2038
  594MOL0     H81955   7.646   6.114   8.680 -0.0165  5.5947  1.5781
  594MOL0     H81956   6.922   7.978   8.244 -1.8992  1.7065 -0.9978
  594MOL0     H81957   6.825   8.160   8.326  4.2912 -0.2332 -1.2951
  594MOL0     H81958   6.881   8.447   8.813  0.5538  2.4575 -2.8297
  594MOL0     H81959   6.774   8.671   8.877 -1.1630  2.0954 -2.0544
  594MOL0     H81960   6.654   8.758   9.042 -0.0906 -3.9101 -1.8110
  594MOL0     H81961   6.623   8.876   8.908 -0.6186 -0.0165 -1.4380
  594MOL0     H81962   6.489   8.929   9.118 -0.1991 -0.2759 -0.3289
  594MOL0     H81963   6.396   8.787   9.077  2.5647 -2.5580  0.0551
  594MOL0     H81964   6.448   9.027   8.896  3.8698 -2.0712 -0.6351
  594MOL0     H81965   6.351   8.881   8.846  2.7702  1.1071 -2.3049
  594MOL0     H81966   6.200   9.082   8.946 -1.4581  1.4756  3.2426
  594MOL0     H81967   6.292   9.055   9.084  0.9767 -0.4691 -1.2727
  594MOL0     H81968   6.062   8.686   9.060 -0.6376 -0.4723 -1.7153
  594MOL0     H81969   6.398   8.523   8.767  0.9289  1.7792  1.3139
  594MOL0     H81970   6.370   8.289   8.711  1.2582  1.5761  0.0437
  594MOL0     H81971   6.487   8.214   8.609  0.5526  2.1280 -0.7276
  594MOL0     H81972   6.494   8.175   8.782  0.7247 -3.9375 -4.1059
  595MOL0     O81973   3.803   0.484   5.628 -0.8953 -0.0289 -0.2597
  595MOL0     C81974   3.871   0.436   5.535 -0.0694  0.0799 -0.2291
  595MOL0     O81975   3.902   0.508   5.423  0.5878 -0.8295  0.0634
  595MOL0     C81976   3.870   0.642   5.417  0.6817 -0.1024 -0.2616
  595MOL0     C81977   3.871   0.724   5.520 -0.7304 -0.5861  0.7956
  595MOL0     C81978   3.848   0.856   5.501  0.2517 -0.5820  0.0057
  595MOL0     C81979   3.811   0.908   5.372 -1.3522 -1.4789  0.4241
  595MOL0     O81980   3.788   1.043   5.344  0.3780  0.2204 -0.4920
  595MOL0     C81981   3.677   1.086   5.423 -0.5516  0.5459 -0.2213
  595MOL0     C81982   3.557   1.129   5.337 -0.0823 -0.0163  0.7519
  595MOL0     C81983   3.549   1.272   5.261 -0.2400  0.0367 -0.6968
  595MOL0     C81984   3.654   1.276   5.145  0.2597 -1.0557 -0.4445
  595MOL0     C81985   3.644   1.400   5.057  0.0284 -0.8108  0.8339
  595MOL0     C81986   3.690   1.532   5.115  0.0355  0.6511 -0.3553
  595MOL0     C81987   3.631   1.665   5.056  0.0167  0.0423  0.0259
  595MOL0     C81988   3.492   1.707   5.116  0.2992 -0.9650 -0.6249
  595MOL0     N81989   3.470   1.849   5.127 -0.4516 -0.1365 -0.2693
  595MOL0     C81990   3.447   1.931   5.020  0.0529  0.6797 -0.1982
  595MOL0     C81991   3.418   2.050   5.074 -0.0862  0.2612 -0.1771
  595MOL0     C81992   3.384   2.179   4.997 -0.0960  1.1455  0.5680
  595MOL0     C81993   3.409   2.307   5.086 -0.5560 -0.0162  0.1722
  595MOL0     C81994   3.387   2.437   5.003  0.9494 -0.1931  0.1581
  595MOL0     C81995   3.445   2.553   5.084 -0.3146 -0.2390 -0.1447
  595MOL0     O81996   3.444   2.669   5.001  0.7339 -0.0221  0.0185
  595MOL0     C81997   3.317   2.727   4.962 -0.5332 -0.8928 -0.1936
  595MOL0     C81998   3.331   2.803   4.845 -0.4422  0.0299 -0.2751
  595MOL0     C81999   3.211   2.855   4.792 -0.7534 -0.3937 -0.8828
  595MOL0     C82000   3.222   2.949   4.668 -0.4042  0.4696 -0.3188
  595MOL0     C82001   3.094   2.822   4.857  0.2061 -0.6157 -0.4565
  595MOL0     C82002   2.971   2.888   4.813 -0.9233  1.2434  0.3050
  595MOL0     O82003   2.906   2.815   4.718  1.0284  0.5787  1.3323
  595MOL0     C82004   2.769   2.831   4.721  0.3868  0.9739 -0.2545
  595MOL0     C82005   2.682   2.721   4.744  0.3752  0.0722 -1.0441
  595MOL0     C82006   2.544   2.737   4.740 -0.4443 -0.5324 -0.3437
  595MOL0     C82007   2.487   2.866   4.713  0.9506  0.1167  0.8546
  595MOL0     O82008   2.350   2.861   4.697  0.2587 -0.6890  0.5914
  595MOL0     C82009   2.286   2.953   4.613  0.6409  0.7097 -0.5129
  595MOL0     C82010   2.188   2.880   4.521 -0.2208  0.6651  0.7561
  595MOL0     C82011   2.257   2.821   4.398 -0.5300  0.0523 -0.1838
  595MOL0     C82012   2.226   2.681   4.368  0.3632  1.0317  0.5603
  595MOL0     C82013   2.305   2.635   4.233  0.8321 -0.0119 -0.0537
  595MOL0     C82014   2.288   2.734   4.105 -0.0331  0.7892 -0.4403
  595MOL0     C82015   2.356   2.667   3.982 -0.6876  0.6344  0.2914
  595MOL0     C82016   2.345   2.740   3.847  0.5229 -0.7345  0.4294
  595MOL0    Cl82017   2.179   2.734   3.781  0.0492 -0.3925 -0.6821
  595MOL0     C82018   2.568   2.978   4.698  0.8482  0.0206  0.0726
  595MOL0     C82019   2.707   2.956   4.704  0.6987  0.3973  0.1755
  595MOL0     O82020   2.934   2.986   4.878 -0.2453 -0.5528 -0.3121
  595MOL0     C82021   3.083   2.748   4.974 -0.6509  0.5285  0.6157
  595MOL0     C82022   3.198   2.707   5.027 -0.4623  0.3275  0.3107
  595MOL0     N82023   3.423   2.037   5.217  0.8585 -0.1149 -0.2030
  595MOL0     N82024   3.460   1.920   5.247  0.4421 -0.1079 -0.0583
  595MOL0     C82025   3.836   0.832   5.262 -0.2347  1.2063  0.2392
  595MOL0     C82026   3.861   0.694   5.285  0.7373  0.5625  0.6572
  595MOL0     C82027   3.936   0.304   5.546 -1.0590  0.0263 -0.5499
  595MOL0     C82028   4.043   0.271   5.462 -0.3689 -0.0099 -0.0933
  595MOL0     C82029   4.110   0.152   5.463 -0.1357  0.3855 -0.1932
  595MOL0     C82030   4.102   0.066   5.572  1.0654  0.4954  0.6703
  595MOL0     O82031   4.192  -0.042   5.587 -0.2269  0.2382  0.5575
  595MOL0     C82032   4.323  -0.015   5.608 -0.2366  0.4627 -0.0007
  595MOL0     C82033   4.416  -0.049   5.486  0.3566  0.0620  0.9691
  595MOL0     C82034   4.422  -0.200   5.472  0.1441  0.8134 -1.1579
  595MOL0     C82035   4.561  -0.247   5.503  0.6627 -0.2590 -0.2706
  595MOL0     C82036   4.579  -0.391   5.493 -0.8945 -0.1424  1.0594
  595MOL0     C82037   4.591  -0.508   5.514  0.4846 -0.1223  0.0881
  595MOL0     C82038   3.991   0.085   5.662 -0.7514  0.1670  0.1545
  595MOL0     C82039   3.910   0.209   5.651 -0.1173  0.6031  0.2232
  595MOL0     C82040   3.798   0.217   5.745  0.4131 -0.7231 -0.6169
  595MOL0     H82041   3.889   0.695   5.623  0.3519 -1.1163  0.4777
  595MOL0     H82042   3.856   0.927   5.582 -3.3480  1.1617 -0.9709
  595MOL0     H82043   3.710   1.166   5.490 -1.5370  0.6507  0.1521
  595MOL0     H82044   3.643   1.005   5.489 -2.8573  3.6318  2.7320
  595MOL0     H82045   3.530   1.049   5.267  0.7387  0.7166 -0.4273
  595MOL0     H82046   3.483   1.136   5.418 -1.7032  1.9804 -0.7808
  595MOL0     H82047   3.447   1.284   5.225 -0.9797 -2.0995  0.5293
  595MOL0     H82048   3.566   1.349   5.337  0.0696 -1.5778  0.9489
  595MOL0     H82049   3.745   1.283   5.206  0.5111 -2.6315 -0.5808
  595MOL0     H82050   3.655   1.182   5.089  2.6609 -1.8919  0.8281
  595MOL0     H82051   3.545   1.427   5.018 -0.0738  0.6751  2.0389
  595MOL0     H82052   3.707   1.379   4.970 -0.9059 -0.3862  0.0342
  595MOL0     H82053   3.660   1.535   5.220 -2.1798  4.2327 -0.9142
  595MOL0     H82054   3.799   1.534   5.126  0.0944 -0.7636 -0.5491
  595MOL0     H82055   3.631   1.666   4.947  0.0384  1.3717  0.0143
  595MOL0     H82056   3.698   1.747   5.086 -0.6181  0.3870  0.5478
  595MOL0     H82057   3.416   1.658   5.055 -0.7471  0.8298 -0.8248
  595MOL0     H82058   3.492   1.677   5.221  0.7591  0.3456 -0.2235
  595MOL0     H82059   3.442   1.908   4.914 -0.0686  0.8087 -0.2199
  595MOL0     H82060   3.281   2.170   4.963 -0.3155 -0.8542  1.6243
  595MOL0     H82061   3.461   2.188   4.921  1.1888  1.3130  1.8368
  595MOL0     H82062   3.348   2.305   5.177  0.3386  1.1817  0.8208
  595MOL0     H82063   3.508   2.303   5.131 -1.0550 -3.4959  1.2909
  595MOL0     H82064   3.430   2.435   4.902  0.3483  0.1589 -0.1133
  595MOL0     H82065   3.281   2.451   4.981  1.0201  1.0094  0.5491
  595MOL0     H82066   3.377   2.577   5.166 -1.2462  1.3088 -1.3270
  595MOL0     H82067   3.541   2.538   5.135  0.1503  0.1262 -0.8873
  595MOL0     H82068   3.422   2.818   4.787 -1.3494  2.7365 -1.1382
  595MOL0     H82069   3.189   3.053   4.681  1.6050  1.0775  0.2915
  595MOL0     H82070   3.156   2.902   4.595 -0.3081 -0.3734  0.1196
  595MOL0     H82071   3.324   2.949   4.630 -0.4885  2.8635 -0.6901
  595MOL0     H82072   2.738   2.628   4.748 -0.5558 -0.4732 -0.6277
  595MOL0     H82073   2.497   2.641   4.759  2.1731 -1.7043  0.6179
  595MOL0     H82074   2.218   3.023   4.663  0.5125 -0.4421  1.0095
  595MOL0     H82075   2.352   3.027   4.568 -1.7161  3.3998  0.1209
  595MOL0     H82076   2.138   2.792   4.562 -0.3639 -0.2851 -1.3247
  595MOL0     H82077   2.114   2.951   4.484 -2.4913 -2.4984 -1.3115
  595MOL0     H82078   2.365   2.827   4.416 -0.0609 -2.5202 -1.6247
  595MOL0     H82079   2.232   2.888   4.314  0.9961  1.8949  0.7393
  595MOL0     H82080   2.120   2.676   4.344 -0.0533 -0.3721  2.4628
  595MOL0     H82081   2.241   2.611   4.451 -3.3072 -1.1404 -0.3755
  595MOL0     H82082   2.412   2.632   4.258  0.5637  2.5797  1.9081
  595MOL0     H82083   2.273   2.534   4.209 -1.3923  1.2208 -2.8905
  595MOL0     H82084   2.331   2.831   4.132 -1.9090  1.4256  0.4270
  595MOL0     H82085   2.181   2.746   4.087 -0.1091  1.8074  0.6196
  595MOL0     H82086   2.306   2.571   3.971  1.3905 -0.9899  3.5418
  595MOL0     H82087   2.462   2.654   4.008  0.2730  0.2493 -3.2775
  595MOL0     H82088   2.409   2.707   3.765 -2.1299 -1.7182 -1.4012
  595MOL0     H82089   2.369   2.846   3.861 -0.6187  0.0561 -2.6898
  595MOL0     H82090   2.520   3.074   4.682 -2.7055 -0.7371  4.0652
  595MOL0     H82091   2.763   3.043   4.671  2.0360 -1.2144 -2.0221
  595MOL0     H82092   2.990   2.723   5.024  1.2866 -3.3001  2.7593
  595MOL0     H82093   3.203   2.650   5.119  2.9419 -1.8591 -0.9973
  595MOL0     H82094   3.820   0.863   5.159  0.4789  1.8188  0.3044
  595MOL0     H82095   3.877   0.630   5.199 -4.9902 -0.4154 -0.0944
  595MOL0     H82096   4.082   0.330   5.379 -0.3903 -0.0531 -0.1338
  595MOL0     H82097   4.195   0.135   5.398  0.4478 -0.2081  0.7091
  595MOL0     H82098   4.340   0.090   5.632 -0.3386  0.6715 -0.7919
  595MOL0     H82099   4.352  -0.078   5.693  1.9941 -0.3213 -1.2549
  595MOL0     H82100   4.515  -0.003   5.494 -0.2324  1.9178 -1.2620
  595MOL0     H82101   4.381  -0.011   5.390 -2.1049 -1.6876  1.0744
  595MOL0     H82102   4.342  -0.250   5.527  0.1692  0.8970 -1.0434
  595MOL0     H82103   4.411  -0.227   5.367 -1.3965 -0.3922 -0.7126
  595MOL0     H82104   4.581  -0.221   5.608  0.3453 -2.6955  0.4634
  595MOL0     H82105   4.627  -0.200   5.430  0.5260  0.8275  0.2870
  595MOL0     H82106   4.592  -0.613   5.535 -3.1488  0.0598  1.8390
  595MOL0     H82107   3.981   0.008   5.738  1.7904 -4.7110 -3.8795
  595MOL0     H82108   3.801   0.150   5.832 -0.7713 -0.4620 -0.3531
  595MOL0     H82109   3.778   0.317   5.785 -1.3273 -1.7720  1.3219
  595MOL0     H82110   3.715   0.193   5.678  0.5562 -0.9188 -0.7273
  596MOL0     O82111   0.974   3.213   9.565  0.5403 -0.1191 -0.3804
  596MOL0     C82112   0.916   3.247   9.667  0.3501 -0.4945  0.2830
  596MOL0     O82113   0.778   3.234   9.690 -0.7476  0.1004  0.0708
  596MOL0     C82114   0.700   3.213   9.580  0.6641  0.5506  0.3161
  596MOL0     C82115   0.682   3.308   9.488  0.4342 -0.5274 -0.2197
  596MOL0     C82116   0.592   3.305   9.383 -0.7362  0.7660  0.0287
  596MOL0     C82117   0.512   3.184   9.372 -0.0479  0.8839 -0.7012
  596MOL0     O82118   0.401   3.184   9.288 -0.8721  0.1499  0.2127
  596MOL0     C82119   0.387   3.287   9.198  0.0813 -0.6895  0.3437
  596MOL0     C82120   0.273   3.258   9.090 -1.1580  0.1945 -0.3741
  596MOL0     C82121   0.316   3.208   8.955  0.4886  0.3093  0.4023
  596MOL0     C82122   0.366   3.061   8.968  0.2580 -1.5155  0.3768
  596MOL0     C82123   0.395   3.011   8.829 -0.0358 -0.4226  0.2701
  596MOL0     C82124   0.471   2.875   8.821  0.9554  1.1381 -0.5085
  596MOL0     C82125   0.407   2.755   8.890 -0.0276  0.6260 -0.3611
  596MOL0     C82126   0.261   2.719   8.840 -0.7491 -0.1780 -0.0263
  596MOL0     N82127   0.169   2.707   8.946  1.0369  0.7974 -0.0580
  596MOL0     C82128   0.083   2.805   8.985 -0.6892 -1.0686  0.3280
  596MOL0     C82129   0.031   2.773   9.098 -0.7178 -0.1459 -0.3400
  596MOL0     C82130  -0.050   2.871   9.168  0.4008 -0.8880  0.2812
  596MOL0     C82131  -0.015   2.886   9.318 -0.5315  1.4975 -0.0643
  596MOL0     C82132   0.101   2.982   9.344  0.0341  0.3448 -0.6928
  596MOL0     C82133   0.128   2.984   9.491  0.6422 -0.0837 -0.1069
  596MOL0     O82134   0.155   2.851   9.561  0.4610 -0.8782  0.4730
  596MOL0     C82135   0.274   2.790   9.556 -0.4005  1.0432 -0.1098
  596MOL0     C82136   0.324   2.746   9.433 -0.2026  0.0748  0.2238
  596MOL0     C82137   0.443   2.668   9.418 -0.0109 -0.4285 -0.5554
  596MOL0     C82138   0.480   2.638   9.285 -0.0554 -0.8108  0.3923
  596MOL0     C82139   0.507   2.639   9.540  0.2275  0.7482  0.0465
  596MOL0     C82140   0.632   2.552   9.550  0.2566  0.5302 -0.4911
  596MOL0     O82141   0.672   2.485   9.664  0.2489 -0.6706 -0.2606
  596MOL0     C82142   0.786   2.405   9.659 -0.2159 -0.0554  0.4571
  596MOL0     C82143   0.924   2.441   9.652 -0.2246 -0.3856  1.1449
  596MOL0     C82144   1.022   2.350   9.648 -0.5911  0.1367  0.4706
  596MOL0     C82145   1.006   2.215   9.629 -0.3444 -0.6452  0.4521
  596MOL0     O82146   1.117   2.132   9.624  0.4801  0.5930  0.2560
  596MOL0     C82147   1.237   2.172   9.694  0.3646 -0.1078 -1.2995
  596MOL0     C82148   1.331   2.052   9.708  0.2126  0.3606  0.2773
  596MOL0     C82149   1.249   1.932   9.767 -0.2494  0.4473 -0.4403
  596MOL0     C82150   1.341   1.817   9.793  0.7184  0.7227  0.1372
  596MOL0     C82151   1.253   1.703   9.839 -0.0116  0.2584 -0.6072
  596MOL0     C82152   1.336   1.597   9.910  0.9665  1.2104 -0.1365
  596MOL0     C82153   1.444   1.536   9.818  0.6044  0.2290 -0.6142
  596MOL0     C82154   1.528   1.434   9.897 -0.9842 -1.1997 -0.0968
  596MOL0    Cl82155   1.619   1.321   9.773  0.7331 -0.2661 -0.3892
  596MOL0     C82156   0.870   2.169   9.635  0.6952  0.4908  0.0651
  596MOL0     C82157   0.762   2.267   9.644 -0.1334 -0.0226  0.6902
  596MOL0     O82158   0.689   2.518   9.442 -0.2583 -0.9500 -0.8083
  596MOL0     C82159   0.472   2.693   9.659 -0.3712 -0.6504 -0.1874
  596MOL0     C82160   0.353   2.767   9.674  0.9259 -0.2852  0.0053
  596MOL0     N82161   0.085   2.647   9.134 -0.0202  0.1318  0.3669
  596MOL0     N82162   0.169   2.612   9.044  0.1215 -0.1332  0.7011
  596MOL0     C82163   0.530   3.079   9.460 -0.5553  0.1324  0.4932
  596MOL0     C82164   0.630   3.093   9.563  0.5656 -0.9168 -0.6307
  596MOL0     C82165   0.995   3.300   9.783 -0.3323  0.8984  0.2670
  596MOL0     C82166   0.922   3.346   9.889  0.7369 -0.5127 -0.2837
  596MOL0     C82167   0.986   3.426   9.991  0.4712  0.4088 -0.0499
  596MOL0     C82168   1.118   3.436   9.997 -1.0765  0.0769 -0.1100
  596MOL0     O82169   1.209   3.495  10.089 -0.2108  0.2145  0.4289
  596MOL0     C82170   1.157   3.546  10.211 -0.3628  0.0235 -0.0795
  596MOL0     C82171   1.136   3.433  10.312  0.2173  0.4552 -0.2768
  596MOL0     C82172   1.269   3.359  10.334  0.1580 -0.3367 -0.5792
  596MOL0     C82173   1.266   3.232  10.246 -0.8853  0.2146  0.6643
  596MOL0     C82174   1.389   3.156  10.272 -0.4336 -0.0429 -0.7398
  596MOL0     C82175   1.482   3.077  10.280 -0.6659  0.2483 -0.4332
  596MOL0     C82176   1.190   3.373   9.894  0.3908 -0.1503 -0.0447
  596MOL0     C82177   1.138   3.311   9.784  0.1993 -0.2896  0.1818
  596MOL0     C82178   1.234   3.278   9.675 -0.2708 -0.1368  0.2335
  596MOL0     H82179   0.731   3.403   9.510  0.4058 -0.1614 -1.5837
  596MOL0     H82180   0.574   3.389   9.317 -0.9767 -1.2002 -2.5713
  596MOL0     H82181   0.483   3.302   9.146 -0.9548 -2.0233 -2.1290
  596MOL0     H82182   0.353   3.376   9.250  0.1207 -0.8742  0.6866
  596MOL0     H82183   0.204   3.185   9.134 -0.5596  0.8646  1.7736
  596MOL0     H82184   0.205   3.342   9.076 -1.0019  0.8256  2.1784
  596MOL0     H82185   0.234   3.210   8.882  0.7254 -0.9188  0.0760
  596MOL0     H82186   0.382   3.272   8.895 -2.8525  1.0464 -2.9056
  596MOL0     H82187   0.451   3.069   9.037 -0.3657  3.2250  0.9624
  596MOL0     H82188   0.280   3.013   9.015 -0.2144  0.6653  1.8811
  596MOL0     H82189   0.446   3.094   8.780  0.8632 -0.9723  0.2543
  596MOL0     H82190   0.303   2.997   8.771  0.7234 -0.3463 -0.9607
  596MOL0     H82191   0.484   2.841   8.718  2.1027  0.3100 -0.1104
  596MOL0     H82192   0.572   2.895   8.858 -0.2091  3.5686  1.6452
  596MOL0     H82193   0.402   2.772   8.998 -2.6615 -1.5085 -0.0543
  596MOL0     H82194   0.473   2.669   8.875  0.7833  0.9380  1.2491
  596MOL0     H82195   0.228   2.792   8.765  0.6282  0.2447 -0.2564
  596MOL0     H82196   0.269   2.622   8.790 -2.6562  1.1017 -3.1065
  596MOL0     H82197   0.064   2.895   8.926  1.0339  0.1465  1.5465
  596MOL0     H82198  -0.156   2.850   9.150  0.1442 -0.0399  0.7569
  596MOL0     H82199  -0.034   2.962   9.110 -2.0580 -0.9531 -0.6113
  596MOL0     H82200  -0.107   2.904   9.373  0.8340  2.6828  1.9945
  596MOL0     H82201   0.021   2.791   9.358 -4.0442  0.0124 -0.1375
  596MOL0     H82202   0.192   2.936   9.304  0.1591 -3.4265  3.2615
  596MOL0     H82203   0.079   3.086   9.319  0.7148  0.8352  0.6612
  596MOL0     H82204   0.201   3.062   9.513  0.2020 -0.1099  1.6349
  596MOL0     H82205   0.033   3.021   9.530  0.6828  0.2852 -0.3606
  596MOL0     H82206   0.266   2.768   9.343 -3.2960 -1.2648  1.7437
  596MOL0     H82207   0.578   2.685   9.272 -0.2732 -1.0326 -2.6770
  596MOL0     H82208   0.425   2.690   9.206 -1.7831 -2.3278  0.5191
  596MOL0     H82209   0.474   2.531   9.263 -2.1405 -0.6635  0.0811
  596MOL0     H82210   0.965   2.541   9.649  0.6539 -0.7627 -0.4373
  596MOL0     H82211   1.125   2.386   9.651 -0.4134 -0.3189  0.0324
  596MOL0     H82212   1.294   2.245   9.635  1.7076  1.3303  1.5896
  596MOL0     H82213   1.212   2.199   9.797 -1.3261 -5.2462 -0.0564
  596MOL0     H82214   1.390   2.038   9.617  1.6040 -0.1481  1.2285
  596MOL0     H82215   1.412   2.071   9.779  0.2163  2.0216 -0.1499
  596MOL0     H82216   1.183   1.903   9.685  0.6012  1.7949 -1.6671
  596MOL0     H82217   1.209   1.958   9.865  1.5449 -2.5670  1.2672
  596MOL0     H82218   1.398   1.856   9.877 -0.2052  1.6768  0.3363
  596MOL0     H82219   1.404   1.803   9.705  0.4739  3.5055 -0.5745
  596MOL0     H82220   1.177   1.733   9.913 -0.3909  1.5536 -1.4853
  596MOL0     H82221   1.204   1.662   9.750 -0.0256  1.0008 -0.9493
  596MOL0     H82222   1.272   1.513   9.940  0.3732  0.9678 -1.9521
  596MOL0     H82223   1.385   1.646   9.995 -0.1312 -1.9276  2.5575
  596MOL0     H82224   1.513   1.616   9.789 -0.2298  1.6471  1.0867
  596MOL0     H82225   1.395   1.490   9.732  2.5006 -0.7680 -1.2219
  596MOL0     H82226   1.464   1.375   9.963 -0.3518 -0.9306  0.7646
  596MOL0     H82227   1.604   1.496   9.945 -2.1505  3.8500 -3.8400
  596MOL0     H82228   0.847   2.063   9.633 -2.8685  1.0761 -4.3370
  596MOL0     H82229   0.662   2.225   9.652 -0.6179  0.9301 -0.1761
  596MOL0     H82230   0.532   2.681   9.749  0.7317  1.1498 -0.6418
  596MOL0     H82231   0.317   2.792   9.773 -2.8471 -2.4976 -0.6134
  596MOL0     H82232   0.488   2.979   9.460 -5.0570  1.8050  1.5919
  596MOL0     H82233   0.668   3.009   9.620  2.3138  2.0610  3.0389
  596MOL0     H82234   0.814   3.346   9.900  0.7793 -3.2460  0.7801
  596MOL0     H82235   0.913   3.468  10.060  0.1015  2.3108 -1.5304
  596MOL0     H82236   1.226   3.623  10.246  1.1949 -2.3808  2.5988
  596MOL0     H82237   1.058   3.591  10.213 -1.5938 -2.4948  2.2581
  596MOL0     H82238   1.049   3.376  10.279  0.4490 -0.5675  0.8179
  596MOL0     H82239   1.100   3.475  10.407 -1.4505  0.1912 -0.7674
  596MOL0     H82240   1.356   3.416  10.303  1.3306 -1.4181  0.6070
  596MOL0     H82241   1.275   3.332  10.440  1.4689 -1.0315 -0.8118
  596MOL0     H82242   1.269   3.268  10.142  1.5904 -0.5802  0.3913
  596MOL0     H82243   1.177   3.169  10.257 -0.0168 -1.3557 -0.8821
  596MOL0     H82244   1.572   3.018  10.277 -2.2647 -2.3381 -1.2154
  596MOL0     H82245   1.297   3.392   9.901  0.5941 -1.3549  0.2816
  596MOL0     H82246   1.338   3.257   9.703 -0.1568  2.7452  2.4174
  596MOL0     H82247   1.192   3.184   9.639 -2.5304  0.6935  0.5780
  596MOL0     H82248   1.241   3.353   9.596  2.3208 -0.7029 -0.1671
  597MOL0     O82249   4.834   0.559   4.596 -0.3763  0.2779 -0.3925
  597MOL0     C82250   4.869   0.587   4.476  0.4151 -0.1142 -0.2432
  597MOL0     O82251   4.981   0.650   4.448 -0.1078 -0.2483  0.4618
  597MOL0     C82252   5.079   0.665   4.544  0.0926  0.0187  0.0259
  597MOL0     C82253   5.148   0.793   4.549  1.4881  0.0941  0.5533
  597MOL0     C82254   5.246   0.816   4.642  0.2418 -0.1081  0.4669
  597MOL0     C82255   5.291   0.711   4.730  1.7733 -0.2473 -0.2826
  597MOL0     O82256   5.399   0.740   4.810  0.1854  0.0046 -0.1579
  597MOL0     C82257   5.359   0.770   4.938  0.4192  0.3104 -0.0641
  597MOL0     C82258   5.440   0.685   5.025  0.0221 -0.0559 -0.0093
  597MOL0     C82259   5.395   0.714   5.172 -0.3918  0.8585  0.5752
  597MOL0     C82260   5.492   0.647   5.265  0.1325 -0.4530 -0.7971
  597MOL0     C82261   5.452   0.640   5.406 -0.0636 -0.0023 -0.6779
  597MOL0     C82262   5.434   0.775   5.468  0.1446  0.2712  1.1191
  597MOL0     C82263   5.387   0.766   5.614  0.4087 -0.3010  1.0562
  597MOL0     C82264   5.440   0.891   5.686  0.0847 -0.0777 -0.3588
  597MOL0     N82265   5.382   0.920   5.818 -0.1846 -0.0573 -0.0328
  597MOL0     C82266   5.292   1.022   5.833 -1.0044  1.1049 -0.6742
  597MOL0     C82267   5.280   1.022   5.976  0.0197 -0.0269 -0.0814
  597MOL0     C82268   5.175   1.101   6.054  0.6712  0.2295 -0.3262
  597MOL0     C82269   5.216   1.247   6.064  0.2391  0.3097 -0.6750
  597MOL0     C82270   5.100   1.348   6.059  1.3940  0.0162 -0.9701
  597MOL0     C82271   5.113   1.459   6.153 -0.4994  1.0651  0.4478
  597MOL0     O82272   5.063   1.414   6.273 -0.4621  1.0006  0.0485
  597MOL0     C82273   5.026   1.510   6.369 -0.3206 -0.2949  0.9088
  597MOL0     C82274   5.119   1.595   6.431  0.5038 -0.6650 -0.9089
  597MOL0     C82275   5.081   1.689   6.535  0.1623  1.0786 -0.0291
  597MOL0     C82276   5.199   1.755   6.597 -0.2420  0.4522 -0.5930
  597MOL0     C82277   4.942   1.691   6.576  0.1118 -0.9352  0.4841
  597MOL0     C82278   4.902   1.789   6.676  0.4623  0.4565  0.2189
  597MOL0     O82279   4.980   1.825   6.783  0.2160  0.2039 -0.5822
  597MOL0     C82280   4.945   1.933   6.861 -0.3105  0.4930  0.1749
  597MOL0     C82281   4.857   1.934   6.965  0.1154  0.2164  0.7731
  597MOL0     C82282   4.842   2.051   7.047 -0.3792  0.5270  0.9420
  597MOL0     C82283   4.906   2.172   7.021 -1.3141 -0.5516  1.7929
  597MOL0     O82284   4.894   2.287   7.089  0.0960 -0.0980 -0.7761
  597MOL0     C82285   4.762   2.308   7.131  0.9938 -0.3297  0.7753
  597MOL0     C82286   4.767   2.431   7.231 -0.3746  1.2835  0.4370
  597MOL0     C82287   4.832   2.396   7.358 -0.8915  0.2141 -0.1573
  597MOL0     C82288   4.840   2.504   7.456 -0.5535 -0.6377 -0.7396
  597MOL0     C82289   4.904   2.630   7.413 -0.1904 -0.1002  0.2786
  597MOL0     C82290   5.059   2.622   7.386 -0.1662 -0.0477 -0.6686
  597MOL0     C82291   5.152   2.667   7.501 -0.2337 -0.0229 -0.4312
  597MOL0     C82292   5.199   2.554   7.592  0.1581  0.2029 -0.2419
  597MOL0    Cl82293   5.278   2.646   7.716  0.2543  0.1432 -0.4565
  597MOL0     C82294   4.991   2.167   6.905 -0.1250 -0.3513  1.1974
  597MOL0     C82295   5.022   2.047   6.842 -0.3032 -0.2617  0.1837
  597MOL0     O82296   4.794   1.843   6.650 -0.1550 -0.1494  0.2347
  597MOL0     C82297   4.853   1.605   6.509  0.5894  0.1419  0.9373
  597MOL0     C82298   4.897   1.517   6.409  0.4617 -0.4305 -0.0091
  597MOL0     N82299   5.375   0.923   6.021  0.7070 -0.4174  0.3191
  597MOL0     N82300   5.430   0.857   5.926  0.0447 -0.9656  0.3739
  597MOL0     C82301   5.222   0.590   4.735  0.3613 -0.6550 -0.0705
  597MOL0     C82302   5.121   0.566   4.638 -0.9353  0.3477  0.2171
  597MOL0     C82303   4.777   0.559   4.357 -0.4774 -0.3387 -0.3815
  597MOL0     C82304   4.800   0.640   4.245 -0.5669 -0.3727  0.2007
  597MOL0     C82305   4.732   0.604   4.121 -0.5888 -0.3415 -0.4584
  597MOL0     C82306   4.632   0.516   4.118  0.3923  0.9901 -0.8721
  597MOL0     O82307   4.557   0.512   4.003  0.0458  0.7544 -0.8047
  597MOL0     C82308   4.458   0.403   3.989 -0.3892 -0.5514 -0.3068
  597MOL0     C82309   4.407   0.425   3.845  0.8486  0.5929 -0.0824
  597MOL0     C82310   4.326   0.298   3.805 -0.1752 -0.3974  0.1929
  597MOL0     C82311   4.285   0.303   3.654 -0.1496  0.0117 -0.2607
  597MOL0     C82312   4.367   0.367   3.554 -0.4471  0.4663  0.4808
  597MOL0     C82313   4.434   0.408   3.468  0.0291  0.5254 -0.8431
  597MOL0     C82314   4.598   0.443   4.236 -0.6383  0.1179  0.5538
  597MOL0     C82315   4.686   0.460   4.348 -0.0865 -0.0921  0.5869
  597MOL0     C82316   4.646   0.374   4.464 -0.1454  0.7344  0.5410
  597MOL0     H82317   5.131   0.868   4.472 -1.5114 -0.3769  0.6068
  597MOL0     H82318   5.318   0.894   4.620  0.9541 -1.3024 -1.8606
  597MOL0     H82319   5.253   0.766   4.965  0.7465 -0.2126  1.2774
  597MOL0     H82320   5.390   0.873   4.956 -2.2432  0.9915  1.1625
  597MOL0     H82321   5.421   0.578   5.009  1.3831 -0.1489 -1.1595
  597MOL0     H82322   5.547   0.706   5.019 -0.2632  1.6702  0.5232
  597MOL0     H82323   5.397   0.821   5.193 -2.6750  1.2460 -0.7678
  597MOL0     H82324   5.293   0.681   5.195  0.0034 -0.6673  0.2732
  597MOL0     H82325   5.497   0.542   5.234  0.7405 -0.3014 -1.2123
  597MOL0     H82326   5.592   0.691   5.258 -1.3033  3.0439 -1.4876
  597MOL0     H82327   5.536   0.589   5.454  0.6246  1.0316 -0.7432
  597MOL0     H82328   5.356   0.587   5.411 -1.0901  1.9115  2.7551
  597MOL0     H82329   5.530   0.826   5.456  0.9468 -1.3707  0.1975
  597MOL0     H82330   5.364   0.846   5.422  0.0229 -0.6705 -0.2038
  597MOL0     H82331   5.438   0.682   5.663  1.0591 -0.2358  0.5106
  597MOL0     H82332   5.282   0.741   5.628  0.7385 -1.8238  0.9756
  597MOL0     H82333   5.549   0.884   5.688  0.0586 -0.5097  1.4022
  597MOL0     H82334   5.412   0.974   5.620  2.5808 -0.5219 -2.0730
  597MOL0     H82335   5.224   1.065   5.760  1.6487  0.3268 -3.8309
  597MOL0     H82336   5.161   1.058   6.154 -1.4033  2.4830  0.4381
  597MOL0     H82337   5.079   1.095   6.002 -1.4198  1.0125  3.1510
  597MOL0     H82338   5.272   1.270   6.155 -0.3484 -1.8948  0.3057
  597MOL0     H82339   5.279   1.273   5.978  1.5427  0.5913  0.3382
  597MOL0     H82340   5.103   1.386   5.957  0.1995  0.4950 -0.8384
  597MOL0     H82341   4.998   1.309   6.062  0.8143  1.4868  1.1526
  597MOL0     H82342   5.215   1.499   6.161  1.1970 -2.9810  2.3548
  597MOL0     H82343   5.039   1.527   6.111  1.1499  2.5340 -0.1998
  597MOL0     H82344   5.224   1.588   6.406  0.4205 -2.8338 -0.8429
  597MOL0     H82345   5.192   1.709   6.696 -1.8083 -0.2200 -0.9829
  597MOL0     H82346   5.177   1.861   6.613  0.1329  0.6128 -1.1270
  597MOL0     H82347   5.296   1.754   6.546 -0.8284  1.9310 -1.8334
  597MOL0     H82348   4.787   1.855   6.992 -0.2966  0.8443  1.5985
  597MOL0     H82349   4.774   2.043   7.131  0.4603  0.8569  1.6745
  597MOL0     H82350   4.707   2.333   7.039  0.2503  1.5084  1.6722
  597MOL0     H82351   4.707   2.228   7.180 -1.3379 -0.0036 -1.1340
  597MOL0     H82352   4.807   2.515   7.173  1.5335  0.3762  0.3725
  597MOL0     H82353   4.668   2.461   7.264 -0.5802 -0.4953  1.5855
  597MOL0     H82354   4.932   2.353   7.359 -0.5285  0.9797  2.0416
  597MOL0     H82355   4.759   2.328   7.403 -0.1946  0.7247  1.8588
  597MOL0     H82356   4.902   2.470   7.539  1.4069 -0.1776 -1.9552
  597MOL0     H82357   4.736   2.514   7.491 -0.8260  0.3677 -1.7940
  597MOL0     H82358   4.857   2.655   7.317  2.2949 -0.6268 -1.1821
  597MOL0     H82359   4.880   2.703   7.490  1.2698  0.9623 -0.2194
  597MOL0     H82360   5.084   2.691   7.305 -1.1510 -0.3728 -1.2603
  597MOL0     H82361   5.094   2.523   7.354 -1.5234 -0.3406 -1.3123
  597MOL0     H82362   5.102   2.742   7.563  1.5337 -0.5296  1.7170
  597MOL0     H82363   5.248   2.702   7.463  1.6458 -3.3682  0.8594
  597MOL0     H82364   5.267   2.499   7.527  1.9006  1.7906  0.1517
  597MOL0     H82365   5.112   2.504   7.636 -0.0126 -0.4959 -1.3353
  597MOL0     H82366   5.047   2.255   6.877  2.6957 -2.5546 -0.5926
  597MOL0     H82367   5.092   2.039   6.760 -0.6359 -1.9041  0.0278
  597MOL0     H82368   4.749   1.607   6.540  0.6218 -1.4677  1.1928
  597MOL0     H82369   4.821   1.457   6.362 -0.2248 -1.2364  2.0255
  597MOL0     H82370   5.248   0.526   4.818 -1.6105 -1.3271  0.0979
  597MOL0     H82371   5.054   0.481   4.650 -1.3086  1.0051  4.2009
  597MOL0     H82372   4.870   0.723   4.247 -1.8927  0.7912  0.8311
  597MOL0     H82373   4.752   0.660   4.029  2.0953 -0.3335  0.0529
  597MOL0     H82374   4.505   0.307   4.009 -2.2337 -1.0283  2.2078
  597MOL0     H82375   4.375   0.400   4.060 -0.5267  0.7835 -0.3897
  597MOL0     H82376   4.485   0.442   3.770  0.4636  0.0502 -0.6110
  597MOL0     H82377   4.343   0.513   3.849 -1.5549 -1.1007  1.0450
  597MOL0     H82378   4.384   0.207   3.824  0.4219  0.6021  3.8538
  597MOL0     H82379   4.236   0.298   3.867  1.1681  1.5729  2.3095
  597MOL0     H82380   4.188   0.352   3.640  0.2813  0.2436 -2.9216
  597MOL0     H82381   4.273   0.200   3.621 -0.3317  0.5128 -1.8049
  597MOL0     H82382   4.490   0.454   3.390  0.6703  0.2528 -0.5472
  597MOL0     H82383   4.514   0.374   4.234 -1.5187  1.1676  0.0986
  597MOL0     H82384   4.578   0.293   4.438  0.3691  0.2549  0.6928
  597MOL0     H82385   4.733   0.339   4.520 -0.8548 -1.6682  0.2553
  597MOL0     H82386   4.593   0.432   4.540 -0.7004 -0.9393  1.4676
  598MOL0     O82387   9.819   2.107   0.314 -0.1132  0.3704 -0.7920
  598MOL0     C82388   9.897   2.156   0.404  0.4338  0.3645  0.3215
  598MOL0     O82389   9.891   2.123   0.530 -0.6126  0.5350 -0.4447
  598MOL0     C82390   9.798   2.033   0.582  0.3089 -0.4124 -0.7825
  598MOL0     C82391   9.666   2.060   0.611 -0.7717  0.0424 -0.6662
  598MOL0     C82392   9.586   1.951   0.666 -0.0885 -0.3634  0.4161
  598MOL0     C82393   9.644   1.824   0.690 -0.7958 -0.5876  0.0751
  598MOL0     O82394   9.554   1.728   0.728  0.3266 -0.5401 -0.2364
  598MOL0     C82395   9.608   1.625   0.815  0.3717 -1.6510 -0.8197
  598MOL0     C82396   9.511   1.508   0.816 -0.3169 -0.5257  0.3871
  598MOL0     C82397   9.580   1.378   0.837 -0.4272  0.2063 -1.2476
  598MOL0     C82398   9.476   1.274   0.879 -0.7817 -0.8668  0.4495
  598MOL0     C82399   9.509   1.128   0.843 -0.5509 -0.1920 -1.1307
  598MOL0     C82400   9.607   1.061   0.948 -0.8296  0.4049 -0.4223
  598MOL0     C82401   9.554   1.033   1.090  0.0643  0.6171  0.0852
  598MOL0     C82402   9.625   0.920   1.158 -0.3951 -0.3492  0.2307
  598MOL0     N82403   9.772   0.926   1.137 -1.0714 -0.3922 -0.6448
  598MOL0     C82404   9.868   0.972   1.236  0.3264  0.0791 -0.0050
  598MOL0     C82405   9.987   0.933   1.181  0.5462  0.1437  0.2979
  598MOL0     C82406  10.110   0.935   1.266 -0.0216 -0.0363  0.1932
  598MOL0     C82407  10.226   0.833   1.233  0.8813  0.2904 -0.2773
  598MOL0     C82408  10.202   0.693   1.300  0.2049 -0.2074  0.7913
  598MOL0     C82409  10.339   0.633   1.332  1.5464  0.1362  0.4745
  598MOL0     O82410  10.400   0.694   1.449  0.0886 -0.2468  0.1455
  598MOL0     C82411  10.508   0.629   1.522 -0.0851 -1.3763  0.2226
  598MOL0     C82412  10.540   0.497   1.493 -0.3498 -0.3221 -0.3635
  598MOL0     C82413  10.633   0.439   1.581  0.1793  0.6090  0.4063
  598MOL0     C82414  10.665   0.290   1.562  0.5305 -0.8802  0.1480
  598MOL0     C82415  10.691   0.514   1.685 -0.7950 -0.1636 -0.4208
  598MOL0     C82416  10.785   0.459   1.788  0.1641  0.3315  0.1379
  598MOL0     O82417  10.883   0.541   1.836 -0.0339  0.1387  0.5559
  598MOL0     C82418  10.995   0.485   1.898  0.8601  0.9814  0.2024
  598MOL0     C82419  10.992   0.372   1.991 -0.0613 -0.2469 -0.1784
  598MOL0     C82420  11.101   0.327   2.070  0.4278 -0.5515 -0.4682
  598MOL0     C82421  11.226   0.387   2.041  0.0994  0.1985  0.5188
  598MOL0     O82422  11.338   0.353   2.111 -0.1425 -0.6805  0.5213
  598MOL0     C82423  11.344   0.218   2.136 -0.3927 -0.6858  0.5187
  598MOL0     C82424  11.483   0.167   2.193  0.0938  0.2865 -0.0306
  598MOL0     C82425  11.518   0.221   2.334  0.1921  0.4496  1.2478
  598MOL0     C82426  11.645   0.141   2.385 -0.1210 -1.3739 -0.0970
  598MOL0     C82427  11.605   0.030   2.475 -0.3156  0.2560 -0.3447
  598MOL0     C82428  11.570   0.073   2.613  0.4295 -0.0279  0.3238
  598MOL0     C82429  11.558  -0.029   2.723 -0.0981  0.4321 -0.5699
  598MOL0     C82430  11.542   0.038   2.861  0.1852 -0.2684 -0.2269
  598MOL0    Cl82431  11.422   0.169   2.847  0.1259  0.2337 -0.4312
  598MOL0     C82432  11.235   0.483   1.939  0.3645  1.0708  0.1153
  598MOL0     C82433  11.117   0.538   1.876 -0.8684 -0.6596  0.0392
  598MOL0     O82434  10.754   0.348   1.835  0.0471  0.5089 -0.2259
  598MOL0     C82435  10.668   0.659   1.701 -1.7735 -0.4748 -0.0303
  598MOL0     C82436  10.562   0.708   1.619 -0.6860  0.2969 -0.9716
  598MOL0     N82437   9.967   0.863   1.066  0.5419  0.1014  0.1644
  598MOL0     N82438   9.842   0.862   1.035  0.4376 -0.2877 -0.8613
  598MOL0     C82439   9.782   1.807   0.671 -0.7004 -1.0695 -0.3443
  598MOL0     C82440   9.851   1.913   0.606 -0.0945 -0.3288 -0.5138
  598MOL0     C82441   9.998   2.248   0.361 -0.7384 -0.0917 -0.3910
  598MOL0     C82442  10.063   2.217   0.246 -0.3542 -0.6990  0.2256
  598MOL0     C82443  10.167   2.295   0.201  0.2832 -0.1005  0.4590
  598MOL0     C82444  10.229   2.384   0.282 -0.3225 -0.6956 -0.4345
  598MOL0     O82445  10.346   2.438   0.238  1.5477  0.7463 -0.2941
  598MOL0     C82446  10.417   2.534   0.315 -0.7022 -0.3429 -0.0071
  598MOL0     C82447  10.397   2.684   0.285  0.1660 -0.1760  1.2661
  598MOL0     C82448  10.392   2.712   0.133 -0.4498  0.3494 -0.0392
  598MOL0     C82449  10.356   2.853   0.105 -1.7700 -0.3993 -0.7080
  598MOL0     C82450  10.216   2.888   0.115  1.0143 -0.0089  1.7786
  598MOL0     C82451  10.092   2.910   0.106  0.6978  0.4861  0.1397
  598MOL0     C82452  10.163   2.417   0.403 -0.2201 -0.5777  0.4956
  598MOL0     C82453  10.044   2.356   0.441  0.0177 -0.3946 -0.4343
  598MOL0     C82454   9.983   2.407   0.569 -0.1502  0.4584 -0.5074
  598MOL0     H82455   9.618   2.156   0.592  0.5202  0.5924 -1.2978
  598MOL0     H82456   9.479   1.966   0.665  0.0088  0.6335  1.9851
  598MOL0     H82457   9.628   1.667   0.914 -0.0264 -0.8699 -1.0658
  598MOL0     H82458   9.689   1.568   0.769 -2.6495 -3.7408 -4.1060
  598MOL0     H82459   9.423   1.518   0.880  0.5904 -2.1276  1.9636
  598MOL0     H82460   9.473   1.496   0.714 -2.3259  1.8875  0.7506
  598MOL0     H82461   9.624   1.347   0.742 -0.0234  0.6366 -1.1986
  598MOL0     H82462   9.660   1.391   0.909  0.3471  1.6591 -2.3224
  598MOL0     H82463   9.483   1.294   0.986  0.9505  2.4887 -0.1311
  598MOL0     H82464   9.373   1.292   0.848 -0.0144 -0.8872 -2.4365
  598MOL0     H82465   9.528   1.134   0.736 -0.3751  1.4730 -1.0403
  598MOL0     H82466   9.417   1.070   0.854 -1.1377  0.2044 -3.5006
  598MOL0     H82467   9.628   0.964   0.903  1.6300  0.3121  0.7537
  598MOL0     H82468   9.703   1.113   0.955  0.4386 -1.9055  0.6391
  598MOL0     H82469   9.448   1.017   1.072  0.5122 -0.3420 -1.9035
  598MOL0     H82470   9.555   1.123   1.153  2.1576  0.6538  0.0943
  598MOL0     H82471   9.583   0.920   1.259 -0.6699  1.9721  0.1652
  598MOL0     H82472   9.584   0.837   1.099 -3.1033  1.2666 -0.3264
  598MOL0     H82473   9.844   1.019   1.331 -2.2691  0.8915 -0.9808
  598MOL0     H82474  10.072   0.924   1.368  3.3533  0.3002  1.6306
  598MOL0     H82475  10.156   1.035   1.258 -0.8081  0.4036  1.0061
  598MOL0     H82476  10.256   0.828   1.128 -0.9474  1.1429 -0.8802
  598MOL0     H82477  10.306   0.875   1.294  1.2361  0.9661 -1.1875
  598MOL0     H82478  10.137   0.708   1.386 -2.8372 -1.1803 -1.1939
  598MOL0     H82479  10.153   0.623   1.233  1.5051 -0.8718  0.4914
  598MOL0     H82480  10.309   0.531   1.356 -1.6812  1.0760  0.9812
  598MOL0     H82481  10.407   0.631   1.246  0.3627 -4.1941 -0.6244
  598MOL0     H82482  10.482   0.457   1.410  0.9414 -0.1096 -1.3890
  598MOL0     H82483  10.664   0.265   1.456 -1.2022 -0.4840  0.0437
  598MOL0     H82484  10.592   0.219   1.600  0.4483 -0.9152 -0.0766
  598MOL0     H82485  10.771   0.266   1.580  1.3390  2.0943 -0.0237
  598MOL0     H82486  10.896   0.336   2.028 -1.2235  4.1059  1.6250
  598MOL0     H82487  11.082   0.260   2.153  0.0891 -1.4918 -1.2840
  598MOL0     H82488  11.267   0.193   2.210 -0.5181  0.4951  0.7939
  598MOL0     H82489  11.318   0.177   2.037  0.0792  1.7494 -0.6728
  598MOL0     H82490  11.485   0.058   2.203  2.8143  0.4540  2.9761
  598MOL0     H82491  11.566   0.191   2.125 -1.3607 -0.8957 -2.3703
  598MOL0     H82492  11.430   0.206   2.397  1.6291 -2.5527  2.7589
  598MOL0     H82493  11.540   0.327   2.328 -0.7896  0.6907  1.6434
  598MOL0     H82494  11.712   0.210   2.436  1.1037 -3.4115  1.1676
  598MOL0     H82495  11.701   0.094   2.304 -1.0999 -0.5169 -1.3032
  598MOL0     H82496  11.521  -0.027   2.434  0.2666 -0.3000 -0.7856
  598MOL0     H82497  11.690  -0.038   2.490 -0.2492  0.3890 -0.1000
  598MOL0     H82498  11.482   0.138   2.614  1.0575  0.8424 -0.0093
  598MOL0     H82499  11.658   0.127   2.652  1.4699 -0.5734 -1.1907
  598MOL0     H82500  11.643  -0.098   2.728 -1.6690 -1.6680 -1.4622
  598MOL0     H82501  11.477  -0.099   2.703 -1.6731  0.7706  3.6098
  598MOL0     H82502  11.635   0.089   2.887  1.6502 -3.1513  0.6110
  598MOL0     H82503  11.522  -0.032   2.943  0.0042  0.8723  0.7373
  598MOL0     H82504  11.330   0.529   1.911 -0.4308  0.8650 -3.3630
  598MOL0     H82505  11.136   0.616   1.803  1.5864 -2.5108 -1.4719
  598MOL0     H82506  10.716   0.728   1.770 -2.6013 -1.9233  2.0831
  598MOL0     H82507  10.533   0.812   1.633  1.3610  0.5783  2.3321
  598MOL0     H82508   9.842   1.718   0.688 -0.2763 -0.2722  3.0229
  598MOL0     H82509   9.954   1.910   0.573  0.1057 -2.5826  0.1323
  598MOL0     H82510  10.031   2.138   0.179  3.1111 -2.1923  0.1433
  598MOL0     H82511  10.210   2.294   0.101 -0.6464  2.7035 -0.0887
  598MOL0     H82512  10.401   2.517   0.422 -0.5944 -0.3741  0.0035
  598MOL0     H82513  10.521   2.516   0.287 -0.9183 -0.0839 -1.0246
  598MOL0     H82514  10.463   2.754   0.337 -2.9078  1.3950  3.4177
  598MOL0     H82515  10.301   2.716   0.327 -0.4181  3.7300 -2.3614
  598MOL0     H82516  10.490   2.686   0.093  0.6419 -0.2106  2.7587
  598MOL0     H82517  10.322   2.648   0.078  2.4064 -3.2721  0.0871
  598MOL0     H82518  10.398   2.892   0.012  1.2941  3.2636  1.8515
  598MOL0     H82519  10.396   2.917   0.185  0.7098  0.7836 -2.7325
  598MOL0     H82520   9.987   2.925   0.124  1.2049  0.9392  3.2916
  598MOL0     H82521  10.198   2.497   0.468  1.4745 -3.5804  3.5698
  598MOL0     H82522  10.013   2.346   0.655 -0.6280 -0.1865 -0.7850
  598MOL0     H82523  10.010   2.509   0.597 -0.8656 -0.4710  4.5990
  598MOL0     H82524   9.875   2.413   0.555 -0.0472  3.7452 -0.6653
  599MOL0     O82525   7.891   2.146   9.830 -0.4025  0.4448  0.5886
  599MOL0     C82526   7.779   2.176   9.849  0.8786 -0.4773 -0.2501
  599MOL0     O82527   7.740   2.286   9.921 -0.1256  0.7501 -0.4705
  599MOL0     C82528   7.841   2.351   9.978  0.1110 -1.4250 -0.8161
  599MOL0     C82529   7.908   2.452   9.905  0.0884 -0.3867 -0.2253
  599MOL0     C82530   7.999   2.531   9.972 -0.3801  0.1662 -1.2415
  599MOL0     C82531   8.027   2.517  10.109  0.5163  0.2104 -0.6704
  599MOL0     O82532   8.127   2.594  10.159  0.3346  0.6618 -0.2958
  599MOL0     C82533   8.209   2.524  10.250 -0.1759  0.8257  0.4436
  599MOL0     C82534   8.332   2.616  10.282 -0.0806  0.5999 -0.3036
  599MOL0     C82535   8.279   2.755  10.315 -0.5130  0.6222 -0.9121
  599MOL0     C82536   8.393   2.836  10.386 -0.2481  0.9973  0.4294
  599MOL0     C82537   8.341   2.974  10.434  0.1426  0.2673 -0.4541
  599MOL0     C82538   8.455   3.083  10.450 -0.4710  1.0350 -0.2328
  599MOL0     C82539   8.497   3.087  10.597  0.3528 -0.9334 -0.1069
  599MOL0     C82540   8.578   3.218  10.631 -0.5039  0.4912  0.0306
  599MOL0     N82541   8.510   3.352  10.599 -1.4753 -0.1176  0.7208
  599MOL0     C82542   8.385   3.382  10.580  1.6482 -0.8383 -0.3621
  599MOL0     C82543   8.366   3.514  10.581  0.2328 -0.6099 -0.5745
  599MOL0     C82544   8.236   3.593  10.576 -0.1881 -0.1735 -0.3879
  599MOL0     C82545   8.198   3.643  10.727 -0.1641  0.8968  0.8797
  599MOL0     C82546   8.082   3.733  10.730  1.1771 -0.5848  0.3847
  599MOL0     C82547   8.075   3.818  10.855 -0.4624 -0.1310  1.3170
  599MOL0     O82548   7.955   3.886  10.852 -0.2183 -0.9377  0.6086
  599MOL0     C82549   7.960   4.015  10.796  0.2994 -0.6891 -0.7870
  599MOL0     C82550   8.055   4.053  10.703  0.9385  0.8695 -0.2154
  599MOL0     C82551   8.047   4.184  10.646 -0.8112 -0.6993  0.1438
  599MOL0     C82552   8.134   4.218  10.521 -0.3995 -0.3034 -0.0301
  599MOL0     C82553   7.959   4.277  10.707  0.1736 -0.7186  0.1868
  599MOL0     C82554   7.960   4.422  10.672 -0.0201 -0.7322  0.3985
  599MOL0     O82555   7.912   4.454  10.550  0.4305  0.2153  0.3653
  599MOL0     C82556   7.902   4.590  10.501  0.4238  0.2429  0.2570
  599MOL0     C82557   7.832   4.692  10.570  0.0493  0.2371 -0.5111
  599MOL0     C82558   7.829   4.821  10.517 -0.1622  0.0893  0.0504
  599MOL0     C82559   7.884   4.852  10.396  0.5119  0.2802  0.5298
  599MOL0     O82560   7.839   4.968  10.333 -0.5584 -0.6862  0.0912
  599MOL0     C82561   7.928   5.072  10.371  0.7209 -0.4818 -0.0102
  599MOL0     C82562   7.847   5.207  10.400 -0.3651  0.5951 -0.6456
  599MOL0     C82563   7.809   5.285  10.270  0.5960  0.3030  0.1616
  599MOL0     C82564   7.919   5.365  10.206 -0.0310  0.1692  0.1005
  599MOL0     C82565   7.868   5.494  10.155  0.1470  0.3944  0.1126
  599MOL0     C82566   7.806   5.594  10.259  0.4118 -1.1436 -0.1928
  599MOL0     C82567   7.882   5.634  10.380 -0.1379 -0.3910 -0.4267
  599MOL0     C82568   8.015   5.689  10.351  0.0495 -0.9407 -0.3259
  599MOL0    Cl82569   8.060   5.772  10.512 -0.2169  0.2521  0.0422
  599MOL0     C82570   7.957   4.753  10.328 -0.7856 -0.0199  0.3279
  599MOL0     C82571   7.959   4.618  10.379 -0.0154 -0.5598  0.2134
  599MOL0     O82572   8.009   4.505  10.750  0.2171  0.0136 -0.3554
  599MOL0     C82573   7.872   4.242  10.805  0.4647  0.3917  0.9934
  599MOL0     C82574   7.868   4.110  10.857 -0.5914 -0.5741  0.6061
  599MOL0     N82575   8.488   3.572  10.608 -0.5749 -0.1228 -0.6072
  599MOL0     N82576   8.574   3.475  10.622 -0.1060 -0.2905  0.7286
  599MOL0     C82577   7.953   2.420  10.186  0.9703 -0.3488  0.0726
  599MOL0     C82578   7.866   2.345  10.115  0.3916  0.8364  0.4860
  599MOL0     C82579   7.673   2.100   9.764 -0.1627 -0.5730  0.0223
  599MOL0     C82580   7.713   2.038   9.656  0.3923  0.6171 -0.4773
  599MOL0     C82581   7.616   1.988   9.565  0.0047  0.2918 -1.1208
  599MOL0     C82582   7.475   1.995   9.598 -1.9342 -0.9460 -0.0718
  599MOL0     O82583   7.376   1.947   9.518  0.2609  0.6653 -0.2530
  599MOL0     C82584   7.324   1.818   9.537 -0.0963 -0.2150  0.7860
  599MOL0     C82585   7.192   1.847   9.604 -0.3795  0.1677 -1.1974
  599MOL0     C82586   7.077   1.907   9.516 -0.4613  0.2698  0.5303
  599MOL0     C82587   6.931   1.897   9.559 -0.3877 -0.0605 -0.8781
  599MOL0     C82588   6.890   1.751   9.550  0.4896 -0.0903 -0.3219
  599MOL0     C82589   6.841   1.640   9.540  0.3894 -0.7783 -0.2498
  599MOL0     C82590   7.443   2.066   9.714  0.3685  0.4269 -0.0434
  599MOL0     C82591   7.539   2.104   9.804 -0.4958  0.3293 -1.1239
  599MOL0     C82592   7.487   2.169   9.931 -0.3647  1.2328  0.4296
  599MOL0     H82593   7.893   2.467   9.798 -0.8741 -0.4090 -0.1035
  599MOL0     H82594   8.048   2.603   9.907 -0.3171 -0.0564 -1.4417
  599MOL0     H82595   8.252   2.429  10.217 -0.7593  0.3423  1.0603
  599MOL0     H82596   8.160   2.509  10.346 -0.6761 -0.6398 -0.0195
  599MOL0     H82597   8.394   2.567  10.357  0.9869  1.8300 -0.3494
  599MOL0     H82598   8.396   2.632  10.195  0.3773  0.1076 -0.0589
  599MOL0     H82599   8.248   2.807  10.224  4.0615  2.8348 -1.4986
  599MOL0     H82600   8.198   2.746  10.387 -0.2111  0.7792 -0.5487
  599MOL0     H82601   8.442   2.770  10.458  1.4658  0.4819 -1.1359
  599MOL0     H82602   8.468   2.851  10.308  0.5964  0.1588  1.0521
  599MOL0     H82603   8.282   2.970  10.526  0.7196  2.9781  0.1309
  599MOL0     H82604   8.274   3.016  10.358  2.9048  4.8602 -0.7279
  599MOL0     H82605   8.547   3.060  10.395 -0.8997  0.9292 -0.9251
  599MOL0     H82606   8.429   3.184  10.418  1.7073  1.6820 -0.1045
  599MOL0     H82607   8.566   3.006  10.620  1.2334 -0.0633  0.4072
  599MOL0     H82608   8.416   3.070  10.668  2.0523 -3.2772  1.4276
  599MOL0     H82609   8.602   3.208  10.737  2.5383  2.1263 -0.3788
  599MOL0     H82610   8.667   3.215  10.568 -2.0364 -2.6702 -2.2644
  599MOL0     H82611   8.306   3.311  10.557 -1.5675  1.7907  1.6596
  599MOL0     H82612   8.154   3.535  10.533  2.2785 -0.3522 -5.5410
  599MOL0     H82613   8.263   3.685  10.524 -0.8255 -0.3277 -0.9975
  599MOL0     H82614   8.194   3.560  10.798  2.8015 -2.3912 -2.3933
  599MOL0     H82615   8.287   3.698  10.759  0.4472 -0.6484  1.9372
  599MOL0     H82616   8.082   3.794  10.639 -1.4201 -1.7652 -0.5082
  599MOL0     H82617   7.998   3.665  10.718 -0.9262  2.1945 -2.4696
  599MOL0     H82618   8.086   3.753  10.942  3.0975  0.0275  1.1147
  599MOL0     H82619   8.160   3.887  10.859  0.1786 -0.8826  0.8675
  599MOL0     H82620   8.149   4.008  10.675  1.0790  1.2981 -0.4500
  599MOL0     H82621   8.113   4.159  10.431  1.8931 -2.4458  0.7110
  599MOL0     H82622   8.238   4.194  10.543 -0.7006 -0.5723  1.2246
  599MOL0     H82623   8.121   4.326  10.508 -0.4071 -0.4212 -1.0552
  599MOL0     H82624   7.784   4.671  10.666  0.5794  1.3789  0.0217
  599MOL0     H82625   7.782   4.889  10.586 -1.4317 -3.0312  2.5445
  599MOL0     H82626   7.984   5.054  10.463 -0.4660 -2.8756  0.3425
  599MOL0     H82627   8.002   5.071  10.291  2.7306  0.7847  1.7245
  599MOL0     H82628   7.761   5.171  10.457 -0.2134 -4.8605 -3.3105
  599MOL0     H82629   7.902   5.276  10.466 -0.1959  1.3103 -1.5131
  599MOL0     H82630   7.725   5.348  10.300 -0.7259 -1.6201  0.6896
  599MOL0     H82631   7.771   5.217  10.193 -1.0828  0.7723  0.5426
  599MOL0     H82632   7.944   5.309  10.115 -1.7120  0.1716 -0.3941
  599MOL0     H82633   7.998   5.395  10.276 -2.1814  1.0195  2.3338
  599MOL0     H82634   7.954   5.547  10.114  1.3633 -1.1306  0.5931
  599MOL0     H82635   7.801   5.458  10.077  1.0974 -1.0586 -0.0761
  599MOL0     H82636   7.711   5.549  10.291  1.0553 -1.9744  0.6065
  599MOL0     H82637   7.775   5.695  10.230  2.1178 -1.2410 -2.6117
  599MOL0     H82638   7.895   5.547  10.446 -1.7462 -0.8489 -0.6668
  599MOL0     H82639   7.829   5.709  10.438  0.7243  0.0200 -0.1483
  599MOL0     H82640   8.001   5.764  10.272  2.7848  0.3037  0.2181
  599MOL0     H82641   8.093   5.618  10.322  0.9442  0.2064 -0.8405
  599MOL0     H82642   7.996   4.766  10.228 -0.0916 -3.1654  0.0966
  599MOL0     H82643   8.020   4.546  10.326 -0.1651  0.0573 -0.8232
  599MOL0     H82644   7.796   4.314  10.834 -0.6542  0.4349 -1.7568
  599MOL0     H82645   7.783   4.080  10.918 -1.9325  0.6417 -0.5831
  599MOL0     H82646   7.969   2.403  10.292  0.5850 -1.6822 -0.0720
  599MOL0     H82647   7.808   2.271  10.170 -1.3308 -0.2033 -2.4975
  599MOL0     H82648   7.818   2.023   9.636 -0.0772 -1.7562 -1.5073
  599MOL0     H82649   7.646   1.940   9.472 -0.3853 -0.9357 -0.6385
  599MOL0     H82650   7.303   1.783   9.436 -1.2668  1.3050  0.4782
  599MOL0     H82651   7.394   1.758   9.596 -0.2486 -0.4525  0.7283
  599MOL0     H82652   7.203   1.912   9.692 -3.4620 -2.7576  1.6439
  599MOL0     H82653   7.147   1.751   9.631  2.1612 -1.0596 -1.0410
  599MOL0     H82654   7.107   2.013   9.518  2.5120 -0.4800  1.4595
  599MOL0     H82655   7.087   1.875   9.412 -1.8858  1.8892 -0.1658
  599MOL0     H82656   6.870   1.962   9.497 -0.8648  0.6516  0.2956
  599MOL0     H82657   6.934   1.929   9.664 -1.5999 -0.7504 -0.6034
  599MOL0     H82658   6.799   1.543   9.525  2.0986 -1.7807  1.1600
  599MOL0     H82659   7.338   2.088   9.727 -0.0108 -0.8654 -0.8374
  599MOL0     H82660   7.399   2.107   9.949 -0.8956  0.1548 -4.4563
  599MOL0     H82661   7.555   2.154  10.015  0.9230 -0.2187 -0.8075
  599MOL0     H82662   7.469   2.272   9.896  0.9774  0.7287 -1.9826
  600MOL0     O82663   8.092   2.369   6.157 -0.6623  0.5805 -0.0563
  600MOL0     C82664   8.011   2.392   6.246  0.5890 -0.5167  0.0874
  600MOL0     O82665   7.870   2.404   6.226 -0.6119 -0.6420  0.4323
  600MOL0     C82666   7.826   2.364   6.106  0.4923  0.0607  0.8263
  600MOL0     C82667   7.869   2.430   5.991  0.1234  1.2356 -0.1000
  600MOL0     C82668   7.823   2.395   5.867  0.6397 -0.2937  0.1282
  600MOL0     C82669   7.728   2.287   5.850 -0.1138  0.1112  0.5874
  600MOL0     O82670   7.672   2.249   5.732 -0.4145 -0.8216 -0.6929
  600MOL0     C82671   7.780   2.209   5.651 -1.3114  0.0070 -0.0375
  600MOL0     C82672   7.723   2.117   5.544  1.1840  0.9783 -0.3949
  600MOL0     C82673   7.667   1.977   5.601 -0.1533 -0.8800 -0.4805
  600MOL0     C82674   7.649   1.962   5.753 -0.5488  0.0129 -0.2318
  600MOL0     C82675   7.634   1.811   5.789 -0.0480  0.8888  0.6298
  600MOL0     C82676   7.564   1.798   5.930 -0.1266 -0.3190  0.1616
  600MOL0     C82677   7.659   1.782   6.038  0.2526 -0.4696 -0.2990
  600MOL0     C82678   7.593   1.781   6.178 -0.1664 -0.0960  0.1464
  600MOL0     N82679   7.537   1.652   6.207  0.8938 -0.4702 -0.2016
  600MOL0     C82680   7.604   1.535   6.199  0.5824  0.4328  0.0492
  600MOL0     C82681   7.517   1.433   6.209  1.1207  0.4638  0.2689
  600MOL0     C82682   7.572   1.293   6.195 -0.2648  0.5020 -0.7801
  600MOL0     C82683   7.562   1.256   6.041 -0.3087 -0.4044  0.5231
  600MOL0     C82684   7.614   1.114   5.999  0.1587  0.5348  0.2159
  600MOL0     C82685   7.543   1.002   6.086  0.1751  0.2893 -0.6084
  600MOL0     O82686   7.596   0.873   6.040 -0.0015  0.8648 -0.7219
  600MOL0     C82687   7.725   0.841   6.074 -0.2640  0.1289 -0.2353
  600MOL0     C82688   7.758   0.722   6.012 -0.8756 -0.2403 -0.2640
  600MOL0     C82689   7.884   0.672   6.028 -0.5200 -0.2334  0.4608
  600MOL0     C82690   7.914   0.542   5.949  0.7802  0.2803  0.0180
  600MOL0     C82691   7.978   0.740   6.098 -0.5744 -0.6786 -0.8594
  600MOL0     C82692   8.117   0.688   6.137  0.4890 -0.2745 -0.1248
  600MOL0     O82693   8.181   0.614   6.050 -0.0430  0.3262  0.0285
  600MOL0     C82694   8.312   0.583   6.078  0.7038 -0.0553  0.8974
  600MOL0     C82695   8.363   0.453   6.094  0.2794  0.5933 -0.2917
  600MOL0     C82696   8.505   0.434   6.104  0.7263  0.8168 -0.3380
  600MOL0     C82697   8.593   0.542   6.121 -0.4472 -0.2025 -0.3711
  600MOL0     O82698   8.731   0.514   6.134  0.6165 -0.6081 -0.0427
  600MOL0     C82699   8.795   0.579   6.240  0.2549 -0.6960  0.1388
  600MOL0     C82700   8.918   0.505   6.299 -0.1189  0.2462  0.1701
  600MOL0     C82701   9.049   0.541   6.214  0.2432  0.0233 -0.5539
  600MOL0     C82702   9.180   0.499   6.275 -0.6250 -0.0222 -0.2552
  600MOL0     C82703   9.302   0.592   6.244 -0.6072 -0.3515  0.7186
  600MOL0     C82704   9.424   0.535   6.310 -0.5918  0.1478  0.0116
  600MOL0     C82705   9.562   0.578   6.251  0.0736  0.1910 -0.8058
  600MOL0     C82706   9.572   0.728   6.253  0.0964 -0.2905 -0.7942
  600MOL0    Cl82707   9.732   0.795   6.280 -0.0871 -0.4117 -0.1017
  600MOL0     C82708   8.548   0.677   6.111  0.7120 -0.3457  0.2366
  600MOL0     C82709   8.405   0.694   6.080  0.3070  0.5886 -0.2399
  600MOL0     O82710   8.150   0.695   6.253 -1.0469 -0.0149 -0.0276
  600MOL0     C82711   7.943   0.847   6.170 -0.4963 -0.5161 -0.3976
  600MOL0     C82712   7.822   0.908   6.149 -0.1812 -0.0157 -0.5092
  600MOL0     N82713   7.389   1.491   6.226 -0.2231 -0.0320 -1.1461
  600MOL0     N82714   7.402   1.617   6.215 -0.7564 -0.3761  0.0729
  600MOL0     C82715   7.678   2.228   5.970  0.9644 -0.0086  0.2925
  600MOL0     C82716   7.727   2.266   6.089 -0.4278  1.0660 -0.0974
  600MOL0     C82717   8.052   2.425   6.387 -0.7749 -0.5027  0.0053
  600MOL0     C82718   7.955   2.443   6.484  0.9333 -0.5055 -0.9177
  600MOL0     C82719   7.992   2.463   6.628 -0.1334  0.2724  0.2735
  600MOL0     C82720   8.122   2.476   6.667  0.5262 -0.6427  0.0256
  600MOL0     O82721   8.135   2.497   6.800  0.3347 -0.4886  0.5897
  600MOL0     C82722   8.239   2.430   6.874 -0.0919  0.3356 -0.2115
  600MOL0     C82723   8.184   2.314   6.941  0.4372  0.5756 -0.3287
  600MOL0     C82724   8.058   2.337   7.023 -0.4148 -0.6917 -0.0046
  600MOL0     C82725   8.004   2.209   7.096  0.5281  0.2326 -0.6764
  600MOL0     C82726   7.865   2.219   7.124 -0.6185  0.3431 -0.6622
  600MOL0     C82727   7.748   2.201   7.161  0.3541  0.0545 -0.3197
  600MOL0     C82728   8.220   2.467   6.571  0.0593 -0.1426 -0.3766
  600MOL0     C82729   8.190   2.423   6.439 -0.2609  0.4959  0.0768
  600MOL0     C82730   8.312   2.410   6.353 -1.1887 -0.1431 -0.3207
  600MOL0     H82731   7.946   2.503   6.013  1.1566 -0.6510  3.3408
  600MOL0     H82732   7.862   2.439   5.776  2.5352 -2.4952 -0.2143
  600MOL0     H82733   7.862   2.157   5.702  0.4487  2.5897 -0.0616
  600MOL0     H82734   7.815   2.300   5.603 -0.7500 -1.2907 -2.2139
  600MOL0     H82735   7.646   2.180   5.498  3.6082  4.1887 -0.3829
  600MOL0     H82736   7.801   2.102   5.468 -0.7435 -0.9941 -2.1209
  600MOL0     H82737   7.581   1.946   5.541  3.2714 -1.0382 -6.1122
  600MOL0     H82738   7.747   1.907   5.571  2.0556  0.7926  1.2196
  600MOL0     H82739   7.735   2.002   5.807  0.5021 -0.7015 -1.3259
  600MOL0     H82740   7.566   2.020   5.795  0.9826  2.0089  0.1687
  600MOL0     H82741   7.732   1.763   5.783  0.3398  1.6495 -4.9216
  600MOL0     H82742   7.586   1.749   5.712 -2.3310 -2.5057  4.4000
  600MOL0     H82743   7.491   1.871   5.964 -2.1672 -3.1456  2.3938
  600MOL0     H82744   7.503   1.707   5.922  0.3123 -0.4807 -4.5905
  600MOL0     H82745   7.723   1.870   6.035  1.3878 -1.2863 -0.9509
  600MOL0     H82746   7.725   1.695   6.032  1.8908  0.6041  1.0517
  600MOL0     H82747   7.656   1.813   6.261  0.0019 -0.3244  0.1070
  600MOL0     H82748   7.515   1.858   6.169  0.4428  0.3694 -1.4889
  600MOL0     H82749   7.707   1.505   6.187 -0.1616 -1.9343 -0.8674
  600MOL0     H82750   7.517   1.221   6.258 -3.4470  2.5438 -1.0417
  600MOL0     H82751   7.679   1.306   6.214 -0.6560  1.4568  1.0027
  600MOL0     H82752   7.459   1.250   6.003 -0.0216 -0.7565 -0.2010
  600MOL0     H82753   7.602   1.338   5.981 -2.1505  0.4088  0.3106
  600MOL0     H82754   7.581   1.092   5.897 -1.9658  0.2219  0.9167
  600MOL0     H82755   7.723   1.106   5.991  0.1468  1.6501 -1.7403
  600MOL0     H82756   7.571   1.007   6.191 -0.1521 -1.3950 -0.4197
  600MOL0     H82757   7.434   0.998   6.087  0.1855 -0.8759  1.4373
  600MOL0     H82758   7.681   0.666   5.959 -0.5056  0.8404 -2.0480
  600MOL0     H82759   7.989   0.570   5.875  0.5926 -2.9651 -1.5662
  600MOL0     H82760   7.828   0.505   5.892  1.2104  0.7918 -0.9919
  600MOL0     H82761   7.955   0.465   6.015  2.8664 -0.5423 -2.1127
  600MOL0     H82762   8.299   0.365   6.094 -0.3127  1.0107 -0.5978
  600MOL0     H82763   8.537   0.331   6.115  0.6405  0.5904 -1.9800
  600MOL0     H82764   8.823   0.680   6.206 -0.8572 -1.0027 -1.8615
  600MOL0     H82765   8.727   0.585   6.325  0.0754  1.4250 -0.0817
  600MOL0     H82766   8.926   0.538   6.403 -0.8137  2.0623 -0.3084
  600MOL0     H82767   8.907   0.397   6.301  5.2621 -0.5993 -0.0310
  600MOL0     H82768   9.049   0.649   6.203 -0.8735  0.3135  1.7066
  600MOL0     H82769   9.038   0.496   6.114  2.1824  1.4081 -1.4471
  600MOL0     H82770   9.207   0.399   6.239  0.0950  1.7889 -5.8161
  600MOL0     H82771   9.162   0.494   6.382 -0.8263 -1.6633 -0.3469
  600MOL0     H82772   9.327   0.597   6.138 -0.0706  0.2409  0.8633
  600MOL0     H82773   9.294   0.695   6.282  1.0009  0.5491 -1.1802
  600MOL0     H82774   9.424   0.429   6.282 -0.4893  0.7145 -2.3226
  600MOL0     H82775   9.428   0.547   6.419 -0.3854  0.2127 -0.0025
  600MOL0     H82776   9.563   0.528   6.153 -0.2165 -1.3229 -0.0766
  600MOL0     H82777   9.650   0.547   6.308  0.1074  0.7153 -0.5719
  600MOL0     H82778   9.507   0.781   6.324  2.2179 -0.1976  1.2028
  600MOL0     H82779   9.539   0.767   6.156 -0.1591 -1.2891 -1.1185
  600MOL0     H82780   8.608   0.766   6.102 -1.9211  1.2752 -4.4656
  600MOL0     H82781   8.382   0.795   6.046  2.9472  0.6156 -2.2708
  600MOL0     H82782   7.998   0.889   6.254 -3.2767 -0.0394  1.3143
  600MOL0     H82783   7.799   0.995   6.210  1.9976 -0.0146  0.4162
  600MOL0     H82784   7.598   2.155   5.965  0.8059  0.0392  1.8254
  600MOL0     H82785   7.677   2.206   6.165  0.3530 -0.1810 -0.5371
  600MOL0     H82786   7.852   2.436   6.451  1.2758 -0.5836 -2.0001
  600MOL0     H82787   7.918   2.473   6.706  1.7414  1.7431  1.9534
  600MOL0     H82788   8.315   2.405   6.799  0.6301  0.4294  0.4762
  600MOL0     H82789   8.281   2.502   6.945  0.1460  2.7654 -2.6497
  600MOL0     H82790   8.252   2.273   7.017 -2.4514  0.7017  2.5714
  600MOL0     H82791   8.158   2.243   6.863  3.6324 -0.6548 -0.4330
  600MOL0     H82792   8.069   2.424   7.088 -0.4736 -0.2815 -0.5401
  600MOL0     H82793   7.980   2.363   6.950 -1.1035  1.9447  1.5171
  600MOL0     H82794   8.052   2.209   7.195 -0.0825  0.3148 -0.3766
  600MOL0     H82795   8.030   2.119   7.040 -0.8883 -0.0634 -0.9007
  600MOL0     H82796   7.657   2.162   7.203  0.8031 -2.1814 -1.2847
  600MOL0     H82797   8.323   2.495   6.591  0.0977 -0.1740 -0.5377
  600MOL0     H82798   8.410   2.419   6.401 -0.3370 -1.3177 -1.7456
  600MOL0     H82799   8.315   2.321   6.289 -2.6515  0.6990 -1.6353
  600MOL0     H82800   8.307   2.492   6.280  2.0009  2.0387  1.6474
  601MOL0     O82801   6.016   7.459   6.549 -0.1483 -0.0588  0.3789
  601MOL0     C82802   5.897   7.435   6.573 -0.3568  0.8561  0.2031
  601MOL0     O82803   5.836   7.439   6.697 -0.1453 -0.4417  1.1636
  601MOL0     C82804   5.922   7.495   6.791  0.0897 -1.0310 -0.3874
  601MOL0     C82805   5.912   7.631   6.829  0.3599 -0.4369  0.8794
  601MOL0     C82806   5.987   7.688   6.928 -0.3779 -0.6625 -1.2524
  601MOL0     C82807   6.093   7.608   6.978  0.3344 -0.5751 -0.6361
  601MOL0     O82808   6.195   7.660   7.059  0.5075  0.4464 -0.3631
  601MOL0     C82809   6.205   7.805   7.065  0.5647 -0.0111 -0.3893
  601MOL0     C82810   6.328   7.862   7.133  0.1528  0.2373 -0.8642
  601MOL0     C82811   6.367   7.778   7.259 -0.0390 -0.6080  0.5538
  601MOL0     C82812   6.498   7.822   7.325 -0.2286  0.6653 -1.2176
  601MOL0     C82813   6.483   7.799   7.485 -0.1443 -0.1759 -0.1171
  601MOL0     C82814   6.501   7.648   7.519  0.1607 -0.6556 -0.2968
  601MOL0     C82815   6.646   7.615   7.522 -0.4903  0.4744 -0.0217
  601MOL0     C82816   6.669   7.472   7.579  0.2899 -0.0758 -0.0049
  601MOL0     N82817   6.707   7.471   7.722 -0.5592 -0.0469  0.3167
  601MOL0     C82818   6.629   7.527   7.815 -0.0166 -0.8547  0.1827
  601MOL0     C82819   6.719   7.555   7.919  0.3825 -1.1366  0.1814
  601MOL0     C82820   6.701   7.622   8.043 -0.5350  0.3627 -0.2273
  601MOL0     C82821   6.619   7.536   8.148  0.2504 -0.2873  0.4586
  601MOL0     C82822   6.579   7.608   8.278 -0.3563 -0.4181  0.1209
  601MOL0     C82823   6.528   7.753   8.270  0.4069 -0.6560 -0.1702
  601MOL0     O82824   6.419   7.752   8.189 -0.3803  0.1987 -0.0681
  601MOL0     C82825   6.299   7.794   8.242  0.1274 -0.9134  1.5068
  601MOL0     C82826   6.279   7.916   8.306 -0.2007 -0.6574  0.6534
  601MOL0     C82827   6.155   7.953   8.346 -0.8197  0.4756 -0.7913
  601MOL0     C82828   6.144   8.100   8.398  0.3120  0.3075  0.0055
  601MOL0     C82829   6.049   7.858   8.356  0.0651  1.1638  0.3569
  601MOL0     C82830   5.918   7.879   8.423 -0.3402 -0.1750  0.8034
  601MOL0     O82831   5.861   7.753   8.458 -0.2154 -0.1169 -0.3186
  601MOL0     C82832   5.740   7.742   8.524  0.3114 -0.2571 -0.5540
  601MOL0     C82833   5.733   7.676   8.650 -0.6129 -0.4719 -0.4548
  601MOL0     C82834   5.614   7.641   8.705  0.6587  0.4575  0.9964
  601MOL0     C82835   5.492   7.689   8.643  0.2274  0.0728  0.8374
  601MOL0     O82836   5.365   7.664   8.685  0.0241  0.1639  0.4160
  601MOL0     C82837   5.354   7.543   8.760 -0.1691 -0.5453 -1.0616
  601MOL0     C82838   5.213   7.473   8.765  0.4897 -0.3868  0.7068
  601MOL0     C82839   5.159   7.448   8.624 -0.5972  0.8449  0.4720
  601MOL0     C82840   5.113   7.301   8.604 -0.3811 -0.4359  0.1131
  601MOL0     C82841   5.031   7.270   8.479  0.3205  0.4314  0.3042
  601MOL0     C82842   5.099   7.171   8.381  0.8272 -0.4488  0.0419
  601MOL0     C82843   4.987   7.134   8.283 -0.7550 -0.5564 -0.4800
  601MOL0     C82844   5.037   7.081   8.148  0.0777 -0.4705  0.1261
  601MOL0    Cl82845   5.126   7.208   8.073  0.0908  0.0452 -0.0688
  601MOL0     C82846   5.499   7.772   8.536  0.1266  0.3526  0.3178
  601MOL0     C82847   5.623   7.797   8.479 -0.0283  0.3403 -0.1239
  601MOL0     O82848   5.876   7.993   8.442  0.5839 -0.6269  0.0202
  601MOL0     C82849   6.071   7.732   8.288 -0.5871  0.1311  0.4540
  601MOL0     C82850   6.200   7.708   8.226  0.2491  0.5491 -0.8997
  601MOL0     N82851   6.847   7.517   7.872  0.4199 -0.0540 -0.4262
  601MOL0     N82852   6.838   7.470   7.752  0.3958 -0.5741 -0.1026
  601MOL0     C82853   6.112   7.476   6.940  0.3534 -0.4895  0.2932
  601MOL0     C82854   6.020   7.417   6.844 -0.4618 -0.4170 -0.0907
  601MOL0     C82855   5.800   7.412   6.463 -0.3677 -0.4858  0.2606
  601MOL0     C82856   5.659   7.386   6.498  0.3637 -1.1785  0.5424
  601MOL0     C82857   5.571   7.345   6.398 -0.2591  0.4531 -0.7977
  601MOL0     C82858   5.604   7.340   6.270  0.7297  0.6800  0.0461
  601MOL0     O82859   5.500   7.310   6.173  0.6272 -0.4244  0.2229
  601MOL0     C82860   5.533   7.199   6.086 -0.5634  0.6274 -0.0089
  601MOL0     C82861   5.428   7.191   5.974  0.9121  0.2167  0.2430
  601MOL0     C82862   5.441   7.062   5.905  0.6748  0.0364  0.6355
  601MOL0     C82863   5.316   7.022   5.824 -0.3238  0.4860  0.0761
  601MOL0     C82864   5.339   6.890   5.747  0.2336 -0.3492 -0.5455
  601MOL0     C82865   5.355   6.788   5.687 -0.3192 -0.3523 -0.3718
  601MOL0     C82866   5.738   7.360   6.237  0.1977 -0.0421  0.2993
  601MOL0     C82867   5.841   7.397   6.322 -0.7558  0.5197 -0.3356
  601MOL0     C82868   5.981   7.417   6.271  0.7134  1.0417  0.2473
  601MOL0     H82869   5.840   7.701   6.787 -0.0605 -0.6904  1.1698
  601MOL0     H82870   5.976   7.790   6.963  0.2115 -1.2670  0.8422
  601MOL0     H82871   6.124   7.848   7.125  2.2670  1.2978  1.0667
  601MOL0     H82872   6.208   7.858   6.970  3.1347  1.6870  0.5197
  601MOL0     H82873   6.407   7.864   7.059  1.7777  0.3406  0.7961
  601MOL0     H82874   6.311   7.968   7.155  1.8503  0.2867  0.3958
  601MOL0     H82875   6.276   7.774   7.321 -1.3165  1.0578 -1.0705
  601MOL0     H82876   6.385   7.678   7.220 -1.0583 -0.1020 -1.3594
  601MOL0     H82877   6.583   7.776   7.273 -1.6132 -1.8434 -1.4196
  601MOL0     H82878   6.509   7.930   7.306  1.1832  0.7818  0.0747
  601MOL0     H82879   6.385   7.829   7.522 -1.2239 -0.9010 -2.2270
  601MOL0     H82880   6.557   7.864   7.533 -2.6945  2.2181  0.8241
  601MOL0     H82881   6.451   7.624   7.614 -0.4537  0.7169 -0.2390
  601MOL0     H82882   6.455   7.591   7.439 -1.9984  2.0326 -1.1129
  601MOL0     H82883   6.692   7.681   7.597 -1.3011  1.1311 -0.0850
  601MOL0     H82884   6.690   7.625   7.422  0.3335 -1.5436  0.0934
  601MOL0     H82885   6.575   7.421   7.556  1.5765 -2.6288 -0.0471
  601MOL0     H82886   6.750   7.415   7.532 -1.0285 -1.5874 -0.5545
  601MOL0     H82887   6.522   7.547   7.817  0.4440  1.8593  1.4047
  601MOL0     H82888   6.644   7.712   8.020 -2.5424 -1.0947 -1.3374
  601MOL0     H82889   6.799   7.645   8.085  0.2875 -0.6183 -1.5332
  601MOL0     H82890   6.530   7.512   8.089 -0.4469  3.8889 -0.5210
  601MOL0     H82891   6.665   7.440   8.174 -3.0904 -1.8385  1.2694
  601MOL0     H82892   6.501   7.546   8.323 -1.1723  0.8624  0.5247
  601MOL0     H82893   6.655   7.610   8.357 -1.9523 -1.5239  1.7869
  601MOL0     H82894   6.505   7.793   8.369  0.8669  1.6707 -0.9302
  601MOL0     H82895   6.602   7.821   8.226  2.5827 -3.4881 -1.1822
  601MOL0     H82896   6.357   7.991   8.315 -1.7051  1.1131 -0.3703
  601MOL0     H82897   6.221   8.161   8.349  0.4128 -0.3781 -0.7012
  601MOL0     H82898   6.158   8.111   8.506 -1.6305 -1.8092  0.5627
  601MOL0     H82899   6.042   8.135   8.378 -0.5089 -1.2080  1.3918
  601MOL0     H82900   5.815   7.624   8.699 -0.8030  1.6721  2.4280
  601MOL0     H82901   5.618   7.595   8.803  2.8778  2.0297  1.7354
  601MOL0     H82902   5.426   7.471   8.720  1.1081  0.6181 -0.9023
  601MOL0     H82903   5.387   7.565   8.862  1.5524 -1.1986 -1.4460
  601MOL0     H82904   5.221   7.376   8.815  2.1549 -2.6384 -3.4486
  601MOL0     H82905   5.145   7.545   8.812  0.8058 -2.4373  4.6913
  601MOL0     H82906   5.229   7.471   8.543  1.8624  1.1010  2.5525
  601MOL0     H82907   5.068   7.508   8.610 -1.8593 -0.1101  3.6073
  601MOL0     H82908   5.043   7.283   8.686 -0.8893  2.2952  0.3543
  601MOL0     H82909   5.193   7.230   8.626  1.3355  1.1002 -0.9093
  601MOL0     H82910   4.933   7.226   8.504  0.3126 -0.7994 -1.6938
  601MOL0     H82911   5.010   7.358   8.418  0.8313  0.4505  0.1571
  601MOL0     H82912   5.133   7.083   8.435  0.5479 -0.0397  0.9083
  601MOL0     H82913   5.170   7.238   8.332 -0.3496 -0.4619 -1.7631
  601MOL0     H82914   4.929   7.222   8.254  2.9853  1.4481 -2.6471
  601MOL0     H82915   4.939   7.050   8.334  1.0141  0.3254  2.9118
  601MOL0     H82916   4.948   7.068   8.086 -1.8754  1.3968  2.3218
  601MOL0     H82917   5.091   6.988   8.169  1.6524 -0.0662 -1.8616
  601MOL0     H82918   5.409   7.798   8.480  0.8752  0.9683 -0.6274
  601MOL0     H82919   5.636   7.848   8.384 -1.5632 -0.0943 -0.5987
  601MOL0     H82920   5.999   7.651   8.282 -0.0445 -0.2988 -5.1421
  601MOL0     H82921   6.212   7.616   8.170  0.3520 -0.5107  0.8029
  601MOL0     H82922   6.198   7.425   6.980  1.0501 -1.9238 -2.7038
  601MOL0     H82923   6.047   7.317   6.810 -1.5369 -0.5755 -0.5224
  601MOL0     H82924   5.630   7.389   6.602  2.9102 -0.0543  1.2989
  601MOL0     H82925   5.466   7.333   6.424 -1.1119  1.4310 -3.5342
  601MOL0     H82926   5.624   7.221   6.029  1.5245 -1.6556  2.1845
  601MOL0     H82927   5.552   7.104   6.135 -1.4902  0.2754 -0.2961
  601MOL0     H82928   5.441   7.277   5.907  2.4306  1.0298  1.5041
  601MOL0     H82929   5.323   7.193   6.006  0.9055 -0.8087  0.3089
  601MOL0     H82930   5.530   7.081   5.844  0.3986  1.7508  0.6989
  601MOL0     H82931   5.460   6.981   5.976  1.2487  0.3807  0.8864
  601MOL0     H82932   5.291   7.094   5.745 -1.0170  2.1782  1.7534
  601MOL0     H82933   5.232   7.012   5.894 -0.5040 -0.8773 -0.3026
  601MOL0     H82934   5.375   6.705   5.622  0.5389  1.5667 -2.7211
  601MOL0     H82935   5.773   7.352   6.134 -1.2900 -1.2617 -0.1379
  601MOL0     H82936   5.978   7.414   6.162  1.4657 -0.6742  0.2376
  601MOL0     H82937   6.018   7.516   6.296  0.2782  1.3807 -0.4299
  601MOL0     H82938   6.042   7.337   6.315 -3.2901 -3.0874 -0.9685
  602MOL0     O82939   7.079   3.973   9.813  0.3678  0.2611 -0.5421
  602MOL0     C82940   7.051   3.996   9.931  0.3433  0.6771 -0.1029
  602MOL0     O82941   6.926   4.014   9.981  0.2959 -0.2511  0.3672
  602MOL0     C82942   6.900   3.996  10.114 -0.0010 -0.4049  0.4734
  602MOL0     C82943   6.903   3.870  10.160  0.8894  1.2814  0.1459
  602MOL0     C82944   6.889   3.841  10.296  0.3044  1.0213 -0.5556
  602MOL0     C82945   6.850   3.946  10.380 -0.1384  0.0895  0.1792
  602MOL0     O82946   6.843   3.913  10.520  0.6757 -0.1910 -0.1255
  602MOL0     C82947   6.776   4.008  10.605  0.6505  0.1929 -0.0338
  602MOL0     C82948   6.621   3.994  10.596  1.2679  0.0139 -0.5889
  602MOL0     C82949   6.569   3.859  10.664  0.4852 -0.6882 -0.3307
  602MOL0     C82950   6.585   3.730  10.580 -0.0210  0.4222  0.2213
  602MOL0     C82951   6.544   3.609  10.667  0.4719 -0.8264  0.0911
  602MOL0     C82952   6.644   3.572  10.780 -0.5851 -0.2871 -0.1108
  602MOL0     C82953   6.795   3.568  10.734  1.0263  0.2316  0.8818
  602MOL0     C82954   6.879   3.525  10.852 -1.0028  0.4856 -0.0701
  602MOL0     N82955   6.925   3.383  10.842  0.2183  0.4011  0.0040
  602MOL0     C82956   6.884   3.271  10.906 -0.0591 -0.4699 -0.2954
  602MOL0     C82957   6.978   3.184  10.876 -0.1690 -0.0515 -0.2658
  602MOL0     C82958   6.998   3.038  10.919 -0.7638  0.3656 -0.0745
  602MOL0     C82959   7.123   3.035  11.007 -0.4407  0.4011 -0.6576
  602MOL0     C82960   7.139   2.891  11.052 -0.7760 -0.9533 -0.1642
  602MOL0     C82961   7.249   2.879  11.160 -0.3095  0.1267  0.0616
  602MOL0     O82962   7.221   2.950  11.283  0.3188  0.2854 -0.6525
  602MOL0     C82963   7.118   2.912  11.368 -0.3612  0.0608  0.3426
  602MOL0     C82964   7.086   3.008  11.467  0.3087 -0.4649 -0.4195
  602MOL0     C82965   7.002   2.979  11.577  0.4729 -0.5680  0.5794
  602MOL0     C82966   6.978   3.095  11.686 -0.4820 -0.3013  0.4330
  602MOL0     C82967   6.947   2.844  11.586 -0.0625 -1.6618 -0.9057
  602MOL0     C82968   6.878   2.792  11.709  0.1002 -0.0086 -0.1602
  602MOL0     O82969   6.876   2.877  11.819  0.7525  0.3348  0.2574
  602MOL0     C82970   6.826   2.848  11.946 -0.4468  0.3757  0.1312
  602MOL0     C82971   6.796   2.968  12.017 -0.3592 -0.5722  0.5293
  602MOL0     C82972   6.742   2.963  12.144 -0.7152 -0.0589  0.4258
  602MOL0     C82973   6.706   2.836  12.209 -0.2395  0.4568  0.2632
  602MOL0     O82974   6.655   2.845  12.334 -0.4041  1.4928 -0.8442
  602MOL0     C82975   6.589   2.729  12.395 -0.8082 -0.3146  0.0437
  602MOL0     C82976   6.519   2.798  12.512  0.0718  0.0628 -0.0109
  602MOL0     C82977   6.425   2.704  12.586 -0.2424 -0.1722  0.3776
  602MOL0     C82978   6.281   2.747  12.563 -0.2066 -0.0120  0.7426
  602MOL0     C82979   6.175   2.631  12.573 -0.2302 -0.1820  0.0233
  602MOL0     C82980   6.201   2.516  12.664 -0.8080  0.0812 -0.9264
  602MOL0     C82981   6.190   2.546  12.816  0.5094 -0.2224  0.4361
  602MOL0     C82982   6.064   2.598  12.861  0.2449  0.2500  0.2029
  602MOL0    Cl82983   6.074   2.663  13.034 -0.2960  0.1299  0.1927
  602MOL0     C82984   6.735   2.717  12.134 -0.5741 -0.4059 -0.4120
  602MOL0     C82985   6.805   2.733  12.003 -0.4667  0.0625 -0.4330
  602MOL0     O82986   6.824   2.684  11.699  1.1839  0.3142 -0.2868
  602MOL0     C82987   6.971   2.750  11.478 -0.1870 -0.2973  0.2211
  602MOL0     C82988   7.058   2.790  11.369  0.2243  0.2172 -0.4589
  602MOL0     N82989   7.070   3.250  10.803  0.4165  0.1943  0.1381
  602MOL0     N82990   7.033   3.368  10.771 -0.7483  1.0715  0.1361
  602MOL0     C82991   6.831   4.079  10.330 -0.3656  0.2959 -0.3758
  602MOL0     C82992   6.853   4.098  10.195 -0.1238 -0.3522  0.3482
  602MOL0     C82993   7.174   4.019  10.018  0.5570  0.7079  0.5565
  602MOL0     C82994   7.260   3.909  10.049  0.7303  0.4429  0.6188
  602MOL0     C82995   7.369   3.928  10.135  0.1642 -0.4264  0.3895
  602MOL0     C82996   7.410   4.059  10.181  0.3030 -0.5112 -0.3928
  602MOL0     O82997   7.515   4.073  10.254 -0.2562  0.7570  0.4763
  602MOL0     C82998   7.610   4.168  10.213 -0.0588  0.0171  0.8130
  602MOL0     C82999   7.680   4.248  10.322 -0.1748 -0.4959 -0.2406
  602MOL0     C83000   7.765   4.357  10.268 -0.1735  0.3176  0.4831
  602MOL0     C83001   7.832   4.342  10.125  0.7146 -0.1161  0.1047
  602MOL0     C83002   7.920   4.232  10.137 -0.1715  0.9775  0.4784
  602MOL0     C83003   8.010   4.147  10.154  0.4312 -1.4169  0.0951
  602MOL0     C83004   7.332   4.168  10.143 -0.9704 -0.4034 -0.4677
  602MOL0     C83005   7.215   4.151  10.068  0.1073  0.3458  0.6963
  602MOL0     C83006   7.147   4.284  10.025 -0.0132 -0.5385  0.1742
  602MOL0     H83007   6.928   3.790  10.092  1.7849  1.5224  0.1875
  602MOL0     H83008   6.892   3.739  10.333  1.2736  0.6701 -1.5512
  602MOL0     H83009   6.814   4.110  10.589  0.2101  0.3271 -0.2449
  602MOL0     H83010   6.800   3.988  10.710  0.5131 -0.2849 -0.0927
  602MOL0     H83011   6.563   4.070  10.650 -0.4476 -0.4686 -1.6678
  602MOL0     H83012   6.581   3.975  10.495  1.0386 -1.7764 -0.1971
  602MOL0     H83013   6.629   3.841  10.754  1.3062  1.2532 -0.4367
  602MOL0     H83014   6.465   3.856  10.696  0.6885 -2.2754  0.3120
  602MOL0     H83015   6.523   3.734  10.489  0.1721  1.1456  0.1127
  602MOL0     H83016   6.682   3.734  10.529 -1.6763  1.6415 -3.1757
  602MOL0     H83017   6.519   3.524  10.603 -0.7890 -0.1325 -0.3628
  602MOL0     H83018   6.450   3.632  10.719  0.1224  0.5090 -1.0605
  602MOL0     H83019   6.646   3.645  10.861  1.2047 -0.2892 -0.1128
  602MOL0     H83020   6.608   3.475  10.816  0.9379 -0.4820  0.9844
  602MOL0     H83021   6.829   3.665  10.696  0.5658 -1.1412 -3.5509
  602MOL0     H83022   6.806   3.500  10.650 -0.5141 -2.3531  2.6322
  602MOL0     H83023   6.969   3.586  10.843  0.1769 -1.0964  0.4545
  602MOL0     H83024   6.825   3.554  10.942  1.6943  0.6955  1.5915
  602MOL0     H83025   6.789   3.255  10.955  0.5357 -0.2159  0.9848
  602MOL0     H83026   7.020   2.983  10.827 -1.7662 -0.0268 -0.0893
  602MOL0     H83027   6.917   2.995  10.978  0.1902  0.3340  1.2759
  602MOL0     H83028   7.212   3.070  10.953 -0.0454  1.1939  0.4721
  602MOL0     H83029   7.112   3.098  11.096  2.5977 -0.7132  0.6505
  602MOL0     H83030   7.055   2.848  11.109  2.2455 -1.0483  4.8420
  602MOL0     H83031   7.170   2.821  10.974  0.7912  1.2578 -1.6134
  602MOL0     H83032   7.290   2.778  11.169  1.5199  0.7897 -0.4508
  602MOL0     H83033   7.346   2.919  11.129 -0.5065 -0.5604 -1.5385
  602MOL0     H83034   7.125   3.110  11.460  0.1143 -0.1985  1.7270
  602MOL0     H83035   6.874   3.130  11.689  0.2591  1.9722  1.7487
  602MOL0     H83036   7.032   3.182  11.648 -1.0240 -0.4636 -0.7397
  602MOL0     H83037   7.018   3.059  11.782  1.0920 -3.9678 -1.3932
  602MOL0     H83038   6.805   3.058  11.958  0.9147 -0.2552  1.1939
  602MOL0     H83039   6.722   3.048  12.208 -0.2586  3.0946 -3.2523
  602MOL0     H83040   6.517   2.680  12.329 -1.6236 -1.5802  1.7721
  602MOL0     H83041   6.660   2.654  12.432  1.9173  1.9150 -0.3194
  602MOL0     H83042   6.591   2.837  12.585 -1.2854 -1.8402  2.5030
  602MOL0     H83043   6.471   2.890  12.475 -1.3231 -1.6445 -2.7953
  602MOL0     H83044   6.449   2.715  12.692 -0.5530  2.0856  0.2600
  602MOL0     H83045   6.439   2.601  12.549  0.8651  0.0248  0.2084
  602MOL0     H83046   6.258   2.783  12.463  0.1988 -2.1322 -0.1669
  602MOL0     H83047   6.252   2.826  12.632 -3.4433 -0.2633 -0.1571
  602MOL0     H83048   6.077   2.677  12.589  1.5373  4.5311 -1.0974
  602MOL0     H83049   6.188   2.589  12.472 -0.2828 -1.2838  0.4570
  602MOL0     H83050   6.301   2.477  12.640 -0.2778  2.4925 -3.1202
  602MOL0     H83051   6.131   2.436  12.641  0.9453 -2.9237  3.0116
  602MOL0     H83052   6.261   2.627  12.834 -1.0063  1.0672  0.7997
  602MOL0     H83053   6.196   2.457  12.880 -0.5644  0.2734  1.2693
  602MOL0     H83054   5.984   2.524  12.854  1.5631 -1.3167  0.9980
  602MOL0     H83055   6.037   2.683  12.797  3.1872 -0.9994 -3.0275
  602MOL0     H83056   6.747   2.621  12.182  1.5558  0.4532  0.9834
  602MOL0     H83057   6.835   2.642  11.952  1.0311  0.6566 -0.6390
  602MOL0     H83058   6.946   2.645  11.479  3.3601 -1.2746  1.3574
  602MOL0     H83059   7.084   2.723  11.287  2.3604 -1.2562  1.2983
  602MOL0     H83060   6.815   4.172  10.384  0.6328  1.2906 -1.6983
  602MOL0     H83061   6.838   4.198  10.155 -0.1883 -0.3956  0.2634
  602MOL0     H83062   7.213   3.819  10.009 -1.5694  1.0334  1.8272
  602MOL0     H83063   7.434   3.842  10.149  1.1890 -0.0559 -1.6528
  602MOL0     H83064   7.686   4.110  10.159 -0.0021  0.5429  0.3258
  602MOL0     H83065   7.572   4.241  10.142  0.8262  1.0499  1.3563
  602MOL0     H83066   7.738   4.176  10.380  0.3699 -4.0227 -4.5915
  602MOL0     H83067   7.607   4.294  10.390 -1.9765 -0.8517 -1.8381
  602MOL0     H83068   7.692   4.439  10.260 -1.3820 -0.8145 -0.7406
  602MOL0     H83069   7.852   4.372  10.331 -0.4389  1.3559  0.6275
  602MOL0     H83070   7.894   4.431  10.109  0.0747  0.9494  2.9754
  602MOL0     H83071   7.767   4.324  10.039  2.7301 -2.7018 -1.0007
  602MOL0     H83072   8.083   4.069  10.166  0.2875 -1.8017 -1.3540
  602MOL0     H83073   7.358   4.271  10.165  4.4197 -0.7296 -3.6153
  602MOL0     H83074   7.071   4.285   9.946  0.6758 -2.1647 -0.5585
  602MOL0     H83075   7.088   4.328  10.106 -3.5274 -1.9250 -1.3938
  602MOL0     H83076   7.223   4.354   9.988 -1.7893  1.0839 -0.5884
  603MOL0     O83077   9.919   6.692   7.102  0.9375  0.5289  0.6203
  603MOL0     C83078   9.878   6.658   7.213 -0.0504  0.4933 -0.7928
  603MOL0     O83079   9.797   6.724   7.295 -0.0042  0.2305 -0.0813
  603MOL0     C83080   9.734   6.840   7.263  0.2311 -0.3553  1.1935
  603MOL0     C83081   9.696   6.927   7.369 -0.3898  0.3700 -0.4247
  603MOL0     C83082   9.630   7.039   7.348  0.3930 -0.6885 -0.2309
  603MOL0     C83083   9.581   7.069   7.219 -0.4705  0.3339 -0.0168
  603MOL0     O83084   9.527   7.195   7.197  0.1825 -0.2711 -0.5354
  603MOL0     C83085   9.499   7.227   7.057  0.3907 -0.1101  0.7345
  603MOL0     C83086   9.467   7.374   7.024  0.2061 -0.4153 -0.0274
  603MOL0     C83087   9.333   7.426   7.080  0.9930 -0.0629 -0.1716
  603MOL0     C83088   9.303   7.386   7.227 -0.2576 -0.8671  0.8955
  603MOL0     C83089   9.155   7.417   7.266  0.9424 -0.1956  0.0901
  603MOL0     C83090   9.151   7.570   7.308 -0.0640  0.0314  1.1312
  603MOL0     C83091   9.001   7.608   7.330  1.2501 -0.4702 -0.4522
  603MOL0     C83092   8.978   7.724   7.426 -0.1607  0.7424  0.3084
  603MOL0     N83093   8.839   7.751   7.427  0.6487 -0.7333 -0.5818
  603MOL0     C83094   8.726   7.680   7.473 -0.6405  0.7991  0.1578
  603MOL0     C83095   8.620   7.757   7.431 -0.5756  0.5144  0.1305
  603MOL0     C83096   8.469   7.730   7.464  0.5600 -0.4733 -0.1234
  603MOL0     C83097   8.366   7.824   7.402 -0.7350  0.1631 -0.1769
  603MOL0     C83098   8.359   7.799   7.246  0.7739  0.4625 -0.6713
  603MOL0     C83099   8.257   7.881   7.187 -1.0470 -0.0893  0.9450
  603MOL0     O83100   8.263   7.852   7.044  0.2224 -0.2430  0.3252
  603MOL0     C83101   8.175   7.751   7.002 -0.9814  0.0432  0.2940
  603MOL0     C83102   8.228   7.629   6.976 -0.1886  0.0679  0.5342
  603MOL0     C83103   8.171   7.529   6.910  1.1701  0.5474 -0.4432
  603MOL0     C83104   8.235   7.398   6.885  0.5172  0.6407  0.5626
  603MOL0     C83105   8.034   7.549   6.877  0.7087  0.8998  0.0248
  603MOL0     C83106   7.960   7.444   6.804 -0.6776 -0.2756 -0.9184
  603MOL0     O83107   7.974   7.427   6.677  0.6465  0.5987  0.9041
  603MOL0     C83108   8.013   7.526   6.595 -0.3198  0.0706  0.2612
  603MOL0     C83109   8.137   7.526   6.537 -0.0754 -0.0336 -0.3434
  603MOL0     C83110   8.182   7.638   6.456  0.3469  0.0103  0.6644
  603MOL0     C83111   8.085   7.740   6.433 -0.3921 -0.9597 -0.4786
  603MOL0     O83112   8.119   7.866   6.396 -0.4588 -0.3165  0.1652
  603MOL0     C83113   8.073   7.904   6.267 -0.6396  0.2240 -0.1436
  603MOL0     C83114   8.139   8.036   6.233 -1.1162 -0.0868  1.8074
  603MOL0     C83115   8.125   8.080   6.087 -0.1335  1.2409  0.2181
  603MOL0     C83116   8.244   8.170   6.032 -0.1208  0.7420 -0.4759
  603MOL0     C83117   8.218   8.325   6.039 -0.2014 -0.6038  0.5786
  603MOL0     C83118   8.293   8.423   5.958  0.9754 -0.2178 -0.1244
  603MOL0     C83119   8.255   8.410   5.803  0.4643  0.7756 -0.4822
  603MOL0     C83120   8.329   8.521   5.723  0.2881 -0.5250  0.1562
  603MOL0    Cl83121   8.266   8.688   5.787 -0.0659 -0.2516  0.0578
  603MOL0     C83122   7.950   7.723   6.468 -0.6764 -0.1875  0.3558
  603MOL0     C83123   7.921   7.623   6.559  0.9589 -0.4109  0.5764
  603MOL0     O83124   7.901   7.372   6.881 -0.5847  0.2441 -0.7635
  603MOL0     C83125   7.968   7.666   6.913 -0.3587  0.5871  0.3215
  603MOL0     C83126   8.043   7.765   6.975  0.0712  0.5259 -0.2802
  603MOL0     N83127   8.663   7.866   7.359 -0.2354  0.3863  0.1270
  603MOL0     N83128   8.796   7.861   7.369  0.0304 -0.1241  0.4212
  603MOL0     C83129   9.602   6.973   7.125  0.1156  0.9516  0.1505
  603MOL0     C83130   9.688   6.868   7.135 -0.0939 -0.4075  0.1401
  603MOL0     C83131   9.919   6.535   7.284 -0.5211 -0.1165  0.3542
  603MOL0     C83132   9.912   6.529   7.424  0.9286  0.1443  0.6790
  603MOL0     C83133   9.929   6.404   7.486 -0.0208  0.4186  0.8884
  603MOL0     C83134   9.943   6.289   7.411 -0.9432  0.0006 -0.3783
  603MOL0     O83135   9.952   6.165   7.468 -0.0716  0.9045 -0.1083
  603MOL0     C83136  10.081   6.102   7.476  0.7094 -0.3958  0.9148
  603MOL0     C83137  10.063   5.960   7.545 -0.1084  0.4832  0.1579
  603MOL0     C83138  10.204   5.899   7.578  0.7601  0.5967 -0.6527
  603MOL0     C83139  10.302   5.966   7.677 -0.1960 -0.6166 -0.7073
  603MOL0     C83140  10.240   5.955   7.817  0.5343 -0.6499 -0.5893
  603MOL0     C83141  10.192   5.952   7.928  1.1158 -0.4773  0.9918
  603MOL0     C83142   9.955   6.292   7.273  0.2756  0.6773  0.6879
  603MOL0     C83143   9.949   6.421   7.212 -1.0334  0.4281  0.8922
  603MOL0     C83144   9.921   6.409   7.066 -0.5224  0.2827 -1.0893
  603MOL0     H83145   9.727   6.896   7.468  0.4059  0.1252 -0.7373
  603MOL0     H83146   9.605   7.106   7.429 -0.5458 -0.1942 -0.9068
  603MOL0     H83147   9.416   7.172   7.011  1.1912 -0.8163  0.1147
  603MOL0     H83148   9.587   7.202   6.997  0.1454  1.9611 -0.6086
  603MOL0     H83149   9.538   7.429   7.087 -1.1027 -0.4751  1.5610
  603MOL0     H83150   9.475   7.379   6.915 -0.2821 -1.6038 -0.1342
  603MOL0     H83151   9.339   7.534   7.064 -3.1068  0.1010 -1.7764
  603MOL0     H83152   9.242   7.399   7.025  0.8426 -0.3938  0.2289
  603MOL0     H83153   9.304   7.278   7.250 -1.2356 -1.4457 -1.5232
  603MOL0     H83154   9.376   7.432   7.294  0.0559 -2.9272  2.0917
  603MOL0     H83155   9.124   7.365   7.357  1.1118  0.2522  0.4075
  603MOL0     H83156   9.075   7.402   7.193 -0.5426  0.9457  1.4198
  603MOL0     H83157   9.209   7.593   7.398  2.1236 -0.2795 -0.1322
  603MOL0     H83158   9.201   7.625   7.228  0.9850  0.6707  2.1951
  603MOL0     H83159   8.949   7.529   7.384  1.6192  1.0435  2.2991
  603MOL0     H83160   8.956   7.629   7.232 -2.2882 -0.9338  0.9065
  603MOL0     H83161   9.009   7.703   7.529  0.7770  2.6370  0.4497
  603MOL0     H83162   9.043   7.805   7.391  2.0568 -1.0865 -0.0328
  603MOL0     H83163   8.720   7.590   7.533  2.0507  1.6537  1.8942
  603MOL0     H83164   8.455   7.750   7.571 -3.2800  0.8331 -0.7244
  603MOL0     H83165   8.450   7.625   7.442  0.4356 -0.4229 -0.2503
  603MOL0     H83166   8.271   7.816   7.455 -1.2159 -0.2521 -1.0686
  603MOL0     H83167   8.392   7.928   7.422  2.4128 -0.6363  0.4234
  603MOL0     H83168   8.454   7.829   7.201 -0.2552  1.2472 -2.4148
  603MOL0     H83169   8.348   7.694   7.219  1.4169  0.5915 -1.4681
  603MOL0     H83170   8.158   7.855   7.227 -0.3639 -0.8079  2.2299
  603MOL0     H83171   8.282   7.988   7.179 -0.4127 -0.2283  1.0154
  603MOL0     H83172   8.334   7.617   6.996  0.2063  0.5759 -1.1246
  603MOL0     H83173   8.323   7.387   6.950 -0.4731 -1.6573  1.5993
  603MOL0     H83174   8.272   7.392   6.782  0.7717  3.0433  0.4597
  603MOL0     H83175   8.174   7.308   6.898  0.3273  0.5436 -0.8034
  603MOL0     H83176   8.204   7.443   6.559 -0.0476 -0.0117 -0.3463
  603MOL0     H83177   8.279   7.655   6.409  0.2266  0.2053  0.4815
  603MOL0     H83178   8.088   7.822   6.196  0.6261  0.3004  0.0246
  603MOL0     H83179   7.963   7.912   6.268 -0.6146  1.1421 -1.3829
  603MOL0     H83180   8.089   8.112   6.295 -3.4404 -1.0036  1.1584
  603MOL0     H83181   8.245   8.017   6.247 -1.0780 -0.9285  0.4455
  603MOL0     H83182   8.027   8.126   6.070 -1.1360 -0.3951  1.3412
  603MOL0     H83183   8.123   7.987   6.030 -1.3850  0.7648  0.9936
  603MOL0     H83184   8.265   8.153   5.926 -0.8534 -0.5538 -0.4313
  603MOL0     H83185   8.339   8.152   6.084 -0.4652  0.7699  0.1750
  603MOL0     H83186   8.112   8.336   6.017  0.1171 -0.4292 -1.0281
  603MOL0     H83187   8.242   8.372   6.135  3.0442  1.0300 -0.8394
  603MOL0     H83188   8.400   8.416   5.982  0.7005  1.8010  2.1283
  603MOL0     H83189   8.255   8.513   6.007 -1.3147 -1.5812  0.7611
  603MOL0     H83190   8.145   8.411   5.801  0.2634 -0.6563  3.1962
  603MOL0     H83191   8.292   8.313   5.768 -1.5202 -0.6129  1.0150
  603MOL0     H83192   8.328   8.500   5.616  0.4726  0.8119 -0.1238
  603MOL0     H83193   8.434   8.526   5.753 -0.4829  3.5877  3.0349
  603MOL0     H83194   7.890   7.805   6.432  0.8448  0.9317  0.2845
  603MOL0     H83195   7.828   7.624   6.614 -0.6765  0.6360 -1.9864
  603MOL0     H83196   7.862   7.685   6.921 -0.3082  0.4086  1.6124
  603MOL0     H83197   8.002   7.862   7.002 -2.6770 -1.0780  1.8501
  603MOL0     H83198   9.554   6.986   7.028 -0.2619 -1.6631 -0.0897
  603MOL0     H83199   9.706   6.795   7.057  0.2942 -1.1708  0.9256
  603MOL0     H83200   9.895   6.619   7.483 -3.4408  2.1814 -3.0453
  603MOL0     H83201   9.927   6.400   7.594  0.7383  2.4365  1.0342
  603MOL0     H83202  10.125   6.091   7.376 -2.7460 -0.4964 -0.7319
  603MOL0     H83203  10.149   6.166   7.531  0.0400  1.4127 -0.2697
  603MOL0     H83204  10.001   5.907   7.471 -0.8755  2.4261 -0.6674
  603MOL0     H83205  10.011   5.963   7.641  0.7675 -1.9961  0.7782
  603MOL0     H83206  10.180   5.802   7.624  0.7386  0.8962 -0.0271
  603MOL0     H83207  10.258   5.892   7.483 -0.9326  1.9870 -1.7747
  603MOL0     H83208  10.315   6.070   7.646 -3.1384 -0.6578 -2.5349
  603MOL0     H83209  10.401   5.920   7.675 -0.4200 -1.2115  0.9801
  603MOL0     H83210  10.161   5.964   8.030 -1.0491  1.1045  0.2339
  603MOL0     H83211   9.975   6.202   7.215  0.2947  1.8368 -1.1878
  603MOL0     H83212   9.962   6.318   7.023 -0.1693 -0.8027  1.3854
  603MOL0     H83213   9.813   6.394   7.053 -0.6897 -0.8250  1.1736
  603MOL0     H83214   9.971   6.491   7.013  1.5472  0.1762  0.5937
  604MOL0     O83215   3.326   8.823   0.998 -0.2397  0.8747  0.4686
  604MOL0     C83216   3.425   8.865   1.056  0.4410  0.3946 -0.0683
  604MOL0     O83217   3.536   8.930   1.000 -0.1275  0.4409  0.5446
  604MOL0     C83218   3.550   8.950   0.863  0.0996 -0.4902 -0.1310
  604MOL0     C83219   3.446   8.984   0.778  0.4237 -0.3569 -0.1942
  604MOL0     C83220   3.457   9.018   0.642 -0.1117  0.5903  0.5476
  604MOL0     C83221   3.581   9.023   0.592 -0.5966  0.4075  0.6447
  604MOL0     O83222   3.615   9.058   0.463  0.2759  0.1293  0.5300
  604MOL0     C83223   3.522   9.118   0.372  0.5794  1.4850 -0.1492
  604MOL0     C83224   3.477   9.266   0.397  0.3685 -0.1863  0.2918
  604MOL0     C83225   3.593   9.355   0.424 -0.7663 -1.1548 -1.0400
  604MOL0     C83226   3.547   9.500   0.406 -0.7432 -0.5549  0.7064
  604MOL0     C83227   3.651   9.603   0.460  0.8116 -0.4983 -0.5019
  604MOL0     C83228   3.769   9.619   0.373 -0.3133  0.2899  0.4683
  604MOL0     C83229   3.846   9.745   0.362 -0.5819 -0.3798  0.3244
  604MOL0     C83230   3.947   9.750   0.245  0.1871 -0.2146  0.6866
  604MOL0     N83231   4.004   9.888   0.230 -0.9740  0.4092 -0.4439
  604MOL0     C83232   4.094   9.940   0.318 -0.5400 -0.1122 -0.0795
  604MOL0     C83233   4.085  10.074   0.281  0.2084  0.5432 -0.1720
  604MOL0     C83234   4.169  10.189   0.336 -0.0819 -0.7686  0.1473
  604MOL0     C83235   4.293  10.197   0.234 -0.0691  0.2531 -0.1998
  604MOL0     C83236   4.402  10.109   0.274 -0.0606  0.2075  0.1165
  604MOL0     C83237   4.531  10.134   0.194  0.4765 -0.2032 -0.1474
  604MOL0     O83238   4.578  10.267   0.196  0.0589  0.0966  0.7514
  604MOL0     C83239   4.617  10.315   0.311 -0.0307 -0.6878 -1.2052
  604MOL0     C83240   4.668  10.230   0.421 -0.7033  0.1200  0.8066
  604MOL0     C83241   4.697  10.286   0.542 -0.9896  0.7240 -0.3467
  604MOL0     C83242   4.745  10.192   0.646 -0.7525 -0.4536 -0.5530
  604MOL0     C83243   4.683  10.420   0.562  1.0534 -0.7593  1.0543
  604MOL0     C83244   4.691  10.484   0.696  1.2481  0.6130  0.8576
  604MOL0     O83245   4.609  10.594   0.702 -0.3226  0.2965  0.0365
  604MOL0     C83246   4.599  10.660   0.822  0.0977 -0.0479  0.4580
  604MOL0     C83247   4.498  10.630   0.911 -0.1307  0.8344  0.8036
  604MOL0     C83248   4.511  10.676   1.041  0.3278 -0.1652  0.5611
  604MOL0     C83249   4.613  10.766   1.082  0.5914 -0.0793  0.1235
  604MOL0     O83250   4.613  10.798   1.213 -0.0848  0.8239 -0.8481
  604MOL0     C83251   4.742  10.831   1.271 -0.1878 -0.1827  0.1753
  604MOL0     C83252   4.737  10.864   1.419  0.3754 -1.0639  0.3781
  604MOL0     C83253   4.760  10.732   1.501 -0.4661 -0.4160 -0.1649
  604MOL0     C83254   4.759  10.769   1.650  0.0294  0.5944 -0.3965
  604MOL0     C83255   4.619  10.779   1.718  0.1200 -0.1065  0.5642
  604MOL0     C83256   4.580  10.645   1.778  0.7085  0.4811 -0.0728
  604MOL0     C83257   4.615  10.635   1.926  0.1830  0.8260 -0.3331
  604MOL0     C83258   4.556  10.508   1.974 -0.2881  0.9928 -0.2480
  604MOL0    Cl83259   4.559  10.500   2.164 -0.3443  0.4867  0.4799
  604MOL0     C83260   4.716  10.806   0.985 -0.2726  0.2981 -0.7623
  604MOL0     C83261   4.705  10.741   0.864  0.1504 -0.1758 -0.2186
  604MOL0     O83262   4.763  10.447   0.788 -0.5577 -0.6337  0.1629
  604MOL0     C83263   4.648  10.506   0.448 -1.1348 -0.3429  0.2268
  604MOL0     C83264   4.610  10.458   0.327 -0.6368 -0.1178 -0.1768
  604MOL0     N83265   3.997  10.088   0.179 -0.9721 -0.9126  0.2568
  604MOL0     N83266   3.949   9.977   0.148  0.5644 -0.5484 -0.1234
  604MOL0     C83267   3.685   8.996   0.678 -0.3187  0.0363  0.1085
  604MOL0     C83268   3.675   8.962   0.813 -0.1119 -0.3948  0.3490
  604MOL0     C83269   3.443   8.822   1.189  0.6241  0.3068 -0.4005
  604MOL0     C83270   3.354   8.728   1.257  0.3032  0.5527  1.0171
  604MOL0     C83271   3.350   8.697   1.387  0.4677 -0.5019 -0.2774
  604MOL0     C83272   3.449   8.756   1.467  0.5731  0.0776  0.5500
  604MOL0     O83273   3.427   8.742   1.605 -0.4886  0.7108  0.5814
  604MOL0     C83274   3.502   8.812   1.704 -0.7298  0.0186  0.2305
  604MOL0     C83275   3.631   8.733   1.727 -0.6172 -0.3759  0.4376
  604MOL0     C83276   3.602   8.597   1.795 -0.3749 -0.3936  0.1868
  604MOL0     C83277   3.730   8.512   1.846  0.6604  0.0997 -0.9017
  604MOL0     C83278   3.820   8.600   1.917  0.6624  0.0006  0.1384
  604MOL0     C83279   3.888   8.669   1.990  0.4299  0.0115  0.7180
  604MOL0     C83280   3.557   8.829   1.415 -0.2684  0.4948  1.1697
  604MOL0     C83281   3.554   8.863   1.274 -0.2157 -0.1785  0.2398
  604MOL0     C83282   3.655   8.965   1.224 -0.4446 -0.4519  0.5053
  604MOL0     H83283   3.342   8.973   0.808  0.3998 -1.0886 -0.5306
  604MOL0     H83284   3.366   9.044   0.588 -0.8832  1.5135  2.1934
  604MOL0     H83285   3.444   9.042   0.360  3.1412 -1.1624 -1.2557
  604MOL0     H83286   3.562   9.100   0.272 -3.0921 -1.5004 -1.2952
  604MOL0     H83287   3.437   9.300   0.301  2.4838  2.0570  0.0854
  604MOL0     H83288   3.414   9.284   0.485 -1.9548 -2.0185 -0.8757
  604MOL0     H83289   3.624   9.339   0.528  1.1369 -0.5539 -1.4692
  604MOL0     H83290   3.670   9.337   0.349  0.5461  4.2655 -1.3943
  604MOL0     H83291   3.540   9.526   0.300 -1.6509  2.2152  1.3560
  604MOL0     H83292   3.450   9.511   0.457 -1.9328 -3.5418 -0.6962
  604MOL0     H83293   3.687   9.576   0.560  2.1997 -3.5641 -1.7269
  604MOL0     H83294   3.587   9.692   0.468  0.5206 -0.8381  1.4875
  604MOL0     H83295   3.842   9.542   0.399  2.0461  2.6039  1.2278
  604MOL0     H83296   3.743   9.608   0.267  1.0983  2.5674 -0.2051
  604MOL0     H83297   3.900   9.761   0.456  0.1846  0.1165 -0.1840
  604MOL0     H83298   3.776   9.829   0.355  0.5790  0.4614 -2.7675
  604MOL0     H83299   4.022   9.672   0.256  1.2500  0.5368 -0.8222
  604MOL0     H83300   3.897   9.732   0.149  1.8701 -1.3332 -0.0125
  604MOL0     H83301   4.144   9.898   0.405 -2.6475 -1.0547  0.7459
  604MOL0     H83302   4.201  10.182   0.441  1.8291 -1.2003 -0.4288
  604MOL0     H83303   4.105  10.277   0.323 -1.7159 -2.0282 -0.6366
  604MOL0     H83304   4.264  10.177   0.130  1.6490  2.2253 -1.1431
  604MOL0     H83305   4.337  10.297   0.238 -1.7317  1.0414 -0.4888
  604MOL0     H83306   4.433  10.112   0.379 -1.2769 -0.6437  0.5195
  604MOL0     H83307   4.371  10.006   0.255  0.4082 -0.4818  2.6975
  604MOL0     H83308   4.612  10.063   0.213 -0.3183 -1.7614 -2.1582
  604MOL0     H83309   4.507  10.101   0.093 -0.7085  0.6213 -0.1517
  604MOL0     H83310   4.688  10.126   0.395  0.0219  0.8697 -2.0478
  604MOL0     H83311   4.734  10.088   0.614  2.0270 -1.2554  0.7532
  604MOL0     H83312   4.702  10.195   0.746  0.5537  0.3312  0.0131
  604MOL0     H83313   4.853  10.204   0.657 -0.0500 -4.3545 -1.6154
  604MOL0     H83314   4.404  10.579   0.893 -0.4921  2.0779 -1.1397
  604MOL0     H83315   4.446  10.655   1.125  4.8253  1.9109  5.0705
  604MOL0     H83316   4.810  10.746   1.258  0.6167  0.1404  2.0559
  604MOL0     H83317   4.782  10.916   1.215 -2.0182 -0.7280 -2.1537
  604MOL0     H83318   4.816  10.938   1.434 -1.0409  0.4239  0.6605
  604MOL0     H83319   4.646  10.919   1.443  1.4228  2.0089 -2.0728
  604MOL0     H83320   4.864  10.707   1.477  1.9915  6.2695  1.1262
  604MOL0     H83321   4.686  10.660   1.466 -0.1265 -0.3203 -1.0967
  604MOL0     H83322   4.807  10.868   1.652 -1.8706  1.6233 -1.9137
  604MOL0     H83323   4.819  10.705   1.715 -0.9684  1.5141  1.5328
  604MOL0     H83324   4.627  10.856   1.796  1.0759  2.7999 -2.1998
  604MOL0     H83325   4.548  10.810   1.641  1.7837  3.0021  0.1171
  604MOL0     H83326   4.616  10.566   1.712 -0.9221  1.6887 -2.5981
  604MOL0     H83327   4.472  10.628   1.773  0.6802 -1.5820  3.7765
  604MOL0     H83328   4.600  10.724   1.988 -1.2329  0.8109 -0.6371
  604MOL0     H83329   4.722  10.626   1.949 -0.0037  0.6529  0.5208
  604MOL0     H83330   4.605  10.424   1.924 -0.3501  0.2306  0.9297
  604MOL0     H83331   4.450  10.503   1.947  0.0534  0.2268 -1.5326
  604MOL0     H83332   4.813  10.850   1.006 -0.4513  0.3502 -0.0007
  604MOL0     H83333   4.789  10.752   0.796 -0.4846 -2.5161 -1.4845
  604MOL0     H83334   4.649  10.614   0.449 -0.9698 -0.3346 -0.3709
  604MOL0     H83335   4.586  10.531   0.250  2.3178  2.4868  1.1391
  604MOL0     H83336   3.788   8.997   0.642  0.1072  1.0882  1.2764
  604MOL0     H83337   3.751   8.923   0.879 -1.7166 -2.1095  1.2882
  604MOL0     H83338   3.277   8.669   1.206 -0.2942  0.9555  1.4493
  604MOL0     H83339   3.275   8.637   1.439  0.4653  0.1924  0.5523
  604MOL0     H83340   3.529   8.913   1.671  1.5213 -0.7964 -0.5969
  604MOL0     H83341   3.443   8.810   1.795  1.0722  0.1861  1.4570
  604MOL0     H83342   3.697   8.792   1.791 -0.9361 -0.3256  0.7220
  604MOL0     H83343   3.699   8.713   1.643  1.9685  2.1429  1.7764
  604MOL0     H83344   3.547   8.618   1.887  0.5074 -0.8580  0.8326
  604MOL0     H83345   3.552   8.533   1.722 -3.0432 -0.9228  2.3053
  604MOL0     H83346   3.782   8.450   1.771  0.3641  0.7695 -1.6685
  604MOL0     H83347   3.691   8.441   1.919  5.4254 -0.1332  1.8540
  604MOL0     H83348   3.950   8.740   2.041 -0.3887  2.5065 -1.5152
  604MOL0     H83349   3.647   8.876   1.456  1.9219 -1.8135 -0.7176
  604MOL0     H83350   3.705   8.915   1.141 -1.6393  2.5505 -2.2156
  604MOL0     H83351   3.612   9.055   1.180 -0.1951 -0.9395 -0.7846
  604MOL0     H83352   3.728   8.991   1.301  0.5235  2.0228 -1.1445
  605MOL0     O83353   3.394   7.907   3.912 -0.3639  0.2148  0.2872
  605MOL0     C83354   3.289   7.881   3.971  0.5767 -1.3906  0.1595
  605MOL0     O83355   3.162   7.896   3.919 -0.5478  0.4145  0.3935
  605MOL0     C83356   3.152   7.977   3.812 -0.0677 -0.5905  0.2034
  605MOL0     C83357   3.143   8.116   3.842  0.0822  0.5251 -1.7143
  605MOL0     C83358   3.125   8.202   3.742  0.4909  0.0537  0.3145
  605MOL0     C83359   3.139   8.161   3.608 -0.8898 -0.4577  0.1700
  605MOL0     O83360   3.135   8.268   3.521  0.1610 -0.9738 -0.5534
  605MOL0     C83361   3.214   8.253   3.402  0.2188 -0.1275  0.2472
  605MOL0     C83362   3.227   8.396   3.342 -0.1480  0.3383 -0.4427
  605MOL0     C83363   3.330   8.484   3.414 -0.6976  0.2810  0.1594
  605MOL0     C83364   3.313   8.615   3.365 -0.5725  0.3129  0.3918
  605MOL0     C83365   3.414   8.710   3.431  0.3349 -0.0131  0.1241
  605MOL0     C83366   3.428   8.846   3.354 -0.4761  0.4261 -0.1063
  605MOL0     C83367   3.479   8.959   3.438  1.3221 -1.4155 -0.0323
  605MOL0     C83368   3.512   9.091   3.372  0.8063 -1.2026  0.3751
  605MOL0     N83369   3.397   9.149   3.319 -0.1974 -0.2156 -0.0666
  605MOL0     C83370   3.319   9.243   3.394 -0.3583 -0.9502  0.5712
  605MOL0     C83371   3.247   9.315   3.304  0.4768 -0.1866  0.8089
  605MOL0     C83372   3.169   9.439   3.332 -0.0117 -0.1433  0.3298
  605MOL0     C83373   3.063   9.463   3.218  1.0014 -0.5435  0.1153
  605MOL0     C83374   2.923   9.391   3.227  0.1767 -0.8813 -0.0166
  605MOL0     C83375   2.920   9.256   3.167  0.0311 -0.3008  0.0873
  605MOL0     O83376   2.794   9.188   3.134 -0.1867 -0.0068 -0.2280
  605MOL0     C83377   2.785   9.074   3.214 -0.2821 -0.6634  0.3934
  605MOL0     C83378   2.868   8.965   3.201 -0.9312 -0.0630  0.8955
  605MOL0     C83379   2.871   8.844   3.277 -0.2713  0.3804 -0.0916
  605MOL0     C83380   2.947   8.731   3.225 -0.5419 -0.6509  0.0185
  605MOL0     C83381   2.774   8.840   3.380  0.4381  0.8102  0.1587
  605MOL0     C83382   2.751   8.728   3.480 -0.8408  0.8640  0.6531
  605MOL0     O83383   2.836   8.621   3.471 -0.0584  0.3077 -0.8585
  605MOL0     C83384   2.812   8.546   3.584  0.0053  0.4904  0.5128
  605MOL0     C83385   2.795   8.407   3.561  0.3643 -0.9457  0.1204
  605MOL0     C83386   2.810   8.322   3.675 -1.0305  0.4368 -0.0056
  605MOL0     C83387   2.840   8.381   3.802 -0.7699 -0.3786  0.5321
  605MOL0     O83388   2.869   8.302   3.914  0.1065  0.4039  0.8936
  605MOL0     C83389   2.798   8.184   3.946  0.0569  0.3459 -0.3414
  605MOL0     C83390   2.666   8.228   4.005 -0.0296  0.8219 -0.5268
  605MOL0     C83391   2.595   8.103   4.077  0.0813  0.6507 -0.2062
  605MOL0     C83392   2.487   8.140   4.175  0.9800 -0.4119  0.5039
  605MOL0     C83393   2.417   8.035   4.256  0.1219 -0.1213  0.0060
  605MOL0     C83394   2.365   7.928   4.166  0.0798 -1.3894  0.0080
  605MOL0     C83395   2.304   7.822   4.267 -0.2749  0.2441 -0.1659
  605MOL0     C83396   2.248   7.703   4.176  0.1052 -0.1773 -1.0875
  605MOL0    Cl83397   2.361   7.604   4.083 -0.0440 -0.0406 -0.2826
  605MOL0     C83398   2.856   8.520   3.816  0.0733 -0.2586  0.5785
  605MOL0     C83399   2.838   8.612   3.707  0.7592  1.3073 -0.7016
  605MOL0     O83400   2.648   8.735   3.539  0.6602  0.2004  0.5930
  605MOL0     C83401   2.684   8.957   3.394  0.1795 -0.5700 -0.5035
  605MOL0     C83402   2.700   9.076   3.317 -0.1187  0.2324 -1.1116
  605MOL0     N83403   3.261   9.256   3.186 -0.4193  1.1078  0.4453
  605MOL0     N83404   3.356   9.166   3.191 -0.7751  0.7634  0.0587
  605MOL0     C83405   3.151   8.028   3.571 -0.0769  1.0231  0.0719
  605MOL0     C83406   3.152   7.939   3.677  0.1110 -0.5502  0.0836
  605MOL0     C83407   3.299   7.836   4.117  0.3785  0.7424 -0.4092
  605MOL0     C83408   3.178   7.827   4.195  0.6954 -0.4391  0.0526
  605MOL0     C83409   3.168   7.775   4.324 -0.5022  1.2367  0.3730
  605MOL0     C83410   3.282   7.726   4.387  0.1570 -0.7095 -1.0362
  605MOL0     O83411   3.276   7.666   4.509  0.5965 -0.2757 -0.0529
  605MOL0     C83412   3.261   7.761   4.617  0.0210 -0.8790 -0.6708
  605MOL0     C83413   3.336   7.689   4.727  0.0546  0.9733  0.2620
  605MOL0     C83414   3.258   7.569   4.781  0.4222  0.8129  0.4160
  605MOL0     C83415   3.235   7.561   4.934 -0.6606 -0.7041 -0.3807
  605MOL0     C83416   3.170   7.439   4.982 -0.5584 -0.3825 -0.0243
  605MOL0     C83417   3.118   7.336   5.018  0.2135  0.0650  0.3683
  605MOL0     C83418   3.398   7.749   4.327  0.8984 -0.4749  0.1109
  605MOL0     C83419   3.417   7.801   4.197  0.6369  0.0541  0.2623
  605MOL0     C83420   3.550   7.800   4.132 -0.0033 -0.6885  0.3476
  605MOL0     H83421   3.147   8.141   3.948 -2.1349 -2.7879 -0.6835
  605MOL0     H83422   3.121   8.305   3.776  3.3514  0.3058  0.1752
  605MOL0     H83423   3.163   8.182   3.335 -0.7752 -1.0972  1.9583
  605MOL0     H83424   3.313   8.212   3.423  1.6382  1.5334 -2.6302
  605MOL0     H83425   3.248   8.378   3.237 -1.5952 -0.9819 -0.5574
  605MOL0     H83426   3.124   8.433   3.349  0.5087  2.3079 -0.6996
  605MOL0     H83427   3.317   8.479   3.522 -0.2777  1.3846  0.2710
  605MOL0     H83428   3.435   8.455   3.405 -1.2860 -1.5613 -1.7446
  605MOL0     H83429   3.338   8.605   3.259  3.5362 -1.4278  1.3251
  605MOL0     H83430   3.214   8.660   3.373  0.7394  3.2475  1.8472
  605MOL0     H83431   3.515   8.668   3.435  0.3884  0.0356 -0.5592
  605MOL0     H83432   3.387   8.728   3.535  1.6435  1.8850  0.1738
  605MOL0     H83433   3.504   8.823   3.279  0.2626  0.9768  0.4591
  605MOL0     H83434   3.326   8.871   3.321 -0.7685 -0.4700  0.0768
  605MOL0     H83435   3.570   8.932   3.494 -1.6137 -0.8801  5.7147
  605MOL0     H83436   3.400   8.981   3.510  1.4926  2.7840 -0.8504
  605MOL0     H83437   3.535   9.165   3.449 -2.9994  1.6362 -0.9310
  605MOL0     H83438   3.578   9.070   3.287  1.6709 -0.4766  0.8579
  605MOL0     H83439   3.328   9.259   3.501  0.2944 -4.2509  1.1032
  605MOL0     H83440   3.232   9.527   3.321 -3.1489  2.2207 -0.0528
  605MOL0     H83441   3.118   9.455   3.427  2.5829  3.2205  1.3614
  605MOL0     H83442   3.052   9.571   3.229 -0.8064 -0.6272 -0.5197
  605MOL0     H83443   3.098   9.442   3.116  0.4154 -0.2418 -0.1502
  605MOL0     H83444   2.870   9.394   3.323  2.2598 -2.4256  1.2724
  605MOL0     H83445   2.860   9.455   3.164  0.8023  2.9216  2.8400
  605MOL0     H83446   2.980   9.250   3.076 -0.9421 -2.9512 -0.4431
  605MOL0     H83447   2.974   9.207   3.249  1.0017  1.5009  0.6041
  605MOL0     H83448   2.941   8.977   3.121 -0.3030  0.4249  1.5248
  605MOL0     H83449   2.997   8.752   3.130 -1.6953 -1.3738 -0.7814
  605MOL0     H83450   2.879   8.658   3.179 -0.7759 -0.2032 -0.3512
  605MOL0     H83451   3.007   8.684   3.303 -2.6801 -2.8417  0.4562
  605MOL0     H83452   2.794   8.384   3.455  3.7666 -0.8400 -0.0548
  605MOL0     H83453   2.817   8.214   3.662 -0.3342  0.5731 -0.8887
  605MOL0     H83454   2.768   8.118   3.863 -2.7660  0.4750  0.4472
  605MOL0     H83455   2.862   8.130   4.015  0.6627 -0.4684 -1.5006
  605MOL0     H83456   2.683   8.306   4.081 -0.1192  2.1858 -1.8458
  605MOL0     H83457   2.599   8.277   3.933 -0.1603  0.9273 -0.3352
  605MOL0     H83458   2.664   8.037   4.130 -1.0176 -0.6317 -0.3293
  605MOL0     H83459   2.566   8.022   4.010 -2.5775  1.3163  0.0552
  605MOL0     H83460   2.405   8.189   4.122  2.1331 -0.6832 -1.6502
  605MOL0     H83461   2.530   8.217   4.240 -2.0153  1.0938  0.8852
  605MOL0     H83462   2.489   7.981   4.318  4.0391  2.2453 -2.1229
  605MOL0     H83463   2.331   8.080   4.308 -0.8626 -1.4420 -0.4336
  605MOL0     H83464   2.436   7.874   4.103 -1.0861 -3.3328  0.2851
  605MOL0     H83465   2.292   7.978   4.102  0.1062 -2.5046 -0.9214
  605MOL0     H83466   2.223   7.868   4.324  0.4987 -1.3818  2.4026
  605MOL0     H83467   2.385   7.776   4.324  1.4478  2.1996 -0.8958
  605MOL0     H83468   2.173   7.738   4.105  0.1831  1.3124 -0.4822
  605MOL0     H83469   2.198   7.636   4.246  0.7663  0.8247  0.3947
  605MOL0     H83470   2.871   8.567   3.913 -0.6899 -0.3099  0.7325
  605MOL0     H83471   2.852   8.717   3.730  0.7898  1.3854 -1.0732
  605MOL0     H83472   2.597   8.946   3.458  1.6988 -1.4579  1.5135
  605MOL0     H83473   2.629   9.157   3.330 -1.5037 -1.2419  1.2890
  605MOL0     H83474   3.162   8.000   3.467  0.6640 -2.0421  0.8616
  605MOL0     H83475   3.150   7.835   3.647  1.9019 -2.2678  5.0336
  605MOL0     H83476   3.077   7.850   4.163  1.1396  2.2349  0.2692
  605MOL0     H83477   3.070   7.761   4.369  1.3171 -2.5915  3.7554
  605MOL0     H83478   3.311   7.856   4.596  0.0212 -0.3254  1.5284
  605MOL0     H83479   3.156   7.777   4.644  0.0934  0.5667 -1.1597
  605MOL0     H83480   3.347   7.757   4.812 -2.4842  0.3861  1.1446
  605MOL0     H83481   3.431   7.655   4.684  0.5635 -0.8775  2.6775
  605MOL0     H83482   3.157   7.577   4.740 -0.4327  3.1937  2.7208
  605MOL0     H83483   3.318   7.480   4.764  0.1962  0.4660  1.3848
  605MOL0     H83484   3.165   7.642   4.952  0.7114  0.7169 -1.2130
  605MOL0     H83485   3.323   7.576   4.997  1.1681  0.5007 -3.0524
  605MOL0     H83486   3.085   7.237   5.045 -1.9867  0.2073 -1.4540
  605MOL0     H83487   3.486   7.734   4.388 -0.4288  0.0737  2.2858
  605MOL0     H83488   3.622   7.738   4.187  0.2172 -1.8540 -1.1655
  605MOL0     H83489   3.549   7.763   4.029  1.6407  2.3780 -0.8833
  605MOL0     H83490   3.568   7.908   4.128 -2.7132 -0.0905  1.9399
  606MOL0     O83491   8.502   0.436   2.830  0.2521  0.5793 -0.0091
  606MOL0     C83492   8.464   0.527   2.914  0.8008  0.7281 -1.1574
  606MOL0     O83493   8.533   0.568   3.015 -0.1806 -0.2782  0.0296
  606MOL0     C83494   8.670   0.532   3.032 -0.2142  0.9436 -0.0441
  606MOL0     C83495   8.699   0.401   3.087  0.7925  0.3463  0.7216
  606MOL0     C83496   8.830   0.346   3.087  0.6077 -0.7597  0.9236
  606MOL0     C83497   8.943   0.415   3.037  0.0755  0.6338 -0.3931
  606MOL0     O83498   9.060   0.357   3.018  0.1453  0.7245  0.0787
  606MOL0     C83499   9.167   0.429   2.947  0.0166  0.1573  0.1855
  606MOL0     C83500   9.277   0.334   2.914 -0.8002  0.6108 -1.1811
  606MOL0     C83501   9.419   0.394   2.921  0.3114  0.1751 -0.5779
  606MOL0     C83502   9.452   0.495   2.812  0.4293 -0.0344  0.1697
  606MOL0     C83503   9.595   0.475   2.776 -0.8435  0.4217  1.6824
  606MOL0     C83504   9.655   0.582   2.691  0.6786 -1.1837  0.8359
  606MOL0     C83505   9.802   0.542   2.646  0.3783 -0.0707  0.8591
  606MOL0     C83506   9.915   0.596   2.736  0.1415 -0.1199  0.3767
  606MOL0     N83507  10.034   0.519   2.700 -0.2532  0.4259 -0.7368
  606MOL0     C83508  10.053   0.384   2.722  0.2171  0.0548 -0.1633
  606MOL0     C83509  10.166   0.350   2.663  0.4959  0.4289  0.0568
  606MOL0     C83510  10.244   0.217   2.679 -0.1395 -1.1932  0.8349
  606MOL0     C83511  10.324   0.225   2.805 -0.0413 -0.2083  0.3704
  606MOL0     C83512  10.377   0.087   2.839  0.0655 -0.4290  0.5233
  606MOL0     C83513  10.486   0.094   2.954  0.1000 -0.1764  0.8873
  606MOL0     O83514  10.610   0.154   2.904  0.3247 -1.0024 -0.4671
  606MOL0     C83515  10.655   0.097   2.789  0.5809 -0.4414 -1.0660
  606MOL0     C83516  10.659  -0.043   2.770  0.3825  0.9861 -0.4129
  606MOL0     C83517  10.701  -0.104   2.648  0.3418 -0.6661 -0.6054
  606MOL0     C83518  10.689  -0.251   2.636  0.1915 -0.5510  0.0313
  606MOL0     C83519  10.755  -0.016   2.549  0.8845  0.8714 -0.1009
  606MOL0     C83520  10.804  -0.061   2.422  0.3640  0.1356 -1.0074
  606MOL0     O83521  10.889   0.023   2.369  0.1546  0.0065 -0.3782
  606MOL0     C83522  10.938  -0.010   2.246  0.3504 -0.0020  0.1198
  606MOL0     C83523  11.065  -0.084   2.230  1.1772 -0.7123  0.1855
  606MOL0     C83524  11.093  -0.132   2.098 -0.2305  0.7816  0.0499
  606MOL0     C83525  11.005  -0.114   1.983  0.3624  0.8838  0.4131
  606MOL0     O83526  11.057  -0.161   1.866  0.5460  0.1825 -0.1559
  606MOL0     C83527  10.960  -0.230   1.791  1.1728  0.1033  0.1482
  606MOL0     C83528  10.919  -0.357   1.866 -0.0326  0.3381  0.3425
  606MOL0     C83529  10.848  -0.466   1.782 -0.6477  0.3675  0.5186
  606MOL0     C83530  10.718  -0.406   1.703  1.2953  1.4900  0.0943
  606MOL0     C83531  10.602  -0.382   1.800 -0.8053 -1.2187  0.2573
  606MOL0     C83532  10.512  -0.249   1.761  0.2431  1.4501 -0.6051
  606MOL0     C83533  10.428  -0.202   1.884  0.2384 -0.0197  0.2736
  606MOL0     C83534  10.333  -0.084   1.857  0.2413  0.3555  0.7281
  606MOL0    Cl83535  10.174  -0.145   1.789 -0.0998  0.2930 -0.1886
  606MOL0     C83536  10.888  -0.047   2.006  0.3688 -0.6009 -0.6896
  606MOL0     C83537  10.853   0.009   2.140 -0.4750  0.3975  0.1830
  606MOL0     O83538  10.777  -0.179   2.380 -1.2179  0.0892 -0.6675
  606MOL0     C83539  10.744   0.114   2.578 -0.5776  1.0043 -0.3433
  606MOL0     C83540  10.712   0.177   2.695  0.6937 -0.5213 -0.3444
  606MOL0     N83541  10.215   0.461   2.588  0.2694  0.3248  0.0259
  606MOL0     N83542  10.141   0.559   2.622  0.9452 -0.4450  0.8051
  606MOL0     C83543   8.913   0.549   2.987 -0.2962  0.3273 -0.9963
  606MOL0     C83544   8.774   0.602   2.985 -1.1667 -0.1561  0.2249
  606MOL0     C83545   8.336   0.598   2.899  0.8657  0.0650 -0.3766
  606MOL0     C83546   8.269   0.660   3.009  0.1654  0.4721  0.2033
  606MOL0     C83547   8.147   0.729   2.994 -0.0955 -0.6260 -0.1540
  606MOL0     C83548   8.080   0.720   2.877  0.6910  0.1379  0.5982
  606MOL0     O83549   7.956   0.775   2.858 -0.0676  0.8187  0.1515
  606MOL0     C83550   7.950   0.918   2.847 -0.3523  0.8843  0.0818
  606MOL0     C83551   8.024   0.972   2.729 -0.2408 -0.4026 -0.3450
  606MOL0     C83552   7.981   0.925   2.598  0.8286  0.6122  0.1690
  606MOL0     C83553   7.833   0.934   2.574  0.2814  0.5092 -0.2796
  606MOL0     C83554   7.792   0.876   2.446  0.1651  0.1017  0.2501
  606MOL0     C83555   7.754   0.810   2.352 -0.4697  0.0472 -0.9623
  606MOL0     C83556   8.138   0.655   2.774 -0.7626 -0.4264  0.3035
  606MOL0     C83557   8.266   0.608   2.776  0.1071 -0.3713  0.0175
  606MOL0     C83558   8.328   0.563   2.648 -0.7720  0.6382  0.3967
  606MOL0     H83559   8.614   0.343   3.121  0.0558  0.3152 -1.0750
  606MOL0     H83560   8.848   0.248   3.129 -1.0770 -1.3572  0.3432
  606MOL0     H83561   9.202   0.512   3.007  0.1065 -0.9832  1.7665
  606MOL0     H83562   9.125   0.467   2.853 -3.7848 -0.9594  1.2455
  606MOL0     H83563   9.265   0.267   2.999 -1.7360  3.2856  0.9253
  606MOL0     H83564   9.259   0.270   2.827 -1.3167  2.2942 -2.3637
  606MOL0     H83565   9.424   0.437   3.021 -0.3283 -3.0403  0.9611
  606MOL0     H83566   9.488   0.310   2.918 -1.0287 -1.0020  0.2405
  606MOL0     H83567   9.385   0.475   2.728 -1.3161 -0.0927  1.5172
  606MOL0     H83568   9.443   0.601   2.838  1.2529  1.0133 -3.3195
  606MOL0     H83569   9.611   0.380   2.725  0.2956  1.7882 -0.6374
  606MOL0     H83570   9.670   0.479   2.856  1.4884  0.2059 -0.3647
  606MOL0     H83571   9.588   0.608   2.608  0.6451  3.4425  2.0041
  606MOL0     H83572   9.657   0.682   2.737 -0.2566 -0.0407 -1.4609
  606MOL0     H83573   9.818   0.584   2.546 -1.4722  0.1078  0.6041
  606MOL0     H83574   9.810   0.435   2.624 -0.2619  0.3137 -1.5300
  606MOL0     H83575   9.930   0.703   2.718 -2.7279  0.0850 -1.3240
  606MOL0     H83576   9.897   0.584   2.843  0.2230  1.8794  0.6534
  606MOL0     H83577   9.991   0.312   2.775  1.2938 -0.9360 -0.2089
  606MOL0     H83578  10.317   0.225   2.598  0.7443  1.3759  1.7806
  606MOL0     H83579  10.167   0.140   2.675  1.0440 -2.3425 -1.6262
  606MOL0     H83580  10.411   0.290   2.794  0.6378 -1.1086  0.3526
  606MOL0     H83581  10.258   0.264   2.883  1.0304  0.1990  1.0949
  606MOL0     H83582  10.294   0.021   2.866 -1.9938  1.3154 -1.1899
  606MOL0     H83583  10.421   0.054   2.745 -4.1075 -1.5262 -1.2467
  606MOL0     H83584  10.449   0.153   3.038  1.2752  0.1417  1.1964
  606MOL0     H83585  10.508  -0.007   2.990 -1.6270 -1.3066 -0.9802
  606MOL0     H83586  10.646  -0.101   2.861  2.3816  5.1159  2.8727
  606MOL0     H83587  10.681  -0.303   2.732  0.3277  1.3223  1.1229
  606MOL0     H83588  10.779  -0.283   2.583  0.3951  2.0341 -1.3750
  606MOL0     H83589  10.598  -0.277   2.581  1.6322 -2.5257 -1.5305
  606MOL0     H83590  11.121  -0.129   2.311  0.4859 -1.8168  0.0699
  606MOL0     H83591  11.191  -0.176   2.083 -1.0471 -2.5774  3.0741
  606MOL0     H83592  10.884  -0.157   1.765  2.0918  2.2621  3.0200
  606MOL0     H83593  11.004  -0.264   1.697 -1.7416 -2.0180 -0.5885
  606MOL0     H83594  11.002  -0.406   1.917 -0.3904  0.0949  0.7021
  606MOL0     H83595  10.854  -0.332   1.951 -0.2694  3.7888 -0.7125
  606MOL0     H83596  10.820  -0.544   1.854 -0.0977 -0.1127  0.2174
  606MOL0     H83597  10.921  -0.507   1.712  0.2661 -1.2330  2.3155
  606MOL0     H83598  10.679  -0.473   1.625 -0.0361 -0.8063  2.5677
  606MOL0     H83599  10.740  -0.318   1.642  1.1914 -0.0051 -2.2650
  606MOL0     H83600  10.549  -0.476   1.813 -0.4983 -1.6099 -1.1644
  606MOL0     H83601  10.638  -0.361   1.901 -1.0863 -4.6275  1.1617
  606MOL0     H83602  10.433  -0.282   1.693 -1.3979  2.4714  0.7245
  606MOL0     H83603  10.567  -0.165   1.717  0.5819  1.1824 -0.7038
  606MOL0     H83604  10.495  -0.167   1.963  2.3725 -3.8644  0.4070
  606MOL0     H83605  10.375  -0.289   1.922  1.9655 -0.8367  0.9116
  606MOL0     H83606  10.368  -0.003   1.793  0.9920 -0.0274  0.6428
  606MOL0     H83607  10.305  -0.040   1.954 -0.6044 -1.5481  1.3936
  606MOL0     H83608  10.828  -0.041   1.916  2.7396 -1.3777 -2.4435
  606MOL0     H83609  10.752   0.044   2.158 -1.1488 -0.4174 -1.7789
  606MOL0     H83610  10.776   0.173   2.493  0.2494  1.0296 -0.0240
  606MOL0     H83611  10.720   0.284   2.714  0.4785 -0.9009  2.1160
  606MOL0     H83612   8.989   0.618   2.952  1.0882 -1.4164 -1.5675
  606MOL0     H83613   8.762   0.704   2.949  0.6191  0.2025  0.5927
  606MOL0     H83614   8.313   0.654   3.109  3.5466  0.5919 -1.1424
  606MOL0     H83615   8.086   0.778   3.069 -1.9951 -1.1372 -1.2824
  606MOL0     H83616   7.844   0.946   2.840  0.0155  2.2130 -0.4669
  606MOL0     H83617   7.999   0.970   2.930  2.0877  1.7347 -1.7944
  606MOL0     H83618   8.130   0.955   2.748 -0.4488  1.6252  3.8207
  606MOL0     H83619   8.001   1.078   2.732 -0.8557 -0.5442  0.2377
  606MOL0     H83620   8.032   0.976   2.515 -0.6998  1.9467  0.0078
  606MOL0     H83621   7.999   0.818   2.585 -4.3760 -0.3398 -1.7562
  606MOL0     H83622   7.816   1.042   2.565 -0.3522  0.5309  0.8969
  606MOL0     H83623   7.773   0.885   2.651 -0.0718  0.8715 -0.3233
  606MOL0     H83624   7.736   0.741   2.271  0.7220  2.3313 -3.3251
  606MOL0     H83625   8.088   0.658   2.677  1.0553  1.1094 -0.6612
  606MOL0     H83626   8.257   0.561   2.565  2.3092 -0.8355 -2.4715
  606MOL0     H83627   8.416   0.620   2.617 -0.1435 -1.4891 -2.1659
  606MOL0     H83628   8.361   0.458   2.652  0.3198  0.9740  0.5298
  607MOL0     O83629   3.003   7.225   1.995 -0.3915  0.3408  0.6460
  607MOL0     C83630   3.058   7.285   2.091  0.0074 -0.6797 -0.9478
  607MOL0     O83631   3.153   7.377   2.079  0.3941 -0.3838 -0.1505
  607MOL0     C83632   3.252   7.356   1.980  0.2626 -0.1084  0.3718
  607MOL0     C83633   3.355   7.448   1.988 -0.4461 -0.0377  0.3290
  607MOL0     C83634   3.454   7.446   1.893 -0.1596 -0.3366 -0.8489
  607MOL0     C83635   3.469   7.351   1.794 -0.9277 -0.1326  0.5844
  607MOL0     O83636   3.553   7.348   1.686 -0.1313 -0.5275 -0.1525
  607MOL0     C83637   3.688   7.362   1.734  0.2564  0.2723 -0.0067
  607MOL0     C83638   3.769   7.407   1.623  0.0465  0.1122  0.4053
  607MOL0     C83639   3.732   7.556   1.585 -0.8795  0.3073 -0.6478
  607MOL0     C83640   3.858   7.624   1.530 -0.2995 -2.0400 -0.7146
  607MOL0     C83641   3.833   7.735   1.426  0.3460  0.9004  0.3162
  607MOL0     C83642   3.948   7.749   1.325 -0.1636  0.2248  0.5808
  607MOL0     C83643   3.916   7.877   1.233 -0.5124 -0.2928 -0.5700
  607MOL0     C83644   4.025   7.871   1.124  0.0643 -0.0108 -0.0952
  607MOL0     N83645   4.029   7.993   1.040 -0.1720 -0.5541 -0.8306
  607MOL0     C83646   3.940   8.029   0.941 -0.3798  0.7338 -0.3173
  607MOL0     C83647   3.989   8.150   0.895 -0.5863  1.2009  0.4502
  607MOL0     C83648   3.923   8.227   0.778 -0.4502  0.2321 -0.0954
  607MOL0     C83649   3.978   8.371   0.749 -0.9011  0.0759  1.2624
  607MOL0     C83650   3.873   8.481   0.729 -1.4338 -0.1897 -0.2617
  607MOL0     C83651   3.791   8.455   0.601 -0.2463 -0.7292 -0.2093
  607MOL0     O83652   3.711   8.573   0.573 -0.4204 -0.6812 -0.7786
  607MOL0     C83653   3.688   8.602   0.446 -0.6689 -0.4402 -0.3021
  607MOL0     C83654   3.636   8.499   0.361  1.1769 -0.2302 -0.3209
  607MOL0     C83655   3.594   8.536   0.237  0.2066 -0.5750 -0.4554
  607MOL0     C83656   3.549   8.414   0.158 -0.0519  0.0188 -0.6973
  607MOL0     C83657   3.584   8.673   0.195 -0.3019 -1.0947 -0.2521
  607MOL0     C83658   3.520   8.719   0.069  0.1009  0.1522  0.5722
  607MOL0     O83659   3.526   8.853   0.046 -0.3494 -0.9207 -0.9113
  607MOL0     C83660   3.510   8.911  -0.077 -0.2511  0.2369 -0.0778
  607MOL0     C83661   3.533   8.832  -0.195 -0.1710 -0.0327 -0.1301
  607MOL0     C83662   3.509   8.892  -0.320 -0.9138 -0.2238  0.4243
  607MOL0     C83663   3.482   9.022  -0.328 -0.1748 -0.6423  0.4488
  607MOL0     O83664   3.477   9.064  -0.454  0.4431 -0.1362  0.0986
  607MOL0     C83665   3.439   9.193  -0.484 -0.6192 -1.4983  1.0932
  607MOL0     C83666   3.472   9.212  -0.640  0.0575  0.5940  0.0297
  607MOL0     C83667   3.505   9.360  -0.683 -0.1803  1.2046 -0.0206
  607MOL0     C83668   3.647   9.410  -0.645  0.1545  0.7895  0.2148
  607MOL0     C83669   3.655   9.552  -0.677 -0.3462 -0.3656 -0.5531
  607MOL0     C83670   3.685   9.579  -0.821  0.0490 -0.3145 -0.5917
  607MOL0     C83671   3.669   9.735  -0.854 -0.4555  0.1581 -1.0821
  607MOL0     C83672   3.707   9.753  -1.003 -0.2322  0.2061  0.5983
  607MOL0    Cl83673   3.891   9.742  -1.027  0.3208  0.3787  0.6078
  607MOL0     C83674   3.473   9.100  -0.216  0.3625 -0.0103 -0.9774
  607MOL0     C83675   3.486   9.048  -0.087 -0.6832  0.1666  1.0305
  607MOL0     O83676   3.449   8.640   0.005 -0.5971 -0.8932  0.1683
  607MOL0     C83677   3.630   8.769   0.283 -0.6374  0.3627 -0.3413
  607MOL0     C83678   3.692   8.733   0.407 -0.8906  0.0416 -0.1744
  607MOL0     N83679   4.110   8.171   0.961  0.0281  0.2117  0.5738
  607MOL0     N83680   4.125   8.082   1.051 -0.1241 -0.0769 -0.3326
  607MOL0     C83681   3.375   7.250   1.789 -0.6367  1.0680 -0.3549
  607MOL0     C83682   3.266   7.249   1.882  0.1661 -0.1242  0.2215
  607MOL0     C83683   3.027   7.248   2.235  0.5133 -1.5524 -0.4001
  607MOL0     C83684   3.080   7.331   2.336 -0.3424  0.4007  0.6692
  607MOL0     C83685   3.065   7.294   2.471  0.3765  0.1801 -0.5024
  607MOL0     C83686   2.993   7.179   2.506  0.0234  0.2169 -0.8150
  607MOL0     O83687   2.984   7.149   2.644 -0.3447 -0.5187  0.0447
  607MOL0     C83688   3.105   7.146   2.725  0.5167  0.2156 -0.4204
  607MOL0     C83689   3.087   7.254   2.839  1.5170  0.2372 -0.2357
  607MOL0     C83690   3.210   7.262   2.928  0.3741 -0.3560 -0.2654
  607MOL0     C83691   3.207   7.384   3.028  0.4822 -0.5353  0.2962
  607MOL0     C83692   3.275   7.350   3.153  0.6990  0.1631 -0.3808
  607MOL0     C83693   3.336   7.327   3.255 -0.2586 -0.2202  0.2798
  607MOL0     C83694   2.943   7.090   2.406  0.1905 -0.6510 -0.1608
  607MOL0     C83695   2.961   7.127   2.273 -0.2449  0.1699  0.4819
  607MOL0     C83696   2.888   7.033   2.180  0.6026  0.4697  0.0602
  607MOL0     H83697   3.358   7.518   2.071 -3.0868  2.4655 -1.4803
  607MOL0     H83698   3.528   7.526   1.897 -0.3657  0.2991 -4.9474
  607MOL0     H83699   3.716   7.262   1.770  1.6997 -0.5708 -3.0640
  607MOL0     H83700   3.701   7.435   1.814 -3.4357 -0.0005  1.0021
  607MOL0     H83701   3.871   7.398   1.661  0.2272  0.0711 -0.0972
  607MOL0     H83702   3.748   7.349   1.533 -0.6516  1.6383 -0.4369
  607MOL0     H83703   3.654   7.550   1.508  0.3054  0.2915 -1.8679
  607MOL0     H83704   3.678   7.605   1.667 -1.4959 -0.7282 -0.4024
  607MOL0     H83705   3.915   7.667   1.613 -2.3731  0.0833 -0.2805
  607MOL0     H83706   3.914   7.544   1.480  3.0753  1.7030 -3.5698
  607MOL0     H83707   3.820   7.832   1.475  0.8882  1.9957 -1.5705
  607MOL0     H83708   3.744   7.726   1.362  1.3510  0.3363 -1.0595
  607MOL0     H83709   4.045   7.740   1.375  0.9093 -2.0761 -1.6552
  607MOL0     H83710   3.958   7.661   1.261 -1.4564  1.0449 -0.7960
  607MOL0     H83711   3.923   7.972   1.286 -0.4834  1.5249 -3.5766
  607MOL0     H83712   3.820   7.850   1.188 -0.5330  0.3081 -0.9045
  607MOL0     H83713   4.117   7.842   1.176  0.7483  1.0029 -0.7201
  607MOL0     H83714   4.000   7.786   1.060 -2.8665 -0.1367  1.0371
  607MOL0     H83715   3.863   7.968   0.896  1.5487 -3.0081  1.0156
  607MOL0     H83716   3.814   8.233   0.781 -0.3968  1.4473 -0.2433
  607MOL0     H83717   3.945   8.160   0.694  1.8428 -1.7652  1.9368
  607MOL0     H83718   4.049   8.394   0.829  0.5135 -1.0789  0.3901
  607MOL0     H83719   4.045   8.370   0.662  0.0591  0.2777  1.9814
  607MOL0     H83720   3.811   8.473   0.819 -0.7528  0.3744  0.2729
  607MOL0     H83721   3.914   8.583   0.724  1.2788 -1.1040  1.2052
  607MOL0     H83722   3.850   8.442   0.510 -2.6276 -1.7683 -1.6969
  607MOL0     H83723   3.735   8.363   0.619  0.1232 -1.1651 -1.2383
  607MOL0     H83724   3.642   8.394   0.387  0.7376  0.2158  1.7652
  607MOL0     H83725   3.575   8.423   0.052 -5.9469  0.7809 -2.4199
  607MOL0     H83726   3.441   8.398   0.167  0.1283 -0.9692 -0.1540
  607MOL0     H83727   3.607   8.329   0.195  3.0853  3.6652  3.8759
  607MOL0     H83728   3.561   8.727  -0.191  3.7902  0.8916  0.7338
  607MOL0     H83729   3.528   8.819  -0.398 -0.1634  0.2857  0.1153
  607MOL0     H83730   3.334   9.210  -0.459 -1.3537 -1.8336 -1.4432
  607MOL0     H83731   3.503   9.264  -0.431 -1.4501 -2.0551  2.9058
  607MOL0     H83732   3.563   9.164  -0.679  0.7899  3.2780 -1.9231
  607MOL0     H83733   3.398   9.164  -0.704  1.5332  0.0627 -1.3714
  607MOL0     H83734   3.421   9.425  -0.655 -1.0734 -0.3565  1.0505
  607MOL0     H83735   3.511   9.376  -0.791 -1.9826  3.9445  0.1790
  607MOL0     H83736   3.731   9.355  -0.688 -1.7232 -1.5296 -0.7399
  607MOL0     H83737   3.656   9.405  -0.536  0.2592  3.0930  0.3667
  607MOL0     H83738   3.565   9.605  -0.645 -0.7012 -0.8764 -0.7039
  607MOL0     H83739   3.740   9.585  -0.616 -0.6786  0.5722 -0.5890
  607MOL0     H83740   3.623   9.519  -0.889  0.4211  0.8702 -2.0211
  607MOL0     H83741   3.785   9.544  -0.848 -0.6113  0.4780 -4.5427
  607MOL0     H83742   3.737   9.792  -0.790 -0.1237 -2.7509  1.4004
  607MOL0     H83743   3.569   9.774  -0.838  0.0968  1.5716 -0.9148
  607MOL0     H83744   3.666   9.847  -1.042  0.4641 -0.6382 -2.4027
  607MOL0     H83745   3.649   9.682  -1.062  0.3588  1.6043 -1.8199
  607MOL0     H83746   3.444   9.205  -0.225 -2.7272 -0.8012 -1.4956
  607MOL0     H83747   3.469   9.126  -0.012 -1.2835  3.0335 -1.8474
  607MOL0     H83748   3.607   8.874   0.264 -1.2450  0.1390 -0.8424
  607MOL0     H83749   3.731   8.807   0.477 -2.3070  1.2866 -0.6724
  607MOL0     H83750   3.394   7.162   1.728  2.5905  2.1346 -1.0590
  607MOL0     H83751   3.197   7.166   1.873  1.5351 -1.1620 -1.5064
  607MOL0     H83752   3.106   7.431   2.303 -1.1260  0.4227  0.1024
  607MOL0     H83753   3.096   7.362   2.550 -2.7312  0.7876  0.3107
  607MOL0     H83754   3.115   7.051   2.777  0.0845 -0.2206 -1.1127
  607MOL0     H83755   3.196   7.162   2.665  1.9319  1.1934  1.8513
  607MOL0     H83756   3.001   7.225   2.900  0.4586 -2.0595 -2.6699
  607MOL0     H83757   3.068   7.349   2.789  0.0470 -1.1130 -2.3708
  607MOL0     H83758   3.221   7.167   2.981  0.8595 -0.5472 -0.7024
  607MOL0     H83759   3.300   7.276   2.868  0.3007  0.7511 -0.1330
  607MOL0     H83760   3.103   7.398   3.056 -0.3243 -0.6469 -2.3363
  607MOL0     H83761   3.246   7.476   2.984  1.1740 -0.2475  1.4789
  607MOL0     H83762   3.399   7.309   3.340  0.0225  1.7251  0.5431
  607MOL0     H83763   2.879   7.006   2.431 -3.0834  1.9598  0.9600
  607MOL0     H83764   2.955   6.984   2.109  1.5227 -2.0693  2.4974
  607MOL0     H83765   2.825   6.964   2.237  2.5652 -1.1441  0.3743
  607MOL0     H83766   2.809   7.092   2.132 -2.6058 -2.7179  0.9942
  608MOL0     O83767   4.425   4.842  11.051  0.7574 -0.5251 -0.0362
  608MOL0     C83768   4.490   4.906  11.133 -0.3155 -0.2442  0.5727
  608MOL0     O83769   4.431   4.982  11.230  0.9360  0.4333  0.9256
  608MOL0     C83770   4.314   4.934  11.293 -0.1928  0.0638 -0.3970
  608MOL0     C83771   4.323   4.828  11.385  0.2726 -0.7461 -0.2019
  608MOL0     C83772   4.200   4.784  11.445  0.4292 -0.4609 -0.0618
  608MOL0     C83773   4.071   4.846  11.424 -0.0110  0.1493  0.9163
  608MOL0     O83774   3.957   4.817  11.499 -0.1728 -0.5160 -0.3450
  608MOL0     C83775   3.846   4.765  11.414 -1.3684 -0.6908  0.8105
  608MOL0     C83776   3.766   4.663  11.493 -0.3574  1.5072  0.3368
  608MOL0     C83777   3.848   4.550  11.561 -0.0438  0.6282  0.1534
  608MOL0     C83778   3.873   4.427  11.473  0.4593  0.7577  0.8702
  608MOL0     C83779   3.962   4.316  11.547  1.2995 -0.0460  0.8542
  608MOL0     C83780   4.042   4.220  11.453  0.1921  1.0249 -0.2301
  608MOL0     C83781   4.094   4.096  11.534  0.1640 -0.1736  0.0180
  608MOL0     C83782   4.188   3.999  11.455  0.3211  0.3891 -0.8540
  608MOL0     N83783   4.278   3.917  11.547  0.0576  0.3401  0.1766
  608MOL0     C83784   4.249   3.796  11.608 -0.2348 -0.0279 -0.0037
  608MOL0     C83785   4.350   3.755  11.679  0.0485  0.5185  0.2532
  608MOL0     C83786   4.346   3.624  11.747  0.6260 -0.9911  0.2210
  608MOL0     C83787   4.451   3.628  11.868 -0.3046  0.1771  0.5438
  608MOL0     C83788   4.442   3.492  11.941  0.0767  0.6410 -0.4680
  608MOL0     C83789   4.479   3.497  12.089  0.2105 -0.7376  0.0748
  608MOL0     O83790   4.417   3.612  12.157 -0.4889  0.2869  0.0559
  608MOL0     C83791   4.503   3.686  12.238  0.1580  0.3301 -0.1583
  608MOL0     C83792   4.451   3.799  12.291 -0.4253 -0.2153 -0.9236
  608MOL0     C83793   4.543   3.892  12.356 -0.0133  0.0938 -1.2012
  608MOL0     C83794   4.470   4.022  12.392 -0.2720 -0.4570 -0.1905
  608MOL0     C83795   4.675   3.860  12.386  0.1418 -1.1557 -0.3918
  608MOL0     C83796   4.768   3.946  12.446 -0.2637 -0.1543 -0.0697
  608MOL0     O83797   4.801   4.060  12.378 -0.1165 -0.4313  0.2508
  608MOL0     C83798   4.865   4.171  12.425 -0.6029 -0.0894  0.4051
  608MOL0     C83799   4.901   4.263  12.324 -0.0872 -0.5359  0.0715
  608MOL0     C83800   4.961   4.387  12.346 -0.5665 -0.4944  0.6523
  608MOL0     C83801   4.996   4.422  12.482  0.6702  0.0135  0.6051
  608MOL0     O83802   5.047   4.543  12.506  0.4791 -0.5503 -0.4094
  608MOL0     C83803   5.189   4.551  12.474  0.3601  0.3837  0.6223
  608MOL0     C83804   5.285   4.485  12.565  0.0933  0.1709  0.1713
  608MOL0     C83805   5.272   4.519  12.714 -0.1272  0.5671  1.2555
  608MOL0     C83806   5.342   4.412  12.806 -0.4298  0.3692 -0.3914
  608MOL0     C83807   5.341   4.441  12.959 -0.2225 -0.1035 -0.0077
  608MOL0     C83808   5.461   4.527  13.004 -0.8892 -0.3122 -0.5497
  608MOL0     C83809   5.581   4.449  13.063 -0.3563 -0.5133 -0.0396
  608MOL0     C83810   5.680   4.540  13.126 -0.3258  0.1991 -0.6984
  608MOL0    Cl83811   5.644   4.564  13.305  0.3318  0.3131 -0.3545
  608MOL0     C83812   4.953   4.337  12.582  0.0283 -0.0722  0.0760
  608MOL0     C83813   4.890   4.211  12.563 -0.4342  0.5776  0.4023
  608MOL0     O83814   4.832   3.900  12.540 -0.2285 -0.6521  0.0628
  608MOL0     C83815   4.717   3.733  12.344 -0.8840 -0.0706  0.0724
  608MOL0     C83816   4.639   3.646  12.264  0.2663  0.4972 -0.5704
  608MOL0     N83817   4.442   3.854  11.666 -0.1447  0.3061 -0.1143
  608MOL0     N83818   4.399   3.950  11.588  0.6928  0.9476  0.8106
  608MOL0     C83819   4.063   4.950  11.328 -1.3580 -0.1100  0.5431
  608MOL0     C83820   4.185   4.990  11.272 -0.1829  1.0288  0.1752
  608MOL0     C83821   4.638   4.928  11.106  0.6986  0.4384  0.0263
  608MOL0     C83822   4.702   4.816  11.037  0.3081 -0.0614  0.2782
  608MOL0     C83823   4.836   4.809  11.008 -1.0931 -0.3913  0.0587
  608MOL0     C83824   4.915   4.908  11.067 -0.9352 -0.0228 -0.0250
  608MOL0     O83825   5.052   4.881  11.048  0.4957 -0.1320  0.4527
  608MOL0     C83826   5.132   4.931  11.159  0.8326  0.2848 -0.3924
  608MOL0     C83827   5.260   4.861  11.159  0.5184 -0.9237 -0.0996
  608MOL0     C83828   5.346   4.891  11.036 -0.8788  0.4870  0.4311
  608MOL0     C83829   5.495   4.899  11.054  0.0437  0.1384  0.2612
  608MOL0     C83830   5.534   5.010  11.142  0.4432 -0.6212 -0.7843
  608MOL0     C83831   5.541   5.104  11.217 -0.1394  0.4916  0.3020
  608MOL0     C83832   4.856   5.021  11.121  0.6720 -0.6228 -0.6425
  608MOL0     C83833   4.727   5.035  11.139  0.2582 -0.9735 -1.0752
  608MOL0     C83834   4.674   5.154  11.221  0.2149 -0.9540 -0.5046
  608MOL0     H83835   4.420   4.782  11.402  0.5926 -1.0771 -2.5180
  608MOL0     H83836   4.201   4.710  11.524  0.1371 -1.0441 -0.5969
  608MOL0     H83837   3.898   4.713  11.332 -0.0162  1.2598  0.3679
  608MOL0     H83838   3.787   4.851  11.382 -0.0685  0.2404  0.8464
  608MOL0     H83839   3.726   4.716  11.580  0.6554  1.2842  0.9517
  608MOL0     H83840   3.691   4.615  11.429  0.5351 -2.7328  2.1055
  608MOL0     H83841   3.945   4.590  11.591  0.1254  0.5299 -0.2496
  608MOL0     H83842   3.794   4.519  11.651  1.9578  0.7470  1.4531
  608MOL0     H83843   3.782   4.396  11.422  1.2488  1.4951 -1.0798
  608MOL0     H83844   3.922   4.463  11.382  0.7098 -2.1448 -0.2453
  608MOL0     H83845   3.897   4.247  11.601  1.9285 -1.3630 -0.0183
  608MOL0     H83846   4.030   4.364  11.617 -0.5133 -0.1561  2.7818
  608MOL0     H83847   3.974   4.184  11.375 -2.0152  0.3205  1.8953
  608MOL0     H83848   4.123   4.278  11.407 -0.4770  2.6945  0.5961
  608MOL0     H83849   4.010   4.029  11.551 -0.0085 -0.8856 -3.1413
  608MOL0     H83850   4.141   4.116  11.631  1.5618 -0.5336 -0.5580
  608MOL0     H83851   4.131   3.922  11.403 -1.8086 -1.4109  3.6905
  608MOL0     H83852   4.247   4.059  11.385 -1.2416 -1.2193 -3.7339
  608MOL0     H83853   4.156   3.739  11.609  0.0052 -0.6659 -3.3623
  608MOL0     H83854   4.375   3.539  11.685 -0.0619 -2.7975  2.2684
  608MOL0     H83855   4.244   3.602  11.781  0.1531  1.7630  0.8579
  608MOL0     H83856   4.551   3.638  11.825 -1.4597 -0.7499 -2.6626
  608MOL0     H83857   4.412   3.705  11.935 -1.0774  0.4453 -0.2075
  608MOL0     H83858   4.338   3.458  11.947  0.8623 -1.9371 -0.3813
  608MOL0     H83859   4.497   3.412  11.890  0.1736  0.1710  0.3590
  608MOL0     H83860   4.457   3.406  12.145  0.7496 -0.3348  0.9719
  608MOL0     H83861   4.588   3.495  12.093  0.2438  0.9807  1.3265
  608MOL0     H83862   4.345   3.825  12.292 -0.2900  0.4176  0.6618
  608MOL0     H83863   4.541   4.105  12.392 -2.5207  1.6913  2.9126
  608MOL0     H83864   4.415   4.023  12.486 -4.5094  1.1087 -2.4172
  608MOL0     H83865   4.407   4.051  12.307 -2.9030 -0.0301  1.7656
  608MOL0     H83866   4.883   4.222  12.225 -0.6488 -1.7927  0.6645
  608MOL0     H83867   4.997   4.442  12.260  0.1754 -3.2046 -0.8993
  608MOL0     H83868   5.218   4.520  12.373 -1.3364 -0.0365  0.2284
  608MOL0     H83869   5.223   4.655  12.464  2.1980 -0.1974  0.3747
  608MOL0     H83870   5.256   4.380  12.553 -2.5219  0.7180  1.0799
  608MOL0     H83871   5.385   4.512  12.530  0.0830 -1.5920 -1.3955
  608MOL0     H83872   5.166   4.524  12.741 -0.5012  2.1657 -0.3412
  608MOL0     H83873   5.319   4.611  12.747  2.5753 -0.6486  1.0159
  608MOL0     H83874   5.445   4.391  12.775 -0.5475 -1.1524  0.1847
  608MOL0     H83875   5.270   4.331  12.795 -0.8778  0.5679  0.9056
  608MOL0     H83876   5.247   4.490  12.984 -0.0792  1.7153 -2.7012
  608MOL0     H83877   5.342   4.344  13.011 -1.2092  0.8611  1.9023
  608MOL0     H83878   5.428   4.593  13.085  4.4993  0.0630  1.7574
  608MOL0     H83879   5.486   4.597  12.923 -2.0407  0.2401 -0.4634
  608MOL0     H83880   5.639   4.405  12.982  0.1365 -0.6865  0.3972
  608MOL0     H83881   5.547   4.380  13.142  3.4680 -0.5164  1.8355
  608MOL0     H83882   5.689   4.631  13.066 -0.4955 -0.0368 -1.0901
  608MOL0     H83883   5.779   4.493  13.119 -0.6836 -0.6487 -0.2282
  608MOL0     H83884   4.980   4.378  12.678  1.8434 -1.1011  0.0554
  608MOL0     H83885   4.872   4.148  12.649  0.1303  0.2605  0.2958
  608MOL0     H83886   4.817   3.703  12.371 -1.8843 -2.4917  1.3576
  608MOL0     H83887   4.695   3.560  12.229 -0.2075  0.9024 -2.3752
  608MOL0     H83888   3.976   5.013  11.311 -0.8836  1.7191  3.9032
  608MOL0     H83889   4.177   5.077  11.207 -0.2573  0.9162  0.0338
  608MOL0     H83890   4.641   4.730  11.012  1.5073 -0.0793 -3.1775
  608MOL0     H83891   4.869   4.718  10.958 -0.7264 -1.2217  1.7542
  608MOL0     H83892   5.153   5.038  11.160 -0.5623  0.6453  3.0148
  608MOL0     H83893   5.080   4.913  11.253  1.1951 -1.5090 -0.4857
  608MOL0     H83894   5.235   4.755  11.171 -0.8126 -0.3977  2.4038
  608MOL0     H83895   5.307   4.890  11.254 -1.4257  1.1643  0.3011
  608MOL0     H83896   5.318   4.804  10.976 -0.5861 -0.6521  1.8939
  608MOL0     H83897   5.316   4.977  10.976 -1.7702  0.2718  0.5565
  608MOL0     H83898   5.543   4.906  10.956  2.1009  1.7286  1.3113
  608MOL0     H83899   5.529   4.807  11.103 -0.0075 -0.3368 -0.5733
  608MOL0     H83900   5.542   5.190  11.281  2.0935  0.6508  0.1262
  608MOL0     H83901   4.914   5.094  11.176 -1.2475 -0.5838  1.4733
  608MOL0     H83902   4.649   5.127  11.324 -0.7269  0.0649 -0.4479
  608MOL0     H83903   4.732   5.246  11.223 -3.6373  1.6906  1.2366
  608MOL0     H83904   4.578   5.170  11.172 -0.5004 -0.1342  1.0800
  609MOL0     O83905   4.922   3.936   3.595  0.3848  0.5954  0.2074
  609MOL0     C83906   4.941   3.962   3.711  0.4378 -1.3557 -0.4263
  609MOL0     O83907   4.890   4.079   3.773  0.1287  0.2556 -0.1170
  609MOL0     C83908   4.844   4.183   3.694 -0.2973  1.1255  0.2067
  609MOL0     C83909   4.707   4.184   3.666  1.3647 -0.3529 -0.9018
  609MOL0     C83910   4.659   4.270   3.568 -0.1313  0.0532 -1.8462
  609MOL0     C83911   4.740   4.367   3.509 -0.3751  0.0475 -0.1181
  609MOL0     O83912   4.676   4.461   3.430 -0.1874 -0.4928 -0.8727
  609MOL0     C83913   4.729   4.479   3.303 -1.0277 -0.8905  0.2740
  609MOL0     C83914   4.623   4.540   3.210 -0.4760 -1.0219 -0.0012
  609MOL0     C83915   4.693   4.575   3.070 -0.6975  0.1695  0.6051
  609MOL0     C83916   4.668   4.465   2.959  0.2842 -0.0309  0.1867
  609MOL0     C83917   4.521   4.480   2.918  0.3341 -0.0888  0.2432
  609MOL0     C83918   4.485   4.355   2.841 -0.6024  0.6226  0.6189
  609MOL0     C83919   4.350   4.360   2.787  0.5069 -0.0049 -0.9567
  609MOL0     C83920   4.326   4.216   2.727  1.2853 -1.1434  0.5075
  609MOL0     N83921   4.211   4.210   2.636  0.0409  1.0084  0.3763
  609MOL0     C83922   4.175   4.310   2.552  0.7215 -0.3573 -0.9235
  609MOL0     C83923   4.043   4.295   2.526 -0.7208  0.8087  0.4941
  609MOL0     C83924   3.969   4.386   2.425 -0.1129  0.1600  0.4862
  609MOL0     C83925   4.036   4.385   2.285  0.0981  0.8882  0.9756
  609MOL0     C83926   3.946   4.455   2.171  1.1507 -0.4047 -0.3530
  609MOL0     C83927   4.037   4.476   2.056 -0.9071  0.2372 -0.7993
  609MOL0     O83928   4.144   4.565   2.084  0.1246 -0.1185 -1.0788
  609MOL0     C83929   4.254   4.569   2.012 -0.8979 -0.5546  0.2958
  609MOL0     C83930   4.283   4.504   1.883  0.3192  0.1731  0.1121
  609MOL0     C83931   4.410   4.515   1.820 -0.9304  0.4424 -0.4247
  609MOL0     C83932   4.438   4.438   1.692 -0.3059 -0.0939 -0.6607
  609MOL0     C83933   4.508   4.594   1.886 -0.6850  0.3156  0.6478
  609MOL0     C83934   4.646   4.606   1.837 -0.1513  0.1101  0.1342
  609MOL0     O83935   4.689   4.739   1.822  0.7816 -0.1951 -0.8161
  609MOL0     C83936   4.822   4.759   1.813 -0.3699 -0.6443 -0.6688
  609MOL0     C83937   4.876   4.868   1.882 -0.1323  1.0454  0.1441
  609MOL0     C83938   5.018   4.883   1.904 -0.3121  0.0320 -0.5454
  609MOL0     C83939   5.107   4.817   1.827 -0.4034 -0.2929  0.4464
  609MOL0     O83940   5.236   4.855   1.852 -0.0618  0.2435  0.5843
  609MOL0     C83941   5.350   4.780   1.795 -0.4420 -0.7721  0.7050
  609MOL0     C83942   5.474   4.871   1.798  0.3342 -0.3236 -0.7719
  609MOL0     C83943   5.475   4.986   1.698  0.5526  0.3825 -0.4860
  609MOL0     C83944   5.379   5.105   1.746 -0.2592  0.6596  1.4079
  609MOL0     C83945   5.405   5.242   1.674 -0.3891  0.1419 -0.5360
  609MOL0     C83946   5.546   5.289   1.718  0.1326  0.2198  0.0340
  609MOL0     C83947   5.555   5.440   1.711 -0.2487 -0.3269 -0.8972
  609MOL0     C83948   5.706   5.486   1.694  0.6053  0.3770 -0.8708
  609MOL0    Cl83949   5.771   5.480   1.531  0.1014  0.2575  0.2690
  609MOL0     C83950   5.051   4.715   1.737 -0.4911  0.1543 -0.4311
  609MOL0     C83951   4.919   4.676   1.738 -0.5347 -0.3973  0.1419
  609MOL0     O83952   4.707   4.500   1.821 -0.5186  0.5315  0.2806
  609MOL0     C83953   4.484   4.660   2.004  0.0583 -0.8283  0.4874
  609MOL0     C83954   4.353   4.643   2.070  0.0489  0.2227  0.2833
  609MOL0     N83955   4.011   4.164   2.575  0.2921 -1.0817 -0.6483
  609MOL0     N83956   4.109   4.116   2.644  0.1323  0.2923 -0.8676
  609MOL0     C83957   4.874   4.375   3.558  0.2595 -1.3720  0.8451
  609MOL0     C83958   4.926   4.271   3.635  0.5949 -0.2021 -0.1605
  609MOL0     C83959   4.977   3.854   3.804  0.0464  0.5381  0.6935
  609MOL0     C83960   4.929   3.868   3.932 -0.2519  0.6242  0.4084
  609MOL0     C83961   4.967   3.788   4.033 -0.0408 -0.3105 -0.3183
  609MOL0     C83962   5.057   3.688   4.010 -0.0925  0.3566  1.3023
  609MOL0     O83963   5.095   3.589   4.107  0.2901 -0.3288  0.4465
  609MOL0     C83964   5.080   3.631   4.246 -0.6301 -0.4787  1.2831
  609MOL0     C83965   5.155   3.533   4.335 -0.3675  1.2095 -0.6656
  609MOL0     C83966   5.287   3.576   4.399  0.5664 -1.3401  0.2364
  609MOL0     C83967   5.360   3.471   4.472 -0.0224  0.5222  0.5984
  609MOL0     C83968   5.429   3.371   4.378  0.3373  0.3082 -0.3796
  609MOL0     C83969   5.486   3.296   4.297  1.0468  1.0165 -0.6009
  609MOL0     C83970   5.104   3.672   3.878 -1.2005  0.7966  0.4447
  609MOL0     C83971   5.070   3.756   3.775 -0.1686  0.3195  0.9749
  609MOL0     C83972   5.149   3.755   3.640  0.3249  0.2433  0.6430
  609MOL0     H83973   4.654   4.107   3.721  1.6605  1.1714  1.7225
  609MOL0     H83974   4.558   4.264   3.530 -0.4717  1.6611 -1.2589
  609MOL0     H83975   4.760   4.386   3.254  1.4746  0.2121 -0.3973
  609MOL0     H83976   4.819   4.541   3.310  0.0428 -2.4789  1.5676
  609MOL0     H83977   4.541   4.470   3.191 -1.1790 -0.0244 -0.7420
  609MOL0     H83978   4.583   4.635   3.245 -2.4053 -1.4770 -0.8604
  609MOL0     H83979   4.649   4.667   3.030  0.3018 -0.4592 -2.1385
  609MOL0     H83980   4.797   4.600   3.097 -0.9311  1.2937  0.5252
  609MOL0     H83981   4.736   4.476   2.874  0.0919  0.3537  0.0823
  609MOL0     H83982   4.676   4.366   3.005  0.4774  0.9018  2.2792
  609MOL0     H83983   4.520   4.578   2.869 -0.0886  1.1972  2.6822
  609MOL0     H83984   4.445   4.489   2.996 -2.1032 -1.2560 -1.8552
  609MOL0     H83985   4.557   4.363   2.759 -1.1928  1.1547  0.1447
  609MOL0     H83986   4.499   4.270   2.908  1.8501  2.2485  2.3108
  609MOL0     H83987   4.343   4.438   2.711 -2.5026 -0.1592 -0.9555
  609MOL0     H83988   4.282   4.389   2.867  0.4392 -0.7959 -0.7216
  609MOL0     H83989   4.417   4.188   2.674  2.5477  2.5463  0.4435
  609MOL0     H83990   4.317   4.152   2.816  2.4165 -2.3487 -0.2224
  609MOL0     H83991   4.239   4.396   2.534  0.3710 -0.0534 -0.7013
  609MOL0     H83992   3.961   4.488   2.463 -4.2446  0.9966 -1.9067
  609MOL0     H83993   3.865   4.354   2.408  0.0612 -0.2945  0.2609
  609MOL0     H83994   4.129   4.442   2.288  1.9083 -1.7019 -0.9228
  609MOL0     H83995   4.057   4.285   2.245 -0.5717  1.6875 -1.5830
  609MOL0     H83996   3.871   4.381   2.139  2.0825 -0.5502 -2.3977
  609MOL0     H83997   3.914   4.552   2.208 -0.8808 -0.7539 -1.0212
  609MOL0     H83998   4.079   4.380   2.024 -0.4694  0.6525 -1.4953
  609MOL0     H83999   3.981   4.516   1.971 -0.6901  0.2313 -0.9442
  609MOL0     H84000   4.199   4.451   1.839 -0.0386  0.7627  0.0745
  609MOL0     H84001   4.512   4.360   1.715 -0.1891  0.4002  0.6739
  609MOL0     H84002   4.478   4.516   1.626 -0.0728  2.0157  1.8342
  609MOL0     H84003   4.353   4.390   1.642  0.1960  0.9402 -2.6375
  609MOL0     H84004   4.818   4.927   1.952  1.1419  0.5488  1.6883
  609MOL0     H84005   5.057   4.939   1.988 -0.0879 -0.1493 -0.5270
  609MOL0     H84006   5.364   4.688   1.853 -0.4405 -2.3227 -1.5952
  609MOL0     H84007   5.328   4.757   1.690 -0.5269 -1.5332  0.8809
  609MOL0     H84008   5.478   4.916   1.897 -1.2659  1.8862 -1.6320
  609MOL0     H84009   5.567   4.816   1.782 -0.4680 -2.1589  0.5421
  609MOL0     H84010   5.446   4.943   1.602 -0.3917  3.4342 -1.6896
  609MOL0     H84011   5.576   5.024   1.677 -0.4211  2.2382 -2.1500
  609MOL0     H84012   5.376   5.113   1.855 -2.2175  0.9099  1.3773
  609MOL0     H84013   5.275   5.079   1.722 -0.3728  0.8703  1.6581
  609MOL0     H84014   5.400   5.224   1.567  0.0498 -2.1294 -0.2394
  609MOL0     H84015   5.331   5.317   1.702  0.4978  0.8959 -0.1471
  609MOL0     H84016   5.624   5.240   1.658  1.1570  1.3957  0.3604
  609MOL0     H84017   5.563   5.254   1.819 -0.5567  0.2180  0.1567
  609MOL0     H84018   5.514   5.494   1.797  2.1312  3.1004 -1.7111
  609MOL0     H84019   5.495   5.486   1.631  2.0671  1.5655 -1.6401
  609MOL0     H84020   5.769   5.430   1.764 -0.2317  3.0728  2.2660
  609MOL0     H84021   5.719   5.593   1.710 -2.8768  0.8566 -0.5026
  609MOL0     H84022   5.129   4.659   1.686 -1.5602 -1.4790 -0.3532
  609MOL0     H84023   4.888   4.591   1.678  0.2781 -0.3287 -0.4007
  609MOL0     H84024   4.560   4.727   2.043  1.1576 -0.9164 -1.3479
  609MOL0     H84025   4.344   4.700   2.162  0.1412  2.1186 -0.8483
  609MOL0     H84026   4.940   4.453   3.520 -1.7161  0.1769  0.3510
  609MOL0     H84027   5.032   4.265   3.659  0.5878 -5.5483 -0.3086
  609MOL0     H84028   4.864   3.951   3.957  0.8409  1.4233  0.6991
  609MOL0     H84029   4.925   3.818   4.129  0.9712  1.5927 -0.4217
  609MOL0     H84030   5.142   3.721   4.246 -1.8129  0.4049 -0.8771
  609MOL0     H84031   4.978   3.653   4.278 -0.9127  0.4908 -0.1862
  609MOL0     H84032   5.177   3.455   4.262  2.7062  1.2616  0.0533
  609MOL0     H84033   5.085   3.482   4.401 -0.5267  1.3824 -0.7016
  609MOL0     H84034   5.350   3.622   4.323 -0.7513  0.0410 -0.0769
  609MOL0     H84035   5.266   3.656   4.471 -2.1992  0.5333 -2.3933
  609MOL0     H84036   5.295   3.411   4.537 -0.1794 -0.8017 -0.7344
  609MOL0     H84037   5.425   3.515   4.549  0.4822 -2.9466  2.3706
  609MOL0     H84038   5.542   3.229   4.236 -0.8527 -0.9764 -0.2976
  609MOL0     H84039   5.195   3.614   3.868  1.0103  3.7635  1.8338
  609MOL0     H84040   5.206   3.666   3.612 -0.8858  0.2513 -2.2100
  609MOL0     H84041   5.090   3.778   3.551  0.6784  1.1493  0.6352
  609MOL0     H84042   5.215   3.842   3.640 -0.0305  0.5386 -0.8250
  610MOL0     O84043   9.831   0.816   9.969 -0.8250  0.0433  1.1522
  610MOL0     C84044   9.791   0.824  10.081 -0.0848  0.4309 -0.7048
  610MOL0     O84045   9.745   0.941  10.144  0.5699 -0.2377  1.1472
  610MOL0     C84046   9.756   1.062  10.078 -1.7649 -1.0288 -0.1952
  610MOL0     C84047   9.668   1.161  10.113 -0.3079 -0.6966  0.9674
  610MOL0     C84048   9.682   1.300  10.077  0.1454  0.1877  0.2590
  610MOL0     C84049   9.787   1.338   9.995  0.6191  0.0541 -0.5344
  610MOL0     O84050   9.804   1.463   9.950  0.3932  0.1765  0.3316
  610MOL0     C84051   9.710   1.515   9.852  0.4415  1.1030 -0.1269
  610MOL0     C84052   9.785   1.610   9.755 -0.3648 -0.5661 -0.3692
  610MOL0     C84053   9.880   1.535   9.659  0.3302 -0.0599  0.1040
  610MOL0     C84054   9.941   1.626   9.558 -0.0349  0.2877  0.2115
  610MOL0     C84055  10.057   1.714   9.606 -0.2067  0.5413 -0.1013
  610MOL0     C84056  10.062   1.849   9.536 -1.4546  0.0371  0.4307
  610MOL0     C84057  10.091   1.845   9.385  0.2297 -0.3994 -0.1522
  610MOL0     C84058  10.081   1.974   9.313  0.3580  0.5192 -0.3040
  610MOL0     N84059   9.943   2.000   9.268 -0.1319 -0.0123 -0.0431
  610MOL0     C84060   9.897   1.986   9.144  0.9122  1.1590 -0.6310
  610MOL0     C84061   9.786   2.059   9.142  0.1494 -0.1002 -0.7678
  610MOL0     C84062   9.706   2.089   9.019 -0.4760 -0.2570 -0.2513
  610MOL0     C84063   9.721   2.236   8.982  0.7727 -0.0162  0.0440
  610MOL0     C84064   9.702   2.336   9.089  0.6567  0.3497  0.2390
  610MOL0     C84065   9.571   2.336   9.159  0.3732 -0.5077  0.5095
  610MOL0     O84066   9.472   2.359   9.058  0.3209  0.3184  0.0938
  610MOL0     C84067   9.357   2.282   9.053 -0.4783 -0.4497 -0.9363
  610MOL0     C84068   9.255   2.327   8.956  0.3209  0.7920 -0.3658
  610MOL0     C84069   9.117   2.289   8.968  0.1590  1.3829 -0.3642
  610MOL0     C84070   9.008   2.373   8.887 -0.8421  0.4302 -0.0472
  610MOL0     C84071   9.082   2.179   9.051 -0.4403  0.7905 -0.1939
  610MOL0     C84072   8.947   2.113   9.059  0.2289 -0.1624  0.4686
  610MOL0     O84073   8.930   2.000   9.139 -0.5552 -0.8014  0.0159
  610MOL0     C84074   8.812   1.935   9.142  0.7076  0.4775  0.0331
  610MOL0     C84075   8.792   1.824   9.069 -0.6032 -0.9128  0.5843
  610MOL0     C84076   8.673   1.753   9.087 -0.0166  0.5064  0.2776
  610MOL0     C84077   8.580   1.801   9.181  0.8826  0.0703  0.8442
  610MOL0     O84078   8.461   1.736   9.195  0.4668 -0.2678 -0.1540
  610MOL0     C84079   8.435   1.686   9.328  0.4357 -0.0337 -0.4136
  610MOL0     C84080   8.284   1.719   9.358  0.0340  0.3425 -0.3627
  610MOL0     C84081   8.200   1.604   9.323 -0.1201  0.1338  0.1014
  610MOL0     C84082   8.071   1.606   9.405  0.1012 -0.1084 -0.0551
  610MOL0     C84083   8.080   1.588   9.558  0.4269  0.1692 -0.6623
  610MOL0     C84084   7.942   1.613   9.628 -0.6173  0.2766 -0.3980
  610MOL0     C84085   7.932   1.547   9.766  0.0237 -0.7023 -0.6919
  610MOL0     C84086   7.814   1.596   9.852  0.0431  0.2260  0.5331
  610MOL0    Cl84087   7.818   1.547  10.026  0.2776 -0.3704 -0.3999
  610MOL0     C84088   8.603   1.912   9.262  0.8326 -0.6352  0.2752
  610MOL0     C84089   8.725   1.973   9.238  0.2530  0.6170 -0.8466
  610MOL0     O84090   8.861   2.162   8.987  0.1432  0.5723  0.0194
  610MOL0     C84091   9.182   2.129   9.138 -0.0711  0.1279  0.0721
  610MOL0     C84092   9.317   2.171   9.135  0.4232  0.2341 -0.1810
  610MOL0     N84093   9.753   2.091   9.270  0.4122 -0.2731 -0.0644
  610MOL0     N84094   9.847   2.049   9.351 -0.6132  1.2147 -0.7818
  610MOL0     C84095   9.880   1.242   9.957  0.4146  0.3754  0.0673
  610MOL0     C84096   9.868   1.111  10.000  0.6106  0.2503 -0.2176
  610MOL0     C84097   9.763   0.702  10.161 -0.1803 -1.0381  0.6356
  610MOL0     C84098   9.665   0.709  10.261  1.2519  1.5592  0.4627
  610MOL0     C84099   9.620   0.586  10.319  1.1948  0.4008 -0.1433
  610MOL0     C84100   9.688   0.468  10.295  0.2348  0.3860  0.8929
  610MOL0     O84101   9.669   0.354  10.372 -1.2468  0.0438 -1.1157
  610MOL0     C84102   9.575   0.356  10.481  0.1574 -0.9505  0.6388
  610MOL0     C84103   9.598   0.222  10.549  0.1688 -0.2354  1.3629
  610MOL0     C84104   9.529   0.115  10.462 -0.2164 -0.4976 -0.6932
  610MOL0     C84105   9.566  -0.017  10.526 -0.0206  0.0569  0.6034
  610MOL0     C84106   9.505  -0.127  10.449  0.6472  0.6470  0.9464
  610MOL0     C84107   9.446  -0.205  10.379 -0.1708 -0.1189 -0.4468
  610MOL0     C84108   9.795   0.469  10.203 -0.0314  0.5211 -0.1571
  610MOL0     C84109   9.834   0.581  10.127  0.9940  0.7447 -0.3168
  610MOL0     C84110   9.951   0.565  10.020  0.3033  1.0252 -0.3178
  610MOL0     H84111   9.572   1.147  10.161 -1.0397  0.6298 -0.0159
  610MOL0     H84112   9.607   1.365  10.120 -1.8300  0.5686 -3.3401
  610MOL0     H84113   9.619   1.549   9.903 -0.6448 -2.7439  0.7730
  610MOL0     H84114   9.673   1.432   9.791  1.2619  1.5031 -1.1984
  610MOL0     H84115   9.707   1.661   9.697  0.3700  1.1990  0.1226
  610MOL0     H84116   9.842   1.690   9.803 -0.2660 -0.6976 -0.2668
  610MOL0     H84117   9.969   1.480   9.691 -0.4057 -1.9964 -1.0343
  610MOL0     H84118   9.824   1.458   9.605  1.1425  1.9447 -3.9658
  610MOL0     H84119   9.968   1.570   9.467 -1.0784  0.4822 -0.2277
  610MOL0     H84120   9.857   1.688   9.525 -2.4051 -3.4684 -1.4636
  610MOL0     H84121  10.153   1.663   9.595  0.5306  0.9344  3.2255
  610MOL0     H84122  10.041   1.734   9.713 -0.7458 -1.9137  0.3345
  610MOL0     H84123   9.958   1.879   9.553 -1.1874 -0.3066  3.0152
  610MOL0     H84124  10.133   1.912   9.591 -3.1646 -1.3480  4.6503
  610MOL0     H84125  10.036   1.766   9.333  2.4876 -3.0256  1.2051
  610MOL0     H84126  10.196   1.816   9.375  1.4564  3.4648  0.0761
  610MOL0     H84127  10.115   2.047   9.387  4.5432 -1.5367  0.0995
  610MOL0     H84128  10.148   1.962   9.227 -0.0246 -0.0321 -0.5317
  610MOL0     H84129   9.963   1.937   9.074  4.5819 -1.7259  4.1790
  610MOL0     H84130   9.598   2.074   9.028 -1.1568  3.8725  0.4381
  610MOL0     H84131   9.750   2.028   8.940  0.4178 -1.0084  0.7997
  610MOL0     H84132   9.814   2.265   8.932 -1.5678  3.3853 -2.9208
  610MOL0     H84133   9.663   2.265   8.894  0.1642 -2.8744 -0.5951
  610MOL0     H84134   9.784   2.330   9.161 -1.0732 -1.1344  2.2274
  610MOL0     H84135   9.716   2.431   9.037  2.7533 -0.3732 -0.6276
  610MOL0     H84136   9.549   2.255   9.229  0.6741  0.7927  2.1788
  610MOL0     H84137   9.566   2.424   9.224 -1.7930  1.5858 -2.2358
  610MOL0     H84138   9.287   2.418   8.906 -0.9840  1.7281  0.4657
  610MOL0     H84139   8.947   2.310   8.822 -1.6591 -1.3929  2.3095
  610MOL0     H84140   9.032   2.472   8.845  1.8197 -0.5972 -1.1234
  610MOL0     H84141   8.931   2.401   8.960 -0.6187 -1.9783  1.1839
  610MOL0     H84142   8.876   1.782   9.014 -1.3405 -2.1414  0.3618
  610MOL0     H84143   8.653   1.653   9.051 -3.3414 -0.1382  3.2984
  610MOL0     H84144   8.437   1.577   9.316 -2.7924 -0.4465  1.5769
  610MOL0     H84145   8.504   1.711   9.408  0.4146  1.5290 -0.8568
  610MOL0     H84146   8.279   1.724   9.467 -1.7899 -3.1995 -0.1362
  610MOL0     H84147   8.244   1.808   9.308  1.3838 -0.8194 -3.7735
  610MOL0     H84148   8.246   1.507   9.341 -1.5447 -0.5297  0.2881
  610MOL0     H84149   8.169   1.618   9.219  1.0616  1.3555 -0.1245
  610MOL0     H84150   8.007   1.522   9.375  0.6374 -0.3553 -0.5341
  610MOL0     H84151   8.018   1.700   9.386  2.4095  1.3173  0.1518
  610MOL0     H84152   8.109   1.485   9.582  1.5053  0.6614  0.2420
  610MOL0     H84153   8.147   1.658   9.608 -1.6480  0.7455  1.5112
  610MOL0     H84154   7.860   1.574   9.567 -1.2242  1.4124 -0.3320
  610MOL0     H84155   7.926   1.720   9.641 -0.5120  0.0737  1.8786
  610MOL0     H84156   8.023   1.564   9.826 -2.2736 -1.1268  3.2492
  610MOL0     H84157   7.920   1.440   9.753 -1.5932 -0.5742 -0.4210
  610MOL0     H84158   7.718   1.574   9.805 -1.7184 -1.1710  4.3568
  610MOL0     H84159   7.818   1.705   9.849  0.6148  0.1843 -1.0657
  610MOL0     H84160   8.521   1.953   9.321  0.8518  0.7730 -0.6232
  610MOL0     H84161   8.733   2.069   9.288 -1.8449  0.7453 -0.6644
  610MOL0     H84162   9.168   2.047   9.208  1.0257 -2.1904 -2.2574
  610MOL0     H84163   9.388   2.122   9.200 -0.8718 -1.3724  0.0993
  610MOL0     H84164   9.972   1.270   9.905  0.2276  2.0761  0.5986
  610MOL0     H84165   9.949   1.041   9.980 -0.4627 -0.2853 -3.1974
  610MOL0     H84166   9.609   0.796  10.292 -1.3996 -0.2638  1.2029
  610MOL0     H84167   9.547   0.592  10.398  1.4175 -2.1288  0.3470
  610MOL0     H84168   9.612   0.439  10.542  3.8284  0.1726 -2.7218
  610MOL0     H84169   9.469   0.370  10.458  0.3286 -0.8276 -0.1003
  610MOL0     H84170   9.552   0.227  10.648  0.1478  0.8763  1.3145
  610MOL0     H84171   9.706   0.206  10.546  0.1367 -0.4321  1.2698
  610MOL0     H84172   9.423   0.141  10.466 -0.4079 -1.1367 -1.2906
  610MOL0     H84173   9.566   0.114  10.359 -1.2605  1.9601 -1.1684
  610MOL0     H84174   9.543  -0.023  10.633 -0.5367  0.3873  0.5149
  610MOL0     H84175   9.676  -0.021  10.521 -0.1046 -0.7633 -1.1223
  610MOL0     H84176   9.391  -0.262  10.307 -0.7856 -3.7160  2.5704
  610MOL0     H84177   9.849   0.375  10.208 -1.5394 -0.3438  0.6734
  610MOL0     H84178  10.001   0.468  10.017 -0.2122  0.7720 -2.0238
  610MOL0     H84179   9.909   0.569   9.919 -0.6335  1.2075  0.0652
  610MOL0     H84180  10.021   0.647  10.033  3.9588 -1.9840  0.6533
  611MOL0     O84181   7.475   0.509   5.072 -0.1812 -0.0527 -0.1052
  611MOL0     C84182   7.540   0.472   4.976  0.2059 -0.7753  0.7346
  611MOL0     O84183   7.681   0.492   4.959  0.2548 -0.3797 -0.4152
  611MOL0     C84184   7.737   0.574   5.059 -0.4240 -0.2715  0.4949
  611MOL0     C84185   7.729   0.713   5.054 -0.8849 -1.0435  0.4158
  611MOL0     C84186   7.773   0.788   5.168  0.5110 -0.9581  0.3559
  611MOL0     C84187   7.800   0.728   5.289 -0.4025 -0.5889  1.3094
  611MOL0     O84188   7.830   0.801   5.400  0.8589  1.2001 -0.1940
  611MOL0     C84189   7.774   0.934   5.418 -0.3573 -0.3579 -0.1514
  611MOL0     C84190   7.874   1.030   5.490 -0.1061 -0.7709 -0.1455
  611MOL0     C84191   8.007   1.031   5.409  0.0918 -0.6791  0.0805
  611MOL0     C84192   8.107   1.133   5.464 -0.4929 -1.0457 -0.5447
  611MOL0     C84193   8.245   1.122   5.391  0.3232 -0.2363  0.1001
  611MOL0     C84194   8.326   1.251   5.415  0.0664  0.2170 -0.2257
  611MOL0     C84195   8.319   1.298   5.563 -0.2745  0.3062  0.2364
  611MOL0     C84196   8.458   1.365   5.608  0.0518 -0.5475  0.5198
  611MOL0     N84197   8.482   1.484   5.524  0.4202 -0.9167 -0.3763
  611MOL0     C84198   8.395   1.586   5.499 -0.2932 -0.4715 -0.3411
  611MOL0     C84199   8.443   1.661   5.397  1.9064 -0.5173  0.0964
  611MOL0     C84200   8.399   1.794   5.345 -0.5417 -0.6730  0.1740
  611MOL0     C84201   8.279   1.784   5.245 -0.3639  0.7008  0.0009
  611MOL0     C84202   8.259   1.916   5.178  0.2409 -0.3976  0.8358
  611MOL0     C84203   8.175   2.022   5.244  0.0866  0.5093 -0.1814
  611MOL0     O84204   8.232   2.064   5.367  0.1291  0.6182  0.4064
  611MOL0     C84205   8.196   2.188   5.417 -0.0432  0.2674  0.2392
  611MOL0     C84206   8.083   2.268   5.378 -0.9663  0.3750 -0.5941
  611MOL0     C84207   8.045   2.387   5.451  0.2413 -0.4729  0.7238
  611MOL0     C84208   7.939   2.479   5.378 -0.0593  0.5650  0.9161
  611MOL0     C84209   8.128   2.429   5.561  0.3344 -0.2805 -0.2624
  611MOL0     C84210   8.118   2.552   5.638 -0.1552  0.4482  0.7629
  611MOL0     O84211   8.183   2.562   5.758 -0.2294  0.1717  0.6994
  611MOL0     C84212   8.224   2.690   5.795  0.9713  0.0188 -0.6863
  611MOL0     C84213   8.322   2.764   5.727  0.5652 -0.4881 -0.2938
  611MOL0     C84214   8.357   2.895   5.771  0.7178 -0.1795 -0.2896
  611MOL0     C84215   8.287   2.951   5.880  0.1668 -0.1235  0.6189
  611MOL0     O84216   8.304   3.092   5.885  0.0015  0.0048 -0.0317
  611MOL0     C84217   8.285   3.156   6.011  0.3015  0.5567 -0.6238
  611MOL0     C84218   8.160   3.243   5.993 -0.0258 -0.4896 -0.7466
  611MOL0     C84219   8.160   3.336   5.874  0.7466 -0.4207  1.0006
  611MOL0     C84220   8.014   3.389   5.847 -0.1704  0.4784 -0.2823
  611MOL0     C84221   8.024   3.515   5.763  0.2643 -0.2630  0.6379
  611MOL0     C84222   7.893   3.590   5.759  0.2075 -0.5402 -0.1633
  611MOL0     C84223   7.880   3.689   5.639 -0.5062 -0.3735 -0.2206
  611MOL0     C84224   7.892   3.839   5.679  0.0364 -0.6015  0.2778
  611MOL0    Cl84225   8.017   3.861   5.806 -0.4755  0.4445 -0.3824
  611MOL0     C84226   8.203   2.869   5.958 -0.3159 -0.5053 -0.0453
  611MOL0     C84227   8.168   2.747   5.909 -0.0841  0.6081  0.3189
  611MOL0     O84228   8.063   2.641   5.571 -0.0403 -0.5997 -0.7050
  611MOL0     C84229   8.229   2.338   5.607  0.0633  0.3476  0.0419
  611MOL0     C84230   8.265   2.217   5.537 -0.1820 -0.2575 -0.4726
  611MOL0     N84231   8.571   1.600   5.367  0.6643 -0.2520  0.1912
  611MOL0     N84232   8.592   1.495   5.450  0.6221 -0.3959 -0.2520
  611MOL0     C84233   7.813   0.584   5.282  0.4651 -0.0376  0.0174
  611MOL0     C84234   7.774   0.509   5.176 -0.5683  0.2552  1.2836
  611MOL0     C84235   7.476   0.392   4.861 -0.0659 -0.0072 -0.4960
  611MOL0     C84236   7.566   0.328   4.775 -0.3077  0.3206  0.1632
  611MOL0     C84237   7.526   0.244   4.672  0.8521 -0.1722  0.2700
  611MOL0     C84238   7.393   0.221   4.648  1.1527 -0.0460  0.4074
  611MOL0     O84239   7.360   0.165   4.524  0.4187  0.3981  0.2700
  611MOL0     C84240   7.228   0.094   4.505 -0.9355 -0.1293  1.1462
  611MOL0     C84241   7.244  -0.041   4.578 -0.1251 -0.4509  0.4459
  611MOL0     C84242   7.128  -0.135   4.536 -0.1422  0.1838  0.7276
  611MOL0     C84243   6.989  -0.101   4.586  0.2941 -0.3389 -0.2330
  611MOL0     C84244   7.006  -0.087   4.734  0.7455 -0.5885  1.3908
  611MOL0     C84245   7.034  -0.077   4.849 -0.6906  0.8776 -0.0297
  611MOL0     C84246   7.302   0.266   4.749 -0.6413 -0.0291 -0.2687
  611MOL0     C84247   7.341   0.347   4.856 -0.3907 -0.6513 -0.5101
  611MOL0     C84248   7.236   0.376   4.963 -0.8323  1.4385 -0.3237
  611MOL0     H84249   7.699   0.757   4.959 -1.3093 -1.4347  0.3619
  611MOL0     H84250   7.768   0.895   5.149  0.3651 -1.2871 -1.6636
  611MOL0     H84251   7.689   0.918   5.484  0.6337 -1.0022  1.0052
  611MOL0     H84252   7.721   0.975   5.331 -1.6924  1.4619  1.4358
  611MOL0     H84253   7.844   1.135   5.500 -0.1372 -0.8143  0.2404
  611MOL0     H84254   7.894   1.002   5.594  4.4774  1.7694 -0.0823
  611MOL0     H84255   8.052   0.931   5.402  0.8671 -0.4928  1.8904
  611MOL0     H84256   7.989   1.061   5.305  3.5793 -1.1070 -0.7989
  611MOL0     H84257   8.067   1.235   5.462  2.3904  0.1665 -0.4121
  611MOL0     H84258   8.122   1.114   5.571 -2.5490 -1.3851 -0.2659
  611MOL0     H84259   8.213   1.126   5.286 -0.6918 -2.5620  0.2571
  611MOL0     H84260   8.303   1.031   5.411  0.7223 -0.2330 -0.9796
  611MOL0     H84261   8.429   1.239   5.382 -0.4386  2.1924 -2.7356
  611MOL0     H84262   8.279   1.324   5.349  1.8362  0.0673 -1.7189
  611MOL0     H84263   8.317   1.217   5.636 -0.6365  0.8191  0.8017
  611MOL0     H84264   8.232   1.359   5.588 -2.0862 -2.4506  1.0355
  611MOL0     H84265   8.448   1.391   5.713  1.3713 -0.2169  0.5747
  611MOL0     H84266   8.547   1.306   5.586  0.7832  1.3780 -2.2853
  611MOL0     H84267   8.315   1.619   5.564 -0.4089  0.0406 -0.7368
  611MOL0     H84268   8.490   1.825   5.292 -0.5487 -3.4546 -1.7125
  611MOL0     H84269   8.365   1.855   5.428  1.6160  2.4326 -1.0335
  611MOL0     H84270   8.306   1.706   5.173  1.6247  1.2420  0.0938
  611MOL0     H84271   8.197   1.749   5.309  2.8220 -5.2594  1.5935
  611MOL0     H84272   8.351   1.971   5.154  0.2452  0.4890  2.7444
  611MOL0     H84273   8.221   1.893   5.078  1.2892 -3.9723  1.0996
  611MOL0     H84274   8.168   2.105   5.173  2.3979  1.9939  1.1930
  611MOL0     H84275   8.068   2.005   5.258 -0.6662  2.7199 -2.5057
  611MOL0     H84276   8.012   2.236   5.303 -1.7092 -0.3966  0.3996
  611MOL0     H84277   7.865   2.519   5.448 -0.4367  0.5852  0.5105
  611MOL0     H84278   7.882   2.435   5.296 -1.5512  2.3336  0.9451
  611MOL0     H84279   8.001   2.557   5.332 -0.5642  0.0876 -0.6521
  611MOL0     H84280   8.362   2.709   5.642 -0.6377  0.6473 -1.6450
  611MOL0     H84281   8.434   2.954   5.724  1.1707 -0.5315  0.0074
  611MOL0     H84282   8.284   3.085   6.094  5.7434 -2.3399 -2.5435
  611MOL0     H84283   8.371   3.223   6.027 -1.1608  2.2106  0.8631
  611MOL0     H84284   8.070   3.182   5.996  0.0460 -0.5615  0.3286
  611MOL0     H84285   8.160   3.302   6.085  1.9551 -3.5794  1.4144
  611MOL0     H84286   8.176   3.288   5.777 -2.4613  2.3279 -1.1390
  611MOL0     H84287   8.237   3.414   5.868  2.0690 -1.7908 -2.7018
  611MOL0     H84288   7.971   3.429   5.939 -2.7151 -1.4542 -0.5431
  611MOL0     H84289   7.946   3.311   5.812 -1.3217 -0.8843  4.3022
  611MOL0     H84290   8.103   3.588   5.782 -1.0280  1.1286  0.8338
  611MOL0     H84291   8.051   3.485   5.662  1.8544 -2.4832  1.6330
  611MOL0     H84292   7.883   3.641   5.856 -0.7639  0.7287 -0.9033
  611MOL0     H84293   7.811   3.519   5.751  0.7053 -0.9842 -1.6806
  611MOL0     H84294   7.792   3.658   5.582 -0.0036 -1.0670 -0.6357
  611MOL0     H84295   7.967   3.674   5.574 -1.0668 -1.3386 -0.7554
  611MOL0     H84296   7.796   3.881   5.710  0.6891 -0.2354  1.9184
  611MOL0     H84297   7.923   3.890   5.587  2.7525 -1.7663  0.4314
  611MOL0     H84298   8.157   2.898   6.052 -1.6833 -1.5641 -0.3510
  611MOL0     H84299   8.094   2.689   5.963 -0.4591 -2.2869 -2.9304
  611MOL0     H84300   8.286   2.373   5.692 -1.1932  1.9328  0.2903
  611MOL0     H84301   8.344   2.153   5.574 -3.1927 -3.5913  0.7303
  611MOL0     H84302   7.823   0.531   5.376 -0.6647  1.3377  0.9494
  611MOL0     H84303   7.764   0.401   5.179  0.4981  0.1615  1.7682
  611MOL0     H84304   7.670   0.350   4.794 -0.1865  0.2182 -0.3670
  611MOL0     H84305   7.602   0.212   4.602 -1.0061 -1.8421 -1.1153
  611MOL0     H84306   7.148   0.153   4.550  0.5209  1.0456  2.3453
  611MOL0     H84307   7.205   0.081   4.399  0.8487 -1.9934  0.9133
  611MOL0     H84308   7.264  -0.038   4.685 -0.4463 -2.2048  0.5791
  611MOL0     H84309   7.330  -0.087   4.530 -1.2020 -0.1412 -1.9581
  611MOL0     H84310   7.118  -0.124   4.427  0.9831 -0.1869  0.5761
  611MOL0     H84311   7.155  -0.237   4.565  1.5368 -0.8232 -3.5826
  611MOL0     H84312   6.914  -0.175   4.557  0.5155 -1.1895  1.2544
  611MOL0     H84313   6.956  -0.008   4.540  1.3481  0.7618  1.1596
  611MOL0     H84314   7.077  -0.073   4.947  0.7126 -3.4711 -0.2962
  611MOL0     H84315   7.196   0.243   4.741 -0.3568 -0.8830 -2.1759
  611MOL0     H84316   7.261   0.320   5.053  1.7073  0.8085 -1.3415
  611MOL0     H84317   7.248   0.483   4.983 -0.5666  1.4056 -0.3043
  611MOL0     H84318   7.135   0.351   4.928  0.3461  0.8187 -3.7157
  612MOL0     O84319   1.116   9.210   2.374  0.0657  1.1099  0.7447
  612MOL0     C84320   1.192   9.137   2.300  0.3213 -0.0290 -0.2518
  612MOL0     O84321   1.277   9.043   2.349 -0.0996  0.4685 -0.5410
  612MOL0     C84322   1.293   9.028   2.479  0.5554 -0.3666  0.1316
  612MOL0     C84323   1.339   9.135   2.559 -0.1872  0.2819 -0.8404
  612MOL0     C84324   1.371   9.115   2.697  0.6383  1.2185 -0.0358
  612MOL0     C84325   1.343   8.994   2.757 -0.5853  0.4034  0.4683
  612MOL0     O84326   1.369   8.982   2.889 -0.6952 -0.5747  0.1509
  612MOL0     C84327   1.431   8.864   2.948 -0.1620 -0.4418  0.3691
  612MOL0     C84328   1.406   8.862   3.092 -0.1394 -0.2658 -0.6542
  612MOL0     C84329   1.377   8.987   3.169  0.3259  1.6377 -0.7748
  612MOL0     C84330   1.390   8.959   3.314  0.1085  0.4135  0.4061
  612MOL0     C84331   1.333   9.072   3.391 -0.9169 -0.0612  0.3824
  612MOL0     C84332   1.410   9.089   3.526 -0.0632  0.5119 -1.3101
  612MOL0     C84333   1.389   8.970   3.619  0.7455  0.6811 -0.1583
  612MOL0     C84334   1.466   8.986   3.753  0.4690 -0.3656 -0.2622
  612MOL0     N84335   1.399   9.085   3.845  0.0561 -0.2263  0.0926
  612MOL0     C84336   1.444   9.206   3.883 -0.0810  0.3195  0.4786
  612MOL0     C84337   1.353   9.259   3.960  0.3003  0.0966 -0.0388
  612MOL0     C84338   1.377   9.370   4.060  0.6148  1.0034 -0.2562
  612MOL0     C84339   1.244   9.428   4.113 -0.0158 -0.4547  0.4935
  612MOL0     C84340   1.170   9.348   4.213  0.0476 -0.0167  0.3461
  612MOL0     C84341   1.026   9.396   4.230 -0.4716 -0.1315  0.4109
  612MOL0     O84342   0.971   9.297   4.308 -0.1673  0.5565  0.0333
  612MOL0     C84343   0.883   9.215   4.248  0.0405  0.2805  0.4651
  612MOL0     C84344   0.865   9.175   4.117  0.2516  0.0061 -0.3272
  612MOL0     C84345   0.774   9.073   4.075  1.2097 -0.3804 -0.5151
  612MOL0     C84346   0.802   9.010   3.939  0.6566 -0.1368  0.4137
  612MOL0     C84347   0.681   9.024   4.173  0.7217 -0.4319  0.3879
  612MOL0     C84348   0.577   8.915   4.143 -0.3670  0.8324  0.2984
  612MOL0     O84349   0.590   8.810   4.233 -0.1372  0.0443  0.4415
  612MOL0     C84350   0.513   8.696   4.213 -1.6479 -0.7968  0.6528
  612MOL0     C84351   0.453   8.646   4.320  0.5905  0.3732 -0.5490
  612MOL0     C84352   0.367   8.531   4.306 -1.0446 -0.2545 -0.0109
  612MOL0     C84353   0.361   8.462   4.185  0.9839 -0.1946 -0.3921
  612MOL0     O84354   0.281   8.344   4.177  0.9116  0.6459  0.4618
  612MOL0     C84355   0.309   8.230   4.262 -0.2868  0.5933  0.6380
  612MOL0     C84356   0.218   8.114   4.234  0.1989 -1.2666 -0.1465
  612MOL0     C84357   0.066   8.138   4.244  0.3834 -0.8182  0.6632
  612MOL0     C84358   0.008   8.161   4.380 -0.5925 -0.1851  0.1933
  612MOL0     C84359  -0.147   8.152   4.370 -0.4649 -0.3638 -0.4073
  612MOL0     C84360  -0.215   8.210   4.494  0.6499 -0.6091  0.1646
  612MOL0     C84361  -0.363   8.238   4.452 -0.4333 -0.5846 -0.9254
  612MOL0     C84362  -0.459   8.186   4.556  0.5229  1.1455 -0.6778
  612MOL0    Cl84363  -0.592   8.312   4.581 -0.0032  0.2140 -0.2601
  612MOL0     C84364   0.428   8.513   4.074 -1.2498 -0.7098 -0.0395
  612MOL0     C84365   0.516   8.627   4.081 -0.9281 -0.6617  0.3527
  612MOL0     O84366   0.501   8.926   4.044  0.6456 -0.3500  0.3861
  612MOL0     C84367   0.717   9.057   4.307  0.0509  0.0386 -0.2749
  612MOL0     C84368   0.804   9.160   4.335  0.1574  0.2861 -0.6707
  612MOL0     N84369   1.241   9.175   3.953 -0.0598  0.4832 -0.0632
  612MOL0     N84370   1.269   9.071   3.886 -0.0488  0.5904  0.0365
  612MOL0     C84371   1.298   8.890   2.676 -0.0814  0.5044 -0.0973
  612MOL0     C84372   1.270   8.907   2.535 -0.4054  0.0043 -0.4110
  612MOL0     C84373   1.189   9.161   2.151  0.5629 -0.1898  0.0943
  612MOL0     C84374   1.257   9.061   2.069  0.6610 -0.3845  0.2275
  612MOL0     C84375   1.278   9.074   1.931  0.5466 -0.0340 -0.3814
  612MOL0     C84376   1.245   9.202   1.873 -0.6571 -0.3842  0.6508
  612MOL0     O84377   1.275   9.244   1.743 -0.4890  0.0172 -0.2945
  612MOL0     C84378   1.335   9.147   1.656  0.2415 -0.0586 -0.5513
  612MOL0     C84379   1.491   9.152   1.667 -0.1123 -0.2939 -0.3431
  612MOL0     C84380   1.546   9.030   1.591 -0.1149 -0.2574 -0.7715
  612MOL0     C84381   1.675   8.972   1.639  0.7005 -0.2526  0.2962
  612MOL0     C84382   1.778   9.061   1.694 -0.0188 -0.2234  0.2035
  612MOL0     C84383   1.850   9.140   1.747  0.5755  0.3014 -0.1460
  612MOL0     C84384   1.163   9.280   1.948 -0.8228  0.6792  0.2865
  612MOL0     C84385   1.129   9.263   2.085 -0.5641  0.7946  1.2311
  612MOL0     C84386   1.060   9.379   2.159  0.6358 -0.2988 -0.3591
  612MOL0     H84387   1.357   9.238   2.529  3.2809  0.9799  2.8155
  612MOL0     H84388   1.401   9.199   2.758  2.4545 -0.9432  2.2899
  612MOL0     H84389   1.537   8.887   2.932  0.2208 -2.7562 -0.7219
  612MOL0     H84390   1.412   8.770   2.895 -1.2316  0.9502 -1.8914
  612MOL0     H84391   1.329   8.788   3.118  0.4648 -0.5669  0.3270
  612MOL0     H84392   1.500   8.826   3.136 -0.0917 -1.7103 -1.8420
  612MOL0     H84393   1.423   9.077   3.129 -1.3014  3.5001  1.2414
  612MOL0     H84394   1.269   9.002   3.154  0.4275  2.6446 -0.5331
  612MOL0     H84395   1.335   8.869   3.344 -0.6131  0.7067 -0.0264
  612MOL0     H84396   1.493   8.939   3.345 -1.7091 -1.1479  6.9908
  612MOL0     H84397   1.225   9.075   3.411 -1.6906  1.4636 -3.1613
  612MOL0     H84398   1.355   9.157   3.325  2.5406 -0.5360  0.7509
  612MOL0     H84399   1.519   9.100   3.523  0.2072  2.4986  3.9751
  612MOL0     H84400   1.386   9.185   3.572  1.6015  0.8759 -1.1526
  612MOL0     H84401   1.424   8.880   3.568  0.5835  0.4367  0.1596
  612MOL0     H84402   1.283   8.954   3.642  1.3975 -1.7874  1.5118
  612MOL0     H84403   1.449   8.899   3.817 -1.2967  1.1773  1.5195
  612MOL0     H84404   1.572   9.006   3.736  1.0200 -0.0058  3.0176
  612MOL0     H84405   1.550   9.220   3.868 -0.1854 -1.1899 -2.4500
  612MOL0     H84406   1.455   9.437   4.022 -0.7024  1.7792 -1.7388
  612MOL0     H84407   1.425   9.319   4.143  3.5349 -0.1629 -2.4776
  612MOL0     H84408   1.261   9.527   4.155 -0.1813  0.2239 -0.9564
  612MOL0     H84409   1.184   9.448   4.023  0.9281  0.0075 -0.0540
  612MOL0     H84410   1.171   9.242   4.187 -0.6938  0.3423 -1.3095
  612MOL0     H84411   1.212   9.345   4.314  0.9623 -0.6240 -0.0468
  612MOL0     H84412   1.014   9.496   4.272  0.4774  0.9751 -1.7498
  612MOL0     H84413   0.992   9.413   4.127  2.8172 -3.1978 -1.4466
  612MOL0     H84414   0.935   9.220   4.047  0.5371  3.0233  1.7201
  612MOL0     H84415   0.752   9.061   3.856  1.5000 -3.7099 -2.6060
  612MOL0     H84416   0.749   8.915   3.953  0.8977 -0.5438 -1.1753
  612MOL0     H84417   0.906   8.977   3.931  0.2051 -1.7667  0.8907
  612MOL0     H84418   0.461   8.690   4.418  0.0225  2.0880 -1.2357
  612MOL0     H84419   0.306   8.492   4.387 -1.5942  1.8185  0.6498
  612MOL0     H84420   0.414   8.208   4.242 -0.2210  1.4604 -0.0046
  612MOL0     H84421   0.306   8.260   4.367  0.9720  0.8109  0.6268
  612MOL0     H84422   0.227   8.088   4.128 -0.0914  1.6164 -0.9667
  612MOL0     H84423   0.236   8.027   4.298  0.2534 -0.0379  1.5795
  612MOL0     H84424   0.011   8.059   4.193  0.6375  0.1531 -1.2231
  612MOL0     H84425   0.039   8.220   4.176 -2.5072 -2.0252  0.1977
  612MOL0     H84426   0.050   8.257   4.410 -0.5030  0.3516 -1.5576
  612MOL0     H84427   0.045   8.097   4.461 -0.2710 -0.1258  0.0971
  612MOL0     H84428  -0.181   8.208   4.283  1.4895  2.1632  0.3432
  612MOL0     H84429  -0.191   8.052   4.365  0.7211 -0.8617 -1.0264
  612MOL0     H84430  -0.158   8.301   4.515  0.2164 -0.2119 -0.3311
  612MOL0     H84431  -0.200   8.141   4.577  2.5655  0.6264  0.9155
  612MOL0     H84432  -0.382   8.200   4.351  1.0229 -2.6394 -0.4870
  612MOL0     H84433  -0.376   8.346   4.441  3.8179  0.5789  2.6914
  612MOL0     H84434  -0.413   8.170   4.655 -1.8477  0.5979  0.4112
  612MOL0     H84435  -0.503   8.090   4.529 -0.3694  0.7025  1.9725
  612MOL0     H84436   0.424   8.472   3.973  2.4259 -0.3704 -0.4559
  612MOL0     H84437   0.563   8.673   3.995  0.4653  2.1508  2.4816
  612MOL0     H84438   0.659   9.009   4.385 -0.3487 -0.9296 -1.1483
  612MOL0     H84439   0.803   9.185   4.440 -1.2862 -3.0719  0.2610
  612MOL0     H84440   1.278   8.798   2.730 -2.1247  1.5790  1.0963
  612MOL0     H84441   1.227   8.823   2.481 -3.1083 -0.0019  1.5517
  612MOL0     H84442   1.321   8.984   2.113  3.7001  0.4084 -2.3830
  612MOL0     H84443   1.328   8.992   1.879 -0.7888 -0.8498 -0.4171
  612MOL0     H84444   1.292   9.049   1.679  0.8176 -0.3472 -0.6910
  612MOL0     H84445   1.298   9.175   1.557  0.3111  0.3844 -0.4580
  612MOL0     H84446   1.505   9.149   1.775 -0.5814  1.2395 -0.2201
  612MOL0     H84447   1.535   9.245   1.630  0.5789 -0.6011 -0.3174
  612MOL0     H84448   1.481   8.945   1.614  0.5367 -0.7060 -0.5689
  612MOL0     H84449   1.542   9.039   1.482 -0.9085 -4.1877 -1.1963
  612MOL0     H84450   1.716   8.905   1.563 -2.1798 -0.9384 -0.7738
  612MOL0     H84451   1.653   8.907   1.725 -1.8360 -0.3694 -0.3728
  612MOL0     H84452   1.918   9.203   1.801  2.0464 -3.1993  2.4516
  612MOL0     H84453   1.114   9.360   1.894 -1.9878 -0.5319 -0.5132
  612MOL0     H84454   1.120   9.428   2.236 -1.5546 -1.2777  2.1397
  612MOL0     H84455   1.023   9.448   2.083 -2.1140 -1.4807 -0.2145
  612MOL0     H84456   0.971   9.342   2.211  1.1496  0.3215  1.0043
  613MOL0     O84457   4.076  10.596   8.415  0.7129 -0.5699 -0.7728
  613MOL0     C84458   4.059  10.532   8.519  0.1637 -0.4430 -0.8990
  613MOL0     O84459   4.008  10.408   8.529 -0.5267 -0.7705  0.8863
  613MOL0     C84460   3.974  10.336   8.421  0.6627  0.0702 -0.8924
  613MOL0     C84461   4.065  10.312   8.326  0.7607 -0.0079 -0.8295
  613MOL0     C84462   4.044  10.232   8.216 -0.3493  0.4923  0.4465
  613MOL0     C84463   3.924  10.160   8.210  0.0068  1.6550 -0.0888
  613MOL0     O84464   3.884  10.069   8.118  0.5347  0.2337  0.3462
  613MOL0     C84465   3.965  10.036   8.002 -1.0202 -0.5424  0.2938
  613MOL0     C84466   3.882   9.928   7.931 -0.5827  0.0607  0.2479
  613MOL0     C84467   3.938   9.905   7.787  1.0937  0.7187  0.2239
  613MOL0     C84468   3.847   9.950   7.668  0.5788  0.0592 -0.6619
  613MOL0     C84469   3.733   9.845   7.646 -1.3212 -1.1166 -0.0952
  613MOL0     C84470   3.609   9.923   7.605  0.3640 -0.0166 -0.2588
  613MOL0     C84471   3.479   9.840   7.580 -0.8244  0.4504 -0.0049
  613MOL0     C84472   3.468   9.763   7.444  0.4378 -0.2347  0.3885
  613MOL0     N84473   3.381   9.642   7.452  0.7110  0.8682  0.2731
  613MOL0     C84474   3.319   9.582   7.348  0.0903 -0.7776 -0.2901
  613MOL0     C84475   3.224   9.501   7.400  0.2563 -0.2990 -0.3642
  613MOL0     C84476   3.114   9.433   7.329  0.6192 -0.8238 -0.4133
  613MOL0     C84477   3.010   9.532   7.286  0.8803  0.6576 -0.7010
  613MOL0     C84478   3.022   9.590   7.151  0.6008  0.1627 -0.3149
  613MOL0     C84479   2.974   9.486   7.045  0.3653 -0.3434 -0.0807
  613MOL0     O84480   2.834   9.472   7.059  0.1843  0.1683  0.2814
  613MOL0     C84481   2.743   9.397   6.988  0.4562 -0.5954 -0.5111
  613MOL0     C84482   2.627   9.369   7.059  0.6321  0.2731 -1.0485
  613MOL0     C84483   2.523   9.297   7.002  0.1662 -0.7400 -0.2044
  613MOL0     C84484   2.407   9.262   7.089  0.7602 -0.0950  0.3421
  613MOL0     C84485   2.533   9.253   6.868  0.7468  0.2939 -1.0482
  613MOL0     C84486   2.426   9.182   6.802  0.0478 -0.6468 -0.5047
  613MOL0     O84487   2.299   9.215   6.846 -0.8240 -0.1188 -0.5918
  613MOL0     C84488   2.197   9.183   6.756 -0.9515 -0.1602 -0.1071
  613MOL0     C84489   2.117   9.075   6.796  0.3892 -0.4091 -0.6336
  613MOL0     C84490   2.015   9.029   6.712 -0.4984  0.7872 -0.0324
  613MOL0     C84491   1.977   9.104   6.600  0.5307 -0.3529  0.6053
  613MOL0     O84492   1.868   9.065   6.515 -0.0613 -0.3763  0.1091
  613MOL0     C84493   1.818   8.926   6.520  1.2906  0.6231 -0.5410
  613MOL0     C84494   1.704   8.904   6.424  0.1112  1.3074  0.2383
  613MOL0     C84495   1.592   8.993   6.463  1.0008  0.6684 -0.1775
  613MOL0     C84496   1.527   9.072   6.353  0.2435  0.0156 -0.2876
  613MOL0     C84497   1.426   8.984   6.274 -0.3717  0.2176  0.4592
  613MOL0     C84498   1.308   8.939   6.358  0.0766 -0.1471 -0.2544
  613MOL0     C84499   1.216   8.848   6.273 -1.0949  0.4389  0.1312
  613MOL0     C84500   1.143   8.743   6.352 -0.3150 -0.0388  0.9170
  613MOL0    Cl84501   1.122   8.580   6.272 -0.3749  0.4298  0.2309
  613MOL0     C84502   2.045   9.218   6.562  0.8241 -0.2245  0.3577
  613MOL0     C84503   2.159   9.253   6.636 -0.4707  0.0987  0.6911
  613MOL0     O84504   2.447   9.111   6.706 -0.1574  0.1006 -0.3970
  613MOL0     C84505   2.654   9.272   6.797  0.5556  0.1191 -0.6010
  613MOL0     C84506   2.753   9.337   6.856  0.0073 -0.8203 -0.2547
  613MOL0     N84507   3.239   9.506   7.536 -1.2984 -0.2011 -0.4026
  613MOL0     N84508   3.329   9.585   7.561 -0.7500 -0.2033  0.7201
  613MOL0     C84509   3.822  10.190   8.310 -0.0277 -0.4919 -0.3927
  613MOL0     C84510   3.849  10.285   8.419 -0.5903  0.5036  1.0564
  613MOL0     C84511   4.097  10.608   8.637 -0.6583  0.2577  0.2429
  613MOL0     C84512   4.010  10.689   8.709 -0.3962  0.8131  0.2582
  613MOL0     C84513   4.047  10.785   8.798  0.2182  0.6068 -0.7568
  613MOL0     C84514   4.187  10.800   8.831 -0.2814  0.4031  1.1562
  613MOL0     O84515   4.222  10.885   8.941  0.4254 -0.6501  0.5352
  613MOL0     C84516   4.350  10.936   8.926 -0.0386 -0.3390  0.6225
  613MOL0     C84517   4.367  11.061   9.020  0.4053  0.1843 -0.3073
  613MOL0     C84518   4.512  11.092   9.040 -0.0771  0.3073  0.5362
  613MOL0     C84519   4.531  11.226   9.113 -1.1262 -0.0685 -0.8351
  613MOL0     C84520   4.674  11.261   9.118 -0.4536  0.2601 -0.0795
  613MOL0     C84521   4.791  11.294   9.115  0.2852 -1.1944  0.0669
  613MOL0     C84522   4.275  10.714   8.772 -0.0968  0.4718 -0.5145
  613MOL0     C84523   4.227  10.616   8.681  0.8387  0.9804  0.3558
  613MOL0     C84524   4.345  10.534   8.619  0.4063  0.2940 -0.7165
  613MOL0     H84525   4.162  10.358   8.336 -0.1599  1.7737  0.4408
  613MOL0     H84526   4.122  10.227   8.140  1.3046 -1.0138  2.1276
  613MOL0     H84527   4.066  10.000   8.023 -0.0849  0.3837 -2.2736
  613MOL0     H84528   3.965  10.126   7.939  0.6159 -0.9373 -0.3149
  613MOL0     H84529   3.903   9.836   7.986  1.3519 -0.0274 -0.5332
  613MOL0     H84530   3.773   9.938   7.932 -0.9745 -2.5755 -2.0521
  613MOL0     H84531   4.040   9.946   7.789  1.3730  0.0926 -0.6423
  613MOL0     H84532   3.954   9.799   7.768  1.4003  0.7079  0.5321
  613MOL0     H84533   3.797  10.046   7.683  2.2153  0.6828  1.1854
  613MOL0     H84534   3.906   9.952   7.576  0.6642  0.2360 -0.6029
  613MOL0     H84535   3.711   9.796   7.742 -2.4015 -1.1550 -0.3551
  613MOL0     H84536   3.765   9.762   7.583  1.2693 -0.8992  0.7915
  613MOL0     H84537   3.595  10.000   7.681  1.3058 -1.1696  1.1294
  613MOL0     H84538   3.634   9.972   7.510  0.3280 -0.0083 -0.2638
  613MOL0     H84539   3.405   9.920   7.579 -0.8613  0.4421  0.8905
  613MOL0     H84540   3.466   9.769   7.662  1.3460 -2.3975 -1.9173
  613MOL0     H84541   3.421   9.829   7.371  1.5852 -0.9955 -1.0983
  613MOL0     H84542   3.557   9.729   7.391 -0.2125 -0.0695 -0.8479
  613MOL0     H84543   3.318   9.607   7.243 -1.5419  2.7348  0.4267
  613MOL0     H84544   3.059   9.366   7.396 -0.2038  1.9448  1.9044
  613MOL0     H84545   3.159   9.380   7.245  1.1452 -1.0764  0.0123
  613MOL0     H84546   2.914   9.480   7.290  1.6552 -0.7437  1.2016
  613MOL0     H84547   2.996   9.615   7.355  0.1986 -0.5290  0.6320
  613MOL0     H84548   2.974   9.688   7.148 -2.7090 -1.2763  0.9781
  613MOL0     H84549   3.128   9.614   7.137  0.3117  3.3057  1.7186
  613MOL0     H84550   2.993   9.520   6.943  2.5268  0.8247  0.6661
  613MOL0     H84551   3.022   9.388   7.056  0.2819 -0.1359  2.8201
  613MOL0     H84552   2.602   9.414   7.155  1.5577  2.7253 -1.8797
  613MOL0     H84553   2.394   9.154   7.079  0.3319 -0.6890  4.9720
  613MOL0     H84554   2.314   9.311   7.058  0.8700 -1.0191 -1.5477
  613MOL0     H84555   2.429   9.290   7.193  4.1930 -1.8162  0.2322
  613MOL0     H84556   2.148   9.014   6.880  0.3033 -2.7342 -2.1866
  613MOL0     H84557   1.964   8.937   6.736 -3.8383  2.2567 -0.8575
  613MOL0     H84558   1.891   8.849   6.493 -0.4578 -0.9564 -0.9519
  613MOL0     H84559   1.787   8.905   6.622 -0.2143  0.4453 -1.0166
  613MOL0     H84560   1.743   8.931   6.325  1.7439 -1.3288  0.0678
  613MOL0     H84561   1.673   8.799   6.423  4.6340 -0.2660  1.1515
  613MOL0     H84562   1.624   9.068   6.536  0.6191  0.4564  0.2080
  613MOL0     H84563   1.522   8.923   6.508  2.3555 -1.8026 -1.7281
  613MOL0     H84564   1.602   9.116   6.286  1.4809 -1.7297 -0.1178
  613MOL0     H84565   1.473   9.157   6.396  0.5265 -1.2636  2.7909
  613MOL0     H84566   1.386   9.036   6.186  0.3468  4.5180  2.4099
  613MOL0     H84567   1.486   8.900   6.237 -2.7473 -1.0599 -0.6797
  613MOL0     H84568   1.251   9.019   6.406  2.4956  0.1789  2.3113
  613MOL0     H84569   1.344   8.884   6.446 -2.1750  0.5887  1.2173
  613MOL0     H84570   1.282   8.799   6.201  0.4185  2.8644 -0.2776
  613MOL0     H84571   1.151   8.922   6.225 -1.4955  3.2749  4.4728
  613MOL0     H84572   1.044   8.783   6.373 -2.0159 -3.4386  0.0330
  613MOL0     H84573   1.186   8.742   6.453 -2.5300  0.2364  1.9108
  613MOL0     H84574   2.030   9.263   6.464  2.5598 -0.3938 -0.0195
  613MOL0     H84575   2.226   9.332   6.605  0.4970 -1.4513 -1.5123
  613MOL0     H84576   2.668   9.243   6.693 -0.2354 -1.3056 -0.3387
  613MOL0     H84577   2.842   9.359   6.798  1.1710 -1.3679  1.2583
  613MOL0     H84578   3.724  10.148   8.292  0.1567 -1.1466  0.0839
  613MOL0     H84579   3.776  10.311   8.495 -0.7854  0.3014  0.9388
  613MOL0     H84580   3.903  10.679   8.696 -0.7014 -1.8737  3.3900
  613MOL0     H84581   3.977  10.852   8.849  1.9114  0.4038  2.0521
  613MOL0     H84582   4.435  10.868   8.940  2.2159  1.3855 -3.0949
  613MOL0     H84583   4.360  10.978   8.825 -2.0766 -1.5093 -0.1268
  613MOL0     H84584   4.317  11.055   9.117  0.1872  3.4908 -0.1210
  613MOL0     H84585   4.344  11.152   8.964  2.7033  1.8629  1.2805
  613MOL0     H84586   4.562  11.016   9.100  0.9885  2.7322  2.9262
  613MOL0     H84587   4.546  11.109   8.938  0.5861 -1.2380  0.4774
  613MOL0     H84588   4.493  11.218   9.215  3.1253  1.5131  1.1560
  613MOL0     H84589   4.480  11.315   9.074 -2.0908 -1.8607 -3.9481
  613MOL0     H84590   4.894  11.309   9.092  0.8113 -2.1036  1.6620
  613MOL0     H84591   4.378  10.711   8.808 -0.7470  1.9209  1.6400
  613MOL0     H84592   4.360  10.439   8.670 -2.2935  0.4939  0.6573
  613MOL0     H84593   4.342  10.518   8.511 -0.4848  0.9265 -0.8050
  613MOL0     H84594   4.439  10.586   8.639  1.4600 -2.0922  0.8981
  614MOL0     O84595   3.806   6.126   7.928 -0.0475  0.2911  0.7834
  614MOL0     C84596   3.860   6.092   8.034  0.8505  0.1403 -0.1849
  614MOL0     O84597   3.995   6.078   8.056  0.0806  0.8761 -0.0032
  614MOL0     C84598   4.077   6.067   7.943  0.1521 -0.0299 -0.2358
  614MOL0     C84599   4.186   6.155   7.951  0.2122 -0.4576 -0.3604
  614MOL0     C84600   4.282   6.157   7.851  0.3877 -0.0552  0.1100
  614MOL0     C84601   4.265   6.082   7.736  0.1476 -0.7453  0.3723
  614MOL0     O84602   4.377   6.080   7.651 -0.1508  0.3998 -0.1511
  614MOL0     C84603   4.372   6.035   7.513  0.5876 -0.1253 -0.0552
  614MOL0     C84604   4.508   6.048   7.430 -0.0011  0.0825 -1.0319
  614MOL0     C84605   4.559   6.192   7.401 -0.1131 -0.2815  0.3295
  614MOL0     C84606   4.695   6.198   7.333 -0.7362 -0.3267  0.3523
  614MOL0     C84607   4.737   6.344   7.301 -0.2526 -0.3974 -0.2749
  614MOL0     C84608   4.747   6.422   7.432  0.9458  0.1919 -0.5454
  614MOL0     C84609   4.829   6.543   7.422  0.6989  0.7175  0.6652
  614MOL0     C84610   4.813   6.623   7.550 -0.4730 -0.8015  0.0887
  614MOL0     N84611   4.869   6.756   7.513  0.5898  0.4633  0.0202
  614MOL0     C84612   4.811   6.866   7.458 -0.0344 -0.0928  0.1272
  614MOL0     C84613   4.914   6.955   7.439  0.1651  0.2242  0.0074
  614MOL0     C84614   4.898   7.108   7.411 -0.4167 -0.5324  0.2830
  614MOL0     C84615   4.949   7.137   7.269 -0.7057  0.5665  0.0044
  614MOL0     C84616   4.936   7.285   7.233 -0.0045 -0.1492  0.1433
  614MOL0     C84617   5.006   7.322   7.106 -0.1862  0.0751  0.8646
  614MOL0     O84618   5.148   7.292   7.085 -0.9893  0.1333 -0.7835
  614MOL0     C84619   5.182   7.224   6.975 -0.8489 -0.2183 -0.4060
  614MOL0     C84620   5.258   7.286   6.881  0.3156 -0.1056 -0.5752
  614MOL0     C84621   5.296   7.222   6.758  0.5358  0.2956 -0.7808
  614MOL0     C84622   5.349   7.287   6.636  0.6074 -0.1518  0.0632
  614MOL0     C84623   5.261   7.090   6.740 -0.2609  0.6689  0.7202
  614MOL0     C84624   5.298   7.014   6.619 -0.0215 -0.1821  0.7421
  614MOL0     O84625   5.191   6.960   6.554 -0.9000  0.3119  0.0688
  614MOL0     C84626   5.221   6.870   6.460 -0.3005 -0.0828  1.0823
  614MOL0     C84627   5.207   6.738   6.497 -0.2716 -0.5480 -0.0792
  614MOL0     C84628   5.261   6.639   6.415  0.7808  0.9839  0.1504
  614MOL0     C84629   5.311   6.670   6.287  0.2456  0.5868 -0.6926
  614MOL0     O84630   5.351   6.563   6.214 -0.1625 -0.0307 -0.0926
  614MOL0     C84631   5.408   6.575   6.079 -0.6404 -0.3981 -0.1139
  614MOL0     C84632   5.313   6.549   5.964 -0.1987 -0.9699  2.1017
  614MOL0     C84633   5.268   6.421   5.979 -1.1579  0.4408 -0.3488
  614MOL0     C84634   5.148   6.409   5.879  0.3182 -0.2003  0.7578
  614MOL0     C84635   5.022   6.481   5.924  0.6329 -0.0624  0.7060
  614MOL0     C84636   4.912   6.483   5.809  1.1848 -0.0082  0.3720
  614MOL0     C84637   4.778   6.510   5.873  0.6650 -0.0280  0.1855
  614MOL0     C84638   4.684   6.541   5.751  0.5036  0.3238 -0.1589
  614MOL0    Cl84639   4.644   6.386   5.684  0.0157 -0.1942 -0.0023
  614MOL0     C84640   5.308   6.803   6.239  0.0907  0.0809 -0.5652
  614MOL0     C84641   5.262   6.902   6.330 -1.3897 -0.1029  0.2126
  614MOL0     O84642   5.416   6.992   6.599  0.0816 -0.2670  0.0980
  614MOL0     C84643   5.187   7.027   6.848 -0.0099  0.0065  0.2077
  614MOL0     C84644   5.147   7.093   6.960  0.5682 -0.4507 -0.3875
  614MOL0     N84645   5.030   6.900   7.483  0.7332 -1.3527  0.2945
  614MOL0     N84646   5.001   6.778   7.524  0.1039  0.2295 -0.4143
  614MOL0     C84647   4.158   5.993   7.726 -0.1693  0.2193  0.4281
  614MOL0     C84648   4.072   5.977   7.835  0.5088  0.3177 -0.0984
  614MOL0     C84649   3.762   6.062   8.140 -0.2815  0.1628  1.2148
  614MOL0     C84650   3.763   6.143   8.252  0.0173  0.4398  0.1635
  614MOL0     C84651   3.680   6.107   8.355  1.4637  1.1291 -0.5018
  614MOL0     C84652   3.582   6.009   8.345  0.8713 -0.0543 -0.2295
  614MOL0     O84653   3.509   5.995   8.462  0.5294  0.6738  0.5913
  614MOL0     C84654   3.390   5.933   8.442 -0.4922  0.4694  0.9525
  614MOL0     C84655   3.304   5.969   8.570  0.6620  0.0840 -0.4423
  614MOL0     C84656   3.181   5.878   8.579 -0.2535  0.1130  1.2661
  614MOL0     C84657   3.107   5.873   8.716  0.7182 -0.5436  0.5336
  614MOL0     C84658   3.163   5.775   8.804  0.0647  0.6924 -0.1064
  614MOL0     C84659   3.228   5.691   8.873  0.5273 -1.1296  0.2782
  614MOL0     C84660   3.581   5.925   8.226  0.2577 -0.4890 -1.3034
  614MOL0     C84661   3.676   5.945   8.123 -0.1957 -0.3622 -0.3434
  614MOL0     C84662   3.673   5.861   8.004  0.5444 -0.6453  0.8512
  614MOL0     H84663   4.197   6.227   8.032  0.6763 -0.4286 -0.4464
  614MOL0     H84664   4.359   6.234   7.856 -0.4883  0.9976 -1.7568
  614MOL0     H84665   4.309   6.099   7.451  0.0454 -2.3731 -1.9476
  614MOL0     H84666   4.338   5.931   7.508 -2.6974  0.8473 -0.5182
  614MOL0     H84667   4.586   5.997   7.487  0.1326  1.6069  0.1997
  614MOL0     H84668   4.507   5.999   7.332 -2.0614  0.2135 -1.1244
  614MOL0     H84669   4.485   6.254   7.350  0.7081 -0.4852 -1.1986
  614MOL0     H84670   4.566   6.241   7.498  2.4298  0.6230 -0.2188
  614MOL0     H84671   4.774   6.155   7.396 -1.2087  1.6966  2.4588
  614MOL0     H84672   4.684   6.132   7.247  0.9558 -0.8473  0.4893
  614MOL0     H84673   4.653   6.387   7.246 -2.1646 -3.5619 -0.0715
  614MOL0     H84674   4.831   6.354   7.246  0.7903  2.3620  1.7678
  614MOL0     H84675   4.643   6.438   7.460  0.9910 -1.1466  0.4992
  614MOL0     H84676   4.791   6.353   7.505  2.1753  1.9075  0.4105
  614MOL0     H84677   4.789   6.605   7.341 -0.9624 -0.9259  0.1673
  614MOL0     H84678   4.932   6.509   7.406  0.7714 -1.4413  4.5506
  614MOL0     H84679   4.711   6.624   7.588 -0.8930 -2.7878 -0.8250
  614MOL0     H84680   4.878   6.584   7.628  1.0032  1.9722  0.3786
  614MOL0     H84681   4.715   6.900   7.421  0.0375  0.9062  0.8142
  614MOL0     H84682   4.959   7.161   7.485  1.6634  0.3793 -1.9291
  614MOL0     H84683   4.795   7.139   7.427 -0.6413 -1.3415  0.4263
  614MOL0     H84684   5.053   7.105   7.257 -0.3595  0.8645  1.9156
  614MOL0     H84685   4.880   7.080   7.206 -0.8308  1.3187 -0.5642
  614MOL0     H84686   4.830   7.311   7.225 -0.6226 -2.1171  1.1282
  614MOL0     H84687   4.968   7.341   7.322  1.9658 -1.4725  0.3297
  614MOL0     H84688   4.944   7.274   7.029  0.2315  0.5036  0.2535
  614MOL0     H84689   4.991   7.430   7.098  1.1157  0.1368 -2.2698
  614MOL0     H84690   5.259   7.392   6.905  2.6857 -0.1488 -0.2050
  614MOL0     H84691   5.382   7.388   6.661 -0.1064  0.7574 -2.3981
  614MOL0     H84692   5.282   7.287   6.549  2.9130 -0.6991 -1.8350
  614MOL0     H84693   5.442   7.238   6.604  1.2863  2.2079 -1.8626
  614MOL0     H84694   5.184   6.718   6.601 -2.9528 -0.7639 -0.6611
  614MOL0     H84695   5.260   6.541   6.460 -1.9603  1.0559  0.4606
  614MOL0     H84696   5.467   6.664   6.056  0.3374 -1.2117 -0.8660
  614MOL0     H84697   5.469   6.484   6.082 -0.9752 -0.7443 -2.2358
  614MOL0     H84698   5.241   6.629   5.979  1.8234  0.6206  4.2144
  614MOL0     H84699   5.357   6.559   5.865  0.0011 -2.0694  2.0694
  614MOL0     H84700   5.222   6.387   6.072  1.0878 -2.6127 -0.1633
  614MOL0     H84701   5.338   6.336   5.982 -2.1917 -0.4157  1.8999
  614MOL0     H84702   5.118   6.305   5.865  0.8604 -0.5937  2.3337
  614MOL0     H84703   5.175   6.448   5.780  0.6292 -0.3170  0.7944
  614MOL0     H84704   4.986   6.423   6.009 -1.2450 -1.8373 -1.1772
  614MOL0     H84705   5.033   6.583   5.963 -2.4504  0.7233 -0.1726
  614MOL0     H84706   4.899   6.386   5.761 -0.4857  1.0082 -1.3918
  614MOL0     H84707   4.937   6.560   5.736 -1.6282  0.0813 -0.6411
  614MOL0     H84708   4.777   6.589   5.948  0.2505 -3.5762  4.2643
  614MOL0     H84709   4.738   6.428   5.934 -0.5100 -0.1712 -0.7250
  614MOL0     H84710   4.706   6.616   5.674  2.8276 -0.0207  0.0823
  614MOL0     H84711   4.601   6.593   5.800  2.5865  0.4627  3.5878
  614MOL0     H84712   5.353   6.827   6.143  0.3175  1.2395 -0.1906
  614MOL0     H84713   5.249   7.006   6.301  1.0201 -0.3220 -2.0701
  614MOL0     H84714   5.164   6.921   6.834 -2.2445  0.4770  0.0330
  614MOL0     H84715   5.084   7.037   7.028  1.1365 -0.7940 -0.1369
  614MOL0     H84716   4.160   5.930   7.638  1.5579  0.9108 -0.0800
  614MOL0     H84717   4.012   5.886   7.831  1.7352 -0.6036  1.4740
  614MOL0     H84718   3.835   6.220   8.276  1.1186 -0.9012  1.3669
  614MOL0     H84719   3.689   6.153   8.452  0.0063 -1.6039  1.0489
  614MOL0     H84720   3.340   5.975   8.354 -3.8763 -1.0610  1.9816
  614MOL0     H84721   3.394   5.823   8.442 -2.3256  0.3673  1.4933
  614MOL0     H84722   3.280   6.075   8.568 -0.0480 -0.0814 -0.9887
  614MOL0     H84723   3.359   5.959   8.664  2.9583 -0.6929 -1.7750
  614MOL0     H84724   3.099   5.909   8.514 -3.9577 -2.0086  4.4369
  614MOL0     H84725   3.216   5.780   8.546  3.8444  2.4875 -2.4973
  614MOL0     H84726   3.004   5.842   8.701  0.4020  0.3921  0.7259
  614MOL0     H84727   3.111   5.974   8.758  2.6322  1.0388 -2.9935
  614MOL0     H84728   3.285   5.618   8.928  0.6846 -1.1094  0.1426
  614MOL0     H84729   3.520   5.835   8.218  3.1880 -2.7206 -0.1197
  614MOL0     H84730   3.593   5.786   8.005 -0.7060  0.3607 -3.3366
  614MOL0     H84731   3.631   5.933   7.933  2.4857  1.5921  1.8267
  614MOL0     H84732   3.766   5.816   7.969  1.1454  0.6207  0.7506
  615MOL0     O84733   6.891   9.410   9.789 -0.2722  0.2540  0.0610
  615MOL0     C84734   6.834   9.322   9.721 -0.0611 -0.5735 -0.2680
  615MOL0     O84735   6.735   9.342   9.632 -0.0941 -0.1174  0.8028
  615MOL0     C84736   6.678   9.463   9.616 -0.3444 -0.1715 -0.3908
  615MOL0     C84737   6.630   9.482   9.487 -0.1502 -0.3677  0.2441
  615MOL0     C84738   6.539   9.591   9.460  0.2374  0.1382 -1.0455
  615MOL0     C84739   6.503   9.684   9.555  1.2414  0.2775  1.0255
  615MOL0     O84740   6.420   9.776   9.504  0.0281  0.0414  0.9755
  615MOL0     C84741   6.366   9.879   9.595 -0.0686 -0.1379 -0.5746
  615MOL0     C84742   6.234   9.926   9.547  1.1095  0.1913 -0.4086
  615MOL0     C84743   6.199  10.062   9.600 -0.2402 -0.4039  0.7762
  615MOL0     C84744   6.085  10.060   9.704 -0.1057  0.3302 -0.5144
  615MOL0     C84745   6.126  10.013   9.853 -0.4765  0.1881  0.1334
  615MOL0     C84746   6.014   9.917   9.917 -0.4160 -0.0193 -0.6346
  615MOL0     C84747   6.068   9.826  10.026  0.2963  0.6604 -0.5985
  615MOL0     C84748   6.153   9.703   9.968  0.7419 -0.9317 -0.6227
  615MOL0     N84749   6.069   9.627   9.871 -0.0295  0.4872 -0.3723
  615MOL0     C84750   6.068   9.636   9.740  0.3860 -0.3001  0.6255
  615MOL0     C84751   5.974   9.545   9.700 -1.1566 -0.0934  0.0843
  615MOL0     C84752   5.957   9.498   9.557 -0.2371 -0.5463  0.6042
  615MOL0     C84753   6.006   9.594   9.439 -0.1065  1.1871 -0.0985
  615MOL0     C84754   6.154   9.569   9.391 -0.5623 -0.5446  0.3566
  615MOL0     C84755   6.206   9.644   9.268 -0.7839 -1.0091 -1.3318
  615MOL0     O84756   6.147   9.577   9.159 -0.3617 -0.0255  0.6360
  615MOL0     C84757   6.179   9.623   9.036 -0.0862  0.5869 -1.4287
  615MOL0     C84758   6.107   9.563   8.938  0.5409  0.0102  0.1922
  615MOL0     C84759   6.117   9.614   8.803 -0.1494 -0.0772  0.8354
  615MOL0     C84760   6.025   9.559   8.706 -0.1815  0.0151 -0.3829
  615MOL0     C84761   6.207   9.716   8.772 -0.0589  0.4401 -0.2820
  615MOL0     C84762   6.247   9.761   8.631  0.5108  0.0026  0.2677
  615MOL0     O84763   6.182   9.725   8.521  0.3337  0.0513  0.4915
  615MOL0     C84764   6.212   9.763   8.388 -0.1532  0.3130 -0.2357
  615MOL0     C84765   6.126   9.705   8.288 -0.5375 -0.6718 -0.1020
  615MOL0     C84766   6.151   9.711   8.151  0.0881 -0.1692 -0.3590
  615MOL0     C84767   6.270   9.773   8.110 -0.5559 -0.6062 -0.0015
  615MOL0     O84768   6.289   9.761   7.973 -0.2618 -0.3678 -0.0925
  615MOL0     C84769   6.427   9.745   7.937 -0.1968  0.0983 -0.4133
  615MOL0     C84770   6.487   9.602   7.972 -0.3519 -0.3721  0.6712
  615MOL0     C84771   6.575   9.609   8.094  0.0418  0.3682  0.0862
  615MOL0     C84772   6.648   9.472   8.117 -0.0335 -0.3374 -0.3210
  615MOL0     C84773   6.742   9.482   8.238  0.3963 -0.6501 -0.3257
  615MOL0     C84774   6.802   9.348   8.286 -1.0548 -0.5378  0.5910
  615MOL0     C84775   6.839   9.365   8.432  0.7897 -0.6638  0.3751
  615MOL0     C84776   6.882   9.242   8.511 -0.0317 -0.1251 -0.0158
  615MOL0    Cl84777   7.038   9.184   8.448  0.2029  0.2750  0.1657
  615MOL0     C84778   6.353   9.834   8.210 -1.1255  0.6022 -0.3779
  615MOL0     C84779   6.329   9.830   8.349  1.0142  0.0367  0.1254
  615MOL0     O84780   6.348   9.832   8.625  0.2154 -0.1306  0.0066
  615MOL0     C84781   6.281   9.771   8.879  0.5630  1.0706 -0.0559
  615MOL0     C84782   6.265   9.734   9.012  0.1060 -0.5391  0.7974
  615MOL0     N84783   5.917   9.482   9.801 -0.5339  0.3701 -0.5983
  615MOL0     N84784   5.975   9.531   9.906 -0.2626 -0.2065  0.2946
  615MOL0     C84785   6.557   9.676   9.683 -0.4710  0.2816  0.0856
  615MOL0     C84786   6.637   9.565   9.714 -0.8603  0.0128  0.7812
  615MOL0     C84787   6.882   9.183   9.727 -1.1382  0.1254  0.5347
  615MOL0     C84788   6.781   9.084   9.711 -0.7262  1.0194 -0.9759
  615MOL0     C84789   6.812   8.953   9.737  0.6955  0.8888 -0.7643
  615MOL0     C84790   6.941   8.907   9.783  0.4471  0.3968 -0.0750
  615MOL0     O84791   6.970   8.777   9.804  0.0677  0.1293 -0.0824
  615MOL0     C84792   6.865   8.677   9.797 -0.0850  0.0808 -0.4365
  615MOL0     C84793   6.932   8.542   9.833 -0.0107  0.0743  0.7932
  615MOL0     C84794   6.947   8.519   9.979  0.6025  0.9375 -0.8256
  615MOL0     C84795   7.036   8.399  10.009 -0.7498 -0.4333  0.4229
  615MOL0     C84796   7.049   8.359  10.146 -0.3907 -1.0331 -0.1852
  615MOL0     C84797   7.055   8.323  10.262 -0.8693  0.1562  0.5837
  615MOL0     C84798   7.040   9.002   9.803 -0.0395 -0.7509  0.1596
  615MOL0     C84799   7.012   9.136   9.768  1.1422 -0.1673  0.5902
  615MOL0     C84800   7.122   9.239   9.783 -0.1778  0.5140  0.8349
  615MOL0     H84801   6.658   9.407   9.414 -3.3048 -1.2552 -0.2084
  615MOL0     H84802   6.490   9.595   9.363 -1.2877 -0.7595 -0.3660
  615MOL0     H84803   6.438   9.961   9.603  0.6916 -0.9177  1.0156
  615MOL0     H84804   6.350   9.846   9.698  1.1649 -2.8422 -1.1348
  615MOL0     H84805   6.249   9.938   9.439 -4.4019 -1.9715 -1.7710
  615MOL0     H84806   6.152   9.857   9.570 -0.1433  1.7433  0.0326
  615MOL0     H84807   6.283  10.109   9.651 -1.5850  0.4999  2.2390
  615MOL0     H84808   6.172  10.124   9.514  1.0697 -0.7098  0.1068
  615MOL0     H84809   6.052  10.164   9.716  3.3574  1.9647 -3.0850
  615MOL0     H84810   5.999  10.000   9.675 -1.8462  1.6101  1.7182
  615MOL0     H84811   6.145  10.104   9.912  2.7565  0.4626 -1.1210
  615MOL0     H84812   6.218   9.955   9.857 -0.7350 -0.3281 -1.0684
  615MOL0     H84813   5.927   9.975   9.949 -1.1510 -1.5171  0.1836
  615MOL0     H84814   5.983   9.853   9.834  2.2944  1.2965 -2.8587
  615MOL0     H84815   5.982   9.783  10.079  0.5863  0.5223 -0.2358
  615MOL0     H84816   6.126   9.873  10.106 -1.1865  0.9588  0.3501
  615MOL0     H84817   6.241   9.746   9.920  1.1723 -2.8884 -1.6811
  615MOL0     H84818   6.189   9.633  10.044 -0.2838  0.6416  1.4475
  615MOL0     H84819   6.129   9.676   9.660 -2.4395  0.0805 -1.5121
  615MOL0     H84820   5.849   9.489   9.549 -0.5818  1.7001  1.9373
  615MOL0     H84821   6.006   9.400   9.557  0.8266 -0.0399  1.7134
  615MOL0     H84822   5.950   9.565   9.349  5.1097  0.0882 -3.4682
  615MOL0     H84823   5.974   9.698   9.448 -1.5874  0.7275  0.2023
  615MOL0     H84824   6.227   9.590   9.469  0.7460  0.3224 -1.0484
  615MOL0     H84825   6.175   9.462   9.382  1.1324 -0.1447 -0.9719
  615MOL0     H84826   6.182   9.750   9.278 -0.3182 -0.9550 -0.7720
  615MOL0     H84827   6.314   9.632   9.258 -0.1054  2.4037  0.4887
  615MOL0     H84828   6.047   9.475   8.955  0.6011 -0.7005 -2.7477
  615MOL0     H84829   5.943   9.629   8.685 -3.2249 -2.9392  0.7124
  615MOL0     H84830   5.976   9.472   8.750 -0.3556  1.6941  3.1323
  615MOL0     H84831   6.080   9.537   8.614 -0.8184  4.1587 -1.9717
  615MOL0     H84832   6.052   9.637   8.328 -0.2986 -1.1204 -0.4216
  615MOL0     H84833   6.098   9.657   8.074 -0.0456  0.2493 -0.5622
  615MOL0     H84834   6.449   9.774   7.833  3.4177 -2.8975 -0.7076
  615MOL0     H84835   6.492   9.828   7.969 -2.1880  1.4620  0.3273
  615MOL0     H84836   6.399   9.541   7.996 -0.5750 -0.6466 -0.7547
  615MOL0     H84837   6.537   9.555   7.887 -1.2432  1.6046 -1.0295
  615MOL0     H84838   6.516   9.629   8.184  4.2686 -1.0302  3.5307
  615MOL0     H84839   6.643   9.691   8.072 -0.6458  0.5078 -1.6612
  615MOL0     H84840   6.702   9.434   8.029  0.6116 -0.1117 -0.0300
  615MOL0     H84841   6.571   9.396   8.134  0.5158 -1.6040 -2.9649
  615MOL0     H84842   6.821   9.553   8.208 -2.3803  2.2198 -1.4383
  615MOL0     H84843   6.680   9.522   8.319 -0.0909 -0.4229 -0.8047
  615MOL0     H84844   6.892   9.337   8.224 -0.9087  0.2784  0.6564
  615MOL0     H84845   6.732   9.267   8.261  1.4236 -2.7974  0.4706
  615MOL0     H84846   6.748   9.404   8.478  2.4876  1.6159  2.0683
  615MOL0     H84847   6.924   9.434   8.434  2.3638 -2.4611 -1.1575
  615MOL0     H84848   6.815   9.156   8.504  1.5139 -1.3637 -0.1067
  615MOL0     H84849   6.899   9.262   8.618 -1.1886 -1.6462  0.4781
  615MOL0     H84850   6.434   9.885   8.160  0.1016 -2.2039 -1.4854
  615MOL0     H84851   6.398   9.881   8.415  0.5426 -0.1261  0.7485
  615MOL0     H84852   6.356   9.846   8.856  0.0488  1.0392 -1.9424
  615MOL0     H84853   6.319   9.791   9.087  0.4369  0.1033  0.0876
  615MOL0     H84854   6.523   9.746   9.760  1.3251  4.4427 -2.5262
  615MOL0     H84855   6.665   9.542   9.816  2.1684 -1.7752 -0.3032
  615MOL0     H84856   6.676   9.105   9.691 -3.0557 -2.7127  4.7493
  615MOL0     H84857   6.723   8.893   9.724  0.8219  0.7166 -0.8369
  615MOL0     H84858   6.781   8.693   9.865 -2.6698 -1.9680 -2.8800
  615MOL0     H84859   6.830   8.681   9.693 -0.4581  0.2289 -0.3048
  615MOL0     H84860   7.036   8.534   9.798  0.7272 -2.4688  3.2015
  615MOL0     H84861   6.862   8.469   9.791 -0.8104 -0.0540  2.3092
  615MOL0     H84862   6.970   8.612  10.032 -1.4255  1.0830 -0.1167
  615MOL0     H84863   6.851   8.494  10.024  2.1213 -1.9956  1.1328
  615MOL0     H84864   7.137   8.423   9.974 -2.5134  0.9568 -4.5425
  615MOL0     H84865   6.992   8.310   9.964  3.2780 -1.7486 -1.3882
  615MOL0     H84866   7.068   8.301  10.366  1.5766 -0.6922  0.1610
  615MOL0     H84867   7.144   8.973   9.813  0.0618 -1.1396 -1.6172
  615MOL0     H84868   7.120   9.305   9.696 -1.8734  1.0281  1.2241
  615MOL0     H84869   7.120   9.288   9.880  1.1818  1.1469  0.5632
  615MOL0     H84870   7.220   9.192   9.792  0.0197  0.7913  0.1866
  616MOL0     O84871   7.729   8.177   4.187 -0.1510 -0.2261  0.2745
  616MOL0     C84872   7.660   8.076   4.224 -0.8390 -0.3795  0.2975
  616MOL0     O84873   7.581   8.060   4.337  0.2214 -0.4161 -0.2484
  616MOL0     C84874   7.583   8.161   4.429  0.3845 -0.9796 -0.2740
  616MOL0     C84875   7.690   8.193   4.514  0.1879  0.1037  0.2446
  616MOL0     C84876   7.677   8.289   4.617 -0.6128 -0.4771  0.4587
  616MOL0     C84877   7.559   8.375   4.627 -0.5570  0.3724 -0.4612
  616MOL0     O84878   7.551   8.460   4.740  0.2076 -0.3092  0.0233
  616MOL0     C84879   7.434   8.541   4.755 -0.1873  0.1075  0.4665
  616MOL0     C84880   7.426   8.653   4.652 -1.0803  0.4303 -0.4120
  616MOL0     C84881   7.319   8.754   4.685 -0.8825 -0.5407  1.1264
  616MOL0     C84882   7.175   8.693   4.683 -0.3979 -0.8128 -0.1489
  616MOL0     C84883   7.078   8.805   4.683  0.3097  0.9601 -0.8266
  616MOL0     C84884   6.942   8.743   4.655 -0.9540  0.8211 -0.6199
  616MOL0     C84885   6.824   8.839   4.678 -0.6056  1.0886  0.1733
  616MOL0     C84886   6.698   8.788   4.618  1.1236  0.0084  0.8342
  616MOL0     N84887   6.660   8.846   4.488  0.4955  0.5798 -0.6337
  616MOL0     C84888   6.660   8.782   4.368  0.9374  0.0023  0.3543
  616MOL0     C84889   6.651   8.875   4.274 -0.8172 -0.1930  0.2059
  616MOL0     C84890   6.622   8.855   4.125  0.0498  0.0222 -0.3731
  616MOL0     C84891   6.746   8.853   4.029  0.8157 -0.7224  1.0280
  616MOL0     C84892   6.795   8.712   3.984 -0.2096  0.0624  0.4805
  616MOL0     C84893   6.889   8.698   3.863  0.2008 -0.1578 -0.4625
  616MOL0     O84894   6.815   8.700   3.740 -0.2063 -0.5246 -0.4807
  616MOL0     C84895   6.892   8.709   3.628  0.5129 -0.4699  0.6406
  616MOL0     C84896   6.822   8.743   3.511  0.0951  0.3813 -0.0449
  616MOL0     C84897   6.884   8.749   3.383  0.1391 -0.2788 -0.1240
  616MOL0     C84898   6.786   8.753   3.262  0.4764 -0.3242  0.3920
  616MOL0     C84899   7.021   8.724   3.372 -0.2510  0.3488 -0.5589
  616MOL0     C84900   7.097   8.709   3.242 -0.8085  0.2553  0.3898
  616MOL0     O84901   7.233   8.663   3.249  0.3092  1.1292  0.3547
  616MOL0     C84902   7.291   8.629   3.129 -0.4634 -0.5886  0.2358
  616MOL0     C84903   7.342   8.501   3.125 -0.6271 -0.9587  0.1144
  616MOL0     C84904   7.416   8.467   3.012  0.5745  0.1197 -0.0301
  616MOL0     C84905   7.431   8.545   2.901 -0.4498  0.1496 -0.8221
  616MOL0     O84906   7.517   8.491   2.804  0.2963  0.0466 -0.1749
  616MOL0     C84907   7.535   8.571   2.690  0.1502  0.4042  0.6601
  616MOL0     C84908   7.617   8.496   2.583  0.6481  0.0405  0.4956
  616MOL0     C84909   7.542   8.375   2.533  0.9546  0.0869  0.5408
  616MOL0     C84910   7.608   8.326   2.405  0.5583  0.2534 -0.7235
  616MOL0     C84911   7.529   8.209   2.342 -0.0908  0.2577 -1.3385
  616MOL0     C84912   7.528   8.079   2.425  0.1329 -0.2303  0.0260
  616MOL0     C84913   7.437   7.965   2.369  1.4134  0.6077 -0.0082
  616MOL0     C84914   7.442   7.828   2.445 -0.9130  0.6455 -0.6857
  616MOL0    Cl84915   7.323   7.838   2.580  0.0204  0.1114 -0.4347
  616MOL0     C84916   7.373   8.663   2.902 -0.4280 -0.4294 -0.4360
  616MOL0     C84917   7.311   8.713   3.018  0.4467 -0.0083  0.4988
  616MOL0     O84918   7.038   8.727   3.134 -0.2095  0.1911 -0.4806
  616MOL0     C84919   7.089   8.690   3.494  0.7253  0.2152 -0.0510
  616MOL0     C84920   7.025   8.682   3.618  0.4938  0.6701  0.1809
  616MOL0     N84921   6.646   8.998   4.342  0.9010  0.8849  0.8801
  616MOL0     N84922   6.638   8.980   4.470 -0.4611  0.2658  0.0614
  616MOL0     C84923   7.451   8.347   4.535  0.7624 -0.5161  1.1991
  616MOL0     C84924   7.462   8.240   4.443  1.3801  0.1832  0.2120
  616MOL0     C84925   7.658   7.957   4.139  0.2477 -0.2604  0.1614
  616MOL0     C84926   7.683   7.974   4.001 -0.2549 -0.3669 -0.5762
  616MOL0     C84927   7.672   7.874   3.900  0.2320  0.5221  0.1227
  616MOL0     C84928   7.642   7.745   3.947  0.6763  0.0473  0.5032
  616MOL0     O84929   7.644   7.631   3.871 -0.5337  1.3163 -1.4337
  616MOL0     C84930   7.690   7.637   3.738 -0.4011 -0.1062 -0.1706
  616MOL0     C84931   7.677   7.496   3.672  0.4924 -0.2177  0.6944
  616MOL0     C84932   7.802   7.465   3.589  0.6369  0.0209  0.4346
  616MOL0     C84933   7.778   7.323   3.529  0.1293  0.4832 -0.2176
  616MOL0     C84934   7.892   7.305   3.445  0.8869  0.3513  0.0027
  616MOL0     C84935   7.987   7.309   3.369  0.1223  1.1761  0.7925
  616MOL0     C84936   7.605   7.727   4.084  0.0134 -0.6252 -0.2026
  616MOL0     C84937   7.614   7.827   4.182  0.0539 -0.2853  0.4878
  616MOL0     C84938   7.588   7.784   4.331  0.1460 -1.4504  0.6970
  616MOL0     H84939   7.783   8.139   4.499 -0.0381 -0.3527  0.4877
  616MOL0     H84940   7.749   8.298   4.697  0.6934  0.0730 -0.7386
  616MOL0     H84941   7.430   8.583   4.856 -1.4198 -2.5068  1.5996
  616MOL0     H84942   7.346   8.475   4.755 -0.5889  0.4796  3.8812
  616MOL0     H84943   7.522   8.705   4.644  1.0260 -2.9360  0.8349
  616MOL0     H84944   7.396   8.610   4.556 -0.6711 -0.7297 -0.0323
  616MOL0     H84945   7.347   8.807   4.776  1.6775 -0.4652  0.3783
  616MOL0     H84946   7.319   8.845   4.623 -0.4110 -0.6261  1.0005
  616MOL0     H84947   7.172   8.623   4.599  1.7705  0.0439 -1.0091
  616MOL0     H84948   7.162   8.631   4.773  1.5301 -1.4983 -0.2844
  616MOL0     H84949   7.098   8.880   4.606 -1.3674  4.0068  1.5057
  616MOL0     H84950   7.074   8.862   4.776  0.5346  2.8332 -1.9009
  616MOL0     H84951   6.931   8.709   4.552  1.1107  1.1947 -1.0029
  616MOL0     H84952   6.933   8.663   4.729  2.0175 -0.9822 -2.0491
  616MOL0     H84953   6.856   8.935   4.635  2.7441  0.8747  1.8498
  616MOL0     H84954   6.813   8.854   4.786 -2.2825  1.9544 -0.0867
  616MOL0     H84955   6.712   8.680   4.607 -0.4559 -0.0777 -0.8940
  616MOL0     H84956   6.615   8.800   4.688  0.1344 -3.4795  0.4983
  616MOL0     H84957   6.674   8.679   4.337  0.6249  0.2096 -0.5026
  616MOL0     H84958   6.553   8.931   4.088  0.6830  0.8488  0.1274
  616MOL0     H84959   6.566   8.761   4.125 -0.7632  0.4722  1.0677
  616MOL0     H84960   6.714   8.906   3.938 -0.0020 -1.0517  1.1170
  616MOL0     H84961   6.830   8.905   4.075  1.1511 -0.4819  0.1769
  616MOL0     H84962   6.852   8.666   4.065  2.1688 -0.5004 -1.3842
  616MOL0     H84963   6.700   8.660   3.967 -2.2617  3.4251  0.8683
  616MOL0     H84964   6.971   8.771   3.868 -1.1532  1.3397  0.7611
  616MOL0     H84965   6.927   8.596   3.868 -2.3842 -1.1436  0.7677
  616MOL0     H84966   6.716   8.766   3.523  0.1280  0.1513  0.7985
  616MOL0     H84967   6.796   8.845   3.204 -1.3998 -0.8623 -0.8386
  616MOL0     H84968   6.683   8.729   3.290  0.7600  0.1962  1.9713
  616MOL0     H84969   6.811   8.669   3.196 -1.0630 -0.3287 -0.2063
  616MOL0     H84970   7.329   8.439   3.213  1.8001  0.0770  1.2922
  616MOL0     H84971   7.461   8.369   3.023 -0.5809 -0.4524 -0.2499
  616MOL0     H84972   7.440   8.608   2.650 -0.3317  0.4604  1.8255
  616MOL0     H84973   7.599   8.657   2.715  0.1344  1.7602 -3.2906
  616MOL0     H84974   7.643   8.561   2.499  2.0516 -1.7153 -0.5319
  616MOL0     H84975   7.714   8.459   2.617  0.6021 -0.6833 -0.1208
  616MOL0     H84976   7.435   8.396   2.527  0.9884  1.2264  3.0470
  616MOL0     H84977   7.553   8.296   2.607  3.1721  1.2236  1.4914
  616MOL0     H84978   7.712   8.296   2.419  0.0701 -2.1808 -1.7584
  616MOL0     H84979   7.589   8.397   2.324 -3.8466  0.2233  0.0446
  616MOL0     H84980   7.423   8.227   2.322 -0.4030  0.6017  0.4354
  616MOL0     H84981   7.586   8.184   2.253  4.7023  0.2841  1.3721
  616MOL0     H84982   7.490   8.110   2.523  0.0655 -0.9029  0.2153
  616MOL0     H84983   7.627   8.036   2.442 -0.7139 -1.9486  0.9072
  616MOL0     H84984   7.454   7.963   2.261 -0.5459  1.8561 -0.3980
  616MOL0     H84985   7.332   7.992   2.384  0.7337 -1.6973 -0.2474
  616MOL0     H84986   7.544   7.826   2.485 -1.5752 -1.4649  1.0630
  616MOL0     H84987   7.412   7.736   2.394 -1.2198 -1.5749  3.1081
  616MOL0     H84988   7.387   8.738   2.824 -0.0141 -1.2987 -1.2279
  616MOL0     H84989   7.272   8.814   3.008  1.6570  0.7403  2.4988
  616MOL0     H84990   7.195   8.669   3.494  1.1137  2.0136 -0.3197
  616MOL0     H84991   7.083   8.644   3.702  0.9325 -1.5742 -1.0843
  616MOL0     H84992   7.349   8.386   4.538  0.3901 -1.5083  2.1501
  616MOL0     H84993   7.377   8.219   4.379  0.2634  0.8863  1.4207
  616MOL0     H84994   7.714   8.065   3.950  2.7153 -0.7362  0.3502
  616MOL0     H84995   7.702   7.899   3.799  1.1246  0.4966  0.3714
  616MOL0     H84996   7.622   7.709   3.692 -0.0120  1.4249  1.5368
  616MOL0     H84997   7.795   7.670   3.731 -0.4531  0.4115  1.3206
  616MOL0     H84998   7.593   7.503   3.603  3.2832 -0.4620 -3.0069
  616MOL0     H84999   7.648   7.419   3.745  2.3561 -0.1343  1.5842
  616MOL0     H85000   7.817   7.541   3.513 -0.7054  2.4432  2.4365
  616MOL0     H85001   7.883   7.479   3.661  0.6037  1.8188  0.1645
  616MOL0     H85002   7.686   7.312   3.471 -1.0185  1.1458  1.3968
  616MOL0     H85003   7.789   7.253   3.613  2.6741 -0.5579 -1.3167
  616MOL0     H85004   8.071   7.304   3.303  0.0166 -1.3286  0.7550
  616MOL0     H85005   7.561   7.629   4.103 -3.0666 -0.0294 -3.3199
  616MOL0     H85006   7.526   7.848   4.394  1.2952 -1.1569  1.5616
  616MOL0     H85007   7.517   7.701   4.323 -1.4855  0.0548 -2.1028
  616MOL0     H85008   7.681   7.762   4.383 -0.7386 -0.9034  2.6006
  617MOL0     O85009   4.368  10.065   7.318 -0.7789  0.8468 -1.0248
  617MOL0     C85010   4.314  10.123   7.410  0.4677  0.3577  0.4924
  617MOL0     O85011   4.181  10.146   7.428  1.2305  0.1410 -0.6221
  617MOL0     C85012   4.094  10.096   7.337 -0.1823 -0.0252  0.4756
  617MOL0     C85013   3.990  10.180   7.283 -0.0321  0.7495  0.8714
  617MOL0     C85014   3.913  10.121   7.176  0.4014  0.4459  0.6925
  617MOL0     C85015   3.923   9.991   7.123  0.6507  0.3761 -0.5033
  617MOL0     O85016   3.855   9.951   7.009  0.3733 -0.6281  0.3050
  617MOL0     C85017   3.916   9.904   6.889 -0.1182 -0.6188 -1.1309
  617MOL0     C85018   3.831   9.946   6.766  0.9241 -0.5286 -0.3789
  617MOL0     C85019   3.903   9.944   6.628 -0.3530  0.2190  0.9893
  617MOL0     C85020   3.807   9.976   6.512  0.5519  0.4956  0.1374
  617MOL0     C85021   3.858   9.943   6.373 -1.0935 -0.2239  1.1176
  617MOL0     C85022   3.975  10.028   6.316 -0.6163 -0.7437  0.4744
  617MOL0     C85023   3.939  10.137   6.219  0.1407  0.2374  0.5741
  617MOL0     C85024   3.874  10.256   6.272  1.2601  0.0977  0.5536
  617MOL0     N85025   3.951  10.360   6.349 -0.0940 -0.2896 -0.1636
  617MOL0     C85026   3.998  10.349   6.477  0.4175 -0.0754  0.4556
  617MOL0     C85027   4.037  10.473   6.514  0.8637 -0.2605  0.6932
  617MOL0     C85028   4.088  10.533   6.649 -0.1003  0.3453 -0.1128
  617MOL0     C85029   4.237  10.572   6.636 -0.1833 -0.4440 -0.4646
  617MOL0     C85030   4.278  10.653   6.756 -0.5935  0.6300 -0.5584
  617MOL0     C85031   4.424  10.676   6.774 -0.3964  0.7035 -0.2087
  617MOL0     O85032   4.456  10.697   6.910  0.6425  0.0838 -0.1465
  617MOL0     C85033   4.423  10.824   6.964  0.1241 -0.3443  0.6512
  617MOL0     C85034   4.449  10.843   7.100 -0.2655 -0.2155 -0.2549
  617MOL0     C85035   4.426  10.954   7.174  0.8322 -1.0314 -0.0688
  617MOL0     C85036   4.486  10.957   7.315 -0.2324  0.5229  0.0286
  617MOL0     C85037   4.376  11.070   7.103  0.0013  0.8003  0.0081
  617MOL0     C85038   4.372  11.209   7.155  1.1668 -0.1850 -0.9177
  617MOL0     O85039   4.366  11.315   7.072 -0.5485 -0.6600  0.5358
  617MOL0     C85040   4.361  11.445   7.114 -0.8696 -0.5996  0.1280
  617MOL0     C85041   4.306  11.545   7.030 -0.3942 -0.1865 -0.6978
  617MOL0     C85042   4.315  11.687   7.059 -0.4557  0.2966  0.5055
  617MOL0     C85043   4.360  11.722   7.189 -0.0192  0.4502 -0.1680
  617MOL0     O85044   4.338  11.851   7.222 -0.5278 -0.0454  0.9387
  617MOL0     C85045   4.355  11.885   7.363  0.1071 -0.9200  0.1211
  617MOL0     C85046   4.311  12.034   7.383  0.4038  0.0438  0.8279
  617MOL0     C85047   4.170  12.067   7.340  0.8709  0.1298 -0.4234
  617MOL0     C85048   4.071  11.962   7.401 -0.2289  0.1956  0.9549
  617MOL0     C85049   3.933  12.008   7.356  0.6398 -0.3848 -0.4296
  617MOL0     C85050   3.819  11.907   7.410 -0.6256  0.3453  0.5122
  617MOL0     C85051   3.684  11.944   7.368  0.4562 -0.2180 -0.6424
  617MOL0     C85052   3.574  11.870   7.450  0.3449 -0.5719 -0.0783
  617MOL0    Cl85053   3.578  11.686   7.402 -0.1213  0.6553 -0.3760
  617MOL0     C85054   4.400  11.621   7.277  0.6788  0.6888  0.1840
  617MOL0     C85055   4.402  11.482   7.243 -0.2365  0.7121  0.2521
  617MOL0     O85056   4.359  11.213   7.277 -0.3269 -0.0121  0.1024
  617MOL0     C85057   4.360  11.054   6.964 -0.6262 -0.6477 -0.3385
  617MOL0     C85058   4.379  10.936   6.893 -0.4951  1.1054 -0.3826
  617MOL0     N85059   4.005  10.555   6.401  0.0678 -0.1323  0.6028
  617MOL0     N85060   3.959  10.485   6.305 -0.7657 -0.4793 -0.8088
  617MOL0     C85061   4.022   9.910   7.180 -0.0878  0.0185  0.1277
  617MOL0     C85062   4.099   9.962   7.292 -0.0744  0.0226  0.1984
  617MOL0     C85063   4.407  10.156   7.518 -0.2602  0.2922  0.4350
  617MOL0     C85064   4.540  10.182   7.490  0.1040  0.2218  0.2372
  617MOL0     C85065   4.628  10.236   7.581  0.5193 -0.3737 -0.8581
  617MOL0     C85066   4.580  10.265   7.713 -0.7263 -0.0871  0.5474
  617MOL0     O85067   4.651  10.320   7.819  0.4130  0.6975 -0.4088
  617MOL0     C85068   4.784  10.383   7.797 -0.1382 -0.0907 -0.5742
  617MOL0     C85069   4.892  10.328   7.892 -0.0878 -0.2009 -1.3118
  617MOL0     C85070   5.023  10.399   7.859  0.0270  0.0689 -0.5818
  617MOL0     C85071   5.142  10.346   7.942  0.8116 -0.0602 -0.3016
  617MOL0     C85072   5.180  10.207   7.902  0.0028 -0.6773  0.4587
  617MOL0     C85073   5.201  10.091   7.878 -0.1509 -0.0006  0.9037
  617MOL0     C85074   4.448  10.226   7.748  1.0459 -1.4005  0.8818
  617MOL0     C85075   4.368  10.170   7.651  0.2882 -0.7324 -0.5595
  617MOL0     C85076   4.227  10.116   7.695 -0.2099  0.5598  0.0405
  617MOL0     H85077   3.976  10.284   7.308 -0.5232  1.4556 -2.0325
  617MOL0     H85078   3.833  10.177   7.128 -2.0044 -5.1832 -3.0337
  617MOL0     H85079   3.922   9.796   6.907 -0.2517 -0.9021 -2.6790
  617MOL0     H85080   4.011   9.956   6.880  0.0572 -0.1949  1.9215
  617MOL0     H85081   3.737   9.891   6.760 -1.1907  2.5718  1.4644
  617MOL0     H85082   3.793  10.048   6.777 -1.5170 -1.4897  0.8353
  617MOL0     H85083   3.970  10.029   6.623 -2.1811  1.6944  0.0575
  617MOL0     H85084   3.951   9.848   6.608 -2.8139 -0.6764 -1.3958
  617MOL0     H85085   3.720   9.913   6.534  1.1827  0.7193  3.7633
  617MOL0     H85086   3.772  10.080   6.516  1.0110  0.6615  4.2275
  617MOL0     H85087   3.776   9.947   6.302 -2.9055  0.9634  3.1582
  617MOL0     H85088   3.883   9.837   6.363  2.9735  0.5375  1.1928
  617MOL0     H85089   4.042  10.066   6.393 -1.6675  0.2299  0.9287
  617MOL0     H85090   4.030   9.957   6.253 -0.9365 -0.0178 -0.6703
  617MOL0     H85091   3.861  10.096   6.154 -1.6803  0.4191  2.5524
  617MOL0     H85092   4.030  10.165   6.166  1.0842 -2.3451  0.6608
  617MOL0     H85093   3.826  10.298   6.183 -0.4987 -3.0216 -0.1058
  617MOL0     H85094   3.799  10.210   6.338 -1.2721  1.3050 -1.3325
  617MOL0     H85095   3.979  10.269   6.549  0.0631  0.8116  1.3715
  617MOL0     H85096   4.077  10.462   6.731 -5.4707 -0.6817 -1.3103
  617MOL0     H85097   4.032  10.626   6.663 -3.5250 -1.7343  1.3657
  617MOL0     H85098   4.298  10.482   6.629 -0.0584 -0.3237 -0.9459
  617MOL0     H85099   4.249  10.635   6.547  0.3320 -0.2054 -0.2303
  617MOL0     H85100   4.216  10.740   6.780 -0.0413  0.3886  2.0675
  617MOL0     H85101   4.255  10.577   6.831 -3.5897  0.4476 -1.5395
  617MOL0     H85102   4.475  10.582   6.752  2.9026  2.6770 -1.9138
  617MOL0     H85103   4.456  10.758   6.709 -4.2438  3.1409  0.6803
  617MOL0     H85104   4.494  10.761   7.155  1.0810 -0.2171 -1.2961
  617MOL0     H85105   4.548  11.047   7.318  0.9524 -0.2882  1.3220
  617MOL0     H85106   4.559  10.877   7.316 -3.7637 -3.0242 -0.6170
  617MOL0     H85107   4.416  10.925   7.394 -0.6067 -3.0469 -1.5639
  617MOL0     H85108   4.279  11.518   6.928  1.1213  1.3695 -1.5652
  617MOL0     H85109   4.280  11.762   6.989 -0.3999  0.8375  1.0482
  617MOL0     H85110   4.289  11.823   7.424 -1.1195 -0.7876 -1.0204
  617MOL0     H85111   4.460  11.887   7.395  0.6930  0.6717 -1.7094
  617MOL0     H85112   4.326  12.050   7.490 -2.0462  0.5785  1.1590
  617MOL0     H85113   4.380  12.093   7.322 -0.2054 -0.4784 -0.4125
  617MOL0     H85114   4.161  12.062   7.231 -0.3857  0.8711 -0.3745
  617MOL0     H85115   4.143  12.169   7.367  0.4100  0.1619 -0.9804
  617MOL0     H85116   4.068  11.953   7.510  2.5874 -1.8948  0.9675
  617MOL0     H85117   4.084  11.864   7.354 -2.4981 -1.2601  3.1081
  617MOL0     H85118   3.902  12.099   7.408  3.2339  0.6173 -0.5337
  617MOL0     H85119   3.943  12.014   7.247  1.5387 -3.0298 -0.5801
  617MOL0     H85120   3.826  11.911   7.519 -0.4947  4.7169  0.4855
  617MOL0     H85121   3.843  11.806   7.375  2.6317  2.3130 -3.7340
  617MOL0     H85122   3.667  11.922   7.263  1.9518 -1.3638 -0.6666
  617MOL0     H85123   3.663  12.050   7.391  1.0423 -0.5030  1.4785
  617MOL0     H85124   3.476  11.915   7.432 -0.2793 -2.2392 -1.1368
  617MOL0     H85125   3.596  11.884   7.556 -1.7328  1.6928  0.1441
  617MOL0     H85126   4.428  11.638   7.381 -3.7601  2.3003  1.3279
  617MOL0     H85127   4.435  11.425   7.330  2.0215  2.1431  0.4196
  617MOL0     H85128   4.323  11.132   6.897 -1.6690 -0.7284  0.1297
  617MOL0     H85129   4.365  10.934   6.786 -0.0385  0.0514 -0.4327
  617MOL0     H85130   4.023   9.807   7.145 -1.9747 -0.6387  1.8287
  617MOL0     H85131   4.172   9.893   7.332  0.0360  0.4128  0.6744
  617MOL0     H85132   4.575  10.152   7.391  0.2118  0.2534  0.2660
  617MOL0     H85133   4.733  10.251   7.554  0.6526 -0.5680 -0.4591
  617MOL0     H85134   4.817  10.351   7.698 -2.0453  0.2260 -1.3484
  617MOL0     H85135   4.783  10.492   7.804 -0.1195 -0.1788  1.7145
  617MOL0     H85136   4.910  10.220   7.889  1.8889 -0.0319  1.3828
  617MOL0     H85137   4.863  10.343   7.996 -2.8412 -3.2520 -1.4656
  617MOL0     H85138   5.043  10.387   7.752  2.8628 -1.2160  0.0159
  617MOL0     H85139   5.020  10.508   7.871 -1.2247  0.0192 -0.2485
  617MOL0     H85140   5.114  10.357   8.047 -0.9950 -1.9261 -0.5180
  617MOL0     H85141   5.224  10.414   7.919 -0.7831  2.3248  0.7264
  617MOL0     H85142   5.228   9.989   7.860 -0.2146  0.5908 -3.5181
  617MOL0     H85143   4.411  10.224   7.850 -2.0137  2.4374  0.0818
  617MOL0     H85144   4.240  10.089   7.800  1.2677  0.8040 -0.0618
  617MOL0     H85145   4.149  10.192   7.678  0.1319  0.3787 -2.8414
  617MOL0     H85146   4.204  10.023   7.643 -0.5264 -0.7263  2.3595
  618MOL0     O85147   6.573   6.361   2.099 -0.9501 -0.2230 -0.7393
  618MOL0     C85148   6.529   6.454   2.031  0.7727  0.0206 -0.6739
  618MOL0     O85149   6.415   6.531   2.057 -0.1670  0.0407  0.2018
  618MOL0     C85150   6.317   6.499   2.149  0.3747  0.6237  0.2329
  618MOL0     C85151   6.350   6.443   2.266 -0.6237  0.0931 -0.8233
  618MOL0     C85152   6.247   6.416   2.368  0.2886  0.2469  1.4457
  618MOL0     C85153   6.115   6.451   2.337 -0.2419  1.0888 -0.1531
  618MOL0     O85154   6.013   6.445   2.422 -0.6217 -0.2698  0.0167
  618MOL0     C85155   6.035   6.370   2.550 -0.7680 -0.1976  0.5035
  618MOL0     C85156   5.906   6.331   2.622 -0.2263 -0.4136 -0.2698
  618MOL0     C85157   5.833   6.464   2.654  0.1120 -0.4364  0.5548
  618MOL0     C85158   5.708   6.437   2.745 -0.2295 -0.2951  0.0549
  618MOL0     C85159   5.592   6.537   2.726  0.2674  0.4632  0.5126
  618MOL0     C85160   5.482   6.514   2.834  0.4566  0.5989  0.6136
  618MOL0     C85161   5.374   6.630   2.825 -0.6499  0.3491  0.3442
  618MOL0     C85162   5.290   6.622   2.954  0.5310  1.1191 -0.4262
  618MOL0     N85163   5.165   6.680   2.930 -0.0858 -0.2942 -0.5794
  618MOL0     C85164   5.136   6.812   2.941  0.5168  0.4706  0.8398
  618MOL0     C85165   5.014   6.831   2.894 -0.4772  0.3231  0.5045
  618MOL0     C85166   4.950   6.961   2.918  0.0738  0.2254 -0.8824
  618MOL0     C85167   4.834   6.925   3.021 -0.3453 -0.2783  0.2197
  618MOL0     C85168   4.793   7.034   3.123  0.5746 -0.9524  0.0342
  618MOL0     C85169   4.725   7.163   3.059 -0.8828 -0.2950 -0.7771
  618MOL0     O85170   4.809   7.209   2.941  0.4286 -0.1572 -0.1071
  618MOL0     C85171   4.900   7.318   2.958  0.7145 -0.4173 -0.3915
  618MOL0     C85172   4.939   7.391   2.846  0.2937  0.5843  0.6613
  618MOL0     C85173   5.031   7.495   2.848 -0.1820  0.1297 -0.6795
  618MOL0     C85174   5.075   7.559   2.717  0.6591 -0.5824 -0.9015
  618MOL0     C85175   5.085   7.547   2.976  0.0467  0.3314 -0.2087
  618MOL0     C85176   5.168   7.664   2.984  0.3000  0.8730 -0.5030
  618MOL0     O85177   5.165   7.739   3.098  0.3899 -0.4263 -0.3277
  618MOL0     C85178   5.265   7.829   3.119  0.5589  0.9403  0.6964
  618MOL0     C85179   5.334   7.815   3.236 -0.3906 -0.2521  0.3132
  618MOL0     C85180   5.428   7.909   3.270 -0.5963  0.4634 -0.7041
  618MOL0     C85181   5.459   8.013   3.190  0.3099  0.1928  0.0848
  618MOL0     O85182   5.571   8.085   3.215 -0.4292 -0.0066 -1.0678
  618MOL0     C85183   5.658   8.137   3.113 -0.2353 -1.9201  0.0237
  618MOL0     C85184   5.666   8.290   3.095  0.6283  0.1576 -0.7446
  618MOL0     C85185   5.712   8.354   3.229 -0.1102 -0.2602  0.2027
  618MOL0     C85186   5.774   8.486   3.192  1.5003  0.4446 -0.5322
  618MOL0     C85187   5.679   8.594   3.119 -0.4028 -0.3371  0.5589
  618MOL0     C85188   5.572   8.665   3.209 -0.9202 -0.5036  0.4156
  618MOL0     C85189   5.647   8.777   3.281  0.4587  0.8128 -0.6197
  618MOL0     C85190   5.545   8.854   3.367 -0.9056  0.0313 -0.0281
  618MOL0    Cl85191   5.581   9.028   3.364 -0.0310 -0.0416  0.0766
  618MOL0     C85192   5.391   8.028   3.071 -0.0077 -0.2912  0.4784
  618MOL0     C85193   5.295   7.934   3.032 -0.1708 -0.9463 -0.1907
  618MOL0     O85194   5.248   7.676   2.892  1.0585 -0.0266  0.8374
  618MOL0     C85195   5.023   7.483   3.085 -0.2123 -0.8941 -0.8976
  618MOL0     C85196   4.945   7.368   3.079  0.4175 -0.5547  0.1191
  618MOL0     N85197   4.964   6.707   2.857  0.1097  0.4654  0.5929
  618MOL0     N85198   5.060   6.613   2.876  0.3751  0.5349  0.7646
  618MOL0     C85199   6.087   6.511   2.213 -0.5679 -0.2141  0.7295
  618MOL0     C85200   6.190   6.547   2.121 -0.1729  0.4204 -0.6880
  618MOL0     C85201   6.596   6.495   1.910 -1.1945 -0.4349  0.5013
  618MOL0     C85202   6.576   6.623   1.853  0.3817 -0.4790  0.1806
  618MOL0     C85203   6.633   6.663   1.742 -0.7761  0.3658  0.2093
  618MOL0     C85204   6.723   6.574   1.672 -0.3233  0.1329 -0.3011
  618MOL0     O85205   6.769   6.628   1.549  0.2984 -0.1535  0.8885
  618MOL0     C85206   6.833   6.543   1.459 -0.1447  0.3286 -0.1591
  618MOL0     C85207   6.877   6.620   1.333 -0.3125  0.8134 -0.1324
  618MOL0     C85208   7.008   6.706   1.359 -0.0205 -0.4730 -0.0498
  618MOL0     C85209   7.033   6.813   1.255 -0.4937 -0.1643 -0.6681
  618MOL0     C85210   7.065   6.749   1.127  0.2243  0.8258 -0.5427
  618MOL0     C85211   7.071   6.710   1.013  0.2324  0.5429  0.0636
  618MOL0     C85212   6.757   6.453   1.732  0.6333  0.1086 -0.2752
  618MOL0     C85213   6.695   6.409   1.847  0.0913  0.8518 -0.7396
  618MOL0     C85214   6.725   6.268   1.895 -0.0141  0.1980 -0.2019
  618MOL0     H85215   6.452   6.414   2.289 -0.8869  1.5192  2.7576
  618MOL0     H85216   6.277   6.366   2.460  0.3959 -1.4791  0.5112
  618MOL0     H85217   6.099   6.436   2.611 -2.2751  3.6427 -1.7093
  618MOL0     H85218   6.088   6.276   2.533  1.3218  0.5676  2.2580
  618MOL0     H85219   5.851   6.273   2.547 -0.1469  1.7953 -2.1716
  618MOL0     H85220   5.923   6.280   2.717 -0.5934  0.8442  0.4942
  618MOL0     H85221   5.897   6.535   2.706 -3.0189  3.1846 -0.0652
  618MOL0     H85222   5.804   6.512   2.559  3.2077  0.3779 -0.1037
  618MOL0     H85223   5.660   6.339   2.739  0.3775 -0.5041 -3.4352
  618MOL0     H85224   5.745   6.440   2.848  0.2402 -1.5849 -0.0637
  618MOL0     H85225   5.549   6.511   2.629  0.2376 -3.0361  1.3462
  618MOL0     H85226   5.616   6.644   2.734 -0.2987  0.7116 -0.8231
  618MOL0     H85227   5.427   6.420   2.822  0.1147  0.9759 -1.0433
  618MOL0     H85228   5.539   6.509   2.927 -1.0401 -3.2136  1.5561
  618MOL0     H85229   5.324   6.633   2.727  0.0735  1.3736 -0.0133
  618MOL0     H85230   5.432   6.722   2.819 -2.0548  1.2230 -0.7429
  618MOL0     H85231   5.275   6.520   2.990 -2.4786  2.4055  2.4240
  618MOL0     H85232   5.340   6.675   3.036 -0.9561  2.0448 -0.0858
  618MOL0     H85233   5.188   6.893   2.991  0.2639 -0.7701  3.2589
  618MOL0     H85234   4.910   7.006   2.827  1.3806  2.2664 -0.5028
  618MOL0     H85235   5.017   7.032   2.967 -0.1271  0.2174 -0.5885
  618MOL0     H85236   4.739   6.906   2.972 -0.5049 -0.3857  0.5644
  618MOL0     H85237   4.863   6.833   3.073  0.1456  0.1378  0.6937
  618MOL0     H85238   4.722   6.998   3.198  3.4353 -1.1234  2.8581
  618MOL0     H85239   4.880   7.058   3.185  2.6226 -2.4111 -2.1281
  618MOL0     H85240   4.630   7.130   3.015  0.0506 -1.0496 -2.3263
  618MOL0     H85241   4.708   7.240   3.135 -1.6169  0.9306 -2.1026
  618MOL0     H85242   4.895   7.354   2.754 -1.0809  1.0759  1.0964
  618MOL0     H85243   5.051   7.666   2.722 -0.2882 -0.7157 -2.1900
  618MOL0     H85244   5.015   7.521   2.634  3.2530 -1.7472 -2.3352
  618MOL0     H85245   5.181   7.549   2.692  0.4888 -0.5064 -1.6674
  618MOL0     H85246   5.320   7.737   3.311  2.2155  0.4335  1.6256
  618MOL0     H85247   5.478   7.902   3.366 -1.0742  0.1681 -0.4759
  618MOL0     H85248   5.760   8.100   3.123  1.7969  2.7647 -1.2162
  618MOL0     H85249   5.631   8.100   3.013 -0.4004  0.6644 -0.9718
  618MOL0     H85250   5.729   8.306   3.007 -0.1473  1.2515 -1.1208
  618MOL0     H85251   5.564   8.315   3.065  0.0228 -1.2643  0.0250
  618MOL0     H85252   5.790   8.294   3.275 -0.4228 -0.2424  0.7714
  618MOL0     H85253   5.628   8.368   3.298  0.5265  3.7581  0.3985
  618MOL0     H85254   5.860   8.465   3.128  1.4814  0.6152 -0.6118
  618MOL0     H85255   5.797   8.532   3.289 -1.4784  0.1909  0.3851
  618MOL0     H85256   5.745   8.665   3.067  1.5055 -1.5113  1.2590
  618MOL0     H85257   5.615   8.548   3.043 -1.6475 -0.0620  1.4083
  618MOL0     H85258   5.538   8.590   3.282  0.0659 -1.6675 -0.2737
  618MOL0     H85259   5.486   8.691   3.146  0.4837 -0.4652 -1.5792
  618MOL0     H85260   5.701   8.843   3.212  2.3872 -0.5909 -0.5284
  618MOL0     H85261   5.727   8.740   3.346  0.2016  1.6608  0.1968
  618MOL0     H85262   5.536   8.810   3.467  1.5744  1.0402  0.7178
  618MOL0     H85263   5.449   8.842   3.315 -0.4992  1.4858 -1.1846
  618MOL0     H85264   5.406   8.119   3.014 -1.4460 -0.9389 -1.0364
  618MOL0     H85265   5.245   7.946   2.937 -2.7150 -0.6880  1.1016
  618MOL0     H85266   5.054   7.515   3.184  0.0228 -2.6933 -0.3495
  618MOL0     H85267   4.920   7.315   3.170  1.2327 -0.4804  0.4009
  618MOL0     H85268   5.986   6.544   2.194 -0.5773  0.4196  1.8220
  618MOL0     H85269   6.176   6.613   2.036 -1.0656  3.6813  1.7796
  618MOL0     H85270   6.507   6.693   1.899  1.3002  1.1087 -0.7587
  618MOL0     H85271   6.607   6.759   1.699 -1.5214 -0.7206 -1.8932
  618MOL0     H85272   6.920   6.488   1.495 -1.0929 -1.9672 -1.1730
  618MOL0     H85273   6.761   6.463   1.435 -0.4098  0.4644  0.1713
  618MOL0     H85274   6.794   6.673   1.285 -1.3078 -1.4563 -1.0735
  618MOL0     H85275   6.910   6.535   1.272  0.7133 -0.1516  1.6758
  618MOL0     H85276   7.003   6.749   1.460  2.4797 -1.8711  0.7644
  618MOL0     H85277   7.084   6.629   1.370 -0.3568 -0.7729  0.2177
  618MOL0     H85278   7.105   6.888   1.288 -3.1627  2.1607  0.2147
  618MOL0     H85279   6.934   6.858   1.248 -0.8797 -0.8161  0.4018
  618MOL0     H85280   7.084   6.683   0.910  0.0049 -2.1165  0.6700
  618MOL0     H85281   6.836   6.386   1.699  0.6878 -0.4150  0.8773
  618MOL0     H85282   6.781   6.273   1.989 -2.2063  2.5064  1.1096
  618MOL0     H85283   6.637   6.203   1.893 -0.7481  1.1410  0.5187
  618MOL0     H85284   6.791   6.224   1.819 -0.1129 -0.2034 -0.0569
  619MOL0     O85285   5.473   4.555   2.774 -0.1323 -0.0867  0.8643
  619MOL0     C85286   5.466   4.567   2.643 -0.0992  0.2443 -1.3313
  619MOL0     O85287   5.476   4.686   2.578 -0.6320  1.0945  0.0793
  619MOL0     C85288   5.448   4.803   2.645  0.0421 -0.0612 -0.4906
  619MOL0     C85289   5.319   4.841   2.661 -0.0193  0.8577 -0.4926
  619MOL0     C85290   5.285   4.965   2.715  0.7696 -0.3824 -0.4414
  619MOL0     C85291   5.385   5.051   2.754 -1.2383  0.1913 -0.8987
  619MOL0     O85292   5.351   5.179   2.790  0.5438 -0.4841  0.0979
  619MOL0     C85293   5.329   5.210   2.927 -0.4693 -0.1967 -0.1497
  619MOL0     C85294   5.296   5.361   2.930  1.2855  0.2390 -0.6558
  619MOL0     C85295   5.271   5.420   3.076  0.3158  0.5963 -0.2215
  619MOL0     C85296   5.372   5.521   3.118 -0.8733 -0.0006 -0.1341
  619MOL0     C85297   5.339   5.584   3.247 -0.3001  0.1379 -0.1551
  619MOL0     C85298   5.463   5.685   3.273  0.1371 -0.3195  1.5048
  619MOL0     C85299   5.488   5.698   3.426 -0.5513  1.1852  0.3938
  619MOL0     C85300   5.386   5.788   3.485  1.0105 -0.4348 -0.6330
  619MOL0     N85301   5.434   5.925   3.495  0.1262  0.1248 -0.6051
  619MOL0     C85302   5.448   5.977   3.620 -0.4658 -0.1152  0.2150
  619MOL0     C85303   5.449   6.109   3.603 -0.3545  0.6010 -0.8112
  619MOL0     C85304   5.463   6.205   3.717 -0.3269  0.1121  0.6509
  619MOL0     C85305   5.332   6.237   3.792  0.2452  0.8255  0.2990
  619MOL0     C85306   5.317   6.137   3.898  0.0917  0.1316 -0.0776
  619MOL0     C85307   5.197   6.167   3.994  0.0417 -0.1810 -0.2400
  619MOL0     O85308   5.242   6.171   4.131  0.5817 -0.3150 -0.1094
  619MOL0     C85309   5.147   6.203   4.224 -0.4625 -1.4675 -0.6556
  619MOL0     C85310   5.189   6.266   4.341  0.0256  0.6463 -0.1019
  619MOL0     C85311   5.100   6.314   4.433 -0.2451  0.7496 -0.9283
  619MOL0     C85312   5.162   6.402   4.542  0.2209 -0.6279 -0.0420
  619MOL0     C85313   4.957   6.278   4.430 -0.2447 -0.2364 -1.0994
  619MOL0     C85314   4.851   6.298   4.536  0.4736 -0.7856 -0.5662
  619MOL0     O85315   4.725   6.270   4.496  0.8869 -0.3492 -0.5916
  619MOL0     C85316   4.619   6.280   4.588 -0.3239 -0.5183  0.2079
  619MOL0     C85317   4.553   6.161   4.624 -1.3196 -0.9028 -0.1656
  619MOL0     C85318   4.442   6.161   4.712 -0.7805  0.1328  0.6949
  619MOL0     C85319   4.394   6.291   4.762 -0.4430 -0.3604  0.2070
  619MOL0     O85320   4.284   6.289   4.846 -0.1028  0.2046 -0.7035
  619MOL0     C85321   4.265   6.382   4.951 -1.2560  1.0404 -0.3046
  619MOL0     C85322   4.328   6.337   5.085 -0.8351 -0.3360 -0.9170
  619MOL0     C85323   4.308   6.189   5.104 -1.2641  0.3911 -0.1219
  619MOL0     C85324   4.372   6.154   5.241  0.3697  0.2629 -0.6475
  619MOL0     C85325   4.519   6.114   5.246 -0.0155  0.1447  0.5624
  619MOL0     C85326   4.582   6.120   5.378  0.7355 -0.6853  0.2827
  619MOL0     C85327   4.509   6.048   5.497  0.9855  0.0319 -0.3231
  619MOL0     C85328   4.483   5.897   5.501 -0.8571 -0.1003 -0.6793
  619MOL0    Cl85329   4.416   5.844   5.653  0.5787  0.1979 -0.8647
  619MOL0     C85330   4.474   6.408   4.736  0.1507  0.9228 -1.1868
  619MOL0     C85331   4.579   6.403   4.650  0.4744 -0.0163 -0.6918
  619MOL0     O85332   4.883   6.330   4.650 -0.0035 -0.2574 -0.2382
  619MOL0     C85333   4.920   6.200   4.318  0.2838  1.0195 -1.1225
  619MOL0     C85334   5.008   6.176   4.219  0.1031  0.1873 -0.8139
  619MOL0     N85335   5.430   6.137   3.468 -0.0022  1.1768 -0.3689
  619MOL0     N85336   5.422   6.024   3.406 -0.6631  0.4191 -0.0461
  619MOL0     C85337   5.513   5.009   2.742 -0.6848  0.0774  0.2829
  619MOL0     C85338   5.545   4.879   2.697 -0.0639 -0.0311  0.1379
  619MOL0     C85339   5.480   4.444   2.567  0.2204 -0.3391 -1.0321
  619MOL0     C85340   5.537   4.344   2.628 -0.3114  0.9816 -0.0953
  619MOL0     C85341   5.564   4.218   2.566  0.1144 -0.7814  0.5745
  619MOL0     C85342   5.531   4.202   2.430 -0.2306 -0.2986  0.5715
  619MOL0     O85343   5.580   4.088   2.359  0.6953  0.0322 -0.1066
  619MOL0     C85344   5.516   3.968   2.411  0.7069 -0.0922  0.3801
  619MOL0     C85345   5.361   3.980   2.383  0.5607  0.1777 -0.0425
  619MOL0     C85346   5.324   4.003   2.237  0.0149 -0.2612  0.2356
  619MOL0     C85347   5.246   3.880   2.184 -0.2484  0.2759  0.2993
  619MOL0     C85348   5.343   3.773   2.160  0.0018  0.0427 -0.0682
  619MOL0     C85349   5.421   3.676   2.146  0.7429 -0.5604 -0.1841
  619MOL0     C85350   5.479   4.317   2.361  0.4126 -1.6602  0.1032
  619MOL0     C85351   5.450   4.436   2.431 -0.0124 -0.5054 -0.5947
  619MOL0     C85352   5.396   4.549   2.346 -0.5044  0.6089 -0.1193
  619MOL0     H85353   5.255   4.762   2.623 -1.0264  1.7074 -0.6370
  619MOL0     H85354   5.180   4.992   2.714  1.2008  1.3892 -1.6425
  619MOL0     H85355   5.425   5.192   2.977  0.0734 -1.1054 -1.4514
  619MOL0     H85356   5.255   5.145   2.974  0.3981  0.2482  1.9298
  619MOL0     H85357   5.375   5.413   2.874  2.2167 -0.1859  0.2405
  619MOL0     H85358   5.202   5.375   2.875  0.9211 -2.5427 -0.8731
  619MOL0     H85359   5.170   5.460   3.092 -0.6942 -2.0730  0.6486
  619MOL0     H85360   5.287   5.342   3.151 -2.3732  1.6093  1.5332
  619MOL0     H85361   5.469   5.471   3.120 -1.6695 -1.5783  1.2176
  619MOL0     H85362   5.375   5.600   3.042 -1.7116 -1.6097 -1.9115
  619MOL0     H85363   5.350   5.508   3.325  1.9961 -0.6779 -1.1852
  619MOL0     H85364   5.240   5.629   3.253 -0.1624  0.3908  0.3290
  619MOL0     H85365   5.547   5.640   3.221 -0.9540 -0.8768  0.1644
  619MOL0     H85366   5.455   5.780   3.220 -4.1464 -1.2215  0.0973
  619MOL0     H85367   5.586   5.729   3.463 -0.1293 -1.0572  1.3114
  619MOL0     H85368   5.473   5.596   3.463 -2.4834  0.5652 -1.8680
  619MOL0     H85369   5.291   5.798   3.433  1.0293  4.3138 -0.1823
  619MOL0     H85370   5.357   5.768   3.588 -1.1449  1.4231 -0.8166
  619MOL0     H85371   5.449   5.932   3.719  3.1724 -0.6025  0.0913
  619MOL0     H85372   5.505   6.296   3.675 -0.4635  0.4346  1.1931
  619MOL0     H85373   5.539   6.175   3.790  2.6592  2.6735 -1.1487
  619MOL0     H85374   5.335   6.335   3.839 -1.1444  0.2429  1.7219
  619MOL0     H85375   5.255   6.240   3.714  0.9709 -0.8102 -0.5372
  619MOL0     H85376   5.313   6.036   3.854  2.9164  0.4556 -1.2418
  619MOL0     H85377   5.404   6.150   3.962  2.7199  0.4765 -3.4311
  619MOL0     H85378   5.148   6.256   3.954 -0.4264 -0.2272  0.2262
  619MOL0     H85379   5.118   6.091   3.994 -4.1307  3.7272 -1.4783
  619MOL0     H85380   5.293   6.286   4.361  0.1971 -1.4585  1.4561
  619MOL0     H85381   5.106   6.496   4.538 -2.2342 -2.0051  0.0499
  619MOL0     H85382   5.270   6.418   4.539  0.3445 -1.5896 -1.8409
  619MOL0     H85383   5.139   6.356   4.639  0.0647 -0.2467  0.1055
  619MOL0     H85384   4.597   6.070   4.584  0.3480  1.0841 -3.2305
  619MOL0     H85385   4.388   6.067   4.710 -0.3747 -0.0964 -0.6821
  619MOL0     H85386   4.284   6.488   4.932 -1.5524  1.5957  2.1570
  619MOL0     H85387   4.155   6.380   4.954 -1.3167  0.0287 -2.0602
  619MOL0     H85388   4.434   6.365   5.084 -0.6084 -1.1539 -2.2063
  619MOL0     H85389   4.281   6.391   5.168  2.7295  1.3336  0.2698
  619MOL0     H85390   4.353   6.120   5.032  2.2762 -0.0693  2.2736
  619MOL0     H85391   4.202   6.166   5.117 -1.6721  2.3298  0.2574
  619MOL0     H85392   4.318   6.062   5.264 -1.7814  1.3087 -1.2549
  619MOL0     H85393   4.339   6.220   5.321 -1.2004 -2.7787  1.4041
  619MOL0     H85394   4.519   6.011   5.208 -1.0484  1.8040 -4.7725
  619MOL0     H85395   4.576   6.178   5.179 -0.5090  1.8382  1.7007
  619MOL0     H85396   4.598   6.225   5.405 -1.3826 -0.9620  3.1004
  619MOL0     H85397   4.684   6.081   5.368  0.2633 -1.9805  0.3229
  619MOL0     H85398   4.417   6.107   5.506  1.7971  1.1497  1.1781
  619MOL0     H85399   4.556   6.081   5.590 -0.5559 -1.4663  1.0564
  619MOL0     H85400   4.581   5.852   5.481 -1.8539 -1.0144 -4.3323
  619MOL0     H85401   4.414   5.875   5.419  1.1915  0.2968 -2.6133
  619MOL0     H85402   4.440   6.504   4.773 -1.4167 -0.1004  0.1455
  619MOL0     H85403   4.623   6.494   4.612 -2.5109  0.9096 -2.2211
  619MOL0     H85404   4.819   6.161   4.303  1.6492 -3.9976  0.7333
  619MOL0     H85405   4.976   6.123   4.130  1.3549 -0.1942 -1.0548
  619MOL0     H85406   5.590   5.082   2.765  0.0476  0.6909 -3.4926
  619MOL0     H85407   5.648   4.846   2.690  0.5527  1.5721  1.0513
  619MOL0     H85408   5.556   4.351   2.734 -5.3320 -1.5961  1.3005
  619MOL0     H85409   5.617   4.138   2.618  1.8182 -2.5346 -3.4339
  619MOL0     H85410   5.538   3.874   2.360 -1.4585 -0.0519 -0.7469
  619MOL0     H85411   5.543   3.953   2.516 -0.0377  1.2151  0.7874
  619MOL0     H85412   5.326   4.069   2.435  0.7426  0.7699 -0.8955
  619MOL0     H85413   5.303   3.898   2.426  0.8905 -1.3930 -2.3895
  619MOL0     H85414   5.251   4.084   2.228 -0.0013 -0.0678  1.7876
  619MOL0     H85415   5.403   4.036   2.168  0.3064 -0.0204  0.6803
  619MOL0     H85416   5.196   3.885   2.087 -0.1665 -0.5700  0.2047
  619MOL0     H85417   5.172   3.840   2.254  1.8753 -3.2578  0.8049
  619MOL0     H85418   5.480   3.587   2.141  2.5753  0.2529  3.4314
  619MOL0     H85419   5.452   4.304   2.257 -0.0870 -0.8649  0.1289
  619MOL0     H85420   5.459   4.639   2.348  3.0144 -1.6255  3.1641
  619MOL0     H85421   5.388   4.517   2.241 -1.6133 -0.4331  0.2637
  619MOL0     H85422   5.294   4.570   2.378 -0.2637  3.4047 -0.8931
  620MOL0     O85423   8.594   7.050   6.779  0.3278  0.5729  0.5299
  620MOL0     C85424   8.481   7.017   6.801 -0.2397 -0.9483 -1.1503
  620MOL0     O85425   8.454   6.931   6.906  0.0265 -0.3491 -0.3008
  620MOL0     C85426   8.547   6.867   6.984 -1.3052 -0.5511  0.0162
  620MOL0     C85427   8.668   6.820   6.923 -0.2136  0.9299 -0.2598
  620MOL0     C85428   8.765   6.757   7.009  0.4870 -0.1735  0.4180
  620MOL0     C85429   8.733   6.733   7.143  0.2850  0.4729  0.6570
  620MOL0     O85430   8.811   6.647   7.219  0.8889  0.2026  0.4451
  620MOL0     C85431   8.761   6.513   7.219  0.5147  0.5920  0.4676
  620MOL0     C85432   8.849   6.423   7.294  0.8955  0.4174 -1.8269
  620MOL0     C85433   8.984   6.417   7.237 -0.3022  0.6832  0.2967
  620MOL0     C85434   9.082   6.344   7.330 -0.4452 -0.2695 -0.7419
  620MOL0     C85435   9.040   6.201   7.371  1.0575 -0.0210 -0.2031
  620MOL0     C85436   9.132   6.137   7.481 -0.9125  1.3334  0.3804
  620MOL0     C85437   9.114   5.987   7.508  0.8143 -0.2313  0.3850
  620MOL0     C85438   8.962   5.958   7.534 -0.8058  0.6610 -0.0903
  620MOL0     N85439   8.947   5.874   7.653 -1.0368 -0.0385  0.1878
  620MOL0     C85440   8.900   5.921   7.768  0.5455 -0.1338  0.5560
  620MOL0     C85441   8.883   5.811   7.844 -0.0592  0.3179 -0.6658
  620MOL0     C85442   8.842   5.793   7.985 -0.1346  0.2798 -0.4223
  620MOL0     C85443   8.706   5.866   8.019 -0.4169 -0.9130  0.1296
  620MOL0     C85444   8.719   6.018   8.057 -0.3217 -0.2422  0.5625
  620MOL0     C85445   8.754   6.054   8.206  0.1365  0.4172 -0.3696
  620MOL0     O85446   8.852   5.950   8.255  0.1165  0.3118 -0.1558
  620MOL0     C85447   8.983   5.996   8.260  0.4433 -0.3607  0.3131
  620MOL0     C85448   9.068   5.924   8.352 -0.3272 -0.6438  0.1240
  620MOL0     C85449   9.203   5.946   8.363  0.0354  0.6023 -0.8844
  620MOL0     C85450   9.291   5.859   8.457  0.0048 -0.0329 -1.0602
  620MOL0     C85451   9.260   6.051   8.291 -0.5946  0.5528  0.7398
  620MOL0     C85452   9.409   6.090   8.295 -0.6882  0.3538 -0.0308
  620MOL0     O85453   9.447   6.161   8.194  0.0757 -0.0696  0.4485
  620MOL0     C85454   9.580   6.197   8.198 -0.4440  0.5827  0.5861
  620MOL0     C85455   9.684   6.101   8.182  0.2205 -0.4251  0.9688
  620MOL0     C85456   9.815   6.141   8.163 -0.6124 -0.3299 -0.9828
  620MOL0     C85457   9.858   6.273   8.190  0.7981  0.0585  0.8362
  620MOL0     O85458   9.992   6.309   8.190 -0.2051 -0.0905 -0.8294
  620MOL0     C85459  10.033   6.376   8.067 -0.2606  0.6208  0.5995
  620MOL0     C85460  10.165   6.440   8.104  1.2142  0.2309  0.7789
  620MOL0     C85461  10.246   6.476   7.976 -0.4155  0.2377  0.3752
  620MOL0     C85462  10.357   6.380   7.941 -1.4158  0.0233 -0.6231
  620MOL0     C85463  10.483   6.455   7.900  0.4731 -0.5665  0.5423
  620MOL0     C85464  10.569   6.354   7.830  0.0267  0.5481 -0.0481
  620MOL0     C85465  10.625   6.254   7.927 -0.9255 -0.0642  0.2193
  620MOL0     C85466  10.737   6.185   7.852  0.6589  0.7923 -0.4170
  620MOL0    Cl85467  10.645   6.100   7.717  0.3426 -0.5328 -0.0871
  620MOL0     C85468   9.755   6.366   8.215 -1.0879 -0.1260  0.4887
  620MOL0     C85469   9.623   6.326   8.212  0.0329  0.5123  0.6890
  620MOL0     O85470   9.480   6.054   8.387 -0.6962  0.2623 -0.1800
  620MOL0     C85471   9.177   6.124   8.206  0.2036  0.5090  1.3978
  620MOL0     C85472   9.041   6.103   8.188  0.5563  0.1712 -0.6411
  620MOL0     N85473   8.901   5.705   7.764  0.9617  0.1609 -0.1620
  620MOL0     N85474   8.949   5.742   7.651  0.4137 -0.1077  0.5732
  620MOL0     C85475   8.610   6.761   7.195 -0.1775 -0.1514  0.8596
  620MOL0     C85476   8.526   6.833   7.117 -0.0622 -0.4549  0.3104
  620MOL0     C85477   8.369   7.061   6.715  0.5178 -0.3707  0.6730
  620MOL0     C85478   8.235   7.052   6.769  1.2353 -0.4589 -0.4579
  620MOL0     C85479   8.125   7.084   6.691  0.0484  0.9579 -0.6536
  620MOL0     C85480   8.140   7.140   6.566  0.4082 -0.0287 -0.1317
  620MOL0     O85481   8.031   7.187   6.490 -0.0476 -0.4106 -1.4793
  620MOL0     C85482   7.995   7.079   6.393  0.4015 -0.6359  0.3662
  620MOL0     C85483   7.848   7.077   6.353 -0.0855 -0.0793 -0.4272
  620MOL0     C85484   7.832   6.969   6.247 -0.1245  0.6831  0.3538
  620MOL0     C85485   7.845   6.820   6.292  0.1051 -0.5419  0.8635
  620MOL0     C85486   7.766   6.797   6.412  0.0213  0.2584 -0.4799
  620MOL0     C85487   7.693   6.774   6.505  0.3369 -0.3985 -0.8582
  620MOL0     C85488   8.275   7.154   6.516  0.7620  0.5548  0.9580
  620MOL0     C85489   8.383   7.115   6.585 -0.2346  0.1169 -0.7972
  620MOL0     C85490   8.509   7.096   6.495  0.7992  0.1533 -0.2096
  620MOL0     H85491   8.687   6.829   6.816 -2.6312 -2.4749 -1.1101
  620MOL0     H85492   8.862   6.733   6.967  1.7817  0.7362  2.7271
  620MOL0     H85493   8.746   6.484   7.115  1.0868 -0.4172  0.6517
  620MOL0     H85494   8.665   6.510   7.271  0.3788 -1.3595  0.1913
  620MOL0     H85495   8.836   6.461   7.395 -3.9838 -3.0536 -0.7843
  620MOL0     H85496   8.802   6.324   7.290 -2.5170  1.7446  0.4566
  620MOL0     H85497   8.994   6.361   7.143  2.2439  1.6141 -0.0645
  620MOL0     H85498   9.021   6.516   7.210  0.3596  0.4816  0.4391
  620MOL0     H85499   9.175   6.323   7.275 -0.7679  2.6165 -2.6030
  620MOL0     H85500   9.118   6.395   7.420 -0.1757 -2.0939  0.2326
  620MOL0     H85501   9.029   6.138   7.282 -0.8127 -1.8268  1.2019
  620MOL0     H85502   8.939   6.193   7.413 -0.2346 -2.5337 -3.3055
  620MOL0     H85503   9.235   6.145   7.447 -0.5596 -2.3967  0.1740
  620MOL0     H85504   9.132   6.192   7.576  0.0724 -0.2799  1.3568
  620MOL0     H85505   9.179   5.945   7.586 -1.2456 -2.7950  0.8395
  620MOL0     H85506   9.149   5.933   7.420  0.5965  1.2088 -0.6119
  620MOL0     H85507   8.897   6.044   7.552 -1.5119  0.7838 -2.7521
  620MOL0     H85508   8.936   5.899   7.445 -1.1126  1.9648 -0.8906
  620MOL0     H85509   8.907   6.024   7.801  2.1108  0.7957 -2.3083
  620MOL0     H85510   8.931   5.814   8.045 -0.3056 -0.8491  0.2669
  620MOL0     H85511   8.821   5.689   8.013 -0.9541  1.0104  1.9479
  620MOL0     H85512   8.648   5.860   7.927  0.8149  0.9438 -0.8346
  620MOL0     H85513   8.645   5.815   8.094 -0.9072 -4.1236 -2.2391
  620MOL0     H85514   8.779   6.063   7.978 -0.3121 -0.8665  0.2040
  620MOL0     H85515   8.621   6.060   8.034  1.4281  1.8660 -4.4527
  620MOL0     H85516   8.801   6.153   8.209 -1.0911  0.9815  2.0317
  620MOL0     H85517   8.665   6.054   8.269  2.3754  1.1446  3.0703
  620MOL0     H85518   9.026   5.861   8.430  0.5911 -0.5565  0.7115
  620MOL0     H85519   9.233   5.793   8.523  1.9448  2.8070  4.0943
  620MOL0     H85520   9.340   5.916   8.537 -0.6070  1.4884 -1.7230
  620MOL0     H85521   9.355   5.796   8.395  2.0612  1.8720 -1.0077
  620MOL0     H85522   9.657   6.002   8.147 -3.2559  0.8697 -0.4939
  620MOL0     H85523   9.885   6.070   8.121 -0.9197 -1.7458  0.7752
  620MOL0     H85524  10.047   6.300   7.989 -2.2731  2.2203 -1.4589
  620MOL0     H85525   9.959   6.443   8.022 -0.2178 -1.7086 -3.4658
  620MOL0     H85526  10.146   6.531   8.162 -1.3102  0.2964 -0.0099
  620MOL0     H85527  10.214   6.363   8.166  2.3362 -0.9892 -1.4956
  620MOL0     H85528  10.288   6.576   7.990 -1.7684  1.0644 -1.2060
  620MOL0     H85529  10.178   6.472   7.890  1.4057 -2.7580 -1.0959
  620MOL0     H85530  10.323   6.322   7.855 -0.7630 -2.5310  0.7255
  620MOL0     H85531  10.376   6.314   8.026  1.3919  0.8330 -0.5460
  620MOL0     H85532  10.463   6.546   7.844 -0.0014  0.7138  2.6677
  620MOL0     H85533  10.530   6.487   7.994  1.0854 -0.3829  0.1748
  620MOL0     H85534  10.641   6.414   7.775 -0.7939  1.0980 -0.5553
  620MOL0     H85535  10.504   6.308   7.755  1.2462 -2.1424  0.4071
  620MOL0     H85536  10.555   6.177   7.962 -1.5389 -0.0199 -0.8617
  620MOL0     H85537  10.661   6.313   8.011 -1.5227  0.9976 -0.2436
  620MOL0     H85538  10.797   6.121   7.917  1.4977  2.0625  0.0984
  620MOL0     H85539  10.805   6.258   7.807 -0.6236 -0.3220 -4.6086
  620MOL0     H85540   9.786   6.465   8.245 -1.5836 -0.5833  2.6845
  620MOL0     H85541   9.535   6.385   8.234 -0.8947 -1.5018  2.7738
  620MOL0     H85542   9.212   6.210   8.150 -0.0798 -1.5137 -2.1932
  620MOL0     H85543   8.986   6.173   8.126  2.6680  2.0737 -0.4855
  620MOL0     H85544   8.577   6.733   7.294 -0.2868 -2.2585  0.2684
  620MOL0     H85545   8.432   6.847   7.169  0.6906  3.4624  0.8990
  620MOL0     H85546   8.216   7.038   6.874 -0.2124 -0.6108 -0.7225
  620MOL0     H85547   8.027   7.069   6.737  1.1396  0.0333  1.5660
  620MOL0     H85548   8.056   7.095   6.304 -1.6789 -1.4944 -1.3023
  620MOL0     H85549   8.030   6.982   6.428  0.6900 -1.0075 -0.9034
  620MOL0     H85550   7.825   7.171   6.302  0.3526  0.0778 -0.3397
  620MOL0     H85551   7.797   7.064   6.449 -0.0253  3.1266  0.1611
  620MOL0     H85552   7.731   6.976   6.208 -1.0175 -2.1973  1.8511
  620MOL0     H85553   7.892   6.985   6.157 -2.5493 -0.6385 -1.6106
  620MOL0     H85554   7.946   6.789   6.319  0.6480  0.4037 -0.0346
  620MOL0     H85555   7.811   6.748   6.217  0.6237 -1.0532  1.1152
  620MOL0     H85556   7.648   6.764   6.602  3.4941  2.8400  1.2446
  620MOL0     H85557   8.270   7.196   6.416 -0.3325 -0.2918  0.6298
  620MOL0     H85558   8.493   7.135   6.394 -2.4236  2.1273  0.9034
  620MOL0     H85559   8.596   7.148   6.535  0.7737  0.6646 -0.8006
  620MOL0     H85560   8.546   6.993   6.493 -0.7648 -0.4402  0.0229
  621MOL0     O85561   0.458   2.680   5.386 -0.1514 -0.8671 -0.2431
  621MOL0     C85562   0.435   2.626   5.279  0.5871 -0.9253  0.1266
  621MOL0     O85563   0.332   2.643   5.195  0.0318 -0.4713 -0.5685
  621MOL0     C85564   0.252   2.751   5.206 -0.8482 -0.2994  0.3110
  621MOL0     C85565   0.117   2.725   5.211 -0.3838 -0.7488 -0.3213
  621MOL0     C85566   0.024   2.828   5.217  0.2146 -0.1798 -0.0192
  621MOL0     C85567   0.069   2.960   5.229 -0.2609 -0.0869  1.0530
  621MOL0     O85568  -0.017   3.072   5.234  0.7698  0.7746  1.2650
  621MOL0     C85569  -0.045   3.148   5.353 -1.2497  0.5896  0.3235
  621MOL0     C85570  -0.159   3.248   5.326 -0.4912  0.1964  0.8101
  621MOL0     C85571  -0.115   3.354   5.234 -0.2075 -0.6179  0.2608
  621MOL0     C85572  -0.218   3.463   5.205  0.3159 -1.3043 -0.3018
  621MOL0     C85573  -0.201   3.516   5.064  0.4799 -0.0488 -0.4775
  621MOL0     C85574  -0.278   3.642   5.042 -0.3828 -0.5177 -0.1246
  621MOL0     C85575  -0.249   3.699   4.901 -0.5092  0.2821  0.0478
  621MOL0     C85576  -0.333   3.818   4.867  0.3483  0.1202 -0.1393
  621MOL0     N85577  -0.476   3.789   4.852  0.2490 -1.6684 -0.6596
  621MOL0     C85578  -0.535   3.692   4.771 -0.3892 -1.0266 -0.1970
  621MOL0     C85579  -0.673   3.726   4.793 -1.1236  0.9400 -0.0739
  621MOL0     C85580  -0.797   3.659   4.725 -0.0701  0.3530  0.8833
  621MOL0     C85581  -0.845   3.526   4.793 -0.0335 -0.6138 -0.1566
  621MOL0     C85582  -0.975   3.479   4.724 -0.0691  0.1947 -0.0089
  621MOL0     C85583  -0.971   3.324   4.742 -0.2755 -0.8079 -0.8115
  621MOL0     O85584  -0.872   3.270   4.654  0.1894 -0.1980 -0.5796
  621MOL0     C85585  -0.857   3.131   4.659  0.1326  0.4723 -0.5738
  621MOL0     C85586  -0.731   3.071   4.656  0.3669  0.3575  0.4363
  621MOL0     C85587  -0.712   2.933   4.669  0.4400 -0.7478 -0.3447
  621MOL0     C85588  -0.562   2.875   4.663 -0.1576 -0.0111 -0.1062
  621MOL0     C85589  -0.831   2.856   4.685 -0.3310  0.3270  0.3872
  621MOL0     C85590  -0.825   2.711   4.707 -0.2060 -0.0924 -0.4375
  621MOL0     O85591  -0.874   2.629   4.611  0.1874  0.5857  0.1069
  621MOL0     C85592  -0.895   2.496   4.640  0.7616  1.1034 -0.1634
  621MOL0     C85593  -0.988   2.447   4.739 -0.4530  0.6116  0.0667
  621MOL0     C85594  -1.011   2.316   4.764  0.2015  0.0914 -0.0939
  621MOL0     C85595  -0.936   2.221   4.685  0.5177  0.3695  0.6487
  621MOL0     O85596  -0.934   2.088   4.716 -0.0299 -0.1940  0.0461
  621MOL0     C85597  -0.914   2.041   4.860 -0.9649 -0.6915 -0.3576
  621MOL0     C85598  -1.035   1.958   4.901  0.7540  0.2102 -0.2645
  621MOL0     C85599  -1.017   1.900   5.049  0.0457  0.1449 -0.1278
  621MOL0     C85600  -0.979   2.005   5.146  0.8986  0.0891 -0.2158
  621MOL0     C85601  -0.986   1.952   5.287 -0.2065  0.7423 -0.4260
  621MOL0     C85602  -0.884   1.838   5.311  0.4520 -0.2185  0.6781
  621MOL0     C85603  -0.840   1.819   5.454  1.1522  0.4510 -0.1698
  621MOL0     C85604  -0.963   1.777   5.544  0.0203 -0.2527 -0.3113
  621MOL0    Cl85605  -0.963   1.602   5.564 -0.4889 -0.1525  0.1445
  621MOL0     C85606  -0.864   2.268   4.573 -0.0393  0.2282  0.4063
  621MOL0     C85607  -0.843   2.412   4.551  0.3657  0.7865  1.0252
  621MOL0     O85608  -0.760   2.674   4.805  0.8547  0.0211  1.1169
  621MOL0     C85609  -0.961   2.908   4.676 -0.0530  0.0455 -0.1485
  621MOL0     C85610  -0.972   3.049   4.675 -0.0086 -0.0961 -0.2609
  621MOL0     N85611  -0.682   3.826   4.890 -0.4748 -0.4047  0.2975
  621MOL0     N85612  -0.565   3.858   4.930 -0.0958 -1.0667 -0.3879
  621MOL0     C85613   0.211   2.982   5.218 -0.1628 -0.1651  0.1909
  621MOL0     C85614   0.303   2.878   5.205 -0.6124 -0.8547  0.1471
  621MOL0     C85615   0.508   2.501   5.240 -0.1047 -0.8675  0.6637
  621MOL0     C85616   0.441   2.406   5.161  1.0556  0.2362  0.7398
  621MOL0     C85617   0.506   2.291   5.127 -1.1344  0.7316 -1.0363
  621MOL0     C85618   0.639   2.272   5.152 -0.1801  0.6535 -0.0647
  621MOL0     O85619   0.691   2.151   5.102 -0.2418 -0.7454 -0.3824
  621MOL0     C85620   0.837   2.124   5.092 -0.4582 -0.1164  0.3781
  621MOL0     C85621   0.882   2.098   4.948  0.7649 -0.0605 -0.3438
  621MOL0     C85622   0.864   2.231   4.866 -2.0193 -0.9141 -0.8781
  621MOL0     C85623   0.960   2.346   4.910  0.0738 -0.1530 -0.8316
  621MOL0     C85624   1.092   2.297   4.930  0.4602  0.1610  0.1014
  621MOL0     C85625   1.209   2.269   4.918 -0.1487  0.7120 -0.6829
  621MOL0     C85626   0.708   2.363   5.223 -0.6320  0.0611 -0.6872
  621MOL0     C85627   0.653   2.482   5.268  0.0095 -0.6573  0.0237
  621MOL0     C85628   0.739   2.596   5.322 -0.0301  0.2092 -0.1989
  621MOL0     H85629   0.090   2.620   5.199  1.3890 -1.2504 -0.2465
  621MOL0     H85630  -0.084   2.812   5.211  0.0446  0.5818  0.7700
  621MOL0     H85631   0.046   3.199   5.386  0.3528 -1.7117 -0.2826
  621MOL0     H85632  -0.071   3.072   5.428  0.8602 -1.6722 -1.0884
  621MOL0     H85633  -0.251   3.210   5.281 -1.0766  3.3885 -0.9389
  621MOL0     H85634  -0.185   3.279   5.428  0.6271 -1.4737  1.6599
  621MOL0     H85635  -0.036   3.415   5.279 -1.3223  0.5646  0.6868
  621MOL0     H85636  -0.092   3.305   5.139 -2.2069 -2.1463  0.4899
  621MOL0     H85637  -0.317   3.421   5.225  0.2589 -1.2338 -0.4326
  621MOL0     H85638  -0.203   3.533   5.288  1.1725 -1.2275 -0.5141
  621MOL0     H85639  -0.224   3.438   4.992  2.2119 -1.5656  0.5154
  621MOL0     H85640  -0.093   3.536   5.062  0.2760  1.5684  1.1824
  621MOL0     H85641  -0.384   3.631   5.068 -0.5616  0.5197 -0.3702
  621MOL0     H85642  -0.242   3.710   5.119 -4.1134  0.7731  0.6942
  621MOL0     H85643  -0.251   3.626   4.819  1.4774  0.3057 -0.0730
  621MOL0     H85644  -0.142   3.723   4.901  0.0560 -1.9810 -0.2950
  621MOL0     H85645  -0.309   3.898   4.938 -2.4155  0.5828  0.4041
  621MOL0     H85646  -0.299   3.857   4.771  0.5857  1.9493  0.6368
  621MOL0     H85647  -0.493   3.619   4.703 -0.5474 -1.6051  0.3156
  621MOL0     H85648  -0.775   3.644   4.619 -2.5650  1.6407  0.1028
  621MOL0     H85649  -0.877   3.733   4.729 -0.2229  0.3222 -0.9080
  621MOL0     H85650  -0.759   3.460   4.778  3.0559  2.2710  3.1276
  621MOL0     H85651  -0.847   3.540   4.901  0.1535  3.0322 -0.5302
  621MOL0     H85652  -1.057   3.530   4.774 -0.9508 -0.1368 -1.0780
  621MOL0     H85653  -0.996   3.507   4.620 -0.7701 -1.8138 -0.4544
  621MOL0     H85654  -0.947   3.306   4.847  2.5651 -1.3196 -1.4599
  621MOL0     H85655  -1.072   3.285   4.729 -0.9981  0.0998  1.6161
  621MOL0     H85656  -0.643   3.133   4.637 -1.4639  1.9063 -4.3167
  621MOL0     H85657  -0.540   2.836   4.564 -0.0505 -1.1376  0.3423
  621MOL0     H85658  -0.552   2.787   4.727 -3.8296 -0.4169  0.1209
  621MOL0     H85659  -0.500   2.959   4.696  3.0705 -3.0097  2.2714
  621MOL0     H85660  -1.038   2.517   4.805  1.2868 -0.7030  2.9599
  621MOL0     H85661  -1.066   2.287   4.853  1.9485  2.8115  2.0589
  621MOL0     H85662  -0.828   1.973   4.862 -0.6374 -0.2563  0.6063
  621MOL0     H85663  -0.890   2.123   4.928  1.1835 -1.5235 -0.0128
  621MOL0     H85664  -1.134   2.004   4.893 -1.3082 -1.6558  6.9066
  621MOL0     H85665  -1.035   1.871   4.835 -1.0628 -0.2387  0.2465
  621MOL0     H85666  -0.938   1.824   5.052 -0.4435 -0.4687 -1.9935
  621MOL0     H85667  -1.114   1.854   5.071  0.7812 -2.2716 -1.6501
  621MOL0     H85668  -1.052   2.086   5.137  0.1085 -0.2598  2.3769
  621MOL0     H85669  -0.879   2.045   5.128  1.6586 -2.1013 -1.2446
  621MOL0     H85670  -0.958   2.034   5.354  0.1330 -0.9456  1.5750
  621MOL0     H85671  -1.087   1.916   5.308  0.0384  1.1323  1.5743
  621MOL0     H85672  -0.795   1.845   5.247 -1.1816  0.8722 -1.6246
  621MOL0     H85673  -0.929   1.746   5.274  1.8855 -0.4435 -0.6497
  621MOL0     H85674  -0.797   1.910   5.497  1.9857 -1.1079  2.5834
  621MOL0     H85675  -0.764   1.740   5.459 -0.1683 -0.9803 -1.4313
  621MOL0     H85676  -1.059   1.803   5.497 -0.8202 -3.7480 -0.8574
  621MOL0     H85677  -0.952   1.823   5.642  3.0539  1.9454 -1.5467
  621MOL0     H85678  -0.842   2.186   4.505  0.3210  3.3375 -3.5728
  621MOL0     H85679  -0.794   2.443   4.459 -3.6770  1.0022 -1.2947
  621MOL0     H85680  -1.044   2.838   4.683  1.3554 -1.5769  1.1016
  621MOL0     H85681  -1.066   3.103   4.671  0.4531  0.8143  0.7091
  621MOL0     H85682   0.247   3.083   5.207 -0.4245 -0.1870 -0.9228
  621MOL0     H85683   0.409   2.899   5.218 -1.2867  1.7340  2.4541
  621MOL0     H85684   0.334   2.409   5.143  1.4051  1.1204 -1.3761
  621MOL0     H85685   0.471   2.201   5.078  3.6928 -1.2081 -1.5436
  621MOL0     H85686   0.880   2.211   5.142 -1.7858 -0.2067  1.7472
  621MOL0     H85687   0.861   2.030   5.142  4.3633  1.0963  0.8888
  621MOL0     H85688   0.835   2.021   4.885  1.2627  1.1371 -2.2801
  621MOL0     H85689   0.988   2.073   4.949  1.5913  2.9887  2.2145
  621MOL0     H85690   0.887   2.199   4.764 -3.5562 -1.4170 -1.0971
  621MOL0     H85691   0.758   2.257   4.869 -1.7611  0.2921 -1.7312
  621MOL0     H85692   0.930   2.400   5.001  1.5941 -0.8659  0.1377
  621MOL0     H85693   0.969   2.416   4.827 -0.0042  0.7528 -0.0965
  621MOL0     H85694   1.313   2.250   4.900  0.5975  0.5057  3.0890
  621MOL0     H85695   0.815   2.354   5.232 -0.6477 -3.1180 -2.2845
  621MOL0     H85696   0.738   2.597   5.432 -0.7459  0.6778 -0.2086
  621MOL0     H85697   0.838   2.585   5.277 -1.2231  0.1102 -3.0011
  621MOL0     H85698   0.706   2.696   5.292 -0.2969 -0.0630 -0.8291
  622MOL0     O85699   1.999   2.278   2.121 -0.5047 -0.9951  0.4068
  622MOL0     C85700   2.089   2.198   2.107 -0.8830  0.2037  0.2223
  622MOL0     O85701   2.090   2.075   2.166  0.1047  0.6751 -0.9283
  622MOL0     C85702   1.987   2.052   2.253 -0.4414  0.5398  0.3864
  622MOL0     C85703   1.852   2.035   2.206 -0.7253  0.3984  0.5103
  622MOL0     C85704   1.747   2.008   2.297 -0.3890 -0.5986 -0.2756
  622MOL0     C85705   1.775   1.977   2.434  0.5037  0.4997 -0.4801
  622MOL0     O85706   1.671   1.969   2.523 -0.3748 -0.2685  0.1658
  622MOL0     C85707   1.621   2.094   2.570 -0.7652 -0.0965 -0.5510
  622MOL0     C85708   1.498   2.060   2.658  0.4808 -0.2034  0.6877
  622MOL0     C85709   1.487   2.145   2.787  0.0286  0.2861 -0.1967
  622MOL0     C85710   1.332   2.151   2.827 -0.0996 -0.7345 -1.2157
  622MOL0     C85711   1.309   2.208   2.970  0.1222  0.5356 -0.1054
  622MOL0     C85712   1.335   2.366   2.985  1.0349  0.4715 -0.0701
  622MOL0     C85713   1.308   2.406   3.130  0.0343 -0.0662 -0.1195
  622MOL0     C85714   1.370   2.543   3.136  0.7457  0.0954 -0.1353
  622MOL0     N85715   1.512   2.543   3.133 -0.0092 -0.8902  0.8289
  622MOL0     C85716   1.600   2.472   3.212  0.1389  0.4426 -0.2423
  622MOL0     C85717   1.722   2.496   3.154 -0.0908  0.2081 -0.3169
  622MOL0     C85718   1.845   2.411   3.172  0.1587  1.1922  0.9750
  622MOL0     C85719   1.862   2.293   3.071 -0.6200  0.4810  0.2633
  622MOL0     C85720   1.781   2.170   3.106 -0.2957 -0.7892 -0.5397
  622MOL0     C85721   1.848   2.046   3.044 -0.8877 -0.2598  1.0716
  622MOL0     O85722   1.746   1.947   3.016 -0.0547  0.3314  0.2702
  622MOL0     C85723   1.748   1.853   2.914  0.2612  0.3833 -0.8241
  622MOL0     C85724   1.624   1.797   2.896 -0.0409  0.2391 -0.6648
  622MOL0     C85725   1.592   1.714   2.796 -0.6402 -0.0628  0.2617
  622MOL0     C85726   1.443   1.658   2.803 -0.1768  0.1192 -0.2614
  622MOL0     C85727   1.692   1.688   2.700 -0.1071 -0.2330 -1.0120
  622MOL0     C85728   1.670   1.594   2.588 -0.3573 -0.3742 -1.0676
  622MOL0     O85729   1.778   1.532   2.525 -0.0050 -0.5483 -0.0711
  622MOL0     C85730   1.768   1.492   2.389 -0.2230  0.9891  0.9477
  622MOL0     C85731   1.696   1.567   2.293  0.5586  0.3351  0.0918
  622MOL0     C85732   1.706   1.529   2.154  1.1410  1.3944  0.5918
  622MOL0     C85733   1.771   1.411   2.113 -0.7343 -0.4042 -0.9872
  622MOL0     O85734   1.777   1.381   1.979 -0.1298  0.8545  0.2658
  622MOL0     C85735   1.848   1.264   1.928  0.3780  0.8463 -0.7797
  622MOL0     C85736   1.894   1.289   1.784  0.0688 -0.1677 -0.7737
  622MOL0     C85737   1.785   1.337   1.691  0.8161  1.0872  0.5496
  622MOL0     C85738   1.839   1.358   1.553  0.2443 -0.6529  0.1675
  622MOL0     C85739   1.743   1.427   1.460  0.9855 -0.8764 -0.0493
  622MOL0     C85740   1.705   1.573   1.512 -0.5893  0.2422 -0.5796
  622MOL0     C85741   1.827   1.667   1.508  0.3748  0.7008 -0.3515
  622MOL0     C85742   1.788   1.807   1.552  0.1780  0.2964 -0.6559
  622MOL0    Cl85743   1.649   1.888   1.476  0.7518  0.5382 -0.4304
  622MOL0     C85744   1.825   1.326   2.203  0.7986  1.2875 -1.6300
  622MOL0     C85745   1.832   1.374   2.338 -0.7124  0.6898  0.5713
  622MOL0     O85746   1.550   1.580   2.557  0.0677  0.7493 -0.7870
  622MOL0     C85747   1.821   1.732   2.727  0.0344  0.6056 -0.6550
  622MOL0     C85748   1.851   1.821   2.832 -0.5306  0.0726  0.6161
  622MOL0     N85749   1.709   2.589   3.059 -0.7508 -0.5574  1.0670
  622MOL0     N85750   1.588   2.625   3.048  1.0650 -1.1382  0.2611
  622MOL0     C85751   1.910   1.981   2.478  0.6119 -0.0126 -0.3840
  622MOL0     C85752   2.014   2.010   2.388  0.0529  0.3892 -0.4101
  622MOL0     C85753   2.212   2.240   2.039  1.0891 -0.1587 -0.6589
  622MOL0     C85754   2.247   2.367   2.075 -0.0094 -0.2210 -0.2673
  622MOL0     C85755   2.371   2.418   2.033  0.2944 -0.5735  0.1670
  622MOL0     C85756   2.453   2.342   1.949 -0.1530 -0.8021 -0.2100
  622MOL0     O85757   2.576   2.390   1.916  0.2168  0.0681 -0.7493
  622MOL0     C85758   2.687   2.361   2.004  0.4249  0.6230 -0.5428
  622MOL0     C85759   2.779   2.270   1.921  0.3752  0.1177 -0.4107
  622MOL0     C85760   2.902   2.221   1.998 -0.0602  0.0456 -0.3886
  622MOL0     C85761   2.966   2.108   1.914 -0.0671 -0.0770 -0.4252
  622MOL0     C85762   3.097   2.082   1.967 -0.4127 -0.7651  1.3633
  622MOL0     C85763   3.214   2.079   2.015  0.0909 -0.2777 -0.4171
  622MOL0     C85764   2.413   2.214   1.905  0.5337 -0.3736 -0.0927
  622MOL0     C85765   2.288   2.163   1.953 -0.6443 -0.9083 -0.4837
  622MOL0     C85766   2.260   2.025   1.898 -0.3200 -0.9731  0.7466
  622MOL0     H85767   1.827   2.057   2.103 -2.1569  0.6539  0.8896
  622MOL0     H85768   1.650   2.021   2.250 -0.0767 -1.4829 -1.1890
  622MOL0     H85769   1.586   2.160   2.491 -0.5897  1.9269  0.9772
  622MOL0     H85770   1.691   2.157   2.625 -2.9840  2.0993 -0.0682
  622MOL0     H85771   1.405   2.071   2.602  1.4844  1.3892 -0.7192
  622MOL0     H85772   1.507   1.954   2.684 -1.0994 -0.4895  0.1742
  622MOL0     H85773   1.555   2.104   2.862 -2.1132  0.4369  1.9598
  622MOL0     H85774   1.512   2.248   2.758 -1.3602  0.9715  0.8877
  622MOL0     H85775   1.279   2.191   2.739  1.9112 -0.2864 -2.2843
  622MOL0     H85776   1.297   2.049   2.839  0.3460 -0.9643 -1.8102
  622MOL0     H85777   1.376   2.154   3.037 -0.8278  0.4137  0.7713
  622MOL0     H85778   1.211   2.173   3.003 -0.3598  1.3773 -0.5946
  622MOL0     H85779   1.441   2.379   2.964  0.9973  1.5726  0.3568
  622MOL0     H85780   1.268   2.416   2.914 -1.9117 -2.0030  0.7396
  622MOL0     H85781   1.347   2.332   3.201 -0.4850 -3.4853 -3.1244
  622MOL0     H85782   1.202   2.413   3.153 -0.1737 -1.8221 -0.3704
  622MOL0     H85783   1.322   2.602   3.057  0.2161  0.7989  0.7009
  622MOL0     H85784   1.343   2.608   3.219  0.9605  0.0964 -0.0676
  622MOL0     H85785   1.567   2.400   3.287 -0.4872 -0.0085 -0.9308
  622MOL0     H85786   1.841   2.364   3.271 -1.9737 -1.7993 -0.3619
  622MOL0     H85787   1.926   2.485   3.173  1.8616 -0.5853  1.4869
  622MOL0     H85788   1.839   2.333   2.972 -4.3133  2.3804  1.6538
  622MOL0     H85789   1.965   2.258   3.062 -1.5842 -3.5610  2.2662
  622MOL0     H85790   1.782   2.153   3.214  2.4117  0.3327 -0.3035
  622MOL0     H85791   1.679   2.176   3.066 -0.0230 -0.4910 -1.2185
  622MOL0     H85792   1.907   2.070   2.956  1.8073 -1.6354  2.4132
  622MOL0     H85793   1.926   2.000   3.105 -0.6290 -0.9853  0.2088
  622MOL0     H85794   1.542   1.815   2.964  1.2817 -1.1829  1.4225
  622MOL0     H85795   1.380   1.694   2.721  0.1667 -2.3863 -1.7520
  622MOL0     H85796   1.403   1.691   2.899  2.2127 -0.5658  1.0255
  622MOL0     H85797   1.432   1.550   2.786 -0.4024  0.3245 -1.5817
  622MOL0     H85798   1.637   1.652   2.325 -1.3537 -0.4772 -1.1054
  622MOL0     H85799   1.653   1.589   2.079  0.8834 -1.2555 -1.5090
  622MOL0     H85800   1.931   1.230   1.990 -2.9301 -1.2690  3.0596
  622MOL0     H85801   1.785   1.174   1.926  2.8447 -1.0109  0.3403
  622MOL0     H85802   1.979   1.358   1.780 -1.9567  2.4539 -1.5190
  622MOL0     H85803   1.930   1.194   1.743 -2.2067 -0.6909 -1.7139
  622MOL0     H85804   1.737   1.418   1.746 -1.6765  0.2851 -0.2996
  622MOL0     H85805   1.707   1.260   1.687  1.4479  0.4581 -2.8167
  622MOL0     H85806   1.859   1.258   1.515  1.5047  0.4302 -2.2273
  622MOL0     H85807   1.932   1.416   1.556  2.1656 -3.2208 -3.2929
  622MOL0     H85808   1.768   1.438   1.354 -0.7429 -0.9873 -0.5002
  622MOL0     H85809   1.653   1.364   1.455 -0.0799  0.6456 -1.0557
  622MOL0     H85810   1.676   1.567   1.617 -1.9094  0.3847 -0.9203
  622MOL0     H85811   1.616   1.627   1.479  3.1392  7.0267 -1.1916
  622MOL0     H85812   1.870   1.675   1.408 -1.9810 -0.3465 -1.5389
  622MOL0     H85813   1.906   1.636   1.577  0.1135  2.4670  0.8159
  622MOL0     H85814   1.876   1.868   1.527  3.3564 -2.7824  1.9221
  622MOL0     H85815   1.778   1.812   1.661 -0.8005  0.8172 -0.7576
  622MOL0     H85816   1.868   1.228   2.183  0.2491  1.1445 -2.1363
  622MOL0     H85817   1.878   1.309   2.413 -1.7082  0.1731  0.7447
  622MOL0     H85818   1.906   1.708   2.664 -1.4376  1.3555 -3.0748
  622MOL0     H85819   1.947   1.867   2.850 -0.5543  1.5433 -2.3803
  622MOL0     H85820   1.934   1.962   2.582 -0.3942  0.0520 -0.1214
  622MOL0     H85821   2.115   2.006   2.427  0.3324  0.9657 -1.0501
  622MOL0     H85822   2.188   2.438   2.131 -0.3770 -1.2977  0.7381
  622MOL0     H85823   2.402   2.515   2.069  1.3497 -0.4218 -1.0819
  622MOL0     H85824   2.735   2.449   2.048 -0.9941  0.7026  0.9783
  622MOL0     H85825   2.652   2.307   2.093 -1.3510  3.3021  0.5403
  622MOL0     H85826   2.803   2.320   1.826  0.6196  3.9344  1.4966
  622MOL0     H85827   2.725   2.179   1.895 -1.3192  1.1526 -0.6727
  622MOL0     H85828   2.982   2.293   2.018 -0.4578 -0.0204  1.5956
  622MOL0     H85829   2.874   2.188   2.098  1.1747 -0.0318 -0.0511
  622MOL0     H85830   2.980   2.131   1.808 -3.0259  0.0632 -0.8915
  622MOL0     H85831   2.918   2.011   1.930  3.6247 -1.9350  0.3741
  622MOL0     H85832   3.312   2.076   2.057  0.4344  0.3533 -1.1446
  622MOL0     H85833   2.489   2.167   1.843  1.7235  2.1494 -0.6849
  622MOL0     H85834   2.344   1.979   1.845  0.1509 -0.0668  0.6980
  622MOL0     H85835   2.244   1.963   1.987 -1.8386 -1.2170  0.3201
  622MOL0     H85836   2.168   2.029   1.839  0.3356 -1.2103 -0.3163
  623MOL0     O85837   7.498   7.873   7.205 -0.0558  0.4061  0.4800
  623MOL0     C85838   7.558   7.859   7.313  0.0270 -1.4886  0.3588
  623MOL0     O85839   7.525   7.921   7.430  0.6824 -0.3044 -0.3552
  623MOL0     C85840   7.424   8.012   7.425 -0.2998 -0.4359  0.4105
  623MOL0     C85841   7.294   7.962   7.454 -0.3445 -0.1981 -0.0907
  623MOL0     C85842   7.188   8.054   7.445 -0.3682  0.1865  1.2128
  623MOL0     C85843   7.205   8.181   7.411 -0.3163  0.8760 -0.1280
  623MOL0     O85844   7.113   8.273   7.381 -0.3201  0.2280  0.3261
  623MOL0     C85845   6.972   8.256   7.413 -0.1376  0.5914 -0.4849
  623MOL0     C85846   6.915   8.395   7.403  0.3407 -1.2729 -0.0135
  623MOL0     C85847   6.772   8.417   7.455 -0.0050  0.9077 -0.6983
  623MOL0     C85848   6.672   8.498   7.371  0.8905  0.3386 -0.8666
  623MOL0     C85849   6.534   8.509   7.438  0.9904 -0.1481  0.4327
  623MOL0     C85850   6.445   8.393   7.386 -0.5972  0.0497 -0.5174
  623MOL0     C85851   6.302   8.426   7.440 -0.3565 -1.0955  1.2291
  623MOL0     C85852   6.215   8.300   7.411 -0.2230 -0.0242 -0.1843
  623MOL0     N85853   6.184   8.295   7.268 -0.2692  1.6849 -0.4357
  623MOL0     C85854   6.182   8.403   7.186 -1.0722  0.3714  0.9425
  623MOL0     C85855   6.150   8.350   7.058  0.1781  0.2308 -0.7977
  623MOL0     C85856   6.143   8.435   6.938  0.7044  0.5173 -0.0164
  623MOL0     C85857   6.031   8.388   6.840  0.1984  0.1236  0.2976
  623MOL0     C85858   6.010   8.489   6.722 -1.0444 -0.5595  0.1486
  623MOL0     C85859   5.932   8.617   6.755  0.4026 -0.9753  0.4076
  623MOL0     O85860   5.851   8.667   6.646  0.3194  0.6732  0.5621
  623MOL0     C85861   5.901   8.748   6.546 -0.3950  0.6133 -0.4193
  623MOL0     C85862   5.808   8.829   6.498 -0.6928 -0.8857 -0.4098
  623MOL0     C85863   5.842   8.936   6.409  1.6702 -0.0291 -0.0477
  623MOL0     C85864   5.724   9.021   6.375  0.3389 -0.8006  0.0427
  623MOL0     C85865   5.972   8.954   6.373 -0.4916 -0.7764  0.3778
  623MOL0     C85866   6.023   9.049   6.263 -0.9793  0.2444  0.0663
  623MOL0     O85867   6.145   9.104   6.298  0.4496 -0.2539  0.4235
  623MOL0     C85868   6.217   9.178   6.213 -0.5568 -0.2247  0.6806
  623MOL0     C85869   6.304   9.113   6.129  0.9241  0.3394  0.5897
  623MOL0     C85870   6.377   9.185   6.042 -0.3713  0.2996  0.2602
  623MOL0     C85871   6.351   9.316   6.005 -0.2295 -0.9868 -0.0545
  623MOL0     O85872   6.413   9.387   5.906  0.4872 -0.3556 -1.4602
  623MOL0     C85873   6.475   9.329   5.794  0.3130  0.3202  0.2952
  623MOL0     C85874   6.380   9.315   5.677 -0.6573  0.2767  1.2112
  623MOL0     C85875   6.316   9.445   5.625 -0.3775  0.3574  1.3434
  623MOL0     C85876   6.231   9.416   5.495 -0.5878 -0.4901  0.8132
  623MOL0     C85877   6.201   9.539   5.410 -0.3402 -0.2372  0.6331
  623MOL0     C85878   6.328   9.589   5.337 -0.3045 -0.1868 -0.6673
  623MOL0     C85879   6.302   9.604   5.191  0.6737  0.2320  1.2053
  623MOL0     C85880   6.425   9.624   5.114  0.2398  0.5197  0.1552
  623MOL0    Cl85881   6.518   9.469   5.102  0.0665 -0.1227 -0.1317
  623MOL0     C85882   6.260   9.387   6.091 -0.6326  0.4530  0.1331
  623MOL0     C85883   6.187   9.316   6.193  0.0879  0.7297  0.4657
  623MOL0     O85884   5.960   9.065   6.160  0.2322  0.1231  0.5293
  623MOL0     C85885   6.069   8.870   6.425 -0.1966  1.1968 -0.0426
  623MOL0     C85886   6.037   8.758   6.510  0.1938 -0.0106 -1.1157
  623MOL0     N85887   6.116   8.220   7.080  0.6059 -0.5757 -0.1962
  623MOL0     N85888   6.132   8.185   7.201  0.4745 -0.4411 -0.1587
  623MOL0     C85889   7.339   8.232   7.386 -0.1475 -0.3563 -0.0299
  623MOL0     C85890   7.448   8.145   7.392 -0.2529 -0.1960  0.1564
  623MOL0     C85891   7.672   7.774   7.320  0.9074 -0.1536  0.0469
  623MOL0     C85892   7.770   7.808   7.412 -0.6419 -0.1185 -0.6669
  623MOL0     C85893   7.910   7.767   7.411  0.1653  0.0793 -0.4196
  623MOL0     C85894   7.933   7.661   7.330  0.2955  0.7439 -0.3722
  623MOL0     O85895   8.065   7.613   7.326  0.8754 -0.5251 -0.2339
  623MOL0     C85896   8.081   7.480   7.282 -0.6564 -0.1152 -0.2078
  623MOL0     C85897   8.213   7.432   7.341 -0.1142  0.2046  0.0332
  623MOL0     C85898   8.183   7.392   7.486 -0.0139  0.2877 -0.5724
  623MOL0     C85899   8.319   7.333   7.546  0.5943  0.1682  0.7697
  623MOL0     C85900   8.352   7.196   7.504  0.1119  0.2795 -1.8760
  623MOL0     C85901   8.377   7.080   7.501  0.0011 -0.0978  0.1679
  623MOL0     C85902   7.828   7.615   7.249 -0.8122  0.2460 -0.7297
  623MOL0     C85903   7.708   7.678   7.228  0.5892  0.5790 -0.3871
  623MOL0     C85904   7.626   7.625   7.115 -0.6727  0.2788 -0.6020
  623MOL0     H85905   7.274   7.859   7.480  1.2281 -0.6730 -0.6783
  623MOL0     H85906   7.089   8.024   7.477 -0.9003  0.4772 -0.1126
  623MOL0     H85907   6.963   8.219   7.515 -0.4104 -1.5897 -1.2367
  623MOL0     H85908   6.915   8.192   7.345  1.9612  0.4378 -2.2046
  623MOL0     H85909   6.978   8.478   7.438 -2.0914  0.5320  0.3296
  623MOL0     H85910   6.909   8.413   7.295 -0.3007  1.0609  0.3611
  623MOL0     H85911   6.721   8.320   7.448  2.1754 -0.3091 -0.6356
  623MOL0     H85912   6.790   8.450   7.558  0.5956  2.4286 -1.2557
  623MOL0     H85913   6.714   8.598   7.356  1.8915  0.0194 -0.2636
  623MOL0     H85914   6.659   8.446   7.276  0.4621 -0.9501 -0.1382
  623MOL0     H85915   6.484   8.600   7.405  2.3741 -0.0932 -1.6905
  623MOL0     H85916   6.554   8.500   7.545  2.5554 -0.3517  0.1450
  623MOL0     H85917   6.443   8.377   7.278 -0.6272 -4.8830 -0.0095
  623MOL0     H85918   6.485   8.302   7.432  1.9742  2.3333  2.2261
  623MOL0     H85919   6.270   8.524   7.404  1.9546 -0.6560  0.1862
  623MOL0     H85920   6.311   8.444   7.548  0.2513  1.1914  0.8438
  623MOL0     H85921   6.282   8.219   7.440 -0.0792  0.6149  1.3604
  623MOL0     H85922   6.124   8.294   7.472  1.5340  1.9593  2.9156
  623MOL0     H85923   6.218   8.503   7.206 -0.5648  0.5009 -0.4875
  623MOL0     H85924   6.221   8.418   6.863 -3.2717 -1.5603 -4.1588
  623MOL0     H85925   6.126   8.539   6.967  0.8543 -0.1457  2.8249
  623MOL0     H85926   6.045   8.288   6.796  3.2251 -0.5135  2.3983
  623MOL0     H85927   5.937   8.368   6.893 -1.2128  3.5703 -0.6560
  623MOL0     H85928   6.113   8.521   6.701 -1.1327  2.3977  3.2420
  623MOL0     H85929   5.952   8.436   6.647 -3.4192  1.4867  0.4215
  623MOL0     H85930   5.868   8.602   6.843  0.0825 -2.7235 -0.0966
  623MOL0     H85931   5.998   8.700   6.782 -0.7017 -0.2508  0.9505
  623MOL0     H85932   5.711   8.796   6.535  0.0527 -1.6999  0.9132
  623MOL0     H85933   5.757   9.109   6.319  3.2784 -2.4483 -1.0756
  623MOL0     H85934   5.657   9.033   6.460  1.1693  1.7162  0.4279
  623MOL0     H85935   5.668   8.970   6.297  1.0477  0.2699 -1.2141
  623MOL0     H85936   6.310   9.004   6.129 -1.7364  0.0681 -2.5469
  623MOL0     H85937   6.450   9.121   5.995 -1.1431 -3.1578  3.3536
  623MOL0     H85938   6.549   9.404   5.763 -1.9247  2.6817  0.3357
  623MOL0     H85939   6.534   9.240   5.819 -0.5613 -0.8732 -1.7094
  623MOL0     H85940   6.446   9.270   5.602  1.6561  3.1330  1.3465
  623MOL0     H85941   6.299   9.243   5.689  0.4714 -0.9559  1.6118
  623MOL0     H85942   6.403   9.507   5.604  0.6456  0.2993  4.8576
  623MOL0     H85943   6.252   9.493   5.700 -0.7925  1.2345  0.4471
  623MOL0     H85944   6.139   9.379   5.542  0.6947 -2.2910  2.0738
  623MOL0     H85945   6.276   9.335   5.436 -2.6827  0.2357 -2.0229
  623MOL0     H85946   6.127   9.497   5.340  0.7825 -3.2846  1.1296
  623MOL0     H85947   6.156   9.614   5.476 -1.4480 -2.3553  2.4076
  623MOL0     H85948   6.412   9.522   5.359  0.0353  0.0857 -1.1124
  623MOL0     H85949   6.361   9.689   5.367  1.2003 -0.1268 -2.3533
  623MOL0     H85950   6.241   9.693   5.170 -0.4462 -0.1001  2.8821
  623MOL0     H85951   6.246   9.519   5.151  0.9585  1.3826 -1.8557
  623MOL0     H85952   6.491   9.705   5.148  2.5696 -1.1664 -0.1091
  623MOL0     H85953   6.390   9.662   5.018 -0.7685  1.3339  0.8208
  623MOL0     H85954   6.236   9.492   6.077  1.0248  0.6021 -2.2236
  623MOL0     H85955   6.108   9.378   6.236  1.4280  0.9255  2.8293
  623MOL0     H85956   6.175   8.877   6.405  0.7914 -2.5966  2.8047
  623MOL0     H85957   6.110   8.697   6.563  1.3444  1.2539 -1.2100
  623MOL0     H85958   7.332   8.335   7.354 -1.8135 -0.4512 -0.0838
  623MOL0     H85959   7.545   8.183   7.363 -0.2249 -1.2157 -1.1884
  623MOL0     H85960   7.746   7.895   7.472 -4.1538  0.7024 -2.9297
  623MOL0     H85961   7.984   7.812   7.476  1.4816 -2.2473 -0.1787
  623MOL0     H85962   8.000   7.413   7.311  0.5827 -2.8091 -2.4388
  623MOL0     H85963   8.086   7.465   7.173  1.5957 -1.8763  0.0584
  623MOL0     H85964   8.297   7.501   7.335 -0.5100  0.7147  0.2390
  623MOL0     H85965   8.245   7.349   7.277 -1.6962 -0.0154 -0.5287
  623MOL0     H85966   8.160   7.480   7.546  3.7886  0.8393  0.3034
  623MOL0     H85967   8.098   7.326   7.504 -0.6428  1.7635  2.4564
  623MOL0     H85968   8.309   7.331   7.655 -1.6596 -1.0421  0.6008
  623MOL0     H85969   8.400   7.397   7.509 -0.4740  0.7955 -0.5772
  623MOL0     H85970   8.402   6.977   7.486  2.3887  0.2706  1.1641
  623MOL0     H85971   7.851   7.526   7.190  2.0202  2.5247 -3.4352
  623MOL0     H85972   7.646   7.517   7.111  5.3683  0.6526  4.1028
  623MOL0     H85973   7.518   7.643   7.108 -0.0264  4.3861 -3.5101
  623MOL0     H85974   7.670   7.669   7.025  0.9052 -1.5430 -0.7799
  624MOL0     O85975   6.917   0.520  10.440 -0.5059  0.1235 -0.3446
  624MOL0     C85976   6.832   0.464  10.509 -0.4926 -1.1487 -0.4883
  624MOL0     O85977   6.713   0.521  10.555  0.7055 -0.1795  0.0733
  624MOL0     C85978   6.654   0.616  10.473  0.1636  0.5230  0.3507
  624MOL0     C85979   6.671   0.624  10.331  0.0787 -0.2310 -0.6384
  624MOL0     C85980   6.621   0.733  10.254  0.2214  0.0546 -0.1452
  624MOL0     C85981   6.536   0.827  10.318  0.6647  0.5805  0.3681
  624MOL0     O85982   6.483   0.936  10.250 -0.2857 -0.6084 -1.5092
  624MOL0     C85983   6.594   1.025  10.210  0.3583 -0.4011 -0.1075
  624MOL0     C85984   6.543   1.164  10.180  1.1119  0.5592  0.3294
  624MOL0     C85985   6.540   1.266  10.291  0.2428 -0.1126  0.4990
  624MOL0     C85986   6.565   1.405  10.233  0.1364 -0.5667  0.7192
  624MOL0     C85987   6.469   1.459  10.122 -0.7300 -0.0003  0.5559
  624MOL0     C85988   6.512   1.599  10.065 -0.1555  0.6362  0.0313
  624MOL0     C85989   6.466   1.718  10.160  0.6407 -1.0756  0.5940
  624MOL0     C85990   6.476   1.859  10.094  0.2438  0.8935 -0.2898
  624MOL0     N85991   6.598   1.867  10.026  0.3166 -0.2483  0.4750
  624MOL0     C85992   6.723   1.857  10.083  0.6270  0.8598 -0.7316
  624MOL0     C85993   6.811   1.887   9.980  0.8073  0.3839 -0.5957
  624MOL0     C85994   6.962   1.886   9.987  0.4219  0.4922 -0.8646
  624MOL0     C85995   7.047   2.019   9.988  0.3724  0.2015 -0.3149
  624MOL0     C85996   7.025   2.111  10.113 -0.3710 -0.0137  0.0345
  624MOL0     C85997   7.043   2.028  10.244 -0.2144  0.1347  0.1144
  624MOL0     O85998   7.060   2.089  10.374 -0.3800  0.0576 -0.2772
  624MOL0     C85999   6.947   2.160  10.420  0.5735  0.2128  0.0603
  624MOL0     C86000   6.849   2.088  10.490  0.4504  0.9851 -0.7885
  624MOL0     C86001   6.728   2.158  10.532  0.1093 -0.9287 -0.0752
  624MOL0     C86002   6.631   2.081  10.627 -0.6038  0.1526  1.1796
  624MOL0     C86003   6.702   2.289  10.482  0.0109 -0.7106  0.1643
  624MOL0     C86004   6.577   2.360  10.527  0.3224  0.2738  0.5709
  624MOL0     O86005   6.583   2.403  10.651 -0.5463 -0.1150  0.1356
  624MOL0     C86006   6.481   2.465  10.722  0.9386  0.8230  0.9525
  624MOL0     C86007   6.392   2.570  10.666 -0.0584  1.5097  0.6417
  624MOL0     C86008   6.295   2.635  10.739 -1.4296 -0.1886 -0.2600
  624MOL0     C86009   6.296   2.623  10.881  0.2734 -0.3216  0.7317
  624MOL0     O86010   6.240   2.707  10.965  0.6180 -0.5100  0.3696
  624MOL0     C86011   6.157   2.800  10.908  0.1990 -0.0782  0.4443
  624MOL0     C86012   6.226   2.922  10.844 -0.0705 -0.0160 -0.0709
  624MOL0     C86013   6.136   3.023  10.769  0.3573 -0.0036 -0.4940
  624MOL0     C86014   6.102   2.967  10.629 -0.4460  0.5856  0.3973
  624MOL0     C86015   5.995   3.047  10.568 -0.4532  0.6471 -0.1951
  624MOL0     C86016   6.042   3.181  10.501 -0.1907  0.2497  0.2147
  624MOL0     C86017   5.949   3.231  10.381  0.0459 -0.3765  0.7136
  624MOL0     C86018   5.808   3.277  10.437 -0.2710  1.1777 -0.1810
  624MOL0    Cl86019   5.701   3.353  10.311  0.3700 -0.3391 -0.1574
  624MOL0     C86020   6.380   2.521  10.932  0.4025 -0.2484 -0.4473
  624MOL0     C86021   6.467   2.440  10.857 -0.6646 -0.2932  1.1139
  624MOL0     O86022   6.476   2.363  10.454  0.6354 -0.0981  0.2277
  624MOL0     C86023   6.802   2.357  10.418 -0.1666  0.2171  0.5382
  624MOL0     C86024   6.926   2.292  10.391  0.1586 -0.0477 -0.0424
  624MOL0     N86025   6.737   1.927   9.871  0.0717 -0.4645 -0.3839
  624MOL0     N86026   6.612   1.911   9.894 -0.8855  0.0672 -0.0065
  624MOL0     C86027   6.502   0.808  10.454 -0.2553  0.2130  0.1568
  624MOL0     C86028   6.567   0.703  10.526  0.6666 -1.0365  0.2672
  624MOL0     C86029   6.881   0.342  10.572 -1.1868  0.2151 -0.3411
  624MOL0     C86030   6.819   0.298  10.694  0.8129 -0.2578 -0.3036
  624MOL0     C86031   6.856   0.187  10.770 -0.4344  0.2618  0.2886
  624MOL0     C86032   6.971   0.111  10.731 -0.7744 -1.2164  0.4728
  624MOL0     O86033   7.010   0.004  10.805  0.1235  0.3245  0.2751
  624MOL0     C86034   7.110  -0.086  10.746  0.8371 -0.2454 -0.2875
  624MOL0     C86035   7.143  -0.201  10.845 -0.5095 -1.1951  1.1941
  624MOL0     C86036   7.242  -0.290  10.769 -0.6522  0.7157 -1.0694
  624MOL0     C86037   7.354  -0.334  10.869 -0.2561 -0.1978  0.0987
  624MOL0     C86038   7.420  -0.460  10.814 -0.2451 -0.5045 -0.2380
  624MOL0     C86039   7.464  -0.558  10.767 -0.2001  1.0722 -0.5634
  624MOL0     C86040   7.026   0.146  10.599  0.3328  0.2447 -0.6450
  624MOL0     C86041   6.985   0.259  10.523  0.0540  0.5878 -0.2988
  624MOL0     C86042   7.054   0.276  10.393  0.3012  1.1811  0.8136
  624MOL0     H86043   6.726   0.540  10.291 -0.8065  0.0987 -2.6538
  624MOL0     H86044   6.635   0.750  10.148 -0.1383  2.2515  0.1028
  624MOL0     H86045   6.636   0.983  10.119  0.8699  0.2079 -0.1624
  624MOL0     H86046   6.676   1.044  10.279 -0.2194  4.8403 -0.4443
  624MOL0     H86047   6.609   1.195  10.099 -0.4499 -1.1912 -1.7587
  624MOL0     H86048   6.443   1.163  10.135 -0.6412  0.7398  3.9224
  624MOL0     H86049   6.443   1.276  10.339  0.1624 -1.2619  0.5936
  624MOL0     H86050   6.621   1.244  10.361 -0.2612 -1.1900  0.7630
  624MOL0     H86051   6.554   1.478  10.314 -4.0604 -1.6050  1.3120
  624MOL0     H86052   6.669   1.400  10.200  0.6801 -1.0996  2.4260
  624MOL0     H86053   6.368   1.467  10.162 -0.5918 -2.3889  1.5827
  624MOL0     H86054   6.469   1.392  10.035 -1.0471 -0.9093  1.2416
  624MOL0     H86055   6.620   1.608  10.051  0.0159  2.2447  1.9486
  624MOL0     H86056   6.462   1.629   9.972  1.2702  2.4020 -0.2264
  624MOL0     H86057   6.537   1.717  10.243 -1.2622 -0.6045  2.3043
  624MOL0     H86058   6.368   1.682  10.195 -0.3387  0.3656 -0.5489
  624MOL0     H86059   6.391   1.892  10.034  1.9974  5.7071 -0.6247
  624MOL0     H86060   6.470   1.935  10.173 -3.1828  2.0000 -1.4130
  624MOL0     H86061   6.741   1.839  10.188 -4.4577  1.8322  0.6074
  624MOL0     H86062   7.001   1.814   9.915  2.2494 -0.6028  1.1061
  624MOL0     H86063   6.979   1.818  10.071 -1.8264  0.7892 -0.0945
  624MOL0     H86064   7.152   1.988   9.984  0.2290 -0.1863 -1.0386
  624MOL0     H86065   7.025   2.071   9.894 -1.0333 -1.8330 -1.1705
  624MOL0     H86066   7.097   2.192  10.106 -1.6421  1.6416  3.7571
  624MOL0     H86067   6.923   2.150  10.116 -0.9881 -1.3353 -1.6683
  624MOL0     H86068   6.957   1.961  10.254 -0.4061 -0.1595 -2.7452
  624MOL0     H86069   7.122   1.955  10.222  0.2679 -0.0034  2.1024
  624MOL0     H86070   6.872   1.987  10.523  0.2272  1.7384  1.9584
  624MOL0     H86071   6.685   2.006  10.685 -2.3069 -1.4970  0.7261
  624MOL0     H86072   6.542   2.040  10.578 -1.0834  2.8731 -0.4746
  624MOL0     H86073   6.596   2.146  10.707 -1.6523 -1.8219  2.3903
  624MOL0     H86074   6.392   2.587  10.559 -0.5240  2.6398  0.8160
  624MOL0     H86075   6.224   2.702  10.690  0.4267 -0.2445 -3.2585
  624MOL0     H86076   6.073   2.756  10.853  0.2818  2.2868 -1.8096
  624MOL0     H86077   6.114   2.863  10.986  4.3262  2.2181  1.1566
  624MOL0     H86078   6.281   2.984  10.916  3.2082 -1.7241 -0.8796
  624MOL0     H86079   6.304   2.880  10.780 -0.1196  0.6889 -0.6043
  624MOL0     H86080   6.196   3.111  10.742 -0.6971  0.3930 -1.6212
  624MOL0     H86081   6.047   3.057  10.822 -0.6938 -1.0365 -1.5649
  624MOL0     H86082   6.067   2.865  10.645 -0.2840  0.6585  1.2583
  624MOL0     H86083   6.190   2.968  10.564 -2.6530 -1.5368 -2.9473
  624MOL0     H86084   5.973   2.988  10.478 -2.0253  0.9909 -0.0701
  624MOL0     H86085   5.912   3.050  10.640  1.7509 -4.8555  3.1920
  624MOL0     H86086   6.135   3.155  10.450  0.2355  0.0233  1.1019
  624MOL0     H86087   6.044   3.259  10.578 -2.1935 -0.5867  1.1986
  624MOL0     H86088   5.939   3.163  10.296 -1.3365 -0.5519  0.9982
  624MOL0     H86089   5.991   3.323  10.339 -0.2045  0.8131  2.9327
  624MOL0     H86090   5.836   3.354  10.510 -1.8701 -0.4538  2.2788
  624MOL0     H86091   5.773   3.192  10.496 -2.1981 -0.6549 -3.6436
  624MOL0     H86092   6.393   2.525  11.040  1.6721  0.9156 -0.6170
  624MOL0     H86093   6.532   2.373  10.912 -2.3901 -1.6172  1.6185
  624MOL0     H86094   6.792   2.460  10.385  0.9137  0.4753  0.9963
  624MOL0     H86095   6.998   2.346  10.331  0.4767 -1.6121 -1.1183
  624MOL0     H86096   6.457   0.877  10.524  0.6756  1.1022 -0.0937
  624MOL0     H86097   6.555   0.701  10.634 -4.6792  2.8279  0.1682
  624MOL0     H86098   6.731   0.352  10.729  1.6706  1.8937 -1.2709
  624MOL0     H86099   6.809   0.168  10.866 -0.2851  0.5343  0.4170
  624MOL0     H86100   7.060  -0.135  10.662 -1.4518  0.6436  0.5115
  624MOL0     H86101   7.200  -0.025  10.733  0.3962  0.6422  0.6734
  624MOL0     H86102   7.057  -0.264  10.869 -2.1112 -0.5761 -2.3596
  624MOL0     H86103   7.199  -0.161  10.931  3.0689 -2.6956 -0.2303
  624MOL0     H86104   7.187  -0.379  10.737  1.7901 -0.3790 -2.5276
  624MOL0     H86105   7.288  -0.251  10.677  2.9001  0.8003  0.5547
  624MOL0     H86106   7.319  -0.348  10.972  1.2399  0.7942  0.7775
  624MOL0     H86107   7.423  -0.250  10.879 -1.4938  1.1787 -2.1087
  624MOL0     H86108   7.509  -0.650  10.738 -1.0670  1.4401 -3.3783
  624MOL0     H86109   7.108   0.082  10.569  0.8091  0.5371  0.0093
  624MOL0     H86110   7.116   0.366  10.394  0.0764  1.3482  2.3016
  624MOL0     H86111   7.120   0.192  10.367  0.0746  0.9901  0.8512
  624MOL0     H86112   6.976   0.282  10.316  1.0012 -1.1872 -0.1676
  625MOL0     O86113   4.425   2.927   2.500  0.6079  0.1408  0.0013
  625MOL0     C86114   4.437   3.007   2.595 -0.2121 -0.2677 -0.0877
  625MOL0     O86115   4.378   3.133   2.609  0.1502 -0.4490  1.0453
  625MOL0     C86116   4.292   3.183   2.510  0.6115  0.1655  0.5651
  625MOL0     C86117   4.321   3.176   2.375 -0.2865  0.6018  0.3594
  625MOL0     C86118   4.235   3.239   2.271 -0.3244  0.4830 -0.0932
  625MOL0     C86119   4.152   3.339   2.319  0.5833  0.2451 -0.3191
  625MOL0     O86120   4.084   3.426   2.239  0.2656 -0.5613  0.2752
  625MOL0     C86121   4.109   3.427   2.100 -0.4817 -0.1878 -0.1080
  625MOL0     C86122   4.009   3.518   2.031  0.5926  0.1366  0.2338
  625MOL0     C86123   4.022   3.664   2.090  0.8922  1.2219  0.7653
  625MOL0     C86124   3.893   3.740   2.040  0.2940 -0.2927  0.5719
  625MOL0     C86125   3.870   3.884   2.089  0.0022  0.4724 -0.2269
  625MOL0     C86126   3.749   3.951   2.018  0.3109  0.6767  0.0391
  625MOL0     C86127   3.726   4.096   2.073  0.3833  0.7353 -0.4627
  625MOL0     C86128   3.594   4.163   2.016 -0.0806  0.2732 -0.6171
  625MOL0     N86129   3.607   4.305   2.003 -0.2409 -0.3891 -0.8440
  625MOL0     C86130   3.514   4.394   2.038 -0.8944  1.0408  0.1940
  625MOL0     C86131   3.576   4.515   1.988  0.7213 -0.8546 -0.4599
  625MOL0     C86132   3.523   4.656   1.988  0.1493  0.7513  1.2992
  625MOL0     C86133   3.522   4.704   1.841 -0.2067 -0.1709 -1.0081
  625MOL0     C86134   3.426   4.816   1.815  0.5348  0.4347 -0.4205
  625MOL0     C86135   3.280   4.773   1.797 -0.1542  0.9910 -0.5786
  625MOL0     O86136   3.190   4.791   1.923 -0.3847 -0.4267  0.8430
  625MOL0     C86137   3.068   4.759   1.899  0.6103  0.1819  0.0739
  625MOL0     C86138   3.006   4.758   1.777 -0.0930  1.0551 -0.3559
  625MOL0     C86139   2.862   4.742   1.756 -0.1386 -0.0126 -0.1130
  625MOL0     C86140   2.796   4.741   1.623 -0.5000 -1.2164  0.5828
  625MOL0     C86141   2.777   4.744   1.870 -0.3140  0.6730 -0.1057
  625MOL0     C86142   2.627   4.755   1.856 -0.9730  0.7281  0.7715
  625MOL0     O86143   2.570   4.879   1.886 -0.3449 -0.4778  0.5481
  625MOL0     C86144   2.444   4.902   1.838  0.0060 -0.3589  0.8327
  625MOL0     C86145   2.398   4.870   1.711  0.4369 -0.1982 -0.6975
  625MOL0     C86146   2.253   4.902   1.680 -1.0446 -0.9076 -0.0849
  625MOL0     C86147   2.172   4.969   1.774  0.0355 -0.4354  1.0938
  625MOL0     O86148   2.037   4.981   1.742  0.1484 -0.3663  0.7065
  625MOL0     C86149   1.940   4.980   1.850 -0.9860  0.0539 -1.7622
  625MOL0     C86150   1.813   5.045   1.815 -0.0070  0.1213  0.2443
  625MOL0     C86151   1.754   4.980   1.688  0.8088 -0.0181 -0.5296
  625MOL0     C86152   1.615   5.056   1.665  0.2984  0.7793  0.2405
  625MOL0     C86153   1.549   5.016   1.538 -0.0151 -0.8930  1.0840
  625MOL0     C86154   1.551   5.123   1.423 -0.0500 -0.3186 -0.2819
  625MOL0     C86155   1.490   5.078   1.291 -0.9097  0.3421 -0.6877
  625MOL0     C86156   1.472   5.187   1.193  0.5724 -0.7610 -0.2616
  625MOL0    Cl86157   1.384   5.117   1.054  0.5638 -0.1388  0.6012
  625MOL0     C86158   2.226   5.001   1.895  0.0484 -0.4144  0.5610
  625MOL0     C86159   2.359   4.975   1.924  0.0097  0.7763  0.1512
  625MOL0     O86160   2.566   4.659   1.818 -0.0772  0.0363 -0.0421
  625MOL0     C86161   2.838   4.753   2.001  0.3507  0.2803 -0.3891
  625MOL0     C86162   2.982   4.763   2.009  0.7858  0.3121 -0.3775
  625MOL0     N86163   3.689   4.484   1.924  0.5699 -0.6108  0.7802
  625MOL0     N86164   3.708   4.363   1.938 -0.9086 -0.5690  0.0879
  625MOL0     C86165   4.125   3.351   2.451 -0.5139 -0.1569 -1.2418
  625MOL0     C86166   4.187   3.267   2.548  0.0276 -0.1143  1.0964
  625MOL0     C86167   4.505   2.952   2.720  0.0921 -0.3191  0.3985
  625MOL0     C86168   4.516   3.038   2.835  0.1184  0.1965  0.4305
  625MOL0     C86169   4.570   3.006   2.952  0.4493 -0.0336 -0.1048
  625MOL0     C86170   4.635   2.885   2.976  0.2713 -0.8108  0.2644
  625MOL0     O86171   4.700   2.878   3.099 -1.0499 -1.0408  0.3193
  625MOL0     C86172   4.748   2.750   3.140 -0.1826 -0.3605  0.0233
  625MOL0     C86173   4.744   2.742   3.298  0.5241  0.3367 -0.2924
  625MOL0     C86174   4.856   2.647   3.360 -0.0051  0.5592  0.7358
  625MOL0     C86175   4.993   2.697   3.312 -0.7278 -0.9521 -0.2121
  625MOL0     C86176   5.095   2.621   3.385 -0.3853  0.5609 -0.0036
  625MOL0     C86177   5.187   2.561   3.441 -0.0160 -0.9457  1.0340
  625MOL0     C86178   4.642   2.801   2.865  0.6725 -0.5535  0.3360
  625MOL0     C86179   4.576   2.828   2.738  0.0236 -0.6314 -0.7238
  625MOL0     C86180   4.583   2.727   2.631 -1.4236  1.1803 -0.6481
  625MOL0     H86181   4.409   3.123   2.341 -1.3710 -1.1242  0.1100
  625MOL0     H86182   4.253   3.212   2.168 -4.2571  2.8956 -1.6225
  625MOL0     H86183   4.112   3.329   2.051  0.4480  1.3081 -3.3111
  625MOL0     H86184   4.202   3.477   2.074 -0.2459 -0.3922  0.3262
  625MOL0     H86185   4.028   3.515   1.923  1.4405  1.1532  0.3349
  625MOL0     H86186   3.909   3.474   2.035  1.7460 -2.7481 -0.2261
  625MOL0     H86187   4.015   3.646   2.197  4.2474 -0.7319  0.7757
  625MOL0     H86188   4.111   3.719   2.059  0.4686  0.7865 -1.4650
  625MOL0     H86189   3.883   3.741   1.931 -2.2516 -0.3134  0.7300
  625MOL0     H86190   3.807   3.676   2.063  1.8585 -3.3109 -1.4070
  625MOL0     H86191   3.966   3.935   2.082  1.2386 -1.6710  0.0880
  625MOL0     H86192   3.849   3.888   2.196 -0.4374  1.8066 -0.3531
  625MOL0     H86193   3.772   3.957   1.911 -1.3499  0.7035 -0.3349
  625MOL0     H86194   3.654   3.899   2.029 -0.0818  1.2771 -0.4539
  625MOL0     H86195   3.815   4.152   2.045 -0.6405  1.1225 -3.3230
  625MOL0     H86196   3.717   4.102   2.181  0.4681  0.4900 -0.4418
  625MOL0     H86197   3.582   4.134   1.911  0.2254  1.7444 -1.0689
  625MOL0     H86198   3.509   4.125   2.075  2.2545 -0.8630  2.2696
  625MOL0     H86199   3.423   4.356   2.083  0.8279 -0.7204  2.4705
  625MOL0     H86200   3.583   4.725   2.048 -1.5528  1.9674  1.6706
  625MOL0     H86201   3.420   4.656   2.024  0.1756 -0.7626  1.4337
  625MOL0     H86202   3.626   4.725   1.812 -0.2148  0.8674 -0.3269
  625MOL0     H86203   3.483   4.617   1.786 -0.6738 -2.9067  3.1828
  625MOL0     H86204   3.412   4.892   1.892 -2.4650  0.6414 -1.0401
  625MOL0     H86205   3.467   4.862   1.724  0.2922 -1.7225 -1.6846
  625MOL0     H86206   3.250   4.824   1.706 -0.5748 -1.4138 -1.8741
  625MOL0     H86207   3.269   4.668   1.769  1.1700  1.6554 -3.9636
  625MOL0     H86208   3.065   4.784   1.690  4.2084  2.9812  2.7754
  625MOL0     H86209   2.732   4.654   1.608 -0.9271 -0.6950 -0.8475
  625MOL0     H86210   2.855   4.749   1.531  0.2593  2.3536  1.2448
  625MOL0     H86211   2.723   4.824   1.625  0.1901 -0.5964  0.3821
  625MOL0     H86212   2.454   4.838   1.624  0.3361 -3.3096  0.2718
  625MOL0     H86213   2.207   4.880   1.584 -2.6317  2.0174 -0.1244
  625MOL0     H86214   1.924   4.879   1.888  3.0126  0.2432  1.1234
  625MOL0     H86215   1.976   5.032   1.940 -2.5161 -1.9743  0.1443
  625MOL0     H86216   1.742   5.037   1.898 -0.8835 -0.7694 -0.5671
  625MOL0     H86217   1.831   5.152   1.802 -1.6090  0.3682 -0.1927
  625MOL0     H86218   1.731   4.873   1.687 -3.9688  0.7405 -3.1473
  625MOL0     H86219   1.820   5.008   1.605  3.6704 -0.0285  1.5685
  625MOL0     H86220   1.631   5.164   1.671  2.8866  0.6955 -2.5928
  625MOL0     H86221   1.550   5.033   1.750  0.7053 -1.1557  0.0629
  625MOL0     H86222   1.597   4.926   1.499  3.2430  1.6875 -1.4753
  625MOL0     H86223   1.444   4.996   1.561 -0.5316 -0.4432 -0.7113
  625MOL0     H86224   1.653   5.157   1.404 -0.4238  2.8057  2.3895
  625MOL0     H86225   1.494   5.208   1.462  0.6006 -0.9822  2.3512
  625MOL0     H86226   1.390   5.036   1.302  0.0793 -1.5298  2.6415
  625MOL0     H86227   1.555   4.997   1.258 -0.0766 -0.1766  2.0316
  625MOL0     H86228   1.573   5.218   1.165  0.5294  0.7165  1.0330
  625MOL0     H86229   1.412   5.266   1.240 -0.1825 -1.5288  0.0919
  625MOL0     H86230   2.186   5.049   1.984  0.0054  0.2226  0.2042
  625MOL0     H86231   2.403   4.996   2.021  0.3042  2.1719 -0.2611
  625MOL0     H86232   2.774   4.733   2.086  3.2483 -2.4594  1.3494
  625MOL0     H86233   3.020   4.776   2.110  2.7322  2.0032 -1.2547
  625MOL0     H86234   4.054   3.416   2.501  1.6396  2.2531 -1.0956
  625MOL0     H86235   4.186   3.281   2.656  2.2386 -1.3516  1.3328
  625MOL0     H86236   4.487   3.141   2.819  0.8597  0.6731  1.9470
  625MOL0     H86237   4.584   3.086   3.024  2.8987  2.7719 -3.4186
  625MOL0     H86238   4.705   2.662   3.090  4.8955 -1.8839 -2.3312
  625MOL0     H86239   4.845   2.745   3.090 -0.9118  0.2748 -1.5461
  625MOL0     H86240   4.653   2.714   3.352 -0.3290  0.3491 -1.6714
  625MOL0     H86241   4.756   2.843   3.338 -0.5276 -0.1793  1.4222
  625MOL0     H86242   4.850   2.641   3.469 -0.5711  0.9270  0.7308
  625MOL0     H86243   4.827   2.552   3.316 -1.7779  1.4106 -0.0319
  625MOL0     H86244   5.002   2.805   3.325  1.0665 -0.9155 -1.4422
  625MOL0     H86245   5.013   2.670   3.208  3.9544  0.5601  0.0528
  625MOL0     H86246   5.263   2.499   3.485 -0.8351 -1.4143  1.8255
  625MOL0     H86247   4.707   2.715   2.885  0.5945 -0.4157  1.2605
  625MOL0     H86248   4.493   2.666   2.624 -1.1152  0.8417 -1.7554
  625MOL0     H86249   4.617   2.771   2.537  0.4553 -0.7335 -0.9431
  625MOL0     H86250   4.665   2.657   2.651  0.2329  2.9080 -1.0732
  626MOL0     O86251   3.317   4.232   0.259  0.2546  0.6067 -0.4347
  626MOL0     C86252   3.414   4.162   0.297  0.1682 -0.3590 -0.8016
  626MOL0     O86253   3.409   4.030   0.320  0.5582  0.3984  0.1426
  626MOL0     C86254   3.317   3.951   0.260  0.2654  0.3311 -0.7686
  626MOL0     C86255   3.182   3.956   0.274  0.2665 -1.2952  0.2528
  626MOL0     C86256   3.101   3.859   0.215  0.7817 -0.5237  0.3255
  626MOL0     C86257   3.159   3.757   0.145 -0.2915 -0.6199 -0.8999
  626MOL0     O86258   3.085   3.656   0.093  1.2732 -0.1632 -0.0713
  626MOL0     C86259   3.014   3.575   0.192  0.1115  0.2583 -0.0179
  626MOL0     C86260   3.093   3.479   0.271  0.1129 -0.5298 -0.2689
  626MOL0     C86261   3.130   3.372   0.179 -0.0223  0.0023 -0.5927
  626MOL0     C86262   3.207   3.259   0.249 -0.3680 -0.1503  0.9410
  626MOL0     C86263   3.260   3.160   0.130 -1.1154  0.2419 -0.1587
  626MOL0     C86264   3.326   3.040   0.186  0.3115 -0.2355 -0.2711
  626MOL0     C86265   3.333   2.915   0.101  0.3231  0.3565  0.2353
  626MOL0     C86266   3.186   2.856   0.096 -0.8474 -0.0586 -0.2030
  626MOL0     N86267   3.161   2.769   0.207  0.3293  0.5214  0.1477
  626MOL0     C86268   3.113   2.809   0.328  0.4519  0.3439  0.7927
  626MOL0     C86269   3.091   2.695   0.401 -0.0553 -0.9216  0.2717
  626MOL0     C86270   3.059   2.686   0.553  0.4784  0.3379 -0.4357
  626MOL0     C86271   3.033   2.541   0.594 -0.3980  0.1369 -0.8285
  626MOL0     C86272   2.904   2.479   0.529 -0.2203 -0.3054  0.8444
  626MOL0     C86273   2.857   2.352   0.600 -0.7201 -0.1056 -0.3330
  626MOL0     O86274   2.724   2.322   0.541  0.2203 -0.0376  0.5295
  626MOL0     C86275   2.690   2.188   0.539  0.1292  0.3964  0.4512
  626MOL0     C86276   2.712   2.112   0.427 -0.1228  0.0844 -0.2492
  626MOL0     C86277   2.678   1.977   0.423 -0.2938  0.1152  0.5461
  626MOL0     C86278   2.704   1.908   0.288 -0.1435  0.0097 -0.8587
  626MOL0     C86279   2.616   1.908   0.540  0.0724 -1.0949  1.3077
  626MOL0     C86280   2.602   1.765   0.545 -0.0524 -0.4721  0.1073
  626MOL0     O86281   2.519   1.717   0.647 -0.9918  0.2204 -0.3383
  626MOL0     C86282   2.500   1.577   0.647  0.2201 -0.0136 -0.2403
  626MOL0     C86283   2.536   1.493   0.751  0.4206 -0.4964 -0.3601
  626MOL0     C86284   2.539   1.360   0.757  0.2750  0.1068  0.4306
  626MOL0     C86285   2.494   1.290   0.642  0.8289  0.4183  0.1533
  626MOL0     O86286   2.490   1.150   0.629  0.8272  0.2708 -0.7155
  626MOL0     C86287   2.458   1.075   0.748 -0.6276  0.0152 -0.2362
  626MOL0     C86288   2.330   1.128   0.814  0.2542  0.1771 -0.6498
  626MOL0     C86289   2.295   1.054   0.945  0.0368  0.1243  0.3463
  626MOL0     C86290   2.282   0.907   0.938  0.1556  0.2661 -0.4471
  626MOL0     C86291   2.256   0.864   1.087  0.2380 -0.8410  0.5126
  626MOL0     C86292   2.394   0.852   1.139 -0.8883 -0.5412  0.2649
  626MOL0     C86293   2.383   0.762   1.264  0.5750  0.0571  0.6048
  626MOL0     C86294   2.509   0.723   1.319 -0.7725  0.1901  0.3963
  626MOL0    Cl86295   2.593   0.884   1.369 -0.1338  0.4804 -0.2279
  626MOL0     C86296   2.444   1.367   0.532  0.0416  1.2359  0.3377
  626MOL0     C86297   2.450   1.504   0.535 -0.3358 -1.3216 -0.2299
  626MOL0     O86298   2.671   1.699   0.468  0.2659 -0.8935 -0.2939
  626MOL0     C86299   2.599   1.995   0.657 -0.0352  0.1866  0.0281
  626MOL0     C86300   2.641   2.130   0.654  0.8275 -0.0858  0.1054
  626MOL0     N86301   3.117   2.596   0.312 -1.0194  0.0414 -0.3584
  626MOL0     N86302   3.171   2.636   0.205 -0.8180 -0.2883 -0.7548
  626MOL0     C86303   3.296   3.746   0.131 -0.7086 -0.1174 -0.0329
  626MOL0     C86304   3.374   3.850   0.179 -0.6396 -0.2151 -0.2423
  626MOL0     C86305   3.536   4.235   0.342 -0.8372 -0.8918  0.2093
  626MOL0     C86306   3.606   4.192   0.456 -0.3097  1.0938 -0.1833
  626MOL0     C86307   3.709   4.275   0.512  0.1129 -0.3793  0.1524
  626MOL0     C86308   3.736   4.401   0.457  0.3055 -0.0014  0.3776
  626MOL0     O86309   3.836   4.474   0.514 -0.6015  0.2783 -0.0973
  626MOL0     C86310   3.875   4.610   0.462  0.5388  0.3421  0.0210
  626MOL0     C86311   4.003   4.603   0.385 -0.8283  0.0085 -1.0243
  626MOL0     C86312   4.008   4.718   0.273 -1.1410  0.5066 -0.1953
  626MOL0     C86313   4.126   4.708   0.182  0.2300 -0.3333 -0.6458
  626MOL0     C86314   4.249   4.736   0.249  0.3701 -0.9657 -0.7495
  626MOL0     C86315   4.351   4.768   0.310 -0.5428 -0.3058  0.6684
  626MOL0     C86316   3.674   4.439   0.340 -0.1833 -1.1945 -0.4925
  626MOL0     C86317   3.573   4.355   0.283  0.1081  1.0045  0.4254
  626MOL0     C86318   3.515   4.392   0.154 -0.9521 -0.2586  0.7391
  626MOL0     H86319   3.149   4.042   0.331  1.0757 -2.4248  2.5499
  626MOL0     H86320   2.997   3.854   0.243  0.7523 -3.0204 -0.0096
  626MOL0     H86321   2.941   3.515   0.137  0.7695 -1.2598  0.7065
  626MOL0     H86322   2.952   3.635   0.260 -0.0138 -1.3934  1.3850
  626MOL0     H86323   3.174   3.532   0.321 -0.5069 -2.2632  2.8525
  626MOL0     H86324   3.034   3.445   0.357  0.8212  0.2625  0.5615
  626MOL0     H86325   3.052   3.326   0.116 -1.4952  0.9173  0.5091
  626MOL0     H86326   3.208   3.406   0.110  1.5503 -2.8574 -0.3966
  626MOL0     H86327   3.295   3.293   0.304  0.0552 -1.4840  1.1159
  626MOL0     H86328   3.131   3.205   0.306 -2.5872  1.0401 -0.7318
  626MOL0     H86329   3.325   3.212   0.059 -2.4917  0.8205 -1.0443
  626MOL0     H86330   3.174   3.126   0.071  0.1929 -2.8719 -0.4365
  626MOL0     H86331   3.431   3.065   0.203  0.3740  0.5368 -1.6732
  626MOL0     H86332   3.280   3.014   0.282 -2.1347 -0.6046 -1.4807
  626MOL0     H86333   3.399   2.843   0.152  0.6444 -1.1497 -2.1366
  626MOL0     H86334   3.373   2.939   0.002  1.2441  1.7399  0.9101
  626MOL0     H86335   3.115   2.939   0.096 -0.1883  0.5637 -2.0010
  626MOL0     H86336   3.170   2.801   0.003  0.3258 -0.2326 -0.3217
  626MOL0     H86337   3.123   2.916   0.346  0.0571  0.8191 -1.5406
  626MOL0     H86338   2.972   2.751   0.561  0.1234 -0.2137  0.2284
  626MOL0     H86339   3.141   2.728   0.611  0.8068 -0.8351 -0.0191
  626MOL0     H86340   3.118   2.476   0.576  1.8233  2.4372  0.6053
  626MOL0     H86341   3.019   2.531   0.702  2.2431  1.6507 -0.2565
  626MOL0     H86342   2.831   2.560   0.526  1.7703  1.5643 -0.2154
  626MOL0     H86343   2.936   2.449   0.429 -1.1022 -0.5225  0.6248
  626MOL0     H86344   2.932   2.272   0.596 -1.1921 -0.5205 -1.1343
  626MOL0     H86345   2.851   2.373   0.707  0.6195  0.7527 -0.3969
  626MOL0     H86346   2.757   2.146   0.335  0.3459 -1.2408 -0.5347
  626MOL0     H86347   2.795   1.847   0.286 -2.6392 -4.1919  0.1601
  626MOL0     H86348   2.708   1.977   0.203  2.2367  3.4850  1.7980
  626MOL0     H86349   2.625   1.835   0.268 -1.7725  1.8055 -1.2681
  626MOL0     H86350   2.574   1.546   0.838  2.3441 -0.7209 -1.0156
  626MOL0     H86351   2.557   1.302   0.846 -4.2854 -1.6698  0.4827
  626MOL0     H86352   2.454   0.970   0.719  3.0809 -0.3373  0.0438
  626MOL0     H86353   2.540   1.076   0.820 -0.4164  2.4458 -0.4243
  626MOL0     H86354   2.332   1.236   0.825  0.3937  0.1470 -0.3771
  626MOL0     H86355   2.246   1.099   0.749  0.3920  1.4794 -1.4437
  626MOL0     H86356   2.203   1.104   0.977 -1.0442  0.7018 -3.2632
  626MOL0     H86357   2.379   1.072   1.014 -0.2040 -4.9236  2.3465
  626MOL0     H86358   2.369   0.850   0.901 -0.9342 -2.5433  0.9951
  626MOL0     H86359   2.207   0.878   0.864  3.3131 -1.8993 -3.0835
  626MOL0     H86360   2.200   0.936   1.148  0.0641 -0.4567 -0.0883
  626MOL0     H86361   2.208   0.766   1.085 -0.4781 -0.5133  1.1127
  626MOL0     H86362   2.433   0.949   1.171  3.0731 -1.4975 -1.0970
  626MOL0     H86363   2.462   0.812   1.064  0.4670  1.4710  0.3577
  626MOL0     H86364   2.343   0.667   1.229 -0.1316 -0.3038  2.2879
  626MOL0     H86365   2.313   0.816   1.330 -0.3974 -0.4461  0.0018
  626MOL0     H86366   2.570   0.669   1.246  0.2593  0.1516  1.2745
  626MOL0     H86367   2.510   0.651   1.401  1.7377 -1.2942 -0.8100
  626MOL0     H86368   2.412   1.297   0.455  1.7702 -1.2055  1.7003
  626MOL0     H86369   2.406   1.551   0.447  1.5735 -2.1692 -1.7263
  626MOL0     H86370   2.572   1.950   0.752  0.7532 -5.3623 -1.9659
  626MOL0     H86371   2.618   2.196   0.738 -0.4235 -0.5245  0.1359
  626MOL0     H86372   3.345   3.662   0.083  4.7358  2.1092  0.8332
  626MOL0     H86373   3.480   3.856   0.160 -0.8405 -0.4194 -1.4868
  626MOL0     H86374   3.569   4.105   0.510 -1.4978  0.0251 -2.5428
  626MOL0     H86375   3.744   4.231   0.605  2.1999  3.2370  1.2874
  626MOL0     H86376   3.800   4.666   0.406 -0.4557  1.3727  2.2342
  626MOL0     H86377   3.900   4.670   0.550 -1.1569  2.7002 -1.0233
  626MOL0     H86378   4.016   4.504   0.339 -1.5204 -1.6635  2.0967
  626MOL0     H86379   4.086   4.599   0.456 -2.0624 -3.6920  0.4701
  626MOL0     H86380   3.928   4.709   0.198  2.1301 -4.7736 -3.7148
  626MOL0     H86381   3.999   4.822   0.307  0.6927 -0.1203  2.4942
  626MOL0     H86382   4.103   4.767   0.092  0.5640 -1.4999 -1.5192
  626MOL0     H86383   4.129   4.609   0.137  1.1920 -1.3750  1.6110
  626MOL0     H86384   4.438   4.783   0.371  0.2310 -1.0893 -0.2077
  626MOL0     H86385   3.711   4.530   0.293  0.6695  0.7275  3.4891
  626MOL0     H86386   3.497   4.301   0.097  1.6919 -0.1832 -0.3554
  626MOL0     H86387   3.421   4.448   0.151 -0.4895  0.5330 -2.1527
  626MOL0     H86388   3.572   4.456   0.086 -1.0500  2.6826  3.2047
  627MOL0     O86389   1.356  11.224   2.423 -0.1534  0.1194  0.2685
  627MOL0     C86390   1.460  11.256   2.362 -0.4803  0.8859  0.2377
  627MOL0     O86391   1.544  11.164   2.309 -0.0887 -1.3767  0.3306
  627MOL0     C86392   1.509  11.032   2.314  1.5630 -0.1667 -0.3591
  627MOL0     C86393   1.542  10.955   2.422 -0.4107  0.1187 -0.2795
  627MOL0     C86394   1.492  10.827   2.433  0.2900 -0.7136 -0.3863
  627MOL0     C86395   1.408  10.762   2.338 -1.2251  0.8033 -0.1967
  627MOL0     O86396   1.350  10.637   2.359 -0.4320 -0.2569  0.2374
  627MOL0     C86397   1.283  10.568   2.259 -0.2426  0.1548  0.6002
  627MOL0     C86398   1.196  10.464   2.318 -0.0407  0.9060 -0.7182
  627MOL0     C86399   1.088  10.411   2.219  1.2901 -0.3143 -0.1201
  627MOL0     C86400   1.047  10.265   2.255 -0.3255 -0.5135  0.2720
  627MOL0     C86401   0.902  10.236   2.200 -0.4763  0.2617  0.0195
  627MOL0     C86402   0.795  10.314   2.283  0.6187 -0.2523 -0.5936
  627MOL0     C86403   0.650  10.275   2.247 -0.1353  0.6996 -0.6509
  627MOL0     C86404   0.607  10.146   2.309  0.7198  0.4203 -0.0751
  627MOL0     N86405   0.569  10.149   2.455  0.5278  0.1021  0.5518
  627MOL0     C86406   0.455  10.191   2.504  0.7911 -0.0860 -0.1325
  627MOL0     C86407   0.473  10.190   2.640  0.7722 -0.3986 -0.1737
  627MOL0     C86408   0.366  10.226   2.735  0.3014  0.8112  0.5093
  627MOL0     C86409   0.280  10.112   2.792 -0.1397 -0.8723  0.0680
  627MOL0     C86410   0.148  10.145   2.869 -0.6227  0.4207  0.0942
  627MOL0     C86411   0.172  10.200   3.015  0.2217 -0.2706 -0.9053
  627MOL0     O86412   0.043  10.261   3.057  0.1608 -0.2283  0.4146
  627MOL0     C86413   0.031  10.293   3.188 -0.4369  0.0658 -0.9159
  627MOL0     C86414   0.079  10.411   3.235 -0.6335  0.8209  0.1287
  627MOL0     C86415   0.070  10.452   3.373 -0.0016 -0.1793  0.3854
  627MOL0     C86416   0.145  10.577   3.392 -1.3329  0.0710  0.1655
  627MOL0     C86417  -0.009  10.371   3.462  0.2624  0.3573 -0.8116
  627MOL0     C86418  -0.020  10.397   3.612 -0.0195 -0.0794  0.0672
  627MOL0     O86419  -0.146  10.393   3.663  0.4762  0.2141  0.1481
  627MOL0     C86420  -0.167  10.448   3.780 -0.2087 -0.3075  0.6151
  627MOL0     C86421  -0.169  10.376   3.899 -0.6560  0.0269  0.4632
  627MOL0     C86422  -0.194  10.442   4.025  0.3516  1.2373 -1.1300
  627MOL0     C86423  -0.231  10.583   4.023 -0.5080  0.6341 -0.5480
  627MOL0     O86424  -0.262  10.663   4.137 -0.5041  0.0604  0.1033
  627MOL0     C86425  -0.232  10.620   4.265 -1.0911 -0.3267  0.1621
  627MOL0     C86426  -0.195  10.745   4.346  1.2058  0.2117  0.4573
  627MOL0     C86427  -0.313  10.807   4.417  0.4473 -0.4075  0.4067
  627MOL0     C86428  -0.255  10.927   4.493 -0.4126 -1.4056  0.3094
  627MOL0     C86429  -0.354  10.982   4.595 -0.3897 -1.0453 -1.1570
  627MOL0     C86430  -0.294  11.104   4.661  0.2576 -1.2472  0.3957
  627MOL0     C86431  -0.404  11.186   4.728 -0.0051  0.2505  0.6345
  627MOL0     C86432  -0.361  11.329   4.782 -0.3575 -0.4465 -0.1543
  627MOL0    Cl86433  -0.225  11.303   4.902 -0.0892 -0.2340  0.1111
  627MOL0     C86434  -0.233  10.652   3.897  0.4471  1.5470  0.0958
  627MOL0     C86435  -0.199  10.591   3.773  0.3483  0.7036  0.0693
  627MOL0     O86436   0.080  10.425   3.678  0.2019 -0.3243 -0.2137
  627MOL0     C86437  -0.033  10.241   3.417  0.2047  0.2587 -0.1919
  627MOL0     C86438  -0.029  10.212   3.281 -0.3706 -0.1152  0.1699
  627MOL0     N86439   0.603  10.159   2.665  0.5428 -0.0859 -0.6451
  627MOL0     N86440   0.660  10.140   2.554 -0.7022 -0.0920  0.0280
  627MOL0     C86441   1.397  10.837   2.223 -0.2080  0.4359 -0.2092
  627MOL0     C86442   1.434  10.974   2.211  0.6423  0.0262 -0.6267
  627MOL0     C86443   1.494  11.392   2.366 -0.3762  0.2600  0.9174
  627MOL0     C86444   1.406  11.476   2.439 -0.4791 -1.1178 -0.4063
  627MOL0     C86445   1.441  11.606   2.456  0.1399  0.1765  0.2124
  627MOL0     C86446   1.559  11.658   2.409 -0.1927 -0.1951  0.4170
  627MOL0     O86447   1.603  11.789   2.418  0.3059  0.1841 -0.4270
  627MOL0     C86448   1.546  11.877   2.509  0.8905 -0.5794  0.6112
  627MOL0     C86449   1.639  12.005   2.503  0.1713 -0.7578  1.4866
  627MOL0     C86450   1.582  12.136   2.553  0.5773 -0.7935  1.3189
  627MOL0     C86451   1.491  12.131   2.673 -0.5674  0.0162  0.4677
  627MOL0     C86452   1.351  12.108   2.642  0.5278  0.5039 -0.8439
  627MOL0     C86453   1.229  12.083   2.626  0.4495  0.2860  0.8524
  627MOL0     C86454   1.638  11.581   2.331  0.1135  1.2121 -0.2890
  627MOL0     C86455   1.616  11.446   2.304 -0.7601 -1.2036 -0.1675
  627MOL0     C86456   1.718  11.380   2.208 -0.6451 -0.4673 -0.5709
  627MOL0     H86457   1.615  10.988   2.496  1.6335 -2.5763 -0.9552
  627MOL0     H86458   1.511  10.772   2.525 -2.4354 -1.0962  0.0299
  627MOL0     H86459   1.355  10.525   2.189 -0.8963 -2.3890  1.3764
  627MOL0     H86460   1.212  10.627   2.200 -0.1817  1.3964  1.7237
  627MOL0     H86461   1.259  10.385   2.359  0.3000  3.3421  4.2007
  627MOL0     H86462   1.146  10.505   2.407 -1.7050 -0.7164 -0.8602
  627MOL0     H86463   1.011  10.484   2.243  2.3937  0.5929  0.7537
  627MOL0     H86464   1.117  10.423   2.114 -0.5474  0.3090 -0.5980
  627MOL0     H86465   1.110  10.192   2.203 -2.2341 -0.2063 -2.7294
  627MOL0     H86466   1.063  10.251   2.362 -0.4873 -0.9549  0.2411
  627MOL0     H86467   0.889  10.130   2.222 -0.1101 -0.0373 -1.1486
  627MOL0     H86468   0.876  10.241   2.094 -1.0228  1.7753  0.2019
  627MOL0     H86469   0.810  10.307   2.391  0.7136 -1.9576 -0.6863
  627MOL0     H86470   0.798  10.421   2.261 -1.5518  0.2932  1.4392
  627MOL0     H86471   0.650  10.266   2.138  4.1660 -3.4969 -0.6282
  627MOL0     H86472   0.585  10.354   2.285  4.2312  2.4504  4.5564
  627MOL0     H86473   0.526  10.104   2.249 -2.1761  0.9450  3.1682
  627MOL0     H86474   0.687  10.072   2.295  1.9155  1.1124  2.4077
  627MOL0     H86475   0.372  10.210   2.437  0.9255  1.4028  0.0977
  627MOL0     H86476   0.302  10.301   2.687 -3.2267 -1.6117  0.9893
  627MOL0     H86477   0.407  10.267   2.827 -0.4210  0.6395  0.9138
  627MOL0     H86478   0.249  10.052   2.706 -0.6778 -1.7634  0.8653
  627MOL0     H86479   0.340  10.042   2.852 -0.2982 -1.3984 -0.3721
  627MOL0     H86480   0.104  10.219   2.801  0.7334 -1.2353 -2.7542
  627MOL0     H86481   0.081  10.059   2.876 -1.8098  1.3834  1.0831
  627MOL0     H86482   0.213  10.126   3.085  0.4456  0.0199 -0.7253
  627MOL0     H86483   0.248  10.279   3.022  0.5021 -0.6925  2.5427
  627MOL0     H86484   0.125  10.467   3.155 -0.5324 -1.2405 -1.3412
  627MOL0     H86485   0.125  10.653   3.316  1.0103  0.5008 -0.0935
  627MOL0     H86486   0.250  10.549   3.378 -1.3250  0.6564 -1.0628
  627MOL0     H86487   0.142  10.620   3.493  2.1287 -1.9513  1.3045
  627MOL0     H86488  -0.155  10.268   3.896  1.6930  0.3001 -0.8316
  627MOL0     H86489  -0.182  10.386   4.117  1.4069  1.0341 -1.3849
  627MOL0     H86490  -0.320  10.578   4.314 -0.4787 -1.5622  0.2359
  627MOL0     H86491  -0.150  10.547   4.270 -2.0654 -1.5329 -1.0166
  627MOL0     H86492  -0.120  10.717   4.420  1.4515 -1.5312 -0.4015
  627MOL0     H86493  -0.153  10.822   4.280 -1.1786 -0.0513 -1.5460
  627MOL0     H86494  -0.351  10.738   4.492 -3.0434  1.6867  0.7802
  627MOL0     H86495  -0.390  10.830   4.343 -0.0572  0.1744  1.1132
  627MOL0     H86496  -0.239  11.005   4.418 -1.9684 -1.7722 -0.4250
  627MOL0     H86497  -0.169  10.891   4.550 -1.7546 -2.3539  1.8145
  627MOL0     H86498  -0.451  11.001   4.547 -0.7100 -0.9520 -0.4742
  627MOL0     H86499  -0.381  10.910   4.672  1.1576 -0.6807 -0.2249
  627MOL0     H86500  -0.235  11.172   4.599 -3.1815 -0.9242 -2.9147
  627MOL0     H86501  -0.221  11.073   4.736  0.0332 -0.0554  1.1223
  627MOL0     H86502  -0.440  11.118   4.806  0.5290  0.1493  0.8018
  627MOL0     H86503  -0.491  11.201   4.664  1.4485 -1.3996 -1.9592
  627MOL0     H86504  -0.447  11.373   4.835  0.4526  1.6824 -0.4894
  627MOL0     H86505  -0.315  11.391   4.705  0.0726  0.0133  0.4552
  627MOL0     H86506  -0.275  10.752   3.899 -2.8632  0.2574  0.8779
  627MOL0     H86507  -0.210  10.643   3.679  1.5032 -1.4238 -1.3280
  627MOL0     H86508  -0.084  10.165   3.476 -2.0267  0.5640 -1.6110
  627MOL0     H86509  -0.075  10.120   3.245 -1.1379  1.2241 -2.5800
  627MOL0     H86510   1.348  10.794   2.136 -0.6627  2.1984 -0.8679
  627MOL0     H86511   1.405  11.033   2.124 -4.1089  3.3801  2.7383
  627MOL0     H86512   1.316  11.435   2.484 -1.8099  1.7480 -0.1757
  627MOL0     H86513   1.359  11.662   2.501 -2.6468 -5.0631  2.5171
  627MOL0     H86514   1.447  11.898   2.465  1.0111  0.5422  0.8394
  627MOL0     H86515   1.523  11.838   2.608 -0.6311 -0.6758  0.2529
  627MOL0     H86516   1.668  12.013   2.398 -0.2677 -3.3431  1.0971
  627MOL0     H86517   1.731  11.990   2.560  1.2743 -1.3684 -0.3635
  627MOL0     H86518   1.660  12.209   2.575  0.8453 -1.6712  3.4974
  627MOL0     H86519   1.525  12.178   2.469  2.8977 -0.1825 -0.0528
  627MOL0     H86520   1.502  12.223   2.732  0.7892 -1.2208  2.2640
  627MOL0     H86521   1.513  12.041   2.732  0.0149  1.3484  2.4236
  627MOL0     H86522   1.125  12.059   2.626  0.3963  0.5084  0.8763
  627MOL0     H86523   1.718  11.634   2.280  0.0447  2.2613  0.6424
  627MOL0     H86524   1.754  11.294   2.265  1.4473  2.1215  2.3625
  627MOL0     H86525   1.679  11.343   2.113 -0.7689 -0.8230 -0.3838
  627MOL0     H86526   1.808  11.438   2.187 -1.3746  1.8557  2.0487
  628MOL0     O86527   3.698   1.854   3.032 -0.4787  0.2781 -0.3076
  628MOL0     C86528   3.749   1.757   3.085  0.3304  0.0093 -0.7910
  628MOL0     O86529   3.719   1.708   3.210  0.8085  0.0381 -0.5314
  628MOL0     C86530   3.594   1.731   3.264  0.6355  0.3829 -0.2696
  628MOL0     C86531   3.478   1.766   3.190  0.8270  0.5439  0.7424
  628MOL0     C86532   3.350   1.782   3.244 -0.0440 -0.7375 -0.3699
  628MOL0     C86533   3.340   1.776   3.381 -0.1978 -0.6522  0.1311
  628MOL0     O86534   3.223   1.818   3.444  0.6181 -0.1667 -0.2700
  628MOL0     C86535   3.093   1.828   3.376 -0.8032 -1.1665 -0.1083
  628MOL0     C86536   3.052   1.696   3.336 -0.3669  0.8372 -0.1123
  628MOL0     C86537   2.899   1.687   3.335  0.6569  1.1508 -0.2820
  628MOL0     C86538   2.839   1.578   3.254  0.7825  0.6061 -0.1826
  628MOL0     C86539   2.688   1.598   3.256 -0.3112  1.0818 -0.8498
  628MOL0     C86540   2.617   1.488   3.179  0.1574 -1.8153 -0.1955
  628MOL0     C86541   2.471   1.461   3.199 -0.1413  0.2141 -0.3802
  628MOL0     C86542   2.426   1.371   3.086 -0.3696  0.2620 -0.4769
  628MOL0     N86543   2.290   1.334   3.088 -0.8919  0.5037 -0.1798
  628MOL0     C86544   2.189   1.426   3.129 -0.0403 -0.2869 -0.2247
  628MOL0     C86545   2.071   1.367   3.109  0.4961  0.1371  0.6300
  628MOL0     C86546   1.933   1.424   3.145  0.1184 -0.1592  0.1216
  628MOL0     C86547   1.817   1.317   3.148 -0.0862 -1.1451  0.3955
  628MOL0     C86548   1.671   1.383   3.170 -0.3817  0.2756 -0.5094
  628MOL0     C86549   1.641   1.372   3.320  1.2241 -0.8785  0.6938
  628MOL0     O86550   1.508   1.421   3.340 -0.3527 -0.0353 -0.2643
  628MOL0     C86551   1.406   1.334   3.332  0.8504 -1.0606 -0.0714
  628MOL0     C86552   1.389   1.221   3.411  0.1030  0.3718  0.3201
  628MOL0     C86553   1.270   1.158   3.433  0.4400  1.5746  0.1992
  628MOL0     C86554   1.261   1.027   3.509  0.3799 -0.0615 -0.1963
  628MOL0     C86555   1.157   1.214   3.372 -0.5320  0.3606  0.5438
  628MOL0     C86556   1.026   1.152   3.374  0.8615  0.3121 -0.0524
  628MOL0     O86557   1.017   1.036   3.308 -0.2310 -0.5198 -0.3554
  628MOL0     C86558   0.918   0.943   3.328  0.1155  0.8545 -0.1489
  628MOL0     C86559   0.784   0.968   3.368 -0.1255  0.5725  0.1129
  628MOL0     C86560   0.699   0.862   3.395  0.0602  0.1480 -1.3771
  628MOL0     C86561   0.738   0.734   3.382 -0.1040  0.0631 -0.6399
  628MOL0     O86562   0.675   0.630   3.440  0.6924  0.3576 -0.3306
  628MOL0     C86563   0.550   0.606   3.376  0.5621  0.6946 -0.5665
  628MOL0     C86564   0.500   0.465   3.408 -0.0966  0.4707  0.4889
  628MOL0     C86565   0.539   0.358   3.306  0.7601 -0.4646 -0.5297
  628MOL0     C86566   0.692   0.348   3.287 -0.2969 -0.1807  0.6950
  628MOL0     C86567   0.730   0.209   3.232 -0.4714  0.2606 -0.1029
  628MOL0     C86568   0.880   0.182   3.234 -0.9024  0.5496 -0.4790
  628MOL0     C86569   0.922   0.060   3.168 -0.3941  0.6207 -0.4263
  628MOL0     C86570   1.064   0.012   3.206  1.1556  0.3365  0.3117
  628MOL0    Cl86571   1.078  -0.124   3.086  0.2583  0.0943 -0.1203
  628MOL0     C86572   0.873   0.705   3.334  1.1068  1.0881 -0.0429
  628MOL0     C86573   0.959   0.813   3.312 -0.2585  0.1980 -0.5321
  628MOL0     O86574   0.936   1.213   3.429 -0.2385 -0.3852 -0.1746
  628MOL0     C86575   1.172   1.332   3.295 -0.1411  0.1604 -0.5669
  628MOL0     C86576   1.300   1.382   3.265 -1.0556  0.9819  0.1832
  628MOL0     N86577   2.099   1.236   3.058  0.3588 -0.5609 -0.1798
  628MOL0     N86578   2.224   1.219   3.039 -1.3557 -0.1833  0.7164
  628MOL0     C86579   3.456   1.726   3.459 -0.4816 -0.3601 -0.2564
  628MOL0     C86580   3.578   1.712   3.401  0.0413 -2.0693  0.3646
  628MOL0     C86581   3.871   1.700   3.034 -0.3763  0.5949 -0.0508
  628MOL0     C86582   3.944   1.614   3.119 -0.4866 -0.5847 -0.0303
  628MOL0     C86583   4.070   1.559   3.076  0.4277  0.3066  0.4188
  628MOL0     C86584   4.134   1.589   2.951  0.6656  0.6704 -0.6623
  628MOL0     O86585   4.254   1.553   2.905  0.0260 -0.6413 -0.0939
  628MOL0     C86586   4.346   1.498   3.000  0.6938  0.2633  0.0367
  628MOL0     C86587   4.415   1.620   3.063  0.1825 -0.6053  0.0478
  628MOL0     C86588   4.522   1.576   3.154 -0.3630  0.6986 -1.5223
  628MOL0     C86589   4.602   1.690   3.197  0.2096 -0.5933 -0.2888
  628MOL0     C86590   4.715   1.640   3.276 -0.3614 -0.6236 -0.8180
  628MOL0     C86591   4.809   1.610   3.349  0.5202  0.6324  0.0335
  628MOL0     C86592   4.052   1.670   2.872 -0.3330 -0.3418 -0.4056
  628MOL0     C86593   3.928   1.722   2.903 -0.5067  0.4333  1.4341
  628MOL0     C86594   3.859   1.795   2.780 -0.4833  0.3894  0.3765
  628MOL0     H86595   3.497   1.791   3.086 -0.3073  0.7660  0.5743
  628MOL0     H86596   3.270   1.821   3.182  0.4053  2.0589  0.6750
  628MOL0     H86597   3.105   1.904   3.299  1.2870  0.2127  1.4666
  628MOL0     H86598   3.029   1.873   3.453 -0.2124  0.3789 -0.4826
  628MOL0     H86599   3.104   1.679   3.242  2.8464  0.2872  1.6198
  628MOL0     H86600   3.099   1.615   3.392 -0.7979 -1.4091 -2.8070
  628MOL0     H86601   2.868   1.659   3.436  0.1723 -0.2883 -0.7995
  628MOL0     H86602   2.856   1.779   3.294  0.8957  1.6131  0.4938
  628MOL0     H86603   2.874   1.576   3.150  1.8041 -1.4661  0.1574
  628MOL0     H86604   2.868   1.478   3.286 -1.9700 -1.6773 -3.8942
  628MOL0     H86605   2.660   1.691   3.206 -0.6914  1.4809  0.0692
  628MOL0     H86606   2.658   1.606   3.361  2.3562 -1.6560  0.2638
  628MOL0     H86607   2.650   1.490   3.075 -1.2559  2.1430 -0.7467
  628MOL0     H86608   2.661   1.397   3.223  3.5792  0.0482  0.5778
  628MOL0     H86609   2.421   1.558   3.193  1.8481  1.3283  0.2068
  628MOL0     H86610   2.445   1.413   3.294 -0.9354  1.4118  0.0295
  628MOL0     H86611   2.438   1.422   2.990 -3.1380  1.8082 -0.1128
  628MOL0     H86612   2.487   1.281   3.083 -0.9973 -0.1977 -3.7309
  628MOL0     H86613   2.204   1.525   3.173  0.6699  0.7030 -2.5631
  628MOL0     H86614   1.912   1.508   3.078  1.8725 -1.7371 -2.6075
  628MOL0     H86615   1.947   1.471   3.243  1.1271  0.5106 -0.3261
  628MOL0     H86616   1.826   1.269   3.050 -0.2811 -0.4293  0.0143
  628MOL0     H86617   1.842   1.238   3.219 -3.3060 -3.7270 -1.0678
  628MOL0     H86618   1.686   1.491   3.158  1.8827  0.1862  1.1279
  628MOL0     H86619   1.589   1.337   3.114 -0.1208 -1.5335  0.5527
  628MOL0     H86620   1.659   1.269   3.350 -1.3606 -1.8257 -0.6509
  628MOL0     H86621   1.709   1.437   3.376  2.1530 -0.7740 -0.5306
  628MOL0     H86622   1.476   1.186   3.466  0.5027  0.3016 -0.3537
  628MOL0     H86623   1.203   0.958   3.447 -0.5737  1.0193 -0.5542
  628MOL0     H86624   1.219   1.051   3.607  3.1701  1.6697  0.6920
  628MOL0     H86625   1.361   0.987   3.528 -0.2688 -0.6977  2.1996
  628MOL0     H86626   0.738   1.066   3.385 -0.0483  0.2358  2.5087
  628MOL0     H86627   0.600   0.889   3.430  1.3915  1.0593  2.1257
  628MOL0     H86628   0.481   0.676   3.425  2.5381  0.5038  2.7200
  628MOL0     H86629   0.532   0.614   3.268 -3.1528 -2.5298 -0.3890
  628MOL0     H86630   0.533   0.443   3.510  1.8539 -0.8415 -0.3631
  628MOL0     H86631   0.390   0.458   3.408 -0.2677  2.4516 -0.5814
  628MOL0     H86632   0.507   0.376   3.203  4.2471 -1.9680 -2.0725
  628MOL0     H86633   0.494   0.263   3.337 -3.3063  0.5199 -2.7601
  628MOL0     H86634   0.731   0.366   3.388  1.9028  0.7841 -0.2629
  628MOL0     H86635   0.743   0.424   3.227  3.1672 -0.4021  3.0461
  628MOL0     H86636   0.688   0.144   3.309  3.5065  1.6789  3.6386
  628MOL0     H86637   0.688   0.187   3.133 -0.5285  1.3997 -0.3387
  628MOL0     H86638   0.919   0.186   3.337 -2.6905 -2.7375  0.4580
  628MOL0     H86639   0.932   0.262   3.181  1.1994 -1.4446 -1.5749
  628MOL0     H86640   0.922   0.074   3.059 -1.6875 -2.7650 -0.9590
  628MOL0     H86641   0.838  -0.009   3.180  0.2869 -1.1576 -4.2901
  628MOL0     H86642   1.072  -0.012   3.313  3.6678  0.0623  0.1191
  628MOL0     H86643   1.140   0.083   3.174  1.3324 -0.9522 -2.3698
  628MOL0     H86644   0.899   0.600   3.330 -0.6680  0.6322 -0.7638
  628MOL0     H86645   1.065   0.798   3.293 -0.4236 -0.8046 -0.7305
  628MOL0     H86646   1.070   1.359   3.270 -0.7782 -1.2064  0.3768
  628MOL0     H86647   1.299   1.474   3.207  3.1709  1.8831  1.2395
  628MOL0     H86648   3.454   1.714   3.567 -0.8290  1.4149 -0.0407
  628MOL0     H86649   3.670   1.692   3.455  0.5299 -0.5462  0.1262
  628MOL0     H86650   3.918   1.577   3.218  2.8520  0.4444  1.3863
  628MOL0     H86651   4.099   1.479   3.143  0.9292 -0.0248 -0.1842
  628MOL0     H86652   4.285   1.450   3.078 -0.2635 -0.0220 -0.8583
  628MOL0     H86653   4.416   1.422   2.964  1.8351 -0.4138  3.3083
  628MOL0     H86654   4.341   1.688   3.107  0.2464 -0.0461 -0.6836
  628MOL0     H86655   4.471   1.670   2.983 -1.2989  0.8335 -0.1612
  628MOL0     H86656   4.480   1.521   3.239  1.4425 -1.8704 -2.1674
  628MOL0     H86657   4.589   1.502   3.109 -0.7636 -0.0774 -0.8881
  628MOL0     H86658   4.533   1.761   3.243 -1.1115 -2.1630  0.2723
  628MOL0     H86659   4.649   1.734   3.109 -1.4985 -1.1959 -1.5555
  628MOL0     H86660   4.880   1.585   3.425  0.7911  0.8918 -0.1319
  628MOL0     H86661   4.097   1.675   2.773 -0.3026  0.8003 -0.3538
  628MOL0     H86662   3.914   1.885   2.753 -1.2916  0.8043  0.0808
  628MOL0     H86663   3.850   1.725   2.697 -2.8214  1.2641 -0.1750
  628MOL0     H86664   3.755   1.821   2.800 -0.3326  0.3149  1.3061
  629MOL0     O86665   9.287   4.880  11.013  0.1913 -0.8310  0.2524
  629MOL0     C86666   9.312   4.783  10.948 -0.3355 -0.1238  0.3726
  629MOL0     O86667   9.406   4.769  10.851 -0.3886  0.1898 -0.4839
  629MOL0     C86668   9.511   4.853  10.823  0.8207 -0.3911 -0.6097
  629MOL0     C86669   9.557   4.955  10.903  0.5038  0.0465 -0.6239
  629MOL0     C86670   9.645   5.055  10.873 -0.2121  0.6887 -0.5066
  629MOL0     C86671   9.713   5.042  10.755  0.0175  0.0194 -0.6735
  629MOL0     O86672   9.815   5.122  10.703  0.5150 -0.2922 -0.0356
  629MOL0     C86673   9.790   5.263  10.711  0.5651  0.5420 -0.4428
  629MOL0     C86674   9.865   5.318  10.838 -0.9775 -0.0727  0.1331
  629MOL0     C86675   9.791   5.435  10.899 -0.3503 -1.5323 -0.0160
  629MOL0     C86676   9.868   5.516  11.001  0.2743  0.3072  0.4068
  629MOL0     C86677   9.810   5.654  11.037  0.0816  0.5587 -0.4449
  629MOL0     C86678   9.906   5.712  11.134 -0.2862  0.0371  0.5707
  629MOL0     C86679   9.919   5.858  11.143 -0.1280  0.4930 -0.3031
  629MOL0     C86680   9.800   5.936  11.200 -0.2019  0.8832  0.4945
  629MOL0     N86681   9.721   5.877  11.312 -0.7605 -0.0858 -0.0722
  629MOL0     C86682   9.596   5.821  11.304 -0.3768 -0.0578  0.2975
  629MOL0     C86683   9.589   5.752  11.419  0.2153 -0.9493 -0.8802
  629MOL0     C86684   9.467   5.671  11.461 -0.4746  1.0334  0.1838
  629MOL0     C86685   9.348   5.759  11.504 -0.8656 -0.7140  0.9265
  629MOL0     C86686   9.228   5.668  11.532 -0.0923 -0.2634  0.4340
  629MOL0     C86687   9.116   5.732  11.623  1.5045  1.0889 -0.6880
  629MOL0     O86688   9.016   5.803  11.549 -0.0827  0.2372  0.0612
  629MOL0     C86689   8.923   5.738  11.473 -0.5679 -0.6660  0.3675
  629MOL0     C86690   8.872   5.612  11.489  0.2545  0.4521 -0.1179
  629MOL0     C86691   8.768   5.563  11.408 -0.3955 -0.1278 -0.6461
  629MOL0     C86692   8.723   5.415  11.443 -0.3549 -0.4952  0.2660
  629MOL0     C86693   8.710   5.644  11.314 -0.0654  0.1660 -1.5582
  629MOL0     C86694   8.601   5.600  11.229  0.1578 -1.2455  1.4318
  629MOL0     O86695   8.529   5.697  11.174 -0.7170 -0.0730 -0.0952
  629MOL0     C86696   8.410   5.674  11.115  1.0610 -0.8370  0.2893
  629MOL0     C86697   8.308   5.599  11.180  0.1272 -0.0775  0.5204
  629MOL0     C86698   8.187   5.579  11.110 -1.2721 -0.1300 -1.5701
  629MOL0     C86699   8.163   5.633  10.986  0.2863 -0.3293  0.3501
  629MOL0     O86700   8.048   5.621  10.907 -0.0999  0.6022 -0.3625
  629MOL0     C86701   7.937   5.537  10.949 -0.2410 -0.0531 -0.3989
  629MOL0     C86702   7.878   5.477  10.816 -0.1674  0.0109 -0.4602
  629MOL0     C86703   7.769   5.368  10.842 -0.7791  0.9546  0.5091
  629MOL0     C86704   7.741   5.304  10.704  0.1718  0.5099  0.2224
  629MOL0     C86705   7.594   5.231  10.692 -0.9770 -0.2897  1.0708
  629MOL0     C86706   7.596   5.106  10.783 -0.0609  0.2994 -0.2189
  629MOL0     C86707   7.453   5.055  10.815  0.4013  0.2129 -0.2282
  629MOL0     C86708   7.455   4.903  10.799 -0.7846  0.6033  0.3974
  629MOL0    Cl86709   7.470   4.848  10.629  0.2272 -0.4744  0.1844
  629MOL0     C86710   8.263   5.716  10.925 -0.0039  0.3255  0.5209
  629MOL0     C86711   8.386   5.732  10.990  0.2638  0.4284  0.4558
  629MOL0     O86712   8.582   5.486  11.204 -0.8839 -0.7748 -0.4082
  629MOL0     C86713   8.767   5.776  11.296  0.7849  0.6013  1.0181
  629MOL0     C86714   8.870   5.820  11.371 -0.4137 -0.3722  0.0598
  629MOL0     N86715   9.696   5.792  11.499 -0.6535  0.1337 -0.1354
  629MOL0     N86716   9.774   5.863  11.429 -0.3233  0.7939  0.1342
  629MOL0     C86717   9.677   4.927  10.681  0.8082 -0.6945  0.8124
  629MOL0     C86718   9.575   4.840  10.704 -0.5144 -0.4258 -0.8357
  629MOL0     C86719   9.219   4.665  10.974 -0.4946  0.1324 -0.6118
  629MOL0     C86720   9.280   4.540  10.956 -1.2024 -0.4015  0.3574
  629MOL0     C86721   9.209   4.424  10.972  1.0379 -0.4427  0.0060
  629MOL0     C86722   9.079   4.429  11.017  0.4080  0.2527 -0.7038
  629MOL0     O86723   9.015   4.310  11.040  0.6308  0.1493 -0.7775
  629MOL0     C86724   8.885   4.298  11.108  0.2453 -0.4192 -0.2769
  629MOL0     C86725   8.825   4.161  11.094  0.8785  0.3420  1.0223
  629MOL0     C86726   8.770   4.135  10.954 -0.3520  0.1535 -0.9810
  629MOL0     C86727   8.722   3.997  10.924  0.3755 -0.0793 -0.0709
  629MOL0     C86728   8.828   3.900  10.927  0.6553  0.0895 -0.6899
  629MOL0     C86729   8.908   3.809  10.934 -0.4024 -0.9255 -0.6254
  629MOL0     C86730   9.013   4.549  11.037 -0.8572 -1.5242  0.3161
  629MOL0     C86731   9.082   4.672  11.006 -0.1676  0.1532  0.4979
  629MOL0     C86732   9.013   4.804  11.017 -0.0426 -0.3857  0.3424
  629MOL0     H86733   9.503   4.966  10.997 -3.1742  1.7579 -2.6861
  629MOL0     H86734   9.679   5.132  10.942  2.9620 -1.4745  0.5885
  629MOL0     H86735   9.685   5.291  10.706  0.3633 -0.3017 -1.2930
  629MOL0     H86736   9.846   5.308  10.629 -0.5178  3.0925  0.1177
  629MOL0     H86737   9.851   5.246  10.919  1.1075  1.8616  2.3789
  629MOL0     H86738   9.971   5.336  10.822 -1.6837  4.4059 -1.0109
  629MOL0     H86739   9.774   5.507  10.818  0.7891 -0.1439  0.9217
  629MOL0     H86740   9.700   5.412  10.956  0.4999  0.2082  2.2329
  629MOL0     H86741   9.875   5.470  11.100 -1.4172  0.5945  0.6859
  629MOL0     H86742   9.966   5.528  10.953 -0.2504  0.5345 -0.6148
  629MOL0     H86743   9.712   5.637  11.084  1.4272 -5.3906  0.9739
  629MOL0     H86744   9.811   5.717  10.948  0.2305  3.5709  1.5383
  629MOL0     H86745   9.896   5.669  11.234  0.3199 -0.2458  0.5130
  629MOL0     H86746  10.009   5.679  11.116 -1.4658 -2.3426 -3.0117
  629MOL0     H86747   9.952   5.890  11.044 -0.4416  0.9818 -0.2547
  629MOL0     H86748   9.997   5.886  11.214  0.4571  1.3401 -1.2454
  629MOL0     H86749   9.836   6.031  11.239  1.4709  0.5440 -0.1749
  629MOL0     H86750   9.727   5.938  11.118 -1.5969 -2.2991  1.5021
  629MOL0     H86751   9.525   5.818  11.222  2.1340  0.5400 -2.0227
  629MOL0     H86752   9.488   5.608  11.549  0.7506  0.7459 -0.2918
  629MOL0     H86753   9.445   5.601  11.380 -1.0764 -1.2733  2.1929
  629MOL0     H86754   9.386   5.818  11.589  1.4591  2.0874 -1.8052
  629MOL0     H86755   9.323   5.828  11.423 -0.7981 -0.9454  0.7077
  629MOL0     H86756   9.184   5.640  11.436  1.4301 -0.5494 -0.2201
  629MOL0     H86757   9.273   5.575  11.569 -0.0006 -0.3230  0.1761
  629MOL0     H86758   9.062   5.659  11.684  2.4198 -0.9595 -2.1957
  629MOL0     H86759   9.171   5.814  11.671  4.2816  2.0106 -4.8896
  629MOL0     H86760   8.911   5.537  11.558 -0.2805 -1.5932 -1.9261
  629MOL0     H86761   8.795   5.352  11.496  0.0163 -2.5935 -2.4584
  629MOL0     H86762   8.706   5.368  11.345 -1.3369  1.6420 -0.6593
  629MOL0     H86763   8.632   5.413  11.504  0.3843  2.3901  1.6070
  629MOL0     H86764   8.317   5.562  11.282 -0.7948 -2.4881 -0.2032
  629MOL0     H86765   8.112   5.541  11.179 -3.4133  5.0392 -0.5916
  629MOL0     H86766   7.967   5.449  11.006  1.5713  0.3108 -0.7328
  629MOL0     H86767   7.856   5.589  11.002 -0.9748  0.0746 -1.6130
  629MOL0     H86768   7.834   5.557  10.756 -4.1194 -2.0785 -0.6740
  629MOL0     H86769   7.967   5.433  10.769 -0.1190 -2.0005  1.3416
  629MOL0     H86770   7.675   5.405  10.884 -0.5674 -0.3972  2.2687
  629MOL0     H86771   7.804   5.284  10.903  2.0611  0.3578 -1.7226
  629MOL0     H86772   7.818   5.230  10.684 -0.8536 -1.6248  3.3747
  629MOL0     H86773   7.749   5.382  10.628 -0.7725  0.7717  0.3691
  629MOL0     H86774   7.518   5.306  10.716 -0.5949  0.3621  0.2969
  629MOL0     H86775   7.574   5.182  10.596 -0.8594 -0.2900  1.0460
  629MOL0     H86776   7.653   5.115  10.876 -0.0919 -4.7880  0.5909
  629MOL0     H86777   7.651   5.030  10.726  1.7893 -1.9525  4.1034
  629MOL0     H86778   7.378   5.100  10.750 -0.8375 -1.2483  0.1324
  629MOL0     H86779   7.420   5.074  10.918  0.1964  4.0130 -0.8656
  629MOL0     H86780   7.360   4.865  10.839 -2.9105  0.5812 -3.9800
  629MOL0     H86781   7.523   4.860  10.872 -0.7115  1.9366  1.1463
  629MOL0     H86782   8.256   5.766  10.829  0.2687 -0.3544  0.1427
  629MOL0     H86783   8.449   5.807  10.942  0.3278  0.0326 -0.0946
  629MOL0     H86784   8.734   5.840  11.216 -0.6967  0.9323  1.8563
  629MOL0     H86785   8.901   5.921  11.347 -1.7273  0.6104  2.1877
  629MOL0     H86786   9.736   4.914  10.591  0.4577 -2.6624  0.8061
  629MOL0     H86787   9.556   4.756  10.639  0.8102 -1.5790  0.2071
  629MOL0     H86788   9.383   4.530  10.924 -1.4891 -0.4086 -0.5908
  629MOL0     H86789   9.256   4.333  10.937 -0.3284  0.3591 -4.5343
  629MOL0     H86790   8.906   4.311  11.215  2.3769 -1.4052 -0.5153
  629MOL0     H86791   8.808   4.362  11.065 -1.3359  0.1229  3.0588
  629MOL0     H86792   8.744   4.150  11.167  1.3253 -0.5096  1.4125
  629MOL0     H86793   8.901   4.087  11.122 -0.9101 -1.3821  1.5611
  629MOL0     H86794   8.682   4.200  10.950 -1.3207 -0.5260  3.6060
  629MOL0     H86795   8.853   4.164  10.889  2.7924 -1.3985  2.0269
  629MOL0     H86796   8.679   4.002  10.824  1.0760  1.0359 -0.3336
  629MOL0     H86797   8.648   3.976  11.001 -0.5472 -1.2853 -1.2338
  629MOL0     H86798   8.982   3.732  10.926  1.3738  0.7717 -1.5083
  629MOL0     H86799   8.909   4.553  11.067 -1.3851 -2.6577 -1.2417
  629MOL0     H86800   8.913   4.790  10.976 -1.3280  0.3182  2.9988
  629MOL0     H86801   9.001   4.829  11.123  1.6579  1.3779  0.1880
  629MOL0     H86802   9.054   4.892  10.966 -0.3444 -0.3873  0.0980
  630MOL0     O86803   5.164   1.857   8.611 -0.0749 -0.3129 -0.1471
  630MOL0     C86804   5.220   1.779   8.689 -0.3363 -0.8393 -0.6270
  630MOL0     O86805   5.170   1.737   8.806 -0.3614 -0.5374  0.3566
  630MOL0     C86806   5.046   1.788   8.836 -0.3042 -0.3850 -0.0147
  630MOL0     C86807   5.049   1.902   8.913 -0.7792  0.7218 -0.3032
  630MOL0     C86808   4.931   1.974   8.933 -0.6961  0.2103 -0.2694
  630MOL0     C86809   4.807   1.903   8.899 -0.4157 -0.2327 -0.1479
  630MOL0     O86810   4.682   1.952   8.932 -0.3053 -0.2246 -0.0648
  630MOL0     C86811   4.673   2.044   9.046 -0.3177 -0.9670  0.0295
  630MOL0     C86812   4.523   2.053   9.110  0.0058 -0.2500 -0.0838
  630MOL0     C86813   4.425   2.109   9.011 -0.4929 -0.0019 -1.1842
  630MOL0     C86814   4.286   2.162   9.096  0.2796 -0.6349  0.7735
  630MOL0     C86815   4.191   2.236   9.001 -0.0074  0.0353  0.8402
  630MOL0     C86816   4.062   2.271   9.065 -0.4587 -0.1777 -0.0597
  630MOL0     C86817   3.979   2.370   8.984 -0.5526 -0.8218  0.0845
  630MOL0     C86818   4.053   2.509   8.981  0.6514 -0.9009  0.3945
  630MOL0     N86819   3.954   2.614   8.934  0.1694  1.0619  0.2834
  630MOL0     C86820   3.848   2.661   9.004 -0.7837  0.0392  0.7577
  630MOL0     C86821   3.795   2.758   8.932 -0.6719 -0.1118 -0.6591
  630MOL0     C86822   3.672   2.840   8.963 -1.1058  0.2153 -0.1763
  630MOL0     C86823   3.619   2.850   9.105 -0.0752  0.4276  0.0469
  630MOL0     C86824   3.502   2.953   9.107  0.3634  1.4248 -0.6396
  630MOL0     C86825   3.373   2.885   9.065 -0.0879  1.0680  0.3285
  630MOL0     O86826   3.316   2.826   9.185  0.2560 -0.1181 -0.6058
  630MOL0     C86827   3.291   2.693   9.175 -0.5895  0.2096  0.3365
  630MOL0     C86828   3.313   2.618   9.295  0.0874  0.3041  0.1272
  630MOL0     C86829   3.262   2.489   9.312  0.6498  0.3870 -1.5664
  630MOL0     C86830   3.295   2.433   9.448 -0.2876 -0.1127 -0.3735
  630MOL0     C86831   3.178   2.427   9.217 -0.3291 -0.1901  0.0937
  630MOL0     C86832   3.108   2.297   9.242 -0.1472  0.7339 -0.2120
  630MOL0     O86833   2.999   2.268   9.170  0.0663 -0.7645  1.5349
  630MOL0     C86834   2.943   2.145   9.191  0.1963 -1.2541  0.1785
  630MOL0     C86835   3.003   2.039   9.132  0.7399 -0.2626 -0.7913
  630MOL0     C86836   2.951   1.907   9.140  0.1642 -0.1302 -0.6625
  630MOL0     C86837   2.828   1.880   9.208 -0.3327 -0.1918  0.9556
  630MOL0     O86838   2.767   1.758   9.203 -0.1873 -0.0413  0.4370
  630MOL0     C86839   2.621   1.764   9.186 -0.4320 -0.7907  0.8947
  630MOL0     C86840   2.574   1.619   9.149  0.3517 -0.1497  0.9741
  630MOL0     C86841   2.537   1.526   9.265  0.4247  0.3753  0.2258
  630MOL0     C86842   2.462   1.406   9.212  0.3697 -0.5914 -0.7263
  630MOL0     C86843   2.482   1.280   9.289 -0.5671 -0.4549  0.6121
  630MOL0     C86844   2.483   1.158   9.202  0.0902  0.2084  0.3838
  630MOL0     C86845   2.444   1.013   9.250 -0.7671  0.0717  0.6787
  630MOL0     C86846   2.501   0.982   9.384  0.5261 -0.0889  0.1725
  630MOL0    Cl86847   2.435   0.829   9.454 -0.2263 -0.6033 -0.1009
  630MOL0     C86848   2.770   1.985   9.280 -0.1462  0.4898 -0.1527
  630MOL0     C86849   2.829   2.119   9.276  0.1560  0.5409  0.4368
  630MOL0     O86850   3.154   2.220   9.330 -0.7852 -0.4046  0.2085
  630MOL0     C86851   3.157   2.502   9.094 -0.4009  0.6815  0.0956
  630MOL0     C86852   3.213   2.628   9.072  0.7479  0.7709  0.5415
  630MOL0     N86853   3.874   2.782   8.818  0.0227  0.9559 -0.3191
  630MOL0     N86854   3.969   2.691   8.824  0.0733 -0.4716  0.3840
  630MOL0     C86855   4.804   1.794   8.822  0.2943 -0.3017  0.9433
  630MOL0     C86856   4.923   1.725   8.798 -0.4744 -0.1574 -0.6618
  630MOL0     C86857   5.350   1.727   8.641 -0.6496 -0.2547 -0.4939
  630MOL0     C86858   5.373   1.730   8.506 -0.5518  0.0068  0.6302
  630MOL0     C86859   5.500   1.690   8.454 -0.4005 -1.3717 -0.3462
  630MOL0     C86860   5.604   1.655   8.528  0.3783  0.6459  0.1528
  630MOL0     O86861   5.710   1.601   8.462 -0.3810 -1.4419  0.2687
  630MOL0     C86862   5.749   1.477   8.513 -1.8451 -0.9099 -0.4533
  630MOL0     C86863   5.871   1.411   8.441 -0.0502  0.7010  0.1327
  630MOL0     C86864   5.912   1.283   8.521  0.4710  0.9006  0.5662
  630MOL0     C86865   6.035   1.217   8.451 -0.0826 -0.1783 -0.1865
  630MOL0     C86866   5.989   1.099   8.374  0.0223 -0.4386 -1.0432
  630MOL0     C86867   5.930   1.015   8.310  0.7146  0.6469 -0.4856
  630MOL0     C86868   5.583   1.658   8.663 -0.6147  0.1056 -1.2470
  630MOL0     C86869   5.457   1.696   8.724 -0.2700  0.1289  0.2427
  630MOL0     C86870   5.455   1.709   8.877  0.0006  0.4820  0.1550
  630MOL0     H86871   5.141   1.947   8.949  0.1092 -1.9235  1.0074
  630MOL0     H86872   4.933   2.075   8.973 -0.4377  0.6893 -1.4668
  630MOL0     H86873   4.708   2.138   9.003  0.2157 -0.3743  1.6627
  630MOL0     H86874   4.741   2.015   9.127 -0.5871 -0.7682  0.3278
  630MOL0     H86875   4.487   1.950   9.121 -0.0093 -0.1406  1.0940
  630MOL0     H86876   4.523   2.103   9.207  5.5196 -0.5637  0.3916
  630MOL0     H86877   4.476   2.189   8.957  0.6719 -0.0813 -0.2366
  630MOL0     H86878   4.390   2.033   8.940 -0.6644 -1.4370  0.3607
  630MOL0     H86879   4.240   2.073   9.139 -0.9989 -1.3508 -1.8716
  630MOL0     H86880   4.323   2.232   9.172 -1.8063  2.9007 -1.1701
  630MOL0     H86881   4.174   2.187   8.904  0.8360 -2.5482  1.9251
  630MOL0     H86882   4.243   2.331   8.984  0.5107 -0.4583 -0.4351
  630MOL0     H86883   4.004   2.180   9.076  2.6097 -2.1381  1.2812
  630MOL0     H86884   4.082   2.321   9.161 -2.1680  1.0698 -0.2992
  630MOL0     H86885   3.878   2.364   9.027 -0.5605  0.4594  0.2596
  630MOL0     H86886   3.983   2.328   8.884  1.9813 -1.3331  0.3444
  630MOL0     H86887   4.104   2.543   9.071 -2.7536  0.9449  1.7936
  630MOL0     H86888   4.128   2.503   8.901  1.7325  1.4649  1.1379
  630MOL0     H86889   3.821   2.632   9.105 -0.4330 -0.3347  0.7465
  630MOL0     H86890   3.597   2.799   8.896 -0.5308  2.0399 -2.0416
  630MOL0     H86891   3.691   2.940   8.924  1.6496  0.5103  1.5947
  630MOL0     H86892   3.582   2.753   9.140 -1.0542  0.5891 -0.5146
  630MOL0     H86893   3.699   2.888   9.170  0.6763  1.0123 -1.1881
  630MOL0     H86894   3.491   2.999   9.206 -1.8157  5.0310 -2.3554
  630MOL0     H86895   3.527   3.033   9.037 -0.6238  1.0292 -1.4635
  630MOL0     H86896   3.317   2.966   9.017  0.8491  0.9909 -0.9564
  630MOL0     H86897   3.390   2.811   8.986  2.4031 -0.5732  2.2491
  630MOL0     H86898   3.376   2.662   9.371  0.7718  3.4540 -2.0353
  630MOL0     H86899   3.339   2.503   9.519  0.7180  0.8452 -1.8866
  630MOL0     H86900   3.350   2.339   9.446 -3.5880 -2.5045  3.7163
  630MOL0     H86901   3.208   2.407   9.509 -0.0993  0.9833  0.3942
  630MOL0     H86902   3.103   2.053   9.091  0.1311 -0.8009 -2.5796
  630MOL0     H86903   3.009   1.837   9.081 -0.5281 -0.2132 -1.2682
  630MOL0     H86904   2.555   1.800   9.265 -1.7288 -1.3443  0.1022
  630MOL0     H86905   2.596   1.823   9.097 -1.3256 -2.4394  0.0062
  630MOL0     H86906   2.493   1.631   9.077 -0.6304 -0.2530  2.0401
  630MOL0     H86907   2.654   1.571   9.091  0.9650 -0.9948  2.4659
  630MOL0     H86908   2.470   1.585   9.329  1.2816  0.9555  0.6162
  630MOL0     H86909   2.633   1.501   9.312  0.0893 -0.6899  0.3632
  630MOL0     H86910   2.488   1.406   9.106 -0.9277  0.3697 -1.0776
  630MOL0     H86911   2.354   1.424   9.221  0.7030  0.8098  1.1890
  630MOL0     H86912   2.579   1.279   9.341 -0.7072 -0.7419  0.8692
  630MOL0     H86913   2.417   1.268   9.376  2.0231  0.9665  2.9132
  630MOL0     H86914   2.588   1.146   9.173  0.6611  2.3384  1.3809
  630MOL0     H86915   2.415   1.184   9.121 -0.5831  0.4735  1.0219
  630MOL0     H86916   2.476   0.940   9.174 -1.6058 -2.0255  2.2491
  630MOL0     H86917   2.336   0.998   9.256 -0.4304 -2.1625  2.4660
  630MOL0     H86918   2.502   1.050   9.470  3.9016 -1.9069  1.7832
  630MOL0     H86919   2.604   0.963   9.352  0.0549 -1.1512 -0.7824
  630MOL0     H86920   2.692   1.960   9.351  0.3062 -0.9553 -0.1326
  630MOL0     H86921   2.767   2.184   9.336 -4.5097 -3.3903  0.5002
  630MOL0     H86922   3.095   2.462   9.014 -0.0535  1.1370 -0.4145
  630MOL0     H86923   3.183   2.684   8.984 -0.9593 -1.6736 -0.5455
  630MOL0     H86924   4.712   1.753   8.782  1.3034 -2.1029  0.3048
  630MOL0     H86925   4.936   1.626   8.755  2.2961 -0.4999  0.7879
  630MOL0     H86926   5.297   1.770   8.440 -0.8727  0.1943  1.0993
  630MOL0     H86927   5.502   1.682   8.346 -0.1473  1.1562 -0.5859
  630MOL0     H86928   5.759   1.479   8.622 -1.9893 -0.6531 -0.4428
  630MOL0     H86929   5.666   1.409   8.490 -1.4081 -2.6254  2.5143
  630MOL0     H86930   5.954   1.482   8.436 -1.1191  2.0576  0.8719
  630MOL0     H86931   5.838   1.387   8.340  3.1358  0.7703 -1.0439
  630MOL0     H86932   5.944   1.308   8.623 -2.3621 -1.1177  2.1242
  630MOL0     H86933   5.836   1.207   8.544  3.0620 -0.6265  5.8137
  630MOL0     H86934   6.096   1.194   8.538 -0.7358  0.7226  0.5310
  630MOL0     H86935   6.091   1.295   8.397  0.7063  0.1186  1.0221
  630MOL0     H86936   5.887   0.933   8.256 -1.1097  0.6402  0.9031
  630MOL0     H86937   5.663   1.641   8.735  0.0139 -0.6870 -2.1046
  630MOL0     H86938   5.553   1.694   8.922 -0.5731  1.2419  1.7015
  630MOL0     H86939   5.422   1.803   8.921 -3.4416 -0.8944  0.8528
  630MOL0     H86940   5.384   1.635   8.915 -1.9514 -0.0490 -3.9416
  631MOL0     O86941   5.149   3.091   2.277 -0.0080 -0.0982 -0.1005
  631MOL0     C86942   5.235   3.142   2.348  0.4955 -0.2035  0.6618
  631MOL0     O86943   5.247   3.277   2.359  0.4940 -0.6824  0.6548
  631MOL0     C86944   5.164   3.360   2.294 -0.1564  0.3201  0.5058
  631MOL0     C86945   5.102   3.453   2.375  0.5185  0.5564  0.5038
  631MOL0     C86946   5.012   3.545   2.313 -0.2651 -0.3836  0.7963
  631MOL0     C86947   4.994   3.548   2.171  0.7687 -0.4721 -0.2973
  631MOL0     O86948   4.915   3.648   2.110  0.3432 -0.4971  0.2157
  631MOL0     C86949   4.952   3.701   1.988 -0.7319  0.2629  0.1334
  631MOL0     C86950   4.845   3.805   1.946  0.0425 -0.2478 -0.4748
  631MOL0     C86951   4.841   3.921   2.045 -0.2238 -1.0211  0.2234
  631MOL0     C86952   4.755   4.037   1.981 -0.1785  0.4473  0.6548
  631MOL0     C86953   4.713   4.141   2.085 -0.8400 -0.0757  0.8275
  631MOL0     C86954   4.611   4.246   2.025  0.3888  0.2483 -0.2643
  631MOL0     C86955   4.462   4.189   2.007  0.6582 -0.3055 -0.2986
  631MOL0     C86956   4.374   4.256   2.110 -1.1404  0.6792  0.0393
  631MOL0     N86957   4.379   4.178   2.233 -0.7513  0.5008 -0.6162
  631MOL0     C86958   4.309   4.060   2.239 -1.0007  0.6422  0.6325
  631MOL0     C86959   4.365   4.000   2.338 -0.6666 -0.8086 -1.3642
  631MOL0     C86960   4.329   3.855   2.376  0.2974 -0.2523 -0.0262
  631MOL0     C86961   4.435   3.744   2.353  0.8577 -0.9380 -0.2539
  631MOL0     C86962   4.378   3.605   2.360  0.0626  1.0954  0.5125
  631MOL0     C86963   4.447   3.522   2.458 -1.7065  0.6987 -0.5639
  631MOL0     O86964   4.585   3.493   2.426 -0.4391  0.2684 -0.2088
  631MOL0     C86965   4.639   3.408   2.519 -0.6609  0.1148  1.4311
  631MOL0     C86966   4.727   3.308   2.472  0.1763  1.1809 -0.3569
  631MOL0     C86967   4.816   3.234   2.560 -0.3199  0.5702 -1.2358
  631MOL0     C86968   4.920   3.142   2.498 -0.0288 -0.2923 -0.2960
  631MOL0     C86969   4.803   3.250   2.699 -1.3550  1.2219 -0.8603
  631MOL0     C86970   4.873   3.164   2.796  0.5799 -0.7899  0.2724
  631MOL0     O86971   4.944   3.056   2.758 -0.2346 -0.1192 -0.0874
  631MOL0     C86972   5.026   2.984   2.847 -0.5404 -0.1360 -0.7169
  631MOL0     C86973   5.029   2.996   2.986  0.1160  0.4136 -0.3346
  631MOL0     C86974   5.121   2.930   3.067 -0.2281 -0.7540 -0.4436
  631MOL0     C86975   5.218   2.851   3.005 -0.6951  1.1057  0.3609
  631MOL0     O86976   5.274   2.763   3.086 -0.4351 -0.0303 -0.1941
  631MOL0     C86977   5.342   2.654   3.030 -0.3706  0.1358  0.0369
  631MOL0     C86978   5.407   2.564   3.141  0.5742 -0.0870 -0.5381
  631MOL0     C86979   5.397   2.414   3.123  0.5157  0.4442 -0.1315
  631MOL0     C86980   5.453   2.345   3.246  0.7066 -0.4615 -0.0661
  631MOL0     C86981   5.487   2.203   3.199  0.4747 -0.1157 -0.4497
  631MOL0     C86982   5.504   2.096   3.308  0.4298  0.8623 -0.2695
  631MOL0     C86983   5.530   1.952   3.253 -0.3452 -0.9374 -0.5697
  631MOL0     C86984   5.625   1.941   3.127  0.4325  0.5199 -0.3854
  631MOL0    Cl86985   5.641   1.771   3.067 -0.3451  0.7666 -0.0302
  631MOL0     C86986   5.227   2.838   2.866 -0.0161  0.7784  0.7373
  631MOL0     C86987   5.125   2.902   2.794  0.2034  0.0692  0.4579
  631MOL0     O86988   4.859   3.200   2.913  1.1368  0.1718  0.3109
  631MOL0     C86989   4.723   3.352   2.749  0.3085 -0.9484  0.6780
  631MOL0     C86990   4.653   3.443   2.657 -0.4222  0.1081 -0.3477
  631MOL0     N86991   4.459   4.085   2.401  0.8491 -0.2618  1.0899
  631MOL0     N86992   4.463   4.187   2.336  0.6324 -0.0850 -0.2664
  631MOL0     C86993   5.052   3.451   2.096  0.7621  0.3055  0.8240
  631MOL0     C86994   5.136   3.354   2.151  0.8111 -0.4370  0.5026
  631MOL0     C86995   5.336   3.065   2.436  0.1706 -0.1933  0.5843
  631MOL0     C86996   5.357   3.121   2.562 -0.1914  0.4083  0.6091
  631MOL0     C86997   5.429   3.045   2.655  0.0737 -0.2661  0.4748
  631MOL0     C86998   5.477   2.924   2.623 -0.8348 -0.5969  0.0785
  631MOL0     O86999   5.570   2.858   2.707  0.4787  0.5872  0.0709
  631MOL0     C87000   5.624   2.935   2.808 -0.0733 -0.7834 -0.4775
  631MOL0     C87001   5.754   2.893   2.888 -0.3945  0.4727 -0.3977
  631MOL0     C87002   5.756   2.748   2.938 -0.1881  0.1357  0.2097
  631MOL0     C87003   5.840   2.657   2.858 -1.2567  1.2865 -0.4602
  631MOL0     C87004   5.987   2.675   2.880  0.6411  0.1630 -0.0022
  631MOL0     C87005   6.102   2.707   2.900  0.3973 -0.5508  0.3574
  631MOL0     C87006   5.462   2.875   2.498  0.2425  0.4936  0.1303
  631MOL0     C87007   5.382   2.947   2.394  0.5137  0.2953 -0.6972
  631MOL0     C87008   5.371   2.901   2.252  0.9557  0.0262 -0.0686
  631MOL0     H87009   5.126   3.444   2.481  0.2124  1.1058  0.6221
  631MOL0     H87010   4.978   3.627   2.376  0.5088  1.5957 -1.2072
  631MOL0     H87011   4.952   3.621   1.913  0.6027  0.9550 -0.6425
  631MOL0     H87012   5.047   3.755   1.984 -1.6003  1.8038 -0.9372
  631MOL0     H87013   4.890   3.845   1.855  3.3180  0.8321  1.4543
  631MOL0     H87014   4.748   3.754   1.945  0.8489 -1.8424 -1.0135
  631MOL0     H87015   4.791   3.881   2.134 -1.6149 -1.2822 -0.6529
  631MOL0     H87016   4.938   3.963   2.072 -0.7468  0.8775 -0.7159
  631MOL0     H87017   4.817   4.086   1.905 -1.6622 -0.5854 -1.2942
  631MOL0     H87018   4.672   3.995   1.924  0.3535  2.2103 -1.5479
  631MOL0     H87019   4.801   4.204   2.103  1.6819 -3.5811  2.0040
  631MOL0     H87020   4.691   4.100   2.184 -1.0037  0.2497  0.9266
  631MOL0     H87021   4.614   4.335   2.088  1.8751  0.7096 -0.9593
  631MOL0     H87022   4.642   4.285   1.928 -2.9143  0.1444 -1.4808
  631MOL0     H87023   4.451   4.080   2.005 -0.9203 -0.2148  1.2204
  631MOL0     H87024   4.424   4.217   1.908 -4.4235 -1.9483  0.8858
  631MOL0     H87025   4.399   4.361   2.125 -1.4484  1.0461 -1.7156
  631MOL0     H87026   4.274   4.271   2.067 -0.6227  3.6625 -0.3371
  631MOL0     H87027   4.232   4.031   2.168  0.8066 -1.4694 -0.5816
  631MOL0     H87028   4.245   3.845   2.307  1.9634  0.7274 -2.3162
  631MOL0     H87029   4.298   3.858   2.481  2.7283  3.2955  0.8012
  631MOL0     H87030   4.474   3.756   2.251 -0.1368  1.0179 -0.4533
  631MOL0     H87031   4.517   3.754   2.425 -0.3155 -1.1593  1.1615
  631MOL0     H87032   4.272   3.612   2.386 -1.0355 -1.0601 -2.7264
  631MOL0     H87033   4.390   3.554   2.264 -0.4965 -1.2341  1.5938
  631MOL0     H87034   4.444   3.564   2.559  1.4483  0.5542 -0.2902
  631MOL0     H87035   4.396   3.426   2.467 -2.6790  1.3882  2.1596
  631MOL0     H87036   4.726   3.287   2.366 -0.9996 -0.2691 -0.0970
  631MOL0     H87037   5.024   3.143   2.532 -0.1703 -0.7508  0.1609
  631MOL0     H87038   4.924   3.165   2.391 -2.1691  1.0382 -0.1354
  631MOL0     H87039   4.883   3.040   2.503  0.5828 -0.4934  0.3537
  631MOL0     H87040   4.958   3.045   3.052  2.1708 -0.4748  2.6979
  631MOL0     H87041   5.122   2.933   3.176 -1.7004 -1.1743 -0.4003
  631MOL0     H87042   5.265   2.600   2.973 -3.2748  1.8063  2.0689
  631MOL0     H87043   5.422   2.673   2.959 -0.5566 -2.4099 -0.9566
  631MOL0     H87044   5.513   2.592   3.143  1.3233 -2.7523  1.4506
  631MOL0     H87045   5.359   2.597   3.234  0.7634  0.8376 -0.7579
  631MOL0     H87046   5.449   2.373   3.036  1.4739  0.0187  0.6169
  631MOL0     H87047   5.296   2.387   3.092  1.2164  1.6933 -4.0074
  631MOL0     H87048   5.370   2.345   3.317 -0.4926 -0.1354 -1.4391
  631MOL0     H87049   5.529   2.402   3.301 -1.7430  0.4780  2.5922
  631MOL0     H87050   5.411   2.175   3.126 -0.5480  1.1575  0.0869
  631MOL0     H87051   5.583   2.206   3.147  0.8745 -2.0133  0.1019
  631MOL0     H87052   5.415   2.091   3.371  0.3552 -4.0265 -0.3468
  631MOL0     H87053   5.591   2.109   3.373  0.5040 -4.7189  1.3166
  631MOL0     H87054   5.432   1.917   3.220 -0.9347  0.4904 -0.4306
  631MOL0     H87055   5.575   1.893   3.334  0.8455 -0.4956 -0.8953
  631MOL0     H87056   5.720   1.992   3.144 -0.5888  2.3802 -0.1018
  631MOL0     H87057   5.575   2.006   3.056 -0.9240 -0.0959 -0.0229
  631MOL0     H87058   5.297   2.777   2.810 -1.6673 -0.1060 -0.4375
  631MOL0     H87059   5.130   2.886   2.687  1.8942 -2.9265  0.8675
  631MOL0     H87060   4.712   3.379   2.854  1.7088  1.0616  0.3579
  631MOL0     H87061   4.607   3.532   2.696  0.0716 -0.3866  1.4881
  631MOL0     H87062   5.029   3.448   1.990  1.7142 -2.8466  0.5861
  631MOL0     H87063   5.181   3.276   2.090 -0.8322 -1.0571  0.0255
  631MOL0     H87064   5.306   3.216   2.578  1.6429  2.8861 -5.3170
  631MOL0     H87065   5.421   3.096   2.751  1.7686 -0.3458  0.6784
  631MOL0     H87066   5.651   3.032   2.767  0.2243 -0.5426  0.2686
  631MOL0     H87067   5.553   2.942   2.891 -0.0920 -0.2390 -0.5413
  631MOL0     H87068   5.791   2.958   2.968 -0.3849 -0.3816  0.3091
  631MOL0     H87069   5.838   2.904   2.819  2.2098 -0.1752  2.4728
  631MOL0     H87070   5.804   2.756   3.036  0.2208  1.2117 -0.0632
  631MOL0     H87071   5.658   2.700   2.939 -0.8947  1.5127 -0.0166
  631MOL0     H87072   5.802   2.666   2.756  0.4259 -3.1305 -1.7164
  631MOL0     H87073   5.826   2.550   2.875  3.0841  0.3267 -1.5330
  631MOL0     H87074   6.201   2.748   2.904  0.2222  0.5776 -3.0635
  631MOL0     H87075   5.519   2.786   2.472  0.0408  0.7794 -1.4155
  631MOL0     H87076   5.392   2.978   2.177  0.2615  0.9281  0.6357
  631MOL0     H87077   5.426   2.811   2.225 -1.1233 -0.7788 -1.8877
  631MOL0     H87078   5.266   2.881   2.228  0.2794  2.1816  0.8242
  632MOL0     O87079   4.525   7.064   1.393  0.5343 -0.4973  0.1234
  632MOL0     C87080   4.549   7.009   1.284 -0.3733  0.2622 -0.1063
  632MOL0     O87081   4.489   6.901   1.232  0.1086 -0.4589 -0.3049
  632MOL0     C87082   4.419   6.812   1.310  0.2267  0.5787  0.6422
  632MOL0     C87083   4.363   6.822   1.441 -0.2698  0.7477 -0.5488
  632MOL0     C87084   4.272   6.727   1.486  0.0545 -1.2591  0.7345
  632MOL0     C87085   4.250   6.613   1.419 -0.8782 -0.0683 -0.0120
  632MOL0     O87086   4.163   6.518   1.474  0.4593 -0.8634 -0.0637
  632MOL0     C87087   4.046   6.503   1.396  0.5593 -0.5240  0.1169
  632MOL0     C87088   4.008   6.351   1.420  0.7325  0.8042  0.3337
  632MOL0     C87089   3.945   6.275   1.305 -0.1108  0.1615 -0.4860
  632MOL0     C87090   3.786   6.280   1.303 -1.0351 -0.7967  0.4286
  632MOL0     C87091   3.727   6.218   1.175 -0.6307  0.6145  0.0654
  632MOL0     C87092   3.751   6.063   1.161  0.3624  0.0913  0.6395
  632MOL0     C87093   3.712   6.003   1.013 -0.4957 -0.1870  0.1582
  632MOL0     C87094   3.588   6.069   0.962  0.3352 -0.9551  1.4306
  632MOL0     N87095   3.534   6.021   0.833 -0.3359 -0.2538 -0.1614
  632MOL0     C87096   3.469   5.903   0.811 -0.0491  1.3722  0.4827
  632MOL0     C87097   3.484   5.888   0.671  0.6735 -0.6487 -0.4134
  632MOL0     C87098   3.426   5.766   0.601  0.4659 -0.3623  0.2867
  632MOL0     C87099   3.313   5.803   0.503 -1.1015  1.1591  1.3600
  632MOL0     C87100   3.186   5.837   0.583 -1.3857  1.9801  1.5186
  632MOL0     C87101   3.140   5.972   0.556  0.0839 -0.5600  0.5485
  632MOL0     O87102   3.018   5.980   0.620 -0.0177  0.8356 -0.6822
  632MOL0     C87103   2.972   6.111   0.643 -0.5313 -0.2175  0.5980
  632MOL0     C87104   2.963   6.158   0.772 -0.8384 -0.5641 -0.8305
  632MOL0     C87105   2.936   6.299   0.813 -0.4205 -0.3984 -0.4478
  632MOL0     C87106   2.969   6.343   0.955  0.6913  0.3012 -0.1001
  632MOL0     C87107   2.920   6.388   0.707  0.2561 -0.2926 -0.2078
  632MOL0     C87108   2.901   6.529   0.731  0.0055 -0.0359  0.3081
  632MOL0     O87109   2.840   6.577   0.847  0.2428  0.7900  0.4658
  632MOL0     C87110   2.852   6.712   0.890  0.4919  0.0019 -0.6141
  632MOL0     C87111   2.851   6.828   0.812  0.3774  1.1091 -0.0344
  632MOL0     C87112   2.888   6.950   0.875 -0.9092  0.0565  0.3256
  632MOL0     C87113   2.915   6.950   1.015  0.6770 -0.4841 -1.1856
  632MOL0     O87114   2.962   7.065   1.068 -0.3082  0.5022  0.4166
  632MOL0     C87115   2.864   7.174   1.054  0.4070 -0.5925  0.5201
  632MOL0     C87116   2.935   7.292   0.979  0.1684  0.5264  0.1655
  632MOL0     C87117   2.857   7.426   0.980 -1.0478  1.1042 -0.4004
  632MOL0     C87118   2.903   7.533   0.887 -0.3687  0.8101  0.4904
  632MOL0     C87119   2.818   7.664   0.903 -0.8884  0.3627 -0.7955
  632MOL0     C87120   2.828   7.733   1.038  0.6499  0.2715 -0.2721
  632MOL0     C87121   2.707   7.825   1.050  0.4329  0.1427  0.8589
  632MOL0     C87122   2.717   7.931   0.936 -0.1183  0.5126 -0.8447
  632MOL0    Cl87123   2.566   8.030   0.945  0.6265 -0.1103  0.0060
  632MOL0     C87124   2.911   6.830   1.086 -1.2856  0.1385 -0.3112
  632MOL0     C87125   2.874   6.713   1.030  0.9946 -0.2834  0.4797
  632MOL0     O87126   2.950   6.605   0.646  0.2863 -0.2951  0.8644
  632MOL0     C87127   2.911   6.344   0.569  0.0308  0.4260 -0.1090
  632MOL0     C87128   2.947   6.208   0.539 -0.3338  0.5797 -0.5897
  632MOL0     N87129   3.538   6.001   0.615  0.3039  0.6015 -0.6539
  632MOL0     N87130   3.588   6.074   0.723  0.5438 -0.1984  0.1477
  632MOL0     C87131   4.310   6.592   1.297 -0.4513  0.1856 -0.2487
  632MOL0     C87132   4.383   6.691   1.238  0.4677  0.0885  0.3035
  632MOL0     C87133   4.636   7.082   1.187  1.3464  0.7635 -0.2264
  632MOL0     C87134   4.677   7.018   1.069  0.5644 -0.3696  0.5048
  632MOL0     C87135   4.771   7.076   0.981  0.2238  0.8608  0.5263
  632MOL0     C87136   4.818   7.203   1.009  0.5597 -0.3185  0.0159
  632MOL0     O87137   4.918   7.261   0.936  0.0349  0.5508 -0.7790
  632MOL0     C87138   4.915   7.243   0.789  0.4538 -0.8599 -0.0431
  632MOL0     C87139   5.009   7.126   0.744  0.0570  0.1397  0.5446
  632MOL0     C87140   5.154   7.128   0.787  0.2419 -0.1973 -0.4907
  632MOL0     C87141   5.235   7.230   0.709  1.2075 -0.1887  0.1688
  632MOL0     C87142   5.367   7.173   0.738  0.0844 -0.0243  0.6920
  632MOL0     C87143   5.482   7.145   0.762 -0.7379 -0.5289  0.5551
  632MOL0     C87144   4.773   7.270   1.122 -0.8899  0.4557  0.9358
  632MOL0     C87145   4.679   7.215   1.207 -0.0638  0.2893  0.2097
  632MOL0     C87146   4.635   7.302   1.330  0.3990  0.8859  0.1517
  632MOL0     H87147   4.398   6.902   1.505  0.1294  0.4890 -0.4394
  632MOL0     H87148   4.232   6.734   1.587 -1.2971  0.4734  0.1091
  632MOL0     H87149   4.058   6.532   1.291 -2.6605 -0.3904 -0.3391
  632MOL0     H87150   3.961   6.559   1.436 -0.1294 -1.1450 -0.4222
  632MOL0     H87151   4.105   6.303   1.435  0.8788  1.2018  0.6650
  632MOL0     H87152   3.948   6.345   1.511  0.7090  1.2644  0.3524
  632MOL0     H87153   3.994   6.316   1.217  2.4220 -2.9510 -0.7100
  632MOL0     H87154   3.984   6.173   1.315  2.3814  0.9076 -1.8403
  632MOL0     H87155   3.753   6.228   1.393 -5.0334 -0.2322 -0.5250
  632MOL0     H87156   3.753   6.384   1.309  0.6470  0.0123 -2.1853
  632MOL0     H87157   3.767   6.268   1.086  3.7249 -2.8518 -0.2805
  632MOL0     H87158   3.619   6.234   1.179 -0.6890  0.4589 -0.7227
  632MOL0     H87159   3.857   6.040   1.176  1.3506  2.4755 -1.7918
  632MOL0     H87160   3.680   6.022   1.234  0.4671 -1.0079  0.1461
  632MOL0     H87161   3.709   5.893   1.012  0.4830 -0.2143 -0.0302
  632MOL0     H87162   3.800   6.041   0.961 -1.1617  2.3932  0.7694
  632MOL0     H87163   3.517   6.068   1.046  0.7958 -2.2142  1.8258
  632MOL0     H87164   3.612   6.173   0.938 -2.6335 -0.3374  0.7392
  632MOL0     H87165   3.442   5.832   0.889  2.0135 -0.0929 -0.0482
  632MOL0     H87166   3.390   5.712   0.689 -0.7650  2.1117  1.3906
  632MOL0     H87167   3.516   5.716   0.565 -0.7578 -1.5923 -1.2481
  632MOL0     H87168   3.348   5.875   0.428 -0.4285  0.1063  0.6471
  632MOL0     H87169   3.288   5.715   0.443  0.5455  1.6103 -0.0945
  632MOL0     H87170   3.111   5.764   0.550  0.3237  1.2393 -1.0580
  632MOL0     H87171   3.192   5.834   0.692  0.3690 -0.8392  1.4554
  632MOL0     H87172   3.214   6.041   0.597 -0.2656 -1.4457  2.7664
  632MOL0     H87173   3.119   5.983   0.449 -0.3102 -0.3750  0.6420
  632MOL0     H87174   2.977   6.093   0.858 -1.6266  2.1617  1.5553
  632MOL0     H87175   3.050   6.417   0.956  0.0610  0.9937  0.4956
  632MOL0     H87176   3.003   6.267   1.026  0.9039 -1.7772 -2.2881
  632MOL0     H87177   2.890   6.401   1.003  2.5117  3.1480 -0.3002
  632MOL0     H87178   2.831   6.826   0.705  0.5292  4.2421 -0.2004
  632MOL0     H87179   2.894   7.048   0.829 -1.6287 -0.5458 -1.1425
  632MOL0     H87180   2.772   7.139   1.006 -0.3539  1.4221  0.3843
  632MOL0     H87181   2.850   7.222   1.151  1.1081  0.5636  0.0714
  632MOL0     H87182   3.029   7.307   1.032  0.3100  2.7360 -0.5923
  632MOL0     H87183   2.954   7.263   0.875  1.2196  0.0411  0.4864
  632MOL0     H87184   2.850   7.449   1.087 -0.7115 -1.3412  0.2122
  632MOL0     H87185   2.754   7.395   0.959 -1.0105 -0.2972  1.3178
  632MOL0     H87186   2.905   7.506   0.781 -1.1710 -0.5363  0.7888
  632MOL0     H87187   3.005   7.565   0.907 -0.1688  1.2544 -1.1254
  632MOL0     H87188   2.849   7.736   0.826 -0.4211 -1.2266 -2.1377
  632MOL0     H87189   2.715   7.635   0.881 -0.7945 -0.8493  0.2230
  632MOL0     H87190   2.921   7.786   1.062 -0.4936  1.7220  1.2314
  632MOL0     H87191   2.805   7.668   1.123 -1.3552  2.0929  0.6873
  632MOL0     H87192   2.721   7.872   1.148  1.2583  0.3533  0.6513
  632MOL0     H87193   2.611   7.774   1.036  0.5408  0.7786 -4.1011
  632MOL0     H87194   2.705   7.870   0.846  1.2915 -1.8438  0.4750
  632MOL0     H87195   2.804   7.997   0.935  0.7501 -0.5810 -2.7004
  632MOL0     H87196   2.939   6.832   1.191 -2.2604  2.9804 -0.0327
  632MOL0     H87197   2.863   6.633   1.102 -0.1340  0.4299  1.1407
  632MOL0     H87198   2.871   6.407   0.490 -0.3890  1.3096  0.7990
  632MOL0     H87199   2.947   6.169   0.438  1.0788 -1.8877  0.2879
  632MOL0     H87200   4.273   6.514   1.230 -0.2224 -0.5387  0.4493
  632MOL0     H87201   4.413   6.674   1.135  0.7605  0.5028  0.3189
  632MOL0     H87202   4.651   6.915   1.050 -0.0509 -0.4383  1.6230
  632MOL0     H87203   4.807   7.011   0.902  1.6030 -1.0644  2.5985
  632MOL0     H87204   4.810   7.226   0.763 -0.3047  2.2500  0.5831
  632MOL0     H87205   4.952   7.333   0.738  3.8274 -2.3850 -0.5578
  632MOL0     H87206   5.016   7.133   0.635 -2.9283  0.1327  0.2698
  632MOL0     H87207   4.963   7.029   0.763 -3.0394  1.9396  3.2104
  632MOL0     H87208   5.171   7.151   0.893 -2.6005  0.8573 -0.1666
  632MOL0     H87209   5.197   7.029   0.767 -1.0236 -0.1033 -4.3321
  632MOL0     H87210   5.252   7.328   0.755  0.2353  0.0803 -0.0342
  632MOL0     H87211   5.210   7.232   0.603  1.5245 -2.5000 -0.0125
  632MOL0     H87212   5.581   7.120   0.794 -0.9762  0.5950  2.3200
  632MOL0     H87213   4.807   7.370   1.147  1.8783 -0.7080  2.2680
  632MOL0     H87214   4.676   7.244   1.412 -1.0024 -4.6473 -2.5932
  632MOL0     H87215   4.648   7.411   1.329 -6.8688  2.2525  0.2948
  632MOL0     H87216   4.526   7.309   1.339  0.2628 -0.3520 -0.3364
  633MOL0     O87217   7.288   4.165   8.493  0.5177  0.4399  0.1220
  633MOL0     C87218   7.246   4.168   8.381 -0.7198  0.4975  0.3564
  633MOL0     O87219   7.325   4.119   8.271  0.3357 -0.1738  0.9339
  633MOL0     C87220   7.448   4.071   8.297 -0.0599  0.5795 -0.0756
  633MOL0     C87221   7.552   4.152   8.356  0.4424 -0.9068  0.8212
  633MOL0     C87222   7.689   4.118   8.362 -0.3419 -0.1733  0.3303
  633MOL0     C87223   7.731   3.997   8.313 -0.0815  0.3399  0.0556
  633MOL0     O87224   7.862   3.956   8.335  0.1748 -0.2196  0.3745
  633MOL0     C87225   7.925   3.853   8.258  0.9871 -0.4595 -0.0132
  633MOL0     C87226   8.045   3.782   8.319 -0.1552  0.0980  0.3346
  633MOL0     C87227   8.154   3.886   8.354 -0.0904  0.5445 -1.0498
  633MOL0     C87228   8.204   3.992   8.251  0.1936 -0.4778  0.3407
  633MOL0     C87229   8.134   4.130   8.287  1.1296  0.3520  1.0254
  633MOL0     C87230   8.126   4.230   8.174 -1.0302  0.5512  0.0838
  633MOL0     C87231   8.022   4.178   8.079 -0.5538  0.7167 -0.0758
  633MOL0     C87232   7.978   4.290   7.978 -0.2351 -0.6351 -0.3498
  633MOL0     N87233   8.069   4.287   7.860  0.1794 -0.9482 -0.2995
  633MOL0     C87234   8.026   4.272   7.733  0.2587  0.1202 -1.1488
  633MOL0     C87235   8.135   4.278   7.655 -0.2195 -0.0216  0.4555
  633MOL0     C87236   8.133   4.262   7.505 -0.0270 -0.4131 -0.2851
  633MOL0     C87237   8.047   4.365   7.426  0.5813  0.1710  0.0787
  633MOL0     C87238   8.118   4.496   7.398  0.4126 -0.4640  0.1865
  633MOL0     C87239   8.208   4.460   7.280  0.5183 -0.2146  0.5446
  633MOL0     O87240   8.153   4.510   7.156  0.8192 -0.5253  0.6044
  633MOL0     C87241   8.224   4.474   7.041 -0.2180  0.5726  0.3024
  633MOL0     C87242   8.150   4.422   6.937 -0.0538 -0.0357  0.8220
  633MOL0     C87243   8.213   4.414   6.811 -0.7723  0.7772 -0.3866
  633MOL0     C87244   8.111   4.369   6.698  0.1450 -0.6510  0.1833
  633MOL0     C87245   8.352   4.441   6.799 -0.1319  0.8311 -0.7234
  633MOL0     C87246   8.420   4.428   6.669  0.5554  0.1673 -0.0242
  633MOL0     O87247   8.356   4.454   6.551  0.0175  0.0336 -0.5046
  633MOL0     C87248   8.431   4.457   6.433  0.3486 -0.2948 -0.2531
  633MOL0     C87249   8.419   4.357   6.330  0.2803  0.7013 -0.0797
  633MOL0     C87250   8.476   4.380   6.199 -0.0250 -0.1287  0.4651
  633MOL0     C87251   8.541   4.505   6.172  0.6546 -0.1721 -0.2678
  633MOL0     O87252   8.607   4.552   6.062 -0.7281  0.5131  0.0835
  633MOL0     C87253   8.655   4.447   5.982  0.0653  1.0354  0.1836
  633MOL0     C87254   8.749   4.482   5.868 -0.1389 -0.2743  0.7908
  633MOL0     C87255   8.679   4.532   5.738  0.0010 -0.1289  0.1907
  633MOL0     C87256   8.690   4.685   5.703 -0.5878 -0.2438  1.3432
  633MOL0     C87257   8.618   4.743   5.585  0.4058  1.0714  1.0877
  633MOL0     C87258   8.672   4.683   5.457  0.5805  0.5894 -1.5546
  633MOL0     C87259   8.620   4.767   5.340 -0.9603  0.4869 -0.3302
  633MOL0     C87260   8.471   4.763   5.310  0.4435 -1.4037  0.2658
  633MOL0    Cl87261   8.410   4.595   5.301 -0.2136  0.3344 -0.0030
  633MOL0     C87262   8.562   4.589   6.279  0.0484 -0.0157 -0.4417
  633MOL0     C87263   8.512   4.571   6.404  0.1200  0.6050 -0.6003
  633MOL0     O87264   8.540   4.407   6.677 -0.4751  0.4621  0.2004
  633MOL0     C87265   8.427   4.472   6.909  0.1623  0.1821  0.4774
  633MOL0     C87266   8.361   4.490   7.027 -0.2874 -0.1090 -0.6001
  633MOL0     N87267   8.241   4.310   7.742  1.0651  0.2855  0.3523
  633MOL0     N87268   8.200   4.309   7.862 -0.2768  0.0467  0.1009
  633MOL0     C87269   7.639   3.909   8.254 -0.6761 -0.4043  0.0951
  633MOL0     C87270   7.505   3.953   8.242 -0.2153  0.2710 -0.8236
  633MOL0     C87271   7.122   4.237   8.359 -0.4605 -1.1067 -0.3052
  633MOL0     C87272   7.093   4.282   8.234  0.2069  1.2847  0.1361
  633MOL0     C87273   6.974   4.348   8.202  0.2820  0.8407 -0.6933
  633MOL0     C87274   6.882   4.374   8.299  0.5492 -1.4008  0.5043
  633MOL0     O87275   6.763   4.441   8.265  0.7239  0.2151 -0.0642
  633MOL0     C87276   6.640   4.407   8.331 -0.7574 -0.2206 -0.0858
  633MOL0     C87277   6.592   4.492   8.450  1.0723 -0.5966 -0.5899
  633MOL0     C87278   6.585   4.643   8.407  0.3700  0.0940 -0.2768
  633MOL0     C87279   6.524   4.730   8.521  0.4419 -0.3921  0.8658
  633MOL0     C87280   6.625   4.748   8.622  1.1970  0.7581 -0.5143
  633MOL0     C87281   6.706   4.773   8.715  0.4037  0.1782  0.2917
  633MOL0     C87282   6.915   4.347   8.438 -0.0161 -0.4082  0.3294
  633MOL0     C87283   7.034   4.268   8.463  0.9451 -0.6223 -0.1896
  633MOL0     C87284   7.038   4.223   8.607  0.0157 -0.1530 -0.0994
  633MOL0     H87285   7.520   4.238   8.413 -0.3435 -0.1734 -0.6471
  633MOL0     H87286   7.764   4.184   8.405 -0.1570  1.5042 -2.3657
  633MOL0     H87287   7.945   3.896   8.159 -0.9441  0.6968  0.0574
  633MOL0     H87288   7.863   3.765   8.242 -0.3443  0.6569 -1.3000
  633MOL0     H87289   8.016   3.719   8.403  0.9961  0.5366  1.0884
  633MOL0     H87290   8.071   3.714   8.236  1.5310 -1.3220  1.9341
  633MOL0     H87291   8.124   3.940   8.445 -1.3788  3.2469 -2.9361
  633MOL0     H87292   8.247   3.837   8.384  0.5678  2.0272 -0.5458
  633MOL0     H87293   8.313   3.989   8.250  0.3113 -1.7045  3.7921
  633MOL0     H87294   8.171   3.957   8.152 -1.1056 -0.6818  0.8170
  633MOL0     H87295   8.203   4.168   8.363  1.3988  0.7444  0.5909
  633MOL0     H87296   8.034   4.128   8.333  0.7968  3.1237  0.6210
  633MOL0     H87297   8.085   4.323   8.214 -2.7060  0.4475 -1.2764
  633MOL0     H87298   8.223   4.253   8.129 -1.5295 -0.2600 -1.4811
  633MOL0     H87299   7.930   4.150   8.132 -1.0416  0.6799 -0.9304
  633MOL0     H87300   8.048   4.086   8.025 -3.1624 -0.1748  0.0621
  633MOL0     H87301   7.877   4.270   7.940 -0.9393  1.0853  0.5077
  633MOL0     H87302   7.972   4.394   8.010 -0.2874  0.6364 -4.0618
  633MOL0     H87303   7.925   4.253   7.698 -0.3895 -1.7252  1.4007
  633MOL0     H87304   8.078   4.168   7.496  0.0407 -0.3469 -1.6033
  633MOL0     H87305   8.236   4.259   7.466  0.0071  3.2583 -0.8496
  633MOL0     H87306   8.006   4.321   7.335 -1.5081 -1.9435  1.8934
  633MOL0     H87307   7.956   4.400   7.476 -0.3239 -2.6179  0.5548
  633MOL0     H87308   8.059   4.586   7.379 -0.1787 -0.2907  2.5026
  633MOL0     H87309   8.174   4.520   7.489 -0.9459 -1.2490  1.2693
  633MOL0     H87310   8.302   4.511   7.306 -0.1295  0.7012  1.1449
  633MOL0     H87311   8.242   4.356   7.276  0.8708 -0.0664 -2.7131
  633MOL0     H87312   8.045   4.402   6.954 -0.1629 -3.1725 -2.2907
  633MOL0     H87313   8.089   4.454   6.633 -0.7193  0.0234  1.3207
  633MOL0     H87314   8.022   4.337   6.752 -0.7775 -0.5548 -1.2151
  633MOL0     H87315   8.149   4.282   6.643 -0.8886 -1.0836  0.1430
  633MOL0     H87316   8.384   4.255   6.348  2.2661  0.1919  1.3618
  633MOL0     H87317   8.460   4.304   6.124  1.1572 -0.8620  0.9222
  633MOL0     H87318   8.706   4.370   6.041 -0.2734  0.4138 -0.3259
  633MOL0     H87319   8.572   4.387   5.943  1.3683 -0.3759 -0.5182
  633MOL0     H87320   8.823   4.557   5.897  0.9744 -1.2135  0.4677
  633MOL0     H87321   8.800   4.392   5.833  1.0142  0.0638  1.5464
  633MOL0     H87322   8.574   4.506   5.756  0.5393 -2.6832 -0.0399
  633MOL0     H87323   8.715   4.473   5.654  2.3598 -1.0491  1.7259
  633MOL0     H87324   8.797   4.708   5.697 -0.7672  0.3975  0.3379
  633MOL0     H87325   8.658   4.741   5.792 -0.1305  0.3819  1.1156
  633MOL0     H87326   8.510   4.725   5.585  0.4771  0.5060 -0.0577
  633MOL0     H87327   8.642   4.849   5.590  1.5544  0.9090 -0.3207
  633MOL0     H87328   8.644   4.578   5.450 -0.7461  0.9592 -1.9690
  633MOL0     H87329   8.781   4.670   5.453  0.4812 -0.2717 -1.5238
  633MOL0     H87330   8.671   4.723   5.254 -1.7486  0.6280 -0.8768
  633MOL0     H87331   8.670   4.864   5.348  0.9214 -0.5452  1.6270
  633MOL0     H87332   8.442   4.819   5.220 -1.6571 -2.1717  0.4127
  633MOL0     H87333   8.416   4.812   5.391 -0.7649 -0.0480 -1.2879
  633MOL0     H87334   8.636   4.667   6.261  1.7859 -1.9259 -2.2037
  633MOL0     H87335   8.551   4.639   6.479  0.5512  0.5926 -0.8118
  633MOL0     H87336   8.535   4.483   6.904  0.3372 -0.7564  1.7552
  633MOL0     H87337   8.425   4.518   7.109 -0.6560 -1.9266  0.3398
  633MOL0     H87338   7.662   3.810   8.216 -3.9334 -2.3748  2.6828
  633MOL0     H87339   7.451   3.876   8.187 -1.0024 -1.3429  1.9628
  633MOL0     H87340   7.156   4.246   8.153 -2.4059 -3.1130 -0.2102
  633MOL0     H87341   6.950   4.383   8.102  1.1765 -0.1969 -1.2969
  633MOL0     H87342   6.569   4.399   8.249  1.2295  0.3908 -1.9526
  633MOL0     H87343   6.652   4.311   8.382 -0.8535 -3.0643 -4.8493
  633MOL0     H87344   6.676   4.481   8.521 -0.5518 -2.2482  1.2068
  633MOL0     H87345   6.504   4.451   8.501 -0.7609  2.4255 -1.1441
  633MOL0     H87346   6.680   4.684   8.371 -0.4681  0.9569 -1.5779
  633MOL0     H87347   6.517   4.640   8.321  0.8090  0.0677 -0.6229
  633MOL0     H87348   6.436   4.672   8.551  0.0098 -1.4864 -2.1582
  633MOL0     H87349   6.487   4.827   8.486 -1.3183 -1.5127 -0.5891
  633MOL0     H87350   6.775   4.806   8.790  1.5001 -0.7743 -0.2803
  633MOL0     H87351   6.846   4.378   8.515  0.6522  2.2543 -0.0259
  633MOL0     H87352   6.941   4.235   8.655  0.5751 -0.8882  1.2794
  633MOL0     H87353   7.060   4.116   8.595  0.2337 -0.3414  1.6724
  633MOL0     H87354   7.122   4.264   8.665  1.1923 -0.6067 -1.4105
  634MOL0     O87355  10.711   4.905   7.027 -0.0771 -0.0463 -1.3741
  634MOL0     C87356  10.613   4.843   7.075  0.3088 -0.6179  0.0216
  634MOL0     O87357  10.484   4.867   7.050 -0.0366  0.0257  0.9581
  634MOL0     C87358  10.454   4.970   6.957 -0.3646 -0.6480 -0.4469
  634MOL0     C87359  10.528   4.995   6.841 -0.1558 -0.0589  0.2804
  634MOL0     C87360  10.507   5.111   6.763  0.3392  0.7526  0.1453
  634MOL0     C87361  10.402   5.205   6.784 -0.1716 -0.2612 -0.4022
  634MOL0     O87362  10.388   5.302   6.687  0.8187 -0.5356 -0.8147
  634MOL0     C87363  10.281   5.386   6.716 -0.4480  0.3158  0.7235
  634MOL0     C87364  10.258   5.486   6.601 -0.3518  0.0948  0.7708
  634MOL0     C87365  10.362   5.603   6.596 -0.4975 -0.3906 -0.0379
  634MOL0     C87366  10.346   5.668   6.465 -0.1158  0.3840 -0.7336
  634MOL0     C87367  10.441   5.781   6.441 -0.2453 -0.0715 -0.7909
  634MOL0     C87368  10.430   5.825   6.292 -0.4844  1.2617 -0.3028
  634MOL0     C87369  10.564   5.886   6.248 -1.2059 -0.4080 -0.5680
  634MOL0     C87370  10.577   6.029   6.269 -0.0368 -0.2596 -0.1611
  634MOL0     N87371  10.484   6.103   6.191  0.1610 -0.0035  0.1257
  634MOL0     C87372  10.455   6.097   6.060  0.9591 -0.4990  0.3721
  634MOL0     C87373  10.361   6.192   6.028 -0.6719  1.0371  0.6057
  634MOL0     C87374  10.300   6.234   5.901  0.1407  0.6134 -0.0341
  634MOL0     C87375  10.324   6.141   5.781  0.4718 -0.1771 -0.6992
  634MOL0     C87376  10.252   6.006   5.811  0.1104 -0.3012 -0.3346
  634MOL0     C87377  10.303   5.899   5.725  0.0198  0.8166  0.4555
  634MOL0     O87378  10.438   5.877   5.771 -0.0617  0.2386 -0.2052
  634MOL0     C87379  10.452   5.762   5.842 -0.7649 -0.1241 -0.5362
  634MOL0     C87380  10.358   5.697   5.920 -0.3992  0.7168  0.0521
  634MOL0     C87381  10.382   5.574   5.991  0.1840  0.3876 -0.0619
  634MOL0     C87382  10.266   5.521   6.065  0.5937  0.9026 -0.5227
  634MOL0     C87383  10.506   5.518   5.992 -0.4495 -0.4702  0.0725
  634MOL0     C87384  10.529   5.393   6.068  0.1243 -0.6115 -0.5344
  634MOL0     O87385  10.664   5.375   6.111  0.0191 -1.1339 -0.2946
  634MOL0     C87386  10.682   5.305   6.225  0.4278  0.8371  0.8431
  634MOL0     C87387  10.756   5.197   6.202  0.4187  0.1949 -0.2337
  634MOL0     C87388  10.808   5.136   6.316 -0.4572  1.0380  0.5850
  634MOL0     C87389  10.771   5.175   6.447  0.6921  0.6928 -0.3601
  634MOL0     O87390  10.813   5.113   6.556 -1.1746  0.4824  1.3941
  634MOL0     C87391  10.881   5.185   6.659 -0.5296  0.0552 -0.1321
  634MOL0     C87392  10.909   5.096   6.773  0.0134  0.4253  1.3860
  634MOL0     C87393  11.030   5.154   6.844 -0.2817  0.2666  0.4705
  634MOL0     C87394  11.085   5.053   6.945  0.0751 -0.0388 -0.7337
  634MOL0     C87395  11.171   5.137   7.033 -0.2417  0.4522 -0.5257
  634MOL0     C87396  11.235   5.042   7.145 -0.7495  0.7536 -0.4082
  634MOL0     C87397  11.308   5.122   7.256  0.8117  0.4141  0.6575
  634MOL0     C87398  11.329   5.042   7.382 -0.3627 -0.5432  0.7274
  634MOL0    Cl87399  11.169   5.015   7.458 -0.5113 -0.0037 -0.5799
  634MOL0     C87400  10.682   5.283   6.466  1.1124  0.6119 -0.0512
  634MOL0     C87401  10.639   5.359   6.348 -0.4660 -0.2439  0.0947
  634MOL0     O87402  10.438   5.311   6.097 -1.1516  0.1001 -0.6462
  634MOL0     C87403  10.605   5.586   5.916  0.4282  0.1973  0.0829
  634MOL0     C87404  10.584   5.712   5.847  0.3825  1.0205 -0.0862
  634MOL0     N87405  10.352   6.270   6.140  0.1601  0.4139 -0.4937
  634MOL0     N87406  10.418   6.213   6.236 -0.3398 -0.1701  0.0140
  634MOL0     C87407  10.324   5.173   6.901 -0.0712 -0.6478  0.0432
  634MOL0     C87408  10.348   5.063   6.980  1.0665  0.4941 -0.4522
  634MOL0     C87409  10.628   4.754   7.197  0.1922  0.2753  1.2485
  634MOL0     C87410  10.521   4.663   7.218  0.5655  0.2111 -0.1947
  634MOL0     C87411  10.534   4.553   7.301  0.0274 -0.0104  0.0324
  634MOL0     C87412  10.647   4.535   7.381  0.1977  0.1613  0.2804
  634MOL0     O87413  10.662   4.442   7.475 -0.1701  0.4159  0.4902
  634MOL0     C87414  10.568   4.344   7.517  0.2748 -0.7326 -0.1145
  634MOL0     C87415  10.493   4.405   7.638 -0.3526 -0.1263 -0.0928
  634MOL0     C87416  10.373   4.292   7.660 -1.8243  0.7757 -0.3079
  634MOL0     C87417  10.323   4.290   7.805  0.1639 -0.2124  0.0229
  634MOL0     C87418  10.409   4.214   7.896  0.0279  0.4729 -0.8077
  634MOL0     C87419  10.479   4.145   7.970  0.4197 -0.9153  0.2454
  634MOL0     C87420  10.752   4.636   7.362  0.4902  0.4851 -0.1000
  634MOL0     C87421  10.744   4.739   7.267  0.6739  0.5634 -1.3005
  634MOL0     C87422  10.864   4.836   7.255  0.2170 -0.0904 -1.4743
  634MOL0     H87423  10.606   4.924   6.817 -0.4787 -0.5991  0.8258
  634MOL0     H87424  10.565   5.127   6.672  0.8848  0.0071  0.3555
  634MOL0     H87425  10.292   5.444   6.808 -0.2920 -1.0795  1.6132
  634MOL0     H87426  10.197   5.317   6.720 -0.5403  0.2598 -1.1259
  634MOL0     H87427  10.281   5.423   6.515  2.2402  2.8563 -0.7252
  634MOL0     H87428  10.157   5.526   6.604 -0.0222  1.0190  4.2112
  634MOL0     H87429  10.347   5.678   6.675 -0.7693  0.9749 -1.3346
  634MOL0     H87430  10.465   5.567   6.607 -0.9453 -1.2585  1.7211
  634MOL0     H87431  10.349   5.595   6.384  3.7600  0.6598 -1.0495
  634MOL0     H87432  10.245   5.708   6.460 -1.1148 -1.9987 -0.7103
  634MOL0     H87433  10.543   5.753   6.468 -0.8546 -0.3518  1.4516
  634MOL0     H87434  10.422   5.866   6.507 -3.0304 -2.8273  2.3984
  634MOL0     H87435  10.409   5.740   6.227  5.0041 -0.0515 -0.8601
  634MOL0     H87436  10.350   5.899   6.283 -0.0816  1.8903  1.0369
  634MOL0     H87437  10.574   5.870   6.140  1.3299 -0.7833 -0.3549
  634MOL0     H87438  10.654   5.841   6.292 -0.9508  1.1123  0.5138
  634MOL0     H87439  10.543   6.057   6.370 -5.1294 -0.9406 -1.4196
  634MOL0     H87440  10.679   6.054   6.237  0.8949 -3.9184 -0.5529
  634MOL0     H87441  10.490   6.024   5.987 -1.3297 -0.3055 -1.0005
  634MOL0     H87442  10.345   6.329   5.868 -1.3685  0.6509 -2.1919
  634MOL0     H87443  10.191   6.242   5.913  0.0376  0.4999 -0.8273
  634MOL0     H87444  10.257   6.190   5.710  0.7596  0.3959 -0.5804
  634MOL0     H87445  10.424   6.128   5.740  0.6655  3.9338 -1.9553
  634MOL0     H87446  10.259   5.973   5.915 -0.1127  1.2608  0.1905
  634MOL0     H87447  10.144   6.020   5.798  0.1608  0.7899  0.3293
  634MOL0     H87448  10.251   5.803   5.725  3.7040 -1.4467 -1.7522
  634MOL0     H87449  10.304   5.922   5.618 -2.6987 -3.3328 -0.6873
  634MOL0     H87450  10.261   5.744   5.927  0.7758  3.3218  0.1577
  634MOL0     H87451  10.290   5.492   6.168  1.6989 -1.1806 -1.3086
  634MOL0     H87452  10.232   5.430   6.015  2.2962  0.7614 -1.4590
  634MOL0     H87453  10.187   5.597   6.072  0.4556  0.6271  3.2309
  634MOL0     H87454  10.784   5.185   6.098  0.6539  1.9670 -0.4143
  634MOL0     H87455  10.881   5.056   6.303 -2.6751 -1.2807  1.5653
  634MOL0     H87456  10.979   5.219   6.623  0.3572  0.5889  2.5541
  634MOL0     H87457  10.817   5.269   6.687  0.8603  0.6880  1.3297
  634MOL0     H87458  10.821   5.092   6.838 -3.2057  0.5106 -2.5767
  634MOL0     H87459  10.925   4.993   6.739  1.2407  1.3664 -1.1952
  634MOL0     H87460  10.994   5.240   6.903  2.3939  0.3449  2.2068
  634MOL0     H87461  11.117   5.190   6.787 -1.8010 -0.8944 -2.7580
  634MOL0     H87462  11.126   4.967   6.892  0.9789 -1.5421  2.2186
  634MOL0     H87463  10.993   5.017   6.993 -0.3670  1.8762 -0.0297
  634MOL0     H87464  11.250   5.180   6.972  0.5575  1.5944  1.2608
  634MOL0     H87465  11.108   5.215   7.076 -1.0647  1.3524 -3.1289
  634MOL0     H87466  11.311   4.981   7.094  0.8656 -0.1380  2.8006
  634MOL0     H87467  11.163   4.975   7.192  1.8096 -1.6278  0.3899
  634MOL0     H87468  11.268   5.223   7.270  2.9496  1.1837  1.4982
  634MOL0     H87469  11.411   5.135   7.223  0.9208 -0.1443  0.7700
  634MOL0     H87470  11.392   5.092   7.456 -0.8536 -1.0309  1.4849
  634MOL0     H87471  11.384   4.951   7.357  0.1434 -0.9408  3.0918
  634MOL0     H87472  10.652   5.325   6.561 -0.4397  0.3248 -0.3936
  634MOL0     H87473  10.565   5.438   6.353 -2.5358 -2.0719  4.6920
  634MOL0     H87474  10.708   5.551   5.920  1.8408  2.0474 -6.8520
  634MOL0     H87475  10.667   5.760   5.797 -0.1823  1.4073 -0.6574
  634MOL0     H87476  10.249   5.240   6.944 -0.9568 -0.4998 -1.6403
  634MOL0     H87477  10.286   5.039   7.066  0.6356 -1.0013 -1.1587
  634MOL0     H87478  10.427   4.675   7.166  0.1765  3.0102  0.9917
  634MOL0     H87479  10.452   4.482   7.297 -0.7495  0.6491  2.4349
  634MOL0     H87480  10.508   4.308   7.434 -0.5981  1.3179 -0.4419
  634MOL0     H87481  10.624   4.259   7.558 -2.8764 -2.7949  0.2733
  634MOL0     H87482  10.454   4.506   7.622  0.7566  1.2526  4.4808
  634MOL0     H87483  10.563   4.418   7.721  1.0908  0.3489 -1.3497
  634MOL0     H87484  10.289   4.334   7.605 -1.3009  2.6973  0.2764
  634MOL0     H87485  10.412   4.198   7.619 -0.7808  0.6880  0.8239
  634MOL0     H87486  10.221   4.249   7.805 -0.5287  1.2914 -2.8017
  634MOL0     H87487  10.312   4.392   7.844  5.3427  0.7130 -0.2603
  634MOL0     H87488  10.542   4.086   8.033 -0.3668 -2.7595 -0.6157
  634MOL0     H87489  10.844   4.619   7.418  0.1658 -0.2948  0.2105
  634MOL0     H87490  10.828   4.939   7.250  0.0873  0.0715  1.1663
  634MOL0     H87491  10.928   4.837   7.344 -2.0961  4.0866  0.4484
  634MOL0     H87492  10.929   4.807   7.173 -0.7491 -0.9985 -1.9436
  635MOL0     O87493   4.923   7.715   2.171  0.5001 -0.0100 -0.7749
  635MOL0     C87494   4.816   7.684   2.119 -1.0753 -0.7866 -0.5665
  635MOL0     O87495   4.765   7.553   2.125 -0.1594  0.0313  0.2648
  635MOL0     C87496   4.830   7.453   2.197 -1.5626  0.5455  0.3543
  635MOL0     C87497   4.835   7.447   2.339  0.2823 -0.4359 -0.7007
  635MOL0     C87498   4.902   7.336   2.398  0.3691  0.7416 -0.0616
  635MOL0     C87499   4.970   7.245   2.320  0.1219 -0.4412 -0.4172
  635MOL0     O87500   5.045   7.148   2.387  0.8479  0.6610  0.0632
  635MOL0     C87501   5.060   7.010   2.340 -0.6914  0.1865 -0.7113
  635MOL0     C87502   4.991   6.915   2.442 -0.0457 -1.0851  0.3536
  635MOL0     C87503   4.853   6.970   2.485  0.3182  0.4439 -0.1718
  635MOL0     C87504   4.758   6.849   2.502  0.5116 -0.5355 -0.6779
  635MOL0     C87505   4.627   6.889   2.572  0.1164 -0.1006 -0.3013
  635MOL0     C87506   4.526   6.776   2.583  0.1409 -0.5872 -0.1274
  635MOL0     C87507   4.446   6.758   2.439 -0.7593  0.3718 -0.9411
  635MOL0     C87508   4.364   6.628   2.444 -0.3948 -0.0284 -0.6608
  635MOL0     N87509   4.257   6.666   2.536  1.0258 -0.4663  0.0813
  635MOL0     C87510   4.240   6.631   2.667  0.9224 -0.5784  0.0172
  635MOL0     C87511   4.112   6.649   2.702  0.1058 -0.7327 -1.2123
  635MOL0     C87512   4.047   6.634   2.838 -1.5190  0.3835 -0.3868
  635MOL0     C87513   4.094   6.490   2.884  0.4189  0.3268  0.6221
  635MOL0     C87514   3.990   6.432   2.988 -0.3317 -0.1814 -0.4731
  635MOL0     C87515   3.998   6.511   3.122 -0.7239  0.9096 -1.0762
  635MOL0     O87516   4.131   6.502   3.177 -0.1517 -1.2699 -0.0663
  635MOL0     C87517   4.206   6.615   3.216 -0.0664 -0.4667  0.2129
  635MOL0     C87518   4.150   6.722   3.270  0.7183 -1.0051  0.3874
  635MOL0     C87519   4.219   6.835   3.316 -0.5395  0.8725  0.0998
  635MOL0     C87520   4.152   6.948   3.396 -0.2065  0.2584  0.0639
  635MOL0     C87521   4.364   6.829   3.322 -0.4002  0.3710  0.1428
  635MOL0     C87522   4.447   6.950   3.362  0.3940  0.6005  0.3964
  635MOL0     O87523   4.507   6.975   3.488  0.5350 -0.0939 -0.3272
  635MOL0     C87524   4.590   7.084   3.494  0.4003 -0.4477  0.3440
  635MOL0     C87525   4.733   7.074   3.480 -0.3966  0.4404  0.3791
  635MOL0     C87526   4.809   7.190   3.520 -0.0531 -0.0355 -0.1754
  635MOL0     C87527   4.756   7.320   3.536  0.1369 -0.4397  0.7190
  635MOL0     O87528   4.853   7.421   3.550  0.0032  0.1290  0.2988
  635MOL0     C87529   4.810   7.553   3.586  0.7982  0.0195 -0.4114
  635MOL0     C87530   4.922   7.654   3.589  0.1836 -0.8425  0.1501
  635MOL0     C87531   5.034   7.607   3.687 -0.2712 -0.2281  0.0548
  635MOL0     C87532   4.990   7.587   3.824  0.0930 -0.6577  0.1722
  635MOL0     C87533   5.099   7.600   3.923  0.7371  0.1013  0.3143
  635MOL0     C87534   5.195   7.476   3.933  0.6518  0.2142 -0.7918
  635MOL0     C87535   5.277   7.476   4.052 -1.0924  0.5330  0.3313
  635MOL0     C87536   5.375   7.594   4.061  0.5073  0.1735 -0.3909
  635MOL0    Cl87537   5.508   7.549   3.962  0.3848 -0.0720  0.3850
  635MOL0     C87538   4.622   7.330   3.523  0.9751  0.2250 -1.2180
  635MOL0     C87539   4.542   7.212   3.512  0.1780 -0.0324  0.6681
  635MOL0     O87540   4.481   7.008   3.261 -0.2318 -0.4122 -0.1335
  635MOL0     C87541   4.429   6.713   3.274  0.1158 -0.5678  0.7613
  635MOL0     C87542   4.344   6.608   3.223 -1.0571  0.1282 -0.9966
  635MOL0     N87543   4.044   6.682   2.585 -0.3475  0.3193  0.1179
  635MOL0     N87544   4.134   6.693   2.491  0.3173  0.7534  0.8400
  635MOL0     C87545   4.974   7.260   2.183 -0.0040  1.0548 -0.4652
  635MOL0     C87546   4.898   7.355   2.125  0.5377 -0.4432  0.9677
  635MOL0     C87547   4.723   7.800   2.060  0.0512  0.4428  0.1502
  635MOL0     C87548   4.589   7.766   2.027 -0.3372  0.5543  0.0708
  635MOL0     C87549   4.491   7.858   1.991  0.6206 -0.7892 -0.7494
  635MOL0     C87550   4.511   7.991   2.015  0.2180  1.0916  0.6377
  635MOL0     O87551   4.411   8.077   1.986  0.2961 -0.1032 -0.8511
  635MOL0     C87552   4.444   8.214   1.967  0.6817 -0.5849  1.3822
  635MOL0     C87553   4.315   8.302   1.976 -0.0643  0.7709  0.4880
  635MOL0     C87554   4.232   8.285   1.851 -0.1130  0.4567  0.4965
  635MOL0     C87555   4.098   8.356   1.877  0.2339 -1.2971  0.2305
  635MOL0     C87556   4.006   8.261   1.947  0.1855 -0.3660  0.3342
  635MOL0     C87557   3.930   8.185   2.005  1.4146 -0.7793  0.0194
  635MOL0     C87558   4.640   8.033   2.047  0.1148 -0.1779  0.7770
  635MOL0     C87559   4.746   7.935   2.055  0.4332 -0.7648 -0.0213
  635MOL0     C87560   4.882   7.989   2.077  0.4120 -0.2477  0.1995
  635MOL0     H87561   4.771   7.514   2.395 -2.1368 -2.4875 -0.8434
  635MOL0     H87562   4.908   7.317   2.504 -0.9806 -0.8327 -0.2245
  635MOL0     H87563   5.166   6.987   2.330 -0.3704  0.5526  1.5027
  635MOL0     H87564   5.012   7.003   2.242 -3.1103  3.0012  0.1213
  635MOL0     H87565   4.980   6.820   2.389 -1.5148 -1.0026  0.4657
  635MOL0     H87566   5.056   6.907   2.529  2.2863  5.7492 -0.1774
  635MOL0     H87567   4.854   7.030   2.577  1.9887 -2.4283  1.8361
  635MOL0     H87568   4.807   7.034   2.409  1.8507 -0.1749 -1.6988
  635MOL0     H87569   4.743   6.813   2.400 -1.9690 -0.4605 -0.4059
  635MOL0     H87570   4.808   6.774   2.564 -1.3073 -0.4862  0.9083
  635MOL0     H87571   4.579   6.973   2.521  2.2270  1.0258 -0.5173
  635MOL0     H87572   4.648   6.921   2.675 -0.5614  0.0649 -0.2098
  635MOL0     H87573   4.569   6.682   2.617  1.5947  1.1834  3.5020
  635MOL0     H87574   4.462   6.805   2.667  1.2755 -0.7215  0.8113
  635MOL0     H87575   4.524   6.741   2.364  0.9149  0.6781  0.6368
  635MOL0     H87576   4.386   6.848   2.423 -1.9376  0.2531  2.1439
  635MOL0     H87577   4.351   6.626   2.335 -1.6653  1.1425 -0.5652
  635MOL0     H87578   4.416   6.539   2.481 -0.0384  0.8372  1.0015
  635MOL0     H87579   4.325   6.606   2.729  1.7799  0.5472 -0.6488
  635MOL0     H87580   3.938   6.636   2.836 -1.5379 -0.0779  0.0859
  635MOL0     H87581   4.092   6.704   2.908 -1.4305  2.2807 -2.2255
  635MOL0     H87582   4.106   6.414   2.806 -0.9796  1.9292 -1.2593
  635MOL0     H87583   4.198   6.496   2.918  0.2559 -1.1816  1.4948
  635MOL0     H87584   3.890   6.448   2.947  0.2908  1.1490 -1.5598
  635MOL0     H87585   4.012   6.325   2.995 -3.0393 -0.7435  2.9052
  635MOL0     H87586   3.979   6.618   3.107  1.5299  1.3059 -1.3910
  635MOL0     H87587   3.916   6.484   3.190  0.2202  0.8713  0.0643
  635MOL0     H87588   4.045   6.718   3.297  0.2227 -1.0346 -1.4339
  635MOL0     H87589   4.177   7.041   3.344  2.1106  0.1640  0.8725
  635MOL0     H87590   4.190   6.944   3.498 -0.4204  0.3519  0.1474
  635MOL0     H87591   4.043   6.946   3.406 -0.4386  0.6542 -1.9999
  635MOL0     H87592   4.778   6.976   3.469 -0.5955  0.4767 -0.9568
  635MOL0     H87593   4.918   7.191   3.521  0.1489  4.8541  0.6303
  635MOL0     H87594   4.738   7.578   3.507 -2.2544  1.0559  2.4909
  635MOL0     H87595   4.752   7.549   3.678 -5.8810  1.8048 -3.8989
  635MOL0     H87596   4.979   7.649   3.496  2.0986 -2.0464  1.3135
  635MOL0     H87597   4.864   7.743   3.616 -0.5791 -1.3255  0.1424
  635MOL0     H87598   5.119   7.675   3.683  2.6052 -3.4808  0.6244
  635MOL0     H87599   5.086   7.517   3.653 -3.1872 -3.1325  2.4896
  635MOL0     H87600   4.932   7.495   3.815 -2.0739  0.7485 -0.9605
  635MOL0     H87601   4.921   7.670   3.845 -2.2659 -2.8311  1.4846
  635MOL0     H87602   5.164   7.684   3.898  3.5212 -2.9801 -4.4309
  635MOL0     H87603   5.048   7.611   4.019 -0.6770 -0.6061 -0.3295
  635MOL0     H87604   5.256   7.454   3.844  1.4345 -2.3276  0.2555
  635MOL0     H87605   5.126   7.391   3.946  0.8371 -0.0391 -1.4296
  635MOL0     H87606   5.334   7.383   4.061  3.2331  3.0936  2.8303
  635MOL0     H87607   5.200   7.480   4.129  0.6423 -0.5872  2.2202
  635MOL0     H87608   5.410   7.595   4.164  0.1827  2.8169 -0.2392
  635MOL0     H87609   5.318   7.685   4.040 -2.4251 -1.4793 -0.0978
  635MOL0     H87610   4.568   7.424   3.522  2.1507  0.9630  0.3790
  635MOL0     H87611   4.435   7.228   3.520  0.2620  0.3061  1.1812
  635MOL0     H87612   4.537   6.701   3.284  0.1372 -0.2305  0.9318
  635MOL0     H87613   4.389   6.521   3.177  2.4917  0.6720  1.0254
  635MOL0     H87614   5.023   7.193   2.113  1.3397  0.2785  1.1658
  635MOL0     H87615   4.891   7.361   2.017  2.4837 -1.3088  0.7507
  635MOL0     H87616   4.561   7.663   2.006 -2.0103  1.4149 -2.3993
  635MOL0     H87617   4.390   7.820   1.972 -1.2647  1.6896  3.1404
  635MOL0     H87618   4.502   8.252   2.052 -0.0728 -0.1974  1.7233
  635MOL0     H87619   4.488   8.234   1.868  0.9466 -2.6738  1.0215
  635MOL0     H87620   4.348   8.407   1.979 -1.4209  1.1813  2.2844
  635MOL0     H87621   4.258   8.276   2.065 -0.0390  0.2635  0.3584
  635MOL0     H87622   4.292   8.332   1.773 -1.5967  1.0109 -0.3611
  635MOL0     H87623   4.221   8.178   1.829  1.6405 -0.2062  2.4944
  635MOL0     H87624   4.051   8.410   1.794 -0.9668  0.5332  1.9785
  635MOL0     H87625   4.124   8.445   1.937  0.7808 -0.3579 -1.3440
  635MOL0     H87626   3.866   8.127   2.068  1.1702 -0.9063 -0.3444
  635MOL0     H87627   4.664   8.138   2.055 -1.7954  0.2663  1.0929
  635MOL0     H87628   4.884   8.099   2.082 -0.9441 -0.2198  0.6631
  635MOL0     H87629   4.909   7.962   2.179 -2.0269 -0.9457  0.7241
  635MOL0     H87630   4.955   7.953   2.005 -0.2662 -1.4588  0.0876
  636MOL0     O87631   3.764   0.353  10.410 -0.6541 -0.3517 -0.5571
  636MOL0     C87632   3.786   0.440  10.326 -0.6931 -0.0427  0.3526
  636MOL0     O87633   3.771   0.581  10.337 -0.7257 -0.5715 -0.2525
  636MOL0     C87634   3.742   0.628  10.474 -0.6684  0.7735 -0.0624
  636MOL0     C87635   3.831   0.715  10.539 -0.6241 -0.1831 -1.0272
  636MOL0     C87636   3.808   0.770  10.664  0.3540 -0.2370 -0.4115
  636MOL0     C87637   3.697   0.727  10.740  0.2825  0.2337  0.5060
  636MOL0     O87638   3.672   0.771  10.873 -0.2493 -0.7604  0.3753
  636MOL0     C87639   3.779   0.792  10.963 -0.0528  0.2906 -0.1710
  636MOL0     C87640   3.771   0.937  11.023 -0.2529 -0.0967 -0.2885
  636MOL0     C87641   3.770   1.044  10.908  0.0053  0.6872 -0.0994
  636MOL0     C87642   3.719   1.175  10.971 -1.0523 -0.1276 -0.5042
  636MOL0     C87643   3.727   1.290  10.865  0.6151  0.5656 -0.8548
  636MOL0     C87644   3.652   1.416  10.915 -0.1950 -0.0831 -0.1982
  636MOL0     C87645   3.655   1.530  10.819 -1.1171  0.1162  0.2469
  636MOL0     C87646   3.565   1.644  10.876  0.7623  1.2129  0.0097
  636MOL0     N87647   3.583   1.762  10.794  1.2612 -0.0093  1.2722
  636MOL0     C87648   3.501   1.813  10.694 -1.6688 -0.0170 -0.1215
  636MOL0     C87649   3.545   1.931  10.661 -1.2524  0.5296 -0.2592
  636MOL0     C87650   3.506   2.040  10.573  0.1206  0.2926  0.7136
  636MOL0     C87651   3.368   2.029  10.513  0.2717  0.2066 -0.8406
  636MOL0     C87652   3.344   2.140  10.406  0.0129  1.1529  1.2518
  636MOL0     C87653   3.393   2.276  10.445  0.6555  0.5618 -0.6050
  636MOL0     O87654   3.358   2.355  10.338 -0.1070  0.0437  0.8549
  636MOL0     C87655   3.363   2.485  10.355 -0.6005 -0.2876  0.6756
  636MOL0     C87656   3.300   2.562  10.250  0.6815  0.8078 -0.5426
  636MOL0     C87657   3.292   2.700  10.260  0.0641 -1.1407 -0.4962
  636MOL0     C87658   3.220   2.757  10.138 -0.1281 -1.0884 -0.7064
  636MOL0     C87659   3.338   2.775  10.371 -0.6236 -0.6209  0.6837
  636MOL0     C87660   3.334   2.925  10.391  0.6615 -0.0849 -0.1061
  636MOL0     O87661   3.327   2.999  10.281 -0.1686  0.3001  0.4595
  636MOL0     C87662   3.371   3.133  10.283 -0.5113  1.1658 -0.2992
  636MOL0     C87663   3.284   3.243  10.269  0.3244 -0.3054  0.0597
  636MOL0     C87664   3.333   3.375  10.285  0.6014  0.9812 -0.0389
  636MOL0     C87665   3.471   3.384  10.318 -0.1763  0.0280  0.5448
  636MOL0     O87666   3.526   3.507  10.352 -0.3810 -0.8133  0.4587
  636MOL0     C87667   3.453   3.635  10.347  0.3538 -0.0575 -0.4474
  636MOL0     C87668   3.433   3.689  10.210  0.3936 -0.1399 -0.1890
  636MOL0     C87669   3.373   3.825  10.217 -0.4260  0.2361  0.0307
  636MOL0     C87670   3.372   3.879  10.077 -0.8268  0.3086 -0.0390
  636MOL0     C87671   3.305   4.018  10.077 -0.0455 -1.2641  0.7848
  636MOL0     C87672   3.331   4.080   9.934 -0.3129 -0.6049 -0.0541
  636MOL0     C87673   3.306   4.228   9.955  0.7023 -0.0964  0.6692
  636MOL0     C87674   3.319   4.311   9.832 -0.7526  0.3870 -0.4214
  636MOL0    Cl87675   3.344   4.469   9.891  0.3908  0.0871  0.0020
  636MOL0     C87676   3.549   3.266  10.339  0.9659  0.4056  0.6805
  636MOL0     C87677   3.504   3.144  10.310  0.6075  0.1310  0.2089
  636MOL0     O87678   3.355   2.968  10.511  0.3374  0.0827  0.4202
  636MOL0     C87679   3.407   2.693  10.464  0.0257  0.0411 -0.1686
  636MOL0     C87680   3.426   2.549  10.463  0.1014 -0.6668  0.9212
  636MOL0     N87681   3.672   1.950  10.720  1.1069 -0.0148 -0.7093
  636MOL0     N87682   3.696   1.850  10.802  0.0996  0.9565 -0.1861
  636MOL0     C87683   3.601   0.652  10.677  0.4489  0.9257  0.3184
  636MOL0     C87684   3.624   0.601  10.545 -0.8531 -0.8514 -0.0762
  636MOL0     C87685   3.821   0.396  10.182 -0.0028  0.3161 -0.7737
  636MOL0     C87686   3.843   0.504  10.088  1.2553 -0.1325 -0.8196
  636MOL0     C87687   3.885   0.483   9.958  0.4737  0.3369  0.4679
  636MOL0     C87688   3.883   0.353   9.910  0.3748 -0.0154  0.5684
  636MOL0     O87689   3.904   0.325   9.782  0.3150  0.0498 -0.4033
  636MOL0     C87690   3.853   0.410   9.682 -0.0527 -0.7649  0.6188
  636MOL0     C87691   3.971   0.484   9.611  1.0223  0.0848 -0.5811
  636MOL0     C87692   4.090   0.401   9.585 -0.5197  0.0870 -0.0417
  636MOL0     C87693   4.072   0.272   9.509  0.6733  0.3925  0.0565
  636MOL0     C87694   3.992   0.294   9.389  0.0862  0.3644 -0.2007
  636MOL0     C87695   3.944   0.334   9.284  0.7974 -1.1301 -0.5459
  636MOL0     C87696   3.847   0.248   9.997 -1.0500  0.5840 -0.4478
  636MOL0     C87697   3.825   0.265  10.132  0.5056  0.1438  0.1922
  636MOL0     C87698   3.811   0.142  10.217  0.8170  1.4055  0.0904
  636MOL0     H87699   3.917   0.741  10.479  1.7904  0.0564  2.2191
  636MOL0     H87700   3.868   0.842  10.719  0.3286 -1.4392  1.2854
  636MOL0     H87701   3.874   0.779  10.912 -0.6926 -1.5822 -0.9580
  636MOL0     H87702   3.786   0.719  11.045 -0.1558 -0.3027 -0.6851
  636MOL0     H87703   3.677   0.941  11.080  0.3479 -0.8453  0.7833
  636MOL0     H87704   3.857   0.947  11.090  0.0584  0.6148 -0.7802
  636MOL0     H87705   3.868   1.058  10.863 -1.5794  3.8804 -3.0973
  636MOL0     H87706   3.705   1.008  10.827  0.0792 -0.0949  0.1781
  636MOL0     H87707   3.612   1.163  10.994 -0.7297 -0.8267  0.7401
  636MOL0     H87708   3.780   1.189  11.060  0.3775  1.6072 -1.6755
  636MOL0     H87709   3.685   1.249  10.773  1.4053  1.9977 -1.9161
  636MOL0     H87710   3.830   1.322  10.844  0.1025  4.4675  1.4646
  636MOL0     H87711   3.547   1.392  10.931 -1.4452  1.4909 -4.5022
  636MOL0     H87712   3.699   1.444  11.010 -0.7020  0.2910 -0.0553
  636MOL0     H87713   3.616   1.497  10.722  0.9366  2.3121 -1.4184
  636MOL0     H87714   3.760   1.558  10.812 -0.6613 -1.1791  1.4303
  636MOL0     H87715   3.459   1.615  10.875  0.9140  0.6210 -1.5106
  636MOL0     H87716   3.575   1.674  10.981 -2.8040 -4.8464  2.6837
  636MOL0     H87717   3.409   1.762  10.666 -1.2950 -1.1827  0.7066
  636MOL0     H87718   3.579   2.040  10.492 -0.2954  2.8785  0.2529
  636MOL0     H87719   3.515   2.139  10.620 -2.0343  1.1126 -0.4378
  636MOL0     H87720   3.359   1.928  10.472 -0.4163  0.3550 -1.0666
  636MOL0     H87721   3.296   2.030  10.595  3.0091  0.4075  1.7161
  636MOL0     H87722   3.383   2.114  10.307 -2.0852 -1.2088  0.9289
  636MOL0     H87723   3.238   2.143  10.382  0.1575  1.8232  0.6439
  636MOL0     H87724   3.339   2.313  10.533  0.3030  3.1876 -1.8143
  636MOL0     H87725   3.500   2.268  10.467 -0.2468 -4.0508  4.0456
  636MOL0     H87726   3.229   2.511  10.185 -1.7145  3.3441 -0.1033
  636MOL0     H87727   3.287   2.750  10.052  0.8985  0.4388 -0.0843
  636MOL0     H87728   3.187   2.861  10.137 -0.4802 -1.1766 -2.8766
  636MOL0     H87729   3.135   2.697  10.105 -2.2024  1.2856 -0.0424
  636MOL0     H87730   3.179   3.230  10.244  0.3172  1.5969 -1.1543
  636MOL0     H87731   3.273   3.465  10.286 -1.4150 -0.2876 -0.2734
  636MOL0     H87732   3.358   3.626  10.400  0.1563  2.9270 -0.1377
  636MOL0     H87733   3.506   3.706  10.411  0.4579 -2.0013  1.7171
  636MOL0     H87734   3.523   3.690  10.148 -0.2107  0.9367 -1.0755
  636MOL0     H87735   3.359   3.627  10.160 -4.3503  2.8538  2.3368
  636MOL0     H87736   3.416   3.894  10.289 -1.0285  0.5757  0.0748
  636MOL0     H87737   3.268   3.817  10.248 -0.7637  3.7415  0.1310
  636MOL0     H87738   3.323   3.807  10.011  0.4106 -0.9485  0.3855
  636MOL0     H87739   3.478   3.902  10.060 -0.4275 -1.1116  0.4667
  636MOL0     H87740   3.197   3.998  10.081 -0.6023  0.9371 -0.9661
  636MOL0     H87741   3.334   4.078  10.164 -1.6777  1.1283 -0.2267
  636MOL0     H87742   3.272   4.033   9.855  0.5087 -1.0081 -0.4406
  636MOL0     H87743   3.435   4.053   9.912 -1.0321 -3.1133 -0.6481
  636MOL0     H87744   3.365   4.255  10.043 -0.1822 -2.2829  2.0056
  636MOL0     H87745   3.200   4.230   9.983  0.8509 -0.1062  1.2391
  636MOL0     H87746   3.227   4.312   9.773 -2.1913  1.8047  1.6798
  636MOL0     H87747   3.394   4.270   9.764 -3.1766 -2.3406 -1.6691
  636MOL0     H87748   3.651   3.299  10.356  0.6962  0.7402  1.7006
  636MOL0     H87749   3.562   3.052  10.317  0.2829 -0.2249 -1.4554
  636MOL0     H87750   3.434   2.746  10.555  2.8927  0.3158 -1.0937
  636MOL0     H87751   3.473   2.494  10.543 -1.1764 -1.2245  1.3184
  636MOL0     H87752   3.502   0.641  10.721 -0.3108  3.5352 -0.5655
  636MOL0     H87753   3.543   0.547  10.498 -0.4923 -0.8988 -0.6474
  636MOL0     H87754   3.829   0.607  10.119  4.1057 -0.5019  2.2737
  636MOL0     H87755   3.916   0.577   9.912 -2.8709  1.5841  0.4796
  636MOL0     H87756   3.807   0.343   9.609 -0.5174 -1.1795  1.2731
  636MOL0     H87757   3.776   0.474   9.727 -1.6197 -2.8876  1.1297
  636MOL0     H87758   4.011   0.555   9.685 -3.4836  2.6402 -0.2524
  636MOL0     H87759   3.938   0.537   9.521  3.0447 -2.1971 -2.8309
  636MOL0     H87760   4.167   0.457   9.531  2.3777 -0.5675  3.0779
  636MOL0     H87761   4.141   0.381   9.679 -0.8787 -0.9790 -0.0653
  636MOL0     H87762   4.010   0.209   9.573  0.9707  1.5697  1.5634
  636MOL0     H87763   4.169   0.226   9.486  0.8933  1.0490 -0.3604
  636MOL0     H87764   3.889   0.359   9.195  2.2413  0.3622 -1.0712
  636MOL0     H87765   3.845   0.147   9.957 -3.5617 -0.4218  1.8670
  636MOL0     H87766   3.868   0.140  10.310 -2.6527  0.0614  2.3972
  636MOL0     H87767   3.705   0.114  10.228  1.3174 -2.0426 -2.3123
  636MOL0     H87768   3.848   0.054  10.165  0.0965  0.7392  0.6866
  637MOL0     O87769   3.902   7.018   8.502 -0.1810  0.2465  0.1465
  637MOL0     C87770   3.811   7.078   8.567  0.3253 -0.0646  0.2391
  637MOL0     O87771   3.759   7.035   8.691  0.0405 -0.5728 -0.3468
  637MOL0     C87772   3.802   6.929   8.762 -0.8592 -0.8844 -0.4075
  637MOL0     C87773   3.717   6.889   8.870 -0.6909 -0.1569  0.8792
  637MOL0     C87774   3.722   6.761   8.918 -0.0942  0.5448  0.9636
  637MOL0     C87775   3.820   6.668   8.878  0.2905 -0.2974 -0.2505
  637MOL0     O87776   3.811   6.538   8.920 -0.0010 -0.4654  0.0712
  637MOL0     C87777   3.816   6.449   8.808 -0.0118 -0.4320 -0.2679
  637MOL0     C87778   3.831   6.305   8.852 -0.2744 -0.7547 -0.1414
  637MOL0     C87779   3.964   6.264   8.916 -0.5997  0.2329 -0.5677
  637MOL0     C87780   3.939   6.145   9.007  1.0449 -0.0850  0.0958
  637MOL0     C87781   4.053   6.118   9.112 -0.1473 -0.0167  0.3392
  637MOL0     C87782   4.185   6.071   9.039  0.9000 -0.2018 -0.1122
  637MOL0     C87783   4.156   5.924   8.986  0.1700  1.2398 -0.2665
  637MOL0     C87784   4.286   5.858   8.952  0.2162 -0.4055  0.6315
  637MOL0     N87785   4.339   5.783   9.076 -0.1036 -0.0029 -0.9916
  637MOL0     C87786   4.410   5.668   9.078 -0.5708 -0.2884  0.1032
  637MOL0     C87787   4.448   5.641   9.199  0.4127  0.3412  0.7802
  637MOL0     C87788   4.515   5.519   9.246 -0.4123 -0.7475 -0.2584
  637MOL0     C87789   4.427   5.413   9.300 -0.1137 -0.5881 -0.0819
  637MOL0     C87790   4.345   5.349   9.185 -0.0483 -1.0413  0.2933
  637MOL0     C87791   4.419   5.291   9.068 -0.3490 -0.5524 -0.0039
  637MOL0     O87792   4.523   5.208   9.112 -0.2474  0.3001 -0.0611
  637MOL0     C87793   4.553   5.093   9.035  0.7515  0.1667  0.4080
  637MOL0     C87794   4.564   5.099   8.897  0.7364  0.8584  0.2671
  637MOL0     C87795   4.602   4.992   8.812  0.4386  0.2165 -0.3032
  637MOL0     C87796   4.605   5.006   8.656  0.0870 -0.9072  0.0224
  637MOL0     C87797   4.647   4.875   8.875  0.2323 -1.0004 -0.8955
  637MOL0     C87798   4.682   4.768   8.787 -1.0442  0.1501 -0.3818
  637MOL0     O87799   4.822   4.761   8.761 -0.3416  0.0369 -0.5396
  637MOL0     C87800   4.869   4.637   8.736  0.0137  0.9478  0.7354
  637MOL0     C87801   4.886   4.602   8.600 -0.2058 -0.6497  0.4717
  637MOL0     C87802   4.941   4.473   8.566 -0.6648 -1.2042 -0.4010
  637MOL0     C87803   4.986   4.395   8.674 -0.2753 -0.4469  0.0496
  637MOL0     O87804   5.042   4.278   8.649  0.4191  0.6228 -0.2686
  637MOL0     C87805   5.181   4.269   8.684  0.5833  0.0016 -0.1188
  637MOL0     C87806   5.252   4.141   8.638  0.4908 -0.2319  0.2185
  637MOL0     C87807   5.237   4.122   8.490 -0.3816  0.3569 -0.0258
  637MOL0     C87808   5.347   4.026   8.444  0.3169  0.2219 -0.5844
  637MOL0     C87809   5.318   3.991   8.297  0.0506 -0.4205 -0.0705
  637MOL0     C87810   5.394   3.881   8.240 -0.5328 -0.0795 -0.3467
  637MOL0     C87811   5.543   3.913   8.222  0.1199 -0.2666 -0.7588
  637MOL0     C87812   5.636   3.797   8.213  1.1235 -0.5805  0.8436
  637MOL0    Cl87813   5.799   3.878   8.241 -0.1396 -0.3209  0.4062
  637MOL0     C87814   4.950   4.431   8.802 -0.4573 -0.5220 -0.3032
  637MOL0     C87815   4.886   4.549   8.833  0.9575 -0.2167 -0.0868
  637MOL0     O87816   4.597   4.677   8.771  0.1901  0.1719  0.0722
  637MOL0     C87817   4.634   4.865   9.019 -0.9603 -0.4688 -0.1925
  637MOL0     C87818   4.584   4.969   9.091 -0.0003  0.6354 -0.7275
  637MOL0     N87819   4.388   5.731   9.282 -0.8333  0.0774  0.1401
  637MOL0     N87820   4.320   5.813   9.209 -0.9137 -0.5725  0.7885
  637MOL0     C87821   3.922   6.723   8.797  0.1588  0.4670 -1.3838
  637MOL0     C87822   3.911   6.853   8.744 -0.7705  1.5637 -0.2665
  637MOL0     C87823   3.736   7.184   8.491  0.8776 -0.2047 -0.1320
  637MOL0     C87824   3.811   7.289   8.435  0.7562  0.0742  0.9378
  637MOL0     C87825   3.754   7.396   8.371  0.7472  0.2519  0.4797
  637MOL0     C87826   3.616   7.391   8.339 -1.2606 -0.2743 -0.1206
  637MOL0     O87827   3.561   7.486   8.259  0.4765 -0.7995 -0.4035
  637MOL0     C87828   3.631   7.607   8.223 -0.3670  0.1005  0.1194
  637MOL0     C87829   3.539   7.718   8.174  0.6574  0.1695  0.3811
  637MOL0     C87830   3.443   7.768   8.288 -0.1671  0.0805 -0.4996
  637MOL0     C87831   3.335   7.865   8.233  0.3079 -0.3533 -0.2281
  637MOL0     C87832   3.382   7.994   8.175 -0.1461 -0.1978  0.0996
  637MOL0     C87833   3.434   8.099   8.149 -1.0776  0.3504  0.4190
  637MOL0     C87834   3.539   7.284   8.380  0.3406 -0.2977 -0.1555
  637MOL0     C87835   3.596   7.184   8.458  0.0780  1.2106  0.8523
  637MOL0     C87836   3.494   7.082   8.498  0.1402  1.2012  0.0841
  637MOL0     H87837   3.636   6.952   8.903 -0.7787  2.0484 -2.9578
  637MOL0     H87838   3.647   6.730   8.990  0.1372  0.2546  1.0795
  637MOL0     H87839   3.903   6.477   8.748  1.1352  0.3313  1.6455
  637MOL0     H87840   3.716   6.458   8.763 -0.7763 -2.3399  0.9092
  637MOL0     H87841   3.752   6.291   8.926 -0.5387 -0.7403 -0.4189
  637MOL0     H87842   3.800   6.245   8.766 -3.5660 -4.4844  3.2375
  637MOL0     H87843   4.047   6.245   8.847  2.0532 -1.6445  2.8823
  637MOL0     H87844   3.999   6.346   8.978  0.9401 -0.8867  0.0854
  637MOL0     H87845   3.846   6.168   9.061  1.5744 -0.0152  0.9990
  637MOL0     H87846   3.925   6.056   8.946 -0.3700  0.0656  0.1719
  637MOL0     H87847   4.007   6.050   9.186  1.5808  1.2061  2.6675
  637MOL0     H87848   4.082   6.215   9.154 -1.2752 -0.0354  1.2191
  637MOL0     H87849   4.217   6.133   8.955 -1.5942  1.7503  0.2117
  637MOL0     H87850   4.255   6.066   9.123  0.0238 -0.3372  0.6361
  637MOL0     H87851   4.109   5.940   8.888 -3.8840 -1.9143  0.8927
  637MOL0     H87852   4.088   5.862   9.044 -3.2878  2.3005 -2.8091
  637MOL0     H87853   4.276   5.790   8.867  0.7527  0.6567 -0.2976
  637MOL0     H87854   4.357   5.936   8.923 -1.1883  0.0738 -1.7179
  637MOL0     H87855   4.435   5.605   8.993 -3.2079  1.5935 -2.2590
  637MOL0     H87856   4.584   5.548   9.327 -1.1023 -0.3102  0.1814
  637MOL0     H87857   4.573   5.483   9.161 -3.9439  0.9410 -3.6502
  637MOL0     H87858   4.483   5.337   9.356  1.8661  0.9423  0.1153
  637MOL0     H87859   4.351   5.455   9.366  2.4756  2.3413  1.2452
  637MOL0     H87860   4.283   5.266   9.220 -1.1471 -0.9090 -1.2467
  637MOL0     H87861   4.270   5.419   9.148 -1.4929 -3.4244 -1.5627
  637MOL0     H87862   4.354   5.235   8.999 -1.0367  0.0108  0.1759
  637MOL0     H87863   4.460   5.367   9.002  0.0630 -0.2372  0.6128
  637MOL0     H87864   4.543   5.198   8.859 -0.0626  0.0650 -1.4570
  637MOL0     H87865   4.545   5.095   8.637 -1.4930 -1.0357  3.6778
  637MOL0     H87866   4.540   4.927   8.615 -1.0665  0.2785 -0.5048
  637MOL0     H87867   4.698   5.017   8.598  0.7055  1.1132  1.3050
  637MOL0     H87868   4.857   4.667   8.518  1.8041 -2.2934 -1.6853
  637MOL0     H87869   4.964   4.441   8.465 -2.3845 -1.3720 -0.7618
  637MOL0     H87870   5.234   4.361   8.657  0.1139 -0.0272 -1.1972
  637MOL0     H87871   5.189   4.263   8.793  1.5734  0.9008 -0.1226
  637MOL0     H87872   5.359   4.150   8.661  1.2727 -2.4089 -2.1099
  637MOL0     H87873   5.223   4.049   8.689  1.8937 -1.9182 -1.8469
  637MOL0     H87874   5.262   4.215   8.438  2.6587  0.1242  0.8335
  637MOL0     H87875   5.133   4.099   8.465  0.5902 -3.9096 -0.9771
  637MOL0     H87876   5.337   3.937   8.506 -2.2309  2.3467  2.3453
  637MOL0     H87877   5.450   4.059   8.461  0.5416  0.3682 -2.0556
  637MOL0     H87878   5.212   3.968   8.289  0.4156 -2.4250  0.2894
  637MOL0     H87879   5.337   4.083   8.240 -0.9531  1.7100  2.7805
  637MOL0     H87880   5.356   3.855   8.141  0.5401  0.0175 -0.8032
  637MOL0     H87881   5.399   3.796   8.308  0.6606  1.3538  1.4670
  637MOL0     H87882   5.570   3.982   8.303 -3.6273  1.1105 -0.4914
  637MOL0     H87883   5.556   3.966   8.127 -0.4380  0.6003 -0.3685
  637MOL0     H87884   5.631   3.753   8.113  1.1513  2.3973 -0.5805
  637MOL0     H87885   5.626   3.717   8.288 -1.4732  1.1244  2.5002
  637MOL0     H87886   4.998   4.373   8.879  1.7925 -0.6267 -1.6933
  637MOL0     H87887   4.867   4.591   8.931 -0.2238  0.9614 -0.7891
  637MOL0     H87888   4.677   4.786   9.079  0.3783  1.1736  1.1241
  637MOL0     H87889   4.593   4.960   9.199  1.7864  1.3948 -0.7724
  637MOL0     H87890   4.008   6.664   8.767 -1.4282 -3.1845  0.6325
  637MOL0     H87891   3.986   6.882   8.671 -0.3651 -0.2897 -0.6474
  637MOL0     H87892   3.919   7.293   8.444  0.9138 -2.1773  0.5830
  637MOL0     H87893   3.816   7.477   8.333 -0.6590  0.5477 -1.2872
  637MOL0     H87894   3.689   7.642   8.308 -1.5065  0.8696  0.5950
  637MOL0     H87895   3.693   7.577   8.137 -0.9500 -2.3564  0.4878
  637MOL0     H87896   3.475   7.686   8.092  0.8173  4.3612 -1.6499
  637MOL0     H87897   3.601   7.805   8.150  3.6120 -2.2767 -1.6968
  637MOL0     H87898   3.389   7.687   8.339 -0.7083  1.3583  1.0442
  637MOL0     H87899   3.517   7.819   8.351 -0.1311 -0.0060 -0.4718
  637MOL0     H87900   3.263   7.882   8.314  2.7401  2.6281  1.5342
  637MOL0     H87901   3.279   7.813   8.154 -3.4669  1.8543  0.7125
  637MOL0     H87902   3.480   8.189   8.114  2.0138 -0.8637  1.0856
  637MOL0     H87903   3.435   7.278   8.349  0.7343  0.0643 -1.6056
  637MOL0     H87904   3.545   6.989   8.526 -1.3606 -0.3325 -1.9691
  637MOL0     H87905   3.434   7.117   8.582 -0.8895  1.6013 -0.7945
  637MOL0     H87906   3.430   7.055   8.414  1.1296 -1.0592 -0.0373
  638MOL0     O87907   3.590   9.719   4.589  0.1891  0.6888 -0.0751
  638MOL0     C87908   3.664   9.641   4.520  0.3880 -1.0171  1.0442
  638MOL0     O87909   3.774   9.689   4.448 -0.4617 -0.0257  0.6423
  638MOL0     C87910   3.839   9.803   4.475  0.2753  0.2460  0.6104
  638MOL0     C87911   3.769   9.916   4.453  0.1379 -0.5519  0.2550
  638MOL0     C87912   3.828  10.037   4.470  0.3728  0.2203  0.3920
  638MOL0     C87913   3.966  10.050   4.483  0.3656 -0.0990 -0.2699
  638MOL0     O87914   4.008  10.176   4.453 -0.4322 -0.7473  0.2018
  638MOL0     C87915   4.097  10.226   4.550 -0.5377  0.4773 -0.3858
  638MOL0     C87916   4.142  10.372   4.506  0.7711 -0.6344  0.6786
  638MOL0     C87917   4.041  10.479   4.495 -0.9314 -0.0752 -0.1491
  638MOL0     C87918   4.093  10.626   4.468 -0.9984  0.0370  0.1800
  638MOL0     C87919   3.982  10.739   4.481 -0.1539 -0.0573  0.0671
  638MOL0     C87920   3.945  10.768   4.633 -0.8151 -0.0086 -0.2433
  638MOL0     C87921   3.830  10.868   4.662 -0.5073 -0.0920 -0.3239
  638MOL0     C87922   3.702  10.813   4.595 -0.8916  0.1071 -0.7960
  638MOL0     N87923   3.659  10.684   4.649 -1.0664 -0.0752 -0.6344
  638MOL0     C87924   3.673  10.562   4.592  0.0717  0.0488 -0.1859
  638MOL0     C87925   3.626  10.474   4.686 -0.1375 -0.4468 -0.0855
  638MOL0     C87926   3.621  10.324   4.679  0.4080  0.5056  0.4032
  638MOL0     C87927   3.747  10.257   4.736 -0.1469 -0.1096 -0.6270
  638MOL0     C87928   3.703  10.123   4.811  0.9100  0.4992 -0.3708
  638MOL0     C87929   3.810  10.102   4.920 -0.7049 -0.6005 -0.0189
  638MOL0     O87930   3.935  10.070   4.850 -0.5038 -0.4022 -0.5354
  638MOL0     C87931   3.970   9.933   4.841  0.8254  0.2821  0.2441
  638MOL0     C87932   4.103   9.901   4.793  0.5556  0.1337  0.1107
  638MOL0     C87933   4.142   9.769   4.767  0.5329 -0.1148  0.1773
  638MOL0     C87934   4.282   9.745   4.720  0.0868  0.2957  0.2247
  638MOL0     C87935   4.049   9.659   4.793 -0.9123 -0.8484  0.3530
  638MOL0     C87936   4.068   9.510   4.734  0.1554 -0.1818  0.3437
  638MOL0     O87937   4.195   9.460   4.711  0.2375 -0.8730 -0.2819
  638MOL0     C87938   4.208   9.331   4.663 -0.6785 -0.2626 -0.7993
  638MOL0     C87939   4.145   9.219   4.721 -0.4315 -0.4054  0.1463
  638MOL0     C87940   4.146   9.093   4.650 -0.2090 -0.3886 -0.3702
  638MOL0     C87941   4.223   9.079   4.536  0.4421  0.5301  0.4267
  638MOL0     O87942   4.248   8.962   4.470  0.8787  0.2562 -0.1474
  638MOL0     C87943   4.257   8.838   4.542  0.1475 -0.5187 -0.4218
  638MOL0     C87944   4.261   8.713   4.442 -0.7270  0.2017 -0.4650
  638MOL0     C87945   4.138   8.706   4.353 -0.6493  0.2104  0.5009
  638MOL0     C87946   4.170   8.629   4.223  0.5737 -0.3670  0.0363
  638MOL0     C87947   4.047   8.549   4.194 -0.0355 -1.0824  0.2842
  638MOL0     C87948   4.042   8.514   4.042  1.0085  0.1993 -1.2326
  638MOL0     C87949   4.164   8.432   3.983  0.2488  0.7947  0.2397
  638MOL0     C87950   4.108   8.286   3.969 -0.0341 -0.5421  0.5770
  638MOL0    Cl87951   3.975   8.291   3.854 -0.2670  0.0572  0.0218
  638MOL0     C87952   4.288   9.194   4.479  0.9600  1.4548  0.5057
  638MOL0     C87953   4.267   9.311   4.540  0.1155 -0.1012  0.9024
  638MOL0     O87954   3.964   9.446   4.730 -0.8881  0.4231  0.2227
  638MOL0     C87955   3.927   9.691   4.848  0.0742  0.0596  0.3954
  638MOL0     C87956   3.885   9.822   4.851  0.0004 -1.4429 -0.2132
  638MOL0     N87957   3.578  10.540   4.793  0.1809  0.5476 -0.5007
  638MOL0     N87958   3.595  10.661   4.767 -0.3064  0.2463 -0.1699
  638MOL0     C87959   4.047   9.934   4.495 -0.2576 -0.3646  0.2484
  638MOL0     C87960   3.984   9.808   4.504  0.4511  0.1195  0.5794
  638MOL0     C87961   3.640   9.492   4.505 -1.3061  0.7824 -0.5902
  638MOL0     C87962   3.743   9.404   4.479  0.1968  0.1523  0.9346
  638MOL0     C87963   3.731   9.270   4.437 -0.1349  0.1670  0.3547
  638MOL0     C87964   3.605   9.214   4.411  1.3227  0.2048  0.3255
  638MOL0     O87965   3.578   9.092   4.357  0.1432  0.0564  0.2752
  638MOL0     C87966   3.681   9.008   4.307 -0.1417 -1.0179  0.2456
  638MOL0     C87967   3.775   8.940   4.416 -0.1559  0.6442  0.9272
  638MOL0     C87968   3.708   8.864   4.529 -0.5575 -0.1691 -0.8411
  638MOL0     C87969   3.597   8.760   4.502 -0.5615 -0.7740  0.3971
  638MOL0     C87970   3.619   8.666   4.388  0.4270  0.7095 -0.3790
  638MOL0     C87971   3.642   8.580   4.301  0.4413 -0.6696  0.2200
  638MOL0     C87972   3.494   9.294   4.450  0.9583 -0.9685  0.5575
  638MOL0     C87973   3.513   9.425   4.506  1.3890  0.0206  0.0702
  638MOL0     C87974   3.385   9.494   4.553 -0.0186 -0.6650 -0.0888
  638MOL0     H87975   3.660   9.919   4.448  0.1152 -2.3969 -2.4352
  638MOL0     H87976   3.769  10.128   4.466 -1.1207 -0.6969  0.7638
  638MOL0     H87977   4.186  10.162   4.552  1.1960  2.7724  1.7722
  638MOL0     H87978   4.053  10.227   4.650 -1.1628 -1.2648 -0.6070
  638MOL0     H87979   4.230  10.402   4.564  2.5724 -0.5317 -1.8865
  638MOL0     H87980   4.182  10.362   4.404 -1.5010 -1.7181 -0.1722
  638MOL0     H87981   3.977  10.449   4.412 -1.3636  3.2691 -1.1966
  638MOL0     H87982   3.989  10.476   4.591  2.5830 -2.4513  1.9341
  638MOL0     H87983   4.182  10.646   4.527  0.8629 -0.9043 -2.1388
  638MOL0     H87984   4.151  10.638   4.376  1.6200  2.7974  2.0041
  638MOL0     H87985   3.896  10.712   4.420 -0.2128  0.9344 -0.3214
  638MOL0     H87986   4.024  10.831   4.438 -0.4642  0.3778  0.6812
  638MOL0     H87987   3.919  10.682   4.694 -1.5289  1.2053  1.2104
  638MOL0     H87988   4.037  10.793   4.688  0.7620 -0.8737 -2.3313
  638MOL0     H87989   3.845  10.961   4.607 -0.0722  0.5936  0.9075
  638MOL0     H87990   3.828  10.892   4.769 -0.2439 -0.2784 -0.2763
  638MOL0     H87991   3.623  10.888   4.611  1.5236  2.6409  0.1763
  638MOL0     H87992   3.723  10.812   4.487 -1.9960 -0.4880 -1.0134
  638MOL0     H87993   3.715  10.546   4.493 -0.5897  1.8032 -0.8086
  638MOL0     H87994   3.624  10.297   4.573  1.0410 -3.0133  1.1919
  638MOL0     H87995   3.523  10.297   4.718  0.1395  1.6695  0.5925
  638MOL0     H87996   3.817  10.233   4.656  0.6664  0.2327 -0.0337
  638MOL0     H87997   3.785  10.328   4.810  2.2780 -0.8321 -1.0853
  638MOL0     H87998   3.605  10.130   4.859 -0.2335  0.8968 -2.6221
  638MOL0     H87999   3.702  10.030   4.753  2.2519 -0.1553  0.6106
  638MOL0     H88000   3.841  10.196   4.967  0.4118 -1.0463  0.1732
  638MOL0     H88001   3.783  10.023   4.991 -1.3406 -0.8008 -0.4717
  638MOL0     H88002   4.173   9.984   4.782  0.2442  0.2043 -1.8029
  638MOL0     H88003   4.330   9.843   4.713  0.2911  0.1706 -0.1627
  638MOL0     H88004   4.288   9.704   4.618 -2.1631 -2.4700  1.0622
  638MOL0     H88005   4.327   9.674   4.790 -0.5548 -1.9092 -1.4852
  638MOL0     H88006   4.092   9.235   4.815 -0.0429  4.9403 -0.2113
  638MOL0     H88007   4.102   9.012   4.708  1.4198 -0.5752  0.6441
  638MOL0     H88008   4.353   8.834   4.594  0.3242 -2.0566 -0.8057
  638MOL0     H88009   4.175   8.833   4.615  1.2087  0.9109  0.9267
  638MOL0     H88010   4.343   8.715   4.369 -1.3079  0.0001 -1.1308
  638MOL0     H88011   4.267   8.631   4.514 -1.4315  1.7914  1.5073
  638MOL0     H88012   4.119   8.809   4.321  0.6275 -0.4913 -3.0328
  638MOL0     H88013   4.061   8.653   4.409 -1.9910  0.8573 -0.6583
  638MOL0     H88014   4.250   8.560   4.251 -0.4655 -2.0148 -0.8530
  638MOL0     H88015   4.196   8.697   4.141 -1.1833  0.1859 -0.1158
  638MOL0     H88016   4.053   8.467   4.266 -0.1212 -1.3070  0.0377
  638MOL0     H88017   3.958   8.607   4.219 -0.9475 -3.3634  2.9458
  638MOL0     H88018   4.029   8.607   3.985  2.4919  0.3648 -1.3454
  638MOL0     H88019   3.951   8.454   4.029 -0.2765  1.7011  0.3254
  638MOL0     H88020   4.246   8.426   4.055  0.6941 -2.2100 -0.3640
  638MOL0     H88021   4.187   8.470   3.883  0.1113  0.4224  0.0650
  638MOL0     H88022   4.069   8.248   4.064  0.2780  0.9099  1.3095
  638MOL0     H88023   4.185   8.213   3.944 -1.2418 -1.7856  0.3863
  638MOL0     H88024   4.340   9.193   4.383 -1.4066 -1.0393 -0.9001
  638MOL0     H88025   4.301   9.398   4.485 -0.0996 -1.0018 -0.7233
  638MOL0     H88026   3.850   9.614   4.853  0.3556 -0.1947  0.9135
  638MOL0     H88027   3.786   9.860   4.873  1.0533  1.6912 -0.4619
  638MOL0     H88028   4.155   9.946   4.485  0.3300 -3.9737  1.0579
  638MOL0     H88029   4.042   9.717   4.494 -0.4270 -0.9414  3.8291
  638MOL0     H88030   3.837   9.457   4.469 -0.8716  1.8108 -1.3002
  638MOL0     H88031   3.823   9.218   4.411  0.6912  0.7767  1.9786
  638MOL0     H88032   3.650   8.934   4.232  1.1622  0.4651 -1.8918
  638MOL0     H88033   3.746   9.070   4.245  1.1881  0.5799  3.0488
  638MOL0     H88034   3.836   9.017   4.465  1.5486 -1.7451  2.8055
  638MOL0     H88035   3.849   8.872   4.372 -0.6286 -0.4787  1.8178
  638MOL0     H88036   3.788   8.815   4.586 -1.2963 -1.0921 -0.5626
  638MOL0     H88037   3.670   8.946   4.590  0.3928 -0.5596  0.3184
  638MOL0     H88038   3.500   8.811   4.496  1.6175  4.1528  1.3337
  638MOL0     H88039   3.597   8.692   4.588 -1.2824  0.2112  1.1985
  638MOL0     H88040   3.654   8.512   4.219 -2.5146  0.5937 -1.4280
  638MOL0     H88041   3.392   9.257   4.449 -0.3765  2.0053  4.2458
  638MOL0     H88042   3.400   9.502   4.661  1.1612 -0.9521 -0.2202
  638MOL0     H88043   3.385   9.593   4.508  0.5225 -2.0589 -3.5325
  638MOL0     H88044   3.291   9.454   4.513  0.6713 -0.3395 -2.1401
  639MOL0     O88045   1.893   8.882   4.737  0.6312 -0.0273  0.1328
  639MOL0     C88046   1.869   8.979   4.666 -0.7760 -0.4802 -0.3162
  639MOL0     O88047   1.864   9.117   4.709  0.0886 -0.1708 -0.9147
  639MOL0     C88048   1.896   9.144   4.840 -0.4137  0.2334  0.6429
  639MOL0     C88049   2.005   9.228   4.861 -0.1092  0.3783 -0.7368
  639MOL0     C88050   2.034   9.263   4.991  0.6318 -0.6117 -0.1058
  639MOL0     C88051   1.958   9.221   5.102  0.1133 -1.0489  0.4359
  639MOL0     O88052   1.994   9.262   5.229  0.4318  0.7160  0.2203
  639MOL0     C88053   1.894   9.240   5.329  0.1010  0.4212 -0.2297
  639MOL0     C88054   1.938   9.302   5.453  0.8123 -0.2212  0.6637
  639MOL0     C88055   1.928   9.457   5.441  0.4878  0.7412  0.2930
  639MOL0     C88056   1.967   9.524   5.567  0.6172 -0.5755  0.6910
  639MOL0     C88057   1.870   9.507   5.681 -0.1314  0.2620  0.1094
  639MOL0     C88058   1.935   9.564   5.811  0.8142  0.2072  0.2667
  639MOL0     C88059   1.968   9.720   5.805 -1.3589 -0.1779  0.0381
  639MOL0     C88060   2.000   9.765   5.943 -1.0149 -0.0351  0.0559
  639MOL0     N88061   2.134   9.737   5.986  0.3652  0.2364  0.8397
  639MOL0     C88062   2.245   9.811   5.973 -0.0527 -0.9581  0.1763
  639MOL0     C88063   2.346   9.744   6.030 -0.2839  0.3249  0.6805
  639MOL0     C88064   2.482   9.791   6.027  0.1288  0.9270 -0.1938
  639MOL0     C88065   2.586   9.679   5.984 -1.0117  0.7225 -0.6568
  639MOL0     C88066   2.614   9.561   6.081 -1.4494 -0.4629  1.2072
  639MOL0     C88067   2.751   9.506   6.049  0.2182 -0.1302 -0.1812
  639MOL0     O88068   2.779   9.471   5.913  0.6355  0.3268  0.7314
  639MOL0     C88069   2.898   9.428   5.880  0.1084  0.9655  0.4841
  639MOL0     C88070   2.908   9.353   5.769  1.0560  0.2194  1.1267
  639MOL0     C88071   3.034   9.330   5.711 -0.2059  0.9543  0.5953
  639MOL0     C88072   3.038   9.229   5.596  0.9554  0.8098  0.4668
  639MOL0     C88073   3.150   9.388   5.764 -0.2741 -0.1440  0.0724
  639MOL0     C88074   3.289   9.384   5.697 -0.5969 -0.1256  0.2066
  639MOL0     O88075   3.393   9.431   5.781  0.4577 -0.4171  0.4985
  639MOL0     C88076   3.516   9.420   5.728 -0.4577 -1.3706  0.3637
  639MOL0     C88077   3.589   9.304   5.730  0.7501  0.5304 -0.4440
  639MOL0     C88078   3.720   9.310   5.690 -0.3625 -0.7194  0.8225
  639MOL0     C88079   3.779   9.420   5.620  0.1624 -0.4323  0.1202
  639MOL0     O88080   3.908   9.428   5.569 -0.4688 -0.3727  0.5600
  639MOL0     C88081   3.954   9.307   5.498  0.3519  0.8686 -0.6653
  639MOL0     C88082   3.904   9.327   5.359 -0.6726  0.1860 -0.1911
  639MOL0     C88083   4.005   9.273   5.246 -0.9160  0.8314  0.1139
  639MOL0     C88084   3.946   9.305   5.105 -0.1915 -0.1186  1.1485
  639MOL0     C88085   3.863   9.195   5.039  0.1258 -1.4240  0.4294
  639MOL0     C88086   3.766   9.225   4.927  0.9538  0.5972  0.8262
  639MOL0     C88087   3.654   9.318   4.973  0.2590  0.1498  1.0090
  639MOL0     C88088   3.553   9.347   4.859 -0.0696  0.2203 -0.7261
  639MOL0    Cl88089   3.389   9.374   4.932 -0.1443  0.5036 -0.1501
  639MOL0     C88090   3.706   9.540   5.627  0.8396  0.1666 -0.7413
  639MOL0     C88091   3.579   9.536   5.687  1.1857  0.4114 -0.6421
  639MOL0     O88092   3.310   9.346   5.583  0.0454 -0.1545 -0.1182
  639MOL0     C88093   3.143   9.459   5.887 -0.1242 -0.0074 -0.3700
  639MOL0     C88094   3.016   9.492   5.936  0.3636  0.4106  0.1042
  639MOL0     N88095   2.293   9.627   6.083  0.1007 -0.2414 -0.0416
  639MOL0     N88096   2.164   9.619   6.056  0.2818 -0.2080 -0.6114
  639MOL0     C88097   1.851   9.140   5.071 -1.0859  0.3340  0.6912
  639MOL0     C88098   1.823   9.099   4.944 -0.3919 -0.8587 -0.6043
  639MOL0     C88099   1.843   8.945   4.525 -0.1542 -0.5679 -1.2034
  639MOL0     C88100   1.761   9.032   4.456  0.1119 -0.4949 -0.0452
  639MOL0     C88101   1.745   9.027   4.316  0.0528  1.0979 -0.8009
  639MOL0     C88102   1.810   8.927   4.246  0.2189 -0.0276  0.9264
  639MOL0     O88103   1.800   8.941   4.108  1.2115 -0.6794  0.0318
  639MOL0     C88104   1.857   8.846   4.015 -0.3132 -0.4096  0.2262
  639MOL0     C88105   1.770   8.872   3.888 -0.3882  0.3952 -0.3986
  639MOL0     C88106   1.805   8.802   3.757  0.2203  0.1847  0.2708
  639MOL0     C88107   1.836   8.653   3.772 -0.7582 -1.1383  0.6894
  639MOL0     C88108   1.721   8.580   3.822  0.9209  1.2356  0.1637
  639MOL0     C88109   1.615   8.532   3.856 -0.3264  0.0689  0.0835
  639MOL0     C88110   1.912   8.849   4.308  0.0122 -0.7751 -0.1743
  639MOL0     C88111   1.917   8.848   4.447 -0.0636 -0.6194  0.5345
  639MOL0     C88112   2.027   8.764   4.498 -0.8177 -0.3238 -0.9695
  639MOL0     H88113   2.076   9.254   4.783  2.5422 -2.6362  0.4204
  639MOL0     H88114   2.121   9.326   5.009 -0.0134  2.0368 -4.6878
  639MOL0     H88115   1.871   9.133   5.338 -1.1518  0.4106 -2.7538
  639MOL0     H88116   1.806   9.295   5.297 -0.0951  1.9253  2.5957
  639MOL0     H88117   1.871   9.275   5.535 -0.3274 -0.2113 -0.2474
  639MOL0     H88118   2.040   9.270   5.474  0.2797 -2.2831  0.2761
  639MOL0     H88119   1.988   9.489   5.356  1.8633 -1.2601  0.4352
  639MOL0     H88120   1.821   9.479   5.427  0.3441 -0.5743 -1.0165
  639MOL0     H88121   2.068   9.489   5.588  1.2391 -0.0875 -1.3041
  639MOL0     H88122   1.990   9.630   5.554 -0.7197 -0.2944  0.3954
  639MOL0     H88123   1.847   9.402   5.700 -0.9645 -0.4571 -3.9459
  639MOL0     H88124   1.776   9.555   5.650  0.7164  0.1848 -2.8729
  639MOL0     H88125   1.864   9.553   5.893  2.6356 -1.5625  1.7047
  639MOL0     H88126   2.024   9.511   5.845  0.5947 -1.3309 -1.4169
  639MOL0     H88127   1.884   9.775   5.762  0.9740  1.1398 -3.2669
  639MOL0     H88128   2.049   9.726   5.732 -0.0339  0.1915  1.5012
  639MOL0     H88129   1.991   9.874   5.944 -2.5801 -0.1035  2.5361
  639MOL0     H88130   1.933   9.717   6.016  0.8232 -2.3289  0.3788
  639MOL0     H88131   2.244   9.906   5.920 -0.3192 -0.7665  0.5213
  639MOL0     H88132   2.518   9.823   6.125  2.0564  0.4300 -0.6980
  639MOL0     H88133   2.499   9.874   5.958 -0.0193 -0.5910 -2.1648
  639MOL0     H88134   2.554   9.633   5.891 -1.0128  1.9192 -1.2695
  639MOL0     H88135   2.679   9.731   5.956 -0.6536  1.4502  1.6386
  639MOL0     H88136   2.617   9.594   6.186  3.0194  0.0760  1.0796
  639MOL0     H88137   2.534   9.486   6.077  0.2087 -2.2347 -0.3531
  639MOL0     H88138   2.822   9.586   6.072  0.4662 -0.6479  0.9122
  639MOL0     H88139   2.776   9.425   6.119 -1.6880 -1.8311 -1.3323
  639MOL0     H88140   2.818   9.313   5.723  0.9589  1.2146  0.4319
  639MOL0     H88141   3.073   9.132   5.633 -2.3146 -0.4961  0.4886
  639MOL0     H88142   3.079   9.274   5.505 -0.1590 -0.5887 -0.7750
  639MOL0     H88143   2.938   9.201   5.563  1.0966 -3.8678  3.1180
  639MOL0     H88144   3.565   9.214   5.784  2.0128 -0.0179 -0.7544
  639MOL0     H88145   3.786   9.225   5.704 -2.6424 -2.3509  2.6666
  639MOL0     H88146   4.061   9.300   5.523 -0.3897 -0.1668  2.6890
  639MOL0     H88147   3.910   9.212   5.530 -1.4402  0.7064 -3.3052
  639MOL0     H88148   3.815   9.264   5.345 -0.0785 -0.7664  0.1886
  639MOL0     H88149   3.892   9.433   5.335  0.4440  0.6285  1.0922
  639MOL0     H88150   4.064   9.181   5.260  1.2856  1.7824 -2.1916
  639MOL0     H88151   4.094   9.336   5.255  3.0521 -3.7903 -2.1662
  639MOL0     H88152   4.027   9.330   5.035  1.2629 -1.2477  2.3513
  639MOL0     H88153   3.882   9.393   5.111 -2.2850 -1.2298 -2.2152
  639MOL0     H88154   3.930   9.120   4.997  1.0879  1.3041 -3.4784
  639MOL0     H88155   3.817   9.149   5.127 -0.2156  0.3354  1.2219
  639MOL0     H88156   3.710   9.133   4.908 -0.0656  1.4526 -0.5161
  639MOL0     H88157   3.812   9.262   4.835 -0.2426  0.2813  0.0760
  639MOL0     H88158   3.690   9.404   5.031  2.5178 -1.0357  1.5034
  639MOL0     H88159   3.616   9.261   5.058  2.8542  1.3645  3.1372
  639MOL0     H88160   3.555   9.264   4.788  0.2137 -0.6780  0.2881
  639MOL0     H88161   3.578   9.436   4.802 -0.3595 -0.9368 -2.7516
  639MOL0     H88162   3.739   9.639   5.598 -1.5201  1.3311  0.2997
  639MOL0     H88163   3.532   9.630   5.712 -1.1502 -1.2158  1.6408
  639MOL0     H88164   3.230   9.495   5.941 -0.9167 -1.2363  1.8379
  639MOL0     H88165   3.021   9.559   6.021 -2.1026 -1.7133  2.1089
  639MOL0     H88166   1.777   9.100   5.139 -0.1466  0.4178  1.7808
  639MOL0     H88167   1.741   9.029   4.933 -0.2145 -1.1793  0.0439
  639MOL0     H88168   1.707   9.114   4.502  1.3613 -0.6582  1.8279
  639MOL0     H88169   1.694   9.103   4.257 -0.5298 -0.2003 -2.0138
  639MOL0     H88170   1.960   8.870   3.989  0.0037  0.1847  1.9387
  639MOL0     H88171   1.846   8.748   4.060 -1.7101 -0.7149 -0.6927
  639MOL0     H88172   1.779   8.981   3.881  1.9858  0.7271  4.1690
  639MOL0     H88173   1.666   8.852   3.915  0.1987 -0.3677  1.4510
  639MOL0     H88174   1.711   8.813   3.703 -1.3710 -1.3595  2.5458
  639MOL0     H88175   1.885   8.862   3.713  1.6516 -3.1801 -2.1420
  639MOL0     H88176   1.919   8.642   3.842  0.3957 -0.8538 -0.5874
  639MOL0     H88177   1.884   8.604   3.686  0.4111 -1.1720  1.3450
  639MOL0     H88178   1.521   8.496   3.891 -0.1853 -1.2271 -0.8200
  639MOL0     H88179   1.980   8.779   4.261  1.3523 -0.6946  1.5098
  639MOL0     H88180   2.094   8.724   4.421 -1.8359 -0.6872 -1.7057
  639MOL0     H88181   2.089   8.833   4.556  0.8400 -0.5627 -2.3669
  639MOL0     H88182   2.000   8.680   4.563 -1.2351 -0.0497 -0.7848
  640MOL0     O88183   6.631   0.696   6.235  0.1382 -0.2536 -0.8441
  640MOL0     C88184   6.711   0.747   6.313 -0.1843 -0.4584 -0.3777
  640MOL0     O88185   6.835   0.707   6.327 -0.4695  0.4413 -0.3271
  640MOL0     C88186   6.885   0.615   6.234  0.3781 -0.4496  0.0223
  640MOL0     C88187   6.873   0.636   6.091  0.2264 -0.0520 -0.4223
  640MOL0     C88188   6.961   0.566   6.008  0.9383 -0.1121 -0.1334
  640MOL0     C88189   7.026   0.451   6.053  0.4673  0.0598 -0.0045
  640MOL0     O88190   7.087   0.369   5.965 -0.3698  0.3294 -0.9293
  640MOL0     C88191   7.223   0.402   5.926 -0.2778 -0.1323  0.9406
  640MOL0     C88192   7.265   0.377   5.789 -0.0449 -0.0666 -0.2005
  640MOL0     C88193   7.235   0.236   5.735  0.5305 -0.5556  0.8914
  640MOL0     C88194   7.255   0.238   5.582 -0.4156  0.9311  0.3558
  640MOL0     C88195   7.217   0.090   5.534  0.8402 -0.7670  0.0061
  640MOL0     C88196   7.234   0.074   5.377  0.3347 -0.1800 -0.3290
  640MOL0     C88197   7.099   0.043   5.300  0.6214 -0.2061  0.1083
  640MOL0     C88198   7.042  -0.098   5.338 -0.1732 -0.0852  0.0278
  640MOL0     N88199   6.928  -0.151   5.253 -1.0807  1.0021 -0.5895
  640MOL0     C88200   6.824  -0.074   5.217  0.0052  0.7746  1.1671
  640MOL0     C88201   6.782  -0.142   5.096 -0.0867 -1.1476  0.4268
  640MOL0     C88202   6.656  -0.096   5.024 -0.8732 -0.1677 -0.6074
  640MOL0     C88203   6.707  -0.038   4.890  0.8529 -0.1339 -0.1502
  640MOL0     C88204   6.578   0.010   4.825  0.1141 -0.9562  0.3917
  640MOL0     C88205   6.605   0.073   4.686 -0.4474 -0.5352  1.3039
  640MOL0     O88206   6.476   0.116   4.648  0.4289 -0.4890  0.4570
  640MOL0     C88207   6.456   0.204   4.544 -0.2153 -0.9926 -0.4877
  640MOL0     C88208   6.525   0.199   4.425 -0.6096 -0.1788  0.0142
  640MOL0     C88209   6.495   0.285   4.316  0.0894  0.6854 -0.1219
  640MOL0     C88210   6.567   0.256   4.188  0.1141 -0.1679 -0.6006
  640MOL0     C88211   6.396   0.379   4.330  0.3225 -0.3873  0.3356
  640MOL0     C88212   6.359   0.493   4.231  0.6035  0.4715  0.5088
  640MOL0     O88213   6.260   0.574   4.271 -0.2063  0.2037 -0.5135
  640MOL0     C88214   6.169   0.615   4.178 -0.1838  0.2949 -0.5196
  640MOL0     C88215   6.135   0.753   4.194  0.2800  0.4368  0.2836
  640MOL0     C88216   6.024   0.808   4.121 -0.2034  0.2751  0.0474
  640MOL0     C88217   5.957   0.723   4.028  0.3103  0.0210 -0.1755
  640MOL0     O88218   5.855   0.782   3.949 -0.0537  0.6454  0.4758
  640MOL0     C88219   5.767   0.709   3.875 -0.5548  0.6143 -0.0810
  640MOL0     C88220   5.649   0.798   3.830 -0.5762 -0.2911  0.0122
  640MOL0     C88221   5.571   0.758   3.707 -0.4685 -0.2582  0.6120
  640MOL0     C88222   5.437   0.836   3.687 -0.7442  0.8245 -0.2180
  640MOL0     C88223   5.361   0.772   3.569 -0.1919  0.0558 -0.7718
  640MOL0     C88224   5.411   0.835   3.437 -0.6475 -0.1202  0.3633
  640MOL0     C88225   5.367   0.760   3.314  0.5636 -0.1546  0.2137
  640MOL0     C88226   5.241   0.812   3.244  0.7673  0.2499 -1.1544
  640MOL0    Cl88227   5.199   0.747   3.082 -0.2873 -0.4256 -0.0074
  640MOL0     C88228   6.011   0.592   4.003  0.1713  0.9337 -0.6310
  640MOL0     C88229   6.103   0.533   4.090  0.1760  0.1782  0.8213
  640MOL0     O88230   6.424   0.500   4.125  0.2958 -0.5570  0.6374
  640MOL0     C88231   6.333   0.394   4.453 -0.1304 -0.0238  0.6626
  640MOL0     C88232   6.363   0.306   4.562 -0.1857 -0.6674 -0.5571
  640MOL0     N88233   6.862  -0.248   5.070 -0.3250  0.5316  0.2607
  640MOL0     N88234   6.958  -0.246   5.155 -0.3638  0.1034 -0.1287
  640MOL0     C88235   7.034   0.421   6.183  0.0175  1.3329 -0.6814
  640MOL0     C88236   6.962   0.500   6.275 -0.2231 -0.3120 -0.9269
  640MOL0     C88237   6.675   0.871   6.386  0.5493 -0.2581  0.2382
  640MOL0     C88238   6.777   0.935   6.460  0.7043  0.1948  0.5456
  640MOL0     C88239   6.758   1.054   6.525 -1.0516 -0.4418  0.1829
  640MOL0     C88240   6.643   1.124   6.525  0.3871  1.2682 -0.2691
  640MOL0     O88241   6.622   1.244   6.576 -0.4591  0.2643  0.4266
  640MOL0     C88242   6.734   1.322   6.640 -0.4937 -0.0079  0.8597
  640MOL0     C88243   6.840   1.389   6.550  0.5643 -0.1972  0.4125
  640MOL0     C88244   6.949   1.479   6.616 -0.5507  0.0775  0.1725
  640MOL0     C88245   6.877   1.590   6.692 -0.2576 -0.7935 -0.0232
  640MOL0     C88246   6.965   1.666   6.781 -0.6819 -0.4608 -0.0946
  640MOL0     C88247   7.045   1.718   6.859 -0.3238 -0.8079  0.2861
  640MOL0     C88248   6.541   1.047   6.464  0.4370  0.2097  0.2769
  640MOL0     C88249   6.546   0.925   6.397  0.0947 -0.2366 -1.1139
  640MOL0     C88250   6.421   0.862   6.337  0.7038 -0.7490 -0.8853
  640MOL0     H88251   6.810   0.710   6.042 -1.2062 -2.2346 -2.0831
  640MOL0     H88252   6.965   0.581   5.900  1.5653  0.1676 -0.0722
  640MOL0     H88253   7.298   0.340   5.975 -0.4713 -2.3467 -1.3382
  640MOL0     H88254   7.241   0.508   5.944 -0.0382 -0.2291  1.2815
  640MOL0     H88255   7.212   0.454   5.732  0.8128  0.8153  0.1744
  640MOL0     H88256   7.373   0.391   5.787  0.2595 -1.2343  2.8428
  640MOL0     H88257   7.288   0.155   5.787 -3.7022 -3.2552  1.4337
  640MOL0     H88258   7.131   0.210   5.755 -0.2282  0.7656 -1.0890
  640MOL0     H88259   7.195   0.316   5.535 -2.1163  0.8279  2.2198
  640MOL0     H88260   7.357   0.265   5.553  0.0822 -0.4205  0.7552
  640MOL0     H88261   7.115   0.057   5.555 -0.4570  3.3409  1.1666
  640MOL0     H88262   7.289   0.026   5.586  0.1885 -2.0285 -0.6106
  640MOL0     H88263   7.284   0.169   5.353  0.5193 -0.1965 -0.0198
  640MOL0     H88264   7.304  -0.010   5.367  1.4938  0.7183 -0.0630
  640MOL0     H88265   7.105   0.059   5.192  0.6281  3.0322  0.4904
  640MOL0     H88266   7.019   0.113   5.324 -0.9555 -2.2955  1.2732
  640MOL0     H88267   7.117  -0.177   5.328 -1.9547 -1.8448 -0.2198
  640MOL0     H88268   7.018  -0.113   5.444  0.7572  1.7476  0.5284
  640MOL0     H88269   6.762  -0.003   5.272  0.4998  2.9906 -0.9817
  640MOL0     H88270   6.601  -0.019   5.078 -0.9539  1.0460 -2.3586
  640MOL0     H88271   6.587  -0.180   5.014  1.3466 -2.0280 -1.1217
  640MOL0     H88272   6.781   0.039   4.910  0.5529 -0.2764  1.7986
  640MOL0     H88273   6.751  -0.119   4.831 -0.6436 -1.0543 -0.0791
  640MOL0     H88274   6.518  -0.081   4.811  1.6424 -1.7186 -1.7982
  640MOL0     H88275   6.517   0.087   4.874 -2.7325 -2.7299 -0.1135
  640MOL0     H88276   6.668   0.162   4.687 -1.7713  0.5682 -1.8470
  640MOL0     H88277   6.646   0.002   4.614 -1.0839  1.7596 -1.4867
  640MOL0     H88278   6.600   0.121   4.419 -0.2316 -0.0709  2.4062
  640MOL0     H88279   6.619   0.351   4.170  1.7210  0.3117  4.8788
  640MOL0     H88280   6.495   0.229   4.110 -2.1438  0.7075  1.0745
  640MOL0     H88281   6.634   0.170   4.194  0.4775 -0.2225 -3.7463
  640MOL0     H88282   6.184   0.810   4.273  1.4850 -1.2383  0.8123
  640MOL0     H88283   6.001   0.911   4.146 -2.2065 -0.7918  3.3193
  640MOL0     H88284   5.819   0.662   3.791 -1.6012  3.2496 -2.3827
  640MOL0     H88285   5.723   0.628   3.935 -0.8623 -1.1180 -2.4668
  640MOL0     H88286   5.582   0.772   3.912 -1.4492  1.5087 -0.1074
  640MOL0     H88287   5.675   0.904   3.824 -2.1077  0.0523 -4.8649
  640MOL0     H88288   5.548   0.652   3.712 -3.3214 -0.0796 -3.5047
  640MOL0     H88289   5.637   0.776   3.622 -0.4542 -0.1320  0.6493
  640MOL0     H88290   5.461   0.941   3.667  4.9972 -0.2254 -0.5493
  640MOL0     H88291   5.379   0.819   3.778  1.2765  1.3814  1.2412
  640MOL0     H88292   5.380   0.664   3.578 -0.8583 -0.1034 -1.2232
  640MOL0     H88293   5.253   0.778   3.585  0.0893 -1.7279  2.9002
  640MOL0     H88294   5.520   0.820   3.439 -0.2121  1.7136 -2.7264
  640MOL0     H88295   5.392   0.941   3.421 -1.4264 -0.2317  0.5049
  640MOL0     H88296   5.360   0.654   3.340  0.1818 -0.4838 -1.1650
  640MOL0     H88297   5.450   0.762   3.242 -0.6149  0.0670 -1.1742
  640MOL0     H88298   5.269   0.913   3.214  2.1093  0.9837  2.1885
  640MOL0     H88299   5.161   0.805   3.318  4.4106 -1.5861  3.0852
  640MOL0     H88300   5.979   0.531   3.919  3.9018  0.9249 -2.2662
  640MOL0     H88301   6.126   0.428   4.075 -0.2713  0.0019  1.3200
  640MOL0     H88302   6.250   0.461   4.467 -0.3899 -0.2116  0.0151
  640MOL0     H88303   6.317   0.321   4.659  1.6522  3.5430 -0.1055
  640MOL0     H88304   7.093   0.340   6.225 -1.5875  1.3765  1.8804
  640MOL0     H88305   6.979   0.481   6.380 -1.4319  0.7714 -0.5114
  640MOL0     H88306   6.879   0.900   6.453  1.6965  2.7434  1.3914
  640MOL0     H88307   6.855   1.075   6.569 -0.5040 -0.1384 -1.1055
  640MOL0     H88308   6.675   1.390   6.704 -2.3411 -2.0280  1.4254
  640MOL0     H88309   6.794   1.257   6.705  1.7171 -2.4758 -3.2447
  640MOL0     H88310   6.790   1.455   6.479 -0.1181  0.5461  1.5546
  640MOL0     H88311   6.901   1.303   6.519  1.6372 -0.2317  2.4598
  640MOL0     H88312   6.989   1.418   6.697 -4.4938  0.8555  2.9868
  640MOL0     H88313   7.023   1.508   6.540 -1.2545  0.7768 -0.2622
  640MOL0     H88314   6.800   1.552   6.760  1.9776 -0.3519  2.9968
  640MOL0     H88315   6.837   1.671   6.630 -0.8243  0.5600  2.0007
  640MOL0     H88316   7.095   1.778   6.932  2.6197  0.3218 -2.3739
  640MOL0     H88317   6.445   1.097   6.477 -1.0692 -1.8646 -2.0126
  640MOL0     H88318   6.331   0.908   6.380  1.9346 -0.3952  1.4732
  640MOL0     H88319   6.424   0.877   6.229  2.7789 -1.4839 -0.9744
  640MOL0     H88320   6.428   0.758   6.368  0.2557 -1.7393 -3.8151
  641MOL0     O88321   0.979   2.932   1.734  0.0491  0.8284  0.1645
  641MOL0     C88322   1.091   2.926   1.790  0.8279  0.2647 -0.0217
  641MOL0     O88323   1.124   2.991   1.905 -0.0941  0.2017  0.2141
  641MOL0     C88324   1.026   3.032   1.993  0.0216 -0.6032  0.4618
  641MOL0     C88325   1.021   2.989   2.123  0.9550  0.6889 -0.1130
  641MOL0     C88326   0.909   3.023   2.210 -0.1436  0.3335 -0.3300
  641MOL0     C88327   0.817   3.108   2.171 -0.2506 -0.9487  0.6155
  641MOL0     O88328   0.697   3.143   2.233  0.2029  0.5630  0.2914
  641MOL0     C88329   0.665   3.101   2.366 -1.4305  0.1053  0.2129
  641MOL0     C88330   0.534   3.160   2.414  0.0700 -0.1207  0.4164
  641MOL0     C88331   0.465   3.086   2.529 -0.2156 -0.6268  0.0829
  641MOL0     C88332   0.349   3.154   2.585 -0.4678 -0.1879  0.2072
  641MOL0     C88333   0.325   3.078   2.718 -0.6001  0.5064 -0.5316
  641MOL0     C88334   0.197   3.144   2.781 -0.7548  0.4477 -0.0082
  641MOL0     C88335   0.102   3.043   2.837  0.6604  0.1738 -0.3487
  641MOL0     C88336  -0.018   3.105   2.912  0.4364  0.3258  0.6223
  641MOL0     N88337  -0.084   3.009   3.001  0.6994  0.2459  1.7697
  641MOL0     C88338  -0.152   2.894   2.957  0.6954  0.4552  0.0052
  641MOL0     C88339  -0.145   2.811   3.067  0.1869 -0.8243  0.4541
  641MOL0     C88340  -0.206   2.679   3.071  0.6409 -0.0549 -1.2030
  641MOL0     C88341  -0.101   2.568   3.097 -1.7638  0.6716  0.1468
  641MOL0     C88342   0.021   2.551   3.003 -0.6354 -0.0620 -0.0364
  641MOL0     C88343  -0.030   2.534   2.860 -0.6444 -0.7173  0.0937
  641MOL0     O88344   0.051   2.614   2.777 -0.6755 -0.0537  0.0900
  641MOL0     C88345   0.002   2.651   2.651  0.2965  0.0095 -1.0935
  641MOL0     C88346   0.044   2.763   2.578 -0.9040  0.6665 -0.0822
  641MOL0     C88347  -0.000   2.792   2.450  0.1681 -0.2015 -0.2832
  641MOL0     C88348   0.036   2.927   2.386  0.5773  0.5568 -0.6122
  641MOL0     C88349  -0.088   2.700   2.382 -0.7315 -0.7670 -0.1460
  641MOL0     C88350  -0.134   2.712   2.246 -0.4396  0.1271 -0.0829
  641MOL0     O88351  -0.268   2.744   2.240 -0.1894  0.2872  0.6841
  641MOL0     C88352  -0.315   2.770   2.116  0.0062  0.8908  0.0480
  641MOL0     C88353  -0.304   2.669   2.012 -0.0826 -0.2937 -0.1012
  641MOL0     C88354  -0.364   2.699   1.886 -0.7071 -0.0181 -0.1923
  641MOL0     C88355  -0.440   2.815   1.863  0.0277  0.9289 -0.0542
  641MOL0     O88356  -0.482   2.851   1.738 -0.0597  0.2519  0.2158
  641MOL0     C88357  -0.513   2.991   1.717  0.0643  0.2025 -0.0089
  641MOL0     C88358  -0.565   3.014   1.569  0.8918  0.6369 -0.0016
  641MOL0     C88359  -0.710   2.957   1.561  0.2323  0.4509  0.8384
  641MOL0     C88360  -0.800   3.039   1.469 -0.4109 -1.2412  0.3850
  641MOL0     C88361  -0.945   2.985   1.464  0.1666  0.2421  0.6062
  641MOL0     C88362  -1.031   3.038   1.583  0.4395  0.0023 -0.7623
  641MOL0     C88363  -1.163   2.955   1.592 -1.0191  0.2850 -0.0438
  641MOL0     C88364  -1.256   3.024   1.685  0.7619 -0.6783 -0.6764
  641MOL0    Cl88365  -1.409   2.941   1.725  0.2245  0.1360 -0.1938
  641MOL0     C88366  -0.456   2.890   1.977  0.4636 -0.8143 -1.3858
  641MOL0     C88367  -0.377   2.887   2.091 -0.5922 -0.3590  0.1009
  641MOL0     O88368  -0.055   2.712   2.153 -0.2418  0.3918  0.3218
  641MOL0     C88369  -0.133   2.582   2.445  0.3378  0.0112 -1.3199
  641MOL0     C88370  -0.077   2.560   2.577 -0.0706  0.4438 -0.2141
  641MOL0     N88371  -0.092   2.892   3.172 -0.1852  0.2476 -0.0571
  641MOL0     N88372  -0.058   3.007   3.129  0.2815 -0.4156  0.0580
  641MOL0     C88373   0.828   3.158   2.036  0.3018  0.0893 -0.4210
  641MOL0     C88374   0.931   3.122   1.951 -1.1481  0.0341  0.7258
  641MOL0     C88375   1.173   2.814   1.739 -0.2950 -0.4556 -0.1065
  641MOL0     C88376   1.168   2.778   1.607  0.4964 -0.9117  0.5630
  641MOL0     C88377   1.238   2.666   1.561  0.0667  0.2264 -0.1847
  641MOL0     C88378   1.326   2.600   1.640  1.3936  0.0462 -0.9024
  641MOL0     O88379   1.394   2.484   1.599 -0.2071 -0.7204 -0.0209
  641MOL0     C88380   1.492   2.509   1.508  0.6894  0.6168 -0.1879
  641MOL0     C88381   1.547   2.369   1.474  0.6971 -0.0378 -0.0644
  641MOL0     C88382   1.638   2.371   1.350 -0.6680 -0.0258 -0.1824
  641MOL0     C88383   1.705   2.229   1.340  0.1102  0.3588 -0.7549
  641MOL0     C88384   1.840   2.247   1.274 -0.1168 -0.5572 -0.0121
  641MOL0     C88385   1.949   2.262   1.219  0.6480 -0.4222 -0.6572
  641MOL0     C88386   1.330   2.632   1.781 -0.1532 -0.1822  0.4467
  641MOL0     C88387   1.253   2.736   1.834 -0.4170  0.8546  0.1381
  641MOL0     C88388   1.250   2.748   1.983 -0.9079  0.2806 -0.9701
  641MOL0     H88389   1.090   2.914   2.161  2.6586  1.3623 -1.7175
  641MOL0     H88390   0.900   2.969   2.304  0.0209 -0.4798 -0.7767
  641MOL0     H88391   0.753   3.109   2.431 -2.6798 -0.4875  2.0386
  641MOL0     H88392   0.646   2.994   2.360 -2.6204  0.1782  1.8701
  641MOL0     H88393   0.559   3.254   2.463  2.5588 -1.2131  1.4529
  641MOL0     H88394   0.479   3.166   2.320  0.9871 -2.1070 -0.3177
  641MOL0     H88395   0.441   2.989   2.485 -1.4629 -0.8075  1.1104
  641MOL0     H88396   0.542   3.071   2.606  0.3755  2.7005  0.2834
  641MOL0     H88397   0.364   3.261   2.603  0.2866 -0.1962 -0.3034
  641MOL0     H88398   0.266   3.145   2.514 -0.5064  0.4142  0.1775
  641MOL0     H88399   0.400   3.084   2.797 -0.3082  0.4325 -0.8033
  641MOL0     H88400   0.307   2.971   2.707  1.1491  0.2027 -0.7116
  641MOL0     H88401   0.237   3.196   2.869 -0.4769 -0.2818  0.3024
  641MOL0     H88402   0.148   3.223   2.723 -1.4069  0.0458 -0.0176
  641MOL0     H88403   0.164   2.988   2.908 -0.7587 -0.6094  0.3306
  641MOL0     H88404   0.071   2.966   2.765  0.3283 -0.6764  0.6784
  641MOL0     H88405   0.006   3.195   2.970 -1.6906 -0.3437  2.7061
  641MOL0     H88406  -0.101   3.125   2.844  0.2504 -1.8502  0.1432
  641MOL0     H88407  -0.199   2.884   2.860  0.7306  0.1931  0.0141
  641MOL0     H88408  -0.272   2.669   2.984 -1.2826  0.3979  0.1571
  641MOL0     H88409  -0.274   2.680   3.156  0.6410 -0.5305 -1.1960
  641MOL0     H88410  -0.064   2.572   3.200 -0.0050 -4.3372 -0.0319
  641MOL0     H88411  -0.155   2.473   3.105  1.1354 -0.9692  1.6909
  641MOL0     H88412   0.090   2.636   3.006 -0.2685 -0.3649  0.1286
  641MOL0     H88413   0.089   2.469   3.030  1.0447  1.0604 -0.6738
  641MOL0     H88414  -0.036   2.432   2.820 -1.1274  0.2118 -2.3632
  641MOL0     H88415  -0.133   2.569   2.856 -0.5884 -0.6092 -0.4539
  641MOL0     H88416   0.127   2.818   2.621 -1.7688  3.7964 -2.0944
  641MOL0     H88417   0.096   2.981   2.459 -2.7537  0.3864  2.5356
  641MOL0     H88418  -0.052   2.992   2.378  0.7988  0.7227 -2.0391
  641MOL0     H88419   0.098   2.910   2.297  2.5083 -3.6336  1.2791
  641MOL0     H88420  -0.239   2.582   2.011 -2.5493 -2.2789  1.0376
  641MOL0     H88421  -0.361   2.617   1.815  1.8583  0.1281 -0.3520
  641MOL0     H88422  -0.590   3.030   1.784  0.4243  3.0152 -1.0980
  641MOL0     H88423  -0.430   3.061   1.732 -1.1457  1.5604  0.5494
  641MOL0     H88424  -0.558   3.119   1.541  2.1000  0.1568 -1.6472
  641MOL0     H88425  -0.497   2.966   1.499  0.2493 -1.1636  0.5303
  641MOL0     H88426  -0.765   2.952   1.655 -1.8551 -0.8110 -0.3716
  641MOL0     H88427  -0.702   2.862   1.507 -1.5746  0.6749  0.0963
  641MOL0     H88428  -0.753   3.033   1.371  0.6976  0.4240  0.7651
  641MOL0     H88429  -0.794   3.143   1.503  0.4278 -1.7531  1.9265
  641MOL0     H88430  -0.984   3.017   1.367 -0.1787  1.3096  1.0786
  641MOL0     H88431  -0.943   2.876   1.462 -1.3908  0.2051 -0.8929
  641MOL0     H88432  -1.051   3.143   1.558 -1.2800 -0.3241 -0.8289
  641MOL0     H88433  -0.969   3.024   1.672  1.9659  0.2903 -1.7304
  641MOL0     H88434  -1.132   2.855   1.624  1.6951  1.1713  0.3696
  641MOL0     H88435  -1.219   2.942   1.498 -1.5027  2.0937 -0.0455
  641MOL0     H88436  -1.293   3.122   1.652 -0.1195 -0.7191  0.1550
  641MOL0     H88437  -1.209   3.038   1.783  0.0771 -1.0956 -0.2777
  641MOL0     H88438  -0.519   2.979   1.976  2.0783  0.4093  0.0262
  641MOL0     H88439  -0.382   2.961   2.171 -3.9887 -0.4390  0.1101
  641MOL0     H88440  -0.207   2.512   2.406  0.9041 -1.6568  0.4902
  641MOL0     H88441  -0.107   2.469   2.627 -2.1520  0.5449 -1.2104
  641MOL0     H88442   0.760   3.236   2.002  0.4398 -1.2152 -4.1187
  641MOL0     H88443   0.934   3.157   1.849 -4.0844  0.3245  0.6478
  641MOL0     H88444   1.110   2.836   1.536  1.5778 -1.9850 -1.2783
  641MOL0     H88445   1.245   2.619   1.463  1.5127 -3.0295  1.2919
  641MOL0     H88446   1.452   2.550   1.416 -1.4244 -1.4382 -0.2685
  641MOL0     H88447   1.557   2.574   1.568 -2.1125  3.1266  0.3581
  641MOL0     H88448   1.458   2.309   1.453  1.1251 -0.4011 -0.8990
  641MOL0     H88449   1.593   2.339   1.569 -1.5207  1.7663  1.6846
  641MOL0     H88450   1.575   2.374   1.260 -3.0403 -0.1445  1.4096
  641MOL0     H88451   1.709   2.453   1.362 -0.6841 -0.1675  0.9278
  641MOL0     H88452   1.631   2.166   1.292  1.0292 -2.3586  1.1554
  641MOL0     H88453   1.717   2.190   1.442  0.7287 -0.4218 -1.1137
  641MOL0     H88454   2.043   2.278   1.169 -0.4789  1.1161 -2.4095
  641MOL0     H88455   1.390   2.564   1.841 -1.5838 -0.4760  1.5962
  641MOL0     H88456   1.324   2.677   2.021 -0.5094  2.9329  4.0081
  641MOL0     H88457   1.294   2.844   2.012 -0.4126 -1.0083  3.1532
  641MOL0     H88458   1.154   2.739   2.036 -0.8325  0.4969 -0.7976
  642MOL0     O88459   9.280   5.412   3.860 -1.0200 -0.2221 -0.3171
  642MOL0     C88460   9.204   5.470   3.936 -0.4329  0.6389 -0.8840
  642MOL0     O88461   9.076   5.438   3.937  0.1174  0.4983  0.4670
  642MOL0     C88462   9.024   5.319   3.908 -0.5728  0.0329  0.6019
  642MOL0     C88463   8.888   5.312   3.875  0.4587 -0.0291 -0.0292
  642MOL0     C88464   8.818   5.189   3.857  0.0975 -0.3662  0.8710
  642MOL0     C88465   8.890   5.068   3.854 -0.0769 -0.0760 -0.5247
  642MOL0     O88466   8.816   4.949   3.858 -0.3149  0.1283  0.6783
  642MOL0     C88467   8.882   4.828   3.918 -0.6415  0.4131  0.3828
  642MOL0     C88468   8.799   4.695   3.929  0.0224  0.4440  0.0109
  642MOL0     C88469   8.697   4.688   3.806 -0.0544  0.2666 -0.3221
  642MOL0     C88470   8.645   4.551   3.780 -0.4000  0.1620 -0.1065
  642MOL0     C88471   8.563   4.486   3.888 -0.6126 -0.5575  0.2646
  642MOL0     C88472   8.480   4.380   3.847 -0.8871 -0.2633  0.7428
  642MOL0     C88473   8.397   4.327   3.969 -0.1640  0.1022 -0.0492
  642MOL0     C88474   8.290   4.215   3.938  0.0950 -0.7266 -0.7848
  642MOL0     N88475   8.366   4.094   3.896  0.5139 -0.2541  0.1014
  642MOL0     C88476   8.362   3.976   3.983 -0.8525 -0.4158 -0.0880
  642MOL0     C88477   8.438   3.885   3.904 -0.9238 -0.3686 -0.7507
  642MOL0     C88478   8.494   3.758   3.976  0.8346  0.3271  0.2305
  642MOL0     C88479   8.545   3.650   3.872 -0.7270  0.4025  0.5595
  642MOL0     C88480   8.446   3.599   3.774 -0.0199  0.2114 -0.1886
  642MOL0     C88481   8.345   3.496   3.832 -0.1044  0.2962  0.1449
  642MOL0     O88482   8.279   3.529   3.955 -0.3099 -0.0288 -0.4861
  642MOL0     C88483   8.176   3.449   3.982 -0.0509 -0.6763 -0.8590
  642MOL0     C88484   8.079   3.404   3.898 -0.1923  0.2854  0.1676
  642MOL0     C88485   7.970   3.335   3.943 -0.1850  0.2004  0.2008
  642MOL0     C88486   7.886   3.293   3.825 -0.1710  0.7042  0.6955
  642MOL0     C88487   7.960   3.282   4.072  0.2610 -0.3864 -0.1258
  642MOL0     C88488   7.859   3.199   4.128  0.7970  0.6684  0.0372
  642MOL0     O88489   7.884   3.143   4.250  0.0862 -0.2870  0.3972
  642MOL0     C88490   7.779   3.100   4.318 -0.4244  0.1069 -0.2697
  642MOL0     C88491   7.730   3.178   4.418  0.1398 -0.0369 -0.0864
  642MOL0     C88492   7.625   3.146   4.501  0.8768  0.4956  0.1735
  642MOL0     C88493   7.569   3.017   4.481  0.0903 -0.2673 -0.5034
  642MOL0     O88494   7.449   2.973   4.530 -0.4447  0.2664  0.1917
  642MOL0     C88495   7.393   3.037   4.650 -0.2739  0.1354  0.4533
  642MOL0     C88496   7.287   2.939   4.694  0.1761 -0.3772 -0.3506
  642MOL0     C88497   7.221   2.992   4.820  0.3851  0.4440 -0.8532
  642MOL0     C88498   7.318   2.996   4.948 -0.2785 -0.3713  0.6960
  642MOL0     C88499   7.237   2.994   5.076  0.4447  0.1017  0.0838
  642MOL0     C88500   7.325   2.979   5.202  0.6312  0.4392  0.4079
  642MOL0     C88501   7.230   2.987   5.323  0.4530  0.2410 -0.4564
  642MOL0     C88502   7.289   3.078   5.432  0.1777 -0.3185 -0.7878
  642MOL0    Cl88503   7.204   3.083   5.587 -0.0282 -0.0065 -0.4129
  642MOL0     C88504   7.619   2.932   4.378 -0.2340 -0.2474 -0.4521
  642MOL0     C88505   7.729   2.966   4.302 -0.7519 -0.4296 -0.0986
  642MOL0     O88506   7.742   3.205   4.078  0.0834 -0.2439 -0.3433
  642MOL0     C88507   8.061   3.331   4.163  0.0490 -0.0535 -0.3173
  642MOL0     C88508   8.160   3.420   4.119  0.0923  0.2542 -0.9999
  642MOL0     N88509   8.470   3.933   3.779 -1.0190 -0.3363 -0.1534
  642MOL0     N88510   8.440   4.060   3.772  0.0558 -0.5090  0.9123
  642MOL0     C88511   9.024   5.075   3.877 -0.0508 -0.3874 -0.6733
  642MOL0     C88512   9.095   5.193   3.905 -0.1481  0.2100  1.1717
  642MOL0     C88513   9.238   5.591   4.016 -0.3360  0.3479 -0.7601
  642MOL0     C88514   9.143   5.683   4.061  0.0803 -0.1324  0.2714
  642MOL0     C88515   9.170   5.808   4.115 -0.4949 -0.6872 -1.1220
  642MOL0     C88516   9.300   5.855   4.130 -1.0631 -0.7647 -0.7197
  642MOL0     O88517   9.319   5.984   4.184 -0.4438  1.0238 -0.0874
  642MOL0     C88518   9.450   6.037   4.160 -0.5159  0.4249 -0.3617
  642MOL0     C88519   9.468   6.184   4.218 -0.1362 -0.5084 -0.4512
  642MOL0     C88520   9.619   6.227   4.229  0.1485 -0.1503 -0.3494
  642MOL0     C88521   9.705   6.178   4.355 -0.6632 -0.2946 -0.0044
  642MOL0     C88522   9.650   6.255   4.471  0.3028 -0.5266  0.5869
  642MOL0     C88523   9.602   6.318   4.563  0.2278 -0.7421 -1.1679
  642MOL0     C88524   9.400   5.761   4.097  0.4229  0.2475 -0.7358
  642MOL0     C88525   9.372   5.628   4.050 -0.2669 -1.1856 -0.5628
  642MOL0     C88526   9.500   5.545   4.028  0.9003 -0.1638 -0.3193
  642MOL0     H88527   8.828   5.399   3.851 -0.0329 -0.2230  0.4637
  642MOL0     H88528   8.712   5.189   3.835  0.1867  3.1616 -0.1589
  642MOL0     H88529   8.920   4.848   4.018  2.1621  0.3417 -0.5903
  642MOL0     H88530   8.963   4.797   3.852  0.0355 -2.4031  2.3694
  642MOL0     H88531   8.871   4.614   3.920 -0.6766 -0.3161  1.0453
  642MOL0     H88532   8.735   4.688   4.018  0.4029 -0.1936  0.2397
  642MOL0     H88533   8.620   4.765   3.817 -1.7194 -1.2979 -0.6120
  642MOL0     H88534   8.747   4.745   3.727  0.0105  1.6593  0.6708
  642MOL0     H88535   8.589   4.552   3.686 -0.2816  2.4722 -0.1890
  642MOL0     H88536   8.726   4.478   3.769 -2.3666 -2.4829  1.6020
  642MOL0     H88537   8.494   4.567   3.914 -1.4354 -1.3312  0.5394
  642MOL0     H88538   8.625   4.451   3.971 -1.6912  0.3791  1.5014
  642MOL0     H88539   8.420   4.424   3.767  1.4501  1.2411 -0.3108
  642MOL0     H88540   8.530   4.299   3.794 -3.0184 -2.5458  2.0395
  642MOL0     H88541   8.343   4.410   4.015  1.8257  0.1365  2.4492
  642MOL0     H88542   8.462   4.289   4.048  1.5106 -2.5197 -2.5121
  642MOL0     H88543   8.237   4.201   4.033  2.1682  1.0185  0.7345
  642MOL0     H88544   8.219   4.242   3.860 -0.3632  2.2508  0.5258
  642MOL0     H88545   8.335   3.970   4.088 -0.6026 -0.5022 -0.0274
  642MOL0     H88546   8.421   3.721   4.049  1.6567  1.8969  1.9242
  642MOL0     H88547   8.584   3.783   4.033  1.3222 -0.9352  0.0433
  642MOL0     H88548   8.620   3.704   3.813 -0.2082 -0.5890  0.2903
  642MOL0     H88549   8.586   3.560   3.918 -2.3831 -0.5662  0.2146
  642MOL0     H88550   8.388   3.679   3.727  3.2837  1.2345 -2.9442
  642MOL0     H88551   8.508   3.545   3.702  2.1193  0.1344  1.6173
  642MOL0     H88552   8.278   3.463   3.752 -0.8758  0.2895  0.7733
  642MOL0     H88553   8.418   3.422   3.864 -1.5037  0.2623  3.8511
  642MOL0     H88554   8.080   3.433   3.793  0.9065  1.1629  0.4022
  642MOL0     H88555   7.901   3.187   3.801  0.3210  0.5994  1.4367
  642MOL0     H88556   7.917   3.351   3.737  3.1483 -0.1780  1.1486
  642MOL0     H88557   7.778   3.307   3.833 -0.5276  0.7023 -2.5909
  642MOL0     H88558   7.771   3.278   4.422 -3.3091  1.5081  0.6100
  642MOL0     H88559   7.584   3.210   4.578 -1.9423 -1.0857  0.1233
  642MOL0     H88560   7.470   3.059   4.725  0.0811 -0.1526  0.1796
  642MOL0     H88561   7.344   3.129   4.618 -1.2863 -0.6871 -0.4288
  642MOL0     H88562   7.210   2.922   4.619 -0.1350 -2.4492  0.3792
  642MOL0     H88563   7.335   2.850   4.737  0.4320  0.4182  1.1050
  642MOL0     H88564   7.133   2.932   4.846 -1.4386  3.4600  0.5040
  642MOL0     H88565   7.176   3.092   4.815  1.3034  0.9406  0.2126
  642MOL0     H88566   7.379   3.087   4.945  1.4215 -1.4269  1.2200
  642MOL0     H88567   7.383   2.908   4.952 -1.1023 -1.3321 -3.2592
  642MOL0     H88568   7.158   3.068   5.087 -2.6197 -2.9724  0.3911
  642MOL0     H88569   7.185   2.898   5.078  0.3686  0.1214 -0.8320
  642MOL0     H88570   7.404   3.054   5.206  1.0959 -0.0256 -0.0987
  642MOL0     H88571   7.378   2.884   5.195  0.9563  0.1960  4.0938
  642MOL0     H88572   7.219   2.887   5.367 -0.0706  1.0774  1.3701
  642MOL0     H88573   7.131   3.018   5.288 -1.5854 -3.2016  1.6455
  642MOL0     H88574   7.294   3.184   5.403 -5.4208  0.0515 -1.4451
  642MOL0     H88575   7.387   3.039   5.463 -1.3856 -2.9249  1.2748
  642MOL0     H88576   7.565   2.839   4.366  1.0315 -0.7151 -3.1859
  642MOL0     H88577   7.784   2.895   4.241  0.1462  0.2371 -0.0783
  642MOL0     H88578   8.073   3.322   4.270 -1.1017 -3.1671 -0.3491
  642MOL0     H88579   8.239   3.465   4.179 -1.4652  3.4371 -1.1627
  642MOL0     H88580   9.096   4.994   3.882  0.3961  0.0551  0.3190
  642MOL0     H88581   9.202   5.186   3.926 -0.0075 -2.4116 -0.0684
  642MOL0     H88582   9.036   5.664   4.052  0.0926  0.5328 -2.0531
  642MOL0     H88583   9.099   5.870   4.168  3.6487  1.8219  2.1164
  642MOL0     H88584   9.524   5.975   4.212 -2.4973 -0.2052  1.8563
  642MOL0     H88585   9.474   6.041   4.053 -1.7175 -0.9336 -0.7066
  642MOL0     H88586   9.422   6.182   4.317 -1.3953  0.7532 -0.9873
  642MOL0     H88587   9.407   6.251   4.158 -1.8189 -0.0913  1.6024
  642MOL0     H88588   9.672   6.170   4.151  1.0954  0.5783 -0.2562
  642MOL0     H88589   9.620   6.336   4.222 -1.2724  0.0004  1.1582
  642MOL0     H88590   9.810   6.199   4.333 -1.1564 -0.3410 -2.9259
  642MOL0     H88591   9.691   6.072   4.377 -0.7755 -0.1071  0.8404
  642MOL0     H88592   9.545   6.368   4.639  1.9105 -2.8606  1.6928
  642MOL0     H88593   9.508   5.776   4.101  0.1539  3.0290 -1.5306
  642MOL0     H88594   9.594   5.585   4.066 -0.1233  1.7736  0.3119
  642MOL0     H88595   9.480   5.443   4.061 -0.3481 -0.9563 -3.2174
  642MOL0     H88596   9.521   5.552   3.920 -1.6338  1.7424 -0.8021
  643MOL0     O88597   6.070   0.558   7.652  0.6279  0.5593  0.7334
  643MOL0     C88598   6.042   0.444   7.673  0.5780 -0.8209 -0.4818
  643MOL0     O88599   5.912   0.391   7.678 -0.5381 -0.1849 -0.1432
  643MOL0     C88600   5.813   0.480   7.667  0.4358  0.6581 -0.2846
  643MOL0     C88601   5.745   0.498   7.788  0.0225 -0.6631  0.0984
  643MOL0     C88602   5.636   0.594   7.796  0.0989  0.0875 -0.4049
  643MOL0     C88603   5.597   0.657   7.680 -1.0080  0.2087  1.6626
  643MOL0     O88604   5.507   0.757   7.669 -0.0046  0.2096  0.0263
  643MOL0     C88605   5.551   0.891   7.691 -0.6586  0.0994  0.1038
  643MOL0     C88606   5.470   0.975   7.603 -0.5342 -1.2746  0.8743
  643MOL0     C88607   5.323   0.947   7.580  0.2322 -0.3120 -0.3331
  643MOL0     C88608   5.245   0.901   7.707  0.2433  0.5395  0.3271
  643MOL0     C88609   5.092   0.931   7.698  0.1887 -0.3497 -0.4120
  643MOL0     C88610   5.049   1.055   7.781  0.3363 -1.6559 -0.8256
  643MOL0     C88611   5.066   1.041   7.934  0.3053 -0.1274  0.7815
  643MOL0     C88612   4.931   1.052   8.002 -0.1769 -0.4694  0.3815
  643MOL0     N88613   4.883   1.190   8.021  0.5070 -0.5642  0.0406
  643MOL0     C88614   4.830   1.268   7.919  0.0752 -0.4675 -0.1057
  643MOL0     C88615   4.814   1.391   7.984  0.6778 -0.0470 -0.0622
  643MOL0     C88616   4.774   1.520   7.913  1.5947  0.4159 -0.1931
  643MOL0     C88617   4.628   1.554   7.959 -0.0913 -0.2746  0.8077
  643MOL0     C88618   4.576   1.671   7.876 -0.2332 -0.6609 -0.2994
  643MOL0     C88619   4.444   1.725   7.922  0.7188  0.7766 -0.4550
  643MOL0     O88620   4.439   1.859   7.894  0.0878 -0.0185  0.2363
  643MOL0     C88621   4.453   1.894   7.756  0.2761 -0.0136  0.8662
  643MOL0     C88622   4.416   1.816   7.645 -0.5096  0.6222 -0.1116
  643MOL0     C88623   4.442   1.852   7.513  0.6031  0.3752  0.9390
  643MOL0     C88624   4.439   1.746   7.405 -0.0274  0.2345  0.5704
  643MOL0     C88625   4.491   1.988   7.491  0.4865  0.6260  0.2648
  643MOL0     C88626   4.517   2.047   7.352 -0.2199  0.5618 -0.2621
  643MOL0     O88627   4.418   2.034   7.262 -0.7891 -0.5703 -1.0272
  643MOL0     C88628   4.447   2.073   7.134 -0.8431 -0.8980  0.0526
  643MOL0     C88629   4.451   2.208   7.099  0.0720 -0.1296 -0.3381
  643MOL0     C88630   4.462   2.256   6.964  0.3345  0.8287  0.0583
  643MOL0     C88631   4.479   2.158   6.858 -0.3442 -0.2743 -0.3250
  643MOL0     O88632   4.506   2.213   6.739 -0.0863  0.1418  0.5006
  643MOL0     C88633   4.586   2.130   6.645 -0.1188 -0.2513  0.4697
  643MOL0     C88634   4.630   2.197   6.522  0.4910 -0.8564  0.4793
  643MOL0     C88635   4.510   2.256   6.453  0.6455 -0.4923  0.6560
  643MOL0     C88636   4.459   2.401   6.492 -0.4154  0.1752 -0.7823
  643MOL0     C88637   4.525   2.510   6.423 -0.1165  0.5388  0.2705
  643MOL0     C88638   4.667   2.549   6.462  0.3050  0.2997 -0.1281
  643MOL0     C88639   4.664   2.590   6.612 -0.5488 -0.0558  0.3905
  643MOL0     C88640   4.797   2.660   6.637  1.3730 -0.7697 -0.2234
  643MOL0    Cl88641   4.929   2.546   6.638 -0.1603  0.0036  0.1451
  643MOL0     C88642   4.477   2.023   6.888 -0.3029  0.1799 -0.4945
  643MOL0     C88643   4.463   1.985   7.029 -0.4446  0.4959  0.4632
  643MOL0     O88644   4.627   2.092   7.330 -0.0864  0.1270  0.1796
  643MOL0     C88645   4.516   2.069   7.599 -0.1616 -0.0106 -0.8017
  643MOL0     C88646   4.502   2.023   7.734 -0.5275 -1.3303  1.5316
  643MOL0     N88647   4.855   1.384   8.114  0.6099  0.2879 -1.1581
  643MOL0     N88648   4.914   1.269   8.130 -0.7543 -0.1940 -0.4416
  643MOL0     C88649   5.669   0.641   7.559 -0.2327 -0.2014 -0.2747
  643MOL0     C88650   5.769   0.549   7.559  0.3480  0.1310 -0.0684
  643MOL0     C88651   6.152   0.354   7.722 -0.0113  1.3674  0.7945
  643MOL0     C88652   6.107   0.249   7.806 -0.2257  0.4652  0.3890
  643MOL0     C88653   6.190   0.151   7.858  0.6735  0.4347 -0.0121
  643MOL0     C88654   6.324   0.150   7.806  0.6622  0.2798 -0.2676
  643MOL0     O88655   6.415   0.049   7.815 -0.2648 -0.1016  0.4245
  643MOL0     C88656   6.413  -0.061   7.902  0.2863  0.2388  0.5016
  643MOL0     C88657   6.412  -0.022   8.044  0.1273 -0.5691 -0.0424
  643MOL0     C88658   6.500   0.098   8.081  0.1529 -0.1648  1.0277
  643MOL0     C88659   6.514   0.101   8.224 -1.3297  0.1818 -0.5163
  643MOL0     C88660   6.393   0.142   8.296 -0.2499 -0.2046  0.2752
  643MOL0     C88661   6.293   0.181   8.350 -0.9594  0.1494  0.2627
  643MOL0     C88662   6.362   0.261   7.726 -0.3094  0.3008  0.1154
  643MOL0     C88663   6.286   0.364   7.685  0.3639  0.0024 -0.1041
  643MOL0     C88664   6.344   0.462   7.585 -0.3202 -0.8843  0.0107
  643MOL0     H88665   5.777   0.432   7.868  2.9933 -0.4832 -0.8044
  643MOL0     H88666   5.590   0.600   7.894  0.6456 -2.3568  0.0817
  643MOL0     H88667   5.660   0.895   7.675 -1.0300  0.0916 -2.8858
  643MOL0     H88668   5.525   0.922   7.792  1.2083  0.1359  0.6160
  643MOL0     H88669   5.474   1.080   7.634  1.1908 -0.9087 -0.3956
  643MOL0     H88670   5.514   0.973   7.502  0.4172  2.2446  1.0599
  643MOL0     H88671   5.284   1.045   7.553 -1.6394 -0.4042  1.7863
  643MOL0     H88672   5.320   0.872   7.500  0.3828 -0.2199 -0.4269
  643MOL0     H88673   5.269   0.795   7.718 -0.4792  0.0309 -2.2720
  643MOL0     H88674   5.293   0.951   7.791 -1.3838  1.2966  0.8384
  643MOL0     H88675   5.045   0.842   7.741  3.2193 -1.1517  1.5825
  643MOL0     H88676   5.049   0.958   7.601 -1.3169  2.7743  0.9517
  643MOL0     H88677   5.119   1.131   7.745 -0.4091  1.0199  2.7588
  643MOL0     H88678   4.955   1.097   7.746  1.1623  1.1460  0.0377
  643MOL0     H88679   5.136   1.115   7.975 -0.5807  2.3242 -1.8324
  643MOL0     H88680   5.112   0.942   7.948  0.5311 -0.3848 -1.4235
  643MOL0     H88681   4.855   0.995   7.949  0.0606  0.5989 -1.1879
  643MOL0     H88682   4.929   0.995   8.096 -3.4620 -1.1394  0.0108
  643MOL0     H88683   4.800   1.256   7.815  3.9155  1.2928 -1.5765
  643MOL0     H88684   4.766   1.500   7.806  1.7987  0.6200 -0.2469
  643MOL0     H88685   4.845   1.600   7.936  0.7448  0.5662  2.2404
  643MOL0     H88686   4.566   1.467   7.941 -1.1453 -0.1872  3.4614
  643MOL0     H88687   4.627   1.589   8.063  0.1128  3.5457 -0.3191
  643MOL0     H88688   4.639   1.756   7.905 -0.8233 -0.4742  0.4801
  643MOL0     H88689   4.576   1.653   7.768  0.1234 -0.9239 -0.2601
  643MOL0     H88690   4.358   1.674   7.876 -1.3403  2.7815  0.9601
  643MOL0     H88691   4.441   1.708   8.030  1.5814  1.6835 -0.2780
  643MOL0     H88692   4.366   1.722   7.663 -0.9780  0.5111 -1.8912
  643MOL0     H88693   4.517   1.671   7.421 -2.6362 -2.5370  1.1175
  643MOL0     H88694   4.460   1.790   7.307 -1.2787 -1.6279 -0.6014
  643MOL0     H88695   4.348   1.685   7.404  0.6911 -0.8634 -0.2971
  643MOL0     H88696   4.434   2.287   7.171 -1.9177  0.2613 -1.1647
  643MOL0     H88697   4.485   2.356   6.929 -0.3213  0.3620 -1.8102
  643MOL0     H88698   4.672   2.089   6.698  0.8021 -0.4760 -1.1326
  643MOL0     H88699   4.525   2.046   6.611  1.3292  0.1083 -3.5705
  643MOL0     H88700   4.719   2.260   6.532 -0.8912  1.7357 -1.9360
  643MOL0     H88701   4.659   2.113   6.459 -1.8838  1.4343 -4.1753
  643MOL0     H88702   4.426   2.185   6.455  3.1484 -3.9294 -2.2805
  643MOL0     H88703   4.533   2.257   6.346 -1.1969 -0.1958  0.2236
  643MOL0     H88704   4.479   2.426   6.596  2.8904 -1.1677 -0.9518
  643MOL0     H88705   4.355   2.394   6.460 -0.8440 -0.1616  0.6488
  643MOL0     H88706   4.524   2.482   6.318  0.4535 -0.0702  0.4230
  643MOL0     H88707   4.467   2.601   6.443 -0.9431 -0.3119  1.9979
  643MOL0     H88708   4.709   2.618   6.388  1.1741 -2.4262 -2.3973
  643MOL0     H88709   4.729   2.461   6.440 -2.6459 -1.7236 -0.9997
  643MOL0     H88710   4.654   2.506   6.680 -1.0219  0.4561  0.9610
  643MOL0     H88711   4.589   2.663   6.644  0.4260 -0.3958  3.8685
  643MOL0     H88712   4.794   2.711   6.733  0.1342  1.9754 -1.6121
  643MOL0     H88713   4.807   2.740   6.564 -1.8763  2.7189  2.7539
  643MOL0     H88714   4.496   1.946   6.814 -0.0549  2.0720 -2.5182
  643MOL0     H88715   4.453   1.882   7.062  0.1935 -0.1855 -1.3481
  643MOL0     H88716   4.564   2.161   7.568  0.9193  0.7439  2.6838
  643MOL0     H88717   4.544   2.084   7.813  1.4214 -1.3404  0.5673
  643MOL0     H88718   5.642   0.703   7.474 -0.8878 -1.0679 -0.7185
  643MOL0     H88719   5.815   0.531   7.463 -0.7653 -2.4573 -0.2045
  643MOL0     H88720   6.005   0.240   7.841  0.4972 -2.9476  1.9680
  643MOL0     H88721   6.162   0.065   7.918  0.4125 -0.0962 -0.8774
  643MOL0     H88722   6.334  -0.129   7.870  0.8160 -0.3788  0.4702
  643MOL0     H88723   6.508  -0.113   7.886  1.6506  2.0302  2.1589
  643MOL0     H88724   6.446  -0.107   8.105 -0.5715 -0.0235  1.1490
  643MOL0     H88725   6.315   0.005   8.085  0.1249 -0.1200 -0.3507
  643MOL0     H88726   6.599   0.073   8.042 -0.3434 -0.4399 -0.1019
  643MOL0     H88727   6.462   0.194   8.045 -2.1274 -0.8576  1.4506
  643MOL0     H88728   6.586   0.182   8.242 -1.0950 -0.2119  0.4014
  643MOL0     H88729   6.564   0.013   8.264 -0.7226  0.3905 -0.8043
  643MOL0     H88730   6.209   0.213   8.408  0.6441  0.8858  2.2899
  643MOL0     H88731   6.465   0.259   7.692 -0.7904  0.3169 -1.4203
  643MOL0     H88732   6.434   0.418   7.541  0.8234 -0.7301  2.0400
  643MOL0     H88733   6.279   0.497   7.505  1.8315 -1.1595 -1.9280
  643MOL0     H88734   6.376   0.549   7.642  1.1059 -0.7525 -0.9490
  644MOL0     O88735   0.155   9.454   1.669 -0.3871  0.2674  1.0343
  644MOL0     C88736   0.228   9.406   1.755 -0.3473 -0.3310 -0.1367
  644MOL0     O88737   0.210   9.402   1.894 -0.3006 -0.6760 -0.1139
  644MOL0     C88738   0.144   9.499   1.966  0.5213 -0.2430  0.1464
  644MOL0     C88739   0.091   9.622   1.913  0.5442  0.5920 -0.8442
  644MOL0     C88740   0.019   9.715   1.999  0.0707 -0.1312  0.1523
  644MOL0     C88741  -0.018   9.680   2.133 -0.4379 -0.2047  0.1635
  644MOL0     O88742  -0.110   9.747   2.214  0.4693  0.3298  0.1368
  644MOL0     C88743  -0.119   9.881   2.186 -0.0149  0.2850  0.4124
  644MOL0     C88744  -0.153   9.950   2.317  0.0054  0.4184  0.1798
  644MOL0     C88745  -0.126  10.086   2.294  0.9599 -0.2961 -0.2488
  644MOL0     C88746  -0.195  10.169   2.391  0.7843 -0.4564  0.2414
  644MOL0     C88747  -0.342  10.206   2.356 -0.0688  0.5225  0.5325
  644MOL0     C88748  -0.404  10.307   2.438  0.4599 -1.2054  0.7858
  644MOL0     C88749  -0.555  10.320   2.398  0.0396  0.1268  0.6851
  644MOL0     C88750  -0.606  10.456   2.422 -0.4254  0.3556 -0.1147
  644MOL0     N88751  -0.744  10.488   2.361 -0.2898 -0.3584  0.7910
  644MOL0     C88752  -0.863  10.474   2.429  0.2936 -1.2637  0.0404
  644MOL0     C88753  -0.948  10.440   2.333  0.5456 -0.0907  0.0511
  644MOL0     C88754  -1.089  10.395   2.352  0.8722 -0.3957  0.2035
  644MOL0     C88755  -1.197  10.501   2.348 -0.0483  0.2906  0.4049
  644MOL0     C88756  -1.194  10.613   2.451  0.1546 -0.5121 -0.5706
  644MOL0     C88757  -1.279  10.735   2.416 -0.5400  0.1035  0.4837
  644MOL0     O88758  -1.284  10.808   2.540  0.0461 -0.6079 -0.3227
  644MOL0     C88759  -1.173  10.858   2.613 -0.0741  0.8753  0.2428
  644MOL0     C88760  -1.063  10.902   2.537 -0.7475  0.1262  0.4453
  644MOL0     C88761  -0.963  10.969   2.601  0.2055 -0.0858  0.0288
  644MOL0     C88762  -0.855  11.019   2.514  0.3437  1.0059  1.2503
  644MOL0     C88763  -0.965  10.986   2.745 -0.9403  0.1929  0.1457
  644MOL0     C88764  -0.856  11.050   2.837  0.7181  0.2267  0.2366
  644MOL0     O88765  -0.856  11.018   2.969  0.3660  0.0609 -0.2382
  644MOL0     C88766  -0.750  11.037   3.053  0.1319 -1.1072 -0.3982
  644MOL0     C88767  -0.617  11.037   3.014 -0.1635  0.2143  0.8139
  644MOL0     C88768  -0.514  11.063   3.112 -0.7613  0.4311  0.7712
  644MOL0     C88769  -0.535  11.113   3.240 -0.1000 -0.4391  0.5117
  644MOL0     O88770  -0.428  11.161   3.313  0.0227  0.2895 -0.0352
  644MOL0     C88771  -0.443  11.225   3.446 -0.0726  0.3669  0.0884
  644MOL0     C88772  -0.305  11.265   3.510  0.9308  0.2401 -0.5814
  644MOL0     C88773  -0.210  11.150   3.519 -1.2340 -0.0996  0.8061
  644MOL0     C88774  -0.072  11.206   3.556 -0.0754 -0.3893 -0.0872
  644MOL0     C88775   0.044  11.110   3.543 -0.8389 -0.4501 -0.4057
  644MOL0     C88776   0.084  11.062   3.400 -0.3190  0.1635 -0.5448
  644MOL0     C88777   0.206  10.977   3.412  0.1973  0.3186  1.1692
  644MOL0     C88778   0.263  10.916   3.286  0.0903  0.0355  1.3126
  644MOL0    Cl88779   0.424  10.833   3.332 -1.0257 -0.0444  0.2203
  644MOL0     C88780  -0.671  11.117   3.282 -0.1131 -0.6436  0.3750
  644MOL0     C88781  -0.772  11.079   3.188  0.0576 -0.0385  0.5941
  644MOL0     O88782  -0.767  11.109   2.785 -1.0295  0.0533  1.0162
  644MOL0     C88783  -1.086  10.955   2.815 -0.1754 -0.3595  0.3642
  644MOL0     C88784  -1.184  10.884   2.748  0.2028  1.4727 -1.2631
  644MOL0     N88785  -0.883  10.455   2.210 -0.7794 -0.2920  0.2481
  644MOL0     N88786  -0.760  10.487   2.228  0.9900  0.4464  0.6289
  644MOL0     C88787   0.037   9.558   2.174  1.0273 -0.2886  1.2922
  644MOL0     C88788   0.116   9.472   2.098 -0.4030 -1.2905  0.4199
  644MOL0     C88789   0.312   9.295   1.713  0.7206  0.3801  0.3771
  644MOL0     C88790   0.329   9.189   1.799 -0.8096  0.2177 -1.7710
  644MOL0     C88791   0.413   9.080   1.756  0.6581 -1.3528 -0.5423
  644MOL0     C88792   0.483   9.081   1.634  0.2942 -0.2589  0.4399
  644MOL0     O88793   0.571   8.974   1.612  0.0128 -0.0422 -0.0464
  644MOL0     C88794   0.614   8.936   1.480 -0.2886  0.5906  0.1682
  644MOL0     C88795   0.762   8.962   1.462  0.0080 -0.3538 -0.1472
  644MOL0     C88796   0.859   8.920   1.566 -0.4968 -0.3845 -1.2210
  644MOL0     C88797   1.007   8.960   1.547 -0.8358 -0.0199 -0.1837
  644MOL0     C88798   1.091   8.866   1.632 -0.1463 -0.0780 -0.1417
  644MOL0     C88799   1.174   8.799   1.690 -0.0216 -0.6246 -0.2634
  644MOL0     C88800   0.470   9.200   1.551 -0.5091  0.5067 -0.0476
  644MOL0     C88801   0.385   9.301   1.588 -0.0686  0.0107  0.5235
  644MOL0     C88802   0.404   9.428   1.490  0.5071  0.2923 -0.0402
  644MOL0     H88803   0.101   9.635   1.806  0.0887  0.0615 -0.9510
  644MOL0     H88804  -0.016   9.808   1.955  0.6964 -1.3700 -3.2653
  644MOL0     H88805  -0.185   9.918   2.107  0.8260 -1.4500 -1.1664
  644MOL0     H88806  -0.020   9.922   2.166 -0.2504  1.2748  1.1928
  644MOL0     H88807  -0.258   9.936   2.345  0.1558 -1.3505 -0.0242
  644MOL0     H88808  -0.083   9.918   2.396 -0.1744 -0.2812  0.0636
  644MOL0     H88809  -0.018  10.096   2.310  1.0949 -1.3399 -0.4180
  644MOL0     H88810  -0.146  10.110   2.189  3.2345  0.9482 -0.4662
  644MOL0     H88811  -0.193  10.119   2.488  1.3486 -1.2908 -0.1846
  644MOL0     H88812  -0.140  10.263   2.401  1.0419 -0.6187  0.3849
  644MOL0     H88813  -0.404  10.116   2.349 -2.5017  2.1996 -0.8389
  644MOL0     H88814  -0.339  10.245   2.254 -0.1095 -0.0518  0.3084
  644MOL0     H88815  -0.419  10.283   2.543  2.8572 -1.1521  1.2127
  644MOL0     H88816  -0.340  10.394   2.421 -0.7310 -0.5934 -0.7900
  644MOL0     H88817  -0.607  10.244   2.457  1.0918 -1.9275 -0.9372
  644MOL0     H88818  -0.574  10.281   2.298  1.9010 -0.9853  0.7293
  644MOL0     H88819  -0.586  10.472   2.528  0.9395 -1.4915 -0.0597
  644MOL0     H88820  -0.539  10.529   2.375  0.9987 -0.9090 -0.1211
  644MOL0     H88821  -0.879  10.452   2.534  1.5056 -1.9971  0.0889
  644MOL0     H88822  -1.097  10.335   2.443  1.6532 -2.3850 -0.9667
  644MOL0     H88823  -1.107  10.329   2.267  0.3877  0.5931 -0.4773
  644MOL0     H88824  -1.191  10.543   2.247 -0.7874  0.6571  0.5074
  644MOL0     H88825  -1.294  10.451   2.355  1.0130 -1.9208  0.4585
  644MOL0     H88826  -1.231  10.570   2.545  0.7931 -0.7424 -0.4170
  644MOL0     H88827  -1.096  10.648   2.486 -1.0958  1.0520  1.6255
  644MOL0     H88828  -1.238  10.794   2.334 -0.4864 -3.2135 -2.0812
  644MOL0     H88829  -1.385  10.721   2.391 -0.9037 -2.1269  2.8109
  644MOL0     H88830  -1.055  10.897   2.429  1.6862 -0.7062  0.6251
  644MOL0     H88831  -0.851  11.128   2.525  1.2405  0.8025  3.3243
  644MOL0     H88832  -0.873  11.016   2.406  0.8547  0.7370  1.1677
  644MOL0     H88833  -0.758  10.971   2.527 -0.9255 -1.4938  2.2942
  644MOL0     H88834  -0.587  11.000   2.917  0.7719 -0.1596  1.2284
  644MOL0     H88835  -0.410  11.037   3.091 -0.9863 -2.0592  2.2444
  644MOL0     H88836  -0.513  11.308   3.431 -1.0415 -0.4462 -0.0102
  644MOL0     H88837  -0.495  11.155   3.512 -3.3833  0.0511 -2.5962
  644MOL0     H88838  -0.261  11.343   3.447 -0.5183  0.8624 -0.8468
  644MOL0     H88839  -0.306  11.308   3.611  2.9829  0.6175 -0.6680
  644MOL0     H88840  -0.207  11.094   3.425  0.2809  0.2113  0.6479
  644MOL0     H88841  -0.236  11.081   3.600 -1.1300 -1.7725 -0.5355
  644MOL0     H88842  -0.081  11.254   3.653  2.7606  0.7339 -0.2874
  644MOL0     H88843  -0.052  11.290   3.489  1.2808 -0.1069  0.6511
  644MOL0     H88844   0.137  11.149   3.585 -1.7404  0.3284  0.9496
  644MOL0     H88845   0.024  11.023   3.606  0.5194  1.0216  2.2184
  644MOL0     H88846   0.102  11.155   3.346 -5.7061  1.2517 -1.0060
  644MOL0     H88847  -0.002  11.004   3.365 -0.7121 -0.0651  0.7249
  644MOL0     H88848   0.184  10.887   3.471 -1.5240  0.4536  0.7857
  644MOL0     H88849   0.290  11.035   3.452 -0.6400 -0.1870  3.8950
  644MOL0     H88850   0.288  11.002   3.223  1.3025 -0.7754  0.6329
  644MOL0     H88851   0.195  10.846   3.235  1.9515 -0.1736 -1.0937
  644MOL0     H88852  -0.685  11.150   3.384 -0.6208 -4.2541  1.5805
  644MOL0     H88853  -0.874  11.080   3.225 -0.2721  1.6696 -0.2635
  644MOL0     H88854  -1.097  10.978   2.921  1.9544  1.8296  0.2139
  644MOL0     H88855  -1.262  10.847   2.813  3.4189 -0.3140  1.9716
  644MOL0     H88856   0.008   9.534   2.276  0.9167  1.7995  1.7871
  644MOL0     H88857   0.152   9.384   2.150  0.6670 -2.4433 -2.1659
  644MOL0     H88858   0.277   9.192   1.894  0.9305  1.9746 -0.8304
  644MOL0     H88859   0.440   8.998   1.821  0.6441 -1.8726 -1.1837
  644MOL0     H88860   0.606   8.831   1.453 -1.0608  0.8239 -0.5674
  644MOL0     H88861   0.567   8.997   1.403 -1.3446 -1.0868 -0.5675
  644MOL0     H88862   0.756   9.071   1.462  0.2969 -0.3267 -1.2102
  644MOL0     H88863   0.785   8.916   1.365 -1.3551  1.4551 -1.3987
  644MOL0     H88864   0.823   8.961   1.661 -0.3904 -0.0176 -1.3344
  644MOL0     H88865   0.852   8.812   1.579  0.4708 -0.3894 -0.6892
  644MOL0     H88866   1.030   9.060   1.583 -0.1994  0.3600 -1.5767
  644MOL0     H88867   1.039   8.957   1.442  2.2203  2.4071  0.5488
  644MOL0     H88868   1.246   8.742   1.745  0.2044  0.4787  0.6300
  644MOL0     H88869   0.528   9.210   1.460  0.8699 -2.5388  0.3362
  644MOL0     H88870   0.397   9.387   1.389 -1.4284 -1.6280  0.8007
  644MOL0     H88871   0.333   9.511   1.503  3.5234  3.1040 -0.2750
  644MOL0     H88872   0.499   9.476   1.515 -0.8586  0.8703  5.3541
  645MOL0     O88873   8.689   0.043   7.437 -0.8601  1.0336  0.1455
  645MOL0     C88874   8.673  -0.082   7.434  0.3161  0.7238  0.0629
  645MOL0     O88875   8.729  -0.173   7.347  0.0506 -0.1713  0.1185
  645MOL0     C88876   8.753  -0.133   7.216 -1.4729 -0.4510  0.2459
  645MOL0     C88877   8.649  -0.111   7.132 -0.2528 -0.1926  0.9366
  645MOL0     C88878   8.675  -0.098   6.992  0.7180  0.5051 -0.1374
  645MOL0     C88879   8.810  -0.082   6.947 -0.8810  0.7363  0.1823
  645MOL0     O88880   8.837  -0.044   6.822  0.1061 -0.1159  1.5130
  645MOL0     C88881   8.750  -0.094   6.720 -0.3899 -0.5981 -0.1329
  645MOL0     C88882   8.793  -0.038   6.580  0.6546  0.3126 -0.2460
  645MOL0     C88883   8.722  -0.118   6.469  0.2299 -0.8968 -0.5624
  645MOL0     C88884   8.776  -0.066   6.327 -0.2905  0.7839  1.1277
  645MOL0     C88885   8.897  -0.160   6.288 -0.1097 -0.2518  0.5668
  645MOL0     C88886   9.007  -0.096   6.208 -0.6731 -0.1901  0.0981
  645MOL0     C88887   9.118  -0.213   6.198  0.7618 -0.5286 -0.8424
  645MOL0     C88888   9.175  -0.276   6.330 -0.7555 -0.5526  0.1037
  645MOL0     N88889   9.228  -0.159   6.411 -0.0332  0.4355 -1.0642
  645MOL0     C88890   9.330  -0.074   6.371 -0.9664 -0.0816 -0.0395
  645MOL0     C88891   9.305   0.026   6.460  0.0320  0.1925  0.1619
  645MOL0     C88892   9.373   0.165   6.446 -0.0025 -0.7793 -0.6348
  645MOL0     C88893   9.460   0.203   6.567 -0.3467 -0.0013  0.7926
  645MOL0     C88894   9.608   0.155   6.558  0.2390 -0.4239 -0.1366
  645MOL0     C88895   9.693   0.237   6.470  0.4693 -0.2918  0.3488
  645MOL0     O88896   9.801   0.155   6.413  0.0569 -0.7912 -0.2673
  645MOL0     C88897   9.897   0.119   6.504 -0.8634 -0.1707  0.3346
  645MOL0     C88898   9.926   0.160   6.648 -0.8002 -0.3689  1.2683
  645MOL0     C88899  10.047   0.118   6.709 -0.5288  0.0132 -0.2123
  645MOL0     C88900  10.067   0.175   6.848  0.3909 -0.1029  0.1457
  645MOL0     C88901  10.142   0.023   6.645  0.9224  0.1819 -0.4271
  645MOL0     C88902  10.257  -0.041   6.716  1.1357 -0.2423  0.5183
  645MOL0     O88903  10.296  -0.003   6.845  0.6951  0.1659 -0.2603
  645MOL0     C88904  10.389  -0.088   6.890  0.0994  1.1204 -0.3098
  645MOL0     C88905  10.522  -0.064   6.876 -1.0824  0.0270 -0.4912
  645MOL0     C88906  10.611  -0.159   6.946 -1.0078  0.3299  0.3811
  645MOL0     C88907  10.574  -0.284   6.988 -0.6915  0.1603  0.5551
  645MOL0     O88908  10.678  -0.359   7.041 -0.7134 -0.0891  0.8153
  645MOL0     C88909  10.659  -0.498   7.006 -0.1322  1.2268 -0.0466
  645MOL0     C88910  10.799  -0.574   6.974  0.2858  1.2312  0.5709
  645MOL0     C88911  10.776  -0.731   6.938 -0.0467 -0.3344 -0.7460
  645MOL0     C88912  10.691  -0.818   7.025  0.9706 -0.3587  0.2375
  645MOL0     C88913  10.690  -0.959   6.971 -0.7884  0.2396 -0.1132
  645MOL0     C88914  10.788  -1.052   7.043 -0.0797 -0.0783 -0.0407
  645MOL0     C88915  10.747  -1.198   7.045  0.3649 -0.3022  0.2820
  645MOL0     C88916  10.845  -1.283   7.123  0.6139  0.1809 -0.2583
  645MOL0    Cl88917  10.771  -1.448   7.116 -0.1804 -0.7936 -0.1020
  645MOL0     C88918  10.438  -0.314   6.981 -0.2495 -0.1129  0.2546
  645MOL0     C88919  10.345  -0.214   6.937  0.3482  0.0001 -0.3876
  645MOL0     O88920  10.319  -0.115   6.638  0.3683 -0.0345  0.1429
  645MOL0     C88921  10.102  -0.031   6.525  0.5732 -1.5145  0.0980
  645MOL0     C88922   9.987   0.019   6.455  0.1316  0.5666 -0.2958
  645MOL0     N88923   9.208  -0.008   6.553 -0.0174  0.5994 -0.5891
  645MOL0     N88924   9.158  -0.117   6.518  0.3653  0.3551  0.1416
  645MOL0     C88925   8.910  -0.090   7.039 -0.1764 -0.4818 -1.0668
  645MOL0     C88926   8.882  -0.122   7.175 -0.9266  1.7110  0.3245
  645MOL0     C88927   8.592  -0.137   7.554 -0.2383 -0.6976 -0.5359
  645MOL0     C88928   8.585  -0.275   7.559 -0.9775 -0.0709 -0.5580
  645MOL0     C88929   8.530  -0.338   7.665 -0.3018  0.4747  0.5116
  645MOL0     C88930   8.474  -0.263   7.771  1.0865  0.9123  0.1763
  645MOL0     O88931   8.419  -0.323   7.875 -0.2904 -0.4251 -0.9242
  645MOL0     C88932   8.507  -0.388   7.970  0.0823 -0.1945 -0.6522
  645MOL0     C88933   8.453  -0.335   8.114  0.1321 -0.6095 -0.0959
  645MOL0     C88934   8.476  -0.193   8.126 -0.4996 -0.1701 -0.6556
  645MOL0     C88935   8.493  -0.146   8.279 -0.5229 -0.1224 -0.6377
  645MOL0     C88936   8.618  -0.190   8.326 -0.6128  0.5225  0.0848
  645MOL0     C88937   8.731  -0.224   8.357 -0.5832  0.8286 -0.4471
  645MOL0     C88938   8.474  -0.127   7.760  0.0667 -0.6590 -0.1313
  645MOL0     C88939   8.529  -0.060   7.654  1.2038  0.2136  0.1656
  645MOL0     C88940   8.525   0.092   7.666 -0.9328  0.1718  0.1800
  645MOL0     H88941   8.547  -0.107   7.168 -1.5797 -3.2813 -1.8193
  645MOL0     H88942   8.601  -0.085   6.913 -2.1925  0.5564  2.4331
  645MOL0     H88943   8.641  -0.089   6.726 -0.5756 -2.5310 -1.1553
  645MOL0     H88944   8.766  -0.202   6.727 -3.1566 -1.3262 -2.9356
  645MOL0     H88945   8.759   0.066   6.587  0.8375  0.3566 -0.0393
  645MOL0     H88946   8.900  -0.051   6.566  0.5620 -3.3308  1.5500
  645MOL0     H88947   8.745  -0.225   6.480 -0.3500 -1.0143 -0.4587
  645MOL0     H88948   8.614  -0.105   6.471 -0.0601 -1.9360 -3.7085
  645MOL0     H88949   8.694  -0.065   6.256 -0.1163 -0.2015  0.8921
  645MOL0     H88950   8.816   0.036   6.328  1.3132  0.3718 -2.8430
  645MOL0     H88951   8.856  -0.242   6.229  0.6656  0.6728 -1.3551
  645MOL0     H88952   8.939  -0.195   6.383 -2.9503  0.2808  2.1535
  645MOL0     H88953   8.974  -0.060   6.110  0.2179  0.0850 -0.1046
  645MOL0     H88954   9.050  -0.007   6.255  0.9985  1.0430 -3.3865
  645MOL0     H88955   9.202  -0.194   6.131  1.8719 -1.0025  0.3489
  645MOL0     H88956   9.060  -0.292   6.150  2.2891 -0.4104 -3.0189
  645MOL0     H88957   9.103  -0.334   6.390 -0.6540 -0.5944  0.1840
  645MOL0     H88958   9.254  -0.345   6.301  0.2499  0.5172  0.2564
  645MOL0     H88959   9.392  -0.064   6.283 -0.4124 -0.4760  0.3045
  645MOL0     H88960   9.304   0.248   6.430  2.9567  2.1069  0.4281
  645MOL0     H88961   9.433   0.165   6.355  2.8602 -2.3553  1.1057
  645MOL0     H88962   9.466   0.310   6.584  2.4533  0.0098  0.3188
  645MOL0     H88963   9.428   0.148   6.656  2.1068  0.5654  2.1215
  645MOL0     H88964   9.659   0.162   6.655  2.2435 -0.0485 -1.1748
  645MOL0     H88965   9.607   0.051   6.526  3.4020  0.7909 -5.1399
  645MOL0     H88966   9.628   0.271   6.389 -1.7338 -1.3268  1.5778
  645MOL0     H88967   9.731   0.317   6.534 -0.0040 -0.1992  0.5181
  645MOL0     H88968   9.859   0.231   6.696  2.3504  3.0496  1.0487
  645MOL0     H88969  10.164   0.217   6.876  0.3875 -2.0390  3.7162
  645MOL0     H88970  10.039   0.105   6.928  0.7882 -2.1280 -1.4233
  645MOL0     H88971  10.003   0.263   6.865 -0.9316 -1.1745  0.9067
  645MOL0     H88972  10.568   0.026   6.836 -3.5424  1.4979 -0.1955
  645MOL0     H88973  10.717  -0.139   6.956 -0.4639 -1.9801 -0.2377
  645MOL0     H88974  10.610  -0.548   7.090  0.7062 -2.0136 -1.3674
  645MOL0     H88975  10.590  -0.519   6.923  0.3640  0.3984 -0.2576
  645MOL0     H88976  10.861  -0.523   6.900  1.5757  1.4041  1.7184
  645MOL0     H88977  10.858  -0.579   7.066  0.9538  1.7598  0.1819
  645MOL0     H88978  10.872  -0.770   6.904 -0.1455  0.0034 -1.4612
  645MOL0     H88979  10.733  -0.716   6.838  1.9226  0.5537 -1.5055
  645MOL0     H88980  10.588  -0.780   7.016  1.1217 -0.3624 -2.3956
  645MOL0     H88981  10.700  -0.819   7.134 -1.5977  2.2103  0.6131
  645MOL0     H88982  10.590  -1.002   6.985 -1.8736  2.0402 -1.8102
  645MOL0     H88983  10.709  -0.953   6.863 -2.0390 -1.2803 -0.4588
  645MOL0     H88984  10.807  -1.022   7.147 -1.1537  2.0608 -0.4028
  645MOL0     H88985  10.884  -1.065   6.991  0.0127  2.9254 -0.8025
  645MOL0     H88986  10.742  -1.223   6.938  0.3888  2.6853 -0.5113
  645MOL0     H88987  10.649  -1.205   7.092 -0.3325 -0.3745 -1.1286
  645MOL0     H88988  10.857  -1.248   7.226 -1.1041 -0.2103  0.0967
  645MOL0     H88989  10.938  -1.285   7.065  1.4775  2.2857  0.9220
  645MOL0     H88990  10.407  -0.416   7.005 -2.5466  0.2308 -1.0116
  645MOL0     H88991  10.242  -0.233   6.965  0.5109  1.4219  1.3869
  645MOL0     H88992  10.155  -0.120   6.492 -0.0771 -2.1878  0.8561
  645MOL0     H88993   9.979  -0.021   6.354  2.5392  1.9162 -1.1043
  645MOL0     H88994   9.015  -0.078   7.012  1.1300 -2.9055  2.2477
  645MOL0     H88995   8.962  -0.137   7.247 -0.9524  1.3507  0.2781
  645MOL0     H88996   8.630  -0.341   7.486 -1.0012 -2.6909  1.6281
  645MOL0     H88997   8.528  -0.447   7.672 -1.5161  0.1470 -2.9732
  645MOL0     H88998   8.488  -0.495   7.957  1.7748 -0.4568 -1.2052
  645MOL0     H88999   8.613  -0.366   7.957 -0.3988  2.0762 -1.2050
  645MOL0     H89000   8.506  -0.394   8.190  0.6582 -0.6679 -0.5131
  645MOL0     H89001   8.350  -0.367   8.136  0.8845 -3.3824 -0.1497
  645MOL0     H89002   8.573  -0.167   8.082 -0.3242  0.8412  0.2840
  645MOL0     H89003   8.399  -0.140   8.069 -2.0007 -1.4333  0.1109
  645MOL0     H89004   8.432  -0.197   8.354  1.1117 -0.2442  0.6727
  645MOL0     H89005   8.494  -0.039   8.302  5.8230 -0.4834  3.1227
  645MOL0     H89006   8.828  -0.250   8.394 -0.6825  0.2399 -0.5846
  645MOL0     H89007   8.438  -0.063   7.840  2.6930 -1.8458  2.1671
  645MOL0     H89008   8.615   0.130   7.715 -0.7000  3.3870 -2.3703
  645MOL0     H89009   8.536   0.157   7.578 -0.4759  0.7140  0.6281
  645MOL0     H89010   8.443   0.135   7.724 -0.2696  2.6213 -0.5907
  646MOL0     O89011   0.177   2.049   7.534  0.0915 -0.6264 -0.2180
  646MOL0     C89012   0.183   1.969   7.618  0.0750  0.2483 -0.0894
  646MOL0     O89013   0.104   1.960   7.719 -0.5401  0.4640 -0.7931
  646MOL0     C89014  -0.027   1.988   7.709 -0.5251  0.4833  0.1902
  646MOL0     C89015  -0.082   2.068   7.814  0.8188 -1.0024 -0.5780
  646MOL0     C89016  -0.219   2.087   7.821 -0.3548 -0.1288  0.3043
  646MOL0     C89017  -0.305   2.052   7.715 -0.0811  0.4087  0.2589
  646MOL0     O89018  -0.438   2.085   7.701 -0.0613 -1.1341 -0.3443
  646MOL0     C89019  -0.517   2.032   7.595  0.2402 -0.4831  1.1205
  646MOL0     C89020  -0.662   2.092   7.608  0.5088 -0.1171  0.8016
  646MOL0     C89021  -0.744   2.047   7.495 -0.5241  0.4106 -0.1819
  646MOL0     C89022  -0.805   1.899   7.502  0.1176  0.6538 -0.1861
  646MOL0     C89023  -0.907   1.874   7.396  0.1841 -0.1869  0.1967
  646MOL0     C89024  -1.031   1.961   7.428  0.8351  0.1301  0.2267
  646MOL0     C89025  -1.149   1.868   7.408  1.2801 -0.5065 -0.6702
  646MOL0     C89026  -1.170   1.817   7.261  0.1573  0.3398 -1.3093
  646MOL0     N89027  -1.130   1.677   7.239 -0.3394  0.4998 -0.5011
  646MOL0     C89028  -1.171   1.569   7.316 -0.2909  0.6469 -0.0411
  646MOL0     C89029  -1.071   1.480   7.295 -0.3313  0.0942  0.5883
  646MOL0     C89030  -1.034   1.352   7.366  0.5614 -0.3531 -0.5504
  646MOL0     C89031  -1.135   1.238   7.320 -0.3051 -0.5359 -0.4601
  646MOL0     C89032  -1.126   1.230   7.166  0.5131 -0.2094  0.2036
  646MOL0     C89033  -1.182   1.088   7.126 -0.7116  0.8072 -0.6026
  646MOL0     O89034  -1.310   1.057   7.175  0.1852  0.2174 -1.1145
  646MOL0     C89035  -1.340   0.928   7.161 -0.2060 -0.2740 -0.4724
  646MOL0     C89036  -1.354   0.878   7.036  0.2269  0.7718  0.4047
  646MOL0     C89037  -1.390   0.747   7.010 -0.1642  1.2043 -0.6468
  646MOL0     C89038  -1.430   0.715   6.866 -0.4224 -0.1078  0.5258
  646MOL0     C89039  -1.381   0.659   7.116  0.4624 -0.3985  0.0172
  646MOL0     C89040  -1.386   0.514   7.097  0.4309  0.5997 -0.3612
  646MOL0     O89041  -1.411   0.435   7.209 -0.3923  0.2439  0.2072
  646MOL0     C89042  -1.402   0.294   7.201 -0.4238  0.8711  0.1557
  646MOL0     C89043  -1.513   0.236   7.233  0.2320  0.9108  0.2409
  646MOL0     C89044  -1.522   0.101   7.245  0.1808  0.2987  0.2589
  646MOL0     C89045  -1.406   0.024   7.233  0.4434  0.0778  0.2206
  646MOL0     O89046  -1.408  -0.110   7.226  0.0134 -0.4683  0.5730
  646MOL0     C89047  -1.446  -0.169   7.350 -0.0429  0.0041  0.9844
  646MOL0     C89048  -1.351  -0.290   7.369 -0.2766  0.0166 -0.1076
  646MOL0     C89049  -1.198  -0.262   7.392  0.7704 -0.4156  0.4086
  646MOL0     C89050  -1.107  -0.385   7.365 -0.9648  0.2943  0.8040
  646MOL0     C89051  -0.957  -0.355   7.388 -0.2294 -0.7949 -0.0310
  646MOL0     C89052  -0.905  -0.217   7.351 -0.7599 -0.0051 -0.1551
  646MOL0     C89053  -0.749  -0.225   7.355 -0.7609  0.7231 -0.1254
  646MOL0     C89054  -0.694  -0.142   7.237  0.1703  0.0950 -0.1542
  646MOL0    Cl89055  -0.734   0.032   7.252 -0.3626 -0.5336 -0.1769
  646MOL0     C89056  -1.281   0.086   7.201 -0.6490  0.4618  0.2574
  646MOL0     C89057  -1.279   0.220   7.187  0.1645 -0.2192 -0.0546
  646MOL0     O89058  -1.358   0.472   6.982 -0.5677  0.2909 -0.8237
  646MOL0     C89059  -1.355   0.708   7.241 -0.2064 -0.8255 -0.0891
  646MOL0     C89060  -1.344   0.843   7.271 -0.0544 -0.9268 -0.3537
  646MOL0     N89061  -0.977   1.541   7.212 -0.4891  0.6789  0.0986
  646MOL0     N89062  -1.013   1.654   7.171 -0.0492 -0.5632  0.5236
  646MOL0     C89063  -0.249   1.971   7.619 -0.8286  0.2947 -0.0348
  646MOL0     C89064  -0.119   1.943   7.614 -1.6655  0.1850 -0.3616
  646MOL0     C89065   0.310   1.896   7.626  0.2409 -0.4058  0.4877
  646MOL0     C89066   0.404   1.914   7.523 -0.3862 -0.3992 -0.3461
  646MOL0     C89067   0.523   1.852   7.522 -0.1228  0.9048 -0.1288
  646MOL0     C89068   0.552   1.738   7.595  0.4419 -0.4086 -0.2720
  646MOL0     O89069   0.670   1.664   7.596 -0.9509  0.1797 -0.2464
  646MOL0     C89070   0.791   1.717   7.533 -0.8924  0.4395  0.4627
  646MOL0     C89071   0.920   1.664   7.577 -0.2658 -0.6625 -0.2673
  646MOL0     C89072   1.047   1.657   7.496 -0.1736 -0.3765  0.4979
  646MOL0     C89073   1.028   1.622   7.354  1.3500 -0.5806 -0.6784
  646MOL0     C89074   1.156   1.594   7.300 -0.1261 -1.2266 -0.5563
  646MOL0     C89075   1.264   1.574   7.252  0.2416  0.2597  0.6220
  646MOL0     C89076   0.461   1.715   7.705 -0.2934  0.5636  0.9285
  646MOL0     C89077   0.340   1.794   7.721 -0.2537  0.0787 -0.0441
  646MOL0     C89078   0.242   1.738   7.825 -0.1669  0.3365  0.7424
  646MOL0     H89079  -0.014   2.119   7.881 -1.9140  1.2116  0.7187
  646MOL0     H89080  -0.261   2.156   7.893 -2.1084  0.4400 -1.1876
  646MOL0     H89081  -0.534   1.923   7.597 -2.6574 -0.0985  1.6039
  646MOL0     H89082  -0.480   2.060   7.496  0.3522 -0.1295  1.2606
  646MOL0     H89083  -0.698   2.051   7.703 -2.7793  0.1712 -0.2028
  646MOL0     H89084  -0.665   2.201   7.602 -2.8646 -0.1588 -0.7749
  646MOL0     H89085  -0.824   2.120   7.481 -0.6678  0.2600 -0.1439
  646MOL0     H89086  -0.704   2.071   7.396 -0.6673  0.5852 -0.1970
  646MOL0     H89087  -0.723   1.827   7.497  1.9046  2.3700  2.3846
  646MOL0     H89088  -0.853   1.871   7.596  3.1130  1.4809  1.7040
  646MOL0     H89089  -0.928   1.768   7.384  0.0406  0.1068 -3.2587
  646MOL0     H89090  -0.860   1.902   7.301  0.8663 -2.1451 -0.0824
  646MOL0     H89091  -1.026   1.986   7.534  0.6974  1.5442 -0.0732
  646MOL0     H89092  -1.032   2.054   7.369  1.9575  0.8682  1.3285
  646MOL0     H89093  -1.239   1.921   7.440  1.8334  0.8956 -1.3396
  646MOL0     H89094  -1.123   1.781   7.469  2.2832  0.7961  0.8542
  646MOL0     H89095  -1.276   1.821   7.236 -0.6792 -2.0138  1.4357
  646MOL0     H89096  -1.112   1.883   7.195  1.8419 -1.3231 -1.5729
  646MOL0     H89097  -1.254   1.558   7.386  1.0183 -0.3943  1.4190
  646MOL0     H89098  -1.057   1.374   7.470 -0.0294  0.9088 -0.9351
  646MOL0     H89099  -0.928   1.326   7.353 -0.1806 -3.0710 -2.0191
  646MOL0     H89100  -1.109   1.144   7.368 -2.2966 -2.0528 -2.1759
  646MOL0     H89101  -1.235   1.270   7.350  0.9060  1.8903  1.3934
  646MOL0     H89102  -1.186   1.306   7.116  1.8831  0.5128 -0.4084
  646MOL0     H89103  -1.024   1.245   7.130 -0.0843  0.8147 -1.1490
  646MOL0     H89104  -1.194   1.092   7.017 -2.5929 -2.0224 -0.6013
  646MOL0     H89105  -1.101   1.018   7.151 -1.2145  0.8976  1.4146
  646MOL0     H89106  -1.369   0.945   6.952  0.3375 -0.9903 -1.0602
  646MOL0     H89107  -1.448   0.614   6.830 -0.6098  0.1004  0.0250
  646MOL0     H89108  -1.338   0.750   6.820 -0.3721  3.3837  2.8615
  646MOL0     H89109  -1.513   0.780   6.837  0.7331  2.1787  2.0598
  646MOL0     H89110  -1.608   0.288   7.237  0.5939  1.5142  1.0858
  646MOL0     H89111  -1.618   0.053   7.261 -0.3847  1.1003 -0.6614
  646MOL0     H89112  -1.447  -0.100   7.435  0.2905 -0.5140  1.4212
  646MOL0     H89113  -1.533  -0.234   7.341 -1.0882  1.4331  0.4968
  646MOL0     H89114  -1.394  -0.336   7.459 -0.0026 -3.4823 -1.6224
  646MOL0     H89115  -1.376  -0.357   7.287  0.4856 -1.6928  1.0064
  646MOL0     H89116  -1.189  -0.231   7.497  0.0708  0.5222  0.2043
  646MOL0     H89117  -1.171  -0.171   7.338  2.5630  0.0527  1.9488
  646MOL0     H89118  -1.128  -0.411   7.261 -0.6845  0.6239  0.6657
  646MOL0     H89119  -1.135  -0.472   7.426  0.8215 -2.7594 -2.3498
  646MOL0     H89120  -0.920  -0.380   7.488  2.3056  0.7679 -0.4828
  646MOL0     H89121  -0.907  -0.418   7.315  0.4724 -0.9480  0.5680
  646MOL0     H89122  -0.945  -0.144   7.421 -1.0483  0.3758 -0.7156
  646MOL0     H89123  -0.945  -0.189   7.253 -0.2692  1.7515  0.1192
  646MOL0     H89124  -0.717  -0.328   7.335  0.4384  1.1070 -0.2759
  646MOL0     H89125  -0.714  -0.203   7.456 -3.8978 -4.1839  2.4604
  646MOL0     H89126  -0.750  -0.170   7.147 -0.8064  1.8714 -0.1402
  646MOL0     H89127  -0.588  -0.153   7.212 -0.0529  1.7414 -2.1206
  646MOL0     H89128  -1.183   0.041   7.193 -0.8693 -0.2114  1.1751
  646MOL0     H89129  -1.196   0.278   7.146  0.5066 -2.9489 -3.8328
  646MOL0     H89130  -1.375   0.645   7.327 -0.8709  1.1910  1.3235
  646MOL0     H89131  -1.322   0.885   7.368 -0.7165 -0.6122 -0.3309
  646MOL0     H89132  -0.294   1.911   7.540  0.9181  0.6367 -1.3736
  646MOL0     H89133  -0.090   1.883   7.527 -1.7652 -1.5234  0.7243
  646MOL0     H89134   0.393   1.998   7.456  3.5005 -0.5336 -1.3529
  646MOL0     H89135   0.591   1.881   7.442  0.6867  2.4416  1.0726
  646MOL0     H89136   0.784   1.693   7.426 -0.6487 -0.4966  0.6522
  646MOL0     H89137   0.797   1.826   7.543  0.2423  0.5977 -1.4296
  646MOL0     H89138   0.893   1.564   7.611  0.7362 -0.1371  2.2875
  646MOL0     H89139   0.943   1.720   7.668  1.4577  0.1965 -1.1839
  646MOL0     H89140   1.098   1.754   7.506 -1.3569  0.2415  0.7258
  646MOL0     H89141   1.123   1.595   7.544  1.4829  0.3980 -1.0051
  646MOL0     H89142   0.968   1.707   7.321  0.6647 -0.2124  1.3808
  646MOL0     H89143   0.975   1.526   7.349  2.0886 -0.9420 -3.1726
  646MOL0     H89144   1.352   1.543   7.200  0.0687  2.1171 -0.8908
  646MOL0     H89145   0.497   1.640   7.775  2.6799  0.3683 -0.6605
  646MOL0     H89146   0.229   1.805   7.910  0.3787 -0.7280  1.6909
  646MOL0     H89147   0.143   1.723   7.781 -0.2993 -1.9080  1.6611
  646MOL0     H89148   0.279   1.645   7.869  2.9540  0.2097 -1.8443
  647MOL0     O89149   3.919   3.582   3.806 -0.5632  0.0908  0.1923
  647MOL0     C89150   3.920   3.462   3.839 -0.5810 -0.0114  0.2771
  647MOL0     O89151   3.950   3.410   3.960  0.7138  0.3413 -0.3830
  647MOL0     C89152   3.934   3.477   4.079  0.2865 -0.0008  0.6291
  647MOL0     C89153   3.962   3.401   4.186  0.4479 -0.8134  0.1957
  647MOL0     C89154   3.956   3.458   4.313  0.5106  0.6107  1.5869
  647MOL0     C89155   3.909   3.587   4.334  0.2698  0.3619 -0.6949
  647MOL0     O89156   3.875   3.628   4.458 -0.2781  0.6185  0.2659
  647MOL0     C89157   3.932   3.573   4.580  0.5627 -0.9272 -0.9613
  647MOL0     C89158   3.911   3.673   4.695  0.0576 -0.4473  0.9222
  647MOL0     C89159   3.778   3.739   4.708  0.5708 -0.2939  0.8775
  647MOL0     C89160   3.655   3.656   4.669 -0.0263 -0.9082  0.0395
  647MOL0     C89161   3.525   3.725   4.688  0.7576 -0.0801  0.5258
  647MOL0     C89162   3.406   3.646   4.628  0.7197 -0.3448 -1.0686
  647MOL0     C89163   3.268   3.697   4.700  0.3475  0.5180  0.4423
  647MOL0     C89164   3.151   3.603   4.661  0.3122 -0.2399 -0.0833
  647MOL0     N89165   3.125   3.607   4.520  0.8594  0.3116  0.3570
  647MOL0     C89166   3.063   3.717   4.456 -0.3725  0.1265 -0.1527
  647MOL0     C89167   3.047   3.670   4.334  0.3695 -0.1761 -0.0577
  647MOL0     C89168   2.983   3.764   4.224  0.3652 -0.5558  0.4204
  647MOL0     C89169   2.834   3.823   4.230  0.0853 -0.4137  0.1482
  647MOL0     C89170   2.736   3.713   4.199  0.6864 -0.5158  0.1942
  647MOL0     C89171   2.769   3.622   4.084  0.0151 -0.1419 -1.6296
  647MOL0     O89172   2.656   3.537   4.068 -0.2051 -0.1343  0.7039
  647MOL0     C89173   2.660   3.424   3.987  0.4430  0.2695  0.8824
  647MOL0     C89174   2.553   3.338   4.003 -1.2307 -0.0379 -0.6792
  647MOL0     C89175   2.550   3.219   3.925 -0.2134 -0.1405 -0.3534
  647MOL0     C89176   2.436   3.109   3.966  0.2910  0.3408 -1.0234
  647MOL0     C89177   2.663   3.181   3.844 -0.1448 -0.8653 -0.0241
  647MOL0     C89178   2.669   3.049   3.776 -0.7256 -0.0147 -0.2931
  647MOL0     O89179   2.797   3.005   3.743  0.6476 -0.0810  0.4512
  647MOL0     C89180   2.819   2.874   3.709  0.4646 -0.2583 -1.5427
  647MOL0     C89181   2.738   2.767   3.763 -0.7105 -0.1870  0.3593
  647MOL0     C89182   2.769   2.636   3.731  0.2218  0.0459  0.2690
  647MOL0     C89183   2.882   2.609   3.658  0.5230  0.0971 -0.3506
  647MOL0     O89184   2.923   2.480   3.631  0.3012  0.2451 -0.6157
  647MOL0     C89185   3.058   2.439   3.666 -0.4599  0.1932 -0.4615
  647MOL0     C89186   3.053   2.287   3.668 -0.1172  0.5048 -0.2636
  647MOL0     C89187   3.175   2.224   3.736  0.1714  0.1385 -0.2168
  647MOL0     C89188   3.184   2.066   3.745  0.7123  0.1502  0.5424
  647MOL0     C89189   3.326   2.008   3.752 -0.3698 -0.3045 -0.1358
  647MOL0     C89190   3.345   1.866   3.766 -1.0307  0.8342 -0.9645
  647MOL0     C89191   3.318   1.831   3.914 -0.0674  0.7422  1.1392
  647MOL0     C89192   3.321   1.683   3.941 -0.5132  0.1059 -0.4849
  647MOL0    Cl89193   3.339   1.666   4.129 -0.2030 -0.3515 -0.0945
  647MOL0     C89194   2.956   2.713   3.599 -0.8676 -0.4254 -0.0029
  647MOL0     C89195   2.922   2.856   3.617  0.0022  0.6789 -1.2244
  647MOL0     O89196   2.557   2.999   3.738 -0.0012 -0.7169 -0.0968
  647MOL0     C89197   2.768   3.273   3.829 -0.0576 -0.6918 -0.4089
  647MOL0     C89198   2.760   3.400   3.899  0.1720  0.2296  1.2830
  647MOL0     N89199   3.089   3.536   4.323  0.7503  0.2440 -0.3147
  647MOL0     N89200   3.136   3.493   4.441  0.3720  0.1767  0.4107
  647MOL0     C89201   3.875   3.663   4.222  0.4693  0.0515 -0.4676
  647MOL0     C89202   3.885   3.610   4.098 -0.0235 -0.1780  0.2676
  647MOL0     C89203   3.889   3.358   3.735 -0.7168  0.2513  0.2055
  647MOL0     C89204   3.982   3.356   3.634 -0.2874  1.0796  0.1915
  647MOL0     C89205   3.972   3.260   3.531  0.2487  0.7331  0.5143
  647MOL0     C89206   3.860   3.174   3.530 -0.2629 -0.4020 -0.8866
  647MOL0     O89207   3.841   3.075   3.439 -0.1367 -0.1477  0.2834
  647MOL0     C89208   3.959   2.997   3.391  0.0176  0.0708 -0.4323
  647MOL0     C89209   3.922   2.950   3.253  0.0044  1.1200  0.4348
  647MOL0     C89210   3.821   2.838   3.274  0.2978  1.2414  0.3856
  647MOL0     C89211   3.807   2.784   3.133 -0.6944 -0.3336 -1.1577
  647MOL0     C89212   3.677   2.710   3.126  0.7280 -0.3140 -0.0538
  647MOL0     C89213   3.564   2.657   3.124  0.1332 -0.5152 -0.3816
  647MOL0     C89214   3.764   3.186   3.636 -0.1644  0.9144 -0.1641
  647MOL0     C89215   3.777   3.272   3.738  0.2907 -0.4522 -0.3130
  647MOL0     C89216   3.676   3.284   3.842 -0.4544  0.6337 -0.2663
  647MOL0     H89217   3.981   3.295   4.175 -0.5323 -1.4931  3.8588
  647MOL0     H89218   3.956   3.394   4.401 -1.6485 -0.5240  0.8450
  647MOL0     H89219   4.040   3.552   4.580  1.1704  1.5474  2.1510
  647MOL0     H89220   3.885   3.477   4.603  1.1569 -1.0939 -0.4289
  647MOL0     H89221   3.930   3.636   4.796 -1.7544 -0.4127  1.3037
  647MOL0     H89222   3.989   3.750   4.692 -1.2169  0.8578  0.1325
  647MOL0     H89223   3.763   3.753   4.815 -3.6561 -2.9302  0.8960
  647MOL0     H89224   3.766   3.833   4.654  1.1247 -1.2910 -1.1041
  647MOL0     H89225   3.648   3.637   4.561  1.2720  0.1653 -0.2584
  647MOL0     H89226   3.647   3.558   4.718  0.3213 -1.6874 -1.4036
  647MOL0     H89227   3.520   3.828   4.653 -1.0601 -0.3224 -0.0603
  647MOL0     H89228   3.510   3.728   4.797  0.5712  1.6342  0.4835
  647MOL0     H89229   3.411   3.655   4.519  2.3029  1.3650 -0.8969
  647MOL0     H89230   3.426   3.549   4.674  1.4694  1.4526  2.8147
  647MOL0     H89231   3.240   3.798   4.669  0.7141  0.0479 -1.5282
  647MOL0     H89232   3.280   3.691   4.809 -1.5285 -1.7791  0.5972
  647MOL0     H89233   3.188   3.503   4.684 -0.7530 -0.9577 -1.4092
  647MOL0     H89234   3.067   3.622   4.728 -0.5742 -1.0703 -0.9383
  647MOL0     H89235   3.063   3.822   4.484 -1.7926  0.2903 -0.6817
  647MOL0     H89236   2.991   3.715   4.127 -1.7189  1.2080 -0.7202
  647MOL0     H89237   3.047   3.853   4.221 -3.5375  2.4682 -1.0578
  647MOL0     H89238   2.815   3.876   4.324  0.1816 -0.9745  0.4916
  647MOL0     H89239   2.829   3.902   4.155 -2.7366 -0.1923  0.4669
  647MOL0     H89240   2.728   3.655   4.291 -0.1840 -3.0088 -1.3566
  647MOL0     H89241   2.639   3.755   4.173  1.9421  0.3962 -3.8017
  647MOL0     H89242   2.777   3.696   4.004  0.8784  1.7908  0.1208
  647MOL0     H89243   2.861   3.564   4.094 -0.2605 -0.3306  0.1409
  647MOL0     H89244   2.483   3.359   4.084  0.4463 -0.5719  0.9788
  647MOL0     H89245   2.482   3.015   3.996  0.5299  0.8980  0.4346
  647MOL0     H89246   2.367   3.100   3.882 -1.0443  1.7839 -0.1535
  647MOL0     H89247   2.372   3.157   4.041  1.8011 -0.4163  0.8189
  647MOL0     H89248   2.656   2.782   3.833 -0.7854  0.6370  0.1024
  647MOL0     H89249   2.714   2.558   3.782 -2.1461 -0.0041 -2.1381
  647MOL0     H89250   3.134   2.488   3.604 -0.6573  1.1147  0.0054
  647MOL0     H89251   3.069   2.467   3.772  1.5011  0.5737 -0.7314
  647MOL0     H89252   2.965   2.251   3.722  1.2515  3.4233  4.5351
  647MOL0     H89253   3.053   2.252   3.564 -0.6550 -0.3268  0.0098
  647MOL0     H89254   3.165   2.253   3.841 -2.0602 -0.6297 -0.1601
  647MOL0     H89255   3.262   2.268   3.686 -0.3365 -0.2796 -1.4976
  647MOL0     H89256   3.134   2.028   3.655  1.9566  0.8873 -0.5018
  647MOL0     H89257   3.136   2.022   3.833  0.1661  2.7557  1.6388
  647MOL0     H89258   3.380   2.038   3.662 -0.9553  3.3042  0.5703
  647MOL0     H89259   3.384   2.046   3.836  0.5926 -1.6393 -0.1608
  647MOL0     H89260   3.442   1.832   3.728 -0.8891 -2.4662  1.8228
  647MOL0     H89261   3.276   1.814   3.698 -2.4597 -0.8027  1.5536
  647MOL0     H89262   3.221   1.873   3.939 -2.6838 -1.3221 -3.9189
  647MOL0     H89263   3.392   1.879   3.978 -0.7122 -0.3496  2.7529
  647MOL0     H89264   3.406   1.653   3.879 -0.8307 -0.0370 -0.8544
  647MOL0     H89265   3.235   1.624   3.906 -0.7785 -2.5976  3.9255
  647MOL0     H89266   3.037   2.683   3.532 -1.7780  1.4578 -2.1020
  647MOL0     H89267   2.977   2.931   3.562 -0.1278  0.0075 -2.3179
  647MOL0     H89268   2.844   3.237   3.761  1.8281  0.6437  0.8978
  647MOL0     H89269   2.828   3.480   3.872 -2.5634  1.4689 -3.0892
  647MOL0     H89270   3.821   3.757   4.232 -2.3050 -1.6482  1.6224
  647MOL0     H89271   3.861   3.671   4.012 -1.7433 -0.3176  0.6270
  647MOL0     H89272   4.056   3.434   3.622  0.3116  0.3448 -1.0619
  647MOL0     H89273   4.052   3.259   3.458 -1.6891  1.6480 -1.7535
  647MOL0     H89274   4.051   3.056   3.382  0.4883 -0.2869  1.6764
  647MOL0     H89275   3.972   2.917   3.464 -1.0510  0.3989  0.1370
  647MOL0     H89276   4.010   2.917   3.197  0.3161  0.1460  1.4566
  647MOL0     H89277   3.870   3.035   3.208 -2.0305  0.5493  1.5589
  647MOL0     H89278   3.868   2.761   3.336 -2.9277  0.2109  1.7491
  647MOL0     H89279   3.724   2.865   3.317 -0.5458  0.4244 -0.9620
  647MOL0     H89280   3.889   2.721   3.099  1.0228  1.1185  0.1559
  647MOL0     H89281   3.782   2.860   3.057 -2.3843 -0.2992 -0.6176
  647MOL0     H89282   3.481   2.589   3.128  2.8497 -4.0832  2.1407
  647MOL0     H89283   3.676   3.123   3.627 -1.6643  3.0798 -1.3439
  647MOL0     H89284   3.642   3.385   3.867  1.3424  1.5695 -1.3705
  647MOL0     H89285   3.588   3.226   3.815  0.1597  0.7590 -2.8344
  647MOL0     H89286   3.727   3.256   3.935  0.4697  1.0804 -0.6200
  648MOL0     O89287   4.200   6.043   4.099  0.0484 -0.0416  0.3212
  648MOL0     C89288   4.319   6.045   4.092 -0.8667 -0.2291  0.6340
  648MOL0     O89289   4.407   6.018   4.193 -0.1506 -0.3014 -0.0383
  648MOL0     C89290   4.354   5.964   4.308  0.8428  0.1450 -0.7380
  648MOL0     C89291   4.254   6.029   4.380 -1.0244 -0.6115  0.9781
  648MOL0     C89292   4.222   5.982   4.512  0.4019 -0.0829 -0.2591
  648MOL0     C89293   4.263   5.857   4.563 -0.5750 -0.1363  0.4150
  648MOL0     O89294   4.214   5.811   4.682  0.2816 -0.9205 -0.7956
  648MOL0     C89295   4.283   5.722   4.761 -0.5173 -0.9912 -0.0244
  648MOL0     C89296   4.390   5.803   4.841 -0.3948  0.2239 -0.8071
  648MOL0     C89297   4.429   5.712   4.961  0.5138  0.5312 -0.2667
  648MOL0     C89298   4.567   5.757   5.012 -1.2461  0.3458  0.0756
  648MOL0     C89299   4.627   5.659   5.113  0.4920 -0.9209 -0.1124
  648MOL0     C89300   4.757   5.716   5.166 -0.5139 -0.8604 -0.3911
  648MOL0     C89301   4.835   5.625   5.252  0.4750 -0.5535  0.6679
  648MOL0     C89302   4.916   5.508   5.187  0.4199  0.5424  0.1885
  648MOL0     N89303   5.046   5.562   5.127  0.3500 -0.8260 -0.4033
  648MOL0     C89304   5.151   5.604   5.205 -0.6738 -0.3106 -1.1389
  648MOL0     C89305   5.241   5.648   5.122  0.1637  0.0720  1.2390
  648MOL0     C89306   5.375   5.718   5.161  0.1809 -0.8122  0.0579
  648MOL0     C89307   5.486   5.618   5.122  0.8352  0.0266 -0.0424
  648MOL0     C89308   5.629   5.658   5.111  0.1875  0.8430 -0.0184
  648MOL0     C89309   5.714   5.538   5.073  1.0116 -0.9234 -0.1745
  648MOL0     O89310   5.852   5.582   5.046  0.1144  0.1570 -0.0684
  648MOL0     C89311   5.932   5.470   5.036  0.0287 -0.5275 -0.6622
  648MOL0     C89312   5.985   5.442   4.912  0.7870 -0.0105  0.0722
  648MOL0     C89313   6.069   5.341   4.889 -0.9329 -0.6344  1.1020
  648MOL0     C89314   6.116   5.325   4.741 -0.2313 -0.6325 -0.0515
  648MOL0     C89315   6.126   5.273   4.995 -0.5281 -0.3515  0.1438
  648MOL0     C89316   6.218   5.149   4.989  0.6760 -0.7283 -0.1218
  648MOL0     O89317   6.281   5.104   5.094  0.0724  0.7305  1.5738
  648MOL0     C89318   6.345   4.985   5.080 -0.4144  0.4553 -0.4523
  648MOL0     C89319   6.272   4.858   5.078 -0.2525  0.0460 -0.7512
  648MOL0     C89320   6.350   4.743   5.078 -0.1781  0.5427 -0.8900
  648MOL0     C89321   6.488   4.740   5.081 -0.3686  0.3447  0.2370
  648MOL0     O89322   6.577   4.627   5.079  0.1225  0.3305 -0.0948
  648MOL0     C89323   6.530   4.508   5.152  0.2197 -0.2890 -0.8080
  648MOL0     C89324   6.499   4.401   5.048 -0.5052  0.3552 -0.2846
  648MOL0     C89325   6.451   4.272   5.111  0.2182 -0.4604 -0.4194
  648MOL0     C89326   6.423   4.160   5.011 -0.4841 -0.0752  0.1802
  648MOL0     C89327   6.274   4.183   4.957 -0.2520  0.1242  1.1529
  648MOL0     C89328   6.256   4.132   4.811  0.0739 -0.1061 -1.1585
  648MOL0     C89329   6.116   4.058   4.776  0.6458 -0.6488  0.5679
  648MOL0     C89330   6.131   4.007   4.628  0.6657 -0.0315 -0.3183
  648MOL0    Cl89331   5.992   3.893   4.590  0.5076  0.1060 -0.3450
  648MOL0     C89332   6.556   4.862   5.098 -0.4171  0.6110  0.1887
  648MOL0     C89333   6.480   4.982   5.096 -0.6173 -0.4316 -0.0360
  648MOL0     O89334   6.236   5.096   4.875 -0.1363 -0.4255 -0.1347
  648MOL0     C89335   6.084   5.305   5.122  0.2565 -0.5209 -0.2335
  648MOL0     C89336   5.983   5.395   5.146 -0.1586 -0.3141  0.2939
  648MOL0     N89337   5.205   5.640   4.991  1.1674  0.7669  1.1945
  648MOL0     N89338   5.087   5.584   4.996  0.2220 -0.9521 -0.4922
  648MOL0     C89339   4.357   5.790   4.486 -0.6343 -0.1121 -0.1749
  648MOL0     C89340   4.402   5.845   4.364 -0.1702 -0.1290 -0.1685
  648MOL0     C89341   4.384   6.040   3.949  0.0677 -0.3496 -1.3665
  648MOL0     C89342   4.527   6.065   3.942  0.0867  0.1658 -0.0622
  648MOL0     C89343   4.606   6.087   3.829 -0.1743 -0.1446  0.4673
  648MOL0     C89344   4.547   6.061   3.709 -0.8054 -0.2894 -0.0706
  648MOL0     O89345   4.600   6.117   3.588  0.4167  0.1310  1.2639
  648MOL0     C89346   4.735   6.168   3.581 -0.3934 -0.7876  0.5989
  648MOL0     C89347   4.839   6.066   3.540  0.1348 -0.9043 -0.6287
  648MOL0     C89348   4.975   6.119   3.588 -0.1906  0.8136 -0.2761
  648MOL0     C89349   5.079   6.013   3.565 -0.0500  0.0358  0.2688
  648MOL0     C89350   5.077   5.917   3.677  0.0125  0.1686 -0.2714
  648MOL0     C89351   5.086   5.850   3.784 -0.3188  0.3413 -0.3850
  648MOL0     C89352   4.407   6.026   3.707 -1.1952  0.1715 -0.4967
  648MOL0     C89353   4.327   6.015   3.825 -0.4919  0.4883 -0.4044
  648MOL0     C89354   4.184   5.957   3.797  0.4741 -0.1560 -0.2175
  648MOL0     H89355   4.206   6.119   4.342 -0.8324 -1.1291 -0.5911
  648MOL0     H89356   4.156   6.045   4.572 -1.9258 -0.0558 -2.6444
  648MOL0     H89357   4.327   5.646   4.695  0.7884  1.7573 -2.6008
  648MOL0     H89358   4.210   5.669   4.823 -1.8692 -0.0199 -0.7294
  648MOL0     H89359   4.480   5.828   4.783  0.1100  2.2177  0.7323
  648MOL0     H89360   4.343   5.897   4.871 -1.3278  0.7523 -3.6127
  648MOL0     H89361   4.364   5.713   5.050 -0.9352  1.3636 -1.2787
  648MOL0     H89362   4.433   5.607   4.931 -5.2514 -1.0948  2.9626
  648MOL0     H89363   4.629   5.756   4.922 -0.4692  1.4298  0.5717
  648MOL0     H89364   4.559   5.858   5.053 -0.3105  0.8772 -1.0087
  648MOL0     H89365   4.658   5.568   5.061  2.3977 -0.4078  0.0818
  648MOL0     H89366   4.552   5.630   5.188 -1.3572 -0.9908 -1.8780
  648MOL0     H89367   4.818   5.747   5.081  0.3897  1.0063  0.8603
  648MOL0     H89368   4.737   5.802   5.230  0.2378  1.3148 -2.8936
  648MOL0     H89369   4.763   5.589   5.326 -1.2412  0.0477 -0.6423
  648MOL0     H89370   4.906   5.690   5.303 -0.0848 -0.2412  1.0621
  648MOL0     H89371   4.946   5.440   5.267  2.2927 -0.3455 -1.1885
  648MOL0     H89372   4.850   5.457   5.116  1.1442  1.1939 -0.9943
  648MOL0     H89373   5.152   5.609   5.313 -0.2382  1.6086 -1.2035
  648MOL0     H89374   5.391   5.738   5.267  0.8919 -0.5430 -0.0947
  648MOL0     H89375   5.372   5.815   5.110 -0.8573  1.4044  3.8950
  648MOL0     H89376   5.479   5.533   5.190  0.2647  1.2796  1.5370
  648MOL0     H89377   5.455   5.583   5.024  0.4641 -0.4818  0.2508
  648MOL0     H89378   5.627   5.730   5.029  0.3240 -1.1982 -1.9302
  648MOL0     H89379   5.660   5.703   5.205 -3.9242  1.2501  1.3130
  648MOL0     H89380   5.715   5.478   5.164  3.2931 -0.1407  0.3673
  648MOL0     H89381   5.670   5.487   4.987 -1.1119  0.4027  0.0394
  648MOL0     H89382   5.958   5.502   4.825  0.4846  0.2937  0.3733
  648MOL0     H89383   6.221   5.357   4.742 -0.2809 -0.3996  1.8750
  648MOL0     H89384   6.051   5.382   4.674 -0.5322  0.1677  0.8910
  648MOL0     H89385   6.114   5.222   4.705  0.5815  0.0299 -2.1872
  648MOL0     H89386   6.165   4.844   5.068 -0.3590  1.0038 -1.0961
  648MOL0     H89387   6.314   4.644   5.053  2.6679 -0.3191 -1.9942
  648MOL0     H89388   6.603   4.476   5.226 -0.1847 -1.4899 -0.9076
  648MOL0     H89389   6.443   4.539   5.212 -0.3830 -2.2812 -0.5798
  648MOL0     H89390   6.421   4.432   4.977  0.5816 -1.9633 -2.6417
  648MOL0     H89391   6.590   4.389   4.989 -0.9148 -0.9828 -0.6727
  648MOL0     H89392   6.363   4.307   5.164  0.3167 -1.2669  0.2918
  648MOL0     H89393   6.523   4.235   5.184 -0.0470  1.7285  1.0506
  648MOL0     H89394   6.421   4.055   5.043 -1.2698 -0.1584 -0.1410
  648MOL0     H89395   6.511   4.164   4.946 -0.2714 -0.2628  0.4493
  648MOL0     H89396   6.204   4.127   5.021  0.0605  1.2595  2.5520
  648MOL0     H89397   6.232   4.284   4.959  0.2899  0.4101 -0.5699
  648MOL0     H89398   6.341   4.069   4.786 -1.0078 -1.8241 -0.6893
  648MOL0     H89399   6.260   4.229   4.760 -0.6956  0.3457 -0.4034
  648MOL0     H89400   6.025   4.118   4.786  2.3078  4.0821 -5.7747
  648MOL0     H89401   6.104   3.982   4.853 -0.5864  1.2097  2.2851
  648MOL0     H89402   6.225   3.956   4.607 -0.3284 -0.8267 -3.3695
  648MOL0     H89403   6.124   4.093   4.560 -2.3357  0.7998  0.8477
  648MOL0     H89404   6.664   4.859   5.087 -0.3688 -2.4021  0.5043
  648MOL0     H89405   6.535   5.075   5.085  3.5815 -2.3612  2.3634
  648MOL0     H89406   6.123   5.257   5.212 -2.1651  2.6859  2.8233
  648MOL0     H89407   5.956   5.425   5.247  0.8144  3.9153 -0.4811
  648MOL0     H89408   4.384   5.687   4.510 -2.5486 -0.4440  0.7631
  648MOL0     H89409   4.479   5.808   4.297  2.3006  3.1628  0.6025
  648MOL0     H89410   4.571   6.077   4.041 -0.5635  1.8960  0.0544
  648MOL0     H89411   4.703   6.132   3.846 -0.8103  1.2230  0.5930
  648MOL0     H89412   4.732   6.242   3.501  3.4822 -1.2545 -0.1752
  648MOL0     H89413   4.768   6.222   3.670  2.6081 -1.5307  0.0406
  648MOL0     H89414   4.836   6.048   3.432  0.5965  2.7627 -1.4196
  648MOL0     H89415   4.818   5.977   3.599  1.8924 -1.1818 -0.3920
  648MOL0     H89416   5.013   6.205   3.532  2.5448  1.8465  2.8411
  648MOL0     H89417   4.980   6.145   3.694 -2.4927  2.9194 -0.5857
  648MOL0     H89418   5.169   6.075   3.566 -2.0809  3.2546  2.5341
  648MOL0     H89419   5.063   5.955   3.474  1.7703 -1.2019  0.6942
  648MOL0     H89420   5.110   5.795   3.872  1.4380 -1.2434 -1.7696
  648MOL0     H89421   4.361   6.026   3.609  0.8303 -0.1774 -1.5095
  648MOL0     H89422   4.146   5.929   3.896  0.4686  0.2623 -0.1010
  648MOL0     H89423   4.115   6.036   3.766 -0.9977 -0.8158  1.2455
  648MOL0     H89424   4.177   5.877   3.722 -1.2314 -0.9431  0.7279
  649MOL0     O89425   2.699   0.102   7.808 -0.4937  0.0949  0.1067
  649MOL0     C89426   2.769   0.005   7.778 -0.6764  0.0242  0.0485
  649MOL0     O89427   2.856  -0.062   7.865  0.3976  0.1505  0.8593
  649MOL0     C89428   2.874  -0.025   7.990  0.1246  0.8583 -0.4683
  649MOL0     C89429   2.905  -0.131   8.073  0.0359  0.2842 -0.5293
  649MOL0     C89430   2.943  -0.114   8.208 -0.0353 -0.0880  0.1362
  649MOL0     C89431   2.930   0.005   8.273  0.5483 -0.1918 -0.1013
  649MOL0     O89432   2.958   0.013   8.403 -0.1591  0.0042 -0.4437
  649MOL0     C89433   2.980   0.144   8.470 -0.3310  0.7281 -0.0219
  649MOL0     C89434   3.008   0.124   8.625  0.8866  0.6993 -0.1525
  649MOL0     C89435   3.075   0.248   8.679  0.6725 -0.0489 -0.1070
  649MOL0     C89436   3.103   0.257   8.825  0.8832  0.5264  0.1847
  649MOL0     C89437   2.994   0.216   8.930 -0.0888 -0.5052 -0.2106
  649MOL0     C89438   3.041   0.225   9.072 -0.5698  0.6921  0.0126
  649MOL0     C89439   2.926   0.190   9.152 -0.8012  0.5057  0.4945
  649MOL0     C89440   2.930   0.202   9.307  0.0475 -0.4865 -0.3646
  649MOL0     N89441   2.985   0.335   9.357  0.4901  0.2422  0.1782
  649MOL0     C89442   2.921   0.452   9.330  0.5515 -0.7456 -0.0455
  649MOL0     C89443   2.997   0.543   9.391  0.1512 -0.0080 -0.0160
  649MOL0     C89444   2.975   0.693   9.409 -0.6382  0.6054  0.2187
  649MOL0     C89445   3.024   0.769   9.295 -0.3405 -0.9388  0.4272
  649MOL0     C89446   3.167   0.845   9.291 -0.1172 -0.0740  0.3727
  649MOL0     C89447   3.276   0.738   9.265 -0.1554 -0.5745  0.4694
  649MOL0     O89448   3.243   0.655   9.151  0.5977  0.4089 -0.0243
  649MOL0     C89449   3.225   0.713   9.027  0.3010 -0.2472  0.1138
  649MOL0     C89450   3.289   0.832   8.988  0.7018 -0.1532 -0.0846
  649MOL0     C89451   3.269   0.887   8.865  0.7041  0.6951  0.1842
  649MOL0     C89452   3.340   1.014   8.825  0.1369  0.4889 -0.1870
  649MOL0     C89453   3.187   0.806   8.774 -0.2609  0.0238  0.3514
  649MOL0     C89454   3.154   0.847   8.632 -0.8319  0.0059 -0.2350
  649MOL0     O89455   3.177   0.746   8.544  0.6026  0.0564  0.4552
  649MOL0     C89456   3.125   0.741   8.409 -0.1671  0.0009 -1.1064
  649MOL0     C89457   3.187   0.657   8.318  1.3731 -0.5137 -0.2056
  649MOL0     C89458   3.145   0.654   8.186  0.0879 -0.2509  0.3782
  649MOL0     C89459   3.022   0.722   8.154 -0.4110 -0.1283  0.6402
  649MOL0     O89460   2.965   0.729   8.039  0.5475 -0.2085  0.9386
  649MOL0     C89461   3.048   0.741   7.922  0.0241 -0.0621 -0.5795
  649MOL0     C89462   2.979   0.782   7.789  0.0738 -0.0880 -0.3798
  649MOL0     C89463   2.944   0.924   7.796  0.8549  0.1617  0.0624
  649MOL0     C89464   2.897   0.964   7.654  1.0006 -0.0066 -0.6766
  649MOL0     C89465   2.785   1.071   7.649 -0.8013  0.1025  0.2402
  649MOL0     C89466   2.668   1.038   7.726  0.5373 -0.1623  1.0337
  649MOL0     C89467   2.549   1.125   7.698 -0.1240 -0.5622  0.3524
  649MOL0     C89468   2.474   1.101   7.566  0.0155  0.0653 -0.4212
  649MOL0    Cl89469   2.391   0.949   7.553 -0.0049 -0.0649  0.1272
  649MOL0     C89470   2.961   0.804   8.247 -0.3133  0.1402 -0.1747
  649MOL0     C89471   3.004   0.800   8.377 -0.1698 -0.2171 -0.8099
  649MOL0     O89472   3.122   0.962   8.606 -1.6954 -0.1556 -0.5154
  649MOL0     C89473   3.115   0.688   8.807  0.2013 -0.6930  1.0704
  649MOL0     C89474   3.149   0.638   8.932  0.1613  0.3122  0.2815
  649MOL0     N89475   3.097   0.477   9.456  0.3062  0.0127  0.0812
  649MOL0     N89476   3.101   0.353   9.424  0.3156 -0.8007  0.1933
  649MOL0     C89477   2.871   0.107   8.193 -0.1326  0.3081 -0.2701
  649MOL0     C89478   2.855   0.102   8.056 -1.0464 -0.1496  1.2395
  649MOL0     C89479   2.770  -0.023   7.636 -0.4225  0.5936  0.3316
  649MOL0     C89480   2.883   0.026   7.565 -0.1727 -1.0793 -0.5913
  649MOL0     C89481   2.879   0.023   7.429 -0.3484  0.5115 -0.5030
  649MOL0     C89482   2.778  -0.058   7.367 -0.9362  0.4082 -0.0333
  649MOL0     O89483   2.768  -0.066   7.225 -0.3869 -0.2619 -0.2401
  649MOL0     C89484   2.804   0.058   7.154 -0.3075  0.0081 -0.2311
  649MOL0     C89485   2.726   0.170   7.212  0.2596 -0.1342 -0.2896
  649MOL0     C89486   2.577   0.145   7.197 -0.1728 -1.0539 -0.3687
  649MOL0     C89487   2.492   0.269   7.209 -0.1127 -0.8203 -0.5872
  649MOL0     C89488   2.356   0.213   7.227 -0.1404  1.1486  0.2098
  649MOL0     C89489   2.246   0.164   7.240 -0.9366 -0.7834 -0.7143
  649MOL0     C89490   2.683  -0.123   7.439 -0.1947  0.4522  0.1179
  649MOL0     C89491   2.677  -0.101   7.570  1.2042 -0.2272  0.3430
  649MOL0     C89492   2.570  -0.164   7.649 -0.3931  0.1353  0.5636
  649MOL0     H89493   2.925  -0.226   8.026 -0.9311 -0.8476  1.2285
  649MOL0     H89494   2.973  -0.204   8.262 -2.2516 -1.1361 -0.2800
  649MOL0     H89495   2.894   0.211   8.457  0.6495  2.0411 -0.0246
  649MOL0     H89496   3.074   0.185   8.432  0.8574  1.9162  3.7518
  649MOL0     H89497   2.912   0.117   8.678  0.0478  1.3194 -1.5510
  649MOL0     H89498   3.059   0.029   8.641 -1.5655 -1.1163 -2.2688
  649MOL0     H89499   3.164   0.288   8.629  1.6316  0.7749  2.1216
  649MOL0     H89500   3.012   0.336   8.660  2.5057  1.4795  0.6129
  649MOL0     H89501   3.194   0.197   8.829  0.1883 -0.6356 -0.7193
  649MOL0     H89502   3.126   0.360   8.856 -0.6688 -0.0190  3.6153
  649MOL0     H89503   2.949   0.119   8.911 -1.8377  0.3528 -0.6912
  649MOL0     H89504   2.916   0.293   8.920  0.8626  0.7871  1.6202
  649MOL0     H89505   3.122   0.153   9.088  0.0645  0.8010 -2.3208
  649MOL0     H89506   3.084   0.323   9.095 -0.7647  0.1092  3.3690
  649MOL0     H89507   2.901   0.086   9.126  2.1279 -0.0240 -0.4885
  649MOL0     H89508   2.846   0.258   9.119 -0.1314  1.4789  0.8449
  649MOL0     H89509   2.834   0.171   9.351 -1.4562  3.0880 -0.8345
  649MOL0     H89510   2.995   0.122   9.344  0.5482  0.6794  1.4302
  649MOL0     H89511   2.827   0.476   9.282  1.3300  1.5155 -0.5547
  649MOL0     H89512   3.004   0.722   9.510 -3.3961  4.3393  0.1620
  649MOL0     H89513   2.865   0.698   9.409 -0.6548  0.9448 -1.5202
  649MOL0     H89514   3.014   0.717   9.199 -1.9614  1.5087 -0.8421
  649MOL0     H89515   2.946   0.845   9.288 -1.3740 -1.7938  2.0439
  649MOL0     H89516   3.165   0.915   9.206  0.2381 -2.6990 -1.9496
  649MOL0     H89517   3.195   0.907   9.377 -0.9902  1.9047 -0.6922
  649MOL0     H89518   3.375   0.786   9.271 -2.0900  3.8335  1.2880
  649MOL0     H89519   3.271   0.675   9.354 -2.3068 -2.6903 -1.0326
  649MOL0     H89520   3.347   0.886   9.063  1.5846 -0.7455 -0.3226
  649MOL0     H89521   3.442   1.020   8.865  1.1283  1.0446 -2.5925
  649MOL0     H89522   3.294   1.113   8.838 -1.8951  0.0749 -3.1874
  649MOL0     H89523   3.357   1.000   8.718  0.3604  0.7033 -0.1823
  649MOL0     H89524   3.268   0.593   8.351  0.9833 -0.2917  1.2635
  649MOL0     H89525   3.201   0.583   8.126  0.7497 -1.0295  1.8772
  649MOL0     H89526   3.119   0.821   7.948  0.5610  0.2990 -2.9171
  649MOL0     H89527   3.103   0.648   7.905 -2.0472 -1.2299 -1.0986
  649MOL0     H89528   3.061   0.771   7.717  0.5796 -0.6365  0.2733
  649MOL0     H89529   2.901   0.714   7.755  1.1342 -0.7754 -1.4845
  649MOL0     H89530   3.027   0.986   7.832  2.3894 -1.4510 -0.5681
  649MOL0     H89531   2.871   0.926   7.878 -0.7137  1.2343 -1.2992
  649MOL0     H89532   2.857   0.878   7.600 -2.4963  1.0169  0.0498
  649MOL0     H89533   2.989   0.998   7.605 -0.0502  0.4484 -2.4181
  649MOL0     H89534   2.814   1.167   7.693  0.1909  0.0765 -0.3536
  649MOL0     H89535   2.748   1.087   7.547 -1.8843  0.2248  0.6313
  649MOL0     H89536   2.695   1.035   7.832 -1.3123 -1.9959  1.5330
  649MOL0     H89537   2.641   0.937   7.693 -1.8538  0.1538  1.8099
  649MOL0     H89538   2.580   1.230   7.700 -2.9241  0.3622  2.8092
  649MOL0     H89539   2.485   1.106   7.785  2.9938 -1.7567  2.5708
  649MOL0     H89540   2.546   1.113   7.484 -0.4188  2.1286 -0.5627
  649MOL0     H89541   2.397   1.178   7.554  2.1043  2.0439 -2.0952
  649MOL0     H89542   2.880   0.864   8.205 -0.0495 -0.3924 -1.4784
  649MOL0     H89543   2.950   0.852   8.455  0.7577 -1.6633  0.9123
  649MOL0     H89544   3.042   0.653   8.734  0.8303  1.7625 -0.9036
  649MOL0     H89545   3.100   0.550   8.973  0.2032  0.8667  1.5899
  649MOL0     H89546   2.853   0.204   8.239 -2.2955  1.8291 -3.8937
  649MOL0     H89547   2.828   0.179   7.985 -0.8282 -1.9572 -0.9232
  649MOL0     H89548   2.953   0.101   7.602  3.0647 -3.1889 -1.9595
  649MOL0     H89549   2.945   0.079   7.362 -1.1681  2.7460  0.4544
  649MOL0     H89550   2.912   0.075   7.159 -0.3426  0.5756 -1.2173
  649MOL0     H89551   2.774   0.041   7.050  2.4698 -1.2296 -0.9382
  649MOL0     H89552   2.751   0.259   7.154  1.6852 -0.0410  0.4357
  649MOL0     H89553   2.757   0.205   7.311  3.4388  1.7608 -1.8232
  649MOL0     H89554   2.549   0.095   7.104 -3.3217  0.1125 -0.1710
  649MOL0     H89555   2.552   0.084   7.283 -0.4580 -0.8643 -0.3128
  649MOL0     H89556   2.505   0.328   7.118  1.8360 -2.2088 -1.2704
  649MOL0     H89557   2.510   0.335   7.294  0.3286 -0.2902 -1.0835
  649MOL0     H89558   2.143   0.137   7.251 -0.4977 -1.8481  1.2391
  649MOL0     H89559   2.605  -0.178   7.388 -0.1903 -0.8874  1.5111
  649MOL0     H89560   2.516  -0.242   7.593 -0.6597  1.1404 -0.6375
  649MOL0     H89561   2.600  -0.189   7.751 -2.6339 -1.8676  0.8311
  649MOL0     H89562   2.494  -0.087   7.667  1.7988  2.2751  1.0558
  650MOL0     O89563   5.750   4.826   8.388  0.3290 -0.6789  0.2334
  650MOL0     C89564   5.676   4.785   8.479 -0.4263  0.4100 -1.4150
  650MOL0     O89565   5.624   4.862   8.582  0.7344 -0.9765 -0.5318
  650MOL0     C89566   5.624   4.999   8.561  0.1247 -0.6349  0.6042
  650MOL0     C89567   5.579   5.059   8.442 -0.1401 -0.2247  1.1088
  650MOL0     C89568   5.558   5.198   8.428 -1.0835  0.2751  0.1013
  650MOL0     C89569   5.576   5.280   8.542 -0.2108  0.1862  0.5648
  650MOL0     O89570   5.529   5.408   8.543  0.3971 -0.5432  0.8512
  650MOL0     C89571   5.397   5.435   8.468 -0.3025  0.0509  0.8169
  650MOL0     C89572   5.330   5.567   8.524 -0.0544 -0.0358 -0.5385
  650MOL0     C89573   5.212   5.608   8.434  0.4099  0.0199 -1.0641
  650MOL0     C89574   5.267   5.672   8.313 -0.2085 -0.8075  0.2107
  650MOL0     C89575   5.218   5.824   8.280  0.4029  0.2129 -0.8685
  650MOL0     C89576   5.326   5.921   8.328  0.0953 -0.4642 -0.1112
  650MOL0     C89577   5.440   5.966   8.226  0.7405  0.2889  0.0684
  650MOL0     C89578   5.478   6.108   8.272 -0.7085 -0.1242 -0.2864
  650MOL0     N89579   5.511   6.114   8.412 -0.1216 -0.1222  0.5415
  650MOL0     C89580   5.599   6.029   8.472  0.4892  0.2585 -0.5203
  650MOL0     C89581   5.613   6.075   8.600  0.3235 -0.5227  0.3806
  650MOL0     C89582   5.694   6.015   8.706  0.3356 -0.2499  0.5228
  650MOL0     C89583   5.842   6.044   8.682  0.1667  0.3421 -0.7163
  650MOL0     C89584   5.933   6.012   8.803 -0.3470 -0.9292  0.6513
  650MOL0     C89585   6.055   6.097   8.784  0.2780 -0.5146  0.2283
  650MOL0     O89586   6.140   6.042   8.681  0.1065  0.3408  0.0749
  650MOL0     C89587   6.261   5.992   8.712 -1.0949 -0.8708  0.3815
  650MOL0     C89588   6.307   5.870   8.658  0.3028  0.1717 -0.1293
  650MOL0     C89589   6.426   5.816   8.696  0.1348  0.6839  1.4193
  650MOL0     C89590   6.450   5.676   8.637 -0.3938  0.3807  0.4026
  650MOL0     C89591   6.526   5.888   8.772 -0.1442  0.7361 -1.0557
  650MOL0     C89592   6.662   5.837   8.829 -1.1543  0.2767 -0.6379
  650MOL0     O89593   6.697   5.711   8.807  1.2530  0.2768 -0.4259
  650MOL0     C89594   6.811   5.659   8.839 -0.6451 -0.3294  0.9775
  650MOL0     C89595   6.942   5.715   8.805  0.9612 -0.2103  0.6909
  650MOL0     C89596   7.061   5.657   8.854  0.1099  0.0405 -0.4109
  650MOL0     C89597   7.054   5.554   8.950 -0.2566  0.4878  0.2140
  650MOL0     O89598   7.177   5.522   9.003  0.6113  0.3865  0.6359
  650MOL0     C89599   7.212   5.400   9.071 -0.2311 -0.6166 -0.2409
  650MOL0     C89600   7.178   5.393   9.228  0.4999 -0.3980  0.1114
  650MOL0     C89601   7.229   5.273   9.300  0.2901  0.8756  0.5340
  650MOL0     C89602   7.223   5.318   9.450  0.0222 -0.1977  0.1988
  650MOL0     C89603   7.279   5.227   9.563 -0.7729  0.9163  0.5692
  650MOL0     C89604   7.300   5.305   9.694 -0.3822  1.1552  0.2630
  650MOL0     C89605   7.332   5.222   9.815 -0.0551 -0.1027 -1.0854
  650MOL0     C89606   7.394   5.294   9.949 -0.6794  0.5790 -0.7909
  650MOL0    Cl89607   7.531   5.396   9.913  0.2794  0.3223  0.1962
  650MOL0     C89608   6.929   5.501   8.984  0.2961  0.4148 -0.2033
  650MOL0     C89609   6.817   5.546   8.927 -0.0543  0.6701 -0.2495
  650MOL0     O89610   6.723   5.917   8.907  0.0966  0.3809 -0.4579
  650MOL0     C89611   6.482   6.017   8.815 -0.7485  0.5132 -1.0369
  650MOL0     C89612   6.354   6.061   8.797 -0.0531  1.0346  0.6524
  650MOL0     N89613   5.508   6.168   8.614 -0.3457 -0.1409 -0.4389
  650MOL0     N89614   5.458   6.193   8.504 -0.3572  0.2604  0.2595
  650MOL0     C89615   5.609   5.222   8.664  0.4756  0.7439  0.1353
  650MOL0     C89616   5.637   5.083   8.674  0.1368 -0.6513  1.0924
  650MOL0     C89617   5.666   4.642   8.507 -0.4360  0.2355 -0.5240
  650MOL0     C89618   5.620   4.590   8.631  0.3989 -0.7111 -0.5400
  650MOL0     C89619   5.602   4.452   8.653  0.0080  0.4278 -0.7774
  650MOL0     C89620   5.637   4.351   8.556 -0.7445 -0.8303 -0.1890
  650MOL0     O89621   5.620   4.216   8.588  0.8710 -0.3327  0.3209
  650MOL0     C89622   5.745   4.145   8.594  0.1052  0.1588  0.1170
  650MOL0     C89623   5.713   4.004   8.634  0.5615  0.1560 -0.4327
  650MOL0     C89624   5.823   3.901   8.607  0.2157  0.3257  0.2564
  650MOL0     C89625   5.756   3.761   8.598  0.1492  0.7520 -0.0524
  650MOL0     C89626   5.797   3.675   8.717 -0.2616 -0.8478  0.6651
  650MOL0     C89627   5.806   3.607   8.815 -0.7734 -0.4686  0.1636
  650MOL0     C89628   5.673   4.400   8.434 -0.8007 -0.3673 -0.6399
  650MOL0     C89629   5.695   4.538   8.406  0.2695 -0.5983 -0.8379
  650MOL0     C89630   5.720   4.579   8.264 -0.4908 -0.3602  0.5137
  650MOL0     H89631   5.566   5.001   8.351 -2.4297  0.4234  0.9829
  650MOL0     H89632   5.543   5.235   8.327 -0.5859  2.4317  0.7842
  650MOL0     H89633   5.334   5.346   8.479 -0.2140  0.0865  1.7107
  650MOL0     H89634   5.396   5.434   8.358 -1.2144 -0.9641  0.8127
  650MOL0     H89635   5.280   5.539   8.617 -1.5016  0.8472 -1.0186
  650MOL0     H89636   5.397   5.644   8.562 -1.4211 -1.4348  5.8800
  650MOL0     H89637   5.149   5.521   8.414 -2.6189  0.9463  3.1705
  650MOL0     H89638   5.144   5.676   8.487  1.1598  2.5305 -3.0531
  650MOL0     H89639   5.376   5.672   8.313 -0.1065  2.1221 -1.9108
  650MOL0     H89640   5.227   5.607   8.234 -3.8171  0.6131  0.6453
  650MOL0     H89641   5.127   5.839   8.339  1.1181 -0.7583  0.5134
  650MOL0     H89642   5.191   5.835   8.174  0.3443  1.1711 -0.7587
  650MOL0     H89643   5.257   6.006   8.328 -2.0535 -2.1400 -0.3132
  650MOL0     H89644   5.373   5.901   8.425  0.0178  1.2783  0.3153
  650MOL0     H89645   5.407   5.973   8.122  0.4179 -0.6094  0.1010
  650MOL0     H89646   5.524   5.899   8.243  0.5750 -0.2393 -1.1007
  650MOL0     H89647   5.559   6.147   8.210 -2.7884  1.7691 -1.9890
  650MOL0     H89648   5.401   6.183   8.253  1.0293  1.1389 -3.1155
  650MOL0     H89649   5.658   5.947   8.432 -2.6193 -1.4110 -1.9619
  650MOL0     H89650   5.678   5.907   8.713 -1.6446 -0.0654 -0.2795
  650MOL0     H89651   5.659   6.057   8.801 -1.9837 -0.0383 -0.3670
  650MOL0     H89652   5.873   5.984   8.596 -3.8976 -2.1623 -0.7104
  650MOL0     H89653   5.844   6.150   8.655  4.2078  0.1036 -1.8983
  650MOL0     H89654   5.886   6.040   8.898 -2.6402  1.9890 -1.1576
  650MOL0     H89655   5.952   5.904   8.803 -0.7652 -1.0934  3.8445
  650MOL0     H89656   6.030   6.203   8.769  0.5589 -0.4725  0.0546
  650MOL0     H89657   6.096   6.107   8.885  3.5283 -2.0301 -0.7876
  650MOL0     H89658   6.227   5.823   8.601 -0.2182  2.3943 -1.3720
  650MOL0     H89659   6.449   5.612   8.726  0.8679 -2.1250 -1.2756
  650MOL0     H89660   6.545   5.675   8.584  0.4089  0.6864  1.7760
  650MOL0     H89661   6.372   5.645   8.567  0.9794  1.2257 -1.5721
  650MOL0     H89662   6.956   5.806   8.748  1.8506  0.5520  2.0728
  650MOL0     H89663   7.156   5.695   8.819  2.3103 -2.1165  2.7403
  650MOL0     H89664   7.169   5.328   9.001 -5.7837  1.0506  0.9647
  650MOL0     H89665   7.322   5.392   9.073  0.1820  2.3120 -3.0227
  650MOL0     H89666   7.198   5.483   9.286 -0.9727 -1.1794  1.9394
  650MOL0     H89667   7.070   5.375   9.234  0.4756 -1.5922 -2.4353
  650MOL0     H89668   7.333   5.253   9.271 -0.5336 -1.7585 -0.9888
  650MOL0     H89669   7.172   5.180   9.289 -2.4671  2.7568 -2.6735
  650MOL0     H89670   7.119   5.341   9.474  0.2922  1.4863 -0.1408
  650MOL0     H89671   7.291   5.402   9.462  2.4692 -2.2732  2.0152
  650MOL0     H89672   7.202   5.153   9.588 -0.0086 -0.0392  0.1912
  650MOL0     H89673   7.368   5.169   9.534 -0.4126  1.5677  0.3525
  650MOL0     H89674   7.205   5.351   9.721 -0.3958 -0.2415  2.9807
  650MOL0     H89675   7.375   5.384   9.684 -0.3096  1.2792  1.5864
  650MOL0     H89676   7.413   5.154   9.787  0.3360  0.9370 -2.6035
  650MOL0     H89677   7.237   5.178   9.848  0.5898 -1.8910 -1.4936
  650MOL0     H89678   7.415   5.223  10.030  0.1811 -0.8682 -2.2316
  650MOL0     H89679   7.323   5.374   9.975 -0.8333  0.1168  0.2717
  650MOL0     H89680   6.916   5.440   9.073 -1.8732  1.1031  0.0112
  650MOL0     H89681   6.725   5.512   8.973 -0.4755  1.5330 -0.4417
  650MOL0     H89682   6.552   6.079   8.871  1.7243  2.2215 -5.4993
  650MOL0     H89683   6.321   6.144   8.859 -3.3984  0.9440 -0.7958
  650MOL0     H89684   5.602   5.276   8.758 -1.8546 -0.5773  0.8277
  650MOL0     H89685   5.650   5.039   8.773  0.3230 -0.1608  1.2867
  650MOL0     H89686   5.600   4.649   8.720  1.0332  0.9181 -1.4273
  650MOL0     H89687   5.576   4.425   8.755  0.3339  3.2770  0.1465
  650MOL0     H89688   5.787   4.131   8.494  1.3616 -2.5025  0.9301
  650MOL0     H89689   5.817   4.194   8.662  2.2931  0.2931 -2.1623
  650MOL0     H89690   5.628   3.981   8.570 -1.2970  1.7334  1.3105
  650MOL0     H89691   5.670   4.003   8.735 -0.7385  2.3093 -0.8901
  650MOL0     H89692   5.871   3.928   8.513  0.9990 -2.2169 -0.1523
  650MOL0     H89693   5.905   3.911   8.679  0.6280 -0.2226 -0.1348
  650MOL0     H89694   5.789   3.697   8.515 -1.9223 -1.1559  0.4937
  650MOL0     H89695   5.648   3.775   8.591 -0.0258  0.3935  1.5342
  650MOL0     H89696   5.828   3.535   8.891  1.8992 -2.5352 -2.3296
  650MOL0     H89697   5.706   4.325   8.363  1.1489 -2.2816  2.1072
  650MOL0     H89698   5.824   4.611   8.250 -1.8028  3.0844 -3.1043
  650MOL0     H89699   5.725   4.486   8.207 -1.4971 -0.8852  1.2537
  650MOL0     H89700   5.652   4.643   8.207 -1.4293 -1.3231  0.5321
  651MOL0     O89701   0.800   2.767   8.956 -0.9354 -0.5933 -0.0839
  651MOL0     C89702   0.850   2.861   8.890 -0.0321 -0.9614  0.0750
  651MOL0     O89703   0.886   2.851   8.762 -0.7038  0.0128 -0.8839
  651MOL0     C89704   0.883   2.719   8.702 -0.3385 -0.3844 -1.1631
  651MOL0     C89705   1.001   2.646   8.720 -0.8431  0.2623 -0.6532
  651MOL0     C89706   1.000   2.509   8.688 -0.4388 -0.4567  0.4668
  651MOL0     C89707   0.887   2.450   8.629 -0.5708  0.3258  0.1879
  651MOL0     O89708   0.872   2.315   8.624 -0.0755  0.0615  0.3329
  651MOL0     C89709   0.984   2.246   8.576  0.5694  0.3452  0.4034
  651MOL0     C89710   1.007   2.267   8.428 -1.2892  0.6482  0.7511
  651MOL0     C89711   1.107   2.158   8.362 -0.0237 -0.6700  0.2891
  651MOL0     C89712   1.189   2.243   8.264 -0.8367  0.1994 -0.4440
  651MOL0     C89713   1.286   2.152   8.184  0.1564  0.4338 -0.6034
  651MOL0     C89714   1.232   2.023   8.127  0.5752  0.2348  0.2170
  651MOL0     C89715   1.123   2.041   8.024 -0.8286 -0.6949 -0.4924
  651MOL0     C89716   1.080   1.902   7.975  0.9861  1.2152  1.1805
  651MOL0     N89717   1.184   1.849   7.880  0.0194  0.2615 -0.3808
  651MOL0     C89718   1.253   1.730   7.884 -0.1933  0.7559  0.4363
  651MOL0     C89719   1.354   1.742   7.783  0.1657 -0.4068 -0.0636
  651MOL0     C89720   1.453   1.645   7.733 -0.1893 -0.4001  0.3251
  651MOL0     C89721   1.481   1.527   7.827  0.6653  0.0863 -0.3395
  651MOL0     C89722   1.569   1.426   7.744  0.9743 -0.4837 -0.5474
  651MOL0     C89723   1.640   1.320   7.834 -1.5830 -0.0717 -0.4301
  651MOL0     O89724   1.742   1.259   7.763 -0.8107 -0.2920  1.1794
  651MOL0     C89725   1.871   1.315   7.747  0.2410  0.8164  0.3933
  651MOL0     C89726   1.908   1.450   7.779  0.5975 -0.4805 -0.9397
  651MOL0     C89727   2.045   1.489   7.745 -0.0521 -0.4316 -0.8558
  651MOL0     C89728   2.082   1.639   7.744 -0.3791  0.1875 -0.7411
  651MOL0     C89729   2.142   1.395   7.708  0.4090 -0.0734 -1.0410
  651MOL0     C89730   2.274   1.442   7.664 -0.1829  0.0969  0.3126
  651MOL0     O89731   2.272   1.495   7.538  0.1852  0.4669 -0.0890
  651MOL0     C89732   2.392   1.544   7.488  0.7691 -0.5402 -0.3182
  651MOL0     C89733   2.445   1.491   7.364  0.0097 -0.2853 -0.3533
  651MOL0     C89734   2.554   1.549   7.311  0.1622  0.6166 -0.5967
  651MOL0     C89735   2.617   1.656   7.373 -0.5455 -0.1918  1.2115
  651MOL0     O89736   2.717   1.724   7.306  0.0126  0.3154 -0.1153
  651MOL0     C89737   2.837   1.750   7.389  0.1891 -0.3217  0.3339
  651MOL0     C89738   2.960   1.808   7.317  0.2915  1.0202 -0.1081
  651MOL0     C89739   3.105   1.777   7.378 -0.5439  0.9667  0.9947
  651MOL0     C89740   3.151   1.862   7.493  0.2659  0.4587 -0.0616
  651MOL0     C89741   3.286   1.804   7.535  0.1537  0.4528  0.3625
  651MOL0     C89742   3.338   1.883   7.653  0.6450  0.1475  0.5879
  651MOL0     C89743   3.490   1.881   7.665  0.3910 -0.0553 -0.3172
  651MOL0     C89744   3.532   1.983   7.764  0.3961  0.1189 -0.3176
  651MOL0    Cl89745   3.705   1.988   7.742  0.1546 -0.1768 -0.5015
  651MOL0     C89746   2.575   1.702   7.495  0.4548  0.4017  0.6244
  651MOL0     C89747   2.456   1.649   7.551  0.2567 -0.2485  0.3854
  651MOL0     O89748   2.376   1.423   7.728  0.0353 -0.3266  0.4826
  651MOL0     C89749   2.101   1.264   7.690  0.0356 -0.3454 -0.2776
  651MOL0     C89750   1.969   1.231   7.700  0.4766  0.1992 -0.8640
  651MOL0     N89751   1.315   1.852   7.705 -0.8701  0.9908  0.0698
  651MOL0     N89752   1.218   1.909   7.765 -0.2759 -0.1957  1.0733
  651MOL0     C89753   0.779   2.531   8.588 -0.1852  0.9062  0.7250
  651MOL0     C89754   0.774   2.666   8.631 -0.9017 -0.0702  0.3410
  651MOL0     C89755   0.857   2.993   8.967 -0.5264  0.2142  0.6440
  651MOL0     C89756   0.939   3.093   8.907  0.4451 -0.2659  0.8104
  651MOL0     C89757   0.942   3.231   8.954  0.6873  0.1562  0.5714
  651MOL0     C89758   0.892   3.250   9.088  0.0063 -0.7888  0.5613
  651MOL0     O89759   0.910   3.369   9.142  0.2344 -0.3623 -0.2476
  651MOL0     C89760   1.042   3.380   9.202  0.7113  0.0287  0.3084
  651MOL0     C89761   1.035   3.452   9.332  0.7056 -0.3607 -0.2955
  651MOL0     C89762   0.967   3.596   9.329 -0.2019 -0.0058  1.1913
  651MOL0     C89763   0.930   3.657   9.471 -0.3462 -0.6727 -0.8736
  651MOL0     C89764   1.039   3.643   9.574 -0.2549  0.6782 -0.0688
  651MOL0     C89765   1.135   3.655   9.647  0.4746 -0.1795  0.5065
  651MOL0     C89766   0.818   3.148   9.150  0.2340 -0.3750 -0.1085
  651MOL0     C89767   0.797   3.021   9.095 -0.9801 -0.2453  0.4478
  651MOL0     C89768   0.714   2.936   9.183  0.2072  0.9427  0.0222
  651MOL0     H89769   1.093   2.692   8.755  1.1206 -3.7409 -0.0391
  651MOL0     H89770   1.090   2.455   8.714 -0.1403  0.3895  1.2312
  651MOL0     H89771   0.963   2.142   8.599 -0.1421 -0.0762 -1.8332
  651MOL0     H89772   1.080   2.265   8.625 -0.4147  1.1550  2.0872
  651MOL0     H89773   0.906   2.263   8.385  0.5967  1.8361 -4.5636
  651MOL0     H89774   1.051   2.365   8.409  0.8994 -0.5135 -0.6540
  651MOL0     H89775   1.178   2.126   8.439  2.4813  2.5446 -0.4532
  651MOL0     H89776   1.065   2.064   8.327  0.5275 -1.1173  0.8049
  651MOL0     H89777   1.117   2.293   8.198 -2.1129 -1.0855 -0.0657
  651MOL0     H89778   1.237   2.324   8.319 -4.1944  0.7658  2.0037
  651MOL0     H89779   1.385   2.131   8.224  0.8704  0.3933 -2.3231
  651MOL0     H89780   1.304   2.227   8.107  0.0483  0.5163 -0.5484
  651MOL0     H89781   1.314   1.984   8.066  1.1481 -1.7530  2.1318
  651MOL0     H89782   1.204   1.952   8.205 -1.9629  1.5012  0.5621
  651MOL0     H89783   1.157   2.107   7.945  0.9521  1.2964  1.7803
  651MOL0     H89784   1.041   2.078   8.086  0.6862  0.0739  1.1425
  651MOL0     H89785   1.055   1.843   8.063  0.7732  1.2080  1.1156
  651MOL0     H89786   0.997   1.905   7.904 -0.3985 -4.6828  1.9989
  651MOL0     H89787   1.227   1.651   7.953  0.1542  0.2738  0.0206
  651MOL0     H89788   1.540   1.704   7.703 -0.9928  2.1830  2.7100
  651MOL0     H89789   1.418   1.607   7.636  0.5390  1.3871 -0.6728
  651MOL0     H89790   1.535   1.558   7.916 -0.4629  0.6646  0.1654
  651MOL0     H89791   1.391   1.469   7.848  0.5806  0.4068  0.2013
  651MOL0     H89792   1.511   1.372   7.669  1.5834 -2.5080  0.3595
  651MOL0     H89793   1.647   1.482   7.691 -1.7800  1.5908 -2.6780
  651MOL0     H89794   1.681   1.389   7.910  0.6999  0.5441 -2.0983
  651MOL0     H89795   1.579   1.250   7.891  0.4108 -0.5201  1.3218
  651MOL0     H89796   1.835   1.521   7.816  0.2259  0.6761 -3.6484
  651MOL0     H89797   2.119   1.668   7.843  1.4744 -1.1194 -0.9916
  651MOL0     H89798   1.994   1.696   7.713  0.3756  1.0619 -1.3357
  651MOL0     H89799   2.163   1.666   7.676  0.0165 -1.3059 -0.9040
  651MOL0     H89800   2.379   1.423   7.310  3.5368 -4.0611 -0.3684
  651MOL0     H89801   2.599   1.517   7.217 -0.6458  2.8184 -1.8033
  651MOL0     H89802   2.813   1.839   7.448  0.4139 -0.1345  0.1408
  651MOL0     H89803   2.848   1.659   7.449 -4.0993 -0.3130  1.4528
  651MOL0     H89804   2.954   1.760   7.219 -3.3326  1.2820 -0.1722
  651MOL0     H89805   2.967   1.915   7.299  2.4593  1.1945  1.4068
  651MOL0     H89806   3.166   1.815   7.295 -2.2553  1.2742 -0.1629
  651MOL0     H89807   3.124   1.669   7.378 -1.6399  0.6321 -2.7817
  651MOL0     H89808   3.079   1.862   7.575  2.0778 -1.6882  1.6659
  651MOL0     H89809   3.176   1.965   7.463  1.1141  0.4311  0.5065
  651MOL0     H89810   3.272   1.701   7.569 -1.0316 -0.3768 -2.3675
  651MOL0     H89811   3.363   1.803   7.457 -0.0945  2.0903  0.0509
  651MOL0     H89812   3.291   1.831   7.737  3.4251 -5.0701 -0.6447
  651MOL0     H89813   3.327   1.991   7.646  1.9318  0.5325  3.2888
  651MOL0     H89814   3.534   1.902   7.567  0.3934 -3.1679 -1.0815
  651MOL0     H89815   3.524   1.788   7.710 -0.2419 -0.8143 -1.3907
  651MOL0     H89816   3.513   1.959   7.870  1.4239 -0.2403 -0.1984
  651MOL0     H89817   3.489   2.079   7.737  0.7394  1.3506  2.9801
  651MOL0     H89818   2.605   1.797   7.539 -0.7650 -1.9349  7.9541
  651MOL0     H89819   2.412   1.690   7.641 -0.5552 -1.4568  0.5571
  651MOL0     H89820   2.158   1.175   7.663 -1.6259 -1.8214  0.9117
  651MOL0     H89821   1.938   1.134   7.662  1.3309 -0.3468 -0.2007
  651MOL0     H89822   0.694   2.485   8.539  0.6179  0.1170  0.0363
  651MOL0     H89823   0.689   2.731   8.614  0.0473  0.6088 -2.2096
  651MOL0     H89824   1.006   3.086   8.822  0.0836  0.7635  0.4192
  651MOL0     H89825   1.000   3.305   8.901  0.3362  0.3538  0.4640
  651MOL0     H89826   1.071   3.278   9.230 -1.5664 -0.6268  0.5053
  651MOL0     H89827   1.112   3.436   9.140  0.5510  3.6398  3.0289
  651MOL0     H89828   1.133   3.458   9.380  1.6318 -1.7711 -1.9061
  651MOL0     H89829   0.968   3.391   9.393 -0.2030  3.3523  2.8380
  651MOL0     H89830   1.033   3.660   9.271 -0.4219  0.1845  1.1488
  651MOL0     H89831   0.880   3.585   9.263  1.9805 -1.1158 -1.7042
  651MOL0     H89832   0.845   3.610   9.522 -0.2978  0.3106  0.1416
  651MOL0     H89833   0.907   3.763   9.465  0.4416 -0.5380 -1.6820
  651MOL0     H89834   1.222   3.673   9.706 -0.0424 -1.1609  1.6300
  651MOL0     H89835   0.770   3.177   9.242  1.5047 -0.8069  0.7188
  651MOL0     H89836   0.725   2.957   9.290  0.8956  0.3757  0.0660
  651MOL0     H89837   0.611   2.942   9.146  0.3949 -4.0336 -2.0608
  651MOL0     H89838   0.740   2.831   9.171  0.8267  1.2394 -1.5451
  652MOL0     O89839  10.245   7.146   9.113  0.0470  0.4432 -0.0418
  652MOL0     C89840  10.226   7.266   9.124 -1.3539  0.2387  0.6167
  652MOL0     O89841  10.226   7.328   9.248 -0.0240  0.1127 -1.0724
  652MOL0     C89842  10.238   7.238   9.352  0.2300  0.0750 -0.0112
  652MOL0     C89843  10.138   7.223   9.445  1.6549  0.8259  0.0518
  652MOL0     C89844  10.153   7.141   9.559 -0.1211  0.5003  0.4433
  652MOL0     C89845  10.282   7.085   9.585  1.2770 -0.4630  0.4208
  652MOL0     O89846  10.319   7.013   9.700  1.0533  0.0359  0.2926
  652MOL0     C89847  10.222   7.021   9.805 -0.6030 -0.3149 -0.5125
  652MOL0     C89848  10.306   7.018   9.938  0.4792 -0.1938 -0.1695
  652MOL0     C89849  10.219   7.019  10.065 -0.5181 -0.7783  0.9451
  652MOL0     C89850  10.300   6.976  10.183  0.4724 -0.5848  0.4066
  652MOL0     C89851  10.207   6.927  10.299 -0.2475 -0.2425 -0.6782
  652MOL0     C89852  10.286   6.856  10.404 -0.6618  0.7627 -1.2777
  652MOL0     C89853  10.404   6.941  10.457 -0.3397  1.1282 -0.2858
  652MOL0     C89854  10.458   6.881  10.583 -0.0934 -0.4087 -0.0164
  652MOL0     N89855  10.554   6.973  10.657 -0.2443  0.3082  0.3520
  652MOL0     C89856  10.641   6.928  10.745  0.4015 -0.3259  0.2496
  652MOL0     C89857  10.683   7.035  10.812  0.2444 -1.1080 -0.0884
  652MOL0     C89858  10.785   7.054  10.917  0.8519  0.1884 -0.0882
  652MOL0     C89859  10.736   7.137  11.037  1.0521  0.2096  0.4105
  652MOL0     C89860  10.833   7.134  11.159 -0.6838  0.4300 -0.2058
  652MOL0     C89861  10.770   7.212  11.274  0.2232 -0.1039 -0.7986
  652MOL0     O89862  10.868   7.239  11.381  0.4845  0.2557  0.7825
  652MOL0     C89863  10.910   7.124  11.453 -0.8096  0.3802 -0.5557
  652MOL0     C89864  11.015   7.151  11.543  0.6906 -1.1507  0.2548
  652MOL0     C89865  11.054   7.058  11.628 -0.4071  0.2013 -0.0857
  652MOL0     C89866  11.169   7.107  11.714  0.2356  0.7471  0.5388
  652MOL0     C89867  10.991   6.926  11.627 -0.1770 -0.4295  0.5282
  652MOL0     C89868  11.048   6.806  11.696  1.0972  1.0141 -0.9260
  652MOL0     O89869  10.939   6.718  11.747  0.1214 -0.1229 -0.3621
  652MOL0     C89870  10.956   6.631  11.852  0.6196  0.3290  0.5379
  652MOL0     C89871  10.857   6.529  11.875  0.1183 -0.3510  0.1853
  652MOL0     C89872  10.874   6.434  11.974 -0.3187  1.1920 -0.2483
  652MOL0     C89873  10.995   6.430  12.047  0.4912 -0.2668 -0.4300
  652MOL0     O89874  11.012   6.311  12.113  0.6849  0.5338 -0.1196
  652MOL0     C89875  10.932   6.298  12.226  0.1050  0.1483 -0.2899
  652MOL0     C89876  10.984   6.379  12.355  0.6460 -0.1166  0.2701
  652MOL0     C89877  10.887   6.380  12.474  0.0394 -0.2650  0.8129
  652MOL0     C89878  10.904   6.254  12.552 -0.0218  0.3359  0.2554
  652MOL0     C89879  10.857   6.256  12.700  0.2847 -0.4051  0.7510
  652MOL0     C89880  10.905   6.129  12.755 -0.1585  0.6160 -0.3436
  652MOL0     C89881  10.877   6.112  12.904 -0.2914  0.2460  0.1463
  652MOL0     C89882  10.960   6.010  12.968  0.6147 -0.2620 -1.0759
  652MOL0    Cl89883  10.912   5.996  13.137  0.3562 -0.4214 -0.2209
  652MOL0     C89884  11.092   6.527  12.028  0.1102 -0.3861 -0.5420
  652MOL0     C89885  11.073   6.621  11.932  0.4739 -0.1950 -0.1158
  652MOL0     O89886  11.165   6.800  11.723 -0.3515  0.0100  0.4519
  652MOL0     C89887  10.886   6.903  11.544 -0.1833 -0.6852  0.5301
  652MOL0     C89888  10.855   7.000  11.452  0.6060  0.4493  0.4718
  652MOL0     N89889  10.621   7.150  10.764  0.0029  0.4856 -1.1407
  652MOL0     N89890  10.544   7.106  10.671  0.4168 -0.0398  0.4239
  652MOL0     C89891  10.382   7.114   9.497  0.1543  0.0405 -0.0867
  652MOL0     C89892  10.365   7.182   9.385 -0.8383 -0.7111  0.4135
  652MOL0     C89893  10.196   7.356   9.009 -0.5739  0.5237  0.4571
  652MOL0     C89894  10.107   7.463   9.023  0.6479  0.1244  0.3819
  652MOL0     C89895  10.075   7.538   8.914  0.0829  0.0579  0.2179
  652MOL0     C89896  10.118   7.523   8.785  0.5111  0.1524  0.4470
  652MOL0     O89897  10.075   7.591   8.676 -0.1994 -0.2970  0.7303
  652MOL0     C89898  10.068   7.731   8.702 -0.1661  0.1283  0.8375
  652MOL0     C89899  10.051   7.805   8.574  0.2302  0.2956  0.3601
  652MOL0     C89900   9.905   7.793   8.509 -1.2619 -0.6674  0.0612
  652MOL0     C89901   9.898   7.875   8.382  0.4607  0.8140  0.4496
  652MOL0     C89902   9.895   8.022   8.411 -0.5020 -0.1968  0.1328
  652MOL0     C89903   9.918   8.140   8.428 -0.2615  1.5903  0.2554
  652MOL0     C89904  10.211   7.415   8.776  0.6631 -1.0138  0.2789
  652MOL0     C89905  10.249   7.327   8.878  0.2942  0.1003 -0.1833
  652MOL0     C89906  10.332   7.211   8.830  0.4496 -0.0348 -0.3209
  652MOL0     H89907  10.042   7.268   9.419 -1.1036 -2.7551  2.9005
  652MOL0     H89908  10.067   7.135   9.625 -1.5696  0.2911 -1.3911
  652MOL0     H89909  10.153   6.937   9.796  0.4023 -1.3033  0.7122
  652MOL0     H89910  10.164   7.114   9.808 -0.8633 -0.5052  0.9419
  652MOL0     H89911  10.345   6.916   9.943  0.8883 -0.0785 -0.8180
  652MOL0     H89912  10.383   7.095   9.930  0.0649  0.4732  1.8708
  652MOL0     H89913  10.172   7.113  10.094 -0.0895 -0.1860 -0.2256
  652MOL0     H89914  10.138   6.949  10.040  0.7468 -1.2468 -2.4290
  652MOL0     H89915  10.365   6.894  10.153 -0.8484 -0.7834 -2.2292
  652MOL0     H89916  10.358   7.062  10.219 -1.4644  1.1260 -0.3704
  652MOL0     H89917  10.127   6.858  10.270 -1.4408  1.1984 -0.9697
  652MOL0     H89918  10.153   7.006  10.353  1.3975 -0.7454  1.8841
  652MOL0     H89919  10.221   6.812  10.481  1.8054 -6.6319 -2.6157
  652MOL0     H89920  10.333   6.768  10.358 -0.1376  1.1666 -1.5197
  652MOL0     H89921  10.381   7.046  10.474  3.5506  1.8203  1.9211
  652MOL0     H89922  10.490   6.949  10.389  1.5693  0.8314  1.9413
  652MOL0     H89923  10.378   6.853  10.652  1.0412 -0.1095  1.4796
  652MOL0     H89924  10.513   6.789  10.561  1.2506 -0.6484  3.6243
  652MOL0     H89925  10.683   6.829  10.760 -1.3748 -1.0004  1.0471
  652MOL0     H89926  10.869   7.112  10.877  1.4399 -0.4796  0.1679
  652MOL0     H89927  10.816   6.953  10.944  0.9180  0.4118  0.7091
  652MOL0     H89928  10.718   7.237  10.997  4.0503  1.2441  1.3931
  652MOL0     H89929  10.641   7.091  11.065  1.7412 -1.9153 -0.4587
  652MOL0     H89930  10.832   7.027  11.182 -1.8579 -0.0491 -2.2580
  652MOL0     H89931  10.934   7.171  11.137 -1.3922  2.6485  0.0831
  652MOL0     H89932  10.739   7.309  11.233 -0.9564 -0.6920 -1.3464
  652MOL0     H89933  10.673   7.170  11.302  1.1003 -2.0193 -0.4613
  652MOL0     H89934  11.048   7.254  11.544 -2.0570 -0.1990  0.3754
  652MOL0     H89935  11.176   7.044  11.803  0.1872  0.0184  0.0346
  652MOL0     H89936  11.170   7.211  11.748  6.2932  0.5974  2.0186
  652MOL0     H89937  11.269   7.102  11.669  0.0497 -0.6327  0.2307
  652MOL0     H89938  10.769   6.527  11.812 -1.8878 -2.3642  2.8007
  652MOL0     H89939  10.802   6.352  11.979 -0.5899  1.4801  0.7672
  652MOL0     H89940  10.827   6.314  12.198  1.0274  1.2081 -3.5733
  652MOL0     H89941  10.930   6.191  12.248 -0.0702  1.0317  5.8368
  652MOL0     H89942  11.083   6.363  12.398  1.2671  0.2127 -0.9954
  652MOL0     H89943  11.002   6.481  12.319 -0.7577  0.1408  0.2506
  652MOL0     H89944  10.787   6.409  12.442  1.0513  2.4002 -0.2710
  652MOL0     H89945  10.907   6.464  12.541  0.5603 -0.8538  1.4116
  652MOL0     H89946  11.012   6.238  12.545  1.2102  6.6049 -1.5137
  652MOL0     H89947  10.858   6.172  12.497  5.2538 -2.2523 -0.8761
  652MOL0     H89948  10.904   6.343  12.748 -1.5352  0.9403  0.1757
  652MOL0     H89949  10.748   6.263  12.706  0.1352 -1.4898 -0.3119
  652MOL0     H89950  11.013   6.123  12.743 -0.0439 -5.7900  0.3143
  652MOL0     H89951  10.874   6.037  12.704  3.1339 -2.8813  3.2983
  652MOL0     H89952  10.774   6.076  12.906 -0.6214  1.1369 -0.0454
  652MOL0     H89953  10.888   6.204  12.963 -0.5607 -0.1945  0.8938
  652MOL0     H89954  11.067   6.028  12.959  0.9415 -0.8535  1.2215
  652MOL0     H89955  10.947   5.913  12.918 -3.5356 -0.2144 -0.4627
  652MOL0     H89956  11.180   6.529  12.091 -0.1967  0.5936 -0.1271
  652MOL0     H89957  11.147   6.700  11.927 -0.3355  0.6524  0.8894
  652MOL0     H89958  10.827   6.812  11.545 -2.9822  0.9917  1.9004
  652MOL0     H89959  10.768   6.984  11.390 -0.0111  4.4320  0.0737
  652MOL0     H89960  10.480   7.077   9.528 -0.3545 -2.2748 -1.0685
  652MOL0     H89961  10.447   7.193   9.316  0.5553 -4.1153  1.3063
  652MOL0     H89962  10.069   7.499   9.117  0.1607 -2.1573  1.1082
  652MOL0     H89963  10.010   7.624   8.929  0.6145  0.4522  0.2637
  652MOL0     H89964   9.989   7.766   8.770  0.9574  1.2964  1.5854
  652MOL0     H89965  10.158   7.773   8.747  0.2550  0.5085 -0.3161
  652MOL0     H89966  10.132   7.770   8.509  1.2986 -1.1774  2.3965
  652MOL0     H89967  10.085   7.909   8.583  1.1136  0.0652 -0.1798
  652MOL0     H89968   9.880   7.687   8.499  0.1264 -1.0933  0.9242
  652MOL0     H89969   9.842   7.829   8.591 -0.0412 -1.3132  1.3325
  652MOL0     H89970   9.806   7.848   8.329  0.7792 -0.1895  0.3704
  652MOL0     H89971   9.980   7.874   8.310 -0.7843  4.1927 -1.2320
  652MOL0     H89972   9.919   8.247   8.438  0.3024  1.6034  0.1024
  652MOL0     H89973  10.242   7.384   8.677 -0.7522 -1.6656  0.0091
  652MOL0     H89974  10.403   7.190   8.911  0.2455 -1.6918 -0.5493
  652MOL0     H89975  10.264   7.129   8.808 -1.7114  0.1103  4.5398
  652MOL0     H89976  10.386   7.237   8.738  0.8409 -2.1983 -0.7539
  653MOL0     O89977   1.218   4.888   3.336 -0.4558  0.5015 -0.2105
  653MOL0     C89978   1.125   4.829   3.290  0.6814 -0.0387  0.1744
  653MOL0     O89979   1.107   4.691   3.301 -0.2866 -0.6711  0.1860
  653MOL0     C89980   1.218   4.601   3.315 -0.5957  0.7825 -0.3420
  653MOL0     C89981   1.266   4.556   3.439 -0.1504  0.8595 -0.1233
  653MOL0     C89982   1.376   4.462   3.440 -0.4288 -0.5761  0.1031
  653MOL0     C89983   1.443   4.423   3.327 -0.8455  0.1085 -0.3316
  653MOL0     O89984   1.545   4.334   3.323  0.1979  0.0140 -0.3606
  653MOL0     C89985   1.585   4.280   3.452  0.9294  0.3550  0.9178
  653MOL0     C89986   1.694   4.181   3.436  0.1451 -0.2716  0.8210
  653MOL0     C89987   1.712   4.117   3.575 -1.2711 -1.1236 -0.2670
  653MOL0     C89988   1.775   3.979   3.553  0.5363 -0.4136  0.9978
  653MOL0     C89989   1.813   3.910   3.681 -0.5274  0.2811  0.2460
  653MOL0     C89990   1.836   3.764   3.665  0.3390  0.0072 -0.6625
  653MOL0     C89991   1.957   3.726   3.581  0.3881 -0.2196 -0.5479
  653MOL0     C89992   1.903   3.677   3.445 -0.1680 -0.1629  0.2562
  653MOL0     N89993   2.002   3.629   3.337 -0.6768  0.9785 -0.3982
  653MOL0     C89994   2.012   3.494   3.309 -0.5132 -0.4710 -0.8787
  653MOL0     C89995   2.140   3.487   3.255 -0.4023 -0.3473 -0.0357
  653MOL0     C89996   2.202   3.354   3.216 -0.6077  0.5433  0.0794
  653MOL0     C89997   2.165   3.335   3.070  0.3829 -0.6253 -1.0499
  653MOL0     C89998   2.158   3.190   3.018 -0.0714  0.0218 -0.3253
  653MOL0     C89999   2.296   3.123   3.029 -0.1902 -0.1373  0.7148
  653MOL0     O90000   2.314   3.054   2.903 -0.4398 -0.4124 -0.3730
  653MOL0     C90001   2.384   2.938   2.901  0.0043  0.5782  0.5934
  653MOL0     C90002   2.374   2.866   2.779  0.3422  0.0652 -0.7515
  653MOL0     C90003   2.435   2.741   2.758  0.6049  0.5847 -0.3987
  653MOL0     C90004   2.435   2.679   2.620  0.7742 -0.7137  0.0006
  653MOL0     C90005   2.509   2.687   2.865 -0.4784  1.4746  0.0429
  653MOL0     C90006   2.556   2.546   2.860 -0.2557 -0.1839  0.7565
  653MOL0     O90007   2.686   2.524   2.907 -0.3807  0.4403 -0.4313
  653MOL0     C90008   2.743   2.404   2.889 -0.2658 -0.2362  0.4832
  653MOL0     C90009   2.729   2.302   2.978 -0.4143 -0.3360 -0.5089
  653MOL0     C90010   2.776   2.169   2.949  1.0778  0.1001 -1.0903
  653MOL0     C90011   2.839   2.152   2.825 -0.8419 -0.2915  0.1850
  653MOL0     O90012   2.894   2.033   2.788 -0.5904 -0.1258  0.0929
  653MOL0     C90013   2.932   1.932   2.878 -0.8832  0.3363  0.4282
  653MOL0     C90014   2.990   1.802   2.817 -0.0313 -0.5915 -0.1870
  653MOL0     C90015   2.903   1.739   2.703  0.0031 -0.5072  0.5676
  653MOL0     C90016   2.987   1.708   2.574 -0.4323 -1.0007  0.3757
  653MOL0     C90017   2.893   1.705   2.460  0.2382  0.1392 -0.3624
  653MOL0     C90018   2.909   1.822   2.359 -0.1544  0.2015 -0.4163
  653MOL0     C90019   2.902   1.962   2.417  0.0280  0.2444  0.6316
  653MOL0     C90020   3.019   2.043   2.363 -1.2620  0.6529 -0.5339
  653MOL0    Cl90021   3.003   2.204   2.424  0.1817  0.3567 -0.2588
  653MOL0     C90022   2.845   2.256   2.731  0.7582 -0.3908 -0.5536
  653MOL0     C90023   2.807   2.381   2.766 -0.2272  0.3990 -0.3894
  653MOL0     O90024   2.479   2.464   2.807  0.3597 -0.3808 -0.5480
  653MOL0     C90025   2.519   2.753   2.986 -1.1405  0.3415  0.1755
  653MOL0     C90026   2.455   2.877   3.011 -0.4661 -0.0403  0.4045
  653MOL0     N90027   2.199   3.606   3.257  0.2362 -0.0951 -0.2353
  653MOL0     N90028   2.117   3.689   3.304  0.0561 -0.2695  0.3481
  653MOL0     C90029   1.397   4.477   3.205  0.5332 -0.5323  0.3786
  653MOL0     C90030   1.288   4.565   3.203  0.8780 -0.7368 -1.4022
  653MOL0     C90031   1.023   4.910   3.217  0.2005 -0.0712  1.3475
  653MOL0     C90032   1.049   5.047   3.210  0.3443 -1.4022  0.8531
  653MOL0     C90033   0.962   5.124   3.129 -0.1367 -0.0184  0.0113
  653MOL0     C90034   0.849   5.071   3.060 -1.4848  0.0828 -0.1389
  653MOL0     O90035   0.775   5.145   2.966  0.5299  0.3619  0.4461
  653MOL0     C90036   0.836   5.268   2.926 -1.4917  0.9417  0.4290
  653MOL0     C90037   0.748   5.349   2.838  0.7547 -0.7303 -0.0519
  653MOL0     C90038   0.721   5.285   2.701 -0.6878  0.9984  0.9872
  653MOL0     C90039   0.660   5.139   2.694 -0.3840  0.6346  0.2243
  653MOL0     C90040   0.621   5.100   2.552 -0.0312  0.8702 -0.5433
  653MOL0     C90041   0.583   5.093   2.436  0.4745 -0.1678 -0.1092
  653MOL0     C90042   0.815   4.937   3.075 -1.0957  0.2231 -0.0080
  653MOL0     C90043   0.905   4.855   3.156  0.6075 -0.1980 -0.2028
  653MOL0     C90044   0.868   4.711   3.168 -0.2914 -0.2141  0.5727
  653MOL0     H90045   1.218   4.584   3.532  3.0353  4.0988  0.7869
  653MOL0     H90046   1.403   4.431   3.541  0.8473 -1.2654 -0.4282
  653MOL0     H90047   1.503   4.222   3.495  1.2013 -1.1672 -0.5217
  653MOL0     H90048   1.613   4.354   3.527 -1.7224 -0.3341  2.7343
  653MOL0     H90049   1.661   4.102   3.369  2.8860  0.7710 -2.0104
  653MOL0     H90050   1.790   4.222   3.401 -1.1904  1.7136 -0.7375
  653MOL0     H90051   1.778   4.182   3.632 -1.5462 -0.7596 -0.3635
  653MOL0     H90052   1.615   4.105   3.625 -0.3044  1.2439  2.4167
  653MOL0     H90053   1.694   3.921   3.508 -0.3223  0.8173  0.9175
  653MOL0     H90054   1.859   3.975   3.483  1.0122  1.9556  1.3507
  653MOL0     H90055   1.731   3.928   3.751 -0.4363  2.5121 -0.1535
  653MOL0     H90056   1.901   3.951   3.731 -0.9176 -2.6989  3.8078
  653MOL0     H90057   1.852   3.727   3.767  0.9112 -0.7768 -1.0246
  653MOL0     H90058   1.746   3.708   3.637  0.9013 -1.2082 -0.1311
  653MOL0     H90059   2.014   3.648   3.633 -1.1674 -0.6032  0.6768
  653MOL0     H90060   2.023   3.811   3.562 -1.5730  1.2404 -1.1690
  653MOL0     H90061   1.849   3.585   3.469 -0.9746  0.1134 -0.4505
  653MOL0     H90062   1.835   3.751   3.403  2.9719  2.4962 -0.5644
  653MOL0     H90063   1.942   3.412   3.321 -0.7548  0.1234  3.0227
  653MOL0     H90064   2.165   3.276   3.283  0.1704  0.8268  0.8549
  653MOL0     H90065   2.311   3.354   3.223 -0.3378 -2.7303 -2.1578
  653MOL0     H90066   2.073   3.391   3.049  1.5265  1.5098 -0.7241
  653MOL0     H90067   2.244   3.386   3.014  1.3858 -0.8107  0.1669
  653MOL0     H90068   2.080   3.133   3.070 -0.7553  1.9077  0.8059
  653MOL0     H90069   2.120   3.205   2.917 -3.1842 -2.3715  0.3232
  653MOL0     H90070   2.381   3.190   3.044  1.2945 -1.5711 -0.8150
  653MOL0     H90071   2.310   3.069   3.122 -0.5957 -0.9578  0.3071
  653MOL0     H90072   2.317   2.910   2.698  0.0202 -1.9476 -1.6977
  653MOL0     H90073   2.513   2.725   2.559  1.6517 -3.0405 -0.7485
  653MOL0     H90074   2.339   2.706   2.576  2.4722  3.8049 -1.3841
  653MOL0     H90075   2.443   2.571   2.604 -0.7853 -0.5512 -2.3154
  653MOL0     H90076   2.680   2.312   3.074  1.1745 -1.3356  0.4632
  653MOL0     H90077   2.765   2.087   3.019 -2.4307 -0.0377 -1.6349
  653MOL0     H90078   3.006   1.980   2.942  2.0613 -0.1091 -2.4051
  653MOL0     H90079   2.848   1.899   2.940  0.1977 -1.1281  1.1733
  653MOL0     H90080   3.088   1.836   2.783  0.1432  1.1167  1.8580
  653MOL0     H90081   2.997   1.731   2.900  0.8079 -0.4190 -0.1092
  653MOL0     H90082   2.814   1.794   2.669  0.6502 -0.5098 -1.2856
  653MOL0     H90083   2.876   1.637   2.731  1.9813 -1.3899 -0.5170
  653MOL0     H90084   3.032   1.608   2.585 -1.5197 -1.4424  1.0008
  653MOL0     H90085   3.067   1.781   2.561 -0.5371 -1.0485 -0.5986
  653MOL0     H90086   2.914   1.617   2.398  0.9481 -0.2217  0.3800
  653MOL0     H90087   2.788   1.693   2.487  0.3968  2.2217  1.4351
  653MOL0     H90088   2.843   1.817   2.272 -1.4729  0.9576  0.5075
  653MOL0     H90089   3.008   1.795   2.320 -0.5619  0.7384 -1.8859
  653MOL0     H90090   2.912   1.957   2.526 -2.0990  2.8296  1.0603
  653MOL0     H90091   2.808   2.017   2.401  0.7085  1.8243  1.7460
  653MOL0     H90092   3.019   2.046   2.253  1.1023 -0.9001 -0.6559
  653MOL0     H90093   3.113   1.999   2.396 -2.1847  0.1882  1.6078
  653MOL0     H90094   2.891   2.233   2.636  0.3925 -2.8559 -0.1862
  653MOL0     H90095   2.819   2.462   2.694 -0.2302 -0.6761 -1.6297
  653MOL0     H90096   2.568   2.702   3.068  1.6889  0.2650 -1.4202
  653MOL0     H90097   2.477   2.922   3.107 -1.3352  1.0821  0.0972
  653MOL0     H90098   1.441   4.456   3.108 -2.6414 -1.5278 -0.9692
  653MOL0     H90099   1.245   4.591   3.107  1.1752 -1.7175 -1.8158
  653MOL0     H90100   1.143   5.084   3.252  1.4441 -0.3504 -2.2217
  653MOL0     H90101   0.999   5.225   3.113  2.4871 -0.7445  0.9918
  653MOL0     H90102   0.842   5.329   3.016 -0.0351  1.4955 -0.0253
  653MOL0     H90103   0.934   5.248   2.882 -1.0105  2.2778  0.8665
  653MOL0     H90104   0.803   5.443   2.830  2.0964 -1.4546  0.2816
  653MOL0     H90105   0.656   5.363   2.895  1.7380 -0.6660  1.5802
  653MOL0     H90106   0.654   5.344   2.637 -4.9400 -3.0959  1.0959
  653MOL0     H90107   0.816   5.283   2.647 -1.2287  1.6190 -0.0304
  653MOL0     H90108   0.570   5.122   2.754 -0.3442 -1.9117 -0.3431
  653MOL0     H90109   0.736   5.069   2.730  0.1316  1.4898  0.8430
  653MOL0     H90110   0.531   5.070   2.345  1.8232  0.7261 -1.1437
  653MOL0     H90111   0.723   4.902   3.030 -0.9247  0.6615 -0.7049
  653MOL0     H90112   0.925   4.653   3.096 -0.5809  1.8743 -1.4452
  653MOL0     H90113   0.883   4.673   3.270  3.7748 -1.3547 -0.2473
  653MOL0     H90114   0.766   4.698   3.132 -1.3037  0.3781  3.0354
  654MOL0     O90115   6.055   0.857   2.461 -0.8554  0.7692 -0.0304
  654MOL0     C90116   5.960   0.830   2.533 -0.1417  0.0315 -0.6987
  654MOL0     O90117   5.843   0.778   2.490  0.8620  0.5522  0.2778
  654MOL0     C90118   5.809   0.777   2.354  0.8863 -1.0518  0.1123
  654MOL0     C90119   5.775   0.898   2.285  0.2820  1.4152 -0.4674
  654MOL0     C90120   5.739   0.896   2.151  0.8297  0.2305  0.3376
  654MOL0     C90121   5.726   0.777   2.083  0.4674  0.9508 -0.2158
  654MOL0     O90122   5.685   0.773   1.958  0.2558  0.4240 -0.3863
  654MOL0     C90123   5.545   0.767   1.930  1.2508  1.0880  0.3646
  654MOL0     C90124   5.531   0.847   1.799  1.0077 -0.3528  0.0139
  654MOL0     C90125   5.388   0.850   1.728 -0.0348  0.9197  0.1891
  654MOL0     C90126   5.377   0.935   1.605  0.5212 -0.4747  1.0562
  654MOL0     C90127   5.328   1.075   1.619  0.3657 -0.2435  0.0966
  654MOL0     C90128   5.306   1.135   1.485  0.3394  0.1555 -0.0661
  654MOL0     C90129   5.261   1.282   1.480  0.1187 -0.6701 -0.2837
  654MOL0     C90130   5.227   1.338   1.343 -0.7911 -0.8468 -0.1478
  654MOL0     N90131   5.345   1.344   1.260  0.2316  0.6267  0.4165
  654MOL0     C90132   5.429   1.447   1.264 -0.8904 -0.1244 -0.4003
  654MOL0     C90133   5.520   1.416   1.167 -0.5935 -0.3907 -0.1806
  654MOL0     C90134   5.623   1.508   1.108  0.4916 -0.1368  0.8570
  654MOL0     C90135   5.767   1.464   1.158 -0.2572 -0.7687  0.2218
  654MOL0     C90136   5.860   1.589   1.121  0.5951  0.1379 -0.5235
  654MOL0     C90137   5.984   1.613   1.214  0.6917 -0.0882 -0.3513
  654MOL0     O90138   5.917   1.646   1.342  0.7580  0.5531  0.3071
  654MOL0     C90139   6.000   1.642   1.459 -0.2320  0.7520  0.1054
  654MOL0     C90140   6.044   1.753   1.527  0.8765 -0.3707  0.0794
  654MOL0     C90141   6.113   1.751   1.650  0.3183  0.0047 -0.7127
  654MOL0     C90142   6.156   1.884   1.715 -0.6823 -0.6269 -0.3479
  654MOL0     C90143   6.157   1.619   1.693 -0.4619 -0.4023 -0.4232
  654MOL0     C90144   6.238   1.605   1.818 -0.5184  0.4487  0.9270
  654MOL0     O90145   6.354   1.538   1.796  0.9248  0.4082  0.6286
  654MOL0     C90146   6.412   1.499   1.914 -1.0309  0.1400  0.4102
  654MOL0     C90147   6.458   1.590   2.003 -0.1079  0.2821  0.4324
  654MOL0     C90148   6.494   1.542   2.128 -0.4171 -1.3372 -0.9262
  654MOL0     C90149   6.467   1.408   2.168 -1.3770  0.3752  0.4683
  654MOL0     O90150   6.501   1.391   2.297 -0.2959 -0.4256 -0.6372
  654MOL0     C90151   6.500   1.250   2.335 -0.7677  0.1465 -1.0232
  654MOL0     C90152   6.634   1.185   2.291 -1.1317 -0.7981  0.9639
  654MOL0     C90153   6.762   1.242   2.351  0.4574  0.3803  0.1069
  654MOL0     C90154   6.791   1.182   2.477 -0.7968  0.5039 -1.0218
  654MOL0     C90155   6.837   1.030   2.464  0.4603 -0.6677 -0.4366
  654MOL0     C90156   6.907   0.982   2.337  0.8861 -0.3175 -0.1653
  654MOL0     C90157   6.957   0.840   2.352  0.8920  0.1928 -0.1168
  654MOL0     C90158   7.034   0.782   2.240 -0.2804 -1.2477 -0.3724
  654MOL0    Cl90159   7.157   0.675   2.321  0.4996  0.1714  0.3665
  654MOL0     C90160   6.426   1.314   2.066  0.8645 -0.5792 -0.4293
  654MOL0     C90161   6.395   1.369   1.941  0.4320 -0.4359  0.7681
  654MOL0     O90162   6.186   1.621   1.923 -1.0166 -0.5446 -1.1703
  654MOL0     C90163   6.129   1.509   1.616 -0.6410  0.7193  0.6175
  654MOL0     C90164   6.053   1.518   1.499 -0.9292 -0.4671 -0.1759
  654MOL0     N90165   5.498   1.292   1.118 -0.2975  0.1797  0.3970
  654MOL0     N90166   5.393   1.242   1.179  0.1445 -0.6534  0.1579
  654MOL0     C90167   5.738   0.665   2.154 -0.4461 -0.4658 -0.4350
  654MOL0     C90168   5.786   0.656   2.281  1.0826 -0.4289 -1.4260
  654MOL0     C90169   5.990   0.860   2.673 -0.3826 -0.2103 -1.2983
  654MOL0     C90170   6.129   0.865   2.716 -0.3490  0.1567 -0.3587
  654MOL0     C90171   6.162   0.912   2.840  0.1598 -1.0157 -0.4645
  654MOL0     C90172   6.061   0.955   2.938 -1.0478 -0.2975 -0.0373
  654MOL0     O90173   6.081   0.998   3.068 -0.0109  0.7043  0.0263
  654MOL0     C90174   6.217   0.979   3.107  1.0087 -0.0912 -0.4391
  654MOL0     C90175   6.244   1.020   3.255  0.0486 -0.3471  0.0976
  654MOL0     C90176   6.396   0.984   3.271 -0.3230  0.4402  0.8464
  654MOL0     C90177   6.418   0.915   3.405 -0.8668 -0.3082  0.1075
  654MOL0     C90178   6.555   0.855   3.408 -0.0767  1.0698  0.3428
  654MOL0     C90179   6.665   0.812   3.417 -0.7101  1.1273 -0.4657
  654MOL0     C90180   5.931   0.950   2.895 -0.1334  0.2808 -0.2910
  654MOL0     C90181   5.890   0.904   2.763  0.3005 -0.8785  0.6297
  654MOL0     C90182   5.740   0.910   2.732  0.4670 -0.0815 -0.3315
  654MOL0     H90183   5.771   0.993   2.337 -4.0174  0.6930  0.9374
  654MOL0     H90184   5.721   0.992   2.103  0.5448 -0.5376 -1.1550
  654MOL0     H90185   5.468   0.801   1.999 -0.4001 -2.0240  0.2465
  654MOL0     H90186   5.508   0.666   1.912  0.5249  1.5748 -1.0329
  654MOL0     H90187   5.562   0.952   1.806  1.3908 -0.4084 -0.6919
  654MOL0     H90188   5.601   0.822   1.718  0.4919  1.6560 -1.1359
  654MOL0     H90189   5.350   0.750   1.702  3.2444 -1.1626  2.4883
  654MOL0     H90190   5.314   0.888   1.799 -0.9239  1.6224 -1.0983
  654MOL0     H90191   5.475   0.952   1.560 -0.0045  0.0807  0.0791
  654MOL0     H90192   5.313   0.890   1.528  0.1323  0.4489  0.8303
  654MOL0     H90193   5.385   1.137   1.688 -1.6689  4.8784 -2.3096
  654MOL0     H90194   5.225   1.083   1.657 -0.0589  0.4359 -1.1421
  654MOL0     H90195   5.398   1.129   1.426 -1.5699  0.9187 -3.3798
  654MOL0     H90196   5.245   1.068   1.423  1.3855 -3.6308  2.6379
  654MOL0     H90197   5.337   1.341   1.532  0.9298 -3.4144  1.9051
  654MOL0     H90198   5.176   1.305   1.544  1.2582 -1.2548  1.5361
  654MOL0     H90199   5.155   1.273   1.292  0.3865 -2.0838 -0.2897
  654MOL0     H90200   5.187   1.440   1.347  1.4819  0.0903  0.4179
  654MOL0     H90201   5.436   1.545   1.310 -1.8702 -0.2129 -0.0204
  654MOL0     H90202   5.604   1.608   1.150 -0.5899  1.7535 -3.5758
  654MOL0     H90203   5.613   1.519   1.000 -0.0059  0.0152  0.9132
  654MOL0     H90204   5.758   1.432   1.262 -0.6063 -1.3482  0.0149
  654MOL0     H90205   5.820   1.390   1.097  2.4468 -0.7416  2.3701
  654MOL0     H90206   5.909   1.592   1.023  0.2908 -1.0618 -0.7251
  654MOL0     H90207   5.800   1.681   1.128  0.6791  0.1026  0.9793
  654MOL0     H90208   6.044   1.521   1.217  1.1740  0.0822 -2.8994
  654MOL0     H90209   6.040   1.704   1.194 -0.4578  1.7643  3.7671
  654MOL0     H90210   6.025   1.845   1.472  0.7499 -0.7408 -0.5036
  654MOL0     H90211   6.148   1.962   1.639  0.7598  0.3918  0.4883
  654MOL0     H90212   6.256   1.872   1.756 -0.5778 -0.1355 -0.4540
  654MOL0     H90213   6.099   1.903   1.808 -3.1485 -1.1956 -1.6528
  654MOL0     H90214   6.446   1.697   1.994  0.9692  0.5231  1.5851
  654MOL0     H90215   6.535   1.613   2.199 -0.5238  0.9699 -3.0605
  654MOL0     H90216   6.495   1.246   2.444 -0.3104  3.5652 -0.7489
  654MOL0     H90217   6.420   1.183   2.305 -1.7183  0.7877  0.0070
  654MOL0     H90218   6.625   1.076   2.297 -0.9572 -0.9160 -0.4942
  654MOL0     H90219   6.646   1.207   2.185  1.6648  1.0215  1.5430
  654MOL0     H90220   6.755   1.350   2.361  1.2065  0.3210  1.5729
  654MOL0     H90221   6.840   1.225   2.277  1.5684 -0.1070  1.3470
  654MOL0     H90222   6.711   1.191   2.551  1.3856 -0.4250  1.6379
  654MOL0     H90223   6.878   1.232   2.522 -0.7446 -0.3327 -0.1438
  654MOL0     H90224   6.893   1.009   2.556  0.8752  3.9652  0.6124
  654MOL0     H90225   6.742   0.976   2.470 -0.1612  0.4496  4.7600
  654MOL0     H90226   6.991   1.051   2.333  1.6457 -1.0513  1.7973
  654MOL0     H90227   6.844   0.993   2.248  0.3892  2.2646  0.4320
  654MOL0     H90228   6.870   0.773   2.355  0.1740  1.1284  0.3720
  654MOL0     H90229   6.997   0.837   2.454 -0.6743 -3.9592  0.6044
  654MOL0     H90230   7.086   0.855   2.177 -2.4376 -0.5758 -1.5117
  654MOL0     H90231   6.967   0.722   2.177  0.8445 -1.9606 -0.9206
  654MOL0     H90232   6.406   1.208   2.080 -0.8649 -0.7484 -3.2120
  654MOL0     H90233   6.333   1.314   1.872 -0.1802  2.2967 -0.9877
  654MOL0     H90234   6.176   1.417   1.650  1.6520  1.7968  0.4981
  654MOL0     H90235   6.056   1.431   1.433 -0.7401 -0.6639  0.0880
  654MOL0     H90236   5.723   0.576   2.094 -0.3908 -1.7156  1.3318
  654MOL0     H90237   5.796   0.567   2.343 -1.7881  1.2884  1.8884
  654MOL0     H90238   6.211   0.835   2.652 -0.1786 -2.4372  0.9403
  654MOL0     H90239   6.264   0.941   2.865 -0.0149 -2.2022  1.8738
  654MOL0     H90240   6.249   0.877   3.087  1.1129 -0.2105  0.3342
  654MOL0     H90241   6.272   1.049   3.043 -1.0019  1.0910 -0.9887
  654MOL0     H90242   6.186   0.966   3.331  2.2862  1.4425  3.3039
  654MOL0     H90243   6.219   1.126   3.260  1.6345  0.3508 -3.4728
  654MOL0     H90244   6.435   0.925   3.187 -0.4002  4.1432 -2.0777
  654MOL0     H90245   6.447   1.081   3.265 -1.4867  1.0286 -0.4363
  654MOL0     H90246   6.346   0.833   3.412 -2.4113  0.9341 -0.5179
  654MOL0     H90247   6.411   0.983   3.491  2.8347  0.4296 -0.0140
  654MOL0     H90248   6.764   0.772   3.429  0.0177  3.1515  0.8639
  654MOL0     H90249   5.850   0.999   2.949 -0.2225  0.7096 -0.8073
  654MOL0     H90250   5.690   0.955   2.818  1.1976  1.6962 -0.7899
  654MOL0     H90251   5.727   0.968   2.640 -0.5868  0.6397  0.2644
  654MOL0     H90252   5.703   0.807   2.725 -1.7248  0.4128  2.5254
  655MOL0     O90253  10.383   8.379  11.424 -0.0286  0.3316 -0.4803
  655MOL0     C90254  10.263   8.416  11.405 -0.1535 -0.7202  0.4374
  655MOL0     O90255  10.215   8.460  11.289  0.4685  0.6248  0.9439
  655MOL0     C90256  10.287   8.427  11.174  0.6717  0.7613  0.5203
  655MOL0     C90257  10.388   8.515  11.132  0.8546 -0.2457 -0.5835
  655MOL0     C90258  10.467   8.490  11.029 -0.0828 -0.2709 -1.0031
  655MOL0     C90259  10.439   8.379  10.946 -0.9868  0.1261 -0.1569
  655MOL0     O90260  10.497   8.377  10.823 -0.3850 -0.4688  0.1669
  655MOL0     C90261  10.413   8.422  10.709 -1.1347 -0.3203 -0.2083
  655MOL0     C90262  10.482   8.389  10.580 -0.0021  1.3149 -0.3087
  655MOL0     C90263  10.403   8.428  10.458 -0.0324 -0.3374 -0.3952
  655MOL0     C90264  10.419   8.570  10.414 -0.2008 -0.2637 -1.0024
  655MOL0     C90265  10.330   8.601  10.296  0.1424 -0.5165 -0.6921
  655MOL0     C90266  10.177   8.585  10.340  1.3261 -0.1712  0.1296
  655MOL0     C90267  10.072   8.649  10.241 -0.2995 -0.5525  0.6523
  655MOL0     C90268   9.916   8.622  10.258 -0.4842  0.7638  0.1864
  655MOL0     N90269   9.888   8.475  10.260 -1.0242 -0.4565  0.2390
  655MOL0     C90270   9.935   8.376  10.179  0.2408  0.3546 -0.6531
  655MOL0     C90271   9.899   8.263  10.234 -0.1463  0.9279  0.5151
  655MOL0     C90272   9.932   8.121  10.172 -0.2357 -0.0234  0.4936
  655MOL0     C90273   9.864   8.072  10.047  0.4251  0.4355  0.2053
  655MOL0     C90274   9.931   7.946  10.001 -0.0627  0.4832  0.6231
  655MOL0     C90275   9.908   7.891   9.856 -0.4309 -0.7895 -0.1143
  655MOL0     O90276   9.920   8.007   9.763  0.4588  0.0729  0.4055
  655MOL0     C90277   9.924   7.986   9.631  0.7842  1.5854  0.0707
  655MOL0     C90278   9.913   7.866   9.565 -0.4130 -0.0048 -0.0988
  655MOL0     C90279   9.940   7.860   9.426  1.3433  0.2318 -0.1371
  655MOL0     C90280   9.917   7.727   9.356 -0.3804  0.5079 -0.4956
  655MOL0     C90281   9.986   7.966   9.361  0.1528 -0.0732 -0.9708
  655MOL0     C90282  10.024   7.968   9.220  0.4077 -0.6063  0.4895
  655MOL0     O90283  10.127   8.059   9.191 -0.0315  0.0786 -0.6129
  655MOL0     C90284  10.164   8.073   9.060  0.1559  1.1243 -0.1786
  655MOL0     C90285  10.091   8.052   8.937  0.4314  0.2272  1.2478
  655MOL0     C90286  10.153   8.080   8.815 -0.2098 -0.1589 -0.4003
  655MOL0     C90287  10.286   8.120   8.807  0.3614  0.2785  0.7223
  655MOL0     O90288  10.362   8.133   8.692 -0.3023 -0.4173  0.0494
  655MOL0     C90289  10.332   8.043   8.579 -0.0007  0.5717 -1.2389
  655MOL0     C90290  10.444   8.036   8.474  0.1880 -0.2681  1.3996
  655MOL0     C90291  10.394   7.953   8.348 -0.8253 -0.4148  0.2478
  655MOL0     C90292  10.493   7.948   8.235  0.5194  0.2666  0.4470
  655MOL0     C90293  10.475   7.811   8.155 -0.1453  0.3335 -0.4533
  655MOL0     C90294  10.333   7.806   8.098  0.1847  0.0982  1.1423
  655MOL0     C90295  10.303   7.659   8.049  0.0660  0.9392 -0.0114
  655MOL0     C90296  10.232   7.592   8.176 -0.3976 -0.6223  0.2409
  655MOL0    Cl90297  10.169   7.439   8.114  0.1640  0.6096 -0.3005
  655MOL0     C90298  10.354   8.135   8.927  0.3304 -0.3077 -0.7910
  655MOL0     C90299  10.292   8.123   9.053 -0.2021 -0.5049  0.3517
  655MOL0     O90300   9.971   7.892   9.140  0.3111 -1.2286  0.7447
  655MOL0     C90301  10.004   8.088   9.425  0.3120 -0.6380 -1.5796
  655MOL0     C90302   9.956   8.101   9.560  0.2934  0.2046  0.2176
  655MOL0     N90303   9.849   8.291  10.357 -0.3493 -0.2352 -0.7784
  655MOL0     N90304   9.843   8.417  10.368  0.4406  0.7787 -0.2229
  655MOL0     C90305  10.342   8.286  10.985  0.8586 -0.6836  0.0515
  655MOL0     C90306  10.260   8.315  11.093 -0.1897  0.7165  0.1297
  655MOL0     C90307  10.169   8.436  11.518  0.8119  0.1461  0.7420
  655MOL0     C90308  10.046   8.486  11.492  0.3985 -0.2055  0.2521
  655MOL0     C90309   9.955   8.510  11.584  0.1960 -0.6527 -0.4933
  655MOL0     C90310   9.972   8.491  11.727  0.2616  0.2577 -0.1746
  655MOL0     O90311   9.882   8.555  11.807 -0.5489  1.0040 -0.5302
  655MOL0     C90312   9.916   8.585  11.946 -0.1134  0.0970 -0.2447
  655MOL0     C90313   9.817   8.686  11.997 -1.0595  0.4969  0.0974
  655MOL0     C90314   9.671   8.648  12.004  0.0083  0.0047  0.0646
  655MOL0     C90315   9.627   8.557  12.121 -0.3554 -0.3217  0.0864
  655MOL0     C90316   9.640   8.423  12.070 -0.2773  0.1545 -0.4409
  655MOL0     C90317   9.659   8.322  12.012 -0.3651  0.1355  0.8107
  655MOL0     C90318  10.092   8.428  11.757 -0.0069  0.5127 -0.0709
  655MOL0     C90319  10.188   8.390  11.657  0.9165  0.0144  0.5154
  655MOL0     C90320  10.312   8.319  11.709  0.0148  1.1174  0.3029
  655MOL0     H90321  10.389   8.611  11.183 -2.6093  0.3029 -1.3196
  655MOL0     H90322  10.533   8.570  10.999 -3.4710  3.3498  0.4141
  655MOL0     H90323  10.395   8.529  10.715 -0.3897 -0.1217 -1.3103
  655MOL0     H90324  10.315   8.379  10.685 -1.0102 -0.6861 -0.0723
  655MOL0     H90325  10.581   8.434  10.576  1.0841 -0.7385  1.5462
  655MOL0     H90326  10.506   8.283  10.580  1.9789  1.7262 -1.7033
  655MOL0     H90327  10.431   8.357  10.380  0.3238 -1.1958  0.5040
  655MOL0     H90328  10.299   8.412  10.489  0.2918  0.8111  1.4876
  655MOL0     H90329  10.401   8.640  10.496  1.1152 -0.3201 -0.6393
  655MOL0     H90330  10.524   8.592  10.392 -0.6249  1.8691 -1.0520
  655MOL0     H90331  10.354   8.537  10.210  2.9153 -1.4747  0.6709
  655MOL0     H90332  10.338   8.705  10.264 -2.8629 -0.2439 -0.8768
  655MOL0     H90333  10.171   8.476  10.338  0.5916 -0.1593 -2.6258
  655MOL0     H90334  10.147   8.626  10.437  1.4863 -0.2821  0.2268
  655MOL0     H90335  10.106   8.618  10.141 -2.1973 -3.2294  0.7355
  655MOL0     H90336  10.091   8.753  10.268 -0.9240 -0.1069 -0.5593
  655MOL0     H90337   9.871   8.666  10.347 -1.5573 -0.6779  0.3971
  655MOL0     H90338   9.875   8.670  10.168  0.6049 -0.3750 -0.9773
  655MOL0     H90339   9.996   8.387  10.090  1.3021 -1.9817 -0.2831
  655MOL0     H90340   9.908   8.045  10.248  0.7864 -1.4949 -0.6010
  655MOL0     H90341  10.039   8.116  10.150 -0.7743 -0.2316 -2.4102
  655MOL0     H90342   9.761   8.036  10.061  1.0456 -2.4835 -1.7936
  655MOL0     H90343   9.867   8.151   9.971  1.5481 -1.4540 -1.8006
  655MOL0     H90344  10.031   7.988   9.990  0.8531 -0.8355  3.0210
  655MOL0     H90345   9.937   7.861  10.070  2.5748  0.4210  0.4189
  655MOL0     H90346   9.989   7.819   9.846 -1.0875 -1.6288  0.4711
  655MOL0     H90347   9.821   7.826   9.843 -1.7412  1.0978 -1.3280
  655MOL0     H90348   9.879   7.773   9.609 -0.5027  0.1087  0.0706
  655MOL0     H90349   9.838   7.722   9.281 -2.3043  0.0252  1.4323
  655MOL0     H90350   9.893   7.650   9.430  1.0449 -0.6497 -1.1771
  655MOL0     H90351  10.021   7.705   9.330 -0.4813  1.2575 -1.6236
  655MOL0     H90352   9.985   8.029   8.940  0.5224 -0.0911  3.2943
  655MOL0     H90353  10.091   8.066   8.727  1.0582  2.7481 -1.8899
  655MOL0     H90354  10.311   7.938   8.602  3.3449 -0.2627 -1.5815
  655MOL0     H90355  10.249   8.106   8.545  0.5725  1.4704 -0.9960
  655MOL0     H90356  10.472   8.134   8.436  0.1957  0.2673  2.7223
  655MOL0     H90357  10.531   7.991   8.524  1.0769 -0.4280 -0.2287
  655MOL0     H90358  10.300   7.999   8.318 -0.5177  0.2833  0.3529
  655MOL0     H90359  10.367   7.849   8.371 -3.9204  0.4885  1.1978
  655MOL0     H90360  10.593   7.949   8.280  0.8411  1.7219 -0.2471
  655MOL0     H90361  10.492   8.033   8.166  0.4005 -1.5305 -1.8991
  655MOL0     H90362  10.538   7.805   8.066 -0.9020 -2.3145 -0.8753
  655MOL0     H90363  10.505   7.730   8.222 -4.0945 -0.0703  1.1306
  655MOL0     H90364  10.319   7.877   8.015 -3.5563  1.5115  2.7407
  655MOL0     H90365  10.249   7.832   8.163 -0.6762 -0.8368  0.4430
  655MOL0     H90366  10.392   7.598   8.030  1.2557  0.8052  4.6686
  655MOL0     H90367  10.246   7.664   7.956 -0.5906 -3.4834 -0.0546
  655MOL0     H90368  10.151   7.647   8.225 -0.2051 -2.5386  2.9188
  655MOL0     H90369  10.301   7.562   8.255 -2.7546 -0.0072  2.6878
  655MOL0     H90370  10.458   8.165   8.924 -0.0053  1.0076 -4.6484
  655MOL0     H90371  10.356   8.116   9.140 -1.3303 -2.1879  1.1058
  655MOL0     H90372  10.043   8.181   9.385  0.1535  1.3447  2.3571
  655MOL0     H90373   9.974   8.192   9.615  2.5676  1.4951 -2.3912
  655MOL0     H90374  10.304   8.209  10.918 -1.6242  0.6427 -0.1480
  655MOL0     H90375  10.183   8.247  11.127  0.4843 -0.2805 -0.3089
  655MOL0     H90376  10.009   8.516  11.394  2.0476 -0.2123 -0.4003
  655MOL0     H90377   9.879   8.584  11.558  2.4109  2.0990  0.3467
  655MOL0     H90378   9.921   8.510  12.026 -1.3435  1.3164  1.0479
  655MOL0     H90379  10.018   8.624  11.951 -0.9693  2.4867  0.2216
  655MOL0     H90380   9.822   8.776  11.935  0.6287  1.0715  1.0031
  655MOL0     H90381   9.846   8.712  12.099  0.4312 -0.7603  0.0348
  655MOL0     H90382   9.614   8.740  12.016 -1.9903 -1.2052  0.2913
  655MOL0     H90383   9.645   8.595  11.912  0.2211 -3.0101  1.6013
  655MOL0     H90384   9.521   8.579  12.132  0.0215  1.7695  0.0165
  655MOL0     H90385   9.669   8.564  12.222 -4.9412  0.0234  2.1923
  655MOL0     H90386   9.668   8.227  11.965  0.9562  0.2175  0.8760
  655MOL0     H90387  10.134   8.401  11.854 -0.1000 -0.9224 -0.4059
  655MOL0     H90388  10.364   8.404  11.754 -3.1396  2.1743  2.2271
  655MOL0     H90389  10.290   8.241  11.783 -0.9147  0.6827 -0.4164
  655MOL0     H90390  10.373   8.270  11.631 -1.3466  0.6948 -0.5263
  656MOL0     O90391   3.680  11.279  10.924  0.6967  0.3662  0.5855
  656MOL0     C90392   3.755  11.186  10.944  0.5239 -0.0748 -0.0201
  656MOL0     O90393   3.861  11.189  11.026 -0.4526  0.7488 -0.0081
  656MOL0     C90394   3.882  11.279  11.128  1.1112  0.1274  0.4385
  656MOL0     C90395   3.776  11.324  11.209 -0.0105  0.0714  0.1480
  656MOL0     C90396   3.799  11.405  11.314  0.0755  0.0879  0.3484
  656MOL0     C90397   3.923  11.441  11.349  0.9990  0.8877  0.3457
  656MOL0     O90398   3.948  11.508  11.465  0.5334  1.2383  0.3473
  656MOL0     C90399   3.891  11.444  11.580 -0.6693  0.8956 -0.3389
  656MOL0     C90400   4.001  11.358  11.652  1.0010 -0.7550 -0.1406
  656MOL0     C90401   4.123  11.454  11.690 -1.7002 -1.0683  0.2543
  656MOL0     C90402   4.217  11.389  11.783 -0.7829  1.0596 -0.2308
  656MOL0     C90403   4.327  11.290  11.742 -0.2258 -0.2592  0.1691
  656MOL0     C90404   4.281  11.204  11.623 -0.1461 -0.1300  0.4018
  656MOL0     C90405   4.404  11.123  11.577 -0.1268 -0.1612 -0.4398
  656MOL0     C90406   4.375  10.985  11.492  0.3446 -0.7469 -0.1452
  656MOL0     N90407   4.317  10.882  11.580  0.3169  0.5756 -0.5675
  656MOL0     C90408   4.378  10.799  11.675  0.1580  0.2630  0.5540
  656MOL0     C90409   4.280  10.710  11.709  0.1961  0.0445 -0.0258
  656MOL0     C90410   4.294  10.603  11.809  0.0732 -0.3404  1.2142
  656MOL0     C90411   4.253  10.648  11.952 -0.1862 -0.1204 -0.7437
  656MOL0     C90412   4.325  10.786  11.990 -0.1568  0.3286  0.8069
  656MOL0     C90413   4.345  10.804  12.142 -0.3210  0.1568  0.0169
  656MOL0     O90414   4.225  10.830  12.201  0.2042  0.2605  0.4869
  656MOL0     C90415   4.170  10.954  12.183  1.3065 -0.4516  0.3969
  656MOL0     C90416   4.243  11.073  12.172  0.0231 -0.4391  0.6619
  656MOL0     C90417   4.188  11.202  12.140 -0.1349 -0.3092  0.1928
  656MOL0     C90418   4.280  11.326  12.114  0.0780 -0.0621 -0.1264
  656MOL0     C90419   4.035  11.209  12.136 -0.2798  0.1362 -0.3238
  656MOL0     C90420   3.964  11.328  12.110 -0.2389 -0.3524  0.3165
  656MOL0     O90421   3.824  11.312  12.136  0.0159  0.4094  0.2105
  656MOL0     C90422   3.744  11.430  12.127 -0.2380  0.7566 -0.2887
  656MOL0     C90423   3.720  11.501  12.004 -0.9513 -0.0705 -0.4023
  656MOL0     C90424   3.647  11.617  11.987  0.3167  0.6188  0.2592
  656MOL0     C90425   3.578  11.672  12.094  0.6160 -0.2993 -0.8708
  656MOL0     O90426   3.515  11.796  12.072 -0.4953  0.2964  0.7611
  656MOL0     C90427   3.405  11.855  12.164 -0.1368 -0.1084  0.2275
  656MOL0     C90428   3.270  11.842  12.097  1.6263  0.8492 -0.5322
  656MOL0     C90429   3.232  11.701  12.054 -0.1782 -0.1351 -0.5250
  656MOL0     C90430   3.212  11.606  12.165  0.3120 -0.2734 -0.0874
  656MOL0     C90431   3.164  11.475  12.111 -0.8517  0.1559 -0.1459
  656MOL0     C90432   3.125  11.377  12.219 -0.2176 -0.0493  1.2271
  656MOL0     C90433   3.006  11.398  12.304  0.4718  0.3154  0.2564
  656MOL0     C90434   2.955  11.278  12.379 -0.3011  0.6609  0.8943
  656MOL0    Cl90435   3.071  11.222  12.507  1.0639  0.3820  0.0803
  656MOL0     C90436   3.588  11.603  12.224 -0.3192  1.1238 -0.3081
  656MOL0     C90437   3.674  11.486  12.241 -0.4679 -1.0012  0.3459
  656MOL0     O90438   4.017  11.438  12.078 -0.6023  0.2318 -0.9336
  656MOL0     C90439   3.964  11.083  12.162  0.7291 -0.1256 -0.0775
  656MOL0     C90440   4.022  10.962  12.188 -0.6354  0.7774 -1.2149
  656MOL0     N90441   4.159  10.751  11.659 -0.2839  0.0347 -0.4430
  656MOL0     N90442   4.182  10.854  11.583 -0.4171 -0.8539 -0.5609
  656MOL0     C90443   4.028  11.410  11.265  0.3550  0.4479  0.0022
  656MOL0     C90444   4.011  11.320  11.151  0.2406  0.4044 -0.7075
  656MOL0     C90445   3.728  11.074  10.863 -0.9697  0.5527 -0.1320
  656MOL0     C90446   3.739  10.962  10.941 -0.5210  0.0907 -1.0590
  656MOL0     C90447   3.714  10.836  10.898 -0.2145  0.8466  0.0268
  656MOL0     C90448   3.671  10.816  10.766  0.2060 -0.6552  0.1349
  656MOL0     O90449   3.653  10.690  10.724 -0.1643  0.0828  0.3413
  656MOL0     C90450   3.656  10.670  10.581  0.7941 -0.2755  0.7542
  656MOL0     C90451   3.668  10.521  10.558 -0.6224 -1.1346 -0.2921
  656MOL0     C90452   3.582  10.439  10.660  0.2148  0.1233  0.0833
  656MOL0     C90453   3.570  10.300  10.607  0.6215  0.6555  0.4554
  656MOL0     C90454   3.694  10.223  10.609 -0.5838 -0.3886  0.4490
  656MOL0     C90455   3.797  10.165  10.617 -0.8930 -0.5303  0.2474
  656MOL0     C90456   3.665  10.935  10.678 -0.1770  0.4518 -0.4018
  656MOL0     C90457   3.684  11.058  10.724 -0.7168 -0.4203 -1.1305
  656MOL0     C90458   3.661  11.183  10.647 -0.2916  0.1583 -0.0825
  656MOL0     H90459   3.671  11.317  11.183  0.1981  0.7250 -0.9506
  656MOL0     H90460   3.718  11.442  11.376  1.5208  1.0512  1.7587
  656MOL0     H90461   3.802  11.382  11.566 -0.3998  0.5049 -0.3572
  656MOL0     H90462   3.874  11.514  11.662  0.2692  0.9473 -0.1735
  656MOL0     H90463   3.956  11.313  11.740 -0.3985 -2.2924 -1.5628
  656MOL0     H90464   4.034  11.273  11.592  1.0067 -0.4204 -0.6285
  656MOL0     H90465   4.179  11.491  11.604 -1.0613 -0.4401  0.9370
  656MOL0     H90466   4.081  11.536  11.749 -0.4965  0.6281 -1.1310
  656MOL0     H90467   4.253  11.465  11.853 -0.8332 -0.2676  1.2857
  656MOL0     H90468   4.157  11.325  11.848  1.8891 -1.1524  0.2309
  656MOL0     H90469   4.364  11.234  11.828  2.7855  1.6396  0.2699
  656MOL0     H90470   4.415  11.340  11.702  1.6055 -2.9514  0.5984
  656MOL0     H90471   4.202  11.135  11.654 -0.8603  0.9073  0.9630
  656MOL0     H90472   4.246  11.263  11.538 -1.9159 -0.7416  0.6601
  656MOL0     H90473   4.456  11.091  11.667 -2.1503 -0.2544  0.7712
  656MOL0     H90474   4.475  11.185  11.523 -0.1770 -3.2302 -4.5514
  656MOL0     H90475   4.313  10.996  11.402 -2.4093  0.3781  1.7353
  656MOL0     H90476   4.468  10.950  11.447  0.4593 -3.1713  1.7534
  656MOL0     H90477   4.478  10.806  11.717  0.2821  2.2088  0.0121
  656MOL0     H90478   4.401  10.585  11.795 -0.0569  1.1863 -3.2479
  656MOL0     H90479   4.237  10.513  11.787  0.5485  0.0110 -1.7889
  656MOL0     H90480   4.144  10.658  11.954 -0.2648 -1.0064  0.2577
  656MOL0     H90481   4.280  10.565  12.018  1.3030  0.2003 -0.9123
  656MOL0     H90482   4.425  10.768  11.950 -0.3045  3.8810 -1.7197
  656MOL0     H90483   4.291  10.877  11.939 -0.1027  1.2403  2.3167
  656MOL0     H90484   4.374  10.712  12.193 -2.8191 -1.5057 -1.3816
  656MOL0     H90485   4.426  10.873  12.170 -1.2414  0.4565  2.0943
  656MOL0     H90486   4.352  11.069  12.175  0.0736  0.6256  0.4408
  656MOL0     H90487   4.242  11.376  12.024 -1.9182 -0.6696  0.3314
  656MOL0     H90488   4.383  11.289  12.104  0.4890  1.3918 -1.9468
  656MOL0     H90489   4.274  11.388  12.204 -0.3909 -1.0878  0.5728
  656MOL0     H90490   3.776  11.475  11.915 -1.3513 -3.6957  0.2607
  656MOL0     H90491   3.638  11.658  11.887  1.2799  0.3509  0.0510
  656MOL0     H90492   3.405  11.806  12.261  1.8714  0.3801  0.5052
  656MOL0     H90493   3.426  11.962  12.174  0.3943  0.2935 -3.5321
  656MOL0     H90494   3.187  11.871  12.163  0.1457  0.9197 -2.3403
  656MOL0     H90495   3.254  11.903  12.008 -1.6835  0.0398 -0.6499
  656MOL0     H90496   3.294  11.660  11.974  0.8071  0.3384 -0.0239
  656MOL0     H90497   3.138  11.712  11.999 -0.7907 -2.5627 -0.1037
  656MOL0     H90498   3.133  11.642  12.232 -1.9834 -0.9579 -2.2746
  656MOL0     H90499   3.296  11.590  12.233 -1.0545 -0.1259  1.7169
  656MOL0     H90500   3.079  11.497  12.045 -1.2389 -1.2628 -0.1548
  656MOL0     H90501   3.243  11.439  12.045 -2.2365 -0.2921 -1.6450
  656MOL0     H90502   3.216  11.366  12.279 -0.4749 -1.7233  1.3574
  656MOL0     H90503   3.107  11.277  12.178 -3.4991  1.9127 -2.8210
  656MOL0     H90504   2.920  11.431  12.246 -0.7639  1.1524  2.4620
  656MOL0     H90505   3.026  11.477  12.376  3.2131  0.9490 -1.0605
  656MOL0     H90506   2.942  11.192  12.312  2.6526  1.3220 -0.7171
  656MOL0     H90507   2.859  11.293  12.429 -1.4135 -1.7460 -0.3519
  656MOL0     H90508   3.541  11.643  12.314  0.5941  0.3208  0.5450
  656MOL0     H90509   3.697  11.451  12.341  2.1301 -2.3060 -0.6259
  656MOL0     H90510   3.856  11.086  12.162  0.6831 -0.9035 -1.4526
  656MOL0     H90511   3.970  10.868  12.202  1.5347 -0.4324 -0.7595
  656MOL0     H90512   4.128  11.449  11.279  0.6318 -0.7829  1.7638
  656MOL0     H90513   4.097  11.280  11.097  0.3351 -2.7677  1.4547
  656MOL0     H90514   3.778  10.950  11.041  1.9648 -0.4705 -2.0166
  656MOL0     H90515   3.760  10.753  10.951  0.7368 -0.3351 -2.4749
  656MOL0     H90516   3.559  10.711  10.551  0.4419 -0.9371  0.9829
  656MOL0     H90517   3.732  10.733  10.535 -2.4749  4.3071  0.9165
  656MOL0     H90518   3.776  10.502  10.559 -0.7801 -2.1303 -1.0510
  656MOL0     H90519   3.626  10.495  10.461 -0.9083  2.3973 -1.2500
  656MOL0     H90520   3.637  10.446  10.755 -0.2512  1.0591  0.2941
  656MOL0     H90521   3.484  10.486  10.674  0.1442  0.1552 -0.4975
  656MOL0     H90522   3.534  10.299  10.504  1.4295 -2.6960  0.0991
  656MOL0     H90523   3.499  10.248  10.673  0.8205  1.6958  1.5280
  656MOL0     H90524   3.890  10.111  10.609 -0.1820  0.4298  1.7404
  656MOL0     H90525   3.613  10.930  10.583 -1.5002 -0.5121  0.3338
  656MOL0     H90526   3.682  11.164  10.542  3.5098 -0.0425  0.5649
  656MOL0     H90527   3.554  11.206  10.642 -0.2449  0.0615 -3.0763
  656MOL0     H90528   3.728  11.264  10.678  1.4207 -0.5936 -1.6345
  657MOL0     O90529   0.518   8.519   6.853  0.2602  0.0964 -0.2840
  657MOL0     C90530   0.529   8.596   6.942  0.7097  0.1888  0.2238
  657MOL0     O90531   0.527   8.562   7.074 -0.3577 -0.9460  0.3029
  657MOL0     C90532   0.526   8.437   7.114 -0.3101  1.0005 -0.4458
  657MOL0     C90533   0.594   8.327   7.053 -1.0304 -0.1814  1.0514
  657MOL0     C90534   0.591   8.197   7.111 -1.7031 -0.7917  0.3887
  657MOL0     C90535   0.528   8.186   7.231 -0.3296 -0.3810 -0.2389
  657MOL0     O90536   0.518   8.057   7.280 -0.4072  0.6180  0.2252
  657MOL0     C90537   0.396   8.029   7.353  0.3309  0.1882  0.3029
  657MOL0     C90538   0.377   7.881   7.355 -0.3290 -0.1166  0.3723
  657MOL0     C90539   0.342   7.810   7.486 -0.0865 -0.1955  0.2862
  657MOL0     C90540   0.315   7.658   7.477  0.5816 -0.2751 -0.0904
  657MOL0     C90541   0.323   7.604   7.624 -0.5634 -0.1685 -0.4979
  657MOL0     C90542   0.211   7.498   7.649 -0.4883 -0.4572 -0.0968
  657MOL0     C90543   0.220   7.382   7.547  0.5565 -0.6778 -0.0286
  657MOL0     C90544   0.157   7.258   7.606 -0.7690 -0.9378 -1.1904
  657MOL0     N90545   0.193   7.146   7.522 -0.8349 -0.1354  0.0432
  657MOL0     C90546   0.159   7.130   7.389  0.6935 -0.1552 -0.0269
  657MOL0     C90547   0.215   7.020   7.350 -0.3634  0.0791  0.4219
  657MOL0     C90548   0.202   6.961   7.211  0.1074  0.8201  0.1642
  657MOL0     C90549   0.116   6.834   7.236 -0.1388  0.2590 -0.6007
  657MOL0     C90550  -0.022   6.860   7.286 -0.0146  0.1892  0.1371
  657MOL0     C90551  -0.113   6.945   7.199  0.6427  0.0711 -0.0248
  657MOL0     O90552  -0.077   7.086   7.201 -0.1927 -0.1054 -0.6404
  657MOL0     C90553  -0.179   7.176   7.223  0.4180  0.0462  0.7327
  657MOL0     C90554  -0.184   7.292   7.140 -0.1316 -0.5091 -0.1896
  657MOL0     C90555  -0.295   7.368   7.126  0.4126 -0.1901  0.4766
  657MOL0     C90556  -0.270   7.482   7.027 -0.4404  0.4490  0.0817
  657MOL0     C90557  -0.410   7.336   7.195  0.0992  0.8063  0.2804
  657MOL0     C90558  -0.538   7.399   7.177  0.5861 -0.2781 -1.7441
  657MOL0     O90559  -0.620   7.406   7.282  0.1765  0.9489  0.5616
  657MOL0     C90560  -0.746   7.462   7.255 -0.2453 -0.6856 -0.0201
  657MOL0     C90561  -0.846   7.376   7.296  0.0241 -0.3564  0.0979
  657MOL0     C90562  -0.978   7.418   7.268 -0.1197 -0.3567  0.2728
  657MOL0     C90563  -1.001   7.540   7.203  0.5252  0.6419  0.6428
  657MOL0     O90564  -1.129   7.582   7.159  0.2912  1.0924  0.3444
  657MOL0     C90565  -1.233   7.490   7.141  0.1114  0.1692  0.6215
  657MOL0     C90566  -1.223   7.405   7.016  0.2241 -0.0959  0.2330
  657MOL0     C90567  -1.216   7.485   6.891  0.5272  0.1755  1.7497
  657MOL0     C90568  -1.160   7.401   6.762 -0.4778 -0.9955  0.6884
  657MOL0     C90569  -1.261   7.298   6.711 -0.5238  0.7579  0.4288
  657MOL0     C90570  -1.375   7.354   6.614  0.0796  0.0634 -0.1311
  657MOL0     C90571  -1.480   7.242   6.581  0.8569  0.3454  0.4273
  657MOL0     C90572  -1.517   7.238   6.427 -0.9675 -0.1591  0.4983
  657MOL0    Cl90573  -1.369   7.183   6.331  0.0268  0.2271 -0.7256
  657MOL0     C90574  -0.895   7.630   7.176 -0.7899  0.1964  0.1924
  657MOL0     C90575  -0.764   7.586   7.201 -0.6093 -0.3703 -0.1587
  657MOL0     O90576  -0.555   7.461   7.072  0.7118  0.0273  0.2214
  657MOL0     C90577  -0.399   7.230   7.287  0.1395  0.7628 -0.3847
  657MOL0     C90578  -0.288   7.151   7.306 -0.4888  0.1453  0.1129
  657MOL0     N90579   0.292   6.973   7.462 -0.0807 -1.0924  0.8267
  657MOL0     N90580   0.268   7.042   7.563  1.0488  0.0824 -0.3685
  657MOL0     C90581   0.470   8.303   7.295  0.3554 -0.8501  0.7592
  657MOL0     C90582   0.462   8.421   7.239  0.7751  0.2720  0.5380
  657MOL0     C90583   0.546   8.741   6.903 -0.2273 -0.2524 -0.3578
  657MOL0     C90584   0.464   8.828   6.980  0.2000 -0.1114 -0.7870
  657MOL0     C90585   0.460   8.963   6.961  0.6161  0.3504  0.3573
  657MOL0     C90586   0.524   9.021   6.842  0.2292  0.5904  0.4791
  657MOL0     O90587   0.504   9.154   6.824  0.4346 -0.0788 -0.1634
  657MOL0     C90588   0.522   9.206   6.689  0.4287 -0.0373 -1.1812
  657MOL0     C90589   0.436   9.327   6.669  1.1341 -0.0759  0.1567
  657MOL0     C90590   0.486   9.462   6.712  0.5961  0.2957 -0.1092
  657MOL0     C90591   0.408   9.574   6.638  0.2766  0.3175  0.4294
  657MOL0     C90592   0.264   9.589   6.654 -0.3013 -0.4394  0.0767
  657MOL0     C90593   0.141   9.604   6.670  0.3531  0.1541  1.0381
  657MOL0     C90594   0.598   8.935   6.767 -0.3964 -0.2807  0.1130
  657MOL0     C90595   0.612   8.798   6.789 -0.0189  0.5194  0.0171
  657MOL0     C90596   0.693   8.717   6.693 -0.0340  0.1847  0.8118
  657MOL0     H90597   0.651   8.340   6.961  0.7973 -0.8311  2.0419
  657MOL0     H90598   0.628   8.106   7.065  1.0035 -0.6210  2.0099
  657MOL0     H90599   0.321   8.092   7.303  0.2726 -0.5188 -0.5450
  657MOL0     H90600   0.422   8.064   7.453 -0.9502  3.5116 -0.3908
  657MOL0     H90601   0.309   7.848   7.277  0.6155 -1.7342  0.1729
  657MOL0     H90602   0.473   7.837   7.325 -0.7476 -3.6963  3.4283
  657MOL0     H90603   0.428   7.830   7.550 -0.5341  1.4219  0.4172
  657MOL0     H90604   0.254   7.854   7.534 -0.4766 -1.9605  1.2929
  657MOL0     H90605   0.213   7.660   7.438  1.0194 -0.4502 -1.2717
  657MOL0     H90606   0.376   7.597   7.410  2.2768  0.5087  0.7025
  657MOL0     H90607   0.302   7.672   7.707  2.6449 -0.3736  0.6397
  657MOL0     H90608   0.425   7.569   7.644  0.4438  2.3353 -0.8501
  657MOL0     H90609   0.220   7.460   7.751  1.4512  3.5643  1.4815
  657MOL0     H90610   0.118   7.554   7.641 -1.4699 -1.6026  2.2530
  657MOL0     H90611   0.322   7.365   7.513  0.7185  0.0318  0.0880
  657MOL0     H90612   0.151   7.408   7.466  0.3005 -0.3345  0.2954
  657MOL0     H90613   0.204   7.236   7.702 -0.7209  2.8977 -0.1692
  657MOL0     H90614   0.049   7.272   7.622 -0.5101 -0.3635  0.1416
  657MOL0     H90615   0.101   7.203   7.333 -3.1000 -0.6136  2.9002
  657MOL0     H90616   0.295   6.934   7.161 -1.1419  1.1779 -2.5119
  657MOL0     H90617   0.148   7.015   7.133  0.7204 -0.6618 -1.3534
  657MOL0     H90618   0.115   6.778   7.142 -2.7746  1.8629 -1.6296
  657MOL0     H90619   0.174   6.771   7.305  2.8435  0.1991 -2.9510
  657MOL0     H90620  -0.086   6.773   7.297  0.4997 -0.6844 -2.8618
  657MOL0     H90621  -0.015   6.897   7.389  0.2288 -0.4019  0.3393
  657MOL0     H90622  -0.094   6.919   7.095 -3.8919 -1.8584 -0.5768
  657MOL0     H90623  -0.218   6.929   7.226  0.9401 -0.6323  0.7696
  657MOL0     H90624  -0.108   7.312   7.066  1.9940 -2.2261  1.3670
  657MOL0     H90625  -0.171   7.522   7.051  0.5460 -2.1214  0.7181
  657MOL0     H90626  -0.345   7.558   7.051 -1.5595  1.0176 -4.2967
  657MOL0     H90627  -0.289   7.451   6.924  0.5941 -3.7354  0.9385
  657MOL0     H90628  -0.826   7.281   7.343 -0.0864 -0.2042  0.4584
  657MOL0     H90629  -1.062   7.353   7.289 -1.1243  0.9578  0.4599
  657MOL0     H90630  -1.239   7.428   7.231  1.8372 -0.2685  0.4543
  657MOL0     H90631  -1.323   7.550   7.123  1.0851  0.6066 -4.3026
  657MOL0     H90632  -1.144   7.329   7.013  1.0682  0.7583  0.2610
  657MOL0     H90633  -1.314   7.346   7.009 -0.1654  0.5115  0.1432
  657MOL0     H90634  -1.149   7.569   6.908  2.2454 -0.8808  0.5027
  657MOL0     H90635  -1.314   7.524   6.863  1.2107  3.2532  3.2034
  657MOL0     H90636  -1.064   7.354   6.783  1.3303  2.0293 -0.1724
  657MOL0     H90637  -1.142   7.474   6.682 -3.1989 -1.3120 -0.3283
  657MOL0     H90638  -1.222   7.209   6.662 -2.0088 -0.4838  1.4075
  657MOL0     H90639  -1.305   7.249   6.798  1.8499 -0.8405  0.8320
  657MOL0     H90640  -1.340   7.383   6.515  3.5459 -0.5978  0.7521
  657MOL0     H90641  -1.429   7.441   6.652  0.7289  0.4872 -0.1602
  657MOL0     H90642  -1.575   7.246   6.634 -1.2373  0.1259 -2.9715
  657MOL0     H90643  -1.430   7.146   6.598  0.5681 -0.7306 -3.6019
  657MOL0     H90644  -1.578   7.323   6.396 -0.4654  0.6044  1.5711
  657MOL0     H90645  -1.581   7.151   6.408  1.4706 -1.9371 -0.0060
  657MOL0     H90646  -0.906   7.733   7.145  1.9263  0.9147  1.2977
  657MOL0     H90647  -0.673   7.632   7.164 -2.0198  1.4824 -1.5076
  657MOL0     H90648  -0.493   7.207   7.336  0.2257  1.1406 -0.0396
  657MOL0     H90649  -0.284   7.075   7.383  0.7810  0.1799  0.0940
  657MOL0     H90650   0.414   8.303   7.388  1.6901  2.1481  1.6919
  657MOL0     H90651   0.400   8.503   7.275 -0.3936 -1.6426  3.2494
  657MOL0     H90652   0.429   8.796   7.078  1.1424  1.5610  0.1613
  657MOL0     H90653   0.412   9.027   7.034  2.7329  1.6901  0.6384
  657MOL0     H90654   0.630   9.220   6.675  1.0113 -3.9866 -1.7045
  657MOL0     H90655   0.514   9.128   6.613  2.9531 -0.3105 -1.2535
  657MOL0     H90656   0.334   9.316   6.707  0.1256  0.4835 -2.2404
  657MOL0     H90657   0.414   9.338   6.563  1.2539  0.3093  0.1674
  657MOL0     H90658   0.477   9.476   6.820 -1.6638  1.4233 -0.3878
  657MOL0     H90659   0.593   9.465   6.688  0.8772 -1.5199  0.7402
  657MOL0     H90660   0.424   9.553   6.532 -4.4191 -0.0406 -0.4594
  657MOL0     H90661   0.460   9.667   6.662  0.9478 -0.4496  2.0644
  657MOL0     H90662   0.035   9.611   6.661  0.1076 -1.7113  1.9606
  657MOL0     H90663   0.657   8.977   6.686  0.2324  4.3415  2.6527
  657MOL0     H90664   0.737   8.626   6.734 -1.6919 -0.9948  0.0487
  657MOL0     H90665   0.631   8.696   6.606  1.9020 -1.7204 -0.2148
  657MOL0     H90666   0.778   8.779   6.661  0.0202 -1.3761 -2.3912
  658MOL0     O90667  11.515   6.632   9.325  0.1437  0.4279 -0.7270
  658MOL0     C90668  11.587   6.622   9.425  0.0262 -0.0901  0.9454
  658MOL0     O90669  11.574   6.535   9.524 -0.2340  0.8608 -0.2836
  658MOL0     C90670  11.452   6.479   9.528  0.2970  1.0072 -0.5536
  658MOL0     C90671  11.443   6.345   9.577 -0.7709  0.5687  0.2037
  658MOL0     C90672  11.320   6.295   9.611  0.1283  0.0474 -1.0978
  658MOL0     C90673  11.204   6.366   9.597  1.1729  0.2132  0.4362
  658MOL0     O90674  11.087   6.306   9.616 -0.5570  0.2950 -0.5339
  658MOL0     C90675  10.968   6.382   9.611  0.5554  0.4016 -0.5519
  658MOL0     C90676  10.866   6.285   9.679 -0.1080  1.4862  0.2156
  658MOL0     C90677  10.791   6.363   9.796 -0.7545 -1.2060 -0.2046
  658MOL0     C90678  10.704   6.270   9.881  0.2250 -0.2198  0.5396
  658MOL0     C90679  10.578   6.340   9.940 -0.2421  0.4394 -0.4802
  658MOL0     C90680  10.469   6.351   9.826  0.1517 -0.8750 -0.7796
  658MOL0     C90681  10.342   6.411   9.896  0.9240 -1.0690  0.1755
  658MOL0     C90682  10.350   6.561   9.948  0.8961  0.0925 -0.1049
  658MOL0     N90683  10.246   6.561  10.064  0.5809 -0.1647  0.3020
  658MOL0     C90684  10.118   6.604  10.040  0.4669  0.1206  0.0703
  658MOL0     C90685  10.074   6.629  10.163 -0.4966  0.2016 -1.0817
  658MOL0     C90686   9.936   6.679  10.196  0.5931  0.7697 -0.2018
  658MOL0     C90687   9.824   6.639  10.096 -0.9516  0.3534  0.2110
  658MOL0     C90688   9.773   6.483  10.112  0.2631 -0.3510  0.1491
  658MOL0     C90689   9.870   6.386  10.052  0.1666  1.1404 -0.5343
  658MOL0     O90690   9.914   6.430   9.927  0.5375  0.3785  0.0477
  658MOL0     C90691   9.947   6.347   9.830 -0.2208  0.7702 -0.4692
  658MOL0     C90692  10.052   6.260   9.843  0.4805 -1.2993  1.0925
  658MOL0     C90693  10.093   6.171   9.746  0.2448  0.1741 -0.6557
  658MOL0     C90694  10.212   6.071   9.765  0.2470  0.1343 -0.2645
  658MOL0     C90695   9.998   6.156   9.633 -0.1868  0.4330  0.2701
  658MOL0     C90696  10.013   6.050   9.523 -0.4042  0.4239 -0.6586
  658MOL0     O90697   9.902   6.015   9.456  0.1668 -0.4160  0.1426
  658MOL0     C90698   9.917   5.938   9.343  0.5477 -0.4856  0.1204
  658MOL0     C90699   9.874   5.998   9.219 -0.4742  0.2331 -0.0498
  658MOL0     C90700   9.888   5.922   9.100  0.7808 -0.3293  0.4067
  658MOL0     C90701   9.915   5.789   9.098  0.5603 -1.0943 -1.1646
  658MOL0     O90702   9.933   5.722   8.978  0.0608 -0.0110  0.3129
  658MOL0     C90703   9.970   5.786   8.850  0.2853 -0.0126 -1.3854
  658MOL0     C90704  10.117   5.837   8.840 -0.3176  1.1330 -1.7625
  658MOL0     C90705  10.239   5.728   8.839 -0.8547 -0.4853 -0.6294
  658MOL0     C90706  10.367   5.760   8.763  0.3103  0.6800 -0.1538
  658MOL0     C90707  10.477   5.650   8.778 -0.7478  0.0833  0.6580
  658MOL0     C90708  10.577   5.666   8.664 -0.2019 -0.0436 -1.0915
  658MOL0     C90709  10.542   5.601   8.535  0.6779  0.2509  0.9099
  658MOL0     C90710  10.558   5.452   8.538 -0.1532 -0.1175  0.6564
  658MOL0    Cl90711  10.487   5.393   8.387  0.1304  0.2461  0.2173
  658MOL0     C90712   9.957   5.731   9.226 -0.3902 -1.0788 -0.4900
  658MOL0     C90713   9.958   5.806   9.344  0.3322 -0.3921  0.3862
  658MOL0     O90714  10.125   6.003   9.506  0.1230  0.6017 -0.4386
  658MOL0     C90715   9.899   6.256   9.616 -0.4192 -0.2525 -0.2267
  658MOL0     C90716   9.875   6.353   9.710  0.1623 -0.5600  0.2828
  658MOL0     N90717  10.167   6.589  10.261  0.5835 -0.4990  0.5792
  658MOL0     N90718  10.267   6.560  10.195 -0.0753  0.3791 -1.0719
  658MOL0     C90719  11.213   6.495   9.555 -0.5255  0.2189  0.5556
  658MOL0     C90720  11.331   6.556   9.528  0.0348 -0.5156 -0.3117
  658MOL0     C90721  11.691   6.723   9.451 -1.2145 -0.6658  0.2817
  658MOL0     C90722  11.706   6.783   9.578  0.9296  0.6531 -0.4489
  658MOL0     C90723  11.797   6.883   9.601 -0.5677 -0.1188  0.3242
  658MOL0     C90724  11.890   6.913   9.508  0.7493  0.3276 -0.0849
  658MOL0     O90725  12.005   6.986   9.542 -0.0049 -0.7262 -0.2051
  658MOL0     C90726  12.023   7.101   9.458 -0.2157  0.1290 -0.2294
  658MOL0     C90727  11.924   7.220   9.515  0.4939 -0.7201  0.2578
  658MOL0     C90728  11.960   7.368   9.473 -0.2865 -0.2382  0.2177
  658MOL0     C90729  11.889   7.469   9.556 -0.8871 -0.0891  0.3723
  658MOL0     C90730  11.748   7.447   9.574  1.2728  0.0964  0.0852
  658MOL0     C90731  11.628   7.416   9.576 -0.2534  0.3459  0.5882
  658MOL0     C90732  11.879   6.848   9.382  0.1957  0.7450 -0.3298
  658MOL0     C90733  11.778   6.760   9.338 -0.0206 -0.3671 -0.6954
  658MOL0     C90734  11.771   6.700   9.204  0.3375 -0.3731  0.3657
  658MOL0     H90735  11.535   6.292   9.601 -1.0855 -0.4335 -0.7038
  658MOL0     H90736  11.326   6.198   9.660  0.5577  1.3111  1.5765
  658MOL0     H90737  10.938   6.402   9.508  1.3622 -1.3922 -1.1845
  658MOL0     H90738  10.969   6.477   9.666  1.4277  0.3025 -0.3839
  658MOL0     H90739  10.788   6.260   9.605 -1.6257  3.7680  0.9492
  658MOL0     H90740  10.923   6.197   9.711  1.2914  1.9528 -0.8988
  658MOL0     H90741  10.861   6.417   9.861 -2.4497  1.0069 -0.0998
  658MOL0     H90742  10.735   6.435   9.735  2.2358 -0.7784 -2.7282
  658MOL0     H90743  10.675   6.195   9.807  1.4392  0.6989 -0.9228
  658MOL0     H90744  10.757   6.205   9.951  3.7618  0.8006 -0.9724
  658MOL0     H90745  10.614   6.434   9.984 -0.2712  0.3423 -0.2481
  658MOL0     H90746  10.554   6.280  10.028  0.4387  1.6071  0.5454
  658MOL0     H90747  10.504   6.429   9.758 -0.7924  0.0262 -0.2678
  658MOL0     H90748  10.443   6.259   9.774  3.4144 -2.7581  0.5472
  658MOL0     H90749  10.327   6.346   9.983  1.4164 -4.1147 -1.8589
  658MOL0     H90750  10.257   6.416   9.827  1.0899  3.4972 -0.0521
  658MOL0     H90751  10.449   6.598   9.975  2.1941 -1.9222 -1.8039
  658MOL0     H90752  10.325   6.632   9.868  0.5830 -0.0462 -0.1310
  658MOL0     H90753  10.087   6.645   9.944  0.8807 -0.7304 -0.4352
  658MOL0     H90754   9.933   6.788  10.191 -0.3949  0.7245 -0.8530
  658MOL0     H90755   9.912   6.649  10.298  2.0857 -2.5224 -0.6712
  658MOL0     H90756   9.735   6.699  10.118 -1.9126 -1.7644  2.7241
  658MOL0     H90757   9.851   6.657   9.992  2.3671 -4.1710 -0.0229
  658MOL0     H90758   9.756   6.455  10.217 -0.7934 -0.8742 -0.1449
  658MOL0     H90759   9.685   6.488  10.047  0.2973 -1.5711 -0.0142
  658MOL0     H90760   9.952   6.375  10.123  1.0525 -1.9358 -1.8406
  658MOL0     H90761   9.825   6.287  10.038  0.5058  1.0375 -0.9215
  658MOL0     H90762  10.097   6.261   9.942 -0.8033 -4.1382  1.8241
  658MOL0     H90763  10.260   6.082   9.862 -0.8391 -0.7464  0.3942
  658MOL0     H90764  10.287   6.097   9.689  0.7576  1.7109  0.7187
  658MOL0     H90765  10.187   5.966   9.751 -2.3370  0.9360 -2.5314
  658MOL0     H90766   9.825   6.094   9.235  1.3200  0.8195  2.5346
  658MOL0     H90767   9.854   5.962   9.005  4.7164  4.1278  0.4808
  658MOL0     H90768   9.952   5.719   8.766 -0.2763 -3.5861  1.3355
  658MOL0     H90769   9.894   5.863   8.832 -0.8789 -1.0971 -1.2585
  658MOL0     H90770  10.115   5.885   8.742 -1.0144  2.3390 -1.1823
  658MOL0     H90771  10.131   5.900   8.928 -1.2365 -1.1632  0.1390
  658MOL0     H90772  10.190   5.639   8.798 -4.9204  1.4213 -0.4213
  658MOL0     H90773  10.279   5.714   8.940 -1.4850 -1.6282 -0.5268
  658MOL0     H90774  10.405   5.852   8.808  2.0579 -0.1002  0.0725
  658MOL0     H90775  10.334   5.772   8.660  1.1390  0.6265 -0.4349
  658MOL0     H90776  10.519   5.679   8.875  0.2909 -0.0724  0.2747
  658MOL0     H90777  10.433   5.550   8.786  2.2014 -1.3881 -0.0659
  658MOL0     H90778  10.671   5.620   8.696 -0.5114 -0.5316 -0.8741
  658MOL0     H90779  10.597   5.772   8.650 -0.8846  0.5562  1.8446
  658MOL0     H90780  10.590   5.631   8.441 -1.4190  0.6214 -0.0849
  658MOL0     H90781  10.437   5.626   8.520  1.3406  1.4827 -2.9220
  658MOL0     H90782  10.500   5.415   8.624  0.5417 -0.4025  1.0122
  658MOL0     H90783  10.663   5.424   8.546 -0.3501 -0.8585  0.7793
  658MOL0     H90784   9.990   5.627   9.228 -1.4360 -1.4596  2.6002
  658MOL0     H90785   9.985   5.752   9.434  1.1594  1.4369  1.2692
  658MOL0     H90786   9.841   6.234   9.526 -0.9311  0.6940 -0.1343
  658MOL0     H90787   9.796   6.426   9.698  1.3855  0.9788  1.1900
  658MOL0     H90788  11.127   6.559   9.540  0.7717  2.1522  1.0474
  658MOL0     H90789  11.319   6.663   9.513  1.5720 -0.0126  1.6631
  658MOL0     H90790  11.627   6.762   9.649  0.8800 -2.0968 -1.1727
  658MOL0     H90791  11.797   6.930   9.699 -2.5342  2.8426 -0.9447
  658MOL0     H90792  12.124   7.143   9.468 -0.0489 -0.4926  0.8983
  658MOL0     H90793  11.992   7.093   9.354 -2.4183 -1.0520  0.4382
  658MOL0     H90794  11.902   7.206   9.621 -3.6459 -1.9061 -0.5806
  658MOL0     H90795  11.822   7.205   9.478  0.3632 -1.5180  0.9181
  658MOL0     H90796  12.068   7.379   9.487 -0.4787  0.9344  0.9273
  658MOL0     H90797  11.935   7.383   9.368 -1.8682 -0.8927  0.4796
  658MOL0     H90798  11.906   7.568   9.514 -0.4897 -0.5593 -0.5900
  658MOL0     H90799  11.942   7.462   9.651 -1.5646 -1.9358  0.6530
  658MOL0     H90800  11.528   7.377   9.573  0.8081 -2.6298  0.2341
  658MOL0     H90801  11.951   6.883   9.308  1.8383  3.4788  2.3199
  658MOL0     H90802  11.873   6.692   9.166 -0.8651 -0.7263 -3.1593
  658MOL0     H90803  11.724   6.601   9.195  0.0066 -0.0865 -1.3078
  658MOL0     H90804  11.723   6.760   9.127 -1.6904 -2.6756 -0.2872
  659MOL0     O90805   2.308   6.033  10.642  0.2033  0.4470  0.8847
  659MOL0     C90806   2.191   6.054  10.660 -0.3179 -0.1817  0.7214
  659MOL0     O90807   2.115   6.137  10.587 -0.1799  0.0119  0.3457
  659MOL0     C90808   2.155   6.178  10.456 -1.0566  1.2874  0.6360
  659MOL0     C90809   2.095   6.290  10.403  0.1716 -0.3805 -1.1672
  659MOL0     C90810   2.108   6.320  10.270 -0.7977 -0.7514 -0.1412
  659MOL0     C90811   2.201   6.250  10.191  0.2065  0.5042 -0.5170
  659MOL0     O90812   2.201   6.295  10.064 -0.1180 -0.1090 -0.1361
  659MOL0     C90813   2.310   6.269   9.971  0.5036 -0.4332  0.2149
  659MOL0     C90814   2.392   6.393   9.957 -0.3451 -0.4010  0.1007
  659MOL0     C90815   2.320   6.522   9.898 -0.9040 -0.1194  0.3882
  659MOL0     C90816   2.294   6.488   9.743 -0.5218 -0.5401  0.4977
  659MOL0     C90817   2.271   6.625   9.681 -1.0480 -0.4531  0.7849
  659MOL0     C90818   2.399   6.707   9.650  0.0053  0.4923  0.5028
  659MOL0     C90819   2.461   6.657   9.526  0.0497  0.0583  0.2391
  659MOL0     C90820   2.600   6.703   9.476  0.4734 -0.8020  0.7910
  659MOL0     N90821   2.710   6.691   9.567  0.1126 -0.0995  0.1746
  659MOL0     C90822   2.750   6.582   9.650 -0.2870  0.5127  0.0090
  659MOL0     C90823   2.879   6.616   9.686 -0.3944  1.6944  0.2222
  659MOL0     C90824   2.969   6.528   9.770 -0.1317  0.9228 -0.6939
  659MOL0     C90825   2.907   6.482   9.910  0.6163  1.4661 -0.6878
  659MOL0     C90826   2.860   6.612   9.992 -0.5278 -0.0135 -0.7026
  659MOL0     C90827   2.887   6.588  10.144  0.5772 -0.3545 -0.8231
  659MOL0     O90828   2.785   6.503  10.205  0.0354 -0.0308  0.4773
  659MOL0     C90829   2.697   6.551  10.298  0.1966 -0.5888  0.0677
  659MOL0     C90830   2.659   6.688  10.318  0.7952 -0.5682  0.3289
  659MOL0     C90831   2.553   6.721  10.402 -0.4235  0.0945  0.3178
  659MOL0     C90832   2.523   6.868  10.398  0.0684  0.1202 -0.6773
  659MOL0     C90833   2.475   6.622  10.468  0.0834  0.4238 -0.0913
  659MOL0     C90834   2.350   6.651  10.540 -0.7269 -0.9748 -0.0987
  659MOL0     O90835   2.291   6.558  10.617  0.3939  0.4092  0.1472
  659MOL0     C90836   2.170   6.574  10.677 -0.5902 -0.5372 -0.1144
  659MOL0     C90837   2.118   6.703  10.731  0.4919  0.3985  0.0644
  659MOL0     C90838   1.999   6.710  10.815 -0.1357  0.9784  0.4888
  659MOL0     C90839   1.932   6.598  10.843  0.6685  0.3048 -0.2446
  659MOL0     O90840   1.818   6.595  10.922  0.7068 -0.0368 -0.1988
  659MOL0     C90841   1.729   6.702  10.924 -1.1335  0.8679 -0.7571
  659MOL0     C90842   1.597   6.661  10.958  0.3033  0.6841  0.1348
  659MOL0     C90843   1.584   6.610  11.096  0.1032 -0.3779  0.5558
  659MOL0     C90844   1.529   6.696  11.205 -1.3167 -0.2252  1.0570
  659MOL0     C90845   1.492   6.630  11.330 -0.1639  0.4052 -0.1916
  659MOL0     C90846   1.357   6.566  11.328  1.1755 -0.1150  0.4636
  659MOL0     C90847   1.251   6.668  11.353 -0.2946  0.9069  1.2896
  659MOL0     C90848   1.234   6.702  11.502  0.3234  0.5983  0.0604
  659MOL0    Cl90849   1.128   6.588  11.594 -0.3433  0.2306  0.3918
  659MOL0     C90850   1.988   6.470  10.804  0.9566  1.3691 -0.8675
  659MOL0     C90851   2.105   6.462  10.721 -0.2999 -0.8872 -0.3802
  659MOL0     O90852   2.299   6.754  10.515 -0.4554 -0.6651  0.2649
  659MOL0     C90853   2.521   6.488  10.443  0.1506  0.5339  0.8250
  659MOL0     C90854   2.631   6.447  10.370 -0.0786 -1.3743  0.3633
  659MOL0     N90855   2.917   6.723   9.613 -0.2691 -0.4396 -0.4538
  659MOL0     N90856   2.820   6.774   9.554 -0.8294  0.1998  0.4366
  659MOL0     C90857   2.250   6.121  10.239  0.4870 -0.3347  0.2084
  659MOL0     C90858   2.227   6.085  10.371  0.6426 -0.1628  0.4340
  659MOL0     C90859   2.134   6.009  10.796  0.3317  0.0165  1.5348
  659MOL0     C90860   2.220   5.994  10.907  0.4821  0.8635 -1.2967
  659MOL0     C90861   2.162   5.958  11.029 -0.5191  0.3852  0.1338
  659MOL0     C90862   2.026   5.903  11.037 -0.3384  0.2320  0.4857
  659MOL0     O90863   1.989   5.857  11.162 -0.0831 -0.0333  0.0491
  659MOL0     C90864   1.850   5.833  11.173  0.3535  0.3148 -0.3709
  659MOL0     C90865   1.816   5.835  11.316  0.7078  0.4136  0.4376
  659MOL0     C90866   1.783   5.981  11.361  0.2141  0.2304  0.3457
  659MOL0     C90867   1.741   6.008  11.495  0.2925 -0.3674  1.0395
  659MOL0     C90868   1.631   5.924  11.545  0.3690  1.0915  0.5136
  659MOL0     C90869   1.569   5.823  11.577  0.6003 -0.0993 -0.9077
  659MOL0     C90870   1.946   5.918  10.925  0.1006  0.4498 -0.5067
  659MOL0     C90871   1.996   5.979  10.812  0.8827  0.3763  0.4554
  659MOL0     C90872   1.893   6.007  10.712  0.9165 -0.6140  1.1405
  659MOL0     H90873   2.037   6.363  10.458  4.5815  1.8414  1.0555
  659MOL0     H90874   2.045   6.399  10.230 -0.9734 -2.1136 -2.7940
  659MOL0     H90875   2.267   6.245   9.873  1.3273  3.2848 -1.2472
  659MOL0     H90876   2.373   6.193  10.016 -1.3009 -1.8561  0.4580
  659MOL0     H90877   2.425   6.419  10.058 -1.1490  2.3012 -0.2501
  659MOL0     H90878   2.473   6.366   9.889  1.7156 -0.2003  2.3402
  659MOL0     H90879   2.239   6.557   9.963  0.6015  0.5476  1.9848
  659MOL0     H90880   2.398   6.598   9.900  0.2341 -1.1660 -1.4823
  659MOL0     H90881   2.380   6.432   9.707 -0.6947 -0.7534  0.4141
  659MOL0     H90882   2.211   6.417   9.746 -1.3055  0.3325  0.0281
  659MOL0     H90883   2.213   6.693   9.745 -2.1951 -0.6566  0.0011
  659MOL0     H90884   2.219   6.610   9.586 -2.4636 -1.6039  1.6848
  659MOL0     H90885   2.367   6.810   9.629  3.9509  1.3104 -2.7720
  659MOL0     H90886   2.465   6.718   9.737 -0.3431  1.0927  0.7009
  659MOL0     H90887   2.393   6.673   9.442 -2.0251 -0.2595  1.7906
  659MOL0     H90888   2.478   6.549   9.533  0.5049  0.2320  2.5179
  659MOL0     H90889   2.629   6.637   9.394  1.0017  1.3337 -0.8186
  659MOL0     H90890   2.594   6.807   9.442 -1.4994 -0.0890  3.0430
  659MOL0     H90891   2.697   6.492   9.680  1.6308 -0.4103  0.8134
  659MOL0     H90892   3.065   6.572   9.799  0.8135 -0.4188 -1.6592
  659MOL0     H90893   2.993   6.439   9.712  0.2399  0.4228  0.2038
  659MOL0     H90894   2.819   6.418   9.905 -0.3127  2.5021  1.2593
  659MOL0     H90895   2.969   6.413   9.969  0.1198  0.7733 -0.9645
  659MOL0     H90896   2.918   6.695   9.952  2.3467 -0.1893  2.6576
  659MOL0     H90897   2.753   6.628   9.974 -0.4208 -1.0860 -2.6583
  659MOL0     H90898   2.987   6.547  10.160 -0.5529 -1.9705  3.4578
  659MOL0     H90899   2.887   6.683  10.199  3.0131 -1.4992  1.3935
  659MOL0     H90900   2.700   6.775  10.266 -0.2998  0.3207  0.9059
  659MOL0     H90901   2.612   6.921  10.362  1.5573 -0.7205  1.5722
  659MOL0     H90902   2.518   6.906  10.500  1.0414  0.1696 -0.6417
  659MOL0     H90903   2.433   6.887  10.338 -0.5651 -2.4342 -0.6623
  659MOL0     H90904   2.169   6.797  10.711  4.3593 -1.0044  2.3527
  659MOL0     H90905   1.957   6.801  10.856  3.8556  2.0155  2.7992
  659MOL0     H90906   1.777   6.760  11.004  0.1684  0.4607 -1.2244
  659MOL0     H90907   1.736   6.755  10.829  1.3819  1.8303 -0.0975
  659MOL0     H90908   1.543   6.756  10.948  3.0472  2.4941  1.3434
  659MOL0     H90909   1.574   6.587  10.881 -1.3535 -0.4237  1.6296
  659MOL0     H90910   1.679   6.572  11.135 -1.0671 -2.2221  1.7675
  659MOL0     H90911   1.518   6.523  11.089 -0.9233  0.1717  2.6652
  659MOL0     H90912   1.446   6.756  11.166 -1.2152  0.1696  1.4397
  659MOL0     H90913   1.613   6.760  11.233 -0.1043 -0.2506 -2.1299
  659MOL0     H90914   1.572   6.563  11.362  0.7662  2.2158  1.4738
  659MOL0     H90915   1.483   6.710  11.404 -1.0350  0.7814 -0.6786
  659MOL0     H90916   1.354   6.493  11.410 -2.4213  0.8008  1.3083
  659MOL0     H90917   1.344   6.502  11.240  2.7829 -3.2136  2.3030
  659MOL0     H90918   1.156   6.624  11.320  1.0829 -1.6149  0.4214
  659MOL0     H90919   1.273   6.760  11.298 -3.7869  2.4574  2.1710
  659MOL0     H90920   1.175   6.792  11.522  0.2570  0.8565 -1.1892
  659MOL0     H90921   1.328   6.719  11.554 -0.0701 -1.7536  1.7011
  659MOL0     H90922   1.936   6.387  10.852  0.2582  2.6144  0.6385
  659MOL0     H90923   2.141   6.362  10.700 -1.3089 -0.9693 -1.9086
  659MOL0     H90924   2.463   6.410  10.491  0.4234 -1.4704 -1.8533
  659MOL0     H90925   2.660   6.345  10.349  2.5765 -0.7554  0.7400
  659MOL0     H90926   2.292   6.066  10.155  1.2494  2.0732 -1.0997
  659MOL0     H90927   2.253   5.982  10.394 -0.9419 -1.3979 -2.8168
  659MOL0     H90928   2.316   6.044  10.905  1.7912 -1.3872  0.1596
  659MOL0     H90929   2.217   5.961  11.123 -2.0653  1.9247  1.0422
  659MOL0     H90930   1.783   5.896  11.114  0.8507  2.3394  1.1206
  659MOL0     H90931   1.834   5.727  11.150  2.6863 -0.1223 -0.1597
  659MOL0     H90932   1.900   5.789  11.369 -0.5413 -1.4573  0.8727
  659MOL0     H90933   1.733   5.769  11.341  1.9137 -1.5547 -0.5184
  659MOL0     H90934   1.865   6.048  11.335 -1.4378  2.6880  1.1137
  659MOL0     H90935   1.691   6.012  11.311  1.7465  0.1921 -2.7036
  659MOL0     H90936   1.700   6.108  11.511 -0.2664  0.3336 -3.5526
  659MOL0     H90937   1.828   6.001  11.561 -2.2398 -0.5826  4.6780
  659MOL0     H90938   1.513   5.750  11.631  0.7437 -0.7641 -1.6331
  659MOL0     H90939   1.840   5.896  10.917 -0.0696  1.1896 -0.3009
  659MOL0     H90940   1.797   5.962  10.741  1.2227 -1.6906  0.5196
  659MOL0     H90941   1.891   6.116  10.698 -1.0496 -0.8032 -0.5528
  659MOL0     H90942   1.923   5.959  10.619  0.5964 -0.2308  0.8325
  660MOL0     O90943   4.997   7.894   1.258 -0.2462  0.2304 -0.7603
  660MOL0     C90944   4.998   7.850   1.371 -0.5426  0.1930  0.4204
  660MOL0     O90945   4.927   7.911   1.478 -0.4852  1.8257 -0.2920
  660MOL0     C90946   4.889   8.037   1.473  0.7675 -0.4136 -0.0097
  660MOL0     C90947   4.801   8.087   1.385 -0.3556  0.1652  0.6975
  660MOL0     C90948   4.768   8.221   1.387  0.6036 -0.1853  0.3623
  660MOL0     C90949   4.834   8.310   1.478 -0.6881 -0.9657  0.4852
  660MOL0     O90950   4.809   8.444   1.465 -0.3507 -0.0636  0.1974
  660MOL0     C90951   4.904   8.548   1.518  0.2479  0.5990 -0.0368
  660MOL0     C90952   4.834   8.686   1.516 -0.1245 -0.3101  0.4709
  660MOL0     C90953   4.741   8.706   1.638  0.0297  1.0588 -0.9963
  660MOL0     C90954   4.661   8.846   1.643 -0.6967 -0.0610  0.1992
  660MOL0     C90955   4.509   8.829   1.612 -0.0476 -0.7942  0.2638
  660MOL0     C90956   4.477   8.769   1.480  0.2707  0.7036 -0.0081
  660MOL0     C90957   4.471   8.866   1.369 -0.6762  0.8451 -0.4354
  660MOL0     C90958   4.432   8.809   1.235  1.1683  0.7072  0.1924
  660MOL0     N90959   4.553   8.771   1.165  0.1518  0.0083 -1.0251
  660MOL0     C90960   4.623   8.661   1.189 -0.1549  0.5119  0.7635
  660MOL0     C90961   4.737   8.679   1.118 -0.7381  0.4251  0.3435
  660MOL0     C90962   4.842   8.569   1.134 -0.4217  0.2323  0.7589
  660MOL0     C90963   4.798   8.437   1.065  0.3842 -0.0873 -0.0485
  660MOL0     C90964   4.911   8.351   1.023  0.2323  0.9669  0.0681
  660MOL0     C90965   4.870   8.201   1.017  0.4089  0.3639  0.4493
  660MOL0     O90966   4.724   8.194   1.016 -0.3490  0.1733  0.2143
  660MOL0     C90967   4.661   8.069   1.026  0.2422  0.4623  0.2837
  660MOL0     C90968   4.726   7.947   1.067 -0.0453 -0.3588 -1.0658
  660MOL0     C90969   4.644   7.832   1.081 -1.3061 -0.4986 -0.5395
  660MOL0     C90970   4.717   7.706   1.133 -0.7192 -0.7492  0.6905
  660MOL0     C90971   4.504   7.830   1.054 -0.8061  0.3831  0.4183
  660MOL0     C90972   4.411   7.708   1.078  0.3908  0.1131 -0.9084
  660MOL0     O90973   4.451   7.619   1.183  0.5949 -0.2332 -0.0789
  660MOL0     C90974   4.354   7.530   1.219 -0.4049 -1.0177 -0.1052
  660MOL0     C90975   4.322   7.407   1.153  0.4189 -0.4236 -0.0289
  660MOL0     C90976   4.230   7.313   1.197  0.3680 -0.1814 -0.3776
  660MOL0     C90977   4.171   7.337   1.323 -0.3404  0.0226  0.6728
  660MOL0     O90978   4.083   7.242   1.378  0.1737 -0.0032 -0.3230
  660MOL0     C90979   4.141   7.123   1.423 -0.0354  0.2418  0.3577
  660MOL0     C90980   4.040   7.042   1.503 -0.7241 -0.5631  0.1896
  660MOL0     C90981   3.898   7.046   1.440  0.0474 -0.1409 -0.7448
  660MOL0     C90982   3.827   6.919   1.472  0.9252 -0.4402  0.5814
  660MOL0     C90983   3.678   6.954   1.433 -0.4275 -0.1618  0.0123
  660MOL0     C90984   3.593   6.827   1.418 -0.9678 -0.4616  0.1441
  660MOL0     C90985   3.512   6.786   1.538 -0.3729 -0.7870 -0.8769
  660MOL0     C90986   3.460   6.643   1.520  0.4950  0.7651  0.3000
  660MOL0    Cl90987   3.364   6.625   1.375 -0.1120 -0.0120  0.3926
  660MOL0     C90988   4.203   7.457   1.387  0.1442 -0.5944  0.1445
  660MOL0     C90989   4.293   7.559   1.336 -0.0165  0.0490 -0.8191
  660MOL0     O90990   4.298   7.711   1.023  0.3711  0.0449 -0.0329
  660MOL0     C90991   4.446   7.948   1.014 -0.3230  0.7201 -0.1136
  660MOL0     C90992   4.524   8.066   0.992  0.2028 -0.5538  0.8304
  660MOL0     N90993   4.744   8.802   1.064 -0.6228  0.0426 -0.0560
  660MOL0     N90994   4.626   8.854   1.086 -1.1790 -0.1952 -0.5846
  660MOL0     C90995   4.915   8.249   1.577  0.0331 -0.5018 -0.0087
  660MOL0     C90996   4.936   8.111   1.582  0.4727  0.2703  0.3389
  660MOL0     C90997   5.110   7.758   1.411  0.8130 -0.5739  0.0359
  660MOL0     C90998   5.124   7.737   1.552 -0.4374  1.3506  0.2654
  660MOL0     C90999   5.215   7.649   1.599  0.1503 -0.1262  0.0681
  660MOL0     C91000   5.293   7.578   1.512  0.0618 -0.1877 -0.4112
  660MOL0     O91001   5.364   7.472   1.555 -0.0034  0.0165 -0.1408
  660MOL0     C91002   5.476   7.493   1.643  0.3455  0.1537 -0.2372
  660MOL0     C91003   5.482   7.392   1.753 -0.0015 -1.2647  0.1000
  660MOL0     C91004   5.358   7.407   1.852  0.4052  1.0277  0.6115
  660MOL0     C91005   5.340   7.273   1.939 -0.3090  0.4573 -0.6578
  660MOL0     C91006   5.460   7.251   2.030  0.2339  0.1142  0.7201
  660MOL0     C91007   5.556   7.224   2.105 -0.5991 -1.0142  1.6228
  660MOL0     C91008   5.283   7.599   1.379 -0.2475  0.8671  0.4325
  660MOL0     C91009   5.184   7.681   1.322  0.0176 -0.0446 -0.0880
  660MOL0     C91010   5.177   7.677   1.175  0.7947  0.6556  0.2525
  660MOL0     H91011   4.763   8.013   1.316  4.2652  0.2906 -2.4283
  660MOL0     H91012   4.704   8.258   1.307 -0.7649 -1.7494  0.7030
  660MOL0     H91013   4.987   8.555   1.447  0.8114 -2.6771  0.1345
  660MOL0     H91014   4.956   8.531   1.613  3.2868  1.3430 -1.4413
  660MOL0     H91015   4.915   8.758   1.503 -1.9505  1.4780 -2.1349
  660MOL0     H91016   4.784   8.700   1.420  2.9413  2.4182 -0.9035
  660MOL0     H91017   4.673   8.620   1.640  1.9617 -0.5164 -0.0641
  660MOL0     H91018   4.802   8.692   1.727 -0.0713  0.7032 -0.9809
  660MOL0     H91019   4.683   8.888   1.741  0.2370 -2.4946  1.1123
  660MOL0     H91020   4.706   8.907   1.564 -3.4215  0.5338 -1.0430
  660MOL0     H91021   4.456   8.923   1.631 -1.4028 -1.3555 -0.6018
  660MOL0     H91022   4.479   8.762   1.694  2.1207  0.2127  2.0138
  660MOL0     H91023   4.546   8.688   1.454 -0.8042  0.9658 -4.6136
  660MOL0     H91024   4.379   8.727   1.501 -0.8697  4.2723  2.7287
  660MOL0     H91025   4.564   8.924   1.373 -0.5430  0.6137 -0.1729
  660MOL0     H91026   4.390   8.935   1.394 -0.7208  0.5367  0.3074
  660MOL0     H91027   4.363   8.725   1.245 -0.6997  1.7655 -2.7076
  660MOL0     H91028   4.384   8.885   1.172  0.9076  0.2125 -0.2120
  660MOL0     H91029   4.597   8.572   1.245  2.3393 -0.1392  0.9968
  660MOL0     H91030   4.851   8.554   1.242 -0.6138 -0.9239  0.6263
  660MOL0     H91031   4.942   8.601   1.102 -0.3443 -1.1821 -0.5211
  660MOL0     H91032   4.726   8.393   1.135 -2.0216  0.0133 -2.2987
  660MOL0     H91033   4.729   8.458   0.982  0.2620  2.4953  0.6140
  660MOL0     H91034   4.941   8.378   0.922  0.2699  1.5807  0.2378
  660MOL0     H91035   4.986   8.362   1.103 -1.6719 -0.0416  2.1064
  660MOL0     H91036   4.916   8.163   0.926  1.6766  1.9470  0.3817
  660MOL0     H91037   4.911   8.157   1.109  1.2992  0.2830  0.0214
  660MOL0     H91038   4.830   7.950   1.098  0.8628 -1.0402 -3.7932
  660MOL0     H91039   4.817   7.695   1.089  0.3271 -0.0134  2.7356
  660MOL0     H91040   4.662   7.616   1.108 -0.8328  0.4639 -4.4908
  660MOL0     H91041   4.721   7.725   1.241  0.9528 -0.7473  0.6685
  660MOL0     H91042   4.379   7.367   1.069 -0.1867 -1.0989 -0.1268
  660MOL0     H91043   4.192   7.228   1.141  0.9345  0.5814 -1.9821
  660MOL0     H91044   4.177   7.060   1.341 -1.3736 -2.4521  1.6799
  660MOL0     H91045   4.217   7.153   1.496 -0.4554  1.7527  0.1930
  660MOL0     H91046   4.062   6.935   1.509 -2.1775 -0.9900 -1.2477
  660MOL0     H91047   4.043   7.085   1.603  5.4008  1.0793 -0.2398
  660MOL0     H91048   3.904   7.054   1.331 -1.8872 -1.1952 -0.9638
  660MOL0     H91049   3.846   7.135   1.477  0.0555  0.0319 -1.1450
  660MOL0     H91050   3.838   6.895   1.578 -2.3553  0.6593  1.3158
  660MOL0     H91051   3.864   6.830   1.421 -1.4939  0.1061 -2.4621
  660MOL0     H91052   3.643   7.007   1.522  1.5831  0.7300  0.3344
  660MOL0     H91053   3.681   7.023   1.347 -2.0734  0.3602  0.3368
  660MOL0     H91054   3.656   6.746   1.379 -0.4914  0.4014 -0.9455
  660MOL0     H91055   3.514   6.856   1.349 -1.9361  3.1648  2.4655
  660MOL0     H91056   3.430   6.857   1.553  1.3267  0.4818  5.2914
  660MOL0     H91057   3.576   6.798   1.626  0.9977  3.2382 -2.2401
  660MOL0     H91058   3.392   6.633   1.604 -4.4876 -1.2500 -3.4657
  660MOL0     H91059   3.538   6.568   1.528  1.9763  2.0274 -1.3923
  660MOL0     H91060   4.158   7.476   1.484  2.1773  1.2786  0.8003
  660MOL0     H91061   4.311   7.650   1.393 -1.6015 -1.1785  1.8332
  660MOL0     H91062   4.340   7.963   0.994 -0.6373 -0.4060  0.5811
  660MOL0     H91063   4.462   8.152   0.968 -1.8377 -1.8639  1.0786
  660MOL0     H91064   4.955   8.316   1.653  2.6134 -1.8530 -0.0453
  660MOL0     H91065   5.008   8.068   1.650  2.8553  1.0829 -1.5418
  660MOL0     H91066   5.066   7.784   1.631 -1.5426  0.1890  0.1843
  660MOL0     H91067   5.210   7.622   1.704 -0.1997 -3.1629 -0.6440
  660MOL0     H91068   5.558   7.486   1.570  0.7598 -0.5558  0.2882
  660MOL0     H91069   5.476   7.590   1.693  2.0119  0.1530 -0.1767
  660MOL0     H91070   5.572   7.399   1.815 -1.2397 -2.7466  2.2014
  660MOL0     H91071   5.488   7.288   1.720  0.0164 -1.0069 -0.7134
  660MOL0     H91072   5.384   7.496   1.911  1.1126  0.2455  1.5243
  660MOL0     H91073   5.264   7.419   1.798 -0.1268 -1.6553  0.7928
  660MOL0     H91074   5.313   7.184   1.882 -1.3989  0.5007 -0.2291
  660MOL0     H91075   5.259   7.308   2.004 -0.5927  2.4933 -2.0132
  660MOL0     H91076   5.648   7.199   2.154  1.3695  0.2936 -1.1499
  660MOL0     H91077   5.348   7.537   1.318 -1.7850  1.1090 -1.5570
  660MOL0     H91078   5.210   7.780   1.155 -1.0564  0.9113 -2.0161
  660MOL0     H91079   5.246   7.609   1.125  1.3973  1.0891  0.4925
  660MOL0     H91080   5.075   7.652   1.143  0.6773  0.0017  1.1201
  661MOL0     O91081   0.167   3.781   6.986  0.8254 -0.8667  0.5650
  661MOL0     C91082   0.283   3.809   6.989  0.2951 -0.0014 -0.1442
  661MOL0     O91083   0.333   3.944   6.971 -0.5238  0.6873 -0.1036
  661MOL0     C91084   0.251   4.045   7.015  1.1241  0.6530  0.8652
  661MOL0     C91085   0.212   4.048   7.147 -0.1390 -0.2509  0.2511
  661MOL0     C91086   0.153   4.145   7.204 -0.4528  0.0261 -0.2592
  661MOL0     C91087   0.103   4.250   7.125  0.2170  0.1616  0.1542
  661MOL0     O91088   0.040   4.356   7.195 -0.0915  0.6101  0.7489
  661MOL0     C91089  -0.015   4.467   7.125 -0.1454 -0.4357  0.3609
  661MOL0     C91090  -0.097   4.552   7.238  1.5758  0.7381  0.2171
  661MOL0     C91091  -0.211   4.625   7.164 -0.7592 -0.9323 -0.3661
  661MOL0     C91092  -0.331   4.533   7.143  0.5194  0.1533 -0.1243
  661MOL0     C91093  -0.444   4.602   7.070  0.4908 -0.6448  0.7922
  661MOL0     C91094  -0.415   4.653   6.920  0.4886  0.3444 -0.0000
  661MOL0     C91095  -0.526   4.616   6.821  0.4106 -0.4141  0.0158
  661MOL0     C91096  -0.639   4.726   6.830  0.3577 -0.4906 -0.4359
  661MOL0     N91097  -0.764   4.698   6.766 -0.4411  0.4452 -0.2628
  661MOL0     C91098  -0.789   4.704   6.631 -0.1718 -0.2886  0.2282
  661MOL0     C91099  -0.916   4.668   6.629  0.0951 -0.5169 -0.3400
  661MOL0     C91100  -0.989   4.642   6.499 -0.5835 -0.9098  0.5271
  661MOL0     C91101  -1.012   4.772   6.422 -0.1620  0.6408  0.8030
  661MOL0     C91102  -1.122   4.757   6.312 -0.0414  0.2837 -0.2006
  661MOL0     C91103  -1.104   4.645   6.207  0.6007  0.1869  0.0702
  661MOL0     O91104  -0.994   4.668   6.133 -0.1770  0.8219 -0.2077
  661MOL0     C91105  -0.997   4.757   6.030  0.6638  0.4792 -0.4087
  661MOL0     C91106  -0.871   4.789   5.980  0.6328 -0.0752  0.6275
  661MOL0     C91107  -0.858   4.911   5.899  0.9693  0.4512 -0.4191
  661MOL0     C91108  -0.718   4.962   5.874 -0.4675 -0.2630 -1.1336
  661MOL0     C91109  -0.976   4.990   5.867 -0.5456 -0.0463 -0.8295
  661MOL0     C91110  -0.974   5.119   5.779 -0.5058  0.3335  0.3579
  661MOL0     O91111  -1.097   5.154   5.717 -0.3853 -0.3426 -0.5423
  661MOL0     C91112  -1.099   5.254   5.619 -0.1385 -0.1173 -0.3984
  661MOL0     C91113  -1.047   5.225   5.493 -0.3195 -0.3591  0.3000
  661MOL0     C91114  -1.059   5.326   5.399 -0.3300 -0.5498 -0.1732
  661MOL0     C91115  -1.128   5.446   5.424  0.2556 -0.5063 -0.2988
  661MOL0     O91116  -1.121   5.543   5.326 -0.1682 -0.3076 -0.5041
  661MOL0     C91117  -1.114   5.681   5.371 -0.0071  1.1486 -0.4628
  661MOL0     C91118  -0.990   5.705   5.445 -0.3395 -0.9089  1.1074
  661MOL0     C91119  -0.953   5.855   5.470  0.0902 -0.1424  0.3138
  661MOL0     C91120  -0.829   5.879   5.558 -0.3306 -1.1162 -0.4317
  661MOL0     C91121  -0.806   6.032   5.551 -0.0708 -0.1601  0.0234
  661MOL0     C91122  -0.734   6.084   5.686  1.2642  0.8581 -0.0919
  661MOL0     C91123  -0.690   6.222   5.660 -0.9990  0.0357  0.2936
  661MOL0     C91124  -0.632   6.294   5.787 -0.6042  0.5238  0.7852
  661MOL0    Cl91125  -0.700   6.240   5.942 -0.1139 -0.2390 -0.1119
  661MOL0     C91126  -1.182   5.472   5.548 -0.1939  0.8255 -0.5775
  661MOL0     C91127  -1.164   5.375   5.649  0.5774 -0.6030  0.0080
  661MOL0     O91128  -0.871   5.184   5.777  0.1375  0.0072  0.1366
  661MOL0     C91129  -1.098   4.941   5.910  0.2427 -0.2917  0.9002
  661MOL0     C91130  -1.114   4.833   5.994  0.0972 -1.3922  0.0445
  661MOL0     N91131  -0.964   4.635   6.756 -0.2030 -0.2590  0.5041
  661MOL0     N91132  -0.871   4.655   6.843  0.4397 -0.1331  0.3695
  661MOL0     C91133   0.135   4.247   6.987 -1.1349 -0.2629  0.0613
  661MOL0     C91134   0.213   4.145   6.934 -0.1113  0.4234 -0.0015
  661MOL0     C91135   0.378   3.698   7.010 -0.5598 -0.9344 -0.1687
  661MOL0     C91136   0.502   3.739   7.064 -0.3547  0.1711 -0.3953
  661MOL0     C91137   0.602   3.641   7.078  0.9624  0.1471 -0.0613
  661MOL0     C91138   0.596   3.519   7.003  0.3200 -1.0502  1.1431
  661MOL0     O91139   0.699   3.432   6.991 -0.5070 -0.0057  0.2520
  661MOL0     C91140   0.838   3.477   7.006  0.0618  0.5337  0.8399
  661MOL0     C91141   0.883   3.587   6.905  0.4046  0.6938 -0.2260
  661MOL0     C91142   0.861   3.535   6.765  0.5319 -0.0027  0.2581
  661MOL0     C91143   0.925   3.631   6.667 -0.7904 -0.4926 -0.4199
  661MOL0     C91144   0.934   3.557   6.543 -1.4295 -0.1116  1.0439
  661MOL0     C91145   0.925   3.486   6.444 -0.3895 -0.2282  0.2949
  661MOL0     C91146   0.479   3.487   6.937 -0.6135 -0.0641  0.7598
  661MOL0     C91147   0.368   3.573   6.950 -0.1885  0.3396  1.1137
  661MOL0     C91148   0.240   3.523   6.885  0.1929 -0.2566  0.0775
  661MOL0     H91149   0.244   3.969   7.214 -0.3794  0.4594  1.2191
  661MOL0     H91150   0.135   4.162   7.310  0.7646  0.5402 -0.1141
  661MOL0     H91151  -0.080   4.432   7.044 -2.9129  5.0902 -0.3126
  661MOL0     H91152   0.059   4.534   7.079 -1.2578  0.0362 -0.8117
  661MOL0     H91153  -0.137   4.487   7.317 -1.1922  0.2643 -1.4233
  661MOL0     H91154  -0.039   4.623   7.297  0.8536  0.0642  1.7919
  661MOL0     H91155  -0.251   4.704   7.228 -1.2588  0.8946 -2.7800
  661MOL0     H91156  -0.179   4.678   7.074 -1.7186  2.6036  1.1781
  661MOL0     H91157  -0.297   4.446   7.087  0.8693 -1.0360  1.8688
  661MOL0     H91158  -0.377   4.501   7.236  1.2316  0.2339  0.2604
  661MOL0     H91159  -0.477   4.694   7.118 -2.0289  0.1437 -2.1456
  661MOL0     H91160  -0.538   4.546   7.073  0.4383 -0.6119 -0.0150
  661MOL0     H91161  -0.411   4.762   6.917  0.5938  0.3150 -1.8991
  661MOL0     H91162  -0.322   4.613   6.881  0.6158 -1.2578  1.8186
  661MOL0     H91163  -0.567   4.519   6.850  0.8314 -1.2200 -1.9336
  661MOL0     H91164  -0.488   4.616   6.718 -1.7137  0.2729 -0.8182
  661MOL0     H91165  -0.680   4.745   6.929 -1.8806 -0.9072 -1.2190
  661MOL0     H91166  -0.597   4.819   6.790  0.2873 -0.4002 -0.2982
  661MOL0     H91167  -0.727   4.726   6.545 -2.9280  2.3594 -1.3056
  661MOL0     H91168  -1.075   4.575   6.506 -1.0837 -0.4286 -0.7886
  661MOL0     H91169  -0.927   4.579   6.435 -0.7472  0.0411 -0.5912
  661MOL0     H91170  -1.045   4.849   6.492 -2.0432  1.9911 -1.3956
  661MOL0     H91171  -0.926   4.808   6.364  0.0009 -0.1114  0.5642
  661MOL0     H91172  -1.216   4.745   6.366  1.1100  1.1415  2.1669
  661MOL0     H91173  -1.132   4.854   6.264  2.4453  1.3142  1.1269
  661MOL0     H91174  -1.090   4.544   6.247  0.0349 -0.8085 -2.0674
  661MOL0     H91175  -1.193   4.628   6.146 -1.2526  1.9974  2.1084
  661MOL0     H91176  -0.789   4.720   5.993  0.2591 -0.3418  1.6834
  661MOL0     H91177  -0.646   4.903   5.932 -0.1159  1.8721  0.7688
  661MOL0     H91178  -0.704   5.067   5.900 -0.9392 -0.4568 -0.0298
  661MOL0     H91179  -0.688   4.947   5.770  2.9630 -0.6068 -0.2297
  661MOL0     H91180  -1.006   5.128   5.466 -4.7670 -2.8310  1.3059
  661MOL0     H91181  -1.026   5.327   5.295 -1.9169  1.2027 -0.7120
  661MOL0     H91182  -1.116   5.749   5.286  0.8971  1.4469 -0.2533
  661MOL0     H91183  -1.210   5.706   5.418 -1.1549 -2.6990 -0.3986
  661MOL0     H91184  -0.995   5.671   5.549  1.5891 -1.2015  1.1466
  661MOL0     H91185  -0.903   5.650   5.408 -0.3880 -1.3819  1.6808
  661MOL0     H91186  -1.043   5.884   5.526 -0.9459 -4.3677  1.2148
  661MOL0     H91187  -0.948   5.907   5.374  0.2301  0.1348  0.4700
  661MOL0     H91188  -0.746   5.830   5.507  1.7241  1.6175  0.0411
  661MOL0     H91189  -0.835   5.844   5.661 -1.9815  0.7351  0.1776
  661MOL0     H91190  -0.740   6.059   5.468 -2.1460  0.7171 -1.4189
  661MOL0     H91191  -0.900   6.086   5.539  0.8997  1.6875  0.3451
  661MOL0     H91192  -0.660   6.012   5.721 -2.7695 -3.2546  0.9318
  661MOL0     H91193  -0.813   6.070   5.760  0.9465 -0.2443 -0.6139
  661MOL0     H91194  -0.781   6.273   5.626 -0.4530  0.4008 -0.6623
  661MOL0     H91195  -0.615   6.241   5.582  0.3674  1.2054  1.8269
  661MOL0     H91196  -0.647   6.401   5.768 -0.9173  0.7151  1.9990
  661MOL0     H91197  -0.523   6.285   5.784 -0.5319  1.4622  0.0952
  661MOL0     H91198  -1.232   5.566   5.565 -1.7680  0.2731 -1.8797
  661MOL0     H91199  -1.191   5.400   5.751  2.4047  0.5138  0.2656
  661MOL0     H91200  -1.193   4.987   5.882  1.0669  0.6942 -0.3717
  661MOL0     H91201  -1.215   4.800   6.018 -1.4023  0.2836 -3.3476
  661MOL0     H91202   0.102   4.327   6.922 -0.5550 -0.0635  0.0048
  661MOL0     H91203   0.241   4.141   6.829  2.0487  1.1555  0.4875
  661MOL0     H91204   0.520   3.831   7.119  0.3768 -0.1023 -0.1612
  661MOL0     H91205   0.684   3.652   7.147 -0.3180  1.7659  1.2902
  661MOL0     H91206   0.853   3.535   7.098  3.9449  0.2875  0.5193
  661MOL0     H91207   0.909   3.394   7.013 -0.9201 -0.3272  0.6855
  661MOL0     H91208   0.988   3.606   6.931  0.8559 -1.4511 -0.2966
  661MOL0     H91209   0.826   3.679   6.920 -1.4131  0.5168 -4.6756
  661MOL0     H91210   0.894   3.431   6.769 -0.4554 -0.3267  0.3121
  661MOL0     H91211   0.757   3.523   6.732  0.7233 -1.3789  0.0722
  661MOL0     H91212   1.019   3.666   6.711 -1.3607  1.2697 -0.5072
  661MOL0     H91213   0.875   3.726   6.648  3.0790  1.5808 -1.4641
  661MOL0     H91214   0.909   3.427   6.356 -1.9061 -0.7839  0.9117
  661MOL0     H91215   0.459   3.391   6.890 -0.6240  0.7559 -0.9873
  661MOL0     H91216   0.194   3.606   6.830 -1.6234 -0.2456  1.5162
  661MOL0     H91217   0.265   3.453   6.804  0.6867 -1.3090  1.1149
  661MOL0     H91218   0.155   3.490   6.946 -0.8582 -1.1181 -1.7480
  662MOL0     O91219   3.993  10.229   1.885 -0.1715 -0.3048 -0.4779
  662MOL0     C91220   3.924  10.272   1.799 -0.0460 -0.4114  0.5733
  662MOL0     O91221   3.819  10.200   1.729 -0.0158 -0.2745  0.2842
  662MOL0     C91222   3.759  10.087   1.760 -0.1811  0.6690  0.6677
  662MOL0     C91223   3.655  10.038   1.689 -0.3265 -0.1938  0.1899
  662MOL0     C91224   3.595   9.916   1.717  0.8552  0.8950 -0.1213
  662MOL0     C91225   3.637   9.849   1.829 -0.5553  0.6763 -0.7032
  662MOL0     O91226   3.570   9.731   1.866 -0.0559 -0.3796  0.3474
  662MOL0     C91227   3.546   9.690   1.999  0.2344 -0.8423 -0.6222
  662MOL0     C91228   3.449   9.778   2.075 -0.1528 -0.2135 -0.0744
  662MOL0     C91229   3.319   9.782   2.010 -0.4970 -0.0412 -0.0631
  662MOL0     C91230   3.226   9.883   2.085 -0.7211  0.4773  0.4004
  662MOL0     C91231   3.079   9.893   2.040  0.1552  0.6465 -0.9765
  662MOL0     C91232   2.978   9.784   2.090 -0.1977 -0.4621  0.4601
  662MOL0     C91233   2.848   9.803   2.016 -1.2785  0.4682 -0.2397
  662MOL0     C91234   2.748   9.707   2.092 -0.0357  0.0774  0.9939
  662MOL0     N91235   2.613   9.734   2.053 -0.4775 -0.2843 -0.3273
  662MOL0     C91236   2.566   9.820   1.951 -1.2543  0.2985  0.4926
  662MOL0     C91237   2.435   9.808   1.951  0.2613  0.5947  0.3293
  662MOL0     C91238   2.328   9.877   1.868  0.7168  0.2429 -0.5284
  662MOL0     C91239   2.289  10.006   1.938 -0.1357  0.1812  0.0985
  662MOL0     C91240   2.255  10.002   2.085  0.3359 -0.6926 -0.2824
  662MOL0     C91241   2.215  10.130   2.147 -0.0670  0.0085 -0.0169
  662MOL0     O91242   2.338  10.192   2.194  0.1997 -0.2007  0.1046
  662MOL0     C91243   2.328  10.331   2.237  0.5298  0.5404 -0.7871
  662MOL0     C91244   2.207  10.402   2.254 -0.5052 -0.2477  0.0298
  662MOL0     C91245   2.206  10.528   2.313  0.1992  1.0210 -0.0885
  662MOL0     C91246   2.072  10.578   2.346  0.1722  0.2589  0.0413
  662MOL0     C91247   2.324  10.600   2.330 -0.2770 -1.0997  0.8254
  662MOL0     C91248   2.335  10.747   2.347 -1.0010  0.6063 -0.5866
  662MOL0     O91249   2.453  10.788   2.404  0.0617 -0.3872  0.5272
  662MOL0     C91250   2.465  10.916   2.444  0.6034  0.9705 -0.1801
  662MOL0     C91251   2.535  10.991   2.354  0.0406 -0.0682  0.1315
  662MOL0     C91252   2.569  11.127   2.375 -0.0128  0.3703  0.8493
  662MOL0     C91253   2.539  11.183   2.496  0.6717  0.4680  0.6558
  662MOL0     O91254   2.566  11.316   2.504  0.9266  0.3784  0.0371
  662MOL0     C91255   2.535  11.392   2.626 -0.6224 -0.4103  1.0069
  662MOL0     C91256   2.575  11.544   2.607  0.8842  0.2305  0.5183
  662MOL0     C91257   2.716  11.576   2.569  0.2950 -0.3696 -0.3197
  662MOL0     C91258   2.804  11.536   2.684  0.0330  0.4295 -0.2484
  662MOL0     C91259   2.957  11.545   2.663 -0.5555 -0.2081  0.1227
  662MOL0     C91260   3.047  11.490   2.773  0.1251  0.3754 -0.6239
  662MOL0     C91261   3.013  11.528   2.914 -0.5414 -0.2217  0.8057
  662MOL0     C91262   3.066  11.667   2.950 -0.0958  0.4832 -0.6263
  662MOL0    Cl91263   3.223  11.660   3.031 -0.6521 -0.0342  0.7736
  662MOL0     C91264   2.476  11.105   2.592  0.0987 -0.6790  0.0472
  662MOL0     C91265   2.445  10.968   2.571 -0.4866  0.4362  0.1326
  662MOL0     O91266   2.237  10.815   2.319  0.5444 -0.3611 -0.4403
  662MOL0     C91267   2.442  10.530   2.293 -0.0066  0.2424 -0.3414
  662MOL0     C91268   2.445  10.395   2.260  0.2976 -0.6139 -0.4693
  662MOL0     N91269   2.410   9.693   2.027  0.1153  0.1049 -0.1134
  662MOL0     N91270   2.509   9.663   2.095  0.5076  0.2235  0.1986
  662MOL0     C91271   3.739   9.902   1.911  0.8385 -0.3381  1.1095
  662MOL0     C91272   3.798  10.014   1.868 -0.9582  0.0434 -0.6492
  662MOL0     C91273   3.917  10.418   1.769 -0.2497  0.8365 -0.1835
  662MOL0     C91274   3.791  10.482   1.754 -0.2875 -0.3781  0.5569
  662MOL0     C91275   3.795  10.625   1.747  0.2023 -0.7803 -0.1993
  662MOL0     C91276   3.906  10.702   1.757 -1.1378 -0.5241 -0.3102
  662MOL0     O91277   3.917  10.836   1.735 -0.0218  0.6893 -0.2819
  662MOL0     C91278   3.796  10.914   1.748 -0.0487  0.1884 -0.5487
  662MOL0     C91279   3.776  10.946   1.889 -0.1903 -1.1052 -0.7742
  662MOL0     C91280   3.684  11.072   1.909 -0.0018  0.7188 -0.1959
  662MOL0     C91281   3.651  11.111   2.046 -0.9539  0.4919 -0.1318
  662MOL0     C91282   3.767  11.116   2.143  0.1985 -0.5203  0.2666
  662MOL0     C91283   3.854  11.108   2.227  0.3529 -1.3589  0.3065
  662MOL0     C91284   4.023  10.638   1.782  0.3561 -0.1764  0.5370
  662MOL0     C91285   4.029  10.497   1.784 -0.0336 -0.2022 -0.0992
  662MOL0     C91286   4.172  10.439   1.790 -1.0192  0.2369  0.0971
  662MOL0     H91287   3.620  10.097   1.605 -1.7509 -0.7176  0.3843
  662MOL0     H91288   3.509   9.880   1.662  0.9178  0.2972  0.1725
  662MOL0     H91289   3.645   9.691   2.045 -0.6304  1.5460  1.4227
  662MOL0     H91290   3.513   9.586   2.003 -1.7076 -0.2419  0.0807
  662MOL0     H91291   3.425   9.744   2.177  0.0590  2.8705  1.1206
  662MOL0     H91292   3.499   9.874   2.086 -0.9210  0.2283 -0.3629
  662MOL0     H91293   3.330   9.824   1.910  2.8670 -0.1295  0.1378
  662MOL0     H91294   3.276   9.682   1.999  1.9362 -1.3573  1.4286
  662MOL0     H91295   3.254   9.881   2.191  1.1671  1.9649 -0.0100
  662MOL0     H91296   3.269   9.980   2.060  0.0690  0.8262  2.8163
  662MOL0     H91297   3.075   9.888   1.931 -2.5736 -2.3772 -0.9023
  662MOL0     H91298   3.046   9.993   2.071  2.8391  2.3840 -3.2485
  662MOL0     H91299   3.010   9.680   2.080 -2.3659 -1.0418 -1.2250
  662MOL0     H91300   2.970   9.810   2.196  2.1021 -2.5937  1.2559
  662MOL0     H91301   2.852   9.760   1.915 -0.7382  1.6022 -0.7263
  662MOL0     H91302   2.822   9.909   2.015  1.2027  1.1823 -2.7050
  662MOL0     H91303   2.770   9.602   2.072 -1.1057  0.2475 -1.5364
  662MOL0     H91304   2.763   9.718   2.200 -1.0717 -1.5512  1.3356
  662MOL0     H91305   2.629   9.886   1.893  0.7089 -0.6605  1.4235
  662MOL0     H91306   2.244   9.807   1.881  0.5272  0.6333  0.4422
  662MOL0     H91307   2.353   9.897   1.763  2.3766  0.9013 -0.0283
  662MOL0     H91308   2.379  10.069   1.930  0.2410  0.0307  2.4803
  662MOL0     H91309   2.205  10.042   1.878 -0.2575  0.9331  0.7029
  662MOL0     H91310   2.189   9.916   2.102  2.0214 -1.6974  1.5464
  662MOL0     H91311   2.341   9.966   2.143 -1.3996  1.1678  3.8629
  662MOL0     H91312   2.159  10.188   2.073 -0.0960  0.5536  0.4236
  662MOL0     H91313   2.134  10.110   2.218 -1.1718  1.1665 -0.9125
  662MOL0     H91314   2.120  10.357   2.207  1.0210  0.4624 -3.9413
  662MOL0     H91315   2.064  10.610   2.450 -1.5295  2.9503 -0.8155
  662MOL0     H91316   2.000  10.499   2.321 -1.5346  0.8476  2.6900
  662MOL0     H91317   2.042  10.663   2.284  0.9789 -0.4020 -1.3140
  662MOL0     H91318   2.570  10.945   2.263 -0.3543 -0.5730  0.2329
  662MOL0     H91319   2.629  11.172   2.296 -1.0394  2.1542  1.0364
  662MOL0     H91320   2.427  11.394   2.639 -0.8694  2.1434 -0.6545
  662MOL0     H91321   2.574  11.346   2.717 -0.0017 -1.1361  0.3966
  662MOL0     H91322   2.506  11.576   2.529  3.0612  1.3595 -1.0474
  662MOL0     H91323   2.550  11.600   2.697  0.3408  1.7697 -0.5552
  662MOL0     H91324   2.735  11.683   2.559  0.8193 -0.3773  0.5354
  662MOL0     H91325   2.739  11.513   2.482 -1.9219 -0.0352 -1.2281
  662MOL0     H91326   2.783  11.432   2.708  2.8580 -0.4386 -1.0801
  662MOL0     H91327   2.781  11.600   2.770 -0.4745  2.2279 -1.6480
  662MOL0     H91328   2.985  11.499   2.567  2.3382 -0.2599  0.8794
  662MOL0     H91329   2.985  11.650   2.673  0.1413 -0.5621  2.6285
  662MOL0     H91330   3.151  11.509   2.745  0.3747  2.5735  1.4523
  662MOL0     H91331   3.031  11.382   2.786  0.7791  0.5249  2.0669
  662MOL0     H91332   3.043  11.450   2.985  1.1144  0.3068  0.7366
  662MOL0     H91333   2.905  11.534   2.929 -0.8575  2.6153 -1.7474
  662MOL0     H91334   3.001  11.713   3.025 -1.3355 -2.9618  0.5845
  662MOL0     H91335   3.085  11.722   2.858  0.4679  2.8658  0.8119
  662MOL0     H91336   2.429  11.161   2.672  2.5120  2.0443 -0.2695
  662MOL0     H91337   2.397  10.908   2.648  3.5119 -0.3725  2.2624
  662MOL0     H91338   2.532  10.590   2.282 -0.5212  1.2977  1.0470
  662MOL0     H91339   2.540  10.356   2.226  1.8411 -0.4244  3.1836
  662MOL0     H91340   3.780   9.862   2.003  1.7891 -0.5754  0.5912
  662MOL0     H91341   3.878  10.053   1.931 -1.8678  2.0123 -0.6384
  662MOL0     H91342   3.691  10.441   1.756 -2.3500  3.7727 -2.1448
  662MOL0     H91343   3.698  10.669   1.725  0.7345  0.8962  0.6303
  662MOL0     H91344   3.804  11.006   1.690 -0.6664 -0.8608 -2.3731
  662MOL0     H91345   3.705  10.876   1.699 -2.8571  2.9963  2.0304
  662MOL0     H91346   3.872  10.954   1.942 -2.2976  0.1297  3.3350
  662MOL0     H91347   3.728  10.864   1.943 -2.4793  0.3764 -0.4472
  662MOL0     H91348   3.752  11.143   1.862  0.9044  0.4445  0.6721
  662MOL0     H91349   3.589  11.065   1.855 -0.6736 -0.9305  1.1339
  662MOL0     H91350   3.576  11.038   2.075  1.7359 -2.3995  0.0763
  662MOL0     H91351   3.616  11.214   2.053  0.1889  0.8186  0.9841
  662MOL0     H91352   3.925  11.095   2.307 -2.0892 -1.5049  2.6039
  662MOL0     H91353   4.110  10.702   1.784 -0.1195  0.7049 -2.3275
  662MOL0     H91354   4.242  10.516   1.757  0.3591 -2.0716 -2.7700
  662MOL0     H91355   4.186  10.415   1.896  2.8870 -0.4759 -0.4132
  662MOL0     H91356   4.186  10.360   1.716  0.8628 -0.3504  1.0086
  663MOL0     O91357   1.374   6.485   2.870 -0.5879 -0.0957 -0.6760
  663MOL0     C91358   1.408   6.589   2.815  0.0854 -0.3039 -0.6090
  663MOL0     O91359   1.331   6.706   2.831 -1.1447  0.8692  0.3459
  663MOL0     C91360   1.217   6.687   2.914 -0.7611  0.1076  0.5936
  663MOL0     C91361   1.097   6.664   2.844  0.6156  0.1278 -0.8556
  663MOL0     C91362   0.980   6.648   2.926 -0.8957  0.5440  0.5396
  663MOL0     C91363   0.983   6.670   3.061  0.0580  0.4447  0.1446
  663MOL0     O91364   0.860   6.674   3.111 -0.4897 -0.0411 -0.5772
  663MOL0     C91365   0.830   6.586   3.217  1.0467 -0.0357  0.0651
  663MOL0     C91366   0.685   6.594   3.278  0.5220  0.3693  0.9195
  663MOL0     C91367   0.575   6.611   3.166 -0.3242 -0.0657 -0.6329
  663MOL0     C91368   0.520   6.754   3.147 -0.1242 -0.8134  0.0338
  663MOL0     C91369   0.406   6.760   3.037  0.0274  0.2892  0.4053
  663MOL0     C91370   0.273   6.724   3.101 -0.1881 -0.1111  0.0557
  663MOL0     C91371   0.136   6.750   3.019 -0.1572  0.5371 -0.9479
  663MOL0     C91372   0.110   6.656   2.887  0.2002  0.3419  0.1111
  663MOL0     N91373   0.101   6.505   2.917 -0.5058 -0.0675  0.4730
  663MOL0     C91374   0.044   6.452   3.027  0.4668  0.8885 -0.2305
  663MOL0     C91375   0.062   6.315   3.008  0.1237 -1.1183 -0.3236
  663MOL0     C91376  -0.001   6.224   3.110 -0.2916  0.3950 -0.4173
  663MOL0     C91377  -0.032   6.087   3.044 -0.1535  0.3383 -0.5589
  663MOL0     C91378  -0.149   6.084   2.934 -0.3507  0.8452  0.4936
  663MOL0     C91379  -0.295   6.054   2.985 -0.5607 -0.2422 -0.8898
  663MOL0     O91380  -0.346   6.140   3.082 -0.0713  0.4726 -0.4740
  663MOL0     C91381  -0.403   6.258   3.049 -0.5279  0.2848  0.2391
  663MOL0     C91382  -0.323   6.365   2.992 -0.2618 -0.6826 -0.0852
  663MOL0     C91383  -0.390   6.480   2.960  0.8934 -0.1030 -0.7085
  663MOL0     C91384  -0.304   6.592   2.918  0.9792  1.0425 -0.0887
  663MOL0     C91385  -0.530   6.488   2.965  0.0447 -0.2066 -0.4484
  663MOL0     C91386  -0.607   6.599   2.942 -0.7675 -1.2893 -0.1535
  663MOL0     O91387  -0.614   6.654   2.818  0.6547  0.4478  0.6132
  663MOL0     C91388  -0.702   6.763   2.814 -1.0272  0.1484 -0.3064
  663MOL0     C91389  -0.642   6.891   2.803  0.2250  0.4117  0.1262
  663MOL0     C91390  -0.719   7.014   2.803  0.6582  0.2742 -0.6888
  663MOL0     C91391  -0.860   7.001   2.798 -0.0706 -0.3805 -1.1128
  663MOL0     O91392  -0.928   7.119   2.807  0.9991  0.1940 -0.4726
  663MOL0     C91393  -1.055   7.150   2.740  0.6425 -0.3610 -0.2716
  663MOL0     C91394  -1.142   7.237   2.833 -0.1664 -0.0829  0.2027
  663MOL0     C91395  -1.121   7.222   2.986 -0.0183 -0.8719  1.1037
  663MOL0     C91396  -1.236   7.298   3.054 -1.1861 -0.0074 -0.9398
  663MOL0     C91397  -1.216   7.290   3.214 -0.6509  0.0576  0.2987
  663MOL0     C91398  -1.318   7.384   3.281 -0.1749 -0.2903 -0.0255
  663MOL0     C91399  -1.455   7.318   3.281  0.2234 -0.4801 -0.4062
  663MOL0     C91400  -1.558   7.371   3.369  0.4933 -1.8541 -0.0167
  663MOL0    Cl91401  -1.556   7.546   3.323 -0.1958 -0.3141  0.3822
  663MOL0     C91402  -0.922   6.876   2.793  0.8275  0.1830 -0.4497
  663MOL0     C91403  -0.845   6.757   2.821  0.1104 -0.7276 -0.1188
  663MOL0     O91404  -0.654   6.648   3.045 -0.3384  0.3101  0.0063
  663MOL0     C91405  -0.605   6.377   3.011 -0.6089  0.2911  0.1991
  663MOL0     C91406  -0.536   6.267   3.050  0.3145  0.5249 -0.5439
  663MOL0     N91407   0.114   6.288   2.873 -0.6019 -0.1444 -0.8073
  663MOL0     N91408   0.138   6.409   2.823 -0.3599 -0.3812  0.3930
  663MOL0     C91409   1.103   6.713   3.130 -0.4542 -0.3351 -0.1002
  663MOL0     C91410   1.219   6.713   3.049 -0.0286  0.5675  0.3064
  663MOL0     C91411   1.527   6.594   2.726  0.6242 -0.4582  0.2189
  663MOL0     C91412   1.521   6.684   2.624  0.3173  0.4799 -0.0361
  663MOL0     C91413   1.634   6.723   2.546  1.3903 -0.2253 -0.9640
  663MOL0     C91414   1.742   6.636   2.535  0.5560 -0.1967 -1.1948
  663MOL0     O91415   1.846   6.656   2.452  0.1813  0.6942  0.2277
  663MOL0     C91416   1.859   6.760   2.368 -0.0212 -0.7660  0.5846
  663MOL0     C91417   1.922   6.885   2.434  0.4393 -0.0223 -0.7918
  663MOL0     C91418   1.860   7.024   2.393 -0.3749  0.9039  0.6243
  663MOL0     C91419   1.819   7.046   2.249 -1.5014 -1.1225  0.4018
  663MOL0     C91420   1.930   7.019   2.158 -0.1113  0.4663 -0.3591
  663MOL0     C91421   2.026   7.017   2.079 -0.4480 -0.7067 -0.5076
  663MOL0     C91422   1.747   6.534   2.629 -0.7785 -0.4024  0.5336
  663MOL0     C91423   1.647   6.512   2.730  0.4093 -1.2927 -0.0179
  663MOL0     C91424   1.671   6.402   2.832  0.6523  0.3813 -0.4982
  663MOL0     H91425   1.071   6.668   2.739 -1.3681  0.5959 -0.3871
  663MOL0     H91426   0.883   6.637   2.880 -1.5387  0.8985  1.7599
  663MOL0     H91427   0.905   6.602   3.295  0.8782  1.5553 -0.0785
  663MOL0     H91428   0.836   6.480   3.189 -3.6120  0.0177 -2.0665
  663MOL0     H91429   0.668   6.509   3.344 -0.0506  0.3057  0.6919
  663MOL0     H91430   0.669   6.690   3.328 -0.5976  1.6748 -1.7507
  663MOL0     H91431   0.613   6.581   3.068  0.2422  1.8578 -1.0501
  663MOL0     H91432   0.493   6.542   3.188 -0.8600  0.5079 -0.7907
  663MOL0     H91433   0.483   6.788   3.244 -0.6999 -2.1428  0.3029
  663MOL0     H91434   0.597   6.819   3.105  0.9281 -2.3459 -0.5182
  663MOL0     H91435   0.422   6.685   2.959 -0.4493 -2.7046  3.0013
  663MOL0     H91436   0.404   6.864   3.004 -1.8974  0.7594  1.7937
  663MOL0     H91437   0.276   6.619   3.130 -0.0200  0.0107  0.4828
  663MOL0     H91438   0.279   6.791   3.187  2.1226  3.1201 -2.3639
  663MOL0     H91439   0.131   6.854   2.983  1.7523  0.3392 -1.9215
  663MOL0     H91440   0.051   6.739   3.086  0.7477  2.3362  0.6080
  663MOL0     H91441   0.018   6.681   2.834  0.1911 -4.0302 -2.4479
  663MOL0     H91442   0.189   6.677   2.814 -0.0812  0.2655 -0.2190
  663MOL0     H91443   0.004   6.509   3.110  0.6965  0.8800 -0.1143
  663MOL0     H91444  -0.095   6.264   3.148  0.4100  1.6496  0.0629
  663MOL0     H91445   0.071   6.224   3.193  0.2668  1.0609 -0.8863
  663MOL0     H91446   0.057   6.047   2.994  0.0507  1.9105 -1.5264
  663MOL0     H91447  -0.059   6.016   3.123 -1.4749  2.7096  1.2393
  663MOL0     H91448  -0.152   6.176   2.875  2.0888 -1.6410 -4.0092
  663MOL0     H91449  -0.115   6.001   2.873 -0.0254  1.3870 -0.0754
  663MOL0     H91450  -0.361   6.052   2.898 -1.5078 -1.9081 -0.1765
  663MOL0     H91451  -0.294   5.956   3.034  2.6755  2.0869  4.5593
  663MOL0     H91452  -0.215   6.360   2.984  0.0210  3.0347 -0.1557
  663MOL0     H91453  -0.359   6.638   2.835  3.8234  1.7232 -1.7217
  663MOL0     H91454  -0.206   6.549   2.893  0.8773  0.6959  0.1004
  663MOL0     H91455  -0.301   6.662   3.002 -0.4132  2.9807 -1.5788
  663MOL0     H91456  -0.535   6.889   2.782  0.1256 -1.7413 -0.3346
  663MOL0     H91457  -0.663   7.107   2.813 -1.0402  1.4863 -1.9959
  663MOL0     H91458  -1.028   7.199   2.646 -0.2041  0.9042  0.1258
  663MOL0     H91459  -1.103   7.060   2.700  2.2729  0.0588 -3.5894
  663MOL0     H91460  -1.135   7.340   2.798 -0.2697 -0.9751 -2.7099
  663MOL0     H91461  -1.246   7.205   2.821  0.2986 -1.6439  0.0676
  663MOL0     H91462  -1.023   7.255   3.024 -0.8080 -0.4163  2.8671
  663MOL0     H91463  -1.119   7.116   3.013  1.6202 -0.9921  0.6068
  663MOL0     H91464  -1.333   7.255   3.025 -0.3682 -0.3043 -3.4684
  663MOL0     H91465  -1.209   7.396   3.013  0.2454  0.2228  0.4549
  663MOL0     H91466  -1.204   7.188   3.251  4.0605 -0.0913 -0.9821
  663MOL0     H91467  -1.112   7.323   3.228 -0.5991 -0.1304  0.3734
  663MOL0     H91468  -1.315   7.483   3.233  1.5020 -0.4933 -0.4062
  663MOL0     H91469  -1.298   7.385   3.389  1.1575 -1.4695 -0.2351
  663MOL0     H91470  -1.451   7.218   3.325  1.8089 -0.8029 -1.2205
  663MOL0     H91471  -1.505   7.322   3.183 -1.7489  0.5984  0.5840
  663MOL0     H91472  -1.528   7.353   3.473  2.0249  0.1871 -0.0468
  663MOL0     H91473  -1.654   7.323   3.349  0.9958 -3.4147  1.1703
  663MOL0     H91474  -1.029   6.864   2.782  1.2909 -3.3020 -2.3936
  663MOL0     H91475  -0.904   6.666   2.822  2.8579 -2.6250 -0.2060
  663MOL0     H91476  -0.713   6.370   3.006 -0.6409  1.1761 -0.4715
  663MOL0     H91477  -0.598   6.185   3.085  0.9722  0.6505  1.0047
  663MOL0     H91478   1.108   6.734   3.236 -2.1145 -0.1140 -0.0332
  663MOL0     H91479   1.316   6.737   3.091  0.4508  0.5895 -0.7647
  663MOL0     H91480   1.440   6.755   2.612  1.3842  1.4102 -2.2385
  663MOL0     H91481   1.628   6.813   2.486  0.0325 -0.2677 -0.9169
  663MOL0     H91482   1.912   6.730   2.277  1.5452  0.1410  1.1709
  663MOL0     H91483   1.756   6.769   2.331  0.3180 -2.1429 -0.7815
  663MOL0     H91484   2.030   6.881   2.417  1.5845  1.9473  4.1941
  663MOL0     H91485   1.910   6.871   2.542  0.4888 -1.8914 -1.0052
  663MOL0     H91486   1.773   7.043   2.458 -1.1703 -0.0014 -0.1460
  663MOL0     H91487   1.933   7.097   2.429  3.2932 -1.0243 -2.2878
  663MOL0     H91488   1.784   7.150   2.242 -1.8112 -0.7540  4.5311
  663MOL0     H91489   1.727   6.994   2.221 -2.4566  1.4888 -1.7419
  663MOL0     H91490   2.110   7.015   2.013  1.0990  0.3296  1.3309
  663MOL0     H91491   1.839   6.479   2.615 -0.7204 -0.1793  0.0415
  663MOL0     H91492   1.674   6.446   2.932 -3.8631  0.6347 -0.2980
  663MOL0     H91493   1.594   6.326   2.817  1.1046 -0.0590 -0.6227
  663MOL0     H91494   1.770   6.359   2.815 -0.0305 -1.2098 -0.5981
  664MOL0     O91495   6.333  11.521  11.409 -0.2563 -0.4847  0.1957
  664MOL0     C91496   6.234  11.458  11.378 -0.7996 -0.4214  0.3239
  664MOL0     O91497   6.155  11.397  11.464  0.6608 -0.0673  0.6514
  664MOL0     C91498   6.156  11.416  11.594 -0.7467 -0.5219 -0.3771
  664MOL0     C91499   6.269  11.409  11.686 -1.0481 -0.0173  0.0483
  664MOL0     C91500   6.258  11.425  11.823  0.4638 -0.4633 -0.2669
  664MOL0     C91501   6.134  11.448  11.876 -0.2021  0.2188 -0.1215
  664MOL0     O91502   6.126  11.481  12.015 -0.9565  0.9276  0.1702
  664MOL0     C91503   6.094  11.376  12.105 -0.6897  0.1736 -0.5430
  664MOL0     C91504   6.203  11.355  12.209  0.3650  0.3030 -1.0157
  664MOL0     C91505   6.197  11.453  12.324 -0.0460  0.6531  0.0698
  664MOL0     C91506   6.237  11.595  12.283 -1.1376 -0.4194 -0.5380
  664MOL0     C91507   6.384  11.611  12.240  0.0357  0.4387  0.1544
  664MOL0     C91508   6.409  11.755  12.235 -0.2916 -0.8295 -0.8124
  664MOL0     C91509   6.439  11.812  12.373  1.0496  0.7746  0.3875
  664MOL0     C91510   6.430  11.969  12.376  0.3818 -0.3056 -0.6775
  664MOL0     N91511   6.533  12.036  12.289  0.1376  0.1764  0.3110
  664MOL0     C91512   6.518  12.061  12.154 -0.5928  0.4784  0.1663
  664MOL0     C91513   6.639  12.121  12.118 -0.3447 -0.1303  0.9495
  664MOL0     C91514   6.685  12.161  11.980 -0.1399 -1.0959 -1.2930
  664MOL0     C91515   6.671  12.048  11.880 -0.3963 -0.4065 -1.0320
  664MOL0     C91516   6.721  12.102  11.749 -0.5443 -1.0822  0.0713
  664MOL0     C91517   6.631  12.061  11.633  0.9821 -0.7002  0.1464
  664MOL0     O91518   6.643  12.142  11.516  0.1410 -0.4341  0.6556
  664MOL0     C91519   6.588  12.089  11.403 -0.9230 -0.4353 -0.4636
  664MOL0     C91520   6.655  12.108  11.287 -0.0289  0.4787  0.4604
  664MOL0     C91521   6.618  12.042  11.165  0.5830 -0.1465 -0.7105
  664MOL0     C91522   6.695  12.074  11.041 -0.4808  0.4462  0.3449
  664MOL0     C91523   6.504  11.953  11.165 -0.0865 -0.0579  0.3213
  664MOL0     C91524   6.452  11.878  11.055  0.3008  0.7236 -0.0113
  664MOL0     O91525   6.533  11.876  10.941 -0.9500  0.2475 -0.1600
  664MOL0     C91526   6.482  11.816  10.829 -0.6849  0.1499 -0.6009
  664MOL0     C91527   6.393  11.897  10.746 -0.5770  0.3298 -0.7449
  664MOL0     C91528   6.388  11.863  10.606  0.5490 -0.0689 -0.1322
  664MOL0     C91529   6.459  11.753  10.556 -0.3951 -0.1971  0.7382
  664MOL0     O91530   6.439  11.730  10.422  1.6308 -0.0821 -0.7211
  664MOL0     C91531   6.495  11.622  10.356  0.2534  0.1057  0.4020
  664MOL0     C91532   6.438  11.485  10.408  0.8465 -0.0997  0.1280
  664MOL0     C91533   6.367  11.408  10.294 -1.2589 -0.0804 -0.7450
  664MOL0     C91534   6.290  11.292  10.341  0.1789 -0.0260  0.0074
  664MOL0     C91535   6.209  11.210  10.239 -0.1896 -0.6077  0.3719
  664MOL0     C91536   6.139  11.089  10.305  0.2462  0.0900  0.5641
  664MOL0     C91537   6.113  10.972  10.204 -0.3709  0.4112 -0.2109
  664MOL0     C91538   6.106  10.838  10.294  1.0414 -0.0888  0.1450
  664MOL0    Cl91539   5.929  10.817  10.360 -0.3530  0.0614 -0.1389
  664MOL0     C91540   6.538  11.676  10.641  0.3310 -0.0973 -0.8819
  664MOL0     C91541   6.548  11.703  10.778 -0.0020  0.1445 -0.4822
  664MOL0     O91542   6.345  11.811  11.067  0.1738 -0.1816  0.3145
  664MOL0     C91543   6.434  11.943  11.287 -0.2499 -0.5093 -0.4058
  664MOL0     C91544   6.472  12.005  11.409 -0.0077  0.3734  0.5857
  664MOL0     N91545   6.720  12.114  12.228 -0.2550 -0.0594 -0.5122
  664MOL0     N91546   6.659  12.075  12.330  0.3974 -0.2403  0.6634
  664MOL0     C91547   6.022  11.443  11.798  0.8868 -0.6200 -0.5995
  664MOL0     C91548   6.029  11.416  11.663  0.5982 -0.9164  0.9989
  664MOL0     C91549   6.199  11.428  11.235  0.1240 -0.0934 -0.0155
  664MOL0     C91550   6.053  11.389  11.220  0.2584 -0.0661  0.0976
  664MOL0     C91551   6.001  11.364  11.091  1.1650 -0.2377  0.6675
  664MOL0     C91552   6.088  11.358  10.987  0.2528  0.1938  0.3857
  664MOL0     O91553   6.048  11.310  10.867 -0.4699 -0.6279 -0.0210
  664MOL0     C91554   5.914  11.267  10.837  0.9213 -0.3456 -0.1056
  664MOL0     C91555   5.920  11.203  10.698 -1.3510 -1.0496  0.1833
  664MOL0     C91556   5.945  11.055  10.692 -0.0744  0.7717  0.3280
  664MOL0     C91557   6.073  11.013  10.773  0.4124  0.5160  0.3613
  664MOL0     C91558   6.116  10.888  10.714 -0.5104 -0.1585 -0.3580
  664MOL0     C91559   6.145  10.776  10.672  0.1860  0.2779 -0.1125
  664MOL0     C91560   6.223  11.388  10.998  0.2416 -0.5699  0.1543
  664MOL0     C91561   6.270  11.444  11.119  0.2579  0.0525  0.1900
  664MOL0     C91562   6.408  11.508  11.124 -0.0569  0.0792 -0.1666
  664MOL0     H91563   6.369  11.404  11.645 -0.8065  4.3858 -0.3079
  664MOL0     H91564   6.349  11.418  11.882  0.8585 -1.3908 -0.9791
  664MOL0     H91565   6.085  11.275  12.063 -1.3268 -2.1963  4.5500
  664MOL0     H91566   5.998  11.397  12.154 -0.5491  1.2102 -0.7018
  664MOL0     H91567   6.181  11.258  12.255  3.9045 -0.0561  0.2271
  664MOL0     H91568   6.303  11.331  12.174 -0.5944 -1.5818 -2.6888
  664MOL0     H91569   6.095  11.456  12.366  0.1730  0.9456  0.5979
  664MOL0     H91570   6.264  11.409  12.398 -0.3826 -0.8313 -0.4828
  664MOL0     H91571   6.170  11.637  12.208  0.8047  2.8691 -0.6375
  664MOL0     H91572   6.217  11.654  12.374 -3.0730 -1.0319 -0.5318
  664MOL0     H91573   6.399  11.566  12.141  1.3013  2.1695 -0.4809
  664MOL0     H91574   6.439  11.549  12.311  1.3601  2.3163  0.8442
  664MOL0     H91575   6.501  11.764  12.175  0.1957 -1.8069 -0.2333
  664MOL0     H91576   6.348  11.816  12.167  2.5451  2.6322 -0.5553
  664MOL0     H91577   6.543  11.787  12.396  0.6514  0.1927  1.6626
  664MOL0     H91578   6.365  11.777  12.446 -0.8125  0.0585 -1.7242
  664MOL0     H91579   6.326  11.994  12.353  0.9055  0.8996 -1.8261
  664MOL0     H91580   6.442  12.003  12.479  0.8315  1.0788 -1.1591
  664MOL0     H91581   6.435  12.032  12.090  0.8071 -2.4253 -0.4592
  664MOL0     H91582   6.787  12.200  11.988 -1.1850  1.5447 -0.1692
  664MOL0     H91583   6.615  12.238  11.948 -0.7734 -0.7454  0.7977
  664MOL0     H91584   6.733  11.962  11.907 -3.1224 -1.8242  1.2196
  664MOL0     H91585   6.568  12.014  11.876 -0.5852  0.2676 -3.4112
  664MOL0     H91586   6.714  12.210  11.757  1.6629 -0.7756 -1.2374
  664MOL0     H91587   6.829  12.093  11.735 -0.0625 -0.5598  2.8844
  664MOL0     H91588   6.638  11.954  11.610  0.8513 -0.3962 -1.4315
  664MOL0     H91589   6.525  12.065  11.661  1.0862  1.2086  0.3968
  664MOL0     H91590   6.742  12.172  11.301 -1.9222  2.8033  2.5011
  664MOL0     H91591   6.765  11.994  11.018 -1.8183 -0.5339 -0.4848
  664MOL0     H91592   6.753  12.166  11.054 -1.7768  1.7585 -2.3697
  664MOL0     H91593   6.630  12.099  10.957  3.0700  4.5298 -1.5985
  664MOL0     H91594   6.338  11.986  10.776 -0.1364 -0.0798  1.4783
  664MOL0     H91595   6.337  11.915  10.525  0.4267 -0.3372 -0.2293
  664MOL0     H91596   6.468  11.644  10.252 -2.5003  0.3175  1.0881
  664MOL0     H91597   6.604  11.623  10.368  0.2018  3.3809  1.7677
  664MOL0     H91598   6.522  11.427  10.447 -0.1020 -1.9751 -0.5371
  664MOL0     H91599   6.364  11.508  10.484  1.2111 -1.2577  0.8549
  664MOL0     H91600   6.438  11.378  10.217  0.9428  1.4441  0.5647
  664MOL0     H91601   6.308  11.482  10.240 -0.6348 -0.1774 -1.5839
  664MOL0     H91602   6.226  11.332  10.421 -0.6906  0.0222 -0.6938
  664MOL0     H91603   6.355  11.220  10.391 -1.3498 -0.6351  1.2068
  664MOL0     H91604   6.131  11.266  10.188 -2.1263  1.7096  5.1764
  664MOL0     H91605   6.281  11.181  10.162  1.9418  1.1785  1.5570
  664MOL0     H91606   6.039  11.117  10.339  0.9664 -0.0013  2.9316
  664MOL0     H91607   6.198  11.060  10.392  0.3681  0.0077  0.4543
  664MOL0     H91608   6.208  10.955  10.153  1.3842  1.4005  2.5034
  664MOL0     H91609   6.022  10.982  10.143  0.5587 -1.3375 -2.0128
  664MOL0     H91610   6.167  10.859  10.382  0.2852  1.7379  0.2779
  664MOL0     H91611   6.136  10.757  10.227  0.9784 -0.3657  0.4489
  664MOL0     H91612   6.591  11.593  10.596  0.6927 -1.1243  1.3422
  664MOL0     H91613   6.600  11.660  10.863 -3.6937 -1.5091  1.1627
  664MOL0     H91614   6.354  11.872  11.303  0.7657 -1.1573  2.3371
  664MOL0     H91615   6.420  11.995  11.503  2.6459  1.3467  2.2682
  664MOL0     H91616   5.926  11.456  11.848  0.8240  0.7161 -1.0290
  664MOL0     H91617   5.937  11.402  11.607  1.3296 -0.5469 -0.3309
  664MOL0     H91618   5.987  11.374  11.304  2.0925 -4.4148  1.0520
  664MOL0     H91619   5.895  11.341  11.082  0.1895  3.6044  0.5050
  664MOL0     H91620   5.880  11.189  10.907  0.9159 -0.0374  0.2366
  664MOL0     H91621   5.844  11.351  10.846  1.3484  0.2418 -1.9610
  664MOL0     H91622   6.006  11.244  10.645  0.2188  0.0653  3.3328
  664MOL0     H91623   5.832  11.219  10.636 -1.8621 -1.4122  0.8005
  664MOL0     H91624   5.857  11.001  10.730  2.2592 -2.3694  1.6737
  664MOL0     H91625   5.957  11.032  10.586 -0.5278  1.8755  0.0230
  664MOL0     H91626   6.046  11.004  10.878 -4.0910  0.8575 -0.5552
  664MOL0     H91627   6.155  11.085  10.766  0.4234  0.4737  0.0227
  664MOL0     H91628   6.172  10.677  10.641 -1.2075 -0.3462  0.5382
  664MOL0     H91629   6.289  11.371  10.914 -0.2951  0.9542 -0.6140
  664MOL0     H91630   6.483  11.432  11.144 -1.2906 -1.8787 -2.4590
  664MOL0     H91631   6.438  11.549  11.027 -1.5018 -2.0862 -1.6052
  664MOL0     H91632   6.404  11.593  11.193  2.4637  0.2262 -0.1346
  665MOL0     O91633   6.445   9.152   2.534  0.4116  0.2927  0.0108
  665MOL0     C91634   6.496   9.052   2.568 -0.1636  0.5347 -1.3156
  665MOL0     O91635   6.455   8.977   2.682  0.1611  0.2019 -0.6992
  665MOL0     C91636   6.325   9.001   2.725  0.2916 -0.4695 -0.4768
  665MOL0     C91637   6.237   8.891   2.727 -0.1041  0.1214  0.9147
  665MOL0     C91638   6.113   8.901   2.785  1.2678 -0.2815 -0.4295
  665MOL0     C91639   6.079   9.022   2.860  0.5343  0.0767  0.4537
  665MOL0     O91640   5.966   9.039   2.928 -0.2220 -0.1409  0.3124
  665MOL0     C91641   5.847   8.980   2.879  0.0103  0.3020 -0.6637
  665MOL0     C91642   5.723   9.032   2.957  0.9527  1.2159 -0.1608
  665MOL0     C91643   5.586   8.975   2.923 -0.2753 -0.1528 -0.9308
  665MOL0     C91644   5.480   9.079   2.976  0.4005 -0.3091 -0.9811
  665MOL0     C91645   5.348   9.006   2.968  0.2091 -0.0581 -0.3397
  665MOL0     C91646   5.227   9.101   2.990  0.3268  0.7917  1.0350
  665MOL0     C91647   5.193   9.199   2.874 -0.2223 -0.5113 -0.9121
  665MOL0     C91648   5.144   9.126   2.755 -0.8110 -1.0486  0.2316
  665MOL0     N91649   5.127   9.230   2.660  0.5598  0.0464  0.1767
  665MOL0     C91650   5.055   9.345   2.676 -1.0006 -0.7785  0.6399
  665MOL0     C91651   5.091   9.429   2.568 -0.1426  0.3088 -0.6735
  665MOL0     C91652   5.021   9.548   2.525  0.3780  0.2785 -0.4448
  665MOL0     C91653   4.983   9.559   2.375 -0.5666  0.1508 -0.0454
  665MOL0     C91654   4.902   9.451   2.314 -0.2993 -0.6429 -0.2535
  665MOL0     C91655   4.762   9.421   2.376 -0.7324  0.2383 -0.8731
  665MOL0     O91656   4.672   9.527   2.386 -0.3734 -0.0273  0.1522
  665MOL0     C91657   4.613   9.591   2.291 -0.3009 -0.3931  0.0239
  665MOL0     C91658   4.609   9.547   2.155  0.0882 -0.9170  0.4154
  665MOL0     C91659   4.569   9.626   2.048  0.5025 -0.5741  0.4426
  665MOL0     C91660   4.582   9.561   1.907 -0.2998 -0.4967 -0.1333
  665MOL0     C91661   4.513   9.752   2.085 -0.6446  0.5759  0.2457
  665MOL0     C91662   4.454   9.831   1.982 -1.3265  0.7796  0.5141
  665MOL0     O91663   4.529   9.850   1.874 -0.3933 -0.4454  1.1187
  665MOL0     C91664   4.506   9.955   1.787 -0.3863  0.5852 -0.5436
  665MOL0     C91665   4.458  10.084   1.823  0.8860  0.1109 -0.4455
  665MOL0     C91666   4.433  10.181   1.726 -0.8010  0.8064  0.3234
  665MOL0     C91667   4.458  10.163   1.593  0.2784 -0.3265 -0.4810
  665MOL0     O91668   4.447  10.279   1.516 -0.0380 -0.8713 -0.0123
  665MOL0     C91669   4.550  10.299   1.418  0.0482 -0.9303 -0.0410
  665MOL0     C91670   4.541  10.250   1.271  0.5097  0.6460 -0.0712
  665MOL0     C91671   4.595  10.341   1.158 -0.2608 -0.2366  0.0665
  665MOL0     C91672   4.733  10.412   1.197  0.4037  0.0737  0.3602
  665MOL0     C91673   4.848  10.324   1.223 -0.7840 -0.0507 -0.1934
  665MOL0     C91674   4.910  10.297   1.085  0.1995  0.0944  0.1844
  665MOL0     C91675   5.005  10.183   1.083 -0.1695  0.1651  0.4421
  665MOL0     C91676   5.048  10.147   0.940  0.0103 -0.3674 -0.5177
  665MOL0    Cl91677   5.149   9.985   0.932 -0.3880  0.0038 -0.2154
  665MOL0     C91678   4.518  10.042   1.555 -0.0246 -0.6231  0.1545
  665MOL0     C91679   4.542   9.942   1.654  0.2558  0.2868  0.5044
  665MOL0     O91680   4.337   9.875   2.003 -0.2365 -0.3991  0.5131
  665MOL0     C91681   4.503   9.787   2.220 -0.5123 -0.2503  0.7757
  665MOL0     C91682   4.561   9.712   2.323  0.7943 -0.1214  1.0384
  665MOL0     N91683   5.188   9.358   2.497 -0.2712 -0.3601 -0.6052
  665MOL0     N91684   5.205   9.239   2.549 -0.7467 -0.6384  0.3929
  665MOL0     C91685   6.174   9.120   2.871  0.6810  0.7932 -0.7656
  665MOL0     C91686   6.295   9.108   2.802 -1.3112 -0.5966  1.2871
  665MOL0     C91687   6.622   9.001   2.514 -0.7342  0.4591 -0.5359
  665MOL0     C91688   6.681   8.887   2.572  0.2576 -0.6759 -1.0145
  665MOL0     C91689   6.806   8.843   2.532  0.3906 -0.9297 -0.1760
  665MOL0     C91690   6.881   8.903   2.440  0.2465 -0.3050  0.4118
  665MOL0     O91691   7.004   8.862   2.391  0.7574 -0.5323  0.3594
  665MOL0     C91692   7.055   8.736   2.416  0.7404  0.7198 -0.2881
  665MOL0     C91693   7.006   8.622   2.315 -0.0491  0.3139  0.4407
  665MOL0     C91694   7.070   8.484   2.348  0.5723  0.4261 -0.5935
  665MOL0     C91695   7.053   8.393   2.231 -0.1180 -0.5393  0.9937
  665MOL0     C91696   7.111   8.248   2.245  0.4028  0.2621 -0.0731
  665MOL0     C91697   7.121   8.127   2.263  1.1672  0.0712 -0.2760
  665MOL0     C91698   6.833   9.025   2.388 -0.3160 -0.1838  0.4793
  665MOL0     C91699   6.705   9.076   2.417  0.1914  0.8620  0.9770
  665MOL0     C91700   6.664   9.200   2.345  1.1914 -1.1049 -0.4359
  665MOL0     H91701   6.263   8.805   2.666  0.1206  1.2388 -0.6307
  665MOL0     H91702   6.052   8.811   2.781 -0.4411  0.7022  1.5959
  665MOL0     H91703   5.865   8.873   2.895 -0.8204  0.1023 -1.0142
  665MOL0     H91704   5.839   8.998   2.772  1.8684 -2.5995 -1.4212
  665MOL0     H91705   5.736   8.996   3.060 -0.8142  0.9714  0.0106
  665MOL0     H91706   5.717   9.141   2.956  1.7765  1.2944  0.9329
  665MOL0     H91707   5.585   8.960   2.815  2.7881 -2.0914 -0.7796
  665MOL0     H91708   5.572   8.881   2.976 -1.9751  0.9816  0.7825
  665MOL0     H91709   5.492   9.112   3.080 -2.2391 -0.9696 -0.3994
  665MOL0     H91710   5.486   9.173   2.919  2.2560  1.7858  2.3282
  665MOL0     H91711   5.349   8.919   3.035 -2.7157 -0.5013 -0.7282
  665MOL0     H91712   5.325   8.971   2.867 -1.0340  1.6109 -0.6777
  665MOL0     H91713   5.135   9.047   3.015  0.0264  0.5758 -0.4670
  665MOL0     H91714   5.238   9.164   3.079  0.8720  2.1575  0.0278
  665MOL0     H91715   5.276   9.266   2.848 -0.7241  2.0074  3.0617
  665MOL0     H91716   5.117   9.263   2.919  0.1147 -0.3192 -0.6138
  665MOL0     H91717   5.211   9.056   2.706  1.2038  1.9515 -1.6212
  665MOL0     H91718   5.053   9.075   2.790 -2.3207  0.1472 -1.7246
  665MOL0     H91719   4.976   9.372   2.746  2.3262  1.6415  3.8180
  665MOL0     H91720   5.097   9.625   2.544  0.5739 -0.1564  0.5824
  665MOL0     H91721   4.943   9.564   2.600 -3.5117 -4.0873 -3.0195
  665MOL0     H91722   4.927   9.652   2.372 -0.1697  0.3880 -0.1410
  665MOL0     H91723   5.073   9.566   2.313  0.7366  2.8430  1.9550
  665MOL0     H91724   4.892   9.476   2.208  1.0973 -2.0717 -0.7616
  665MOL0     H91725   4.950   9.353   2.316  0.3897 -0.3964 -2.3618
  665MOL0     H91726   4.716   9.333   2.332  0.1359 -0.1464 -1.0310
  665MOL0     H91727   4.795   9.397   2.478 -2.5494  1.6053  0.1045
  665MOL0     H91728   4.638   9.449   2.119  0.3951 -1.9699  3.2564
  665MOL0     H91729   4.489   9.572   1.851 -1.3083  0.9087  1.7147
  665MOL0     H91730   4.615   9.458   1.891  2.2869  0.2696 -0.3300
  665MOL0     H91731   4.645   9.628   1.847  0.8191 -0.1136  1.4219
  665MOL0     H91732   4.444  10.104   1.929  1.3428 -0.3855 -0.2876
  665MOL0     H91733   4.400  10.282   1.746 -3.2118  0.1249  0.0608
  665MOL0     H91734   4.563  10.407   1.406  2.2769 -0.8886  2.0231
  665MOL0     H91735   4.648  10.266   1.454  2.1882  1.5740 -3.0245
  665MOL0     H91736   4.582  10.149   1.269 -0.6609  0.1627 -1.1555
  665MOL0     H91737   4.436  10.229   1.249 -0.0442  3.9722 -1.1959
  665MOL0     H91738   4.526  10.419   1.127  0.6653  0.5018 -0.1635
  665MOL0     H91739   4.610  10.283   1.067 -1.5782  0.1897 -0.4562
  665MOL0     H91740   4.714  10.483   1.278  0.0351  1.1911 -0.6834
  665MOL0     H91741   4.753  10.479   1.113 -1.9149  2.2288  1.3871
  665MOL0     H91742   4.910  10.381   1.294 -1.8300  3.3972 -1.8372
  665MOL0     H91743   4.828  10.229   1.273  0.2424 -0.0672  0.2250
  665MOL0     H91744   4.957  10.391   1.056 -0.1955  0.6177  1.1768
  665MOL0     H91745   4.827  10.278   1.016 -1.8350 -1.6085  2.8409
  665MOL0     H91746   4.963  10.089   1.120  1.1998 -0.9946 -0.8256
  665MOL0     H91747   5.088  10.213   1.148 -0.3729  2.9611 -0.4401
  665MOL0     H91748   5.099  10.230   0.890 -0.0438 -0.4287 -0.6775
  665MOL0     H91749   4.959  10.121   0.882  0.1348 -1.8530 -0.0695
  665MOL0     H91750   4.555  10.027   1.454  2.6712  0.8398  0.8341
  665MOL0     H91751   4.594   9.850   1.629 -0.5357  0.1148 -0.6103
  665MOL0     H91752   4.437   9.868   2.249  0.2134 -0.4341  3.1769
  665MOL0     H91753   4.555   9.740   2.428 -0.1581  0.2606  0.8839
  665MOL0     H91754   6.151   9.201   2.940  3.6507 -0.9451  2.6144
  665MOL0     H91755   6.379   9.161   2.846 -0.2024 -1.0127 -0.2403
  665MOL0     H91756   6.635   8.825   2.649 -1.9430  0.8833 -0.9780
  665MOL0     H91757   6.850   8.758   2.582 -0.3917 -1.6493 -0.6779
  665MOL0     H91758   7.164   8.747   2.405  0.3349  3.6300 -3.0162
  665MOL0     H91759   7.030   8.697   2.515  2.3039  0.6523  0.1057
  665MOL0     H91760   7.027   8.658   2.214 -1.2032  3.8400  1.3235
  665MOL0     H91761   6.898   8.610   2.329 -0.2047  1.1594 -0.0233
  665MOL0     H91762   7.177   8.491   2.368  0.0288  1.0643  2.5649
  665MOL0     H91763   7.023   8.438   2.435 -0.8721  1.2594 -0.9033
  665MOL0     H91764   7.114   8.417   2.144 -0.0997  0.9116  1.3762
  665MOL0     H91765   6.948   8.388   2.200  0.0963 -5.3854  0.2367
  665MOL0     H91766   7.117   8.020   2.266  1.2619 -0.0510 -2.6424
  665MOL0     H91767   6.895   9.072   2.313  0.1588 -1.1781  0.2211
  665MOL0     H91768   6.735   9.225   2.266  1.8096 -1.1813  0.0935
  665MOL0     H91769   6.571   9.167   2.296 -0.8151  0.6877  1.9068
  665MOL0     H91770   6.640   9.288   2.404 -1.2895 -1.2798 -1.0433
  666MOL0     O91771  11.235   1.047   9.466  0.5364 -0.0429 -0.4785
  666MOL0     C91772  11.245   1.075   9.587  0.1942  0.6468 -0.2182
  666MOL0     O91773  11.282   1.203   9.640  0.2559  0.0589 -0.2405
  666MOL0     C91774  11.318   1.295   9.550  0.6632  0.5142  0.2747
  666MOL0     C91775  11.226   1.378   9.488 -0.2199 -1.2352 -0.5587
  666MOL0     C91776  11.258   1.483   9.397 -0.5594 -0.0034  0.0412
  666MOL0     C91777  11.392   1.508   9.365  0.6135  0.1636  0.3667
  666MOL0     O91778  11.422   1.614   9.280  0.2908  0.0707 -0.5152
  666MOL0     C91779  11.534   1.599   9.189 -0.0044 -0.4071  0.7412
  666MOL0     C91780  11.568   1.719   9.104  0.1906 -0.5536 -0.5754
  666MOL0     C91781  11.580   1.835   9.209 -0.2966  0.1310 -1.1639
  666MOL0     C91782  11.674   1.941   9.162 -0.3187 -0.8460 -0.6847
  666MOL0     C91783  11.648   2.089   9.202  0.1432 -0.1436  0.4771
  666MOL0     C91784  11.764   2.180   9.176  0.7487  0.2255  0.4729
  666MOL0     C91785  11.766   2.312   9.247 -0.3092  0.4793  0.3409
  666MOL0     C91786  11.808   2.291   9.393 -0.7516  0.5163  0.9626
  666MOL0     N91787  11.923   2.201   9.418  0.1410  0.0820 -0.6669
  666MOL0     C91788  12.051   2.218   9.369  0.2027 -0.5130  0.2036
  666MOL0     C91789  12.118   2.105   9.399  0.6180  0.1961 -0.1345
  666MOL0     C91790  12.260   2.078   9.380 -0.6733 -0.7255 -0.2063
  666MOL0     C91791  12.291   1.980   9.262 -1.0138 -0.5467 -0.2150
  666MOL0     C91792  12.220   1.843   9.278 -0.5050  0.3700 -0.4342
  666MOL0     C91793  12.114   1.844   9.174  0.3903  0.6310  0.0942
  666MOL0     O91794  12.050   1.711   9.143  0.0935 -0.7810 -0.6461
  666MOL0     C91795  11.998   1.646   9.251  0.5482 -0.0342  0.2849
  666MOL0     C91796  11.933   1.712   9.355 -0.2531 -0.3994 -0.2569
  666MOL0     C91797  11.886   1.643   9.464 -0.7716  0.2446  0.2767
  666MOL0     C91798  11.839   1.729   9.579  0.1043  0.0145 -0.0558
  666MOL0     C91799  11.899   1.497   9.473 -0.8282 -0.7182  0.9603
  666MOL0     C91800  11.848   1.426   9.591 -0.4221 -0.3378  0.3114
  666MOL0     O91801  11.813   1.301   9.573  0.6295 -0.4354 -0.1930
  666MOL0     C91802  11.803   1.218   9.686 -0.6112 -0.0313 -0.7545
  666MOL0     C91803  11.708   1.239   9.791 -0.1557 -0.6581 -0.3916
  666MOL0     C91804  11.694   1.149   9.895 -0.0873  0.8139  0.3827
  666MOL0     C91805  11.758   1.031   9.900 -1.0565 -0.1263  0.0074
  666MOL0     O91806  11.766   0.936  10.004 -0.2443 -0.6078  0.2704
  666MOL0     C91807  11.679   0.951  10.111 -0.3618  0.1114  0.0868
  666MOL0     C91808  11.708   0.824  10.197 -0.4532  0.2194  0.5794
  666MOL0     C91809  11.579   0.795  10.275 -0.1412 -0.0447  0.3658
  666MOL0     C91810  11.577   0.670  10.358  0.6243 -0.3689  0.7474
  666MOL0     C91811  11.431   0.634  10.400  0.8458 -0.0710  0.4440
  666MOL0     C91812  11.422   0.502  10.467 -0.4090  0.3105  0.6400
  666MOL0     C91813  11.497   0.498  10.588  0.7081  0.5499 -0.4759
  666MOL0     C91814  11.463   0.607  10.689 -0.5122  0.8118 -0.1247
  666MOL0    Cl91815  11.295   0.622  10.724  0.6814  0.0442  0.2390
  666MOL0     C91816  11.858   1.017   9.799  0.3782  0.8590 -0.0671
  666MOL0     C91817  11.875   1.098   9.691  0.2058 -0.4232  1.3964
  666MOL0     O91818  11.883   1.477   9.699 -0.2546 -0.2584 -0.1844
  666MOL0     C91819  11.964   1.428   9.368  0.3259  1.1707 -0.0458
  666MOL0     C91820  12.005   1.506   9.260 -0.7548 -0.0424 -0.6976
  666MOL0     N91821  12.038   2.029   9.483 -1.0242 -0.8970  0.3001
  666MOL0     N91822  11.926   2.086   9.501  0.0970  0.2162  1.1452
  666MOL0     C91823  11.492   1.425   9.428 -0.2969 -0.8544  1.2244
  666MOL0     C91824  11.456   1.323   9.526  0.6097  1.3801 -0.5467
  666MOL0     C91825  11.232   0.975   9.685 -0.5034  1.0123 -0.4831
  666MOL0     C91826  11.322   0.981   9.792 -0.5436  0.9245 -1.4273
  666MOL0     C91827  11.305   0.896   9.900 -0.6152  0.6379  0.3409
  666MOL0     C91828  11.196   0.813   9.907  0.5827  1.0523  1.4029
  666MOL0     O91829  11.192   0.738  10.027 -0.2246  0.4763  0.3811
  666MOL0     C91830  11.118   0.609  10.029  0.7603  0.5671  0.3611
  666MOL0     C91831  10.965   0.627  10.050  0.6757 -0.6165 -0.2724
  666MOL0     C91832  10.885   0.495  10.043 -0.3059 -0.0948 -0.0743
  666MOL0     C91833  10.755   0.517   9.978 -1.4443 -0.2947  0.1215
  666MOL0     C91834  10.759   0.559   9.838 -0.1691 -0.1928  0.7295
  666MOL0     C91835  10.745   0.614   9.727  0.2959  0.4764 -0.6938
  666MOL0     C91836  11.097   0.804   9.796 -0.4215  1.1549  0.5298
  666MOL0     C91837  11.124   0.878   9.683 -0.1592 -0.7680 -0.9407
  666MOL0     C91838  11.036   0.853   9.561 -0.3136 -0.2062 -0.0573
  666MOL0     H91839  11.123   1.350   9.506 -1.1699  1.3939 -1.4487
  666MOL0     H91840  11.194   1.542   9.332  1.1746  1.8323 -0.0942
  666MOL0     H91841  11.516   1.508   9.130 -0.2117 -0.2559  0.5719
  666MOL0     H91842  11.627   1.582   9.244  0.8712 -1.2143 -0.9185
  666MOL0     H91843  11.661   1.696   9.052 -0.1666  0.0282 -1.4941
  666MOL0     H91844  11.491   1.756   9.036 -2.3505 -1.2567  1.7121
  666MOL0     H91845  11.479   1.871   9.230 -0.1978  0.5099 -1.3233
  666MOL0     H91846  11.610   1.786   9.302 -0.7300 -4.6851 -3.2367
  666MOL0     H91847  11.765   1.900   9.206 -0.4402 -0.5736 -0.1709
  666MOL0     H91848  11.687   1.953   9.054 -0.8482  0.0677 -0.6558
  666MOL0     H91849  11.627   2.087   9.309  3.2203  0.0972  1.1945
  666MOL0     H91850  11.555   2.120   9.154 -1.7267 -3.3946  1.6686
  666MOL0     H91851  11.852   2.116   9.190  2.4702  2.2950 -0.3821
  666MOL0     H91852  11.772   2.200   9.069  3.0288 -0.6525  0.4214
  666MOL0     H91853  11.670   2.364   9.241 -0.3636  0.2138 -1.7101
  666MOL0     H91854  11.839   2.369   9.190 -0.6218 -0.3347 -0.9326
  666MOL0     H91855  11.833   2.390   9.435 -0.7460  0.2140  1.6867
  666MOL0     H91856  11.726   2.256   9.456 -0.3048  0.4894  1.5414
  666MOL0     H91857  12.077   2.307   9.312 -2.8153 -0.4647 -1.2786
  666MOL0     H91858  12.308   2.039   9.470 -2.1125  1.1448  1.4526
  666MOL0     H91859  12.308   2.174   9.358  0.9219 -1.7646 -1.6280
  666MOL0     H91860  12.288   2.030   9.165 -0.1339 -1.9944 -1.0309
  666MOL0     H91861  12.395   1.947   9.274 -1.1178 -1.3974 -1.3656
  666MOL0     H91862  12.298   1.767   9.264 -2.3852 -2.6010  3.3101
  666MOL0     H91863  12.193   1.839   9.384  0.8132  2.2118  0.0235
  666MOL0     H91864  12.031   1.913   9.186 -1.8534 -2.0271  1.0116
  666MOL0     H91865  12.158   1.867   9.077 -1.4731  1.4321 -0.5979
  666MOL0     H91866  11.919   1.820   9.351 -0.9859 -0.5213 -3.3984
  666MOL0     H91867  11.772   1.807   9.543 -0.2201  1.3045  3.0573
  666MOL0     H91868  11.928   1.784   9.610 -1.2615  2.1934  0.2294
  666MOL0     H91869  11.792   1.686   9.668  1.4647  2.0720  1.7424
  666MOL0     H91870  11.640   1.323   9.783 -1.0806 -1.1314  1.8062
  666MOL0     H91871  11.629   1.173   9.979  1.0881 -0.5822  1.7530
  666MOL0     H91872  11.725   1.034  10.166 -1.5171  1.0171 -0.2634
  666MOL0     H91873  11.577   0.985  10.094 -0.0939  0.5665 -0.6806
  666MOL0     H91874  11.721   0.745  10.122 -1.5113 -0.4697  1.0918
  666MOL0     H91875  11.805   0.829  10.247  0.7394 -0.1755 -1.5401
  666MOL0     H91876  11.496   0.798  10.203 -1.2104  2.2458  1.5827
  666MOL0     H91877  11.569   0.883  10.338  0.0126  0.9494 -0.9584
  666MOL0     H91878  11.639   0.674  10.448 -0.9500 -3.3568  2.1366
  666MOL0     H91879  11.617   0.592  10.292  0.4936 -1.6145  2.0758
  666MOL0     H91880  11.380   0.709  10.460 -1.7566  1.8732 -3.7763
  666MOL0     H91881  11.365   0.639  10.313  0.3511  0.7978  0.8553
  666MOL0     H91882  11.454   0.427  10.394 -2.0918 -0.0437  0.2439
  666MOL0     H91883  11.318   0.484  10.493 -0.6724 -1.3529 -1.3013
  666MOL0     H91884  11.607   0.502  10.589  0.6843  1.6016  0.5415
  666MOL0     H91885  11.486   0.398  10.631  0.5883  0.4122 -0.8303
  666MOL0     H91886  11.503   0.705  10.662 -0.8534  0.6971 -1.0905
  666MOL0     H91887  11.519   0.593  10.782  2.8267  2.3223 -1.7276
  666MOL0     H91888  11.922   0.931   9.816 -0.6658  0.1165  0.2442
  666MOL0     H91889  11.949   1.077   9.614 -0.3871 -1.0369  0.9819
  666MOL0     H91890  11.968   1.320   9.367 -2.6942  0.9237 -2.4202
  666MOL0     H91891  12.050   1.454   9.176 -0.0725  1.2904 -1.1734
  666MOL0     H91892  11.592   1.447   9.392  0.1524 -3.3032  0.7809
  666MOL0     H91893  11.534   1.268   9.578 -1.8465 -2.0284 -0.1009
  666MOL0     H91894  11.407   1.046   9.809  0.7363 -0.9429 -0.2337
  666MOL0     H91895  11.373   0.908   9.983  2.7611  0.6287 -2.2488
  666MOL0     H91896  11.146   0.549   9.943 -0.2643  1.4492 -0.6229
  666MOL0     H91897  11.151   0.551  10.116 -0.5390  0.3689  0.7611
  666MOL0     H91898  10.930   0.685   9.964  2.0929 -3.0795 -2.6642
  666MOL0     H91899  10.934   0.675  10.144  0.1778  1.8571 -1.6262
  666MOL0     H91900  10.940   0.426   9.978 -2.0516 -0.7238 -0.9551
  666MOL0     H91901  10.878   0.445  10.140 -3.6811  1.2353  0.5069
  666MOL0     H91902  10.689   0.590  10.025  0.1097  0.8659  0.5820
  666MOL0     H91903  10.722   0.413   9.976 -3.2631  0.1470  2.5105
  666MOL0     H91904  10.728   0.674   9.640  0.0665 -0.1700 -1.0969
  666MOL0     H91905  11.016   0.731   9.799  1.3477 -0.8551  1.6380
  666MOL0     H91906  10.959   0.780   9.585 -1.2660  0.8756  0.2897
  666MOL0     H91907  10.988   0.945   9.527  0.2202  0.2290  0.3370
  666MOL0     H91908  11.092   0.825   9.470 -1.1665  2.7892 -1.6442
  667MOL0     O91909   9.207   7.724  10.063  0.2512  0.1651  0.7645
  667MOL0     C91910   9.216   7.639   9.975  0.2853  0.7473 -0.4930
  667MOL0     O91911   9.185   7.658   9.848  0.1955 -0.6325 -0.4267
  667MOL0     C91912   9.113   7.764   9.791  0.2713 -0.0932  0.3733
  667MOL0     C91913   9.122   7.897   9.836 -1.0982 -0.2664  0.6822
  667MOL0     C91914   9.046   7.997   9.771  0.7772  1.3566 -0.5114
  667MOL0     C91915   8.948   7.966   9.677 -0.4636  0.0748  0.4237
  667MOL0     O91916   8.867   8.064   9.627 -0.5447 -0.1331  0.0355
  667MOL0     C91917   8.732   8.045   9.654 -0.5046 -0.6757 -0.4455
  667MOL0     C91918   8.644   8.173   9.634  0.2288  0.2649 -0.8942
  667MOL0     C91919   8.711   8.281   9.723 -0.3678 -0.5858  0.8409
  667MOL0     C91920   8.660   8.427   9.714  0.5877  0.1068 -0.8695
  667MOL0     C91921   8.730   8.517   9.814 -0.0424  0.4309 -0.6077
  667MOL0     C91922   8.650   8.641   9.855  0.6099 -0.2132  0.1420
  667MOL0     C91923   8.735   8.723   9.963  0.6674 -0.4192 -0.8234
  667MOL0     C91924   8.724   8.657  10.106 -0.5310  0.1791 -0.1494
  667MOL0     N91925   8.764   8.764  10.203 -0.4387  0.3919  0.6059
  667MOL0     C91926   8.878   8.843  10.192 -0.2073 -0.1738 -0.0508
  667MOL0     C91927   8.883   8.903  10.312 -0.0995 -0.0116  0.6148
  667MOL0     C91928   8.996   8.993  10.338 -0.8654  0.2029 -0.1804
  667MOL0     C91929   9.102   8.936  10.438  0.3437  0.7584  1.1351
  667MOL0     C91930   9.169   8.804  10.390 -0.6242  0.3934  1.1539
  667MOL0     C91931   9.260   8.814  10.258  0.2621  0.4805 -0.0425
  667MOL0     O91932   9.319   8.682  10.250 -0.1168  0.1385  0.8509
  667MOL0     C91933   9.389   8.636  10.137  0.0742 -0.7165 -0.7037
  667MOL0     C91934   9.401   8.708  10.014  0.1572  0.0927 -0.4314
  667MOL0     C91935   9.497   8.688   9.913  0.3881  0.3658 -0.1195
  667MOL0     C91936   9.488   8.775   9.784  0.5077  0.9564 -0.0511
  667MOL0     C91937   9.588   8.582   9.935  0.1869  0.0939  0.8906
  667MOL0     C91938   9.715   8.549   9.847 -0.0397  0.0155  0.1459
  667MOL0     O91939   9.721   8.603   9.732 -0.5151  0.0536  0.2594
  667MOL0     C91940   9.823   8.583   9.645  0.3584  0.0725  0.6442
  667MOL0     C91941   9.777   8.528   9.525 -0.0418  1.2337 -0.0712
  667MOL0     C91942   9.883   8.494   9.431 -0.5799  0.6654 -1.0761
  667MOL0     C91943  10.020   8.509   9.454  0.6187  0.5658  0.0864
  667MOL0     O91944  10.117   8.473   9.369 -0.8582 -0.2282 -0.1178
  667MOL0     C91945  10.106   8.456   9.228 -0.4324 -0.2510  0.4121
  667MOL0     C91946  10.229   8.476   9.147  0.2333  0.3208  0.5326
  667MOL0     C91947  10.328   8.570   9.208  0.3875 -1.1198 -0.8880
  667MOL0     C91948  10.454   8.591   9.136 -0.4659 -0.3447  1.0290
  667MOL0     C91949  10.578   8.636   9.218  0.9342  0.3291 -0.4405
  667MOL0     C91950  10.689   8.640   9.116 -0.9152  0.6097  0.3610
  667MOL0     C91951  10.693   8.760   9.018  0.0085  0.5130 -0.3526
  667MOL0     C91952  10.833   8.789   8.992 -0.4165  0.2094 -0.6721
  667MOL0    Cl91953  10.844   8.917   8.871 -0.7174  0.5711 -0.1018
  667MOL0     C91954  10.065   8.566   9.572  0.6569  0.1767 -0.0348
  667MOL0     C91955   9.960   8.604   9.665  0.0369  0.3350  0.0667
  667MOL0     O91956   9.797   8.462   9.884 -0.6937 -0.1890  0.2610
  667MOL0     C91957   9.570   8.500  10.051  0.5021  0.3287 -0.0723
  667MOL0     C91958   9.476   8.529  10.150  0.0989  0.4396  0.7604
  667MOL0     N91959   8.784   8.867  10.387  0.7809  0.4429  1.0123
  667MOL0     N91960   8.708   8.781  10.320 -0.6858 -0.1449 -0.0030
  667MOL0     C91961   8.931   7.836   9.636  0.2491  0.3979  0.7124
  667MOL0     C91962   9.016   7.743   9.692  0.0397  0.1455 -0.6072
  667MOL0     C91963   9.283   7.513  10.012 -0.0567  0.4536 -0.5145
  667MOL0     C91964   9.309   7.423   9.896 -0.1929 -0.4987 -1.0214
  667MOL0     C91965   9.358   7.297   9.919  0.2102  0.1106 -0.3753
  667MOL0     C91966   9.369   7.250  10.045  1.9848 -0.0870  0.0995
  667MOL0     O91967   9.403   7.122  10.063 -0.0307 -0.4433 -0.4912
  667MOL0     C91968   9.295   7.025  10.055 -1.0975  0.5688 -0.2316
  667MOL0     C91969   9.336   6.913   9.963  0.5207  0.0888  0.0617
  667MOL0     C91970   9.445   6.824  10.020  0.0757  1.4263 -0.3414
  667MOL0     C91971   9.451   6.689   9.942 -0.1937  0.0380 -0.6041
  667MOL0     C91972   9.489   6.716   9.795  0.3927  0.4755 -0.9119
  667MOL0     C91973   9.515   6.742   9.682 -0.5403 -0.3589  0.3089
  667MOL0     C91974   9.341   7.334  10.158  0.8398 -0.4562  0.4146
  667MOL0     C91975   9.297   7.462  10.144  0.3933 -0.1440  0.0102
  667MOL0     C91976   9.263   7.548  10.264  0.5364  1.0188 -0.5797
  667MOL0     H91977   9.197   7.925   9.909  1.0585 -3.5242 -0.0651
  667MOL0     H91978   9.064   8.101   9.796  0.2026  0.6699  3.6224
  667MOL0     H91979   8.719   8.007   9.756  0.8854 -0.3080 -0.1086
  667MOL0     H91980   8.704   7.961   9.591 -1.8685  1.7552 -3.3315
  667MOL0     H91981   8.632   8.197   9.528 -2.0650 -0.9737 -0.9645
  667MOL0     H91982   8.543   8.153   9.671  0.1649 -1.7029 -2.0460
  667MOL0     H91983   8.718   8.245   9.826 -0.4173 -4.8088 -0.4666
  667MOL0     H91984   8.812   8.288   9.683  0.5497  1.2143  3.2349
  667MOL0     H91985   8.668   8.472   9.615 -0.6304  1.6342 -0.3017
  667MOL0     H91986   8.553   8.429   9.736  0.6029 -1.6041 -0.4507
  667MOL0     H91987   8.834   8.539   9.786  0.7730  1.8194  2.9568
  667MOL0     H91988   8.736   8.447   9.898  0.1694 -0.0949 -1.0564
  667MOL0     H91989   8.633   8.705   9.767  1.5207 -1.6155 -1.1101
  667MOL0     H91990   8.552   8.609   9.890 -1.1557  2.4118 -1.9667
  667MOL0     H91991   8.689   8.823   9.959 -0.1208 -0.7911 -1.3714
  667MOL0     H91992   8.839   8.746   9.939  0.6581  2.6499  1.4961
  667MOL0     H91993   8.621   8.631  10.132 -0.4006  0.5818  0.8441
  667MOL0     H91994   8.792   8.572  10.107  1.5173  1.7362  0.6349
  667MOL0     H91995   8.951   8.854  10.113  1.2485 -1.5995  1.0234
  667MOL0     H91996   8.951   9.082  10.383  0.0973  0.4096  0.4018
  667MOL0     H91997   9.059   9.022  10.253  0.1919 -0.4090  0.3640
  667MOL0     H91998   9.178   9.013  10.454  0.9069  0.9074 -1.6701
  667MOL0     H91999   9.046   8.948  10.531 -1.4981  0.2278  0.1376
  667MOL0     H92000   9.241   8.783  10.470  1.0594 -0.8558 -0.5870
  667MOL0     H92001   9.103   8.717  10.390  0.8184 -0.7779 -0.9628
  667MOL0     H92002   9.199   8.840  10.171  0.8797  1.6075 -0.1626
  667MOL0     H92003   9.331   8.897  10.265 -0.1851  0.7484  2.4497
  667MOL0     H92004   9.336   8.792   9.994  1.7333  1.2899 -0.7565
  667MOL0     H92005   9.579   8.836   9.780  1.3546 -0.2533  0.2077
  667MOL0     H92006   9.398   8.837   9.778 -0.5549 -0.5718 -0.5043
  667MOL0     H92007   9.484   8.716   9.692  1.1327  1.6591 -0.5454
  667MOL0     H92008   9.671   8.511   9.507 -0.6155  3.1147  1.2198
  667MOL0     H92009   9.839   8.437   9.350  0.0592 -0.5296 -0.5998
  667MOL0     H92010  10.062   8.363   9.190  0.3969  1.3302 -5.4562
  667MOL0     H92011  10.042   8.541   9.201  1.0279  1.2252  1.4308
  667MOL0     H92012  10.279   8.387   9.108 -2.2056 -0.5474 -0.8258
  667MOL0     H92013  10.202   8.515   9.048 -3.7747 -2.4727  0.2903
  667MOL0     H92014  10.359   8.540   9.309  1.8735  2.1321 -0.2590
  667MOL0     H92015  10.283   8.670   9.208  0.8745 -0.9008 -1.5437
  667MOL0     H92016  10.439   8.673   9.065  1.3137 -1.7996 -1.1525
  667MOL0     H92017  10.482   8.503   9.077 -0.2174 -0.2433  0.9931
  667MOL0     H92018  10.551   8.739   9.243  0.7268  0.1079  0.2646
  667MOL0     H92019  10.598   8.574   9.306  1.9991 -1.2149 -1.7106
  667MOL0     H92020  10.700   8.550   9.054  0.5622  0.5859  0.6264
  667MOL0     H92021  10.777   8.648   9.179  2.0068 -1.2623 -3.0845
  667MOL0     H92022  10.645   8.842   9.072  0.7152 -1.7942  4.2938
  667MOL0     H92023  10.636   8.735   8.928 -0.1896 -0.6496  0.0820
  667MOL0     H92024  10.874   8.705   8.936  0.7236 -0.2511  0.8241
  667MOL0     H92025  10.897   8.803   9.079 -1.8222  1.4088  0.2385
  667MOL0     H92026  10.169   8.573   9.601  0.5114 -1.1460  0.9041
  667MOL0     H92027   9.997   8.630   9.763  3.6179  0.6830 -1.2280
  667MOL0     H92028   9.644   8.422  10.071  0.1901 -0.1692 -0.8206
  667MOL0     H92029   9.468   8.466  10.238 -0.4053 -0.4554  0.0815
  667MOL0     H92030   8.850   7.814   9.567 -1.8474 -0.1038  3.1709
  667MOL0     H92031   9.016   7.638   9.665  3.5273 -0.4554  1.2855
  667MOL0     H92032   9.299   7.452   9.792  1.2023  1.9409 -0.5666
  667MOL0     H92033   9.373   7.228   9.836  0.2275  1.9352 -1.9729
  667MOL0     H92034   9.261   6.984  10.151 -0.9288 -4.1988 -1.9431
  667MOL0     H92035   9.211   7.077  10.007  0.4318  1.8028 -1.6920
  667MOL0     H92036   9.357   6.947   9.862 -1.6789  0.1120 -0.4501
  667MOL0     H92037   9.257   6.843   9.934  1.4250 -0.5402 -0.9650
  667MOL0     H92038   9.543   6.869  10.008  2.1101 -1.8475  2.2292
  667MOL0     H92039   9.423   6.828  10.127 -1.8303  0.3013 -0.6317
  667MOL0     H92040   9.353   6.645   9.964 -0.4534  1.1806  0.6776
  667MOL0     H92041   9.531   6.626   9.982  1.4590  0.8258 -2.5052
  667MOL0     H92042   9.543   6.766   9.582 -2.0310 -2.7750 -0.7664
  667MOL0     H92043   9.353   7.306  10.262  4.5939  0.0362  0.2680
  667MOL0     H92044   9.176   7.613  10.247  1.0801  1.3914 -2.1547
  667MOL0     H92045   9.220   7.496  10.350 -1.1019  2.0876 -0.6989
  667MOL0     H92046   9.340   7.624  10.275  1.4040  0.3015 -1.5589
  668MOL0     O92047   5.514   2.828   1.761 -0.1898 -0.0315  0.0374
  668MOL0     C92048   5.425   2.881   1.828  0.1834  0.0320 -0.1284
  668MOL0     O92049   5.369   2.833   1.946  0.9886  0.4722 -0.0717
  668MOL0     C92050   5.392   2.698   1.967 -0.0107 -0.4663 -0.6967
  668MOL0     C92051   5.293   2.605   1.981 -0.1268  0.3233  0.0963
  668MOL0     C92052   5.318   2.467   1.983  0.0253 -0.6110 -0.4107
  668MOL0     C92053   5.450   2.424   1.986  0.6220  0.5026 -0.8114
  668MOL0     O92054   5.466   2.278   1.980  0.5882 -0.9973 -0.2983
  668MOL0     C92055   5.598   2.224   1.999 -0.1805 -0.4133  0.8651
  668MOL0     C92056   5.632   2.207   2.154 -0.4229 -0.4590  0.7300
  668MOL0     C92057   5.774   2.157   2.202  0.0883 -0.4039 -0.2260
  668MOL0     C92058   5.821   2.011   2.157  0.3271  0.6678  0.8118
  668MOL0     C92059   5.734   1.894   2.208 -0.1977 -0.4490  0.6003
  668MOL0     C92060   5.785   1.762   2.154 -0.1131 -0.1059 -0.3183
  668MOL0     C92061   5.672   1.652   2.177 -0.4634  0.4966  0.0853
  668MOL0     C92062   5.731   1.509   2.173  0.1577  1.3075 -0.2608
  668MOL0     N92063   5.627   1.403   2.184  0.2582  0.0886  0.2209
  668MOL0     C92064   5.530   1.378   2.094  0.8368  0.2395 -0.1978
  668MOL0     C92065   5.455   1.278   2.145  0.1101 -0.6549 -0.7547
  668MOL0     C92066   5.323   1.230   2.090 -0.1034  0.4129 -0.1840
  668MOL0     C92067   5.227   1.352   2.105  0.1412  0.6815  0.2290
  668MOL0     C92068   5.088   1.310   2.050  0.5563  0.2313  0.8489
  668MOL0     C92069   4.975   1.403   2.076  0.5489  0.0558 -0.2164
  668MOL0     O92070   5.028   1.526   2.133 -0.4456  0.8561 -0.5326
  668MOL0     C92071   4.933   1.624   2.151 -0.2550 -0.1092  0.2043
  668MOL0     C92072   4.896   1.705   2.046  0.4184  0.5280  0.3499
  668MOL0     C92073   4.793   1.800   2.065 -0.1979 -0.2312 -0.0436
  668MOL0     C92074   4.766   1.892   1.941 -0.3345  0.3417  1.2002
  668MOL0     C92075   4.720   1.814   2.183 -0.0380  0.6891 -0.1817
  668MOL0     C92076   4.625   1.925   2.213  0.1170  0.8534 -0.0450
  668MOL0     O92077   4.534   1.902   2.318 -0.6984 -0.4597 -0.4128
  668MOL0     C92078   4.449   2.000   2.358 -0.1383 -0.3361 -0.5192
  668MOL0     C92079   4.325   2.026   2.295 -0.3094 -0.1502  1.0107
  668MOL0     C92080   4.247   2.132   2.340  0.6192  0.6383  0.5712
  668MOL0     C92081   4.283   2.218   2.434 -0.2115 -0.4076 -0.3934
  668MOL0     O92082   4.201   2.312   2.475  0.0534 -0.6423 -0.3661
  668MOL0     C92083   4.139   2.297   2.596  0.5164 -0.8892 -0.0781
  668MOL0     C92084   4.060   2.427   2.631 -0.6807  0.9871 -0.3590
  668MOL0     C92085   4.064   2.435   2.781 -0.0975 -0.1839  1.1094
  668MOL0     C92086   4.191   2.501   2.835  0.2570 -0.0897  0.4189
  668MOL0     C92087   4.249   2.421   2.947 -0.2215 -0.7864  0.9506
  668MOL0     C92088   4.370   2.488   3.018  0.6429  0.3803 -0.9792
  668MOL0     C92089   4.412   2.410   3.134 -0.8430 -0.2210  0.8270
  668MOL0     C92090   4.527   2.478   3.203  0.2195 -0.4598 -0.0942
  668MOL0    Cl92091   4.565   2.383   3.356  0.7228  0.0383  0.5409
  668MOL0     C92092   4.403   2.187   2.509  0.4001 -0.2809 -0.0840
  668MOL0     C92093   4.488   2.082   2.467  0.8742  0.1762 -0.8693
  668MOL0     O92094   4.623   2.030   2.152 -0.3594  0.7157  0.0290
  668MOL0     C92095   4.745   1.726   2.285 -0.3120  0.8070 -0.1661
  668MOL0     C92096   4.857   1.637   2.271  0.5505 -0.8132 -0.8630
  668MOL0     N92097   5.512   1.239   2.264  0.6996  0.3980  0.1216
  668MOL0     N92098   5.619   1.309   2.285  1.0301 -0.5824 -0.4574
  668MOL0     C92099   5.550   2.518   2.007  0.8022  0.6533 -0.1475
  668MOL0     C92100   5.522   2.651   1.992 -0.9468 -0.8243  0.0710
  668MOL0     C92101   5.364   3.005   1.772 -0.0253  1.1655 -0.1824
  668MOL0     C92102   5.430   3.056   1.658  1.1225 -0.4525  0.1334
  668MOL0     C92103   5.390   3.179   1.601  0.8603  0.2119 -0.7427
  668MOL0     C92104   5.288   3.251   1.666 -0.1234 -0.3707  0.5645
  668MOL0     O92105   5.242   3.379   1.639 -0.2997 -0.4105 -0.0188
  668MOL0     C92106   5.275   3.447   1.517 -0.7354 -0.4282  1.1499
  668MOL0     C92107   5.206   3.578   1.529  0.6533 -0.2362  0.1127
  668MOL0     C92108   5.230   3.661   1.658 -0.7122 -0.0426 -0.4340
  668MOL0     C92109   5.379   3.695   1.681 -1.0759  0.5482  0.3225
  668MOL0     C92110   5.436   3.812   1.607 -0.7844 -0.5234 -0.2933
  668MOL0     C92111   5.494   3.917   1.573 -0.4401 -0.0081 -1.4137
  668MOL0     C92112   5.225   3.204   1.776  0.4024  0.6557 -1.2441
  668MOL0     C92113   5.250   3.079   1.829  0.5472  0.2815 -0.4206
  668MOL0     C92114   5.164   3.026   1.941 -0.0763 -0.0277  0.2507
  668MOL0     H92115   5.195   2.649   1.972 -1.2530 -2.1907 -0.8839
  668MOL0     H92116   5.238   2.395   1.971  0.5645 -1.5522  1.2686
  668MOL0     H92117   5.686   2.278   1.962  1.7445 -2.8773  1.6133
  668MOL0     H92118   5.599   2.133   1.939 -2.0057  0.0440  0.0598
  668MOL0     H92119   5.598   2.298   2.204 -3.0849 -0.9340 -0.0622
  668MOL0     H92120   5.562   2.129   2.184 -3.9619  0.9770 -2.9053
  668MOL0     H92121   5.841   2.238   2.172 -1.3667  0.1881 -2.0184
  668MOL0     H92122   5.778   2.154   2.312 -1.8782 -1.2619 -0.1366
  668MOL0     H92123   5.834   2.007   2.048 -0.6696 -0.4479  0.7248
  668MOL0     H92124   5.921   1.995   2.200 -0.4077 -2.5781  1.5571
  668MOL0     H92125   5.629   1.908   2.177  0.6886  0.6206 -2.2938
  668MOL0     H92126   5.735   1.879   2.316  3.6909 -3.8114  0.3080
  668MOL0     H92127   5.808   1.769   2.048  1.3368 -1.7307 -0.1624
  668MOL0     H92128   5.883   1.741   2.200  0.3862 -0.0551 -1.3402
  668MOL0     H92129   5.606   1.668   2.091 -1.0140 -0.8872  0.2311
  668MOL0     H92130   5.605   1.660   2.263 -1.4138  0.6211 -0.6527
  668MOL0     H92131   5.787   1.484   2.082  1.1812 -1.3203  0.9899
  668MOL0     H92132   5.809   1.497   2.249  0.6382 -0.9458 -1.0398
  668MOL0     H92133   5.527   1.439   2.005 -0.6206  0.1716 -0.2149
  668MOL0     H92134   5.280   1.143   2.141  1.8050  0.7925  2.2860
  668MOL0     H92135   5.343   1.211   1.984 -0.1088  1.0883 -0.3068
  668MOL0     H92136   5.210   1.384   2.208  1.0953  0.3005  0.5164
  668MOL0     H92137   5.272   1.438   2.055 -0.7189  0.8659 -0.2413
  668MOL0     H92138   5.099   1.298   1.942 -2.1726 -0.1728  0.5577
  668MOL0     H92139   5.057   1.219   2.101 -2.1338 -0.6369 -2.0481
  668MOL0     H92140   4.908   1.418   1.991  0.7184 -1.9878 -0.7548
  668MOL0     H92141   4.914   1.365   2.159  0.0852  2.0950  0.4427
  668MOL0     H92142   4.948   1.701   1.951 -4.0938  3.3926 -2.6580
  668MOL0     H92143   4.857   1.906   1.883  0.9283 -1.5762  2.5889
  668MOL0     H92144   4.734   1.995   1.959 -0.3200  0.3622  1.1088
  668MOL0     H92145   4.703   1.833   1.874 -2.5373  2.1076  1.5868
  668MOL0     H92146   4.298   1.961   2.213  5.5430 -0.6152 -0.9630
  668MOL0     H92147   4.146   2.151   2.305  0.3337  1.9133  2.0036
  668MOL0     H92148   4.071   2.212   2.604  1.1236 -1.3004  0.9469
  668MOL0     H92149   4.203   2.278   2.683  0.2106 -0.2895  0.2815
  668MOL0     H92150   4.116   2.512   2.592  1.6165  0.7180  2.0338
  668MOL0     H92151   3.954   2.429   2.604 -1.5213  1.4398  2.5738
  668MOL0     H92152   4.050   2.332   2.817 -1.3015  0.5973  3.0521
  668MOL0     H92153   3.980   2.497   2.816 -0.5661  2.3705 -3.7561
  668MOL0     H92154   4.155   2.601   2.862 -0.7829  0.5056 -2.7370
  668MOL0     H92155   4.266   2.519   2.757 -0.0608  0.5660  0.2566
  668MOL0     H92156   4.170   2.395   3.019 -0.7421  0.8870  1.0221
  668MOL0     H92157   4.290   2.328   2.906 -1.4745 -0.4846 -1.1364
  668MOL0     H92158   4.337   2.582   3.064  1.8143  0.2498  0.1622
  668MOL0     H92159   4.447   2.503   2.942  1.0166 -2.6478 -1.2926
  668MOL0     H92160   4.448   2.320   3.084 -0.2280  0.7236 -0.4901
  668MOL0     H92161   4.325   2.385   3.195  0.9156 -0.8519  3.2355
  668MOL0     H92162   4.502   2.580   3.234  0.7884  0.0801 -1.3382
  668MOL0     H92163   4.616   2.487   3.140 -1.0505  1.0140 -1.7893
  668MOL0     H92164   4.437   2.249   2.591  0.7363 -1.1341  0.4335
  668MOL0     H92165   4.584   2.070   2.516  1.2829 -1.4270 -1.9853
  668MOL0     H92166   4.689   1.731   2.378  3.7115 -1.4873  2.7056
  668MOL0     H92167   4.881   1.577   2.359  0.1546  2.7951  1.9228
  668MOL0     H92168   5.655   2.489   2.010  1.0209  1.5425  1.8147
  668MOL0     H92169   5.602   2.725   1.995 -1.9809  0.3090  2.1707
  668MOL0     H92170   5.519   3.006   1.621  2.8945  0.4155  2.9525
  668MOL0     H92171   5.461   3.229   1.536 -0.2358 -0.5484 -2.6008
  668MOL0     H92172   5.380   3.466   1.495 -1.3823 -1.6158 -5.0107
  668MOL0     H92173   5.227   3.411   1.425 -0.8036  3.2404 -0.4234
  668MOL0     H92174   5.099   3.554   1.539  0.5765  1.0728  3.7538
  668MOL0     H92175   5.204   3.643   1.440  0.8544 -2.1916 -1.3917
  668MOL0     H92176   5.162   3.745   1.641 -1.0794 -0.4445 -1.0307
  668MOL0     H92177   5.195   3.617   1.751 -0.4507  1.4747  0.4049
  668MOL0     H92178   5.437   3.602   1.685 -0.2888  0.7243 -3.4046
  668MOL0     H92179   5.387   3.725   1.786  0.5740 -0.5618  0.5588
  668MOL0     H92180   5.541   4.007   1.539  3.3068 -1.6979 -1.2236
  668MOL0     H92181   5.147   3.265   1.821  2.1343  0.1161  2.9222
  668MOL0     H92182   5.229   3.020   2.028  0.1199 -1.7406  0.0232
  668MOL0     H92183   5.077   3.089   1.957  0.5245  0.6196  1.0086
  668MOL0     H92184   5.125   2.924   1.929  0.8561 -0.2449 -1.1659
  669MOL0     O92185   7.407   3.905   8.839  0.5339  0.0607  0.6456
  669MOL0     C92186   7.403   3.964   8.946  0.8007 -0.1850 -0.0469
  669MOL0     O92187   7.427   3.910   9.065 -0.0400  0.4567  0.6598
  669MOL0     C92188   7.428   3.776   9.060  0.0934 -0.3401  1.2740
  669MOL0     C92189   7.327   3.706   9.131  0.1303 -0.1973  0.5054
  669MOL0     C92190   7.321   3.573   9.093 -0.2059 -0.2590 -0.1992
  669MOL0     C92191   7.413   3.503   9.023 -0.7571 -0.3962  0.1019
  669MOL0     O92192   7.403   3.372   8.994  0.5051  0.5534  0.0932
  669MOL0     C92193   7.460   3.307   8.876 -0.4326  0.1854  0.2286
  669MOL0     C92194   7.522   3.178   8.915  0.1564 -0.0863  0.2659
  669MOL0     C92195   7.407   3.080   8.950 -0.2132  0.0152  1.1474
  669MOL0     C92196   7.323   3.048   8.826  0.2924  0.2435  0.2871
  669MOL0     C92197   7.206   2.946   8.849 -0.4451  0.4175 -0.1224
  669MOL0     C92198   7.185   2.856   8.728  1.3070 -0.1437 -0.5239
  669MOL0     C92199   7.076   2.759   8.760 -0.2487  0.1788  0.3909
  669MOL0     C92200   7.089   2.634   8.668  0.6746  0.8410 -0.2385
  669MOL0     N92201   7.072   2.673   8.523 -1.2466  0.4552 -1.2315
  669MOL0     C92202   6.965   2.737   8.477 -0.1822  0.4305  0.5401
  669MOL0     C92203   7.000   2.761   8.350  0.2847 -0.0135  0.7099
  669MOL0     C92204   6.916   2.836   8.246 -0.1882  0.1530 -0.3167
  669MOL0     C92205   6.765   2.814   8.265  0.0746  0.0868  0.1340
  669MOL0     C92206   6.730   2.666   8.236  0.4619  0.3165  0.6669
  669MOL0     C92207   6.594   2.651   8.165 -0.7294  0.0307  0.1159
  669MOL0     O92208   6.595   2.717   8.028  0.7033 -0.7795  0.3072
  669MOL0     C92209   6.577   2.637   7.920  0.4468  0.4013  0.6219
  669MOL0     C92210   6.461   2.560   7.899 -0.1096 -0.1052 -0.7591
  669MOL0     C92211   6.447   2.459   7.799 -0.8847  0.5366 -0.8842
  669MOL0     C92212   6.325   2.375   7.795 -0.5483  0.2661 -0.7105
  669MOL0     C92213   6.550   2.454   7.702 -1.0965 -0.1274 -0.3224
  669MOL0     C92214   6.561   2.342   7.608 -1.0041 -0.5916 -1.0342
  669MOL0     O92215   6.584   2.385   7.478  0.2599 -0.1202 -0.5032
  669MOL0     C92216   6.612   2.300   7.378  0.8914 -0.2403 -0.6139
  669MOL0     C92217   6.690   2.354   7.274 -0.5286  0.5232  0.2508
  669MOL0     C92218   6.737   2.281   7.172  0.4605  0.3018  0.2995
  669MOL0     C92219   6.699   2.149   7.163 -0.8123  0.4832  0.3001
  669MOL0     O92220   6.755   2.048   7.079  0.6617 -0.1559  0.2077
  669MOL0     C92221   6.812   2.104   6.964  0.5902 -0.3006  0.6242
  669MOL0     C92222   6.810   2.014   6.853  1.0778 -0.5578 -0.5655
  669MOL0     C92223   6.680   2.001   6.780  0.6311  0.4602  1.3541
  669MOL0     C92224   6.678   2.085   6.644  0.2755  0.1265  0.4435
  669MOL0     C92225   6.613   2.012   6.534  0.7753 -0.6897 -0.1596
  669MOL0     C92226   6.613   2.084   6.402 -0.3762 -0.9548  0.3978
  669MOL0     C92227   6.563   2.234   6.414  0.3960 -0.4504  1.3881
  669MOL0     C92228   6.521   2.277   6.274  0.4683 -0.9071 -0.8634
  669MOL0    Cl92229   6.647   2.260   6.147  0.3036  0.0604 -0.1854
  669MOL0     C92230   6.604   2.097   7.254 -1.2817 -0.4213 -0.7309
  669MOL0     C92231   6.559   2.179   7.362 -0.3753  0.5764 -0.6335
  669MOL0     O92232   6.570   2.227   7.652 -0.6466 -0.0316 -0.6836
  669MOL0     C92233   6.660   2.545   7.713  0.1574 -0.3981  0.2105
  669MOL0     C92234   6.675   2.633   7.824 -0.2559  0.4538 -0.0367
  669MOL0     N92235   7.126   2.707   8.325 -0.5736 -0.1684  0.2892
  669MOL0     N92236   7.169   2.649   8.433  1.0381 -0.8824  0.3928
  669MOL0     C92237   7.525   3.576   8.980 -0.1650  0.3759 -0.2372
  669MOL0     C92238   7.532   3.719   8.993  0.4713  0.5803  0.4084
  669MOL0     C92239   7.372   4.108   8.938 -0.1559  0.7405  0.7908
  669MOL0     C92240   7.383   4.162   8.812  0.8995 -0.9667 -0.4192
  669MOL0     C92241   7.352   4.298   8.797 -1.1983 -0.0634  0.6274
  669MOL0     C92242   7.342   4.388   8.907 -0.3457  0.1440  0.7891
  669MOL0     O92243   7.357   4.521   8.912  0.2457 -0.2240  0.0897
  669MOL0     C92244   7.332   4.608   8.800 -0.4318 -0.4754 -0.2411
  669MOL0     C92245   7.205   4.598   8.732 -0.9778 -0.6559  1.1775
  669MOL0     C92246   7.100   4.662   8.817 -0.4059  0.9881  0.1699
  669MOL0     C92247   7.057   4.589   8.950  0.0792  0.0879 -0.0828
  669MOL0     C92248   6.982   4.698   9.024 -0.1817  0.3294 -0.6246
  669MOL0     C92249   6.915   4.787   9.073  0.3617 -0.3244 -0.2439
  669MOL0     C92250   7.344   4.328   9.033 -0.1952 -0.3569 -0.2023
  669MOL0     C92251   7.349   4.181   9.057 -0.1675 -0.6971 -0.1455
  669MOL0     C92252   7.355   4.134   9.204  0.6175  0.3844  0.0971
  669MOL0     H92253   7.253   3.755   9.194  3.7785  0.9123  4.3826
  669MOL0     H92254   7.237   3.513   9.125  1.3872 -0.8046  3.4987
  669MOL0     H92255   7.538   3.368   8.829  0.4279  0.3319  1.7779
  669MOL0     H92256   7.371   3.308   8.814 -2.0366  1.5660  2.3957
  669MOL0     H92257   7.588   3.154   8.831  1.6223  7.0349 -1.3133
  669MOL0     H92258   7.577   3.197   9.008 -0.5373  2.3464  0.2532
  669MOL0     H92259   7.465   2.993   8.982  1.4930  1.3450  1.8833
  669MOL0     H92260   7.344   3.112   9.033 -0.2574  0.0478  1.1005
  669MOL0     H92261   7.281   3.133   8.772 -2.9462 -0.3949  1.5567
  669MOL0     H92262   7.389   2.994   8.758  0.7328 -1.2318  1.8231
  669MOL0     H92263   7.130   3.021   8.874  0.7108  0.3511  4.5511
  669MOL0     H92264   7.224   2.892   8.943  0.7643  3.2487  1.3952
  669MOL0     H92265   7.139   2.919   8.652 -4.4609 -2.3074  0.6404
  669MOL0     H92266   7.271   2.807   8.681  1.9860  1.7871 -1.3892
  669MOL0     H92267   6.972   2.792   8.759 -0.0257  0.9019  0.3428
  669MOL0     H92268   7.089   2.730   8.864 -3.1502 -0.1493  0.7408
  669MOL0     H92269   7.179   2.576   8.690 -0.2395 -0.5058  0.0433
  669MOL0     H92270   7.012   2.563   8.697  1.5088  0.5690  1.3963
  669MOL0     H92271   6.868   2.761   8.521 -0.4526 -1.2993  0.9774
  669MOL0     H92272   6.955   2.810   8.147 -1.2783 -2.3264 -0.1925
  669MOL0     H92273   6.934   2.940   8.272  2.1063 -0.9755  3.3196
  669MOL0     H92274   6.740   2.834   8.370 -0.1944 -0.3451  0.1512
  669MOL0     H92275   6.712   2.877   8.192 -2.4295 -0.4173  1.4037
  669MOL0     H92276   6.806   2.616   8.177  1.6759 -0.7238  2.9731
  669MOL0     H92277   6.721   2.599   8.322 -2.5950  1.3394  1.2975
  669MOL0     H92278   6.580   2.544   8.145 -0.0399  0.1805 -1.2593
  669MOL0     H92279   6.509   2.682   8.226 -1.7240  0.1394 -1.2855
  669MOL0     H92280   6.380   2.569   7.971 -2.7408 -0.0703 -3.4942
  669MOL0     H92281   6.245   2.449   7.793  1.5427  2.7015  0.8870
  669MOL0     H92282   6.315   2.316   7.886  0.1305  2.0952  0.5893
  669MOL0     H92283   6.314   2.324   7.698 -2.6563  0.3284 -0.5567
  669MOL0     H92284   6.725   2.455   7.294 -3.5925  1.2622  2.7571
  669MOL0     H92285   6.804   2.332   7.104 -2.8068  3.7683 -0.6930
  669MOL0     H92286   6.755   2.194   6.939 -3.5548 -1.4721  4.5095
  669MOL0     H92287   6.916   2.133   6.984  0.6153 -1.0964  1.7944
  669MOL0     H92288   6.891   2.040   6.784  0.0758 -1.3532 -2.1191
  669MOL0     H92289   6.836   1.919   6.900 -1.9465 -2.3773 -2.2080
  669MOL0     H92290   6.603   2.037   6.849 -0.4969  4.1564 -1.4598
  669MOL0     H92291   6.673   1.896   6.751  1.1489  0.7787 -0.0480
  669MOL0     H92292   6.783   2.068   6.620  0.1960 -0.8604  0.7165
  669MOL0     H92293   6.649   2.190   6.653  3.0270  1.0364 -0.3205
  669MOL0     H92294   6.638   1.906   6.537  0.5725 -0.7400  3.3806
  669MOL0     H92295   6.505   2.007   6.554  0.8927 -0.9746  0.4013
  669MOL0     H92296   6.547   2.033   6.331 -0.2005 -0.7146  0.0595
  669MOL0     H92297   6.718   2.072   6.373  0.4231 -3.3759  3.6108
  669MOL0     H92298   6.643   2.296   6.457  0.0582  1.5096 -0.6578
  669MOL0     H92299   6.479   2.255   6.481 -1.2612  0.4473 -0.8454
  669MOL0     H92300   6.507   2.385   6.287 -2.0510 -0.9829 -2.2231
  669MOL0     H92301   6.429   2.224   6.248 -0.2791 -0.7405  1.2556
  669MOL0     H92302   6.585   1.991   7.236  0.0573 -1.1083  1.6150
  669MOL0     H92303   6.500   2.125   7.436  2.0450 -0.4869  0.6563
  669MOL0     H92304   6.743   2.546   7.643  0.2662 -1.7741  0.2808
  669MOL0     H92305   6.764   2.694   7.836 -2.1967  2.8582  5.6499
  669MOL0     H92306   7.606   3.531   8.922 -0.5111  1.0404 -1.2707
  669MOL0     H92307   7.609   3.787   8.960  0.2694  1.2239  1.2290
  669MOL0     H92308   7.383   4.100   8.723  1.1803 -2.5743  0.6755
  669MOL0     H92309   7.345   4.349   8.702  0.7292  2.1766  1.5713
  669MOL0     H92310   7.338   4.709   8.842  2.4768 -0.2774 -0.9188
  669MOL0     H92311   7.408   4.591   8.724 -0.8808 -0.0577 -0.7914
  669MOL0     H92312   7.190   4.496   8.697 -1.0272 -0.6513  1.1842
  669MOL0     H92313   7.220   4.665   8.647 -3.6885  0.6201  1.5993
  669MOL0     H92314   7.139   4.763   8.836  3.6332 -0.0430 -1.7018
  669MOL0     H92315   7.019   4.654   8.744  0.9258  1.9833 -1.5157
  669MOL0     H92316   7.138   4.556   9.016 -0.3862  2.5434  1.8689
  669MOL0     H92317   6.992   4.505   8.927  2.4398 -1.9225  0.1848
  669MOL0     H92318   6.857   4.863   9.119 -0.3931 -1.0310 -0.0088
  669MOL0     H92319   7.332   4.383   9.126 -2.6878 -0.7933 -0.1902
  669MOL0     H92320   7.315   4.219   9.260 -0.1150  0.9013 -1.1520
  669MOL0     H92321   7.295   4.044   9.218  1.2234 -0.1181 -0.4323
  669MOL0     H92322   7.461   4.122   9.229  0.0508  1.0921  3.2004
  670MOL0     O92323   7.520   1.033   2.075 -0.0583 -0.0048 -0.7005
  670MOL0     C92324   7.411   1.012   2.035 -0.1820 -0.2796 -0.4656
  670MOL0     O92325   7.379   0.903   1.964  0.1212  0.2639 -0.4553
  670MOL0     C92326   7.473   0.804   1.979 -0.0951 -0.7247 -0.3070
  670MOL0     C92327   7.557   0.775   1.871 -0.4188  0.2070 -0.2642
  670MOL0     C92328   7.657   0.675   1.883  0.2329 -0.3680 -0.3755
  670MOL0     C92329   7.672   0.602   2.006 -0.5744 -0.3623 -0.1197
  670MOL0     O92330   7.787   0.531   2.031  0.3837 -0.0919  0.4124
  670MOL0     C92331   7.912   0.548   1.957  0.2870 -0.0630  0.1689
  670MOL0     C92332   8.030   0.525   2.050 -0.2432  0.3754 -0.3436
  670MOL0     C92333   8.002   0.594   2.185  0.1654  0.7772  0.4421
  670MOL0     C92334   8.121   0.584   2.263 -0.6763 -0.9165 -0.3810
  670MOL0     C92335   8.213   0.699   2.211 -0.5647  0.0153  0.2432
  670MOL0     C92336   8.321   0.738   2.309 -0.2686  0.3892 -0.0562
  670MOL0     C92337   8.419   0.847   2.261 -0.1319 -0.6408 -0.0392
  670MOL0     C92338   8.531   0.853   2.365  0.0216  0.0028 -0.1414
  670MOL0     N92339   8.624   0.738   2.353 -0.0935  0.6166  0.0259
  670MOL0     C92340   8.680   0.658   2.453 -0.6474 -0.1322  0.0675
  670MOL0     C92341   8.771   0.581   2.391 -0.2139 -0.1993 -0.5738
  670MOL0     C92342   8.841   0.479   2.474  0.8218  0.4113 -0.6974
  670MOL0     C92343   8.898   0.353   2.404 -0.1302 -0.1636 -1.4443
  670MOL0     C92344   8.955   0.266   2.511 -1.3538 -0.5386  1.1263
  670MOL0     C92345   8.861   0.144   2.558 -0.6674  0.1428  0.1477
  670MOL0     O92346   8.859   0.139   2.704 -0.3356  0.7498  0.0774
  670MOL0     C92347   8.780   0.049   2.777  0.8072 -0.9603  0.5219
  670MOL0     C92348   8.811  -0.082   2.771 -0.3893  0.2321  0.5041
  670MOL0     C92349   8.718  -0.183   2.829 -0.4814  0.1588  0.2677
  670MOL0     C92350   8.777  -0.322   2.844 -0.2303 -0.2026  0.3994
  670MOL0     C92351   8.589  -0.136   2.882  0.0292 -0.5203  0.4125
  670MOL0     C92352   8.476  -0.214   2.940 -0.1899  0.4111  0.8312
  670MOL0     O92353   8.523  -0.314   3.020 -0.3082  0.8736  0.1220
  670MOL0     C92354   8.429  -0.396   3.086 -0.5629 -0.2346 -0.2059
  670MOL0     C92355   8.354  -0.361   3.193 -0.6367 -0.1022 -0.7792
  670MOL0     C92356   8.251  -0.444   3.235 -0.3940 -0.2395  0.2204
  670MOL0     C92357   8.227  -0.570   3.172  1.1765  0.3927 -0.1075
  670MOL0     O92358   8.142  -0.655   3.238  0.0443  0.2897 -0.0713
  670MOL0     C92359   8.109  -0.777   3.171 -0.1984 -0.8469  0.2153
  670MOL0     C92360   8.011  -0.840   3.278  0.1562 -0.5462 -0.4599
  670MOL0     C92361   7.946  -0.977   3.255 -0.9441  0.1945  0.3913
  670MOL0     C92362   7.845  -1.011   3.365 -0.2198 -0.6724  0.1119
  670MOL0     C92363   7.788  -1.149   3.329  0.4734 -0.7136 -0.0186
  670MOL0     C92364   7.637  -1.154   3.345 -0.0540 -0.3029 -0.4921
  670MOL0     C92365   7.598  -1.135   3.498  0.2172 -0.4016 -0.0059
  670MOL0     C92366   7.442  -1.100   3.509 -0.5123  0.2090 -0.0454
  670MOL0    Cl92367   7.428  -0.943   3.422 -0.4714 -0.5108 -0.4314
  670MOL0     C92368   8.308  -0.598   3.058 -0.1553 -0.8929  0.5430
  670MOL0     C92369   8.413  -0.514   3.014 -0.0194  0.4550 -0.3665
  670MOL0     O92370   8.361  -0.188   2.925 -0.3281  0.4164  0.0770
  670MOL0     C92371   8.562  -0.005   2.866  0.1230 -0.5109 -0.1310
  670MOL0     C92372   8.653   0.083   2.816  0.2749 -0.1338  0.0465
  670MOL0     N92373   8.768   0.608   2.265  0.4519 -0.9165 -0.6893
  670MOL0     N92374   8.698   0.711   2.242 -0.2786 -0.2553 -0.1491
  670MOL0     C92375   7.569   0.617   2.106 -0.0334 -0.0898  0.1610
  670MOL0     C92376   7.477   0.720   2.090 -0.4334 -0.0604  0.3196
  670MOL0     C92377   7.309   1.120   2.068  0.2371  0.0945  0.5551
  670MOL0     C92378   7.318   1.198   2.186 -0.1753 -0.0472  0.5820
  670MOL0     C92379   7.227   1.294   2.211 -0.5865  0.0049  0.2711
  670MOL0     C92380   7.127   1.337   2.115 -0.3780  0.2485  1.1958
  670MOL0     O92381   7.042   1.438   2.158 -0.0378 -0.3963  0.0478
  670MOL0     C92382   6.940   1.475   2.071 -0.1491  0.0986 -0.0689
  670MOL0     C92383   6.873   1.603   2.128  0.5932  0.1535  0.4176
  670MOL0     C92384   6.971   1.714   2.165 -0.1212 -0.2973  0.5360
  670MOL0     C92385   6.903   1.850   2.184 -0.6428  0.1012  0.6854
  670MOL0     C92386   6.993   1.947   2.246  0.1017  0.0009  0.5364
  670MOL0     C92387   7.056   2.039   2.283  0.0725 -0.6382  0.5257
  670MOL0     C92388   7.102   1.250   2.010 -0.0740  0.3727  0.0357
  670MOL0     C92389   7.193   1.140   1.987  0.0233  0.4704  0.2017
  670MOL0     C92390   7.170   1.072   1.847  0.8822  0.4624 -0.1837
  670MOL0     H92391   7.538   0.822   1.775 -2.2329 -3.8714 -2.1740
  670MOL0     H92392   7.716   0.644   1.797  0.1134 -2.4161  0.2115
  670MOL0     H92393   7.927   0.646   1.911 -1.0917  1.0212  1.8956
  670MOL0     H92394   7.905   0.479   1.872 -2.0218  0.3910 -0.0923
  670MOL0     H92395   8.041   0.417   2.063  0.1811  0.3000 -1.2229
  670MOL0     H92396   8.120   0.572   2.007 -0.2761  1.8151  1.0812
  670MOL0     H92397   7.951   0.690   2.175  0.1310  0.6383 -0.8925
  670MOL0     H92398   7.922   0.534   2.230  0.6221  0.5154  0.9216
  670MOL0     H92399   8.091   0.604   2.366 -1.5492 -0.5328 -0.7017
  670MOL0     H92400   8.178   0.490   2.260  0.7612 -0.0885  0.0757
  670MOL0     H92401   8.155   0.790   2.192  1.3525  0.5321 -4.2973
  670MOL0     H92402   8.262   0.663   2.121  0.0892  0.0578  0.5765
  670MOL0     H92403   8.265   0.786   2.390 -0.3017 -0.3077  0.3428
  670MOL0     H92404   8.375   0.652   2.351  0.3077  0.9947  0.4477
  670MOL0     H92405   8.377   0.948   2.251  1.0655  0.0035  0.9783
  670MOL0     H92406   8.454   0.825   2.160 -1.3785 -3.1922  0.0264
  670MOL0     H92407   8.587   0.946   2.351 -0.2763  0.6038  2.2483
  670MOL0     H92408   8.494   0.860   2.467  1.4091 -2.4425  0.6247
  670MOL0     H92409   8.662   0.654   2.560 -0.5302 -4.5531  0.1201
  670MOL0     H92410   8.776   0.454   2.558 -0.3576  4.7686 -0.0928
  670MOL0     H92411   8.919   0.529   2.533 -2.7473  0.6055  4.4902
  670MOL0     H92412   8.819   0.299   2.350 -0.3086 -2.2103  0.6785
  670MOL0     H92413   8.983   0.387   2.346  1.6640  2.3890  2.2726
  670MOL0     H92414   9.054   0.223   2.492 -0.8295  1.0095  0.1289
  670MOL0     H92415   8.980   0.325   2.600  1.4500  3.2241 -1.8104
  670MOL0     H92416   8.759   0.162   2.520 -0.2326  0.7029 -0.7915
  670MOL0     H92417   8.894   0.054   2.506 -1.6449  0.5061 -1.1796
  670MOL0     H92418   8.911  -0.108   2.737 -1.6493 -3.8555 -0.6483
  670MOL0     H92419   8.740  -0.389   2.766  3.0357 -3.5832  1.4482
  670MOL0     H92420   8.756  -0.362   2.944  0.1313 -0.9919  0.1641
  670MOL0     H92421   8.885  -0.311   2.832 -0.5590  1.0849 -1.7549
  670MOL0     H92422   8.360  -0.262   3.237  1.2083 -0.2013 -0.7248
  670MOL0     H92423   8.177  -0.412   3.308  0.3600 -0.4108  1.0815
  670MOL0     H92424   8.053  -0.760   3.079 -1.5825  2.8227  1.5771
  670MOL0     H92425   8.186  -0.854   3.158 -1.5736 -3.7786  5.9017
  670MOL0     H92426   8.056  -0.841   3.377  2.7390  2.7917 -1.3932
  670MOL0     H92427   7.938  -0.758   3.276  2.6819  1.8572 -3.1186
  670MOL0     H92428   8.017  -1.059   3.241 -0.9868  0.1569  0.3941
  670MOL0     H92429   7.896  -0.970   3.158 -1.9904  4.5575  1.0450
  670MOL0     H92430   7.768  -0.935   3.345 -0.2333 -0.8481 -0.5539
  670MOL0     H92431   7.895  -1.015   3.461  3.6177 -0.6246 -1.7126
  670MOL0     H92432   7.807  -1.196   3.232 -0.0538  1.2837 -1.1332
  670MOL0     H92433   7.839  -1.216   3.399  2.3654  0.8317  0.1414
  670MOL0     H92434   7.597  -1.244   3.298  0.9387  0.5249 -3.1287
  670MOL0     H92435   7.597  -1.069   3.287 -2.4564 -0.9804  0.0587
  670MOL0     H92436   7.657  -1.054   3.540  0.8942  0.3895 -2.3374
  670MOL0     H92437   7.605  -1.227   3.557  1.9953  0.2716  0.8902
  670MOL0     H92438   7.413  -1.091   3.614  0.2564  2.7671  0.0125
  670MOL0     H92439   7.372  -1.171   3.463  0.1414  0.1233 -0.9387
  670MOL0     H92440   8.294  -0.691   3.003  0.7002 -0.1280 -1.0156
  670MOL0     H92441   8.473  -0.549   2.930 -0.5658 -0.9945 -0.1836
  670MOL0     H92442   8.469   0.039   2.900 -0.3258 -2.1352  0.8829
  670MOL0     H92443   8.608   0.181   2.810 -1.0877 -0.5911  1.8772
  670MOL0     H92444   7.585   0.557   2.195  2.2499 -0.1468 -0.2316
  670MOL0     H92445   7.412   0.743   2.174 -3.3734 -2.9824 -0.9296
  670MOL0     H92446   7.402   1.187   2.254 -0.5798  1.2457  1.3112
  670MOL0     H92447   7.227   1.351   2.304 -0.7646 -0.1552  0.3714
  670MOL0     H92448   6.978   1.496   1.970 -3.1823  2.3660 -0.9121
  670MOL0     H92449   6.862   1.397   2.068  0.4183 -0.4546 -1.1623
  670MOL0     H92450   6.820   1.572   2.219  0.0443 -0.5231 -0.1258
  670MOL0     H92451   6.803   1.640   2.053  1.1231  0.5622  0.1179
  670MOL0     H92452   7.021   1.685   2.258 -1.4139 -1.7814  0.8150
  670MOL0     H92453   7.046   1.719   2.085 -1.6504 -2.7004 -1.2125
  670MOL0     H92454   6.808   1.843   2.238 -1.5557  1.8320 -0.6049
  670MOL0     H92455   6.878   1.866   2.079  2.1260 -3.9455 -0.8069
  670MOL0     H92456   7.109   2.121   2.328  3.0705 -1.6652 -0.8224
  670MOL0     H92457   7.019   1.278   1.946  0.3649  2.8307  0.4223
  670MOL0     H92458   7.266   1.044   1.803  0.1773  0.2580 -1.6476
  670MOL0     H92459   7.099   0.989   1.850  3.4302 -1.9829 -2.6556
  670MOL0     H92460   7.151   1.146   1.769  2.7450  0.0643 -1.0666
  671MOL0     O92461   9.142   0.495   4.192  0.2481 -0.3853  0.1022
  671MOL0     C92462   9.080   0.572   4.115  0.3809  0.2537  0.7730
  671MOL0     O92463   9.085   0.708   4.115  0.3870 -0.6233 -0.6732
  671MOL0     C92464   9.169   0.765   4.207  0.3262  0.1825  0.5869
  671MOL0     C92465   9.274   0.848   4.164 -0.3475  0.1275 -0.3261
  671MOL0     C92466   9.350   0.909   4.266 -0.1878 -0.0357 -0.7240
  671MOL0     C92467   9.330   0.893   4.395  0.0295 -0.8770 -0.5444
  671MOL0     O92468   9.409   0.957   4.485  0.2881 -0.7369 -0.0407
  671MOL0     C92469   9.543   1.007   4.444 -0.0171  0.8610 -0.2011
  671MOL0     C92470   9.639   0.886   4.425  0.2791 -0.2553  0.4262
  671MOL0     C92471   9.780   0.906   4.483 -0.1404 -0.2120  0.1101
  671MOL0     C92472   9.841   1.050   4.450  0.8755  0.1924 -0.2775
  671MOL0     C92473   9.852   1.071   4.294 -0.5652 -0.2869  0.4879
  671MOL0     C92474   9.881   1.220   4.256 -0.0358  1.0834 -0.0290
  671MOL0     C92475   9.855   1.246   4.101 -0.6760  1.3007  0.0822
  671MOL0     C92476   9.959   1.355   4.052  0.7208  0.2002 -0.1071
  671MOL0     N92477   9.921   1.484   4.110 -0.2530  0.5273  0.0264
  671MOL0     C92478   9.812   1.549   4.080  1.3780 -0.0591 -0.1260
  671MOL0     C92479   9.819   1.671   4.127 -0.0794 -0.3047 -0.2424
  671MOL0     C92480   9.699   1.759   4.103 -0.6013  0.4179 -0.9521
  671MOL0     C92481   9.697   1.800   3.950 -0.1823  0.2922 -1.1307
  671MOL0     C92482   9.580   1.890   3.926 -0.2534  0.3581 -0.7209
  671MOL0     C92483   9.614   2.013   3.840  0.4414  0.1834  0.8243
  671MOL0     O92484   9.643   1.967   3.710  0.4876  0.0998  0.1976
  671MOL0     C92485   9.677   2.064   3.610  0.1814  0.8802  0.1327
  671MOL0     C92486   9.789   2.034   3.545 -0.7524  0.2037  0.9764
  671MOL0     C92487   9.831   2.110   3.433 -0.5011 -1.0640  0.6554
  671MOL0     C92488   9.960   2.078   3.353  0.2815 -0.2133 -0.0654
  671MOL0     C92489   9.753   2.223   3.384  0.0786 -0.4287 -0.4563
  671MOL0     C92490   9.790   2.328   3.282  1.0330  0.7175 -0.1327
  671MOL0     O92491   9.874   2.291   3.181  0.6990  0.5338 -0.1651
  671MOL0     C92492   9.912   2.383   3.091 -0.5753  1.0788 -0.6580
  671MOL0     C92493  10.042   2.433   3.117 -0.9221  0.3922  1.0626
  671MOL0     C92494  10.108   2.529   3.030  0.3433  0.4902  0.8357
  671MOL0     C92495  10.045   2.571   2.917  0.8403  0.5817 -0.6565
  671MOL0     O92496  10.102   2.656   2.826 -0.4657 -0.8359 -0.2985
  671MOL0     C92497  10.183   2.763   2.873  0.3987  0.7028 -0.9014
  671MOL0     C92498  10.222   2.854   2.761 -0.8309 -0.2380  1.0241
  671MOL0     C92499  10.341   2.934   2.801  0.1790  0.4222 -0.5425
  671MOL0     C92500  10.308   3.043   2.905 -0.6903  0.7946  0.4981
  671MOL0     C92501  10.425   3.077   3.005 -0.0432  0.3962 -0.2027
  671MOL0     C92502  10.451   2.969   3.105 -0.2245  0.0132 -0.3997
  671MOL0     C92503  10.544   3.027   3.213  0.5910  0.1648 -0.2151
  671MOL0     C92504  10.572   2.935   3.326 -0.3581  0.0287 -0.1036
  671MOL0    Cl92505  10.647   3.011   3.470 -0.3221  0.1024 -0.0224
  671MOL0     C92506   9.908   2.532   2.907  0.3790  1.0029  0.5310
  671MOL0     C92507   9.843   2.429   2.982 -0.5714  0.6476  0.6645
  671MOL0     O92508   9.750   2.441   3.299 -0.6635 -0.1573 -0.3510
  671MOL0     C92509   9.632   2.245   3.457  0.1309  0.2528  0.1016
  671MOL0     C92510   9.595   2.167   3.563 -0.5496  0.2259  0.5472
  671MOL0     N92511   9.940   1.689   4.194  0.7732  0.4112 -0.1409
  671MOL0     N92512   9.997   1.570   4.184  0.0002  0.2946 -0.7800
  671MOL0     C92513   9.212   0.830   4.444  0.4202 -0.0485  0.0792
  671MOL0     C92514   9.135   0.763   4.346 -0.1581  0.0895  0.0134
  671MOL0     C92515   9.020   0.516   3.989  0.9201  0.6675  0.7689
  671MOL0     C92516   8.931   0.405   4.004 -0.6521  0.6118  0.2558
  671MOL0     C92517   8.864   0.350   3.890 -0.5626 -0.4068 -0.2252
  671MOL0     C92518   8.884   0.410   3.758 -0.4761 -0.1603 -0.8771
  671MOL0     O92519   8.831   0.374   3.645  0.3212  0.6219  1.0095
  671MOL0     C92520   8.777   0.236   3.637  0.6947 -0.0511 -0.1440
  671MOL0     C92521   8.733   0.207   3.488  0.8857  0.2785 -1.0261
  671MOL0     C92522   8.586   0.140   3.488  0.6442 -0.0108  0.4862
  671MOL0     C92523   8.550   0.073   3.347  0.0999 -0.2954 -0.4084
  671MOL0     C92524   8.642  -0.027   3.297 -0.1137 -0.6923  0.6621
  671MOL0     C92525   8.693  -0.131   3.261  0.2976  0.3041 -0.0578
  671MOL0     C92526   8.978   0.519   3.747 -0.2816 -0.2584 -0.6842
  671MOL0     C92527   9.041   0.569   3.859  0.7530  0.5212 -0.0618
  671MOL0     C92528   9.150   0.669   3.836  0.3517  0.2031 -0.0241
  671MOL0     H92529   9.279   0.859   4.057 -2.7601  0.5646 -0.4456
  671MOL0     H92530   9.434   0.966   4.228  1.8611 -1.0040  1.9958
  671MOL0     H92531   9.587   1.067   4.524 -1.8796  1.6769  0.2746
  671MOL0     H92532   9.543   1.077   4.359  0.3564  1.3731  0.2161
  671MOL0     H92533   9.601   0.790   4.460 -3.9223  1.0356 -0.0102
  671MOL0     H92534   9.642   0.883   4.315 -0.8804  1.5863  0.3081
  671MOL0     H92535   9.766   0.886   4.590 -1.5898 -0.5245 -0.1236
  671MOL0     H92536   9.845   0.830   4.439 -0.0823  0.1483 -0.4427
  671MOL0     H92537   9.774   1.125   4.492 -2.0058 -2.1368 -0.3647
  671MOL0     H92538   9.943   1.065   4.486  0.6813  2.0258 -0.3902
  671MOL0     H92539   9.757   1.043   4.247 -2.0834  0.2893  3.0263
  671MOL0     H92540   9.929   1.005   4.252 -1.0187 -0.0924 -0.6881
  671MOL0     H92541   9.804   1.284   4.299  0.5123  1.8678 -0.2090
  671MOL0     H92542   9.979   1.249   4.295  2.0577 -2.2849 -2.2242
  671MOL0     H92543   9.755   1.287   4.088  0.4004  3.9444 -0.4405
  671MOL0     H92544   9.860   1.155   4.041  0.9049  0.5722  1.2230
  671MOL0     H92545  10.061   1.330   4.081 -0.1806 -1.1040  2.1555
  671MOL0     H92546   9.955   1.365   3.943 -1.6170  0.7522 -0.0186
  671MOL0     H92547   9.722   1.510   4.033  1.4012 -1.0677  0.6262
  671MOL0     H92548   9.699   1.850   4.163  1.0583  0.0923 -0.4289
  671MOL0     H92549   9.604   1.709   4.126  0.1600 -0.0336  1.4937
  671MOL0     H92550   9.787   1.850   3.913  1.2094  0.2987  1.9226
  671MOL0     H92551   9.687   1.709   3.890  1.6437  0.2914 -1.4863
  671MOL0     H92552   9.499   1.832   3.880  0.1931 -0.9696  0.1153
  671MOL0     H92553   9.538   1.923   4.021 -0.1387 -0.4453 -0.3863
  671MOL0     H92554   9.540   2.093   3.848 -0.0035  0.0253 -1.2198
  671MOL0     H92555   9.704   2.063   3.878 -0.3423  3.1438 -0.8860
  671MOL0     H92556   9.846   1.947   3.577  2.8087  1.2126 -2.0211
  671MOL0     H92557  10.008   1.987   3.391 -3.1744 -2.0304  0.4248
  671MOL0     H92558  10.031   2.161   3.352 -0.4986  0.4623  0.0479
  671MOL0     H92559   9.929   2.062   3.249 -0.7911 -1.8102  0.4502
  671MOL0     H92560  10.098   2.386   3.197 -2.9457 -3.1773  0.5735
  671MOL0     H92561  10.201   2.578   3.057 -0.8431  5.1750 -2.2976
  671MOL0     H92562  10.129   2.805   2.959 -0.0101  0.8304 -1.2176
  671MOL0     H92563  10.280   2.726   2.907 -0.0719  0.8349  0.6756
  671MOL0     H92564  10.252   2.791   2.676 -2.8308  1.0512 -0.7391
  671MOL0     H92565  10.140   2.923   2.741  0.1083  0.4904 -0.5471
  671MOL0     H92566  10.381   2.980   2.711  3.4043 -3.4091 -1.3514
  671MOL0     H92567  10.417   2.864   2.836  1.9105  0.6696 -3.5351
  671MOL0     H92568  10.220   3.017   2.966  0.6233 -2.1486  1.3545
  671MOL0     H92569  10.281   3.131   2.847 -0.4821  1.2512  1.0890
  671MOL0     H92570  10.517   3.096   2.948  2.8740 -3.0391  2.8963
  671MOL0     H92571  10.381   3.160   3.060  0.3092  0.2429  0.3138
  671MOL0     H92572  10.506   2.884   3.064  2.7820  1.5583  0.1593
  671MOL0     H92573  10.359   2.937   3.156  1.2564 -1.3836  1.5649
  671MOL0     H92574  10.482   3.108   3.252 -2.0030 -0.2031 -3.1770
  671MOL0     H92575  10.635   3.052   3.157 -0.0051 -0.3152 -1.4241
  671MOL0     H92576  10.646   2.862   3.291 -1.0460 -0.4781 -0.5349
  671MOL0     H92577  10.483   2.880   3.357  0.2026 -0.9127 -0.1340
  671MOL0     H92578   9.850   2.570   2.824 -0.2042 -1.6126 -0.3702
  671MOL0     H92579   9.743   2.390   2.961 -0.4541 -0.6416  2.2920
  671MOL0     H92580   9.565   2.328   3.442  0.6347  0.4367 -1.2624
  671MOL0     H92581   9.517   2.190   3.636 -1.1005  0.5711 -0.1484
  671MOL0     H92582   9.185   0.834   4.549 -1.5032 -2.0879 -0.2620
  671MOL0     H92583   9.048   0.709   4.384 -0.5905  0.9647  0.2995
  671MOL0     H92584   8.915   0.360   4.101  0.2714  0.2236  0.2422
  671MOL0     H92585   8.791   0.272   3.909  0.9896 -1.7594  0.4238
  671MOL0     H92586   8.830   0.151   3.680  1.2677 -0.7803 -2.1808
  671MOL0     H92587   8.682   0.217   3.688 -0.3236 -2.1493 -2.6023
  671MOL0     H92588   8.803   0.143   3.434  1.0878  1.8029 -2.6666
  671MOL0     H92589   8.717   0.296   3.427  1.3676 -0.3682 -2.1227
  671MOL0     H92590   8.572   0.062   3.563 -1.5300 -1.5579 -1.3705
  671MOL0     H92591   8.506   0.211   3.511  0.0586 -1.3458  2.8939
  671MOL0     H92592   8.551   0.158   3.278  0.7389 -0.4749 -0.6215
  671MOL0     H92593   8.449   0.030   3.349 -0.2695  0.3449  4.1645
  671MOL0     H92594   8.731  -0.226   3.229 -0.5799 -0.1580  0.2401
  671MOL0     H92595   8.982   0.561   3.647  0.8976 -1.3692 -1.1289
  671MOL0     H92596   9.198   0.648   3.741  1.8638 -0.0815  0.7682
  671MOL0     H92597   9.129   0.776   3.852  0.6607 -0.1553  3.8545
  671MOL0     H92598   9.235   0.664   3.904  0.5852  2.5532 -0.0711
  672MOL0     O92599   4.520  11.585  10.415 -0.0391 -1.3744  0.3096
  672MOL0     C92600   4.570  11.484  10.463 -0.0381  0.0592 -0.8506
  672MOL0     O92601   4.503  11.375  10.521 -0.1718  0.2301 -0.9914
  672MOL0     C92602   4.363  11.389  10.544 -0.2410 -0.2012 -0.5737
  672MOL0     C92603   4.279  11.446  10.448 -0.2818  0.7880  0.7270
  672MOL0     C92604   4.147  11.476  10.486  0.7999  0.0051  0.5682
  672MOL0     C92605   4.109  11.436  10.611 -0.8696  0.8980 -0.4360
  672MOL0     O92606   3.980  11.468  10.645  0.4420  0.0755 -0.6309
  672MOL0     C92607   3.937  11.501  10.777 -0.6554  0.4747 -0.2569
  672MOL0     C92608   3.813  11.569  10.768  0.8871  1.0688 -0.3142
  672MOL0     C92609   3.821  11.723  10.726  0.2746 -0.0455  0.2860
  672MOL0     C92610   3.909  11.819  10.809 -0.6231  0.2057  0.1732
  672MOL0     C92611   3.829  11.862  10.934  0.4686  0.0976 -0.6198
  672MOL0     C92612   3.916  11.947  11.026 -1.1590 -0.3558  0.4042
  672MOL0     C92613   3.988  12.063  10.960 -0.6678  0.1560 -0.4986
  672MOL0     C92614   4.089  12.119  11.063  0.6104 -0.6431  0.3994
  672MOL0     N92615   4.145  12.238  11.011  0.3423  0.4195  0.4759
  672MOL0     C92616   4.275  12.241  10.953  0.9020 -0.0392 -0.3972
  672MOL0     C92617   4.284  12.375  10.945 -0.3626  0.1642  0.0471
  672MOL0     C92618   4.408  12.442  10.887 -0.5309 -0.3399 -0.5930
  672MOL0     C92619   4.419  12.418  10.734  0.7176  0.0357 -0.4312
  672MOL0     C92620   4.288  12.448  10.663  0.1133  0.0532  0.1948
  672MOL0     C92621   4.228  12.586  10.694 -0.1173 -0.0861  0.3816
  672MOL0     O92622   4.305  12.689  10.630 -0.0942  0.6060 -0.3706
  672MOL0     C92623   4.261  12.825  10.634 -0.3916  0.5576 -0.4104
  672MOL0     C92624   4.258  12.905  10.517 -0.7354  0.1265  0.0038
  672MOL0     C92625   4.235  13.045  10.525  0.4408  1.4132 -0.1514
  672MOL0     C92626   4.239  13.107  10.399  0.3632 -0.9827 -0.3035
  672MOL0     C92627   4.184  13.106  10.646 -0.2061  0.1228 -0.5759
  672MOL0     C92628   4.139  13.244  10.657 -0.4062 -1.1759  1.1944
  672MOL0     O92629   4.113  13.274  10.792 -0.2092  0.3561 -0.0974
  672MOL0     C92630   4.074  13.398  10.844 -0.0393 -0.1988  0.0609
  672MOL0     C92631   4.018  13.505  10.773 -0.8502  0.1868  0.0723
  672MOL0     C92632   3.985  13.627  10.829  0.2480  0.4773 -0.5567
  672MOL0     C92633   3.995  13.647  10.971 -0.3833 -0.1075 -0.4072
  672MOL0     O92634   3.966  13.768  11.014 -0.4022 -0.3191  0.0344
  672MOL0     C92635   3.962  13.798  11.148 -0.0135  0.2568 -1.0896
  672MOL0     C92636   3.854  13.897  11.197  0.6094  0.9711  0.6711
  672MOL0     C92637   3.729  13.907  11.105 -0.3363  0.5348 -0.1918
  672MOL0     C92638   3.622  13.798  11.119  1.4049  0.2139 -0.6991
  672MOL0     C92639   3.502  13.816  11.019 -0.3201  0.4222  0.6647
  672MOL0     C92640   3.421  13.688  11.026 -0.3957  1.1551  0.8418
  672MOL0     C92641   3.339  13.669  11.146  0.9036  0.4393 -0.4071
  672MOL0     C92642   3.271  13.536  11.150 -0.7347  0.2771  1.5581
  672MOL0    Cl92643   3.192  13.501  10.992 -0.1138  0.0962 -0.0296
  672MOL0     C92644   4.056  13.538  11.045 -0.6271 -1.1547 -0.2680
  672MOL0     C92645   4.076  13.415  10.984  0.8132  0.4242  0.1721
  672MOL0     O92646   4.128  13.322  10.557  0.1617  0.0056 -0.3340
  672MOL0     C92647   4.185  13.020  10.762  0.6557 -0.2327 -0.1153
  672MOL0     C92648   4.235  12.888  10.758  0.4068 -0.3752 -0.4052
  672MOL0     N92649   4.169  12.444  10.980 -0.4064  1.1547  0.0239
  672MOL0     N92650   4.091  12.359  11.027  0.4481 -0.8314  0.7887
  672MOL0     C92651   4.189  11.374  10.705  0.8282 -0.2113  0.3329
  672MOL0     C92652   4.320  11.358  10.673 -0.6313  1.6297  0.6662
  672MOL0     C92653   4.715  11.472  10.461  0.2616  0.3013 -0.2928
  672MOL0     C92654   4.776  11.414  10.342 -0.4579 -0.2304 -0.4520
  672MOL0     C92655   4.912  11.380  10.345  0.5618 -0.2505 -0.3493
  672MOL0     C92656   5.001  11.431  10.442 -0.8850 -0.9616  0.1902
  672MOL0     O92657   5.137  11.425  10.440  0.1195  0.3929  0.1114
  672MOL0     C92658   5.216  11.348  10.353  0.7840 -0.9594  0.4241
  672MOL0     C92659   5.301  11.252  10.425 -0.6535  0.3249  0.9139
  672MOL0     C92660   5.366  11.146  10.340  0.0468  1.2504  0.7091
  672MOL0     C92661   5.453  11.061  10.434 -0.2562 -0.7511 -0.5589
  672MOL0     C92662   5.508  10.944  10.375 -0.5485 -0.6366  0.1394
  672MOL0     C92663   5.567  10.845  10.344 -0.1462  0.0208  0.1685
  672MOL0     C92664   4.935  11.512  10.542  0.1031 -0.2799  0.7196
  672MOL0     C92665   4.793  11.532  10.553  0.4267  0.0366  0.3451
  672MOL0     C92666   4.739  11.584  10.681  0.1093  1.3278 -1.0808
  672MOL0     H92667   4.309  11.464  10.345  1.1510 -0.7679  0.8273
  672MOL0     H92668   4.080  11.533  10.422 -0.9124 -2.0633  0.4035
  672MOL0     H92669   4.006  11.572  10.824 -0.9378  1.9866 -2.0102
  672MOL0     H92670   3.932  11.409  10.836 -0.6447  0.3033 -0.5195
  672MOL0     H92671   3.744  11.510  10.707  1.5757  1.5248 -1.5569
  672MOL0     H92672   3.757  11.562  10.862 -1.9218  0.8306 -1.9052
  672MOL0     H92673   3.877  11.726  10.632 -0.0804 -0.5376  0.0565
  672MOL0     H92674   3.723  11.766  10.703 -1.6743 -2.3819  3.5200
  672MOL0     H92675   4.003  11.778  10.847 -0.6703 -0.9763 -0.9225
  672MOL0     H92676   3.929  11.904  10.743 -2.3175  0.8782  0.4758
  672MOL0     H92677   3.788  11.780  10.994 -0.8100 -0.8494 -2.6477
  672MOL0     H92678   3.741  11.914  10.892 -0.4044 -0.3531  0.6032
  672MOL0     H92679   3.859  11.983  11.112 -1.0172 -2.4600  1.4392
  672MOL0     H92680   3.980  11.873  11.075  3.2680  1.1911 -2.3899
  672MOL0     H92681   3.910  12.135  10.933  0.4434  1.4706 -0.3024
  672MOL0     H92682   4.044  12.033  10.871 -1.6521  1.5192 -1.6139
  672MOL0     H92683   4.033  12.151  11.151  0.4977  1.4030 -0.3519
  672MOL0     H92684   4.164  12.043  11.087  2.4862  1.5662  1.8795
  672MOL0     H92685   4.340  12.158  10.928 -1.6093 -1.7598 -1.6810
  672MOL0     H92686   4.499  12.396  10.925 -1.2673 -2.0975 -0.8393
  672MOL0     H92687   4.421  12.546  10.917  1.0801 -0.3299 -1.2307
  672MOL0     H92688   4.498  12.474  10.683  0.9784 -1.5864 -1.8657
  672MOL0     H92689   4.438  12.315  10.706 -2.5252 -2.1670  4.1706
  672MOL0     H92690   4.296  12.443  10.554 -0.9527 -0.3773  0.1317
  672MOL0     H92691   4.220  12.368  10.691 -0.4239  0.8873  1.3710
  672MOL0     H92692   4.135  12.614  10.642 -0.9059 -0.6070  1.4791
  672MOL0     H92693   4.214  12.600  10.801 -2.9769  0.4666  0.0194
  672MOL0     H92694   4.283  12.853  10.425 -1.4238  0.0494 -0.1471
  672MOL0     H92695   4.296  13.201  10.394  0.3063 -1.0020 -1.9982
  672MOL0     H92696   4.142  13.138  10.360  1.0942  0.8457 -0.8220
  672MOL0     H92697   4.291  13.045  10.325 -0.6312  0.0583 -1.9474
  672MOL0     H92698   4.001  13.496  10.666 -1.2135 -1.0705  0.2118
  672MOL0     H92699   3.941  13.694  10.755 -0.9606  0.4150  0.0745
  672MOL0     H92700   3.924  13.712  11.204  0.1094  0.6433 -0.4011
  672MOL0     H92701   4.050  13.837  11.200 -2.0301  1.7791  1.4332
  672MOL0     H92702   3.818  13.873  11.297 -1.9458  2.3764  0.1644
  672MOL0     H92703   3.898  13.997  11.196  0.2591  1.2974 -4.0141
  672MOL0     H92704   3.760  13.909  11.000 -3.1365 -4.1722 -1.3744
  672MOL0     H92705   3.677  14.003  11.118 -1.8771  0.1887 -3.0198
  672MOL0     H92706   3.587  13.791  11.222 -0.7482 -1.8337 -1.4776
  672MOL0     H92707   3.670  13.701  11.106  0.6812 -0.5520  1.8833
  672MOL0     H92708   3.452  13.912  11.038  0.9803  0.7291  2.7941
  672MOL0     H92709   3.532  13.830  10.914  0.4055 -2.5667  0.3750
  672MOL0     H92710   3.487  13.601  11.029  0.8367  1.7832 -2.9731
  672MOL0     H92711   3.372  13.674  10.930 -0.7764  1.1113  1.0423
  672MOL0     H92712   3.254  13.738  11.135 -0.4212 -1.1559 -0.5636
  672MOL0     H92713   3.389  13.692  11.240  1.7997  0.0319 -0.7736
  672MOL0     H92714   3.201  13.535  11.234  1.2227  1.1130  3.2809
  672MOL0     H92715   3.341  13.453  11.165  1.8328  1.5320 -2.1092
  672MOL0     H92716   4.073  13.556  11.151 -3.7765  0.1512  0.1560
  672MOL0     H92717   4.096  13.330  11.049 -3.2060 -1.7280 -1.0406
  672MOL0     H92718   4.141  13.064  10.851 -1.8319  1.2842 -1.9484
  672MOL0     H92719   4.235  12.823  10.845  3.1002 -1.3863 -1.0679
  672MOL0     H92720   4.154  11.338  10.801  3.1366 -1.0723  0.9206
  672MOL0     H92721   4.386  11.330  10.754  0.2712  3.0552  0.4602
  672MOL0     H92722   4.708  11.378  10.266 -1.7806  1.0019  0.1011
  672MOL0     H92723   4.945  11.317  10.263  3.2299  0.0821  0.3588
  672MOL0     H92724   5.155  11.286  10.286  3.2094 -3.7269  0.5413
  672MOL0     H92725   5.258  11.412  10.275 -4.0252  1.6870 -0.3975
  672MOL0     H92726   5.228  11.207  10.494 -2.3456  2.5821  0.7106
  672MOL0     H92727   5.374  11.312  10.481 -1.2677  3.8661 -1.7472
  672MOL0     H92728   5.286  11.082  10.302 -1.0277  3.7035 -1.5307
  672MOL0     H92729   5.430  11.176  10.257  0.3693 -1.2167  0.0093
  672MOL0     H92730   5.401  11.036  10.527  1.4184  3.3204  1.7484
  672MOL0     H92731   5.532  11.129  10.468  0.0777 -1.1892 -0.4471
  672MOL0     H92732   5.608  10.748  10.325 -0.2903  0.0782 -0.4521
  672MOL0     H92733   4.992  11.545  10.628  0.0028  0.1728  0.6168
  672MOL0     H92734   4.639  11.624  10.663  0.1623  1.0066 -2.1684
  672MOL0     H92735   4.721  11.504  10.753 -0.7846  2.1019 -0.4205
  672MOL0     H92736   4.809  11.660  10.718  3.3956 -2.2013  0.7104
  673MOL0     O92737   1.806  11.055   4.872  0.1963  0.1350 -0.2694
  673MOL0     C92738   1.868  10.974   4.947  0.1941 -0.6358 -0.1801
  673MOL0     O92739   1.818  10.847   4.979  0.9179  0.4622  0.0834
  673MOL0     C92740   1.880  10.749   5.047  0.3427  0.5878 -0.4030
  673MOL0     C92741   1.813  10.689   5.150  0.8081  0.5242 -0.2554
  673MOL0     C92742   1.880  10.601   5.232 -0.0669 -0.0507  0.3282
  673MOL0     C92743   2.015  10.573   5.215 -0.4319  1.0710 -0.7010
  673MOL0     O92744   2.084  10.489   5.299  0.7939 -0.1823  0.3836
  673MOL0     C92745   2.086  10.504   5.443  0.1937 -0.7731  0.2793
  673MOL0     C92746   2.119  10.650   5.491  0.5040  0.3589  0.2552
  673MOL0     C92747   2.261  10.677   5.460 -0.2354 -1.0524 -0.2354
  673MOL0     C92748   2.354  10.624   5.567  0.2130 -0.2499  0.3664
  673MOL0     C92749   2.482  10.708   5.588  0.1187 -0.4844  0.4623
  673MOL0     C92750   2.582  10.699   5.473  1.0499  0.0229  0.0774
  673MOL0     C92751   2.703  10.784   5.507  0.1893  0.3773 -1.0572
  673MOL0     C92752   2.840  10.722   5.462 -0.0969 -0.5753  0.7132
  673MOL0     N92753   2.876  10.589   5.521 -0.3238 -0.1028 -0.2670
  673MOL0     C92754   2.880  10.469   5.445 -0.3189 -1.0193 -1.3810
  673MOL0     C92755   2.937  10.377   5.521 -0.2308  1.0583  0.2300
  673MOL0     C92756   2.972  10.235   5.476 -0.2290  0.6996  0.6003
  673MOL0     C92757   3.109  10.221   5.411 -0.2536  0.0457  0.1072
  673MOL0     C92758   3.182  10.085   5.421 -0.5337  0.0753 -0.1437
  673MOL0     C92759   3.105   9.985   5.336 -0.4736 -0.6391  0.0681
  673MOL0     O92760   3.071  10.042   5.204  0.2121  0.3630 -1.0465
  673MOL0     C92761   3.052   9.963   5.106  0.8146  0.4471  1.1384
  673MOL0     C92762   2.925   9.901   5.072 -0.2987  0.0701 -0.2664
  673MOL0     C92763   2.910   9.813   4.958  0.4008  0.5463 -0.3105
  673MOL0     C92764   2.793   9.717   4.946  0.0363 -0.4886  0.0191
  673MOL0     C92765   3.013   9.813   4.863 -0.6119  0.0345 -0.0220
  673MOL0     C92766   3.003   9.746   4.728  0.0220 -0.2822 -0.3930
  673MOL0     O92767   2.877   9.733   4.675 -0.2647 -0.0588  0.0362
  673MOL0     C92768   2.869   9.682   4.546  0.7591 -0.3469 -0.3983
  673MOL0     C92769   2.863   9.779   4.438 -0.2208 -0.2354 -0.2948
  673MOL0     C92770   2.864   9.734   4.309  0.9261 -0.4805  0.8762
  673MOL0     C92771   2.861   9.594   4.269 -0.0185  0.4135 -0.7991
  673MOL0     O92772   2.853   9.537   4.140 -0.4213  0.5430 -1.3308
  673MOL0     C92773   2.952   9.564   4.036  0.5713 -0.2936 -0.3298
  673MOL0     C92774   3.096   9.527   4.079 -0.2463  0.2579 -1.0538
  673MOL0     C92775   3.105   9.375   4.126  1.2196 -1.3862  0.7943
  673MOL0     C92776   3.222   9.297   4.063  1.1533  0.7978 -0.8474
  673MOL0     C92777   3.221   9.143   4.113 -0.7899 -0.1222  1.0269
  673MOL0     C92778   3.327   9.069   4.034 -0.6207  0.2030 -0.1699
  673MOL0     C92779   3.326   8.924   4.091  0.8516  1.4081  0.0066
  673MOL0     C92780   3.410   8.838   4.001  1.0480  0.1928 -0.6222
  673MOL0    Cl92781   3.347   8.788   3.841 -0.7814 -0.0947  0.7025
  673MOL0     C92782   2.859   9.498   4.375 -0.1902 -0.6060  0.0679
  673MOL0     C92783   2.857   9.539   4.512 -0.4144 -0.5343 -0.0345
  673MOL0     O92784   3.105   9.731   4.663 -0.0644  0.5588 -0.4619
  673MOL0     C92785   3.137   9.857   4.899 -0.2125  0.2421 -0.2191
  673MOL0     C92786   3.159   9.929   5.018 -0.7632  1.3229  0.0302
  673MOL0     N92787   2.970  10.432   5.644  0.4868 -0.6892  0.3250
  673MOL0     N92788   2.943  10.553   5.641  0.6777 -0.5854 -0.5958
  673MOL0     C92789   2.080  10.621   5.108  0.2095 -0.7405 -0.2095
  673MOL0     C92790   2.011  10.717   5.026  0.4889  0.0946 -0.6657
  673MOL0     C92791   1.997  11.022   4.996  0.4047  0.3014  0.0183
  673MOL0     C92792   2.101  11.046   4.902  0.8263 -0.3260 -0.2304
  673MOL0     C92793   2.226  11.072   4.959  0.0237  0.4132  0.8691
  673MOL0     C92794   2.255  11.069   5.091  0.2147 -0.9504  0.1435
  673MOL0     O92795   2.376  11.079   5.149 -0.1349  0.3012 -1.2351
  673MOL0     C92796   2.457  10.963   5.140  0.2933 -0.1741  0.3949
  673MOL0     C92797   2.529  10.936   4.995 -0.6654 -0.2826 -0.5393
  673MOL0     C92798   2.552  10.783   4.983 -0.4177 -0.0674 -0.6592
  673MOL0     C92799   2.686  10.757   5.057  0.2065 -0.2492  0.2946
  673MOL0     C92800   2.693  10.612   5.039 -0.1743 -0.7483  0.5695
  673MOL0     C92801   2.708  10.496   5.031 -0.5186  0.2769 -0.8078
  673MOL0     C92802   2.144  11.071   5.179  0.6134  1.2649 -0.0155
  673MOL0     C92803   2.012  11.050   5.136  0.9181  0.2473 -0.4417
  673MOL0     C92804   1.909  11.031   5.246  0.8808  0.8625  0.2216
  673MOL0     H92805   1.709  10.720   5.161  1.5324  3.1140  0.1553
  673MOL0     H92806   1.832  10.530   5.299 -0.5456 -0.6142 -0.5915
  673MOL0     H92807   2.156  10.434   5.488 -0.5334 -2.6037 -1.3114
  673MOL0     H92808   1.990  10.478   5.488 -0.5170 -1.8359 -1.7340
  673MOL0     H92809   2.065  10.734   5.447 -0.5848  0.9012  2.4718
  673MOL0     H92810   2.096  10.661   5.597 -3.6757  2.2232 -0.6112
  673MOL0     H92811   2.294  10.637   5.363 -2.7754 -0.9199 -1.2157
  673MOL0     H92812   2.271  10.786   5.456  0.8390 -1.1350 -0.0859
  673MOL0     H92813   2.297  10.608   5.659 -1.6939 -0.5363 -0.8130
  673MOL0     H92814   2.386  10.526   5.531  0.2816  0.9457 -3.2179
  673MOL0     H92815   2.538  10.679   5.678  3.1335 -3.7182 -2.1480
  673MOL0     H92816   2.462  10.814   5.607 -1.2530 -0.8057  0.8992
  673MOL0     H92817   2.622  10.597   5.472  2.8513  0.6795  1.1170
  673MOL0     H92818   2.540  10.730   5.377  0.2578 -0.8854  0.1161
  673MOL0     H92819   2.698  10.800   5.616 -4.5144 -2.7124 -0.5034
  673MOL0     H92820   2.685  10.883   5.465  1.0478  1.7539  1.5693
  673MOL0     H92821   2.838  10.716   5.352  0.8368 -0.0791  0.6671
  673MOL0     H92822   2.916  10.795   5.490  1.3223 -0.6806 -2.4672
  673MOL0     H92823   2.863  10.451   5.340 -0.6506 -0.6572 -1.3914
  673MOL0     H92824   2.893  10.192   5.415 -0.8017 -0.5771  2.1568
  673MOL0     H92825   2.990  10.165   5.559  0.5198 -0.0884 -0.2104
  673MOL0     H92826   3.105  10.259   5.308 -1.1776 -0.2204  0.0397
  673MOL0     H92827   3.173  10.288   5.469  2.4661 -1.7279 -0.6177
  673MOL0     H92828   3.288  10.088   5.391 -0.4586  1.0555  0.2070
  673MOL0     H92829   3.162  10.042   5.519 -0.8974 -1.2716 -0.7849
  673MOL0     H92830   3.175   9.902   5.322 -0.3646 -0.3983 -0.8353
  673MOL0     H92831   3.017   9.940   5.383 -0.4134  0.1133  0.9400
  673MOL0     H92832   2.852   9.895   5.152 -1.3643 -2.0669 -1.2906
  673MOL0     H92833   2.719   9.761   4.879  2.0014  4.1604  0.5352
  673MOL0     H92834   2.752   9.711   5.047  1.5383 -0.8677  0.6384
  673MOL0     H92835   2.829   9.624   4.901  0.5462 -0.1595 -0.2667
  673MOL0     H92836   2.861   9.885   4.460 -3.3129 -0.6656  2.1580
  673MOL0     H92837   2.863   9.815   4.238  0.8740 -0.9724  0.3067
  673MOL0     H92838   2.921   9.508   3.948  0.2891 -0.7400  0.0507
  673MOL0     H92839   2.949   9.665   3.994 -2.5755 -1.3583 -3.0459
  673MOL0     H92840   3.159   9.529   3.990  0.0178 -0.6949 -0.9037
  673MOL0     H92841   3.144   9.597   4.149  2.4446 -2.1504 -0.2876
  673MOL0     H92842   3.009   9.336   4.091 -0.6365  2.0420  1.6654
  673MOL0     H92843   3.110   9.380   4.235  2.8749 -1.2438  0.7317
  673MOL0     H92844   3.323   9.331   4.087  1.3732 -2.1102  3.6571
  673MOL0     H92845   3.217   9.301   3.954 -4.9878  4.0303 -0.8966
  673MOL0     H92846   3.237   9.156   4.220  1.6894 -1.4371  0.8910
  673MOL0     H92847   3.122   9.100   4.095 -0.9771 -0.3325  2.4283
  673MOL0     H92848   3.427   9.113   4.045 -1.2884  1.9161 -0.6985
  673MOL0     H92849   3.310   9.061   3.927  0.4497 -4.0698 -0.1908
  673MOL0     H92850   3.225   8.881   4.087  2.0284 -1.8685  1.6146
  673MOL0     H92851   3.356   8.909   4.196  0.6067 -1.3476 -0.2294
  673MOL0     H92852   3.440   8.748   4.055  1.3284 -2.1006 -4.2516
  673MOL0     H92853   3.504   8.890   3.980  1.9459 -1.4304 -0.8063
  673MOL0     H92854   2.854   9.391   4.357  1.1803 -0.4411 -1.5174
  673MOL0     H92855   2.851   9.452   4.577 -0.8463 -1.1982 -0.9348
  673MOL0     H92856   3.221   9.847   4.831 -0.3347  2.3885 -0.7595
  673MOL0     H92857   3.261   9.958   5.042  1.4893 -3.7205 -1.9546
  673MOL0     H92858   2.176  10.580   5.080  0.0454 -0.2912 -1.5331
  673MOL0     H92859   2.051  10.760   4.935 -1.1866 -2.5758 -2.8299
  673MOL0     H92860   2.068  11.063   4.800 -4.1538 -0.1875  1.1583
  673MOL0     H92861   2.304  11.084   4.885  0.6758 -1.2576  1.2535
  673MOL0     H92862   2.538  10.966   5.213  1.3253 -3.1216 -0.4660
  673MOL0     H92863   2.398  10.878   5.175 -2.1265  1.4538  0.5028
  673MOL0     H92864   2.613  11.004   4.983  0.8809 -1.5506  2.0639
  673MOL0     H92865   2.454  10.954   4.918 -1.1261  1.5678  0.2845
  673MOL0     H92866   2.463  10.729   5.014 -0.2571 -0.8378 -1.4939
  673MOL0     H92867   2.564  10.766   4.875  0.1609 -2.3371 -0.2767
  673MOL0     H92868   2.686  10.796   5.159 -0.3703  4.4067 -1.2789
  673MOL0     H92869   2.771  10.807   5.009  2.7130  0.6329  5.0454
  673MOL0     H92870   2.740  10.393   5.029 -0.1054  0.3727  0.1516
  673MOL0     H92871   2.162  11.070   5.286  2.2114  0.1314 -0.2392
  673MOL0     H92872   1.943  10.961   5.323 -0.2216 -0.0386 -0.0820
  673MOL0     H92873   1.899  11.122   5.305  0.6503  1.7616 -1.1504
  673MOL0     H92874   1.818  10.984   5.207  1.2766 -0.6969  1.0894
  674MOL0     O92875   4.736   1.955   2.866 -0.1893  0.9886 -0.1833
  674MOL0     C92876   4.641   1.879   2.838  0.2461  0.7476 -0.7730
  674MOL0     O92877   4.652   1.759   2.771 -0.1381  0.3343 -0.1983
  674MOL0     C92878   4.775   1.723   2.722  1.0423 -0.8031  0.2602
  674MOL0     C92879   4.826   1.609   2.770  0.3451 -0.1349 -0.2486
  674MOL0     C92880   4.953   1.572   2.715  0.3305  0.2417 -1.0066
  674MOL0     C92881   5.018   1.641   2.621 -0.3313 -0.1613  0.4159
  674MOL0     O92882   5.142   1.591   2.589  0.0539  0.2188 -0.0620
  674MOL0     C92883   5.199   1.620   2.459 -0.2516 -0.3036  0.4751
  674MOL0     C92884   5.315   1.539   2.425  0.4641 -0.1180 -0.1013
  674MOL0     C92885   5.431   1.566   2.516 -0.5056  0.3726 -0.5826
  674MOL0     C92886   5.484   1.435   2.590 -0.5212 -0.9942  0.4676
  674MOL0     C92887   5.592   1.479   2.691 -0.2232  0.6733  0.0874
  674MOL0     C92888   5.727   1.488   2.617 -0.9892 -0.6920 -0.4199
  674MOL0     C92889   5.852   1.518   2.707 -0.1100 -0.1041 -0.0389
  674MOL0     C92890   5.855   1.659   2.769 -0.4833  1.8219  0.5263
  674MOL0     N92891   5.894   1.761   2.674 -0.5248 -0.5118 -0.1012
  674MOL0     C92892   6.018   1.790   2.635 -1.3156 -1.3138  0.0516
  674MOL0     C92893   6.015   1.898   2.555 -0.1465  0.3863  0.7703
  674MOL0     C92894   6.131   1.953   2.484  0.3508  0.1981  0.2329
  674MOL0     C92895   6.186   1.842   2.392  1.0908 -0.5129 -0.1917
  674MOL0     C92896   6.311   1.878   2.300 -0.0101 -0.3767 -0.3077
  674MOL0     C92897   6.438   1.858   2.387 -0.3787  0.4100  0.0349
  674MOL0     O92898   6.560   1.905   2.316  0.5570 -0.0423  0.1872
  674MOL0     C92899   6.622   2.025   2.350 -0.4623  0.2266 -0.2170
  674MOL0     C92900   6.722   2.034   2.442 -0.1473 -0.1344 -1.0152
  674MOL0     C92901   6.791   2.157   2.468 -0.6421  0.7452  0.1026
  674MOL0     C92902   6.907   2.156   2.576 -0.5353 -0.1385 -0.1660
  674MOL0     C92903   6.748   2.272   2.406 -1.0439 -0.2484  0.6677
  674MOL0     C92904   6.830   2.392   2.402 -0.9975  0.9376  0.8178
  674MOL0     O92905   6.769   2.521   2.421  0.3691  0.0046 -0.5389
  674MOL0     C92906   6.852   2.629   2.423  0.3114 -0.1750  0.6218
  674MOL0     C92907   6.954   2.665   2.322 -0.1463  0.2635 -0.6614
  674MOL0     C92908   7.006   2.796   2.327  0.5281 -0.1853 -0.3767
  674MOL0     C92909   6.957   2.894   2.420  0.3017  0.4858 -0.2600
  674MOL0     O92910   7.010   3.013   2.432 -1.6106 -0.1010  0.0215
  674MOL0     C92911   7.071   3.089   2.326 -0.0467  0.1390  0.0730
  674MOL0     C92912   6.965   3.180   2.269  1.1903 -0.3904  0.6699
  674MOL0     C92913   6.845   3.109   2.195  0.0547 -0.5199  0.4280
  674MOL0     C92914   6.864   3.066   2.055  0.1570  0.6824  0.3147
  674MOL0     C92915   6.742   3.023   1.978 -0.5587 -0.4098 -0.1506
  674MOL0     C92916   6.757   2.992   1.826 -0.0885 -0.9145 -0.7244
  674MOL0     C92917   6.890   2.914   1.807 -0.2598  0.3019 -0.0333
  674MOL0     C92918   6.899   2.841   1.674 -0.0970  0.3908  0.4057
  674MOL0    Cl92919   6.791   2.704   1.662 -0.5365  0.4861 -0.4249
  674MOL0     C92920   6.856   2.853   2.517  0.0294 -0.0957 -0.5746
  674MOL0     C92921   6.799   2.734   2.506 -0.8852  1.1480 -0.2338
  674MOL0     O92922   6.953   2.370   2.384  0.6245  0.2319 -0.0466
  674MOL0     C92923   6.629   2.265   2.333 -0.1085 -0.2658  0.1480
  674MOL0     C92924   6.573   2.145   2.300  0.0970  0.2342  0.0425
  674MOL0     N92925   5.878   1.923   2.546 -0.4595 -0.3102 -0.4437
  674MOL0     N92926   5.807   1.850   2.625 -0.1942 -0.2509  0.3502
  674MOL0     C92927   4.952   1.756   2.574 -0.1930  1.2349 -0.1825
  674MOL0     C92928   4.831   1.799   2.622 -0.1810  0.2609 -0.3444
  674MOL0     C92929   4.507   1.917   2.887  0.2291 -0.2274  1.0934
  674MOL0     C92930   4.391   1.892   2.811  0.5320 -0.1839  0.3465
  674MOL0     C92931   4.260   1.943   2.847  0.3243  0.1593 -0.2418
  674MOL0     C92932   4.248   2.014   2.964 -0.8833 -0.0620 -0.7940
  674MOL0     O92933   4.139   2.080   3.008 -0.2012 -0.1187 -0.6579
  674MOL0     C92934   4.013   2.071   2.943  0.3097  0.1613 -0.1171
  674MOL0     C92935   3.917   2.165   3.021  0.3185  0.0577 -0.6512
  674MOL0     C92936   3.784   2.198   2.946  0.2450 -0.7329  0.2681
  674MOL0     C92937   3.676   2.244   3.051 -0.6362  0.8990  0.5274
  674MOL0     C92938   3.569   2.326   2.994 -0.5687 -0.1481  0.2430
  674MOL0     C92939   3.508   2.418   2.934 -0.5425  0.8782  0.5844
  674MOL0     C92940   4.365   2.052   3.031  0.3190 -0.3389  0.1790
  674MOL0     C92941   4.490   2.008   2.996 -0.5825  0.4527 -0.4903
  674MOL0     C92942   4.607   2.066   3.074 -0.3624 -0.9631 -0.7574
  674MOL0     H92943   4.776   1.545   2.842  1.6601 -2.0806 -0.9589
  674MOL0     H92944   5.010   1.487   2.751  2.2761  1.9162  0.1130
  674MOL0     H92945   5.228   1.725   2.471 -1.9846  0.4639 -1.4752
  674MOL0     H92946   5.121   1.607   2.384  1.0394 -2.1580 -0.6344
  674MOL0     H92947   5.287   1.434   2.437 -0.8616  0.4314  2.4568
  674MOL0     H92948   5.345   1.569   2.324 -1.0950  3.7769  0.4123
  674MOL0     H92949   5.508   1.596   2.445 -0.7099 -0.9872 -1.4072
  674MOL0     H92950   5.412   1.655   2.576 -1.5615  0.6953 -1.3715
  674MOL0     H92951   5.401   1.394   2.649  0.0705 -2.0406  0.5964
  674MOL0     H92952   5.503   1.357   2.516 -0.6757 -2.3279  1.7859
  674MOL0     H92953   5.602   1.393   2.758  1.2699 -0.9035 -2.0103
  674MOL0     H92954   5.562   1.568   2.746 -3.3887  0.9533 -1.8748
  674MOL0     H92955   5.743   1.393   2.565  0.6174 -2.8672  3.6332
  674MOL0     H92956   5.722   1.568   2.542 -1.1564 -0.7738 -0.4980
  674MOL0     H92957   5.936   1.504   2.638 -1.7065  1.7458 -2.5660
  674MOL0     H92958   5.857   1.438   2.781 -1.2807  0.6489  0.9049
  674MOL0     H92959   5.762   1.666   2.826 -1.3412 -3.5433  0.2511
  674MOL0     H92960   5.935   1.646   2.843 -0.2665 -0.5703 -0.0596
  674MOL0     H92961   6.114   1.748   2.664  1.7915  5.7255  2.0337
  674MOL0     H92962   6.207   1.992   2.553  2.6042 -1.8845 -0.9626
  674MOL0     H92963   6.092   2.035   2.423 -0.1795 -1.1418 -1.3075
  674MOL0     H92964   6.218   1.770   2.469  1.9772  1.5637  1.4992
  674MOL0     H92965   6.106   1.802   2.330 -0.0719 -0.8363  1.4422
  674MOL0     H92966   6.309   1.822   2.206  2.4944  1.6018 -1.6493
  674MOL0     H92967   6.311   1.981   2.265 -3.0175 -1.1927 -3.2526
  674MOL0     H92968   6.429   1.915   2.480  2.5782  2.8090 -0.9544
  674MOL0     H92969   6.467   1.760   2.425 -0.6373 -0.6816 -2.4380
  674MOL0     H92970   6.760   1.943   2.488  1.3003  1.3436  0.9217
  674MOL0     H92971   7.009   2.158   2.537 -1.3849  2.9588 -2.6467
  674MOL0     H92972   6.894   2.078   2.652  0.5185 -0.8294 -0.6552
  674MOL0     H92973   6.899   2.256   2.619 -2.8632  0.4774 -1.8749
  674MOL0     H92974   7.000   2.598   2.251  0.7211 -0.0600  0.1827
  674MOL0     H92975   7.096   2.809   2.267  0.8647 -1.3298 -0.1574
  674MOL0     H92976   7.163   3.136   2.360  0.0793 -0.6112  0.7992
  674MOL0     H92977   7.092   3.017   2.246 -0.4767 -1.0801  1.0181
  674MOL0     H92978   6.922   3.228   2.357 -0.3706 -0.1735 -0.1955
  674MOL0     H92979   7.014   3.252   2.203 -2.0754  3.4446  2.0786
  674MOL0     H92980   6.764   3.182   2.197  1.1414  0.7579 -0.5245
  674MOL0     H92981   6.804   3.028   2.257 -3.1877  1.6727  1.4263
  674MOL0     H92982   6.942   2.989   2.055  0.9768  1.4869 -0.5383
  674MOL0     H92983   6.899   3.147   1.990 -2.5515  1.9407  0.2687
  674MOL0     H92984   6.706   2.933   2.030 -2.3527  0.0604 -0.5045
  674MOL0     H92985   6.670   3.106   1.981  0.9162  0.9666 -1.1943
  674MOL0     H92986   6.769   3.088   1.776  0.8570 -0.6308  0.0089
  674MOL0     H92987   6.669   2.943   1.784 -0.5552 -0.7925  0.0865
  674MOL0     H92988   6.895   2.840   1.888  0.9082  0.1537 -0.2160
  674MOL0     H92989   6.977   2.979   1.824  0.3500 -0.5941  0.3570
  674MOL0     H92990   7.004   2.810   1.664 -0.2049 -0.0610  0.6360
  674MOL0     H92991   6.888   2.918   1.597 -3.0059  1.3978  1.6663
  674MOL0     H92992   6.830   2.921   2.598  4.7071  0.9652  0.3311
  674MOL0     H92993   6.718   2.694   2.565  0.0902 -1.2804 -0.4483
  674MOL0     H92994   6.605   2.365   2.298  3.1600  1.6204  2.6532
  674MOL0     H92995   6.486   2.158   2.238 -0.8549  2.5550  1.7501
  674MOL0     H92996   5.005   1.815   2.500 -0.1139  1.4136  0.0143
  674MOL0     H92997   4.774   1.883   2.585 -3.6813 -1.8175 -0.1746
  674MOL0     H92998   4.405   1.847   2.714 -3.5757 -2.5755  0.6247
  674MOL0     H92999   4.173   1.916   2.787  1.2955  2.2166 -2.7519
  674MOL0     H93000   4.020   2.078   2.834  0.8608  0.4381 -0.0682
  674MOL0     H93001   3.986   1.969   2.973 -0.4535 -0.3293 -2.2609
  674MOL0     H93002   3.966   2.258   3.051  0.3889 -0.2829  0.3147
  674MOL0     H93003   3.888   2.110   3.110  1.3825  0.9433  0.2720
  674MOL0     H93004   3.812   2.283   2.882  1.2644  0.5233  2.2579
  674MOL0     H93005   3.757   2.115   2.880  1.9758 -2.2116  1.3400
  674MOL0     H93006   3.727   2.292   3.135  0.5150 -1.8283  1.5030
  674MOL0     H93007   3.637   2.147   3.083  0.2654 -0.4620 -2.2247
  674MOL0     H93008   3.453   2.490   2.878 -0.5258 -1.1183 -2.2047
  674MOL0     H93009   4.356   2.115   3.118 -1.4455  1.3006 -1.1005
  674MOL0     H93010   4.666   1.981   3.109  0.2416 -2.2233 -4.3658
  674MOL0     H93011   4.673   2.130   3.015  0.0681 -0.9862 -0.2995
  674MOL0     H93012   4.578   2.126   3.160 -0.1757 -1.7637 -0.1217
  675MOL0     O93013   8.383   8.842   9.756  0.2227  0.4030 -0.5076
  675MOL0     C93014   8.332   8.749   9.686 -0.1800 -0.7586  1.4587
  675MOL0     O93015   8.314   8.761   9.547  0.2237 -0.8318  0.5176
  675MOL0     C93016   8.372   8.865   9.484  0.1549 -0.2578 -0.8131
  675MOL0     C93017   8.513   8.870   9.472 -0.7039  1.2684  0.2828
  675MOL0     C93018   8.573   8.984   9.423 -0.4596 -0.7205 -0.9686
  675MOL0     C93019   8.496   9.093   9.386  0.4233  0.2682 -0.0419
  675MOL0     O93020   8.559   9.209   9.341  1.2043  0.4763  0.2989
  675MOL0     C93021   8.549   9.321   9.427 -0.0240  0.4302  0.2348
  675MOL0     C93022   8.602   9.307   9.571  0.5299 -0.1453 -0.2277
  675MOL0     C93023   8.751   9.252   9.580 -0.8570  0.0778  0.6760
  675MOL0     C93024   8.777   9.188   9.718 -0.0353  0.4075  0.3162
  675MOL0     C93025   8.920   9.220   9.775 -0.2876 -1.2887 -0.3049
  675MOL0     C93026   8.925   9.361   9.831  0.5865 -0.1958  0.2343
  675MOL0     C93027   9.063   9.398   9.881  0.4532  1.0073  0.6687
  675MOL0     C93028   9.099   9.554   9.913 -1.1230 -0.1455  0.1448
  675MOL0     N93029   8.996   9.639   9.984 -0.3906 -0.5166  0.8309
  675MOL0     C93030   9.033   9.732  10.071  0.7038 -1.0902  0.6225
  675MOL0     C93031   8.924   9.808  10.097 -0.2301  1.0828 -0.7708
  675MOL0     C93032   8.904   9.926  10.188  0.5719  0.3621  0.0971
  675MOL0     C93033   9.024   9.961  10.282  0.1943  0.0027  0.3903
  675MOL0     C93034   9.003   9.874  10.405 -0.5122  0.6341  0.5046
  675MOL0     C93035   9.077   9.932  10.533 -0.1755  0.6191 -0.9742
  675MOL0     O93036   9.220   9.948  10.541  0.4813  0.3552  1.1299
  675MOL0     C93037   9.287   9.828  10.551 -0.2519  0.4486 -0.2741
  675MOL0     C93038   9.425   9.830  10.527  0.1627 -0.6621  0.0941
  675MOL0     C93039   9.522   9.728  10.551 -0.5463 -0.0191 -0.8664
  675MOL0     C93040   9.671   9.756  10.546  0.0528 -0.1274  0.2659
  675MOL0     C93041   9.472   9.601  10.596  0.7575 -0.5291  0.0155
  675MOL0     C93042   9.546   9.484  10.658 -0.4032 -0.1272  0.4577
  675MOL0     O93043   9.675   9.503  10.707  0.6261 -0.0715 -0.0606
  675MOL0     C93044   9.715   9.403  10.789 -0.5925  0.3358 -0.6960
  675MOL0     C93045   9.821   9.320  10.753  0.4982  0.0340 -0.6547
  675MOL0     C93046   9.858   9.206  10.835  1.2349 -0.9315 -0.2114
  675MOL0     C93047   9.776   9.176  10.942  0.2935 -1.1878  0.0816
  675MOL0     O93048   9.804   9.071  11.018 -0.2197  0.4617 -0.7714
  675MOL0     C93049   9.851   8.947  10.950  0.8418  0.8848 -0.0659
  675MOL0     C93050   9.890   8.826  11.041  0.6171 -0.6243 -0.9281
  675MOL0     C93051   9.774   8.759  11.114 -0.6203  0.9068 -0.3430
  675MOL0     C93052   9.651   8.830  11.173  0.1664  0.4109  0.2466
  675MOL0     C93053   9.697   8.861  11.311  0.0394  0.0284 -0.5154
  675MOL0     C93054   9.590   8.928  11.389  0.7488 -0.4204  0.9752
  675MOL0     C93055   9.624   8.982  11.528  0.7059  1.2962  1.2900
  675MOL0     C93056   9.659   8.875  11.633 -0.5610  0.1270 -0.1890
  675MOL0    Cl93057   9.729   8.960  11.776  0.3246  0.7136 -0.1640
  675MOL0     C93058   9.668   9.262  10.972 -0.7918 -0.1294 -0.7007
  675MOL0     C93059   9.644   9.374  10.906 -0.6501 -0.1314 -0.5304
  675MOL0     O93060   9.484   9.381  10.670  0.5206 -0.6612  0.1643
  675MOL0     C93061   9.336   9.598  10.603 -0.4667  0.3014  0.3685
  675MOL0     C93062   9.241   9.699  10.578 -0.0794 -0.6721 -0.2512
  675MOL0     N93063   8.818   9.742  10.032 -0.5431  0.1271  0.0842
  675MOL0     N93064   8.865   9.647   9.949  0.0665 -0.7976  0.8356
  675MOL0     C93065   8.353   9.084   9.390  0.7073 -0.1380  0.3263
  675MOL0     C93066   8.292   8.974   9.447 -0.2963  0.3032 -0.2465
  675MOL0     C93067   8.282   8.626   9.761  0.7495 -0.2983  0.4460
  675MOL0     C93068   8.272   8.637   9.903  0.8010  0.0347  0.0891
  675MOL0     C93069   8.223   8.525   9.973 -0.9746  0.4850 -0.9966
  675MOL0     C93070   8.206   8.404   9.915 -0.9044 -0.2256  0.1500
  675MOL0     O93071   8.180   8.296  10.000 -0.4186 -0.8111  0.2468
  675MOL0     C93072   8.246   8.167   9.965 -1.0529  0.2294 -0.5346
  675MOL0     C93073   8.391   8.173   9.999 -0.2956 -1.4290 -0.7410
  675MOL0     C93074   8.436   8.252  10.131  0.7714 -0.5012  0.0408
  675MOL0     C93075   8.572   8.313  10.117  0.8001  0.1086 -0.1814
  675MOL0     C93076   8.596   8.389  10.244 -0.0198  0.3418  0.5771
  675MOL0     C93077   8.632   8.451  10.338  1.7221 -0.2990  0.9482
  675MOL0     C93078   8.232   8.390   9.774 -0.8126  0.3212  0.2011
  675MOL0     C93079   8.256   8.502   9.690  0.1868 -0.3241 -0.0791
  675MOL0     C93080   8.270   8.490   9.541 -1.1337  0.2959  0.3130
  675MOL0     H93081   8.580   8.794   9.513 -0.5863  0.4703 -1.3276
  675MOL0     H93082   8.678   9.007   9.411 -0.9805  2.5125 -0.3750
  675MOL0     H93083   8.446   9.357   9.415  1.6001  4.5765 -6.2635
  675MOL0     H93084   8.614   9.395   9.380  4.0904 -1.9041  1.7634
  675MOL0     H93085   8.589   9.406   9.615 -0.5847  0.1276 -1.1270
  675MOL0     H93086   8.546   9.227   9.623  1.0639 -0.6743 -0.4578
  675MOL0     H93087   8.774   9.170   9.511  1.7251  0.7836  0.5892
  675MOL0     H93088   8.829   9.328   9.564 -0.7700  0.2241  1.7666
  675MOL0     H93089   8.701   9.210   9.794 -1.0000 -1.1594 -0.1497
  675MOL0     H93090   8.770   9.081   9.694 -3.8510  1.1315 -2.7704
  675MOL0     H93091   9.001   9.189   9.709  1.7228  1.3783  0.7374
  675MOL0     H93092   8.953   9.163   9.862  2.3488  2.2491  1.2250
  675MOL0     H93093   8.906   9.433   9.751  0.2550 -0.2506  0.2630
  675MOL0     H93094   8.844   9.365   9.904 -1.2537 -2.5491 -1.4918
  675MOL0     H93095   9.136   9.346   9.819  1.0101 -0.1819  2.2650
  675MOL0     H93096   9.081   9.345   9.975  3.2022 -0.9912 -0.8462
  675MOL0     H93097   9.194   9.559   9.967 -0.9609  0.0377 -0.1532
  675MOL0     H93098   9.107   9.608   9.818 -3.8239  5.0524  2.4503
  675MOL0     H93099   9.134   9.763  10.096  1.1890 -1.0349 -1.2616
  675MOL0     H93100   8.802   9.930  10.227 -0.4631  0.7460 -2.4806
  675MOL0     H93101   8.904  10.009  10.116  3.3954  1.5589  1.3106
  675MOL0     H93102   9.124   9.955  10.238 -0.2029  0.3120 -0.5699
  675MOL0     H93103   9.033  10.064  10.317 -2.7078 -0.1198  1.8267
  675MOL0     H93104   8.897   9.862  10.430 -0.7001 -5.7080 -1.5534
  675MOL0     H93105   9.043   9.775  10.381  1.3445  0.7498  2.7757
  675MOL0     H93106   9.033  10.028  10.560 -1.2377  0.1620 -1.0074
  675MOL0     H93107   9.052   9.865  10.616 -1.4507  3.1581  0.8030
  675MOL0     H93108   9.458   9.930  10.502 -0.4956 -0.3639  0.4075
  675MOL0     H93109   9.693   9.860  10.521 -1.8665  0.0163 -1.0939
  675MOL0     H93110   9.713   9.699  10.462 -1.6029 -1.6341  0.4016
  675MOL0     H93111   9.716   9.728  10.641 -1.4308 -2.6922  0.3060
  675MOL0     H93112   9.885   9.338  10.668  1.8125 -1.0962  0.0544
  675MOL0     H93113   9.947   9.147  10.817  0.2047 -3.4838  2.3043
  675MOL0     H93114   9.776   8.912  10.878  2.6433 -0.5479 -1.3197
  675MOL0     H93115   9.952   8.954  10.909  1.2239 -1.5680  0.3028
  675MOL0     H93116   9.914   8.752  10.964  1.8311 -0.6959 -0.5032
  675MOL0     H93117   9.981   8.835  11.102  2.1504 -4.2793 -2.3603
  675MOL0     H93118   9.827   8.690  11.180 -0.4116  0.2371 -1.2004
  675MOL0     H93119   9.727   8.686  11.048  0.1415 -1.2936  1.4103
  675MOL0     H93120   9.559   8.770  11.181  1.5598 -2.0503 -0.8850
  675MOL0     H93121   9.622   8.917  11.113  1.5110  0.9709  0.3771
  675MOL0     H93122   9.725   8.766  11.357  0.5207  1.8477  3.3511
  675MOL0     H93123   9.787   8.923  11.312 -1.2357  2.0483 -2.4320
  675MOL0     H93124   9.512   8.854  11.407 -0.0815 -0.0224 -0.7654
  675MOL0     H93125   9.542   9.007  11.330  0.0386 -1.9733 -0.6053
  675MOL0     H93126   9.541   9.040  11.570 -1.4500 -2.7273  3.2251
  675MOL0     H93127   9.708   9.049  11.511  0.6102  1.6476  2.1759
  675MOL0     H93128   9.728   8.802  11.589  1.3107  2.5679 -1.5355
  675MOL0     H93129   9.565   8.827  11.663 -1.9746  2.1662 -1.1644
  675MOL0     H93130   9.611   9.243  11.063 -1.8614  1.7170 -0.9402
  675MOL0     H93131   9.573   9.443  10.950 -0.4515  0.2900 -0.8646
  675MOL0     H93132   9.287   9.506  10.632 -3.2131  1.9458  1.3420
  675MOL0     H93133   9.135   9.675  10.590  0.4046 -2.8392  0.0777
  675MOL0     H93134   8.288   9.168   9.368  0.5976 -0.0333  1.0112
  675MOL0     H93135   8.184   8.966   9.439 -0.1084 -3.1634 -0.9795
  675MOL0     H93136   8.287   8.728   9.959 -1.2988  0.0075  0.8035
  675MOL0     H93137   8.195   8.534  10.078 -1.6063  2.4230 -1.2818
  675MOL0     H93138   8.191   8.090  10.019  1.3752  0.1866  2.1403
  675MOL0     H93139   8.235   8.140   9.860 -5.0028  2.4676 -0.8642
  675MOL0     H93140   8.432   8.226   9.912 -2.7413  2.1136  0.0549
  675MOL0     H93141   8.446   8.079  10.015 -0.5835 -1.4940 -0.1371
  675MOL0     H93142   8.360   8.327  10.153 -1.6082 -2.9668  0.8875
  675MOL0     H93143   8.450   8.177  10.210  2.9863 -1.7508 -1.4253
  675MOL0     H93144   8.545   8.389  10.044 -2.4247 -1.2793 -0.6301
  675MOL0     H93145   8.653   8.245  10.091  0.2151 -1.9891  2.9411
  675MOL0     H93146   8.647   8.502  10.431 -2.2298 -0.3341  1.7638
  675MOL0     H93147   8.215   8.299   9.716  1.7480 -0.2685  0.2850
  675MOL0     H93148   8.196   8.556   9.497 -0.9925  0.1882 -0.0983
  675MOL0     H93149   8.371   8.506   9.502  0.8577 -0.9246  4.4299
  675MOL0     H93150   8.250   8.386   9.512 -1.2385  0.4645 -0.2335
  676MOL0     O93151   6.652   7.890   3.428  0.2018 -0.5429  0.0235
  676MOL0     C93152   6.581   7.793   3.403  0.0142 -0.6003  0.7007
  676MOL0     O93153   6.445   7.798   3.399 -0.0984 -0.1613  0.1532
  676MOL0     C93154   6.376   7.915   3.436  0.3050  1.3184  0.8287
  676MOL0     C93155   6.298   7.985   3.341  0.2423  0.8087  0.4322
  676MOL0     C93156   6.225   8.099   3.390  1.0466 -0.3074 -0.0508
  676MOL0     C93157   6.220   8.142   3.522 -0.3691  0.5204  0.4583
  676MOL0     O93158   6.139   8.241   3.557 -0.3726  0.5355 -0.3863
  676MOL0     C93159   6.086   8.227   3.687 -0.0768 -0.4787 -0.5200
  676MOL0     C93160   5.958   8.299   3.704 -0.0072  0.5413 -0.3346
  676MOL0     C93161   5.844   8.238   3.626  0.9916  0.3063 -1.0720
  676MOL0     C93162   5.727   8.330   3.616 -0.2207 -0.1745 -0.0803
  676MOL0     C93163   5.612   8.249   3.560  0.2576  0.3933 -0.0707
  676MOL0     C93164   5.481   8.332   3.539 -0.3159  0.8652  0.4300
  676MOL0     C93165   5.380   8.255   3.453  0.5576  0.3967 -0.4643
  676MOL0     C93166   5.240   8.322   3.437 -0.2832 -0.6819 -0.0344
  676MOL0     N93167   5.247   8.430   3.331  0.6050  0.0685  0.4994
  676MOL0     C93168   5.280   8.413   3.205 -0.8724  0.4501 -0.1809
  676MOL0     C93169   5.274   8.532   3.143  0.4580  0.3604 -0.2917
  676MOL0     C93170   5.290   8.563   2.997 -0.3603 -0.5203  0.2829
  676MOL0     C93171   5.230   8.460   2.901  0.1360 -0.5988 -0.5502
  676MOL0     C93172   5.084   8.431   2.933  0.5584  0.0743  0.2240
  676MOL0     C93173   4.988   8.546   2.891 -0.8259 -0.1409 -0.2040
  676MOL0     O93174   5.018   8.613   2.770 -0.3856  0.5732 -0.9960
  676MOL0     C93175   4.947   8.724   2.739  1.0278  0.2828  0.2428
  676MOL0     C93176   4.966   8.786   2.619 -1.2148 -0.1730 -0.0301
  676MOL0     C93177   4.907   8.913   2.589 -0.6775 -0.3065  0.2008
  676MOL0     C93178   4.943   8.976   2.469  0.3904 -0.0877 -0.2981
  676MOL0     C93179   4.817   8.972   2.683 -0.7744  0.3812 -0.8683
  676MOL0     C93180   4.748   9.102   2.678  0.4957 -0.6975 -0.5143
  676MOL0     O93181   4.640   9.123   2.758 -0.1188  0.2490  0.4796
  676MOL0     C93182   4.598   9.252   2.781 -0.9314 -0.0507 -0.0379
  676MOL0     C93183   4.689   9.333   2.844  0.5804 -0.6187  0.2040
  676MOL0     C93184   4.646   9.467   2.869 -0.6280 -0.2126 -0.3066
  676MOL0     C93185   4.521   9.518   2.833  1.0830  0.0931  0.5781
  676MOL0     O93186   4.491   9.646   2.869 -0.2088 -1.0947 -0.3857
  676MOL0     C93187   4.364   9.705   2.829 -0.2719  0.4024 -0.3449
  676MOL0     C93188   4.384   9.763   2.682  0.0791 -0.6312  0.0710
  676MOL0     C93189   4.254   9.823   2.633  0.9675  0.3447 -0.8367
  676MOL0     C93190   4.257   9.887   2.504  0.1060  0.3080 -0.0540
  676MOL0     C93191   4.116   9.936   2.469 -0.6012 -0.0246 -0.0781
  676MOL0     C93192   4.107   9.959   2.321 -0.2713  1.3931  0.4971
  676MOL0     C93193   4.150  10.101   2.285  0.1475 -0.7668  0.1587
  676MOL0     C93194   4.160  10.146   2.142  0.1925 -0.1328  0.8115
  676MOL0    Cl93195   4.281  10.273   2.138 -0.1583 -0.5580  0.3872
  676MOL0     C93196   4.433   9.428   2.775  0.3857  0.3121 -0.4163
  676MOL0     C93197   4.476   9.294   2.740  0.1487  0.1162  0.0873
  676MOL0     O93198   4.791   9.183   2.596 -0.2495 -0.3267 -0.5123
  676MOL0     C93199   4.785   8.897   2.800 -0.2335  0.4499  0.6537
  676MOL0     C93200   4.848   8.778   2.821  0.3158  0.7495  0.0505
  676MOL0     N93201   5.237   8.634   3.235  1.5796  0.8885 -0.2180
  676MOL0     N93202   5.227   8.564   3.349 -0.2107  0.2259  0.4111
  676MOL0     C93203   6.300   8.065   3.609 -0.1696  0.0881  1.2291
  676MOL0     C93204   6.361   7.951   3.568  0.3391  0.8508  0.4145
  676MOL0     C93205   6.662   7.672   3.366 -0.6982 -0.1397  1.1859
  676MOL0     C93206   6.754   7.608   3.454 -0.1148 -0.0381  0.0351
  676MOL0     C93207   6.833   7.497   3.414  0.8399 -0.2512 -0.3338
  676MOL0     C93208   6.832   7.460   3.287  0.2813 -0.0483  0.6393
  676MOL0     O93209   6.899   7.359   3.228 -0.6371  0.7058 -0.7529
  676MOL0     C93210   6.986   7.283   3.324 -0.0343  0.3755 -0.3739
  676MOL0     C93211   7.093   7.205   3.238 -0.4493 -0.6918 -0.1586
  676MOL0     C93212   7.227   7.193   3.305  0.7146 -0.9010  0.3791
  676MOL0     C93213   7.277   7.051   3.290  0.0772 -0.0048  0.3619
  676MOL0     C93214   7.190   6.951   3.363 -0.4705  0.5805  0.1093
  676MOL0     C93215   7.130   6.890   3.448 -1.0938 -0.0201  0.5816
  676MOL0     C93216   6.754   7.530   3.198  1.1062 -0.4597 -0.5816
  676MOL0     C93217   6.668   7.638   3.236  0.0330  0.7568  0.1759
  676MOL0     C93218   6.578   7.702   3.130 -0.4973 -0.7279 -0.6208
  676MOL0     H93219   6.293   7.950   3.238  2.4228 -4.9738  1.8823
  676MOL0     H93220   6.168   8.156   3.318 -2.8468 -0.0027  2.9318
  676MOL0     H93221   6.173   8.272   3.735  3.0871 -1.7207 -4.4811
  676MOL0     H93222   6.061   8.122   3.708 -2.5109 -0.0283 -0.9040
  676MOL0     H93223   5.936   8.282   3.810  2.3827  2.8273  0.6241
  676MOL0     H93224   5.976   8.406   3.689 -1.0312  0.7360 -0.2358
  676MOL0     H93225   5.880   8.216   3.525 -0.5147 -1.7328 -1.2438
  676MOL0     H93226   5.810   8.143   3.669 -1.1065  1.0759 -0.9126
  676MOL0     H93227   5.702   8.375   3.713  1.3577 -1.3924  0.9368
  676MOL0     H93228   5.755   8.408   3.544  0.0706  1.0929  1.3528
  676MOL0     H93229   5.582   8.178   3.638 -3.8586  3.8479  1.9231
  676MOL0     H93230   5.646   8.193   3.473  1.3504 -1.0898  1.2442
  676MOL0     H93231   5.435   8.354   3.636 -3.0078 -1.4320 -0.1674
  676MOL0     H93232   5.502   8.424   3.483  0.0738  0.4665 -0.0856
  676MOL0     H93233   5.363   8.158   3.503  2.8043  1.0492  1.8076
  676MOL0     H93234   5.425   8.231   3.357 -0.3153  2.2248 -1.3737
  676MOL0     H93235   5.172   8.241   3.410 -1.6538  0.0423  1.0983
  676MOL0     H93236   5.219   8.366   3.535 -0.1074 -0.4277 -0.1108
  676MOL0     H93237   5.300   8.317   3.159  0.0049  0.1980  0.6947
  676MOL0     H93238   5.396   8.570   2.971 -0.6485 -0.4736 -0.9124
  676MOL0     H93239   5.235   8.657   2.983  2.1386  1.1277  0.7868
  676MOL0     H93240   5.234   8.498   2.799  0.2534  0.4737 -0.1587
  676MOL0     H93241   5.289   8.368   2.902 -1.4801 -1.6811  0.2665
  676MOL0     H93242   5.057   8.343   2.873 -1.7897  1.6266 -1.1450
  676MOL0     H93243   5.074   8.383   3.031 -1.7935  2.1359  1.0850
  676MOL0     H93244   4.882   8.517   2.889 -0.4958 -1.7011  1.7936
  676MOL0     H93245   4.996   8.620   2.971  2.0564  0.6102 -1.0620
  676MOL0     H93246   5.022   8.738   2.540 -1.0629  0.6151 -0.4163
  676MOL0     H93247   4.854   9.011   2.415  0.3923  1.3923  0.6124
  676MOL0     H93248   4.995   8.915   2.394 -0.3684  0.4276 -1.2737
  676MOL0     H93249   5.017   9.054   2.488  2.6723 -2.1113 -0.3225
  676MOL0     H93250   4.792   9.319   2.875  0.3532  0.2026  1.3695
  676MOL0     H93251   4.714   9.539   2.914 -0.4622 -0.8235  0.4357
  676MOL0     H93252   4.270   9.650   2.839 -1.5318  2.2729 -1.2588
  676MOL0     H93253   4.358   9.783   2.905  2.0130 -1.8851  2.4278
  676MOL0     H93254   4.452   9.848   2.692 -0.8967  0.0484  1.2359
  676MOL0     H93255   4.426   9.690   2.612 -0.0517  0.5300 -1.2596
  676MOL0     H93256   4.209   9.899   2.698 -1.3873  2.5526 -4.6553
  676MOL0     H93257   4.187   9.737   2.634  1.9145 -0.4092  0.0532
  676MOL0     H93258   4.283   9.812   2.429 -0.9168  1.0951 -1.2404
  676MOL0     H93259   4.331   9.967   2.515 -2.1943  2.2783  3.2359
  676MOL0     H93260   4.038   9.862   2.490  0.4532 -0.7376  1.5750
  676MOL0     H93261   4.102  10.025   2.531  2.0208 -1.7408  3.3125
  676MOL0     H93262   4.003   9.953   2.285  0.1788  0.2172 -0.7166
  676MOL0     H93263   4.171   9.884   2.274 -1.4689 -1.2618  2.8196
  676MOL0     H93264   4.251  10.106   2.327 -0.3668  1.2417  1.2955
  676MOL0     H93265   4.083  10.170   2.337  0.5000 -0.3366  0.0453
  676MOL0     H93266   4.064  10.173   2.099 -0.9154 -0.4803  2.9227
  676MOL0     H93267   4.202  10.055   2.098 -2.6749 -2.8384  3.1734
  676MOL0     H93268   4.334   9.460   2.746 -0.6487  1.2627  3.5639
  676MOL0     H93269   4.415   9.232   2.675 -0.9044  1.3994 -0.1980
  676MOL0     H93270   4.715   8.942   2.870  0.8669  0.3671  1.8421
  676MOL0     H93271   4.830   8.729   2.916 -1.2032  1.7665  0.3135
  676MOL0     H93272   6.295   8.092   3.715  1.3832  1.4805  0.9931
  676MOL0     H93273   6.410   7.892   3.644  1.0485 -1.8641 -1.9530
  676MOL0     H93274   6.761   7.661   3.548 -0.3377  2.6217 -1.3597
  676MOL0     H93275   6.891   7.445   3.490  3.6525  0.7011 -1.6808
  676MOL0     H93276   7.038   7.344   3.397 -1.3410 -1.6216  2.4083
  676MOL0     H93277   6.922   7.218   3.385 -0.1000 -1.2846 -2.0888
  676MOL0     H93278   7.106   7.266   3.148  0.6631  1.2073  1.2069
  676MOL0     H93279   7.058   7.105   3.211  0.3793 -0.6027 -1.7077
  676MOL0     H93280   7.283   7.269   3.251 -0.2399  0.2708  1.0048
  676MOL0     H93281   7.228   7.217   3.412  2.6096 -0.8786  0.3882
  676MOL0     H93282   7.371   7.063   3.343 -0.8950  1.3970  1.8735
  676MOL0     H93283   7.292   7.020   3.186  1.0153  2.3774 -0.2786
  676MOL0     H93284   7.098   6.815   3.518  2.0946 -3.0698 -0.9041
  676MOL0     H93285   6.750   7.518   3.090  2.3998 -1.5773 -0.5320
  676MOL0     H93286   6.563   7.629   3.050  1.3719 -1.0990 -0.6616
  676MOL0     H93287   6.483   7.723   3.181 -0.5116 -1.7349 -0.2263
  676MOL0     H93288   6.609   7.800   3.092 -1.3822  0.4537  1.5060
  677MOL0     O93289   3.504   1.965   0.858  0.5140 -0.2976  0.1610
  677MOL0     C93290   3.574   1.915   0.766  0.6363 -0.0575  0.2068
  677MOL0     O93291   3.642   1.982   0.669  0.3179  0.3939 -0.4613
  677MOL0     C93292   3.627   2.111   0.645  1.0706 -0.0809  0.1196
  677MOL0     C93293   3.497   2.167   0.626  0.5511 -0.6619  0.3813
  677MOL0     C93294   3.486   2.301   0.579  0.3335  0.4814  0.9579
  677MOL0     C93295   3.602   2.385   0.571  0.3930  0.6643  0.9568
  677MOL0     O93296   3.609   2.519   0.538 -0.3831 -0.2769 -0.4282
  677MOL0     C93297   3.479   2.577   0.528 -0.0830 -0.6395  0.0932
  677MOL0     C93298   3.496   2.732   0.535 -1.1625 -0.2176 -0.3814
  677MOL0     C93299   3.569   2.775   0.404  0.8661 -0.2408  0.4694
  677MOL0     C93300   3.599   2.930   0.408 -0.3050 -0.5612 -0.9836
  677MOL0     C93301   3.699   2.961   0.300  0.0619  0.0935 -0.6767
  677MOL0     C93302   3.771   3.091   0.339 -0.0981  0.2228 -0.2883
  677MOL0     C93303   3.846   3.133   0.209 -0.2681 -0.2464  0.2554
  677MOL0     C93304   3.977   3.049   0.183  0.1134  0.4618 -1.2054
  677MOL0     N93305   4.078   3.131   0.115  0.1119 -0.1201  0.1018
  677MOL0     C93306   4.089   3.134  -0.018 -0.4146 -0.5896  1.3603
  677MOL0     C93307   4.152   3.254  -0.051  0.4485  0.8888  0.0979
  677MOL0     C93308   4.165   3.314  -0.188 -0.4765 -0.6616  0.2476
  677MOL0     C93309   4.102   3.456  -0.191  0.3300  0.2847  0.5830
  677MOL0     C93310   4.156   3.550  -0.303 -0.3497 -0.0942  0.1347
  677MOL0     C93311   4.065   3.578  -0.420 -0.3555 -0.1268  0.4608
  677MOL0     O93312   3.984   3.686  -0.374  0.8215 -0.1022 -0.4590
  677MOL0     C93313   3.963   3.807  -0.436 -0.0179  0.8294 -0.0753
  677MOL0     C93314   4.045   3.858  -0.532 -0.3212  0.2241  0.1394
  677MOL0     C93315   4.031   3.994  -0.583 -0.6801  0.2011 -0.0182
  677MOL0     C93316   4.124   4.055  -0.687  1.1692  0.2314 -0.3504
  677MOL0     C93317   3.917   4.066  -0.535 -0.1420  1.0614 -0.6904
  677MOL0     C93318   3.880   4.187  -0.596 -0.7988  0.0369  0.5581
  677MOL0     O93319   3.838   4.288  -0.516 -1.1295 -0.2061 -1.2562
  677MOL0     C93320   3.823   4.422  -0.557  0.9435  0.4425 -0.0905
  677MOL0     C93321   3.721   4.485  -0.492 -0.6347  0.3838  0.3859
  677MOL0     C93322   3.701   4.622  -0.501  0.0312 -0.1126  0.9162
  677MOL0     C93323   3.785   4.701  -0.582 -0.0363  0.3497  0.2717
  677MOL0     O93324   3.768   4.835  -0.593 -0.6315 -0.2044  0.3062
  677MOL0     C93325   3.866   4.920  -0.666 -0.6730 -0.3738  0.2301
  677MOL0     C93326   3.846   5.080  -0.660  0.5357 -0.5369  0.1309
  677MOL0     C93327   3.979   5.157  -0.659  0.6881 -0.1927  0.5454
  677MOL0     C93328   4.061   5.136  -0.783 -0.0255 -0.1613  0.2475
  677MOL0     C93329   4.213   5.114  -0.739  0.4395 -0.3126 -0.2229
  677MOL0     C93330   4.302   5.087  -0.866 -0.2171  0.4242  0.6361
  677MOL0     C93331   4.356   5.216  -0.922 -0.3971  0.4534  0.7822
  677MOL0     C93332   4.488   5.242  -0.862  0.3596 -0.0694 -1.1378
  677MOL0    Cl93333   4.461   5.338  -0.713 -0.5809  0.3917 -0.1571
  677MOL0     C93334   3.895   4.633  -0.648  0.8561 -0.5625  0.0340
  677MOL0     C93335   3.916   4.499  -0.628 -0.0504 -0.3449  0.4301
  677MOL0     O93336   3.887   4.195  -0.721  0.9684  0.3296  0.9645
  677MOL0     C93337   3.835   4.010  -0.436  0.9956 -1.4995  0.1189
  677MOL0     C93338   3.862   3.885  -0.386  0.6426 -0.1119  0.1023
  677MOL0     N93339   4.193   3.319   0.068  0.0258 -0.1565 -0.6085
  677MOL0     N93340   4.139   3.246   0.165  0.8053  0.2854 -0.0103
  677MOL0     C93341   3.726   2.330   0.606  0.2127 -0.5408  0.6666
  677MOL0     C93342   3.738   2.198   0.642 -0.5653 -0.0908 -0.4388
  677MOL0     C93343   3.575   1.767   0.758 -0.3682 -0.5132 -0.5584
  677MOL0     C93344   3.692   1.709   0.712 -0.5253 -0.3479  0.2506
  677MOL0     C93345   3.695   1.570   0.691 -0.2966  0.0664 -0.1660
  677MOL0     C93346   3.588   1.484   0.721  0.5077  0.4707  0.3625
  677MOL0     O93347   3.587   1.350   0.685 -0.2496 -0.3741 -0.4945
  677MOL0     C93348   3.564   1.329   0.541 -0.2015  0.5196 -0.6695
  677MOL0     C93349   3.421   1.285   0.516 -0.5860 -0.1222 -0.0979
  677MOL0     C93350   3.404   1.139   0.553 -0.4861 -0.0171 -0.2323
  677MOL0     C93351   3.276   1.085   0.508 -0.1198 -0.0051 -0.2623
  677MOL0     C93352   3.254   1.085   0.359  0.3800 -0.6366 -0.3854
  677MOL0     C93353   3.236   1.105   0.242  0.4816 -0.8456  0.3079
  677MOL0     C93354   3.472   1.547   0.764 -0.8565 -0.0361  0.3868
  677MOL0     C93355   3.461   1.688   0.790  1.1786  0.3925  0.2593
  677MOL0     C93356   3.311   1.721   0.807  0.8723 -0.2225  0.4650
  677MOL0     H93357   3.405   2.112   0.639  1.2976 -2.1752 -0.5059
  677MOL0     H93358   3.383   2.336   0.575 -1.0878 -3.2992 -0.4416
  677MOL0     H93359   3.414   2.549   0.610 -0.0938  1.0149  0.6827
  677MOL0     H93360   3.440   2.546   0.430  4.4989 -1.5975 -1.7009
  677MOL0     H93361   3.393   2.771   0.532 -0.9725  0.5372  1.6499
  677MOL0     H93362   3.553   2.757   0.625  2.2641 -1.2714 -2.0857
  677MOL0     H93363   3.661   2.716   0.392  1.5464  1.2648 -2.6580
  677MOL0     H93364   3.517   2.754   0.311  1.5710  1.5328 -0.3729
  677MOL0     H93365   3.516   3.002   0.406  1.6015  1.7348 -1.4191
  677MOL0     H93366   3.649   2.952   0.503 -3.5616 -1.5508  1.1276
  677MOL0     H93367   3.654   2.960   0.200 -1.0996 -0.0213 -0.1782
  677MOL0     H93368   3.768   2.878   0.288 -0.7534 -0.6959 -0.0527
  677MOL0     H93369   3.701   3.175   0.352  1.5477  1.6257 -0.1699
  677MOL0     H93370   3.831   3.093   0.431  0.6613 -0.8554 -0.7423
  677MOL0     H93371   3.880   3.235   0.233  1.0096 -0.9344  1.4990
  677MOL0     H93372   3.784   3.142   0.119  2.7823 -2.0767 -2.2415
  677MOL0     H93373   4.034   3.013   0.269 -0.6669 -3.2824 -2.0947
  677MOL0     H93374   3.950   2.964   0.120  3.0405 -0.4536 -1.3248
  677MOL0     H93375   4.040   3.077  -0.096  0.3461 -0.3993  0.7313
  677MOL0     H93376   4.120   3.244  -0.259  2.3383 -0.0041 -2.3827
  677MOL0     H93377   4.273   3.324  -0.206 -0.5198 -0.2618  0.2020
  677MOL0     H93378   3.994   3.445  -0.205  0.2399  1.6114  0.1024
  677MOL0     H93379   4.131   3.502  -0.097 -2.4498  0.3147  1.5246
  677MOL0     H93380   4.186   3.640  -0.248 -2.7407  0.5124  0.5602
  677MOL0     H93381   4.242   3.499  -0.346 -0.0805  1.8705 -1.8186
  677MOL0     H93382   4.126   3.612  -0.504 -2.3615 -1.5117 -1.6752
  677MOL0     H93383   4.005   3.498  -0.464 -1.3974  1.0490 -0.3204
  677MOL0     H93384   4.129   3.798  -0.567 -0.4880 -0.9856  1.7015
  677MOL0     H93385   4.120   4.164  -0.689 -1.1098  0.3126  2.5074
  677MOL0     H93386   4.087   4.013  -0.781  3.5369 -3.2527  0.0608
  677MOL0     H93387   4.226   4.021  -0.665  0.2153 -2.0129  1.0318
  677MOL0     H93388   3.670   4.426  -0.417  0.4181 -0.3627  0.5317
  677MOL0     H93389   3.627   4.681  -0.448  0.8032  2.9261 -1.0808
  677MOL0     H93390   3.965   4.897  -0.628 -0.4532 -0.1607 -0.2027
  677MOL0     H93391   3.856   4.904  -0.774 -2.4235 -3.0672  0.6938
  677MOL0     H93392   3.792   5.121  -0.746  3.8689 -0.2242 -1.9899
  677MOL0     H93393   3.795   5.084  -0.563 -0.9223 -0.6423 -0.5984
  677MOL0     H93394   4.036   5.121  -0.572 -0.7054  0.8783  1.9769
  677MOL0     H93395   3.965   5.265  -0.652 -3.6527 -0.6409  1.4184
  677MOL0     H93396   4.068   5.236  -0.828  2.3118  0.4592  1.7673
  677MOL0     H93397   4.033   5.058  -0.854 -0.6948  1.0565 -0.8728
  677MOL0     H93398   4.251   5.196  -0.677  1.5728 -0.8917 -0.1280
  677MOL0     H93399   4.223   5.020  -0.683  2.1440 -0.7110 -1.1342
  677MOL0     H93400   4.259   5.034  -0.951  0.6439 -1.1090  1.1076
  677MOL0     H93401   4.387   5.022  -0.842 -0.1190 -0.8227 -2.5617
  677MOL0     H93402   4.299   5.309  -0.915 -1.0825  0.0024  1.2525
  677MOL0     H93403   4.374   5.209  -1.030 -5.5217  1.7767 -0.4002
  677MOL0     H93404   4.552   5.302  -0.928 -0.7263  0.2349 -1.9354
  677MOL0     H93405   4.539   5.146  -0.850 -1.1017 -0.7390 -0.0280
  677MOL0     H93406   3.960   4.693  -0.710  1.0962  1.7511  2.3529
  677MOL0     H93407   3.994   4.450  -0.686  0.9208  2.1958 -0.5554
  677MOL0     H93408   3.749   4.061  -0.396  1.7024 -0.5501  0.4591
  677MOL0     H93409   3.793   3.838  -0.317 -0.6072 -0.5518 -1.3979
  677MOL0     H93410   3.819   2.385   0.597  0.4760 -0.8761  1.3532
  677MOL0     H93411   3.839   2.170   0.670 -0.7921  2.6549  4.1137
  677MOL0     H93412   3.787   1.756   0.688  0.1738 -2.0782 -0.4790
  677MOL0     H93413   3.785   1.521   0.656 -1.5516 -1.3539 -1.5771
  677MOL0     H93414   3.591   1.423   0.491  0.1022  0.5243 -0.4964
  677MOL0     H93415   3.629   1.248   0.507  0.4623  1.0009 -0.5611
  677MOL0     H93416   3.384   1.312   0.417 -1.1585  1.8039  0.5908
  677MOL0     H93417   3.367   1.352   0.584  2.4695 -0.6869  3.1318
  677MOL0     H93418   3.496   1.087   0.527 -0.8352 -1.2959  0.9634
  677MOL0     H93419   3.402   1.120   0.661 -0.6750 -2.7051 -0.6635
  677MOL0     H93420   3.205   1.147   0.563  0.8768  1.9982 -1.1381
  677MOL0     H93421   3.265   0.987   0.556 -0.5986  1.5101  2.9809
  677MOL0     H93422   3.220   1.130   0.139 -1.1550  2.2550  1.2054
  677MOL0     H93423   3.398   1.469   0.779 -0.3498 -0.0999  3.0600
  677MOL0     H93424   3.264   1.766   0.719 -0.4676  1.5232  2.0133
  677MOL0     H93425   3.260   1.629   0.837 -1.3089 -0.1119 -2.4582
  677MOL0     H93426   3.294   1.805   0.875  2.6897  0.6534 -0.1005
  678MOL0     O93427   6.023   6.532   0.260  0.4063 -0.0247 -1.1716
  678MOL0     C93428   6.018   6.604   0.166  0.0956 -0.4947  1.2582
  678MOL0     O93429   5.916   6.611   0.079  0.1022 -0.1266  0.2530
  678MOL0     C93430   5.834   6.504   0.085  0.3421 -0.3429  0.0147
  678MOL0     C93431   5.877   6.372   0.081  1.3446 -0.1250  0.0493
  678MOL0     C93432   5.793   6.261   0.078 -0.1146 -0.1135  0.2861
  678MOL0     C93433   5.657   6.297   0.090  0.8081  1.2435  0.8167
  678MOL0     O93434   5.580   6.180   0.086  0.0696  0.1877  0.0299
  678MOL0     C93435   5.438   6.181   0.100 -0.5243  0.2566 -0.2620
  678MOL0     C93436   5.420   6.222   0.248 -0.3622 -0.1377  0.2597
  678MOL0     C93437   5.271   6.209   0.280  0.5197  1.0187  0.6042
  678MOL0     C93438   5.217   6.312   0.385 -0.0035 -0.0306  0.2803
  678MOL0     C93439   5.079   6.276   0.426 -0.0268  0.3626  0.5738
  678MOL0     C93440   5.014   6.379   0.517  0.5672 -0.1313  0.7430
  678MOL0     C93441   4.898   6.325   0.596 -0.6369  0.6816  0.3094
  678MOL0     C93442   4.942   6.236   0.717  0.4382 -0.7335  0.2282
  678MOL0     N93443   4.829   6.172   0.783  0.3368  0.1208  0.0726
  678MOL0     C93444   4.777   6.054   0.734 -1.0682  0.2408  0.2108
  678MOL0     C93445   4.653   6.042   0.787 -0.4813 -1.0318  0.0978
  678MOL0     C93446   4.555   5.932   0.778 -0.5014 -0.1360 -1.2049
  678MOL0     C93447   4.516   5.925   0.630  0.1681 -0.0023  0.9625
  678MOL0     C93448   4.419   6.040   0.586 -0.6488 -0.2295  0.2959
  678MOL0     C93449   4.492   6.143   0.496 -0.6234 -1.0059  0.9914
  678MOL0     O93450   4.482   6.103   0.365 -0.9388 -0.2254 -0.0883
  678MOL0     C93451   4.573   6.163   0.278 -0.1310  0.2693 -0.6046
  678MOL0     C93452   4.554   6.136   0.148  0.1086  0.8197  1.4499
  678MOL0     C93453   4.647   6.182   0.045 -0.0459  0.5889  0.1214
  678MOL0     C93454   4.631   6.121  -0.090  0.9989  0.3775 -0.3182
  678MOL0     C93455   4.749   6.270   0.086  0.4090  0.6038  0.2036
  678MOL0     C93456   4.855   6.325  -0.001  0.0245  0.5523 -0.6780
  678MOL0     O93457   4.922   6.431   0.055  0.2358  0.2086 -0.1134
  678MOL0     C93458   5.028   6.493  -0.011 -0.1403 -0.7597  0.0736
  678MOL0     C93459   5.033   6.629  -0.035  1.1155 -0.3705  0.3727
  678MOL0     C93460   5.142   6.695  -0.093 -0.3108  0.1835 -0.4514
  678MOL0     C93461   5.264   6.620  -0.121 -0.3664  0.0624 -0.2552
  678MOL0     O93462   5.367   6.671  -0.189 -0.4699 -0.8271  0.1098
  678MOL0     C93463   5.349   6.773  -0.289  0.1519  0.2299 -0.4002
  678MOL0     C93464   5.440   6.739  -0.417  0.4474  0.5836 -0.1204
  678MOL0     C93465   5.447   6.847  -0.520 -1.0904  1.1660 -0.1807
  678MOL0     C93466   5.322   6.863  -0.603 -0.1766  0.3364  1.1006
  678MOL0     C93467   5.304   7.004  -0.680 -0.5393  0.1347 -0.8285
  678MOL0     C93468   5.193   6.995  -0.783 -1.1067  0.6157  0.3327
  678MOL0     C93469   5.215   6.901  -0.899 -0.5308 -0.0826 -0.4010
  678MOL0     C93470   5.334   6.920  -1.000 -0.4928  0.2630 -0.8726
  678MOL0    Cl93471   5.338   7.094  -1.046  0.6986  0.3573  0.0447
  678MOL0     C93472   5.265   6.486  -0.090 -0.7372  0.0469  0.2101
  678MOL0     C93473   5.145   6.422  -0.043  0.2776 -0.0604 -0.1906
  678MOL0     O93474   4.848   6.292  -0.125 -0.2477 -0.2624 -0.5025
  678MOL0     C93475   4.751   6.319   0.221 -0.2863 -0.2082  0.0526
  678MOL0     C93476   4.657   6.270   0.313 -0.1664  0.1093  0.2715
  678MOL0     N93477   4.648   6.154   0.880 -0.0695 -0.8470  0.0781
  678MOL0     N93478   4.736   6.232   0.856 -0.6504 -0.5179  0.6162
  678MOL0     C93479   5.612   6.424   0.096 -0.6790  0.1859  0.9880
  678MOL0     C93480   5.701   6.535   0.084 -0.1308  0.6744  0.4085
  678MOL0     C93481   6.131   6.705   0.152  0.9388 -0.3398  1.0782
  678MOL0     C93482   6.124   6.790   0.043  0.1136 -0.2449  0.5660
  678MOL0     C93483   6.227   6.892   0.025  0.1046 -0.2112  0.1825
  678MOL0     C93484   6.322   6.918   0.127  0.1843  0.2431  0.1883
  678MOL0     O93485   6.417   7.018   0.115  0.0687  0.1363  0.8084
  678MOL0     C93486   6.548   6.957   0.102 -0.5488 -0.2393  0.5069
  678MOL0     C93487   6.585   6.934  -0.044 -0.4390  0.5194 -1.0379
  678MOL0     C93488   6.593   7.073  -0.118 -0.6218  0.1628 -0.4054
  678MOL0     C93489   6.544   7.082  -0.258  0.7896 -0.4406  0.0535
  678MOL0     C93490   6.394   7.094  -0.268  0.3679  0.5511  0.2842
  678MOL0     C93491   6.274   7.108  -0.286 -0.0495  0.6891 -0.7047
  678MOL0     C93492   6.319   6.828   0.236  0.3528 -0.2143 -0.4074
  678MOL0     C93493   6.234   6.721   0.244  1.0499  0.2175 -0.5324
  678MOL0     C93494   6.257   6.636   0.364 -0.2740 -0.1270  0.4089
  678MOL0     H93495   5.981   6.342   0.075  2.3881  3.2225 -0.8562
  678MOL0     H93496   5.817   6.156   0.061  0.3060  0.1095 -0.5605
  678MOL0     H93497   5.411   6.076   0.083  1.9331 -0.3936 -0.5769
  678MOL0     H93498   5.379   6.248   0.038  1.5697  5.0180  2.3928
  678MOL0     H93499   5.467   6.147   0.313 -0.4669  1.4015  2.2137
  678MOL0     H93500   5.476   6.308   0.287  3.0344 -2.4537  1.0193
  678MOL0     H93501   5.199   6.209   0.197 -0.0921  1.9081  1.1176
  678MOL0     H93502   5.266   6.113   0.333  0.1441 -0.3265 -1.7182
  678MOL0     H93503   5.291   6.328   0.465 -1.2793  0.8179  1.3404
  678MOL0     H93504   5.211   6.408   0.335 -0.6441 -0.4334 -0.4361
  678MOL0     H93505   5.074   6.178   0.474  1.1996  0.8840  1.8594
  678MOL0     H93506   5.029   6.270   0.329 -0.9814 -3.8612  1.1268
  678MOL0     H93507   5.090   6.414   0.589  1.8364 -1.0398 -0.1103
  678MOL0     H93508   4.967   6.461   0.462 -0.3402 -0.0504  1.6199
  678MOL0     H93509   4.843   6.259   0.528  1.0200 -0.9125  0.4554
  678MOL0     H93510   4.838   6.407   0.636  3.9024  5.8317 -2.1125
  678MOL0     H93511   5.008   6.156   0.682  2.5655 -0.3964  3.0412
  678MOL0     H93512   4.993   6.301   0.789 -0.6102 -0.1801  0.4875
  678MOL0     H93513   4.830   5.994   0.661 -0.5822  2.4357 -1.3307
  678MOL0     H93514   4.465   5.954   0.837 -0.3530  0.0449 -1.0441
  678MOL0     H93515   4.600   5.842   0.820 -4.5943 -0.9743  2.1418
  678MOL0     H93516   4.605   5.931   0.566 -0.9588 -0.5819 -0.7225
  678MOL0     H93517   4.468   5.830   0.607 -0.1094 -0.1422  2.0710
  678MOL0     H93518   4.333   6.004   0.528 -1.1257 -0.5731  1.1986
  678MOL0     H93519   4.380   6.089   0.676 -3.4774 -1.4030 -0.1754
  678MOL0     H93520   4.439   6.236   0.514 -1.4959 -1.8027  2.7672
  678MOL0     H93521   4.595   6.154   0.530 -0.5621  1.8688  0.1371
  678MOL0     H93522   4.478   6.067   0.113 -1.8414  3.0131  1.1152
  678MOL0     H93523   4.613   6.196  -0.168 -1.7266  0.5212  0.3532
  678MOL0     H93524   4.545   6.054  -0.093  0.3983  0.7472  3.5594
  678MOL0     H93525   4.723   6.068  -0.118  0.2290 -0.8358 -0.6435
  678MOL0     H93526   4.957   6.693   0.009  2.9849  0.6100  2.4486
  678MOL0     H93527   5.137   6.803  -0.106 -2.6956  0.3928  1.6262
  678MOL0     H93528   5.246   6.785  -0.324 -0.3316 -2.6162 -0.2095
  678MOL0     H93529   5.382   6.872  -0.255  1.5496  0.3932 -2.0521
  678MOL0     H93530   5.540   6.728  -0.375  2.3823  1.4241 -4.1069
  678MOL0     H93531   5.412   6.645  -0.464  1.0778  0.4728 -0.2826
  678MOL0     H93532   5.533   6.828  -0.586 -0.0149  2.7755  0.6824
  678MOL0     H93533   5.463   6.937  -0.460  0.3141  2.1784 -1.9597
  678MOL0     H93534   5.239   6.843  -0.535 -1.1704 -0.1022 -0.2114
  678MOL0     H93535   5.330   6.785  -0.679  1.8128  2.4956 -1.0998
  678MOL0     H93536   5.281   7.077  -0.602  1.2445  0.0334 -0.1445
  678MOL0     H93537   5.401   7.028  -0.725  0.2071 -2.8046 -0.9981
  678MOL0     H93538   5.178   7.096  -0.823 -2.2545  1.0268  1.6815
  678MOL0     H93539   5.101   6.963  -0.732  0.9618 -3.5287  1.8941
  678MOL0     H93540   5.124   6.907  -0.959  0.9742 -1.2096 -2.9635
  678MOL0     H93541   5.219   6.797  -0.862 -0.8497 -0.0170 -0.1747
  678MOL0     H93542   5.310   6.863  -1.090 -3.1277  0.3999 -0.3399
  678MOL0     H93543   5.436   6.898  -0.965 -1.9397 -1.7992  2.5299
  678MOL0     H93544   5.358   6.429  -0.095 -0.4440  0.4256  1.1704
  678MOL0     H93545   5.170   6.318  -0.026 -0.2558 -0.3252 -0.9917
  678MOL0     H93546   4.809   6.397   0.271 -3.1741  2.6233 -0.7002
  678MOL0     H93547   4.655   6.322   0.409 -4.4108  1.8674 -0.5647
  678MOL0     H93548   5.506   6.450   0.101 -1.0413 -0.4426 -1.5293
  678MOL0     H93549   5.666   6.638   0.077  1.6041  1.4028  1.6611
  678MOL0     H93550   6.043   6.778  -0.028  1.4855  0.9367 -1.3056
  678MOL0     H93551   6.233   6.958  -0.061 -4.6604 -1.2229 -1.1918
  678MOL0     H93552   6.616   7.030   0.147 -1.1203  0.2248  0.6363
  678MOL0     H93553   6.563   6.864   0.159 -1.3732  0.3709  1.7660
  678MOL0     H93554   6.510   6.868  -0.089 -2.3046  0.7677  1.4622
  678MOL0     H93555   6.678   6.879  -0.055 -2.7986 -3.6856 -2.1746
  678MOL0     H93556   6.545   7.157  -0.068  1.8802  0.9018  0.9086
  678MOL0     H93557   6.701   7.084  -0.106 -0.9588  1.6290  2.2371
  678MOL0     H93558   6.583   7.001  -0.320 -0.1304  0.2042 -1.4304
  678MOL0     H93559   6.580   7.178  -0.298 -0.4061  0.5841  1.3621
  678MOL0     H93560   6.170   7.120  -0.309 -0.5701  1.6878  1.8523
  678MOL0     H93561   6.395   6.834   0.314 -1.9394 -0.5172  1.9924
  678MOL0     H93562   6.358   6.652   0.402  0.3074 -2.1188 -0.2233
  678MOL0     H93563   6.193   6.666   0.448  0.4312 -1.5517  1.4962
  678MOL0     H93564   6.247   6.530   0.342  1.5237 -0.6200  1.7217
  679MOL0     O93565   1.500   2.585   9.862 -0.8588  0.8731  0.2725
  679MOL0     C93566   1.520   2.577   9.990 -0.4958  0.5772  0.7500
  679MOL0     O93567   1.575   2.674  10.065 -0.0877 -0.0794  0.5763
  679MOL0     C93568   1.626   2.784  10.006  0.6891 -0.6203 -0.4466
  679MOL0     C93569   1.744   2.782   9.932  1.2151 -0.6294 -0.2015
  679MOL0     C93570   1.782   2.900   9.875  0.4930  0.5398  0.2563
  679MOL0     C93571   1.703   3.023   9.882  0.5806  0.3276 -0.3300
  679MOL0     O93572   1.763   3.128   9.827  0.7416 -0.7925 -0.2348
  679MOL0     C93573   1.707   3.252   9.835  0.2842 -0.5159  0.1695
  679MOL0     C93574   1.799   3.363   9.789 -0.5065 -0.6811 -0.8402
  679MOL0     C93575   1.877   3.336   9.663  0.2422 -0.5457 -0.2687
  679MOL0     C93576   1.882   3.465   9.574 -0.7649 -0.5108 -0.3876
  679MOL0     C93577   1.963   3.417   9.451  0.5227  0.3433 -0.9905
  679MOL0     C93578   1.979   3.523   9.343  0.1574 -0.8059  0.0584
  679MOL0     C93579   2.029   3.454   9.223  0.1788  1.1347  0.1406
  679MOL0     C93580   2.170   3.379   9.234 -1.0033  0.0229 -1.3998
  679MOL0     N93581   2.275   3.479   9.276  0.1955  0.5320  0.5049
  679MOL0     C93582   2.300   3.518   9.408  0.5581 -0.3384 -0.1771
  679MOL0     C93583   2.393   3.612   9.392 -0.4276 -1.2177  0.3578
  679MOL0     C93584   2.476   3.663   9.505  0.2761 -0.0394  0.0224
  679MOL0     C93585   2.614   3.598   9.517  0.1860 -0.1468 -1.0479
  679MOL0     C93586   2.676   3.633   9.659 -0.0075  0.5300  0.1608
  679MOL0     C93587   2.797   3.549   9.685 -0.5949 -0.6641  0.6779
  679MOL0     O93588   2.802   3.422   9.630 -0.6107 -0.2525  0.1960
  679MOL0     C93589   2.898   3.336   9.670  0.2816 -0.0969  0.3814
  679MOL0     C93590   2.863   3.200   9.659 -0.2639  0.1976 -0.9828
  679MOL0     C93591   2.952   3.100   9.708 -0.1437 -0.8334 -0.4040
  679MOL0     C93592   2.926   2.962   9.655 -0.3032  0.2943 -0.5292
  679MOL0     C93593   3.076   3.133   9.762  0.5095 -0.4907  0.1885
  679MOL0     C93594   3.184   3.039   9.808  0.1845 -0.6961 -0.3804
  679MOL0     O93595   3.317   3.056   9.770  0.8773  0.6301  0.3390
  679MOL0     C93596   3.407   2.959   9.808 -0.2742  0.3738  1.1732
  679MOL0     C93597   3.462   2.890   9.697 -0.7988  0.9031  0.8294
  679MOL0     C93598   3.550   2.781   9.719  0.9315  0.4226 -0.3446
  679MOL0     C93599   3.588   2.756   9.853 -0.0844 -0.5043 -0.2301
  679MOL0     O93600   3.665   2.638   9.871  0.6956 -0.0448 -0.3766
  679MOL0     C93601   3.795   2.642   9.929 -0.3409  0.6592  0.3437
  679MOL0     C93602   3.888   2.541   9.860 -0.3848 -0.2076  0.1930
  679MOL0     C93603   4.037   2.586   9.852  0.1643  0.6325 -0.3099
  679MOL0     C93604   4.097   2.660   9.969 -0.3729  0.7752 -0.2425
  679MOL0     C93605   4.251   2.647   9.975 -0.2661  0.5183  0.1215
  679MOL0     C93606   4.325   2.749   9.887  0.3448 -0.4502 -0.4172
  679MOL0     C93607   4.479   2.735   9.877 -0.2065  0.2656 -0.3012
  679MOL0     C93608   4.557   2.871   9.863  0.3524 -0.7846  0.2841
  679MOL0    Cl93609   4.729   2.848   9.895  0.0422 -0.0639 -0.0675
  679MOL0     C93610   3.552   2.838   9.958 -0.3863  1.3554 -0.8643
  679MOL0     C93611   3.468   2.946   9.933  0.1704 -0.0897 -0.1510
  679MOL0     O93612   3.137   2.942   9.873  0.1288 -0.4708 -0.1306
  679MOL0     C93613   3.114   3.268   9.767 -0.3018 -0.9244  0.2574
  679MOL0     C93614   3.019   3.367   9.727 -0.1489 -0.7564 -0.4289
  679MOL0     N93615   2.424   3.620   9.254 -0.4573 -0.1977 -0.6896
  679MOL0     N93616   2.365   3.531   9.188 -0.7926 -0.6188 -0.3406
  679MOL0     C93617   1.574   3.017   9.945 -0.0387 -0.5751  0.9084
  679MOL0     C93618   1.537   2.892   9.998  0.7776  0.6058  1.0909
  679MOL0     C93619   1.461   2.452  10.046  0.1440 -0.0430 -0.0822
  679MOL0     C93620   1.546   2.370  10.121 -0.0033 -0.3894  0.3148
  679MOL0     C93621   1.500   2.243  10.162  0.2003  0.6402  0.1176
  679MOL0     C93622   1.367   2.204  10.143 -0.6213 -1.2215 -0.0578
  679MOL0     O93623   1.311   2.080  10.170 -0.2036 -0.3618  0.0846
  679MOL0     C93624   1.212   2.072  10.278 -0.4350 -0.4096  0.2055
  679MOL0     C93625   1.129   1.947  10.264  0.6536  0.7903 -0.2354
  679MOL0     C93626   1.192   1.817  10.296 -0.5037 -0.1521  0.6164
  679MOL0     C93627   1.089   1.706  10.299  0.3450 -0.4978 -0.7107
  679MOL0     C93628   1.135   1.567  10.315  0.3860  0.5758 -0.7102
  679MOL0     C93629   1.173   1.451  10.320  0.1129  0.0575  1.0721
  679MOL0     C93630   1.281   2.294  10.073 -0.6883  0.1422  0.1695
  679MOL0     C93631   1.330   2.415  10.023 -0.5115  0.2853  0.5428
  679MOL0     C93632   1.234   2.508   9.948 -0.1869 -0.4435  0.1001
  679MOL0     H93633   1.795   2.687   9.938 -0.8630 -1.8075 -0.1699
  679MOL0     H93634   1.879   2.917   9.829  1.5230 -2.3600  1.1507
  679MOL0     H93635   1.670   3.278   9.935  1.7779  0.7861  0.4251
  679MOL0     H93636   1.621   3.242   9.768  0.3454  0.2560 -0.0306
  679MOL0     H93637   1.740   3.455   9.785 -1.9710 -1.3317  2.3344
  679MOL0     H93638   1.879   3.367   9.864 -0.5306 -2.4493 -0.6866
  679MOL0     H93639   1.977   3.312   9.701  0.3265 -0.5871 -0.5187
  679MOL0     H93640   1.832   3.257   9.603  1.0525  0.9455 -2.9907
  679MOL0     H93641   1.779   3.494   9.553 -1.4707 -2.4730  0.0685
  679MOL0     H93642   1.920   3.552   9.628  2.0662 -1.5635 -0.5035
  679MOL0     H93643   1.912   3.330   9.408 -0.2160 -0.1435  0.8100
  679MOL0     H93644   2.060   3.383   9.490  0.6053  1.4127 -0.2389
  679MOL0     H93645   1.879   3.568   9.336 -0.5935 -2.2936  0.6259
  679MOL0     H93646   2.039   3.603   9.387 -1.5135 -1.3622  3.7483
  679MOL0     H93647   2.031   3.522   9.137  0.5416 -0.6901 -1.3651
  679MOL0     H93648   1.947   3.387   9.196  1.8217 -1.1068  0.4139
  679MOL0     H93649   2.153   3.298   9.306 -6.0071  1.0130 -1.0604
  679MOL0     H93650   2.193   3.330   9.139 -3.4682 -4.2172 -0.1061
  679MOL0     H93651   2.260   3.475   9.500  0.3925  0.5054  0.1532
  679MOL0     H93652   2.415   3.645   9.594 -0.6210  1.9715 -0.1502
  679MOL0     H93653   2.485   3.770   9.485  0.5266 -0.3917 -1.9261
  679MOL0     H93654   2.601   3.489   9.510  0.5260 -0.1987 -0.9072
  679MOL0     H93655   2.671   3.633   9.430  1.3092 -3.3623 -1.7607
  679MOL0     H93656   2.694   3.740   9.674  0.7146  1.0813 -3.6446
  679MOL0     H93657   2.605   3.606   9.738  0.0495  1.6009  0.5908
  679MOL0     H93658   2.887   3.603   9.654  0.3464 -1.8046  1.3240
  679MOL0     H93659   2.809   3.539   9.794  0.0307 -2.2322  0.4879
  679MOL0     H93660   2.769   3.186   9.607 -2.7328 -0.0102  3.1407
  679MOL0     H93661   3.018   2.904   9.669  0.8387  1.4207 -2.7713
  679MOL0     H93662   2.902   2.963   9.549 -2.7905  4.2932 -0.1208
  679MOL0     H93663   2.843   2.909   9.701  0.5985  0.2280  1.1109
  679MOL0     H93664   3.444   2.920   9.595  0.3281  4.0076  1.4427
  679MOL0     H93665   3.586   2.722   9.635  3.9049  2.0226 -0.3241
  679MOL0     H93666   3.829   2.744   9.908 -2.8461  0.9953 -2.6435
  679MOL0     H93667   3.785   2.637  10.038  0.7534  0.6372  0.4628
  679MOL0     H93668   3.902   2.457   9.928 -0.3295 -0.9303 -0.6979
  679MOL0     H93669   3.847   2.505   9.765 -1.0251 -0.1180  0.4282
  679MOL0     H93670   4.061   2.658   9.773  2.2309 -2.6716 -2.9798
  679MOL0     H93671   4.097   2.497   9.830 -1.4420 -0.6716  0.4192
  679MOL0     H93672   4.059   2.616  10.062 -0.9780 -2.0369 -1.7081
  679MOL0     H93673   4.062   2.764   9.966  0.3058  1.1399  2.2064
  679MOL0     H93674   4.295   2.661  10.074  1.2555 -0.4650 -0.3698
  679MOL0     H93675   4.283   2.546   9.948  2.2309  0.7059  2.0116
  679MOL0     H93676   4.289   2.843   9.930  1.2836 -0.1473 -0.2676
  679MOL0     H93677   4.277   2.738   9.789 -0.1254  0.9237 -0.3575
  679MOL0     H93678   4.487   2.679   9.783 -1.0751 -1.8109  0.7910
  679MOL0     H93679   4.514   2.682   9.966  0.2565  0.7844 -0.1716
  679MOL0     H93680   4.519   2.944   9.936 -0.3523  2.3687 -2.9230
  679MOL0     H93681   4.547   2.919   9.765  1.7057  5.0477  2.5662
  679MOL0     H93682   3.581   2.812  10.059 -3.2875 -0.4498 -0.3812
  679MOL0     H93683   3.433   3.017  10.006  0.1532  1.0361 -1.2272
  679MOL0     H93684   3.210   3.279   9.817 -0.6520  0.7088  0.6326
  679MOL0     H93685   3.056   3.468   9.731 -0.0845 -0.7191 -1.6376
  679MOL0     H93686   1.515   3.108   9.941  3.4505  1.8993 -2.4703
  679MOL0     H93687   1.433   2.880  10.027  0.2521 -1.1880 -1.2061
  679MOL0     H93688   1.648   2.403  10.139 -0.5085  1.3963  0.1191
  679MOL0     H93689   1.572   2.170  10.196  2.2350  1.7360 -1.5816
  679MOL0     H93690   1.273   2.084  10.368  0.3549 -1.3154 -0.1869
  679MOL0     H93691   1.132   2.147  10.282 -0.4104 -0.3845  0.2344
  679MOL0     H93692   1.096   1.940  10.160 -1.1843  2.1688  0.2085
  679MOL0     H93693   1.044   1.946  10.333  0.9339  1.8450  0.1442
  679MOL0     H93694   1.273   1.798  10.225 -2.0170  0.6243 -1.4259
  679MOL0     H93695   1.242   1.822  10.393  1.8992 -1.8791 -0.4184
  679MOL0     H93696   1.037   1.719  10.204  0.2770  0.3936 -0.5580
  679MOL0     H93697   1.020   1.720  10.382  0.4200  0.7567 -0.8474
  679MOL0     H93698   1.207   1.350  10.334  0.4238 -0.2213 -1.2808
  679MOL0     H93699   1.185   2.259  10.037 -0.3662 -0.0753 -0.4950
  679MOL0     H93700   1.136   2.505   9.996  0.8526 -0.2323  2.3534
  679MOL0     H93701   1.259   2.614   9.953 -1.0507  0.0289 -3.0691
  679MOL0     H93702   1.209   2.470   9.848 -2.2352  0.2082  0.3123
  680MOL0     O93703   0.274   4.196   2.466  0.2744 -0.1413 -0.0719
  680MOL0     C93704   0.365   4.248   2.395  0.6635 -1.0405  0.1701
  680MOL0     O93705   0.423   4.370   2.414  1.0784 -0.1807  0.3289
  680MOL0     C93706   0.385   4.451   2.517 -0.2249 -0.1461 -0.2361
  680MOL0     C93707   0.487   4.533   2.561 -0.4276 -0.7594  0.8736
  680MOL0     C93708   0.460   4.628   2.664 -0.0809 -0.0115  0.4230
  680MOL0     C93709   0.335   4.629   2.729  1.3751 -0.2763  0.9219
  680MOL0     O93710   0.308   4.693   2.848 -0.0116  0.3342 -0.3296
  680MOL0     C93711   0.409   4.760   2.925 -0.1648 -0.7543  0.2659
  680MOL0     C93712   0.497   4.659   3.008  0.4254 -0.4285  0.5115
  680MOL0     C93713   0.439   4.651   3.145 -0.4117 -0.0297  0.1746
  680MOL0     C93714   0.308   4.568   3.141 -1.1958 -0.5328 -0.2233
  680MOL0     C93715   0.251   4.533   3.281 -0.6460 -0.3752  1.0744
  680MOL0     C93716   0.185   4.663   3.332 -0.3567  0.1678  0.3938
  680MOL0     C93717   0.163   4.635   3.477 -0.0423 -0.6796 -0.1584
  680MOL0     C93718   0.128   4.755   3.556  0.2949  0.8524 -0.3219
  680MOL0     N93719   0.041   4.727   3.674  1.2041  0.2550 -0.1910
  680MOL0     C93720  -0.070   4.653   3.683 -0.2123  0.0709 -0.8085
  680MOL0     C93721  -0.109   4.658   3.810  0.2790  0.2628 -0.1690
  680MOL0     C93722  -0.221   4.581   3.872 -0.1337 -0.0328  0.3994
  680MOL0     C93723  -0.166   4.444   3.930  0.9321  0.5086  0.1975
  680MOL0     C93724  -0.286   4.362   3.972 -0.6632 -0.0141 -0.5348
  680MOL0     C93725  -0.254   4.226   4.024  0.2559 -0.5274 -0.1237
  680MOL0     O93726  -0.385   4.168   4.027 -0.3089  0.2098 -0.7209
  680MOL0     C93727  -0.424   4.038   4.059 -1.4708 -0.9588 -0.6320
  680MOL0     C93728  -0.559   3.997   4.047  0.0526 -0.0985  0.8912
  680MOL0     C93729  -0.596   3.854   4.047 -1.0172  0.9133 -0.6926
  680MOL0     C93730  -0.742   3.839   3.998 -1.5983  0.0112 -0.2996
  680MOL0     C93731  -0.496   3.754   4.071  1.0013  0.0563 -0.8221
  680MOL0     C93732  -0.521   3.614   4.090 -0.2236 -0.2410 -0.5200
  680MOL0     O93733  -0.413   3.542   4.129  0.0859 -0.0759  0.0670
  680MOL0     C93734  -0.429   3.405   4.170 -0.0199 -0.0046  0.1886
  680MOL0     C93735  -0.521   3.357   4.261  0.2556 -0.8220  0.0738
  680MOL0     C93736  -0.514   3.227   4.312  0.2226 -0.1107 -0.3592
  680MOL0     C93737  -0.455   3.134   4.232 -0.8021 -0.6158  0.5104
  680MOL0     O93738  -0.471   3.007   4.267 -0.1936 -0.8540 -0.1418
  680MOL0     C93739  -0.436   2.905   4.181 -0.0592 -0.5436  0.1864
  680MOL0     C93740  -0.510   2.783   4.230 -1.2693 -0.6861 -0.8969
  680MOL0     C93741  -0.663   2.787   4.203 -0.6241  0.0973 -0.0917
  680MOL0     C93742  -0.730   2.700   4.305  0.2370  0.2445  0.2199
  680MOL0     C93743  -0.868   2.642   4.269 -0.3023  0.3919  0.1179
  680MOL0     C93744  -0.974   2.760   4.269  0.8647 -0.9515  0.5293
  680MOL0     C93745  -1.119   2.725   4.221 -0.0677 -0.6621 -0.1241
  680MOL0     C93746  -1.114   2.631   4.101 -0.5744  0.2746 -0.3049
  680MOL0    Cl93747  -1.277   2.631   4.038  0.1741  0.1015  0.5130
  680MOL0     C93748  -0.360   3.174   4.127  0.7295 -0.5076 -0.5604
  680MOL0     C93749  -0.342   3.316   4.108  0.0120  0.1200  0.4611
  680MOL0     O93750  -0.626   3.564   4.059  0.2532  1.0843  0.5819
  680MOL0     C93751  -0.368   3.812   4.101  0.0891  0.1419  0.3057
  680MOL0     C93752  -0.331   3.945   4.108 -0.2625  0.4862 -0.4158
  680MOL0     N93753  -0.014   4.738   3.867  0.0807 -0.7544 -0.7484
  680MOL0     N93754   0.083   4.785   3.790  0.9117  0.2952 -0.1930
  680MOL0     C93755   0.234   4.535   2.687 -0.0955 -0.0436  0.3641
  680MOL0     C93756   0.255   4.459   2.578 -0.2130  0.8763  0.1853
  680MOL0     C93757   0.429   4.157   2.293 -0.8174 -0.1180 -0.6076
  680MOL0     C93758   0.560   4.185   2.253  1.0142 -0.2703  0.4903
  680MOL0     C93759   0.618   4.110   2.142  0.1151 -1.2242 -1.2360
  680MOL0     C93760   0.548   4.016   2.073 -0.1933  0.3863 -0.9048
  680MOL0     O93761   0.615   3.956   1.969 -0.6331 -0.1530 -0.0339
  680MOL0     C93762   0.539   3.887   1.872  0.0003 -0.0789 -0.4306
  680MOL0     C93763   0.635   3.848   1.765  0.0221  1.1627 -0.5768
  680MOL0     C93764   0.688   3.969   1.682 -0.1657  0.1251 -0.0884
  680MOL0     C93765   0.748   3.922   1.550 -0.5430  0.7573 -0.0595
  680MOL0     C93766   0.656   3.851   1.475  0.0420  0.4586  0.0259
  680MOL0     C93767   0.580   3.779   1.400 -0.3758 -0.9462 -0.1639
  680MOL0     C93768   0.418   3.980   2.121  0.0143  0.3027  0.0203
  680MOL0     C93769   0.366   4.056   2.230  0.1703  0.4233 -0.6254
  680MOL0     C93770   0.223   4.004   2.270 -0.2884  0.2900 -0.3754
  680MOL0     H93771   0.586   4.548   2.518 -1.1339  0.1543 -0.5102
  680MOL0     H93772   0.542   4.686   2.705 -0.1621  0.5896 -0.2488
  680MOL0     H93773   0.356   4.831   2.989 -0.7321 -2.4408  1.7576
  680MOL0     H93774   0.465   4.827   2.859  0.6946  0.1237  1.8263
  680MOL0     H93775   0.504   4.570   2.945  2.4574 -0.3491  0.5523
  680MOL0     H93776   0.598   4.702   3.014  0.0726  0.6348 -0.7045
  680MOL0     H93777   0.514   4.612   3.215 -2.1103  2.2834  3.5546
  680MOL0     H93778   0.422   4.754   3.177 -0.0087  0.8249 -2.2289
  680MOL0     H93779   0.231   4.625   3.088  0.9127  0.1557 -2.7902
  680MOL0     H93780   0.321   4.476   3.082 -4.5155 -1.5845  0.4929
  680MOL0     H93781   0.338   4.499   3.337  2.7979  1.3898 -2.6585
  680MOL0     H93782   0.169   4.460   3.280  1.0823 -2.4324  2.2112
  680MOL0     H93783   0.249   4.750   3.321  0.4709  0.0884  3.5195
  680MOL0     H93784   0.090   4.679   3.279 -0.1967 -0.5919 -0.1349
  680MOL0     H93785   0.250   4.590   3.526 -1.4441 -0.6830  2.5647
  680MOL0     H93786   0.082   4.562   3.480  0.8426 -1.6618  1.6541
  680MOL0     H93787   0.218   4.814   3.575 -0.8675  3.1515 -1.4917
  680MOL0     H93788   0.061   4.823   3.501 -3.6187 -1.0208  1.7131
  680MOL0     H93789  -0.112   4.584   3.611  0.0262 -1.2208  0.2466
  680MOL0     H93790  -0.291   4.552   3.793  1.0612  0.0237 -0.7031
  680MOL0     H93791  -0.266   4.631   3.959  2.6844 -2.5097  3.5411
  680MOL0     H93792  -0.116   4.395   3.846 -0.0617 -0.9363  0.3991
  680MOL0     H93793  -0.105   4.475   4.015 -0.3711  1.3028  0.8699
  680MOL0     H93794  -0.341   4.413   4.051 -1.4174  0.2753 -1.2336
  680MOL0     H93795  -0.348   4.347   3.883 -0.5586  1.4727 -0.8794
  680MOL0     H93796  -0.194   4.166   3.955  0.6596 -0.2836  0.0155
  680MOL0     H93797  -0.222   4.220   4.128 -0.8067 -0.1772  0.2440
  680MOL0     H93798  -0.629   4.079   4.035  0.2193  0.6681  4.1613
  680MOL0     H93799  -0.798   3.933   4.003  0.6418  1.3783  3.3702
  680MOL0     H93800  -0.784   3.759   4.061  0.3534 -0.5408  0.3948
  680MOL0     H93801  -0.751   3.804   3.895 -4.5093  0.0421 -0.1318
  680MOL0     H93802  -0.593   3.431   4.296  2.0346  2.6038 -2.7894
  680MOL0     H93803  -0.571   3.185   4.394  2.5089 -1.5898  0.5681
  680MOL0     H93804  -0.463   2.927   4.077  0.1746 -0.4909  0.1376
  680MOL0     H93805  -0.329   2.888   4.187 -0.0883 -0.3066  1.6776
  680MOL0     H93806  -0.464   2.698   4.179 -0.0481 -0.2840 -0.5057
  680MOL0     H93807  -0.489   2.776   4.337 -3.0471 -0.0200 -0.4821
  680MOL0     H93808  -0.666   2.734   4.108  1.0513 -2.3017  1.1041
  680MOL0     H93809  -0.709   2.886   4.196 -1.1815  0.0545  2.0941
  680MOL0     H93810  -0.729   2.763   4.394 -1.5042  2.6284 -1.3097
  680MOL0     H93811  -0.658   2.619   4.315  0.1523  0.0320 -0.7498
  680MOL0     H93812  -0.847   2.594   4.173  0.0553 -0.8918  0.8158
  680MOL0     H93813  -0.911   2.573   4.342 -3.2160  1.2393 -0.6568
  680MOL0     H93814  -0.940   2.840   4.203  1.5148 -1.5038  0.1695
  680MOL0     H93815  -0.989   2.815   4.361 -0.2689  0.9007 -0.7030
  680MOL0     H93816  -1.175   2.811   4.184 -1.0839 -1.9374 -1.6868
  680MOL0     H93817  -1.176   2.680   4.303 -0.8882  1.1623  0.3427
  680MOL0     H93818  -1.099   2.528   4.134 -1.6512 -1.0544 -3.5108
  680MOL0     H93819  -1.042   2.657   4.023  1.6005 -1.7375  0.8972
  680MOL0     H93820  -0.295   3.101   4.079 -0.0519 -2.4942  1.2580
  680MOL0     H93821  -0.273   3.353   4.032  0.0145 -0.7300  0.0389
  680MOL0     H93822  -0.280   3.751   4.117  0.7388  1.0928  0.4378
  680MOL0     H93823  -0.229   3.980   4.118 -1.4721  5.3231 -1.9556
  680MOL0     H93824   0.150   4.515   2.752  1.2811 -2.7588  1.4956
  680MOL0     H93825   0.175   4.398   2.537  0.9403  0.1508 -1.0920
  680MOL0     H93826   0.625   4.263   2.294  2.4233 -0.6618 -0.9159
  680MOL0     H93827   0.718   4.140   2.115 -1.4083  3.8291 -2.4300
  680MOL0     H93828   0.500   3.800   1.926  0.7950 -0.5989 -0.6901
  680MOL0     H93829   0.452   3.949   1.847 -0.6864  1.3007  4.2493
  680MOL0     H93830   0.574   3.781   1.704 -1.9343  3.3002 -1.1334
  680MOL0     H93831   0.708   3.786   1.817 -3.0211 -0.1082  2.5982
  680MOL0     H93832   0.601   4.034   1.667 -0.8384 -1.2208 -2.4870
  680MOL0     H93833   0.748   4.037   1.743 -1.1312  4.1114 -3.2142
  680MOL0     H93834   0.830   3.855   1.576 -1.2409 -0.2421 -0.3440
  680MOL0     H93835   0.787   4.005   1.490 -1.1380  1.0270 -0.0843
  680MOL0     H93836   0.509   3.733   1.335 -2.1737  2.1510 -0.5703
  680MOL0     H93837   0.377   3.884   2.093 -0.2355  0.9248 -1.8614
  680MOL0     H93838   0.166   4.095   2.249  0.5292  0.8202 -0.3397
  680MOL0     H93839   0.188   3.919   2.211 -1.7839 -0.6597  1.7402
  680MOL0     H93840   0.222   3.968   2.374  0.6465 -0.3964 -0.5968
  681MOL0     O93841   6.494   0.404   6.739 -0.9395  0.0005  0.1277
  681MOL0     C93842   6.508   0.437   6.623 -0.0923  0.8446 -0.3223
  681MOL0     O93843   6.612   0.517   6.592  0.6444  0.6372  0.3480
  681MOL0     C93844   6.697   0.568   6.680  0.3868  0.8502 -0.8489
  681MOL0     C93845   6.827   0.521   6.694  0.2062  0.3923 -0.0160
  681MOL0     C93846   6.916   0.573   6.782  0.2191  0.4565  0.0736
  681MOL0     C93847   6.876   0.684   6.865  0.3640  0.5275  0.2527
  681MOL0     O93848   6.947   0.732   6.969 -0.0556 -0.4387  0.7441
  681MOL0     C93849   7.075   0.675   7.018  0.5964  0.1094 -0.4688
  681MOL0     C93850   7.123   0.762   7.142  0.6824 -0.1253 -0.4391
  681MOL0     C93851   7.275   0.773   7.155  0.6707  0.0509 -0.4437
  681MOL0     C93852   7.339   0.651   7.207 -0.2163 -0.2319 -0.0394
  681MOL0     C93853   7.481   0.659   7.215 -0.5038 -0.5958 -0.6206
  681MOL0     C93854   7.548   0.681   7.076  0.1532  0.2408 -0.6024
  681MOL0     C93855   7.699   0.657   7.088  0.0416 -0.9053 -0.1669
  681MOL0     C93856   7.768   0.691   6.955 -0.4319 -0.2414  0.1604
  681MOL0     N93857   7.905   0.729   7.000 -0.8898  0.6763 -0.5080
  681MOL0     C93858   7.960   0.857   6.981 -0.7270  0.1266  0.8603
  681MOL0     C93859   8.094   0.842   6.999 -0.7518 -0.2250 -0.5535
  681MOL0     C93860   8.200   0.953   6.986 -0.6401 -0.7253  0.0356
  681MOL0     C93861   8.172   1.069   7.079  1.1825  0.2937  0.1770
  681MOL0     C93862   8.287   1.157   7.116  0.5786 -0.3444 -0.0785
  681MOL0     C93863   8.239   1.277   7.212  0.6435  0.3879 -0.1263
  681MOL0     O93864   8.263   1.248   7.346 -0.3937  1.4732  0.0529
  681MOL0     C93865   8.392   1.234   7.381 -0.7714 -0.8542  0.5392
  681MOL0     C93866   8.471   1.342   7.362 -0.2157  0.0700  0.6568
  681MOL0     C93867   8.604   1.340   7.406 -0.8123  0.6344  0.5007
  681MOL0     C93868   8.697   1.454   7.382 -0.2065  0.5126  0.1907
  681MOL0     C93869   8.649   1.233   7.483 -0.7818  0.1943 -0.0418
  681MOL0     C93870   8.783   1.227   7.552  0.7263  0.4254 -0.5131
  681MOL0     O93871   8.830   1.098   7.556 -0.2317 -0.4076  0.1341
  681MOL0     C93872   8.943   1.063   7.626  0.0397  0.3386  0.3860
  681MOL0     C93873   9.076   1.079   7.582  0.4612 -0.6828  1.2137
  681MOL0     C93874   9.179   1.035   7.661  0.1760  0.6518  0.5641
  681MOL0     C93875   9.161   0.975   7.775 -0.5174 -0.5514 -0.4570
  681MOL0     O93876   9.276   0.941   7.849 -0.3629  0.1279  0.5412
  681MOL0     C93877   9.290   0.804   7.894 -0.3271 -0.8618  0.2898
  681MOL0     C93878   9.401   0.748   7.809  0.1534  0.2993  0.4517
  681MOL0     C93879   9.535   0.810   7.826 -1.0563 -0.9930 -0.4806
  681MOL0     C93880   9.646   0.732   7.753  0.2579 -0.0052 -0.6021
  681MOL0     C93881   9.776   0.803   7.777  0.4729 -0.2418 -0.2576
  681MOL0     C93882   9.908   0.726   7.733 -1.4451  0.9790  0.0287
  681MOL0     C93883  10.031   0.818   7.763 -0.2436  0.1408 -0.5700
  681MOL0     C93884  10.155   0.751   7.703  0.2410  0.2390  0.3277
  681MOL0    Cl93885  10.132   0.696   7.540 -0.4115  0.4661 -0.0181
  681MOL0     C93886   9.020   0.949   7.815 -0.3555 -0.5107  0.6179
  681MOL0     C93887   8.916   0.988   7.740  0.6727 -1.0977 -0.1034
  681MOL0     O93888   8.847   1.325   7.596  0.5748  0.0104  0.1005
  681MOL0     C93889   8.566   1.118   7.495  0.4733 -0.0041 -0.9705
  681MOL0     C93890   8.441   1.118   7.443  0.4959 -0.3720 -0.2853
  681MOL0     N93891   8.112   0.709   7.051 -0.2174  0.8714  0.8321
  681MOL0     N93892   7.996   0.649   7.061 -0.1269 -0.9675 -0.6164
  681MOL0     C93893   6.751   0.743   6.846  0.2401 -0.3966  0.0134
  681MOL0     C93894   6.664   0.695   6.745 -0.5188  0.1752 -0.0868
  681MOL0     C93895   6.414   0.396   6.525  1.0807 -0.6577  0.6794
  681MOL0     C93896   6.427   0.445   6.394 -0.1674 -0.2210 -0.1438
  681MOL0     C93897   6.349   0.407   6.290  0.5728 -0.8297 -0.6228
  681MOL0     C93898   6.242   0.318   6.316 -1.4896  0.4177 -0.0199
  681MOL0     O93899   6.169   0.258   6.211  0.6833  0.1161 -0.4808
  681MOL0     C93900   6.113   0.351   6.113  0.1663  0.2715 -0.2900
  681MOL0     C93901   5.966   0.324   6.081  0.9770  0.1448 -0.2770
  681MOL0     C93902   5.954   0.161   6.053  0.3962  0.1843  0.9915
  681MOL0     C93903   5.803   0.129   6.030 -0.7780 -0.7880  0.8705
  681MOL0     C93904   5.785   0.113   5.883  0.3663 -0.6153 -0.1931
  681MOL0     C93905   5.764   0.097   5.763 -0.0697  0.3877  0.1251
  681MOL0     C93906   6.223   0.269   6.436  0.7259  0.1134  0.6545
  681MOL0     C93907   6.303   0.304   6.545 -0.7914  0.4979 -1.0583
  681MOL0     C93908   6.265   0.231   6.669 -0.1434 -0.3045  0.2915
  681MOL0     H93909   6.858   0.444   6.625  0.8829  2.0719 -1.6499
  681MOL0     H93910   7.015   0.530   6.775 -0.5385 -1.5611  0.9219
  681MOL0     H93911   7.153   0.690   6.943  0.9566  0.6098  0.0008
  681MOL0     H93912   7.069   0.572   7.054 -0.2658  0.5241  0.6351
  681MOL0     H93913   7.070   0.856   7.126 -1.9151 -1.4196 -0.0815
  681MOL0     H93914   7.077   0.724   7.234 -1.3833  0.3342 -1.2362
  681MOL0     H93915   7.322   0.805   7.061  1.5409  3.5350  1.0270
  681MOL0     H93916   7.295   0.855   7.224 -1.1086  0.9878 -0.9601
  681MOL0     H93917   7.289   0.638   7.303  0.1428  0.2473  0.2157
  681MOL0     H93918   7.311   0.567   7.142  2.3604 -0.7473 -0.5860
  681MOL0     H93919   7.532   0.569   7.251 -2.4921 -1.9309 -0.9148
  681MOL0     H93920   7.510   0.739   7.283 -0.2492 -3.7809  3.3778
  681MOL0     H93921   7.500   0.626   6.994 -2.2817  1.2305  0.0498
  681MOL0     H93922   7.532   0.786   7.049 -0.3012  0.2654 -0.2521
  681MOL0     H93923   7.723   0.560   7.131 -3.1273 -1.6008  0.3038
  681MOL0     H93924   7.729   0.730   7.164 -2.3429  0.7363 -0.6686
  681MOL0     H93925   7.772   0.611   6.880  1.8781  0.9906 -1.1739
  681MOL0     H93926   7.717   0.779   6.916  0.8738  0.9498  1.0264
  681MOL0     H93927   7.898   0.940   6.950 -3.1872 -2.2122 -1.0423
  681MOL0     H93928   8.209   0.983   6.881 -1.2156  2.3665  0.7678
  681MOL0     H93929   8.295   0.915   7.025  1.8995  2.2458 -2.6497
  681MOL0     H93930   8.090   1.125   7.034 -0.6506 -2.6950 -0.4036
  681MOL0     H93931   8.143   1.004   7.162  2.2046 -0.5243 -0.0848
  681MOL0     H93932   8.365   1.093   7.159 -0.6277 -0.6603  1.7258
  681MOL0     H93933   8.316   1.203   7.021 -1.4317 -3.3156 -2.3296
  681MOL0     H93934   8.294   1.367   7.183  0.8095 -0.7421 -3.6901
  681MOL0     H93935   8.131   1.293   7.198  0.3745  0.7001  1.9328
  681MOL0     H93936   8.422   1.428   7.318  0.7398 -0.6643 -2.0023
  681MOL0     H93937   8.731   1.492   7.479  0.5554 -0.6017  0.3842
  681MOL0     H93938   8.630   1.526   7.335  0.1930  1.7484  1.4468
  681MOL0     H93939   8.777   1.420   7.315 -0.7134 -0.9408  0.2918
  681MOL0     H93940   9.095   1.136   7.491 -1.1054  1.1464  1.9691
  681MOL0     H93941   9.282   1.045   7.628  1.0051 -0.7817  2.6013
  681MOL0     H93942   9.321   0.802   7.999  1.3309  2.6924  0.0243
  681MOL0     H93943   9.197   0.751   7.876 -0.2572 -0.0095 -3.1731
  681MOL0     H93944   9.402   0.641   7.835  0.6438  0.4466  1.0555
  681MOL0     H93945   9.375   0.756   7.703 -2.6865 -1.0800  0.9337
  681MOL0     H93946   9.558   0.811   7.933  1.6630  0.2715 -0.9855
  681MOL0     H93947   9.534   0.910   7.783 -2.5034  0.2948  2.2820
  681MOL0     H93948   9.619   0.734   7.647 -1.8086  0.7008 -0.1082
  681MOL0     H93949   9.640   0.631   7.794 -3.9832 -0.5480 -2.0633
  681MOL0     H93950   9.774   0.903   7.733  1.1165 -0.7895 -1.5742
  681MOL0     H93951   9.786   0.811   7.886 -0.2946 -1.9927 -0.0225
  681MOL0     H93952   9.894   0.720   7.624  1.0110 -0.2452 -0.2905
  681MOL0     H93953   9.916   0.624   7.771  0.7171  1.2168  0.3283
  681MOL0     H93954  10.047   0.818   7.871 -1.8500 -3.9019 -0.1581
  681MOL0     H93955  10.015   0.917   7.718 -1.9544  0.7220  1.1396
  681MOL0     H93956  10.198   0.675   7.769  3.9832  3.4610  2.0002
  681MOL0     H93957  10.236   0.824   7.705  2.0502 -1.6522 -0.5605
  681MOL0     H93958   9.005   0.883   7.900  0.6949 -0.7244  0.6509
  681MOL0     H93959   8.809   0.984   7.762 -0.0648 -2.6793 -3.3153
  681MOL0     H93960   8.605   1.036   7.555 -0.5802 -0.2177 -0.5587
  681MOL0     H93961   8.371   1.038   7.467 -1.7989  1.7762  0.5889
  681MOL0     H93962   6.721   0.820   6.917 -0.4864 -0.7816  0.1348
  681MOL0     H93963   6.565   0.732   6.723 -1.6207 -2.5360 -0.0970
  681MOL0     H93964   6.513   0.504   6.363  1.1464 -1.3738  1.1620
  681MOL0     H93965   6.372   0.456   6.196 -0.1706  1.4923  0.3197
  681MOL0     H93966   6.111   0.458   6.138  2.5701  0.2708  0.1434
  681MOL0     H93967   6.174   0.345   6.022 -0.3843 -0.4680 -0.6159
  681MOL0     H93968   5.931   0.374   5.991  0.1110 -2.5321 -1.5503
  681MOL0     H93969   5.903   0.364   6.162  2.6359  3.9931 -0.7138
  681MOL0     H93970   6.021   0.143   5.969 -0.8179 -2.8303  0.5335
  681MOL0     H93971   5.983   0.096   6.136  1.1867 -0.0984  0.4998
  681MOL0     H93972   5.733   0.211   6.050 -1.7226 -0.4567 -2.9873
  681MOL0     H93973   5.782   0.041   6.091  1.0276 -0.6157  1.8247
  681MOL0     H93974   5.725   0.090   5.663 -2.8263  0.4755  1.1017
  681MOL0     H93975   6.142   0.197   6.430  0.8028  0.1404 -3.2980
  681MOL0     H93976   6.207   0.302   6.728 -0.8108 -1.7374  1.3989
  681MOL0     H93977   6.210   0.138   6.651 -1.4176  0.0319  2.1824
  681MOL0     H93978   6.349   0.203   6.733 -1.3424 -1.6375  1.3238
  682MOL0     O93979   4.590   1.756   9.652  0.4184 -0.4654 -0.1829
  682MOL0     C93980   4.670   1.742   9.562 -0.7791 -0.2881 -0.5006
  682MOL0     O93981   4.654   1.780   9.429 -0.1977  0.0363 -0.1316
  682MOL0     C93982   4.522   1.808   9.392 -0.9502  0.9722 -0.0954
  682MOL0     C93983   4.472   1.940   9.418 -1.1578 -1.0363 -0.3027
  682MOL0     C93984   4.345   1.974   9.394 -0.4856 -0.3932 -0.5646
  682MOL0     C93985   4.244   1.881   9.342 -0.6779  0.5580 -0.6201
  682MOL0     O93986   4.117   1.924   9.320  0.3169  0.7341  0.2101
  682MOL0     C93987   4.072   2.031   9.403 -0.3134 -0.0039  0.2704
  682MOL0     C93988   3.921   2.061   9.361  1.2330 -0.0658 -0.6962
  682MOL0     C93989   3.818   1.997   9.452 -0.0226  0.5091 -0.4523
  682MOL0     C93990   3.678   2.015   9.397  0.0906  0.2177 -0.6006
  682MOL0     C93991   3.581   1.914   9.453  0.1070 -0.4978  0.1472
  682MOL0     C93992   3.454   1.915   9.366 -0.1421 -0.0449 -0.8413
  682MOL0     C93993   3.345   1.812   9.408  0.8757  0.0876 -1.4378
  682MOL0     C93994   3.234   1.801   9.302  1.2503  0.8366 -0.5171
  682MOL0     N93995   3.278   1.729   9.185  1.2695 -0.1677 -0.1626
  682MOL0     C93996   3.328   1.603   9.183  0.1853 -1.2635  0.4870
  682MOL0     C93997   3.399   1.604   9.063  1.3097  0.4053 -0.0550
  682MOL0     C93998   3.461   1.479   8.998  0.0361  0.1105 -0.0306
  682MOL0     C93999   3.551   1.527   8.890 -0.2924  1.1455  0.6710
  682MOL0     C94000   3.612   1.407   8.837 -0.1127  0.3352 -0.3128
  682MOL0     C94001   3.703   1.431   8.716  0.3361  0.3820 -0.1380
  682MOL0     O94002   3.766   1.305   8.685  0.7843 -0.8667 -0.5192
  682MOL0     C94003   3.892   1.274   8.735  0.4158 -0.6550  0.5716
  682MOL0     C94004   3.949   1.151   8.675 -0.3001 -0.3844 -0.5925
  682MOL0     C94005   4.070   1.108   8.723  0.4750  0.1819 -0.0416
  682MOL0     C94006   4.117   0.987   8.648 -0.1860 -0.9971  0.2867
  682MOL0     C94007   4.129   1.162   8.845 -0.5594 -0.3542  0.1622
  682MOL0     C94008   4.258   1.106   8.906  0.2263 -1.1102  0.3283
  682MOL0     O94009   4.355   1.051   8.815  0.1803 -0.6307  0.6562
  682MOL0     C94010   4.430   0.941   8.852  0.2286  0.7554  0.3871
  682MOL0     C94011   4.463   0.848   8.755  0.3138  0.1320 -0.4577
  682MOL0     C94012   4.539   0.731   8.778  0.2907  0.3300 -1.3698
  682MOL0     C94013   4.589   0.704   8.917 -0.8006  0.2885 -0.4497
  682MOL0     O94014   4.648   0.586   8.946 -0.1886  0.6083 -0.5700
  682MOL0     C94015   4.579   0.487   9.023  0.0531 -0.3624 -0.6914
  682MOL0     C94016   4.663   0.434   9.139 -0.5430 -0.0883  0.7677
  682MOL0     C94017   4.721   0.540   9.245  0.5491 -0.7311  0.5886
  682MOL0     C94018   4.600   0.578   9.348 -0.7392  0.2289  0.5540
  682MOL0     C94019   4.648   0.698   9.438  0.7437  0.3710  1.0146
  682MOL0     C94020   4.715   0.644   9.563 -0.2543 -0.1813 -0.6780
  682MOL0     C94021   4.762   0.758   9.657 -0.4217  0.6979  0.6383
  682MOL0     C94022   4.798   0.712   9.791  0.8971 -0.1965 -0.6617
  682MOL0    Cl94023   4.667   0.610   9.848  0.4299  0.4591 -0.3223
  682MOL0     C94024   4.562   0.795   9.016 -0.3332 -0.0107  0.0844
  682MOL0     C94025   4.471   0.900   8.987  0.8710  0.6893 -0.0474
  682MOL0     O94026   4.281   1.117   9.025 -0.2942 -0.1422 -0.8386
  682MOL0     C94027   4.059   1.269   8.905 -0.9617  0.3480 -0.5835
  682MOL0     C94028   3.948   1.326   8.850  0.1215 -0.2014 -0.5906
  682MOL0     N94029   3.365   1.720   8.989 -0.6668 -0.5119 -0.3053
  682MOL0     N94030   3.298   1.799   9.070 -0.6727  0.0487  0.5918
  682MOL0     C94031   4.293   1.753   9.315  0.6182  0.2437 -0.5827
  682MOL0     C94032   4.431   1.715   9.343 -0.1230  0.8495 -0.8955
  682MOL0     C94033   4.809   1.670   9.594  0.5304  0.1238  0.7670
  682MOL0     C94034   4.867   1.595   9.497  0.3521 -0.1646  0.4674
  682MOL0     C94035   4.985   1.522   9.519  0.2660 -0.9513 -0.2831
  682MOL0     C94036   5.046   1.509   9.643 -0.7735  0.9198 -0.0083
  682MOL0     O94037   5.170   1.443   9.650 -0.0022  0.8803 -0.7468
  682MOL0     C94038   5.228   1.430   9.776  0.8678  0.9513  0.2434
  682MOL0     C94039   5.333   1.537   9.815  0.0125 -0.5182  0.4135
  682MOL0     C94040   5.474   1.511   9.766 -0.2223  0.7925  0.0796
  682MOL0     C94041   5.561   1.608   9.832  0.9501  0.4245 -0.2159
  682MOL0     C94042   5.697   1.606   9.792  0.5150  0.8792  0.2041
  682MOL0     C94043   5.814   1.617   9.760 -0.0683 -0.3720  0.3724
  682MOL0     C94044   4.975   1.577   9.750 -0.0086 -0.1840 -0.0265
  682MOL0     C94045   4.858   1.647   9.728 -0.3933 -0.4748 -0.7706
  682MOL0     C94046   4.795   1.733   9.846 -0.8393  0.5284  0.4890
  682MOL0     H94047   4.543   2.018   9.441 -1.3585 -0.6024 -1.1241
  682MOL0     H94048   4.332   2.080   9.412  3.6896 -0.1315  2.1666
  682MOL0     H94049   4.118   2.129   9.394 -0.6220  0.2022  0.8606
  682MOL0     H94050   4.092   1.999   9.506 -0.5241 -1.8087 -0.2158
  682MOL0     H94051   3.911   2.169   9.375  2.2062 -0.3025  2.4230
  682MOL0     H94052   3.903   2.040   9.255 -0.4583  1.6319 -0.7932
  682MOL0     H94053   3.833   1.890   9.463 -1.4110  0.4159  0.9957
  682MOL0     H94054   3.827   2.035   9.555 -0.5293 -1.7554  0.4800
  682MOL0     H94055   3.651   2.118   9.421  1.5767  0.0836  1.9964
  682MOL0     H94056   3.682   2.006   9.288 -2.2601  3.5566 -1.0992
  682MOL0     H94057   3.559   1.942   9.557  0.0699 -1.1362  0.3176
  682MOL0     H94058   3.618   1.811   9.459 -1.4683 -1.0391  1.1299
  682MOL0     H94059   3.415   2.017   9.365 -0.0894  0.0511  1.4566
  682MOL0     H94060   3.494   1.894   9.267  2.3323 -0.4910  0.1688
  682MOL0     H94061   3.302   1.831   9.507  1.8979 -1.2779 -0.6872
  682MOL0     H94062   3.394   1.716   9.427  3.1333  0.9350 -2.6394
  682MOL0     H94063   3.148   1.742   9.333  1.2798  0.9524 -0.2057
  682MOL0     H94064   3.198   1.902   9.279 -1.1852  0.1228 -0.1265
  682MOL0     H94065   3.342   1.531   9.263 -1.3225 -0.4023  1.5745
  682MOL0     H94066   3.390   1.422   8.938  1.3902  2.8706 -4.8306
  682MOL0     H94067   3.497   1.418   9.082 -0.3098  1.6099  1.2679
  682MOL0     H94068   3.486   1.587   8.826 -1.8203  1.5453  2.4994
  682MOL0     H94069   3.627   1.588   8.939  1.0749  1.0230 -1.2007
  682MOL0     H94070   3.666   1.353   8.915 -1.9544  0.2893  1.0196
  682MOL0     H94071   3.534   1.340   8.798 -0.3088  1.5024 -2.0139
  682MOL0     H94072   3.640   1.464   8.633  0.6283  3.3307  0.7094
  682MOL0     H94073   3.768   1.517   8.734  0.5186  0.6446 -1.8754
  682MOL0     H94074   3.897   1.111   8.589 -0.0176  1.6174 -1.7801
  682MOL0     H94075   4.184   1.013   8.565 -2.4950 -0.6970 -1.6023
  682MOL0     H94076   4.028   0.939   8.606  1.7015 -1.3809 -3.7493
  682MOL0     H94077   4.172   0.914   8.708 -1.5100 -1.2100  1.2668
  682MOL0     H94078   4.425   0.878   8.657 -2.6981 -1.6784  0.0183
  682MOL0     H94079   4.553   0.654   8.703  1.4483 -2.6365  1.6345
  682MOL0     H94080   4.495   0.531   9.077  0.3412 -0.4384 -0.1765
  682MOL0     H94081   4.540   0.403   8.965 -2.5266  2.0040 -2.6486
  682MOL0     H94082   4.620   0.345   9.184  1.6844 -1.3550  0.5251
  682MOL0     H94083   4.752   0.394   9.090  0.9532  3.8329 -0.0905
  682MOL0     H94084   4.741   0.633   9.191  3.9561 -1.0399  1.0897
  682MOL0     H94085   4.818   0.512   9.288  1.9839  2.8676  0.0984
  682MOL0     H94086   4.551   0.490   9.392 -0.0399 -0.7957 -0.6660
  682MOL0     H94087   4.515   0.623   9.296 -3.0104 -1.6652  2.3400
  682MOL0     H94088   4.712   0.773   9.390 -2.8908  2.5719 -0.8985
  682MOL0     H94089   4.559   0.755   9.468 -1.6335 -1.4575 -1.9832
  682MOL0     H94090   4.805   0.593   9.527 -0.4512  0.2371 -1.7843
  682MOL0     H94091   4.652   0.567   9.609  0.0600 -0.6777 -1.0720
  682MOL0     H94092   4.679   0.827   9.677 -1.0372 -0.0749  0.8049
  682MOL0     H94093   4.847   0.807   9.609  1.2630 -2.4118  0.2007
  682MOL0     H94094   4.815   0.801   9.852  1.5104  1.7505 -3.4739
  682MOL0     H94095   4.890   0.653   9.785 -0.0713 -1.6272 -3.0548
  682MOL0     H94096   4.599   0.790   9.118 -0.3832 -3.4320  0.0371
  682MOL0     H94097   4.457   0.969   9.069  4.1326 -1.0591  2.1982
  682MOL0     H94098   4.091   1.295   9.005 -0.7651 -3.5177  0.5010
  682MOL0     H94099   3.887   1.402   8.897 -0.0503 -0.6546 -0.0786
  682MOL0     H94100   4.215   1.689   9.275  0.9137 -1.2438  1.0433
  682MOL0     H94101   4.468   1.614   9.328 -1.1646 -0.4379  3.6713
  682MOL0     H94102   4.831   1.575   9.396 -0.1393 -0.7061  0.7426
  682MOL0     H94103   5.030   1.475   9.432 -0.4845 -0.1748 -1.1342
  682MOL0     H94104   5.164   1.409   9.863 -0.9977  3.2359 -0.4749
  682MOL0     H94105   5.285   1.337   9.772 -1.8789 -0.8683  0.6129
  682MOL0     H94106   5.347   1.546   9.923  1.5221 -0.5678  0.2520
  682MOL0     H94107   5.295   1.632   9.777 -0.7482 -0.0563  2.2079
  682MOL0     H94108   5.505   1.409   9.787  1.3930  0.9606 -1.2794
  682MOL0     H94109   5.482   1.525   9.657 -0.9492 -0.7498 -0.2042
  682MOL0     H94110   5.563   1.587   9.940  1.2365  0.9589 -0.1111
  682MOL0     H94111   5.533   1.712   9.812  1.5286  1.4319  3.3970
  682MOL0     H94112   5.917   1.634   9.737 -0.2428  3.2170  1.6505
  682MOL0     H94113   5.006   1.567   9.854 -2.5270 -2.2610  0.6231
  682MOL0     H94114   4.697   1.689   9.864 -1.0517  1.8085  2.9104
  682MOL0     H94115   4.849   1.739   9.941 -0.3494  3.1438  0.1338
  682MOL0     H94116   4.787   1.836   9.809 -0.4766  0.2863 -0.2705
  683MOL0     O94117   9.924   5.880   5.651 -0.2775 -0.1396  0.3374
  683MOL0     C94118   9.980   5.923   5.552 -0.0679 -0.2842  0.5121
  683MOL0     O94119  10.039   5.848   5.448 -0.4311 -0.0537 -0.6147
  683MOL0     C94120  10.051   5.712   5.449 -0.2414  0.8796 -0.4485
  683MOL0     C94121  10.046   5.652   5.327  0.4409 -0.9992  0.3441
  683MOL0     C94122  10.041   5.513   5.309  0.2641 -0.0235  0.8250
  683MOL0     C94123  10.050   5.436   5.415 -0.2393 -0.4036 -0.4157
  683MOL0     O94124  10.058   5.297   5.415 -0.1399 -0.0328 -0.2221
  683MOL0     C94125  10.037   5.232   5.285 -0.8917 -0.5180 -0.9491
  683MOL0     C94126  10.153   5.199   5.196 -0.2280 -0.4198  0.4509
  683MOL0     C94127  10.254   5.096   5.249  0.6552  0.1902 -0.0755
  683MOL0     C94128  10.371   5.067   5.147  0.5978 -0.1912 -0.2487
  683MOL0     C94129  10.443   4.942   5.189 -0.7972  0.6176 -1.3364
  683MOL0     C94130  10.552   4.905   5.091 -0.7418  1.1439 -1.0298
  683MOL0     C94131  10.654   4.815   5.157 -0.0180  0.3029  0.1061
  683MOL0     C94132  10.763   4.795   5.043  0.5908 -0.2100  0.1368
  683MOL0     N94133  10.854   4.908   5.012 -0.0903  0.9663 -0.1573
  683MOL0     C94134  10.828   5.000   4.921  0.4497 -1.5570 -0.4228
  683MOL0     C94135  10.948   5.062   4.885 -0.1190  0.2834 -0.0877
  683MOL0     C94136  10.954   5.182   4.788 -0.6181  0.4531  0.0022
  683MOL0     C94137  11.084   5.277   4.830  0.4546 -0.0384  0.6370
  683MOL0     C94138  11.083   5.330   4.977  0.4917 -0.1531 -0.3690
  683MOL0     C94139  11.219   5.401   4.994  0.4362  0.4620  0.3149
  683MOL0     O94140  11.220   5.531   4.924 -0.1199  0.1953  0.4551
  683MOL0     C94141  11.155   5.629   4.993 -0.0063  0.7045 -0.5895
  683MOL0     C94142  11.023   5.665   4.951  1.2142 -0.3081  0.3507
  683MOL0     C94143  10.963   5.785   4.990 -0.6722 -0.8087  2.2897
  683MOL0     C94144  10.827   5.805   4.928  0.1994  0.0294 -0.5032
  683MOL0     C94145  11.040   5.872   5.066 -0.3797 -0.0342  0.9675
  683MOL0     C94146  10.988   6.004   5.094  0.5177 -0.2003  0.0834
  683MOL0     O94147  11.084   6.086   5.147  0.1618  1.1081  0.8294
  683MOL0     C94148  11.073   6.212   5.187  0.2710 -0.6803 -0.4920
  683MOL0     C94149  10.957   6.284   5.204  0.1576 -0.0569 -0.2301
  683MOL0     C94150  10.944   6.408   5.270  0.6356 -0.6634 -0.6834
  683MOL0     C94151  11.065   6.455   5.320  0.1631 -0.1537 -0.3626
  683MOL0     O94152  11.052   6.576   5.392  0.0622  0.4407 -0.5744
  683MOL0     C94153  11.173   6.627   5.463  0.2236  0.1359 -0.0519
  683MOL0     C94154  11.129   6.759   5.526  0.4212 -0.1263 -0.4043
  683MOL0     C94155  11.016   6.765   5.626  0.6626 -0.4477  0.6935
  683MOL0     C94156  11.037   6.687   5.758 -0.6426 -0.3507 -0.6512
  683MOL0     C94157  11.136   6.772   5.849  0.0313 -0.5672  0.7661
  683MOL0     C94158  11.115   6.753   5.996 -0.2952  0.6407  1.6946
  683MOL0     C94159  11.206   6.834   6.082  0.4375 -0.0659  0.0403
  683MOL0     C94160  11.224   6.986   6.056  0.1753  0.4428  0.2684
  683MOL0    Cl94161  11.327   7.046   6.191 -0.0307  0.1060 -0.1214
  683MOL0     C94162  11.184   6.387   5.303 -0.6291  0.2910 -0.1748
  683MOL0     C94163  11.188   6.263   5.245  0.4557  1.0176 -0.1538
  683MOL0     O94164  10.874   6.042   5.072 -0.3193 -0.0454 -0.1874
  683MOL0     C94165  11.174   5.837   5.105 -0.0716  1.5913  0.0412
  683MOL0     C94166  11.226   5.711   5.078 -0.2723  0.7054  0.2434
  683MOL0     N94167  11.048   4.988   4.937 -0.2724 -0.5478 -0.4472
  683MOL0     N94168  10.987   4.891   5.007 -0.2575  0.9104 -0.0089
  683MOL0     C94169  10.063   5.489   5.545  1.0696  0.5727 -0.2759
  683MOL0     C94170  10.060   5.630   5.563 -0.3056  0.8929 -0.0978
  683MOL0     C94171   9.999   6.069   5.560 -0.0996  0.2965 -0.5732
  683MOL0     C94172  10.094   6.117   5.473 -0.5523 -0.3647  0.4445
  683MOL0     C94173  10.140   6.253   5.475  0.9203 -0.0328  0.3278
  683MOL0     C94174  10.091   6.346   5.568  0.1500 -0.4202 -0.6777
  683MOL0     O94175  10.152   6.475   5.556  0.1987 -0.3769 -0.0458
  683MOL0     C94176  10.131   6.575   5.669 -1.8000 -0.2366 -0.2791
  683MOL0     C94177  10.125   6.714   5.613 -0.0737  0.6451 -0.7828
  683MOL0     C94178  10.104   6.826   5.707  0.6810  0.2573 -0.0724
  683MOL0     C94179  10.077   6.967   5.643  0.6392  0.5176 -0.0714
  683MOL0     C94180  10.181   6.994   5.546  0.1949  0.6163 -0.3951
  683MOL0     C94181  10.272   7.010   5.471 -1.1374 -0.9776 -1.0000
  683MOL0     C94182   9.999   6.305   5.662 -0.6048  0.1535  0.6037
  683MOL0     C94183   9.957   6.163   5.664  0.5299  0.6705 -0.3966
  683MOL0     C94184   9.845   6.138   5.765  0.6215  0.0583 -0.2214
  683MOL0     H94185  10.046   5.724   5.247  0.4358 -1.6473 -0.2448
  683MOL0     H94186  10.032   5.484   5.205 -0.3004  1.2117  0.5074
  683MOL0     H94187   9.961   5.286   5.228 -0.0873  0.2686 -1.3115
  683MOL0     H94188   9.990   5.136   5.306 -0.5198 -0.4544  0.2445
  683MOL0     H94189  10.112   5.158   5.104 -1.7152  0.1663  0.8113
  683MOL0     H94190  10.213   5.285   5.165 -0.9509 -0.4875 -1.2387
  683MOL0     H94191  10.308   5.128   5.339 -0.2716 -4.0478  2.2573
  683MOL0     H94192  10.196   5.007   5.275  2.1039 -0.3194  1.6338
  683MOL0     H94193  10.335   5.052   5.044 -1.2731  0.4574  0.2844
  683MOL0     H94194  10.434   5.156   5.139 -0.6298  0.7095 -0.0173
  683MOL0     H94195  10.366   4.865   5.196 -0.0019 -0.4416 -3.3503
  683MOL0     H94196  10.487   4.948   5.289  1.0888 -2.3988 -1.8462
  683MOL0     H94197  10.512   4.871   4.995 -0.9423  1.6612 -1.1342
  683MOL0     H94198  10.609   4.996   5.069  0.0299  0.9294  0.0164
  683MOL0     H94199  10.606   4.723   5.191  0.6181  0.1329  0.5859
  683MOL0     H94200  10.699   4.861   5.245 -2.4312  1.0000  1.0480
  683MOL0     H94201  10.829   4.718   5.084  1.2982  0.3201  0.0133
  683MOL0     H94202  10.716   4.748   4.956  0.1455 -4.2954  2.3292
  683MOL0     H94203  10.734   5.040   4.884  2.7497  3.3419 -1.7934
  683MOL0     H94204  10.862   5.242   4.791 -3.0594 -2.8364 -1.8778
  683MOL0     H94205  10.963   5.147   4.685  0.7819 -0.2219  0.3367
  683MOL0     H94206  11.171   5.216   4.803  1.2655  1.2273  0.3214
  683MOL0     H94207  11.092   5.361   4.761 -2.4419  0.7755  1.1325
  683MOL0     H94208  10.996   5.395   4.990  0.5226 -0.0902 -0.4695
  683MOL0     H94209  11.070   5.243   5.041 -0.9195 -0.9289 -1.6516
  683MOL0     H94210  11.252   5.405   5.098  0.5293 -2.3894  0.4705
  683MOL0     H94211  11.304   5.349   4.948  1.4478 -0.4460  3.0021
  683MOL0     H94212  10.978   5.594   4.882  0.7690 -3.1380  3.3296
  683MOL0     H94213  10.808   5.741   4.841  1.9202  0.6526 -1.3788
  683MOL0     H94214  10.817   5.904   4.884  0.0791  0.1099 -0.2952
  683MOL0     H94215  10.743   5.796   4.997 -1.0365  2.1462 -1.6342
  683MOL0     H94216  10.863   6.250   5.162  0.1110 -1.0968  0.6971
  683MOL0     H94217  10.851   6.453   5.304  0.6391 -1.2583  0.1261
  683MOL0     H94218  11.208   6.569   5.549 -0.2794  0.5940  0.4637
  683MOL0     H94219  11.248   6.644   5.385  0.9970 -2.1746  0.1014
  683MOL0     H94220  11.217   6.793   5.581  0.1033  1.2824 -0.7268
  683MOL0     H94221  11.107   6.837   5.452 -0.2504 -0.3694 -0.4624
  683MOL0     H94222  10.927   6.722   5.579  0.9087 -3.0611  2.4026
  683MOL0     H94223  10.994   6.872   5.632  1.8253 -0.0235 -1.5805
  683MOL0     H94224  11.095   6.596   5.737  2.1711  0.4995  2.4914
  683MOL0     H94225  10.941   6.663   5.805 -1.2916  0.6854 -1.4094
  683MOL0     H94226  11.236   6.748   5.812  0.2793 -1.3020  1.8482
  683MOL0     H94227  11.136   6.878   5.822  0.6374 -0.7845 -0.1159
  683MOL0     H94228  11.129   6.646   6.015 -3.9828 -0.1843  0.6304
  683MOL0     H94229  11.012   6.774   6.025 -1.0154 -2.4062  1.6970
  683MOL0     H94230  11.309   6.798   6.076  1.5835  3.1197 -1.8046
  683MOL0     H94231  11.176   6.839   6.187 -1.4746  0.1033 -0.4827
  683MOL0     H94232  11.128   7.031   6.030  0.6665  1.1814 -0.3396
  683MOL0     H94233  11.288   6.989   5.967 -0.6930 -0.0695 -0.3871
  683MOL0     H94234  11.276   6.415   5.354 -0.1620  0.2001 -0.9478
  683MOL0     H94235  11.281   6.208   5.239  1.4105  2.5003  0.5666
  683MOL0     H94236  11.234   5.910   5.159  1.5679 -0.5909  1.3192
  683MOL0     H94237  11.323   5.668   5.101 -0.2913 -1.9371 -3.5389
  683MOL0     H94238  10.060   5.426   5.633 -0.1840  2.7241  1.3218
  683MOL0     H94239  10.068   5.679   5.659  2.2535  0.6815 -0.1337
  683MOL0     H94240  10.136   6.061   5.389 -0.7232 -2.9963  1.9824
  683MOL0     H94241  10.214   6.294   5.408 -0.5504  1.3716 -0.5147
  683MOL0     H94242  10.036   6.562   5.720 -1.2303 -2.0513  0.4052
  683MOL0     H94243  10.212   6.557   5.741 -2.0748  0.7730  0.2975
  683MOL0     H94244  10.042   6.703   5.542  0.3175  0.6413 -1.2434
  683MOL0     H94245  10.219   6.730   5.560 -0.6287  1.8300 -1.4583
  683MOL0     H94246  10.014   6.813   5.767  0.0472 -0.1931 -1.1027
  683MOL0     H94247  10.187   6.843   5.777  1.6006  4.3353 -1.8719
  683MOL0     H94248  10.092   7.039   5.723  1.8366 -2.3356  2.4819
  683MOL0     H94249   9.977   6.973   5.598  1.3942  0.8892 -1.7873
  683MOL0     H94250  10.342   7.045   5.398  0.2761 -0.6781  0.4481
  683MOL0     H94251   9.969   6.382   5.733  1.5542  0.5779  1.1363
  683MOL0     H94252   9.794   6.229   5.798  1.4917  0.1758  0.8604
  683MOL0     H94253   9.774   6.068   5.720  2.0681 -2.4113  1.0937
  683MOL0     H94254   9.880   6.086   5.855  0.0085 -0.4605 -0.2707
  684MOL0     O94255  10.526   8.229   2.707 -0.8483  0.4020  0.1902
  684MOL0     C94256  10.416   8.261   2.673  0.2295 -0.1795 -0.0604
  684MOL0     O94257  10.370   8.266   2.543 -0.7348 -0.5669  0.0873
  684MOL0     C94258  10.455   8.260   2.433  0.4152 -0.7533  0.6040
  684MOL0     C94259  10.602   8.292   2.432 -0.5857  0.8368  0.2974
  684MOL0     C94260  10.662   8.275   2.302 -0.6224 -0.0725  0.8699
  684MOL0     C94261  10.591   8.225   2.190 -0.9738  0.1432 -0.3115
  684MOL0     O94262  10.671   8.211   2.077 -0.0382 -0.6022 -0.3040
  684MOL0     C94263  10.617   8.154   1.961  0.2584 -0.0476 -0.2805
  684MOL0     C94264  10.612   8.002   1.973  0.2789  0.1874  0.2615
  684MOL0     C94265  10.536   7.925   1.858  0.3236 -0.1591 -0.7201
  684MOL0     C94266  10.569   7.778   1.858  0.3732 -0.3635 -0.2370
  684MOL0     C94267  10.522   7.708   1.734  0.0835  1.1049 -0.0525
  684MOL0     C94268  10.582   7.564   1.713  0.1822 -0.7818  0.3019
  684MOL0     C94269  10.542   7.483   1.588  0.1144 -1.4659 -1.1792
  684MOL0     C94270  10.584   7.334   1.593  0.2636 -0.0557  0.9361
  684MOL0     N94271  10.575   7.280   1.454 -0.2527  0.1485  0.1151
  684MOL0     C94272  10.686   7.223   1.391  0.7425  0.3779  0.5014
  684MOL0     C94273  10.636   7.163   1.279  0.1307 -1.3815  0.6633
  684MOL0     C94274  10.708   7.139   1.148  0.3812 -0.0706  0.2324
  684MOL0     C94275  10.705   6.994   1.108 -1.1135  0.1229 -0.7206
  684MOL0     C94276  10.746   6.971   0.960  0.6368  0.1924  0.1757
  684MOL0     C94277  10.726   6.815   0.941  0.2247  0.8729  0.0554
  684MOL0     O94278  10.779   6.785   0.816 -0.3191 -0.6684  0.4214
  684MOL0     C94279  10.700   6.798   0.702  0.8633 -0.7052 -0.3451
  684MOL0     C94280  10.562   6.831   0.702  0.0071 -0.2360 -0.0285
  684MOL0     C94281  10.483   6.843   0.587  0.0024 -0.0628 -0.4552
  684MOL0     C94282  10.333   6.856   0.601  0.2885  0.2581  0.1210
  684MOL0     C94283  10.547   6.837   0.458 -0.7334 -0.5709 -0.8533
  684MOL0     C94284  10.482   6.838   0.320 -0.1979  1.3615  0.1970
  684MOL0     O94285  10.566   6.826   0.219 -0.2755 -0.1712 -0.4605
  684MOL0     C94286  10.538   6.855   0.085  0.5062 -1.0710 -0.5256
  684MOL0     C94287  10.476   6.976   0.055  0.5249 -0.8520  0.3537
  684MOL0     C94288  10.460   7.013  -0.081  0.1011  0.0841 -0.1765
  684MOL0     C94289  10.492   6.924  -0.182  0.8274 -0.6310  0.8026
  684MOL0     O94290  10.483   6.952  -0.313  0.3743  0.1652  0.4356
  684MOL0     C94291  10.374   7.030  -0.343  0.5421  0.5744 -0.1722
  684MOL0     C94292  10.313   6.972  -0.474 -0.5013 -0.0881  0.7671
  684MOL0     C94293  10.260   6.823  -0.465  0.6479 -0.7473 -0.2289
  684MOL0     C94294  10.138   6.807  -0.371 -0.3610  0.6108 -1.3597
  684MOL0     C94295  10.065   6.665  -0.390  0.7184 -0.2681  0.3005
  684MOL0     C94296  10.129   6.527  -0.364  0.0063 -0.3432 -0.4681
  684MOL0     C94297  10.066   6.409  -0.432  0.5913  0.4967 -0.7521
  684MOL0     C94298  10.150   6.289  -0.395  1.0452  0.1530 -0.6512
  684MOL0    Cl94299  10.070   6.155  -0.476  0.1052  0.2587 -0.2010
  684MOL0     C94300  10.545   6.803  -0.146 -0.5235  0.4721 -0.1737
  684MOL0     C94301  10.570   6.766  -0.012  0.5746 -0.0360  0.2618
  684MOL0     O94302  10.361   6.837   0.311 -0.1821  0.6857 -0.2886
  684MOL0     C94303  10.686   6.813   0.461 -0.0114  0.3472 -0.1707
  684MOL0     C94304  10.757   6.795   0.578 -0.3515  0.3537 -0.1606
  684MOL0     N94305  10.497   7.173   1.286  0.3906  0.4167  0.1203
  684MOL0     N94306  10.457   7.239   1.395 -0.1734 -0.4690  0.3152
  684MOL0     C94307  10.463   8.176   2.211  1.2680 -0.2341  0.2284
  684MOL0     C94308  10.387   8.193   2.328 -0.5288  0.9506 -0.4559
  684MOL0     C94309  10.312   8.286   2.770 -0.0745  0.7621 -0.1591
  684MOL0     C94310  10.209   8.376   2.733  0.4132 -0.4564  0.6812
  684MOL0     C94311  10.112   8.412   2.831  0.2595 -0.2067  0.1984
  684MOL0     C94312  10.111   8.348   2.956  0.5804 -0.4241 -0.7654
  684MOL0     O94313  10.015   8.371   3.052  0.5886  0.2707  0.5730
  684MOL0     C94314   9.927   8.485   3.040  0.8790  0.0353  0.1716
  684MOL0     C94315   9.786   8.432   3.085  0.4971 -0.0454 -0.6933
  684MOL0     C94316   9.743   8.299   3.019  0.2848 -0.3523  0.3658
  684MOL0     C94317   9.590   8.294   3.013  0.3648 -0.9732  0.4306
  684MOL0     C94318   9.545   8.162   2.973  0.1433 -0.1111 -1.5201
  684MOL0     C94319   9.499   8.050   2.944 -0.8563 -0.2762  0.3786
  684MOL0     C94320  10.224   8.259   2.990  0.9486  0.5411 -0.3415
  684MOL0     C94321  10.321   8.228   2.894 -0.3664  0.1597  0.6640
  684MOL0     C94322  10.407   8.107   2.939 -0.2689  0.0746  0.5434
  684MOL0     H94323  10.654   8.342   2.513  1.6790 -0.4524 -0.2587
  684MOL0     H94324  10.768   8.283   2.280 -0.6202 -3.1618 -0.8376
  684MOL0     H94325  10.679   8.186   1.878  1.3357 -2.1062 -0.3410
  684MOL0     H94326  10.514   8.190   1.950 -0.7641 -2.5998  0.2469
  684MOL0     H94327  10.718   7.977   1.972  0.4889  1.0388  0.6772
  684MOL0     H94328  10.570   7.968   2.068  1.4268 -0.4007  0.5674
  684MOL0     H94329  10.427   7.920   1.855  0.3492 -1.1254 -0.6411
  684MOL0     H94330  10.551   7.982   1.766 -1.5860  0.1323 -0.8739
  684MOL0     H94331  10.676   7.759   1.864  0.4828  0.0617 -0.7598
  684MOL0     H94332  10.524   7.745   1.952  1.5544 -0.3639  0.3438
  684MOL0     H94333  10.521   7.765   1.641 -2.7127  1.4747  0.1284
  684MOL0     H94334  10.413   7.703   1.742 -0.0241  3.1537  0.1831
  684MOL0     H94335  10.690   7.575   1.698  0.1052 -1.8659 -1.3033
  684MOL0     H94336  10.554   7.496   1.793 -3.7656  0.0203 -0.2151
  684MOL0     H94337  10.568   7.537   1.496  1.9626  3.4589  1.8371
  684MOL0     H94338  10.433   7.491   1.584  0.2511  0.8265 -1.7067
  684MOL0     H94339  10.686   7.311   1.624  0.8308  1.8772  0.6755
  684MOL0     H94340  10.523   7.280   1.666 -0.4261  1.3015  1.4034
  684MOL0     H94341  10.787   7.255   1.416  0.5029 -1.0576  3.6801
  684MOL0     H94342  10.812   7.175   1.149 -0.3154  2.0954  0.1990
  684MOL0     H94343  10.667   7.198   1.065  1.6208  3.2155  1.7841
  684MOL0     H94344  10.760   6.926   1.174 -1.7894  0.6908  0.4525
  684MOL0     H94345  10.599   6.967   1.109 -0.9574 -0.5115  0.2159
  684MOL0     H94346  10.682   7.030   0.894 -0.6679 -0.7704  0.5468
  684MOL0     H94347  10.849   7.003   0.943  0.4492  0.0162 -1.5554
  684MOL0     H94348  10.801   6.768   1.006  3.5538  2.9301 -1.9949
  684MOL0     H94349  10.626   6.771   0.947  1.4105 -3.0150 -3.7735
  684MOL0     H94350  10.523   6.848   0.802 -2.1053 -0.2197 -0.8096
  684MOL0     H94351  10.298   6.924   0.523  3.3851  0.9386 -0.8234
  684MOL0     H94352  10.316   6.900   0.699  2.0394 -2.1936  1.6523
  684MOL0     H94353  10.275   6.763   0.601 -1.6098  1.3155  2.6317
  684MOL0     H94354  10.445   7.041   0.135 -2.8517 -1.3885 -0.3934
  684MOL0     H94355  10.427   7.113  -0.108  1.8481  0.8497  0.4306
  684MOL0     H94356  10.297   7.029  -0.266  0.2239  1.5645 -0.4611
  684MOL0     H94357  10.412   7.131  -0.357  1.1756  0.5228  1.0482
  684MOL0     H94358  10.230   7.029  -0.516 -1.0032 -2.7524 -2.2697
  684MOL0     H94359  10.402   6.972  -0.538  0.0741 -2.9264  1.4461
  684MOL0     H94360  10.347   6.760  -0.448 -1.0622 -2.7322  1.8836
  684MOL0     H94361  10.235   6.803  -0.569  1.3030 -0.7435 -0.3922
  684MOL0     H94362  10.069   6.890  -0.384 -0.6298  1.1363  2.2475
  684MOL0     H94363  10.177   6.818  -0.269  1.0006  2.2320 -2.0118
  684MOL0     H94364   9.982   6.668  -0.319 -0.6716 -0.5968 -1.2557
  684MOL0     H94365  10.025   6.668  -0.492  0.8505  3.1889  0.2407
  684MOL0     H94366  10.129   6.511  -0.256 -0.1240 -1.0607 -0.5731
  684MOL0     H94367  10.231   6.536  -0.404 -0.1745  0.8109 -0.7154
  684MOL0     H94368  10.064   6.427  -0.540 -1.7949 -0.6260 -0.9368
  684MOL0     H94369   9.966   6.400  -0.390  0.0610  4.1940 -0.8557
  684MOL0     H94370  10.153   6.267  -0.288  1.5894  1.2863 -0.4206
  684MOL0     H94371  10.256   6.302  -0.419  0.9098  0.7732 -0.9204
  684MOL0     H94372  10.585   6.748  -0.230 -1.0299 -2.3597  1.3143
  684MOL0     H94373  10.611   6.668   0.009 -2.3196 -0.6801  3.9037
  684MOL0     H94374  10.751   6.791   0.378  2.0420 -1.4044  1.7713
  684MOL0     H94375  10.865   6.783   0.581 -0.3938 -0.2656 -0.7481
  684MOL0     H94376  10.419   8.117   2.132 -1.3102  0.7885  0.7873
  684MOL0     H94377  10.289   8.149   2.347  1.0640 -2.1434  1.2275
  684MOL0     H94378  10.210   8.422   2.635  0.4486 -0.8435  0.4959
  684MOL0     H94379  10.025   8.472   2.805  0.5822  0.1596 -0.0341
  684MOL0     H94380   9.962   8.560   3.112 -2.8983  1.6571  0.5075
  684MOL0     H94381   9.910   8.524   2.940  5.1064  1.1089 -0.3362
  684MOL0     H94382   9.716   8.512   3.058 -2.8005 -2.5656 -0.2565
  684MOL0     H94383   9.793   8.409   3.192  0.4870 -0.7206 -0.8359
  684MOL0     H94384   9.791   8.291   2.921 -0.9038 -0.9167 -0.1904
  684MOL0     H94385   9.789   8.214   3.071 -1.4704 -0.4069  1.9357
  684MOL0     H94386   9.561   8.370   2.939 -0.3077  0.2488  1.8864
  684MOL0     H94387   9.527   8.322   3.098 -1.9833 -0.6060 -1.3175
  684MOL0     H94388   9.455   7.954   2.926 -0.0095 -0.0823 -3.7695
  684MOL0     H94389  10.223   8.218   3.090  2.4965 -1.0418 -0.9243
  684MOL0     H94390  10.403   8.029   2.861  1.0756 -1.9987  2.4181
  684MOL0     H94391  10.511   8.136   2.957 -0.5873  1.6461 -0.0580
  684MOL0     H94392  10.366   8.060   3.029 -1.4705  2.6646  1.4183
  685MOL0     O94393   3.093   8.189   2.587 -0.3260  0.2373  0.4848
  685MOL0     C94394   3.209   8.211   2.554  0.5499  0.0281 -0.0913
  685MOL0     O94395   3.281   8.132   2.466 -0.2696  0.0250 -0.3931
  685MOL0     C94396   3.211   8.046   2.390 -0.5821 -0.1150 -0.8231
  685MOL0     C94397   3.271   7.923   2.380  0.1968  0.6906 -0.2875
  685MOL0     C94398   3.214   7.823   2.295 -0.0058 -0.3011  0.4763
  685MOL0     C94399   3.105   7.853   2.216  0.2553 -0.2943  0.0624
  685MOL0     O94400   3.073   7.752   2.130  0.6124 -1.3964  0.5785
  685MOL0     C94401   2.935   7.757   2.104  0.1740 -0.2869 -0.1751
  685MOL0     C94402   2.892   7.652   2.004 -0.6987  0.6506 -0.9181
  685MOL0     C94403   2.741   7.651   1.976  0.3823 -0.5704 -0.4946
  685MOL0     C94404   2.693   7.526   1.905 -0.0596  0.2674  0.7294
  685MOL0     C94405   2.536   7.506   1.914  0.3039 -0.8691 -0.5287
  685MOL0     C94406   2.481   7.415   1.797  0.2188 -0.4125  0.4150
  685MOL0     C94407   2.320   7.433   1.786 -0.4366 -0.0371  0.1179
  685MOL0     C94408   2.274   7.340   1.678 -0.0744  0.1716 -0.1724
  685MOL0     N94409   2.136   7.360   1.627 -0.1467 -0.6438 -0.5908
  685MOL0     C94410   2.092   7.479   1.575  1.3144  0.6530 -0.9529
  685MOL0     C94411   1.968   7.459   1.530 -0.0124  0.6299 -0.0276
  685MOL0     C94412   1.891   7.584   1.508 -0.0822 -0.4333  0.3522
  685MOL0     C94413   1.849   7.610   1.360  0.0073  1.0066 -0.0560
  685MOL0     C94414   1.730   7.539   1.301 -0.7091  0.4925  0.2226
  685MOL0     C94415   1.667   7.630   1.191  0.6544 -0.4744 -0.6994
  685MOL0     O94416   1.561   7.591   1.107  0.1011  0.3722  0.1640
  685MOL0     C94417   1.433   7.608   1.152 -0.6148 -0.3254  0.6507
  685MOL0     C94418   1.346   7.625   1.047 -0.0905 -0.3490 -0.4307
  685MOL0     C94419   1.210   7.629   1.068  0.6795  1.3818  0.0780
  685MOL0     C94420   1.136   7.637   0.934  0.2943  0.3535 -1.1371
  685MOL0     C94421   1.157   7.619   1.194 -0.3924  0.1542 -0.2368
  685MOL0     C94422   1.015   7.642   1.233 -0.0062  0.1558 -0.7318
  685MOL0     O94423   0.973   7.599   1.360 -0.0432  0.4826  0.6391
  685MOL0     C94424   0.881   7.671   1.435  0.8193  1.0894  0.5762
  685MOL0     C94425   0.863   7.805   1.438  0.2833 -0.5741  0.7280
  685MOL0     C94426   0.772   7.875   1.513 -0.1737  0.7650  0.0892
  685MOL0     C94427   0.691   7.807   1.607  0.1873  0.0057  0.0623
  685MOL0     O94428   0.597   7.855   1.699 -0.9429  0.3482 -0.3850
  685MOL0     C94429   0.574   7.995   1.710  0.2770 -0.1942  0.1700
  685MOL0     C94430   0.433   8.032   1.771  0.5139 -0.6104  0.0712
  685MOL0     C94431   0.425   8.027   1.924 -0.0025 -0.7190 -0.0709
  685MOL0     C94432   0.279   8.054   1.964  0.8057  0.4120  0.3351
  685MOL0     C94433   0.270   8.017   2.112 -0.8562  0.3494  0.8344
  685MOL0     C94434   0.112   8.025   2.144 -0.4437  0.0746 -0.1769
  685MOL0     C94435   0.032   7.911   2.076  1.0022 -0.3501 -0.7445
  685MOL0     C94436  -0.114   7.929   2.126  0.0764  0.1239  0.0697
  685MOL0    Cl94437  -0.210   8.048   2.029 -0.9649  0.1724 -0.0162
  685MOL0     C94438   0.712   7.662   1.609 -0.3913 -1.1529 -0.8449
  685MOL0     C94439   0.801   7.595   1.531  0.4976  0.4060  1.1139
  685MOL0     O94440   0.940   7.694   1.148 -0.0416 -0.6248  0.2768
  685MOL0     C94441   1.243   7.604   1.300 -0.5489  0.6652 -0.1843
  685MOL0     C94442   1.381   7.593   1.278 -0.5255  0.3822 -0.8582
  685MOL0     N94443   1.938   7.322   1.536  0.0942 -0.3819  0.2789
  685MOL0     N94444   2.045   7.264   1.584  0.0242  0.5271 -0.2604
  685MOL0     C94445   3.044   7.976   2.233  0.9527 -0.2288 -0.8946
  685MOL0     C94446   3.100   8.068   2.320 -0.0517 -0.0694  0.9652
  685MOL0     C94447   3.268   8.331   2.605  0.6712 -0.7840  0.5406
  685MOL0     C94448   3.399   8.325   2.652  0.1748 -0.4589  0.9457
  685MOL0     C94449   3.477   8.435   2.695 -0.3577 -0.0870 -0.5999
  685MOL0     C94450   3.423   8.563   2.677  0.3432 -0.1774 -0.9447
  685MOL0     O94451   3.495   8.678   2.706  0.5998 -0.3754  0.1881
  685MOL0     C94452   3.639   8.665   2.722  1.3080  0.3367 -0.5910
  685MOL0     C94453   3.684   8.651   2.864  0.2285  0.2325 -0.1044
  685MOL0     C94454   3.836   8.657   2.877 -0.2981  0.3980  0.3604
  685MOL0     C94455   3.901   8.762   2.954 -0.1581 -0.0032 -0.2312
  685MOL0     C94456   3.875   8.750   3.100 -0.7487  0.8787 -0.3172
  685MOL0     C94457   3.845   8.724   3.214 -1.6028  1.2613 -0.1954
  685MOL0     C94458   3.295   8.575   2.613 -0.0735 -0.3595 -0.1597
  685MOL0     C94459   3.217   8.461   2.581 -0.4715 -0.7154 -0.2215
  685MOL0     C94460   3.086   8.488   2.522  0.5865 -0.5992  0.2270
  685MOL0     H94461   3.371   7.915   2.421 -0.6234  0.1980  1.6922
  685MOL0     H94462   3.263   7.729   2.274 -0.5855 -1.0792  2.3447
  685MOL0     H94463   2.902   7.845   2.047  1.0906 -2.3471 -4.2647
  685MOL0     H94464   2.878   7.753   2.197 -1.2365  0.0934 -0.9906
  685MOL0     H94465   2.949   7.666   1.912  1.2893 -2.0106 -0.2189
  685MOL0     H94466   2.909   7.552   2.046  0.5009  1.1151 -0.2783
  685MOL0     H94467   2.688   7.645   2.072  3.1627 -0.2240  1.1510
  685MOL0     H94468   2.705   7.745   1.933 -1.8444 -0.5955  1.1022
  685MOL0     H94469   2.736   7.538   1.806 -1.1871  0.6513  0.2621
  685MOL0     H94470   2.738   7.438   1.951 -1.9960 -0.5410  1.2074
  685MOL0     H94471   2.506   7.610   1.904  0.9136 -0.5244  0.9724
  685MOL0     H94472   2.497   7.466   2.008 -1.6017 -2.0742 -1.7525
  685MOL0     H94473   2.538   7.439   1.707 -0.7577 -1.7836 -0.6136
  685MOL0     H94474   2.495   7.309   1.820 -0.1311 -1.1809 -2.5303
  685MOL0     H94475   2.287   7.538   1.785  2.7367  1.0645  1.0313
  685MOL0     H94476   2.273   7.397   1.878  0.6797 -1.4539  0.1567
  685MOL0     H94477   2.343   7.326   1.594  0.6744  3.3905 -0.2298
  685MOL0     H94478   2.269   7.244   1.731  1.9492  1.0453  1.7902
  685MOL0     H94479   2.138   7.574   1.598 -2.0953  1.7824  2.2022
  685MOL0     H94480   1.951   7.670   1.540 -0.1621 -0.1025 -0.3681
  685MOL0     H94481   1.798   7.589   1.565 -0.5254 -1.2017 -0.2789
  685MOL0     H94482   1.834   7.718   1.362  0.9433  1.1706  2.7137
  685MOL0     H94483   1.929   7.589   1.290 -3.3711  2.3586 -4.8132
  685MOL0     H94484   1.752   7.443   1.253 -1.5688  0.9590 -1.1613
  685MOL0     H94485   1.651   7.517   1.373  0.6531  0.8507  1.8997
  685MOL0     H94486   1.643   7.721   1.245 -0.1187 -1.8624  1.4044
  685MOL0     H94487   1.749   7.659   1.124  1.1925  0.7266  0.4454
  685MOL0     H94488   1.376   7.620   0.942  2.2674 -0.2381  0.1719
  685MOL0     H94489   1.054   7.565   0.945 -0.5926  1.6223  1.4287
  685MOL0     H94490   1.192   7.589   0.854  0.8113 -1.0542  0.0154
  685MOL0     H94491   1.107   7.741   0.917 -1.6812  0.0884  0.2305
  685MOL0     H94492   0.916   7.868   1.367 -0.6602  1.3627  1.6699
  685MOL0     H94493   0.764   7.983   1.499  0.3636  0.6767 -1.0828
  685MOL0     H94494   0.656   8.046   1.761 -0.6752  0.2194  1.3275
  685MOL0     H94495   0.577   8.040   1.611 -2.9352  1.3576  0.6523
  685MOL0     H94496   0.406   8.136   1.750 -0.4402 -0.5964  1.2399
  685MOL0     H94497   0.363   7.962   1.724  0.3122  0.4732 -1.3139
  685MOL0     H94498   0.482   8.111   1.964  1.8512 -2.1159  0.3417
  685MOL0     H94499   0.473   7.936   1.961  0.4808 -0.8233 -0.9331
  685MOL0     H94500   0.225   7.998   1.887 -0.4462  0.4759  1.1348
  685MOL0     H94501   0.277   8.162   1.947  1.4116  0.1176 -2.1103
  685MOL0     H94502   0.312   7.917   2.129 -3.5295 -0.9449  0.4170
  685MOL0     H94503   0.326   8.093   2.166 -0.2613  0.2798  0.3194
  685MOL0     H94504   0.080   8.125   2.114 -0.3392  0.7174  1.7081
  685MOL0     H94505   0.101   8.014   2.252 -2.0830 -0.2007 -0.3587
  685MOL0     H94506   0.072   7.820   2.121 -0.3728 -1.1411 -1.0546
  685MOL0     H94507   0.038   7.901   1.967 -0.4312  0.0170 -0.8867
  685MOL0     H94508  -0.112   7.972   2.227  1.5411 -0.2171  0.2134
  685MOL0     H94509  -0.167   7.834   2.141 -2.3621  1.5292  0.8340
  685MOL0     H94510   0.661   7.602   1.684 -0.4877 -1.2236 -0.9654
  685MOL0     H94511   0.795   7.487   1.530 -2.7054  0.4882 -0.8653
  685MOL0     H94512   1.218   7.632   1.401  3.4726  5.7724 -0.1793
  685MOL0     H94513   1.433   7.557   1.366 -0.4904 -0.2319 -1.1273
  685MOL0     H94514   2.949   8.002   2.186  0.9816  1.4737 -0.0793
  685MOL0     H94515   3.067   8.171   2.325  2.6143  0.8303  1.6544
  685MOL0     H94516   3.452   8.230   2.655  2.2562  0.6534  1.3594
  685MOL0     H94517   3.574   8.415   2.737 -1.2791  0.2042  1.8133
  685MOL0     H94518   3.681   8.582   2.665 -0.5740 -1.9010  1.0595
  685MOL0     H94519   3.682   8.758   2.684  0.9206 -0.2612 -2.6356
  685MOL0     H94520   3.644   8.555   2.901  0.4417 -0.0442 -0.5806
  685MOL0     H94521   3.633   8.718   2.933 -0.4079 -1.6241  1.3379
  685MOL0     H94522   3.874   8.561   2.914  0.1540  0.5461  0.2926
  685MOL0     H94523   3.878   8.668   2.776  3.2028  2.5684  1.8721
  685MOL0     H94524   3.864   8.856   2.912  3.1592  2.0143  1.0026
  685MOL0     H94525   4.009   8.769   2.943 -0.1325  2.4179  0.9644
  685MOL0     H94526   3.809   8.702   3.313 -0.5058  0.4857  0.0425
  685MOL0     H94527   3.258   8.675   2.597  1.3739 -0.0815 -2.2389
  685MOL0     H94528   3.012   8.471   2.600  0.5917 -0.7434  0.2021
  685MOL0     H94529   3.079   8.585   2.472 -1.8029 -0.0255  1.5385
  685MOL0     H94530   3.054   8.416   2.446  0.7918 -1.5033  0.9720
  686MOL0     O94531   2.405   2.888  10.117  0.3180  0.2340  0.4514
  686MOL0     C94532   2.370   2.812  10.209  0.1808 -0.0206  0.2328
  686MOL0     O94533   2.397   2.835  10.346  0.1552  0.0975  0.1423
  686MOL0     C94534   2.426   2.967  10.361 -0.3028  0.2588 -0.4197
  686MOL0     C94535   2.330   3.062  10.397 -0.3607 -0.9053 -0.6139
  686MOL0     C94536   2.362   3.200  10.413 -0.2748 -0.0887  0.0982
  686MOL0     C94537   2.501   3.241  10.410 -0.8698 -0.8530 -0.4510
  686MOL0     O94538   2.541   3.372  10.423 -0.4173 -0.5315 -0.6710
  686MOL0     C94539   2.449   3.474  10.466 -0.0682  0.1553 -0.7333
  686MOL0     C94540   2.533   3.602  10.458  0.2168 -0.7706 -0.6701
  686MOL0     C94541   2.457   3.712  10.524  0.2177 -0.4707  0.1885
  686MOL0     C94542   2.530   3.842  10.552  0.6837 -0.4121  0.1312
  686MOL0     C94543   2.460   3.948  10.654  0.2379 -0.5625 -0.2846
  686MOL0     C94544   2.492   4.094  10.625 -0.0844 -0.2810  0.3137
  686MOL0     C94545   2.641   4.117  10.612 -0.0471  1.2620  0.0228
  686MOL0     C94546   2.694   4.249  10.553  0.3960 -0.4132 -0.3142
  686MOL0     N94547   2.688   4.372  10.640 -0.8297  0.6375  0.9389
  686MOL0     C94548   2.596   4.395  10.732 -0.2690 -0.3136  0.8687
  686MOL0     C94549   2.604   4.534  10.745 -0.0027 -0.3780  0.2456
  686MOL0     C94550   2.515   4.605  10.844  1.0316  0.2484 -0.7857
  686MOL0     C94551   2.361   4.593  10.805 -0.5378 -0.0532 -0.0955
  686MOL0     C94552   2.284   4.666  10.907  0.0762  0.3233  0.1344
  686MOL0     C94553   2.137   4.653  10.881 -0.3731 -0.1845  0.2673
  686MOL0     O94554   2.069   4.570  10.986  0.6127 -0.1507 -0.1521
  686MOL0     C94555   1.945   4.530  10.932 -0.4137  0.3275  0.7727
  686MOL0     C94556   1.854   4.617  10.863 -1.8251  1.0488  0.6070
  686MOL0     C94557   1.721   4.576  10.828 -0.3746  0.1475 -0.3929
  686MOL0     C94558   1.637   4.684  10.762  0.1608 -0.7552 -0.0039
  686MOL0     C94559   1.681   4.446  10.844  0.8237  0.2568 -0.0775
  686MOL0     C94560   1.546   4.388  10.802 -0.5079  0.4754 -0.4354
  686MOL0     O94561   1.519   4.273  10.866  0.1375  0.1958 -0.9325
  686MOL0     C94562   1.400   4.216  10.842  0.1060 -0.0332 -0.4333
  686MOL0     C94563   1.298   4.216  10.945  0.7517  0.3024  0.1974
  686MOL0     C94564   1.175   4.151  10.915 -0.2160  0.5173 -0.3426
  686MOL0     C94565   1.157   4.078  10.799 -0.2309  0.5472  0.2558
  686MOL0     O94566   1.047   4.023  10.754 -0.1211  0.7071 -1.0586
  686MOL0     C94567   0.920   4.039  10.819 -0.4309  0.2023 -0.5857
  686MOL0     C94568   0.829   3.942  10.745  0.1313  0.0721  0.2820
  686MOL0     C94569   0.811   3.981  10.597 -0.6004 -0.1638  0.0168
  686MOL0     C94570   0.734   3.883  10.515 -0.1352 -0.0647 -0.4384
  686MOL0     C94571   0.797   3.746  10.503 -0.5086  0.2441 -0.0918
  686MOL0     C94572   0.699   3.659  10.427  0.3994  0.2102  0.0746
  686MOL0     C94573   0.729   3.506  10.415 -0.5719 -0.2968  0.6767
  686MOL0     C94574   0.611   3.408  10.406  0.0806  0.1152  0.0622
  686MOL0    Cl94575   0.511   3.436  10.254 -0.1421 -0.2952 -0.1142
  686MOL0     C94576   1.267   4.065  10.702 -0.0869  0.9702  0.0954
  686MOL0     C94577   1.396   4.125  10.730 -0.0630  1.1854 -0.4825
  686MOL0     O94578   1.475   4.434  10.714 -0.1718 -0.3562 -0.3751
  686MOL0     C94579   1.776   4.364  10.915  0.8929 -0.1168 -0.9263
  686MOL0     C94580   1.903   4.405  10.961  0.1451  1.0180  0.5564
  686MOL0     N94581   2.695   4.587  10.657 -0.0362  0.1885  0.3404
  686MOL0     N94582   2.755   4.488  10.596  0.7049  0.4579  0.5820
  686MOL0     C94583   2.595   3.141  10.385  0.4344  0.3677 -0.4492
  686MOL0     C94584   2.562   3.004  10.354  0.8188  0.4161  0.4945
  686MOL0     C94585   2.286   2.693  10.194 -0.5417 -0.8414 -0.2071
  686MOL0     C94586   2.290   2.589  10.289  0.7972  0.9044 -0.1266
  686MOL0     C94587   2.190   2.495  10.298 -0.6322 -0.9936  0.3842
  686MOL0     C94588   2.089   2.486  10.204  0.4336  0.3779  0.4817
  686MOL0     O94589   1.991   2.391  10.210  0.8825 -0.1445 -0.3389
  686MOL0     C94590   1.981   2.284  10.310  0.1954 -0.4437  0.6993
  686MOL0     C94591   2.079   2.172  10.298  0.0659  0.3707 -0.0557
  686MOL0     C94592   2.073   2.099  10.168  0.5160  0.1637  0.2559
  686MOL0     C94593   2.166   1.985  10.146  0.5822 -0.5704 -0.1609
  686MOL0     C94594   2.307   2.020  10.145 -0.8195  1.0611 -0.6684
  686MOL0     C94595   2.419   2.056  10.149 -0.0811 -0.4023  0.9396
  686MOL0     C94596   2.097   2.574  10.096  0.4482 -0.3688 -0.0111
  686MOL0     C94597   2.200   2.676  10.083  0.2830 -0.9721 -0.0943
  686MOL0     C94598   2.203   2.762   9.964  0.4989  0.4113  0.0882
  686MOL0     H94599   2.225   3.037  10.405 -0.4267 -1.4581 -2.5391
  686MOL0     H94600   2.295   3.282  10.433 -0.4751  0.4888 -2.5627
  686MOL0     H94601   2.403   3.458  10.564 -0.7207  0.8954 -0.9103
  686MOL0     H94602   2.362   3.493  10.402 -0.9129 -0.9545  0.0304
  686MOL0     H94603   2.631   3.595  10.506  0.0940  0.1552 -0.2618
  686MOL0     H94604   2.548   3.623  10.352  0.4808 -1.8592 -0.8640
  686MOL0     H94605   2.374   3.744  10.460  1.3149  2.9441  0.2365
  686MOL0     H94606   2.409   3.672  10.614 -1.1283  0.5955 -0.0131
  686MOL0     H94607   2.631   3.823  10.588  1.0655 -2.7802 -1.9005
  686MOL0     H94608   2.539   3.897  10.458 -4.3758 -2.1419 -1.7172
  686MOL0     H94609   2.507   3.921  10.749  1.5476  0.5494 -0.5949
  686MOL0     H94610   2.351   3.945  10.665 -0.1097  4.3134 -0.3948
  686MOL0     H94611   2.432   4.134  10.543  0.5778  0.8559  0.3629
  686MOL0     H94612   2.459   4.158  10.708 -2.5744 -2.6479  1.3231
  686MOL0     H94613   2.696   4.032  10.570 -0.0473  1.1198  0.3107
  686MOL0     H94614   2.693   4.118  10.708  0.2091 -2.7097  0.0574
  686MOL0     H94615   2.798   4.225  10.530  0.7577 -0.3772  1.1409
  686MOL0     H94616   2.644   4.277  10.460  3.6332  0.4495 -1.9438
  686MOL0     H94617   2.523   4.333  10.784  0.1444  0.6778  2.7121
  686MOL0     H94618   2.532   4.713  10.842 -0.8028  0.5840 -2.9542
  686MOL0     H94619   2.527   4.577  10.949 -0.8486 -0.9032 -0.8398
  686MOL0     H94620   2.357   4.646  10.709  1.0044  1.0191  0.3847
  686MOL0     H94621   2.339   4.486  10.803  0.2335 -0.2261  0.1950
  686MOL0     H94622   2.312   4.644  11.011 -0.8800 -3.1840 -0.2346
  686MOL0     H94623   2.310   4.772  10.894 -2.6605  0.7381 -3.2605
  686MOL0     H94624   2.096   4.754  10.890 -1.6803 -0.4556 -1.9156
  686MOL0     H94625   2.103   4.603  10.790 -3.1878 -1.7863  2.0426
  686MOL0     H94626   1.878   4.721  10.844  1.1208 -0.1572 -4.0458
  686MOL0     H94627   1.594   4.632  10.676 -0.4507 -2.8503  1.4909
  686MOL0     H94628   1.685   4.775  10.724 -2.9699  1.6451  1.2608
  686MOL0     H94629   1.553   4.727  10.818 -0.0669  2.8505 -2.7001
  686MOL0     H94630   1.319   4.262  11.041 -1.0472 -4.3006  3.1326
  686MOL0     H94631   1.087   4.165  10.977 -0.1520 -0.6198  0.0357
  686MOL0     H94632   0.920   4.008  10.924 -0.0840  1.2611 -0.2620
  686MOL0     H94633   0.890   4.144  10.809 -1.6055 -0.2042 -1.6114
  686MOL0     H94634   0.865   3.840  10.760  2.5969  0.9885  1.0269
  686MOL0     H94635   0.731   3.942  10.794  0.0935  1.3562  0.2443
  686MOL0     H94636   0.908   3.994  10.549 -1.1413 -1.6046 -1.5531
  686MOL0     H94637   0.753   4.074  10.604  0.6049  0.5688  0.6712
  686MOL0     H94638   0.702   3.933  10.423  1.7011  0.3618 -0.8851
  686MOL0     H94639   0.639   3.860  10.565  2.1731 -2.8657  3.2194
  686MOL0     H94640   0.892   3.741  10.448  0.2192 -0.0445  1.1639
  686MOL0     H94641   0.814   3.693  10.597 -2.0924 -1.5028 -0.7430
  686MOL0     H94642   0.682   3.710  10.332  3.7244  2.4594  0.5339
  686MOL0     H94643   0.602   3.667  10.477  0.2678  0.9661 -0.2925
  686MOL0     H94644   0.797   3.471  10.493  2.3473 -0.6003 -1.7816
  686MOL0     H94645   0.778   3.490  10.318 -0.6945 -1.2211  0.7570
  686MOL0     H94646   0.546   3.417  10.493  0.7784 -1.1207  0.7413
  686MOL0     H94647   0.643   3.304  10.399  3.5638  1.0527  0.0084
  686MOL0     H94648   1.242   4.010  10.612  1.5441 -0.6526  0.5721
  686MOL0     H94649   1.486   4.129  10.669 -0.4587 -1.4273 -1.3504
  686MOL0     H94650   1.760   4.257  10.925  0.1254  0.1356  1.2571
  686MOL0     H94651   1.974   4.335  11.004  1.7651  2.3028  0.0613
  686MOL0     H94652   2.701   3.158  10.398  0.0139  2.6928  0.3275
  686MOL0     H94653   2.633   2.923  10.346 -0.9079 -1.2565  1.2751
  686MOL0     H94654   2.355   2.594  10.376  3.5467 -0.4456 -1.9296
  686MOL0     H94655   2.194   2.436  10.390 -1.2226  0.2571  1.2429
  686MOL0     H94656   1.999   2.336  10.405 -0.1396  0.2221  0.3997
  686MOL0     H94657   1.882   2.239  10.320  0.2831 -0.8277 -0.1211
  686MOL0     H94658   2.046   2.110  10.382 -5.1705  1.4323 -0.9729
  686MOL0     H94659   2.180   2.209  10.320  0.1641  0.1941 -0.2038
  686MOL0     H94660   1.977   2.048  10.164  0.0591  1.0143  0.0111
  686MOL0     H94661   2.094   2.163  10.081  0.8661 -1.6609 -1.0660
  686MOL0     H94662   2.140   1.937  10.051  0.8647  1.8455 -1.5443
  686MOL0     H94663   2.149   1.916  10.229 -1.9765  0.0618 -0.0530
  686MOL0     H94664   2.520   2.090  10.140 -0.6388  1.0885  0.0523
  686MOL0     H94665   2.030   2.559  10.013  1.6126  2.1126 -1.5366
  686MOL0     H94666   2.105   2.758   9.917 -0.1205 -1.3172  1.4186
  686MOL0     H94667   2.217   2.868   9.987  0.9760  0.1012  1.3251
  686MOL0     H94668   2.278   2.728   9.891  0.5014 -0.1672  0.3521
  687MOL0     O94669  11.007   2.285   1.807  0.4506  0.1476  0.5324
  687MOL0     C94670  11.033   2.282   1.928 -0.1724  0.1801  0.3107
  687MOL0     O94671  10.977   2.366   2.018  0.2314 -0.6340 -0.1313
  687MOL0     C94672  10.850   2.417   2.001 -0.0151 -0.0274 -0.5623
  687MOL0     C94673  10.747   2.360   2.068 -0.6088  0.1560  0.7156
  687MOL0     C94674  10.611   2.405   2.053 -0.6774  0.4609 -0.4391
  687MOL0     C94675  10.581   2.519   1.976 -0.9795 -1.4403  0.1956
  687MOL0     O94676  10.451   2.566   1.975  0.0244  0.4119  0.4086
  687MOL0     C94677  10.404   2.693   1.925  0.1468  0.3780  0.1455
  687MOL0     C94678  10.393   2.799   2.041  0.1399 -0.0204  0.2788
  687MOL0     C94679  10.268   2.777   2.127  0.2493 -0.1830  0.2433
  687MOL0     C94680  10.217   2.905   2.184 -0.1583 -0.0441 -0.1678
  687MOL0     C94681  10.310   2.965   2.286  0.0828  0.1760  0.7137
  687MOL0     C94682  10.240   3.075   2.355 -0.4820  0.7345  0.0096
  687MOL0     C94683  10.344   3.158   2.429 -0.7489 -0.4748 -0.1296
  687MOL0     C94684  10.277   3.267   2.508 -0.5977 -0.0366  0.4577
  687MOL0     N94685  10.243   3.377   2.407 -0.5302  1.8147 -1.2376
  687MOL0     C94686  10.116   3.421   2.387 -0.3189 -0.3258  0.2576
  687MOL0     C94687  10.131   3.525   2.301  0.4542  0.2789 -0.2129
  687MOL0     C94688  10.023   3.605   2.252  0.0986  0.0607 -0.4597
  687MOL0     C94689   9.932   3.670   2.341  0.5563 -0.8309  0.8090
  687MOL0     C94690  10.003   3.802   2.379 -0.0824 -0.7449 -0.0445
  687MOL0     C94691   9.916   3.880   2.481  0.5890  1.3533  0.0011
  687MOL0     O94692   9.964   4.010   2.521 -0.0304 -0.4655  0.1211
  687MOL0     C94693   9.929   4.105   2.421 -0.4169 -0.0475  0.3426
  687MOL0     C94694   9.827   4.105   2.325  0.7201 -0.0382 -0.2306
  687MOL0     C94695   9.814   4.214   2.240 -0.7289 -0.0018  0.8369
  687MOL0     C94696   9.703   4.199   2.138  0.1262 -1.6596  0.1156
  687MOL0     C94697   9.906   4.320   2.247 -0.4881  0.8509  0.2563
  687MOL0     C94698   9.901   4.429   2.139  0.3227  0.9254 -1.6058
  687MOL0     O94699   9.957   4.546   2.167 -0.2749 -0.0838 -0.3466
  687MOL0     C94700   9.953   4.640   2.063 -0.6042  1.0781 -0.3540
  687MOL0     C94701   9.851   4.734   2.070 -0.3154  0.2933  0.8018
  687MOL0     C94702   9.846   4.831   1.966  0.3392  0.2172 -0.1272
  687MOL0     C94703   9.925   4.821   1.840  0.2318 -0.5169 -0.2930
  687MOL0     O94704   9.925   4.913   1.740  0.1326  0.1469  0.6730
  687MOL0     C94705   9.816   5.009   1.739  0.4277  0.2007  0.2856
  687MOL0     C94706   9.827   5.103   1.616 -0.0920  0.1812 -0.0489
  687MOL0     C94707   9.976   5.159   1.613  1.5388 -0.6141  0.1900
  687MOL0     C94708   9.977   5.247   1.481  0.6167 -0.0446  0.0302
  687MOL0     C94709  10.115   5.323   1.476 -0.0252 -0.4735 -0.3199
  687MOL0     C94710  10.117   5.417   1.358  0.2475  1.3120 -0.0850
  687MOL0     C94711  10.245   5.498   1.336  0.4296 -0.1657 -0.1603
  687MOL0     C94712  10.284   5.593   1.454  0.5431  0.6558  0.8004
  687MOL0    Cl94713  10.150   5.728   1.475 -0.0237 -0.6754  0.2429
  687MOL0     C94714  10.028   4.724   1.841 -0.0629  0.2531  0.2254
  687MOL0     C94715  10.045   4.644   1.955 -0.1113  0.9740  0.0982
  687MOL0     O94716   9.871   4.397   2.023  0.3675  0.4824  0.3612
  687MOL0     C94717   9.999   4.327   2.348  0.4432 -0.3895 -0.5740
  687MOL0     C94718  10.008   4.221   2.438 -0.3975 -0.0532 -0.3702
  687MOL0     N94719  10.272   3.537   2.271 -0.0735 -0.9958 -0.4308
  687MOL0     N94720  10.336   3.455   2.343  0.6625 -0.1629 -0.2047
  687MOL0     C94721  10.690   2.580   1.905 -0.0696 -0.1249  0.8177
  687MOL0     C94722  10.831   2.530   1.921  1.2575 -1.3713 -0.0469
  687MOL0     C94723  11.112   2.168   1.986 -0.1498  0.3961  0.0321
  687MOL0     C94724  11.054   2.079   2.082 -0.1087  1.0204  0.6452
  687MOL0     C94725  11.132   1.992   2.159  0.1424 -0.0418 -0.3381
  687MOL0     C94726  11.266   1.977   2.141  0.3029  0.1243  0.6374
  687MOL0     O94727  11.337   1.882   2.220  0.4438 -0.3467 -0.5770
  687MOL0     C94728  11.475   1.871   2.194 -0.5425  0.9321 -0.4154
  687MOL0     C94729  11.524   1.770   2.302 -0.3266  0.4357 -0.0889
  687MOL0     C94730  11.434   1.662   2.353  0.2328  0.9249  0.5103
  687MOL0     C94731  11.496   1.571   2.463  0.2232 -0.1404 -1.4668
  687MOL0     C94732  11.622   1.501   2.419 -0.5470 -0.6178  0.2542
  687MOL0     C94733  11.727   1.455   2.401 -0.3433  0.4253 -0.2967
  687MOL0     C94734  11.320   2.062   2.048  0.5932 -0.5847  1.2793
  687MOL0     C94735  11.249   2.161   1.975  1.1579  0.1621  0.8034
  687MOL0     C94736  11.322   2.260   1.891 -0.4443  1.2321 -0.4843
  687MOL0     H94737  10.759   2.261   2.110  2.5323  0.6847  1.2661
  687MOL0     H94738  10.525   2.355   2.096 -3.8801  2.6536 -3.6328
  687MOL0     H94739  10.310   2.684   1.870 -0.1443  0.2583  0.6510
  687MOL0     H94740  10.474   2.731   1.851  1.7278 -2.5877 -0.0497
  687MOL0     H94741  10.485   2.803   2.101  0.3620 -0.4001 -0.0294
  687MOL0     H94742  10.381   2.895   1.990  0.6714  1.2226  2.3611
  687MOL0     H94743  10.191   2.732   2.065 -1.0813 -0.1093  1.7747
  687MOL0     H94744  10.299   2.715   2.212  0.9439  1.1940  1.0326
  687MOL0     H94745  10.214   2.988   2.114 -0.1679  1.4277  1.5115
  687MOL0     H94746  10.115   2.885   2.218 -0.9820  2.6455 -0.8568
  687MOL0     H94747  10.402   2.997   2.236  1.1072 -1.6306  1.3521
  687MOL0     H94748  10.332   2.882   2.353 -0.4193  0.6952  1.5352
  687MOL0     H94749  10.188   3.126   2.274 -2.5890  2.1961  2.1412
  687MOL0     H94750  10.161   3.038   2.421 -1.1029 -0.1995 -1.2364
  687MOL0     H94751  10.418   3.191   2.356 -1.3874  0.4114 -0.4004
  687MOL0     H94752  10.386   3.081   2.495 -0.0418  0.8926  1.0808
  687MOL0     H94753  10.183   3.234   2.552  0.1310 -2.6576  0.2083
  687MOL0     H94754  10.345   3.304   2.585 -3.1237  2.1670  1.8012
  687MOL0     H94755  10.028   3.373   2.428  0.8137 -3.4974 -0.7805
  687MOL0     H94756   9.968   3.541   2.183 -0.1590 -1.3017  0.9470
  687MOL0     H94757  10.064   3.679   2.183  2.2308  0.2443  0.9003
  687MOL0     H94758   9.833   3.686   2.298  0.0149 -1.6021  1.7162
  687MOL0     H94759   9.919   3.607   2.430  0.3414 -0.2566  1.1924
  687MOL0     H94760  10.104   3.782   2.417  0.3774 -1.3744 -1.5447
  687MOL0     H94761  10.015   3.860   2.288 -1.7140 -0.1137  0.1238
  687MOL0     H94762   9.816   3.884   2.436 -0.1966  1.0140  1.6686
  687MOL0     H94763   9.898   3.824   2.573  1.4460  0.6536 -0.2361
  687MOL0     H94764   9.776   4.010   2.315 -0.0382 -0.0817  2.9838
  687MOL0     H94765   9.625   4.131   2.173 -3.1946  1.6877 -0.1349
  687MOL0     H94766   9.758   4.143   2.062  1.8256 -2.0224  1.5571
  687MOL0     H94767   9.657   4.294   2.107  2.1387 -0.5758  0.3014
  687MOL0     H94768   9.769   4.714   2.138 -2.4717 -2.7025 -2.3283
  687MOL0     H94769   9.762   4.900   1.963 -1.7039 -2.1624 -2.0156
  687MOL0     H94770   9.723   4.955   1.759 -0.0198  0.7968 -0.1369
  687MOL0     H94771   9.805   5.077   1.825 -4.3855  0.6335 -0.3694
  687MOL0     H94772   9.783   5.052   1.530 -1.5625 -0.5890  1.1164
  687MOL0     H94773   9.759   5.187   1.633 -0.4498 -0.1023 -0.0628
  687MOL0     H94774  10.047   5.077   1.599 -1.9252 -4.1229  1.4611
  687MOL0     H94775  10.001   5.221   1.701  2.7002 -0.8362  0.0388
  687MOL0     H94776   9.901   5.325   1.485 -0.7519 -1.3446  0.4978
  687MOL0     H94777   9.956   5.199   1.385 -4.0541  4.0540 -1.4190
  687MOL0     H94778  10.116   5.382   1.568 -1.0055 -1.7484  0.5480
  687MOL0     H94779  10.187   5.241   1.475  0.0479 -0.4130  0.0595
  687MOL0     H94780  10.032   5.485   1.377 -3.3999 -2.8512  0.0997
  687MOL0     H94781  10.088   5.368   1.265 -1.3319  0.4948  0.7900
  687MOL0     H94782  10.233   5.564   1.249 -0.8583 -0.1981 -0.0229
  687MOL0     H94783  10.337   5.438   1.341  0.9028  0.6218  3.9656
  687MOL0     H94784  10.386   5.629   1.438  0.3048  0.5196 -1.3081
  687MOL0     H94785  10.289   5.531   1.544  2.3210  0.5316  0.6397
  687MOL0     H94786  10.099   4.718   1.759 -0.5995 -4.5888 -0.1560
  687MOL0     H94787  10.130   4.578   1.942  2.2055  3.1943  2.6000
  687MOL0     H94788  10.062   4.415   2.353 -1.0383  0.6412  2.0601
  687MOL0     H94789  10.084   4.228   2.516 -1.7094  1.1766  0.8412
  687MOL0     H94790  10.664   2.660   1.837  0.7036 -0.8340 -0.3511
  687MOL0     H94791  10.909   2.587   1.872 -0.4014  3.2038  2.0492
  687MOL0     H94792  10.947   2.081   2.098 -0.5126  0.8371 -1.6418
  687MOL0     H94793  11.087   1.932   2.237 -1.1783  1.1034 -0.1670
  687MOL0     H94794  11.496   1.831   2.094 -5.0642  0.2237 -1.3440
  687MOL0     H94795  11.530   1.964   2.210 -1.1516  1.3432 -0.6519
  687MOL0     H94796  11.550   1.816   2.398  0.5329 -2.3035  1.0929
  687MOL0     H94797  11.621   1.734   2.267 -0.6047 -1.2054  0.7211
  687MOL0     H94798  11.350   1.698   2.412  0.6436  1.1354  0.9788
  687MOL0     H94799  11.386   1.611   2.269  0.2153  1.8333 -0.0399
  687MOL0     H94800  11.425   1.495   2.496  0.4831 -0.1908 -1.0091
  687MOL0     H94801  11.510   1.645   2.543 -0.5743  1.7167 -2.9659
  687MOL0     H94802  11.820   1.412   2.372  0.8653  2.0016  1.0557
  687MOL0     H94803  11.428   2.053   2.055  0.5917 -3.4735 -0.5516
  687MOL0     H94804  11.430   2.253   1.903 -0.5551 -4.0560 -0.4985
  687MOL0     H94805  11.296   2.259   1.785 -0.5026  0.1328 -0.4665
  687MOL0     H94806  11.285   2.352   1.939 -2.6874  1.1637 -1.9498
  688MOL0     O94807   8.573   2.723   3.395  0.4036  0.0032 -0.2902
  688MOL0     C94808   8.536   2.607   3.409  0.4963 -0.1705  0.6793
  688MOL0     O94809   8.399   2.577   3.425  0.2827 -0.6796 -0.3436
  688MOL0     C94810   8.304   2.669   3.381  0.5279  0.8540  0.0034
  688MOL0     C94811   8.200   2.691   3.474  0.3542  0.7864 -0.8227
  688MOL0     C94812   8.098   2.779   3.440  0.6591  0.7324  0.5101
  688MOL0     C94813   8.101   2.839   3.314 -0.1445  0.1782 -0.0872
  688MOL0     O94814   8.003   2.926   3.270  0.2777  0.6998 -0.5499
  688MOL0     C94815   7.880   2.926   3.348 -0.8571 -0.9905 -0.6466
  688MOL0     C94816   7.791   2.991   3.242  0.0690 -0.2326 -1.0874
  688MOL0     C94817   7.828   3.140   3.204 -0.0234  0.1690 -0.4639
  688MOL0     C94818   7.875   3.239   3.310  0.9083 -0.1069 -0.7384
  688MOL0     C94819   8.031   3.252   3.313  0.4678  0.8196  1.2179
  688MOL0     C94820   8.069   3.307   3.446 -0.4627 -0.8688  0.5010
  688MOL0     C94821   8.216   3.300   3.455 -1.2333 -0.0974  0.1906
  688MOL0     C94822   8.277   3.170   3.504 -0.4319 -0.0491  0.7957
  688MOL0     N94823   8.428   3.171   3.509  0.8003 -1.1674 -0.2543
  688MOL0     C94824   8.512   3.061   3.516  0.1276  0.4005  1.0211
  688MOL0     C94825   8.640   3.114   3.523  0.4681 -0.4209  1.4433
  688MOL0     C94826   8.753   3.028   3.518  0.0688 -0.5172  0.3455
  688MOL0     C94827   8.778   2.962   3.651  0.2936 -1.0217  0.2590
  688MOL0     C94828   8.831   3.053   3.771  0.5540  0.2051  0.7286
  688MOL0     C94829   8.801   2.970   3.901  0.2707 -0.3331  0.0228
  688MOL0     O94830   8.806   2.833   3.899  0.3509 -0.3735 -0.1190
  688MOL0     C94831   8.923   2.769   3.904  0.8020 -0.1607 -0.1167
  688MOL0     C94832   8.913   2.630   3.888 -0.5659 -0.2201 -0.0329
  688MOL0     C94833   9.025   2.544   3.901  0.1481 -0.2765 -0.6064
  688MOL0     C94834   8.992   2.397   3.882 -0.5273 -0.2429 -0.3346
  688MOL0     C94835   9.150   2.604   3.929 -0.0629 -0.2798 -0.6810
  688MOL0     C94836   9.273   2.525   3.931 -0.1600 -0.2979  0.3324
  688MOL0     O94837   9.361   2.551   4.031 -0.6259  0.2901  0.3724
  688MOL0     C94838   9.479   2.480   4.035  0.6625 -1.1216 -0.3010
  688MOL0     C94839   9.598   2.544   4.021  0.6116 -0.1209 -0.7917
  688MOL0     C94840   9.716   2.476   4.048  0.3367  0.0364 -0.2529
  688MOL0     C94841   9.716   2.338   4.086  0.2993 -0.3399  1.4637
  688MOL0     O94842   9.820   2.261   4.120 -0.6763 -0.2113 -0.3422
  688MOL0     C94843   9.949   2.327   4.128  0.7847  0.3311 -0.2580
  688MOL0     C94844   9.956   2.416   4.249 -0.6025 -0.1558 -0.4713
  688MOL0     C94845   9.879   2.377   4.377  0.4677  0.1866  0.1268
  688MOL0     C94846   9.841   2.501   4.460 -0.6456 -0.0122 -0.5965
  688MOL0     C94847   9.732   2.591   4.398 -0.7123  0.2687  0.3510
  688MOL0     C94848   9.748   2.739   4.420 -0.2734 -0.0487 -0.0229
  688MOL0     C94849   9.670   2.829   4.315 -0.2228 -0.2589 -0.2482
  688MOL0     C94850   9.756   2.957   4.300 -0.5290 -0.4417 -0.2470
  688MOL0    Cl94851   9.662   3.069   4.192 -0.2243 -0.1887  0.0396
  688MOL0     C94852   9.594   2.272   4.096  0.1658 -0.1655  0.5224
  688MOL0     C94853   9.470   2.339   4.063  0.3297  0.7420  1.5561
  688MOL0     O94854   9.290   2.449   3.836 -0.1520 -0.3898  0.6933
  688MOL0     C94855   9.168   2.745   3.942  0.1016  0.6046 -0.5622
  688MOL0     C94856   9.053   2.829   3.921 -0.2204 -0.8129 -0.3302
  688MOL0     N94857   8.628   3.254   3.503 -0.0178  0.0283 -0.4899
  688MOL0     N94858   8.500   3.290   3.490  0.0903 -0.5646  0.1990
  688MOL0     C94859   8.194   2.805   3.211 -1.5930  0.6585 -0.5617
  688MOL0     C94860   8.302   2.721   3.250  0.7886 -0.1842  0.0171
  688MOL0     C94861   8.630   2.496   3.405 -0.1657  0.2313 -0.7828
  688MOL0     C94862   8.587   2.383   3.324  0.6736 -0.5315  1.3964
  688MOL0     C94863   8.669   2.264   3.312  0.0575  0.3688 -0.1510
  688MOL0     C94864   8.797   2.272   3.371  0.3011  0.4041  0.5985
  688MOL0     O94865   8.876   2.162   3.349  0.6287 -0.8465 -0.6137
  688MOL0     C94866   8.955   2.184   3.221  0.0550  0.1500 -1.1198
  688MOL0     C94867   9.071   2.079   3.228  0.0292 -0.3689 -0.1411
  688MOL0     C94868   9.174   2.073   3.342 -0.3474  0.1244  0.7754
  688MOL0     C94869   9.241   2.210   3.378  1.5085  0.7443  0.4936
  688MOL0     C94870   9.281   2.300   3.278  0.3198 -0.0483  0.7044
  688MOL0     C94871   9.328   2.379   3.191 -0.2294 -0.1302 -0.2199
  688MOL0     C94872   8.848   2.384   3.437  0.6493 -0.4135 -0.4023
  688MOL0     C94873   8.762   2.495   3.459  0.4238  0.4018  0.4089
  688MOL0     C94874   8.816   2.611   3.544 -0.1925 -0.2769 -0.7551
  688MOL0     H94875   8.193   2.627   3.561 -1.2114 -2.0429 -2.8561
  688MOL0     H94876   8.021   2.799   3.514 -1.6397 -4.8998  0.1323
  688MOL0     H94877   7.895   2.984   3.439  0.4041 -2.7929  0.3480
  688MOL0     H94878   7.851   2.824   3.376  2.5177 -0.8092  4.9092
  688MOL0     H94879   7.779   2.935   3.149 -0.3513 -2.2105  0.1176
  688MOL0     H94880   7.690   2.996   3.285 -0.4659 -3.0118 -1.8316
  688MOL0     H94881   7.905   3.129   3.127  0.6573  0.8000  0.1163
  688MOL0     H94882   7.745   3.182   3.146 -1.9616  1.9958  3.2988
  688MOL0     H94883   7.836   3.337   3.281  2.2021  0.9013  0.7662
  688MOL0     H94884   7.843   3.218   3.412  0.5211  1.0165 -0.6198
  688MOL0     H94885   8.074   3.314   3.234 -1.1895 -5.1371 -5.3691
  688MOL0     H94886   8.071   3.153   3.293  0.3372  1.0639 -0.4197
  688MOL0     H94887   8.044   3.413   3.432  2.8325 -0.3778 -3.6737
  688MOL0     H94888   8.031   3.248   3.530 -0.4755  0.8796  1.7964
  688MOL0     H94889   8.252   3.383   3.516 -0.9202 -0.7176  0.8623
  688MOL0     H94890   8.265   3.316   3.358  0.6835 -1.8514  0.8164
  688MOL0     H94891   8.235   3.154   3.604  0.4669 -0.2449  1.1461
  688MOL0     H94892   8.237   3.093   3.436  0.6795 -0.7399  0.8961
  688MOL0     H94893   8.471   2.961   3.522 -2.4454  1.1059 -1.9341
  688MOL0     H94894   8.841   3.090   3.497 -0.9248  0.9733  0.4568
  688MOL0     H94895   8.742   2.968   3.428  3.2329  1.1520 -1.3431
  688MOL0     H94896   8.684   2.910   3.670 -0.6735  0.7472  0.4911
  688MOL0     H94897   8.856   2.887   3.632 -0.3526 -0.8324 -4.2043
  688MOL0     H94898   8.940   3.062   3.766  0.5318 -0.3203 -2.7922
  688MOL0     H94899   8.788   3.153   3.778  1.2916  0.5367  0.5510
  688MOL0     H94900   8.849   2.999   3.994  2.1927  0.8634 -1.2650
  688MOL0     H94901   8.698   3.003   3.915  0.7586  2.8181 -2.5866
  688MOL0     H94902   8.818   2.583   3.865  0.4855 -2.9049  0.6445
  688MOL0     H94903   9.045   2.355   3.796  2.2770  0.5445  0.8922
  688MOL0     H94904   8.884   2.385   3.864 -1.0127  1.7995  0.9165
  688MOL0     H94905   9.028   2.346   3.972  2.0651  2.1677  0.1203
  688MOL0     H94906   9.608   2.651   4.002  0.6049  0.0341  0.0263
  688MOL0     H94907   9.812   2.525   4.034  2.0219 -2.4393  1.6705
  688MOL0     H94908  10.033   2.259   4.118 -0.4345 -0.8846 -4.6606
  688MOL0     H94909   9.960   2.377   4.031  0.0714  1.1551  0.0662
  688MOL0     H94910  10.062   2.419   4.278 -0.3006 -0.9831 -1.4352
  688MOL0     H94911   9.939   2.516   4.208 -2.5562 -0.3964 -0.3439
  688MOL0     H94912   9.941   2.304   4.431  0.2560  0.2395  0.4431
  688MOL0     H94913   9.782   2.330   4.361  0.5864 -0.2019  0.5008
  688MOL0     H94914   9.933   2.558   4.472 -1.4509  1.2385 -0.0991
  688MOL0     H94915   9.802   2.460   4.553 -2.1159 -4.1493 -2.7989
  688MOL0     H94916   9.719   2.577   4.291  0.4046  0.5413  0.1620
  688MOL0     H94917   9.637   2.552   4.434 -3.2424  2.2951 -3.4625
  688MOL0     H94918   9.855   2.760   4.428 -0.6369  1.1671  2.3362
  688MOL0     H94919   9.706   2.762   4.518  0.4244 -2.7574  0.9941
  688MOL0     H94920   9.565   2.851   4.333  0.1603  0.6398  1.0141
  688MOL0     H94921   9.678   2.784   4.216 -0.1144 -2.6421  0.7763
  688MOL0     H94922   9.861   2.940   4.275 -0.0116 -0.6191  1.8830
  688MOL0     H94923   9.762   3.008   4.396  0.6750  1.2500 -1.1804
  688MOL0     H94924   9.592   2.164   4.105 -2.5958 -0.3285 -0.9494
  688MOL0     H94925   9.368   2.303   4.071  0.7336 -1.2237 -0.9929
  688MOL0     H94926   9.270   2.784   3.943  1.1265 -1.9107 -0.6907
  688MOL0     H94927   9.087   2.932   3.932  0.1270 -1.0384  0.8003
  688MOL0     H94928   8.187   2.852   3.114  2.1923  1.3727 -0.6348
  688MOL0     H94929   8.385   2.691   3.187  0.3665  0.4911 -0.8817
  688MOL0     H94930   8.491   2.402   3.277  0.7706  0.0910  1.4437
  688MOL0     H94931   8.644   2.169   3.266  2.3908 -0.4202  0.0412
  688MOL0     H94932   8.890   2.182   3.133 -0.0848 -1.4919 -1.0085
  688MOL0     H94933   8.995   2.285   3.231  0.7878 -0.3064  1.2115
  688MOL0     H94934   9.138   2.099   3.144  1.3988 -1.9634  0.5360
  688MOL0     H94935   9.025   1.980   3.222 -2.1143  0.4700  1.0823
  688MOL0     H94936   9.120   2.032   3.428 -2.0458  3.3392  1.4262
  688MOL0     H94937   9.254   2.002   3.318 -3.4969 -2.9565 -1.5860
  688MOL0     H94938   9.329   2.186   3.438  1.4029 -0.0305  0.3540
  688MOL0     H94939   9.172   2.258   3.449 -3.9583 -1.6426 -2.5288
  688MOL0     H94940   9.377   2.442   3.120  3.0628 -1.4338  0.6672
  688MOL0     H94941   8.947   2.377   3.481  0.4760 -0.9971 -0.0854
  688MOL0     H94942   8.848   2.693   3.478  1.2097 -0.9658 -0.9907
  688MOL0     H94943   8.751   2.651   3.621  1.0733 -3.4146  2.2162
  688MOL0     H94944   8.896   2.572   3.608 -1.9875 -2.1746  0.4509
  689MOL0     O94945   8.003   5.723   0.192  0.2646  0.0007 -1.0408
  689MOL0     C94946   7.971   5.726   0.311  0.6606 -0.3985 -0.0313
  689MOL0     O94947   7.953   5.839   0.378 -0.5692  0.6027 -0.8299
  689MOL0     C94948   8.021   5.957   0.342 -0.3324 -0.3485  0.6464
  689MOL0     C94949   8.098   6.004   0.448  0.3961 -0.4556  0.8840
  689MOL0     C94950   8.165   6.124   0.426 -0.1140 -0.3532  0.0466
  689MOL0     C94951   8.168   6.182   0.304 -0.7742 -2.0228 -0.3279
  689MOL0     O94952   8.253   6.289   0.271  0.1893 -1.4424 -0.4572
  689MOL0     C94953   8.318   6.376   0.367 -0.3119 -0.5764  0.6193
  689MOL0     C94954   8.346   6.526   0.325  0.2692  0.1577 -0.2497
  689MOL0     C94955   8.229   6.592   0.252  0.1553  1.2810 -0.8199
  689MOL0     C94956   8.128   6.629   0.367  0.0791 -0.7547 -0.9127
  689MOL0     C94957   7.989   6.658   0.314 -0.3614  0.0547  0.3774
  689MOL0     C94958   7.915   6.535   0.289  0.9240  0.3562 -1.0002
  689MOL0     C94959   7.856   6.476   0.410  1.2741  0.5884  0.4603
  689MOL0     C94960   7.764   6.356   0.376 -0.3763  0.3540 -0.2567
  689MOL0     N94961   7.714   6.300   0.501  0.1064  0.3039 -0.2012
  689MOL0     C94962   7.744   6.170   0.542 -0.7666 -0.8530 -0.1906
  689MOL0     C94963   7.686   6.163   0.667  0.2960  0.1678 -0.1763
  689MOL0     C94964   7.681   6.043   0.763 -0.4436 -0.4024  0.3878
  689MOL0     C94965   7.804   6.035   0.858 -0.1011  0.1726 -0.4435
  689MOL0     C94966   7.940   6.010   0.775 -0.5710 -0.5644 -0.4552
  689MOL0     C94967   8.054   5.963   0.863  0.3577 -0.0331 -0.0489
  689MOL0     O94968   8.170   5.954   0.772  0.5434  0.7448 -0.2500
  689MOL0     C94969   8.243   6.068   0.746 -0.6622 -0.4189  0.0030
  689MOL0     C94970   8.362   6.040   0.670  0.5366  0.1303  0.1052
  689MOL0     C94971   8.464   6.134   0.658 -0.6808 -0.7169  0.0716
  689MOL0     C94972   8.581   6.094   0.578 -0.0196 -0.2327  0.6520
  689MOL0     C94973   8.442   6.275   0.710  0.3480  0.4977 -0.2963
  689MOL0     C94974   8.539   6.373   0.709  0.2749  0.0960 -0.1759
  689MOL0     O94975   8.521   6.472   0.800 -1.5769  0.5027 -0.2695
  689MOL0     C94976   8.625   6.559   0.828  0.0614  0.0369  0.1649
  689MOL0     C94977   8.591   6.700   0.797 -0.0514  0.7104 -0.3143
  689MOL0     C94978   8.683   6.800   0.800  0.1350  0.5322 -0.3400
  689MOL0     C94979   8.816   6.769   0.829  0.2853 -0.7733  0.5874
  689MOL0     O94980   8.910   6.861   0.847 -0.0965 -0.1404  0.8627
  689MOL0     C94981   8.871   6.994   0.812 -0.1601  0.6403 -1.0171
  689MOL0     C94982   8.995   7.080   0.835  0.6944  0.7656 -0.2344
  689MOL0     C94983   8.961   7.227   0.826  0.5354 -0.0699  0.2087
  689MOL0     C94984   9.089   7.296   0.875  1.7213 -0.7903  0.6323
  689MOL0     C94985   9.070   7.448   0.851  0.4843 -0.3602  0.6800
  689MOL0     C94986   9.201   7.522   0.865 -0.6589  0.4526  0.3126
  689MOL0     C94987   9.199   7.674   0.864  0.1016 -0.4736  0.2261
  689MOL0     C94988   9.339   7.728   0.876  0.0068 -1.3099  0.4456
  689MOL0    Cl94989   9.326   7.888   0.832  0.2207  0.0210  0.1800
  689MOL0     C94990   8.850   6.638   0.866  0.5977 -0.6875 -0.8535
  689MOL0     C94991   8.755   6.530   0.857  0.7020 -0.0755  0.4943
  689MOL0     O94992   8.617   6.379   0.618  0.2506  0.0314 -0.2855
  689MOL0     C94993   8.313   6.302   0.771 -0.6362 -0.2634 -0.5307
  689MOL0     C94994   8.219   6.207   0.788 -0.2008  0.9579 -0.0966
  689MOL0     N94995   7.608   6.278   0.691 -0.7294  0.1995  0.8506
  689MOL0     N94996   7.633   6.361   0.591  0.0274  0.3438 -0.0545
  689MOL0     C94997   8.095   6.132   0.199 -0.4971  0.0039  0.1115
  689MOL0     C94998   8.013   6.013   0.210 -0.6928  0.4499 -0.0419
  689MOL0     C94999   7.955   5.596   0.378 -0.1854 -0.5342  0.2766
  689MOL0     C95000   7.981   5.484   0.300  0.7362 -0.5542 -0.0290
  689MOL0     C95001   7.933   5.361   0.335 -0.7722  0.8166 -0.2397
  689MOL0     C95002   7.877   5.342   0.458 -0.1113  0.5755  0.8432
  689MOL0     O95003   7.838   5.210   0.477 -0.0156 -0.1150  0.2116
  689MOL0     C95004   7.755   5.174   0.586 -0.0272 -0.3142  0.6131
  689MOL0     C95005   7.723   5.027   0.567  0.5601  0.0484 -0.4069
  689MOL0     C95006   7.670   4.963   0.695 -0.5160 -0.8755 -0.6966
  689MOL0     C95007   7.629   4.814   0.690 -0.6675 -0.4750 -0.7075
  689MOL0     C95008   7.541   4.771   0.588  0.8880 -1.0542  0.0477
  689MOL0     C95009   7.471   4.763   0.492  0.9118 -0.3054 -0.0559
  689MOL0     C95010   7.868   5.449   0.548 -0.4906 -0.8608  1.2648
  689MOL0     C95011   7.907   5.575   0.508  0.0963  0.7415  0.2087
  689MOL0     C95012   7.876   5.683   0.605  0.0816  0.3907  0.3456
  689MOL0     H95013   8.079   5.981   0.552  1.7601 -0.5372  1.1354
  689MOL0     H95014   8.229   6.161   0.506 -1.5945 -0.1959  1.2033
  689MOL0     H95015   8.411   6.329   0.398 -0.7456 -1.3414  0.7962
  689MOL0     H95016   8.266   6.378   0.463  0.2324  3.1638  0.9796
  689MOL0     H95017   8.382   6.571   0.417 -0.4663  1.0869 -0.4006
  689MOL0     H95018   8.431   6.538   0.257  0.7739  1.5864  0.6069
  689MOL0     H95019   8.254   6.687   0.203  0.3592  0.9847 -1.2840
  689MOL0     H95020   8.185   6.523   0.180  1.0067  1.8155 -1.8804
  689MOL0     H95021   8.117   6.563   0.454 -0.0727 -0.1615 -0.4815
  689MOL0     H95022   8.162   6.727   0.401  0.8007 -1.4056  0.3293
  689MOL0     H95023   8.007   6.722   0.227 -0.9132  1.1082  1.0133
  689MOL0     H95024   7.937   6.713   0.393 -1.5255 -3.8336  2.5831
  689MOL0     H95025   7.831   6.558   0.222  0.5061 -2.9576 -1.7590
  689MOL0     H95026   7.981   6.459   0.245 -0.6037 -2.3302  1.0592
  689MOL0     H95027   7.793   6.545   0.466  0.0010 -1.3293  1.5162
  689MOL0     H95028   7.933   6.444   0.481  0.5646 -5.5413 -0.9542
  689MOL0     H95029   7.676   6.384   0.316 -1.4948 -2.5506 -0.1652
  689MOL0     H95030   7.827   6.283   0.324 -1.0168 -0.2286 -0.2298
  689MOL0     H95031   7.809   6.094   0.499  1.1161  0.2263  0.6164
  689MOL0     H95032   7.664   5.959   0.696 -1.3989 -0.0621  0.1985
  689MOL0     H95033   7.594   6.065   0.825 -0.4304  3.0261 -0.5963
  689MOL0     H95034   7.798   6.127   0.916 -3.9853  0.0896 -0.4184
  689MOL0     H95035   7.780   5.953   0.927 -1.3021  1.6122  0.9238
  689MOL0     H95036   7.911   5.935   0.700 -1.7132 -0.2133 -0.3895
  689MOL0     H95037   7.969   6.102   0.724  0.0612  0.7188  2.0794
  689MOL0     H95038   8.064   6.041   0.939  1.6319 -1.7352  1.6355
  689MOL0     H95039   8.029   5.867   0.910 -1.8868 -0.1718 -1.3813
  689MOL0     H95040   8.388   5.948   0.618  2.7816  0.5485  0.3983
  689MOL0     H95041   8.591   5.986   0.564 -1.2530 -0.7216  3.1515
  689MOL0     H95042   8.675   6.131   0.621  2.2558 -1.4607 -2.7698
  689MOL0     H95043   8.585   6.145   0.481  0.6829  1.4255  1.5091
  689MOL0     H95044   8.493   6.717   0.753 -0.1139  1.2452  0.0189
  689MOL0     H95045   8.651   6.902   0.779  0.1308  1.2976  2.7912
  689MOL0     H95046   8.842   6.999   0.707 -2.5834  1.0079 -0.3976
  689MOL0     H95047   8.792   7.034   0.876  0.3822  0.9724 -0.5454
  689MOL0     H95048   9.031   7.065   0.937  0.3906  2.5540  0.1741
  689MOL0     H95049   9.076   7.055   0.766  1.2363 -0.2858  0.7432
  689MOL0     H95050   8.875   7.256   0.887  0.0484  2.8231 -1.6637
  689MOL0     H95051   8.935   7.250   0.722 -0.8760  0.2772  0.6157
  689MOL0     H95052   9.184   7.264   0.831  2.0338 -1.0486  1.4759
  689MOL0     H95053   9.086   7.271   0.981 -1.2765 -1.2331  0.5296
  689MOL0     H95054   9.043   7.463   0.746  1.5988 -2.0239  0.1141
  689MOL0     H95055   8.987   7.490   0.909  0.2176 -1.3160  0.9965
  689MOL0     H95056   9.270   7.489   0.787  3.2025  1.0533  3.1372
  689MOL0     H95057   9.242   7.500   0.964  2.9641 -1.6639 -1.4732
  689MOL0     H95058   9.148   7.715   0.952 -2.1859 -3.1810  0.3079
  689MOL0     H95059   9.142   7.691   0.772  0.6997 -0.7136 -0.1952
  689MOL0     H95060   9.414   7.691   0.806  1.6941 -1.9363  2.4802
  689MOL0     H95061   9.375   7.712   0.978  0.6891  1.2183  0.6697
  689MOL0     H95062   8.943   6.623   0.920 -1.8444  2.4464  5.0495
  689MOL0     H95063   8.784   6.432   0.895  3.1773  0.5280  0.3380
  689MOL0     H95064   8.280   6.400   0.802 -1.8904 -0.4551 -1.1869
  689MOL0     H95065   8.122   6.219   0.835 -0.6796 -3.8455  0.6783
  689MOL0     H95066   8.097   6.186   0.105 -4.5902  1.4054  0.6227
  689MOL0     H95067   7.962   5.972   0.124  2.4651 -0.3269 -1.7276
  689MOL0     H95068   8.014   5.479   0.197  1.8578 -0.7349  0.3329
  689MOL0     H95069   7.955   5.281   0.264 -2.0969  0.3733 -0.1775
  689MOL0     H95070   7.815   5.191   0.675 -0.2708 -0.0811  0.7361
  689MOL0     H95071   7.660   5.230   0.584  0.8596  1.2456  0.2574
  689MOL0     H95072   7.813   4.967   0.548  0.5297 -0.6693  1.4675
  689MOL0     H95073   7.652   5.022   0.484 -0.4206  1.8156  0.2705
  689MOL0     H95074   7.752   4.975   0.767 -2.2054  1.9426  0.9294
  689MOL0     H95075   7.587   5.017   0.740  1.2441  0.5980  0.9470
  689MOL0     H95076   7.578   4.801   0.786  2.3937  1.5060  1.3484
  689MOL0     H95077   7.717   4.749   0.690  0.4384  0.9500 -1.7659
  689MOL0     H95078   7.394   4.756   0.418 -1.2004  0.3937  1.9334
  689MOL0     H95079   7.808   5.438   0.638 -1.6379 -2.1721  0.3856
  689MOL0     H95080   7.830   5.641   0.695  0.3127 -1.5850 -0.4079
  689MOL0     H95081   7.977   5.719   0.624  0.1410 -0.2909  1.4017
  689MOL0     H95082   7.814   5.765   0.567 -1.1558 -0.3471  0.6988
  690MOL0     O95083   5.161  10.593   3.903  0.8821 -0.2618 -0.4282
  690MOL0     C95084   5.266  10.591   3.845 -1.2095  0.8496 -0.8296
  690MOL0     O95085   5.370  10.679   3.873  0.3417  0.4115 -0.3489
  690MOL0     C95086   5.340  10.773   3.968 -0.4414  0.3342 -0.2587
  690MOL0     C95087   5.270  10.893   3.932 -0.6910 -0.4748 -0.7539
  690MOL0     C95088   5.250  10.991   4.023  0.0383 -0.0623 -0.3056
  690MOL0     C95089   5.317  10.982   4.146 -0.0022 -0.4222 -0.0953
  690MOL0     O95090   5.319  11.080   4.243 -0.1184  0.4929  0.3203
  690MOL0     C95091   5.287  11.215   4.202 -0.0544 -0.3944 -0.3356
  690MOL0     C95092   5.154  11.276   4.265  0.9421  0.3997  0.7494
  690MOL0     C95093   5.056  11.161   4.317 -0.3009 -0.2523  0.0516
  690MOL0     C95094   4.951  11.205   4.413  0.3051  0.0602  0.0322
  690MOL0     C95095   4.813  11.217   4.341  0.4434  0.3656 -0.4092
  690MOL0     C95096   4.697  11.218   4.440  0.6724  0.0680  0.6391
  690MOL0     C95097   4.563  11.202   4.363  0.9930 -0.7983 -0.4401
  690MOL0     C95098   4.451  11.129   4.438  0.1379 -0.8264  1.0122
  690MOL0     N95099   4.344  11.102   4.351 -0.6177 -0.3102 -0.2166
  690MOL0     C95100   4.352  10.981   4.293  0.2614  0.0682  0.4092
  690MOL0     C95101   4.236  10.966   4.228 -0.4426  0.7136 -0.6244
  690MOL0     C95102   4.182  10.839   4.171 -0.2197 -0.0981  0.3743
  690MOL0     C95103   4.187  10.855   4.020  0.6010  0.4041  0.5490
  690MOL0     C95104   4.305  10.811   3.932 -0.5092 -0.1678  0.6551
  690MOL0     C95105   4.437  10.874   3.978  0.6036 -0.5462  0.3062
  690MOL0     O95106   4.430  11.017   3.971 -0.9081 -0.7259  0.2421
  690MOL0     C95107   4.539  11.100   3.944 -0.4161 -0.5509 -0.5356
  690MOL0     C95108   4.513  11.239   3.945  1.1841 -0.8431 -0.5957
  690MOL0     C95109   4.600  11.331   3.900 -0.3157  1.1485 -0.8495
  690MOL0     C95110   4.536  11.464   3.866 -0.0985 -0.4880 -0.2870
  690MOL0     C95111   4.734  11.292   3.878 -0.8178 -0.4148 -0.0989
  690MOL0     C95112   4.842  11.383   3.836  0.0032 -0.9248 -0.6800
  690MOL0     O95113   4.808  11.513   3.830 -0.2438  0.7611 -0.7426
  690MOL0     C95114   4.901  11.614   3.838 -0.1016 -0.0868  0.3792
  690MOL0     C95115   5.006  11.600   3.922  0.3001  0.4761 -0.3696
  690MOL0     C95116   5.101  11.699   3.947 -0.2325 -0.5647 -0.2195
  690MOL0     C95117   5.087  11.824   3.887 -0.5201  0.3297 -0.4192
  690MOL0     O95118   5.186  11.911   3.929 -0.2197 -0.3319  0.4600
  690MOL0     C95119   5.120  12.034   3.972  0.4908  0.2614  0.4230
  690MOL0     C95120   5.161  12.142   3.870  0.3830  0.0521  0.2126
  690MOL0     C95121   5.116  12.283   3.909 -0.2722 -0.0341 -0.1877
  690MOL0     C95122   5.126  12.317   4.059  0.0817  0.9062  0.1422
  690MOL0     C95123   5.275  12.320   4.104 -0.5514  0.3740  0.1814
  690MOL0     C95124   5.310  12.409   4.227 -0.3144  0.5641  0.1090
  690MOL0     C95125   5.462  12.436   4.242 -0.7930  0.5106 -0.6697
  690MOL0     C95126   5.507  12.527   4.368  1.1641 -0.3776  0.0041
  690MOL0    Cl95127   5.481  12.697   4.341 -0.5527 -0.4042  0.6706
  690MOL0     C95128   4.985  11.838   3.791  0.2261  0.4231 -0.0962
  690MOL0     C95129   4.896  11.740   3.766  0.3705  0.5132 -0.0488
  690MOL0     O95130   4.950  11.330   3.796 -0.2852 -0.4735  0.9572
  690MOL0     C95131   4.768  11.157   3.904  0.8966 -1.0597 -0.4120
  690MOL0     C95132   4.671  11.062   3.941 -0.1518 -0.4480  1.4523
  690MOL0     N95133   4.161  11.078   4.247  0.5097  0.4417  0.1009
  690MOL0     N95134   4.227  11.165   4.319 -0.8636 -0.5183  0.3708
  690MOL0     C95135   5.396  10.870   4.170 -0.6064 -0.2511 -0.9229
  690MOL0     C95136   5.404  10.754   4.093  0.5799 -0.4547 -0.2828
  690MOL0     C95137   5.295  10.493   3.731 -0.5959 -0.6410  0.5905
  690MOL0     C95138   5.383  10.538   3.632  0.3803  0.9712  0.7466
  690MOL0     C95139   5.391  10.469   3.508  0.0016  0.1204  0.6209
  690MOL0     C95140   5.311  10.358   3.483 -0.3765  0.4140 -0.1677
  690MOL0     O95141   5.306  10.281   3.363  0.2939  0.2512 -0.5363
  690MOL0     C95142   5.331  10.336   3.233 -0.6360 -0.5485  0.3439
  690MOL0     C95143   5.230  10.430   3.178  0.4435 -0.9752  0.4148
  690MOL0     C95144   5.108  10.352   3.144 -0.4957 -0.7969 -0.0249
  690MOL0     C95145   5.012  10.331   3.260  0.1140  0.1235  0.8511
  690MOL0     C95146   4.971  10.448   3.322 -0.8373 -0.9906  0.1637
  690MOL0     C95147   4.935  10.547   3.374  0.6079 -0.4766  0.6299
  690MOL0     C95148   5.240  10.309   3.589 -0.2506 -0.1274 -0.0173
  690MOL0     C95149   5.221  10.370   3.713 -0.2938 -0.2909  0.5877
  690MOL0     C95150   5.128  10.318   3.820  0.1529  0.3366 -0.3205
  690MOL0     H95151   5.234  10.881   3.830 -1.5845  0.7931 -0.6094
  690MOL0     H95152   5.195  11.076   3.982 -0.3534 -0.3303 -0.3369
  690MOL0     H95153   5.279  11.222   4.093  1.1222  2.3711 -0.3338
  690MOL0     H95154   5.359  11.293   4.227 -1.7583  0.8657  0.9077
  690MOL0     H95155   5.183  11.347   4.343 -4.4702  0.9001  2.7748
  690MOL0     H95156   5.108  11.328   4.181 -2.5604 -0.8495  1.7085
  690MOL0     H95157   5.018  11.112   4.227  1.5909 -2.8375  0.5417
  690MOL0     H95158   5.121  11.094   4.375  0.3694  1.4769  1.3776
  690MOL0     H95159   4.946  11.138   4.500  2.5807 -1.5096 -0.9522
  690MOL0     H95160   4.957  11.304   4.458 -2.7254 -0.1888  1.2581
  690MOL0     H95161   4.810  11.136   4.268  1.6522 -0.5163  0.4818
  690MOL0     H95162   4.812  11.314   4.291  1.3829  1.5157  1.6568
  690MOL0     H95163   4.707  11.147   4.522  0.1046  1.7762  2.2600
  690MOL0     H95164   4.712  11.318   4.483  3.0856 -0.5123  1.2751
  690MOL0     H95165   4.577  11.162   4.262  2.7867  0.2357 -0.6486
  690MOL0     H95166   4.537  11.308   4.352  0.0670 -0.0546  5.6197
  690MOL0     H95167   4.469  11.028   4.477 -2.3359 -1.1538  1.4380
  690MOL0     H95168   4.409  11.194   4.515  0.5502 -0.9192  1.3224
  690MOL0     H95169   4.440  10.917   4.300  0.8704  0.9516  1.0852
  690MOL0     H95170   4.079  10.820   4.200  0.2399  1.3189  3.3466
  690MOL0     H95171   4.254  10.762   4.202  0.4817  0.6042  0.5289
  690MOL0     H95172   4.103  10.797   3.981  1.4429  0.7514 -1.9770
  690MOL0     H95173   4.174  10.959   3.989 -1.4630  0.1858  0.5128
  690MOL0     H95174   4.319  10.702   3.934  1.7469 -0.0504 -2.2385
  690MOL0     H95175   4.295  10.838   3.827  2.9840 -0.5430  0.0984
  690MOL0     H95176   4.471  10.843   4.078  3.3157  0.8524 -0.0915
  690MOL0     H95177   4.521  10.839   3.917  0.3017  0.5026 -0.7360
  690MOL0     H95178   4.408  11.256   3.966  1.3190  1.5495 -1.4599
  690MOL0     H95179   4.565  11.548   3.929 -1.9818  0.4654 -0.6266
  690MOL0     H95180   4.427  11.463   3.878 -0.0435  0.1835  0.3039
  690MOL0     H95181   4.567  11.491   3.764  0.7626 -0.3220  0.0121
  690MOL0     H95182   5.010  11.505   3.976  1.9473  1.1165  0.7000
  690MOL0     H95183   5.172  11.682   4.027  1.2272 -4.1959 -2.0354
  690MOL0     H95184   5.012  12.030   3.987  0.5190  1.5436  1.0704
  690MOL0     H95185   5.163  12.050   4.071  1.8845  0.4029 -0.1865
  690MOL0     H95186   5.270  12.141   3.858  0.3774 -1.6598 -0.0727
  690MOL0     H95187   5.111  12.114   3.776  0.5168  0.4731  0.0173
  690MOL0     H95188   5.014  12.306   3.876 -0.8347 -3.3241 -1.1382
  690MOL0     H95189   5.184  12.345   3.851  1.3307  0.1522  1.7892
  690MOL0     H95190   5.072  12.242   4.118  3.1795 -1.8548 -0.2831
  690MOL0     H95191   5.089  12.418   4.079  2.1680  2.5364 -3.2519
  690MOL0     H95192   5.301  12.216   4.126 -0.7064  0.1679 -0.5481
  690MOL0     H95193   5.337  12.361   4.023 -2.0030  0.4547 -0.9413
  690MOL0     H95194   5.263  12.362   4.313 -1.0080  0.6074 -0.2329
  690MOL0     H95195   5.252  12.500   4.206 -3.2554 -1.0665  0.5395
  690MOL0     H95196   5.501  12.482   4.150 -0.2561  0.1121 -0.6449
  690MOL0     H95197   5.524  12.347   4.249 -2.3068 -0.4760  0.9066
  690MOL0     H95198   5.613  12.517   4.392  1.6217  1.4579 -1.0699
  690MOL0     H95199   5.448  12.497   4.455 -0.3066  0.7732 -0.5476
  690MOL0     H95200   4.977  11.929   3.733 -4.2554  0.7440  0.7133
  690MOL0     H95201   4.814  11.752   3.697  0.6371 -2.4792 -1.0059
  690MOL0     H95202   4.869  11.120   3.886  0.7976 -1.4486 -0.1767
  690MOL0     H95203   4.702  10.962   3.968  0.5381 -0.2749  1.3114
  690MOL0     H95204   5.437  10.870   4.270 -2.8954  0.9076  0.1054
  690MOL0     H95205   5.454  10.658   4.098  0.8140 -0.3793 -0.9915
  690MOL0     H95206   5.438  10.631   3.627  4.5773 -1.3155 -3.5847
  690MOL0     H95207   5.447  10.506   3.423 -1.9767 -0.1619 -0.8775
  690MOL0     H95208   5.429  10.384   3.237 -0.5304 -0.6257 -0.7972
  690MOL0     H95209   5.346  10.250   3.167  1.8497  0.5465 -0.6575
  690MOL0     H95210   5.269  10.483   3.091  0.3522 -0.5483  0.6327
  690MOL0     H95211   5.207  10.514   3.244 -2.9902 -2.1067  0.8793
  690MOL0     H95212   5.064  10.405   3.059 -0.3368 -0.6525 -0.0161
  690MOL0     H95213   5.145  10.256   3.107  2.7911 -0.9948  3.1851
  690MOL0     H95214   5.045  10.264   3.341  0.4223  0.4230  0.9747
  690MOL0     H95215   4.928  10.293   3.200 -0.1732  1.9365  0.0511
  690MOL0     H95216   4.922  10.633   3.437 -1.3886 -0.9432  0.9232
  690MOL0     H95217   5.187  10.216   3.574 -2.3588  0.5935  2.1929
  690MOL0     H95218   5.094  10.216   3.801 -0.4978  0.3646  0.5985
  690MOL0     H95219   5.175  10.307   3.918 -0.1057  1.7929 -0.0158
  690MOL0     H95220   5.039  10.380   3.832 -0.6017 -0.7458 -0.1366
  691MOL0     O95221   9.339   2.556  10.704  0.2482  0.3005 -0.0118
  691MOL0     C95222   9.290   2.642  10.778  0.2501 -0.1876  0.4050
  691MOL0     O95223   9.199   2.741  10.728 -0.6667 -0.1128 -0.7239
  691MOL0     C95224   9.187   2.767  10.589  0.7319  0.6280 -0.4029
  691MOL0     C95225   9.181   2.907  10.559  0.6343  0.9371  0.2698
  691MOL0     C95226   9.142   2.932  10.423 -0.0612 -0.4462 -1.4773
  691MOL0     C95227   9.141   2.831  10.323  0.2429 -0.2960  0.6676
  691MOL0     O95228   9.128   2.869  10.193  0.0521 -0.7996 -0.4585
  691MOL0     C95229   9.089   2.766  10.099 -0.1516 -0.0540  0.1103
  691MOL0     C95230   9.208   2.705  10.026 -0.1861  0.2852 -0.6887
  691MOL0     C95231   9.166   2.588   9.943  0.0264 -0.6192  1.2612
  691MOL0     C95232   9.267   2.563   9.832 -0.2361  0.6546 -0.7742
  691MOL0     C95233   9.215   2.455   9.734  0.5629 -0.0687 -0.1176
  691MOL0     C95234   9.296   2.443   9.614 -0.8229  0.0523 -0.4529
  691MOL0     C95235   9.409   2.336   9.624 -0.0638 -0.1789 -0.0562
  691MOL0     C95236   9.525   2.372   9.531  0.3667  0.2734 -0.4230
  691MOL0     N95237   9.571   2.512   9.547  1.0586  0.3415  0.1601
  691MOL0     C95238   9.637   2.555   9.653  0.2966 -0.7051 -0.3638
  691MOL0     C95239   9.641   2.688   9.654 -0.9350 -0.1601  0.1073
  691MOL0     C95240   9.705   2.767   9.760 -0.6576 -0.5455  0.4266
  691MOL0     C95241   9.847   2.711   9.776 -0.2195  0.7184 -0.1581
  691MOL0     C95242   9.917   2.792   9.888 -0.3169 -0.0222 -0.3832
  691MOL0     C95243  10.057   2.755   9.924  0.0229  0.3638  0.4711
  691MOL0     O95244  10.100   2.834  10.033 -0.1168 -0.2194 -0.8994
  691MOL0     C95245  10.094   2.795  10.163 -1.1817  0.7626 -1.0266
  691MOL0     C95246  10.165   2.869  10.256  1.2097  0.2890 -0.7679
  691MOL0     C95247  10.183   2.841  10.392  0.1099  0.6799  0.9323
  691MOL0     C95248  10.282   2.916  10.474  0.5148  0.2997  0.4615
  691MOL0     C95249  10.111   2.727  10.434 -0.0970  0.0707 -0.0442
  691MOL0     C95250  10.111   2.692  10.574  1.0210  1.1404 -0.1101
  691MOL0     O95251  10.224   2.641  10.624  0.7567 -0.3443 -0.2403
  691MOL0     C95252  10.229   2.575  10.742 -0.0799 -0.4052 -0.1592
  691MOL0     C95253  10.205   2.447  10.751 -0.6711 -0.1916 -0.5529
  691MOL0     C95254  10.192   2.397  10.880  0.8725 -0.0276  0.3754
  691MOL0     C95255  10.171   2.480  10.991 -0.2401  0.4083 -0.1297
  691MOL0     O95256  10.127   2.427  11.116  0.7718 -0.1576 -0.0045
  691MOL0     C95257  10.190   2.490  11.228  0.6338  0.0058 -0.2007
  691MOL0     C95258  10.097   2.560  11.323  0.3876  0.4443  0.7305
  691MOL0     C95259   9.987   2.472  11.391 -0.3417  0.1945 -0.2435
  691MOL0     C95260   9.921   2.531  11.512 -0.0031  0.3789  0.4967
  691MOL0     C95261   9.814   2.442  11.571  0.1905 -0.2398  0.4282
  691MOL0     C95262   9.765   2.489  11.716  0.4201 -0.8460 -0.0490
  691MOL0     C95263   9.659   2.389  11.765 -0.7910 -0.2483 -0.6227
  691MOL0     C95264   9.640   2.405  11.919 -0.8602 -0.5823  0.1597
  691MOL0    Cl95265   9.505   2.306  11.958 -0.3240  0.6799 -0.1466
  691MOL0     C95266  10.208   2.619  10.977  0.1557  0.8798 -0.1362
  691MOL0     C95267  10.248   2.666  10.849  0.2742  0.0031  0.4387
  691MOL0     O95268  10.005   2.693  10.633 -0.2323  0.4876  0.2740
  691MOL0     C95269  10.039   2.646  10.343  0.3247 -0.5353 -0.1608
  691MOL0     C95270  10.031   2.682  10.209 -0.2152 -0.0127 -0.1563
  691MOL0     N95271   9.591   2.719   9.518  0.7760 -0.7834 -0.3375
  691MOL0     N95272   9.561   2.609   9.456  0.7605 -1.6849  0.0015
  691MOL0     C95273   9.167   2.701  10.365  0.1738 -1.5338  0.2996
  691MOL0     C95274   9.180   2.666  10.492 -0.0773 -0.0377  0.2995
  691MOL0     C95275   9.328   2.634  10.923  0.0826  0.0119 -0.0428
  691MOL0     C95276   9.295   2.747  10.998  0.5614 -0.3603 -0.1726
  691MOL0     C95277   9.362   2.762  11.119 -0.2713 -0.1539 -0.7676
  691MOL0     C95278   9.455   2.677  11.170 -0.0941  0.0610  0.2765
  691MOL0     O95279   9.530   2.688  11.285 -0.5600 -0.4333 -1.1708
  691MOL0     C95280   9.479   2.631  11.406  0.0183 -0.0688  0.8817
  691MOL0     C95281   9.327   2.629  11.426  0.3254  0.1460 -0.9730
  691MOL0     C95282   9.254   2.752  11.481  0.4037 -0.2848 -0.7881
  691MOL0     C95283   9.214   2.736  11.625 -0.9161 -0.3449 -0.6588
  691MOL0     C95284   9.335   2.732  11.712 -0.2108  0.2387 -0.7710
  691MOL0     C95285   9.432   2.719  11.790  0.4292 -0.2710  0.4845
  691MOL0     C95286   9.476   2.563  11.097  0.4764 -0.7537 -0.6493
  691MOL0     C95287   9.422   2.536  10.972 -0.6152 -0.3262 -0.1893
  691MOL0     C95288   9.475   2.403  10.912 -1.2698 -0.0595 -0.8964
  691MOL0     H95289   9.184   2.974  10.644  0.2904 -1.4034  2.2184
  691MOL0     H95290   9.127   3.033  10.387  0.6965 -0.1729 -1.0476
  691MOL0     H95291   9.026   2.807  10.019  2.6359  2.4370 -0.9991
  691MOL0     H95292   9.020   2.692  10.140 -3.1904 -0.0283 -4.1943
  691MOL0     H95293   9.269   2.785   9.983 -2.5513  2.5596  0.0002
  691MOL0     H95294   9.266   2.646  10.098  0.4016 -2.6602 -3.3431
  691MOL0     H95295   9.141   2.499  10.001  0.5917 -1.0734  0.8177
  691MOL0     H95296   9.077   2.620   9.889  1.3784  0.7439 -0.3208
  691MOL0     H95297   9.274   2.660   9.782  2.5548  1.0226  0.1288
  691MOL0     H95298   9.366   2.528   9.862 -0.3566  0.6944 -0.3286
  691MOL0     H95299   9.116   2.484   9.698 -1.2004 -3.7760  1.1828
  691MOL0     H95300   9.193   2.358   9.781 -2.3741 -0.0012 -1.1510
  691MOL0     H95301   9.241   2.421   9.523  3.7131  3.0147 -4.4000
  691MOL0     H95302   9.346   2.538   9.589 -1.6802  0.4309 -0.7576
  691MOL0     H95303   9.373   2.242   9.582  0.7943  0.0279 -1.2936
  691MOL0     H95304   9.426   2.325   9.731 -2.7496  0.4741  0.5355
  691MOL0     H95305   9.609   2.303   9.533 -0.2430 -0.4745  0.0096
  691MOL0     H95306   9.490   2.354   9.429 -0.3286  1.5324 -0.4361
  691MOL0     H95307   9.677   2.490   9.730  2.4033  1.7482  0.7506
  691MOL0     H95308   9.643   2.750   9.849 -1.1110 -1.2135 -0.0025
  691MOL0     H95309   9.703   2.872   9.730  2.5218 -0.8984 -1.5018
  691MOL0     H95310   9.847   2.613   9.824 -1.9370  1.2192  0.9291
  691MOL0     H95311   9.904   2.728   9.683 -0.3971  0.8074 -0.2496
  691MOL0     H95312   9.917   2.898   9.865  3.9441 -0.7466 -5.9114
  691MOL0     H95313   9.851   2.781   9.974 -0.3930 -0.6145 -0.5079
  691MOL0     H95314  10.074   2.650   9.950  0.1246  0.0995 -0.6243
  691MOL0     H95315  10.118   2.774   9.835 -0.2777 -0.7819  0.0062
  691MOL0     H95316  10.228   2.945  10.211  1.2187  0.7213 -0.0428
  691MOL0     H95317  10.304   3.008  10.419 -7.8892  3.7342  1.2548
  691MOL0     H95318  10.374   2.859  10.483  1.6388  1.8877 -0.5098
  691MOL0     H95319  10.241   2.949  10.571  1.1428  4.5010 -0.5043
  691MOL0     H95320  10.192   2.379  10.667  1.9044 -1.3353 -0.1262
  691MOL0     H95321  10.172   2.291  10.889  2.1258 -0.1550  2.0465
  691MOL0     H95322  10.234   2.406  11.283  0.5867 -0.2752 -0.5844
  691MOL0     H95323  10.273   2.555  11.200  1.0631 -0.5937 -0.3328
  691MOL0     H95324  10.158   2.609  11.400 -0.6715 -3.1433  4.1555
  691MOL0     H95325  10.038   2.636  11.271 -2.8339 -2.8625 -0.8570
  691MOL0     H95326  10.035   2.377  11.416 -4.5319 -1.8824  0.8942
  691MOL0     H95327   9.907   2.456  11.317  0.3251  2.4585 -1.5432
  691MOL0     H95328   9.883   2.627  11.477  0.3956 -0.0050 -1.0472
  691MOL0     H95329  10.004   2.553  11.579  0.9820  3.6587 -1.5775
  691MOL0     H95330   9.726   2.449  11.506 -0.7773  1.2108  1.7878
  691MOL0     H95331   9.846   2.338  11.567  0.8023 -0.1166  1.7228
  691MOL0     H95332   9.720   2.587  11.730  3.6293  1.0537 -1.7847
  691MOL0     H95333   9.851   2.479  11.784 -1.3772 -1.9740  2.1842
  691MOL0     H95334   9.697   2.288  11.752 -2.6569 -1.0745  0.0598
  691MOL0     H95335   9.560   2.404  11.721 -0.4932 -2.0305 -2.0377
  691MOL0     H95336   9.605   2.508  11.929 -2.8321 -1.3158  1.4291
  691MOL0     H95337   9.722   2.385  11.988 -1.2362 -2.0917  0.2051
  691MOL0     H95338  10.200   2.687  11.061  1.6705  3.0391 -1.6169
  691MOL0     H95339  10.285   2.768  10.845 -0.1638  0.4495  4.2875
  691MOL0     H95340   9.982   2.559  10.374 -0.4634 -0.5586 -1.6179
  691MOL0     H95341   9.960   2.635  10.141  2.2806 -1.9702 -1.6121
  691MOL0     H95342   9.170   2.622  10.290 -0.2338  0.7115 -2.2329
  691MOL0     H95343   9.193   2.562  10.519 -0.4790 -1.0100 -2.8770
  691MOL0     H95344   9.220   2.820  10.967 -0.4465 -2.0553 -1.9735
  691MOL0     H95345   9.346   2.856  11.171  0.2440  0.3176 -1.4398
  691MOL0     H95346   9.513   2.527  11.415 -1.6637 -0.4799  3.8237
  691MOL0     H95347   9.529   2.687  11.486  0.7270 -1.1731  1.2242
  691MOL0     H95348   9.322   2.550  11.502 -1.0130  1.3027  0.1809
  691MOL0     H95349   9.276   2.595  11.335  2.1037  0.8934 -2.3067
  691MOL0     H95350   9.332   2.830  11.486  2.0238 -1.8969  2.4059
  691MOL0     H95351   9.173   2.791  11.420  0.2005  1.4435  0.5074
  691MOL0     H95352   9.164   2.642  11.649 -0.5667 -0.4198 -0.2035
  691MOL0     H95353   9.151   2.820  11.654  1.7330  2.4413 -2.3906
  691MOL0     H95354   9.498   2.704  11.873  0.5342  1.4247  0.7414
  691MOL0     H95355   9.546   2.488  11.131  1.1499 -0.2317 -0.8514
  691MOL0     H95356   9.572   2.395  10.861 -0.8990  1.3536 -0.4443
  691MOL0     H95357   9.465   2.320  10.982 -2.8079  0.1278 -0.8595
  691MOL0     H95358   9.406   2.378  10.831 -2.9117  0.6159  0.2584
  692MOL0     O95359   7.792   6.540   2.558  0.2074 -0.0376  0.2500
  692MOL0     C95360   7.744   6.547   2.445 -0.2005  0.0368  0.5031
  692MOL0     O95361   7.695   6.450   2.367 -0.0744  0.7047 -0.0175
  692MOL0     C95362   7.698   6.326   2.424 -0.3861 -0.1065 -0.0408
  692MOL0     C95363   7.789   6.231   2.377  0.2490  0.1031 -0.3339
  692MOL0     C95364   7.788   6.098   2.417  0.3782 -0.3091  0.3363
  692MOL0     C95365   7.676   6.057   2.494 -0.0892  0.0543  0.0300
  692MOL0     O95366   7.682   5.928   2.532  1.5011  0.2067 -0.4181
  692MOL0     C95367   7.670   5.908   2.671 -0.2902 -0.8004 -1.2369
  692MOL0     C95368   7.748   5.787   2.700 -0.0605 -0.2794  0.0556
  692MOL0     C95369   7.688   5.667   2.621 -0.1571 -0.0685  0.2935
  692MOL0     C95370   7.572   5.579   2.686  0.6029  0.1258  0.5835
  692MOL0     C95371   7.547   5.431   2.641 -0.3817 -0.4865  0.2503
  692MOL0     C95372   7.439   5.373   2.720  0.2550 -0.5526 -0.3743
  692MOL0     C95373   7.379   5.235   2.684  0.2782  0.7106 -0.1216
  692MOL0     C95374   7.484   5.127   2.724  2.1532 -0.6462  0.7486
  692MOL0     N95375   7.544   5.143   2.853 -0.0337  0.9300  0.7880
  692MOL0     C95376   7.487   5.105   2.977  0.2344  0.7292  0.6180
  692MOL0     C95377   7.581   5.116   3.071 -0.9978 -0.0828  0.9910
  692MOL0     C95378   7.575   5.087   3.216 -0.3958  0.4829  1.0406
  692MOL0     C95379   7.655   5.186   3.312 -0.6039  0.4184 -0.7207
  692MOL0     C95380   7.624   5.158   3.460 -0.3226 -0.4494 -0.2690
  692MOL0     C95381   7.708   5.261   3.545  0.8082  0.7816 -0.1582
  692MOL0     O95382   7.736   5.222   3.681 -0.7233  0.3548  0.5090
  692MOL0     C95383   7.834   5.299   3.736  0.8006 -0.7657 -0.3121
  692MOL0     C95384   7.868   5.429   3.697 -0.2364 -1.0875  0.4153
  692MOL0     C95385   7.976   5.497   3.760 -1.0045  1.4713  0.2317
  692MOL0     C95386   8.017   5.626   3.698  0.3125  0.6189  0.3035
  692MOL0     C95387   8.048   5.433   3.867  0.0859  0.5619  0.3360
  692MOL0     C95388   8.158   5.496   3.940  0.3608 -0.1158 -0.7115
  692MOL0     O95389   8.275   5.435   3.931 -0.1459 -0.1958 -0.1284
  692MOL0     C95390   8.381   5.500   3.998  0.7854  0.6621 -0.1318
  692MOL0     C95391   8.454   5.598   3.942  0.6587 -0.6985 -0.2069
  692MOL0     C95392   8.566   5.635   4.004 -0.2046  0.7785 -0.1033
  692MOL0     C95393   8.607   5.569   4.119 -0.2072 -0.8712 -0.4592
  692MOL0     O95394   8.731   5.614   4.163 -0.9207  0.0123  0.1665
  692MOL0     C95395   8.733   5.667   4.299  0.0742  0.8004  0.6245
  692MOL0     C95396   8.846   5.768   4.316  0.2576  0.3464 -0.0867
  692MOL0     C95397   8.855   5.814   4.463 -0.1809 -0.2515 -0.5801
  692MOL0     C95398   8.966   5.929   4.481  0.7477  0.9360  0.0215
  692MOL0     C95399   8.932   6.012   4.601  0.9175  0.3454  0.6357
  692MOL0     C95400   8.936   5.930   4.724  0.1001  0.3210 -0.0270
  692MOL0     C95401   8.915   6.014   4.853  0.2792 -0.0738 -1.0629
  692MOL0     C95402   8.778   6.083   4.871 -0.8432 -0.1119 -0.1280
  692MOL0    Cl95403   8.644   5.961   4.883 -0.4528 -0.1639  0.5047
  692MOL0     C95404   8.531   5.476   4.184 -0.1829  0.1186 -0.2857
  692MOL0     C95405   8.413   5.438   4.119  0.9652 -0.3488  0.0016
  692MOL0     O95406   8.133   5.591   4.017 -0.1131 -0.1516  0.8103
  692MOL0     C95407   8.000   5.311   3.907 -0.5611  0.3796  0.2686
  692MOL0     C95408   7.896   5.247   3.847  0.3936 -0.4695  0.0390
  692MOL0     N95409   7.693   5.170   3.002  0.5421 -0.2933  0.0827
  692MOL0     N95410   7.672   5.178   2.882  0.1315 -0.6699 -0.6401
  692MOL0     C95411   7.580   6.147   2.538 -0.4808  0.4624 -0.5093
  692MOL0     C95412   7.595   6.288   2.510 -1.0015 -0.0506  0.4886
  692MOL0     C95413   7.736   6.690   2.389  0.6417 -0.0772 -0.2034
  692MOL0     C95414   7.609   6.739   2.349 -0.0263  0.3153 -0.2671
  692MOL0     C95415   7.597   6.862   2.277  0.1656 -0.5547  0.8941
  692MOL0     C95416   7.706   6.952   2.261 -0.1136  0.2881  0.0410
  692MOL0     O95417   7.674   7.060   2.187  0.2898  0.0690 -0.1140
  692MOL0     C95418   7.778   7.144   2.137  0.4432 -0.6692 -0.7342
  692MOL0     C95419   7.717   7.283   2.146  0.5818 -0.4830  0.6232
  692MOL0     C95420   7.746   7.337   2.288 -0.8276  0.1463 -0.3009
  692MOL0     C95421   7.884   7.407   2.308 -0.3327 -0.1586 -0.3690
  692MOL0     C95422   7.889   7.438   2.446 -0.5488  0.2784 -1.1088
  692MOL0     C95423   7.891   7.455   2.569 -0.7186  0.1383  0.4806
  692MOL0     C95424   7.828   6.908   2.318 -0.9563 -0.5419  0.5330
  692MOL0     C95425   7.846   6.778   2.374 -0.5891 -0.2061 -0.2089
  692MOL0     C95426   7.988   6.728   2.427  0.4781  0.1636  0.0844
  692MOL0     H95427   7.863   6.257   2.302  0.9023  1.2437  0.6726
  692MOL0     H95428   7.856   6.024   2.378  1.0863 -1.4014  3.3370
  692MOL0     H95429   7.565   5.888   2.695 -1.2411  2.0302 -2.5751
  692MOL0     H95430   7.706   5.985   2.740  1.4347 -0.0546 -2.8922
  692MOL0     H95431   7.856   5.794   2.684  0.7657 -1.5606  3.9180
  692MOL0     H95432   7.741   5.775   2.809  0.4789  1.0093  0.2548
  692MOL0     H95433   7.647   5.694   2.524 -1.1073 -1.5959  0.2368
  692MOL0     H95434   7.767   5.594   2.603 -0.6589  0.2654 -4.4565
  692MOL0     H95435   7.590   5.579   2.794 -0.0504  0.8525  0.7074
  692MOL0     H95436   7.474   5.628   2.681 -0.2406 -1.0854  3.2678
  692MOL0     H95437   7.637   5.375   2.668  0.3153  0.7032  0.4802
  692MOL0     H95438   7.525   5.421   2.534 -3.8637 -0.8317  0.8805
  692MOL0     H95439   7.466   5.368   2.826 -2.9670 -2.5557  0.5086
  692MOL0     H95440   7.355   5.442   2.716 -0.2354 -1.1749 -1.4765
  692MOL0     H95441   7.359   5.217   2.578  1.2020 -2.9397  0.1664
  692MOL0     H95442   7.284   5.222   2.736 -0.4221 -1.9501 -1.8349
  692MOL0     H95443   7.439   5.028   2.709 -0.0079  0.2879  0.7099
  692MOL0     H95444   7.565   5.124   2.650 -0.5079 -1.9547 -2.3433
  692MOL0     H95445   7.383   5.081   3.000  0.1837 -0.6428 -0.8995
  692MOL0     H95446   7.619   4.987   3.218 -2.7408 -0.7371 -1.3505
  692MOL0     H95447   7.471   5.070   3.245  0.3261 -0.8405  3.0872
  692MOL0     H95448   7.761   5.180   3.283  0.1800 -3.4250  2.1149
  692MOL0     H95449   7.614   5.285   3.292 -1.6955 -0.3179 -2.4108
  692MOL0     H95450   7.517   5.170   3.473 -0.1200  2.3326 -0.6502
  692MOL0     H95451   7.654   5.058   3.495 -1.2588 -0.7215 -0.2363
  692MOL0     H95452   7.802   5.275   3.492 -0.1710  0.7814 -1.9544
  692MOL0     H95453   7.653   5.355   3.541 -3.0238 -1.2914 -1.3528
  692MOL0     H95454   7.804   5.485   3.629  1.8443  1.8756  0.6985
  692MOL0     H95455   8.114   5.663   3.731  0.2205  3.1280 -1.8804
  692MOL0     H95456   7.939   5.700   3.717 -1.3259 -0.8016 -0.5204
  692MOL0     H95457   8.032   5.610   3.590 -3.5043 -2.0928 -0.0317
  692MOL0     H95458   8.432   5.655   3.853  0.6295  1.3018  1.0104
  692MOL0     H95459   8.625   5.711   3.954  0.3774 -0.4196 -1.3311
  692MOL0     H95460   8.638   5.707   4.335  0.7660  1.1446  2.1243
  692MOL0     H95461   8.755   5.584   4.366 -1.4923  1.2868  1.7806
  692MOL0     H95462   8.940   5.724   4.283  0.2747  1.1422 -1.1661
  692MOL0     H95463   8.822   5.849   4.246 -1.2678  3.9685  4.1325
  692MOL0     H95464   8.874   5.728   4.528 -1.3604 -1.2767 -1.5478
  692MOL0     H95465   8.756   5.854   4.488 -1.1096 -2.9469  0.4237
  692MOL0     H95466   8.958   5.979   4.384  0.5407 -0.4289 -0.7066
  692MOL0     H95467   9.070   5.897   4.483  0.7772  1.0397  0.1604
  692MOL0     H95468   8.991   6.104   4.608 -0.8631  1.4658  2.0021
  692MOL0     H95469   8.833   6.058   4.591  0.9574  0.7356  1.8698
  692MOL0     H95470   9.038   5.892   4.735  0.8840  2.3478  0.1491
  692MOL0     H95471   8.862   5.850   4.734  2.5510 -2.3983 -1.8481
  692MOL0     H95472   8.998   6.082   4.874 -0.2934 -0.1805  1.9964
  692MOL0     H95473   8.925   5.940   4.933  0.8211  2.1265  1.0435
  692MOL0     H95474   8.758   6.161   4.797  1.0855  1.6240  1.0554
  692MOL0     H95475   8.769   6.127   4.971  0.6627  0.1521 -0.0785
  692MOL0     H95476   8.573   5.431   4.273 -0.8643 -0.4019 -0.2156
  692MOL0     H95477   8.349   5.355   4.147 -0.8287  0.1191 -2.3749
  692MOL0     H95478   8.031   5.259   3.997 -2.7216 -1.6662 -0.0646
  692MOL0     H95479   7.854   5.155   3.885 -1.2429  1.1067  2.3749
  692MOL0     H95480   7.504   6.100   2.601  1.5901 -2.7252 -0.1410
  692MOL0     H95481   7.527   6.368   2.534  0.8962  1.0655  2.4498
  692MOL0     H95482   7.518   6.683   2.367 -0.7520  1.2178 -1.0070
  692MOL0     H95483   7.505   6.899   2.234  0.4145 -1.2986 -0.3379
  692MOL0     H95484   7.872   7.137   2.191 -0.3327 -1.0606  0.6042
  692MOL0     H95485   7.800   7.120   2.032  2.1766  0.2704 -0.6112
  692MOL0     H95486   7.608   7.284   2.136  0.4464  2.2450  1.6458
  692MOL0     H95487   7.762   7.350   2.072  0.6621 -1.8770 -0.6351
  692MOL0     H95488   7.667   7.405   2.321 -2.2154 -2.9662  3.6332
  692MOL0     H95489   7.728   7.253   2.355 -1.2110  1.5431  1.4197
  692MOL0     H95490   7.879   7.502   2.254  0.0265  0.9245  1.4169
  692MOL0     H95491   7.972   7.346   2.286  0.4943  0.9893 -0.3106
  692MOL0     H95492   7.913   7.473   2.672 -4.7195 -1.1684  1.7535
  692MOL0     H95493   7.917   6.967   2.300 -2.0616  0.2096 -3.5835
  692MOL0     H95494   7.990   6.714   2.535  4.2860 -0.6556  0.0173
  692MOL0     H95495   8.011   6.635   2.374 -2.0854 -0.3802 -0.2078
  692MOL0     H95496   8.068   6.795   2.394  2.1523 -1.4841  0.6644
  693MOL0     O95497   2.476   1.430  10.171  0.8050  0.3774 -0.0655
  693MOL0     C95498   2.451   1.409  10.055 -0.0848  0.1616  0.9324
  693MOL0     O95499   2.445   1.286   9.995 -0.8577  0.7559 -0.4148
  693MOL0     C95500   2.489   1.179  10.073 -0.3466 -0.0354  0.7199
  693MOL0     C95501   2.411   1.142  10.174 -0.2246  0.4456 -0.2344
  693MOL0     C95502   2.449   1.035  10.250 -0.3093  1.1435  0.1518
  693MOL0     C95503   2.551   0.953  10.224 -0.0599 -0.0552 -0.5345
  693MOL0     O95504   2.580   0.855  10.314  0.0668 -0.2195  0.0587
  693MOL0     C95505   2.647   0.732  10.270  0.8217  0.7238  1.3283
  693MOL0     C95506   2.549   0.635  10.198  0.5436 -0.4966 -0.0949
  693MOL0     C95507   2.460   0.579  10.312 -0.0995 -0.3060  0.5480
  693MOL0     C95508   2.348   0.501  10.251  0.5171 -0.3842 -0.7709
  693MOL0     C95509   2.248   0.442  10.340  0.6317 -1.1438  0.2212
  693MOL0     C95510   2.197   0.303  10.298 -0.3539 -0.7463  0.0761
  693MOL0     C95511   2.097   0.231  10.385 -0.2651 -0.7104  0.1147
  693MOL0     C95512   1.955   0.285  10.369 -0.2768  0.2566 -0.9783
  693MOL0     N95513   1.936   0.428  10.401 -0.2375  0.0961 -0.2269
  693MOL0     C95514   1.914   0.523  10.308 -0.9304  0.1389 -0.2472
  693MOL0     C95515   1.921   0.635  10.382  0.1135 -0.0729 -0.3713
  693MOL0     C95516   1.936   0.773  10.327 -0.4554 -0.1149 -0.0027
  693MOL0     C95517   2.086   0.809  10.285  0.1816  0.2406  0.4544
  693MOL0     C95518   2.113   0.826  10.126  0.9392  0.4727  0.5918
  693MOL0     C95519   2.059   0.958  10.067  0.6855  0.3919  0.2111
  693MOL0     O95520   2.106   0.970   9.930 -0.0375  0.3241  0.1779
  693MOL0     C95521   2.065   1.077   9.852  0.5135  0.0434 -0.4724
  693MOL0     C95522   2.094   1.061   9.715 -0.4983  0.5479  0.3665
  693MOL0     C95523   2.063   1.157   9.621  1.2571 -0.6571  0.2848
  693MOL0     C95524   2.089   1.136   9.477  0.6205  0.5811  0.3326
  693MOL0     C95525   1.998   1.270   9.674  0.7692 -0.1519  0.5451
  693MOL0     C95526   1.974   1.395   9.596  0.6193  0.4892 -0.1405
  693MOL0     O95527   1.851   1.446   9.609 -0.8654 -0.0857  0.3739
  693MOL0     C95528   1.834   1.570   9.550  1.0719 -0.4451 -0.3641
  693MOL0     C95529   1.864   1.598   9.417  0.4221 -0.4437  0.9993
  693MOL0     C95530   1.834   1.725   9.360  0.4936  0.5376  0.0776
  693MOL0     C95531   1.770   1.820   9.443 -0.0787  0.1283  0.7912
  693MOL0     O95532   1.755   1.942   9.383 -0.4157 -0.1344  1.1760
  693MOL0     C95533   1.644   2.029   9.426 -0.2434  1.0487 -0.9411
  693MOL0     C95534   1.628   2.148   9.325 -0.2841  0.9503 -0.3548
  693MOL0     C95535   1.490   2.210   9.362  0.3669  0.0717 -0.5581
  693MOL0     C95536   1.468   2.339   9.277  0.0796  1.0835 -0.3631
  693MOL0     C95537   1.343   2.417   9.312  0.6261  0.6703 -0.0949
  693MOL0     C95538   1.304   2.521   9.207 -0.5930 -0.3192  0.8032
  693MOL0     C95539   1.202   2.619   9.258  0.4924 -0.3078  0.2638
  693MOL0     C95540   1.138   2.709   9.150  0.0129  0.4988  0.3648
  693MOL0    Cl95541   1.271   2.787   9.054 -0.1722  0.5738  0.4393
  693MOL0     C95542   1.733   1.779   9.577 -1.4099  0.6391 -0.2477
  693MOL0     C95543   1.780   1.662   9.643  0.2157 -0.3624  1.0193
  693MOL0     O95544   2.065   1.439   9.525 -0.4170 -0.0705  0.3110
  693MOL0     C95545   1.963   1.288   9.808  0.5167 -0.3965 -0.0684
  693MOL0     C95546   1.996   1.189   9.896  0.1669 -0.1674  0.3804
  693MOL0     N95547   1.949   0.600  10.512 -0.9845 -0.1486 -0.2821
  693MOL0     N95548   1.957   0.478  10.525  0.1834 -0.3246 -0.4171
  693MOL0     C95549   2.629   0.978  10.111 -0.3940 -0.1048 -0.2822
  693MOL0     C95550   2.601   1.096  10.040  0.4067 -0.1070 -0.5845
  693MOL0     C95551   2.391   1.527   9.976 -0.7526 -0.3624 -0.8035
  693MOL0     C95552   2.301   1.487   9.878  0.5808  0.5454  0.6105
  693MOL0     C95553   2.231   1.589   9.811 -0.1637 -0.7970  0.0849
  693MOL0     C95554   2.265   1.722   9.816 -0.1342 -0.1346 -0.9661
  693MOL0     O95555   2.185   1.824   9.764  0.2769 -0.1980  0.0112
  693MOL0     C95556   2.106   1.798   9.639 -0.5175  0.5779 -0.4273
  693MOL0     C95557   2.169   1.868   9.512  1.2310  0.0515  0.5361
  693MOL0     C95558   2.311   1.807   9.495 -0.8405  0.1220 -0.0227
  693MOL0     C95559   2.429   1.887   9.546  0.2236  0.3527 -0.1052
  693MOL0     C95560   2.440   2.008   9.463 -0.3370 -0.2987 -0.1421
  693MOL0     C95561   2.453   2.112   9.397 -0.1490  0.5704  0.4800
  693MOL0     C95562   2.364   1.754   9.908 -0.1253 -0.5401 -0.7971
  693MOL0     C95563   2.428   1.664   9.989 -0.4665 -0.7228  0.0871
  693MOL0     C95564   2.535   1.708  10.080 -0.1214  0.5601 -1.0006
  693MOL0     H95565   2.327   1.205  10.203 -2.1484 -1.3378 -1.6577
  693MOL0     H95566   2.396   1.012  10.342  1.0325  1.9707  1.1734
  693MOL0     H95567   2.677   0.677  10.361  0.8415 -2.3621 -0.3947
  693MOL0     H95568   2.737   0.756  10.212 -0.0912 -1.0399 -0.9908
  693MOL0     H95569   2.491   0.686  10.121 -1.3223  1.2581  2.3004
  693MOL0     H95570   2.622   0.565  10.157  0.3760  0.1324 -1.5055
  693MOL0     H95571   2.515   0.511  10.377  0.0162  0.0689  0.8444
  693MOL0     H95572   2.433   0.661  10.379  1.4648 -0.6301  1.6017
  693MOL0     H95573   2.305   0.571  10.179  3.2900  2.1955 -0.0929
  693MOL0     H95574   2.405   0.421  10.202  0.9101 -1.4452  1.3040
  693MOL0     H95575   2.165   0.512  10.355  1.2629 -0.5354  0.8824
  693MOL0     H95576   2.303   0.422  10.432  1.8072 -0.1224 -0.2333
  693MOL0     H95577   2.164   0.316  10.195 -0.0718 -1.5480 -0.1206
  693MOL0     H95578   2.284   0.237  10.301  1.4376  1.5057  0.2616
  693MOL0     H95579   2.123   0.227  10.492 -2.9236  0.8310  0.8981
  693MOL0     H95580   2.093   0.129  10.347  0.5924 -0.7330  0.0605
  693MOL0     H95581   1.930   0.264  10.265  0.0789 -2.4306 -0.5881
  693MOL0     H95582   1.887   0.221  10.426 -0.4148  1.8605  0.7683
  693MOL0     H95583   1.899   0.515  10.201 -0.2789  1.4928 -0.4482
  693MOL0     H95584   1.885   0.848  10.389 -1.6563  0.8032 -1.9788
  693MOL0     H95585   1.883   0.776  10.232  1.2844 -1.5027 -1.0732
  693MOL0     H95586   2.119   0.900  10.338 -3.2051  1.1011  1.3118
  693MOL0     H95587   2.145   0.722  10.317  2.1245  0.8849 -1.1579
  693MOL0     H95588   2.215   0.809  10.093  1.9694  3.4186  1.8283
  693MOL0     H95589   2.063   0.740  10.080  0.0344  1.0442  0.4706
  693MOL0     H95590   1.950   0.952  10.069  0.7535 -1.3723 -0.0518
  693MOL0     H95591   2.094   1.050  10.115  3.9729  0.2840 -1.6638
  693MOL0     H95592   2.139   0.963   9.701 -5.0118 -1.9191  1.1728
  693MOL0     H95593   2.047   1.041   9.442 -0.1043  0.7136  0.8251
  693MOL0     H95594   2.190   1.149   9.437 -0.5287  0.0379 -3.0688
  693MOL0     H95595   2.038   1.212   9.416  0.0888 -0.1364 -0.1288
  693MOL0     H95596   1.914   1.535   9.344  1.2326  2.7079 -1.4013
  693MOL0     H95597   1.872   1.753   9.262  2.0819 -1.3233  0.0929
  693MOL0     H95598   1.552   1.970   9.440  0.0228  0.5151 -1.4157
  693MOL0     H95599   1.664   2.055   9.530 -0.5759  1.8675 -1.0769
  693MOL0     H95600   1.721   2.205   9.322  2.7168 -3.4344 -1.1801
  693MOL0     H95601   1.620   2.092   9.231  0.9666 -1.8545  1.0715
  693MOL0     H95602   1.489   2.240   9.467 -1.9046 -1.6982 -0.0029
  693MOL0     H95603   1.409   2.139   9.343 -0.4127  0.8123 -0.0595
  693MOL0     H95604   1.466   2.296   9.177  0.4881 -2.7694  1.1435
  693MOL0     H95605   1.564   2.392   9.285  1.2946 -0.5833 -2.6869
  693MOL0     H95606   1.259   2.350   9.331 -0.9875  1.8455 -2.5141
  693MOL0     H95607   1.351   2.468   9.408  1.7410  0.8883 -0.2897
  693MOL0     H95608   1.257   2.455   9.133  0.2348  0.3463 -0.3436
  693MOL0     H95609   1.394   2.570   9.169 -0.4212 -0.5956  0.8481
  693MOL0     H95610   1.242   2.687   9.333 -3.2833  3.0913 -0.4169
  693MOL0     H95611   1.120   2.558   9.296 -1.6954  0.0022 -3.4144
  693MOL0     H95612   1.085   2.777   9.217  1.4175  0.1020  1.9474
  693MOL0     H95613   1.060   2.664   9.088 -0.1611  0.8418  0.3320
  693MOL0     H95614   1.678   1.848   9.641  0.7288  2.2737 -0.0393
  693MOL0     H95615   1.754   1.635   9.745 -0.8593 -1.1320  0.5576
  693MOL0     H95616   1.922   1.378   9.854 -0.2202 -0.6965 -0.1181
  693MOL0     H95617   1.964   1.203   9.998 -0.3064  1.1186  0.0817
  693MOL0     H95618   2.713   0.923  10.069 -0.3547 -1.4701  1.4311
  693MOL0     H95619   2.670   1.128   9.963  0.7747  0.5863  0.0169
  693MOL0     H95620   2.270   1.384   9.864 -0.1553  1.2190 -4.8526
  693MOL0     H95621   2.137   1.554   9.770 -1.1100  1.7957 -0.2037
  693MOL0     H95622   2.102   1.693   9.609 -1.1438  0.8769 -1.4608
  693MOL0     H95623   2.002   1.832   9.644 -0.7284  0.0541 -1.0896
  693MOL0     H95624   2.180   1.976   9.519  1.0766  0.4087 -3.0043
  693MOL0     H95625   2.097   1.849   9.432  0.0112  2.1451  1.0928
  693MOL0     H95626   2.313   1.713   9.552  1.0234  1.8329  2.9926
  693MOL0     H95627   2.332   1.781   9.391  1.8898 -0.5470  0.6010
  693MOL0     H95628   2.524   1.834   9.556  0.8973  0.7168 -3.3548
  693MOL0     H95629   2.408   1.928   9.645  4.1724  3.3443 -0.2780
  693MOL0     H95630   2.457   2.212   9.361  0.4961  1.6086  3.1710
  693MOL0     H95631   2.394   1.859   9.909 -1.4223 -0.1483 -0.9107
  693MOL0     H95632   2.631   1.663  10.055  0.2583 -0.2576  1.6257
  693MOL0     H95633   2.555   1.815  10.094  2.6317 -0.1141  0.9924
  693MOL0     H95634   2.519   1.678  10.184  0.2004  2.9124 -0.2056
  694MOL0     O95635   6.676   2.357   4.387  0.2450 -0.1853 -0.3670
  694MOL0     C95636   6.630   2.463   4.434  0.4607  1.0815 -0.4437
  694MOL0     O95637   6.503   2.486   4.485 -0.5781 -0.4532  0.4752
  694MOL0     C95638   6.424   2.389   4.540 -1.0026  0.6678 -0.2796
  694MOL0     C95639   6.373   2.402   4.668  0.0420 -0.1523  0.4170
  694MOL0     C95640   6.286   2.305   4.722  0.4389 -0.2029 -0.5808
  694MOL0     C95641   6.239   2.204   4.640 -0.3951  0.1672  0.1829
  694MOL0     O95642   6.138   2.110   4.681  0.0504  0.3785  0.0261
  694MOL0     C95643   6.070   2.122   4.803  0.1730 -0.7413 -1.1497
  694MOL0     C95644   5.939   2.052   4.803 -0.0288  0.3312 -0.6773
  694MOL0     C95645   5.897   1.980   4.929 -0.7015 -0.9367  0.0989
  694MOL0     C95646   5.758   1.920   4.902 -0.8618 -0.2280 -0.2103
  694MOL0     C95647   5.691   1.895   5.039  0.6311 -1.1543  0.1645
  694MOL0     C95648   5.541   1.859   5.022 -0.7640 -0.2772 -0.4852
  694MOL0     C95649   5.476   1.839   5.153  0.3055  0.1324  0.8236
  694MOL0     C95650   5.322   1.805   5.140  0.6565  0.4509 -0.2630
  694MOL0     N95651   5.254   1.832   5.260  0.5040  0.3246 -0.0383
  694MOL0     C95652   5.274   1.944   5.344 -0.8327  0.5783 -0.0834
  694MOL0     C95653   5.234   1.904   5.459 -0.2952  0.3542  0.2332
  694MOL0     C95654   5.222   1.997   5.576  0.2408  0.4049  0.0235
  694MOL0     C95655   5.104   1.940   5.681 -0.3723 -0.5079 -0.2322
  694MOL0     C95656   5.059   2.045   5.778 -0.2118 -0.6073 -0.7007
  694MOL0     C95657   4.941   2.010   5.876 -0.8939  0.3866 -0.5558
  694MOL0     O95658   5.003   1.896   5.951  0.0111 -0.0733  0.1202
  694MOL0     C95659   4.910   1.831   6.034  0.1885  0.8939 -0.1847
  694MOL0     C95660   4.839   1.714   5.994  0.0370  0.3183 -0.2018
  694MOL0     C95661   4.732   1.667   6.064  0.7175 -0.4029 -0.8133
  694MOL0     C95662   4.669   1.540   6.014  0.1862  0.5279  0.1776
  694MOL0     C95663   4.695   1.729   6.182  0.0693 -0.6258 -0.4916
  694MOL0     C95664   4.595   1.696   6.280 -0.2160 -0.3978 -0.3648
  694MOL0     O95665   4.543   1.790   6.358 -0.4527 -0.1449  0.7751
  694MOL0     C95666   4.427   1.764   6.415  0.1326 -0.6292  0.0417
  694MOL0     C95667   4.299   1.779   6.353 -0.1009  0.8420 -0.2175
  694MOL0     C95668   4.179   1.774   6.418 -0.5097  1.1464 -0.2471
  694MOL0     C95669   4.174   1.764   6.566  0.0242  0.1684  0.6970
  694MOL0     O95670   4.055   1.770   6.633 -0.3229 -0.1901  0.1134
  694MOL0     C95671   4.041   1.702   6.756  0.1112 -0.4800  0.4837
  694MOL0     C95672   3.996   1.795   6.865  0.2598  0.2943 -0.6441
  694MOL0     C95673   3.891   1.733   6.949 -0.2583 -0.5586  0.1057
  694MOL0     C95674   3.928   1.600   7.014  0.0840 -0.2453 -0.1500
  694MOL0     C95675   3.946   1.636   7.165  0.5350 -0.1105  0.3585
  694MOL0     C95676   3.978   1.514   7.244  0.3721  0.0250 -0.1506
  694MOL0     C95677   4.098   1.421   7.183  0.2882  0.7941 -0.1048
  694MOL0     C95678   4.150   1.306   7.274 -0.8737  0.3178 -0.3087
  694MOL0    Cl95679   4.261   1.364   7.396  0.2514  0.1401 -0.1558
  694MOL0     C95680   4.300   1.762   6.632 -0.1557 -0.2043  0.0441
  694MOL0     C95681   4.425   1.768   6.554 -0.0833 -0.4506 -1.2113
  694MOL0     O95682   4.567   1.577   6.273  0.0510  0.2062  0.9165
  694MOL0     C95683   4.769   1.851   6.221  0.4595 -0.7202  0.0814
  694MOL0     C95684   4.873   1.901   6.144  1.0453  0.2286 -0.2700
  694MOL0     N95685   5.177   1.781   5.459 -0.3668 -0.5343  0.0641
  694MOL0     N95686   5.177   1.741   5.331  0.4852 -0.3737 -0.5537
  694MOL0     C95687   6.284   2.188   4.507  0.2060 -0.0843 -0.6502
  694MOL0     C95688   6.386   2.277   4.467 -0.0465 -0.3701  0.2357
  694MOL0     C95689   6.713   2.580   4.421  0.5245  0.4230 -0.0216
  694MOL0     C95690   6.715   2.678   4.532 -1.1550  0.5416  0.4815
  694MOL0     C95691   6.782   2.795   4.528  1.0449  0.1533  0.4333
  694MOL0     C95692   6.865   2.807   4.414  0.2940 -0.2992  1.4076
  694MOL0     O95693   6.946   2.915   4.393 -0.2813 -0.3250  0.2045
  694MOL0     C95694   6.966   3.021   4.488  0.6215 -1.0904  0.9609
  694MOL0     C95695   7.032   3.139   4.415 -0.6584 -0.6655 -0.2345
  694MOL0     C95696   7.067   3.258   4.503 -0.7023  0.1861 -0.4657
  694MOL0     C95697   6.963   3.310   4.595  0.9099  0.3568 -0.4822
  694MOL0     C95698   6.863   3.367   4.514 -0.3971  0.5662 -1.7543
  694MOL0     C95699   6.770   3.426   4.453 -0.0259  0.2966 -0.4896
  694MOL0     C95700   6.860   2.718   4.301 -0.3564  0.0207  0.1989
  694MOL0     C95701   6.781   2.602   4.305 -0.1702  0.0728 -0.4273
  694MOL0     C95702   6.787   2.518   4.179 -0.6478 -0.6999 -0.1155
  694MOL0     H95703   6.410   2.490   4.719  1.2814 -1.0833  1.1729
  694MOL0     H95704   6.246   2.323   4.821 -0.4552 -1.9634 -0.5899
  694MOL0     H95705   6.043   2.223   4.834  2.7688 -0.4206  0.3572
  694MOL0     H95706   6.137   2.072   4.873 -0.1698  1.3581  0.7811
  694MOL0     H95707   5.859   2.127   4.798 -0.4323  0.5319  3.9958
  694MOL0     H95708   5.937   1.975   4.726 -0.3772 -2.0267  1.5637
  694MOL0     H95709   5.973   1.908   4.962 -1.0507 -0.4441  2.1323
  694MOL0     H95710   5.898   2.056   5.008 -2.2490 -1.7494  0.9371
  694MOL0     H95711   5.690   1.981   4.842  1.5259  0.9947 -1.8242
  694MOL0     H95712   5.767   1.829   4.842 -3.6586 -2.0771  1.9083
  694MOL0     H95713   5.705   1.994   5.082 -1.2660 -0.1854 -1.3109
  694MOL0     H95714   5.746   1.815   5.090  1.1865 -1.6858 -1.2162
  694MOL0     H95715   5.500   1.934   4.954 -1.1828 -1.8240 -2.0116
  694MOL0     H95716   5.526   1.767   4.965  0.4037 -0.3162 -0.7484
  694MOL0     H95717   5.485   1.928   5.217  1.5530  1.8558 -1.5889
  694MOL0     H95718   5.527   1.760   5.208  1.2822  0.0052 -0.2425
  694MOL0     H95719   5.271   1.863   5.062 -4.0856 -1.6526  0.9064
  694MOL0     H95720   5.299   1.702   5.110  1.5669  0.1613 -0.0069
  694MOL0     H95721   5.315   2.039   5.310 -0.6290 -0.0232 -1.5908
  694MOL0     H95722   5.202   2.096   5.533  1.2016 -0.4656 -2.6514
  694MOL0     H95723   5.317   2.002   5.629 -0.2573 -0.4980  1.0445
  694MOL0     H95724   5.017   1.904   5.625 -1.5189 -0.7513  1.6218
  694MOL0     H95725   5.156   1.857   5.730  0.3598 -1.0844 -1.8948
  694MOL0     H95726   5.150   2.094   5.814  0.3715 -1.0813 -1.5071
  694MOL0     H95727   5.013   2.126   5.720  3.2305  1.2166 -1.1348
  694MOL0     H95728   4.908   2.095   5.936  1.0444  0.4951  0.4418
  694MOL0     H95729   4.860   1.967   5.817 -0.6813 -0.6423 -0.1163
  694MOL0     H95730   4.885   1.664   5.909  0.6949  3.0981 -1.6283
  694MOL0     H95731   4.720   1.498   5.926 -1.4084 -2.8308  0.7232
  694MOL0     H95732   4.563   1.554   5.993 -0.1565 -4.0834 -2.4355
  694MOL0     H95733   4.680   1.451   6.075  2.3553  0.8410  0.3140
  694MOL0     H95734   4.284   1.787   6.246 -2.0481 -2.8187 -0.3646
  694MOL0     H95735   4.083   1.785   6.369 -1.8141 -2.2714  1.2276
  694MOL0     H95736   3.968   1.622   6.738 -0.9595 -0.3006  3.5028
  694MOL0     H95737   4.136   1.662   6.794  1.2065  1.8458  0.3769
  694MOL0     H95738   4.084   1.821   6.925  1.1326  2.1156 -2.6191
  694MOL0     H95739   3.959   1.890   6.826  2.4295  1.1921 -0.6662
  694MOL0     H95740   3.797   1.722   6.893 -0.3216  1.0956 -0.1683
  694MOL0     H95741   3.878   1.816   7.019  0.7016 -0.4244  0.1437
  694MOL0     H95742   4.015   1.543   6.978 -2.1328 -4.0995 -0.0310
  694MOL0     H95743   3.849   1.524   7.004  2.6457 -2.8682 -2.3693
  694MOL0     H95744   4.030   1.707   7.162 -0.4044  1.0079 -1.4470
  694MOL0     H95745   3.852   1.681   7.199  0.6247  1.0815 -0.9076
  694MOL0     H95746   3.886   1.455   7.253  0.4837  0.0716  1.5726
  694MOL0     H95747   3.997   1.541   7.348 -4.5914  3.1539  0.2534
  694MOL0     H95748   4.176   1.483   7.137  0.7312 -0.7139 -1.4815
  694MOL0     H95749   4.048   1.367   7.102 -1.3852 -1.3296  2.2061
  694MOL0     H95750   4.212   1.238   7.215 -1.8977 -1.7637  0.8672
  694MOL0     H95751   4.071   1.254   7.331  0.5397 -1.2925  0.2800
  694MOL0     H95752   4.305   1.759   6.741  1.2852  4.4320  0.3145
  694MOL0     H95753   4.518   1.776   6.608 -0.0089  0.3234 -1.4428
  694MOL0     H95754   4.757   1.909   6.312 -0.2587  0.2908 -0.6327
  694MOL0     H95755   4.928   1.992   6.166 -0.2071  1.0084 -0.2323
  694MOL0     H95756   6.254   2.123   4.425  2.6812  1.7332 -3.1849
  694MOL0     H95757   6.424   2.274   4.365  0.0442 -0.3975  0.2703
  694MOL0     H95758   6.661   2.665   4.626  3.5635  2.4745  3.8906
  694MOL0     H95759   6.764   2.872   4.601 -2.3231 -2.2261  2.3769
  694MOL0     H95760   6.874   3.063   4.531  0.5206 -0.4216  0.1141
  694MOL0     H95761   7.033   2.997   4.571  0.6171 -1.1545  0.9462
  694MOL0     H95762   6.960   3.172   4.339 -1.6621  1.6968  1.6229
  694MOL0     H95763   7.125   3.117   4.362 -0.1654  0.8806 -0.0516
  694MOL0     H95764   7.150   3.228   4.568  0.2121 -0.6510 -1.9599
  694MOL0     H95765   7.111   3.335   4.439 -2.5171 -0.6268 -2.7934
  694MOL0     H95766   6.992   3.379   4.675 -0.5748 -0.6422  0.9739
  694MOL0     H95767   6.913   3.228   4.648  2.1914  0.3330  0.7840
  694MOL0     H95768   6.705   3.487   4.394  1.8114  1.1016 -1.7867
  694MOL0     H95769   6.915   2.740   4.210  1.9267 -0.2321  1.4477
  694MOL0     H95770   6.842   2.576   4.105  2.0625 -1.8632  0.8584
  694MOL0     H95771   6.833   2.420   4.188  0.6877 -0.0255  0.8974
  694MOL0     H95772   6.688   2.496   4.138  0.3391  0.0778 -3.1539
  695MOL0     O95773   3.102  11.419   3.261  0.9167 -0.7976  0.0951
  695MOL0     C95774   3.216  11.392   3.238  0.3755  0.9628 -0.7220
  695MOL0     O95775   3.317  11.478   3.251 -0.9893 -0.4582 -1.0309
  695MOL0     C95776   3.304  11.579   3.344  0.4550  0.1097  0.8633
  695MOL0     C95777   3.236  11.561   3.465 -0.6505  0.3170 -0.8141
  695MOL0     C95778   3.226  11.671   3.555  0.2129 -0.1948 -0.0723
  695MOL0     C95779   3.286  11.789   3.530 -1.0449  1.1233 -0.1351
  695MOL0     O95780   3.301  11.883   3.636 -0.0048  0.3826  0.3790
  695MOL0     C95781   3.243  12.009   3.602 -0.3798 -0.7896 -1.3461
  695MOL0     C95782   3.186  12.072   3.729  0.2731  0.2278  0.3500
  695MOL0     C95783   3.290  12.128   3.824  0.4364  0.7626 -0.1806
  695MOL0     C95784   3.217  12.120   3.958 -0.1875 -0.6975 -0.3611
  695MOL0     C95785   3.300  12.178   4.069  0.0202  0.0871  0.1659
  695MOL0     C95786   3.227  12.160   4.208 -1.0120 -0.1350  0.5781
  695MOL0     C95787   3.293  12.239   4.323  0.0762 -0.2097 -0.7196
  695MOL0     C95788   3.196  12.255   4.445 -0.4485  0.6164  0.3769
  695MOL0     N95789   3.084  12.337   4.430  0.5389 -0.2788 -0.1194
  695MOL0     C95790   3.069  12.464   4.389  0.2217 -0.0806  0.0083
  695MOL0     C95791   2.937  12.489   4.412 -0.6110  0.0437 -0.5132
  695MOL0     C95792   2.861  12.616   4.410  0.1920  0.0540  0.2734
  695MOL0     C95793   2.860  12.682   4.268 -0.4473 -0.4709  0.5593
  695MOL0     C95794   2.761  12.797   4.255 -0.5413  0.2471  0.2391
  695MOL0     C95795   2.756  12.845   4.123  0.9001  0.5316  0.1925
  695MOL0     O95796   2.622  12.829   4.076 -0.0200 -0.6107  0.3819
  695MOL0     C95797   2.528  12.932   4.096 -0.0563 -0.6414  0.2373
  695MOL0     C95798   2.405  12.915   4.031 -0.7932  0.2143 -0.3782
  695MOL0     C95799   2.304  13.017   4.039 -1.0119 -0.0967  1.4773
  695MOL0     C95800   2.176  12.989   3.970 -1.0221  0.4647 -0.1000
  695MOL0     C95801   2.329  13.139   4.111  0.2789 -0.3354 -0.6430
  695MOL0     C95802   2.237  13.262   4.122 -0.6771  0.8439 -0.8019
  695MOL0     O95803   2.228  13.323   4.241 -0.8608 -0.5800  0.3589
  695MOL0     C95804   2.139  13.423   4.271  1.2995  0.0807  0.3434
  695MOL0     C95805   2.014  13.426   4.214  0.6725 -0.0039  0.3488
  695MOL0     C95806   1.930  13.532   4.256 -0.1140 -1.1028 -0.9217
  695MOL0     C95807   1.970  13.631   4.353  0.3485  0.7841  0.6949
  695MOL0     O95808   1.890  13.737   4.385 -0.4056 -0.1241 -0.0814
  695MOL0     C95809   1.755  13.712   4.409 -0.3081 -0.1334 -0.7354
  695MOL0     C95810   1.744  13.645   4.543  0.5470  0.4560  0.1369
  695MOL0     C95811   1.653  13.715   4.628  0.1690 -0.5861 -0.0499
  695MOL0     C95812   1.642  13.641   4.767  0.6957 -0.6507 -0.5972
  695MOL0     C95813   1.568  13.735   4.868  0.0930  0.1138 -1.3147
  695MOL0     C95814   1.662  13.800   4.966 -0.8669  0.2821 -1.0683
  695MOL0     C95815   1.584  13.867   5.086 -0.5406 -0.1718  0.3528
  695MOL0     C95816   1.692  13.906   5.197 -0.2115 -0.8302 -0.3001
  695MOL0    Cl95817   1.637  14.039   5.286 -0.2375 -0.2639  0.0690
  695MOL0     C95818   2.090  13.619   4.412  0.9048 -0.1928  0.7612
  695MOL0     C95819   2.180  13.514   4.371 -0.3953 -0.0266 -0.1912
  695MOL0     O95820   2.188  13.297   4.022  0.1994  0.1742 -0.2169
  695MOL0     C95821   2.460  13.146   4.179  0.1614  0.5778 -0.8347
  695MOL0     C95822   2.555  13.041   4.182  0.3593 -0.5337  0.0090
  695MOL0     N95823   2.877  12.375   4.476  0.6049  1.3215 -0.4007
  695MOL0     N95824   2.960  12.283   4.473 -0.5140 -0.8029 -0.7406
  695MOL0     C95825   3.349  11.808   3.404  0.6085 -0.6234 -0.4206
  695MOL0     C95826   3.363  11.708   3.322  0.0735  0.3818  1.2042
  695MOL0     C95827   3.240  11.265   3.170 -0.4335 -1.0603  1.2310
  695MOL0     C95828   3.339  11.269   3.064  0.0670  0.5420  1.1089
  695MOL0     C95829   3.354  11.170   2.960 -0.6357  0.0194 -0.1219
  695MOL0     C95830   3.260  11.065   2.961 -0.7045 -0.7802 -0.2094
  695MOL0     O95831   3.263  10.982   2.855  1.0465 -0.6401  0.1614
  695MOL0     C95832   3.225  10.843   2.869 -1.5912 -0.2983  0.0416
  695MOL0     C95833   3.342  10.749   2.832  0.4999 -0.4132  1.1547
  695MOL0     C95834   3.458  10.756   2.938 -0.1963  0.3535 -0.1889
  695MOL0     C95835   3.521  10.623   2.978 -0.2911  0.1518 -0.8136
  695MOL0     C95836   3.587  10.545   2.868  0.0331 -0.0604  0.0944
  695MOL0     C95837   3.646  10.490   2.775  0.4838  0.0443 -0.3065
  695MOL0     C95838   3.180  11.042   3.076  0.5304  0.4849  0.4421
  695MOL0     C95839   3.171  11.140   3.178 -0.8165  0.1295  0.6169
  695MOL0     C95840   3.063  11.095   3.281  0.3833  0.6877  0.6836
  695MOL0     H95841   3.188  11.468   3.495 -0.0033 -0.1139 -1.1027
  695MOL0     H95842   3.171  11.655   3.647 -0.5539 -3.1282 -0.9094
  695MOL0     H95843   3.167  12.000   3.524  0.7449 -2.7575 -2.2960
  695MOL0     H95844   3.316  12.077   3.557 -0.4510 -0.1436 -0.5137
  695MOL0     H95845   3.123  12.155   3.696 -1.0538 -1.5840 -1.9757
  695MOL0     H95846   3.119  11.995   3.768 -1.1675  1.3975  0.2618
  695MOL0     H95847   3.380  12.066   3.829  0.0928 -0.0179 -2.4905
  695MOL0     H95848   3.323  12.230   3.803  2.1408  0.5397  1.1665
  695MOL0     H95849   3.125  12.179   3.963  1.8723  2.7205  0.9338
  695MOL0     H95850   3.189  12.017   3.983 -3.3440  0.2927  0.5998
  695MOL0     H95851   3.298  12.287   4.058  0.1763  0.2152  1.3275
  695MOL0     H95852   3.404  12.144   4.076  1.0906  3.1819  0.8493
  695MOL0     H95853   3.126  12.203   4.206 -0.8516  0.2909  1.3119
  695MOL0     H95854   3.213  12.053   4.223 -5.4627  0.1035 -0.4406
  695MOL0     H95855   3.331  12.336   4.289 -1.3473 -0.3074 -2.7545
  695MOL0     H95856   3.383  12.187   4.357 -1.4967 -3.8723 -1.6913
  695MOL0     H95857   3.169  12.150   4.461  1.5619 -1.3986 -6.3874
  695MOL0     H95858   3.259  12.302   4.522  2.6237  1.1692 -2.2829
  695MOL0     H95859   3.140  12.531   4.341  1.1307 -2.3265 -2.0294
  695MOL0     H95860   2.897  12.684   4.488  3.0066 -3.6639  2.5694
  695MOL0     H95861   2.762  12.583   4.442  1.6257 -1.3205  3.8277
  695MOL0     H95862   2.958  12.729   4.253 -0.8004  1.3366  3.3662
  695MOL0     H95863   2.844  12.610   4.186  2.0520  1.3103 -1.6657
  695MOL0     H95864   2.661  12.783   4.299 -1.4367  0.4301 -1.6590
  695MOL0     H95865   2.798  12.883   4.312 -1.4871  0.6271  0.3016
  695MOL0     H95866   2.772  12.953   4.108 -2.6821  1.1855  0.0466
  695MOL0     H95867   2.832  12.793   4.064  3.6454  2.7372  1.5653
  695MOL0     H95868   2.377  12.829   3.971 -2.3528  1.1795 -1.0961
  695MOL0     H95869   2.183  13.024   3.866  2.6161 -1.2737 -0.5800
  695MOL0     H95870   2.097  13.052   4.012 -0.8065  2.1276 -2.0260
  695MOL0     H95871   2.158  12.881   3.974 -0.5554  0.2598 -2.2374
  695MOL0     H95872   1.979  13.356   4.139  1.1724 -0.7989  0.8498
  695MOL0     H95873   1.826  13.523   4.226  0.0252 -0.3189 -1.6827
  695MOL0     H95874   1.703  13.808   4.418 -0.8224 -0.4772  0.1173
  695MOL0     H95875   1.713  13.651   4.329 -2.0062  0.0658 -0.0514
  695MOL0     H95876   1.712  13.541   4.530  0.6516  0.6555 -2.2748
  695MOL0     H95877   1.841  13.640   4.592 -0.5154  0.7899  2.4108
  695MOL0     H95878   1.548  13.719   4.599 -0.0256 -0.5738  0.6402
  695MOL0     H95879   1.691  13.816   4.643  0.9433 -0.4388 -2.4823
  695MOL0     H95880   1.743  13.611   4.798 -0.4854 -6.2758 -1.0660
  695MOL0     H95881   1.577  13.553   4.765 -0.5172  0.0386  2.7324
  695MOL0     H95882   1.519  13.812   4.807  2.3559  2.7471  0.0052
  695MOL0     H95883   1.496  13.686   4.935 -0.0673  0.4695 -1.2249
  695MOL0     H95884   1.718  13.872   4.905 -0.4560  2.5363  1.7403
  695MOL0     H95885   1.729  13.723   5.005 -1.9554  0.0188  0.3532
  695MOL0     H95886   1.511  13.792   5.118  0.7094 -1.6746 -0.1959
  695MOL0     H95887   1.532  13.956   5.050 -0.3394  0.7112  2.1315
  695MOL0     H95888   1.796  13.917   5.165 -0.2653 -1.6966 -0.8135
  695MOL0     H95889   1.697  13.814   5.255 -1.8012 -0.2557  0.7972
  695MOL0     H95890   2.119  13.691   4.488  1.0396 -0.8522  1.3424
  695MOL0     H95891   2.278  13.497   4.415 -1.4493 -0.6302  2.1029
  695MOL0     H95892   2.480  13.224   4.251  0.9118 -0.7826  0.5061
  695MOL0     H95893   2.643  13.053   4.244  0.4783 -1.6685  0.0733
  695MOL0     H95894   3.416  11.889   3.377  1.9310 -2.0596 -1.6820
  695MOL0     H95895   3.428  11.722   3.236  2.1097 -0.6400  2.4957
  695MOL0     H95896   3.397  11.361   3.055  1.4731 -0.3497  0.7344
  695MOL0     H95897   3.426  11.170   2.878 -0.9268  2.9919 -0.5132
  695MOL0     H95898   3.196  10.810   2.969  3.0349 -4.0130  0.5195
  695MOL0     H95899   3.145  10.821   2.798 -2.4528  1.1878  0.5107
  695MOL0     H95900   3.376  10.753   2.729  0.9478  3.5324  1.3048
  695MOL0     H95901   3.290  10.654   2.851 -0.0142 -0.0670  1.5360
  695MOL0     H95902   3.540  10.822   2.911  2.1025 -2.5497 -0.7442
  695MOL0     H95903   3.413  10.789   3.033  1.1933  4.2004 -0.7046
  695MOL0     H95904   3.439  10.560   3.015  0.4848 -0.1673  0.4043
  695MOL0     H95905   3.593  10.636   3.059  1.2034  2.5459 -2.4077
  695MOL0     H95906   3.693  10.440   2.693  0.5971 -0.1653 -0.1142
  695MOL0     H95907   3.112  10.957   3.078  0.1940  0.7623  0.9907
  695MOL0     H95908   2.985  11.035   3.234  3.9567 -4.6118  0.5930
  695MOL0     H95909   3.109  11.030   3.357 -0.5654  2.2373  2.6684
  695MOL0     H95910   3.009  11.180   3.324 -1.3945 -0.4049  0.6939
  696MOL0     O95911   1.669   8.173   1.704 -0.5697 -0.1891  0.9979
  696MOL0     C95912   1.778   8.161   1.761  0.1152 -0.6680 -0.4207
  696MOL0     O95913   1.894   8.144   1.690  0.0508 -0.0627 -1.2081
  696MOL0     C95914   1.889   8.158   1.551  0.5083  0.3746  0.6091
  696MOL0     C95915   1.893   8.293   1.504  1.8196 -0.0569 -0.5228
  696MOL0     C95916   1.914   8.316   1.369  1.0279  0.9438 -1.0224
  696MOL0     C95917   1.938   8.212   1.274  0.0605  0.0121  0.8353
  696MOL0     O95918   1.924   8.217   1.141 -0.3073  0.4167  0.9154
  696MOL0     C95919   1.814   8.299   1.093  0.0231  0.8638  0.3759
  696MOL0     C95920   1.801   8.287   0.938 -0.3694  0.2089  0.6162
  696MOL0     C95921   1.766   8.143   0.899 -0.1192  1.1284  0.5591
  696MOL0     C95922   1.622   8.110   0.868  0.1159  0.2766 -0.3615
  696MOL0     C95923   1.529   8.107   0.986 -0.5276 -0.2559  0.3115
  696MOL0     C95924   1.572   8.020   1.112 -1.2622  0.1172 -1.1341
  696MOL0     C95925   1.483   8.062   1.226 -0.4248  0.1972  0.3266
  696MOL0     C95926   1.507   7.973   1.351  0.2372  0.1910 -0.5594
  696MOL0     N95927   1.406   8.000   1.454  0.0183  0.0316 -0.0259
  696MOL0     C95928   1.402   8.120   1.527 -1.1569  0.6799  0.3917
  696MOL0     C95929   1.301   8.108   1.610  0.7734  0.0571 -0.7680
  696MOL0     C95930   1.247   8.206   1.712 -0.1746 -0.0236 -0.8520
  696MOL0     C95931   1.194   8.332   1.655  0.7036 -0.2303 -0.6048
  696MOL0     C95932   1.047   8.300   1.614 -0.2202  0.4779 -0.6486
  696MOL0     C95933   0.990   8.430   1.567 -0.7168 -0.6196  0.2847
  696MOL0     O95934   0.844   8.438   1.567 -0.4247  0.0886 -0.1875
  696MOL0     C95935   0.779   8.362   1.482 -0.0151 -0.5838 -1.0786
  696MOL0     C95936   0.638   8.342   1.497 -0.7030 -1.0004 -0.8968
  696MOL0     C95937   0.564   8.252   1.430  0.5208  0.4230 -0.7953
  696MOL0     C95938   0.421   8.249   1.488  0.2931 -0.1546  0.0398
  696MOL0     C95939   0.624   8.178   1.325  0.0588  0.2489  0.0300
  696MOL0     C95940   0.545   8.094   1.233  0.0643  0.6268  1.1608
  696MOL0     O95941   0.627   8.010   1.163  0.1709 -0.0083  0.2114
  696MOL0     C95942   0.563   7.894   1.120 -0.0795 -0.7247  0.6316
  696MOL0     C95943   0.584   7.769   1.177  0.2005  0.5452 -0.0750
  696MOL0     C95944   0.509   7.656   1.133  0.1164  0.9014  1.0851
  696MOL0     C95945   0.420   7.671   1.016 -0.4484  0.4590 -0.4320
  696MOL0     O95946   0.345   7.571   0.960 -0.1686  0.4906 -0.5112
  696MOL0     C95947   0.256   7.509   1.054 -0.1144  0.6808 -1.2619
  696MOL0     C95948   0.195   7.380   0.991 -0.7007 -0.0865 -0.6631
  696MOL0     C95949   0.064   7.405   0.919  0.1076  0.5987  0.9810
  696MOL0     C95950  -0.056   7.419   1.017 -0.0805 -0.5604 -0.8042
  696MOL0     C95951  -0.185   7.441   0.939  0.1811  0.8765  0.0098
  696MOL0     C95952  -0.311   7.401   1.012 -0.3835 -0.1320  0.7593
  696MOL0     C95953  -0.327   7.254   1.036 -1.1070 -0.0040  0.0298
  696MOL0     C95954  -0.360   7.183   0.907 -0.6823 -0.9360  0.2416
  696MOL0    Cl95955  -0.520   7.177   0.835  0.1041 -0.1449 -0.3052
  696MOL0     C95956   0.425   7.788   0.953  0.1802 -0.4739  0.3448
  696MOL0     C95957   0.491   7.900   1.001 -0.2146 -0.5962 -0.4529
  696MOL0     O95958   0.422   8.087   1.240  0.8896  0.5731  0.0862
  696MOL0     C95959   0.763   8.201   1.299 -0.3051 -0.6025  0.6130
  696MOL0     C95960   0.836   8.284   1.378 -0.3627 -0.3640  0.5127
  696MOL0     N95961   1.231   7.990   1.584 -0.3946  0.6548 -0.4007
  696MOL0     N95962   1.299   7.929   1.487 -0.3218 -0.2724  0.1826
  696MOL0     C95963   1.930   8.089   1.326 -0.6748  0.2931 -0.3191
  696MOL0     C95964   1.923   8.056   1.460  0.2853  0.7889  0.3711
  696MOL0     C95965   1.790   8.201   1.905 -0.2104  0.0311  0.1937
  696MOL0     C95966   1.908   8.265   1.949 -0.3012  0.7286  0.5491
  696MOL0     C95967   1.926   8.299   2.077 -0.9332 -0.7221 -0.9043
  696MOL0     C95968   1.829   8.265   2.172 -0.8814  0.3119  0.8254
  696MOL0     O95969   1.830   8.264   2.307  0.1232 -0.7206  0.5763
  696MOL0     C95970   1.956   8.280   2.371 -0.6019 -0.4609 -0.0266
  696MOL0     C95971   1.974   8.412   2.436  0.1800  0.1485 -0.8734
  696MOL0     C95972   1.960   8.533   2.359  0.3410 -0.4015 -0.2523
  696MOL0     C95973   1.813   8.586   2.332 -0.8651  0.0330  1.0245
  696MOL0     C95974   1.822   8.716   2.254 -0.1437 -0.1766 -0.2262
  696MOL0     C95975   1.852   8.820   2.199  0.8327 -0.5416  0.7753
  696MOL0     C95976   1.706   8.213   2.134 -0.0357  1.3854  0.3243
  696MOL0     C95977   1.678   8.186   1.998 -0.4421  0.0240 -0.4105
  696MOL0     C95978   1.532   8.140   1.973  0.5427  0.0485 -1.1339
  696MOL0     H95979   1.874   8.374   1.574 -0.9306 -1.5865  0.6433
  696MOL0     H95980   1.924   8.415   1.323  1.5344  0.4200 -2.0878
  696MOL0     H95981   1.847   8.401   1.116  0.9198  0.5748  0.3977
  696MOL0     H95982   1.722   8.264   1.140  0.6140 -0.9550  0.2521
  696MOL0     H95983   1.725   8.356   0.899  1.2862 -0.0884 -3.6886
  696MOL0     H95984   1.894   8.323   0.894  0.1979  2.3335  3.2826
  696MOL0     H95985   1.836   8.106   0.823 -0.4320 -1.2571  1.3590
  696MOL0     H95986   1.808   8.081   0.979  3.6365  2.9057  0.2124
  696MOL0     H95987   1.585   8.175   0.788 -3.0602 -0.6646  0.2079
  696MOL0     H95988   1.623   8.017   0.811  0.9428 -0.1879  0.3940
  696MOL0     H95989   1.445   8.042   0.960  1.6402 -4.0515  1.8786
  696MOL0     H95990   1.509   8.212   1.007 -1.2350 -0.2953 -0.1154
  696MOL0     H95991   1.556   7.917   1.080  1.2514 -0.2571 -1.4127
  696MOL0     H95992   1.676   8.046   1.136 -1.3431  1.4427 -2.0993
  696MOL0     H95993   1.382   8.060   1.185 -0.7750  1.9907  1.0202
  696MOL0     H95994   1.505   8.168   1.239  4.9027 -0.5468 -0.2714
  696MOL0     H95995   1.494   7.871   1.311 -1.8687 -0.5111  1.6968
  696MOL0     H95996   1.608   7.985   1.391 -0.1142  2.7844 -0.2966
  696MOL0     H95997   1.474   8.200   1.506  1.6353 -1.7715 -0.0354
  696MOL0     H95998   1.336   8.227   1.772 -3.5589 -0.0469  4.9931
  696MOL0     H95999   1.167   8.160   1.772 -0.2294  0.6796 -0.3733
  696MOL0     H96000   1.202   8.401   1.740 -3.6404 -0.0282 -0.1117
  696MOL0     H96001   1.255   8.374   1.574  1.7986 -2.5642 -1.0450
  696MOL0     H96002   1.047   8.227   1.533 -3.7834 -1.7153  1.0529
  696MOL0     H96003   0.996   8.268   1.706  1.6227  1.8179  0.9293
  696MOL0     H96004   1.012   8.497   1.651 -4.0971  0.8921  0.1563
  696MOL0     H96005   1.041   8.471   1.479 -2.3519 -1.7204 -1.2507
  696MOL0     H96006   0.592   8.393   1.581 -1.0602 -3.5926  0.6007
  696MOL0     H96007   0.404   8.269   1.594  0.5480 -2.8195  0.6590
  696MOL0     H96008   0.395   8.143   1.477  0.5820 -0.1308 -0.9830
  696MOL0     H96009   0.358   8.313   1.426  1.6906  0.8475 -0.3739
  696MOL0     H96010   0.650   7.736   1.257  1.2232 -0.7831 -1.3821
  696MOL0     H96011   0.503   7.566   1.192 -1.2943  1.5311  1.9504
  696MOL0     H96012   0.319   7.477   1.136 -0.4686  1.7916 -0.5214
  696MOL0     H96013   0.172   7.573   1.086  0.3679  1.5447 -1.6876
  696MOL0     H96014   0.274   7.323   0.942 -1.0399 -1.9165  0.7726
  696MOL0     H96015   0.172   7.314   1.075  0.8540  2.3293  1.8298
  696MOL0     H96016   0.043   7.311   0.867  0.3588 -2.0740  5.2572
  696MOL0     H96017   0.074   7.492   0.853 -0.6522  1.3420  1.8307
  696MOL0     H96018  -0.036   7.502   1.086  1.2151 -2.5050  1.3338
  696MOL0     H96019  -0.061   7.329   1.080 -2.5943 -2.2758 -3.2236
  696MOL0     H96020  -0.206   7.547   0.926 -0.7658  0.7560  0.4994
  696MOL0     H96021  -0.181   7.391   0.841 -0.4246  1.7487 -0.4715
  696MOL0     H96022  -0.392   7.432   0.945  2.0129  1.6337 -1.5361
  696MOL0     H96023  -0.315   7.459   1.105 -0.2434 -0.7108  1.1346
  696MOL0     H96024  -0.406   7.242   1.110  2.0241  0.7417  3.8009
  696MOL0     H96025  -0.242   7.200   1.077  1.1309  1.7243 -2.0014
  696MOL0     H96026  -0.361   7.079   0.939 -3.5891 -0.9373  0.4866
  696MOL0     H96027  -0.284   7.203   0.832  0.6524 -2.3046  1.1897
  696MOL0     H96028   0.374   7.792   0.857  4.0497  2.2642 -1.8437
  696MOL0     H96029   0.469   7.996   0.954 -1.7336 -0.7951 -0.2185
  696MOL0     H96030   0.821   8.163   1.215  1.8736 -0.4592  1.9875
  696MOL0     H96031   0.943   8.290   1.363 -0.1124 -2.5066  1.0058
  696MOL0     H96032   1.939   8.006   1.257  0.3102  0.0189  0.1166
  696MOL0     H96033   1.916   7.956   1.500  0.6333  1.2904  1.7268
  696MOL0     H96034   1.987   8.301   1.883 -0.4873  0.5548  0.2287
  696MOL0     H96035   2.017   8.355   2.098 -0.8460 -0.7508 -1.1946
  696MOL0     H96036   1.956   8.194   2.439  0.6310 -0.7248 -0.3306
  696MOL0     H96037   2.044   8.260   2.309 -0.1658 -1.9578  1.0241
  696MOL0     H96038   2.075   8.408   2.479  0.9558 -4.0933 -2.5469
  696MOL0     H96039   1.909   8.408   2.524  2.4053 -0.3635  0.8507
  696MOL0     H96040   2.007   8.615   2.414  0.9969 -0.9431 -0.0041
  696MOL0     H96041   2.005   8.515   2.261 -2.5285  3.1282 -2.5168
  696MOL0     H96042   1.752   8.600   2.423 -4.0015 -0.8386 -0.7989
  696MOL0     H96043   1.758   8.510   2.277  1.5413 -5.0249  4.8059
  696MOL0     H96044   1.867   8.914   2.150 -0.0984 -0.4147  0.7251
  696MOL0     H96045   1.642   8.199   2.221 -0.0735  1.8428  0.3723
  696MOL0     H96046   1.550   8.064   1.896 -2.3254 -1.6867 -0.2812
  696MOL0     H96047   1.486   8.096   2.062  1.5831  1.3628  0.0911
  696MOL0     H96048   1.469   8.223   1.939 -0.2192 -1.1042 -2.6971
  697MOL0     O96049   2.613   0.564   7.275  0.7417  0.6041  0.0907
  697MOL0     C96050   2.606   0.665   7.197  0.6347 -0.8561  0.4149
  697MOL0     O96051   2.534   0.673   7.073 -0.2180 -1.1699 -0.7653
  697MOL0     C96052   2.425   0.605   7.039 -0.3100 -0.9550 -0.8906
  697MOL0     C96053   2.425   0.551   6.913 -0.3081 -0.2670 -1.1727
  697MOL0     C96054   2.327   0.457   6.875  0.1332 -0.6970 -0.3590
  697MOL0     C96055   2.219   0.430   6.962  0.3838 -0.3373 -1.3728
  697MOL0     O96056   2.114   0.347   6.929 -0.4373  0.1622 -0.0773
  697MOL0     C96057   1.975   0.361   6.977 -0.2466  0.0370 -0.6524
  697MOL0     C96058   1.890   0.251   6.916  0.3635 -0.3574  0.3604
  697MOL0     C96059   1.859   0.274   6.767  0.2153 -0.2964  0.1449
  697MOL0     C96060   1.746   0.190   6.724  0.6604  0.2354 -0.4552
  697MOL0     C96061   1.608   0.240   6.768 -0.2328 -0.1858 -0.4272
  697MOL0     C96062   1.484   0.166   6.730 -0.6407  0.5134  0.1063
  697MOL0     C96063   1.476   0.126   6.577 -0.1280 -1.5224  0.5689
  697MOL0     C96064   1.473   0.246   6.480 -0.6750  0.1828 -0.5738
  697MOL0     N96065   1.442   0.213   6.350 -0.0330  0.2924 -0.0502
  697MOL0     C96066   1.309   0.182   6.317 -0.7669 -0.0197 -0.2235
  697MOL0     C96067   1.308   0.123   6.195  0.8159 -0.4822 -0.0777
  697MOL0     C96068   1.176   0.073   6.132 -0.7129 -0.1884 -0.0015
  697MOL0     C96069   1.092   0.184   6.086  0.2215  0.4947  0.4169
  697MOL0     C96070   0.943   0.157   6.082 -0.6521  0.5506 -0.1743
  697MOL0     C96071   0.865   0.287   6.064 -0.7424 -0.3590 -0.9600
  697MOL0     O96072   0.729   0.264   6.113  0.0505  0.5475 -0.5369
  697MOL0     C96073   0.632   0.349   6.069  0.6449 -0.1995 -0.6169
  697MOL0     C96074   0.642   0.461   5.983 -0.6484  0.4044 -0.4542
  697MOL0     C96075   0.525   0.530   5.945 -0.0085  0.0157 -0.2561
  697MOL0     C96076   0.549   0.637   5.843  0.4888  0.1800  1.2338
  697MOL0     C96077   0.398   0.507   6.005 -1.2663 -0.7396 -0.1176
  697MOL0     C96078   0.276   0.580   5.975 -0.9637 -0.7643 -0.0013
  697MOL0     O96079   0.210   0.608   6.091  0.6661 -0.7540 -0.2855
  697MOL0     C96080   0.084   0.672   6.086  0.5210  0.1729 -0.0609
  697MOL0     C96081   0.060   0.788   6.005 -0.2007 -1.0867  0.8184
  697MOL0     C96082  -0.070   0.845   5.997 -0.5029 -0.3674  0.1478
  697MOL0     C96083  -0.181   0.792   6.066  0.8058 -0.6962  0.2588
  697MOL0     O96084  -0.303   0.850   6.057  0.1469  0.1362 -0.2829
  697MOL0     C96085  -0.424   0.780   6.100 -0.1763  0.1410  0.7408
  697MOL0     C96086  -0.550   0.857   6.070  0.1026  0.4971  0.4793
  697MOL0     C96087  -0.672   0.756   6.079  0.3662 -0.3917 -0.6995
  697MOL0     C96088  -0.791   0.842   6.077  0.5229  0.9947 -0.0778
  697MOL0     C96089  -0.914   0.754   6.056 -0.4572 -0.1569 -0.7331
  697MOL0     C96090  -1.026   0.832   5.995  0.2383  0.5592 -0.4465
  697MOL0     C96091  -1.146   0.742   5.944 -0.3569 -0.0709  0.6457
  697MOL0     C96092  -1.196   0.807   5.818  0.8673  0.6113  0.0674
  697MOL0    Cl96093  -1.253   0.972   5.862 -0.4586  0.1177 -0.2025
  697MOL0     C96094  -0.153   0.688   6.159  0.1175  0.8504  0.6527
  697MOL0     C96095  -0.023   0.632   6.165  0.6581  0.4384 -0.4676
  697MOL0     O96096   0.248   0.605   5.859 -0.8510 -0.6511 -0.1700
  697MOL0     C96097   0.391   0.402   6.094  0.3722  0.7767 -0.0401
  697MOL0     C96098   0.507   0.327   6.128 -0.1810 -1.0148  0.3394
  697MOL0     N96099   1.438   0.119   6.155  0.5353 -0.5059  0.3876
  697MOL0     N96100   1.512   0.161   6.248 -0.7809 -0.3050  0.1215
  697MOL0     C96101   2.240   0.480   7.091  0.1824  0.4398 -0.2793
  697MOL0     C96102   2.328   0.575   7.130  0.2929 -0.0754  0.0426
  697MOL0     C96103   2.684   0.794   7.241  0.3281  0.5699 -0.6367
  697MOL0     C96104   2.650   0.921   7.178  0.0515  0.1989 -0.8113
  697MOL0     C96105   2.746   1.032   7.189 -0.4328  0.2080 -0.0246
  697MOL0     C96106   2.869   1.010   7.254  0.7444 -1.0376  0.1224
  697MOL0     O96107   2.964   1.112   7.267  0.4558 -0.3002 -0.9530
  697MOL0     C96108   2.909   1.249   7.277  0.4625  0.3357 -0.3378
  697MOL0     C96109   2.998   1.333   7.357  0.3718 -0.5453 -0.0239
  697MOL0     C96110   2.976   1.325   7.513  0.1149  0.2118 -0.4735
  697MOL0     C96111   3.078   1.418   7.587  0.1263 -0.0973 -0.3576
  697MOL0     C96112   3.147   1.354   7.695 -0.8319 -0.1984  0.0594
  697MOL0     C96113   3.199   1.322   7.802  1.5176  0.6487 -0.0020
  697MOL0     C96114   2.895   0.887   7.317  0.5581 -0.9736 -0.1566
  697MOL0     C96115   2.803   0.787   7.317  0.4112 -0.5815  0.7394
  697MOL0     C96116   2.842   0.670   7.402 -0.0606  0.9600  1.0349
  697MOL0     H96117   2.505   0.560   6.841 -0.4515 -2.9552 -1.8084
  697MOL0     H96118   2.337   0.406   6.780 -0.2181 -3.8596  1.1959
  697MOL0     H96119   1.932   0.455   6.941 -1.2356 -1.0760 -2.4728
  697MOL0     H96120   1.969   0.357   7.086  2.7335 -1.8369 -0.4342
  697MOL0     H96121   1.950   0.160   6.925 -0.0631 -0.9096 -1.8222
  697MOL0     H96122   1.794   0.236   6.967 -0.6897  0.6813 -1.2063
  697MOL0     H96123   1.849   0.379   6.737  0.7611 -1.0156 -2.9022
  697MOL0     H96124   1.942   0.230   6.711  0.2752 -0.7204  0.5567
  697MOL0     H96125   1.757   0.170   6.617  1.2653  2.2216 -0.7943
  697MOL0     H96126   1.756   0.091   6.771  1.3979  0.3610 -0.3418
  697MOL0     H96127   1.605   0.343   6.730 -1.7527 -0.6101 -1.5813
  697MOL0     H96128   1.606   0.245   6.877  0.2129 -2.8197 -0.2467
  697MOL0     H96129   1.489   0.075   6.790 -1.8507  1.5561  1.9279
  697MOL0     H96130   1.388   0.209   6.760  0.9657  2.7062  2.5663
  697MOL0     H96131   1.381   0.072   6.572  0.4655 -2.5425 -3.4140
  697MOL0     H96132   1.560   0.060   6.555  1.8070  0.8844  0.3248
  697MOL0     H96133   1.404   0.324   6.515  1.0978  1.2312  0.7741
  697MOL0     H96134   1.578   0.274   6.476 -0.1769 -1.6695 -1.6234
  697MOL0     H96135   1.224   0.225   6.369 -3.5383 -1.1679 -3.4447
  697MOL0     H96136   1.116   0.014   6.202 -2.1325  0.2091 -0.8489
  697MOL0     H96137   1.200   0.014   6.044  1.9849  1.3397 -0.4096
  697MOL0     H96138   1.114   0.277   6.140  1.2279 -0.6386  2.0346
  697MOL0     H96139   1.123   0.209   5.984 -0.0323  1.9763  0.6785
  697MOL0     H96140   0.907   0.085   6.008 -0.7308 -0.2258  0.5964
  697MOL0     H96141   0.903   0.101   6.167 -1.3089 -1.1989 -1.5785
  697MOL0     H96142   0.899   0.369   6.128 -4.3326 -0.4291  1.3220
  697MOL0     H96143   0.857   0.303   5.956  0.6991 -2.4753 -1.4481
  697MOL0     H96144   0.741   0.479   5.943 -0.6033 -0.7540 -0.9007
  697MOL0     H96145   0.505   0.732   5.876 -0.9179  0.4717 -1.2372
  697MOL0     H96146   0.497   0.630   5.747 -1.1638  0.5911  2.0685
  697MOL0     H96147   0.656   0.651   5.825  0.7086 -1.4331  1.1441
  697MOL0     H96148   0.141   0.836   5.950 -1.5909  0.2776 -0.1277
  697MOL0     H96149  -0.086   0.935   5.939  2.9667  1.0115  1.1012
  697MOL0     H96150  -0.432   0.683   6.050  1.1905  0.4041 -0.0321
  697MOL0     H96151  -0.439   0.770   6.208 -0.7067  0.2749  0.6791
  697MOL0     H96152  -0.573   0.947   6.128  1.1796  1.1502 -0.0658
  697MOL0     H96153  -0.552   0.888   5.965 -1.8050 -0.1542  0.2798
  697MOL0     H96154  -0.686   0.705   6.175  2.1766 -0.6222 -0.5282
  697MOL0     H96155  -0.676   0.690   5.992  0.8688 -1.8560  0.3558
  697MOL0     H96156  -0.775   0.917   5.999  1.9710  2.2641  1.3489
  697MOL0     H96157  -0.799   0.902   6.168 -1.3844  0.8434 -0.1180
  697MOL0     H96158  -0.885   0.677   5.984  3.3297 -2.7742  3.0685
  697MOL0     H96159  -0.931   0.703   6.152 -3.6569  1.4224 -0.3318
  697MOL0     H96160  -0.985   0.880   5.905  0.0148  1.3490 -0.1315
  697MOL0     H96161  -1.060   0.915   6.058 -2.7635 -2.6445  2.6106
  697MOL0     H96162  -1.226   0.744   6.019 -2.9073  1.1677 -1.9416
  697MOL0     H96163  -1.106   0.643   5.919  2.2563  1.0163  0.2445
  697MOL0     H96164  -1.274   0.743   5.775  0.1533  0.6390  1.2750
  697MOL0     H96165  -1.123   0.818   5.738  1.5373  3.7928  0.9615
  697MOL0     H96166  -0.232   0.638   6.215 -0.1425 -0.0288 -0.4413
  697MOL0     H96167  -0.012   0.543   6.226  3.4438  1.9709  1.4370
  697MOL0     H96168   0.293   0.382   6.137 -1.1033  0.2203 -3.3568
  697MOL0     H96169   0.487   0.273   6.221 -2.3080 -1.7231 -0.4742
  697MOL0     H96170   2.160   0.455   7.159  1.0318 -0.8508  0.2800
  697MOL0     H96171   2.319   0.607   7.233 -1.9800 -1.7165  0.4298
  697MOL0     H96172   2.565   0.928   7.111 -0.2458 -1.2472 -0.6133
  697MOL0     H96173   2.735   1.117   7.123 -0.4080  1.3957  1.4363
  697MOL0     H96174   2.890   1.283   7.175 -0.2022 -2.4305 -1.2034
  697MOL0     H96175   2.810   1.255   7.323  0.2576  0.5804 -0.7997
  697MOL0     H96176   2.983   1.440   7.338 -2.5191 -0.4579  1.9609
  697MOL0     H96177   3.097   1.296   7.330  1.9742  0.6655  3.5805
  697MOL0     H96178   2.878   1.365   7.540 -0.0112 -0.4514  0.0813
  697MOL0     H96179   2.966   1.221   7.545  0.2542  0.1764 -0.5449
  697MOL0     H96180   3.017   1.497   7.632 -1.0891 -1.9835  1.5154
  697MOL0     H96181   3.157   1.459   7.524  0.1442  0.9079  0.3064
  697MOL0     H96182   3.227   1.271   7.892 -1.0144 -3.8783 -1.4471
  697MOL0     H96183   2.985   0.863   7.373  1.2640 -2.5217 -1.8279
  697MOL0     H96184   2.860   0.591   7.329  2.6408  0.0147  2.6013
  697MOL0     H96185   2.943   0.675   7.442 -0.1072 -0.1463  1.3205
  697MOL0     H96186   2.758   0.638   7.464 -1.3521  0.4267 -0.9029
  698MOL0     O96187   6.606   6.099   9.706 -0.2559 -0.4289  0.0057
  698MOL0     C96188   6.575   5.987   9.663  0.2544  0.3969 -0.1541
  698MOL0     O96189   6.566   5.950   9.528 -0.1348  0.2452 -0.7497
  698MOL0     C96190   6.600   6.042   9.437 -0.6470  0.3089  1.2865
  698MOL0     C96191   6.734   6.065   9.400  0.4494  0.3567  0.3855
  698MOL0     C96192   6.771   6.140   9.288 -1.1922  0.1187 -0.7817
  698MOL0     C96193   6.675   6.203   9.209 -0.7621 -0.8023 -1.0462
  698MOL0     O96194   6.685   6.268   9.092 -0.6397 -0.0011 -0.0756
  698MOL0     C96195   6.807   6.251   9.017 -0.4136 -0.4173 -0.0882
  698MOL0     C96196   6.793   6.343   8.891 -0.2218 -0.4787 -0.4684
  698MOL0     C96197   6.914   6.333   8.795 -0.3464  0.1207  0.2912
  698MOL0     C96198   7.043   6.406   8.838  0.9078 -1.2194  0.3122
  698MOL0     C96199   7.135   6.325   8.930  0.4155  0.7114  0.3313
  698MOL0     C96200   7.157   6.175   8.908  1.0316 -0.0548 -0.9245
  698MOL0     C96201   7.194   6.158   8.761  0.3604  0.1230 -0.0279
  698MOL0     C96202   7.321   6.086   8.730  0.7636  0.6182  0.2886
  698MOL0     N96203   7.350   6.103   8.580  0.4487  0.5084  0.5175
  698MOL0     C96204   7.275   6.049   8.481 -0.3029 -1.3256  0.9988
  698MOL0     C96205   7.328   6.068   8.358 -0.8151  0.1250 -0.6410
  698MOL0     C96206   7.278   6.020   8.223 -1.1457 -0.8135 -1.2106
  698MOL0     C96207   7.381   5.940   8.135  0.7769  0.2493  0.0760
  698MOL0     C96208   7.330   5.895   8.002  0.4272  1.0001  0.3639
  698MOL0     C96209   7.288   6.003   7.910 -0.0986  0.1968  0.4303
  698MOL0     O96210   7.162   6.047   7.956  0.8673  0.3094  0.1925
  698MOL0     C96211   7.099   6.161   7.913 -0.5185  0.2071 -0.1095
  698MOL0     C96212   6.984   6.204   7.982 -0.0978  0.4836 -0.1087
  698MOL0     C96213   6.909   6.319   7.936 -0.0416  0.1099 -0.8575
  698MOL0     C96214   6.778   6.338   8.010 -0.1765  0.0938 -0.1898
  698MOL0     C96215   6.958   6.397   7.827  0.5291 -0.1832 -1.1930
  698MOL0     C96216   6.873   6.511   7.778 -0.3680 -1.5265 -0.0828
  698MOL0     O96217   6.952   6.606   7.704 -0.4876 -0.6477  0.3357
  698MOL0     C96218   6.886   6.723   7.657  0.3531  0.0980 -0.3343
  698MOL0     C96219   6.916   6.853   7.697 -0.6739  0.1536  0.3341
  698MOL0     C96220   6.860   6.967   7.645  0.6607  0.0583 -0.4907
  698MOL0     C96221   6.765   6.957   7.541 -0.5098  0.8836  0.1144
  698MOL0     O96222   6.717   7.074   7.488 -0.7191  0.2962  0.1295
  698MOL0     C96223   6.605   7.078   7.391  0.5061 -0.2399 -0.1477
  698MOL0     C96224   6.471   7.070   7.459  0.2536  0.0171  0.7289
  698MOL0     C96225   6.423   7.176   7.550  0.4110  0.7773  1.0300
  698MOL0     C96226   6.318   7.124   7.643 -0.4674  0.7485 -1.0121
  698MOL0     C96227   6.265   7.242   7.723  0.2861 -0.4804 -0.0175
  698MOL0     C96228   6.338   7.263   7.855  0.4628 -0.6126 -0.2808
  698MOL0     C96229   6.255   7.211   7.975 -0.9467 -0.3331 -0.1637
  698MOL0     C96230   6.337   7.211   8.103 -0.2717 -0.2672 -0.1718
  698MOL0    Cl96231   6.239   7.200   8.240 -0.5568 -0.4272 -0.0905
  698MOL0     C96232   6.731   6.827   7.494  0.0634 -0.0297  0.1423
  698MOL0     C96233   6.792   6.715   7.553 -0.8457 -0.4437  0.0700
  698MOL0     O96234   6.749   6.516   7.794 -0.0936 -0.2826 -0.1552
  698MOL0     C96235   7.069   6.366   7.767 -1.0008  0.0948  0.4940
  698MOL0     C96236   7.143   6.249   7.814 -0.5900 -0.7874  0.4857
  698MOL0     N96237   7.446   6.129   8.378  0.5735  0.1086 -0.6069
  698MOL0     N96238   7.460   6.140   8.512  0.1230 -0.6495  0.1568
  698MOL0     C96239   6.540   6.194   9.246  0.3747 -0.2454 -0.5842
  698MOL0     C96240   6.509   6.109   9.347  0.0070  0.3853  0.1784
  698MOL0     C96241   6.538   5.889   9.768 -0.1723 -0.6919 -0.1620
  698MOL0     C96242   6.420   5.823   9.738 -0.9804  1.1598  1.1683
  698MOL0     C96243   6.380   5.713   9.806 -0.0391  0.2223  0.4977
  698MOL0     C96244   6.461   5.653   9.899  0.2007 -0.1383 -1.1301
  698MOL0     O96245   6.428   5.528   9.963 -0.9793  0.1002 -0.7406
  698MOL0     C96246   6.537   5.458  10.021 -0.2611  0.0082 -0.5566
  698MOL0     C96247   6.547   5.475  10.181 -0.1987  0.6511  1.0222
  698MOL0     C96248   6.432   5.411  10.259  0.0515  0.1712 -0.3890
  698MOL0     C96249   6.418   5.262  10.247  0.0439 -1.4965  1.1348
  698MOL0     C96250   6.297   5.215  10.319 -0.4891 -0.6672 -0.7116
  698MOL0     C96251   6.193   5.190  10.382 -1.4531 -0.4242 -0.1260
  698MOL0     C96252   6.575   5.735   9.941  0.1759  0.0214 -0.8226
  698MOL0     C96253   6.610   5.855   9.883  0.7905  0.8839 -0.1585
  698MOL0     C96254   6.730   5.932   9.936  0.6619  0.0677  2.1244
  698MOL0     H96255   6.803   6.001   9.454 -2.4129 -3.6979 -0.3148
  698MOL0     H96256   6.873   6.157   9.254 -1.1529  2.9333  0.5636
  698MOL0     H96257   6.833   6.147   8.994  0.0390 -0.6940  1.5803
  698MOL0     H96258   6.900   6.285   9.063  0.4148 -2.2097 -0.3389
  698MOL0     H96259   6.698   6.340   8.837 -1.2778  3.7270  0.8068
  698MOL0     H96260   6.790   6.442   8.938  0.2501 -1.2298  1.1983
  698MOL0     H96261   6.923   6.228   8.767 -1.4904  0.5117 -1.7366
  698MOL0     H96262   6.895   6.394   8.706  2.0445 -1.1512 -1.2048
  698MOL0     H96263   7.101   6.442   8.753  0.3292 -3.5458 -1.1615
  698MOL0     H96264   7.022   6.498   8.892  2.2410  0.4532 -1.8370
  698MOL0     H96265   7.095   6.343   9.030  2.2630  0.2599  1.1859
  698MOL0     H96266   7.231   6.376   8.942  0.6341 -0.1350  2.6041
  698MOL0     H96267   7.242   6.152   8.973  0.4263  2.8405  1.0842
  698MOL0     H96268   7.071   6.117   8.940 -0.8056  2.0941 -1.7142
  698MOL0     H96269   7.199   6.248   8.699  0.4776  1.7602  2.2320
  698MOL0     H96270   7.106   6.103   8.727 -1.8321 -0.7733  5.9213
  698MOL0     H96271   7.404   6.119   8.792  1.9989 -2.6808  0.5701
  698MOL0     H96272   7.321   5.979   8.755  2.0311  0.3634 -0.7094
  698MOL0     H96273   7.181   6.000   8.503  0.2159 -2.5288  0.5877
  698MOL0     H96274   7.259   6.112   8.167  1.7676 -0.0998 -1.1456
  698MOL0     H96275   7.183   5.966   8.237 -0.0691 -1.9001  3.5996
  698MOL0     H96276   7.466   6.003   8.105  0.1568  0.9774 -0.1702
  698MOL0     H96277   7.405   5.853   8.197 -1.1706  0.8170  1.7116
  698MOL0     H96278   7.413   5.836   7.962  0.7568  2.3717 -1.0276
  698MOL0     H96279   7.243   5.830   8.017 -1.0561  1.9684 -3.1628
  698MOL0     H96280   7.371   6.071   7.890 -1.4661  1.3752 -1.5917
  698MOL0     H96281   7.270   5.943   7.820 -2.1127 -2.7698  2.6012
  698MOL0     H96282   6.947   6.139   8.060  2.4346 -0.0765  0.7449
  698MOL0     H96283   6.694   6.315   7.944  1.2087 -1.7152 -1.4256
  698MOL0     H96284   6.771   6.446   8.025 -0.9823  0.3176 -2.0280
  698MOL0     H96285   6.762   6.296   8.110  1.0693 -2.1212 -0.8392
  698MOL0     H96286   7.009   6.852   7.753 -1.1241  1.5334  1.1261
  698MOL0     H96287   6.896   7.063   7.681 -0.0049  0.1795 -0.1438
  698MOL0     H96288   6.613   7.173   7.337 -1.7292 -1.6344 -3.1870
  698MOL0     H96289   6.615   6.997   7.319  0.7384 -0.7833  0.4920
  698MOL0     H96290   6.399   7.040   7.382  0.1383  1.3085  0.3024
  698MOL0     H96291   6.488   6.981   7.520  0.0769  0.4005  1.3494
  698MOL0     H96292   6.387   7.264   7.496  0.7404  2.0444  2.7716
  698MOL0     H96293   6.512   7.214   7.601  1.1349  0.4607  0.0281
  698MOL0     H96294   6.347   7.038   7.705  1.1542  2.0808  0.1717
  698MOL0     H96295   6.233   7.090   7.583 -2.4788 -3.2906  3.4838
  698MOL0     H96296   6.267   7.333   7.662 -1.1155 -0.9594 -0.8214
  698MOL0     H96297   6.159   7.230   7.747 -0.1699  0.9998 -1.1208
  698MOL0     H96298   6.367   7.368   7.859  2.0879 -1.0630  0.6016
  698MOL0     H96299   6.435   7.214   7.844  1.6532  0.1110  4.4878
  698MOL0     H96300   6.211   7.112   7.957  0.5944 -1.5752  2.4060
  698MOL0     H96301   6.169   7.276   7.993 -1.6943 -0.9022 -1.4515
  698MOL0     H96302   6.399   7.300   8.115  0.2243 -0.7174  0.7163
  698MOL0     H96303   6.410   7.130   8.098 -0.9747 -0.8857 -0.4525
  698MOL0     H96304   6.662   6.812   7.412 -1.1179 -1.2124  1.3074
  698MOL0     H96305   6.759   6.615   7.530  0.6816 -1.1719  0.9096
  698MOL0     H96306   7.104   6.407   7.674 -0.8487  2.3886  1.5122
  698MOL0     H96307   7.234   6.228   7.759  0.3397  3.2071  0.1979
  698MOL0     H96308   6.468   6.243   9.182  0.6038  0.2666 -0.4505
  698MOL0     H96309   6.402   6.092   9.355  0.3072 -1.5105  0.6820
  698MOL0     H96310   6.370   5.839   9.643  3.5792  0.0808 -1.7213
  698MOL0     H96311   6.299   5.659   9.759 -3.3392  2.2973  3.2569
  698MOL0     H96312   6.544   5.354   9.988  0.2136  0.7415 -2.9544
  698MOL0     H96313   6.630   5.500   9.982  0.3389 -1.0505 -0.3262
  698MOL0     H96314   6.552   5.578  10.217 -1.5688  1.5727 -1.2763
  698MOL0     H96315   6.638   5.421  10.210  0.2614  0.9745  0.1797
  698MOL0     H96316   6.438   5.423  10.368 -0.6390 -0.0245 -0.3282
  698MOL0     H96317   6.333   5.447  10.229 -0.3052 -2.6931 -3.1512
  698MOL0     H96318   6.502   5.206  10.289 -0.6478 -3.6252 -0.2065
  698MOL0     H96319   6.427   5.233  10.142  0.8785  1.9911  0.0885
  698MOL0     H96320   6.113   5.165  10.449  0.1960 -2.8268  1.0806
  698MOL0     H96321   6.628   5.692  10.025  0.9363 -2.3060 -2.3920
  698MOL0     H96322   6.807   5.932   9.858  1.2618 -2.2230  2.6470
  698MOL0     H96323   6.701   6.036   9.952 -1.6265 -0.1266 -0.0337
  698MOL0     H96324   6.781   5.894  10.025 -0.6095  1.2050  3.3924
  699MOL0     O96325   1.767   4.863   9.937 -0.2601  0.2176 -0.0518
  699MOL0     C96326   1.849   4.786   9.898 -0.1132 -0.5636  1.4380
  699MOL0     O96327   1.973   4.823   9.827  0.9309  0.6717 -0.4768
  699MOL0     C96328   2.019   4.943   9.814  0.5790 -1.0062  0.6067
  699MOL0     C96329   2.040   5.024   9.922 -0.0445  0.5953 -0.2249
  699MOL0     C96330   2.104   5.149   9.911  0.1513 -0.2095 -0.0504
  699MOL0     C96331   2.147   5.191   9.784 -0.2693  0.8003 -0.7546
  699MOL0     O96332   2.238   5.295   9.752 -0.1598 -0.0184 -0.1899
  699MOL0     C96333   2.369   5.281   9.807 -0.5124  0.7356 -0.7641
  699MOL0     C96334   2.476   5.378   9.743  0.4216  0.8849  0.0240
  699MOL0     C96335   2.471   5.380   9.590  0.4227  0.2346  0.9360
  699MOL0     C96336   2.488   5.237   9.547 -0.7542  0.1553  0.1540
  699MOL0     C96337   2.511   5.249   9.391 -0.6457  0.1190  0.0441
  699MOL0     C96338   2.653   5.293   9.336  0.0155 -0.4448 -0.1374
  699MOL0     C96339   2.756   5.182   9.368  0.1309 -0.0516  0.2550
  699MOL0     C96340   2.833   5.204   9.496 -0.1302  0.5758  0.3469
  699MOL0     N96341   2.972   5.239   9.469  0.0390 -0.2482 -0.1790
  699MOL0     C96342   2.998   5.349   9.389  0.3414  0.1603 -0.3497
  699MOL0     C96343   3.123   5.374   9.423  0.4972  0.0815 -0.3320
  699MOL0     C96344   3.197   5.499   9.378 -0.5517 -0.5537  0.8175
  699MOL0     C96345   3.208   5.612   9.481  0.6496  0.0297  0.1947
  699MOL0     C96346   3.302   5.728   9.447  0.5353  0.3302 -0.4805
  699MOL0     C96347   3.339   5.833   9.560  1.3715 -0.3399  0.5278
  699MOL0     O96348   3.228   5.928   9.594  0.7756  0.7395 -0.2099
  699MOL0     C96349   3.172   6.005   9.502 -0.1864 -0.9553 -0.8807
  699MOL0     C96350   3.037   6.034   9.527 -1.0109 -0.5655 -0.9364
  699MOL0     C96351   2.966   6.120   9.450 -0.8370  0.7531  0.3695
  699MOL0     C96352   2.829   6.148   9.501  0.3709  0.2441 -0.2478
  699MOL0     C96353   3.027   6.173   9.336  0.3822 -1.0672 -0.0151
  699MOL0     C96354   2.969   6.282   9.264 -0.9486 -0.7103  0.0250
  699MOL0     O96355   2.868   6.354   9.311 -0.3045  0.0338  0.0080
  699MOL0     C96356   2.841   6.466   9.242 -1.1020 -1.1091 -0.7549
  699MOL0     C96357   2.903   6.588   9.275 -0.7509  0.3396  0.8187
  699MOL0     C96358   2.876   6.703   9.190 -1.1239 -0.0963 -0.4171
  699MOL0     C96359   2.781   6.701   9.089 -1.1372 -0.2772  0.3906
  699MOL0     O96360   2.769   6.807   9.009  0.4290  0.3148 -0.7244
  699MOL0     C96361   2.849   6.800   8.890 -0.1312 -0.2038 -0.8739
  699MOL0     C96362   2.746   6.788   8.776 -0.0010  0.5311  1.0833
  699MOL0     C96363   2.637   6.904   8.770  0.3965 -0.0194 -0.9343
  699MOL0     C96364   2.711   7.036   8.754  0.2283  0.0074  0.8979
  699MOL0     C96365   2.590   7.135   8.736 -0.9257 -0.6177 -0.0884
  699MOL0     C96366   2.652   7.273   8.701  1.3136 -0.7294 -0.1174
  699MOL0     C96367   2.574   7.358   8.604  0.0468 -0.7206  0.0820
  699MOL0     C96368   2.648   7.466   8.516 -0.2373  0.4076 -0.4492
  699MOL0    Cl96369   2.795   7.540   8.602 -0.6935  0.0066 -0.6093
  699MOL0     C96370   2.706   6.584   9.071 -0.1019 -0.7020  0.2319
  699MOL0     C96371   2.734   6.472   9.150 -0.4913  0.1370  0.3902
  699MOL0     O96372   3.021   6.292   9.154 -0.2453 -0.3343  0.0785
  699MOL0     C96373   3.160   6.142   9.315 -1.2550  0.0008  0.8730
  699MOL0     C96374   3.237   6.058   9.394  0.2653  0.1546  0.3210
  699MOL0     N96375   3.171   5.281   9.511  0.5761  0.0261 -0.1163
  699MOL0     N96376   3.073   5.196   9.545 -1.2114 -0.2785  0.3986
  699MOL0     C96377   2.124   5.109   9.676  0.5449  0.2801  0.9936
  699MOL0     C96378   2.061   4.987   9.691 -1.4429  0.0434 -0.4793
  699MOL0     C96379   1.813   4.645   9.893  1.1397  0.4999 -0.3700
  699MOL0     C96380   1.961   4.499   9.843  0.6260 -1.3684  1.0797
  699MOL0     C96381   1.909   4.297   9.832 -0.1952 -0.0140 -0.7354
  699MOL0     C96382   1.712   4.236   9.880 -0.0250  0.4066  0.0784
  699MOL0     O96383   1.680   4.114   9.903  0.2038  0.3235  0.7241
  699MOL0     C96384   1.545   4.081   9.940 -1.1005 -0.1283 -1.0904
  699MOL0     C96385   1.526   4.079  10.090  0.8211 -0.3925 -1.1470
  699MOL0     C96386   1.376   4.093  10.134  0.5478 -0.2726 -0.4232
  699MOL0     C96387   1.300   3.955  10.115 -0.0398  0.0957 -0.0666
  699MOL0     C96388   1.202   3.949  10.219 -1.1056 -0.5659 -0.7074
  699MOL0     C96389   1.103   3.956  10.298 -0.3682 -0.3805  0.4508
  699MOL0     C96390   1.566   4.381   9.929  0.3881  0.0999 -1.3773
  699MOL0     C96391   1.620   4.581   9.938  0.3248 -0.8717  0.5383
  699MOL0     C96392   1.510   4.681   9.940  0.2104 -0.1949  0.0252
  699MOL0     H96393   2.007   4.981  10.016  1.4615  2.4410  1.2272
  699MOL0     H96394   2.109   5.214   9.998 -5.2972  0.3847  0.2087
  699MOL0     H96395   2.394   5.174   9.797 -1.1104  0.3663  1.2856
  699MOL0     H96396   2.372   5.309   9.913 -0.7721  2.5733 -1.2226
  699MOL0     H96397   2.464   5.479   9.784  1.1666  1.1680 -0.4366
  699MOL0     H96398   2.575   5.348   9.777  1.5601  0.5234 -3.2168
  699MOL0     H96399   2.373   5.414   9.554  0.7981  1.2617  0.8513
  699MOL0     H96400   2.548   5.446   9.548  0.9942 -1.4405 -0.8148
  699MOL0     H96401   2.574   5.182   9.586 -2.4715 -2.9871 -0.1875
  699MOL0     H96402   2.397   5.177   9.561 -2.6032  3.3286  3.2744
  699MOL0     H96403   2.424   5.308   9.360 -2.1151 -1.4239  1.0865
  699MOL0     H96404   2.498   5.156   9.336  1.1511  1.0918 -2.2097
  699MOL0     H96405   2.644   5.314   9.229 -2.2403 -0.7825 -0.0531
  699MOL0     H96406   2.678   5.392   9.375 -1.7676 -0.5022  1.2707
  699MOL0     H96407   2.832   5.176   9.290 -2.0994 -0.9413 -1.9791
  699MOL0     H96408   2.697   5.090   9.364 -3.9068  2.0815  3.2349
  699MOL0     H96409   2.781   5.282   9.554 -0.0375 -0.4146  1.8188
  699MOL0     H96410   2.847   5.111   9.551  2.2224  1.1132  0.7691
  699MOL0     H96411   2.928   5.410   9.331  0.5614 -0.4528 -1.2808
  699MOL0     H96412   3.165   5.536   9.280  1.0232  0.8960  0.7999
  699MOL0     H96413   3.299   5.463   9.365  0.5519  1.9545  1.8559
  699MOL0     H96414   3.110   5.660   9.492  1.9579  2.3913  3.5147
  699MOL0     H96415   3.239   5.574   9.579 -1.9084  1.3084  1.6130
  699MOL0     H96416   3.391   5.690   9.396 -0.5466 -0.9574 -1.5086
  699MOL0     H96417   3.253   5.787   9.369  2.3184 -0.2270 -2.1001
  699MOL0     H96418   3.371   5.787   9.653  3.0094 -0.1304  0.1005
  699MOL0     H96419   3.423   5.886   9.513  0.1526  0.2281 -1.1225
  699MOL0     H96420   3.007   5.998   9.625  1.3705 -3.0474 -0.9983
  699MOL0     H96421   2.786   6.078   9.574  3.8056 -1.0033  0.7990
  699MOL0     H96422   2.773   6.148   9.407  2.9556 -0.7127 -1.8885
  699MOL0     H96423   2.824   6.255   9.525  1.5953  0.2296  0.1189
  699MOL0     H96424   2.984   6.582   9.347  2.8051  2.3510 -2.6342
  699MOL0     H96425   2.929   6.796   9.208  0.5365 -1.2934  1.2636
  699MOL0     H96426   2.888   6.901   8.878 -0.5292  0.0863  0.1520
  699MOL0     H96427   2.920   6.718   8.881 -0.6310 -0.6018 -1.3129
  699MOL0     H96428   2.794   6.794   8.678 -3.9089 -2.3763 -1.3145
  699MOL0     H96429   2.688   6.695   8.776  0.6283  0.1358  1.5493
  699MOL0     H96430   2.570   6.914   8.856 -0.1216  2.3647 -1.5255
  699MOL0     H96431   2.574   6.874   8.685 -0.5326 -1.6087  0.2636
  699MOL0     H96432   2.767   7.029   8.660 -1.3000  0.8917 -0.1225
  699MOL0     H96433   2.777   7.073   8.833  0.1081 -3.7510  3.0231
  699MOL0     H96434   2.508   7.111   8.667 -0.5012  1.3256 -1.3462
  699MOL0     H96435   2.541   7.132   8.834 -0.9220 -2.9388 -0.1029
  699MOL0     H96436   2.748   7.265   8.648  1.1665  2.6402 -1.1340
  699MOL0     H96437   2.678   7.339   8.785 -0.1660 -0.5624  0.2425
  699MOL0     H96438   2.503   7.418   8.662 -1.3884  0.7434 -2.9601
  699MOL0     H96439   2.512   7.307   8.530  1.1089  3.1495 -3.8273
  699MOL0     H96440   2.584   7.547   8.478  2.5960  4.4361  2.5458
  699MOL0     H96441   2.692   7.418   8.428  1.1300  1.0729 -0.1503
  699MOL0     H96442   2.631   6.581   8.992  0.3385  0.3933 -0.2602
  699MOL0     H96443   2.679   6.381   9.128 -4.6481  3.0094 -2.7557
  699MOL0     H96444   3.217   6.198   9.241  0.6780 -1.2017  1.3733
  699MOL0     H96445   3.345   6.060   9.381  0.2598  3.4582 -0.0554
  699MOL0     H96446   2.151   5.133   9.574  0.0065  0.3372  0.8604
  699MOL0     H96447   2.065   4.920   9.605 -0.4974  1.6714 -1.7512
  699MOL0     H96448   2.057   4.545   9.823 -1.4355  2.8608 -0.1337
  699MOL0     H96449   1.986   4.221   9.822 -0.5523 -1.5559  4.9076
  699MOL0     H96450   1.471   4.150   9.898  0.5291 -0.4849 -4.9837
  699MOL0     H96451   1.521   3.982   9.899  0.6005 -2.0060  2.0690
  699MOL0     H96452   1.578   4.166  10.131 -1.1831  1.2076 -1.8008
  699MOL0     H96453   1.565   3.984  10.129 -1.5126 -0.8572  0.3025
  699MOL0     H96454   1.375   4.123  10.239 -2.1853 -0.0183 -0.4458
  699MOL0     H96455   1.324   4.164  10.068 -1.6350 -0.8100  0.6283
  699MOL0     H96456   1.371   3.877  10.141 -0.8249 -0.9741 -1.0295
  699MOL0     H96457   1.263   3.946  10.012  0.6689 -1.2359 -0.2269
  699MOL0     H96458   1.019   3.980  10.360 -0.1110  2.2806 -0.0952
  699MOL0     H96459   1.466   4.362   9.965 -0.9795  2.4380 -3.6088
  699MOL0     H96460   1.518   4.752   9.857  1.6276  0.7164  0.9002
  699MOL0     H96461   1.414   4.628   9.940  1.5005 -2.6549 -1.2259
  699MOL0     H96462   1.525   4.746  10.027  1.6050 -1.6451  0.9145
  700MOL0     O96463   5.589   0.773   6.724  0.8489 -0.3539 -0.1953
  700MOL0     C96464   5.588   0.883   6.666  0.5149 -0.5378 -0.2077
  700MOL0     O96465   5.573   0.898   6.532  0.7220  0.7692  0.2296
  700MOL0     C96466   5.570   0.797   6.442 -0.1364  0.5394  0.3566
  700MOL0     C96467   5.484   0.813   6.333  0.0532  1.2445 -0.1553
  700MOL0     C96468   5.475   0.712   6.234 -0.3479  0.0108 -0.9659
  700MOL0     C96469   5.558   0.600   6.237  0.4500  0.7858 -0.0263
  700MOL0     O96470   5.562   0.492   6.149  0.2372  0.4487  0.9860
  700MOL0     C96471   5.461   0.491   6.044 -0.1953  0.3326 -0.2974
  700MOL0     C96472   5.459   0.360   5.976 -0.6563 -0.2692  0.2206
  700MOL0     C96473   5.383   0.366   5.845 -0.1738 -0.2933  0.2512
  700MOL0     C96474   5.377   0.217   5.806  0.2143 -0.1325 -0.3800
  700MOL0     C96475   5.309   0.194   5.673 -1.4235 -0.1777 -0.9626
  700MOL0     C96476   5.414   0.212   5.566  0.3974 -0.0861  0.8723
  700MOL0     C96477   5.337   0.227   5.432  0.2060  0.4623  0.5215
  700MOL0     C96478   5.454   0.241   5.336 -0.2217 -0.3476  0.0513
  700MOL0     N96479   5.404   0.255   5.199 -0.0161  0.7088  0.1779
  700MOL0     C96480   5.469   0.192   5.083 -0.0784 -1.0990  0.1139
  700MOL0     C96481   5.414   0.250   4.980 -0.2141 -0.7822 -0.0684
  700MOL0     C96482   5.456   0.228   4.841 -0.1292  0.0739  0.4590
  700MOL0     C96483   5.577   0.323   4.796  0.6572  0.7709  0.0122
  700MOL0     C96484   5.536   0.446   4.714  0.5810 -0.4196  0.3309
  700MOL0     C96485   5.599   0.467   4.579  0.4178 -0.3226 -0.3333
  700MOL0     O96486   5.581   0.360   4.494 -0.1445 -0.1840  0.3487
  700MOL0     C96487   5.454   0.313   4.455  0.3527 -0.0959 -0.8292
  700MOL0     C96488   5.445   0.182   4.441  1.4844 -0.0706 -0.9280
  700MOL0     C96489   5.327   0.123   4.380 -0.6034  0.6470  0.1671
  700MOL0     C96490   5.345  -0.035   4.350  0.1967 -0.1540  0.3894
  700MOL0     C96491   5.207   0.202   4.359 -0.0528  0.3637  0.0942
  700MOL0     C96492   5.077   0.153   4.310  0.3422 -0.0684 -0.3485
  700MOL0     O96493   4.967   0.235   4.307  0.5986  0.0160  0.1570
  700MOL0     C96494   4.849   0.178   4.255 -0.1692 -0.4146 -0.0978
  700MOL0     C96495   4.777   0.110   4.347 -1.6467 -0.1609  0.5202
  700MOL0     C96496   4.657   0.052   4.317 -0.3320 -0.6152  0.2377
  700MOL0     C96497   4.605   0.062   4.188  1.0630 -0.4832  0.5567
  700MOL0     O96498   4.475   0.025   4.148  0.0752 -0.3103 -0.2144
  700MOL0     C96499   4.387  -0.047   4.230 -0.0657  0.2911 -0.8676
  700MOL0     C96500   4.298  -0.133   4.150 -0.2274  0.2691 -1.4332
  700MOL0     C96501   4.209  -0.063   4.060 -0.0738  0.4181 -0.3653
  700MOL0     C96502   4.150   0.075   4.099  0.6191  0.4004 -0.6986
  700MOL0     C96503   4.028   0.111   4.011 -0.0814  0.1447  0.3573
  700MOL0     C96504   3.979   0.254   4.042 -0.3386  0.2455 -0.1827
  700MOL0     C96505   3.882   0.253   4.158  0.5457 -0.8672  0.3332
  700MOL0     C96506   3.850   0.408   4.178 -1.4972  0.3901 -0.4312
  700MOL0    Cl96507   3.762   0.407   4.321  0.0947 -0.4440  0.2085
  700MOL0     C96508   4.675   0.137   4.091 -0.6349  0.0141  0.1295
  700MOL0     C96509   4.805   0.191   4.120 -0.3562 -0.1738 -0.9518
  700MOL0     O96510   5.070   0.038   4.267 -0.2452  0.8382  0.9484
  700MOL0     C96511   5.218   0.338   4.397  0.0395 -0.3035 -1.2238
  700MOL0     C96512   5.343   0.397   4.436  0.9448 -0.7554  0.2189
  700MOL0     N96513   5.303   0.328   5.016 -0.4329  0.4529 -0.7189
  700MOL0     N96514   5.301   0.330   5.152  0.1117 -0.1950 -0.3433
  700MOL0     C96515   5.657   0.593   6.343  0.5126 -0.0727 -0.4433
  700MOL0     C96516   5.651   0.686   6.447  0.5049  0.5974 -0.3912
  700MOL0     C96517   5.611   1.011   6.746 -0.1474  0.6583 -0.2298
  700MOL0     C96518   5.694   1.117   6.683  0.3740  0.5465 -0.2549
  700MOL0     C96519   5.723   1.226   6.761 -0.8089 -0.5518 -0.1270
  700MOL0     C96520   5.671   1.246   6.886 -0.4956 -0.3151 -0.2952
  700MOL0     O96521   5.678   1.352   6.957 -0.3456  0.8608 -1.1745
  700MOL0     C96522   5.728   1.474   6.911  0.2479  0.3133 -0.0826
  700MOL0     C96523   5.777   1.565   7.022 -0.2189  0.5636 -0.1431
  700MOL0     C96524   5.661   1.617   7.104  0.2694 -0.3031  0.1379
  700MOL0     C96525   5.713   1.705   7.215 -0.5245 -0.1775 -0.3791
  700MOL0     C96526   5.774   1.829   7.164 -0.6792 -0.8290 -0.4783
  700MOL0     C96527   5.812   1.934   7.114 -0.2133 -0.0146  0.7595
  700MOL0     C96528   5.593   1.150   6.941  0.3222 -0.3263  0.3553
  700MOL0     C96529   5.560   1.032   6.878 -0.3461 -1.2169  0.0582
  700MOL0     C96530   5.450   0.945   6.942  0.7119 -0.3964 -0.9528
  700MOL0     H96531   5.422   0.902   6.325 -1.9957 -0.1050 -0.0255
  700MOL0     H96532   5.419   0.724   6.142  1.1215 -4.4842 -2.7603
  700MOL0     H96533   5.479   0.573   5.974 -3.5875  0.6420 -0.9569
  700MOL0     H96534   5.363   0.502   6.091 -1.7640  0.2381 -3.3202
  700MOL0     H96535   5.559   0.319   5.957 -0.6550 -0.4302  0.5691
  700MOL0     H96536   5.412   0.288   6.044 -2.3655 -0.9782 -1.6150
  700MOL0     H96537   5.288   0.418   5.863  0.2963  1.3755 -1.8045
  700MOL0     H96538   5.432   0.423   5.766 -4.3649 -1.4681 -3.6167
  700MOL0     H96539   5.470   0.171   5.841 -0.6662  1.1303  4.1779
  700MOL0     H96540   5.298   0.174   5.867 -0.8477 -0.4514 -1.9317
  700MOL0     H96541   5.232   0.271   5.669 -1.3021  0.2484  2.2629
  700MOL0     H96542   5.267   0.094   5.662  0.2892 -1.3930  2.1906
  700MOL0     H96543   5.461   0.307   5.592 -3.1677  1.2321  3.3873
  700MOL0     H96544   5.481   0.127   5.571  0.2825 -0.3540 -1.1516
  700MOL0     H96545   5.256   0.301   5.435  0.6862  1.0051  0.3245
  700MOL0     H96546   5.292   0.128   5.422  0.8629  0.1709  0.4414
  700MOL0     H96547   5.510   0.332   5.360 -0.1344 -0.6619  1.1130
  700MOL0     H96548   5.534   0.166   5.346 -0.3952 -0.3755  1.4148
  700MOL0     H96549   5.552   0.122   5.093  2.2568  1.7717  3.2939
  700MOL0     H96550   5.377   0.226   4.765 -1.5521  2.4981  1.7171
  700MOL0     H96551   5.499   0.128   4.846  2.7090  1.0969 -1.3771
  700MOL0     H96552   5.635   0.350   4.885  2.7987 -0.3771 -0.9805
  700MOL0     H96553   5.653   0.276   4.733  0.5157  0.7252 -0.1254
  700MOL0     H96554   5.429   0.443   4.695  0.7871 -0.3604 -0.9462
  700MOL0     H96555   5.547   0.534   4.778 -1.2690  1.9458 -2.3677
  700MOL0     H96556   5.584   0.566   4.535  1.5422  0.7250  1.4832
  700MOL0     H96557   5.705   0.483   4.599  0.6286  3.5501 -3.2652
  700MOL0     H96558   5.520   0.113   4.479 -1.2430 -2.0844  1.2161
  700MOL0     H96559   5.446  -0.070   4.373 -1.2019 -4.4482  0.8529
  700MOL0     H96560   5.320  -0.058   4.246 -0.4711 -0.5779  0.6331
  700MOL0     H96561   5.263  -0.081   4.405 -2.4490 -0.6387 -3.5359
  700MOL0     H96562   4.814   0.081   4.446 -0.8174  0.8754  0.5269
  700MOL0     H96563   4.601  -0.007   4.389  0.2977 -2.3989 -0.6859
  700MOL0     H96564   4.438  -0.123   4.291 -0.5110 -1.1752 -2.2719
  700MOL0     H96565   4.327   0.014   4.298 -1.9871 -1.5136 -0.8326
  700MOL0     H96566   4.359  -0.191   4.080  2.5295  1.3318 -0.0302
  700MOL0     H96567   4.251  -0.206   4.216  1.6760  1.7793  1.7944
  700MOL0     H96568   4.121  -0.121   4.031 -1.1346  1.9568 -0.3629
  700MOL0     H96569   4.269  -0.026   3.976 -0.6479  2.3958  0.0359
  700MOL0     H96570   4.232   0.147   4.087  2.0887 -1.2226 -0.8106
  700MOL0     H96571   4.113   0.072   4.202 -1.8650  0.3011 -1.5265
  700MOL0     H96572   4.055   0.116   3.905  3.4091  2.1930  1.1840
  700MOL0     H96573   3.955   0.030   4.021 -0.3213  0.3908  0.5955
  700MOL0     H96574   3.928   0.282   3.950 -0.9794 -1.0619 -0.2511
  700MOL0     H96575   4.069   0.310   4.067 -0.6430  0.5344  0.2834
  700MOL0     H96576   3.917   0.221   4.256 -0.4744 -0.6874  0.7686
  700MOL0     H96577   3.790   0.210   4.117  0.3928  1.2371 -1.7753
  700MOL0     H96578   3.789   0.448   4.096 -0.4780  0.7604 -1.0199
  700MOL0     H96579   3.940   0.467   4.195 -2.5755  1.8741  0.4115
  700MOL0     H96580   4.633   0.145   3.991  0.5524  3.2100 -0.2555
  700MOL0     H96581   4.872   0.241   4.052 -0.2867  3.1021  1.2861
  700MOL0     H96582   5.130   0.400   4.381 -1.6488 -1.9251  1.1460
  700MOL0     H96583   5.343   0.504   4.455  0.0130 -0.0128 -3.2399
  700MOL0     H96584   5.733   0.515   6.342 -0.1540 -0.7531 -2.3963
  700MOL0     H96585   5.722   0.680   6.528  0.1197  0.0868 -0.0866
  700MOL0     H96586   5.743   1.100   6.588 -1.3724 -1.9202 -0.8127
  700MOL0     H96587   5.793   1.288   6.706  1.5390 -3.7132 -0.9511
  700MOL0     H96588   5.799   1.458   6.829 -3.6343 -1.3364 -3.4747
  700MOL0     H96589   5.647   1.534   6.870 -1.9832 -2.1980  0.3925
  700MOL0     H96590   5.824   1.653   6.978  1.9969  0.1189  1.1898
  700MOL0     H96591   5.857   1.513   7.074  1.2634  0.0756 -2.7516
  700MOL0     H96592   5.592   1.672   7.040 -0.0305  0.1877  0.8828
  700MOL0     H96593   5.594   1.542   7.147 -1.9214  0.0789 -2.3359
  700MOL0     H96594   5.779   1.650   7.282 -2.9940 -1.0788  1.4637
  700MOL0     H96595   5.628   1.732   7.278  0.3293  1.0550  0.2949
  700MOL0     H96596   5.838   2.034   7.085 -2.0853 -0.1760 -1.8579
  700MOL0     H96597   5.538   1.172   7.032 -1.4343  0.9761 -0.9674
  700MOL0     H96598   5.469   0.837   6.950 -4.7153 -1.5222  2.0021
  700MOL0     H96599   5.431   0.973   7.046  0.3253 -0.9383 -0.8711
  700MOL0     H96600   5.362   0.952   6.878  0.0229  3.2270  0.2000
  701MOL0     O96601  11.101   0.891   5.622  0.6038 -0.2615  0.0382
  701MOL0     C96602  11.114   0.898   5.500 -0.3835  0.0887  0.7633
  701MOL0     O96603  11.228   0.927   5.441  0.2917 -0.2122  0.4136
  701MOL0     C96604  11.355   0.933   5.495 -0.2919 -0.4519 -0.5327
  701MOL0     C96605  11.466   0.864   5.449  0.7246 -0.1545  0.1473
  701MOL0     C96606  11.600   0.877   5.504 -0.2712  0.4567 -1.6108
  701MOL0     C96607  11.618   0.965   5.612  0.2393  0.5499 -0.5629
  701MOL0     O96608  11.727   0.983   5.696 -0.1444  0.3989 -0.3437
  701MOL0     C96609  11.848   0.911   5.672 -0.7942 -0.4971  0.1827
  701MOL0     C96610  11.911   0.967   5.547  0.5844 -0.5243 -0.2980
  701MOL0     C96611  12.011   0.865   5.497  0.7816 -0.4121  0.2162
  701MOL0     C96612  12.069   0.915   5.359 -0.5989 -0.2797 -0.6807
  701MOL0     C96613  12.079   0.804   5.254 -0.5231  0.7159  1.0036
  701MOL0     C96614  11.963   0.728   5.204  0.1337  0.0559  1.2737
  701MOL0     C96615  12.001   0.602   5.131 -0.1315  0.6591  0.1845
  701MOL0     C96616  11.981   0.471   5.213 -0.2639  0.5894  0.4881
  701MOL0     N96617  11.999   0.340   5.139  0.4432 -0.1416 -0.0383
  701MOL0     C96618  11.889   0.266   5.103  0.1896 -0.5681  0.6023
  701MOL0     C96619  11.941   0.148   5.052  0.2157  0.0096 -0.2903
  701MOL0     C96620  11.865   0.055   4.990 -0.1420  0.1598  0.1193
  701MOL0     C96621  11.918  -0.095   5.005  0.1784  0.4702  1.1357
  701MOL0     C96622  11.833  -0.207   4.939  0.1987 -0.2898 -0.3048
  701MOL0     C96623  11.898  -0.340   4.903 -0.1221 -0.0177  1.0080
  701MOL0     O96624  12.002  -0.316   4.817  0.1695 -0.4789  0.1545
  701MOL0     C96625  12.093  -0.412   4.801 -0.1475 -1.1440  0.1302
  701MOL0     C96626  12.087  -0.550   4.819 -0.5148 -0.6459  0.3888
  701MOL0     C96627  12.193  -0.640   4.796  0.1519 -0.1484 -0.4264
  701MOL0     C96628  12.174  -0.782   4.825 -0.4256  0.4920  0.9141
  701MOL0     C96629  12.320  -0.590   4.751  0.7566  0.0450 -0.4923
  701MOL0     C96630  12.442  -0.668   4.739  0.5842  0.3278 -0.2967
  701MOL0     O96631  12.517  -0.606   4.657 -0.6921 -0.1138 -0.2291
  701MOL0     C96632  12.655  -0.628   4.653  0.0176 -0.0189  0.1085
  701MOL0     C96633  12.724  -0.673   4.761 -0.8190  0.7682  0.0262
  701MOL0     C96634  12.867  -0.695   4.763  0.6849 -0.3018  0.9641
  701MOL0     C96635  12.941  -0.667   4.642 -1.3884  0.7673 -0.0893
  701MOL0     O96636  13.080  -0.681   4.632 -0.1459  0.1332  0.4134
  701MOL0     C96637  13.158  -0.712   4.741 -0.5774  0.1122 -0.2173
  701MOL0     C96638  13.150  -0.861   4.789 -0.8216 -0.0313  0.4057
  701MOL0     C96639  13.256  -0.944   4.730 -0.9779  0.0245 -0.9624
  701MOL0     C96640  13.268  -1.079   4.814 -0.1161 -0.2072 -0.2587
  701MOL0     C96641  13.385  -1.161   4.774  0.1264 -0.1848 -0.6436
  701MOL0     C96642  13.403  -1.298   4.854  0.4164  0.1632  0.3024
  701MOL0     C96643  13.538  -1.372   4.819  1.1439 -0.0414 -0.2694
  701MOL0     C96644  13.587  -1.431   4.949  0.9806 -0.5581 -0.7209
  701MOL0    Cl96645  13.727  -1.347   5.037 -0.3976  0.1838 -0.5960
  701MOL0     C96646  12.863  -0.624   4.535  0.2146 -0.6835 -0.2026
  701MOL0     C96647  12.720  -0.596   4.538  0.0282  0.6902 -0.8689
  701MOL0     O96648  12.460  -0.783   4.781  0.1501 -0.3631  1.2365
  701MOL0     C96649  12.317  -0.448   4.729 -0.6106 -0.0316 -0.3197
  701MOL0     C96650  12.218  -0.357   4.772 -0.1895  0.0823 -0.9685
  701MOL0     N96651  12.082   0.161   5.057 -0.0736 -0.3224 -0.6850
  701MOL0     N96652  12.108   0.274   5.110 -0.0915  0.2060  0.1561
  701MOL0     C96653  11.505   1.036   5.656  0.5577  0.1036 -0.5818
  701MOL0     C96654  11.376   1.021   5.601 -0.9269 -0.8225  0.0076
  701MOL0     C96655  10.985   0.887   5.420  0.1511 -0.2970  0.0190
  701MOL0     C96656  10.878   0.820   5.478  0.3003  0.3467 -0.4302
  701MOL0     C96657  10.763   0.796   5.404 -0.3600  1.0090  0.5452
  701MOL0     C96658  10.750   0.833   5.272 -0.1280  0.7990  0.1577
  701MOL0     O96659  10.646   0.806   5.196 -0.3581 -0.6015  0.4812
  701MOL0     C96660  10.519   0.763   5.253  0.4892 -0.5670  0.7160
  701MOL0     C96661  10.448   0.866   5.338 -0.2129 -1.5334 -0.3547
  701MOL0     C96662  10.297   0.825   5.361 -0.2460 -0.1174 -0.1113
  701MOL0     C96663  10.208   0.847   5.239 -0.6547  0.3429 -0.2459
  701MOL0     C96664  10.077   0.866   5.301 -0.0085 -0.2055  0.4478
  701MOL0     C96665   9.975   0.880   5.365 -0.0524  0.1136  0.2584
  701MOL0     C96666  10.856   0.892   5.210  0.3285  0.7369 -0.2683
  701MOL0     C96667  10.971   0.926   5.284 -1.2671  0.2088  0.1769
  701MOL0     C96668  11.070   1.024   5.218  0.2379 -0.8298 -0.1637
  701MOL0     H96669  11.463   0.809   5.355  1.7371  1.7193 -1.0605
  701MOL0     H96670  11.689   0.828   5.467 -0.5193 -0.2335 -1.2970
  701MOL0     H96671  11.830   0.805   5.653  0.7790 -0.5940 -0.9824
  701MOL0     H96672  11.926   0.922   5.747 -2.3495  1.2397  1.6420
  701MOL0     H96673  11.829   0.981   5.476  0.3175  4.1914  0.5825
  701MOL0     H96674  11.960   1.061   5.576  1.1780 -1.3836  1.6104
  701MOL0     H96675  12.097   0.852   5.563  0.5686  0.4154  0.6755
  701MOL0     H96676  11.962   0.770   5.478  2.4735 -0.8128 -2.7030
  701MOL0     H96677  12.015   0.992   5.302 -2.4754  0.8901  2.4515
  701MOL0     H96678  12.173   0.947   5.370 -1.3142  2.0759 -0.0632
  701MOL0     H96679  12.145   0.732   5.303 -0.2581  0.7256  0.6618
  701MOL0     H96680  12.131   0.841   5.166  1.5465 -1.7242  1.0529
  701MOL0     H96681  11.892   0.707   5.284  0.7591  1.9919  2.3966
  701MOL0     H96682  11.901   0.792   5.140 -0.1052 -0.0779  1.3682
  701MOL0     H96683  12.109   0.592   5.117 -0.3369  0.0270 -1.0600
  701MOL0     H96684  11.963   0.595   5.029  5.3042  2.1589 -2.3461
  701MOL0     H96685  12.056   0.466   5.292  0.4045  3.5190  0.1523
  701MOL0     H96686  11.880   0.470   5.254  0.4126  0.1547  2.2278
  701MOL0     H96687  11.783   0.290   5.105  0.0543 -0.7871 -1.4468
  701MOL0     H96688  11.865   0.089   4.886  0.1863  0.3046  0.1674
  701MOL0     H96689  11.764   0.055   5.031  0.0642 -0.9276  0.6658
  701MOL0     H96690  12.014  -0.096   4.953 -0.2595 -0.9893  0.2716
  701MOL0     H96691  11.930  -0.122   5.110  1.3882 -2.5961  0.3247
  701MOL0     H96692  11.760  -0.232   5.017  0.1324 -1.4738 -0.7319
  701MOL0     H96693  11.772  -0.176   4.854 -3.1515 -3.2481  0.7860
  701MOL0     H96694  11.933  -0.377   5.000 -1.6782  1.5666  2.2277
  701MOL0     H96695  11.826  -0.403   4.850  2.3789 -2.6944  0.4966
  701MOL0     H96696  11.990  -0.591   4.845  0.0762 -1.7045  0.9891
  701MOL0     H96697  12.190  -0.855   4.745  2.5525  0.6653  1.2339
  701MOL0     H96698  12.078  -0.803   4.873 -1.0163 -1.7116 -1.0656
  701MOL0     H96699  12.245  -0.807   4.905 -3.0717 -1.8888  2.6927
  701MOL0     H96700  12.668  -0.692   4.852 -0.8360 -0.8390 -0.2925
  701MOL0     H96701  12.908  -0.733   4.856 -0.0051  1.8795  2.2408
  701MOL0     H96702  13.262  -0.685   4.720  0.9101 -1.6709  3.8300
  701MOL0     H96703  13.127  -0.652   4.827  0.1396  0.4193 -0.1620
  701MOL0     H96704  13.171  -0.871   4.896  1.3113  0.7261  0.1152
  701MOL0     H96705  13.051  -0.901   4.767 -1.4811  0.5533  2.1485
  701MOL0     H96706  13.354  -0.896   4.722 -1.0723 -0.0197 -3.0478
  701MOL0     H96707  13.236  -0.976   4.627 -0.1783 -2.8534 -0.3114
  701MOL0     H96708  13.175  -1.134   4.798 -0.5035 -0.5386  2.6539
  701MOL0     H96709  13.286  -1.072   4.921  2.5733 -0.6608 -0.6026
  701MOL0     H96710  13.382  -1.179   4.666 -1.2269  0.1205 -0.6787
  701MOL0     H96711  13.477  -1.105   4.789  1.5241 -2.4257 -0.3016
  701MOL0     H96712  13.319  -1.366   4.836  1.6974 -1.0341 -1.4635
  701MOL0     H96713  13.406  -1.272   4.960  1.0922  1.9192 -0.1122
  701MOL0     H96714  13.604  -1.306   4.763 -0.7973 -1.5979 -4.9671
  701MOL0     H96715  13.517  -1.450   4.745  0.2508 -1.0955  1.0452
  701MOL0     H96716  13.626  -1.529   4.921 -0.7652 -1.6553  0.4467
  701MOL0     H96717  13.505  -1.457   5.017  4.2492 -1.8095  3.1555
  701MOL0     H96718  12.919  -0.594   4.446  4.1059 -0.4281  2.1143
  701MOL0     H96719  12.659  -0.561   4.455 -1.4447 -0.1348 -0.1679
  701MOL0     H96720  12.412  -0.410   4.694 -1.5142 -0.3406 -3.4238
  701MOL0     H96721  12.222  -0.249   4.780 -0.6939 -0.0337  1.9534
  701MOL0     H96722  11.519   1.098   5.744 -1.0630  1.2501 -1.1088
  701MOL0     H96723  11.301   1.090   5.639 -0.0676 -1.9416  4.1722
  701MOL0     H96724  10.886   0.778   5.578  0.3674  3.4004  0.9431
  701MOL0     H96725  10.689   0.729   5.447  2.0628 -1.6179  0.8521
  701MOL0     H96726  10.456   0.729   5.170  0.6350 -0.9993  0.7803
  701MOL0     H96727  10.527   0.673   5.314 -0.3179 -0.1925  1.4105
  701MOL0     H96728  10.448   0.958   5.280 -2.5742 -2.4043 -1.8714
  701MOL0     H96729  10.499   0.870   5.435 -0.9926 -1.7300  0.0662
  701MOL0     H96730  10.290   0.717   5.376 -0.0529 -0.1393 -0.1799
  701MOL0     H96731  10.265   0.876   5.453 -1.3333  1.4128 -1.2686
  701MOL0     H96732  10.216   0.758   5.177 -3.2676 -0.6951  0.7399
  701MOL0     H96733  10.236   0.927   5.169  3.4220 -1.2197 -0.6461
  701MOL0     H96734   9.878   0.901   5.406 -0.3559  1.3735 -1.0065
  701MOL0     H96735  10.854   0.925   5.106  4.2627 -0.4155 -0.8789
  701MOL0     H96736  11.164   0.972   5.200  1.0197  0.0581  1.1516
  701MOL0     H96737  11.023   1.053   5.123  0.7638  2.1288  0.3867
  701MOL0     H96738  11.102   1.112   5.273  1.0432 -1.6906  0.7751
  702MOL0     O96739   2.275   8.139   9.483 -0.1594  0.4503  0.1624
  702MOL0     C96740   2.305   8.037   9.546  0.3846 -2.1532 -0.3782
  702MOL0     O96741   2.417   8.027   9.619  0.0604  0.7818  0.4216
  702MOL0     C96742   2.455   8.141   9.676  0.1592  0.0817 -1.0644
  702MOL0     C96743   2.579   8.196   9.633  0.3485  0.0399  0.9495
  702MOL0     C96744   2.632   8.315   9.684  0.5108  0.4435 -0.0603
  702MOL0     C96745   2.575   8.376   9.799  0.1093 -0.4706 -0.1773
  702MOL0     O96746   2.632   8.478   9.867 -0.9761 -1.1488  1.3282
  702MOL0     C96747   2.712   8.427   9.974  0.0753  0.0285  0.3573
  702MOL0     C96748   2.797   8.538  10.042  0.2428 -1.5732 -0.3510
  702MOL0     C96749   2.910   8.593   9.952  0.4520 -0.6761 -0.0669
  702MOL0     C96750   2.997   8.684  10.034 -0.5590 -0.4459  0.9840
  702MOL0     C96751   3.138   8.689   9.993  0.3049  0.0233  0.6357
  702MOL0     C96752   3.221   8.763  10.089 -0.3463  0.3713 -0.1466
  702MOL0     C96753   3.377   8.762  10.067 -0.7089 -0.2714  1.1052
  702MOL0     C96754   3.444   8.890  10.124  0.7569  0.0609  0.1363
  702MOL0     N96755   3.589   8.883  10.173  0.2911  0.3663  0.0197
  702MOL0     C96756   3.646   8.815  10.276 -0.3252 -0.1615  1.0184
  702MOL0     C96757   3.783   8.846  10.263  0.2275 -0.3184  0.9258
  702MOL0     C96758   3.900   8.802  10.343 -0.8861  0.7195 -0.0386
  702MOL0     C96759   3.887   8.838  10.495  1.3550  0.1861  0.1958
  702MOL0     C96760   3.984   8.766  10.585  0.7092 -0.4161  0.5650
  702MOL0     C96761   3.959   8.798  10.731 -0.0039  1.0251  0.7468
  702MOL0     O96762   4.040   8.715  10.809  0.0468 -0.0604 -0.9763
  702MOL0     C96763   3.992   8.585  10.839  0.0708 -0.6930 -1.2247
  702MOL0     C96764   4.068   8.511  10.931  0.7395 -0.2077 -0.3515
  702MOL0     C96765   4.033   8.389  10.984 -0.1851  1.7694 -0.0102
  702MOL0     C96766   4.121   8.328  11.094  0.1807  0.1379  0.6070
  702MOL0     C96767   3.918   8.328  10.939 -0.1325 -0.1235  0.2269
  702MOL0     C96768   3.882   8.189  10.976  0.8585  0.0282  0.2772
  702MOL0     O96769   3.990   8.102  10.997 -0.0784  0.3412  0.0485
  702MOL0     C96770   3.969   7.980  11.059 -0.0286  0.6211 -0.4374
  702MOL0     C96771   3.940   7.868  10.998 -0.0054 -0.1744 -0.6077
  702MOL0     C96772   3.923   7.747  11.065 -1.1050 -0.2503 -0.3394
  702MOL0     C96773   3.955   7.737  11.198  0.8637 -0.2268 -0.5223
  702MOL0     O96774   3.946   7.619  11.266 -0.5511  0.2843 -0.5858
  702MOL0     C96775   3.952   7.493  11.189 -0.4569  0.6296 -0.4446
  702MOL0     C96776   3.986   7.378  11.279 -0.1780  0.0180  1.4213
  702MOL0     C96777   3.863   7.300  11.331  1.0660 -0.2220  0.3478
  702MOL0     C96778   3.903   7.183  11.429  0.0729  0.0408 -0.0937
  702MOL0     C96779   3.765   7.140  11.476 -0.9909  0.3861  0.6972
  702MOL0     C96780   3.770   7.030  11.591 -0.0885 -0.3931 -0.2835
  702MOL0     C96781   3.624   7.005  11.631 -0.4148  1.3173 -0.0272
  702MOL0     C96782   3.601   6.884  11.711  0.5045  0.8136  0.4045
  702MOL0    Cl96783   3.473   6.924  11.844  0.7803  0.0863  0.0276
  702MOL0     C96784   4.000   7.847  11.271 -0.1185  0.1671  0.9814
  702MOL0     C96785   3.993   7.969  11.199  0.9395 -0.0674  0.6449
  702MOL0     O96786   3.765   8.156  10.978  0.3213  0.2461 -0.1072
  702MOL0     C96787   3.835   8.398  10.847  0.1956 -0.4732  0.0870
  702MOL0     C96788   3.878   8.521  10.793  1.4312  0.4275  0.3673
  702MOL0     N96789   3.801   8.928  10.159 -0.3026 -0.4501 -0.3085
  702MOL0     N96790   3.689   8.945  10.100  0.3201  0.0681 -0.5932
  702MOL0     C96791   2.445   8.328   9.847 -0.7333  0.2627 -0.6051
  702MOL0     C96792   2.378   8.225   9.765 -0.2924 -0.1957  0.0209
  702MOL0     C96793   2.204   7.924   9.547 -0.6931  0.2645 -1.2731
  702MOL0     C96794   2.099   7.922   9.461  1.0090 -0.2986  0.0114
  702MOL0     C96795   1.978   7.846   9.484  0.4734  0.0500  0.0075
  702MOL0     C96796   1.967   7.754   9.591 -0.2775  0.2437  0.2428
  702MOL0     O96797   1.862   7.667   9.601  0.0735  0.0032  0.6084
  702MOL0     C96798   1.745   7.718   9.547  0.6633  0.2939  0.4517
  702MOL0     C96799   1.620   7.629   9.570 -0.0100  0.0830 -1.0616
  702MOL0     C96800   1.603   7.594   9.723  0.0571 -1.0892  0.7802
  702MOL0     C96801   1.604   7.441   9.746  0.5174 -0.7567  0.1163
  702MOL0     C96802   1.735   7.388   9.719  0.0858  0.3094 -0.5392
  702MOL0     C96803   1.833   7.325   9.703  1.0828  0.7933 -0.2699
  702MOL0     C96804   2.076   7.752   9.675  0.1435 -0.1378 -0.5739
  702MOL0     C96805   2.193   7.833   9.659  1.0470  0.9929 -0.0391
  702MOL0     C96806   2.278   7.829   9.776 -0.0383  0.0106  0.4020
  702MOL0     H96807   2.637   8.139   9.561  1.5211  0.4970  1.5016
  702MOL0     H96808   2.728   8.363   9.665  0.1113  0.2489 -3.0331
  702MOL0     H96809   2.787   8.352   9.945  1.6613  1.7439 -0.1935
  702MOL0     H96810   2.639   8.385  10.043  0.5321  0.7450  1.3092
  702MOL0     H96811   2.732   8.620  10.074 -0.5220 -2.7998  1.3758
  702MOL0     H96812   2.847   8.486  10.124  0.1491  0.5341  1.1361
  702MOL0     H96813   2.958   8.505   9.909 -0.1065 -1.2962  0.5567
  702MOL0     H96814   2.856   8.645   9.872 -3.4114 -1.7202  1.6800
  702MOL0     H96815   2.949   8.781  10.051 -0.9305 -0.6323  1.0002
  702MOL0     H96816   3.007   8.634  10.131  1.4291  2.5223  2.4842
  702MOL0     H96817   3.135   8.760   9.909 -2.8468  1.0700  1.4832
  702MOL0     H96818   3.170   8.586   9.977  0.7004  0.1079  0.8791
  702MOL0     H96819   3.185   8.866  10.090  0.8034  0.7975  1.0934
  702MOL0     H96820   3.206   8.723  10.190 -0.8851 -0.5132 -0.5620
  702MOL0     H96821   3.400   8.761   9.960 -2.7837 -0.9818  0.6262
  702MOL0     H96822   3.430   8.680  10.117  0.0769  1.2261  2.8629
  702MOL0     H96823   3.424   8.969  10.051 -0.6777 -1.0264 -0.7148
  702MOL0     H96824   3.376   8.910  10.207 -0.1853 -1.0529 -0.3238
  702MOL0     H96825   3.604   8.746  10.348 -1.8440 -0.4561 -0.0866
  702MOL0     H96826   3.986   8.857  10.303 -1.2166  2.5526  1.6379
  702MOL0     H96827   3.905   8.693  10.331 -2.8393  0.5978 -0.0722
  702MOL0     H96828   3.914   8.943  10.510  0.6619  0.0532  2.7584
  702MOL0     H96829   3.786   8.814  10.530  1.5931 -0.8789  0.2139
  702MOL0     H96830   3.957   8.662  10.562  0.8030  0.2372 -3.1620
  702MOL0     H96831   4.090   8.772  10.558  1.4913 -0.4748  3.3586
  702MOL0     H96832   3.995   8.900  10.750 -0.7443  1.7637 -1.5552
  702MOL0     H96833   3.852   8.783  10.748  0.2619 -3.3880 -0.2890
  702MOL0     H96834   4.165   8.550  10.959  2.6900 -3.9869 -1.1516
  702MOL0     H96835   4.177   8.404  11.149 -0.5573 -0.4583  2.2563
  702MOL0     H96836   4.187   8.256  11.045  2.2816  1.0802  1.8810
  702MOL0     H96837   4.058   8.276  11.167  1.1586 -1.4064  0.3920
  702MOL0     H96838   3.913   7.870  10.893  0.7963 -2.6193 -0.9277
  702MOL0     H96839   3.900   7.656  11.010  2.2055 -1.2603 -0.2507
  702MOL0     H96840   3.863   7.468  11.131 -1.4853  2.0320  0.4604
  702MOL0     H96841   4.030   7.500  11.113 -1.5584  1.1385 -1.5574
  702MOL0     H96842   4.055   7.317  11.220 -1.0190  0.8656 -0.5531
  702MOL0     H96843   4.042   7.427  11.358 -0.5104  2.5815  0.1665
  702MOL0     H96844   3.802   7.255  11.252 -1.1285 -0.9008  2.3364
  702MOL0     H96845   3.798   7.368  11.386  2.7537  0.3478  1.7340
  702MOL0     H96846   3.960   7.215  11.516 -0.4183  0.9535 -0.0961
  702MOL0     H96847   3.956   7.100  11.381 -1.3297 -0.8343 -0.1760
  702MOL0     H96848   3.705   7.225  11.510 -3.1472 -0.7716  0.0300
  702MOL0     H96849   3.709   7.101  11.390 -1.6904  0.0793  1.2755
  702MOL0     H96850   3.827   7.063  11.678 -2.2705 -2.3083  2.0183
  702MOL0     H96851   3.813   6.933  11.567  2.1264 -0.8704  4.4777
  702MOL0     H96852   3.565   7.003  11.539 -0.6909 -0.4747  0.1604
  702MOL0     H96853   3.582   7.087  11.690 -1.0004  0.0293  1.4030
  702MOL0     H96854   3.693   6.844  11.755 -0.2228 -1.4016  0.0144
  702MOL0     H96855   3.562   6.810  11.641  0.0300  0.5379  0.9511
  702MOL0     H96856   4.022   7.852  11.377 -0.5974 -1.2874  1.1791
  702MOL0     H96857   4.026   8.054  11.258  0.8487  0.8187 -0.5263
  702MOL0     H96858   3.751   8.355  10.792  3.0494 -1.6003 -3.8067
  702MOL0     H96859   3.805   8.562  10.723 -0.7645 -1.7271  1.2585
  702MOL0     H96860   2.416   8.369   9.943  2.7926 -0.4101  0.9369
  702MOL0     H96861   2.274   8.193   9.774 -0.2438 -0.3277  0.1286
  702MOL0     H96862   2.107   8.002   9.388  1.1842  0.9218  1.3216
  702MOL0     H96863   1.905   7.870   9.407  0.8599  0.6416 -0.1861
  702MOL0     H96864   1.717   7.821   9.567 -2.7367 -0.7740  1.9617
  702MOL0     H96865   1.760   7.714   9.438  1.9374  0.5702  0.6053
  702MOL0     H96866   1.616   7.544   9.501 -0.7939  2.5171 -4.2717
  702MOL0     H96867   1.530   7.683   9.540 -1.4447 -2.2772 -1.2449
  702MOL0     H96868   1.683   7.637   9.785  0.3706  1.0892 -0.9997
  702MOL0     H96869   1.510   7.644   9.752  1.1144  2.1089 -0.9197
  702MOL0     H96870   1.535   7.390   9.678  1.1130 -1.8247  0.2846
  702MOL0     H96871   1.580   7.413   9.848  1.6599 -2.3270 -0.0047
  702MOL0     H96872   1.928   7.283   9.680  0.3849 -1.7586  1.0944
  702MOL0     H96873   2.074   7.688   9.762 -2.3499  0.2284 -0.2689
  702MOL0     H96874   2.377   7.797   9.742  0.8814  2.3504  0.6539
  702MOL0     H96875   2.288   7.934   9.807 -1.4734  0.4579 -0.5317
  702MOL0     H96876   2.237   7.778   9.863 -0.9189 -1.2361 -0.7014
  703MOL0     O96877  11.408  11.512   9.243  0.0228  0.0888  0.8004
  703MOL0     C96878  11.528  11.473   9.253  0.8214 -0.4136  0.3119
  703MOL0     O96879  11.607  11.493   9.363 -0.2645  0.5446  0.6684
  703MOL0     C96880  11.563  11.571   9.469  0.2476  1.5242 -0.5435
  703MOL0     C96881  11.624  11.560   9.592 -0.2372 -0.2833  0.5012
  703MOL0     C96882  11.595  11.642   9.701 -0.1997  0.8092 -0.0745
  703MOL0     C96883  11.500  11.739   9.702  0.6085 -0.5110  0.4465
  703MOL0     O96884  11.503  11.819   9.814  0.5087  0.3807  0.0830
  703MOL0     C96885  11.424  11.942   9.814  0.0146  0.5210 -0.4565
  703MOL0     C96886  11.452  12.027   9.940 -1.0979  0.3646 -0.3213
  703MOL0     C96887  11.568  12.133   9.927  0.6858  0.0404 -0.2574
  703MOL0     C96888  11.522  12.251   9.848 -0.2188  0.2746  0.3651
  703MOL0     C96889  11.605  12.269   9.720  0.8011 -0.3901 -0.3529
  703MOL0     C96890  11.545  12.384   9.631  1.5823  0.0943 -0.0137
  703MOL0     C96891  11.626  12.412   9.498 -0.1099  0.0923 -1.0875
  703MOL0     C96892  11.555  12.534   9.417 -0.0862  0.2712  0.5807
  703MOL0     N96893  11.599  12.539   9.280 -0.1483  0.1725 -0.6802
  703MOL0     C96894  11.558  12.453   9.177  0.7355  0.6130 -0.1738
  703MOL0     C96895  11.615  12.497   9.067  0.5157  0.1947 -0.4102
  703MOL0     C96896  11.613  12.426   8.932  0.0464 -0.7392 -0.2174
  703MOL0     C96897  11.736  12.446   8.851  0.1039 -0.1499 -0.1121
  703MOL0     C96898  11.762  12.316   8.760  0.0829  0.2254  0.6269
  703MOL0     C96899  11.651  12.316   8.648  0.4491  0.0573 -1.4517
  703MOL0     O96900  11.620  12.448   8.592 -0.1907 -0.9140  0.5258
  703MOL0     C96901  11.494  12.510   8.591  0.6949 -0.7033  0.3530
  703MOL0     C96902  11.473  12.612   8.510 -0.1764  0.0544 -0.9981
  703MOL0     C96903  11.350  12.679   8.500 -1.0095 -0.3957  0.1198
  703MOL0     C96904  11.355  12.810   8.436 -0.5277  0.4306  0.1589
  703MOL0     C96905  11.230  12.621   8.548 -0.2171 -0.4343 -0.6703
  703MOL0     C96906  11.095  12.684   8.524 -0.2352  0.5621  0.3078
  703MOL0     O96907  11.001  12.663   8.625  0.0211  0.0723 -0.9487
  703MOL0     C96908  10.883  12.724   8.609 -0.9587 -0.7066  1.1405
  703MOL0     C96909  10.872  12.852   8.662  0.7062  1.1264 -0.7290
  703MOL0     C96910  10.748  12.913   8.650  0.4647  0.2141  0.6060
  703MOL0     C96911  10.641  12.842   8.603  0.1793  0.5321 -0.6159
  703MOL0     O96912  10.519  12.905   8.586 -0.0560  0.7136 -0.0117
  703MOL0     C96913  10.451  12.902   8.462  1.0330  0.0592  0.8591
  703MOL0     C96914  10.346  13.003   8.441 -0.4392  0.7140 -0.1858
  703MOL0     C96915  10.295  12.980   8.307 -0.1899 -0.0264  0.0457
  703MOL0     C96916  10.182  13.076   8.274  0.1514 -0.1299 -0.3981
  703MOL0     C96917  10.117  13.042   8.140  0.2953 -0.0940  0.4329
  703MOL0     C96918  10.034  13.147   8.080  0.5856  0.4884 -0.0033
  703MOL0     C96919  10.087  13.276   8.014  0.5151 -0.6368  0.0899
  703MOL0     C96920   9.973  13.366   7.974  0.0421 -0.1368 -0.5785
  703MOL0    Cl96921   9.872  13.281   7.854  0.0340 -0.2829 -0.2817
  703MOL0     C96922  10.653  12.702   8.576 -0.6437 -0.2950  0.2761
  703MOL0     C96923  10.775  12.641   8.584  0.1101 -0.6142 -0.5245
  703MOL0     O96924  11.082  12.744   8.420  0.5152 -0.0068 -0.4242
  703MOL0     C96925  11.245  12.500   8.629  0.8513 -0.2298 -0.4748
  703MOL0     C96926  11.378  12.444   8.645 -0.1482 -0.4261  0.1504
  703MOL0     N96927  11.684  12.610   9.086 -0.0142 -0.0445  0.9763
  703MOL0     N96928  11.674  12.636   9.215 -1.5012  0.0600  0.7278
  703MOL0     C96929  11.436  11.759   9.579  0.5040  0.6940  0.1173
  703MOL0     C96930  11.467  11.678   9.462  0.2672 -0.5282 -1.0109
  703MOL0     C96931  11.582  11.393   9.145 -0.2872 -0.9530 -0.3193
  703MOL0     C96932  11.652  11.275   9.176  0.0617  0.3393 -0.7840
  703MOL0     C96933  11.696  11.197   9.071 -0.6084  0.2346  0.3795
  703MOL0     C96934  11.664  11.217   8.939  0.8971 -0.2645  0.2651
  703MOL0     O96935  11.716  11.145   8.838  0.4784 -0.5961 -0.2888
  703MOL0     C96936  11.654  11.151   8.710 -0.9587  0.1936  0.8425
  703MOL0     C96937  11.676  11.028   8.633  0.2074  0.1753  0.3780
  703MOL0     C96938  11.818  11.018   8.556 -0.7152  0.4966  0.3508
  703MOL0     C96939  11.908  10.915   8.631 -0.5977 -1.0408  0.6420
  703MOL0     C96940  11.852  10.785   8.643  0.7772 -0.0649  0.1647
  703MOL0     C96941  11.829  10.670   8.669 -0.0666 -0.0441  1.2626
  703MOL0     C96942  11.602  11.344   8.910 -0.4516  1.1297 -0.3764
  703MOL0     C96943  11.564  11.431   9.015  0.5104  1.1081 -0.8858
  703MOL0     C96944  11.483  11.540   8.960 -0.3431 -0.8050  0.3301
  703MOL0     H96945  11.703  11.486   9.603 -0.7230 -1.3476 -2.3520
  703MOL0     H96946  11.647  11.630   9.796  0.0647 -0.2831 -0.3486
  703MOL0     H96947  11.321  11.905   9.818  0.9434 -2.2152  0.3319
  703MOL0     H96948  11.447  11.993   9.720 -1.4918  1.5080 -0.3317
  703MOL0     H96949  11.365  12.088   9.964 -1.5091 -0.0122 -0.8153
  703MOL0     H96950  11.489  11.958  10.017  1.0084 -0.9144 -2.3321
  703MOL0     H96951  11.602  12.171  10.023 -0.5413  0.6445 -0.0346
  703MOL0     H96952  11.659  12.087   9.888  0.8801 -1.3591  1.7351
  703MOL0     H96953  11.415  12.239   9.830 -1.0944  3.6250  2.2381
  703MOL0     H96954  11.517  12.339   9.913 -3.0485 -0.6222  1.5241
  703MOL0     H96955  11.607  12.173   9.667 -0.0721 -0.8909  0.4948
  703MOL0     H96956  11.703  12.306   9.752  0.4736  0.7123 -0.5735
  703MOL0     H96957  11.442  12.356   9.607  2.3681 -2.1680 -0.9989
  703MOL0     H96958  11.527  12.476   9.689 -2.9720  1.2370 -2.7269
  703MOL0     H96959  11.611  12.325   9.434 -5.6173  0.5726 -0.8978
  703MOL0     H96960  11.730  12.436   9.523 -0.5277  0.2628  0.5691
  703MOL0     H96961  11.450  12.506   9.427 -0.2771  0.3124 -1.0240
  703MOL0     H96962  11.568  12.629   9.471  0.8519 -1.1051  2.9064
  703MOL0     H96963  11.486  12.372   9.188 -1.3537  2.6205  2.3652
  703MOL0     H96964  11.516  12.458   8.893 -0.7425 -0.2231  1.9957
  703MOL0     H96965  11.602  12.318   8.949 -1.2208 -0.5213  0.4517
  703MOL0     H96966  11.728  12.546   8.807  0.0329  0.6246  1.5869
  703MOL0     H96967  11.831  12.459   8.904  0.4361  1.0547 -0.9530
  703MOL0     H96968  11.856  12.323   8.704 -1.1254  3.9674 -1.3485
  703MOL0     H96969  11.749  12.224   8.817 -0.8516 -0.9265 -1.3278
  703MOL0     H96970  11.682  12.256   8.562 -2.2267 -1.1770 -1.6423
  703MOL0     H96971  11.567  12.264   8.694  0.4783  2.1052  1.1613
  703MOL0     H96972  11.560  12.669   8.477 -0.7068  0.7408 -1.2328
  703MOL0     H96973  11.298  12.811   8.343  0.2784 -0.7936 -0.3751
  703MOL0     H96974  11.460  12.840   8.428 -0.2708 -0.3406  0.5751
  703MOL0     H96975  11.307  12.883   8.502  1.3175  1.4813  0.4232
  703MOL0     H96976  10.959  12.900   8.705 -1.3957  1.3414  3.7888
  703MOL0     H96977  10.730  13.016   8.677 -1.5052  0.0844 -0.0681
  703MOL0     H96978  10.534  12.916   8.391  0.2952 -1.1305 -0.2882
  703MOL0     H96979  10.415  12.800   8.444 -0.9863  0.9742 -0.7576
  703MOL0     H96980  10.268  12.972   8.512  1.0505 -4.1973 -0.3141
  703MOL0     H96981  10.370  13.108   8.458  1.8944 -0.1187  2.3234
  703MOL0     H96982  10.255  12.879   8.300 -0.6589  0.1257  0.5015
  703MOL0     H96983  10.378  13.000   8.238  0.7154  1.0605  1.3931
  703MOL0     H96984  10.238  13.168   8.254  4.2593 -2.4933 -0.8248
  703MOL0     H96985  10.110  13.090   8.355  1.5477 -2.4095  1.3671
  703MOL0     H96986  10.178  13.009   8.055 -0.9027 -0.9491 -0.1211
  703MOL0     H96987  10.047  12.961   8.161 -1.7634  2.2999  3.6015
  703MOL0     H96988   9.961  13.177   8.155 -0.4668  2.2542 -1.6396
  703MOL0     H96989   9.965  13.094   8.013 -3.3301  0.9645  3.2564
  703MOL0     H96990  10.159  13.255   7.934  1.8737  1.1674  0.7589
  703MOL0     H96991  10.145  13.322   8.095  1.4764  0.5251 -1.1940
  703MOL0     H96992  10.009  13.455   7.923  1.9057  0.1885  1.1746
  703MOL0     H96993   9.914  13.396   8.061 -0.4494 -0.8199 -0.6600
  703MOL0     H96994  10.560  12.652   8.550  0.1917 -0.5379 -2.5878
  703MOL0     H96995  10.789  12.534   8.570  0.4819 -0.4946 -1.1421
  703MOL0     H96996  11.159  12.445   8.667  1.2997 -1.3291 -0.9943
  703MOL0     H96997  11.388  12.343   8.685 -3.7079 -1.2397 -0.6051
  703MOL0     H96998  11.375  11.845   9.553 -2.1627 -2.0907 -4.1376
  703MOL0     H96999  11.426  11.698   9.364  2.4423 -2.5736 -2.4278
  703MOL0     H97000  11.668  11.232   9.275  1.2357 -0.6660 -1.3735
  703MOL0     H97001  11.752  11.105   9.084 -2.5397 -1.2369 -1.0571
  703MOL0     H97002  11.546  11.148   8.725 -0.9456 -3.6439  1.2585
  703MOL0     H97003  11.681  11.236   8.647 -1.4413 -0.6451 -0.5430
  703MOL0     H97004  11.602  11.023   8.553 -0.2849 -1.3446  0.8926
  703MOL0     H97005  11.653  10.938   8.690 -0.9050 -0.9120 -1.6554
  703MOL0     H97006  11.804  10.978   8.455 -0.7278 -1.4505  1.0843
  703MOL0     H97007  11.862  11.118   8.543 -1.4685  0.8134  0.2100
  703MOL0     H97008  11.944  10.941   8.731  4.2367 -1.8402 -0.6200
  703MOL0     H97009  11.998  10.911   8.568  0.1985  2.6634  1.3335
  703MOL0     H97010  11.834  10.563   8.671  3.6983 -0.4073 -4.5838
  703MOL0     H97011  11.573  11.371   8.809 -1.0050  0.2169 -0.4692
  703MOL0     H97012  11.391  11.512   8.907 -1.5917 -3.0174  3.3545
  703MOL0     H97013  11.462  11.617   9.035 -1.4317  1.0323 -1.7535
  703MOL0     H97014  11.549  11.599   8.896  2.2722 -2.1513  1.6523
  704MOL0     O97015   9.521   5.706   7.894 -0.0117 -0.2469  0.6079
  704MOL0     C97016   9.476   5.810   7.926 -0.6695 -0.0329 -0.6027
  704MOL0     O97017   9.397   5.823   8.041  0.4705  0.5798 -0.1480
  704MOL0     C97018   9.356   5.707   8.103  0.2990  0.4458 -0.5327
  704MOL0     C97019   9.446   5.634   8.189  0.1517 -1.0448 -1.0890
  704MOL0     C97020   9.393   5.523   8.254 -0.4577 -0.1230  0.2583
  704MOL0     C97021   9.265   5.476   8.232  0.5145  0.4102  0.6498
  704MOL0     O97022   9.201   5.377   8.300  0.7133 -1.2422  0.3971
  704MOL0     C97023   9.272   5.308   8.413 -0.3174  0.2151  0.7832
  704MOL0     C97024   9.351   5.182   8.371 -0.7271  1.2386  0.0053
  704MOL0     C97025   9.438   5.098   8.473  0.4332 -0.4624 -0.5294
  704MOL0     C97026   9.506   4.972   8.419 -0.0119  0.1947  0.3558
  704MOL0     C97027   9.595   4.908   8.528 -0.8864 -0.4013  0.4211
  704MOL0     C97028   9.664   4.781   8.473  0.6935  0.0873  0.7029
  704MOL0     C97029   9.761   4.738   8.581 -0.4578 -1.4202 -0.1648
  704MOL0     C97030   9.901   4.792   8.566  0.1016 -0.4719 -0.1704
  704MOL0     N97031   9.988   4.736   8.670 -0.5590 -0.2464  0.0838
  704MOL0     C97032  10.015   4.800   8.793  0.7208 -0.7829  0.1447
  704MOL0     C97033  10.092   4.722   8.859 -1.2033 -0.5380  0.7757
  704MOL0     C97034  10.151   4.739   8.991  0.7612 -0.0525  0.0051
  704MOL0     C97035  10.265   4.837   8.995  0.1824 -0.1848  0.4897
  704MOL0     C97036  10.398   4.797   8.923  0.8836 -0.7335  1.0277
  704MOL0     C97037  10.430   4.646   8.976 -0.0158  0.7100  1.5497
  704MOL0     O97038  10.415   4.644   9.119  0.2461  0.1779 -0.0991
  704MOL0     C97039  10.418   4.518   9.182 -0.3550  0.6884 -0.9001
  704MOL0     C97040  10.396   4.506   9.322 -0.5743 -0.0748 -0.0019
  704MOL0     C97041  10.419   4.380   9.391  0.2249 -0.4100  0.5972
  704MOL0     C97042  10.396   4.387   9.548 -0.7044  0.5758  0.2662
  704MOL0     C97043  10.454   4.266   9.322 -0.3166  0.5799  0.2745
  704MOL0     C97044  10.477   4.127   9.382 -0.0505 -0.5075 -0.1900
  704MOL0     O97045  10.480   4.021   9.299 -0.2403  0.5836  0.3107
  704MOL0     C97046  10.503   3.898   9.357 -0.4582  0.3099 -0.6704
  704MOL0     C97047  10.625   3.850   9.332 -0.7899 -0.2780  0.7148
  704MOL0     C97048  10.655   3.713   9.361 -0.4651 -0.0406  0.1950
  704MOL0     C97049  10.558   3.629   9.420  0.6480 -0.1480 -0.6724
  704MOL0     O97050  10.582   3.501   9.457 -0.1607  0.1656  0.1641
  704MOL0     C97051  10.503   3.442   9.552 -1.0323 -0.5818  0.0709
  704MOL0     C97052  10.547   3.308   9.608 -0.5221  0.7019  0.4234
  704MOL0     C97053  10.669   3.295   9.693 -0.5788 -0.0712 -0.2414
  704MOL0     C97054  10.783   3.208   9.630 -0.9324 -1.1516  1.1054
  704MOL0     C97055  10.837   3.257   9.492 -0.4760 -0.6264  0.2291
  704MOL0     C97056  10.897   3.399   9.502 -0.4324  0.8761 -0.6466
  704MOL0     C97057  11.011   3.408   9.606  0.2007  0.5431  0.4336
  704MOL0     C97058  11.091   3.529   9.578 -0.6845 -0.4663  0.6840
  704MOL0    Cl97059  10.985   3.669   9.547 -0.1951 -0.1625 -0.3451
  704MOL0     C97060  10.434   3.692   9.460  0.0648 -0.1262  0.4727
  704MOL0     C97061  10.398   3.823   9.425 -0.3762  0.2011 -0.5286
  704MOL0     O97062  10.500   4.121   9.501 -0.3198  0.0792 -0.4877
  704MOL0     C97063  10.470   4.272   9.187 -0.1089  1.0008  0.0990
  704MOL0     C97064  10.474   4.396   9.120  0.1115 -0.8160 -0.0531
  704MOL0     N97065  10.135   4.620   8.772 -0.3408 -0.0032  0.3472
  704MOL0     N97066  10.063   4.623   8.663 -0.3409 -0.2807 -0.1700
  704MOL0     C97067   9.174   5.540   8.147 -0.5885 -0.9746 -0.0481
  704MOL0     C97068   9.222   5.660   8.088  0.3812  0.3302 -0.0549
  704MOL0     C97069   9.490   5.931   7.853  0.5942  0.3024  0.1419
  704MOL0     C97070   9.375   6.002   7.844 -0.9941 -0.4022  0.7188
  704MOL0     C97071   9.371   6.131   7.791 -0.2266 -0.0740 -0.5151
  704MOL0     C97072   9.494   6.195   7.767  0.1877  0.1212  0.3131
  704MOL0     O97073   9.514   6.314   7.700 -0.3623 -0.1543 -0.3007
  704MOL0     C97074   9.412   6.408   7.699  0.0834  0.8749 -0.1935
  704MOL0     C97075   9.457   6.544   7.684 -0.1111 -0.1634 -0.4841
  704MOL0     C97076   9.577   6.578   7.764 -0.7449  0.7467 -0.8493
  704MOL0     C97077   9.592   6.725   7.799 -0.3500  0.1138  0.1559
  704MOL0     C97078   9.731   6.761   7.768 -0.8609 -0.0387  0.5157
  704MOL0     C97079   9.854   6.779   7.763 -0.5399 -0.3729 -0.2488
  704MOL0     C97080   9.613   6.116   7.776 -0.5293 -0.2034 -0.2688
  704MOL0     C97081   9.609   5.979   7.811 -0.3463  0.2395 -0.9339
  704MOL0     C97082   9.734   5.904   7.802  0.5929  0.6850 -0.4882
  704MOL0     H97083   9.548   5.668   8.204  0.3915 -3.0879  4.0815
  704MOL0     H97084   9.460   5.470   8.321 -1.9817 -2.2424  0.1879
  704MOL0     H97085   9.197   5.266   8.480  0.7401 -1.5903  0.8838
  704MOL0     H97086   9.335   5.380   8.465  0.7612 -1.4519  1.8687
  704MOL0     H97087   9.271   5.112   8.344 -0.0016  1.4629 -3.0862
  704MOL0     H97088   9.422   5.204   8.291 -0.3627  0.3517  0.0758
  704MOL0     H97089   9.513   5.156   8.526  0.2620 -1.3550  0.7244
  704MOL0     H97090   9.361   5.060   8.541  2.1560  1.3980  2.6637
  704MOL0     H97091   9.436   4.898   8.380 -1.3044  0.7560  1.5171
  704MOL0     H97092   9.558   5.014   8.333 -1.1028 -0.0762 -0.4600
  704MOL0     H97093   9.547   4.886   8.624  0.3458 -2.1261  0.6871
  704MOL0     H97094   9.674   4.981   8.544 -1.3476  0.3381 -0.5599
  704MOL0     H97095   9.597   4.697   8.451  2.6207 -0.8530 -2.0397
  704MOL0     H97096   9.699   4.804   8.373  0.1290  1.0995  0.7281
  704MOL0     H97097   9.763   4.629   8.588  1.5670 -1.3022  2.6727
  704MOL0     H97098   9.735   4.772   8.681  2.7264 -0.0434  0.3142
  704MOL0     H97099   9.936   4.766   8.466  1.2316  1.4762 -0.3319
  704MOL0     H97100   9.906   4.901   8.567  1.9126 -0.4399  2.9672
  704MOL0     H97101   9.980   4.894   8.837 -0.7758 -1.7444  1.1091
  704MOL0     H97102  10.177   4.637   9.022 -0.7947 -0.5837 -0.3464
  704MOL0     H97103  10.079   4.759   9.070 -0.5689  1.9555 -1.6073
  704MOL0     H97104  10.242   4.935   8.951  0.6407 -1.1970 -2.2177
  704MOL0     H97105  10.288   4.849   9.101 -0.5456 -1.1040  0.7597
  704MOL0     H97106  10.375   4.794   8.817  0.3359 -1.7573  1.1575
  704MOL0     H97107  10.469   4.872   8.959  0.1563  0.5280 -0.1156
  704MOL0     H97108  10.354   4.578   8.936  0.7156  1.8646 -2.1805
  704MOL0     H97109  10.527   4.616   8.936 -2.2346  0.1568 -4.4722
  704MOL0     H97110  10.368   4.591   9.383 -1.8463  0.0614 -0.7352
  704MOL0     H97111  10.394   4.492   9.576  3.1370  1.3266 -1.6608
  704MOL0     H97112  10.477   4.337   9.602 -1.4848 -1.1651 -0.0890
  704MOL0     H97113  10.302   4.337   9.575 -0.1784 -1.3210 -1.1662
  704MOL0     H97114  10.694   3.916   9.282 -0.5579  0.1562  1.5925
  704MOL0     H97115  10.752   3.671   9.338 -0.5749 -0.3003  0.1913
  704MOL0     H97116  10.488   3.507   9.638 -2.2033 -1.6870  0.7340
  704MOL0     H97117  10.408   3.416   9.505 -0.5620 -2.2032 -0.0341
  704MOL0     H97118  10.474   3.261   9.675  1.6320 -0.6037  2.0019
  704MOL0     H97119  10.566   3.237   9.528 -2.1478 -2.1899  2.3950
  704MOL0     H97120  10.635   3.255   9.789  1.0208  0.6676  0.6735
  704MOL0     H97121  10.725   3.385   9.719  2.3421 -2.1059  1.0023
  704MOL0     H97122  10.744   3.106   9.619 -1.0439 -0.8016 -5.5125
  704MOL0     H97123  10.873   3.214   9.693  0.3817 -1.8164 -0.6433
  704MOL0     H97124  10.926   3.196   9.478  2.3538  2.8303  1.4509
  704MOL0     H97125  10.783   3.253   9.397  1.1893 -0.7715 -0.7478
  704MOL0     H97126  10.827   3.478   9.531 -1.4862 -0.6932  1.4547
  704MOL0     H97127  10.935   3.423   9.403  5.1693 -0.0421  0.9396
  704MOL0     H97128  11.078   3.322   9.596 -0.7647 -0.2049  0.1656
  704MOL0     H97129  10.957   3.422   9.700  0.0488 -0.1111  0.4495
  704MOL0     H97130  11.162   3.504   9.499  1.2119 -1.5440  2.6381
  704MOL0     H97131  11.145   3.561   9.667  0.2960 -1.2659  0.3841
  704MOL0     H97132  10.345   3.642   9.498 -0.0539 -0.1868  0.1165
  704MOL0     H97133  10.300   3.869   9.438 -0.3239  0.3442 -0.6347
  704MOL0     H97134  10.493   4.185   9.125 -0.9330  0.6829  0.2323
  704MOL0     H97135  10.511   4.373   9.021 -1.4833 -0.2116 -0.8241
  704MOL0     H97136   9.072   5.506   8.127 -2.1597  2.2470  1.6656
  704MOL0     H97137   9.161   5.722   8.023 -2.5194  0.9026  2.9578
  704MOL0     H97138   9.284   5.954   7.878 -1.8297  0.9422  0.4409
  704MOL0     H97139   9.276   6.178   7.771  1.2823  4.1479  1.1710
  704MOL0     H97140   9.339   6.389   7.620 -1.2826  2.4905  0.6334
  704MOL0     H97141   9.349   6.403   7.788 -2.4614  0.7236 -1.9142
  704MOL0     H97142   9.380   6.615   7.716 -1.4354 -2.9663  3.1270
  704MOL0     H97143   9.476   6.559   7.577  0.5641 -2.4980 -0.7493
  704MOL0     H97144   9.570   6.540   7.866  1.2233  1.1699 -0.5028
  704MOL0     H97145   9.676   6.539   7.738 -0.5447 -1.6697  2.6899
  704MOL0     H97146   9.578   6.738   7.907 -2.6968 -4.9431  0.7505
  704MOL0     H97147   9.514   6.786   7.754 -2.8205 -0.9098  2.7710
  704MOL0     H97148   9.961   6.790   7.762 -0.5590 -0.1406  0.1426
  704MOL0     H97149   9.708   6.162   7.753  0.3714 -3.1959 -3.2944
  704MOL0     H97150   9.730   5.809   7.857  1.1139  0.0100 -1.5895
  704MOL0     H97151   9.762   5.890   7.697 -0.6075  0.1914 -0.7642
  704MOL0     H97152   9.810   5.965   7.851  2.5643 -1.8155 -0.2583
  705MOL0     O97153   0.042   1.651  10.975 -0.0881 -0.3732  0.2099
  705MOL0     C97154  -0.011   1.545  10.942 -0.6517 -0.3073 -0.1236
  705MOL0     O97155  -0.142   1.522  10.936 -0.2240 -0.5345  0.1617
  705MOL0     C97156  -0.223   1.581  11.028 -0.0288 -0.3735 -0.2666
  705MOL0     C97157  -0.357   1.591  10.981  0.7041  0.5556  0.3684
  705MOL0     C97158  -0.463   1.656  11.065  0.1657  0.7412  0.0814
  705MOL0     C97159  -0.427   1.702  11.192  0.6429  0.6053 -0.2259
  705MOL0     O97160  -0.509   1.785  11.270 -0.6175  0.2738 -0.4677
  705MOL0     C97161  -0.591   1.876  11.198 -0.3331 -0.9203  0.9195
  705MOL0     C97162  -0.505   1.981  11.115  0.5329  0.3254  0.3539
  705MOL0     C97163  -0.590   2.103  11.087 -0.3965 -0.2377 -0.4389
  705MOL0     C97164  -0.575   2.194  11.207  0.7491 -0.2861 -0.6619
  705MOL0     C97165  -0.627   2.336  11.178 -0.3408 -0.7159  1.1441
  705MOL0     C97166  -0.537   2.443  11.237  0.3396  0.0727 -0.5094
  705MOL0     C97167  -0.567   2.581  11.180  0.6234  0.1213 -0.0729
  705MOL0     C97168  -0.674   2.655  11.243  1.4657 -0.3667 -0.7294
  705MOL0     N97169  -0.715   2.781  11.172 -0.1893  0.6027 -0.3334
  705MOL0     C97170  -0.843   2.808  11.142  0.2883 -0.2558 -0.6340
  705MOL0     C97171  -0.841   2.923  11.065  0.0871  0.4807 -0.3540
  705MOL0     C97172  -0.962   2.990  10.997 -0.1743 -0.2781  0.5143
  705MOL0     C97173  -0.929   3.106  10.908 -0.3470  0.4248  0.4300
  705MOL0     C97174  -1.043   3.176  10.852 -0.1434 -0.5312 -0.4292
  705MOL0     C97175  -1.055   3.171  10.697  0.5774 -0.1281  0.1387
  705MOL0     O97176  -1.163   3.250  10.634  0.0053 -0.8461  0.2201
  705MOL0     C97177  -1.182   3.249  10.499 -0.5067 -0.4765  0.1600
  705MOL0     C97178  -1.090   3.199  10.413 -0.0260  1.4535 -0.6856
  705MOL0     C97179  -1.087   3.231  10.280 -1.3182  0.1340  0.1736
  705MOL0     C97180  -0.964   3.181  10.207 -0.1803 -0.2444 -0.4386
  705MOL0     C97181  -1.199   3.292  10.221 -0.3778 -0.5455  0.3081
  705MOL0     C97182  -1.233   3.290  10.076  0.5319  0.4292  0.5726
  705MOL0     O97183  -1.367   3.263  10.049  0.2807 -0.3266 -0.1260
  705MOL0     C97184  -1.393   3.239   9.918  0.0261 -0.9224 -0.2203
  705MOL0     C97185  -1.397   3.106   9.875 -1.2134 -0.6894  0.9131
  705MOL0     C97186  -1.420   3.076   9.738 -0.1573  0.1955 -0.0883
  705MOL0     C97187  -1.442   3.178   9.646  0.3129 -0.1446 -0.0661
  705MOL0     O97188  -1.435   3.158   9.508  0.5856 -1.0545  0.4151
  705MOL0     C97189  -1.541   3.070   9.468  0.0834 -0.5195 -0.8376
  705MOL0     C97190  -1.575   3.085   9.314  0.5479 -0.0457  0.5923
  705MOL0     C97191  -1.636   3.222   9.287  0.5723 -0.4930  0.4043
  705MOL0     C97192  -1.698   3.223   9.155  0.4656  0.0366  0.0818
  705MOL0     C97193  -1.856   3.198   9.153 -0.4206 -0.3580 -0.8974
  705MOL0     C97194  -1.900   3.189   9.010 -0.0857  1.1603  0.5494
  705MOL0     C97195  -2.049   3.186   8.984  0.4248 -0.6806 -0.3481
  705MOL0     C97196  -2.120   3.071   9.056 -0.7560 -1.2480  0.8048
  705MOL0    Cl97197  -2.057   2.907   9.027  0.0719  0.1449  0.3630
  705MOL0     C97198  -1.435   3.311   9.699  0.3182 -0.8409 -0.2189
  705MOL0     C97199  -1.417   3.344   9.834 -0.9227  0.1490  0.3749
  705MOL0     O97200  -1.142   3.323   9.996 -0.1799 -1.1834  0.2721
  705MOL0     C97201  -1.300   3.340  10.304 -0.4087  0.5942  0.1493
  705MOL0     C97202  -1.283   3.326  10.444  0.0154  1.0640 -0.6971
  705MOL0     N97203  -0.709   2.967  11.061  0.6483  0.9400  1.3338
  705MOL0     N97204  -0.636   2.872  11.113  0.0398  0.0280  0.2582
  705MOL0     C97205  -0.294   1.678  11.236  0.4346  0.0410  0.9333
  705MOL0     C97206  -0.191   1.620  11.159 -0.3974  1.1437  0.5922
  705MOL0     C97207   0.079   1.459  10.864  0.1479  1.1494 -0.5028
  705MOL0     C97208   0.082   1.473  10.727  0.4595 -0.7417 -0.2709
  705MOL0     C97209   0.187   1.407  10.667  0.3307 -1.3491  0.0305
  705MOL0     C97210   0.277   1.323  10.733  0.8486  0.0993  0.4871
  705MOL0     O97211   0.372   1.259  10.654 -1.1185 -0.1055  0.7816
  705MOL0     C97212   0.468   1.158  10.700  0.2564  0.7157 -0.1500
  705MOL0     C97213   0.611   1.174  10.659 -0.1740 -0.0045  0.0844
  705MOL0     C97214   0.685   1.285  10.750  0.0438 -0.1280 -0.8337
  705MOL0     C97215   0.782   1.380  10.674 -0.6555  1.0071  0.0723
  705MOL0     C97216   0.916   1.325  10.641  1.1011  0.9729 -0.0459
  705MOL0     C97217   1.015   1.268  10.613  0.5938  0.8318  0.5632
  705MOL0     C97218   0.261   1.298  10.871  1.0424  0.3253  0.3466
  705MOL0     C97219   0.161   1.375  10.937 -0.0784 -0.0413 -0.3973
  705MOL0     C97220   0.152   1.367  11.091 -0.9461  0.3603  0.6376
  705MOL0     H97221  -0.392   1.550  10.887 -2.7284  1.9634  0.8848
  705MOL0     H97222  -0.566   1.663  11.032  0.6117 -1.1654 -1.9822
  705MOL0     H97223  -0.649   1.922  11.279  0.9414  0.5515  1.0565
  705MOL0     H97224  -0.672   1.832  11.140  0.4165  0.5987 -1.4198
  705MOL0     H97225  -0.414   2.013  11.166  0.1303  0.3963  1.0305
  705MOL0     H97226  -0.457   1.937  11.027  0.3475 -1.2961  1.0287
  705MOL0     H97227  -0.542   2.145  10.998  4.4777  0.8486  2.3334
  705MOL0     H97228  -0.695   2.079  11.068  0.5152 -4.1444 -1.5198
  705MOL0     H97229  -0.622   2.156  11.298  2.3759  2.2221  1.3683
  705MOL0     H97230  -0.468   2.197  11.230  0.4368  0.3860  0.8109
  705MOL0     H97231  -0.728   2.345  11.219 -1.1475 -3.2209 -0.1035
  705MOL0     H97232  -0.645   2.346  11.070  1.6007  0.9514  0.9092
  705MOL0     H97233  -0.536   2.436  11.346  2.3696 -0.2705 -0.5178
  705MOL0     H97234  -0.436   2.418  11.205  0.4515  0.2588 -0.3035
  705MOL0     H97235  -0.588   2.593  11.074 -2.9098  3.6127  0.7833
  705MOL0     H97236  -0.471   2.629  11.203  1.2552  0.4785 -3.0660
  705MOL0     H97237  -0.766   2.596  11.248  1.3721 -0.1344  2.1614
  705MOL0     H97238  -0.655   2.684  11.347 -0.9613  0.5845 -0.4863
  705MOL0     H97239  -0.937   2.769  11.178 -0.6928  4.2517  2.5276
  705MOL0     H97240  -1.045   3.004  11.066 -3.2239 -1.5775 -2.5602
  705MOL0     H97241  -1.013   2.910  10.943 -1.9045  0.0112  1.6716
  705MOL0     H97242  -0.892   3.177  10.982 -1.8871  1.1575  0.5444
  705MOL0     H97243  -0.855   3.082  10.830  0.8016  2.6562  0.7578
  705MOL0     H97244  -1.126   3.137  10.913  2.2557 -3.7261  1.1257
  705MOL0     H97245  -1.039   3.281  10.882 -0.7481 -1.0145  1.5313
  705MOL0     H97246  -0.961   3.218  10.667  0.8639  0.2032  1.4545
  705MOL0     H97247  -1.069   3.067  10.668 -1.7902  0.6974 -2.0502
  705MOL0     H97248  -0.994   3.163  10.449 -0.3636  2.9405  1.9704
  705MOL0     H97249  -0.917   3.264  10.152 -1.6658  0.9452  0.0038
  705MOL0     H97250  -0.989   3.117  10.123  0.8805 -0.2320 -0.7820
  705MOL0     H97251  -0.907   3.114  10.272 -2.2433  0.2910  2.0854
  705MOL0     H97252  -1.386   3.028   9.949 -4.2932 -1.6130  0.5247
  705MOL0     H97253  -1.405   2.977   9.698  4.9579  0.4646  0.4883
  705MOL0     H97254  -1.511   2.966   9.482 -2.9637 -1.3232  0.4967
  705MOL0     H97255  -1.625   3.094   9.533  2.7266  0.5003  2.4703
  705MOL0     H97256  -1.480   3.069   9.262 -0.9217 -1.7593 -1.8027
  705MOL0     H97257  -1.643   3.009   9.274  0.3678  0.4834 -0.1290
  705MOL0     H97258  -1.566   3.304   9.302 -1.3897  1.7269 -1.5183
  705MOL0     H97259  -1.709   3.240   9.367 -0.6180 -1.3217 -0.4480
  705MOL0     H97260  -1.649   3.163   9.078  1.9244 -0.5279  1.4065
  705MOL0     H97261  -1.680   3.327   9.124  2.0101 -1.1968 -3.7060
  705MOL0     H97262  -1.874   3.102   9.203  1.2595 -1.1499 -1.7164
  705MOL0     H97263  -1.915   3.267   9.213  0.6453 -2.7557  3.3062
  705MOL0     H97264  -1.858   3.105   8.953  2.0874  2.0825  0.6707
  705MOL0     H97265  -1.852   3.273   8.959 -1.0980  0.3644 -1.8648
  705MOL0     H97266  -2.074   3.175   8.878 -1.8049  1.3803 -0.1235
  705MOL0     H97267  -2.071   3.282   9.031  1.9654  0.5610 -2.0472
  705MOL0     H97268  -2.225   3.075   9.025  0.3302 -1.1383 -3.4449
  705MOL0     H97269  -2.113   3.090   9.164  0.9893 -2.4953  0.9524
  705MOL0     H97270  -1.432   3.388   9.624  0.0101  1.0251  1.5895
  705MOL0     H97271  -1.405   3.443   9.877 -0.5463  0.6806 -0.9046
  705MOL0     H97272  -1.398   3.359  10.263 -1.0936  1.6679  2.1730
  705MOL0     H97273  -1.344   3.381  10.515  1.6999 -0.5805  2.2521
  705MOL0     H97274  -0.258   1.710  11.334  0.1419  3.0660  0.1544
  705MOL0     H97275  -0.085   1.620  11.182  0.6000  3.8308 -3.1138
  705MOL0     H97276   0.030   1.549  10.670 -0.1961 -2.3451 -1.9104
  705MOL0     H97277   0.192   1.433  10.562  1.6069 -0.8180  0.1960
  705MOL0     H97278   0.474   1.135  10.807 -0.1473 -6.6170 -1.1913
  705MOL0     H97279   0.433   1.062  10.662  0.8051  0.1100  0.8351
  705MOL0     H97280   0.605   1.209  10.555 -1.7411 -1.0022 -0.1870
  705MOL0     H97281   0.672   1.085  10.673 -0.5296  0.2431  4.4993
  705MOL0     H97282   0.606   1.337  10.806 -2.2380 -3.8833 -0.2321
  705MOL0     H97283   0.746   1.247  10.832  2.0352  2.1753 -1.1320
  705MOL0     H97284   0.809   1.474  10.723  3.0742  0.4457 -0.6466
  705MOL0     H97285   0.748   1.413  10.576  1.1843  2.9507  0.0046
  705MOL0     H97286   1.104   1.217  10.584  0.5144  0.0234  1.6915
  705MOL0     H97287   0.326   1.226  10.921 -0.8064 -1.1887  0.6599
  705MOL0     H97288   0.202   1.277  11.129 -0.0176  1.4911  2.2521
  705MOL0     H97289   0.211   1.445  11.141  0.1694 -0.7944  1.2113
  705MOL0     H97290   0.047   1.377  11.117 -1.7779  0.8458 -2.5364
  706MOL0     O97291   6.970   3.792   6.775 -0.7275  0.2825  0.1731
  706MOL0     C97292   6.858   3.791   6.732  0.3211  0.1546 -0.4032
  706MOL0     O97293   6.814   3.738   6.605  0.3655  0.0907  0.1497
  706MOL0     C97294   6.865   3.618   6.562 -0.3337 -0.1446  0.0745
  706MOL0     C97295   6.808   3.581   6.446  0.2586  0.1116 -0.1117
  706MOL0     C97296   6.819   3.450   6.398  0.0013 -0.8153  0.2450
  706MOL0     C97297   6.897   3.360   6.467 -1.6114 -1.2015  0.3396
  706MOL0     O97298   6.904   3.239   6.414  0.5176 -0.8961  0.1404
  706MOL0     C97299   7.027   3.159   6.404  0.4725  0.4941 -0.0688
  706MOL0     C97300   7.113   3.227   6.297  0.2386  0.0905  0.3635
  706MOL0     C97301   7.046   3.192   6.159  0.5816 -0.3801 -1.0743
  706MOL0     C97302   7.136   3.268   6.046  0.2011  0.6622 -0.3544
  706MOL0     C97303   7.112   3.212   5.908  0.5609  0.1539  0.3257
  706MOL0     C97304   6.968   3.192   5.864  0.3523  0.3346 -0.9941
  706MOL0     C97305   6.894   3.051   5.905  0.8212  0.4065  0.0738
  706MOL0     C97306   6.747   3.029   5.849  0.3889  0.3715  0.1032
  706MOL0     N97307   6.731   3.058   5.710 -0.3709  0.3528  0.6321
  706MOL0     C97308   6.787   2.983   5.611 -0.2279 -0.2880 -0.6903
  706MOL0     C97309   6.740   3.045   5.500  0.9351  1.2134 -0.3898
  706MOL0     C97310   6.792   2.994   5.366  0.4046  0.2514 -0.1105
  706MOL0     C97311   6.761   2.849   5.338  0.7725 -0.2521  0.2904
  706MOL0     C97312   6.626   2.817   5.271 -0.1522 -0.6500  0.1439
  706MOL0     C97313   6.577   2.673   5.294 -0.0489 -0.3913 -0.3488
  706MOL0     O97314   6.606   2.590   5.182 -0.0321  0.3810  0.2851
  706MOL0     C97315   6.538   2.467   5.184  0.5700 -0.3851 -0.1256
  706MOL0     C97316   6.402   2.456   5.201  0.1320  0.1013 -0.2416
  706MOL0     C97317   6.335   2.326   5.187  0.5872  0.6050 -1.1334
  706MOL0     C97318   6.199   2.307   5.257  0.1917  0.4530  0.1512
  706MOL0     C97319   6.404   2.220   5.129 -0.2525 -0.5772 -0.7999
  706MOL0     C97320   6.350   2.083   5.122 -0.4021 -0.6863  0.9045
  706MOL0     O97321   6.354   2.031   5.005 -0.3576  0.3931 -0.5961
  706MOL0     C97322   6.327   1.899   4.975 -0.0097  0.3878 -0.5069
  706MOL0     C97323   6.313   1.868   4.838 -0.0724 -0.8624 -0.8437
  706MOL0     C97324   6.305   1.739   4.801  0.4212 -0.6409 -0.2280
  706MOL0     C97325   6.292   1.625   4.887 -0.0377 -0.2281  0.3085
  706MOL0     O97326   6.270   1.500   4.845  0.5596  0.4668 -0.4100
  706MOL0     C97327   6.341   1.466   4.726 -0.8784  0.1900 -0.0213
  706MOL0     C97328   6.307   1.332   4.687  0.6138 -0.7683 -0.8902
  706MOL0     C97329   6.384   1.306   4.562  0.1228  0.2315  0.0512
  706MOL0     C97330   6.313   1.192   4.480 -0.5772 -0.3307 -0.2081
  706MOL0     C97331   6.392   1.155   4.356 -0.3999  0.6058  0.3761
  706MOL0     C97332   6.532   1.074   4.376  0.2528 -0.7791 -1.0148
  706MOL0     C97333   6.516   0.949   4.461  1.1892 -0.0428  0.5889
  706MOL0     C97334   6.648   0.890   4.485  0.3016 -0.1726  0.0504
  706MOL0    Cl97335   6.620   0.734   4.569  0.4350  0.0370 -0.2155
  706MOL0     C97336   6.304   1.656   5.022 -0.5310  0.1822  0.0701
  706MOL0     C97337   6.326   1.787   5.069 -0.7601  0.1168 -0.2457
  706MOL0     O97338   6.296   2.033   5.223  0.0429  0.7574  0.4768
  706MOL0     C97339   6.543   2.232   5.127 -0.4298  0.6243 -0.7663
  706MOL0     C97340   6.612   2.355   5.139  0.2926 -0.6665 -1.1507
  706MOL0     N97341   6.668   3.164   5.519  0.0254  1.6640 -0.4391
  706MOL0     N97342   6.662   3.159   5.653 -0.0939 -0.3688  1.2813
  706MOL0     C97343   6.984   3.412   6.572 -0.7312  0.7113  0.6920
  706MOL0     C97344   6.961   3.537   6.620  0.2887 -0.1447 -0.1289
  706MOL0     C97345   6.752   3.873   6.801 -0.1209 -0.9352  0.0683
  706MOL0     C97346   6.671   3.798   6.896  0.3726 -0.6015  0.0995
  706MOL0     C97347   6.570   3.864   6.969  0.2560  0.0160 -0.0030
  706MOL0     C97348   6.533   3.995   6.940 -0.9021  0.4218 -0.4294
  706MOL0     O97349   6.437   4.069   7.009 -0.3179  0.1616 -0.0360
  706MOL0     C97350   6.366   4.012   7.126 -0.5224  0.2282  0.4648
  706MOL0     C97351   6.254   3.914   7.085  0.4375 -0.0913 -0.0219
  706MOL0     C97352   6.255   3.799   7.187 -0.6125  0.1250 -0.3506
  706MOL0     C97353   6.163   3.689   7.155 -0.7140  0.5002 -0.1609
  706MOL0     C97354   6.142   3.603   7.273  0.3354  0.3024  0.5884
  706MOL0     C97355   6.141   3.546   7.380 -0.1799  0.3127  0.3837
  706MOL0     C97356   6.603   4.053   6.838 -0.1037 -0.7899 -0.4667
  706MOL0     C97357   6.702   3.998   6.756 -0.0039 -0.9104 -0.4168
  706MOL0     C97358   6.756   4.056   6.626 -0.0916 -0.8384  0.1229
  706MOL0     H97359   6.740   3.644   6.390 -0.6270 -0.8133 -0.1175
  706MOL0     H97360   6.765   3.422   6.308  0.3139 -4.6028  1.0822
  706MOL0     H97361   7.006   3.060   6.363 -0.8498 -0.8194  3.4175
  706MOL0     H97362   7.087   3.155   6.496  1.1514 -0.1508 -0.5248
  706MOL0     H97363   7.123   3.336   6.299 -0.0480  0.1119  0.9124
  706MOL0     H97364   7.201   3.163   6.303 -0.8592 -1.5029  0.2454
  706MOL0     H97365   7.053   3.083   6.153 -1.2580 -0.6836  0.9823
  706MOL0     H97366   6.940   3.220   6.166  0.1169 -2.4713  2.8153
  706MOL0     H97367   7.100   3.371   6.035 -1.0347  0.1845 -0.9285
  706MOL0     H97368   7.238   3.239   6.074 -0.3073 -1.0570 -0.1465
  706MOL0     H97369   7.163   3.115   5.913 -0.6892 -0.4981  0.8223
  706MOL0     H97370   7.166   3.275   5.836  2.2539 -2.0976 -0.5092
  706MOL0     H97371   6.917   3.279   5.905  3.1383  2.3322 -1.4414
  706MOL0     H97372   6.956   3.197   5.755 -2.5987  0.9453 -0.7341
  706MOL0     H97373   6.894   3.037   6.013  4.4665  1.3269  0.3281
  706MOL0     H97374   6.969   2.973   5.886  1.8577  1.1958  0.8011
  706MOL0     H97375   6.727   2.922   5.858  1.3369  0.3464  3.0779
  706MOL0     H97376   6.663   3.070   5.906  0.1245 -1.5884  1.2261
  706MOL0     H97377   6.845   2.892   5.620 -0.8096 -0.5125  1.0676
  706MOL0     H97378   6.901   3.005   5.362  0.3841  0.5303  0.0698
  706MOL0     H97379   6.755   3.060   5.288 -0.1301 -0.8619 -0.8257
  706MOL0     H97380   6.832   2.823   5.259 -0.2974 -1.5333 -0.2905
  706MOL0     H97381   6.787   2.785   5.423 -0.3223 -1.1092 -0.0024
  706MOL0     H97382   6.543   2.881   5.301  1.1609  1.5166 -0.5854
  706MOL0     H97383   6.647   2.827   5.164  0.9397 -0.5590  0.3521
  706MOL0     H97384   6.631   2.636   5.381  0.8428 -1.4424 -1.3202
  706MOL0     H97385   6.469   2.675   5.309 -0.1334  2.8321 -0.7537
  706MOL0     H97386   6.338   2.537   5.237  2.8357  3.3721 -2.2223
  706MOL0     H97387   6.140   2.399   5.259  1.3351  1.1921  1.7280
  706MOL0     H97388   6.209   2.256   5.353  2.6334 -1.6511 -1.0694
  706MOL0     H97389   6.143   2.249   5.183  1.3363  1.8596 -1.9170
  706MOL0     H97390   6.311   1.948   4.765 -3.0398 -2.0686 -2.2570
  706MOL0     H97391   6.278   1.735   4.695 -1.8913  3.5053 -0.0286
  706MOL0     H97392   6.313   1.536   4.647  2.1566  2.1236  0.4494
  706MOL0     H97393   6.447   1.487   4.745 -0.9030 -0.5502  1.0004
  706MOL0     H97394   6.333   1.259   4.764  2.8376  0.8634  0.0181
  706MOL0     H97395   6.199   1.319   4.687  0.5236 -0.3616  0.7477
  706MOL0     H97396   6.491   1.300   4.586 -0.4184  0.2592  2.7993
  706MOL0     H97397   6.378   1.397   4.502  0.8651 -1.0253 -2.0452
  706MOL0     H97398   6.213   1.227   4.454 -0.8855 -1.4624 -0.5801
  706MOL0     H97399   6.309   1.103   4.543  3.9914  0.6671  1.9107
  706MOL0     H97400   6.327   1.088   4.298  1.2639  0.2316 -1.1758
  706MOL0     H97401   6.401   1.243   4.292 -0.3862  0.0584 -0.3972
  706MOL0     H97402   6.608   1.140   4.418 -2.0500  1.2599  0.1496
  706MOL0     H97403   6.568   1.038   4.279 -0.5700 -2.4077 -0.7557
  706MOL0     H97404   6.460   0.870   4.410  0.7806  0.1166  0.7867
  706MOL0     H97405   6.466   0.970   4.556 -1.9986 -2.6023 -0.3541
  706MOL0     H97406   6.696   0.957   4.557 -3.9946 -1.0495  4.2486
  706MOL0     H97407   6.714   0.875   4.399 -0.1658  1.8383 -0.7212
  706MOL0     H97408   6.293   1.575   5.093  1.6759  0.6847  1.0717
  706MOL0     H97409   6.350   1.802   5.174 -0.9272  2.9099 -0.5340
  706MOL0     H97410   6.596   2.138   5.118 -3.4384 -1.0895 -1.8332
  706MOL0     H97411   6.718   2.363   5.120  1.1609 -1.2912  2.6163
  706MOL0     H97412   7.049   3.340   6.619  0.8017 -0.9339 -3.4700
  706MOL0     H97413   7.011   3.559   6.714  1.1713 -1.7912 -0.1612
  706MOL0     H97414   6.708   3.701   6.928  0.2866 -1.4200 -2.0938
  706MOL0     H97415   6.516   3.818   7.051  0.2923  2.2361  1.3711
  706MOL0     H97416   6.440   3.954   7.183  0.0060  0.1281 -0.3007
  706MOL0     H97417   6.339   4.083   7.205 -0.1269 -1.6708  2.4247
  706MOL0     H97418   6.277   3.878   6.984 -4.6722 -1.0625 -1.1577
  706MOL0     H97419   6.159   3.968   7.077  0.0746 -0.5590  0.8933
  706MOL0     H97420   6.353   3.751   7.197 -1.6091 -1.6196  1.6996
  706MOL0     H97421   6.227   3.843   7.283  2.0771 -0.4617  0.8024
  706MOL0     H97422   6.217   3.640   7.073 -1.4987  0.3611 -0.6016
  706MOL0     H97423   6.070   3.727   7.111 -0.4579 -2.4021 -3.7500
  706MOL0     H97424   6.127   3.515   7.481  0.8637 -0.1090  0.4180
  706MOL0     H97425   6.575   4.157   6.826  0.5863 -0.3870  1.1661
  706MOL0     H97426   6.735   4.162   6.606 -0.8956 -0.8724  0.7228
  706MOL0     H97427   6.865   4.056   6.633 -0.0642  0.2097 -0.0560
  706MOL0     H97428   6.737   4.001   6.534 -0.6025  0.6957 -0.7184
  707MOL0     O97429   3.658  10.149   5.230 -0.3808 -0.0885 -0.5377
  707MOL0     C97430   3.547  10.162   5.177 -0.8866 -0.0691  0.8455
  707MOL0     O97431   3.487  10.069   5.104 -0.2274  0.3366  0.3589
  707MOL0     C97432   3.518   9.936   5.147 -1.0876 -0.5859  0.6416
  707MOL0     C97433   3.549   9.893   5.275 -1.1135  0.1974 -0.2257
  707MOL0     C97434   3.564   9.749   5.294 -0.8302 -0.0994 -0.3811
  707MOL0     C97435   3.544   9.666   5.189 -0.1798  0.7260 -0.4997
  707MOL0     O97436   3.530   9.529   5.211  0.0737 -0.1886 -0.5023
  707MOL0     C97437   3.410   9.492   5.279  0.2224 -0.1924 -0.2551
  707MOL0     C97438   3.285   9.496   5.197  0.2686 -0.6798 -0.2970
  707MOL0     C97439   3.159   9.514   5.286  0.7171 -0.1644  0.9987
  707MOL0     C97440   3.031   9.507   5.197  0.8198 -0.6576  0.5997
  707MOL0     C97441   2.895   9.527   5.272  0.5957 -0.6406 -0.0866
  707MOL0     C97442   2.900   9.635   5.371 -0.1525 -0.1286 -0.8673
  707MOL0     C97443   2.757   9.639   5.434  0.1356 -0.4018 -0.0635
  707MOL0     C97444   2.690   9.767   5.501 -0.6136 -0.3236 -0.2872
  707MOL0     N97445   2.781   9.831   5.598  0.7830  0.7531  0.3713
  707MOL0     C97446   2.861   9.766   5.689  0.1923 -0.4200 -0.4475
  707MOL0     C97447   2.899   9.868   5.774  0.4315 -0.2721  0.3316
  707MOL0     C97448   2.958   9.850   5.907  1.1977  0.2207  0.1032
  707MOL0     C97449   3.067   9.953   5.935 -0.9604  1.3013  0.1360
  707MOL0     C97450   3.185   9.926   5.832 -0.3634 -0.2119  0.4355
  707MOL0     C97451   3.288   9.826   5.884 -0.3582 -0.5966  0.4423
  707MOL0     O97452   3.344   9.879   5.997  0.6223 -0.2930 -0.0353
  707MOL0     C97453   3.401   9.810   6.098 -0.8600  0.6943 -0.0029
  707MOL0     C97454   3.468   9.703   6.069  0.4900 -0.5451 -0.4929
  707MOL0     C97455   3.532   9.616   6.159 -0.7152 -0.6633 -0.5853
  707MOL0     C97456   3.640   9.523   6.107 -0.3477  0.3961 -0.0113
  707MOL0     C97457   3.519   9.650   6.292 -0.3989  0.2162 -0.1416
  707MOL0     C97458   3.597   9.573   6.393 -0.0815 -0.9822  0.1647
  707MOL0     O97459   3.650   9.651   6.498  0.4531  0.3608 -0.2810
  707MOL0     C97460   3.735   9.579   6.577  0.4881 -0.1786 -0.8549
  707MOL0     C97461   3.872   9.569   6.549  0.7951 -0.2512 -0.4486
  707MOL0     C97462   3.963   9.514   6.647 -0.0727  0.4933 -0.2540
  707MOL0     C97463   3.918   9.475   6.775  0.1848 -0.2178 -0.0382
  707MOL0     O97464   4.006   9.428   6.868 -0.4395  0.2271 -0.5608
  707MOL0     C97465   3.988   9.492   6.995  0.5475  0.3399  0.3342
  707MOL0     C97466   4.095   9.448   7.095  0.4137 -0.2258  0.0296
  707MOL0     C97467   4.110   9.292   7.115 -0.3910  0.6549  0.8545
  707MOL0     C97468   4.255   9.251   7.125 -1.4030  1.1144 -0.9303
  707MOL0     C97469   4.317   9.272   7.266 -0.0117 -0.1569 -0.6936
  707MOL0     C97470   4.274   9.180   7.379 -0.4904  0.3923 -0.4480
  707MOL0     C97471   4.355   9.183   7.504 -1.0339 -0.3802  0.6247
  707MOL0     C97472   4.460   9.071   7.529 -0.4168  1.0614  0.4089
  707MOL0    Cl97473   4.612   9.101   7.430  0.2669  0.6344 -0.0169
  707MOL0     C97474   3.774   9.489   6.804  0.3940  0.4668 -0.6500
  707MOL0     C97475   3.690   9.532   6.703  0.4497  0.2667  1.2437
  707MOL0     O97476   3.611   9.457   6.368 -0.3222  0.2437  0.0767
  707MOL0     C97477   3.440   9.768   6.329  0.1808  0.0769 -0.2656
  707MOL0     C97478   3.392   9.858   6.231  0.4722 -0.7601 -0.2387
  707MOL0     N97479   2.844   9.988   5.738  0.2984  0.3783 -0.1326
  707MOL0     N97480   2.775   9.967   5.630  0.5151 -0.1577  0.6489
  707MOL0     C97481   3.522   9.709   5.060  0.5981 -0.5542  0.1478
  707MOL0     C97482   3.499   9.842   5.045  0.1755  0.1880 -0.2073
  707MOL0     C97483   3.467  10.284   5.218  0.3876 -0.5732 -0.2549
  707MOL0     C97484   3.496  10.351   5.334  0.2988 -0.9584 -0.4416
  707MOL0     C97485   3.426  10.466   5.366 -0.7703  1.2523 -0.2790
  707MOL0     C97486   3.325  10.522   5.293 -1.2605 -0.4524 -0.9274
  707MOL0     O97487   3.254  10.636   5.336 -0.1474 -0.4091  0.1784
  707MOL0     C97488   3.312  10.724   5.439 -0.3026 -0.7885  0.1565
  707MOL0     C97489   3.243  10.843   5.501 -0.1287 -0.0718 -0.4920
  707MOL0     C97490   3.307  10.890   5.632  0.6689  0.6494  0.4459
  707MOL0     C97491   3.272  11.033   5.689  0.9352  0.0784  0.4518
  707MOL0     C97492   3.347  11.079   5.807 -0.0158  0.8523  0.2974
  707MOL0     C97493   3.431  11.123   5.885  0.6069 -0.8881 -0.5192
  707MOL0     C97494   3.285  10.450   5.186 -0.4691  0.2241  0.4816
  707MOL0     C97495   3.360  10.338   5.139 -0.1444 -0.3303  0.1281
  707MOL0     C97496   3.331  10.278   4.998 -0.0135  0.1389  0.5738
  707MOL0     H97497   3.581   9.959   5.355  4.0736 -1.1169 -0.8529
  707MOL0     H97498   3.578   9.709   5.394 -1.1564  2.1805  0.6312
  707MOL0     H97499   3.410   9.567   5.358  0.0998  0.9909 -1.3412
  707MOL0     H97500   3.426   9.393   5.323  2.2320 -0.2526 -1.0035
  707MOL0     H97501   3.292   9.567   5.114 -0.8609  0.4778  0.5758
  707MOL0     H97502   3.287   9.396   5.152  4.6782 -0.9502  0.0143
  707MOL0     H97503   3.143   9.431   5.357 -0.2901 -2.3879 -1.6554
  707MOL0     H97504   3.162   9.605   5.347 -1.9008 -0.5165  1.8052
  707MOL0     H97505   3.044   9.569   5.108 -0.6225 -3.0372 -1.4059
  707MOL0     H97506   3.013   9.407   5.156 -2.1569 -0.0397  0.1181
  707MOL0     H97507   2.865   9.436   5.324  1.5324 -1.0653 -0.2596
  707MOL0     H97508   2.821   9.549   5.195 -1.7559  2.7472  2.8445
  707MOL0     H97509   2.972   9.608   5.448 -0.4716  1.2342 -0.0568
  707MOL0     H97510   2.934   9.729   5.326  1.3867 -1.6778 -3.1785
  707MOL0     H97511   2.738   9.549   5.494 -0.8115 -2.7139 -3.5314
  707MOL0     H97512   2.686   9.630   5.352 -0.1241 -0.0614  0.1192
  707MOL0     H97513   2.669   9.846   5.429 -3.2265 -1.6621 -1.1212
  707MOL0     H97514   2.599   9.733   5.552 -0.1397 -0.6967  0.3210
  707MOL0     H97515   2.853   9.660   5.709 -2.0898  0.2603  3.2819
  707MOL0     H97516   3.008   9.753   5.913  1.5463  0.4020  0.1964
  707MOL0     H97517   2.874   9.853   5.976 -2.7809 -3.0346 -3.9705
  707MOL0     H97518   3.019  10.049   5.913 -3.5147  0.1022  0.1987
  707MOL0     H97519   3.106   9.946   6.037  0.3948 -0.7448 -0.4683
  707MOL0     H97520   3.137   9.883   5.744 -1.5604  0.6698  0.6329
  707MOL0     H97521   3.240  10.016   5.803  1.0239 -1.6673 -1.8281
  707MOL0     H97522   3.233   9.733   5.902 -2.5127  0.5772  0.2417
  707MOL0     H97523   3.360   9.807   5.805  3.2974  1.9620  2.8232
  707MOL0     H97524   3.487   9.665   5.969 -3.6191 -6.9553  0.5405
  707MOL0     H97525   3.730   9.529   6.169  0.2189 -2.0187 -0.4846
  707MOL0     H97526   3.672   9.554   6.007 -2.1655  0.8798 -0.4785
  707MOL0     H97527   3.599   9.421   6.107 -0.1916  0.3289 -0.6360
  707MOL0     H97528   3.917   9.613   6.461 -1.5384  2.9446 -0.2369
  707MOL0     H97529   4.069   9.518   6.624 -0.1335  0.8600 -0.4661
  707MOL0     H97530   3.993   9.601   6.990 -3.1000  0.6156 -0.2893
  707MOL0     H97531   3.896   9.460   7.045  0.5812 -2.0386 -0.9801
  707MOL0     H97532   4.187   9.476   7.042 -2.2190  2.9423 -3.4357
  707MOL0     H97533   4.076   9.491   7.194 -3.2506  1.7073 -1.3260
  707MOL0     H97534   4.069   9.245   7.025 -0.5112 -1.4506  1.9421
  707MOL0     H97535   4.056   9.268   7.208 -0.9462 -0.3820  0.2844
  707MOL0     H97536   4.318   9.288   7.044  0.7745 -0.8545 -0.2605
  707MOL0     H97537   4.276   9.144   7.115 -2.0424  0.5750  2.3196
  707MOL0     H97538   4.425   9.267   7.249  0.2704  2.3520 -0.0298
  707MOL0     H97539   4.288   9.372   7.297  0.6031 -0.6882  1.7361
  707MOL0     H97540   4.268   9.077   7.342 -3.9823 -1.4146  4.2112
  707MOL0     H97541   4.172   9.207   7.408 -1.7586 -4.5798  0.5777
  707MOL0     H97542   4.281   9.169   7.584 -1.5521 -2.1483 -0.1037
  707MOL0     H97543   4.413   9.276   7.513  1.4033 -1.6853 -0.4969
  707MOL0     H97544   4.410   8.974   7.516  0.9840  0.5428 -1.8494
  707MOL0     H97545   4.495   9.080   7.632 -0.7667  0.9508  0.5405
  707MOL0     H97546   3.729   9.469   6.901  2.4206  1.1271  0.5028
  707MOL0     H97547   3.587   9.535   6.737  0.3414 -0.6347  1.0394
  707MOL0     H97548   3.439   9.803   6.432  1.0313 -2.8199  0.8274
  707MOL0     H97549   3.340   9.951   6.250  0.0728 -0.6091 -1.8500
  707MOL0     H97550   3.506   9.629   4.988 -0.1506 -1.3331  1.1548
  707MOL0     H97551   3.481   9.858   4.940  0.4690  0.3984 -0.2266
  707MOL0     H97552   3.570  10.307   5.401  1.2071 -0.8066 -1.3301
  707MOL0     H97553   3.454  10.493   5.467  1.7445  2.1852 -1.1634
  707MOL0     H97554   3.337  10.655   5.521  0.5904 -1.3923 -0.6066
  707MOL0     H97555   3.403  10.769   5.397 -1.7236  0.2969 -1.9210
  707MOL0     H97556   3.134  10.836   5.508  0.0380 -1.8907  0.8511
  707MOL0     H97557   3.264  10.915   5.421 -0.3790 -1.2749 -1.6829
  707MOL0     H97558   3.281  10.825   5.717 -0.8236  0.7143  0.0583
  707MOL0     H97559   3.416  10.881   5.626  0.7055 -1.6370  2.5488
  707MOL0     H97560   3.166  11.026   5.717  0.0167 -0.6595 -2.7382
  707MOL0     H97561   3.268  11.105   5.607 -2.4131 -1.0178 -0.5406
  707MOL0     H97562   3.493  11.157   5.966 -1.0908  1.9942 -0.3044
  707MOL0     H97563   3.207  10.482   5.118 -0.3652  1.6990  1.0185
  707MOL0     H97564   3.266  10.355   4.956  0.7264 -0.4309 -1.7764
  707MOL0     H97565   3.418  10.259   4.933 -1.0064  0.1010 -0.7895
  707MOL0     H97566   3.274  10.185   5.000  0.5780 -0.2820 -0.8094
  708MOL0     O97567   1.117   1.310   9.562 -0.7485 -0.1885 -0.8097
  708MOL0     C97568   1.098   1.221   9.636 -0.0879  1.4864 -0.3512
  708MOL0     O97569   1.119   1.090   9.607  0.2493 -0.7927  1.3125
  708MOL0     C97570   1.139   1.063   9.468  0.1753  0.0834 -0.4436
  708MOL0     C97571   1.233   1.122   9.389 -0.3144 -0.5504  0.5640
  708MOL0     C97572   1.236   1.091   9.254 -0.4777  0.1338 -0.2250
  708MOL0     C97573   1.143   0.994   9.198 -0.1865 -1.1317 -0.0454
  708MOL0     O97574   1.119   0.963   9.071  0.7511 -1.2836  0.5426
  708MOL0     C97575   1.218   0.996   8.979 -0.3059  0.6113 -0.1152
  708MOL0     C97576   1.213   0.943   8.836 -0.3275 -0.2271 -0.3839
  708MOL0     C97577   1.213   0.793   8.824 -0.0772 -0.0529  0.8276
  708MOL0     C97578   1.350   0.731   8.862 -0.4692  0.3360  0.3209
  708MOL0     C97579   1.338   0.581   8.820  0.3620 -0.6899 -0.1938
  708MOL0     C97580   1.469   0.515   8.789  0.5872  0.3786 -0.5436
  708MOL0     C97581   1.455   0.373   8.720  0.8525  0.3214  0.4732
  708MOL0     C97582   1.346   0.289   8.798 -0.0002 -0.1894 -0.0154
  708MOL0     N97583   1.345   0.141   8.760  0.4055 -0.5184 -0.5068
  708MOL0     C97584   1.387   0.088   8.641 -0.7862 -0.3399 -1.0199
  708MOL0     C97585   1.320  -0.025   8.626 -0.3592  0.3935  0.3302
  708MOL0     C97586   1.354  -0.123   8.520 -0.5517  0.0043 -0.8167
  708MOL0     C97587   1.457  -0.214   8.562 -0.6400  0.2407 -0.3713
  708MOL0     C97588   1.582  -0.140   8.625  0.1917  0.0176  0.4360
  708MOL0     C97589   1.705  -0.231   8.648  0.1099 -0.0037  0.2054
  708MOL0     O97590   1.778  -0.177   8.761 -0.8491  0.3220 -0.1169
  708MOL0     C97591   1.822  -0.049   8.751 -0.0007  0.6781 -0.1189
  708MOL0     C97592   1.859   0.020   8.868  0.6220 -0.5208 -0.5412
  708MOL0     C97593   1.901   0.150   8.873  1.0307 -0.0356  1.0250
  708MOL0     C97594   1.940   0.217   9.003 -0.4282  0.7089  0.2542
  708MOL0     C97595   1.910   0.215   8.748 -0.6129 -0.4998  0.6669
  708MOL0     C97596   1.951   0.363   8.743  1.1971  0.2813  0.3360
  708MOL0     O97597   1.903   0.430   8.635 -0.1619  0.4721  0.4890
  708MOL0     C97598   1.946   0.553   8.602  0.4627  1.0718 -0.2754
  708MOL0     C97599   1.890   0.668   8.660  0.2985 -0.1220 -0.8069
  708MOL0     C97600   1.946   0.792   8.647  0.6181  0.1526  0.1844
  708MOL0     C97601   2.037   0.805   8.531  0.6936 -0.0128 -0.0502
  708MOL0     O97602   2.072   0.934   8.482  0.1465  0.0033  0.2757
  708MOL0     C97603   2.014   1.048   8.546 -0.1049  0.4568 -0.0648
  708MOL0     C97604   2.062   1.180   8.484 -0.4881  0.5301  0.4042
  708MOL0     C97605   2.064   1.294   8.582 -0.2134  0.2717  0.5261
  708MOL0     C97606   1.927   1.368   8.600 -0.8146 -0.1072  0.2885
  708MOL0     C97607   1.948   1.505   8.654 -0.5304 -1.0656 -0.2042
  708MOL0     C97608   1.817   1.593   8.668  0.7374  0.1692  0.0891
  708MOL0     C97609   1.813   1.709   8.776 -0.7026 -0.0356 -0.2552
  708MOL0     C97610   1.751   1.663   8.904 -0.0824  0.2545  0.4163
  708MOL0    Cl97611   1.585   1.588   8.879  0.2746 -0.0856 -0.3653
  708MOL0     C97612   2.067   0.693   8.456  0.2376  0.2602  1.0596
  708MOL0     C97613   2.032   0.566   8.490 -1.6281  0.0624 -0.2281
  708MOL0     O97614   2.010   0.418   8.838 -0.6267  0.1716 -0.2092
  708MOL0     C97615   1.876   0.153   8.620  0.0667  0.5193 -0.2562
  708MOL0     C97616   1.837   0.018   8.629 -0.6637  0.8471 -0.1164
  708MOL0     N97617   1.238  -0.047   8.732  0.6976  0.0589  0.7543
  708MOL0     N97618   1.254   0.047   8.816 -0.3989 -0.0083 -0.1108
  708MOL0     C97619   1.061   0.922   9.282  0.8943  0.4298 -0.6405
  708MOL0     C97620   1.066   0.955   9.415  0.4444 -0.3400 -0.5292
  708MOL0     C97621   1.049   1.265   9.770  0.6532 -0.0084 -0.1176
  708MOL0     C97622   0.985   1.394   9.780 -1.5746  0.1292  0.9956
  708MOL0     C97623   0.952   1.451   9.900  0.0159  0.0900 -0.0422
  708MOL0     C97624   0.965   1.379  10.013 -0.3960  0.0627 -0.9183
  708MOL0     O97625   0.915   1.416  10.137  0.5807 -0.5941 -0.3695
  708MOL0     C97626   0.798   1.502  10.142 -0.4784 -0.6760  0.0644
  708MOL0     C97627   0.713   1.459  10.257 -0.3192 -0.1396 -0.5600
  708MOL0     C97628   0.618   1.574  10.307  0.1156 -0.6432  0.1209
  708MOL0     C97629   0.531   1.535  10.420 -0.3880 -0.6040 -0.6787
  708MOL0     C97630   0.406   1.609  10.414 -1.1553 -0.2278 -0.1678
  708MOL0     C97631   0.303   1.671  10.417  1.2621  0.5661 -0.2434
  708MOL0     C97632   1.026   1.246  10.011 -0.2925 -0.0422 -0.4826
  708MOL0     C97633   1.054   1.183   9.887 -0.2911 -0.3011  0.4122
  708MOL0     C97634   1.124   1.048   9.878  0.3967 -0.3683  0.1355
  708MOL0     H97635   1.287   1.208   9.425  0.1091 -0.1657 -0.9086
  708MOL0     H97636   1.294   1.156   9.188  1.3350 -2.1965 -1.0983
  708MOL0     H97637   1.311   0.960   9.025  0.0068 -0.0452 -1.2277
  708MOL0     H97638   1.231   1.105   8.984  1.4322  0.3868  2.4910
  708MOL0     H97639   1.125   0.989   8.789 -0.1913  1.9952  1.3698
  708MOL0     H97640   1.296   0.988   8.782  0.3895  1.9729  2.3586
  708MOL0     H97641   1.132   0.740   8.874  1.1669 -1.6688  1.2185
  708MOL0     H97642   1.190   0.772   8.719 -0.8353 -0.0470  0.9915
  708MOL0     H97643   1.432   0.778   8.806  0.4525  0.0279  1.3814
  708MOL0     H97644   1.366   0.749   8.969 -2.0418 -0.0718  0.6509
  708MOL0     H97645   1.281   0.583   8.726 -3.8085 -1.1055  2.0979
  708MOL0     H97646   1.277   0.517   8.884  1.9354  0.5424  2.6869
  708MOL0     H97647   1.531   0.582   8.729  0.6629  2.1629  1.3997
  708MOL0     H97648   1.516   0.508   8.888  1.1358  1.4843 -0.7129
  708MOL0     H97649   1.551   0.320   8.725  1.0089  0.3509 -1.4367
  708MOL0     H97650   1.437   0.399   8.615  0.7269  0.5261  0.5445
  708MOL0     H97651   1.364   0.303   8.905  0.3903  1.0769 -0.2252
  708MOL0     H97652   1.246   0.320   8.767 -0.5630 -2.8915 -1.2262
  708MOL0     H97653   1.458   0.136   8.575  1.6646  0.7874  2.2036
  708MOL0     H97654   1.393  -0.063   8.437  2.1676  3.4987  2.6324
  708MOL0     H97655   1.278  -0.191   8.481  0.7362 -3.4642  2.1394
  708MOL0     H97656   1.412  -0.270   8.645 -2.4843  2.2571  0.0858
  708MOL0     H97657   1.490  -0.289   8.491 -1.7602  1.5760 -2.3928
  708MOL0     H97658   1.613  -0.063   8.554 -1.2480 -0.0028 -0.2569
  708MOL0     H97659   1.552  -0.085   8.714  1.1638  0.2418  0.6277
  708MOL0     H97660   1.669  -0.331   8.676  0.3984 -0.4977 -1.1433
  708MOL0     H97661   1.770  -0.252   8.563 -0.1827  1.3542 -0.3698
  708MOL0     H97662   1.843  -0.042   8.956 -2.2919 -2.1851 -2.0739
  708MOL0     H97663   1.929   0.148   9.087 -1.6281  0.5876  0.0100
  708MOL0     H97664   1.875   0.302   9.028 -2.4699 -0.6622 -0.1321
  708MOL0     H97665   2.045   0.247   9.004  0.8435 -3.2256  0.6714
  708MOL0     H97666   1.811   0.650   8.732  3.5800 -2.2839  2.5614
  708MOL0     H97667   1.913   0.875   8.709  3.5542  1.1424  0.5873
  708MOL0     H97668   1.907   1.032   8.527  0.2618 -0.9788 -1.1527
  708MOL0     H97669   2.040   1.050   8.652  1.9132 -2.1792 -0.4161
  708MOL0     H97670   2.160   1.165   8.437 -2.1289 -1.9815 -2.5644
  708MOL0     H97671   1.994   1.198   8.400  0.0631  1.2702  0.1055
  708MOL0     H97672   2.138   1.367   8.547  0.2806 -0.4872 -0.0448
  708MOL0     H97673   2.087   1.263   8.685 -3.6909 -1.4811  0.9098
  708MOL0     H97674   1.867   1.307   8.667 -2.3548 -0.2128 -1.1270
  708MOL0     H97675   1.870   1.373   8.507 -0.7502  1.1142  0.2924
  708MOL0     H97676   1.986   1.509   8.756 -3.1837 -0.5540  0.8537
  708MOL0     H97677   2.024   1.557   8.595  0.5220  0.4974  2.3532
  708MOL0     H97678   1.732   1.527   8.684  1.0399 -0.6490 -1.3953
  708MOL0     H97679   1.795   1.638   8.571 -2.8854  1.0667  1.1828
  708MOL0     H97680   1.757   1.789   8.727  1.9843  0.5433 -2.6520
  708MOL0     H97681   1.910   1.754   8.799 -0.0646 -1.9570  1.1229
  708MOL0     H97682   1.745   1.749   8.971  2.6831  1.1112 -0.3279
  708MOL0     H97683   1.818   1.592   8.955 -3.2011 -1.8497  1.9284
  708MOL0     H97684   2.122   0.700   8.363 -0.8642  4.5605  0.5324
  708MOL0     H97685   2.080   0.483   8.438  1.7356  0.5685  1.7641
  708MOL0     H97686   1.884   0.212   8.529  0.3454  0.2232 -0.4227
  708MOL0     H97687   1.824  -0.032   8.534 -0.2255  1.4219 -0.4839
  708MOL0     H97688   0.984   0.853   9.248  0.6104  0.0644  0.6692
  708MOL0     H97689   1.005   0.890   9.477 -0.3681  1.6857  0.9064
  708MOL0     H97690   0.973   1.458   9.693  1.7289 -0.0967  0.2262
  708MOL0     H97691   0.905   1.549   9.911 -2.1705 -1.1683  4.9161
  708MOL0     H97692   0.839   1.601  10.166  2.6168 -2.6379  4.2088
  708MOL0     H97693   0.750   1.508  10.044  2.6526  1.2690 -1.5286
  708MOL0     H97694   0.791   1.449  10.332  1.1905  1.1664 -1.8858
  708MOL0     H97695   0.652   1.369  10.241 -2.0197  0.2967  2.7009
  708MOL0     H97696   0.676   1.664  10.329  1.4143 -1.3594 -0.2645
  708MOL0     H97697   0.554   1.594  10.220 -2.5591  0.4034  2.1952
  708MOL0     H97698   0.583   1.549  10.515  1.9741  1.7861 -2.1740
  708MOL0     H97699   0.499   1.431  10.422 -1.4509 -0.2955  1.6055
  708MOL0     H97700   0.212   1.726  10.412 -1.9733 -4.1119  0.8404
  708MOL0     H97701   1.022   1.193  10.106 -1.6628 -2.8346 -1.9594
  708MOL0     H97702   1.223   1.044   9.832  0.2661 -0.8961 -0.1086
  708MOL0     H97703   1.119   0.990   9.971 -0.2632  0.5294  0.6678
  708MOL0     H97704   1.067   0.987   9.808 -2.3742  1.4625  0.6244
  709MOL0     O97705   4.849   8.360  10.434 -0.8899  0.2571 -0.0093
  709MOL0     C97706   4.966   8.380  10.474 -0.7369 -0.5469 -0.3184
  709MOL0     O97707   5.010   8.487  10.543  0.2486 -0.3427 -0.3602
  709MOL0     C97708   4.934   8.601  10.551 -0.3591 -0.1073 -0.5464
  709MOL0     C97709   4.936   8.699  10.455 -0.4055  0.0317  0.5238
  709MOL0     C97710   4.889   8.830  10.485 -0.3641  0.4818  0.3852
  709MOL0     C97711   4.806   8.854  10.587 -0.3125  1.5155 -0.1722
  709MOL0     O97712   4.734   8.971  10.599 -0.7433 -0.6377  0.7348
  709MOL0     C97713   4.609   8.969  10.659  1.0515  0.1223  0.2292
  709MOL0     C97714   4.506   9.067  10.594 -0.5144  0.3320  0.1000
  709MOL0     C97715   4.377   9.050  10.680  0.8541  1.0420 -0.6909
  709MOL0     C97716   4.263   9.149  10.648 -0.4042  0.9412 -0.4669
  709MOL0     C97717   4.219   9.124  10.502  0.0750  0.6077  0.0167
  709MOL0     C97718   4.096   9.207  10.450  0.4795 -0.9574 -0.0265
  709MOL0     C97719   4.058   9.165  10.307 -0.9799  0.3304 -0.5382
  709MOL0     C97720   3.961   9.251  10.228  0.4742  0.7476  0.3316
  709MOL0     N97721   4.031   9.305  10.109 -0.3016  0.6967  0.9174
  709MOL0     C97722   4.009   9.261   9.981  0.2313  0.2149 -0.9208
  709MOL0     C97723   4.069   9.352   9.906 -0.4701 -0.3976 -0.7694
  709MOL0     C97724   4.069   9.360   9.760 -0.1537  0.3013 -0.6528
  709MOL0     C97725   4.158   9.468   9.701 -0.0192 -0.5634  0.5086
  709MOL0     C97726   4.307   9.433   9.696 -0.3241  1.1337  0.9666
  709MOL0     C97727   4.337   9.293   9.639 -0.8549 -0.1198 -1.0366
  709MOL0     O97728   4.245   9.255   9.539 -0.0950  0.3185  0.1938
  709MOL0     C97729   4.308   9.168   9.451 -1.2175  0.4931 -0.6952
  709MOL0     C97730   4.342   9.221   9.332  0.7058 -0.5112  0.5425
  709MOL0     C97731   4.421   9.161   9.235 -1.1715  0.0514 -0.1108
  709MOL0     C97732   4.449   9.235   9.101  0.1608 -0.7154 -0.2564
  709MOL0     C97733   4.459   9.030   9.256 -1.0104  0.8778  0.1203
  709MOL0     C97734   4.537   8.941   9.170  0.3260  0.9345 -0.6579
  709MOL0     O97735   4.504   8.810   9.177 -0.2858  0.1476 -1.0105
  709MOL0     C97736   4.575   8.734   9.090  0.2883 -0.0721 -0.1678
  709MOL0     C97737   4.501   8.649   9.009 -0.2319  0.3039 -0.3401
  709MOL0     C97738   4.562   8.556   8.928 -0.0620  0.1323 -0.3213
  709MOL0     C97739   4.700   8.547   8.934 -0.2516  1.1219  0.2416
  709MOL0     O97740   4.789   8.454   8.859 -0.3339  0.5184 -0.0201
  709MOL0     C97741   4.746   8.323   8.822 -0.0236  0.1649 -1.3946
  709MOL0     C97742   4.845   8.224   8.883 -0.5143  1.4469  0.6982
  709MOL0     C97743   4.849   8.217   9.034 -0.1152  0.8499  0.1723
  709MOL0     C97744   4.961   8.304   9.091 -0.1700 -0.9170 -0.1139
  709MOL0     C97745   4.953   8.310   9.249 -0.0417 -0.1814  0.0945
  709MOL0     C97746   5.039   8.421   9.316  0.4742 -0.2876 -0.3917
  709MOL0     C97747   5.184   8.409   9.264  0.6799 -0.6417  0.6124
  709MOL0     C97748   5.271   8.509   9.338  0.1753  0.5444 -0.4335
  709MOL0    Cl97749   5.443   8.498   9.279  0.4438  0.2071 -0.0698
  709MOL0     C97750   4.776   8.626   9.016  0.0533  0.1216  0.1535
  709MOL0     C97751   4.713   8.714   9.099  0.0672 -0.0729  0.3931
  709MOL0     O97752   4.617   8.994   9.094  0.5537 -0.1000  0.9923
  709MOL0     C97753   4.407   8.964   9.371 -1.0600 -0.4100 -0.3673
  709MOL0     C97754   4.348   9.039   9.473  0.6764  0.6187  0.2935
  709MOL0     N97755   4.125   9.450   9.980  0.1523 -0.4229 -0.5999
  709MOL0     N97756   4.104   9.414  10.105 -0.6364  0.4118  0.0117
  709MOL0     C97757   4.792   8.743  10.671 -0.1917 -0.5639 -0.9892
  709MOL0     C97758   4.853   8.621  10.669  0.6796 -0.2057  0.9096
  709MOL0     C97759   5.063   8.289  10.432  0.4004  0.8634  1.0966
  709MOL0     C97760   5.114   8.203  10.530 -0.4408 -0.8964  0.4279
  709MOL0     C97761   5.209   8.105  10.494 -0.1284 -0.2545 -0.2093
  709MOL0     C97762   5.268   8.089  10.368  0.7242  0.4997 -0.4537
  709MOL0     O97763   5.380   8.008  10.336  0.1874 -0.8652  0.1403
  709MOL0     C97764   5.437   7.922  10.436  0.1075 -0.0700  0.5618
  709MOL0     C97765   5.538   7.819  10.381  0.7679  0.2781 -0.0187
  709MOL0     C97766   5.465   7.729  10.278 -0.1330 -0.3947 -1.0599
  709MOL0     C97767   5.555   7.632  10.191 -0.2301 -0.2080 -0.1010
  709MOL0     C97768   5.653   7.563  10.274 -1.0666  0.1872 -0.6976
  709MOL0     C97769   5.727   7.494  10.340 -0.1419 -0.3985  0.4211
  709MOL0     C97770   5.205   8.169  10.266 -0.8569  0.5620 -0.5571
  709MOL0     C97771   5.113   8.272  10.301  0.6184 -0.4809 -0.2138
  709MOL0     C97772   5.061   8.375  10.197 -1.0181  0.6377 -0.4207
  709MOL0     H97773   4.969   8.683  10.353  0.7039 -1.4001  1.0744
  709MOL0     H97774   4.893   8.902  10.403 -3.6073 -1.5226 -1.7989
  709MOL0     H97775   4.623   9.009  10.760  0.4126  2.9085 -0.6967
  709MOL0     H97776   4.570   8.867  10.652 -0.1882  0.6178 -0.3347
  709MOL0     H97777   4.538   9.170  10.611 -2.0846  0.7497  0.6999
  709MOL0     H97778   4.499   9.052  10.486  2.5636 -0.7821 -0.0506
  709MOL0     H97779   4.330   8.951  10.679 -2.3145  2.3308  2.1222
  709MOL0     H97780   4.390   9.070  10.787 -1.0414 -2.9711  0.5079
  709MOL0     H97781   4.187   9.121  10.722  1.9867 -2.4081  0.9665
  709MOL0     H97782   4.295   9.253  10.659 -0.2100  0.9504 -1.0842
  709MOL0     H97783   4.178   9.022  10.499 -0.5155  0.7990  1.0314
  709MOL0     H97784   4.305   9.135  10.435  0.6294  0.5698  0.7035
  709MOL0     H97785   4.011   9.188  10.516 -0.2040  2.3311  0.1924
  709MOL0     H97786   4.132   9.310  10.460  1.5067 -1.4736  2.2912
  709MOL0     H97787   4.014   9.066  10.319 -0.8404  0.4629  1.5513
  709MOL0     H97788   4.144   9.159  10.240 -0.3567  2.3584 -0.0075
  709MOL0     H97789   3.865   9.202  10.207  0.0675  1.4431  0.5130
  709MOL0     H97790   3.940   9.337  10.292  0.7248  0.3506  0.9596
  709MOL0     H97791   3.960   9.172   9.944 -0.5400  1.4484 -3.0623
  709MOL0     H97792   3.961   9.371   9.747 -0.9597 -2.5503  2.1771
  709MOL0     H97793   4.089   9.260   9.720 -1.1078 -0.7554  1.3771
  709MOL0     H97794   4.137   9.486   9.595 -0.1291  1.5712  0.8483
  709MOL0     H97795   4.138   9.556   9.762 -0.2600 -0.9337  0.9747
  709MOL0     H97796   4.344   9.506   9.623 -3.0999  1.7661  0.0561
  709MOL0     H97797   4.350   9.437   9.796  0.2398 -1.6937  0.9111
  709MOL0     H97798   4.444   9.295   9.617 -0.8223  4.1542 -1.2819
  709MOL0     H97799   4.333   9.218   9.719  2.2916  0.2764 -0.3571
  709MOL0     H97800   4.310   9.322   9.305  1.6125 -0.8225 -1.9992
  709MOL0     H97801   4.443   9.167   9.015 -0.4028  2.5319 -2.9901
  709MOL0     H97802   4.540   9.295   9.111 -0.7083  0.5379  0.3981
  709MOL0     H97803   4.369   9.304   9.073  2.3375  1.5428 -1.3683
  709MOL0     H97804   4.393   8.650   9.015 -0.2968 -2.2374 -0.1965
  709MOL0     H97805   4.501   8.502   8.856  0.4472  3.1283 -3.2804
  709MOL0     H97806   4.646   8.300   8.860  0.7369  3.2860  3.2528
  709MOL0     H97807   4.755   8.322   8.713 -0.7403  0.2324 -1.4575
  709MOL0     H97808   4.820   8.124   8.847 -1.8421  1.6329  1.0390
  709MOL0     H97809   4.943   8.245   8.841  0.1985 -3.0006 -0.4078
  709MOL0     H97810   4.859   8.109   9.051 -1.0968  0.1588 -3.0014
  709MOL0     H97811   4.753   8.251   9.073 -0.9692 -0.3715 -0.7834
  709MOL0     H97812   4.966   8.402   9.043 -0.4501 -0.9626 -0.2448
  709MOL0     H97813   5.053   8.260   9.051  0.5404  0.6763 -0.3168
  709MOL0     H97814   4.849   8.322   9.279 -0.5000  0.7338 -1.7770
  709MOL0     H97815   4.976   8.218   9.304  0.5701  3.0511  6.1330
  709MOL0     H97816   5.037   8.410   9.424 -0.3913  2.5667 -0.0469
  709MOL0     H97817   4.994   8.519   9.299  2.2848  0.0777 -4.4150
  709MOL0     H97818   5.199   8.445   9.162 -0.5631  2.4142  1.3966
  709MOL0     H97819   5.224   8.307   9.276 -0.4387 -1.0841  0.6915
  709MOL0     H97820   5.266   8.474   9.441 -1.6515 -2.7138 -1.4978
  709MOL0     H97821   5.238   8.611   9.316  1.0593  0.8943 -0.1850
  709MOL0     H97822   4.884   8.628   9.018  0.0504  0.5238  2.0086
  709MOL0     H97823   4.763   8.780   9.170 -2.0829  0.5351  1.4155
  709MOL0     H97824   4.422   8.858   9.389  0.0883 -0.7588 -3.0398
  709MOL0     H97825   4.311   8.994   9.564  3.7466 -3.4370 -0.1823
  709MOL0     H97826   4.716   8.754  10.747 -0.5393  0.4134 -1.4634
  709MOL0     H97827   4.833   8.539  10.736 -3.9661 -1.1397 -1.2032
  709MOL0     H97828   5.078   8.217  10.631  0.3155  2.3603  0.3462
  709MOL0     H97829   5.252   8.032  10.562 -0.9044 -0.2095  0.3495
  709MOL0     H97830   5.481   7.977  10.519  3.8644 -2.3772  0.3435
  709MOL0     H97831   5.356   7.857  10.472 -3.7585  3.6310 -0.6736
  709MOL0     H97832   5.586   7.757  10.457  0.4790 -1.5099 -1.2481
  709MOL0     H97833   5.618   7.865  10.321  0.1383 -0.2435 -1.2923
  709MOL0     H97834   5.394   7.666  10.332 -1.2026 -0.3557 -2.3584
  709MOL0     H97835   5.406   7.797  10.215 -2.1287  0.8094  1.8989
  709MOL0     H97836   5.604   7.671  10.102 -3.3333  0.4110 -1.7024
  709MOL0     H97837   5.496   7.553  10.144  0.5423  0.8811 -3.1051
  709MOL0     H97838   5.756   7.416  10.407 -0.1792  1.0627  2.2282
  709MOL0     H97839   5.237   8.173  10.163 -0.2314  0.2724 -0.3799
  709MOL0     H97840   5.079   8.477  10.234  2.7511  0.8389 -2.2798
  709MOL0     H97841   5.124   8.373  10.107 -2.4790 -0.3786 -1.4569
  709MOL0     H97842   4.958   8.360  10.165 -1.0322 -0.7052  0.2057
  710MOL0     O97843   1.574   5.915   0.410 -0.1957 -0.6738  0.2759
  710MOL0     C97844   1.589   6.009   0.330  0.4353 -1.2077 -0.1235
  710MOL0     O97845   1.677   6.008   0.224  0.3304  0.0191  0.0690
  710MOL0     C97846   1.781   5.921   0.234 -0.3882  0.3645  0.1411
  710MOL0     C97847   1.921   5.965   0.245  1.3543 -0.2618  0.6152
  710MOL0     C97848   2.028   5.881   0.258 -0.4211  0.5034 -0.0344
  710MOL0     C97849   2.007   5.745   0.280  0.2482 -0.6781  0.0545
  710MOL0     O97850   2.118   5.655   0.265  0.2731 -0.1765 -0.0203
  710MOL0     C97851   2.155   5.602   0.395 -0.8622 -0.5160  0.7886
  710MOL0     C97852   2.304   5.619   0.408 -0.4587  0.5148  0.8375
  710MOL0     C97853   2.351   5.630   0.549  0.6753  0.0469 -0.3718
  710MOL0     C97854   2.498   5.661   0.558  0.6866  0.5491 -0.3853
  710MOL0     C97855   2.558   5.710   0.689  1.2927  1.1196  0.5258
  710MOL0     C97856   2.695   5.785   0.672  0.3158  0.1176  0.4813
  710MOL0     C97857   2.811   5.673   0.642  0.4669 -0.4828 -0.1729
  710MOL0     C97858   2.839   5.571   0.756 -0.6704 -0.2813 -0.3830
  710MOL0     N97859   2.890   5.624   0.880 -0.1437 -0.6678  0.6070
  710MOL0     C97860   3.022   5.647   0.906 -0.7060 -1.0360 -0.4678
  710MOL0     C97861   3.016   5.701   1.031 -0.0340  0.3566  0.7890
  710MOL0     C97862   3.127   5.735   1.121  0.5240  0.8863  0.4227
  710MOL0     C97863   3.262   5.663   1.084  0.0925 -0.1623  1.7471
  710MOL0     C97864   3.378   5.696   1.175 -0.2757  1.1654  0.1630
  710MOL0     C97865   3.369   5.636   1.307  0.5981  0.5994  0.9544
  710MOL0     O97866   3.278   5.520   1.321 -1.0261  0.0544  0.4088
  710MOL0     C97867   3.329   5.393   1.358 -0.2892 -1.0747 -0.3249
  710MOL0     C97868   3.246   5.286   1.332  0.2584 -0.2898  0.0010
  710MOL0     C97869   3.281   5.151   1.352  0.0955 -0.2635  0.0257
  710MOL0     C97870   3.180   5.046   1.358  0.7546  0.4765  0.3794
  710MOL0     C97871   3.407   5.135   1.407 -0.0357  0.5661 -0.7665
  710MOL0     C97872   3.468   5.002   1.451 -0.8767  0.5449  0.0842
  710MOL0     O97873   3.420   4.889   1.391  0.2726  0.4410  0.2915
  710MOL0     C97874   3.465   4.758   1.416  0.7650 -0.5624 -0.2234
  710MOL0     C97875   3.575   4.717   1.491 -0.8287  0.2939  0.6027
  710MOL0     C97876   3.599   4.585   1.505  0.1518  0.2453  0.4510
  710MOL0     C97877   3.525   4.480   1.450  0.6527  0.4166 -0.3772
  710MOL0     O97878   3.558   4.344   1.460  0.0697 -0.2848 -0.6558
  710MOL0     C97879   3.677   4.297   1.530  0.1822  1.3684  0.2514
  710MOL0     C97880   3.663   4.158   1.588 -0.6442  0.1353 -1.0304
  710MOL0     C97881   3.634   4.060   1.483  0.5181 -0.2642  0.1251
  710MOL0     C97882   3.645   3.909   1.529  0.0101 -0.4945 -0.2734
  710MOL0     C97883   3.783   3.852   1.531  0.2961  0.1545  0.2402
  710MOL0     C97884   3.858   3.877   1.400 -0.4603 -0.3864 -0.0685
  710MOL0     C97885   3.999   3.807   1.404 -1.0819  0.3462 -0.6023
  710MOL0     C97886   4.098   3.823   1.286 -0.9913  0.2646 -0.5818
  710MOL0    Cl97887   4.146   3.996   1.239  0.1422  0.0739 -0.4108
  710MOL0     C97888   3.412   4.525   1.381  0.6065  0.8679  0.3262
  710MOL0     C97889   3.391   4.658   1.367  0.9708  1.1689 -0.0490
  710MOL0     O97890   3.553   5.004   1.534  0.1460 -0.1137  0.6782
  710MOL0     C97891   3.492   5.247   1.440  0.0640  0.3103 -0.7215
  710MOL0     C97892   3.460   5.374   1.407  0.6494 -1.2619 -0.0986
  710MOL0     N97893   2.883   5.730   1.055  0.4609  0.6817 -0.4998
  710MOL0     N97894   2.809   5.689   0.964 -0.4127 -0.7450  1.0006
  710MOL0     C97895   1.874   5.702   0.270  0.8171  0.5341  0.5006
  710MOL0     C97896   1.758   5.782   0.245 -0.4252  0.0241 -0.2044
  710MOL0     C97897   1.506   6.127   0.352  0.6622  0.2175 -0.1072
  710MOL0     C97898   1.387   6.144   0.272 -0.2857 -0.4769 -0.2470
  710MOL0     C97899   1.320   6.270   0.280  0.7250 -0.1321  0.9564
  710MOL0     C97900   1.353   6.369   0.372  0.6560 -0.0879 -0.0296
  710MOL0     O97901   1.270   6.473   0.414  0.1608 -0.7130  0.4505
  710MOL0     C97902   1.138   6.501   0.350  0.5808  0.2958  0.1065
  710MOL0     C97903   1.118   6.654   0.367  0.9951 -0.3842  0.7715
  710MOL0     C97904   1.244   6.739   0.349  0.2734 -0.2483  0.3192
  710MOL0     C97905   1.205   6.891   0.341  0.3702 -0.0562  1.2048
  710MOL0     C97906   1.207   6.938   0.197 -0.3118 -0.1486 -0.8668
  710MOL0     C97907   1.224   6.982   0.081 -1.2255 -0.5380 -1.4587
  710MOL0     C97908   1.460   6.339   0.462 -0.0237 -0.5224 -0.1503
  710MOL0     C97909   1.536   6.223   0.450 -0.7247  0.3131 -0.1103
  710MOL0     C97910   1.645   6.215   0.553 -0.7909  0.2859  0.3614
  710MOL0     H97911   1.946   6.071   0.240  1.8164 -0.3550  0.9206
  710MOL0     H97912   2.129   5.919   0.254 -1.0027  2.2207  0.6310
  710MOL0     H97913   2.142   5.494   0.387 -1.3870 -0.4868  1.2288
  710MOL0     H97914   2.102   5.643   0.482  1.5719  3.2403  0.7496
  710MOL0     H97915   2.358   5.544   0.350 -0.6485  0.0647  1.2410
  710MOL0     H97916   2.322   5.712   0.353 -1.1471  0.4825  0.5488
  710MOL0     H97917   2.293   5.711   0.595 -0.5231  1.0080 -3.3568
  710MOL0     H97918   2.328   5.541   0.609  2.4626  0.8134  1.5385
  710MOL0     H97919   2.553   5.577   0.514  2.3055  2.6586 -2.6484
  710MOL0     H97920   2.518   5.738   0.483  3.2419  0.8076  0.4813
  710MOL0     H97921   2.560   5.623   0.755  0.8143  0.6613 -0.0470
  710MOL0     H97922   2.485   5.780   0.731  0.4545  1.2127 -0.9847
  710MOL0     H97923   2.681   5.852   0.586 -3.4532 -0.0796  0.7814
  710MOL0     H97924   2.717   5.837   0.766 -3.6951  0.8125  1.2211
  710MOL0     H97925   2.901   5.730   0.615 -1.8763  2.2755 -2.8249
  710MOL0     H97926   2.786   5.618   0.552  2.0184  0.4749 -1.2403
  710MOL0     H97927   2.754   5.508   0.784  1.3265 -2.3200  1.5463
  710MOL0     H97928   2.925   5.511   0.724 -1.2699  0.3672 -3.5566
  710MOL0     H97929   3.114   5.615   0.858  0.1059 -1.7771  1.4525
  710MOL0     H97930   3.096   5.703   1.220 -0.0265  1.0888  0.3187
  710MOL0     H97931   3.132   5.843   1.136 -2.6424  1.1908 -0.0273
  710MOL0     H97932   3.270   5.555   1.064  2.0813  0.1785  0.3735
  710MOL0     H97933   3.278   5.704   0.984 -1.3433 -4.6349 -0.6281
  710MOL0     H97934   3.473   5.666   1.132  0.2199  1.7748  0.8059
  710MOL0     H97935   3.391   5.805   1.170 -0.1003  1.0815 -2.1332
  710MOL0     H97936   3.476   5.631   1.329  1.0110  1.7416 -0.6634
  710MOL0     H97937   3.323   5.705   1.378  0.1216  0.8167  0.4333
  710MOL0     H97938   3.151   5.325   1.296  0.4549 -0.7188 -1.0024
  710MOL0     H97939   3.075   5.075   1.356  1.0321  1.4859 -0.9056
  710MOL0     H97940   3.195   4.994   1.454 -2.2268 -0.8378  0.2344
  710MOL0     H97941   3.203   4.974   1.279  2.1379  2.0960 -0.7646
  710MOL0     H97942   3.645   4.782   1.543  1.1047 -0.7712 -0.5269
  710MOL0     H97943   3.688   4.556   1.559  0.0436  0.1646  0.5864
  710MOL0     H97944   3.765   4.311   1.466  2.4394  3.7500  3.5118
  710MOL0     H97945   3.689   4.351   1.625  1.1780 -0.6878  1.3659
  710MOL0     H97946   3.761   4.138   1.632 -1.2100  1.1613  0.7821
  710MOL0     H97947   3.586   4.155   1.666 -0.8978  0.7006 -1.2480
  710MOL0     H97948   3.688   4.089   1.392 -2.3086  1.1335 -1.2630
  710MOL0     H97949   3.530   4.077   1.453  0.5835 -0.0784  0.0048
  710MOL0     H97950   3.577   3.840   1.478 -2.5286 -0.2255  2.4556
  710MOL0     H97951   3.609   3.907   1.632  0.0300 -0.4112 -0.2651
  710MOL0     H97952   3.834   3.893   1.618  2.3947  1.0615 -1.3359
  710MOL0     H97953   3.764   3.746   1.545 -0.8231  0.0076 -1.8553
  710MOL0     H97954   3.869   3.982   1.372  4.6824 -0.3943  0.9742
  710MOL0     H97955   3.797   3.833   1.320 -1.0552 -0.9866  0.6924
  710MOL0     H97956   3.983   3.701   1.425  1.2946  0.3220  1.5281
  710MOL0     H97957   4.040   3.850   1.495 -3.4638 -0.1346  0.7754
  710MOL0     H97958   4.047   3.782   1.198  0.2865 -3.1228  0.0939
  710MOL0     H97959   4.187   3.758   1.290 -0.4571  0.4419 -4.8431
  710MOL0     H97960   3.331   4.462   1.348 -1.5470  1.5558  3.7993
  710MOL0     H97961   3.304   4.684   1.308 -1.2389 -2.3908  1.3467
  710MOL0     H97962   3.586   5.248   1.493  0.1093  3.8857 -0.5728
  710MOL0     H97963   3.537   5.449   1.420  0.9039 -1.3003 -1.3187
  710MOL0     H97964   1.861   5.597   0.294  0.6633  0.6645  0.9997
  710MOL0     H97965   1.654   5.755   0.231 -0.6725  1.8028 -2.5022
  710MOL0     H97966   1.359   6.063   0.205  4.7702 -1.7680 -1.1951
  710MOL0     H97967   1.238   6.286   0.211  2.9500 -1.7854 -2.3730
  710MOL0     H97968   1.127   6.464   0.248  0.1555  2.7740 -0.8179
  710MOL0     H97969   1.056   6.452   0.404 -2.7227  4.3773 -0.6500
  710MOL0     H97970   1.069   6.680   0.461 -2.8738 -2.7460 -0.3880
  710MOL0     H97971   1.051   6.683   0.286  1.7166  2.5471  1.1051
  710MOL0     H97972   1.292   6.733   0.447 -1.6700 -0.1308  1.3335
  710MOL0     H97973   1.316   6.709   0.273  5.4295  5.1183  2.3556
  710MOL0     H97974   1.266   6.949   0.411  1.1005 -0.8634  1.2535
  710MOL0     H97975   1.100   6.905   0.369  0.2589  2.5074 -0.2024
  710MOL0     H97976   1.238   7.009  -0.022  3.4442 -2.0354 -1.4197
  710MOL0     H97977   1.477   6.421   0.532  0.2776  2.2407 -3.2521
  710MOL0     H97978   1.735   6.251   0.503 -1.7948 -1.0888 -2.6861
  710MOL0     H97979   1.618   6.271   0.642 -0.5039  1.5106 -0.3018
  710MOL0     H97980   1.655   6.111   0.587 -3.3320  0.4707  1.9118
  711MOL0     O97981   6.681   4.983   3.364 -0.2434  0.0780  1.1371
  711MOL0     C97982   6.780   4.913   3.391  0.1832  0.5210  0.1108
  711MOL0     O97983   6.872   4.936   3.500 -0.1559 -0.3313 -0.6854
  711MOL0     C97984   6.863   5.045   3.585  0.0738 -0.4039 -0.2733
  711MOL0     C97985   6.743   5.100   3.635 -0.2232 -0.2483  0.4809
  711MOL0     C97986   6.758   5.208   3.719 -0.3240  1.2434  0.0391
  711MOL0     C97987   6.874   5.265   3.772  0.0616  0.4506 -0.1904
  711MOL0     O97988   6.877   5.353   3.880  0.3188 -0.7512 -0.1208
  711MOL0     C97989   6.956   5.472   3.874  0.2628 -0.1336  0.4397
  711MOL0     C97990   6.936   5.537   4.003 -0.1034  0.2444 -0.3147
  711MOL0     C97991   6.796   5.596   4.031  0.8520 -0.1597  0.1244
  711MOL0     C97992   6.765   5.611   4.182 -0.3501  0.0862  0.5241
  711MOL0     C97993   6.865   5.707   4.239  0.6569  0.7999 -0.4901
  711MOL0     C97994   6.825   5.771   4.378 -0.4427 -0.0655 -0.2915
  711MOL0     C97995   6.913   5.894   4.386  0.1103 -0.5410  0.2266
  711MOL0     C97996   6.850   5.995   4.481  0.6296  0.8867  0.3372
  711MOL0     N97997   6.863   5.937   4.610 -0.0636 -0.0508 -0.0466
  711MOL0     C97998   6.926   6.022   4.698  0.7999  0.8329  0.1899
  711MOL0     C97999   6.910   5.971   4.816  0.4672 -0.4709 -0.3819
  711MOL0     C98000   6.939   6.047   4.940 -0.3105 -0.3981 -0.4053
  711MOL0     C98001   6.814   6.091   5.015  0.6035 -0.3562  0.6897
  711MOL0     C98002   6.861   6.186   5.130 -0.1023 -0.7151  0.8163
  711MOL0     C98003   6.751   6.201   5.230  0.9698  0.0374 -1.2170
  711MOL0     O98004   6.793   6.285   5.338 -0.5020 -0.5516 -0.3691
  711MOL0     C98005   6.713   6.293   5.450 -0.0707 -0.4896 -1.2476
  711MOL0     C98006   6.585   6.246   5.459  0.5995  0.8169 -0.6652
  711MOL0     C98007   6.516   6.250   5.582 -0.1767 -0.3364 -0.4684
  711MOL0     C98008   6.388   6.174   5.591 -0.7046  0.8457  1.5445
  711MOL0     C98009   6.558   6.338   5.684  0.1812 -0.6397  0.4466
  711MOL0     C98010   6.481   6.385   5.798  0.0492  0.3533 -0.0049
  711MOL0     O98011   6.531   6.495   5.858 -0.0128 -0.2108  0.6824
  711MOL0     C98012   6.474   6.536   5.976  0.2123  0.3283 -0.4961
  711MOL0     C98013   6.362   6.614   5.977  0.2531  0.1344  0.3619
  711MOL0     C98014   6.316   6.661   6.098 -0.0678 -0.8320 -0.1178
  711MOL0     C98015   6.375   6.624   6.218  0.4163 -1.2544 -1.2606
  711MOL0     O98016   6.334   6.655   6.344 -0.2272  0.1280 -0.1128
  711MOL0     C98017   6.197   6.693   6.359 -1.0008  0.5231  0.5287
  711MOL0     C98018   6.153   6.668   6.510 -0.2302 -0.2287  0.1772
  711MOL0     C98019   6.139   6.517   6.543 -1.0267 -0.3916 -1.0049
  711MOL0     C98020   6.185   6.481   6.679 -0.2518 -0.1838 -0.7915
  711MOL0     C98021   6.092   6.533   6.786 -0.2346 -0.4070 -0.1582
  711MOL0     C98022   6.144   6.524   6.928  0.0615 -0.0580 -0.8177
  711MOL0     C98023   6.034   6.573   7.024 -0.3597 -0.0234 -0.4902
  711MOL0     C98024   6.098   6.598   7.163  0.2063 -0.1387 -0.3114
  711MOL0    Cl98025   6.183   6.751   7.154 -0.3319 -0.2997  0.1614
  711MOL0     C98026   6.485   6.540   6.216  0.6125 -0.3031  1.1511
  711MOL0     C98027   6.531   6.492   6.093  0.0809 -0.6454 -0.5577
  711MOL0     O98028   6.386   6.311   5.840  0.0293 -0.0499  0.4754
  711MOL0     C98029   6.686   6.394   5.667  0.0193  0.1920 -0.0339
  711MOL0     C98030   6.764   6.369   5.557 -0.0773 -0.1839  0.5032
  711MOL0     N98031   6.828   5.857   4.806  0.3654 -0.0277 -0.3312
  711MOL0     N98032   6.793   5.844   4.682 -0.4688 -0.1124 -0.0236
  711MOL0     C98033   6.993   5.205   3.725 -0.5626 -0.3694  0.8256
  711MOL0     C98034   6.984   5.095   3.635 -0.4257 -0.0187  0.0138
  711MOL0     C98035   6.810   4.796   3.298  0.2047 -0.8951 -0.1773
  711MOL0     C98036   6.708   4.764   3.209 -0.0716  0.9946  0.0508
  711MOL0     C98037   6.720   4.664   3.119 -0.9690  1.1224  0.6793
  711MOL0     C98038   6.833   4.581   3.122  0.1198 -0.5025  0.2959
  711MOL0     O98039   6.857   4.477   3.040  0.2478  0.6977 -0.4970
  711MOL0     C98040   6.748   4.426   2.961 -0.6105  0.1054  0.6359
  711MOL0     C98041   6.799   4.292   2.903 -0.0555 -0.4587 -0.1982
  711MOL0     C98042   6.917   4.304   2.811 -0.0243  0.1759  0.2498
  711MOL0     C98043   6.970   4.157   2.782 -0.5217  1.0683 -0.6046
  711MOL0     C98044   6.877   4.060   2.733  0.9351 -0.1332 -0.7105
  711MOL0     C98045   6.786   3.980   2.707 -0.2742 -0.8166  0.0990
  711MOL0     C98046   6.928   4.609   3.213 -1.4239  0.7924 -0.7742
  711MOL0     C98047   6.923   4.715   3.304  0.6626  1.1526 -0.4279
  711MOL0     C98048   7.041   4.732   3.407  0.1501  0.2138  0.6245
  711MOL0     H98049   6.642   5.073   3.607 -0.5695  2.0614 -0.7921
  711MOL0     H98050   6.661   5.241   3.754 -1.2212 -1.2794  0.1489
  711MOL0     H98051   6.916   5.530   3.791 -0.8401 -0.7292  0.5258
  711MOL0     H98052   7.065   5.462   3.868  0.7771  2.7229  2.7493
  711MOL0     H98053   6.952   5.477   4.093 -2.5592 -0.6371 -0.3952
  711MOL0     H98054   7.018   5.609   4.002 -2.0129  2.7055 -4.1530
  711MOL0     H98055   6.790   5.692   3.979 -3.0184 -1.1247 -1.5403
  711MOL0     H98056   6.715   5.534   3.990  0.1235  1.0351 -0.2923
  711MOL0     H98057   6.669   5.661   4.198  0.3714  0.8693  2.9468
  711MOL0     H98058   6.766   5.519   4.241 -2.0867  0.1433  0.7015
  711MOL0     H98059   6.893   5.781   4.163  2.5155  2.0786  1.3412
  711MOL0     H98060   6.958   5.652   4.252 -1.1306 -1.8760  2.1694
  711MOL0     H98061   6.717   5.789   4.380 -0.7047 -1.5672  0.1788
  711MOL0     H98062   6.842   5.694   4.454  1.9209  1.8977  1.3315
  711MOL0     H98063   6.907   5.945   4.290 -1.4571  1.2747  1.2313
  711MOL0     H98064   7.017   5.870   4.413 -0.6611 -1.9767  2.1779
  711MOL0     H98065   6.911   6.085   4.467  1.0832  0.6686  0.9020
  711MOL0     H98066   6.742   6.006   4.470  0.0360 -1.5424  2.5902
  711MOL0     H98067   6.981   6.112   4.673  0.9058  1.0030  1.0072
  711MOL0     H98068   7.009   6.127   4.912  0.9949 -2.4239 -3.4384
  711MOL0     H98069   7.002   5.978   4.997  1.2945 -0.2170 -1.8680
  711MOL0     H98070   6.745   6.150   4.953  2.7567  0.9485 -0.5902
  711MOL0     H98071   6.764   5.999   5.045  0.7058 -1.9200 -3.2848
  711MOL0     H98072   6.956   6.159   5.177  1.5720  1.9699 -0.7661
  711MOL0     H98073   6.880   6.278   5.074  2.7406 -3.2583 -2.9240
  711MOL0     H98074   6.665   6.245   5.178  1.6062  2.9854  0.0579
  711MOL0     H98075   6.722   6.103   5.271  0.5831  0.7601  0.3050
  711MOL0     H98076   6.538   6.201   5.373 -1.5395 -1.4346  1.5087
  711MOL0     H98077   6.316   6.257   5.591 -1.7040  0.1220 -2.1816
  711MOL0     H98078   6.377   6.111   5.680 -2.2442 -0.4063  0.5147
  711MOL0     H98079   6.379   6.114   5.501 -0.0640  0.1751  1.9159
  711MOL0     H98080   6.297   6.640   5.894 -0.9394 -0.1769  1.1718
  711MOL0     H98081   6.235   6.733   6.097 -1.2136 -2.0044  2.0083
  711MOL0     H98082   6.198   6.800   6.335  0.5242  0.3548 -0.3261
  711MOL0     H98083   6.124   6.649   6.291 -0.7627  0.5808  0.2323
  711MOL0     H98084   6.229   6.717   6.572  2.0650 -1.4397 -1.5303
  711MOL0     H98085   6.053   6.714   6.512  0.5193  1.7038 -2.1432
  711MOL0     H98086   6.196   6.468   6.463 -0.2561 -0.2566 -0.5521
  711MOL0     H98087   6.033   6.498   6.524 -0.2652 -3.8967 -2.4028
  711MOL0     H98088   6.290   6.504   6.704  0.1850 -2.0206 -0.8273
  711MOL0     H98089   6.180   6.372   6.677 -1.8241 -0.2352  2.0575
  711MOL0     H98090   6.071   6.637   6.761 -1.7163 -0.7377 -0.4459
  711MOL0     H98091   5.995   6.482   6.777  0.6658 -1.7855 -4.1398
  711MOL0     H98092   6.220   6.603   6.934 -1.2974  1.2158  1.0580
  711MOL0     H98093   6.177   6.423   6.952  0.0056  0.6509  2.8895
  711MOL0     H98094   5.962   6.490   7.021  0.7473 -1.1031  0.9662
  711MOL0     H98095   5.985   6.660   6.980 -4.5488 -2.3361 -0.9201
  711MOL0     H98096   6.168   6.522   7.199  1.6942  1.7139  0.8414
  711MOL0     H98097   6.017   6.601   7.237 -1.5294 -1.9489 -2.0101
  711MOL0     H98098   6.519   6.517   6.317  1.3014  1.3995  1.3437
  711MOL0     H98099   6.618   6.429   6.086  0.3729 -0.6088  1.8572
  711MOL0     H98100   6.740   6.446   5.745  0.5881  0.4768 -0.6070
  711MOL0     H98101   6.869   6.394   5.550 -0.1414 -0.1452 -0.6205
  711MOL0     H98102   7.087   5.246   3.762 -0.7839  0.1882  0.7797
  711MOL0     H98103   7.070   5.031   3.619  0.1128  0.1157  2.0333
  711MOL0     H98104   6.612   4.814   3.209 -0.5759  0.0834  1.6138
  711MOL0     H98105   6.642   4.647   3.045 -1.1350 -0.6094  1.2153
  711MOL0     H98106   6.655   4.396   3.010 -2.0068  1.1687 -1.2178
  711MOL0     H98107   6.717   4.497   2.884 -2.5872 -0.9775  0.3606
  711MOL0     H98108   6.723   4.246   2.840  3.0891 -3.9684 -1.8523
  711MOL0     H98109   6.823   4.225   2.986 -1.9440  0.1700  0.9144
  711MOL0     H98110   6.878   4.345   2.717  1.2548 -1.1430 -0.8901
  711MOL0     H98111   6.991   4.375   2.851 -3.4904  4.3911 -0.0030
  711MOL0     H98112   7.021   4.114   2.869 -1.1469  0.3134 -0.6036
  711MOL0     H98113   7.050   4.167   2.708  0.8158  1.0694  0.7998
  711MOL0     H98114   6.704   3.921   2.670  2.4576 -2.8958 -3.3161
  711MOL0     H98115   7.022   4.556   3.213 -2.1991 -0.6451 -0.7825
  711MOL0     H98116   6.992   4.722   3.504 -3.2998 -0.3543 -1.0411
  711MOL0     H98117   7.114   4.650   3.403  0.5410  0.5926 -0.5916
  711MOL0     H98118   7.105   4.821   3.403  0.3039  0.0683 -1.1669
  712MOL0     O98119   0.283   5.415   7.744  0.1519  0.2465 -0.3635
  712MOL0     C98120   0.285   5.418   7.624  0.0433 -0.0898  0.4252
  712MOL0     O98121   0.187   5.368   7.541  0.5194 -0.2370 -0.0501
  712MOL0     C98122   0.106   5.274   7.589  0.2917  1.2046  0.4501
  712MOL0     C98123   0.148   5.152   7.636 -0.6230  0.0318  0.0239
  712MOL0     C98124   0.062   5.062   7.709 -0.4904  0.0108  0.8172
  712MOL0     C98125  -0.061   5.096   7.749 -0.3129  1.0255 -0.1201
  712MOL0     O98126  -0.134   5.009   7.827  0.8052 -0.1879  0.4476
  712MOL0     C98127  -0.275   5.011   7.827 -0.0730  0.2208 -0.1144
  712MOL0     C98128  -0.319   4.905   7.922  0.3465  0.4628  0.4062
  712MOL0     C98129  -0.343   4.952   8.066 -0.8564 -0.0812 -0.1948
  712MOL0     C98130  -0.404   4.833   8.153  0.4450  0.4500 -0.3100
  712MOL0     C98131  -0.295   4.732   8.197  0.9461  0.4458 -0.2049
  712MOL0     C98132  -0.238   4.776   8.327 -0.2516  0.0324 -0.5176
  712MOL0     C98133  -0.141   4.680   8.399 -0.0350 -0.0866 -0.5643
  712MOL0     C98134  -0.042   4.606   8.302 -0.1929 -0.1124 -0.3233
  712MOL0     N98135   0.087   4.580   8.365 -0.5241  0.8192  0.0022
  712MOL0     C98136   0.208   4.642   8.327  1.1723 -0.0058  0.0595
  712MOL0     C98137   0.299   4.553   8.365 -0.0761 -0.4163 -1.1725
  712MOL0     C98138   0.453   4.569   8.369 -1.5535 -1.4758  0.5007
  712MOL0     C98139   0.506   4.595   8.233 -1.0774 -0.3575  1.3909
  712MOL0     C98140   0.656   4.563   8.211  0.4500 -0.2823 -0.3677
  712MOL0     C98141   0.680   4.410   8.205 -0.7791 -0.5664  0.5049
  712MOL0     O98142   0.675   4.350   8.335  0.2745  0.0728 -0.4004
  712MOL0     C98143   0.793   4.331   8.408 -0.6988 -0.0702  0.7598
  712MOL0     C98144   0.812   4.225   8.499  0.3553 -0.2704  0.8313
  712MOL0     C98145   0.927   4.208   8.578 -0.8752  1.1990  1.0486
  712MOL0     C98146   0.923   4.082   8.657 -0.7247  0.1041 -0.2280
  712MOL0     C98147   1.024   4.300   8.573  0.1401 -0.1601 -0.2697
  712MOL0     C98148   1.140   4.301   8.663 -0.6971  0.1435  0.0079
  712MOL0     O98149   1.171   4.428   8.709 -0.3551  0.2163  0.3254
  712MOL0     C98150   1.278   4.444   8.794 -0.2947  0.8057 -0.9328
  712MOL0     C98151   1.409   4.435   8.746  0.1186 -0.6175  0.2084
  712MOL0     C98152   1.520   4.443   8.834  0.8646 -0.3738  1.0914
  712MOL0     C98153   1.511   4.456   8.973  0.8938  0.3208  0.0330
  712MOL0     O98154   1.629   4.470   9.045  0.8644 -0.3783 -1.0438
  712MOL0     C98155   1.610   4.467   9.182 -0.2675 -0.8227 -0.8603
  712MOL0     C98156   1.736   4.457   9.267  0.3822  0.3631  0.0962
  712MOL0     C98157   1.810   4.337   9.220  0.6161  0.7035 -0.6187
  712MOL0     C98158   1.926   4.341   9.113  0.4814 -0.5548 -0.0118
  712MOL0     C98159   1.968   4.206   9.072  0.5618  1.2958  0.1750
  712MOL0     C98160   2.016   4.113   9.184  0.1927  0.1041  0.1750
  712MOL0     C98161   2.086   4.008   9.107  0.4616  0.2316  0.1393
  712MOL0     C98162   2.156   3.898   9.194  0.0314 -0.0677  0.1595
  712MOL0    Cl98163   2.302   3.966   9.277 -0.2452  0.2388 -0.2655
  712MOL0     C98164   1.379   4.470   9.019  0.7131  1.0223  0.2180
  712MOL0     C98165   1.264   4.467   8.936 -1.5307 -0.7101 -0.3400
  712MOL0     O98166   1.218   4.206   8.660 -1.5223 -1.2323  0.4638
  712MOL0     C98167   1.011   4.409   8.482  0.2605 -1.6093 -0.7380
  712MOL0     C98168   0.896   4.425   8.402  0.3232 -0.0866 -1.0830
  712MOL0     N98169   0.238   4.437   8.419  0.2075  0.0632  0.9697
  712MOL0     N98170   0.111   4.450   8.414  0.0560  0.4416 -0.1387
  712MOL0     C98171  -0.109   5.215   7.695 -0.2035  0.6492  0.5664
  712MOL0     C98172  -0.026   5.301   7.623  0.4443 -0.2003 -0.6727
  712MOL0     C98173   0.415   5.453   7.570  1.2738 -0.5694 -0.8972
  712MOL0     C98174   0.532   5.413   7.637 -0.2974 -0.1775  1.1503
  712MOL0     C98175   0.660   5.425   7.573  0.1563  0.1788 -0.1293
  712MOL0     C98176   0.676   5.484   7.450 -1.0177 -0.0504  0.1231
  712MOL0     O98177   0.804   5.501   7.383  0.3640 -0.6372  0.7493
  712MOL0     C98178   0.854   5.373   7.349 -0.7039  0.4513  0.2677
  712MOL0     C98179   0.980   5.406   7.277 -0.0319  1.3179  0.7730
  712MOL0     C98180   1.070   5.298   7.328 -0.5408  0.4038  0.0922
  712MOL0     C98181   1.200   5.314   7.242  0.0968  0.3638 -0.2720
  712MOL0     C98182   1.310   5.340   7.322 -0.2343  0.3086  0.5276
  712MOL0     C98183   1.416   5.372   7.382  0.4863  0.6864 -0.1878
  712MOL0     C98184   0.550   5.530   7.392  0.0046  0.2493 -0.7715
  712MOL0     C98185   0.427   5.514   7.445  0.8514  0.5437  0.6505
  712MOL0     C98186   0.319   5.568   7.372  0.3217 -0.5348 -0.4076
  712MOL0     H98187   0.250   5.123   7.611 -0.1060  0.4461  1.5168
  712MOL0     H98188   0.096   4.962   7.732  0.1945 -0.4798 -1.9741
  712MOL0     H98189  -0.303   4.998   7.722  0.3576  2.0499 -0.5069
  712MOL0     H98190  -0.318   5.107   7.856  0.2167 -0.0458  1.2367
  712MOL0     H98191  -0.421   4.873   7.899  1.8912 -2.6969 -3.2359
  712MOL0     H98192  -0.246   4.824   7.908  1.2538  1.4937 -1.1951
  712MOL0     H98193  -0.254   4.999   8.108 -1.0271  1.9257 -1.9262
  712MOL0     H98194  -0.412   5.035   8.083 -0.9674 -0.2228  0.0680
  712MOL0     H98195  -0.447   4.868   8.248  1.9332 -0.0711  0.5844
  712MOL0     H98196  -0.478   4.772   8.100  2.8011 -1.9667 -0.9844
  712MOL0     H98197  -0.225   4.699   8.120  1.6232  0.2336  0.4926
  712MOL0     H98198  -0.350   4.638   8.214 -2.3011  2.2501  0.1728
  712MOL0     H98199  -0.200   4.879   8.320 -0.5045  0.1711  0.0870
  712MOL0     H98200  -0.318   4.789   8.401 -0.6842  5.1140 -1.5127
  712MOL0     H98201  -0.202   4.601   8.443 -2.7149  1.7430 -0.7837
  712MOL0     H98202  -0.090   4.742   8.473  1.0675  0.3240 -1.6265
  712MOL0     H98203  -0.090   4.518   8.259  0.6392  0.8719 -3.6033
  712MOL0     H98204  -0.027   4.667   8.212  1.0925 -1.1650 -0.8539
  712MOL0     H98205   0.224   4.743   8.289  1.5629  0.8728  2.4130
  712MOL0     H98206   0.507   4.483   8.410 -0.3805 -2.0392 -2.0358
  712MOL0     H98207   0.489   4.645   8.439 -0.8600 -2.4488  1.2151
  712MOL0     H98208   0.464   4.529   8.157 -0.9518 -0.8200  1.7224
  712MOL0     H98209   0.491   4.697   8.197  1.4819  0.3686  2.1273
  712MOL0     H98210   0.689   4.598   8.113 -3.5219  2.3446 -1.0300
  712MOL0     H98211   0.716   4.607   8.291 -1.2256 -3.5426  2.9711
  712MOL0     H98212   0.602   4.369   8.140 -0.5339  0.1057 -0.2237
  712MOL0     H98213   0.769   4.389   8.146 -2.0524 -0.6770 -1.4644
  712MOL0     H98214   0.734   4.150   8.499 -1.0708  1.0792  3.7520
  712MOL0     H98215   0.857   4.010   8.609 -1.1514 -0.2448  0.8343
  712MOL0     H98216   0.873   4.097   8.754  0.3441 -4.6190  1.3575
  712MOL0     H98217   1.027   4.055   8.676 -0.2820  1.4911 -0.5470
  712MOL0     H98218   1.418   4.446   8.639  1.5224  0.0495  0.3736
  712MOL0     H98219   1.621   4.441   8.794  0.3798  0.9424 -0.3287
  712MOL0     H98220   1.563   4.562   9.211 -1.9300 -1.7236 -0.5332
  712MOL0     H98221   1.545   4.385   9.213  1.8069 -1.7601  1.3827
  712MOL0     H98222   1.806   4.541   9.266 -0.8665  1.6828  3.9960
  712MOL0     H98223   1.713   4.439   9.372 -1.1682  0.4562 -0.1927
  712MOL0     H98224   1.744   4.257   9.184  1.8785 -0.4400 -0.4487
  712MOL0     H98225   1.854   4.286   9.306  1.1780 -0.7921 -1.7560
  712MOL0     H98226   2.008   4.393   9.163  1.1957 -0.1734 -1.5375
  712MOL0     H98227   1.892   4.406   9.032  0.5175 -0.0115  0.4031
  712MOL0     H98228   1.886   4.149   9.027  1.8395 -0.5804  0.0919
  712MOL0     H98229   2.040   4.225   8.992  0.9961 -2.0744 -0.3863
  712MOL0     H98230   1.935   4.071   9.244 -2.2923  1.1152 -2.2610
  712MOL0     H98231   2.074   4.156   9.266 -1.5048  1.0814  0.9070
  712MOL0     H98232   2.160   4.068   9.053  3.2792  1.3493  4.7234
  712MOL0     H98233   2.014   3.956   9.043 -0.6456  1.6296  0.1961
  712MOL0     H98234   2.179   3.819   9.122 -1.8227  0.1785 -0.7698
  712MOL0     H98235   2.081   3.861   9.265 -1.4899 -1.3975 -1.9902
  712MOL0     H98236   1.360   4.494   9.124 -1.3551 -0.4716  0.2349
  712MOL0     H98237   1.165   4.478   8.979 -0.4014 -1.0207  2.5322
  712MOL0     H98238   1.089   4.484   8.497 -0.5626 -1.0514  1.1676
  712MOL0     H98239   0.892   4.518   8.347  1.1593  1.1299  0.7943
  712MOL0     H98240  -0.213   5.245   7.702 -0.8812 -1.5999  0.8578
  712MOL0     H98241  -0.067   5.393   7.583 -2.4486 -0.4520  1.4333
  712MOL0     H98242   0.524   5.385   7.742 -3.0500 -1.0726  0.8030
  712MOL0     H98243   0.740   5.398   7.641 -1.7087  0.6588  2.3957
  712MOL0     H98244   0.863   5.316   7.441 -0.5434  0.2543  0.1313
  712MOL0     H98245   0.787   5.317   7.283 -1.5874 -0.9197  2.2656
  712MOL0     H98246   1.015   5.506   7.306  1.0792  1.6126 -1.3875
  712MOL0     H98247   0.952   5.411   7.172 -1.6058  0.9302  1.1468
  712MOL0     H98248   1.077   5.318   7.436 -0.2536 -5.9441  1.6335
  712MOL0     H98249   1.036   5.195   7.319 -2.7279  0.5847  3.9311
  712MOL0     H98250   1.183   5.403   7.180 -0.6626 -0.5570 -1.4295
  712MOL0     H98251   1.223   5.227   7.180 -1.2939  0.8014 -1.4725
  712MOL0     H98252   1.507   5.378   7.437  1.5685 -0.3083 -1.7923
  712MOL0     H98253   0.553   5.589   7.300  1.4352  1.0015 -0.2712
  712MOL0     H98254   0.267   5.486   7.321 -1.1580  0.1568 -0.0510
  712MOL0     H98255   0.246   5.616   7.438 -1.4882 -5.0025  1.2104
  712MOL0     H98256   0.342   5.642   7.294  1.3827  0.5296  0.8739
  713MOL0     O98257   2.079   3.305  11.485  0.4558  0.9561  0.2777
  713MOL0     C98258   2.047   3.286  11.367 -0.9136  0.3346  0.1860
  713MOL0     O98259   1.978   3.378  11.290 -0.5956  0.3485 -0.3647
  713MOL0     C98260   2.000   3.514  11.311  0.1018 -0.5782  0.7483
  713MOL0     C98261   2.125   3.567  11.340  0.2604 -0.3365 -0.2655
  713MOL0     C98262   2.146   3.702  11.362  0.9326 -0.0426 -0.2752
  713MOL0     C98263   2.041   3.786  11.355 -0.6765 -0.0585 -0.5104
  713MOL0     O98264   2.070   3.914  11.367 -1.0731  0.4636 -0.6017
  713MOL0     C98265   1.969   4.013  11.354 -0.8927  0.3334  0.3910
  713MOL0     C98266   2.022   4.152  11.335  0.5126 -0.4613 -0.2142
  713MOL0     C98267   1.903   4.261  11.363  0.0831  0.1285 -0.0313
  713MOL0     C98268   1.973   4.399  11.318 -0.0362 -1.1434 -0.2809
  713MOL0     C98269   1.873   4.514  11.344 -0.3502 -0.1545  0.4368
  713MOL0     C98270   1.917   4.641  11.287  0.2994 -0.3749  0.8526
  713MOL0     C98271   1.822   4.763  11.310 -0.9156 -0.0732 -0.7604
  713MOL0     C98272   1.769   4.834  11.187  0.0742 -0.2710  0.6336
  713MOL0     N98273   1.873   4.903  11.107  0.0150  0.2724  0.0971
  713MOL0     C98274   1.999   4.929  11.138  0.2989  0.3352 -0.8708
  713MOL0     C98275   2.049   5.012  11.032 -0.4427  0.7661 -0.0580
  713MOL0     C98276   2.188   5.079  11.034  0.5505 -1.1429 -0.0471
  713MOL0     C98277   2.194   5.208  11.116 -0.5437 -1.2417  0.5324
  713MOL0     C98278   2.105   5.316  11.055  0.0508 -0.2525  0.1087
  713MOL0     C98279   2.108   5.451  11.119  0.0575 -0.4800 -0.2165
  713MOL0     O98280   2.240   5.495  11.131 -0.4832  0.3629  0.7808
  713MOL0     C98281   2.312   5.558  11.028  0.5912  0.6109  0.4187
  713MOL0     C98282   2.257   5.581  10.896  0.6300 -0.7161 -0.4241
  713MOL0     C98283   2.337   5.644  10.793 -1.0452 -0.2862 -0.1680
  713MOL0     C98284   2.280   5.654  10.658  1.1484  0.1361 -0.3670
  713MOL0     C98285   2.468   5.687  10.825  0.4330 -0.6477  0.7825
  713MOL0     C98286   2.572   5.730  10.730  0.1544  0.0757 -0.1553
  713MOL0     O98287   2.537   5.724  10.602  0.3710  0.7284  0.2546
  713MOL0     C98288   2.624   5.777  10.513 -0.8098  0.7327 -0.2172
  713MOL0     C98289   2.725   5.712  10.433  1.1866  0.3425 -0.0958
  713MOL0     C98290   2.803   5.777  10.338  0.6633  0.4874  1.1004
  713MOL0     C98291   2.784   5.912  10.312  1.1664 -0.8429  0.2218
  713MOL0     O98292   2.862   5.991  10.222  0.5722  0.0359 -0.1710
  713MOL0     C98293   2.873   6.133  10.240  0.5288 -0.1947  0.5978
  713MOL0     C98294   2.995   6.209  10.168 -0.4054  0.9828 -0.6376
  713MOL0     C98295   3.121   6.133  10.212 -0.6164  0.8648 -0.7156
  713MOL0     C98296   3.236   6.171  10.120 -0.5289 -0.3572 -0.2622
  713MOL0     C98297   3.366   6.096  10.160  0.1999  0.5462  0.2296
  713MOL0     C98298   3.359   5.947  10.107 -0.4127 -0.4902  0.5744
  713MOL0     C98299   3.501   5.883  10.104 -0.0209 -0.6535 -0.0937
  713MOL0     C98300   3.494   5.746  10.032 -0.4101 -0.4144  0.7182
  713MOL0    Cl98301   3.506   5.809   9.860  0.1860 -0.1675 -0.0565
  713MOL0     C98302   2.689   5.978  10.385  0.1709  0.6284 -0.3657
  713MOL0     C98303   2.606   5.906  10.476  0.3641  0.0671  0.0820
  713MOL0     O98304   2.686   5.768  10.770  0.0878  0.2411 -1.0612
  713MOL0     C98305   2.511   5.664  10.962  0.7988  0.3928  0.4454
  713MOL0     C98306   2.436   5.612  11.055  0.1090 -0.1337 -0.0443
  713MOL0     N98307   1.961   5.033  10.941  1.4310 -0.5188  0.1759
  713MOL0     N98308   1.851   4.985  10.997  0.0982  0.0965 -0.6962
  713MOL0     C98309   1.914   3.737  11.319 -0.4901  0.2396 -1.3738
  713MOL0     C98310   1.893   3.600  11.295 -0.2117  0.2226  0.0042
  713MOL0     C98311   2.076   3.152  11.310 -0.0013  0.3437  0.1974
  713MOL0     C98312   2.080   3.132  11.178 -0.5810  0.0158 -0.6285
  713MOL0     C98313   2.091   3.006  11.121  0.7752  0.0559 -0.3529
  713MOL0     C98314   2.086   2.893  11.201 -0.6736  0.5507  0.2237
  713MOL0     O98315   2.062   2.778  11.133  0.7103 -0.4957  1.1239
  713MOL0     C98316   2.134   2.656  11.173  0.5731 -0.1712 -0.6246
  713MOL0     C98317   2.038   2.573  11.267 -0.6652 -0.8640 -0.1891
  713MOL0     C98318   2.102   2.493  11.375 -0.1001  0.3586  0.6778
  713MOL0     C98319   2.014   2.377  11.436 -0.4540 -0.1621  0.5715
  713MOL0     C98320   1.914   2.431  11.525  0.0238  1.0105  0.0620
  713MOL0     C98321   1.850   2.494  11.598  0.6923  0.4247 -0.4704
  713MOL0     C98322   2.087   2.902  11.340  0.0412  0.3773 -1.2585
  713MOL0     C98323   2.089   3.032  11.398 -1.0825 -0.1199 -0.1997
  713MOL0     C98324   2.088   3.033  11.543  0.3165  0.6553  0.8028
  713MOL0     H98325   2.212   3.503  11.342  1.0045  0.6671  0.2656
  713MOL0     H98326   2.243   3.744  11.388  0.7167  0.0220  0.4193
  713MOL0     H98327   1.897   4.004  11.436  1.9471 -1.9351  2.8726
  713MOL0     H98328   1.919   3.998  11.259 -1.5417 -2.3898  1.0910
  713MOL0     H98329   2.105   4.177  11.401  1.6939  1.2440 -2.2195
  713MOL0     H98330   2.058   4.147  11.232 -2.5915 -3.1010 -1.3571
  713MOL0     H98331   1.816   4.223  11.308 -1.2030 -4.2535  4.2306
  713MOL0     H98332   1.869   4.265  11.467 -1.4513  0.5531 -0.5143
  713MOL0     H98333   2.066   4.415  11.374  0.1552  0.4128 -1.0010
  713MOL0     H98334   1.997   4.400  11.212  0.2347  3.1493 -0.3894
  713MOL0     H98335   1.866   4.519  11.453  1.5717 -2.4198  0.7544
  713MOL0     H98336   1.771   4.490  11.311 -0.0543  0.5120 -1.0579
  713MOL0     H98337   2.015   4.663  11.329  0.2938 -0.4225  0.8917
  713MOL0     H98338   1.931   4.634  11.179  2.0749  0.4134  0.9970
  713MOL0     H98339   1.868   4.838  11.375  0.9442 -0.9323 -1.0185
  713MOL0     H98340   1.731   4.731  11.361 -2.4650 -0.9878 -3.8425
  713MOL0     H98341   1.711   4.759  11.133  0.1817 -1.9143  2.6778
  713MOL0     H98342   1.705   4.915  11.224  0.0229  1.2159 -2.4474
  713MOL0     H98343   2.045   4.887  11.226 -0.3718 -1.6137 -1.4053
  713MOL0     H98344   2.207   5.097  10.927 -0.1749  0.0926  0.0211
  713MOL0     H98345   2.257   5.003  11.072  1.6202  0.4209  1.2721
  713MOL0     H98346   2.177   5.187  11.222 -1.1837  1.5201  1.0612
  713MOL0     H98347   2.295   5.247  11.101 -0.7249 -1.6153 -2.0690
  713MOL0     H98348   2.138   5.317  10.950 -2.3880  2.5595 -0.7543
  713MOL0     H98349   2.003   5.275  11.058  0.3220 -1.3673 -2.5571
  713MOL0     H98350   2.049   5.528  11.068 -0.8998  1.4811  3.5228
  713MOL0     H98351   2.069   5.452  11.221 -2.1095  0.8342 -0.9743
  713MOL0     H98352   2.155   5.549  10.875  0.6623  0.1815 -2.1397
  713MOL0     H98353   2.180   5.614  10.680  1.8566 -1.0459  0.8080
  713MOL0     H98354   2.327   5.586  10.587 -2.3265 -2.8150 -0.1445
  713MOL0     H98355   2.284   5.755  10.616  2.4146  0.1726 -0.1828
  713MOL0     H98356   2.738   5.605  10.446  1.2475  0.4519  0.7943
  713MOL0     H98357   2.879   5.731  10.276 -0.6943  1.9544 -1.7933
  713MOL0     H98358   2.780   6.178  10.203  1.2051  0.7004 -0.0938
  713MOL0     H98359   2.894   6.159  10.344  1.5381  2.9946 -0.2874
  713MOL0     H98360   2.992   6.221  10.059 -1.6397  3.7123 -0.3776
  713MOL0     H98361   2.996   6.309  10.212  0.4259  0.2733  1.0533
  713MOL0     H98362   3.103   6.026  10.225  1.4365  0.6154  0.6040
  713MOL0     H98363   3.155   6.167  10.311  2.7433 -1.9104 -0.7283
  713MOL0     H98364   3.259   6.277  10.134  1.3079 -1.0493  3.1707
  713MOL0     H98365   3.219   6.140  10.017  5.4544 -5.0499 -0.4176
  713MOL0     H98366   3.446   6.148  10.107  0.0886  3.2082  2.4469
  713MOL0     H98367   3.383   6.117  10.266  4.3292  1.8993 -0.5282
  713MOL0     H98368   3.317   5.948  10.006  2.5836 -2.6825 -0.8506
  713MOL0     H98369   3.299   5.890  10.178  0.8174 -3.7725 -0.8108
  713MOL0     H98370   3.542   5.876  10.206 -1.2961  0.4885  0.5273
  713MOL0     H98371   3.563   5.953  10.046 -0.4336  1.4118  1.7865
  713MOL0     H98372   3.404   5.685  10.043  0.0427 -2.4911 -4.1867
  713MOL0     H98373   3.574   5.677  10.058 -0.5318 -1.0207 -0.4336
  713MOL0     H98374   2.666   6.082  10.364  0.7903  1.2604  1.8529
  713MOL0     H98375   2.525   5.967  10.514 -1.2620 -0.8986 -1.6313
  713MOL0     H98376   2.603   5.716  10.988  0.8315  1.7424 -2.0533
  713MOL0     H98377   2.461   5.627  11.160  1.1628 -0.6028 -0.2120
  713MOL0     H98378   1.830   3.803  11.299 -0.4673 -0.4766 -4.3683
  713MOL0     H98379   1.790   3.573  11.273 -3.0136  4.7569  4.9870
  713MOL0     H98380   2.072   3.228  11.129 -0.1119  2.0887  2.9665
  713MOL0     H98381   2.071   3.006  11.015  0.4204  1.5198 -0.3019
  713MOL0     H98382   2.154   2.599  11.082  0.5968  0.6505 -1.1456
  713MOL0     H98383   2.229   2.684  11.218 -0.0522  1.5903 -0.2877
  713MOL0     H98384   1.977   2.507  11.205 -0.7266 -0.2937 -0.7491
  713MOL0     H98385   1.974   2.649  11.314 -1.2835  0.1236 -2.4620
  713MOL0     H98386   2.201   2.459  11.346 -0.3261 -1.5358  1.9403
  713MOL0     H98387   2.122   2.560  11.459 -2.5101  0.6916  1.0776
  713MOL0     H98388   2.096   2.318  11.477  0.9954  0.3406 -1.4364
  713MOL0     H98389   1.972   2.321  11.352  1.6122 -2.2353  0.8323
  713MOL0     H98390   1.808   2.561  11.669  1.0161  3.6961 -3.1437
  713MOL0     H98391   2.083   2.812  11.400 -2.1392  0.3831 -1.3284
  713MOL0     H98392   2.184   3.070  11.581  0.6915 -2.1680  3.0054
  713MOL0     H98393   1.994   3.071  11.584  0.4069  1.3752  0.3458
  713MOL0     H98394   2.087   2.930  11.580 -1.1408  1.0658  2.0292
  714MOL0     O98395   4.782   9.044   4.598  0.0957  0.7169 -0.3346
  714MOL0     C98396   4.725   9.139   4.548  0.5055 -0.7744  0.0830
  714MOL0     O98397   4.680   9.148   4.422 -0.0308 -0.6431 -0.2333
  714MOL0     C98398   4.718   9.068   4.318  1.1561  0.4688 -0.1496
  714MOL0     C98399   4.617   8.997   4.241 -0.7390 -0.1800 -0.1472
  714MOL0     C98400   4.650   8.916   4.133 -0.2838  0.5213  0.2976
  714MOL0     C98401   4.786   8.899   4.092 -0.5373  0.0589 -0.6494
  714MOL0     O98402   4.805   8.813   3.991 -1.0783  0.6188 -0.4744
  714MOL0     C98403   4.940   8.778   3.973 -1.3088  0.2136 -0.5958
  714MOL0     C98404   4.970   8.655   3.886  1.0548 -0.0125  0.2461
  714MOL0     C98405   4.867   8.643   3.767 -0.1365  1.0648  0.4682
  714MOL0     C98406   4.925   8.554   3.649  0.0242 -0.0116 -0.5191
  714MOL0     C98407   4.818   8.498   3.565 -0.7823  0.2761 -0.0760
  714MOL0     C98408   4.728   8.598   3.493 -0.6094 -0.4937 -0.4020
  714MOL0     C98409   4.691   8.536   3.364  0.6686  0.1648 -0.0308
  714MOL0     C98410   4.645   8.644   3.275  0.2661  0.5729  1.0120
  714MOL0     N98411   4.607   8.579   3.149 -0.5417 -0.4753  0.2458
  714MOL0     C98412   4.499   8.498   3.132 -0.0922  0.2275  0.1164
  714MOL0     C98413   4.509   8.457   3.004 -1.4816 -0.2030 -0.1717
  714MOL0     C98414   4.436   8.341   2.944 -0.2404 -0.3872 -0.3473
  714MOL0     C98415   4.363   8.389   2.821 -0.8755 -0.0460  0.4638
  714MOL0     C98416   4.266   8.509   2.852  0.1308  0.8641  0.6321
  714MOL0     C98417   4.155   8.508   2.753  0.0691  0.2200  0.2576
  714MOL0     O98418   4.054   8.411   2.786 -0.2852  0.5638 -0.5559
  714MOL0     C98419   3.963   8.394   2.685  0.5055  0.0069 -0.0145
  714MOL0     C98420   3.896   8.271   2.680  0.7516  0.3502  0.7397
  714MOL0     C98421   3.821   8.223   2.573  0.4998 -0.3076 -0.0427
  714MOL0     C98422   3.761   8.093   2.582  0.3614 -0.6580  0.3755
  714MOL0     C98423   3.795   8.312   2.464 -0.6123  0.1613 -0.4856
  714MOL0     C98424   3.716   8.276   2.345  0.4447  0.0452  0.9088
  714MOL0     O98425   3.633   8.369   2.297 -0.2185  0.1922  0.4204
  714MOL0     C98426   3.533   8.337   2.211 -0.9266  0.2067  0.6816
  714MOL0     C98427   3.407   8.377   2.254 -0.4429 -0.4349  0.5578
  714MOL0     C98428   3.295   8.356   2.171 -0.0578 -0.4210 -0.2881
  714MOL0     C98429   3.314   8.277   2.049 -0.5150 -0.1890  0.2554
  714MOL0     O98430   3.211   8.264   1.955  0.1902  0.2082 -0.4739
  714MOL0     C98431   3.234   8.350   1.845 -1.2692  0.1009 -0.7856
  714MOL0     C98432   3.185   8.498   1.857 -0.0435  0.3935 -0.0535
  714MOL0     C98433   3.028   8.508   1.865  0.2754  0.1989  0.2691
  714MOL0     C98434   2.984   8.650   1.841  0.1017 -0.1393 -0.0083
  714MOL0     C98435   2.835   8.668   1.858 -1.3657  0.3051 -0.4086
  714MOL0     C98436   2.795   8.635   1.999  1.0598 -0.3831 -0.1872
  714MOL0     C98437   2.893   8.695   2.108 -0.1301 -0.4817 -0.6374
  714MOL0     C98438   2.813   8.682   2.239 -0.7194 -0.1633  0.6097
  714MOL0    Cl98439   2.811   8.511   2.319  0.2691 -0.0682 -0.3023
  714MOL0     C98440   3.436   8.220   2.019 -0.2685  0.0428 -0.3803
  714MOL0     C98441   3.547   8.249   2.096  0.0824 -0.1352  0.1302
  714MOL0     O98442   3.723   8.160   2.317 -0.7205 -0.4730  0.7034
  714MOL0     C98443   3.847   8.443   2.470 -0.1528  0.3094 -0.1759
  714MOL0     C98444   3.941   8.489   2.572 -0.1992  0.2327 -0.3265
  714MOL0     N98445   4.629   8.502   2.953  0.1476  0.4422  0.5755
  714MOL0     N98446   4.690   8.576   3.040 -0.5142 -0.5280  0.4716
  714MOL0     C98447   4.879   8.984   4.160  0.4896 -0.1526  0.2887
  714MOL0     C98448   4.845   9.058   4.277  0.1722  0.1523  0.1903
  714MOL0     C98449   4.736   9.264   4.625  0.9675  0.2616  0.1948
  714MOL0     C98450   4.614   9.331   4.655  1.6218  0.1244 -0.8257
  714MOL0     C98451   4.612   9.427   4.760  0.0688 -0.2777 -0.4228
  714MOL0     C98452   4.726   9.464   4.828 -0.3896  0.0400 -0.0487
  714MOL0     O98453   4.719   9.553   4.926 -0.1428 -0.3634  1.0052
  714MOL0     C98454   4.814   9.670   4.923  1.2160 -0.0857  0.6641
  714MOL0     C98455   4.786   9.766   4.805 -0.6911 -0.6456  0.0206
  714MOL0     C98456   4.649   9.831   4.806  0.1099 -0.2646  0.6573
  714MOL0     C98457   4.587   9.905   4.920  0.3881  0.1028 -1.1239
  714MOL0     C98458   4.695   9.971   4.999  0.3677 -0.3839 -0.4733
  714MOL0     C98459   4.776  10.036   5.065  0.6039 -0.3804  0.4266
  714MOL0     C98460   4.847   9.401   4.789 -0.4866 -0.5654  0.7806
  714MOL0     C98461   4.862   9.297   4.683  0.5173 -0.7879  0.5317
  714MOL0     C98462   4.993   9.232   4.655 -0.0021 -0.3895 -0.5389
  714MOL0     H98463   4.515   8.984   4.274 -1.4604 -0.9848 -2.5161
  714MOL0     H98464   4.580   8.856   4.075  3.6937 -0.9566 -3.6134
  714MOL0     H98465   4.992   8.772   4.068  0.9136  1.3263 -1.6815
  714MOL0     H98466   4.990   8.858   3.919 -1.9810 -0.0685 -1.6851
  714MOL0     H98467   5.072   8.668   3.849  0.6780  1.2792 -0.3987
  714MOL0     H98468   4.974   8.564   3.946  2.5706 -0.6022 -0.6825
  714MOL0     H98469   4.788   8.573   3.794  0.3576 -1.0334 -2.9659
  714MOL0     H98470   4.826   8.736   3.728 -4.1931 -0.0803  1.5694
  714MOL0     H98471   4.989   8.619   3.589 -1.0802  1.9736  0.3308
  714MOL0     H98472   4.963   8.458   3.684 -0.7071 -1.4816 -3.4753
  714MOL0     H98473   4.748   8.443   3.628  0.6352 -0.9676  0.4646
  714MOL0     H98474   4.857   8.433   3.487 -3.1965  0.3336 -1.4374
  714MOL0     H98475   4.640   8.630   3.549 -0.6081  2.0763 -1.7018
  714MOL0     H98476   4.788   8.689   3.484 -0.6179  0.0136  3.2127
  714MOL0     H98477   4.618   8.455   3.374  1.5930 -1.3786 -3.8363
  714MOL0     H98478   4.783   8.497   3.318  3.3752  4.4451  1.2125
  714MOL0     H98479   4.565   8.702   3.323 -1.0720  0.6247 -1.1855
  714MOL0     H98480   4.727   8.712   3.249 -0.6264  0.9032 -1.1401
  714MOL0     H98481   4.423   8.479   3.207 -1.1101 -0.7386 -1.1161
  714MOL0     H98482   4.357   8.304   3.009  0.5019  0.1566  0.8986
  714MOL0     H98483   4.510   8.268   2.909  1.6653  0.3948  1.7846
  714MOL0     H98484   4.434   8.417   2.743 -2.5606  1.1711 -0.6974
  714MOL0     H98485   4.311   8.306   2.771  2.6481 -1.1943 -1.7430
  714MOL0     H98486   4.216   8.498   2.949 -5.5856  0.4464 -1.9199
  714MOL0     H98487   4.325   8.600   2.837 -1.2860  1.4643 -1.8674
  714MOL0     H98488   4.120   8.611   2.744  0.7986  0.5294  0.7559
  714MOL0     H98489   4.190   8.484   2.652  1.2799 -1.4420  1.0297
  714MOL0     H98490   3.908   8.189   2.750  1.0862 -0.2703 -0.0187
  714MOL0     H98491   3.662   8.094   2.535 -0.3587 -2.0641  1.7818
  714MOL0     H98492   3.737   8.057   2.682 -3.8098  3.6411  1.2900
  714MOL0     H98493   3.818   8.019   2.526  1.3005 -1.6323  2.5133
  714MOL0     H98494   3.400   8.421   2.353  0.4822 -3.2195  1.9574
  714MOL0     H98495   3.196   8.399   2.186  0.1330 -0.2057  0.3785
  714MOL0     H98496   3.338   8.348   1.811 -1.5486  4.1943 -2.3784
  714MOL0     H98497   3.176   8.307   1.762 -2.8087  2.4054 -0.9944
  714MOL0     H98498   3.229   8.551   1.942 -0.7433  2.1289 -0.7251
  714MOL0     H98499   3.217   8.548   1.765 -0.7416  0.2817 -0.3655
  714MOL0     H98500   3.005   8.471   1.965  0.1388 -4.0701 -1.1202
  714MOL0     H98501   2.979   8.437   1.797  2.6421 -5.4115  3.6581
  714MOL0     H98502   3.017   8.673   1.739  0.6982 -0.4431  0.1088
  714MOL0     H98503   3.044   8.718   1.903  2.3590 -1.9299 -0.0603
  714MOL0     H98504   2.816   8.776   1.847 -3.1051  0.3565  2.3210
  714MOL0     H98505   2.783   8.609   1.783  1.0190 -3.7526  0.8549
  714MOL0     H98506   2.800   8.527   2.018  1.7673  0.0522  2.4459
  714MOL0     H98507   2.693   8.665   2.021  0.5343 -0.5989 -2.1072
  714MOL0     H98508   2.928   8.797   2.086  1.3391 -0.6259  0.8140
  714MOL0     H98509   2.985   8.636   2.121 -1.3434 -2.0219  1.5351
  714MOL0     H98510   2.712   8.722   2.225 -0.6089  2.3308  5.0601
  714MOL0     H98511   2.865   8.750   2.307 -0.4964  0.2503  0.0376
  714MOL0     H98512   3.463   8.165   1.929 -3.7731 -0.9753 -0.9689
  714MOL0     H98513   3.639   8.194   2.083 -1.6108 -3.9009  2.3025
  714MOL0     H98514   3.847   8.504   2.380  0.2942 -2.5139 -2.2313
  714MOL0     H98515   3.996   8.583   2.569  2.4820 -1.2420 -0.1257
  714MOL0     H98516   4.982   8.980   4.125  1.3966 -2.9788  2.8729
  714MOL0     H98517   4.925   9.113   4.325 -0.4316 -0.6628  2.2046
  714MOL0     H98518   4.521   9.283   4.627  1.5128  0.1124 -0.4576
  714MOL0     H98519   4.510   9.453   4.788 -1.0663 -2.8904 -1.7762
  714MOL0     H98520   4.798   9.731   5.013  1.7877  1.2259 -0.0936
  714MOL0     H98521   4.916   9.630   4.925  0.8977 -0.9083  1.9969
  714MOL0     H98522   4.817   9.699   4.724  3.4298  0.0189  0.8116
  714MOL0     H98523   4.859   9.847   4.797  0.6889 -1.9319 -1.1183
  714MOL0     H98524   4.647   9.884   4.711 -0.5425  1.3259  1.5297
  714MOL0     H98525   4.574   9.752   4.794  0.6008 -0.8046  1.0379
  714MOL0     H98526   4.543   9.826   4.982  1.8625 -0.2597 -0.4907
  714MOL0     H98527   4.509   9.974   4.889 -1.2594 -0.8085  0.7606
  714MOL0     H98528   4.846  10.089   5.126 -0.8634  1.7490  0.3833
  714MOL0     H98529   4.933   9.411   4.854  2.1101 -2.5531 -2.0231
  714MOL0     H98530   5.055   9.321   4.637  1.1510 -0.1837  3.4795
  714MOL0     H98531   5.010   9.187   4.753  0.5765  0.1789 -0.3769
  714MOL0     H98532   5.012   9.164   4.572  3.9016  1.8513 -1.7454
  715MOL0     O98533  11.564   6.675   3.376  0.3572  0.0314 -0.0381
  715MOL0     C98534  11.470   6.641   3.453  0.2336 -0.3593  0.6479
  715MOL0     O98535  11.468   6.539   3.538 -0.2755  0.0242  0.0432
  715MOL0     C98536  11.592   6.481   3.574 -0.0302 -0.4271 -0.1009
  715MOL0     C98537  11.642   6.489   3.702 -0.1074  0.1419 -0.0200
  715MOL0     C98538  11.769   6.441   3.734  0.4706 -0.0324  0.3841
  715MOL0     C98539  11.836   6.368   3.639  0.5601 -0.5133 -0.5361
  715MOL0     O98540  11.956   6.307   3.669  0.2017 -0.8213 -0.8656
  715MOL0     C98541  11.997   6.196   3.587 -0.1082 -0.5171 -0.0356
  715MOL0     C98542  12.116   6.126   3.642 -0.4270  0.3689 -0.2968
  715MOL0     C98543  12.096   6.061   3.782 -0.1770  0.5792  0.2020
  715MOL0     C98544  12.196   5.947   3.792  0.2892  0.2771 -0.5834
  715MOL0     C98545  12.172   5.860   3.923 -0.7785  0.6083  0.1597
  715MOL0     C98546  12.204   5.924   4.048  0.2837  0.1225 -1.1273
  715MOL0     C98547  12.193   5.824   4.173  0.2949  0.0804  0.7323
  715MOL0     C98548  12.064   5.821   4.249  0.1618  0.5147  0.5544
  715MOL0     N98549  11.959   5.729   4.192  0.3578 -0.1175 -0.2975
  715MOL0     C98550  11.959   5.601   4.180  1.9898  0.7241 -0.0492
  715MOL0     C98551  11.843   5.566   4.119 -0.4206 -0.3773 -1.1835
  715MOL0     C98552  11.801   5.431   4.085  0.8903 -0.4313  0.4384
  715MOL0     C98553  11.887   5.378   3.981 -0.0835 -0.2750  1.1043
  715MOL0     C98554  11.885   5.229   3.960  0.3614  0.3116 -0.4271
  715MOL0     C98555  11.746   5.175   3.930 -0.8652 -0.4371  0.4782
  715MOL0     O98556  11.642   5.187   4.025  0.7658 -0.1799 -0.1409
  715MOL0     C98557  11.518   5.161   3.963  0.7894 -1.0991  0.1947
  715MOL0     C98558  11.403   5.224   4.017 -0.2338  0.2517  0.0242
  715MOL0     C98559  11.275   5.199   3.957  0.3614 -0.8042 -0.3028
  715MOL0     C98560  11.167   5.294   4.008 -0.0970 -0.0697  0.0777
  715MOL0     C98561  11.251   5.090   3.867 -0.1943  0.0515 -0.9297
  715MOL0     C98562  11.133   5.040   3.813 -0.4076 -0.3617 -0.1596
  715MOL0     O98563  11.113   4.909   3.837 -0.9474 -0.1567  0.7058
  715MOL0     C98564  10.988   4.850   3.811  0.0662  0.2254  0.4796
  715MOL0     C98565  10.952   4.753   3.905  0.3541  0.1990  0.3406
  715MOL0     C98566  10.819   4.695   3.885 -0.8179 -0.4486 -0.8010
  715MOL0     C98567  10.715   4.741   3.805 -0.9974  0.1739 -0.7112
  715MOL0     O98568  10.597   4.676   3.814 -0.1408  0.9395 -0.7353
  715MOL0     C98569  10.507   4.694   3.708 -0.0879 -0.5421  1.0724
  715MOL0     C98570  10.397   4.594   3.713  0.5441  0.5041 -0.4360
  715MOL0     C98571  10.429   4.441   3.714 -0.9718 -0.5212 -0.7010
  715MOL0     C98572  10.298   4.350   3.722 -1.1380  0.1183 -0.3357
  715MOL0     C98573  10.225   4.335   3.861  0.0514 -1.5096  0.5160
  715MOL0     C98574  10.119   4.232   3.843 -0.4074 -0.1138 -0.0770
  715MOL0     C98575  10.042   4.205   3.973 -0.1635 -0.4651  0.2129
  715MOL0     C98576   9.983   4.070   3.952  0.3852 -0.4697  0.6734
  715MOL0    Cl98577   9.875   4.059   3.813 -0.2551  0.4216 -0.0397
  715MOL0     C98578  10.753   4.836   3.719 -0.5825 -0.5128  0.0142
  715MOL0     C98579  10.886   4.879   3.713 -0.5772 -0.5332  0.2759
  715MOL0     O98580  11.048   5.120   3.786 -0.4165 -0.7540  0.1334
  715MOL0     C98581  11.371   5.028   3.830  0.0220 -0.9225 -0.4713
  715MOL0     C98582  11.495   5.057   3.878  0.0908 -0.4610  0.7736
  715MOL0     N98583  11.760   5.678   4.116 -0.0248 -0.1731  0.1437
  715MOL0     N98584  11.841   5.776   4.140  0.3836  0.0303 -0.0544
  715MOL0     C98585  11.789   6.368   3.508  0.8212 -0.5142  0.8115
  715MOL0     C98586  11.668   6.424   3.470  0.6713 -1.3684  0.0758
  715MOL0     C98587  11.346   6.713   3.436 -0.4590  0.4479  0.5140
  715MOL0     C98588  11.332   6.854   3.474  0.3215  0.5586  0.3400
  715MOL0     C98589  11.221   6.926   3.456  0.3754  0.9244 -0.1697
  715MOL0     C98590  11.106   6.859   3.415 -0.5011 -0.6644 -0.2268
  715MOL0     O98591  10.983   6.918   3.415 -0.3583 -0.1394  0.3622
  715MOL0     C98592  10.964   6.982   3.287 -0.5588 -1.5868 -0.8651
  715MOL0     C98593  10.816   7.007   3.276  0.2911 -0.4064 -0.2072
  715MOL0     C98594  10.750   6.918   3.175 -0.4175 -0.7825  0.3162
  715MOL0     C98595  10.607   6.903   3.218 -0.0842  0.6843 -0.6892
  715MOL0     C98596  10.530   6.832   3.111  0.7122 -0.0002 -0.8952
  715MOL0     C98597  10.444   6.782   3.044  0.5972  0.7410  0.5550
  715MOL0     C98598  11.112   6.728   3.389 -0.5318  0.1860  0.1923
  715MOL0     C98599  11.233   6.645   3.396  0.7960  0.7118 -0.2018
  715MOL0     C98600  11.234   6.497   3.344  0.4152 -0.4169  0.7661
  715MOL0     H98601  11.585   6.538   3.780  0.7184  1.0597  0.0191
  715MOL0     H98602  11.820   6.455   3.829 -0.7998  1.9108  0.8377
  715MOL0     H98603  12.032   6.251   3.499  2.4727 -0.0815  1.1746
  715MOL0     H98604  11.919   6.120   3.578 -0.9172 -0.1406  2.7730
  715MOL0     H98605  12.145   6.054   3.564 -2.3075 -1.4852  0.6280
  715MOL0     H98606  12.193   6.204   3.647 -1.7464  2.1118 -3.8146
  715MOL0     H98607  12.119   6.130   3.863  1.0058  0.2009  0.2024
  715MOL0     H98608  11.998   6.013   3.789  1.0857 -2.3317 -0.7800
  715MOL0     H98609  12.181   5.874   3.712 -2.3488 -1.7302  1.5477
  715MOL0     H98610  12.299   5.982   3.790  0.9371 -1.4968 -2.3544
  715MOL0     H98611  12.242   5.779   3.902 -0.7116  1.0622 -1.5734
  715MOL0     H98612  12.068   5.829   3.916 -1.3412  2.0986  1.3660
  715MOL0     H98613  12.307   5.956   4.026 -0.4029  3.4563 -0.1671
  715MOL0     H98614  12.136   6.009   4.055  0.1592 -0.0344 -0.3346
  715MOL0     H98615  12.275   5.856   4.239  1.5001  0.7094 -0.9827
  715MOL0     H98616  12.214   5.722   4.139 -0.4321  0.0302  0.4256
  715MOL0     H98617  12.086   5.792   4.353 -1.3920 -2.3286  0.2021
  715MOL0     H98618  12.012   5.917   4.255  0.3977  1.0078 -3.2933
  715MOL0     H98619  12.034   5.525   4.200 -0.8334 -2.1666  0.3701
  715MOL0     H98620  11.701   5.420   4.043  1.2445 -2.7505  0.1113
  715MOL0     H98621  11.796   5.381   4.182  0.0162  2.0343  1.7706
  715MOL0     H98622  11.856   5.424   3.887 -0.3421 -1.0362  0.8117
  715MOL0     H98623  11.993   5.402   3.995  0.3425 -0.9016 -0.7558
  715MOL0     H98624  11.954   5.201   3.879  1.8525 -1.5322  1.3828
  715MOL0     H98625  11.933   5.182   4.046 -2.1356  1.4302  1.7242
  715MOL0     H98626  11.708   5.197   3.830 -0.1150 -1.7775 -0.1283
  715MOL0     H98627  11.766   5.067   3.929  2.0889 -0.0329  2.2667
  715MOL0     H98628  11.419   5.294   4.098  0.9619  1.9688 -1.6036
  715MOL0     H98629  11.138   5.373   3.938  0.6323 -1.0453 -1.3939
  715MOL0     H98630  11.209   5.342   4.096 -1.0311  0.2127  0.3766
  715MOL0     H98631  11.079   5.233   4.032  1.2953 -3.7339 -2.9897
  715MOL0     H98632  11.016   4.716   3.984 -1.8959  2.4053  3.4819
  715MOL0     H98633  10.801   4.611   3.950 -3.1053  1.0522  0.6445
  715MOL0     H98634  10.463   4.794   3.704 -0.4611 -0.6156 -4.5238
  715MOL0     H98635  10.565   4.674   3.617 -0.5765  3.5484 -0.3338
  715MOL0     H98636  10.330   4.615   3.796  0.4552 -1.5196  0.0563
  715MOL0     H98637  10.333   4.610   3.626  0.8673  0.1587 -0.7407
  715MOL0     H98638  10.487   4.414   3.802 -2.5990 -0.8357  0.3149
  715MOL0     H98639  10.478   4.418   3.618  1.1644  0.6709  0.0441
  715MOL0     H98640  10.334   4.249   3.699 -1.4041 -0.6278  2.1598
  715MOL0     H98641  10.225   4.385   3.649 -1.1758 -0.7012 -0.7013
  715MOL0     H98642  10.298   4.310   3.939  2.2312 -4.5419 -2.2357
  715MOL0     H98643  10.186   4.433   3.891  0.0959 -1.1287 -0.6241
  715MOL0     H98644  10.165   4.141   3.804 -1.8967 -1.0627  0.3045
  715MOL0     H98645  10.050   4.254   3.761 -0.2467 -1.6655 -0.6469
  715MOL0     H98646   9.965   4.279   4.000  0.5162 -0.3003  1.8391
  715MOL0     H98647  10.113   4.207   4.056 -1.2001  0.7380  1.1227
  715MOL0     H98648   9.918   4.057   4.039 -2.5684  2.2123 -0.8697
  715MOL0     H98649  10.064   3.998   3.950  0.7016 -0.1405 -1.2854
  715MOL0     H98650  10.688   4.864   3.636 -0.0164  0.8594  0.0085
  715MOL0     H98651  10.899   4.943   3.626  1.0744 -1.9909 -0.6100
  715MOL0     H98652  11.375   4.949   3.755  2.8591  0.2073 -1.6823
  715MOL0     H98653  11.567   4.992   3.829 -0.7394 -0.5449 -0.3685
  715MOL0     H98654  11.843   6.310   3.434  1.1463  0.8037 -0.0221
  715MOL0     H98655  11.630   6.408   3.369 -0.9577 -1.4827  0.6804
  715MOL0     H98656  11.421   6.904   3.512 -0.7221  2.8029  0.0133
  715MOL0     H98657  11.202   7.024   3.500  1.6536  0.8613  0.5862
  715MOL0     H98658  11.007   7.082   3.275 -0.6600 -1.2943  1.0062
  715MOL0     H98659  11.017   6.916   3.217  2.5868 -0.0679 -0.0809
  715MOL0     H98660  10.804   7.108   3.236  2.0767  0.2788  0.8500
  715MOL0     H98661  10.775   7.001   3.377  3.2680 -2.3613  1.0206
  715MOL0     H98662  10.760   6.959   3.074  0.9518 -1.9773 -0.0683
  715MOL0     H98663  10.789   6.817   3.183 -1.9020 -1.3749  0.4657
  715MOL0     H98664  10.556   6.997   3.242 -1.6350  0.3441 -2.4807
  715MOL0     H98665  10.611   6.830   3.299 -0.1289  0.6750 -0.6957
  715MOL0     H98666  10.358   6.741   2.994 -0.2809  2.5653  0.5087
  715MOL0     H98667  11.015   6.684   3.368 -0.4487 -0.4061  0.9870
  715MOL0     H98668  11.137   6.469   3.301 -0.2217  0.3057  1.7134
  715MOL0     H98669  11.312   6.488   3.268 -0.3145  1.0346 -0.1924
  715MOL0     H98670  11.263   6.422   3.418 -0.8412 -2.4889 -0.6899
  716MOL0     O98671   1.764  10.999   8.445 -0.8704 -0.0590  0.5262
  716MOL0     C98672   1.877  10.951   8.418  0.3714 -0.3182  0.6115
  716MOL0     O98673   1.975  10.919   8.512 -0.0621  0.4281 -0.0895
  716MOL0     C98674   1.977  10.996   8.628 -0.7783 -0.2994  0.1664
  716MOL0     C98675   1.934  10.946   8.752 -1.0208 -0.1843  0.3892
  716MOL0     C98676   1.946  11.015   8.870 -0.1598 -0.4445 -0.6817
  716MOL0     C98677   2.012  11.139   8.877  0.1162 -0.5202  0.0509
  716MOL0     O98678   2.019  11.202   9.001  0.9376 -0.1348  0.2533
  716MOL0     C98679   2.078  11.334   9.017 -0.2328 -0.7274 -0.1192
  716MOL0     C98680   2.238  11.329   8.993 -0.5686 -0.0880 -0.6113
  716MOL0     C98681   2.307  11.231   9.093  0.5561 -0.6305 -0.1872
  716MOL0     C98682   2.453  11.212   9.056  0.0510 -0.0525  1.2051
  716MOL0     C98683   2.522  11.127   9.161 -0.5970  1.2094  0.4971
  716MOL0     C98684   2.635  11.043   9.094 -0.6250  0.1117 -0.1311
  716MOL0     C98685   2.745  11.123   9.022 -0.0596 -0.3906 -0.3232
  716MOL0     C98686   2.884  11.051   9.017 -0.4846  0.6783  0.5816
  716MOL0     N98687   2.853  10.910   8.981  1.0781  0.4344  0.3185
  716MOL0     C98688   2.863  10.800   9.052 -0.0510  0.1307 -0.1219
  716MOL0     C98689   2.868  10.700   8.968 -0.7548 -0.0868 -0.0960
  716MOL0     C98690   2.886  10.552   8.993 -0.5559 -0.1770 -0.7751
  716MOL0     C98691   2.972  10.500   9.117  1.1797 -0.6801 -1.1010
  716MOL0     C98692   3.120  10.550   9.116  0.4892  0.3508  0.4565
  716MOL0     C98693   3.207  10.500   9.228 -0.5841  0.0942  0.4254
  716MOL0     O98694   3.346  10.510   9.198  0.0603  0.2320  0.1296
  716MOL0     C98695   3.422  10.430   9.281 -0.5116  0.1799 -0.6786
  716MOL0     C98696   3.386  10.376   9.408  0.0927  1.2770  0.2891
  716MOL0     C98697   3.483  10.312   9.494 -0.0622  0.0307 -0.4724
  716MOL0     C98698   3.420  10.282   9.627  0.0433  0.3780  0.8851
  716MOL0     C98699   3.611  10.272   9.452  0.2363 -0.0524  0.0206
  716MOL0     C98700   3.711  10.196   9.524  0.0004 -0.2132  0.6645
  716MOL0     O98701   3.829  10.160   9.447 -0.9360 -0.4866 -0.7558
  716MOL0     C98702   3.936  10.097   9.503 -0.6544  0.2077  0.6455
  716MOL0     C98703   3.934  10.006   9.610  0.5885  1.1215  1.3471
  716MOL0     C98704   4.047   9.971   9.676  0.1366  0.0119  0.8216
  716MOL0     C98705   4.172  10.001   9.624  0.3806 -0.7193  1.0727
  716MOL0     O98706   4.289   9.953   9.671  0.0995  0.7348 -1.0036
  716MOL0     C98707   4.374   9.892   9.576 -0.5533 -0.7232 -0.4336
  716MOL0     C98708   4.496   9.829   9.643  0.2497 -0.6771 -0.0624
  716MOL0     C98709   4.608   9.779   9.548  0.0229 -0.9107 -0.2672
  716MOL0     C98710   4.588   9.636   9.511 -0.0943  0.6541 -0.3262
  716MOL0     C98711   4.701   9.582   9.425  0.2079 -1.1861  0.8138
  716MOL0     C98712   4.683   9.435   9.397  0.7341  0.7179  0.1279
  716MOL0     C98713   4.800   9.371   9.329 -0.8863  0.4056 -0.4773
  716MOL0     C98714   4.797   9.216   9.317  0.4339  1.1847 -0.1426
  716MOL0    Cl98715   4.939   9.160   9.241 -0.4362 -0.5338 -0.6430
  716MOL0     C98716   4.172  10.093   9.520 -0.3647 -1.0537 -0.1257
  716MOL0     C98717   4.059  10.151   9.462  0.1318 -0.0328  0.4599
  716MOL0     O98718   3.698  10.165   9.638  0.5315  0.5593 -0.0745
  716MOL0     C98719   3.641  10.313   9.317  0.5188 -0.2039 -1.0737
  716MOL0     C98720   3.551  10.390   9.233  0.6726 -1.1631  0.5699
  716MOL0     N98721   2.862  10.750   8.841 -0.3910  0.5462  0.0235
  716MOL0     N98722   2.859  10.871   8.854  0.2563 -0.3241  0.0181
  716MOL0     C98723   2.049  11.183   8.757 -0.4417 -0.6497  0.5878
  716MOL0     C98724   2.036  11.118   8.639 -0.1892  0.3339  1.4582
  716MOL0     C98725   1.891  10.915   8.278  0.0466  0.0737  0.7072
  716MOL0     C98726   2.027  10.884   8.240  0.5923  0.0223  0.2186
  716MOL0     C98727   2.052  10.828   8.106  0.1296 -0.3910  0.1574
  716MOL0     C98728   1.953  10.819   8.010 -0.6509  0.1797  0.2376
  716MOL0     O98729   1.961  10.756   7.884 -0.0484 -0.3976  0.5711
  716MOL0     C98730   2.085  10.712   7.838 -0.0612 -0.0658  0.2489
  716MOL0     C98731   2.173  10.823   7.783  0.0911  0.6905  0.0581
  716MOL0     C98732   2.129  10.878   7.651 -0.2309  0.5226  0.5168
  716MOL0     C98733   2.000  10.965   7.669 -0.2783  0.0372 -0.5530
  716MOL0     C98734   1.995  11.017   7.530 -0.7908  1.0818 -0.1500
  716MOL0     C98735   1.972  11.055   7.417 -0.0220  0.1917  0.3426
  716MOL0     C98736   1.829  10.856   8.044 -0.2632  0.2824 -0.9161
  716MOL0     C98737   1.791  10.904   8.175  0.2506  0.5058 -0.5003
  716MOL0     C98738   1.650  10.940   8.209  0.5558  0.2011 -0.5393
  716MOL0     H98739   1.886  10.848   8.756 -1.4215 -0.2677 -3.2726
  716MOL0     H98740   1.904  10.973   8.960  0.8002 -1.6537 -0.7816
  716MOL0     H98741   2.070  11.369   9.121  0.1517 -0.2034 -0.2617
  716MOL0     H98742   2.017  11.412   8.969  0.4013  0.4796  0.9737
  716MOL0     H98743   2.248  11.294   8.890 -2.2203  1.4021 -1.3268
  716MOL0     H98744   2.283  11.428   8.995 -0.6936  0.1348 -3.6823
  716MOL0     H98745   2.308  11.282   9.190  0.6173  0.3032 -0.6718
  716MOL0     H98746   2.269  11.128   9.100  1.2067 -0.8499  0.1938
  716MOL0     H98747   2.470  11.175   8.955 -0.4278  1.0447  0.7118
  716MOL0     H98748   2.494  11.313   9.049 -0.9668  0.3019  0.0421
  716MOL0     H98749   2.455  11.058   9.212  2.5498 -2.7608 -0.2211
  716MOL0     H98750   2.562  11.193   9.239 -1.6869  0.5272  1.6607
  716MOL0     H98751   2.686  10.985   9.172  2.0844 -2.5609 -3.5761
  716MOL0     H98752   2.580  10.975   9.029 -2.5323 -0.0354  1.5326
  716MOL0     H98753   2.759  11.217   9.076 -0.0185 -0.7553  0.3136
  716MOL0     H98754   2.709  11.144   8.921 -0.9234 -0.4714 -0.0388
  716MOL0     H98755   2.948  11.087   8.936  0.1785  0.8128  1.1607
  716MOL0     H98756   2.949  11.066   9.104  0.7084  2.1484 -0.5002
  716MOL0     H98757   2.886  10.798   9.158 -3.3814  0.2075  0.7125
  716MOL0     H98758   2.939  10.526   8.901 -5.0342  0.5069 -3.8649
  716MOL0     H98759   2.785  10.512   8.992 -0.6092 -0.4146 -4.9176
  716MOL0     H98760   2.936  10.541   9.212  1.1138 -1.8813 -0.5901
  716MOL0     H98761   2.965  10.391   9.120  4.2478 -1.0717  3.8284
  716MOL0     H98762   3.152  10.495   9.027 -1.8645 -3.4895  1.7258
  716MOL0     H98763   3.138  10.657   9.097  0.6725  0.0356 -1.3944
  716MOL0     H98764   3.183  10.554   9.320  0.9551 -1.6011  1.9008
  716MOL0     H98765   3.176  10.395   9.230 -2.1699  0.4892 -0.8248
  716MOL0     H98766   3.285  10.391   9.444 -0.0795 -0.2771  0.5366
  716MOL0     H98767   3.381  10.179   9.628  1.1703 -0.1410 -1.5246
  716MOL0     H98768   3.333  10.343   9.650 -4.7955 -5.7481  1.5745
  716MOL0     H98769   3.495  10.298   9.705  2.4970  4.9229 -1.9755
  716MOL0     H98770   3.837   9.980   9.652  0.2710  0.7242  0.3803
  716MOL0     H98771   4.054   9.894   9.752 -0.6535  0.3755  1.2717
  716MOL0     H98772   4.327   9.804   9.532  2.9435 -2.6587 -0.7201
  716MOL0     H98773   4.418   9.959   9.501 -0.1548 -2.1210 -1.4833
  716MOL0     H98774   4.534   9.909   9.707  0.2394 -0.9846  0.3314
  716MOL0     H98775   4.466   9.743   9.705  1.0765 -1.6244 -0.9427
  716MOL0     H98776   4.703   9.798   9.598 -1.3517  2.5484  1.3280
  716MOL0     H98777   4.609   9.847   9.462  0.4652 -1.3749 -0.6426
  716MOL0     H98778   4.492   9.619   9.463 -0.2020  3.6207 -1.3391
  716MOL0     H98779   4.579   9.588   9.609  2.0097  1.2032  0.1834
  716MOL0     H98780   4.700   9.637   9.330  1.3565  0.6740  1.8180
  716MOL0     H98781   4.793   9.602   9.481 -0.0464  2.1477  0.2358
  716MOL0     H98782   4.587   9.404   9.354  0.1266  0.6590  1.4973
  716MOL0     H98783   4.686   9.381   9.492 -0.2146  2.4196  1.1531
  716MOL0     H98784   4.886   9.384   9.395 -0.1719  0.8517 -1.4704
  716MOL0     H98785   4.818   9.411   9.229 -3.2726  0.5788 -0.9093
  716MOL0     H98786   4.724   9.184   9.243  0.6316 -0.2709  0.2586
  716MOL0     H98787   4.783   9.172   9.417 -0.6935 -0.8401 -1.1212
  716MOL0     H98788   4.275  10.102   9.488 -0.0956  3.0310  1.3332
  716MOL0     H98789   4.065  10.229   9.386 -0.7431 -1.8927 -1.6312
  716MOL0     H98790   3.737  10.283   9.275  0.9772 -0.7761  0.3431
  716MOL0     H98791   3.585  10.428   9.137  1.7188  0.6630  1.6117
  716MOL0     H98792   2.091  11.283   8.745 -1.6405 -0.0512  1.1815
  716MOL0     H98793   2.061  11.183   8.556 -0.1397  1.1550  2.0931
  716MOL0     H98794   2.106  10.888   8.313 -1.5034  2.3027  2.5835
  716MOL0     H98795   2.157  10.803   8.090  1.2386  1.5536  3.3193
  716MOL0     H98796   2.146  10.652   7.906  0.2742  1.9905  1.8702
  716MOL0     H98797   2.056  10.637   7.765  2.2707 -0.9327  0.1563
  716MOL0     H98798   2.268  10.775   7.759 -0.1832 -1.0838  2.2170
  716MOL0     H98799   2.190  10.896   7.862  0.3224  1.2850 -0.5286
  716MOL0     H98800   2.212  10.926   7.600  0.3241 -2.3031 -1.4970
  716MOL0     H98801   2.113  10.792   7.585 -2.7725  2.6451 -1.8553
  716MOL0     H98802   2.029  11.046   7.736 -1.8997  0.8237 -0.7417
  716MOL0     H98803   1.907  10.915   7.698  0.8804 -4.2865 -3.3092
  716MOL0     H98804   1.952  11.085   7.316 -0.7515 -1.9538 -0.1996
  716MOL0     H98805   1.741  10.833   7.984 -0.4656 -0.9956 -0.1395
  716MOL0     H98806   1.632  10.869   8.291 -0.4123  0.2582 -0.6873
  716MOL0     H98807   1.624  11.043   8.232 -1.4609  0.1374 -2.2250
  716MOL0     H98808   1.589  10.909   8.123  0.3894 -1.4004  0.1169
  717MOL0     O98809   7.796   5.559   6.699 -0.1487  0.8106 -0.6000
  717MOL0     C98810   7.863   5.625   6.617  1.3020 -0.4508 -0.2476
  717MOL0     O98811   7.819   5.654   6.494 -0.4352  0.1033  0.2181
  717MOL0     C98812   7.695   5.628   6.456 -0.1681  0.5331 -0.0298
  717MOL0     C98813   7.672   5.535   6.343  0.2565 -0.3573  0.2647
  717MOL0     C98814   7.549   5.517   6.290  0.9517 -0.3459 -0.0335
  717MOL0     C98815   7.433   5.568   6.349  0.4825 -0.2401 -0.2125
  717MOL0     O98816   7.303   5.549   6.303  0.5035  0.0744  0.8434
  717MOL0     C98817   7.286   5.538   6.169 -0.3604  0.1123 -0.0254
  717MOL0     C98818   7.302   5.669   6.090 -0.9899 -0.1774  0.1508
  717MOL0     C98819   7.287   5.667   5.934  0.0038  1.1875  0.7365
  717MOL0     C98820   7.181   5.766   5.865 -0.7816  0.6849  0.8602
  717MOL0     C98821   7.195   5.768   5.711  0.4151 -0.5558 -0.3372
  717MOL0     C98822   7.156   5.632   5.637 -0.8272 -0.3007  0.4531
  717MOL0     C98823   7.009   5.598   5.646 -0.4636  0.1359 -0.5096
  717MOL0     C98824   6.972   5.453   5.623 -0.0732 -0.3947  0.7108
  717MOL0     N98825   7.039   5.362   5.716 -0.5075 -0.2356 -0.5232
  717MOL0     C98826   7.001   5.346   5.843 -0.8281 -1.0937 -0.3156
  717MOL0     C98827   7.101   5.267   5.904 -0.8377 -0.0558  0.3554
  717MOL0     C98828   7.093   5.210   6.041  0.2220  0.4600 -0.1414
  717MOL0     C98829   7.111   5.060   6.058 -0.7768  0.1963 -0.2178
  717MOL0     C98830   6.991   4.986   6.035  0.3106  0.9743 -0.3755
  717MOL0     C98831   6.992   4.838   6.031  0.0207 -0.1051  0.2372
  717MOL0     O98832   7.055   4.768   6.150  0.0185  0.1248 -0.3100
  717MOL0     C98833   7.017   4.636   6.157  0.0929 -0.5605  1.0223
  717MOL0     C98834   7.108   4.558   6.224  0.0249  0.2237 -1.2416
  717MOL0     C98835   7.076   4.422   6.266 -0.6705  0.0938  0.1966
  717MOL0     C98836   7.194   4.347   6.326 -0.0024 -0.3938 -0.3562
  717MOL0     C98837   6.947   4.365   6.239 -1.0961  0.3178  0.3559
  717MOL0     C98838   6.901   4.242   6.285 -0.2826 -0.2550 -0.2595
  717MOL0     O98839   6.803   4.176   6.206 -0.5071  0.3700  0.6825
  717MOL0     C98840   6.719   4.087   6.262  0.5585 -0.9604 -0.1661
  717MOL0     C98841   6.717   3.950   6.246  0.2221 -0.4538  0.5083
  717MOL0     C98842   6.603   3.891   6.298 -0.0841  1.2006 -0.7139
  717MOL0     C98843   6.494   3.947   6.370 -0.2144 -1.0362  0.0646
  717MOL0     O98844   6.371   3.887   6.403  0.5285 -0.2921  0.3618
  717MOL0     C98845   6.359   3.747   6.390 -1.1950 -0.5135  0.4982
  717MOL0     C98846   6.399   3.664   6.509 -0.0927  0.8929  0.6898
  717MOL0     C98847   6.423   3.525   6.451  0.4624 -0.3454 -0.3635
  717MOL0     C98848   6.473   3.425   6.558  1.0026  0.1009 -0.4371
  717MOL0     C98849   6.469   3.295   6.484 -0.1995  0.1938 -0.5742
  717MOL0     C98850   6.471   3.174   6.579 -0.0957  0.5803  0.2483
  717MOL0     C98851   6.346   3.080   6.562 -0.4220 -0.7498 -0.4805
  717MOL0     C98852   6.218   3.136   6.618 -0.2660 -0.1114  0.4180
  717MOL0    Cl98853   6.233   3.200   6.785 -0.0554  0.3917  0.1278
  717MOL0     C98854   6.509   4.089   6.399  1.0055  0.1594 -0.6255
  717MOL0     C98855   6.620   4.152   6.333  0.0623 -0.5911 -0.3259
  717MOL0     O98856   6.952   4.185   6.383  0.0078  0.4195  0.0152
  717MOL0     C98857   6.857   4.445   6.169  0.3296 -1.2182  1.3116
  717MOL0     C98858   6.898   4.577   6.130  0.6425  0.0741 -0.1604
  717MOL0     N98859   7.199   5.245   5.798 -0.5330 -0.9448 -0.1699
  717MOL0     N98860   7.157   5.302   5.685  0.3571 -0.6015 -0.2504
  717MOL0     C98861   7.456   5.644   6.465  0.5089 -0.8972  0.1686
  717MOL0     C98862   7.585   5.679   6.517  0.1640  0.3221  0.3146
  717MOL0     C98863   8.010   5.658   6.647 -1.4164  0.8165 -0.3798
  717MOL0     C98864   8.088   5.695   6.548 -1.3871 -0.4104  0.1312
  717MOL0     C98865   8.218   5.736   6.564  0.3923 -0.2064 -0.0208
  717MOL0     C98866   8.283   5.726   6.688  0.2754 -0.3037  0.5069
  717MOL0     O98867   8.414   5.755   6.706 -0.1470  0.6018 -0.4233
  717MOL0     C98868   8.492   5.636   6.712  0.5982 -0.1895  0.1067
  717MOL0     C98869   8.622   5.683   6.765  0.2965 -0.0192 -0.4555
  717MOL0     C98870   8.712   5.559   6.805  0.1536 -0.2141  0.2087
  717MOL0     C98871   8.853   5.612   6.809 -0.3384  0.0262 -0.9912
  717MOL0     C98872   8.930   5.631   6.690 -0.0845 -1.2024 -0.4521
  717MOL0     C98873   9.006   5.658   6.595 -0.1396 -0.7799 -0.3128
  717MOL0     C98874   8.204   5.682   6.798 -0.5731 -0.9377  0.1917
  717MOL0     C98875   8.070   5.651   6.777  0.7893 -0.1008 -0.6886
  717MOL0     C98876   7.991   5.634   6.907 -0.0442  0.5188  0.5847
  717MOL0     H98877   7.756   5.481   6.301 -0.6660  0.0017 -2.1595
  717MOL0     H98878   7.536   5.460   6.199 -2.0498  1.9005 -1.1652
  717MOL0     H98879   7.180   5.513   6.155 -1.1037  1.7162  2.1968
  717MOL0     H98880   7.353   5.458   6.136 -0.7832  0.2424 -1.2860
  717MOL0     H98881   7.233   5.747   6.124  0.2285  1.3269 -0.7206
  717MOL0     H98882   7.402   5.705   6.113 -0.6849  0.6502 -2.1684
  717MOL0     H98883   7.385   5.700   5.900 -0.5360  1.3932 -0.6648
  717MOL0     H98884   7.265   5.566   5.898  4.5199  0.6110 -0.9920
  717MOL0     H98885   7.083   5.725   5.894  2.1191 -4.3784  5.5010
  717MOL0     H98886   7.196   5.868   5.903 -2.5712  1.0680  0.6340
  717MOL0     H98887   7.296   5.792   5.677 -0.3129  4.4576  0.2368
  717MOL0     H98888   7.138   5.851   5.668  1.8169 -0.1828 -1.5224
  717MOL0     H98889   7.179   5.656   5.533 -2.5804 -1.7005 -0.3166
  717MOL0     H98890   7.228   5.550   5.649  3.0677  2.5566 -1.2230
  717MOL0     H98891   6.957   5.645   5.562  0.6027 -0.5757 -1.5878
  717MOL0     H98892   6.957   5.615   5.741  1.5991 -1.9747  1.1210
  717MOL0     H98893   6.865   5.439   5.640  0.1226 -0.1114  2.3979
  717MOL0     H98894   6.995   5.423   5.521  0.7491 -1.9865  1.3372
  717MOL0     H98895   6.908   5.386   5.880 -0.5806 -1.8263  1.1407
  717MOL0     H98896   6.999   5.250   6.081 -1.1681 -0.8942 -1.8762
  717MOL0     H98897   7.181   5.249   6.093  0.2006 -0.7382  0.8434
  717MOL0     H98898   7.188   5.006   6.002  0.7259 -2.9881  4.3074
  717MOL0     H98899   7.138   5.047   6.163 -0.6934 -0.4690 -0.3201
  717MOL0     H98900   6.918   5.002   6.115 -1.3028  1.7116 -1.9188
  717MOL0     H98901   6.938   5.017   5.944 -1.7311  0.9179  0.7279
  717MOL0     H98902   6.893   4.803   6.001  0.2570  1.1349 -2.2126
  717MOL0     H98903   7.056   4.815   5.945 -1.0198  0.3605 -0.6848
  717MOL0     H98904   7.209   4.594   6.238 -0.1209  0.1251  0.2208
  717MOL0     H98905   7.280   4.400   6.283  0.5349 -0.9350  0.0336
  717MOL0     H98906   7.199   4.242   6.296  0.5030 -1.0767  1.9388
  717MOL0     H98907   7.207   4.345   6.435 -4.6128  0.9823  0.4505
  717MOL0     H98908   6.783   3.904   6.174 -1.5496  0.5729 -1.8762
  717MOL0     H98909   6.609   3.785   6.277  0.3395  1.3882 -1.5764
  717MOL0     H98910   6.257   3.720   6.359 -1.7678 -0.0516  1.8767
  717MOL0     H98911   6.423   3.721   6.306 -0.2667 -3.2650  1.9340
  717MOL0     H98912   6.485   3.712   6.557  1.9266 -0.3956 -1.4333
  717MOL0     H98913   6.324   3.658   6.588 -0.8104  2.7159  0.1921
  717MOL0     H98914   6.497   3.524   6.370 -0.3444  0.4727 -1.1278
  717MOL0     H98915   6.324   3.499   6.412 -0.0713  2.6497 -1.2831
  717MOL0     H98916   6.409   3.424   6.647  0.8694  1.9541 -0.4745
  717MOL0     H98917   6.574   3.461   6.581  0.3947  1.6424 -0.0014
  717MOL0     H98918   6.382   3.296   6.419 -1.4364  2.2820  0.9805
  717MOL0     H98919   6.562   3.291   6.426  0.7306  0.3830  0.8255
  717MOL0     H98920   6.488   3.209   6.681  1.0144 -0.4547  0.4347
  717MOL0     H98921   6.549   3.105   6.545 -0.5312 -1.0665  2.4305
  717MOL0     H98922   6.377   2.986   6.609 -1.6180 -0.2521  1.3609
  717MOL0     H98923   6.328   3.055   6.457 -0.7962 -2.9227  0.0448
  717MOL0     H98924   6.139   3.060   6.619  0.2813 -0.8159 -2.1475
  717MOL0     H98925   6.178   3.219   6.558  2.1784  0.4909 -0.4945
  717MOL0     H98926   6.438   4.143   6.460  0.5821 -2.2888  1.1764
  717MOL0     H98927   6.625   4.260   6.333 -1.7544 -0.4516  1.2904
  717MOL0     H98928   6.753   4.416   6.160  0.0406 -0.6412  2.5834
  717MOL0     H98929   6.812   4.621   6.080 -0.3740  0.4371  1.8160
  717MOL0     H98930   7.364   5.679   6.512  1.0214  0.1191  0.4407
  717MOL0     H98931   7.602   5.721   6.616  3.5956 -0.9622  0.3754
  717MOL0     H98932   8.046   5.711   6.449 -0.5815  1.8278  0.0918
  717MOL0     H98933   8.276   5.761   6.476  0.3766 -3.2163 -0.9872
  717MOL0     H98934   8.443   5.559   6.772 -1.7051 -0.1057 -1.5345
  717MOL0     H98935   8.503   5.582   6.617 -0.0285 -3.7567  1.8712
  717MOL0     H98936   8.607   5.740   6.857 -1.1476 -0.6510 -0.2793
  717MOL0     H98937   8.671   5.742   6.687 -0.4774  1.4668  0.1470
  717MOL0     H98938   8.683   5.529   6.906  0.8908 -0.6657  0.2940
  717MOL0     H98939   8.701   5.481   6.729 -0.5819  0.7298 -0.6906
  717MOL0     H98940   8.914   5.542   6.867 -1.5248 -0.6744 -0.5585
  717MOL0     H98941   8.846   5.702   6.871  0.4881  1.4041 -2.8258
  717MOL0     H98942   9.081   5.684   6.523 -0.2261 -0.9933 -0.4787
  717MOL0     H98943   8.236   5.677   6.902 -0.4556 -1.7638  0.1282
  717MOL0     H98944   7.953   5.531   6.904 -1.2886  0.9611  0.6959
  717MOL0     H98945   8.059   5.639   6.993  1.0061  1.8303 -0.2892
  717MOL0     H98946   7.913   5.709   6.919 -0.6817 -0.4613  3.4710
  718MOL0     O98947   6.650  11.272   2.571  0.2220  0.2536  0.0371
  718MOL0     C98948   6.711  11.359   2.499  0.0711  0.2382 -0.1189
  718MOL0     O98949   6.784  11.459   2.547  0.2400 -0.0829 -0.1364
  718MOL0     C98950   6.770  11.486   2.680  0.5679  0.5746 -0.1777
  718MOL0     C98951   6.658  11.548   2.729  0.9564  0.0039 -0.2404
  718MOL0     C98952   6.647  11.584   2.865  1.0937  1.0034  0.3254
  718MOL0     C98953   6.748  11.542   2.957  0.1608  0.2244 -0.2971
  718MOL0     O98954   6.754  11.589   3.088  0.2249  0.1263  0.3597
  718MOL0     C98955   6.622  11.614   3.153 -0.0497  0.3053  0.4664
  718MOL0     C98956   6.634  11.628   3.301  0.4604  1.5425 -1.0677
  718MOL0     C98957   6.505  11.650   3.385 -0.3217 -1.1159 -0.2554
  718MOL0     C98958   6.396  11.736   3.329  0.0601 -0.2071 -0.3362
  718MOL0     C98959   6.415  11.890   3.359  0.3896  0.6351  0.6848
  718MOL0     C98960   6.285  11.961   3.348 -0.3678 -0.0055 -0.2658
  718MOL0     C98961   6.293  12.110   3.351  0.7323 -0.8799  0.3337
  718MOL0     C98962   6.332  12.178   3.222 -0.7113 -0.3925 -0.0376
  718MOL0     N98963   6.459  12.142   3.151  0.7465 -0.3480 -0.2886
  718MOL0     C98964   6.585  12.154   3.207 -0.2261 -0.0486 -0.6604
  718MOL0     C98965   6.663  12.102   3.119 -0.6550  0.0073  0.2709
  718MOL0     C98966   6.812  12.122   3.109 -0.0163 -0.7226 -0.4480
  718MOL0     C98967   6.896  12.043   3.213 -0.3300 -0.4606  0.2161
  718MOL0     C98968   6.879  11.893   3.203 -0.5608  0.0054 -0.4075
  718MOL0     C98969   6.973  11.820   3.316  0.9421 -0.2126 -0.2186
  718MOL0     O98970   7.103  11.880   3.323  0.8844 -1.0813 -0.3253
  718MOL0     C98971   7.207  11.838   3.404 -0.3895 -0.5380 -0.3868
  718MOL0     C98972   7.199  11.737   3.497  0.1729  0.5865 -0.4661
  718MOL0     C98973   7.303  11.709   3.585 -0.7200  0.0515  1.0022
  718MOL0     C98974   7.286  11.602   3.693 -0.0499  0.0899  0.0059
  718MOL0     C98975   7.428  11.790   3.574  0.2732  0.5114  0.2539
  718MOL0     C98976   7.553  11.766   3.664  0.2165 -0.4913  1.3055
  718MOL0     O98977   7.639  11.872   3.669 -0.3818 -0.0853 -0.6429
  718MOL0     C98978   7.723  11.902   3.770 -0.2723 -0.6238  0.1826
  718MOL0     C98979   7.719  11.871   3.908 -0.4270 -0.7790 -0.1794
  718MOL0     C98980   7.823  11.908   3.989  0.2507 -1.1489 -0.4829
  718MOL0     C98981   7.938  11.968   3.939  0.4103 -0.2450  0.3643
  718MOL0     O98982   8.048  12.007   4.008 -0.3631  0.5294 -0.8665
  718MOL0     C98983   8.105  11.922   4.109  0.5507 -0.1189  0.2844
  718MOL0     C98984   8.222  11.835   4.048  1.0486 -0.4770  2.4943
  718MOL0     C98985   8.301  11.758   4.142 -0.0659  0.7024 -0.6715
  718MOL0     C98986   8.220  11.640   4.196  0.0331 -0.0103 -0.1258
  718MOL0     C98987   8.281  11.541   4.300 -0.2894  0.1855  0.1116
  718MOL0     C98988   8.194  11.419   4.347  0.0224 -0.1328 -1.2666
  718MOL0     C98989   8.142  11.327   4.235  0.0061  0.4104 -0.2626
  718MOL0     C98990   8.241  11.246   4.144 -0.5278  0.6573  0.2236
  718MOL0    Cl98991   8.292  11.341   4.006 -0.0454  0.0467 -0.4170
  718MOL0     C98992   7.932  12.010   3.803  0.4550 -0.3768  1.8724
  718MOL0     C98993   7.828  11.980   3.718  0.4118 -0.5495 -0.2624
  718MOL0     O98994   7.555  11.668   3.735  0.3179 -0.4025 -0.3508
  718MOL0     C98995   7.434  11.890   3.470  0.1202 -0.7262 -1.4177
  718MOL0     C98996   7.323  11.911   3.389 -0.4666 -0.5922  0.3055
  718MOL0     N98997   6.586  12.033   3.029  0.6899 -0.3838 -0.4221
  718MOL0     N98998   6.461  12.051   3.053 -0.0506  1.2680  0.5896
  718MOL0     C98999   6.861  11.480   2.905 -0.0294  0.5834 -0.8933
  718MOL0     C99000   6.873  11.458   2.765 -0.2845  0.7088  0.1591
  718MOL0     C99001   6.726  11.331   2.358  0.5608 -0.2704 -0.7909
  718MOL0     C99002   6.837  11.265   2.301 -0.2384 -0.5948 -0.1184
  718MOL0     C99003   6.842  11.236   2.164  0.2977  1.6031 -0.4635
  718MOL0     C99004   6.735  11.258   2.086  0.4285 -1.2380  0.0880
  718MOL0     O99005   6.741  11.233   1.953 -0.3941  0.2127 -0.6093
  718MOL0     C99006   6.644  11.125   1.908 -1.2263 -1.5171  1.4000
  718MOL0     C99007   6.684  11.058   1.782 -0.1484 -0.3274  0.0698
  718MOL0     C99008   6.809  10.968   1.796 -0.2936 -0.5129  0.1711
  718MOL0     C99009   6.941  11.037   1.799 -0.0385  0.2453 -0.6118
  718MOL0     C99010   6.978  11.111   1.686  0.3845 -0.2152  0.2130
  718MOL0     C99011   6.999  11.160   1.580 -0.5002 -0.1267  0.1837
  718MOL0     C99012   6.625  11.323   2.137  1.1578 -0.6660 -0.8622
  718MOL0     C99013   6.619  11.359   2.271  0.2839  0.2190 -0.3275
  718MOL0     C99014   6.508  11.449   2.320 -0.1998 -0.5289 -0.0727
  718MOL0     H99015   6.590  11.574   2.648  3.6429  1.0477 -2.3286
  718MOL0     H99016   6.555  11.636   2.891  1.1317  0.5546  1.4434
  718MOL0     H99017   6.546  11.542   3.123 -0.0858  0.5143  0.0458
  718MOL0     H99018   6.570  11.706   3.126 -5.0530 -2.0646  0.8138
  718MOL0     H99019   6.657  11.528   3.339  0.4292  1.0386 -2.3240
  718MOL0     H99020   6.714  11.697   3.328 -0.0455  2.0562 -0.8579
  718MOL0     H99021   6.457  11.552   3.386 -2.6386 -0.1038 -2.1513
  718MOL0     H99022   6.529  11.700   3.479  0.9437 -1.6043 -0.2928
  718MOL0     H99023   6.375  11.713   3.224  0.9396  3.3259 -1.4042
  718MOL0     H99024   6.311  11.710   3.393 -0.3427  2.9002  0.5819
  718MOL0     H99025   6.493  11.938   3.298  0.0664 -0.2564 -0.4894
  718MOL0     H99026   6.452  11.913   3.459 -2.2309  2.4409  1.3352
  718MOL0     H99027   6.234  11.935   3.255  1.0597 -1.5878 -0.6640
  718MOL0     H99028   6.224  11.920   3.429  1.8715 -1.5173  0.7489
  718MOL0     H99029   6.366  12.146   3.424 -1.2188  1.2792  1.3464
  718MOL0     H99030   6.196  12.138   3.393  1.4311 -0.3322  1.6473
  718MOL0     H99031   6.253  12.170   3.146 -0.9034  5.3289 -0.9162
  718MOL0     H99032   6.339  12.282   3.255 -2.4429 -0.1815 -0.2173
  718MOL0     H99033   6.611  12.218   3.291 -1.5995  1.9378 -1.6589
  718MOL0     H99034   6.838  12.225   3.132 -0.5124 -0.8568  0.7783
  718MOL0     H99035   6.841  12.104   3.005  2.5807 -0.3045  0.1397
  718MOL0     H99036   6.999  12.077   3.201 -0.4852 -0.7414 -2.8534
  718MOL0     H99037   6.864  12.080   3.311  0.4955  4.2400 -1.0427
  718MOL0     H99038   6.777  11.857   3.210  0.5364 -3.1536  1.6014
  718MOL0     H99039   6.926  11.859   3.110  3.3266 -0.0438  1.3347
  718MOL0     H99040   6.922  11.820   3.412 -1.1310 -0.9137 -1.2523
  718MOL0     H99041   6.978  11.714   3.288  0.4414 -0.0177 -1.1053
  718MOL0     H99042   7.107  11.682   3.514  0.7999 -0.9326 -1.7402
  718MOL0     H99043   7.362  11.523   3.696 -2.2408 -2.1030  0.4120
  718MOL0     H99044   7.193  11.549   3.670 -2.6237  3.2384  2.2815
  718MOL0     H99045   7.276  11.643   3.793  0.8274  2.9301 -0.9754
  718MOL0     H99046   7.634  11.817   3.947 -1.4030  1.1157  0.4643
  718MOL0     H99047   7.824  11.904   4.098  0.5219 -3.7816 -0.5058
  718MOL0     H99048   8.158  11.981   4.184 -1.4923 -2.8793  4.2954
  718MOL0     H99049   8.038  11.858   4.167  1.9765 -3.5290 -1.5399
  718MOL0     H99050   8.203  11.786   3.952 -1.3936  2.6212  1.1876
  718MOL0     H99051   8.297  11.907   4.013  2.8187 -4.1128 -2.3953
  718MOL0     H99052   8.336  11.827   4.220  0.2089 -1.0083  0.8045
  718MOL0     H99053   8.391  11.716   4.095  0.0169 -0.6468  0.5952
  718MOL0     H99054   8.204  11.579   4.107  0.8419 -2.2093  1.1445
  718MOL0     H99055   8.125  11.671   4.240  0.6178  0.8594  0.5618
  718MOL0     H99056   8.379  11.503   4.270 -0.9786  0.1660 -2.3310
  718MOL0     H99057   8.285  11.594   4.396  2.2275  1.7178 -0.7571
  718MOL0     H99058   8.111  11.465   4.401  0.3409  1.1126 -1.8063
  718MOL0     H99059   8.255  11.357   4.414  3.2201  2.8079 -1.1818
  718MOL0     H99060   8.066  11.379   4.176  1.2476  2.1992 -0.3470
  718MOL0     H99061   8.088  11.250   4.291  0.9060  1.1459  1.7161
  718MOL0     H99062   8.195  11.150   4.117  5.5591 -2.8622  0.7101
  718MOL0     H99063   8.338  11.220   4.187  0.6595  1.9552 -1.5196
  718MOL0     H99064   8.007  12.076   3.760 -0.7271  0.1600  0.5075
  718MOL0     H99065   7.824  12.014   3.615  0.5584 -2.1006 -0.8078
  718MOL0     H99066   7.527  11.945   3.457 -0.4606  0.3399 -1.1949
  718MOL0     H99067   7.326  11.993   3.317  0.0086  0.2575  1.2653
  718MOL0     H99068   6.947  11.456   2.968 -0.8124 -1.6372 -0.5753
  718MOL0     H99069   6.961  11.406   2.729  1.0859  1.9757  1.5318
  718MOL0     H99070   6.917  11.223   2.362  0.8612  3.6361  1.7392
  718MOL0     H99071   6.940  11.212   2.124 -0.5783  0.3096 -1.9923
  718MOL0     H99072   6.634  11.048   1.985  1.4559 -0.0185  3.4317
  718MOL0     H99073   6.546  11.173   1.906 -1.1659 -1.4122  0.9486
  718MOL0     H99074   6.696  11.138   1.708 -0.4433  1.4869  1.8694
  718MOL0     H99075   6.598  10.995   1.757 -2.2200  1.0897  3.0280
  718MOL0     H99076   6.804  10.921   1.894 -1.0566  1.7076  1.2752
  718MOL0     H99077   6.826  10.892   1.719  0.0964 -0.1176 -0.1421
  718MOL0     H99078   7.024  10.968   1.821 -1.0897 -0.1027  2.8768
  718MOL0     H99079   6.933  11.108   1.882 -0.1131  0.1877 -0.5702
  718MOL0     H99080   7.034  11.219   1.497 -0.0338  2.4421  2.0748
  718MOL0     H99081   6.540  11.351   2.075  0.8618  2.7222  0.8642
  718MOL0     H99082   6.478  11.433   2.424 -0.2188 -0.8357 -0.1217
  718MOL0     H99083   6.535  11.554   2.307 -2.9542  0.0802 -1.6771
  718MOL0     H99084   6.410  11.446   2.271 -2.2493 -2.5200  3.7064
  719MOL0     O99085   7.745   5.042   4.797  0.2046 -0.4573 -0.5743
  719MOL0     C99086   7.669   5.006   4.705  0.8804 -0.2244 -1.0524
  719MOL0     O99087   7.563   4.923   4.729  0.0574  0.2289  0.4032
  719MOL0     C99088   7.547   4.854   4.841 -0.6422  0.1331 -0.9697
  719MOL0     C99089   7.555   4.716   4.835 -0.7868  0.1904  0.9534
  719MOL0     C99090   7.559   4.639   4.950 -0.2783  0.1744 -0.6691
  719MOL0     C99091   7.566   4.708   5.074  0.6932 -0.1228  0.2287
  719MOL0     O99092   7.609   4.623   5.173 -0.5571 -0.3126  0.0065
  719MOL0     C99093   7.660   4.668   5.300 -0.2367 -0.6591 -0.3712
  719MOL0     C99094   7.808   4.717   5.290 -0.8265  1.1549  0.1262
  719MOL0     C99095   7.891   4.601   5.229  0.6480 -0.0672 -0.0277
  719MOL0     C99096   7.952   4.626   5.091  0.5150  0.3091 -0.6194
  719MOL0     C99097   8.056   4.513   5.057  0.4274 -0.5308 -0.4228
  719MOL0     C99098   7.996   4.375   5.041  0.0924  0.0566 -0.8141
  719MOL0     C99099   7.917   4.354   4.917  0.6777 -0.7312 -0.4418
  719MOL0     C99100   7.871   4.210   4.882 -0.0981 -0.1377 -0.3033
  719MOL0     N99101   7.980   4.118   4.873 -0.7715  0.5064 -0.3260
  719MOL0     C99102   8.095   4.138   4.797 -0.0619  0.5299 -0.4435
  719MOL0     C99103   8.153   4.013   4.799 -0.0581 -0.0371 -0.0797
  719MOL0     C99104   8.287   3.982   4.749  0.8946 -0.0913  0.5260
  719MOL0     C99105   8.384   4.039   4.848 -0.7820  0.6301 -1.0148
  719MOL0     C99106   8.403   3.929   4.960  0.4301 -0.6191  0.5749
  719MOL0     C99107   8.526   3.973   5.039 -0.5567  0.5713 -0.0200
  719MOL0     O99108   8.522   4.108   5.090  0.7028 -0.5440 -0.1584
  719MOL0     C99109   8.636   4.144   5.161  0.4774  1.0224 -0.9210
  719MOL0     C99110   8.745   4.062   5.204 -0.0067 -0.6005 -1.0791
  719MOL0     C99111   8.851   4.106   5.284  1.6302  0.2195  0.1827
  719MOL0     C99112   8.954   3.996   5.326  0.1609 -0.2030 -0.3630
  719MOL0     C99113   8.850   4.242   5.331 -0.0301  1.0621 -0.3210
  719MOL0     C99114   8.941   4.285   5.441 -0.2867  0.0617  0.2818
  719MOL0     O99115   9.022   4.202   5.500  0.1065  0.3047  0.6442
  719MOL0     C99116   9.110   4.241   5.601  0.0031  0.5797 -0.0865
  719MOL0     C99117   9.072   4.233   5.737  0.4014  0.0470 -0.1206
  719MOL0     C99118   9.160   4.279   5.840  0.7485 -0.4223  0.1357
  719MOL0     C99119   9.281   4.338   5.810 -0.4884  0.5469  0.1286
  719MOL0     O99120   9.374   4.392   5.910  1.1506  0.3665 -0.5813
  719MOL0     C99121   9.341   4.397   6.052  0.6397  0.1668 -0.4540
  719MOL0     C99122   9.227   4.486   6.088 -0.0267  0.6306 -0.3050
  719MOL0     C99123   9.211   4.493   6.240 -0.1652 -0.4491  0.2447
  719MOL0     C99124   9.104   4.591   6.285  0.0659  0.0837  1.2641
  719MOL0     C99125   9.075   4.613   6.435 -0.2503 -0.5836  0.5626
  719MOL0     C99126   9.042   4.489   6.522 -0.2997  0.0280 -0.0521
  719MOL0     C99127   8.900   4.446   6.501  0.6512  0.3340 -0.4309
  719MOL0     C99128   8.860   4.350   6.607  0.3388  0.0886 -0.4437
  719MOL0    Cl99129   8.902   4.411   6.775 -0.6460 -0.0210 -0.1656
  719MOL0     C99130   9.317   4.345   5.673  0.0217 -0.6920  0.9713
  719MOL0     C99131   9.240   4.297   5.569  0.7363 -0.3179 -0.2292
  719MOL0     O99132   8.929   4.403   5.482  0.1472  0.4917 -0.4483
  719MOL0     C99133   8.750   4.323   5.285  1.1021 -0.2249  0.8217
  719MOL0     C99134   8.643   4.278   5.199  0.3404  0.3262 -0.1737
  719MOL0     N99135   8.062   3.922   4.849 -0.0354  1.0153  0.2055
  719MOL0     N99136   7.965   3.988   4.902 -0.2051  0.4387  0.2740
  719MOL0     C99137   7.546   4.849   5.082 -0.6275 -0.6624  0.3811
  719MOL0     C99138   7.530   4.922   4.966  0.2419 -0.4377 -0.0360
  719MOL0     C99139   7.680   5.068   4.572 -0.4185 -0.5222 -1.0044
  719MOL0     C99140   7.738   5.195   4.577 -0.5518 -0.8234 -0.3530
  719MOL0     C99141   7.744   5.274   4.458 -0.8811 -0.3063  0.0912
  719MOL0     C99142   7.704   5.217   4.339  0.2210  0.7926  0.9112
  719MOL0     O99143   7.679   5.280   4.222  0.1156  0.1812  0.0762
  719MOL0     C99144   7.731   5.405   4.192 -0.5841 -1.1027 -0.3204
  719MOL0     C99145   7.629   5.511   4.254  0.6412  1.1964  0.1613
  719MOL0     C99146   7.683   5.649   4.244 -0.4559  0.2107  0.5362
  719MOL0     C99147   7.678   5.711   4.101 -0.0806 -0.4896 -0.2303
  719MOL0     C99148   7.656   5.859   4.089 -0.4611 -0.1678 -0.2513
  719MOL0     C99149   7.661   5.982   4.096 -0.1015 -0.5142 -0.0470
  719MOL0     C99150   7.656   5.087   4.334 -0.6331 -0.3409  0.8164
  719MOL0     C99151   7.637   5.013   4.448  0.6687 -0.6283  0.3020
  719MOL0     C99152   7.575   4.875   4.439 -0.5728 -0.8078  0.6854
  719MOL0     H99153   7.565   4.673   4.735  1.9871 -0.4780  1.4370
  719MOL0     H99154   7.567   4.531   4.945  3.0029  0.3554 -1.3144
  719MOL0     H99155   7.642   4.592   5.377  0.4954 -0.0323  0.4531
  719MOL0     H99156   7.611   4.755   5.344  0.9444  0.2427 -0.7782
  719MOL0     H99157   7.815   4.806   5.227  1.3235  1.4377  0.6702
  719MOL0     H99158   7.846   4.740   5.390 -1.9126  0.3859  0.7354
  719MOL0     H99159   7.975   4.584   5.296 -0.3296  2.5123  2.0477
  719MOL0     H99160   7.827   4.513   5.220 -0.3666  0.8143 -2.4118
  719MOL0     H99161   7.880   4.623   5.009 -0.6037 -4.9450  0.2175
  719MOL0     H99162   8.005   4.722   5.086 -0.5198  0.9399  0.2363
  719MOL0     H99163   8.132   4.499   5.135 -0.4120 -2.8071  0.0577
  719MOL0     H99164   8.107   4.532   4.962  1.9557 -0.3115  0.3962
  719MOL0     H99165   8.090   4.320   5.027  1.1547  1.5101  0.3150
  719MOL0     H99166   7.942   4.336   5.127  2.7431 -0.3487  0.7966
  719MOL0     H99167   7.963   4.404   4.831  0.4383  1.5491  0.6847
  719MOL0     H99168   7.829   4.417   4.932  0.5147 -1.2796  1.1092
  719MOL0     H99169   7.800   4.169   4.955 -1.2866  2.5886  0.2026
  719MOL0     H99170   7.822   4.225   4.785 -0.7256 -1.0775 -0.1440
  719MOL0     H99171   8.144   4.228   4.762 -1.4001  1.6840  0.5643
  719MOL0     H99172   8.289   4.031   4.651 -1.3013 -0.5773  0.1842
  719MOL0     H99173   8.277   3.873   4.741 -1.3412 -0.0013  1.3015
  719MOL0     H99174   8.476   4.053   4.790  0.2798  3.6583  1.1034
  719MOL0     H99175   8.352   4.129   4.903  0.8386  2.8458 -3.4548
  719MOL0     H99176   8.320   3.947   5.028 -0.8571  2.7917 -1.6102
  719MOL0     H99177   8.415   3.824   4.931 -1.1142 -0.1621 -2.0310
  719MOL0     H99178   8.541   3.898   5.116  1.8075  1.7561  0.7724
  719MOL0     H99179   8.613   3.957   4.975 -2.9517 -1.2022 -3.0855
  719MOL0     H99180   8.734   3.957   5.178 -1.2019 -0.6757 -0.3574
  719MOL0     H99181   8.915   3.959   5.421  0.6606  1.1190  0.3896
  719MOL0     H99182   9.054   4.041   5.325  1.8187 -3.1920  3.3615
  719MOL0     H99183   8.962   3.912   5.257  1.3759 -0.2950 -0.1223
  719MOL0     H99184   8.978   4.184   5.760  2.0222 -2.3185  2.1516
  719MOL0     H99185   9.145   4.256   5.945  1.6070  0.9161  0.5741
  719MOL0     H99186   9.315   4.296   6.085 -0.5324  0.3130 -0.9057
  719MOL0     H99187   9.437   4.430   6.095  1.1188 -3.4533  1.7032
  719MOL0     H99188   9.244   4.588   6.054  2.6176  0.2754 -0.2590
  719MOL0     H99189   9.138   4.433   6.052 -0.0005  1.0339 -0.9720
  719MOL0     H99190   9.300   4.539   6.283 -0.2480  0.6749 -0.7498
  719MOL0     H99191   9.196   4.396   6.289  1.2050  0.3219  2.3097
  719MOL0     H99192   9.011   4.561   6.237  0.1063  1.7502  0.0149
  719MOL0     H99193   9.132   4.687   6.240  0.1210 -1.1579 -1.5562
  719MOL0     H99194   9.167   4.655   6.477  0.3098 -1.2685  0.0468
  719MOL0     H99195   8.990   4.680   6.445 -0.4323 -0.9309  1.4364
  719MOL0     H99196   9.051   4.517   6.627 -4.1175 -0.2583  0.4787
  719MOL0     H99197   9.102   4.403   6.489 -1.0523  0.8500 -4.0524
  719MOL0     H99198   8.901   4.384   6.411  0.8356  1.2801 -1.1032
  719MOL0     H99199   8.840   4.537   6.503  1.3245  0.7883 -0.3171
  719MOL0     H99200   8.923   4.262   6.593  2.4237  1.6233 -1.2796
  719MOL0     H99201   8.751   4.345   6.604  0.2277  2.1170 -1.5304
  719MOL0     H99202   9.408   4.406   5.669  1.7575 -3.1858 -0.0260
  719MOL0     H99203   9.279   4.324   5.471 -0.2350  0.2762 -0.4690
  719MOL0     H99204   8.758   4.429   5.308  0.5337 -0.2652  1.2336
  719MOL0     H99205   8.572   4.353   5.165 -0.4145  0.1134  0.8868
  719MOL0     H99206   7.532   4.894   5.180  0.4382 -2.4540  1.4107
  719MOL0     H99207   7.527   5.031   4.972  2.8298 -0.0735 -2.9887
  719MOL0     H99208   7.775   5.237   4.670 -2.6762  1.4412 -0.4553
  719MOL0     H99209   7.794   5.370   4.453  2.8616 -2.0508  0.6753
  719MOL0     H99210   7.829   5.420   4.238 -1.2436  1.8853  0.3674
  719MOL0     H99211   7.751   5.428   4.087 -0.3190  0.6970  0.0910
  719MOL0     H99212   7.617   5.485   4.360 -2.1957  0.3656 -0.2663
  719MOL0     H99213   7.530   5.503   4.209  0.4903  2.0777  0.3062
  719MOL0     H99214   7.629   5.705   4.321 -0.0691  1.4230 -0.0471
  719MOL0     H99215   7.786   5.658   4.281  0.4063 -3.0796 -0.7379
  719MOL0     H99216   7.590   5.674   4.048  0.6102 -0.9620 -1.0692
  719MOL0     H99217   7.770   5.690   4.046  2.2345  0.9639  2.7571
  719MOL0     H99218   7.669   6.089   4.094 -0.0259 -0.4936  0.8892
  719MOL0     H99219   7.628   5.046   4.238 -1.2715 -1.6134  1.5153
  719MOL0     H99220   7.618   4.810   4.516  1.0893  0.4401  0.8628
  719MOL0     H99221   7.470   4.893   4.461 -1.0624 -2.3508 -0.2505
  719MOL0     H99222   7.598   4.825   4.345  1.1761 -1.2823  1.3240
  720MOL0     O99223   4.796   6.943   0.265 -0.0199 -0.7018  0.1356
  720MOL0     C99224   4.906   6.990   0.278  0.0012  0.4205 -0.1143
  720MOL0     O99225   4.985   6.951   0.370  0.7341  0.1354  0.6871
  720MOL0     C99226   4.960   6.860   0.468  0.8160  0.1110  0.6427
  720MOL0     C99227   5.071   6.780   0.500  0.1974 -0.6802  0.1914
  720MOL0     C99228   5.073   6.700   0.610  0.0521  0.2237  0.7395
  720MOL0     C99229   4.955   6.685   0.690 -0.6903  0.2942 -1.5257
  720MOL0     O99230   4.968   6.592   0.797 -0.5545  0.6164 -0.2620
  720MOL0     C99231   4.875   6.607   0.901 -0.4373 -0.2229  0.6330
  720MOL0     C99232   4.907   6.510   1.017 -0.3708 -0.1452 -0.2836
  720MOL0     C99233   4.804   6.519   1.129 -0.1606 -0.0580  0.6479
  720MOL0     C99234   4.860   6.440   1.247 -0.3888 -0.1421  0.1817
  720MOL0     C99235   4.895   6.293   1.206  0.0517 -0.2141 -0.0652
  720MOL0     C99236   4.883   6.211   1.339  0.3069  0.5098  0.6812
  720MOL0     C99237   4.882   6.060   1.321  0.3545  0.8083 -0.5480
  720MOL0     C99238   4.901   5.971   1.446 -0.1071 -0.0043  0.1724
  720MOL0     N99239   5.042   5.952   1.490 -0.2004 -0.3394 -0.5783
  720MOL0     C99240   5.091   5.869   1.590 -0.2555 -0.5251 -0.6261
  720MOL0     C99241   5.221   5.848   1.561  0.2772 -0.4201  0.5330
  720MOL0     C99242   5.322   5.774   1.650  0.3957 -1.0060  0.1170
  720MOL0     C99243   5.370   5.889   1.754 -0.2489  0.2502  0.1858
  720MOL0     C99244   5.453   5.840   1.872 -0.0849 -0.5878  0.2679
  720MOL0     C99245   5.485   5.945   1.980 -0.0790 -0.8858  0.2613
  720MOL0     O99246   5.364   6.006   2.014 -0.0642  0.4441 -0.0154
  720MOL0     C99247   5.342   6.067   2.139  0.1467 -0.4677  0.5019
  720MOL0     C99248   5.447   6.140   2.200  0.0914 -0.5147 -0.3489
  720MOL0     C99249   5.434   6.175   2.339  0.8230 -0.1052 -0.1733
  720MOL0     C99250   5.558   6.237   2.399  0.7909  0.1798 -0.3144
  720MOL0     C99251   5.313   6.149   2.411  0.1147  0.1847  0.0552
  720MOL0     C99252   5.287   6.179   2.549  0.2427 -0.6635  0.5319
  720MOL0     O99253   5.173   6.118   2.597 -0.2919 -1.1508  0.3297
  720MOL0     C99254   5.117   6.139   2.725 -0.0265  0.0250  0.9120
  720MOL0     C99255   5.137   6.250   2.813 -0.7313  0.5131  0.2566
  720MOL0     C99256   5.058   6.258   2.937  0.5537 -0.1606 -0.3567
  720MOL0     C99257   4.968   6.151   2.971 -0.3565  0.3587  0.5411
  720MOL0     O99258   4.917   6.158   3.100 -0.0543 -0.2731 -0.6416
  720MOL0     C99259   4.789   6.227   3.126  0.7281  0.9256 -0.3204
  720MOL0     C99260   4.672   6.122   3.130 -0.4179  0.4848  1.1799
  720MOL0     C99261   4.552   6.193   3.178  0.6174  0.2030 -0.6617
  720MOL0     C99262   4.420   6.118   3.188 -1.1145 -0.0088 -0.2833
  720MOL0     C99263   4.300   6.206   3.242 -1.1228 -0.4540 -0.2495
  720MOL0     C99264   4.286   6.249   3.390  0.7819  0.5246  0.4253
  720MOL0     C99265   4.157   6.327   3.414  0.4251 -0.3587  1.0700
  720MOL0     C99266   4.102   6.278   3.551 -0.7463 -0.4926  0.3282
  720MOL0    Cl99267   4.209   6.332   3.692  0.2954 -0.0397 -0.3762
  720MOL0     C99268   4.954   6.041   2.885 -0.5474  0.4669 -0.8704
  720MOL0     C99269   5.026   6.038   2.770 -0.9396  0.2049  0.9071
  720MOL0     O99270   5.364   6.245   2.611 -0.8010 -0.6356  0.3079
  720MOL0     C99271   5.212   6.085   2.337  0.6783 -0.5343 -0.8374
  720MOL0     C99272   5.221   6.050   2.200 -0.3128  0.7210  0.2617
  720MOL0     N99273   5.249   5.906   1.441 -0.5413  0.4299  0.2720
  720MOL0     N99274   5.153   5.987   1.411  0.0658  0.3685 -0.3946
  720MOL0     C99275   4.838   6.755   0.651  0.2400 -0.4715 -0.4674
  720MOL0     C99276   4.839   6.843   0.539  0.4929  0.3982  0.3448
  720MOL0     C99277   4.956   7.099   0.199  0.0395 -0.2915  0.3076
  720MOL0     C99278   5.073   7.172   0.233 -0.1157 -0.1403 -0.6676
  720MOL0     C99279   5.124   7.270   0.146 -0.3553  0.0376 -0.1619
  720MOL0     C99280   5.059   7.315   0.036  0.1950 -0.2556  0.3607
  720MOL0     O99281   5.113   7.418  -0.040  0.1623 -0.2919 -0.7843
  720MOL0     C99282   5.254   7.444  -0.034  0.3436 -0.0229 -0.5982
  720MOL0     C99283   5.293   7.501  -0.166  0.5585 -0.0900  0.2530
  720MOL0     C99284   5.441   7.510  -0.179 -0.2815  0.5063 -0.5830
  720MOL0     C99285   5.504   7.377  -0.211 -0.6304 -0.6457 -0.0844
  720MOL0     C99286   5.500   7.349  -0.358 -0.2122  1.5084 -1.8714
  720MOL0     C99287   5.513   7.316  -0.474  0.9224 -0.3982 -0.0278
  720MOL0     C99288   4.938   7.254   0.003 -0.6026  0.1101  0.5809
  720MOL0     C99289   4.896   7.133   0.078 -0.9071 -0.3040 -0.0485
  720MOL0     C99290   4.764   7.065   0.014 -0.4058 -0.3303  0.6318
  720MOL0     H99291   5.158   6.777   0.435 -0.5273  0.2139 -0.8783
  720MOL0     H99292   5.168   6.652   0.631  0.9248  1.6404  0.1626
  720MOL0     H99293   4.773   6.591   0.864 -0.1549  1.2596 -0.9280
  720MOL0     H99294   4.874   6.709   0.941  1.5217 -0.6419  1.8394
  720MOL0     H99295   4.912   6.407   0.982  1.3260  0.4038 -1.8258
  720MOL0     H99296   5.000   6.556   1.051 -1.1384  1.5537 -0.3442
  720MOL0     H99297   4.795   6.624   1.159  2.6878  0.3758  0.2830
  720MOL0     H99298   4.709   6.471   1.103 -0.8692  1.1452  0.9028
  720MOL0     H99299   4.960   6.481   1.266  0.4427  0.3426 -4.2241
  720MOL0     H99300   4.780   6.434   1.321  1.1528  0.1738  1.9459
  720MOL0     H99301   4.995   6.287   1.160  0.1259 -1.0098  0.1941
  720MOL0     H99302   4.819   6.262   1.134 -2.7994  3.5608  1.0012
  720MOL0     H99303   4.967   6.226   1.408  1.1093  0.1331 -0.2013
  720MOL0     H99304   4.799   6.242   1.401  0.7840  1.3572  0.9188
  720MOL0     H99305   4.958   6.026   1.250  1.9686 -0.3755  1.6200
  720MOL0     H99306   4.783   6.034   1.282 -0.6832  0.5417  2.0323
  720MOL0     H99307   4.840   6.022   1.520  1.0882 -0.0957  1.2595
  720MOL0     H99308   4.868   5.869   1.429 -2.5869  0.3565  2.2821
  720MOL0     H99309   5.043   5.831   1.679  1.8403 -0.3854  0.6398
  720MOL0     H99310   5.402   5.728   1.591 -0.3162 -1.5778 -0.4317
  720MOL0     H99311   5.277   5.690   1.704 -2.3277  0.9265  1.0843
  720MOL0     H99312   5.416   5.971   1.699 -3.2157  1.4884 -0.6463
  720MOL0     H99313   5.275   5.923   1.797  0.2733  0.4838  1.1988
  720MOL0     H99314   5.396   5.760   1.920 -1.7859  1.1935  1.3438
  720MOL0     H99315   5.546   5.803   1.827  0.5065  0.5305  0.5243
  720MOL0     H99316   5.533   5.898   2.066  0.0559 -0.6130  0.3370
  720MOL0     H99317   5.549   6.017   1.928 -2.5149 -0.2730 -2.0667
  720MOL0     H99318   5.542   6.163   2.153 -0.0354  1.9638  0.4363
  720MOL0     H99319   5.557   6.347   2.404  6.2921  0.5694 -1.3850
  720MOL0     H99320   5.651   6.215   2.346  0.7288  1.2049 -0.8932
  720MOL0     H99321   5.575   6.206   2.502 -1.6989 -0.1529  0.0603
  720MOL0     H99322   5.201   6.337   2.800  0.2833 -0.2243  0.1568
  720MOL0     H99323   5.054   6.338   3.011 -0.6721 -2.9715  2.8286
  720MOL0     H99324   4.811   6.265   3.227  2.0333 -2.6584  0.9207
  720MOL0     H99325   4.779   6.316   3.065  1.3319 -0.1057 -2.0036
  720MOL0     H99326   4.655   6.087   3.028  2.1700 -0.7166  1.0734
  720MOL0     H99327   4.702   6.034   3.187  0.9163  0.9141  1.1779
  720MOL0     H99328   4.529   6.288   3.127  2.5279  2.0375  1.6688
  720MOL0     H99329   4.578   6.219   3.281 -0.5603  0.6706 -0.4565
  720MOL0     H99330   4.444   6.033   3.254 -0.4725 -1.0725 -1.8277
  720MOL0     H99331   4.404   6.075   3.089  1.9343 -0.5704 -0.6398
  720MOL0     H99332   4.291   6.297   3.182  1.9320 -1.5261 -2.5780
  720MOL0     H99333   4.218   6.144   3.204  1.0779 -2.7541 -1.4876
  720MOL0     H99334   4.372   6.315   3.406  1.3364 -0.2387  0.6653
  720MOL0     H99335   4.298   6.167   3.462  0.8505  1.9625  2.1283
  720MOL0     H99336   4.077   6.309   3.341  0.5626  2.5188  0.1038
  720MOL0     H99337   4.185   6.432   3.422  0.1514 -0.2638  0.7800
  720MOL0     H99338   4.084   6.170   3.546 -1.4136 -0.4493  1.4551
  720MOL0     H99339   4.007   6.330   3.567 -0.1635  0.5489  0.4850
  720MOL0     H99340   4.866   5.979   2.895 -0.7868  1.1525  2.0010
  720MOL0     H99341   5.007   5.953   2.706 -1.2402 -1.6674  3.3472
  720MOL0     H99342   5.106   6.090   2.358  0.8175  0.7676 -0.3226
  720MOL0     H99343   5.144   6.012   2.134 -0.0373  0.9573 -0.2030
  720MOL0     H99344   4.744   6.749   0.704  1.1611  2.0477  1.6496
  720MOL0     H99345   4.748   6.897   0.514 -1.6717 -3.7737 -1.8277
  720MOL0     H99346   5.116   7.156   0.331 -1.4883 -1.6176 -0.2646
  720MOL0     H99347   5.207   7.322   0.193 -2.1875  1.2586  1.9149
  720MOL0     H99348   5.287   7.508   0.048  1.1317 -0.0339 -0.8972
  720MOL0     H99349   5.310   7.353  -0.009  2.7048  2.3871  4.6442
  720MOL0     H99350   5.253   7.603  -0.169 -0.8279 -0.6438 -1.4628
  720MOL0     H99351   5.242   7.435  -0.237 -1.6583 -0.6239  2.2052
  720MOL0     H99352   5.484   7.585  -0.247  2.7668  0.4467  1.1092
  720MOL0     H99353   5.477   7.540  -0.080  0.1608 -0.6937 -0.3703
  720MOL0     H99354   5.477   7.287  -0.155  1.8811 -0.1048  2.1511
  720MOL0     H99355   5.607   7.380  -0.176 -0.7429 -1.2097  0.3066
  720MOL0     H99356   5.550   7.284  -0.569  2.3669  0.4862  0.2165
  720MOL0     H99357   4.903   7.280  -0.097  0.6434  2.6916  0.7478
  720MOL0     H99358   4.764   6.962  -0.023 -1.5902 -0.4326  0.8835
  720MOL0     H99359   4.688   7.067   0.093 -0.3023 -1.0387  0.7556
  720MOL0     H99360   4.733   7.131  -0.067 -0.9306  1.1710  1.9841
  721MOL0     O99361   5.965  10.842   4.528  0.0519  1.1411  0.2700
  721MOL0     C99362   5.850  10.786   4.527 -0.9741  0.0792  0.1988
  721MOL0     O99363   5.755  10.830   4.437 -0.3754  0.2315 -0.1940
  721MOL0     C99364   5.769  10.961   4.387  0.0223 -0.4633 -0.5500
  721MOL0     C99365   5.686  11.067   4.431  0.0935  0.7239 -0.3685
  721MOL0     C99366   5.686  11.193   4.362  0.3476  0.3809 -0.9876
  721MOL0     C99367   5.776  11.208   4.260 -0.1594 -1.7640 -0.4790
  721MOL0     O99368   5.788  11.329   4.195  0.3753  0.1673  0.5790
  721MOL0     C99369   5.689  11.439   4.206 -0.5385  0.8426 -1.2407
  721MOL0     C99370   5.731  11.564   4.127  0.0756 -0.6951 -0.4476
  721MOL0     C99371   5.701  11.546   3.985  0.1629 -0.0732 -0.2312
  721MOL0     C99372   5.561  11.600   3.949 -0.3016 -1.3382  0.0567
  721MOL0     C99373   5.520  11.570   3.805 -0.0718 -0.6038  0.3883
  721MOL0     C99374   5.369  11.567   3.786 -0.3010  0.1836  0.9985
  721MOL0     C99375   5.334  11.527   3.644 -0.0793 -0.2043 -0.0779
  721MOL0     C99376   5.172  11.505   3.656 -0.4111  0.2097  0.0488
  721MOL0     N99377   5.111  11.474   3.530 -0.2226  0.2990 -1.3216
  721MOL0     C99378   5.066  11.343   3.497  0.8648  0.1689  0.2126
  721MOL0     C99379   5.000  11.380   3.382  0.8731 -0.0477 -0.3349
  721MOL0     C99380   4.942  11.283   3.285  0.0144 -0.2173  0.0359
  721MOL0     C99381   4.788  11.301   3.269 -0.2950 -0.6809  0.0706
  721MOL0     C99382   4.741  11.262   3.122 -0.0026  0.2084 -0.2422
  721MOL0     C99383   4.588  11.256   3.137 -0.1089 -0.6408 -0.3698
  721MOL0     O99384   4.540  11.208   3.004  0.0565 -0.1668 -0.1994
  721MOL0     C99385   4.457  11.289   2.931  0.4447  0.5796  0.2456
  721MOL0     C99386   4.450  11.426   2.924 -0.8831  0.4673  1.1797
  721MOL0     C99387   4.386  11.499   2.819  0.3550  0.5084  0.2501
  721MOL0     C99388   4.388  11.648   2.822 -0.0700  0.1268 -0.5130
  721MOL0     C99389   4.308  11.426   2.729 -0.5467  0.3163  0.4964
  721MOL0     C99390   4.226  11.481   2.617  0.4820 -0.4004  1.3372
  721MOL0     O99391   4.121  11.407   2.579  0.0749  0.4175 -0.1443
  721MOL0     C99392   4.039  11.446   2.475  0.8355 -0.1595 -0.4302
  721MOL0     C99393   4.019  11.376   2.353 -0.2874 -0.3456 -0.5910
  721MOL0     C99394   3.938  11.422   2.248  1.0265 -0.4586 -0.9520
  721MOL0     C99395   3.868  11.544   2.264 -1.0268  1.2338  0.6496
  721MOL0     O99396   3.790  11.576   2.157 -0.1905 -0.1572  0.0153
  721MOL0     C99397   3.703  11.693   2.171  0.2533  0.1614 -0.0855
  721MOL0     C99398   3.561  11.671   2.210 -0.6363 -0.0326  0.5395
  721MOL0     C99399   3.491  11.558   2.133  0.0504  0.1699 -0.3512
  721MOL0     C99400   3.352  11.530   2.178 -0.6586  0.2010 -1.2597
  721MOL0     C99401   3.322  11.518   2.324  0.3745 -0.5375  0.5444
  721MOL0     C99402   3.393  11.404   2.395  0.4782 -0.1573 -0.0387
  721MOL0     C99403   3.402  11.268   2.319  0.0476  0.0153  0.3765
  721MOL0     C99404   3.450  11.155   2.410 -0.1413 -1.0432  0.0737
  721MOL0    Cl99405   3.316  11.100   2.528  0.0044  0.0730 -0.6060
  721MOL0     C99406   3.887  11.611   2.384  0.5698  0.6010 -0.3103
  721MOL0     C99407   3.957  11.560   2.492 -0.9635 -0.4343  0.1409
  721MOL0     O99408   4.243  11.590   2.573 -0.1486  0.1324 -0.0199
  721MOL0     C99409   4.298  11.289   2.738  0.3099  0.4945 -0.5946
  721MOL0     C99410   4.376  11.225   2.835 -0.7614  0.4072  0.4657
  721MOL0     N99411   4.998  11.510   3.354 -0.2405 -0.1761 -1.1154
  721MOL0     N99412   5.067  11.568   3.443 -0.2543 -0.4841  0.3815
  721MOL0     C99413   5.860  11.108   4.227  0.2158  0.4265  0.0490
  721MOL0     C99414   5.866  10.978   4.285 -0.4338  0.4289 -0.1014
  721MOL0     C99415   5.809  10.688   4.642 -0.8475 -0.2819 -0.3105
  721MOL0     C99416   5.674  10.686   4.672 -0.0109  0.1136  0.1215
  721MOL0     C99417   5.628  10.619   4.795  0.2354  0.6005  0.4900
  721MOL0     C99418   5.714  10.554   4.880  1.1734  0.0811 -0.5890
  721MOL0     O99419   5.654  10.525   4.996 -0.0225  0.6033  0.8414
  721MOL0     C99420   5.732  10.552   5.111  0.4658 -0.3330 -0.3463
  721MOL0     C99421   5.783  10.695   5.117 -0.1717 -0.3630  0.2955
  721MOL0     C99422   5.848  10.721   5.245  0.1710 -0.3602 -0.1178
  721MOL0     C99423   5.771  10.719   5.373  0.0670  0.0939  0.5763
  721MOL0     C99424   5.657  10.820   5.371  0.3233  0.6998 -0.3963
  721MOL0     C99425   5.580  10.917   5.376  0.3392  0.2340  0.2397
  721MOL0     C99426   5.848  10.540   4.833 -0.1893  0.1469 -0.7827
  721MOL0     C99427   5.896  10.615   4.719  0.9783  0.0862 -1.2607
  721MOL0     C99428   6.048  10.620   4.714 -0.4135 -1.1956 -1.1846
  721MOL0     H99429   5.613  11.052   4.510  1.1249 -2.4855  0.1216
  721MOL0     H99430   5.622  11.276   4.393  2.5518  2.4070 -1.5511
  721MOL0     H99431   5.676  11.463   4.312  1.6795 -1.1761 -0.4041
  721MOL0     H99432   5.588  11.410   4.177 -2.0904 -0.9792  4.6105
  721MOL0     H99433   5.676  11.655   4.154  0.5971 -0.6502  0.5169
  721MOL0     H99434   5.836  11.582   4.151  0.2557 -1.3940 -0.6885
  721MOL0     H99435   5.781  11.580   3.918 -1.7906  0.6360 -2.3668
  721MOL0     H99436   5.704  11.440   3.958  0.9659  0.2095 -1.3593
  721MOL0     H99437   5.480  11.563   4.013 -1.8457  1.7903  0.0938
  721MOL0     H99438   5.582  11.707   3.955  1.4448 -1.5856 -0.9800
  721MOL0     H99439   5.562  11.475   3.771  1.0485  0.1127 -0.2829
  721MOL0     H99440   5.558  11.650   3.740  0.0887  0.3982  1.6564
  721MOL0     H99441   5.331  11.500   3.864  0.9225 -2.1376 -0.2775
  721MOL0     H99442   5.329  11.664   3.818  0.9070  0.7013  0.9957
  721MOL0     H99443   5.386  11.437   3.610 -0.2779  0.3832 -2.0699
  721MOL0     H99444   5.371  11.600   3.570 -2.4970 -1.8774 -3.1561
  721MOL0     H99445   5.137  11.445   3.741 -0.4257  2.1978  1.5188
  721MOL0     H99446   5.141  11.610   3.663 -0.9268  0.1161 -0.7252
  721MOL0     H99447   5.063  11.250   3.552  1.3904  0.3213  0.5070
  721MOL0     H99448   4.971  11.178   3.296  0.3791 -0.3336 -1.8014
  721MOL0     H99449   4.979  11.314   3.187  1.3019  0.3805  0.6888
  721MOL0     H99450   4.728  11.250   3.345 -0.5078 -1.4092 -0.5678
  721MOL0     H99451   4.767  11.408   3.279  1.1350 -0.0444 -2.6615
  721MOL0     H99452   4.772  11.328   3.040 -2.1309 -0.1685 -1.4014
  721MOL0     H99453   4.787  11.165   3.101 -0.0192  0.4235 -1.3109
  721MOL0     H99454   4.558  11.179   3.209 -3.2497  1.9860  1.4308
  721MOL0     H99455   4.545  11.349   3.176 -0.9910 -2.2699  2.9113
  721MOL0     H99456   4.520  11.479   2.988 -1.6667  1.9049  0.8881
  721MOL0     H99457   4.480  11.688   2.778  1.1059  0.1759  1.8308
  721MOL0     H99458   4.403  11.681   2.925  1.9780 -1.7618 -0.1379
  721MOL0     H99459   4.305  11.698   2.771 -0.9426 -2.1597 -1.4577
  721MOL0     H99460   4.087  11.292   2.349  0.2112 -0.1564  2.0857
  721MOL0     H99461   3.919  11.360   2.161 -0.7684 -0.2016 -0.7779
  721MOL0     H99462   3.744  11.782   2.219  0.8203  0.9351 -1.9460
  721MOL0     H99463   3.692  11.738   2.072 -0.3114 -1.6600 -0.8918
  721MOL0     H99464   3.544  11.662   2.318 -0.4078  3.1972  0.9515
  721MOL0     H99465   3.518  11.770   2.190  0.1656  0.6849  2.1763
  721MOL0     H99466   3.557  11.471   2.127 -0.4018 -0.2443  0.5225
  721MOL0     H99467   3.474  11.574   2.027  0.5818 -1.9764 -0.8046
  721MOL0     H99468   3.315  11.439   2.130 -0.9303 -0.4400  0.1056
  721MOL0     H99469   3.290  11.610   2.136  2.8655  1.5543 -4.4634
  721MOL0     H99470   3.341  11.609   2.382 -1.7844  1.3397 -1.4718
  721MOL0     H99471   3.213  11.516   2.323  0.3129  0.8886 -0.8535
  721MOL0     H99472   3.334  11.381   2.484  0.6651 -0.6627 -0.0413
  721MOL0     H99473   3.493  11.436   2.428  0.6314 -0.5952 -0.0633
  721MOL0     H99474   3.484  11.285   2.248  0.7198 -1.5166  0.7508
  721MOL0     H99475   3.310  11.234   2.271  1.2593 -3.1569  0.0832
  721MOL0     H99476   3.537  11.190   2.468  1.3673 -2.3079 -1.3594
  721MOL0     H99477   3.471  11.067   2.349 -0.5479 -1.7701  0.9571
  721MOL0     H99478   3.836  11.704   2.409 -1.1120 -1.0216  2.9065
  721MOL0     H99479   3.979  11.624   2.577 -0.0852 -0.1087 -0.3242
  721MOL0     H99480   4.247  11.227   2.666  1.3973 -1.3117  0.1279
  721MOL0     H99481   4.374  11.116   2.842 -0.8758  0.5035  2.5436
  721MOL0     H99482   5.924  11.131   4.143 -2.6519 -2.0610 -3.0650
  721MOL0     H99483   5.937  10.902   4.254 -0.8595 -0.2031  0.4478
  721MOL0     H99484   5.603  10.750   4.620  2.2668  3.8180  1.2488
  721MOL0     H99485   5.528  10.633   4.836  0.3424 -0.0446  0.9890
  721MOL0     H99486   5.684  10.522   5.204  1.3333  1.6245  0.8101
  721MOL0     H99487   5.820  10.489   5.127 -0.9796 -1.7402  2.8819
  721MOL0     H99488   5.697  10.762   5.113  1.0740  1.5855  2.6026
  721MOL0     H99489   5.851  10.729   5.038  1.9157  0.6836  2.3975
  721MOL0     H99490   5.940  10.667   5.269  1.7965  2.0077 -0.7217
  721MOL0     H99491   5.877  10.826   5.240  0.5537  0.0080  5.1108
  721MOL0     H99492   5.845  10.766   5.439  0.5398  0.5773 -0.2846
  721MOL0     H99493   5.751  10.624   5.424  0.5581  0.7015  1.9678
  721MOL0     H99494   5.512  10.998   5.362 -0.1927 -0.4189 -1.1971
  721MOL0     H99495   5.913  10.480   4.896  0.8099  2.1027  0.1617
  721MOL0     H99496   6.095  10.544   4.778  3.6024  0.5589 -1.7461
  721MOL0     H99497   6.086  10.603   4.613  0.7822 -1.2975 -0.7357
  721MOL0     H99498   6.084  10.718   4.745 -2.3822 -1.3002  1.8522
  722MOL0     O99499   4.579   9.172   0.499 -0.4829 -0.2223  0.0280
  722MOL0     C99500   4.594   9.161   0.622  0.9110  0.1565 -0.7734
  722MOL0     O99501   4.652   9.050   0.691  0.0502 -1.6815 -0.3382
  722MOL0     C99502   4.692   8.937   0.633  0.1143  0.3737  0.0954
  722MOL0     C99503   4.778   8.922   0.524  0.4201 -0.5132 -0.0027
  722MOL0     C99504   4.814   8.795   0.475 -0.0335 -0.1758 -0.0907
  722MOL0     C99505   4.778   8.675   0.543 -0.1030 -1.2600 -0.7299
  722MOL0     O99506   4.832   8.558   0.494  0.0059 -0.1323 -0.1266
  722MOL0     C99507   4.890   8.477   0.595  0.0723  0.1614  0.1474
  722MOL0     C99508   4.793   8.384   0.668  0.7079 -0.7075 -0.2918
  722MOL0     C99509   4.670   8.329   0.586  0.2642  0.0747 -0.2091
  722MOL0     C99510   4.580   8.240   0.661  0.2618  0.3986 -0.8725
  722MOL0     C99511   4.467   8.171   0.580  1.1352  1.3572 -0.3022
  722MOL0     C99512   4.371   8.260   0.512  0.2726  0.9858 -0.1933
  722MOL0     C99513   4.260   8.175   0.453  0.9034 -0.9060  0.4440
  722MOL0     C99514   4.157   8.276   0.387 -0.0787 -0.8522  0.2694
  722MOL0     N99515   4.033   8.206   0.330 -0.5808 -0.1628 -0.5712
  722MOL0     C99516   4.020   8.172   0.201 -0.1331 -0.4069 -0.0322
  722MOL0     C99517   3.886   8.137   0.183 -0.3277  0.0603  0.3188
  722MOL0     C99518   3.821   8.110   0.053  0.6345  0.3879  0.5813
  722MOL0     C99519   3.823   7.964   0.020  0.6497  0.5085  0.8386
  722MOL0     C99520   3.776   7.864   0.120 -0.2481 -0.1432 -0.3331
  722MOL0     C99521   3.630   7.863   0.150 -1.4638 -0.5448  0.3219
  722MOL0     O99522   3.615   7.762   0.253  0.0923  0.5030  0.6414
  722MOL0     C99523   3.594   7.789   0.385 -0.0435  0.3993  0.2002
  722MOL0     C99524   3.608   7.908   0.452  0.3134 -0.0964  1.2133
  722MOL0     C99525   3.568   7.936   0.589  0.7310 -0.6149  0.9499
  722MOL0     C99526   3.556   8.083   0.635 -0.5622  0.3084 -0.3090
  722MOL0     C99527   3.526   7.817   0.672  0.2519 -0.4867  0.4951
  722MOL0     C99528   3.505   7.828   0.820  0.4237 -0.4552  1.2481
  722MOL0     O99529   3.430   7.724   0.870  0.1114  0.8339 -0.1681
  722MOL0     C99530   3.378   7.722   0.999  0.3852 -0.6792 -0.4655
  722MOL0     C99531   3.278   7.812   1.043 -0.1658 -0.0191  0.6321
  722MOL0     C99532   3.208   7.792   1.161  1.0994 -0.0524 -0.4931
  722MOL0     C99533   3.252   7.688   1.249 -0.3739  0.0019 -0.8015
  722MOL0     O99534   3.195   7.686   1.375 -0.4407 -0.6770  0.3005
  722MOL0     C99535   3.261   7.611   1.485 -0.2172  0.6406  0.1763
  722MOL0     C99536   3.182   7.635   1.613 -0.3251 -0.7169 -0.5066
  722MOL0     C99537   3.036   7.628   1.596  0.0405  0.2091  0.5826
  722MOL0     C99538   2.994   7.505   1.503 -0.9053 -0.1441  0.2191
  722MOL0     C99539   2.843   7.470   1.517 -0.3068  0.1377 -0.0244
  722MOL0     C99540   2.771   7.548   1.406  0.2595  0.2321 -1.1630
  722MOL0     C99541   2.618   7.533   1.413  0.0308  0.1251  0.4169
  722MOL0     C99542   2.553   7.419   1.335 -0.3535 -0.7179  0.1626
  722MOL0    Cl99543   2.379   7.446   1.316  0.3719 -0.3440  0.0803
  722MOL0     C99544   3.360   7.607   1.210  0.7768 -0.0448 -0.3830
  722MOL0     C99545   3.422   7.630   1.084 -0.3028 -0.7142 -0.3503
  722MOL0     O99546   3.547   7.920   0.885 -0.3228  1.0234  0.2457
  722MOL0     C99547   3.534   7.697   0.609  0.4485 -0.6141  0.2880
  722MOL0     C99548   3.551   7.686   0.473  0.4648  0.2738 -0.3202
  722MOL0     N99549   3.825   8.161   0.297 -0.3678 -0.2594  0.9963
  722MOL0     N99550   3.913   8.203   0.387 -0.0670 -0.6183 -0.1786
  722MOL0     C99551   4.682   8.690   0.648 -0.2506  0.4314  0.1911
  722MOL0     C99552   4.654   8.815   0.695 -0.2434 -0.8147 -0.1257
  722MOL0     C99553   4.518   9.259   0.700 -0.4772 -0.8591 -0.9220
  722MOL0     C99554   4.531   9.387   0.658  0.1133 -0.5004  1.1533
  722MOL0     C99555   4.494   9.486   0.748  0.6242 -0.7593 -0.5994
  722MOL0     C99556   4.431   9.468   0.870 -0.1238  1.1167 -0.6052
  722MOL0     O99557   4.383   9.564   0.943  0.5105 -0.2531 -0.6447
  722MOL0     C99558   4.310   9.549   1.066  0.6570  0.5327 -0.1972
  722MOL0     C99559   4.255   9.685   1.117 -0.7813  0.0006  0.0459
  722MOL0     C99560   4.365   9.775   1.174 -0.4417 -0.5779 -0.1583
  722MOL0     C99561   4.311   9.901   1.238 -0.0920  0.1237  0.5691
  722MOL0     C99562   4.260  10.001   1.142 -0.4942 -0.1354  0.1352
  722MOL0     C99563   4.196  10.082   1.067 -0.5322 -0.0153 -0.2191
  722MOL0     C99564   4.412   9.336   0.901  0.1448 -0.5132 -0.3960
  722MOL0     C99565   4.445   9.235   0.817  0.1782  0.2638  1.4548
  722MOL0     C99566   4.401   9.096   0.863  0.6172 -0.3507 -0.2732
  722MOL0     H99567   4.819   9.014   0.484  0.5514 -0.0365  1.1867
  722MOL0     H99568   4.875   8.800   0.385 -4.0882  0.3265 -3.1088
  722MOL0     H99569   4.958   8.537   0.656 -2.2974  3.5281 -0.2408
  722MOL0     H99570   4.957   8.407   0.544 -0.6325  0.4709 -1.2623
  722MOL0     H99571   4.850   8.297   0.702  2.4654  0.1923 -0.8351
  722MOL0     H99572   4.748   8.432   0.756  4.6721  0.4720  1.3473
  722MOL0     H99573   4.597   8.398   0.544 -0.9891 -1.9315 -1.5322
  722MOL0     H99574   4.708   8.264   0.506  2.2010 -0.1051  0.7918
  722MOL0     H99575   4.640   8.160   0.705 -2.2318 -1.6750 -1.0337
  722MOL0     H99576   4.525   8.297   0.737 -2.5037 -3.1286  0.0687
  722MOL0     H99577   4.419   8.110   0.657  1.3619 -0.2302 -1.3647
  722MOL0     H99578   4.516   8.102   0.510 -0.2466 -1.8943  1.7196
  722MOL0     H99579   4.325   8.317   0.594 -0.3644  1.4515 -0.8635
  722MOL0     H99580   4.426   8.323   0.442  1.7632  0.0725  0.1344
  722MOL0     H99581   4.196   8.118   0.522 -2.5668 -0.7967 -2.3678
  722MOL0     H99582   4.295   8.112   0.371  0.8371 -0.1873 -0.1500
  722MOL0     H99583   4.120   8.340   0.467  2.5401 -0.0890  0.9734
  722MOL0     H99584   4.208   8.330   0.307 -1.0975 -2.6038 -1.6581
  722MOL0     H99585   4.089   8.178   0.117  0.1318 -0.8464  0.1494
  722MOL0     H99586   3.848   8.166  -0.036 -0.2460 -2.8723 -1.9480
  722MOL0     H99587   3.718   8.143   0.068 -1.0892 -3.4362 -1.3772
  722MOL0     H99588   3.755   7.928  -0.057 -1.5933  2.6941  1.6442
  722MOL0     H99589   3.924   7.936  -0.008  1.3754  2.2924  1.5345
  722MOL0     H99590   3.794   7.771   0.065  3.0327  0.6994 -0.9081
  722MOL0     H99591   3.841   7.861   0.208 -0.7317  1.8688  0.1415
  722MOL0     H99592   3.610   7.966   0.182  0.5657 -0.4531  1.4781
  722MOL0     H99593   3.562   7.859   0.064  0.3942  1.8062 -1.3928
  722MOL0     H99594   3.634   7.993   0.391 -2.4096 -1.3922 -2.0962
  722MOL0     H99595   3.601   8.150   0.561 -0.2574 -1.2741 -1.6022
  722MOL0     H99596   3.608   8.101   0.730 -2.9043 -1.5181  1.4324
  722MOL0     H99597   3.447   8.089   0.639 -0.7751 -2.7110  1.4275
  722MOL0     H99598   3.251   7.887   0.970 -0.6996  1.3084  2.1175
  722MOL0     H99599   3.129   7.861   1.187  2.3693  1.8973 -1.5391
  722MOL0     H99600   3.254   7.503   1.467 -3.6339  0.6249  0.8851
  722MOL0     H99601   3.367   7.636   1.491 -0.1854  0.3092  1.1448
  722MOL0     H99602   3.214   7.562   1.688  2.0458  0.1750 -0.5569
  722MOL0     H99603   3.199   7.733   1.659 -2.2438 -1.9577  3.2461
  722MOL0     H99604   2.995   7.721   1.555  0.6199  0.0291 -0.4220
  722MOL0     H99605   2.988   7.603   1.691 -1.9554 -3.0743 -1.0820
  722MOL0     H99606   3.065   7.428   1.537  2.1688  3.4235  2.7645
  722MOL0     H99607   3.009   7.537   1.400 -0.6502  3.3229  1.2060
  722MOL0     H99608   2.824   7.367   1.487  0.2031 -0.8819  2.8286
  722MOL0     H99609   2.813   7.489   1.621  1.6031  0.8251  0.4460
  722MOL0     H99610   2.804   7.521   1.306  2.5124 -1.8563  0.0469
  722MOL0     H99611   2.801   7.653   1.417  3.1523 -0.5444 -0.6969
  722MOL0     H99612   2.594   7.621   1.353 -0.7820  0.5115  1.2931
  722MOL0     H99613   2.595   7.531   1.519 -2.3505 -0.0999 -0.0425
  722MOL0     H99614   2.570   7.324   1.388 -1.9143 -1.1340 -0.0536
  722MOL0     H99615   2.601   7.413   1.237 -0.6877 -0.7205  0.0010
  722MOL0     H99616   3.408   7.528   1.268 -1.1712 -2.8577 -2.3125
  722MOL0     H99617   3.503   7.566   1.053 -0.6937 -0.1907 -2.6443
  722MOL0     H99618   3.521   7.612   0.675 -0.2900 -0.6906  0.0507
  722MOL0     H99619   3.533   7.586   0.433 -0.2100 -0.6071  2.0256
  722MOL0     H99620   4.639   8.600   0.691 -0.4310  0.7352  0.6587
  722MOL0     H99621   4.593   8.820   0.785 -2.9357 -2.8527 -1.6949
  722MOL0     H99622   4.570   9.420   0.562 -2.1305  0.1849  0.4231
  722MOL0     H99623   4.513   9.586   0.710  0.5218 -1.7519 -3.5401
  722MOL0     H99624   4.229   9.481   1.039  1.7881  0.4790 -4.0858
  722MOL0     H99625   4.369   9.489   1.136  0.2033 -0.9567 -1.0432
  722MOL0     H99626   4.186   9.654   1.197 -0.7621 -1.1765 -0.3840
  722MOL0     H99627   4.195   9.748   1.051  0.1258  2.7939  1.6759
  722MOL0     H99628   4.411   9.715   1.253 -1.2154 -0.6142  0.2676
  722MOL0     H99629   4.438   9.799   1.095 -0.4525 -0.4742 -0.1363
  722MOL0     H99630   4.387   9.954   1.296 -0.4926 -0.6464  1.8339
  722MOL0     H99631   4.222   9.869   1.294 -2.1981  1.6862 -1.6507
  722MOL0     H99632   4.153  10.143   0.989  2.7596  1.3328 -1.1561
  722MOL0     H99633   4.362   9.316   0.995  0.8471 -1.7060 -0.2583
  722MOL0     H99634   4.309   9.064   0.813 -1.4853  1.7612  2.0086
  722MOL0     H99635   4.490   9.033   0.855  1.5445  1.0480 -1.7509
  722MOL0     H99636   4.373   9.090   0.968 -1.7891 -0.0950 -0.8317
  723MOL0     O99637   8.434   2.182   7.852 -1.8816  0.6111  0.8755
  723MOL0     C99638   8.327   2.152   7.901  0.8399 -0.0261 -0.3217
  723MOL0     O99639   8.310   2.081   8.009 -0.1617  0.5172 -0.3675
  723MOL0     C99640   8.423   2.052   8.089 -0.9603  1.0373 -0.1432
  723MOL0     C99641   8.435   2.116   8.212 -0.5003  0.0126  0.3770
  723MOL0     C99642   8.550   2.095   8.292 -0.0388 -0.4290  0.6862
  723MOL0     C99643   8.659   2.022   8.249 -0.0814 -0.4099 -0.1541
  723MOL0     O99644   8.775   2.004   8.317 -0.0807 -0.0316  0.3670
  723MOL0     C99645   8.771   1.980   8.456 -0.9840 -0.2154 -0.0236
  723MOL0     C99646   8.810   2.112   8.530  0.2819  0.8151  0.0624
  723MOL0     C99647   8.952   2.090   8.594  0.1058  0.3153 -0.0813
  723MOL0     C99648   9.078   2.078   8.509 -0.5570 -0.1007 -0.3873
  723MOL0     C99649   9.201   2.086   8.596 -0.5318 -0.2693  0.5801
  723MOL0     C99650   9.256   1.949   8.626  0.2643 -0.1386 -0.4994
  723MOL0     C99651   9.348   1.951   8.744 -0.1498 -1.0065 -0.5433
  723MOL0     C99652   9.439   1.825   8.770  0.7701 -0.5848 -0.2202
  723MOL0     N99653   9.365   1.692   8.779 -0.2339 -0.5901  0.1511
  723MOL0     C99654   9.245   1.688   8.839 -0.2627  0.3176  0.3939
  723MOL0     C99655   9.204   1.567   8.799  0.1358 -0.0768 -0.4508
  723MOL0     C99656   9.064   1.518   8.827  0.4494 -0.6286  0.1204
  723MOL0     C99657   8.955   1.621   8.784 -0.0495  0.0273  0.3121
  723MOL0     C99658   8.821   1.558   8.813 -0.1905 -0.4700  0.4440
  723MOL0     C99659   8.710   1.631   8.733  0.0442  0.1819 -0.6220
  723MOL0     O99660   8.688   1.764   8.768 -0.1032 -0.2885  0.7356
  723MOL0     C99661   8.584   1.835   8.723  0.0430 -0.0168 -0.4950
  723MOL0     C99662   8.577   1.962   8.778  0.3726  0.1564 -0.4461
  723MOL0     C99663   8.486   2.051   8.723 -0.1143  0.2643  0.7417
  723MOL0     C99664   8.483   2.196   8.774 -0.8396  0.1737 -0.3937
  723MOL0     C99665   8.391   2.014   8.625 -0.5441  0.2355  0.6398
  723MOL0     C99666   8.304   2.112   8.553  0.8411  0.5415 -0.6362
  723MOL0     O99667   8.206   2.049   8.477  0.6072 -0.0706 -0.0168
  723MOL0     C99668   8.119   2.120   8.401 -0.3535 -0.3105  0.2774
  723MOL0     C99669   8.025   2.203   8.464  0.3145  1.0781 -0.5741
  723MOL0     C99670   7.931   2.269   8.387 -0.4038 -0.5934 -0.0408
  723MOL0     C99671   7.910   2.232   8.256  0.1767 -1.2663 -0.5891
  723MOL0     O99672   7.810   2.295   8.181  0.0005  0.1788 -0.1261
  723MOL0     C99673   7.705   2.367   8.246 -0.1493  0.1925  0.2132
  723MOL0     C99674   7.587   2.397   8.145  0.2486 -0.2837  1.0459
  723MOL0     C99675   7.469   2.473   8.210 -0.0459 -0.4450 -0.0950
  723MOL0     C99676   7.332   2.476   8.139  0.0033 -0.9123  0.5864
  723MOL0     C99677   7.341   2.542   8.001 -0.2227  0.4549 -0.2592
  723MOL0     C99678   7.358   2.696   8.018  0.2170 -0.2459 -0.1815
  723MOL0     C99679   7.359   2.771   7.888  0.0863 -0.6277  0.3008
  723MOL0     C99680   7.385   2.919   7.899 -0.7865  0.5597  0.4361
  723MOL0    Cl99681   7.390   2.985   7.733 -0.1221 -0.0032 -0.2823
  723MOL0     C99682   8.008   2.148   8.187  0.9285  0.1613 -0.6818
  723MOL0     C99683   8.115   2.089   8.265  0.6949 -0.3174 -0.2212
  723MOL0     O99684   8.332   2.229   8.546 -0.2219  0.2710  0.7000
  723MOL0     C99685   8.404   1.882   8.558  0.2471 -0.1380 -0.3601
  723MOL0     C99686   8.499   1.799   8.617  1.3963 -0.7009  0.1669
  723MOL0     N99687   9.300   1.504   8.726 -0.3560  0.0309  0.3436
  723MOL0     N99688   9.400   1.585   8.719  0.8764  0.3896 -0.9158
  723MOL0     C99689   8.650   1.954   8.130  0.6466 -0.4653  1.1121
  723MOL0     C99690   8.530   1.969   8.052  1.1448  1.0671 -0.2269
  723MOL0     C99691   8.200   2.198   7.843  0.0083  0.5449 -0.3341
  723MOL0     C99692   8.168   2.336   7.858  0.5563 -0.4198  0.8632
  723MOL0     C99693   8.052   2.388   7.802  0.3052  0.2534  0.4785
  723MOL0     C99694   7.962   2.300   7.739 -0.0554  0.6275  0.2006
  723MOL0     O99695   7.859   2.363   7.667 -0.2142  0.1513  0.1011
  723MOL0     C99696   7.764   2.287   7.587  0.6961  1.1043 -0.1363
  723MOL0     C99697   7.638   2.255   7.673  1.2565 -0.0020  0.7740
  723MOL0     C99698   7.559   2.143   7.612  0.7117 -0.5595 -0.2049
  723MOL0     C99699   7.622   2.000   7.626  0.0476 -0.0980  0.4704
  723MOL0     C99700   7.639   1.968   7.771 -0.1946 -0.2301 -0.2005
  723MOL0     C99701   7.645   1.922   7.882 -0.5506 -0.5900 -0.4272
  723MOL0     C99702   7.987   2.151   7.751 -0.0612 -0.6133  0.3831
  723MOL0     C99703   8.108   2.103   7.796  1.4036 -0.5168 -0.7183
  723MOL0     C99704   8.138   1.950   7.797  0.8515  0.1034 -0.1562
  723MOL0     H99705   8.349   2.174   8.243 -3.8900 -4.6882  0.9904
  723MOL0     H99706   8.560   2.156   8.381  2.3263  4.4962 -2.4888
  723MOL0     H99707   8.837   1.897   8.483 -4.6492 -4.1434 -1.8473
  723MOL0     H99708   8.676   1.948   8.501 -0.3951 -0.7597  0.8547
  723MOL0     H99709   8.812   2.193   8.456  0.0473  0.3906 -0.4115
  723MOL0     H99710   8.729   2.132   8.601  0.0165 -0.1163  0.0324
  723MOL0     H99711   8.964   2.176   8.661 -2.1386  2.0659 -1.7436
  723MOL0     H99712   8.955   1.999   8.654 -0.0923  2.0100  2.6562
  723MOL0     H99713   9.089   1.986   8.450  1.6525 -0.9034  1.1200
  723MOL0     H99714   9.074   2.161   8.438  0.5670  0.8214  0.5933
  723MOL0     H99715   9.178   2.148   8.683 -2.5112  0.2378 -0.2596
  723MOL0     H99716   9.269   2.140   8.529  1.4193  1.3942  3.6495
  723MOL0     H99717   9.173   1.881   8.650  0.7113 -0.6997 -0.5170
  723MOL0     H99718   9.307   1.900   8.542 -2.5568 -3.5633 -0.4726
  723MOL0     H99719   9.283   1.957   8.831 -0.1577 -0.4364 -0.5838
  723MOL0     H99720   9.413   2.039   8.744  0.6208 -1.5652 -0.4719
  723MOL0     H99721   9.521   1.815   8.697  0.3513 -1.9128 -0.5521
  723MOL0     H99722   9.477   1.851   8.869 -1.7468 -1.8850  1.1936
  723MOL0     H99723   9.197   1.773   8.887  2.4975  2.2173  0.0406
  723MOL0     H99724   9.054   1.505   8.936  2.2262 -0.1518  0.3599
  723MOL0     H99725   9.045   1.419   8.784 -0.6357 -1.3628  2.1228
  723MOL0     H99726   8.955   1.715   8.840 -5.2996  0.8088 -0.4981
  723MOL0     H99727   8.977   1.654   8.682  1.8184  1.8439  1.2199
  723MOL0     H99728   8.827   1.455   8.777  0.3466  0.3342 -1.9472
  723MOL0     H99729   8.795   1.554   8.919 -1.0747 -0.2045  0.2457
  723MOL0     H99730   8.745   1.635   8.629  1.2774  1.0337 -0.2000
  723MOL0     H99731   8.627   1.564   8.755 -0.9069  0.6785 -2.4799
  723MOL0     H99732   8.626   2.000   8.867 -3.4013 -0.6014  2.2265
  723MOL0     H99733   8.555   2.213   8.854 -1.1455  1.7478 -0.4262
  723MOL0     H99734   8.380   2.213   8.807 -0.9065 -1.1057  0.1440
  723MOL0     H99735   8.513   2.255   8.687  0.4345 -2.8688 -2.1999
  723MOL0     H99736   8.050   2.222   8.568  1.5942 -0.7461 -0.5045
  723MOL0     H99737   7.864   2.327   8.450  1.7843  4.6028 -1.9004
  723MOL0     H99738   7.669   2.306   8.329  3.3398  1.9669  3.3194
  723MOL0     H99739   7.738   2.464   8.283 -3.6690  1.2250  1.0105
  723MOL0     H99740   7.619   2.458   8.060 -2.1859  1.8194  1.5192
  723MOL0     H99741   7.537   2.305   8.114 -1.0106  0.6799  0.1099
  723MOL0     H99742   7.501   2.577   8.225  0.3178 -0.7728  1.6256
  723MOL0     H99743   7.447   2.446   8.314  0.2156  0.6119  0.2541
  723MOL0     H99744   7.262   2.523   8.208  2.8274 -0.5236  3.4224
  723MOL0     H99745   7.296   2.376   8.113  0.1338 -0.1469 -3.0487
  723MOL0     H99746   7.430   2.501   7.952  0.3975  0.8320  0.5172
  723MOL0     H99747   7.255   2.532   7.935 -0.8052  1.7732  0.2601
  723MOL0     H99748   7.458   2.697   8.064 -0.4641  0.5314  1.3280
  723MOL0     H99749   7.291   2.752   8.084  2.2310  0.5953  1.2791
  723MOL0     H99750   7.261   2.757   7.840  0.2814  2.6135 -1.2648
  723MOL0     H99751   7.440   2.722   7.833  1.5195  0.7171  1.1601
  723MOL0     H99752   7.485   2.937   7.941 -0.5811  0.7741 -0.1456
  723MOL0     H99753   7.313   2.972   7.961 -1.2021  1.6249 -0.9172
  723MOL0     H99754   7.992   2.141   8.080  0.4514 -0.8628 -0.5473
  723MOL0     H99755   8.178   2.011   8.223 -0.2925 -2.0495  1.3132
  723MOL0     H99756   8.342   1.850   8.475  0.0531  1.3436 -0.8241
  723MOL0     H99757   8.515   1.701   8.574  1.7748 -1.0319  1.0241
  723MOL0     H99758   8.732   1.893   8.092  1.4572  1.0613  0.3348
  723MOL0     H99759   8.525   1.918   7.956 -2.7174 -3.4154  1.9486
  723MOL0     H99760   8.236   2.415   7.888 -3.0860  3.1820  0.5069
  723MOL0     H99761   8.035   2.495   7.809  0.8153  0.2325  2.8191
  723MOL0     H99762   7.729   2.350   7.504 -1.1442 -1.2009 -1.2032
  723MOL0     H99763   7.800   2.195   7.541  0.6715  0.2033  1.5578
  723MOL0     H99764   7.570   2.337   7.696  2.4401  0.9911  0.8113
  723MOL0     H99765   7.673   2.225   7.772  4.1409  0.2969 -0.0488
  723MOL0     H99766   7.462   2.161   7.660  0.6875 -1.8888  0.2805
  723MOL0     H99767   7.549   2.154   7.504  4.2977 -3.8515 -1.0728
  723MOL0     H99768   7.719   1.996   7.576  0.6826  0.0712  1.6475
  723MOL0     H99769   7.553   1.929   7.580 -0.7772  0.1904  1.2096
  723MOL0     H99770   7.639   1.901   7.987 -4.0886 -0.3633 -0.4568
  723MOL0     H99771   7.917   2.076   7.716  0.3769 -0.6785 -0.3785
  723MOL0     H99772   8.235   1.922   7.755  2.7036  2.4491  2.1936
  723MOL0     H99773   8.132   1.915   7.900  0.9521 -0.7022 -0.4158
  723MOL0     H99774   8.064   1.904   7.732  0.9086  1.2402 -1.0541
  724MOL0     O99775   3.616  10.235   6.608 -0.4021  0.4315 -0.7574
  724MOL0     C99776   3.604  10.356   6.604 -0.0291  0.1425 -0.0590
  724MOL0     O99777   3.653  10.442   6.703 -0.0190  0.0752 -0.5884
  724MOL0     C99778   3.663  10.409   6.832  0.0625 -0.1748  0.3122
  724MOL0     C99779   3.560  10.354   6.903  0.3147 -0.3021 -0.1685
  724MOL0     C99780   3.571  10.343   7.046  0.4822 -0.1342  0.3492
  724MOL0     C99781   3.680  10.396   7.120 -0.8346  0.6366 -0.1216
  724MOL0     O99782   3.693  10.387   7.259 -0.6617  0.3701 -0.0256
  724MOL0     C99783   3.579  10.361   7.334  0.7489  0.7358 -0.3253
  724MOL0     C99784   3.609  10.411   7.475  0.6411  0.4858 -0.4556
  724MOL0     C99785   3.652  10.297   7.567  0.4979  0.1556  0.4276
  724MOL0     C99786   3.701  10.346   7.696  0.2696 -0.2909 -0.0110
  724MOL0     C99787   3.835  10.424   7.704 -0.5480  0.2774  0.0235
  724MOL0     C99788   3.857  10.470   7.849  0.2123  0.1445 -0.5176
  724MOL0     C99789   3.997  10.525   7.861 -0.8748 -0.5290 -1.2856
  724MOL0     C99790   4.054  10.526   8.013  0.1052 -0.9854  0.6130
  724MOL0     N99791   4.199  10.514   8.022 -0.5422 -0.6480 -0.0914
  724MOL0     C99792   4.256  10.595   8.115 -0.6034  0.1390 -0.0912
  724MOL0     C99793   4.387  10.605   8.080 -0.1425 -0.5936  1.1182
  724MOL0     C99794   4.492  10.684   8.150 -0.6704  0.2210  1.1726
  724MOL0     C99795   4.460  10.835   8.169 -0.9257  0.5643  0.3236
  724MOL0     C99796   4.577  10.925   8.242  0.5235 -1.0312 -1.0564
  724MOL0     C99797   4.534  11.070   8.301 -0.9782  1.1347 -0.0142
  724MOL0     O99798   4.396  11.062   8.351 -0.0013 -0.5193  0.2270
  724MOL0     C99799   4.366  11.143   8.460  0.1749 -0.6090  0.5951
  724MOL0     C99800   4.242  11.108   8.513 -0.5032 -0.0486 -0.5044
  724MOL0     C99801   4.194  11.164   8.638  1.1983 -0.1398  0.0788
  724MOL0     C99802   4.062  11.110   8.688 -0.0931  1.1176 -0.6967
  724MOL0     C99803   4.264  11.270   8.690  0.3846 -0.4581 -0.3139
  724MOL0     C99804   4.223  11.336   8.822  0.5036  0.4463 -0.1431
  724MOL0     O99805   4.110  11.294   8.885  0.4249 -0.3619  0.0630
  724MOL0     C99806   4.063  11.382   8.979 -0.4828  0.6262  1.5496
  724MOL0     C99807   4.071  11.336   9.105  0.2462  0.0384 -0.8488
  724MOL0     C99808   4.037  11.421   9.215  0.5611  0.3241 -0.2360
  724MOL0     C99809   3.974  11.541   9.183  0.8083  0.1460 -1.5476
  724MOL0     O99810   3.929  11.601   9.297  0.2561 -0.6043 -0.0627
  724MOL0     C99811   3.796  11.652   9.293 -0.6837 -0.2063 -0.5952
  724MOL0     C99812   3.692  11.533   9.280  0.4651 -0.0880 -0.1426
  724MOL0     C99813   3.682  11.442   9.401  0.0789 -0.6735 -1.0139
  724MOL0     C99814   3.565  11.349   9.387  0.6935 -0.0462  0.6417
  724MOL0     C99815   3.556  11.237   9.487 -0.4078 -0.3873 -0.0268
  724MOL0     C99816   3.497  11.292   9.628 -0.4375  0.0749  0.9369
  724MOL0     C99817   3.488  11.191   9.729  0.2137 -0.6013 -1.0506
  724MOL0     C99818   3.499  11.242   9.866 -0.0042  0.5361  0.1353
  724MOL0    Cl99819   3.354  11.348   9.894 -0.2112 -0.1129 -0.0480
  724MOL0     C99820   3.976  11.588   9.049  0.9302 -0.3289 -0.2697
  724MOL0     C99821   4.021  11.513   8.948 -0.7226  0.8576  0.2574
  724MOL0     O99822   4.308  11.423   8.866 -0.4089 -0.2946  0.2302
  724MOL0     C99823   4.395  11.302   8.645  0.0858  0.4787 -0.4379
  724MOL0     C99824   4.439  11.250   8.521 -0.3083 -0.7845  0.7724
  724MOL0     N99825   4.408  10.528   7.970  0.2938  0.0024  0.0576
  724MOL0     N99826   4.296  10.467   7.935 -0.9906 -0.1281 -0.2189
  724MOL0     C99827   3.787  10.449   7.038 -0.6772 -1.5107  1.3076
  724MOL0     C99828   3.770  10.466   6.895  0.6156  0.6469  0.3729
  724MOL0     C99829   3.589  10.417   6.466 -0.2041 -0.1301 -0.0412
  724MOL0     C99830   3.635  10.545   6.443  0.3335  0.2434  0.7588
  724MOL0     C99831   3.631  10.601   6.322  0.4388  0.2116 -0.6101
  724MOL0     C99832   3.587  10.533   6.210 -0.2069  0.5150  0.3575
  724MOL0     O99833   3.574  10.592   6.083  0.4572  0.3130  0.5936
  724MOL0     C99834   3.608  10.723   6.045  0.4698  1.0478  0.2985
  724MOL0     C99835   3.765  10.741   6.059 -0.8816 -0.4363  0.3458
  724MOL0     C99836   3.827  10.871   6.006  0.1604  0.0307  0.4492
  724MOL0     C99837   3.983  10.870   6.036  0.3991  0.8819  0.0663
  724MOL0     C99838   4.063  10.989   6.000 -0.1136 -0.7629 -0.4061
  724MOL0     C99839   4.134  11.082   5.979  0.6076  0.2400 -0.4573
  724MOL0     C99840   3.547  10.402   6.230 -0.3697 -0.3227  0.6454
  724MOL0     C99841   3.536  10.347   6.356 -0.3879  0.0446 -0.7855
  724MOL0     C99842   3.469  10.211   6.350 -0.6047  0.0492  0.3268
  724MOL0     H99843   3.471  10.322   6.851  0.5692 -1.8255  0.3055
  724MOL0     H99844   3.485  10.289   7.082 -0.8081  2.5294  1.5051
  724MOL0     H99845   3.560  10.253   7.344 -1.2062  1.1784  1.1554
  724MOL0     H99846   3.486  10.405   7.299  2.5433  3.6175 -1.8102
  724MOL0     H99847   3.682  10.491   7.481  0.0196  1.1216  6.2064
  724MOL0     H99848   3.515  10.461   7.502  2.2979  4.3143 -1.1948
  724MOL0     H99849   3.577  10.218   7.572 -1.9698  2.1151 -2.3573
  724MOL0     H99850   3.743  10.261   7.517 -0.3042  0.8201 -1.5998
  724MOL0     H99851   3.618  10.398   7.744 -1.0675 -0.3186 -2.1721
  724MOL0     H99852   3.715  10.250   7.747 -0.0293 -1.2246 -1.5958
  724MOL0     H99853   3.811  10.514   7.646 -1.5744 -0.8905 -1.4219
  724MOL0     H99854   3.917  10.363   7.666  0.8889  0.6295  2.3546
  724MOL0     H99855   3.789  10.542   7.896  0.4542 -0.3406  0.6114
  724MOL0     H99856   3.850  10.381   7.913 -0.1669  1.1707  0.9244
  724MOL0     H99857   3.999  10.631   7.834 -2.9793  0.2597  1.2573
  724MOL0     H99858   4.063  10.462   7.800 -1.2218 -2.1440 -0.0680
  724MOL0     H99859   4.016  10.610   8.072 -0.0978  0.1400 -1.0423
  724MOL0     H99860   4.010  10.432   8.045 -1.3215 -0.3626  0.5434
  724MOL0     H99861   4.203  10.641   8.198  0.4524  0.1254  0.6075
  724MOL0     H99862   4.594  10.677   8.112 -1.8411  1.6720 -2.7665
  724MOL0     H99863   4.504  10.653   8.254  1.4219  0.5880  1.0842
  724MOL0     H99864   4.446  10.879   8.070  3.7697  1.5334 -0.1399
  724MOL0     H99865   4.373  10.835   8.236 -1.5183 -2.3384 -0.3202
  724MOL0     H99866   4.621  10.875   8.329 -1.6390  0.9258  1.3516
  724MOL0     H99867   4.660  10.937   8.173 -1.2062  2.3763 -2.7772
  724MOL0     H99868   4.601  11.102   8.381 -0.4051 -1.9896  0.9062
  724MOL0     H99869   4.536  11.146   8.223 -1.2424  2.9440  1.6711
  724MOL0     H99870   4.186  11.022   8.477 -2.7600  0.5006  1.3986
  724MOL0     H99871   3.973  11.174   8.693 -1.0788  0.1227 -3.4986
  724MOL0     H99872   4.082  11.059   8.783  3.9276  1.6884 -1.0695
  724MOL0     H99873   4.027  11.027   8.626  1.4546  1.2375 -1.7747
  724MOL0     H99874   4.118  11.240   9.123 -2.2335 -0.9342  1.1170
  724MOL0     H99875   4.053  11.393   9.318  0.4419 -1.6406 -0.7077
  724MOL0     H99876   3.775  11.724   9.373 -0.7082 -0.1865 -0.6191
  724MOL0     H99877   3.800  11.708   9.199  3.0315  0.7133 -0.0587
  724MOL0     H99878   3.597  11.583   9.260  1.5384  1.4660 -1.6405
  724MOL0     H99879   3.715  11.476   9.190 -1.1689 -0.1984 -0.5203
  724MOL0     H99880   3.676  11.511   9.486  2.2873 -2.0025  0.2974
  724MOL0     H99881   3.775  11.385   9.401 -0.5737 -1.7965  0.3101
  724MOL0     H99882   3.583  11.308   9.288  2.1380 -1.1887  1.3456
  724MOL0     H99883   3.470  11.405   9.388  2.3599  3.2407  4.4741
  724MOL0     H99884   3.489  11.156   9.457 -1.1018  0.9551 -2.3588
  724MOL0     H99885   3.653  11.191   9.511 -0.3259  0.4948  1.4529
  724MOL0     H99886   3.398  11.337   9.612 -0.8773 -0.0757  2.9255
  724MOL0     H99887   3.565  11.372   9.657  0.9579  0.0103 -1.8283
  724MOL0     H99888   3.576  11.126   9.727  1.3529  0.8732 -3.8312
  724MOL0     H99889   3.394  11.137   9.712 -1.4006  2.0788 -1.1667
  724MOL0     H99890   3.588  11.303   9.878  0.7837 -0.9629  2.5159
  724MOL0     H99891   3.494  11.162   9.941 -0.1666  1.4564  1.1330
  724MOL0     H99892   3.951  11.692   9.029 -2.5643 -1.4401 -2.4042
  724MOL0     H99893   4.018  11.550   8.846 -0.7443 -1.8220 -0.7921
  724MOL0     H99894   4.467  11.372   8.687  2.7724 -2.0712 -0.4127
  724MOL0     H99895   4.536  11.293   8.498 -0.9239 -0.1697 -0.8701
  724MOL0     H99896   3.877  10.483   7.089  0.0938 -0.5707 -0.6060
  724MOL0     H99897   3.851  10.512   6.840  1.0613 -1.7176 -1.0458
  724MOL0     H99898   3.685  10.598   6.524  1.9244 -0.0382 -0.0064
  724MOL0     H99899   3.668  10.703   6.325 -2.2776  1.2673  1.0042
  724MOL0     H99900   3.585  10.748   5.941  3.7256  1.2159 -0.4963
  724MOL0     H99901   3.568  10.797   6.114 -0.0885  0.7135  0.3403
  724MOL0     H99902   3.813  10.651   6.018  0.7464 -0.0966  1.4399
  724MOL0     H99903   3.794  10.742   6.164  1.9381 -2.0341 -0.2926
  724MOL0     H99904   3.818  10.877   5.897  1.4548 -0.4872  0.2892
  724MOL0     H99905   3.789  10.965   6.046 -0.4162 -0.6379  1.5453
  724MOL0     H99906   4.039  10.781   6.006  0.2667  0.8290 -0.0230
  724MOL0     H99907   3.986  10.861   6.145  2.7806 -1.6148 -0.0849
  724MOL0     H99908   4.199  11.164   5.954 -1.2464  3.2155  3.3394
  724MOL0     H99909   3.503  10.344   6.149 -1.0455 -0.8212  1.3484
  724MOL0     H99910   3.366  10.232   6.319 -2.2037 -1.8380  3.8226
  724MOL0     H99911   3.527  10.134   6.297  2.9539  1.6757  1.5789
  724MOL0     H99912   3.454  10.160   6.446 -2.4441 -4.8026 -2.1472
  725MOL0     O99913   4.130   4.764   9.228 -0.6405 -1.0116  0.2619
  725MOL0     C99914   4.050   4.729   9.317 -0.6082 -1.0729  0.1776
  725MOL0     O99915   3.968   4.816   9.390 -0.3183  0.3394 -0.0352
  725MOL0     C99916   3.982   4.943   9.350 -1.0796  0.3410 -0.2400
  725MOL0     C99917   4.086   5.032   9.404  0.2171 -0.0531  1.6088
  725MOL0     C99918   4.081   5.161   9.359  0.1240 -0.1906  1.0021
  725MOL0     C99919   4.003   5.207   9.253  0.0597  0.4905  0.0139
  725MOL0     O99920   4.032   5.348   9.236 -0.2121 -0.3782  0.0957
  725MOL0     C99921   3.931   5.414   9.167 -0.0310 -0.5635  0.1021
  725MOL0     C99922   3.963   5.562   9.124  0.5637  0.0562 -0.0683
  725MOL0     C99923   3.872   5.601   9.004  0.4189 -0.2240 -0.5186
  725MOL0     C99924   3.749   5.685   9.049 -0.8932  0.5344 -0.2943
  725MOL0     C99925   3.668   5.720   8.924 -0.0440  0.7810  0.7717
  725MOL0     C99926   3.710   5.851   8.848  0.1108  0.7174 -0.1484
  725MOL0     C99927   3.656   5.866   8.705  0.5279 -0.2960  0.6598
  725MOL0     C99928   3.754   5.782   8.616  0.0582  0.8718 -0.1558
  725MOL0     N99929   3.900   5.825   8.623  0.5396  0.9701 -1.4436
  725MOL0     C99930   3.952   5.953   8.619 -0.0879  0.6396 -0.5861
  725MOL0     C99931   4.088   5.940   8.602 -0.2778 -0.5121  0.0263
  725MOL0     C99932   4.184   6.060   8.590 -0.6879 -0.8858 -0.6245
  725MOL0     C99933   4.193   6.157   8.463  0.4566 -0.7121  0.0743
  725MOL0     C99934   4.229   6.089   8.330 -0.7438 -0.5840 -0.7648
  725MOL0     C99935   4.341   5.985   8.346 -0.3355 -0.1687  0.1914
  725MOL0     O99936   4.370   5.929   8.210 -0.3809 -0.2019 -0.7705
  725MOL0     C99937   4.278   5.841   8.151 -0.5021 -0.7327 -0.5457
  725MOL0     C99938   4.167   5.785   8.229  0.0964 -0.5242  0.6587
  725MOL0     C99939   4.064   5.710   8.166  1.0051  0.1463 -0.1505
  725MOL0     C99940   3.949   5.684   8.261 -0.6767 -0.6183  0.7481
  725MOL0     C99941   4.080   5.665   8.034  0.2404 -0.1416 -0.1786
  725MOL0     C99942   3.982   5.575   7.963 -0.2530 -0.9089 -0.1524
  725MOL0     O99943   4.036   5.508   7.858  0.0448  0.0606 -0.3976
  725MOL0     C99944   3.954   5.429   7.787 -0.3442  0.6447 -0.3106
  725MOL0     C99945   3.845   5.464   7.713 -0.0484 -0.5130 -0.2742
  725MOL0     C99946   3.792   5.375   7.619  0.4552  0.0337  0.1199
  725MOL0     C99947   3.846   5.244   7.607  0.0861 -0.6722 -0.1362
  725MOL0     O99948   3.768   5.165   7.521 -0.0253  0.6632  0.1622
  725MOL0     C99949   3.821   5.161   7.391 -0.8351 -1.4374 -0.0070
  725MOL0     C99950   3.797   5.288   7.309 -0.2079  0.8114 -1.0880
  725MOL0     C99951   3.646   5.317   7.299 -0.4236  0.3244  0.0969
  725MOL0     C99952   3.572   5.227   7.194 -0.5299  0.0709  0.5175
  725MOL0     C99953   3.436   5.289   7.150 -0.0047  0.3002  0.0964
  725MOL0     C99954   3.350   5.170   7.107 -0.2897 -0.5580 -0.1889
  725MOL0     C99955   3.239   5.234   7.027 -0.4887  0.4229 -1.8178
  725MOL0     C99956   3.128   5.136   6.994 -1.0965 -0.1020 -1.5316
  725MOL0    Cl99957   3.019   5.193   6.863 -0.2421 -0.0381 -0.1077
  725MOL0     C99958   3.951   5.201   7.685 -0.6665 -0.6206  0.4919
  725MOL0     C99959   4.013   5.298   7.762 -0.5038  0.2165 -0.5521
  725MOL0     O99960   3.864   5.571   8.001  0.2449  0.4472 -0.1986
  725MOL0     C99961   4.203   5.696   7.966 -0.4886 -0.5520  0.4185
  725MOL0     C99962   4.295   5.791   8.025  0.2277 -0.1805 -0.4316
  725MOL0     N99963   4.116   5.803   8.604  1.0844  0.4452 -0.3091
  725MOL0     N99964   4.000   5.740   8.605 -0.0337 -0.5357  0.6837
  725MOL0     C99965   3.907   5.119   9.191 -1.1488  0.3011 -0.6433
  725MOL0     C99966   3.907   4.989   9.244  0.0520 -0.3714 -0.9486
  725MOL0     C99967   4.062   4.584   9.357 -0.3657  0.3190  0.8046
  725MOL0     C99968   4.007   4.550   9.485 -0.4865  0.0416 -0.1891
  725MOL0     C99969   4.010   4.421   9.541  0.3761  0.8511  0.2148
  725MOL0     C99970   4.076   4.319   9.466  0.5063 -0.5487 -0.8408
  725MOL0     O99971   4.075   4.185   9.504 -0.1724  0.0316  0.4523
  725MOL0     C99972   3.967   4.106   9.448 -0.0299 -0.9311 -0.4396
  725MOL0     C99973   3.983   3.970   9.505 -0.1538  0.2304  0.2555
  725MOL0     C99974   3.875   3.880   9.438  0.4896  0.2971 -0.0256
  725MOL0     C99975   3.911   3.725   9.445  0.4939  0.1570  0.8341
  725MOL0     C99976   3.925   3.659   9.572  0.0132 -0.1516  0.3811
  725MOL0     C99977   3.925   3.596   9.678  0.8794 -0.9245 -0.5546
  725MOL0     C99978   4.132   4.348   9.339 -0.4316 -0.8192 -0.2138
  725MOL0     C99979   4.126   4.476   9.284  0.2243  0.3011 -0.2618
  725MOL0     C99980   4.173   4.484   9.145 -0.1775 -0.5465  0.0277
  725MOL0     H99981   4.152   4.987   9.478  1.5022 -1.3023 -0.1872
  725MOL0     H99982   4.146   5.227   9.416  1.3809 -2.2349  2.0482
  725MOL0     H99983   3.831   5.415   9.210 -0.3166 -0.9489 -0.5367
  725MOL0     H99984   3.936   5.358   9.073  0.3457  1.3532 -1.0826
  725MOL0     H99985   3.962   5.623   9.215  5.2421 -0.1269  0.3605
  725MOL0     H99986   4.066   5.560   9.088  0.4234 -0.0608 -0.4689
  725MOL0     H99987   3.928   5.679   8.951 -1.6521  1.9142  0.2312
  725MOL0     H99988   3.838   5.527   8.932  2.4370 -0.4348 -1.3351
  725MOL0     H99989   3.692   5.624   9.119 -1.5145  1.8134  0.3435
  725MOL0     H99990   3.776   5.777   9.101  0.7668 -1.8386  3.5430
  725MOL0     H99991   3.564   5.742   8.951 -0.8979 -0.6887 -1.0918
  725MOL0     H99992   3.663   5.632   8.859  0.0338  2.2695 -1.3602
  725MOL0     H99993   3.687   5.936   8.913  1.0225 -1.1514  2.8137
  725MOL0     H99994   3.819   5.858   8.851  0.3303 -1.8360 -0.2789
  725MOL0     H99995   3.663   5.972   8.677  0.2152 -0.0824  1.3559
  725MOL0     H99996   3.551   5.836   8.697 -0.4202  3.1237 -2.0886
  725MOL0     H99997   3.748   5.677   8.647  1.6557  1.2688  1.6810
  725MOL0     H99998   3.714   5.804   8.516 -0.0412  3.1895  0.3253
  725MOL0     H99999   3.898   6.046   8.606  0.5312  1.4535  2.1093
  725MOL0     H    0   4.285   6.028   8.615 -1.0508  0.6791  3.6690
  725MOL0     H    1   4.158   6.123   8.676 -0.5315 -2.4133  0.5994
  725MOL0     H    2   4.099   6.212   8.474  1.3478  0.4245  2.7611
  725MOL0     H    3   4.264   6.237   8.484  0.9530 -0.3001 -2.8222
  725MOL0     H    4   4.136   6.037   8.307 -2.1560  1.4990 -0.0021
  725MOL0     H    5   4.263   6.150   8.246 -1.0577 -0.4912 -0.8237
  725MOL0     H    6   4.433   6.034   8.378 -0.4540 -0.8585  1.6639
  725MOL0     H    7   4.329   5.905   8.419 -3.1432 -1.2151 -1.2429
  725MOL0     H    8   4.154   5.816   8.333 -1.5275  0.5924  0.1629
  725MOL0     H    9   3.953   5.743   8.353  1.6755 -1.8001  1.4845
  725MOL0     H   10   3.953   5.581   8.297  2.9014  0.0435  2.6539
  725MOL0     H   11   3.860   5.722   8.209 -0.7054 -2.6710 -0.8509
  725MOL0     H   12   3.798   5.561   7.721  0.4832 -0.2460 -0.3247
  725MOL0     H   13   3.701   5.405   7.567 -1.1080 -2.9536  0.9019
  725MOL0     H   14   3.930   5.150   7.388 -0.5807  0.4584 -3.6788
  725MOL0     H   15   3.779   5.073   7.342 -0.5456 -1.7379  0.2775
  725MOL0     H   16   3.867   5.360   7.353  2.5196 -0.9736 -2.2619
  725MOL0     H   17   3.825   5.271   7.205  1.8976  2.4502 -0.8690
  725MOL0     H   18   3.641   5.416   7.253 -0.9906  0.0428 -0.4635
  725MOL0     H   19   3.607   5.313   7.401  3.2458 -1.5553  1.6206
  725MOL0     H   20   3.565   5.129   7.242  3.8908 -0.6347  0.1898
  725MOL0     H   21   3.631   5.198   7.107 -0.8035 -4.2892  1.5471
  725MOL0     H   22   3.409   5.342   7.242  1.8571 -1.0016  1.4734
  725MOL0     H   23   3.452   5.353   7.063 -1.7471  1.2320  0.4241
  725MOL0     H   24   3.334   5.122   7.205  2.8053  4.3282  3.1455
  725MOL0     H   25   3.416   5.105   7.048 -0.7892 -2.2455  1.0175
  725MOL0     H   26   3.290   5.288   6.947  2.4481  1.3476  0.5061
  725MOL0     H   27   3.198   5.321   7.080  0.8278  0.6053 -1.0507
  725MOL0     H   28   3.061   5.115   7.078 -1.2632  1.9595 -1.0970
  725MOL0     H   29   3.180   5.046   6.960 -0.5307 -0.3974  0.0117
  725MOL0     H   30   3.998   5.105   7.668 -1.2951 -0.7427 -0.6614
  725MOL0     H   31   4.104   5.270   7.814  0.5957  0.0948 -2.4524
  725MOL0     H   32   4.241   5.663   7.870 -1.6281  1.2966 -0.7176
  725MOL0     H   33   4.385   5.817   7.969  2.9347 -6.6134  0.0814
  725MOL0     H   34   3.843   5.147   9.108 -3.4752  1.7129  1.4637
  725MOL0     H   35   3.840   4.919   9.194 -1.6409  1.5474 -1.5260
  725MOL0     H   36   3.956   4.632   9.533  0.3862  1.4474 -1.5500
  725MOL0     H   37   3.964   4.396   9.636 -0.7032  1.5768 -0.1009
  725MOL0     H   38   3.873   4.154   9.479  0.7853 -1.2194  2.8438
  725MOL0     H   39   3.969   4.104   9.339  1.8257  0.0670 -0.4704
  725MOL0     H   40   3.954   3.964   9.610 -1.4782 -0.9327 -0.1302
  725MOL0     H   41   4.084   3.934   9.483 -0.4986 -0.4538 -0.2661
  725MOL0     H   42   3.778   3.898   9.485  2.2767  0.8570  3.8098
  725MOL0     H   43   3.865   3.901   9.331  3.7531 -0.9823 -0.6988
  725MOL0     H   44   3.991   3.690   9.379 -2.1806 -0.8998 -2.1390
  725MOL0     H   45   3.821   3.681   9.401  0.1007  0.5320  1.2514
  725MOL0     H   46   3.932   3.561   9.779 -3.9384  0.7120  0.6490
  725MOL0     H   47   4.179   4.261   9.294 -1.4841 -0.4434 -2.1505
  725MOL0     H   48   4.178   4.383   9.103  0.1645 -0.0695 -1.1118
  725MOL0     H   49   4.111   4.548   9.081 -1.6975  0.6551  2.5383
  725MOL0     H   50   4.268   4.537   9.148 -0.6153  0.3715 -1.3082
  726MOL0     O   51   3.911   8.088   6.538 -0.3364 -0.0345  0.7838
  726MOL0     C   52   3.889   8.193   6.593 -0.1436 -0.2092  0.4005
  726MOL0     O   53   3.811   8.218   6.708 -0.3982  0.4051  0.0167
  726MOL0     C   54   3.733   8.124   6.763  0.3694  0.2908 -0.1855
  726MOL0     C   55   3.679   8.004   6.709  0.3994 -0.5206  0.4320
  726MOL0     C   56   3.591   7.930   6.782  0.3926  0.3386 -0.0918
  726MOL0     C   57   3.570   7.951   6.925 -0.6411 -0.7868 -0.1356
  726MOL0     O   58   3.501   7.858   6.997 -0.6871 -0.4560 -0.2068
  726MOL0     C   59   3.384   7.902   7.056  1.2163 -0.6940 -0.0544
  726MOL0     C   60   3.252   7.860   6.990  0.5384 -0.0409  0.7502
  726MOL0     C   61   3.214   7.934   6.853 -0.4901  0.0403  0.1398
  726MOL0     C   62   3.073   7.898   6.795 -0.5314 -0.5346 -0.6764
  726MOL0     C   63   2.961   7.955   6.879 -0.2605  0.6839  0.8703
  726MOL0     C   64   2.838   7.892   6.826  0.2917  0.4107  0.5959
  726MOL0     C   65   2.701   7.957   6.873 -0.2515 -0.5244 -1.4084
  726MOL0     C   66   2.674   8.098   6.821  0.2043  0.3796  0.5203
  726MOL0     N   67   2.519   8.119   6.835 -0.0434 -0.0705  0.4313
  726MOL0     C   68   2.428   8.079   6.745  0.4705  0.3353  1.0479
  726MOL0     C   69   2.301   8.107   6.779 -0.8128 -0.1196 -0.9537
  726MOL0     C   70   2.173   8.107   6.701  0.2141  0.9744  0.0608
  726MOL0     C   71   2.085   7.984   6.724 -0.9656 -0.2690  0.0370
  726MOL0     C   72   2.051   7.962   6.880 -0.7002 -0.4897  1.3802
  726MOL0     C   73   1.895   7.959   6.908 -0.9299  0.1365 -0.0547
  726MOL0     O   74   1.847   8.095   6.881 -1.0476 -0.4367 -0.0325
  726MOL0     C   75   1.714   8.110   6.864 -0.5932  0.0844 -1.4415
  726MOL0     C   76   1.620   8.015   6.892 -0.0142  0.0448 -0.4569
  726MOL0     C   77   1.486   8.024   6.846 -0.8007  0.1740  0.1318
  726MOL0     C   78   1.407   7.897   6.870 -1.1788 -0.3153  0.4151
  726MOL0     C   79   1.442   8.136   6.766 -0.0061  0.9291 -0.5376
  726MOL0     C   80   1.310   8.152   6.705 -0.5669  0.4049 -0.6224
  726MOL0     O   81   1.301   8.276   6.655 -0.0949  0.4638  0.8242
  726MOL0     C   82   1.177   8.312   6.612  0.1955  0.2994 -0.8185
  726MOL0     C   83   1.105   8.412   6.666 -0.4150  0.2399  0.3956
  726MOL0     C   84   0.973   8.457   6.641  0.2511  0.1211  1.2159
  726MOL0     C   85   0.911   8.400   6.530 -0.0462  0.4314  0.5376
  726MOL0     O   86   0.800   8.454   6.476  0.3153  0.3138  0.1691
  726MOL0     C   87   0.686   8.381   6.525  0.2235 -0.5153  0.5560
  726MOL0     C   88   0.565   8.410   6.434 -0.2436  0.0570  0.7153
  726MOL0     C   89   0.434   8.434   6.513  0.1005 -0.3153 -0.5389
  726MOL0     C   90   0.313   8.442   6.414 -0.4862 -0.0042 -0.2405
  726MOL0     C   91   0.316   8.575   6.344  0.6016 -0.2104  0.2527
  726MOL0     C   92   0.281   8.698   6.428 -0.2998  0.4953 -1.0923
  726MOL0     C   93   0.264   8.828   6.356 -0.5515 -0.6752  1.3941
  726MOL0     C   94   0.385   8.864   6.271  0.8545  0.0830  0.2850
  726MOL0    Cl   95   0.529   8.913   6.371  0.5790 -0.4991 -0.3644
  726MOL0     C   96   0.969   8.281   6.462 -0.0485 -0.0710 -0.8641
  726MOL0     C   97   1.102   8.247   6.507 -0.9197  0.6446  0.2029
  726MOL0     O   98   1.226   8.066   6.716  0.7252  0.6954  0.1148
  726MOL0     C   99   1.543   8.237   6.749  0.1731  0.4189 -0.0709
  726MOL0     C  100   1.677   8.224   6.794 -0.4905 -0.0269  0.2299
  726MOL0     N  101   2.315   8.140   6.921 -0.7645  0.2650 -0.3097
  726MOL0     N  102   2.446   8.150   6.953 -0.2745  0.0172 -0.1685
  726MOL0     C  103   3.629   8.068   6.978 -0.6877 -0.4888 -0.9508
  726MOL0     C  104   3.710   8.154   6.903  1.4247  0.4062 -0.2226
  726MOL0     C  105   3.958   8.312   6.528 -0.1560  0.4599 -0.0161
  726MOL0     C  106   4.043   8.293   6.418  0.1079  0.5730  1.4067
  726MOL0     C  107   4.093   8.394   6.347  1.3928 -0.2313 -0.0460
  726MOL0     C  108   4.065   8.524   6.383 -0.7316 -0.7724  0.1462
  726MOL0     O  109   4.100   8.617   6.298 -0.2024 -0.3234  0.2145
  726MOL0     C  110   3.996   8.672   6.225 -0.1712 -0.0884  0.3379
  726MOL0     C  111   4.029   8.696   6.070  0.0682 -0.0856  0.6848
  726MOL0     C  112   4.066   8.569   5.999 -0.3978 -0.4171  0.1565
  726MOL0     C  113   4.211   8.526   6.015  0.3074 -0.4944  0.1901
  726MOL0     C  114   4.251   8.431   5.914  0.9276 -0.1805  0.5079
  726MOL0     C  115   4.302   8.351   5.830  0.3869 -0.6064 -0.8769
  726MOL0     C  116   3.991   8.548   6.497  0.6798  0.1232 -0.7650
  726MOL0     C  117   3.935   8.439   6.575 -1.1213 -0.6216  0.0318
  726MOL0     C  118   3.874   8.477   6.707  0.1867 -0.3024 -0.5653
  726MOL0     H  119   3.685   7.995   6.601  1.5911  0.0324  0.4415
  726MOL0     H  120   3.534   7.852   6.734  1.5250 -0.8547  0.4338
  726MOL0     H  121   3.383   8.011   7.063  2.1149 -0.6735 -0.1124
  726MOL0     H  122   3.380   7.867   7.160 -0.6862 -0.5151 -0.0283
  726MOL0     H  123   3.249   7.753   6.971  0.8301  0.0973 -0.1032
  726MOL0     H  124   3.173   7.879   7.063 -0.4190 -1.5169  0.1217
  726MOL0     H  125   3.225   8.042   6.859  1.0309 -0.1386  1.1038
  726MOL0     H  126   3.298   7.919   6.784  1.0819  2.9340  1.2547
  726MOL0     H  127   3.077   7.945   6.697  0.1507 -3.3121 -2.0887
  726MOL0     H  128   3.074   7.791   6.771  1.8856 -0.1706 -2.5684
  726MOL0     H  129   2.962   8.064   6.871  1.0696  0.6688  0.4710
  726MOL0     H  130   2.968   7.941   6.987 -4.4590  2.7841  1.6197
  726MOL0     H  131   2.835   7.878   6.717  1.2299 -2.5869  0.8807
  726MOL0     H  132   2.840   7.792   6.869  1.3271  0.5750  0.9647
  726MOL0     H  133   2.677   7.951   6.979 -4.8425 -2.7589 -2.3478
  726MOL0     H  134   2.632   7.880   6.838 -1.2134 -0.9123  1.1995
  726MOL0     H  135   2.727   8.179   6.873 -1.1336 -0.0495  2.7061
  726MOL0     H  136   2.693   8.112   6.714 -3.3947  6.0133  0.2096
  726MOL0     H  137   2.457   8.042   6.647 -0.4949 -0.2065  0.9586
  726MOL0     H  138   2.196   8.107   6.594 -0.9289  1.8145 -0.2080
  726MOL0     H  139   2.122   8.202   6.718 -0.6817  0.5951 -0.4251
  726MOL0     H  140   1.993   7.995   6.665 -1.6843  1.6006  1.3824
  726MOL0     H  141   2.149   7.905   6.684 -3.5019  0.3474 -6.5489
  726MOL0     H  142   2.102   7.876   6.924  1.8568  0.6562  0.8140
  726MOL0     H  143   2.078   8.050   6.939  2.5673 -0.9674  0.8053
  726MOL0     H  144   1.840   7.889   6.844 -1.3809  2.7573 -2.7667
  726MOL0     H  145   1.870   7.935   7.012 -0.2017 -0.4364 -0.0045
  726MOL0     H  146   1.650   7.927   6.948  0.1606  2.2345  3.2732
  726MOL0     H  147   1.458   7.808   6.908 -0.1656  0.0751 -0.0078
  726MOL0     H  148   1.379   7.871   6.768 -1.8671 -0.3694  0.6089
  726MOL0     H  149   1.327   7.929   6.938  0.6770  4.3937  0.7661
  726MOL0     H  150   1.143   8.464   6.754  1.9443 -0.2521 -0.2582
  726MOL0     H  151   0.938   8.538   6.703  0.2136  1.2558 -0.2403
  726MOL0     H  152   0.693   8.272   6.515  0.1964 -0.6340  1.7165
  726MOL0     H  153   0.661   8.411   6.627  0.0902  0.4031  0.2606
  726MOL0     H  154   0.574   8.500   6.373 -4.9654  0.2101 -0.1007
  726MOL0     H  155   0.543   8.329   6.365 -3.4404  0.4431  1.1094
  726MOL0     H  156   0.447   8.520   6.580  2.8836 -0.4934 -0.7284
  726MOL0     H  157   0.426   8.342   6.571  1.1337 -1.2802 -1.8645
  726MOL0     H  158   0.221   8.428   6.472  0.8899 -2.7835  1.5008
  726MOL0     H  159   0.324   8.364   6.338  0.9251 -0.9495  0.8839
  726MOL0     H  160   0.404   8.599   6.284 -0.6349  2.9560 -0.5101
  726MOL0     H  161   0.246   8.560   6.262 -1.0766  0.4888  1.4968
  726MOL0     H  162   0.356   8.721   6.504 -1.7072  0.3530  0.3918
  726MOL0     H  163   0.192   8.681   6.488  0.5546 -2.3944 -0.4968
  726MOL0     H  164   0.234   8.916   6.414 -0.9860  0.2259 -0.1260
  726MOL0     H  165   0.176   8.814   6.293  0.7167  1.6473 -1.0796
  726MOL0     H  166   0.357   8.941   6.199 -1.5360 -2.7644 -2.1154
  726MOL0     H  167   0.415   8.779   6.208 -3.0186 -1.1737 -0.1128
  726MOL0     H  168   0.916   8.224   6.387 -0.0222 -1.8158  0.3869
  726MOL0     H  169   1.153   8.174   6.445 -1.8420 -2.6457  2.9952
  726MOL0     H  170   1.527   8.330   6.696 -0.2879  1.9807  2.6445
  726MOL0     H  171   1.749   8.297   6.759 -0.7338 -0.6377 -1.6999
  726MOL0     H  172   3.612   8.090   7.083 -2.3548 -1.6797 -0.9430
  726MOL0     H  173   3.775   8.227   6.950  0.0334  0.2406  2.0834
  726MOL0     H  174   4.054   8.197   6.370  0.5781  0.2101  2.2262
  726MOL0     H  175   4.148   8.371   6.256 -1.2401 -2.3304 -1.2240
  726MOL0     H  176   3.909   8.606   6.239  0.0755  0.2244  4.7365
  726MOL0     H  177   3.965   8.764   6.274 -3.7333 -1.5142  1.1163
  726MOL0     H  178   4.104   8.774   6.055 -0.9512  0.6275 -0.8870
  726MOL0     H  179   3.942   8.745   6.026  0.4891  0.1800  0.1388
  726MOL0     H  180   4.004   8.486   6.033 -1.2015 -0.0026 -0.2598
  726MOL0     H  181   4.036   8.589   5.895 -0.3161 -0.0294  0.2060
  726MOL0     H  182   4.223   8.491   6.118 -1.7231  1.1539  1.0716
  726MOL0     H  183   4.267   8.614   5.982 -0.4030 -1.1725 -3.2231
  726MOL0     H  184   4.344   8.286   5.756 -2.1329 -2.9264 -0.4509
  726MOL0     H  185   3.960   8.649   6.523 -0.1516  0.1457 -1.7668
  726MOL0     H  186   3.764   8.482   6.714  0.2142  0.1658 -0.4021
  726MOL0     H  187   3.908   8.419   6.793  2.5252 -0.3342 -1.4505
  726MOL0     H  188   3.903   8.582   6.720 -0.4008 -0.2024  0.0264
  727MOL0     O  189   9.351   6.993   7.867 -0.2405  0.0884  0.3396
  727MOL0     C  190   9.240   7.035   7.881 -0.3669 -0.1230 -0.0789
  727MOL0     O  191   9.186   7.076   8.000  0.5989 -0.7405  0.5827
  727MOL0     C  192   9.279   7.114   8.096  0.2057  1.0803 -0.0498
  727MOL0     C  193   9.309   7.250   8.113 -0.4458  0.0393 -0.1173
  727MOL0     C  194   9.419   7.298   8.198 -0.2244 -1.5586  0.1857
  727MOL0     C  195   9.489   7.207   8.266  0.4948 -0.2369  0.5527
  727MOL0     O  196   9.593   7.236   8.355  0.6609 -0.6699 -0.2194
  727MOL0     C  197   9.667   7.363   8.350  1.1224  0.8349  0.1159
  727MOL0     C  198   9.777   7.362   8.459  0.5186 -0.0148  0.3040
  727MOL0     C  199   9.905   7.291   8.411 -0.7396  0.3852 -0.1840
  727MOL0     C  200  10.015   7.285   8.516  0.3765  0.4638  0.7261
  727MOL0     C  201  10.100   7.161   8.501  0.5896  0.3551 -0.0701
  727MOL0     C  202  10.185   7.162   8.384  0.0111 -0.9392 -0.2632
  727MOL0     C  203  10.283   7.050   8.373  0.3945  0.2755 -0.4582
  727MOL0     C  204  10.375   7.053   8.241  0.8894 -0.2856  0.7340
  727MOL0     N  205  10.311   7.003   8.116 -0.6323  0.3199  0.1207
  727MOL0     C  206  10.382   6.931   8.018 -0.4445 -0.1289  0.1366
  727MOL0     C  207  10.296   6.944   7.906 -0.9401  0.5675 -0.9650
  727MOL0     C  208  10.309   6.883   7.768  0.1533 -0.6645 -0.6427
  727MOL0     C  209  10.347   6.988   7.666  0.2684 -0.0168  0.9614
  727MOL0     C  210  10.465   7.085   7.684  0.4410 -0.9671 -0.1108
  727MOL0     C  211  10.597   7.029   7.645 -0.0463  0.0613  0.0409
  727MOL0     O  212  10.603   6.906   7.714  0.0573 -0.8713 -0.9467
  727MOL0     C  213  10.673   6.901   7.834 -0.1676 -0.1919 -0.4631
  727MOL0     C  214  10.715   6.777   7.870  0.8294 -0.9819  1.3928
  727MOL0     C  215  10.819   6.758   7.968 -0.5436 -1.0243 -0.3125
  727MOL0     C  216  10.860   6.621   7.993 -0.3546 -0.7174 -0.0839
  727MOL0     C  217  10.854   6.869   8.050  0.7604 -0.4548  0.3427
  727MOL0     C  218  10.970   6.883   8.143 -0.0914  0.2213 -0.2179
  727MOL0     O  219  10.978   6.987   8.243 -0.4993 -0.5142 -0.2191
  727MOL0     C  220  11.097   6.982   8.315  0.4275  0.7283  0.2757
  727MOL0     C  221  11.119   6.867   8.398 -0.2385 -0.3210 -0.4929
  727MOL0     C  222  11.240   6.848   8.471  0.7005 -0.2009 -0.0183
  727MOL0     C  223  11.327   6.960   8.470  0.2383  0.1821  0.3216
  727MOL0     O  224  11.446   6.960   8.546  0.4123 -0.0438 -0.6274
  727MOL0     C  225  11.551   6.899   8.481  0.4359  0.3248 -0.0253
  727MOL0     C  226  11.682   6.955   8.526 -0.4632  0.0589 -0.8239
  727MOL0     C  227  11.678   7.113   8.513  0.6240  0.9658  0.2639
  727MOL0     C  228  11.822   7.175   8.518 -0.9106 -0.2046 -0.6496
  727MOL0     C  229  11.877   7.199   8.656 -0.0398  0.8811  0.6287
  727MOL0     C  230  11.809   7.306   8.745  0.3373 -1.0408 -0.8096
  727MOL0     C  231  11.857   7.327   8.886 -0.0233  0.2793 -0.4735
  727MOL0     C  232  11.821   7.211   8.984  0.0168 -0.6548 -0.5735
  727MOL0    Cl  233  11.859   7.253   9.159  0.1594 -0.1951 -0.4757
  727MOL0     C  234  11.294   7.080   8.397  0.7991  0.4161  0.9115
  727MOL0     C  235  11.182   7.087   8.319  0.1347 -0.6218  0.6862
  727MOL0     O  236  11.054   6.801   8.118 -0.2070 -0.3646  0.3174
  727MOL0     C  237  10.800   6.990   8.013  0.8561 -0.3104  0.2375
  727MOL0     C  238  10.706   7.014   7.903 -1.1260  0.0670  0.2122
  727MOL0     N  239  10.198   7.036   7.927  0.0164  1.2635 -1.0133
  727MOL0     N  240  10.194   7.056   8.060  0.8435  0.3999  0.6198
  727MOL0     C  241   9.460   7.067   8.250 -0.8026 -0.5382  0.7807
  727MOL0     C  242   9.354   7.025   8.169 -0.3169  0.3747  0.2216
  727MOL0     C  243   9.157   7.035   7.751 -0.1962  0.1090 -0.2424
  727MOL0     C  244   9.026   7.061   7.775  0.9131  0.9869  0.5250
  727MOL0     C  245   8.937   7.058   7.667  0.1615 -1.1950 -0.4942
  727MOL0     C  246   8.967   7.028   7.538 -0.3637 -0.8040 -0.5609
  727MOL0     O  247   8.877   7.031   7.433 -0.0861  0.5859 -0.2032
  727MOL0     C  248   8.784   7.148   7.440  0.6980  0.0107 -0.2057
  727MOL0     C  249   8.748   7.203   7.304  0.5602  0.4164  0.3699
  727MOL0     C  250   8.675   7.331   7.331  0.3104  0.2206  0.2882
  727MOL0     C  251   8.571   7.358   7.209  0.0717  0.1961 -1.2645
  727MOL0     C  252   8.634   7.418   7.096  0.7666 -0.3342  0.5246
  727MOL0     C  253   8.690   7.449   6.995  0.0857 -0.6817  0.3353
  727MOL0     C  254   9.103   7.004   7.514 -0.7304  0.3981 -0.0627
  727MOL0     C  255   9.199   7.016   7.620  1.1184 -0.5451 -0.1352
  727MOL0     C  256   9.333   6.981   7.579  0.0121  1.2061  0.6180
  727MOL0     H  257   9.248   7.329   8.071 -0.7736  0.2960  0.8383
  727MOL0     H  258   9.422   7.406   8.208  0.1073 -0.8786 -4.6807
  727MOL0     H  259   9.592   7.441   8.367 -3.3845 -1.7977 -4.8610
  727MOL0     H  260   9.710   7.397   8.255  2.9254 -0.9786  0.2141
  727MOL0     H  261   9.801   7.467   8.474  1.7854 -0.4675  1.6727
  727MOL0     H  262   9.740   7.315   8.551 -5.3068 -0.3447 -1.8209
  727MOL0     H  263   9.884   7.187   8.386  0.9679  0.0832 -0.5077
  727MOL0     H  264   9.953   7.337   8.324  0.7805 -0.7730  0.0002
  727MOL0     H  265  10.074   7.376   8.500 -0.3917  0.3488 -4.1723
  727MOL0     H  266   9.982   7.272   8.620  2.3926 -1.7339  1.1641
  727MOL0     H  267  10.037   7.072   8.499  1.8524 -0.6010  0.6546
  727MOL0     H  268  10.161   7.163   8.592  0.8063  0.6384 -0.2190
  727MOL0     H  269  10.115   7.152   8.300 -1.2757  1.3839  0.4524
  727MOL0     H  270  10.232   7.259   8.363 -0.1227 -0.4544  1.5375
  727MOL0     H  271  10.226   6.957   8.379 -2.0965  1.6892 -0.9391
  727MOL0     H  272  10.346   7.047   8.463 -0.9488  1.0348  0.5407
  727MOL0     H  273  10.407   7.155   8.216  1.5217 -0.9559 -1.4865
  727MOL0     H  274  10.463   6.991   8.261 -0.1878 -1.2791  2.5829
  727MOL0     H  275  10.473   6.873   8.027 -0.0967  0.1711 -1.1874
  727MOL0     H  276  10.215   6.834   7.740 -0.6152  0.9209 -0.9172
  727MOL0     H  277  10.383   6.803   7.781  0.7977  0.0574  0.3146
  727MOL0     H  278  10.368   6.924   7.579  2.1104 -1.5487  2.4463
  727MOL0     H  279  10.261   7.050   7.637 -1.4415 -1.4119  2.7557
  727MOL0     H  280  10.444   7.170   7.619 -0.0587  0.8909  2.3699
  727MOL0     H  281  10.449   7.135   7.780  2.5917  3.1493 -1.6553
  727MOL0     H  282  10.606   7.000   7.539  5.1182  1.0142 -0.0603
  727MOL0     H  283  10.685   7.093   7.658  0.5265 -0.6825 -0.1121
  727MOL0     H  284  10.666   6.702   7.808  1.1030 -1.2104  1.4472
  727MOL0     H  285  10.762   6.574   7.983 -1.5113  1.3592  0.9047
  727MOL0     H  286  10.891   6.591   8.094 -1.7451 -1.0789  0.2534
  727MOL0     H  287  10.929   6.584   7.917  0.3639 -2.0293  1.1639
  727MOL0     H  288  11.063   6.774   8.395  0.0867 -0.6227  1.3572
  727MOL0     H  289  11.271   6.763   8.531 -1.0272 -0.2962  0.8096
  727MOL0     H  290  11.554   6.791   8.499 -0.2848  0.0775 -1.2066
  727MOL0     H  291  11.545   6.920   8.374 -0.9983  0.9972  0.1663
  727MOL0     H  292  11.700   6.913   8.625 -0.8863 -1.6849 -1.4531
  727MOL0     H  293  11.766   6.910   8.472 -2.8326 -3.5172 -1.9038
  727MOL0     H  294  11.631   7.160   8.600 -0.7605  0.7271 -0.3260
  727MOL0     H  295  11.630   7.155   8.424  0.5571 -1.4066 -0.9005
  727MOL0     H  296  11.823   7.273   8.470  2.5052  0.2568  0.0741
  727MOL0     H  297  11.887   7.112   8.455 -1.3433  0.6376 -1.9911
  727MOL0     H  298  11.889   7.104   8.709  0.3973  0.5863  0.0103
  727MOL0     H  299  11.979   7.238   8.645 -0.3258  2.1003  1.9946
  727MOL0     H  300  11.701   7.295   8.753  0.1006  0.5879 -1.3535
  727MOL0     H  301  11.813   7.401   8.690 -3.2480 -1.7255 -2.5126
  727MOL0     H  302  11.791   7.412   8.908 -3.1773 -1.3640 -2.7957
  727MOL0     H  303  11.964   7.353   8.891  1.2311 -3.3095 -3.7171
  727MOL0     H  304  11.882   7.126   8.954  0.6690 -1.4085  2.5520
  727MOL0     H  305  11.714   7.188   8.989 -0.3174  0.8269 -0.2292
  727MOL0     H  306  11.349   7.173   8.400  2.1438 -0.2499 -1.0708
  727MOL0     H  307  11.172   7.169   8.248 -0.5595 -3.1381 -2.3132
  727MOL0     H  308  10.827   7.076   8.073 -2.4898  0.8117  0.3605
  727MOL0     H  309  10.674   7.115   7.879  0.5518 -0.0241 -2.9334
  727MOL0     H  310   9.521   6.995   8.304  1.7259  0.5956 -0.3798
  727MOL0     H  311   9.344   6.921   8.141  2.2564  0.3631 -0.9640
  727MOL0     H  312   8.987   7.090   7.872 -4.8945  2.6299 -1.8690
  727MOL0     H  313   8.838   7.088   7.697 -0.6207 -3.4782 -0.5551
  727MOL0     H  314   8.688   7.112   7.479  1.3006  0.2036  1.5466
  727MOL0     H  315   8.816   7.225   7.511  4.4393 -1.7016  0.1975
  727MOL0     H  316   8.682   7.134   7.252 -1.6051  0.1314  3.2324
  727MOL0     H  317   8.835   7.219   7.239  1.8049  0.3851  1.9441
  727MOL0     H  318   8.619   7.304   7.420  2.2306 -3.2037  0.6245
  727MOL0     H  319   8.745   7.411   7.357 -0.7146  0.8297  1.2220
  727MOL0     H  320   8.489   7.422   7.244 -2.3527 -4.1317  2.0305
  727MOL0     H  321   8.523   7.262   7.186 -6.2481  1.1693  4.4104
  727MOL0     H  322   8.731   7.504   6.913 -0.2416  3.7680  2.8462
  727MOL0     H  323   9.132   6.976   7.414  2.1323  0.7842  0.5758
  727MOL0     H  324   9.407   7.025   7.646  0.5634  1.1528  0.0541
  727MOL0     H  325   9.344   6.872   7.585 -1.0699  1.0748  0.5448
  727MOL0     H  326   9.364   7.002   7.476 -1.4077 -0.4434 -0.2126
  728MOL0     O  327  10.766   9.549   0.612 -0.3416 -0.6526 -0.4568
  728MOL0     C  328  10.776   9.643   0.537 -1.1520 -0.4868 -0.0742
  728MOL0     O  329  10.725   9.772   0.571 -1.1813  1.2173  0.0325
  728MOL0     C  330  10.629   9.786   0.673  0.4229  1.2028 -0.4999
  728MOL0     C  331  10.672   9.759   0.808 -0.2470  0.1358  0.0070
  728MOL0     C  332  10.582   9.763   0.913  0.0528  0.2196  0.7045
  728MOL0     C  333  10.453   9.818   0.884  0.0544  0.1055  0.8112
  728MOL0     O  334  10.348   9.836   0.975  0.8371 -0.1938  0.4738
  728MOL0     C  335  10.380   9.846   1.113  0.7701  0.9227  0.3810
  728MOL0     C  336  10.371   9.707   1.186  0.5378 -0.8934  0.5239
  728MOL0     C  337  10.240   9.692   1.254  0.2559  0.7727 -0.5952
  728MOL0     C  338  10.232   9.569   1.346 -0.5116 -0.8028 -0.2572
  728MOL0     C  339  10.319   9.593   1.474 -0.6190  0.1855  0.6501
  728MOL0     C  340  10.243   9.670   1.586  0.2262 -0.5620 -0.3269
  728MOL0     C  341  10.329   9.700   1.718  0.0970 -0.8903  0.0814
  728MOL0     C  342  10.335   9.580   1.815  0.4170  0.2092  0.0399
  728MOL0     N  343  10.449   9.492   1.781 -0.3999 -0.3549 -0.2289
  728MOL0     C  344  10.419   9.375   1.718 -0.2051 -0.5119  0.4632
  728MOL0     C  345  10.533   9.353   1.644 -0.5199  0.4058 -0.0846
  728MOL0     C  346  10.553   9.246   1.542 -0.0248  0.4808  0.2692
  728MOL0     C  347  10.495   9.297   1.410  0.1059  0.1833 -0.0884
  728MOL0     C  348  10.522   9.212   1.284 -0.2401  0.0869  0.2594
  728MOL0     C  349  10.501   9.296   1.159  0.6286 -0.2338 -0.1260
  728MOL0     O  350  10.403   9.234   1.071  0.2226  0.5211 -0.2544
  728MOL0     C  351  10.390   9.275   0.938 -0.0813  0.7400  0.9313
  728MOL0     C  352  10.315   9.208   0.846 -0.0445 -1.3739 -0.8851
  728MOL0     C  353  10.274   9.263   0.723  0.2178 -0.0543  0.0461
  728MOL0     C  354  10.172   9.185   0.651 -0.2190  0.6566  1.3482
  728MOL0     C  355  10.324   9.387   0.681  0.1272  0.2840 -0.0643
  728MOL0     C  356  10.291   9.448   0.555 -0.2127 -1.0337  0.0817
  728MOL0     O  357  10.396   9.463   0.473 -0.0735  0.1898  0.5311
  728MOL0     C  358  10.375   9.525   0.354 -0.0637  0.1133 -1.0209
  728MOL0     C  359  10.329   9.658   0.352  0.6577  0.6093 -0.2433
  728MOL0     C  360  10.299   9.714   0.223 -0.5735  0.5196 -0.6420
  728MOL0     C  361  10.316   9.645   0.111 -0.5422 -0.1276  0.3922
  728MOL0     O  362  10.261   9.701  -0.004 -0.3905  0.5976  0.1586
  728MOL0     C  363  10.276   9.626  -0.121 -0.3475 -0.3314  0.4396
  728MOL0     C  364  10.197   9.679  -0.240  0.4303 -0.0077 -0.5014
  728MOL0     C  365  10.229   9.618  -0.376 -1.1956 -0.0118  0.0054
  728MOL0     C  366  10.382   9.606  -0.418 -0.9388 -0.7651 -0.6005
  728MOL0     C  367  10.392   9.593  -0.563  0.1753  1.0775 -0.1012
  728MOL0     C  368  10.544   9.580  -0.586  0.2541  0.0106  0.0910
  728MOL0     C  369  10.579   9.642  -0.718  0.7522  0.0322  0.6948
  728MOL0     C  370  10.725   9.672  -0.714 -0.5795  0.1640  0.6320
  728MOL0    Cl  371  10.773   9.806  -0.613 -0.1070 -0.3823 -0.0061
  728MOL0     C  372  10.388   9.529   0.114  0.2873 -0.7600 -0.0515
  728MOL0     C  373  10.401   9.459   0.235 -0.0663  0.4940 -0.5126
  728MOL0     O  374  10.167   9.463   0.528 -0.0981  0.5443  0.1241
  728MOL0     C  375  10.432   9.442   0.760  0.1446  0.3445  0.3596
  728MOL0     C  376  10.454   9.390   0.889  0.2842  0.9270 -1.1687
  728MOL0     N  377  10.622   9.452   1.664  0.0518 -0.2901 -0.3835
  728MOL0     N  378  10.576   9.531   1.754 -0.0015  0.3588  0.4040
  728MOL0     C  379  10.402   9.844   0.756  0.6571 -0.2601  0.3042
  728MOL0     C  380  10.497   9.816   0.648  0.1527 -0.6452  0.1947
  728MOL0     C  381  10.857   9.643   0.413 -0.3692  0.6109 -0.0222
  728MOL0     C  382  10.941   9.755   0.375  0.7559 -0.0559 -0.1677
  728MOL0     C  383  11.037   9.737   0.273 -0.5485 -0.5809  0.2710
  728MOL0     C  384  11.055   9.607   0.217 -0.2345  0.1817 -0.1815
  728MOL0     O  385  11.156   9.601   0.122 -0.0142  0.8158 -0.4058
  728MOL0     C  386  11.158   9.493   0.038 -0.5902  0.1492  0.9189
  728MOL0     C  387  11.261   9.508  -0.075  0.8110 -0.6260 -0.7845
  728MOL0     C  388  11.208   9.427  -0.209 -0.5574 -0.1114 -0.5661
  728MOL0     C  389  11.299   9.448  -0.327 -0.2147  0.4246  0.4326
  728MOL0     C  390  11.415   9.356  -0.312  0.4173  0.7087  0.5690
  728MOL0     C  391  11.509   9.281  -0.305 -0.8514  0.0480  0.0283
  728MOL0     C  392  10.959   9.508   0.240 -0.7889 -0.1854 -0.5152
  728MOL0     C  393  10.867   9.524   0.339  0.0537 -0.0800  0.5467
  728MOL0     C  394  10.770   9.414   0.359  0.1064  0.6591  0.4024
  728MOL0     H  395  10.769   9.715   0.828 -0.1831  1.4106  2.9425
  728MOL0     H  396  10.619   9.737   1.011  1.3348 -0.3785  0.0901
  728MOL0     H  397  10.304   9.915   1.152 -0.1063  0.0918  0.1567
  728MOL0     H  398  10.477   9.895   1.129  1.2991  0.1913 -0.5207
  728MOL0     H  399  10.389   9.637   1.104  0.0991 -0.3528 -0.0464
  728MOL0     H  400  10.455   9.695   1.255  0.0943 -2.0651  0.8900
  728MOL0     H  401  10.188   9.779   1.296  1.2084  1.8432 -1.5664
  728MOL0     H  402  10.163   9.659   1.183 -0.4392 -2.4470  1.4376
  728MOL0     H  403  10.129   9.552   1.378 -0.9663  3.0275  0.8230
  728MOL0     H  404  10.269   9.478   1.299  0.0269  0.5079 -2.5422
  728MOL0     H  405  10.415   9.644   1.461  0.0411 -0.2942  3.2361
  728MOL0     H  406  10.356   9.499   1.515  0.9290 -0.2726 -1.5864
  728MOL0     H  407  10.210   9.768   1.552 -0.1857  0.4129  2.6205
  728MOL0     H  408  10.152   9.613   1.607 -0.0629 -0.7002 -1.8378
  728MOL0     H  409  10.294   9.784   1.779  3.6636  1.4535 -0.8093
  728MOL0     H  410  10.431   9.720   1.683 -0.8681  0.0265 -2.3911
  728MOL0     H  411  10.373   9.608   1.914  3.2535  0.1837 -0.9438
  728MOL0     H  412  10.245   9.520   1.822  1.9423 -2.1962  0.0018
  728MOL0     H  413  10.321   9.328   1.716 -0.0791 -0.7512 -0.4835
  728MOL0     H  414  10.517   9.151   1.581 -1.4438  1.0796  0.4921
  728MOL0     H  415  10.659   9.220   1.533 -0.2928  0.0962 -2.7228
  728MOL0     H  416  10.386   9.301   1.414  0.1264  3.0385 -0.3530
  728MOL0     H  417  10.536   9.396   1.390  1.3082 -0.2623  0.0600
  728MOL0     H  418  10.625   9.179   1.299 -0.7833 -0.6008  3.1349
  728MOL0     H  419  10.453   9.128   1.276  1.2621 -1.0374 -1.7165
  728MOL0     H  420  10.464   9.396   1.181  3.4151  0.3270  2.6118
  728MOL0     H  421  10.606   9.312   1.131  0.0152  0.7594 -2.0715
  728MOL0     H  422  10.276   9.113   0.883  2.2522 -1.4797  1.5423
  728MOL0     H  423  10.138   9.107   0.720  1.2092  0.1767  1.5457
  728MOL0     H  424  10.210   9.148   0.556  2.0667  3.8103  0.8839
  728MOL0     H  425  10.082   9.237   0.617  1.6557  0.9633 -4.0794
  728MOL0     H  426  10.296   9.700   0.447 -0.7148  2.0570 -1.2975
  728MOL0     H  427  10.250   9.811   0.232 -0.5286  0.4296  0.8632
  728MOL0     H  428  10.382   9.622  -0.147 -0.9798 -1.7168 -2.1731
  728MOL0     H  429  10.234   9.527  -0.108  1.1226 -1.3109 -1.7259
  728MOL0     H  430  10.091   9.654  -0.224  0.3502  1.1008  0.8849
  728MOL0     H  431  10.204   9.788  -0.242  2.6225 -0.0573  0.9987
  728MOL0     H  432  10.181   9.675  -0.456  1.8885 -2.1270 -3.7136
  728MOL0     H  433  10.192   9.515  -0.382 -1.4947  0.1228 -0.4988
  728MOL0     H  434  10.443   9.532  -0.366 -0.2644 -0.0192 -0.3002
  728MOL0     H  435  10.433   9.701  -0.401 -2.7045  0.0565  0.4847
  728MOL0     H  436  10.334   9.506  -0.594 -3.6779  3.0443  0.9111
  728MOL0     H  437  10.350   9.686  -0.603 -1.0351  0.1502 -1.0700
  728MOL0     H  438  10.592   9.483  -0.574 -2.5921 -1.1096  4.7594
  728MOL0     H  439  10.593   9.643  -0.512  1.6010 -3.8513  2.7558
  728MOL0     H  440  10.535   9.742  -0.711 -2.3960 -1.2300  0.7399
  728MOL0     H  441  10.548   9.581  -0.804 -2.0427  1.2246  0.7503
  728MOL0     H  442  10.775   9.682  -0.811  1.1006 -0.0064  1.4518
  728MOL0     H  443  10.782   9.589  -0.673  3.1097  1.4678 -1.4083
  728MOL0     H  444  10.417   9.478   0.022 -2.1416  0.6377 -1.7295
  728MOL0     H  445  10.444   9.360   0.241  3.2877  1.9190  2.9642
  728MOL0     H  446  10.472   9.538   0.728  0.0117  0.0952 -0.5892
  728MOL0     H  447  10.521   9.442   0.957 -0.5469 -0.2090  0.5875
  728MOL0     H  448  10.312   9.903   0.739  1.3664 -0.0784 -3.7134
  728MOL0     H  449  10.480   9.834   0.542  0.6618  1.4081  0.4172
  728MOL0     H  450  10.919   9.845   0.430 -0.9492 -1.2711  1.2760
  728MOL0     H  451  11.109   9.818   0.261 -0.3508 -0.9739 -1.4898
  728MOL0     H  452  11.182   9.405   0.099 -2.3062 -1.8182 -1.0918
  728MOL0     H  453  11.062   9.474  -0.010  0.2455  0.1793 -0.8615
  728MOL0     H  454  11.346   9.455  -0.031 -0.8579 -1.0552  2.2029
  728MOL0     H  455  11.296   9.612  -0.084 -1.3370  0.2903  0.6315
  728MOL0     H  456  11.208   9.319  -0.191  1.2794  0.1852  1.6608
  728MOL0     H  457  11.112   9.478  -0.220  0.6585  2.5754  0.4481
  728MOL0     H  458  11.358   9.540  -0.327  0.0074  0.2805  0.0829
  728MOL0     H  459  11.244   9.423  -0.418  1.4221  1.4972 -0.9194
  728MOL0     H  460  11.552   9.186  -0.326 -2.8443 -0.3520 -2.7443
  728MOL0     H  461  10.968   9.407   0.202 -0.4407 -1.1127  1.8414
  728MOL0     H  462  10.683   9.449   0.415  0.1310  1.6617 -0.1674
  728MOL0     H  463  10.724   9.384   0.264 -0.8130  1.5923  0.5406
  728MOL0     H  464  10.821   9.335   0.415 -1.4195 -0.6390  0.0476
  729MOL0     O  465  10.552   2.017   3.794 -0.2372 -0.0990  0.2889
  729MOL0     C  466  10.590   2.013   3.913 -1.1118  0.2274 -0.8275
  729MOL0     O  467  10.694   1.928   3.960 -0.0080 -0.1831 -0.1635
  729MOL0     C  468  10.750   1.833   3.885 -0.7931  0.1058 -0.5165
  729MOL0     C  469  10.686   1.712   3.898 -0.1029 -0.2996 -1.0705
  729MOL0     C  470  10.735   1.594   3.836  0.0223 -0.1415  0.0435
  729MOL0     C  471  10.853   1.601   3.759 -0.5528  0.7610  0.9323
  729MOL0     O  472  10.893   1.476   3.721  0.7311  0.4833 -0.2237
  729MOL0     C  473  11.014   1.464   3.641 -0.2950 -0.6939  0.1587
  729MOL0     C  474  10.999   1.509   3.497 -1.0072  0.3739  0.7641
  729MOL0     C  475  11.110   1.453   3.406  0.3766  0.2908 -0.2101
  729MOL0     C  476  11.057   1.438   3.266  0.2437  0.5455  0.6930
  729MOL0     C  477  11.041   1.573   3.184 -0.3024  0.5250 -0.2099
  729MOL0     C  478  10.975   1.540   3.048 -0.3329 -0.4811  0.2979
  729MOL0     C  479  11.055   1.440   2.960 -0.3805  0.6348  1.0185
  729MOL0     C  480  11.001   1.405   2.824  0.4070  0.2984  0.5521
  729MOL0     N  481  10.960   1.512   2.732  1.2973  0.0413 -0.0709
  729MOL0     C  482  11.034   1.575   2.629  0.0547  0.3676 -0.2568
  729MOL0     C  483  10.951   1.647   2.554  0.2530  0.5033 -0.0427
  729MOL0     C  484  10.986   1.735   2.441  0.5808 -0.0012 -0.0419
  729MOL0     C  485  10.984   1.882   2.493 -0.0879  0.4157 -0.7243
  729MOL0     C  486  11.110   1.912   2.587  1.2627 -0.0072 -0.4497
  729MOL0     C  487  11.235   1.960   2.515 -0.3825 -1.0433 -0.2480
  729MOL0     O  488  11.317   2.046   2.599  0.0008  0.1427 -0.3069
  729MOL0     C  489  11.430   2.106   2.538 -0.3976 -1.5608 -1.0193
  729MOL0     C  490  11.423   2.186   2.423 -0.0061  0.0433 -0.1797
  729MOL0     C  491  11.538   2.246   2.362  0.3774 -0.9036 -0.4882
  729MOL0     C  492  11.520   2.334   2.237 -0.1893  0.5865 -0.2780
  729MOL0     C  493  11.665   2.218   2.423  0.8357  0.2939 -0.0368
  729MOL0     C  494  11.784   2.294   2.383  0.1215 -0.4205 -0.5054
  729MOL0     O  495  11.880   2.320   2.485 -0.5844  0.4267  0.7650
  729MOL0     C  496  11.995   2.393   2.446 -1.1853 -0.7983 -0.3406
  729MOL0     C  497  12.010   2.528   2.458 -0.7318  0.4798  0.5326
  729MOL0     C  498  12.131   2.589   2.415  0.5396  0.1733  0.1005
  729MOL0     C  499  12.217   2.515   2.331  0.4025  0.8184  0.2116
  729MOL0     O  500  12.312   2.561   2.247  0.1563  0.2121  1.4916
  729MOL0     C  501  12.312   2.699   2.210 -0.0895 -0.1195  0.7378
  729MOL0     C  502  12.403   2.724   2.087 -0.5320  1.2993 -0.6867
  729MOL0     C  503  12.359   2.639   1.962 -0.5171  0.6666 -1.1958
  729MOL0     C  504  12.325   2.726   1.837  0.1650 -0.7111 -0.4070
  729MOL0     C  505  12.286   2.633   1.727  0.8539 -0.2379 -0.2968
  729MOL0     C  506  12.317   2.704   1.593  0.5756 -0.1862  0.1313
  729MOL0     C  507  12.195   2.768   1.523  0.0871  0.8747 -0.1351
  729MOL0     C  508  12.179   2.905   1.580  0.4693  0.0211 -0.4957
  729MOL0    Cl  509  12.051   2.983   1.474  0.4038  0.2129  0.1234
  729MOL0     C  510  12.217   2.370   2.354 -0.2113  0.4483  0.1862
  729MOL0     C  511  12.106   2.307   2.408 -0.5490 -0.7024  0.2914
  729MOL0     O  512  11.797   2.323   2.260 -0.8527  0.8524 -0.9464
  729MOL0     C  513  11.670   2.133   2.530 -0.0720  0.3463  0.0311
  729MOL0     C  514  11.555   2.080   2.592  0.1057 -0.4245  0.4296
  729MOL0     N  515  10.830   1.624   2.607  0.5302  0.3760  0.0167
  729MOL0     N  516  10.833   1.553   2.715 -0.6147  0.5107 -0.0081
  729MOL0     C  517  10.925   1.715   3.752  0.5608 -1.3276  0.9877
  729MOL0     C  518  10.875   1.829   3.822  0.1071 -0.7435  0.6025
  729MOL0     C  519  10.525   2.091   4.022 -0.3193  0.0593 -0.1629
  729MOL0     C  520  10.576   2.089   4.151  0.1893  0.2356 -0.1870
  729MOL0     C  521  10.529   2.175   4.255  0.1841 -0.3300  0.2582
  729MOL0     C  522  10.432   2.261   4.233  0.4059 -0.6666 -1.5304
  729MOL0     O  523  10.379   2.347   4.332 -0.1938  0.0723  0.1378
  729MOL0     C  524  10.402   2.326   4.477 -0.5151 -0.4929 -0.4849
  729MOL0     C  525  10.302   2.409   4.554 -0.2882 -0.7532  0.4701
  729MOL0     C  526  10.350   2.559   4.555 -0.8185  0.1870 -0.1694
  729MOL0     C  527  10.227   2.637   4.498 -0.3615  0.3130 -0.4098
  729MOL0     C  528  10.247   2.777   4.489 -0.2237  0.9747  0.6752
  729MOL0     C  529  10.249   2.892   4.471 -0.1792  0.2491  0.0764
  729MOL0     C  530  10.377   2.270   4.104 -0.4297 -0.0970  0.7960
  729MOL0     C  531  10.425   2.190   3.997 -0.0537 -0.2353 -0.0182
  729MOL0     C  532  10.373   2.221   3.863  0.9962 -0.4774  0.1083
  729MOL0     H  533  10.589   1.702   3.944 -0.1247  1.2473 -0.7460
  729MOL0     H  534  10.693   1.499   3.870  1.6523  0.6430  5.0739
  729MOL0     H  535  11.035   1.357   3.645 -1.1325 -0.9012 -0.6843
  729MOL0     H  536  11.101   1.509   3.689  0.9835 -0.6684 -2.0286
  729MOL0     H  537  10.898   1.482   3.466 -1.1007  0.3841  1.0582
  729MOL0     H  538  11.005   1.618   3.496 -0.1346  0.3292  0.4312
  729MOL0     H  539  11.195   1.521   3.396  1.1514 -0.8447 -1.9746
  729MOL0     H  540  11.139   1.353   3.441 -2.4106 -1.3911 -2.3665
  729MOL0     H  541  11.131   1.377   3.213 -3.0782 -2.0350 -1.4310
  729MOL0     H  542  10.965   1.379   3.267 -0.5387  1.6649 -1.1532
  729MOL0     H  543  11.140   1.613   3.160 -0.7160  1.7584  0.0907
  729MOL0     H  544  10.986   1.644   3.247  0.3696  0.6545  0.2441
  729MOL0     H  545  10.880   1.496   3.079 -0.6818  0.8462  1.2108
  729MOL0     H  546  10.959   1.634   2.995  2.3181  1.2615  2.3281
  729MOL0     H  547  11.057   1.341   3.007  2.9881  0.5515  0.9102
  729MOL0     H  548  11.157   1.477   2.953 -0.2786  0.1581 -0.2717
  729MOL0     H  549  11.073   1.337   2.777  1.1824  0.6848  1.1653
  729MOL0     H  550  10.917   1.345   2.860  0.7926  1.6452  4.1692
  729MOL0     H  551  11.138   1.554   2.606  0.1073  0.5903 -0.2259
  729MOL0     H  552  10.911   1.725   2.362 -0.2877  0.5004  0.6979
  729MOL0     H  553  11.080   1.699   2.397 -0.5967 -1.4585 -1.4883
  729MOL0     H  554  10.975   1.958   2.415  0.6586  0.1239 -1.1085
  729MOL0     H  555  10.893   1.879   2.552 -0.4875 -5.1592 -1.0714
  729MOL0     H  556  11.075   2.000   2.642  0.7860  0.4496 -1.4572
  729MOL0     H  557  11.141   1.836   2.660  1.4454  0.6596  0.1881
  729MOL0     H  558  11.301   1.881   2.478  1.8259  0.9297 -0.7832
  729MOL0     H  559  11.208   2.008   2.421 -1.5630 -0.9578  0.1180
  729MOL0     H  560  11.324   2.206   2.385 -0.5189  2.6511  2.1791
  729MOL0     H  561  11.549   2.285   2.143 -0.8114  0.0854 -0.2152
  729MOL0     H  562  11.582   2.423   2.251  2.2710 -1.1692  0.8626
  729MOL0     H  563  11.416   2.365   2.244 -0.8598 -1.3263 -1.0427
  729MOL0     H  564  11.933   2.586   2.507 -0.1743 -1.0996  3.5572
  729MOL0     H  565  12.126   2.696   2.432 -5.5898  0.4887 -1.3146
  729MOL0     H  566  12.212   2.727   2.176  0.2289 -2.0241 -2.0655
  729MOL0     H  567  12.336   2.766   2.293  1.5385  2.3601 -1.5806
  729MOL0     H  568  12.400   2.829   2.055 -1.8062  1.9695  1.4445
  729MOL0     H  569  12.510   2.726   2.109  0.0165 -1.4114 -2.5520
  729MOL0     H  570  12.270   2.583   1.991  2.1544 -1.9123  3.0089
  729MOL0     H  571  12.444   2.572   1.942 -0.8263 -0.3362  0.6663
  729MOL0     H  572  12.426   2.767   1.826  0.4093 -1.2141 -0.0539
  729MOL0     H  573  12.239   2.789   1.857 -1.7332 -3.4300  0.5344
  729MOL0     H  574  12.349   2.544   1.737  1.0188  0.0294  1.4730
  729MOL0     H  575  12.180   2.606   1.736  0.6305  0.7124  0.0552
  729MOL0     H  576  12.346   2.613   1.538 -0.7509 -1.1917  1.0338
  729MOL0     H  577  12.412   2.759   1.595  1.4509 -1.6305  0.7907
  729MOL0     H  578  12.108   2.705   1.543  2.1488 -2.5075 -0.8457
  729MOL0     H  579  12.203   2.775   1.414 -1.9855 -0.7210 -0.4616
  729MOL0     H  580  12.273   2.961   1.578  0.5475 -0.0629  0.3618
  729MOL0     H  581  12.150   2.887   1.684  0.9696 -1.8311 -0.6449
  729MOL0     H  582  12.288   2.296   2.319 -4.6130 -4.5861  0.5368
  729MOL0     H  583  12.097   2.199   2.412 -0.6417 -0.6757  1.0038
  729MOL0     H  584  11.766   2.111   2.576 -0.2024  1.3568  0.8231
  729MOL0     H  585  11.564   2.017   2.680  0.8067  0.6676  1.1712
  729MOL0     H  586  11.019   1.728   3.699  1.0759 -0.8473  1.9892
  729MOL0     H  587  10.936   1.918   3.814 -0.4486 -0.2672  1.5204
  729MOL0     H  588  10.662   2.029   4.180  1.2435  1.8803  0.2967
  729MOL0     H  589  10.572   2.165   4.354  2.8529 -0.0641 -0.7949
  729MOL0     H  590  10.371   2.224   4.501 -0.8436 -0.4400 -0.6718
  729MOL0     H  591  10.509   2.339   4.493  0.2758 -0.7163 -4.3909
  729MOL0     H  592  10.305   2.375   4.658  2.4748  0.8874  1.0499
  729MOL0     H  593  10.203   2.381   4.519 -0.3444 -1.5258  1.1881
  729MOL0     H  594  10.374   2.585   4.659 -5.0880  2.7008  0.4248
  729MOL0     H  595  10.440   2.567   4.494 -1.0043  1.2084 -0.3324
  729MOL0     H  596  10.149   2.632   4.574  0.3690 -0.8648  0.3012
  729MOL0     H  597  10.178   2.586   4.414 -2.8551  2.1869 -0.2104
  729MOL0     H  598  10.242   2.998   4.460  1.6038  0.2521 -1.5747
  729MOL0     H  599  10.304   2.349   4.085 -3.1006 -2.6328 -0.3303
  729MOL0     H  600  10.334   2.132   3.813  2.5337 -1.1863  0.1057
  729MOL0     H  601  10.295   2.297   3.867  2.1842  0.8595 -0.7240
  729MOL0     H  602  10.454   2.266   3.804  1.2962 -0.7900  0.2753
  730MOL0     O  603   5.398   4.064   2.810  0.6747  0.4408 -0.1549
  730MOL0     C  604   5.332   3.985   2.873  0.2351 -0.2456 -0.7070
  730MOL0     O  605   5.309   3.852   2.834 -0.5304  0.6379  0.3102
  730MOL0     C  606   5.397   3.783   2.745  0.3362  0.5706  0.3996
  730MOL0     C  607   5.537   3.806   2.742  0.0090 -0.3294  0.6122
  730MOL0     C  608   5.614   3.732   2.650  1.0799 -0.2171 -0.2694
  730MOL0     C  609   5.552   3.628   2.575 -0.2688 -0.2248  0.1043
  730MOL0     O  610   5.622   3.536   2.495  0.3411 -0.2408 -0.5344
  730MOL0     C  611   5.700   3.441   2.571 -0.2073 -0.8177  0.1890
  730MOL0     C  612   5.810   3.387   2.480  0.0294 -0.1326 -0.5408
  730MOL0     C  613   5.782   3.254   2.416 -0.6539  0.2656  0.0869
  730MOL0     C  614   5.666   3.248   2.304 -0.1936 -0.3782 -0.1226
  730MOL0     C  615   5.648   3.121   2.225 -0.3988  2.0302 -0.3194
  730MOL0     C  616   5.767   3.054   2.150  0.0918 -0.2286 -0.5322
  730MOL0     C  617   5.839   2.938   2.225  0.2935 -0.3828  0.0276
  730MOL0     C  618   5.744   2.814   2.250  0.3695  0.4112 -0.4974
  730MOL0     N  619   5.834   2.705   2.279 -1.3218  1.0401 -1.2445
  730MOL0     C  620   5.896   2.666   2.399 -0.9333  0.0196 -0.2291
  730MOL0     C  621   5.966   2.556   2.369  0.2277  0.1783  0.8216
  730MOL0     C  622   6.071   2.488   2.461 -0.3621  0.9122 -1.1846
  730MOL0     C  623   6.180   2.410   2.390 -0.4384 -0.0538  0.7124
  730MOL0     C  624   6.272   2.327   2.485  0.5780  0.1031  0.5018
  730MOL0     C  625   6.334   2.416   2.596  0.2157  0.2839  0.3717
  730MOL0     O  626   6.406   2.534   2.548 -0.6637 -0.5930  0.3892
  730MOL0     C  627   6.427   2.646   2.621 -0.4860 -0.5275  0.7303
  730MOL0     C  628   6.434   2.631   2.760 -0.1685  0.5913 -0.8509
  730MOL0     C  629   6.487   2.732   2.839 -0.8659 -0.0400 -1.3608
  730MOL0     C  630   6.499   2.694   2.991 -0.0748  0.7199  1.3763
  730MOL0     C  631   6.506   2.855   2.776  0.2348 -0.0204  0.3261
  730MOL0     C  632   6.519   2.991   2.859  0.7677  0.3036 -0.4962
  730MOL0     O  633   6.568   3.095   2.789 -0.1743  0.0866  0.4824
  730MOL0     C  634   6.572   3.222   2.834 -0.5799 -0.1529  1.2041
  730MOL0     C  635   6.480   3.278   2.926  0.7588 -0.5535 -0.2872
  730MOL0     C  636   6.501   3.412   2.972  1.1386 -0.2161  0.7343
  730MOL0     C  637   6.616   3.480   2.933  0.0359 -0.2722  0.3833
  730MOL0     O  638   6.641   3.603   2.985 -0.1752  0.3207 -0.1384
  730MOL0     C  639   6.774   3.666   2.964  0.1786 -0.2786 -0.5897
  730MOL0     C  640   6.801   3.793   3.049  0.0858 -0.6372  0.2375
  730MOL0     C  641   6.796   3.750   3.198  0.2192  0.3237  0.2218
  730MOL0     C  642   6.852   3.868   3.267  0.1452  0.4555  0.2834
  730MOL0     C  643   6.864   3.852   3.425  0.3677  0.6914  0.6609
  730MOL0     C  644   6.722   3.865   3.491 -0.1354 -0.0477  0.2959
  730MOL0     C  645   6.736   3.819   3.642  0.0692  0.4996 -0.0331
  730MOL0     C  646   6.822   3.900   3.745  0.1480 -0.1711 -0.6023
  730MOL0    Cl  647   6.834   3.822   3.895 -0.8694  0.1805 -0.2074
  730MOL0     C  648   6.689   3.430   2.833  0.2244  0.3388  1.3840
  730MOL0     C  649   6.677   3.300   2.787  0.7463 -0.0514 -1.2067
  730MOL0     O  650   6.468   2.991   2.971  0.0927 -0.5523  0.0398
  730MOL0     C  651   6.488   2.874   2.637 -0.0400 -1.1083 -0.7343
  730MOL0     C  652   6.459   2.758   2.560 -0.0291 -0.0003  0.8299
  730MOL0     N  653   5.951   2.525   2.232  0.2109 -0.3905  0.4796
  730MOL0     N  654   5.871   2.615   2.180  0.5529 -0.7024 -1.0496
  730MOL0     C  655   5.423   3.602   2.577  1.5412 -0.3528 -0.4497
  730MOL0     C  656   5.339   3.685   2.662 -0.9448  0.2225  0.3758
  730MOL0     C  657   5.262   4.031   2.993  0.8125  0.2195  0.2591
  730MOL0     C  658   5.203   3.937   3.074  0.0368 -0.0236 -0.0569
  730MOL0     C  659   5.116   3.972   3.177 -0.7678 -0.2733  0.3494
  730MOL0     C  660   5.076   4.105   3.186  0.2434 -0.0320  1.0173
  730MOL0     O  661   4.973   4.150   3.259  0.6726  0.1400 -0.2533
  730MOL0     C  662   4.858   4.065   3.267 -0.2906  0.4106 -0.0833
  730MOL0     C  663   4.749   4.074   3.160 -0.2157  0.0921  0.1456
  730MOL0     C  664   4.640   3.986   3.214  0.4502 -0.3782 -1.1317
  730MOL0     C  665   4.546   4.069   3.308  1.2082 -0.8129  0.1390
  730MOL0     C  666   4.467   4.157   3.226 -0.3824 -0.7850 -0.4612
  730MOL0     C  667   4.395   4.246   3.181 -0.7046  0.3251  0.6958
  730MOL0     C  668   5.144   4.202   3.114  0.0458 -0.1451 -1.1042
  730MOL0     C  669   5.238   4.170   3.023 -0.3484  0.1102 -0.2852
  730MOL0     C  670   5.310   4.288   2.941 -0.4225  0.1773 -0.2771
  730MOL0     H  671   5.590   3.875   2.807 -1.0782  2.6034 -1.3839
  730MOL0     H  672   5.723   3.733   2.643  1.0426  1.2484 -0.8901
  730MOL0     H  673   5.660   3.347   2.611  2.0689 -1.8743  0.1662
  730MOL0     H  674   5.754   3.491   2.653 -1.4673  0.9080  0.0216
  730MOL0     H  675   5.838   3.460   2.403  0.5071  1.9881  1.5469
  730MOL0     H  676   5.906   3.378   2.530 -1.2736 -2.2540  1.7779
  730MOL0     H  677   5.873   3.219   2.367 -1.7746  1.5711 -3.2511
  730MOL0     H  678   5.754   3.178   2.491 -1.5072 -2.8429 -3.0986
  730MOL0     H  679   5.569   3.264   2.350 -0.9910 -0.4399 -1.7234
  730MOL0     H  680   5.683   3.329   2.233  2.0996 -0.0569  0.6963
  730MOL0     H  681   5.566   3.135   2.153  0.3838  5.3610 -0.7312
  730MOL0     H  682   5.604   3.052   2.297 -0.4929  1.2294 -1.1220
  730MOL0     H  683   5.739   3.014   2.052 -0.5163 -3.2221  0.7377
  730MOL0     H  684   5.840   3.131   2.125  0.5635 -0.4754  0.0466
  730MOL0     H  685   5.885   2.976   2.317  1.6312  0.6378 -1.0275
  730MOL0     H  686   5.926   2.915   2.164 -0.0146 -1.2707 -0.0911
  730MOL0     H  687   5.685   2.837   2.339  1.3416 -1.9564  0.8279
  730MOL0     H  688   5.689   2.786   2.160 -1.2667 -3.2923  1.4324
  730MOL0     H  689   5.902   2.709   2.498 -0.6338  2.8297 -1.3490
  730MOL0     H  690   6.019   2.409   2.517 -0.7777  0.0242 -2.7482
  730MOL0     H  691   6.110   2.562   2.530 -3.2490  2.5776 -1.1683
  730MOL0     H  692   6.138   2.341   2.316  2.1617 -1.1273  0.1620
  730MOL0     H  693   6.239   2.484   2.336 -3.0711  2.2524  0.7629
  730MOL0     H  694   6.212   2.247   2.530  3.5220 -0.9137  2.8896
  730MOL0     H  695   6.353   2.277   2.431  1.5583  3.3245 -1.2832
  730MOL0     H  696   6.252   2.440   2.665  0.2575  0.2321  0.4393
  730MOL0     H  697   6.392   2.357   2.667  0.1952  0.8104  0.8330
  730MOL0     H  698   6.434   2.534   2.810  0.0493 -0.2277 -2.3828
  730MOL0     H  699   6.553   2.599   2.999  0.3315  1.0398  2.5606
  730MOL0     H  700   6.399   2.692   3.035 -1.5104 -1.0128 -1.5731
  730MOL0     H  701   6.555   2.783   3.021  0.5731  1.3170 -1.3106
  730MOL0     H  702   6.400   3.222   2.974 -0.5859  1.3170 -0.2334
  730MOL0     H  703   6.438   3.456   3.049  1.3637  1.5595 -0.0443
  730MOL0     H  704   6.851   3.594   2.992  0.0701 -0.7577 -1.4686
  730MOL0     H  705   6.808   3.695   2.864  1.4800 -0.7546 -0.3045
  730MOL0     H  706   6.905   3.822   3.029  0.5850 -2.3700  0.0654
  730MOL0     H  707   6.733   3.871   3.016 -0.4166 -0.9949  0.4096
  730MOL0     H  708   6.845   3.652   3.206 -0.3573  0.0949  1.0798
  730MOL0     H  709   6.694   3.735   3.234 -0.6653 -3.4472 -3.1011
  730MOL0     H  710   6.786   3.954   3.253 -3.5186 -2.2272 -0.5580
  730MOL0     H  711   6.953   3.886   3.231 -0.0175  0.6725 -0.0692
  730MOL0     H  712   6.902   3.751   3.444 -1.5884  0.2637  2.7216
  730MOL0     H  713   6.937   3.922   3.466 -0.5237  1.1681  1.4686
  730MOL0     H  714   6.652   3.809   3.429  0.6918 -0.2596 -0.4563
  730MOL0     H  715   6.708   3.973   3.491 -0.2446 -0.0624 -0.2826
  730MOL0     H  716   6.767   3.715   3.629  1.1487  0.8802 -0.6632
  730MOL0     H  717   6.633   3.835   3.676 -0.0768  0.1925 -0.3325
  730MOL0     H  718   6.781   4.001   3.753 -0.1120 -0.3236  0.0012
  730MOL0     H  719   6.926   3.912   3.711  0.0034  0.4249 -0.8413
  730MOL0     H  720   6.777   3.476   2.788  1.3226 -2.9213 -0.0377
  730MOL0     H  721   6.742   3.245   2.720  0.8341 -2.1095  0.4573
  730MOL0     H  722   6.496   2.968   2.584 -2.7395  0.2168  0.9821
  730MOL0     H  723   6.458   2.762   2.451 -0.0314 -1.1349  0.7693
  730MOL0     H  724   5.400   3.509   2.526 -0.0281 -0.8873  1.1170
  730MOL0     H  725   5.244   3.656   2.706 -1.0720  1.4854  0.9653
  730MOL0     H  726   5.227   3.833   3.060  0.1361 -0.2184  1.3935
  730MOL0     H  727   5.056   3.902   3.235 -0.2692  2.8782  5.2187
  730MOL0     H  728   4.880   3.959   3.278 -0.1254  0.3326 -1.1219
  730MOL0     H  729   4.820   4.104   3.362 -0.6390  2.0797 -0.8657
  730MOL0     H  730   4.794   4.033   3.069  1.3939 -0.4753  1.1624
  730MOL0     H  731   4.713   4.175   3.134  0.8036 -0.0916 -2.2316
  730MOL0     H  732   4.583   3.935   3.135 -2.7101 -1.6443  1.7272
  730MOL0     H  733   4.673   3.901   3.274 -0.8478  0.3148  0.6714
  730MOL0     H  734   4.615   4.114   3.380  3.1446 -1.7678 -1.0477
  730MOL0     H  735   4.472   4.003   3.355  0.1254  0.9428  1.0162
  730MOL0     H  736   4.324   4.313   3.138 -0.0301  0.6559  0.0925
  730MOL0     H  737   5.116   4.306   3.123  1.9899  0.3049  0.2633
  730MOL0     H  738   5.286   4.382   2.991 -2.3206 -0.4987  0.1979
  730MOL0     H  739   5.416   4.264   2.934 -1.0537 -3.8526  1.1118
  730MOL0     H  740   5.282   4.282   2.835  0.6204 -0.6384 -0.5304
  731MOL0     O  741   8.097   5.247   4.987 -0.2657 -0.1394  0.0703
  731MOL0     C  742   8.169   5.328   5.049 -0.6459 -1.0599 -0.1376
  731MOL0     O  743   8.117   5.432   5.124 -0.8565  0.4096  0.0957
  731MOL0     C  744   7.988   5.482   5.094  1.0169  0.0821 -0.6051
  731MOL0     C  745   7.936   5.559   5.201  0.4588 -0.6601  1.0908
  731MOL0     C  746   7.821   5.646   5.176  0.8677  1.5410 -0.1451
  731MOL0     C  747   7.740   5.636   5.068 -1.2683 -0.0414  0.2797
  731MOL0     O  748   7.632   5.717   5.071 -0.5122  0.1714  0.2466
  731MOL0     C  749   7.499   5.662   5.035 -0.6219 -0.4005 -0.3399
  731MOL0     C  750   7.392   5.758   5.071  0.7875 -1.0713 -0.3346
  731MOL0     C  751   7.388   5.884   4.977 -0.0343  0.8484  0.6771
  731MOL0     C  752   7.275   5.982   4.995  0.4667 -0.4826 -0.3438
  731MOL0     C  753   7.317   6.126   4.978  0.1971  0.1514 -0.8065
  731MOL0     C  754   7.328   6.160   4.833 -0.3589 -0.3573  0.2409
  731MOL0     C  755   7.303   6.308   4.821 -0.0998 -0.3777  0.9174
  731MOL0     C  756   7.311   6.351   4.667 -0.3535 -0.8208 -0.8630
  731MOL0     N  757   7.210   6.290   4.582  0.3029 -0.4115  0.0733
  731MOL0     C  758   7.243   6.272   4.449  0.4343  1.4562  1.1424
  731MOL0     C  759   7.133   6.279   4.369  0.1710 -0.0389 -0.5463
  731MOL0     C  760   7.115   6.266   4.221 -0.3557 -0.0270 -0.5901
  731MOL0     C  761   7.150   6.125   4.168 -0.3895  0.7292 -0.1835
  731MOL0     C  762   7.078   6.086   4.037  0.0222  0.1891 -0.1036
  731MOL0     C  763   7.143   5.970   3.968  0.3436 -0.0820  0.4543
  731MOL0     O  764   7.064   5.935   3.856  0.1867 -0.9631 -0.2087
  731MOL0     C  765   7.092   5.825   3.775 -0.3712 -0.2537  0.7926
  731MOL0     C  766   7.202   5.737   3.804 -0.7861 -0.0492  0.8426
  731MOL0     C  767   7.242   5.632   3.725  0.1789 -1.2690  0.4166
  731MOL0     C  768   7.369   5.558   3.761 -0.2180 -1.3575 -0.0109
  731MOL0     C  769   7.162   5.599   3.607 -0.6505 -0.2679  0.6907
  731MOL0     C  770   7.184   5.493   3.505 -0.3623  0.0198 -0.2262
  731MOL0     O  771   7.086   5.468   3.414 -0.2610  0.1792 -0.0804
  731MOL0     C  772   7.104   5.362   3.334  0.6199  0.8386  0.5252
  731MOL0     C  773   7.022   5.241   3.345  0.7215 -0.8299  0.7842
  731MOL0     C  774   7.049   5.136   3.259  0.7748  0.0295  0.2313
  731MOL0     C  775   7.143   5.144   3.151  0.8273  0.6121  0.3397
  731MOL0     O  776   7.179   5.039   3.071  0.5038 -0.2318  0.2261
  731MOL0     C  777   7.094   4.925   3.060  0.0392  0.3249 -0.6033
  731MOL0     C  778   6.979   4.952   2.975  0.6050 -0.2406  0.1545
  731MOL0     C  779   7.030   4.958   2.831 -0.4555 -0.5390  0.5384
  731MOL0     C  780   7.062   4.818   2.794 -0.2498 -0.3286  0.3939
  731MOL0     C  781   7.102   4.804   2.643  0.1414  0.2104 -0.2818
  731MOL0     C  782   7.192   4.684   2.607  0.6946 -0.3760  0.1619
  731MOL0     C  783   7.136   4.541   2.617  1.4429 -0.5662 -0.5225
  731MOL0     C  784   7.225   4.448   2.546  0.3582  0.6282 -0.4558
  731MOL0    Cl  785   7.386   4.431   2.638  0.4544  0.7812  0.1317
  731MOL0     C  786   7.213   5.255   3.130  0.1672 -1.0133 -0.2616
  731MOL0     C  787   7.182   5.370   3.220  0.3425  0.6408  0.6805
  731MOL0     O  788   7.299   5.448   3.505  0.5493  0.2589 -0.5353
  731MOL0     C  789   7.049   5.685   3.582  0.0734 -0.6930 -0.2879
  731MOL0     C  790   7.010   5.797   3.662  0.3720 -0.5458  0.2480
  731MOL0     N  791   7.032   6.301   4.461 -0.3387 -0.1015 -0.6519
  731MOL0     N  792   7.079   6.319   4.585  0.5327  0.4481  0.3991
  731MOL0     C  793   7.782   5.531   4.977  0.1422 -1.4048  1.0371
  731MOL0     C  794   7.909   5.467   4.984  0.1560 -0.7033  0.7223
  731MOL0     C  795   8.304   5.300   5.083 -0.2841  0.3114 -0.7446
  731MOL0     C  796   8.399   5.430   5.218  0.4092  0.0594  0.4173
  731MOL0     C  797   8.580   5.373   5.315 -0.3813  1.1789  0.4394
  731MOL0     C  798   8.660   5.181   5.273 -0.1123 -1.0069 -0.9456
  731MOL0     O  799   8.767   5.150   5.348 -0.0266  0.4307  0.1223
  731MOL0     C  800   8.771   5.206   5.483 -0.6918  0.1933  0.1544
  731MOL0     C  801   8.880   5.150   5.583 -0.2748  0.1257 -0.6525
  731MOL0     C  802   8.869   5.198   5.721 -0.4533 -0.0344  0.5258
  731MOL0     C  803   8.883   5.348   5.743  0.2006 -0.8138 -0.1783
  731MOL0     C  804   8.760   5.419   5.702 -0.3110  0.4807  0.5029
  731MOL0     C  805   8.666   5.469   5.652  0.6429  0.5076  0.4454
  731MOL0     C  806   8.560   5.053   5.144 -0.9089  0.0056  0.5938
  731MOL0     C  807   8.387   5.110   5.048 -0.3550 -0.0343 -0.3158
  731MOL0     C  808   8.309   5.021   4.957  0.3502 -0.2375 -0.5857
  731MOL0     H  809   8.003   5.570   5.286  1.7726 -0.2495  0.0426
  731MOL0     H  810   7.785   5.705   5.260 -1.3782 -0.5842  0.5237
  731MOL0     H  811   7.492   5.570   5.092 -0.0007 -0.6816 -0.7066
  731MOL0     H  812   7.489   5.635   4.930 -1.2926 -0.6759 -0.2069
  731MOL0     H  813   7.297   5.709   5.094  1.1696 -0.9770  1.6052
  731MOL0     H  814   7.425   5.798   5.168  0.3259 -3.0282  0.6700
  731MOL0     H  815   7.485   5.931   4.998 -0.0665  0.9479  0.5989
  731MOL0     H  816   7.386   5.844   4.875  2.0310  2.9669 -0.2781
  731MOL0     H  817   7.201   5.954   4.920 -1.1867 -0.4030  1.1678
  731MOL0     H  818   7.228   5.980   5.094 -0.7050 -0.2248 -0.8788
  731MOL0     H  819   7.407   6.152   5.034 -2.2238  2.7380  2.2245
  731MOL0     H  820   7.247   6.199   5.019 -1.5676 -1.0234 -1.6108
  731MOL0     H  821   7.428   6.136   4.796 -0.6194 -3.4776  1.3105
  731MOL0     H  822   7.248   6.112   4.776 -2.0092  0.9685  1.3469
  731MOL0     H  823   7.366   6.371   4.885  1.1232  1.3066 -1.7505
  731MOL0     H  824   7.199   6.328   4.850  0.0726  0.8379  0.7586
  731MOL0     H  825   7.282   6.456   4.669 -2.3093 -1.3159  1.8760
  731MOL0     H  826   7.403   6.324   4.615 -0.4032 -3.3170  0.1714
  731MOL0     H  827   7.336   6.265   4.394  1.5628  0.8364  3.0569
  731MOL0     H  828   7.174   6.337   4.162 -0.5972  1.2435  0.6516
  731MOL0     H  829   7.013   6.298   4.199 -0.3691  1.0209  0.8390
  731MOL0     H  830   7.258   6.126   4.153 -0.0557 -1.6684  1.4636
  731MOL0     H  831   7.127   6.061   4.254  1.9886  0.9931  0.7384
  731MOL0     H  832   6.974   6.058   4.057  1.2131 -3.7987  1.4421
  731MOL0     H  833   7.084   6.170   3.968 -0.3620  0.2118 -0.1105
  731MOL0     H  834   7.242   6.008   3.943 -0.0480  0.4431 -0.3584
  731MOL0     H  835   7.144   5.883   4.034 -3.3632 -1.9220 -1.5658
  731MOL0     H  836   7.272   5.762   3.883  1.3789 -1.0154 -0.6603
  731MOL0     H  837   7.338   5.455   3.781  1.4670 -1.8320  0.2792
  731MOL0     H  838   7.414   5.589   3.855 -0.1182  0.2190 -0.5441
  731MOL0     H  839   7.442   5.569   3.680 -0.2068  4.4835  0.3324
  731MOL0     H  840   6.948   5.236   3.424 -0.4885  2.1086 -0.0092
  731MOL0     H  841   6.996   5.042   3.268  3.0047 -1.4419 -1.1126
  731MOL0     H  842   7.150   4.834   3.038  1.8614  1.2119  0.1504
  731MOL0     H  843   7.060   4.891   3.158 -1.3359 -0.1606 -1.2237
  731MOL0     H  844   6.897   4.880   2.977 -1.4060  1.6404 -3.6131
  731MOL0     H  845   6.939   5.052   2.992 -1.3497 -0.8396 -0.6986
  731MOL0     H  846   7.114   5.027   2.823 -0.7292 -0.2678 -0.0405
  731MOL0     H  847   6.954   5.001   2.766  0.8441  0.6738 -0.2266
  731MOL0     H  848   6.984   4.744   2.815 -1.1010  0.5942  0.5823
  731MOL0     H  849   7.151   4.781   2.846 -1.1223 -1.4134  1.1588
  731MOL0     H  850   7.015   4.815   2.578 -0.3920 -0.5222  0.2805
  731MOL0     H  851   7.169   4.888   2.624  1.3582 -0.4887  0.7445
  731MOL0     H  852   7.279   4.703   2.670 -0.8059  2.9209  1.4839
  731MOL0     H  853   7.221   4.693   2.502  0.0107  0.4641  0.0308
  731MOL0     H  854   7.034   4.539   2.578  0.3072  0.6704  2.1060
  731MOL0     H  855   7.127   4.523   2.725  0.5641  5.1327  0.7124
  731MOL0     H  856   7.245   4.481   2.444 -2.0838 -3.3737 -2.4875
  731MOL0     H  857   7.166   4.356   2.532 -0.4191  0.4367  3.1451
  731MOL0     H  858   7.271   5.276   3.041 -0.2657  1.9267  0.0413
  731MOL0     H  859   7.239   5.462   3.208 -2.4471  2.4840  0.5502
  731MOL0     H  860   6.992   5.685   3.490 -0.2888  2.7714 -0.1923
  731MOL0     H  861   6.922   5.851   3.629 -1.3425 -3.2733  0.1203
  731MOL0     H  862   7.720   5.518   4.889  2.0314  1.9591 -1.0163
  731MOL0     H  863   7.927   5.412   4.892 -0.2574  1.3894 -0.6864
  731MOL0     H  864   8.356   5.529   5.231 -2.9182 -1.0840 -0.6998
  731MOL0     H  865   8.622   5.441   5.389  0.7107 -1.8152  2.7648
  731MOL0     H  866   8.788   5.314   5.486  0.2105  0.0357  2.0307
  731MOL0     H  867   8.676   5.196   5.536 -0.2372  1.1155  1.1732
  731MOL0     H  868   8.979   5.166   5.540  0.4585 -1.9561  0.1417
  731MOL0     H  869   8.886   5.041   5.590  1.9494  0.2905  0.9370
  731MOL0     H  870   8.766   5.187   5.756 -0.5391 -0.3130  0.1868
  731MOL0     H  871   8.941   5.153   5.789  0.6395 -1.9609 -1.7512
  731MOL0     H  872   8.971   5.389   5.693  1.2643 -2.6733  0.0766
  731MOL0     H  873   8.898   5.358   5.851  1.6380  0.2892 -0.4441
  731MOL0     H  874   8.572   5.506   5.618 -0.6207 -1.8582  1.1738
  731MOL0     H  875   8.607   4.958   5.118  0.6409  1.9334 -5.3437
  731MOL0     H  876   8.300   5.064   4.857 -0.3657 -0.7687 -0.7528
  731MOL0     H  877   8.369   4.930   4.947  1.7500  0.5386  0.3933
  731MOL0     H  878   8.207   4.998   4.990 -1.7431 -0.0758 -5.9030
  732MOL0     O  879   5.046   6.524   3.904  0.0428  0.2061 -0.0560
  732MOL0     C  880   5.038   6.582   4.016 -0.2558 -0.1977 -0.2398
  732MOL0     O  881   5.133   6.661   4.069 -0.6862  0.9971 -0.4359
  732MOL0     C  882   5.260   6.654   4.009 -0.6560 -0.8149  0.6096
  732MOL0     C  883   5.287   6.710   3.879  0.7805 -0.9220 -0.1523
  732MOL0     C  884   5.410   6.707   3.822 -0.6706  0.2470 -0.7068
  732MOL0     C  885   5.517   6.651   3.896  0.4299 -0.3734 -0.2667
  732MOL0     O  886   5.642   6.638   3.841  0.0659 -0.0263  0.5293
  732MOL0     C  887   5.673   6.655   3.699 -0.0172  0.8473 -0.1525
  732MOL0     C  888   5.835   6.628   3.707  0.4168  0.6827  0.0030
  732MOL0     C  889   5.889   6.581   3.573 -0.5409  0.1747 -0.1524
  732MOL0     C  890   5.851   6.439   3.543 -0.7510 -0.6518  1.0515
  732MOL0     C  891   5.891   6.403   3.396 -0.2832 -0.0625 -0.9934
  732MOL0     C  892   5.809   6.294   3.340 -0.1851  0.3864  0.2007
  732MOL0     C  893   5.857   6.261   3.204 -0.1678  0.7821 -0.5623
  732MOL0     C  894   5.807   6.123   3.133  0.4714 -0.0538 -0.2240
  732MOL0     N  895   5.866   6.007   3.194  0.1948  0.0007  0.5409
  732MOL0     C  896   5.990   5.966   3.143  0.1420  1.0214  0.2190
  732MOL0     C  897   6.020   5.863   3.232  0.6012 -0.3888 -0.4930
  732MOL0     C  898   6.154   5.798   3.197  1.3403  0.1610  0.3373
  732MOL0     C  899   6.258   5.872   3.274  0.8210 -0.3226 -0.4586
  732MOL0     C  900   6.401   5.827   3.228  0.3211 -0.8779 -0.2332
  732MOL0     C  901   6.441   5.912   3.109  0.6299  0.3775 -0.5172
  732MOL0     O  902   6.569   5.856   3.075  0.3354 -0.0075 -0.0803
  732MOL0     C  903   6.575   5.796   2.955 -1.0223  0.2703  0.2796
  732MOL0     C  904   6.637   5.856   2.848 -0.0800 -0.0638  0.0047
  732MOL0     C  905   6.663   5.785   2.733 -0.9162 -0.4256 -0.1295
  732MOL0     C  906   6.717   5.878   2.625 -0.7315  0.5576  0.2843
  732MOL0     C  907   6.633   5.650   2.715  0.7812 -0.9295 -0.3374
  732MOL0     C  908   6.666   5.575   2.588  0.2905 -0.0232 -0.0075
  732MOL0     O  909   6.639   5.438   2.582 -0.4422 -0.6440 -0.3118
  732MOL0     C  910   6.658   5.378   2.462 -0.4155 -0.6133  0.2589
  732MOL0     C  911   6.741   5.268   2.453  0.2147  0.0594 -0.0200
  732MOL0     C  912   6.745   5.199   2.331 -0.2479  0.4592 -0.0895
  732MOL0     C  913   6.681   5.235   2.212  0.0025 -0.0964  0.3111
  732MOL0     O  914   6.694   5.159   2.099 -0.3680 -1.1510  0.1273
  732MOL0     C  915   6.589   5.180   2.001  0.1070 -0.1340 -0.3660
  732MOL0     C  916   6.630   5.074   1.892 -0.0991 -0.5350 -1.0340
  732MOL0     C  917   6.659   4.935   1.960 -0.6771  0.1155  0.3987
  732MOL0     C  918   6.677   4.826   1.852  0.3767 -0.1967 -0.1064
  732MOL0     C  919   6.689   4.693   1.921 -0.5220 -0.5364 -0.6713
  732MOL0     C  920   6.722   4.579   1.814  0.1636 -0.1112  0.6701
  732MOL0     C  921   6.609   4.531   1.727 -0.4930 -0.1643  0.1803
  732MOL0     C  922   6.546   4.397   1.769 -0.2106 -0.4711 -0.3272
  732MOL0    Cl  923   6.493   4.400   1.937  0.2052  0.4041  0.7053
  732MOL0     C  924   6.607   5.352   2.220 -0.0964 -0.3023  0.5473
  732MOL0     C  925   6.594   5.421   2.343  0.2471 -0.5366 -0.1689
  732MOL0     O  926   6.733   5.636   2.506 -0.5902  0.2031  0.1606
  732MOL0     C  927   6.563   5.591   2.817 -0.0539 -0.0546 -1.1812
  732MOL0     C  928   6.541   5.656   2.944  0.0428 -0.5477  0.0237
  732MOL0     N  929   5.924   5.861   3.335 -0.6214 -0.7497  0.2279
  732MOL0     N  930   5.827   5.936   3.298  0.0068  0.1748  0.0570
  732MOL0     C  931   5.493   6.595   4.021  0.4795  0.7817  0.7071
  732MOL0     C  932   5.365   6.595   4.070  0.2518  0.9497 -0.6649
  732MOL0     C  933   4.897   6.592   4.072  1.2514  0.4685  0.8359
  732MOL0     C  934   4.794   6.547   3.985 -0.1799 -0.6991  0.6964
  732MOL0     C  935   4.672   6.540   4.037 -0.4538  0.8676  0.4437
  732MOL0     C  936   4.639   6.580   4.166  0.0299 -0.6968  0.0343
  732MOL0     O  937   4.512   6.562   4.223  0.6664  0.2684 -0.7979
  732MOL0     C  938   4.501   6.435   4.289  0.6696 -0.2615 -0.1475
  732MOL0     C  939   4.357   6.381   4.269  0.3509 -0.0045 -0.4457
  732MOL0     C  940   4.241   6.459   4.328  0.7075  0.2111  0.5916
  732MOL0     C  941   4.106   6.399   4.303  0.8468  0.5286  0.6246
  732MOL0     C  942   4.069   6.397   4.158 -1.0491 -0.0669  0.3074
  732MOL0     C  943   4.056   6.420   4.038  0.9911  1.1770 -0.2567
  732MOL0     C  944   4.738   6.634   4.242  0.1718 -1.3647  0.4470
  732MOL0     C  945   4.868   6.640   4.201  0.6180  0.0983 -0.9537
  732MOL0     C  946   4.964   6.699   4.300 -0.1628 -0.0435  0.3041
  732MOL0     H  947   5.218   6.766   3.816 -0.1297 -1.5972  0.2182
  732MOL0     H  948   5.438   6.756   3.729  2.3665  2.1492  1.0193
  732MOL0     H  949   5.648   6.752   3.656 -3.1242  0.5023  0.6191
  732MOL0     H  950   5.614   6.583   3.641  0.3876  0.8006 -0.5025
  732MOL0     H  951   5.882   6.718   3.747  1.1240 -0.9506  3.2076
  732MOL0     H  952   5.851   6.544   3.776 -0.3839 -1.3056 -2.1145
  732MOL0     H  953   5.847   6.653   3.502  1.6811  0.1671 -1.5655
  732MOL0     H  954   5.998   6.583   3.570 -0.3632 -1.8038  2.1957
  732MOL0     H  955   5.899   6.366   3.609  2.4491  1.0272  0.7488
  732MOL0     H  956   5.743   6.422   3.557 -1.0019 -1.7387 -1.5040
  732MOL0     H  957   5.999   6.390   3.388 -0.2060  0.6113 -1.1669
  732MOL0     H  958   5.863   6.490   3.336  0.2566 -0.6062 -2.0399
  732MOL0     H  959   5.836   6.202   3.393 -2.3878 -0.4286  0.0095
  732MOL0     H  960   5.701   6.308   3.348 -0.8016 -3.7719  2.0489
  732MOL0     H  961   5.966   6.252   3.212 -0.2241 -0.6984 -1.1902
  732MOL0     H  962   5.822   6.337   3.133  0.2166  2.8503  1.3171
  732MOL0     H  963   5.701   6.111   3.155  0.2062  1.7932 -0.2760
  732MOL0     H  964   5.824   6.127   3.025  1.2990  2.0409 -0.0863
  732MOL0     H  965   6.037   6.003   3.052  0.7133 -1.0373 -0.3856
  732MOL0     H  966   6.167   5.801   3.089  2.9012  2.4468  0.5297
  732MOL0     H  967   6.131   5.696   3.232 -0.4533  0.4413  0.0962
  732MOL0     H  968   6.242   5.981   3.274 -1.2986 -0.5861 -2.0095
  732MOL0     H  969   6.247   5.834   3.375 -0.4802 -1.7644 -1.1067
  732MOL0     H  970   6.475   5.837   3.309 -0.3755 -0.4056  0.3557
  732MOL0     H  971   6.392   5.723   3.195 -0.3934 -0.6075 -0.9073
  732MOL0     H  972   6.363   5.907   3.032 -1.1867 -2.3746  1.3105
  732MOL0     H  973   6.443   6.012   3.153 -2.1833 -0.9241  3.1243
  732MOL0     H  974   6.665   5.961   2.853 -0.3591  0.1498 -2.1262
  732MOL0     H  975   6.678   5.866   2.523 -1.6425 -2.9946  0.9086
  732MOL0     H  976   6.822   5.851   2.629 -0.3152  1.6737 -1.9225
  732MOL0     H  977   6.699   5.982   2.653 -2.8476 -0.0491  1.4293
  732MOL0     H  978   6.791   5.239   2.545  1.8082  0.5979 -0.6730
  732MOL0     H  979   6.802   5.107   2.338  0.2270  0.7974  6.0811
  732MOL0     H  980   6.494   5.152   2.047 -0.0020 -1.6161 -1.4155
  732MOL0     H  981   6.598   5.280   1.957  1.5222  0.0166  0.2087
  732MOL0     H  982   6.547   5.064   1.821 -0.6111 -0.8487 -0.3970
  732MOL0     H  983   6.730   5.092   1.853  0.3029 -3.5910 -1.7133
  732MOL0     H  984   6.580   4.902   2.029  0.9285  0.0669  2.2970
  732MOL0     H  985   6.746   4.940   2.026  1.3289 -1.1824 -1.9752
  732MOL0     H  986   6.757   4.847   1.781  1.1000 -1.8934  0.1502
  732MOL0     H  987   6.582   4.824   1.799 -0.5355  2.0098  1.3006
  732MOL0     H  988   6.771   4.697   1.993 -0.7701 -0.4313 -0.3968
  732MOL0     H  989   6.596   4.666   1.973 -1.7778  2.4637 -1.1866
  732MOL0     H  990   6.749   4.497   1.880  2.6555  1.2362  1.4586
  732MOL0     H  991   6.803   4.614   1.750 -0.4069 -0.0251 -0.0205
  732MOL0     H  992   6.654   4.522   1.628  3.2907  0.6953  1.6520
  732MOL0     H  993   6.540   4.616   1.730  0.2435  0.4220  0.8997
  732MOL0     H  994   6.624   4.320   1.761  2.5130  1.0678  5.3053
  732MOL0     H  995   6.461   4.375   1.705  0.0609  0.1487 -0.9093
  732MOL0     H  996   6.561   5.389   2.129  2.2945 -1.2888 -1.1923
  732MOL0     H  997   6.542   5.516   2.345  0.0352 -0.5602  3.7292
  732MOL0     H  998   6.531   5.487   2.821  1.5211 -0.5904  3.2994
  732MOL0     H  999   6.504   5.586   3.018  3.8496 -2.7344  0.1099
  732MOL0     H 1000   5.573   6.536   4.065  0.2463 -2.4008 -2.6545
  732MOL0     H 1001   5.347   6.541   4.163 -0.9482  2.5017  0.0480
  732MOL0     H 1002   4.816   6.527   3.880  0.7996  0.9290  0.5475
  732MOL0     H 1003   4.598   6.481   3.984 -0.9312  0.0522  1.9375
  732MOL0     H 1004   4.576   6.365   4.252  1.4341  1.4721 -2.1165
  732MOL0     H 1005   4.522   6.439   4.396 -1.8663 -3.7014  0.6611
  732MOL0     H 1006   4.351   6.284   4.320  0.3293 -0.7975 -1.8866
  732MOL0     H 1007   4.337   6.369   4.162 -1.7428 -4.0757  0.2057
  732MOL0     H 1008   4.258   6.457   4.436  1.8413  0.7809  0.4427
  732MOL0     H 1009   4.226   6.562   4.293 -4.5612 -0.5891 -0.3500
  732MOL0     H 1010   4.024   6.456   4.348  1.0299  1.6192 -0.3708
  732MOL0     H 1011   4.100   6.295   4.337 -0.3518  0.3691 -0.0077
  732MOL0     H 1012   4.061   6.436   3.932  2.1754 -3.3712 -1.0944
  732MOL0     H 1013   4.711   6.668   4.341 -1.8522 -1.4232 -0.0539
  732MOL0     H 1014   5.022   6.611   4.328  1.3564 -0.2998 -3.0641
  732MOL0     H 1015   5.032   6.775   4.261 -0.4413 -0.6704 -1.5299
  732MOL0     H 1016   4.910   6.746   4.382 -3.5131 -0.9982 -1.1735
  733MOL0     O 1017   4.524   2.843   6.813 -0.2044 -0.4754  0.9098
  733MOL0     C 1018   4.496   2.945   6.887 -0.8269  0.6882 -0.3291
  733MOL0     O 1019   4.441   3.059   6.836  0.0408 -0.3782  0.1849
  733MOL0     C 1020   4.435   3.098   6.702  0.6357  0.1403 -0.0144
  733MOL0     C 1021   4.321   3.155   6.647  0.7497  0.1167 -0.6079
  733MOL0     C 1022   4.314   3.188   6.509  0.1911  0.1649 -0.2678
  733MOL0     C 1023   4.420   3.163   6.421  0.5481  0.9724 -1.5008
  733MOL0     O 1024   4.434   3.231   6.309  0.8469  0.0635  0.7496
  733MOL0     C 1025   4.336   3.192   6.205  0.1503  0.4282 -0.7659
  733MOL0     C 1026   4.402   3.227   6.066 -0.1816 -0.0777 -0.0695
  733MOL0     C 1027   4.531   3.156   6.035 -0.2501 -0.4475 -0.5193
  733MOL0     C 1028   4.566   3.194   5.892 -1.0363  0.7638 -0.1021
  733MOL0     C 1029   4.711   3.147   5.861 -0.9168  0.7454 -0.2959
  733MOL0     C 1030   4.779   3.195   5.727 -0.5790  0.1143 -0.0615
  733MOL0     C 1031   4.702   3.134   5.610 -0.7952 -0.8084 -0.2259
  733MOL0     C 1032   4.785   3.148   5.477  1.7755  0.7242  0.1956
  733MOL0     N 1033   4.842   3.282   5.448  0.7655  0.5207  0.1689
  733MOL0     C 1034   4.797   3.406   5.488 -0.4913 -0.3295 -0.5133
  733MOL0     C 1035   4.881   3.506   5.448  0.2383  0.1357  0.2503
  733MOL0     C 1036   4.865   3.650   5.486  0.2081  0.7896  0.2090
  733MOL0     C 1037   4.882   3.673   5.635  0.7440 -0.5884 -0.4970
  733MOL0     C 1038   4.839   3.823   5.682  0.6768 -0.2756 -1.3148
  733MOL0     C 1039   4.708   3.818   5.776 -0.6196  0.0868  1.3033
  733MOL0     O 1040   4.752   3.798   5.913 -0.0272 -1.0724 -0.3244
  733MOL0     C 1041   4.670   3.766   6.015 -0.4039  0.1061 -0.7494
  733MOL0     C 1042   4.719   3.761   6.152  0.5580  0.2416 -0.0123
  733MOL0     C 1043   4.643   3.739   6.256 -0.5230 -0.3054 -0.4524
  733MOL0     C 1044   4.706   3.744   6.390 -1.5510 -0.4007 -0.5689
  733MOL0     C 1045   4.509   3.699   6.236 -1.0672  0.9902 -0.8266
  733MOL0     C 1046   4.416   3.658   6.345  0.9428 -0.4113  0.0544
  733MOL0     O 1047   4.276   3.685   6.321 -0.2695  0.2893 -0.1966
  733MOL0     C 1048   4.191   3.624   6.415 -1.1673 -1.4671 -0.2499
  733MOL0     C 1049   4.174   3.685   6.545  0.0281  0.3803 -0.4267
  733MOL0     C 1050   4.086   3.615   6.634 -0.2459  0.4953 -0.5784
  733MOL0     C 1051   4.026   3.498   6.598  0.2520 -0.3455 -0.2927
  733MOL0     O 1052   3.946   3.443   6.696  0.6254 -0.9607  0.7925
  733MOL0     C 1053   3.945   3.300   6.705  0.8085  0.6556  0.1143
  733MOL0     C 1054   3.922   3.255   6.852  0.4985 -0.3033 -0.0044
  733MOL0     C 1055   3.884   3.111   6.877  0.2972  0.3342  0.8367
  733MOL0     C 1056   3.952   3.010   6.777 -0.7055  0.5309  0.1754
  733MOL0     C 1057   3.924   2.866   6.825  1.2397 -0.5729  0.4367
  733MOL0     C 1058   3.979   2.763   6.733 -0.0350 -0.4645  0.0601
  733MOL0     C 1059   4.132   2.772   6.698 -0.0344  0.2458 -0.1621
  733MOL0     C 1060   4.202   2.647   6.647 -0.6634  0.0328  0.6583
  733MOL0    Cl 1061   4.165   2.593   6.483 -0.2700 -0.0294  0.3744
  733MOL0     C 1062   4.049   3.433   6.479 -0.0108  0.1694  0.4500
  733MOL0     C 1063   4.132   3.501   6.384 -0.3285 -0.1264  0.6193
  733MOL0     O 1064   4.458   3.585   6.427 -0.0203 -0.2158 -0.3114
  733MOL0     C 1065   4.454   3.701   6.107 -1.0086  0.2809 -0.0271
  733MOL0     C 1066   4.535   3.730   6.001  0.0829 -0.4772 -0.4320
  733MOL0     N 1067   4.980   3.432   5.381  0.7798  1.3898 -1.0955
  733MOL0     N 1068   4.951   3.302   5.374  0.1898 -0.3937  0.6144
  733MOL0     C 1069   4.539   3.109   6.475  0.9210  0.7466  0.4201
  733MOL0     C 1070   4.545   3.069   6.613 -0.0921  0.3564 -0.9007
  733MOL0     C 1071   4.497   2.929   7.035 -0.0768  0.3781  0.0864
  733MOL0     C 1072   4.416   3.017   7.110  0.4427 -1.0314  0.2408
  733MOL0     C 1073   4.422   3.019   7.251  0.2863  0.0087 -0.3346
  733MOL0     C 1074   4.501   2.938   7.313 -0.3333  0.5720 -1.4837
  733MOL0     O 1075   4.512   2.964   7.446  0.4592  0.4356  0.8412
  733MOL0     C 1076   4.412   2.913   7.536  1.1361  1.1886 -0.2455
  733MOL0     C 1077   4.480   2.861   7.677 -0.0245 -1.1726  0.7738
  733MOL0     C 1078   4.519   2.983   7.759  0.0092  0.1666 -0.9820
  733MOL0     C 1079   4.663   3.031   7.742  0.1262  0.5955  0.0260
  733MOL0     C 1080   4.772   2.943   7.783 -1.0889 -0.1285  0.3982
  733MOL0     C 1081   4.866   2.868   7.805 -0.2205 -0.5394  0.4580
  733MOL0     C 1082   4.588   2.846   7.249  0.3783 -1.3380 -0.0515
  733MOL0     C 1083   4.588   2.835   7.107  1.2672  0.5068  0.4621
  733MOL0     C 1084   4.701   2.745   7.053  0.3495 -0.1202  0.6006
  733MOL0     H 1085   4.240   3.172   6.718  0.6333  1.8750 -1.1055
  733MOL0     H 1086   4.233   3.249   6.471 -1.8657 -2.7005 -0.7854
  733MOL0     H 1087   4.245   3.252   6.208  0.1049  0.3513 -0.5960
  733MOL0     H 1088   4.307   3.087   6.222 -1.2906  0.9545  0.2150
  733MOL0     H 1089   4.340   3.180   5.989 -0.0573  1.1170 -0.9172
  733MOL0     H 1090   4.401   3.336   6.053 -2.0205 -0.1714 -1.1024
  733MOL0     H 1091   4.609   3.193   6.103 -0.2799 -0.6755 -0.3588
  733MOL0     H 1092   4.526   3.049   6.059  0.7076 -0.1048  1.4759
  733MOL0     H 1093   4.503   3.143   5.820 -0.1441 -0.8244  0.1794
  733MOL0     H 1094   4.556   3.299   5.865  0.1336  1.3865  1.6940
  733MOL0     H 1095   4.707   3.038   5.852  0.0016  0.7955 -1.5462
  733MOL0     H 1096   4.763   3.190   5.946 -1.3986  1.6055 -0.4247
  733MOL0     H 1097   4.795   3.302   5.741  0.2234  0.2445 -1.7501
  733MOL0     H 1098   4.877   3.147   5.726  0.0159  1.2885 -0.0871
  733MOL0     H 1099   4.605   3.182   5.591 -2.2864 -4.5917 -3.6891
  733MOL0     H 1100   4.685   3.030   5.640  2.8174 -1.4982 -0.1866
  733MOL0     H 1101   4.869   3.079   5.486  1.2962  0.1591  0.3316
  733MOL0     H 1102   4.722   3.118   5.392  1.2944 -2.9011  1.6525
  733MOL0     H 1103   4.705   3.410   5.545  2.3646 -1.2422  4.7812
  733MOL0     H 1104   4.767   3.670   5.442 -0.1070 -1.0486 -0.0282
  733MOL0     H 1105   4.946   3.696   5.429  1.8806 -1.0567  0.9778
  733MOL0     H 1106   4.826   3.598   5.692 -0.6548  3.4312  4.0845
  733MOL0     H 1107   4.986   3.670   5.668  0.1797 -0.9283  1.3810
  733MOL0     H 1108   4.924   3.861   5.740  1.8600  0.3280 -3.3369
  733MOL0     H 1109   4.827   3.890   5.597  0.4261 -0.7795 -1.6847
  733MOL0     H 1110   4.647   3.909   5.779 -0.5177  0.2622 -0.7674
  733MOL0     H 1111   4.650   3.734   5.737  0.9911 -0.4971  0.0538
  733MOL0     H 1112   4.824   3.787   6.165  1.3006 -1.7061 -1.7065
  733MOL0     H 1113   4.766   3.654   6.406 -0.9314 -0.6615 -3.7273
  733MOL0     H 1114   4.632   3.754   6.470 -0.1265  1.4946  0.6037
  733MOL0     H 1115   4.770   3.833   6.387 -0.2440 -1.3291 -2.6320
  733MOL0     H 1116   4.225   3.775   6.581  1.8090 -0.7745  0.0872
  733MOL0     H 1117   4.068   3.666   6.728 -0.9680  1.6737 -1.3222
  733MOL0     H 1118   3.872   3.252   6.640 -0.5079  0.1740  1.8879
  733MOL0     H 1119   4.040   3.255   6.674  0.5183  1.1354 -1.5553
  733MOL0     H 1120   4.000   3.290   6.920 -0.7298 -0.3675  1.4744
  733MOL0     H 1121   3.828   3.297   6.889  1.8051  0.1564  3.1145
  733MOL0     H 1122   3.776   3.104   6.861  0.4519  1.0381 -0.5761
  733MOL0     H 1123   3.907   3.089   6.982 -2.4685 -3.5076  0.8478
  733MOL0     H 1124   4.060   3.025   6.779 -0.2488 -2.2963  1.8043
  733MOL0     H 1125   3.916   3.030   6.676 -1.3589 -1.4612 -0.0211
  733MOL0     H 1126   3.968   2.851   6.925 -0.7254 -0.8603  1.2994
  733MOL0     H 1127   3.816   2.861   6.839  0.7301  2.7812 -1.3630
  733MOL0     H 1128   3.923   2.760   6.639 -1.7828  2.3797  0.8864
  733MOL0     H 1129   3.962   2.674   6.795 -0.5603  1.0125  2.1291
  733MOL0     H 1130   4.189   2.809   6.784  0.9355 -0.4132 -0.5133
  733MOL0     H 1131   4.127   2.849   6.621  0.6672 -1.4832 -2.0256
  733MOL0     H 1132   4.180   2.571   6.722  0.5574  0.7238  1.7498
  733MOL0     H 1133   4.308   2.673   6.636 -0.5431 -0.9765 -0.8810
  733MOL0     H 1134   4.008   3.335   6.457 -2.9292  1.2858  0.4431
  733MOL0     H 1135   4.168   3.471   6.286  1.9102 -1.0469  1.6475
  733MOL0     H 1136   4.348   3.687   6.089 -0.4389 -1.1628 -2.8750
  733MOL0     H 1137   4.479   3.726   5.908 -1.9237  2.9675  0.4368
  733MOL0     H 1138   4.616   3.077   6.404  0.2969 -1.9313  0.8537
  733MOL0     H 1139   4.610   2.996   6.658  0.1153  1.3832  0.5347
  733MOL0     H 1140   4.369   3.100   7.057 -2.5290 -0.3959  3.4541
  733MOL0     H 1141   4.357   3.086   7.306 -3.0215 -0.3515 -3.4227
  733MOL0     H 1142   4.340   2.995   7.545 -1.7596 -1.0083 -1.4509
  733MOL0     H 1143   4.350   2.827   7.508  1.3364  0.7150  0.7191
  733MOL0     H 1144   4.557   2.783   7.674  2.4672  1.1000  1.0142
  733MOL0     H 1145   4.391   2.817   7.722  0.6442 -1.4304  1.9047
  733MOL0     H 1146   4.441   3.058   7.742 -1.3530 -0.4632  1.8002
  733MOL0     H 1147   4.513   2.949   7.863 -0.3739 -0.9107 -1.3404
  733MOL0     H 1148   4.662   3.129   7.791 -1.2318  1.0670 -0.8757
  733MOL0     H 1149   4.669   3.063   7.638  1.3431  0.3921  0.0186
  733MOL0     H 1150   4.950   2.810   7.840 -0.9260 -1.4162  0.7410
  733MOL0     H 1151   4.650   2.782   7.311  2.6749  0.0583 -0.7637
  733MOL0     H 1152   4.764   2.783   6.972  0.5458  0.2910  0.9434
  733MOL0     H 1153   4.765   2.716   7.137 -2.1861 -0.5650  2.5205
  733MOL0     H 1154   4.659   2.648   7.024  0.1144  0.4950 -1.2892
  734MOL0     O 1155   4.599   4.624   9.285  1.5050 -0.2840  0.2259
  734MOL0     C 1156   4.507   4.558   9.341 -1.0138  0.1886 -0.1466
  734MOL0     O 1157   4.444   4.598   9.454 -0.4633 -0.1348 -1.3915
  734MOL0     C 1158   4.452   4.732   9.483  0.6966 -0.3832 -1.0152
  734MOL0     C 1159   4.418   4.829   9.382 -0.5483 -1.2001  0.3272
  734MOL0     C 1160   4.417   4.962   9.419  0.1766 -0.7858  0.2827
  734MOL0     C 1161   4.447   4.997   9.555  1.1226 -0.2908  0.1415
  734MOL0     O 1162   4.412   5.131   9.574  0.1632  0.1176 -0.0203
  734MOL0     C 1163   4.432   5.207   9.689  1.0544  0.5308 -0.8446
  734MOL0     C 1164   4.301   5.219   9.767  0.1421 -1.4062 -0.3899
  734MOL0     C 1165   4.335   5.315   9.892 -0.3222  0.5212  0.1795
  734MOL0     C 1166   4.219   5.364   9.981 -0.3540  0.9629  0.1269
  734MOL0     C 1167   4.285   5.414  10.111 -0.6476  0.6739  1.0688
  734MOL0     C 1168   4.174   5.490  10.196  0.8049  0.3578 -0.6268
  734MOL0     C 1169   4.133   5.625  10.133  0.1657  0.4896  0.5702
  734MOL0     C 1170   4.037   5.688  10.232 -0.1052  0.3899 -0.9045
  734MOL0     N 1171   3.976   5.818  10.181  0.4103 -0.3270  1.2950
  734MOL0     C 1172   4.044   5.913  10.108 -0.6824  0.0108  0.8273
  734MOL0     C 1173   3.956   6.015  10.110 -0.6764 -0.1576  1.2403
  734MOL0     C 1174   3.973   6.147  10.031 -0.3799 -0.6857  0.8262
  734MOL0     C 1175   3.907   6.135   9.889  0.7766 -0.0764 -0.7467
  734MOL0     C 1176   3.754   6.148   9.898 -0.6723 -0.9159 -0.2068
  734MOL0     C 1177   3.699   6.085   9.763  0.7915 -0.1907  0.1363
  734MOL0     O 1178   3.764   6.132   9.640 -0.0075 -1.0619  0.5700
  734MOL0     C 1179   3.710   6.240   9.573 -0.5162 -0.2048  0.3329
  734MOL0     C 1180   3.788   6.283   9.456 -0.4097  0.2261  0.4419
  734MOL0     C 1181   3.734   6.373   9.361 -0.2039 -0.1371 -0.4774
  734MOL0     C 1182   3.821   6.410   9.229 -0.0327  0.0431 -0.2056
  734MOL0     C 1183   3.605   6.428   9.385 -1.0792 -0.2940 -0.4205
  734MOL0     C 1184   3.550   6.529   9.294  0.4226 -0.8410 -0.0067
  734MOL0     O 1185   3.461   6.475   9.206  0.5764 -0.6911  0.4086
  734MOL0     C 1186   3.385   6.556   9.127 -0.1995 -0.6589 -0.1480
  734MOL0     C 1187   3.410   6.546   8.993 -0.7046 -0.0716  0.7504
  734MOL0     C 1188   3.345   6.634   8.902  0.0968 -0.1439 -0.4952
  734MOL0     C 1189   3.253   6.731   8.954 -0.2913 -0.4599  0.2328
  734MOL0     O 1190   3.181   6.826   8.887  0.8554 -0.1187  0.2636
  734MOL0     C 1191   3.205   6.853   8.742  0.5170 -0.1904  0.0429
  734MOL0     C 1192   3.119   6.966   8.679 -1.2019 -0.5134 -0.4645
  734MOL0     C 1193   3.135   7.102   8.763  0.7649 -0.7329  0.4746
  734MOL0     C 1194   3.071   7.221   8.680  0.3192 -0.2240  0.2343
  734MOL0     C 1195   3.098   7.363   8.753  0.5601 -0.2479  0.1552
  734MOL0     C 1196   3.115   7.484   8.661 -0.1196 -0.0397 -0.4236
  734MOL0     C 1197   3.095   7.625   8.712 -0.6053 -0.1382 -0.1243
  734MOL0     C 1198   3.140   7.729   8.605  0.9882 -0.1914 -0.2672
  734MOL0    Cl 1199   3.024   7.750   8.475  0.4858  0.0700 -0.2635
  734MOL0     C 1200   3.224   6.735   9.089 -0.3539  0.1474  0.0813
  734MOL0     C 1201   3.281   6.642   9.177 -0.7412 -0.0292 -1.0652
  734MOL0     O 1202   3.569   6.647   9.316  0.2042 -0.2931  0.2036
  734MOL0     C 1203   3.534   6.374   9.494  0.0556 -0.8124  0.2694
  734MOL0     C 1204   3.579   6.286   9.586 -0.3964  0.0526  0.2402
  734MOL0     N 1205   3.844   5.977  10.186 -0.0659  0.9834  0.4156
  734MOL0     N 1206   3.858   5.852  10.220 -0.2734 -0.2714 -0.2145
  734MOL0     C 1207   4.479   4.904   9.654 -0.6826  0.0490  0.3496
  734MOL0     C 1208   4.481   4.776   9.618  1.8573  0.2010 -0.1931
  734MOL0     C 1209   4.482   4.417   9.304 -0.1854 -0.4210 -0.1210
  734MOL0     C 1210   4.439   4.324   9.402  0.1669  1.0034  1.0304
  734MOL0     C 1211   4.414   4.191   9.362  0.7982 -0.1499 -0.0957
  734MOL0     C 1212   4.436   4.145   9.236  0.5233 -0.8568 -0.4314
  734MOL0     O 1213   4.405   4.023   9.177 -0.4475  0.6354  0.1965
  734MOL0     C 1214   4.345   3.918   9.244  0.2073  0.3306  0.6200
  734MOL0     C 1215   4.457   3.849   9.321  0.7791  1.0494  0.2082
  734MOL0     C 1216   4.571   3.777   9.236  0.0618  0.2344 -0.5220
  734MOL0     C 1217   4.514   3.667   9.141 -0.4031 -0.1515  0.0772
  734MOL0     C 1218   4.460   3.548   9.206 -0.1663 -0.0750  0.5196
  734MOL0     C 1219   4.434   3.443   9.254 -0.1376  0.4861 -0.6146
  734MOL0     C 1220   4.480   4.243   9.141  0.6285  0.4317 -0.2013
  734MOL0     C 1221   4.496   4.373   9.171 -0.5034  0.5308 -0.5025
  734MOL0     C 1222   4.541   4.464   9.055 -0.4412  0.6810 -0.2280
  734MOL0     H 1223   4.396   4.789   9.283  0.7771 -1.6079  0.1776
  734MOL0     H 1224   4.380   5.028   9.342  1.5311 -0.1730  0.1354
  734MOL0     H 1225   4.459   5.310   9.665  1.8760  1.5260  3.4312
  734MOL0     H 1226   4.510   5.181   9.761  1.8932  1.2956 -1.4475
  734MOL0     H 1227   4.217   5.249   9.704 -2.1998 -1.9036  2.3005
  734MOL0     H 1228   4.273   5.119   9.801  0.4474 -0.5872  2.5289
  734MOL0     H 1229   4.404   5.255   9.951 -1.3932  0.6268  1.6095
  734MOL0     H 1230   4.388   5.405   9.859 -2.2292  1.6900  0.1284
  734MOL0     H 1231   4.158   5.446   9.942 -0.9370  1.7101  2.4878
  734MOL0     H 1232   4.152   5.278   9.992 -0.3645  1.3117  3.7390
  734MOL0     H 1233   4.371   5.482  10.106 -1.1259  1.3275  1.5423
  734MOL0     H 1234   4.312   5.316  10.152 -1.2504 -0.8209 -1.8900
  734MOL0     H 1235   4.082   5.430  10.202 -0.5049  2.2592 -0.6491
  734MOL0     H 1236   4.204   5.493  10.301  2.1485 -1.1165 -0.9253
  734MOL0     H 1237   4.083   5.614  10.036 -0.1910  1.3078  0.6617
  734MOL0     H 1238   4.217   5.694  10.125 -0.1880  0.7943 -0.8124
  734MOL0     H 1239   3.949   5.627  10.258  1.0154 -1.5137 -1.4166
  734MOL0     H 1240   4.094   5.718  10.320  0.3249  0.7971 -1.3193
  734MOL0     H 1241   4.139   5.903  10.058 -1.0490  0.7225 -0.0360
  734MOL0     H 1242   4.079   6.167  10.015 -0.2873  0.0008  2.1622
  734MOL0     H 1243   3.925   6.231  10.082 -0.2438 -0.6531  0.8995
  734MOL0     H 1244   3.956   6.209   9.826  0.9487 -0.0407 -0.5700
  734MOL0     H 1245   3.942   6.039   9.850  0.3537 -0.4857 -0.1460
  734MOL0     H 1246   3.714   6.097   9.985 -3.4348 -0.0174 -0.8483
  734MOL0     H 1247   3.721   6.252   9.903  1.0803 -0.2748 -1.0647
  734MOL0     H 1248   3.722   5.978   9.772 -1.3275 -0.6983  0.1748
  734MOL0     H 1249   3.590   6.081   9.769  0.8161 -2.8684 -0.0284
  734MOL0     H 1250   3.887   6.243   9.440  0.0701  0.9696  1.4321
  734MOL0     H 1251   3.916   6.358   9.242 -0.1500  0.5363  5.0960
  734MOL0     H 1252   3.831   6.518   9.233  0.9358 -0.0618  2.1135
  734MOL0     H 1253   3.772   6.391   9.133  2.1989  1.5422 -1.7228
  734MOL0     H 1254   3.492   6.480   8.968 -1.1166 -0.7300  1.1191
  734MOL0     H 1255   3.361   6.619   8.796 -0.0165 -2.8711 -0.2095
  734MOL0     H 1256   3.306   6.894   8.738  0.8480 -1.0829 -2.0466
  734MOL0     H 1257   3.202   6.763   8.680  3.1622 -2.1172  2.4690
  734MOL0     H 1258   3.158   6.969   8.577  2.5293  1.0275  0.8496
  734MOL0     H 1259   3.015   6.933   8.674 -0.5441 -2.6099 -1.5236
  734MOL0     H 1260   3.239   7.116   8.792  1.1816 -1.3816 -0.6174
  734MOL0     H 1261   3.078   7.083   8.854 -3.0491 -2.6373 -2.0246
  734MOL0     H 1262   2.963   7.212   8.661  0.1640  0.8118  0.5344
  734MOL0     H 1263   3.111   7.215   8.579 -0.0495 -3.3009  0.1599
  734MOL0     H 1264   3.009   7.373   8.815  0.0538 -2.6033 -0.0949
  734MOL0     H 1265   3.188   7.360   8.814  1.2074 -1.1341 -0.8050
  734MOL0     H 1266   3.056   7.458   8.572  6.2765 -2.7359 -4.6223
  734MOL0     H 1267   3.214   7.491   8.616  0.2607 -3.4513 -0.3690
  734MOL0     H 1268   3.163   7.635   8.797 -0.1805 -1.9849 -0.2010
  734MOL0     H 1269   2.991   7.639   8.744 -0.5556 -1.6559  0.8118
  734MOL0     H 1270   3.224   7.683   8.551 -0.1197  0.0848 -2.3170
  734MOL0     H 1271   3.172   7.816   8.662 -0.9435  0.6454 -0.4082
  734MOL0     H 1272   3.149   6.801   9.132  0.5235  0.0279  1.9203
  734MOL0     H 1273   3.256   6.640   9.283  0.0033 -1.1195 -0.8893
  734MOL0     H 1274   3.427   6.389   9.500 -0.2518 -0.1584 -3.7888
  734MOL0     H 1275   3.513   6.245   9.661 -0.3234 -0.7642 -0.1295
  734MOL0     H 1276   4.506   4.940   9.752  0.0940  2.7274 -0.7616
  734MOL0     H 1277   4.526   4.707   9.689 -2.8570 -0.0807  3.0086
  734MOL0     H 1278   4.427   4.349   9.507 -3.0297 -0.2529  1.0778
  734MOL0     H 1279   4.375   4.122   9.437 -0.2349  1.8437  1.2735
  734MOL0     H 1280   4.268   3.950   9.315 -0.4671  2.6392 -1.0147
  734MOL0     H 1281   4.295   3.852   9.173  2.4222  0.3173 -1.0372
  734MOL0     H 1282   4.414   3.779   9.393 -3.0874  2.0364 -0.9094
  734MOL0     H 1283   4.507   3.932   9.370 -0.4322  4.3109 -3.5369
  734MOL0     H 1284   4.634   3.849   9.184  0.9907  1.1813  1.7761
  734MOL0     H 1285   4.626   3.734   9.320  2.1236  0.1343 -1.8403
  734MOL0     H 1286   4.587   3.636   9.066 -3.5313 -1.7048 -2.5800
  734MOL0     H 1287   4.434   3.715   9.083 -0.7865 -0.3176  0.4627
  734MOL0     H 1288   4.416   3.346   9.295 -0.5906  0.6582 -0.4000
  734MOL0     H 1289   4.493   4.228   9.034 -2.8305  2.4186 -1.0846
  734MOL0     H 1290   4.512   4.422   8.958  1.2160  0.8277 -0.8158
  734MOL0     H 1291   4.490   4.558   9.033 -2.6586 -1.2649 -4.7468
  734MOL0     H 1292   4.649   4.478   9.063 -0.4029  0.6183 -0.6166
  735MOL0     O 1293   4.005  11.126   3.803  0.3399 -0.3330 -0.0217
  735MOL0     C 1294   3.998  11.243   3.829 -0.2482 -0.3222  0.0534
  735MOL0     O 1295   3.885  11.298   3.898 -0.2093 -0.5665  0.2661
  735MOL0     C 1296   3.810  11.210   3.980  0.3290  0.9092 -0.4113
  735MOL0     C 1297   3.862  11.164   4.105 -0.1827 -2.0045 -1.0483
  735MOL0     C 1298   3.782  11.087   4.191 -0.0467  0.8545 -0.0124
  735MOL0     C 1299   3.655  11.042   4.150  0.2211  0.1883 -0.9945
  735MOL0     O 1300   3.595  10.959   4.241 -0.5840  0.2758  0.5666
  735MOL0     C 1301   3.453  10.951   4.234  0.3307  0.8692  0.5691
  735MOL0     C 1302   3.376  11.079   4.254 -0.3444  0.2599 -0.3124
  735MOL0     C 1303   3.419  11.160   4.383  0.0927 -0.5468  0.0328
  735MOL0     C 1304   3.426  11.067   4.506 -0.2030 -0.6217  0.3765
  735MOL0     C 1305   3.418  11.128   4.638 -0.1767 -0.0830 -0.4856
  735MOL0     C 1306   3.529  11.235   4.656 -0.2941  1.5550  0.1313
  735MOL0     C 1307   3.564  11.241   4.806 -0.0081 -0.2387  0.1224
  735MOL0     C 1308   3.694  11.316   4.841  1.1847 -0.3939  0.2578
  735MOL0     N 1309   3.717  11.314   4.979 -0.6772 -0.6343  0.7097
  735MOL0     C 1310   3.773  11.212   5.041  0.2611 -1.2144 -0.9154
  735MOL0     C 1311   3.784  11.246   5.173 -0.1710 -0.7713 -0.3659
  735MOL0     C 1312   3.846  11.170   5.284  0.4363 -0.0902 -0.3079
  735MOL0     C 1313   3.802  11.022   5.275 -0.1542  1.0392 -0.5683
  735MOL0     C 1314   3.654  10.990   5.296  0.2925  0.8316  0.8734
  735MOL0     C 1315   3.606  10.872   5.195 -0.0597 -0.3604  0.4431
  735MOL0     O 1316   3.643  10.746   5.244  0.2649 -0.7679 -0.4729
  735MOL0     C 1317   3.733  10.657   5.193 -0.1381 -0.8868 -0.4068
  735MOL0     C 1318   3.801  10.571   5.281  0.5650 -0.7949  0.1420
  735MOL0     C 1319   3.908  10.502   5.240 -0.5723 -0.0464 -0.1333
  735MOL0     C 1320   3.972  10.412   5.342  0.8241  0.6261  0.5270
  735MOL0     C 1321   3.946  10.512   5.103 -0.5610 -0.3495 -0.6026
  735MOL0     C 1322   4.068  10.454   5.045  0.5566 -0.9168 -0.3767
  735MOL0     O 1323   4.134  10.527   4.943  0.0601 -0.1102 -0.3980
  735MOL0     C 1324   4.236  10.476   4.872 -1.0567 -0.2739  0.0769
  735MOL0     C 1325   4.332  10.554   4.823 -0.5821 -0.5550 -0.1803
  735MOL0     C 1326   4.450  10.507   4.760 -0.5101  0.0901  0.5817
  735MOL0     C 1327   4.453  10.373   4.735 -0.3806 -0.0062  0.1250
  735MOL0     O 1328   4.571  10.328   4.680 -0.0755  0.7112  0.1085
  735MOL0     C 1329   4.634  10.212   4.746 -0.1189  0.3949  0.5414
  735MOL0     C 1330   4.759  10.175   4.674  0.0084  0.1280  0.4949
  735MOL0     C 1331   4.846  10.296   4.649 -0.4231  0.1378  1.0966
  735MOL0     C 1332   4.932  10.331   4.776 -0.2972 -0.3707  0.4826
  735MOL0     C 1333   5.039  10.444   4.752 -0.1801 -1.0569  0.1489
  735MOL0     C 1334   5.095  10.478   4.891  0.0430 -0.0838 -0.2635
  735MOL0     C 1335   5.176  10.606   4.899  0.0514  0.4297  0.6235
  735MOL0     C 1336   5.201  10.643   5.042 -0.3315 -0.6732  0.3337
  735MOL0    Cl 1337   5.259  10.814   5.034  0.3038  0.1871 -0.5280
  735MOL0     C 1338   4.350  10.288   4.776 -0.7550  0.3684 -0.0038
  735MOL0     C 1339   4.243  10.338   4.843  0.2144  0.5237  0.0876
  735MOL0     O 1340   4.116  10.357   5.109  0.1727  0.7608 -1.0198
  735MOL0     C 1341   3.879  10.581   5.008  1.4378 -0.0629  0.7070
  735MOL0     C 1342   3.773  10.658   5.060  0.6825  0.6240  0.2554
  735MOL0     N 1343   3.739  11.379   5.177  0.2114  0.6409  0.8421
  735MOL0     N 1344   3.700  11.418   5.060  0.3201  0.5045  0.3857
  735MOL0     C 1345   3.612  11.077   4.024  0.6285 -0.8505 -0.2323
  735MOL0     C 1346   3.681  11.171   3.945  0.2159  0.6065  0.8257
  735MOL0     C 1347   4.076  11.315   3.732 -0.7453  0.0681  0.5375
  735MOL0     C 1348   4.023  11.445   3.695 -0.4372  0.8161 -0.7206
  735MOL0     C 1349   4.086  11.536   3.616 -0.4391  0.4296 -0.0939
  735MOL0     C 1350   4.213  11.502   3.573 -0.6193 -0.9752 -0.3726
  735MOL0     O 1351   4.282  11.601   3.509  0.3698  0.5916  0.4140
  735MOL0     C 1352   4.349  11.555   3.387  0.2687  0.3072  0.6743
  735MOL0     C 1353   4.499  11.575   3.394 -0.4629 -0.1151  0.0580
  735MOL0     C 1354   4.533  11.730   3.388  0.6052 -0.2100  0.5709
  735MOL0     C 1355   4.687  11.746   3.354  0.0876 -0.8522 -0.3963
  735MOL0     C 1356   4.708  11.895   3.337 -0.3803 -0.1209 -0.0134
  735MOL0     C 1357   4.738  12.013   3.301  1.0268 -0.3705 -1.5478
  735MOL0     C 1358   4.275  11.378   3.595 -0.3005  0.3041 -0.3034
  735MOL0     C 1359   4.212  11.285   3.682  0.8390 -0.0276 -1.6243
  735MOL0     C 1360   4.274  11.157   3.708 -0.7120 -0.0542 -0.1544
  735MOL0     H 1361   3.963  11.179   4.142  0.2810 -2.3647 -2.1317
  735MOL0     H 1362   3.831  11.040   4.276  0.7235  2.1797  0.3104
  735MOL0     H 1363   3.406  10.883   4.305 -2.3299  0.4958 -1.3919
  735MOL0     H 1364   3.427  10.904   4.138 -0.2042  1.6488  0.3207
  735MOL0     H 1365   3.397  11.150   4.173  1.5295  1.2322  0.9477
  735MOL0     H 1366   3.268  11.061   4.249 -0.3328 -0.0910  0.5394
  735MOL0     H 1367   3.512  11.214   4.366 -1.4106  1.3359 -3.2582
  735MOL0     H 1368   3.341  11.236   4.398  0.0301 -0.3242 -1.2840
  735MOL0     H 1369   3.335  11.007   4.501 -1.4829  1.3159 -1.1550
  735MOL0     H 1370   3.518  11.011   4.489 -0.6094 -0.6937 -1.8092
  735MOL0     H 1371   3.423  11.050   4.715  1.4011  3.2981  3.2452
  735MOL0     H 1372   3.325  11.185   4.649  0.4440  0.5662  2.5620
  735MOL0     H 1373   3.613  11.203   4.594 -1.8559  0.5403 -1.5669
  735MOL0     H 1374   3.493  11.334   4.628  0.6020  1.9067  0.1876
  735MOL0     H 1375   3.572  11.134   4.828  2.2813 -0.4904 -1.6339
  735MOL0     H 1376   3.478  11.281   4.860 -2.9814 -2.8957 -2.2567
  735MOL0     H 1377   3.779  11.278   4.784  1.5871  2.1390 -0.9534
  735MOL0     H 1378   3.676  11.418   4.804  0.3693 -0.1430  1.2975
  735MOL0     H 1379   3.790  11.121   4.984  1.2513 -1.4911 -0.1902
  735MOL0     H 1380   3.798  11.208   5.375 -0.1521 -2.7874  0.6208
  735MOL0     H 1381   3.955  11.166   5.290  0.3652 -3.2730  2.0491
  735MOL0     H 1382   3.824  10.968   5.183  2.2523  1.8454 -0.5127
  735MOL0     H 1383   3.868  10.971   5.346  0.0298  1.8453 -0.1578
  735MOL0     H 1384   3.634  10.968   5.401 -2.2114  0.6349  0.4332
  735MOL0     H 1385   3.580  11.066   5.269 -5.5325 -4.5940 -1.1525
  735MOL0     H 1386   3.498  10.885   5.192  0.2046  2.0192 -0.2093
  735MOL0     H 1387   3.630  10.881   5.089  0.9957 -0.7306  0.6405
  735MOL0     H 1388   3.774  10.570   5.386 -1.1548 -0.7824 -0.2669
  735MOL0     H 1389   3.925  10.419   5.440 -0.5210  0.3415 -0.0829
  735MOL0     H 1390   4.077  10.445   5.341  1.1435 -0.2776 -1.5329
  735MOL0     H 1391   3.967  10.307   5.312 -1.0695 -0.3348  3.7206
  735MOL0     H 1392   4.319  10.660   4.843 -2.2955 -0.6402 -0.6595
  735MOL0     H 1393   4.529  10.577   4.736 -1.9401  2.4480  2.3290
  735MOL0     H 1394   4.667  10.235   4.848  1.8259  1.6054 -0.2868
  735MOL0     H 1395   4.574  10.121   4.750  1.3502 -0.7737 -1.5415
  735MOL0     H 1396   4.807  10.087   4.716  2.6296  0.8253 -0.7991
  735MOL0     H 1397   4.725  10.141   4.576  0.9367 -0.7277  0.4567
  735MOL0     H 1398   4.784  10.383   4.626 -1.2105 -0.6978 -0.0619
  735MOL0     H 1399   4.915  10.283   4.565 -1.0238  1.5115  0.3668
  735MOL0     H 1400   4.983  10.237   4.800 -1.3776 -1.1325 -0.1385
  735MOL0     H 1401   4.850  10.369   4.837 -0.7003  1.8336 -1.3215
  735MOL0     H 1402   5.108  10.399   4.680 -2.9311 -1.6114 -2.3448
  735MOL0     H 1403   4.995  10.529   4.699 -0.4936  0.8513  3.2164
  735MOL0     H 1404   5.155  10.387   4.902 -0.6916 -0.5906 -0.3312
  735MOL0     H 1405   5.007  10.490   4.956 -0.0738  1.1630 -0.6333
  735MOL0     H 1406   5.116  10.685   4.852  0.8193  0.4555 -0.3506
  735MOL0     H 1407   5.266  10.592   4.837 -0.1085 -2.6247  0.9250
  735MOL0     H 1408   5.262  10.575   5.102 -0.9038  1.2555  3.3256
  735MOL0     H 1409   5.109  10.667   5.096  0.0501 -0.3573  0.8507
  735MOL0     H 1410   4.365  10.184   4.748 -0.1543  0.9493 -1.9879
  735MOL0     H 1411   4.157  10.279   4.872 -0.5222  1.6558  0.2580
  735MOL0     H 1412   3.909  10.571   4.905  1.0839 -2.6398  0.8053
  735MOL0     H 1413   3.719  10.714   4.983  3.3044  1.0111 -1.4152
  735MOL0     H 1414   3.519  11.044   3.979  0.1687  2.6922 -2.2763
  735MOL0     H 1415   3.632  11.203   3.853 -0.1528 -1.7616  0.1317
  735MOL0     H 1416   3.928  11.483   3.732  1.9259  3.5080  3.3064
  735MOL0     H 1417   4.049  11.634   3.588 -0.6804  0.1512 -0.7647
  735MOL0     H 1418   4.334  11.448   3.372  1.6056  0.4121 -1.8462
  735MOL0     H 1419   4.294  11.592   3.300 -2.5923 -0.3984  2.0377
  735MOL0     H 1420   4.548  11.533   3.306 -2.2480 -0.8715 -0.5966
  735MOL0     H 1421   4.543  11.527   3.482 -0.8915  3.4635  2.4239
  735MOL0     H 1422   4.475  11.762   3.301 -1.4785 -0.0398  1.9639
  735MOL0     H 1423   4.489  11.769   3.480  1.6127 -1.0746  1.4484
  735MOL0     H 1424   4.715  11.711   3.254  2.0154 -1.4231  0.2969
  735MOL0     H 1425   4.761  11.695   3.415  0.5524  1.3023  0.9340
  735MOL0     H 1426   4.764  12.110   3.262 -1.8006  0.6735 -1.0978
  735MOL0     H 1427   4.374  11.349   3.559 -0.9561  0.2775 -2.2199
  735MOL0     H 1428   4.238  11.063   3.663 -1.7304  1.2214 -2.1635
  735MOL0     H 1429   4.358  11.154   3.638 -1.6374  0.3996 -1.3177
  735MOL0     H 1430   4.304  11.150   3.813  1.3431  4.0836 -0.2710
  736MOL0     O 1431   4.856   9.245   8.427 -0.2364  0.3802 -0.6537
  736MOL0     C 1432   4.879   9.241   8.299  0.3816 -0.1478 -0.7260
  736MOL0     O 1433   4.817   9.326   8.220 -0.3267  0.3935 -1.2072
  736MOL0     C 1434   4.753   9.446   8.264 -1.2235 -0.3885 -0.7476
  736MOL0     C 1435   4.766   9.513   8.380  0.7108  0.4360  0.7520
  736MOL0     C 1436   4.688   9.629   8.396 -0.0236  0.2918 -0.4326
  736MOL0     C 1437   4.602   9.684   8.298  0.4838  0.7694  0.4260
  736MOL0     O 1438   4.529   9.803   8.326 -0.1795  0.3425 -0.5232
  736MOL0     C 1439   4.475   9.868   8.212  0.3437 -0.2925  0.4009
  736MOL0     C 1440   4.374   9.974   8.246 -0.1447  0.0104  0.5462
  736MOL0     C 1441   4.409  10.070   8.354 -0.6322 -0.4499  0.3745
  736MOL0     C 1442   4.311  10.063   8.478 -0.2880  0.5037  1.1431
  736MOL0     C 1443   4.351  10.130   8.604 -0.1772  0.4399 -0.5159
  736MOL0     C 1444   4.256  10.123   8.732 -0.4853  0.8787  0.0434
  736MOL0     C 1445   4.203   9.976   8.745  0.1503  0.0038 -0.2576
  736MOL0     C 1446   4.151   9.961   8.896  1.1607 -0.4228  0.8376
  736MOL0     N 1447   4.041  10.057   8.928 -0.1314 -0.3001 -0.5222
  736MOL0     C 1448   3.938  10.093   8.842 -0.4868 -0.8471 -0.0825
  736MOL0     C 1449   3.889  10.209   8.892  1.0562 -0.0788  0.0536
  736MOL0     C 1450   3.789  10.302   8.819  0.3914 -0.3016 -0.7167
  736MOL0     C 1451   3.655  10.238   8.828 -0.8032  0.0731 -0.0063
  736MOL0     C 1452   3.568  10.305   8.708 -0.0241  0.5485 -0.3892
  736MOL0     C 1453   3.414  10.293   8.711  0.1194  0.8168  0.0778
  736MOL0     O 1454   3.363  10.158   8.702  0.6033 -0.0052  0.0243
  736MOL0     C 1455   3.354  10.106   8.571 -0.4640 -0.4915 -0.6413
  736MOL0     C 1456   3.386  10.170   8.452  0.3753  0.7347  0.3920
  736MOL0     C 1457   3.384  10.092   8.330  0.2998  0.0575 -0.1054
  736MOL0     C 1458   3.415  10.166   8.201 -0.6072 -0.5331  0.1227
  736MOL0     C 1459   3.358   9.950   8.328 -0.5223 -0.8574 -0.0870
  736MOL0     C 1460   3.343   9.865   8.205 -0.5826 -0.0211  0.3985
  736MOL0     O 1461   3.355   9.736   8.240 -1.3216 -0.1185  0.3190
  736MOL0     C 1462   3.338   9.632   8.145  0.6172  0.0555 -0.4736
  736MOL0     C 1463   3.421   9.620   8.031  0.2867 -0.2744  0.2239
  736MOL0     C 1464   3.419   9.507   7.946 -0.2426  1.0081 -0.5075
  736MOL0     C 1465   3.321   9.413   7.978  0.7846  0.1568 -0.1874
  736MOL0     O 1466   3.309   9.294   7.910  0.2674 -0.1704  0.5815
  736MOL0     C 1467   3.417   9.227   7.850  0.6190  0.0624  0.0362
  736MOL0     C 1468   3.442   9.273   7.705  0.9232 -0.5685  0.0333
  736MOL0     C 1469   3.346   9.207   7.612 -0.5539  0.3744 -0.2208
  736MOL0     C 1470   3.387   9.061   7.583  0.7799 -0.3443  0.0123
  736MOL0     C 1471   3.286   8.971   7.492 -0.3406 -0.9130 -0.3031
  736MOL0     C 1472   3.311   8.975   7.338  0.3357  0.3372  0.7785
  736MOL0     C 1473   3.237   9.089   7.261 -0.3441  0.5662  0.8073
  736MOL0     C 1474   3.221   9.055   7.109  0.5173 -0.4989 -0.1743
  736MOL0    Cl 1475   3.381   9.062   7.016  0.2783 -0.2158 -0.0994
  736MOL0     C 1476   3.236   9.417   8.093 -0.7408 -0.5328  0.5580
  736MOL0     C 1477   3.253   9.527   8.174 -0.1776 -0.3239 -0.2211
  736MOL0     O 1478   3.340   9.905   8.087  0.1231  0.0350  0.4386
  736MOL0     C 1479   3.326   9.892   8.453 -1.2234 -0.1445 -0.4936
  736MOL0     C 1480   3.318   9.967   8.573 -0.0809  0.4901  0.4576
  736MOL0     N 1481   3.957  10.237   9.016  0.8590 -0.1575 -0.0529
  736MOL0     N 1482   4.053  10.152   9.028 -0.8364  0.1084  0.7826
  736MOL0     C 1483   4.581   9.601   8.181  0.8852 -0.2832  0.4704
  736MOL0     C 1484   4.655   9.482   8.172 -0.7383 -0.7388 -0.1879
  736MOL0     C 1485   4.981   9.158   8.232 -0.8176 -0.1440  1.2172
  736MOL0     C 1486   4.997   9.193   8.094 -0.8560 -0.4531  0.1649
  736MOL0     C 1487   5.087   9.119   8.014  0.2215 -0.3277 -0.4217
  736MOL0     C 1488   5.146   9.002   8.069  0.5814  0.2259  1.8571
  736MOL0     O 1489   5.219   8.933   7.980 -0.4555  0.3962 -0.1977
  736MOL0     C 1490   5.326   8.849   8.025 -0.0386 -0.2686 -0.3067
  736MOL0     C 1491   5.414   8.800   7.914 -0.4054  1.2004 -0.1755
  736MOL0     C 1492   5.478   8.908   7.825  1.3002 -0.2503  0.4170
  736MOL0     C 1493   5.581   8.833   7.721 -0.5921  0.3535 -0.3244
  736MOL0     C 1494   5.718   8.801   7.767  0.4734 -0.4076 -0.2400
  736MOL0     C 1495   5.834   8.796   7.805  0.9765 -0.6111  0.4914
  736MOL0     C 1496   5.132   8.967   8.203 -0.4321  0.1537 -0.6285
  736MOL0     C 1497   5.047   9.043   8.283  1.8833 -0.5409  0.5516
  736MOL0     C 1498   5.018   8.995   8.428 -0.2943  0.4169  0.8249
  736MOL0     H 1499   4.838   9.486   8.456  0.2116 -3.8658 -0.0691
  736MOL0     H 1500   4.704   9.697   8.479  1.9486  0.5596 -0.9676
  736MOL0     H 1501   4.408   9.797   8.161  1.6479 -0.4312 -1.2307
  736MOL0     H 1502   4.552   9.901   8.141 -0.3773 -0.1463 -0.3333
  736MOL0     H 1503   4.329  10.015   8.155 -4.1406 -2.6342  1.0850
  736MOL0     H 1504   4.300   9.904   8.286  0.2617 -0.0835  1.1497
  736MOL0     H 1505   4.513  10.059   8.388 -0.3885 -1.9839 -0.7600
  736MOL0     H 1506   4.394  10.167   8.306 -1.6622 -1.4084 -1.3030
  736MOL0     H 1507   4.213  10.094   8.440 -0.4297 -0.4380  0.7157
  736MOL0     H 1508   4.284   9.961   8.505  1.8595 -0.3005  0.5108
  736MOL0     H 1509   4.383  10.235   8.599  1.3937  0.1400  1.8900
  736MOL0     H 1510   4.438  10.068   8.625  0.4388  1.3071 -0.4941
  736MOL0     H 1511   4.316  10.147   8.820 -0.2160  0.2816  0.0334
  736MOL0     H 1512   4.165  10.182   8.729  0.7612  2.9634 -3.4965
  736MOL0     H 1513   4.277   9.896   8.732  2.1685  1.0921  3.0736
  736MOL0     H 1514   4.122   9.959   8.674 -1.1061 -0.0194  1.1154
  736MOL0     H 1515   4.123   9.862   8.934  0.6107 -0.9344 -0.8031
  736MOL0     H 1516   4.243   9.998   8.943  2.1614 -1.1527 -0.4811
  736MOL0     H 1517   3.930  10.059   8.739  2.1009 -2.3241  0.1099
  736MOL0     H 1518   3.825  10.313   8.716  1.1862  3.8883 -0.1375
  736MOL0     H 1519   3.791  10.399   8.869 -0.8103 -0.5833 -0.0891
  736MOL0     H 1520   3.658  10.131   8.807 -0.8173  0.2715 -1.0509
  736MOL0     H 1521   3.619  10.244   8.932 -1.9539 -3.9748  0.0176
  736MOL0     H 1522   3.589  10.411   8.722 -0.1095  0.2177  3.2497
  736MOL0     H 1523   3.601  10.283   8.606  0.7183  2.3848 -0.5846
  736MOL0     H 1524   3.376  10.331   8.806  1.5196  2.4138  0.0400
  736MOL0     H 1525   3.388  10.371   8.639 -0.9410  3.5254  3.1629
  736MOL0     H 1526   3.404  10.276   8.438  2.4438  0.4564  0.6591
  736MOL0     H 1527   3.451  10.265   8.230  0.6189 -1.3206  1.4776
  736MOL0     H 1528   3.325  10.183   8.141 -1.4588 -0.7901  1.2782
  736MOL0     H 1529   3.496  10.116   8.148 -0.2037 -1.0219  1.1776
  736MOL0     H 1530   3.489   9.702   8.013 -0.7899  1.0545  1.8207
  736MOL0     H 1531   3.471   9.512   7.851 -1.2146  2.1858 -0.9982
  736MOL0     H 1532   3.505   9.241   7.913 -1.5804  0.7364  3.1888
  736MOL0     H 1533   3.408   9.118   7.853  2.2131 -0.0847  0.3074
  736MOL0     H 1534   3.425   9.380   7.689  4.5626  0.1745  0.3327
  736MOL0     H 1535   3.547   9.258   7.680  0.6974  1.0075 -2.1569
  736MOL0     H 1536   3.333   9.270   7.523 -1.0832  4.7279  2.6548
  736MOL0     H 1537   3.245   9.211   7.654 -0.9901  0.4893 -1.2330
  736MOL0     H 1538   3.401   9.013   7.681  2.2298 -0.1008 -0.0461
  736MOL0     H 1539   3.486   9.048   7.539 -0.0390 -2.6125 -1.3138
  736MOL0     H 1540   3.288   8.866   7.520  0.9780 -1.0352 -0.7865
  736MOL0     H 1541   3.180   8.990   7.509 -0.3778  1.3047 -2.3909
  736MOL0     H 1542   3.276   8.881   7.293 -0.1442  2.2932 -3.4432
  736MOL0     H 1543   3.417   8.990   7.314  0.3197  0.3418  0.7138
  736MOL0     H 1544   3.296   9.181   7.275 -0.6908  0.9155  0.0637
  736MOL0     H 1545   3.155   9.121   7.326  0.6657  3.5567  0.8062
  736MOL0     H 1546   3.154   9.132   7.069  2.2930  2.1774  1.6707
  736MOL0     H 1547   3.167   8.960   7.099 -2.8341  1.4587 -2.4065
  736MOL0     H 1548   3.169   9.333   8.106 -0.4412 -0.7983  0.3999
  736MOL0     H 1549   3.198   9.548   8.265  1.8298  1.1927  0.7322
  736MOL0     H 1550   3.300   9.787   8.461  1.0199 -0.8417 -1.4738
  736MOL0     H 1551   3.280   9.924   8.665  0.4347 -3.0511 -0.8459
  736MOL0     H 1552   4.490   9.614   8.123 -0.7119 -0.9993  2.6807
  736MOL0     H 1553   4.639   9.422   8.083 -0.8544  2.0497 -2.1758
  736MOL0     H 1554   4.941   9.270   8.042  0.7489  1.3578  0.9873
  736MOL0     H 1555   5.100   9.144   7.909 -0.8142  3.8753  0.2648
  736MOL0     H 1556   5.392   8.900   8.095 -1.4206  0.6021  0.4001
  736MOL0     H 1557   5.274   8.758   8.057 -0.7241 -0.7313 -2.5722
  736MOL0     H 1558   5.354   8.741   7.845 -0.6436  1.7710 -0.4686
  736MOL0     H 1559   5.489   8.735   7.959 -1.4237 -1.3738 -1.9799
  736MOL0     H 1560   5.394   8.947   7.767  1.9850 -2.0765 -1.9345
  736MOL0     H 1561   5.515   8.991   7.886  0.0662  2.1576 -1.9010
  736MOL0     H 1562   5.600   8.893   7.632 -2.1663  0.3811 -0.6813
  736MOL0     H 1563   5.536   8.738   7.689 -0.6914  1.2170 -2.9626
  736MOL0     H 1564   5.935   8.795   7.842  0.4353 -1.1080  2.0154
  736MOL0     H 1565   5.171   8.871   8.235 -0.6813 -1.0477 -3.6293
  736MOL0     H 1566   4.923   9.015   8.478 -0.8642 -1.4979  0.6062
  736MOL0     H 1567   5.030   8.887   8.436 -3.0697  0.0619  1.1363
  736MOL0     H 1568   5.102   9.041   8.481  1.1946  1.7096 -2.3591
  737MOL0     O 1569  11.245   9.779   6.910 -0.3403  0.2902 -0.0621
  737MOL0     C 1570  11.347   9.763   6.969  0.0667 -0.0794 -0.6038
  737MOL0     O 1571  11.407   9.863   7.036  0.6827 -0.1025 -0.4683
  737MOL0     C 1572  11.356   9.992   7.055 -0.0868  0.9969 -0.0712
  737MOL0     C 1573  11.218  10.035   7.067 -0.3205  0.1170 -0.0250
  737MOL0     C 1574  11.183  10.172   7.069  0.0942  1.1694 -0.7130
  737MOL0     C 1575  11.278  10.270   7.075  0.5853  0.2671  0.7198
  737MOL0     O 1576  11.221  10.393   7.081  0.1052 -1.1149  0.6102
  737MOL0     C 1577  11.294  10.518   7.102  0.4321 -0.3590  0.8691
  737MOL0     C 1578  11.201  10.642   7.075 -0.0720  0.1928 -0.7051
  737MOL0     C 1579  11.155  10.710   7.211 -0.8706  0.6744 -0.4044
  737MOL0     C 1580  11.066  10.822   7.178  0.0439  0.1542 -0.2547
  737MOL0     C 1581  10.988  10.866   7.300 -0.1266 -0.2092 -0.4015
  737MOL0     C 1582  11.076  10.940   7.407  0.5952  0.7035  0.5061
  737MOL0     C 1583  10.987  11.004   7.517 -0.9217  0.9476  0.0494
  737MOL0     C 1584  11.055  11.120   7.594  0.1415  0.4482  0.0260
  737MOL0     N 1585  10.985  11.147   7.715  0.4083 -0.3484 -0.4517
  737MOL0     C 1586  11.013  11.093   7.835 -0.0432 -1.4775 -0.3515
  737MOL0     C 1587  10.911  11.148   7.909  0.0346  0.6947  0.2794
  737MOL0     C 1588  10.886  11.104   8.053  1.0448 -0.5338 -0.5752
  737MOL0     C 1589  10.952  10.978   8.102 -0.5591  0.2354 -0.2955
  737MOL0     C 1590  10.978  10.986   8.256 -0.1551  0.0747  0.6619
  737MOL0     C 1591  11.062  10.876   8.309  0.3028 -0.3090 -0.0785
  737MOL0     O 1592  11.140  10.907   8.428  0.2182  0.4791 -0.5218
  737MOL0     C 1593  11.220  10.810   8.488  0.4947 -0.7878 -0.1523
  737MOL0     C 1594  11.240  10.674   8.442  0.0934 -0.2141 -0.5739
  737MOL0     C 1595  11.318  10.590   8.530  0.1307 -0.5038  0.0839
  737MOL0     C 1596  11.339  10.459   8.467  0.4841  0.8206  0.5285
  737MOL0     C 1597  11.379  10.627   8.654 -0.3320 -0.1615  0.1903
  737MOL0     C 1598  11.469  10.545   8.738  0.3174  0.2069  0.3954
  737MOL0     O 1599  11.572  10.601   8.807  0.2347 -0.5142  0.1008
  737MOL0     C 1600  11.621  10.522   8.899 -0.2720  1.0498 -0.9642
  737MOL0     C 1601  11.689  10.398   8.878  0.8248  1.2698 -0.2605
  737MOL0     C 1602  11.761  10.345   8.988  0.2249  0.4777  0.2534
  737MOL0     C 1603  11.778  10.410   9.107 -0.3456  0.1196 -0.1341
  737MOL0     O 1604  11.854  10.342   9.191  0.4632 -0.6699 -0.2499
  737MOL0     C 1605  11.843  10.364   9.330 -1.2167  0.8008 -1.1460
  737MOL0     C 1606  11.730  10.289   9.406 -0.4972  0.4001  0.0463
  737MOL0     C 1607  11.744  10.134   9.365 -0.3896  0.7055  0.2790
  737MOL0     C 1608  11.826  10.068   9.473  0.4918  0.2553  0.0923
  737MOL0     C 1609  11.814   9.913   9.459 -0.3101 -0.0335  0.2045
  737MOL0     C 1610  11.684   9.856   9.521  0.6601  0.4569  0.5587
  737MOL0     C 1611  11.674   9.708   9.549 -0.0347 -0.3677 -0.2870
  737MOL0     C 1612  11.743   9.675   9.684 -0.3295 -0.1969  0.4820
  737MOL0    Cl 1613  11.697   9.508   9.741  0.8975 -0.1755  0.2867
  737MOL0     C 1614  11.704  10.529   9.125 -0.3805  0.7673 -0.9402
  737MOL0     C 1615  11.621  10.583   9.027  0.1036  1.1622  0.3982
  737MOL0     O 1616  11.430  10.426   8.743 -0.5652 -0.5105 -0.0464
  737MOL0     C 1617  11.384  10.771   8.669  0.7180 -0.0017 -0.5322
  737MOL0     C 1618  11.301  10.852   8.595 -0.6183 -0.5337 -0.0194
  737MOL0     N 1619  10.824  11.224   7.836  0.8700 -0.3989 -2.0369
  737MOL0     N 1620  10.881  11.237   7.718 -0.1820  0.3156 -0.2395
  737MOL0     C 1621  11.412  10.228   7.072  0.2206  0.3550  0.8660
  737MOL0     C 1622  11.443  10.094   7.069  0.4060  1.2097  0.3987
  737MOL0     C 1623  11.401   9.628   6.968 -0.4996  0.3658 -0.1658
  737MOL0     C 1624  11.543   9.618   7.003  0.6182 -0.3571  0.0240
  737MOL0     C 1625  11.618   9.506   6.994 -0.5136  0.1195  1.2177
  737MOL0     C 1626  11.563   9.387   6.934  0.8718 -0.2752 -0.6143
  737MOL0     O 1627  11.648   9.287   6.889 -0.3291 -0.1118 -1.0230
  737MOL0     C 1628  11.644   9.160   6.961 -0.0907  0.1560 -0.0855
  737MOL0     C 1629  11.677   9.178   7.105 -0.5271  0.8249 -0.1662
  737MOL0     C 1630  11.555   9.198   7.185  0.3655  0.8301  0.3289
  737MOL0     C 1631  11.577   9.250   7.326 -0.4597  0.9406 -0.1496
  737MOL0     C 1632  11.436   9.255   7.385 -0.2746 -0.4082 -0.5240
  737MOL0     C 1633  11.317   9.253   7.419  0.3273 -0.9658 -1.0720
  737MOL0     C 1634  11.423   9.392   6.912 -0.7182 -1.0583 -0.5677
  737MOL0     C 1635  11.340   9.510   6.931  0.5471 -0.4836 -0.3890
  737MOL0     C 1636  11.196   9.492   6.905  0.9488 -0.4820  0.2301
  737MOL0     H 1637  11.136   9.964   7.070  0.2543 -0.6589 -1.5054
  737MOL0     H 1638  11.081  10.200   7.096 -0.7771 -1.6823 -0.7140
  737MOL0     H 1639  11.362  10.514   7.016  0.5748 -1.8313  1.0170
  737MOL0     H 1640  11.353  10.518   7.194 -2.5556  1.3231  2.9590
  737MOL0     H 1641  11.261  10.715   7.022  2.8824 -2.1269 -0.8055
  737MOL0     H 1642  11.116  10.605   7.016 -0.7389 -0.9658  0.8942
  737MOL0     H 1643  11.098  10.638   7.270 -2.0145  2.0857  0.2635
  737MOL0     H 1644  11.240  10.749   7.268  1.7746 -0.9176 -2.9744
  737MOL0     H 1645  11.127  10.901   7.134  2.1989 -1.4126 -0.2524
  737MOL0     H 1646  10.992  10.792   7.103  0.7684  1.0643 -1.3621
  737MOL0     H 1647  10.946  10.780   7.352  0.8561  0.9785  2.5664
  737MOL0     H 1648  10.905  10.933   7.277 -0.5012 -0.2157  0.9127
  737MOL0     H 1649  11.146  10.866   7.448  0.9516 -1.7563 -3.9046
  737MOL0     H 1650  11.111  11.033   7.362 -1.2784  0.8945 -0.6561
  737MOL0     H 1651  10.960  10.921   7.582 -0.6840 -0.3981 -1.5049
  737MOL0     H 1652  10.894  11.030   7.465  0.5630  1.1635 -2.6964
  737MOL0     H 1653  11.154  11.091   7.630 -1.8998 -1.4278  5.0679
  737MOL0     H 1654  11.050  11.214   7.537  1.9619 -0.3196 -1.5134
  737MOL0     H 1655  11.094  11.026   7.861 -0.6186 -1.4231  1.8016
  737MOL0     H 1656  10.777  11.096   8.065  0.9880  0.8748 -0.0517
  737MOL0     H 1657  10.915  11.187   8.117  2.5274 -1.4891  0.0546
  737MOL0     H 1658  10.886  10.893   8.084  0.1066 -1.1483  3.0964
  737MOL0     H 1659  11.052  10.961   8.060  1.0655 -0.4394  3.4186
  737MOL0     H 1660  11.040  11.075   8.271  0.6988 -0.2098 -0.9188
  737MOL0     H 1661  10.884  11.001   8.309  0.7960  2.5281  1.8079
  737MOL0     H 1662  10.997  10.789   8.325 -5.1590  2.7950 -2.6500
  737MOL0     H 1663  11.132  10.846   8.230 -2.4886 -1.5297 -2.2886
  737MOL0     H 1664  11.199  10.655   8.343 -1.3423  3.2803 -0.7962
  737MOL0     H 1665  11.437  10.419   8.492  1.7788 -0.2700 -4.9568
  737MOL0     H 1666  11.336  10.476   8.359  2.7744  0.7971  0.4339
  737MOL0     H 1667  11.262  10.387   8.496  2.1817 -1.2483  0.1484
  737MOL0     H 1668  11.702  10.365   8.775 -0.2257  2.5111 -0.8209
  737MOL0     H 1669  11.820  10.253   8.981 -1.5309 -0.8294  1.5667
  737MOL0     H 1670  11.939  10.320   9.359 -0.5691  1.1883 -2.5817
  737MOL0     H 1671  11.841  10.467   9.365 -2.0632  0.2870  0.3960
  737MOL0     H 1672  11.740  10.287   9.515 -1.9229 -1.5437  0.1851
  737MOL0     H 1673  11.630  10.319   9.374 -1.8379 -2.2326  1.4430
  737MOL0     H 1674  11.785  10.107   9.267 -0.0420 -0.7455  0.7975
  737MOL0     H 1675  11.645  10.088   9.363  0.0740 -0.8118 -5.4312
  737MOL0     H 1676  11.803  10.095   9.577 -1.1063  0.4104 -0.2839
  737MOL0     H 1677  11.926  10.103   9.446  0.8388  0.4210  1.4977
  737MOL0     H 1678  11.837   9.869   9.362 -1.2744 -2.5539  1.0383
  737MOL0     H 1679  11.891   9.871   9.524 -0.6803 -0.5028  0.3483
  737MOL0     H 1680  11.601   9.884   9.456 -1.5695  1.1827  3.4993
  737MOL0     H 1681  11.677   9.912   9.614 -1.9337  1.2792 -0.0436
  737MOL0     H 1682  11.714   9.649   9.466 -1.7991 -1.4286 -0.4289
  737MOL0     H 1683  11.567   9.692   9.559 -0.4823  2.1021 -0.5914
  737MOL0     H 1684  11.717   9.747   9.763 -2.2206  1.3962 -1.4713
  737MOL0     H 1685  11.848   9.690   9.658 -0.3602  5.7137  2.3688
  737MOL0     H 1686  11.698  10.584   9.219 -2.1172  0.3750 -0.7877
  737MOL0     H 1687  11.558  10.670   9.043 -2.8581 -0.8652  0.6126
  737MOL0     H 1688  11.448  10.812   8.747  1.9003  0.5833 -1.7626
  737MOL0     H 1689  11.306  10.959   8.614  1.6069 -0.6795  0.4858
  737MOL0     H 1690  11.493  10.300   7.078  0.4241  0.3782 -1.3536
  737MOL0     H 1691  11.545  10.059   7.054 -0.7230 -2.2482  0.0973
  737MOL0     H 1692  11.595   9.708   7.034  1.4641 -1.6548  2.6875
  737MOL0     H 1693  11.723   9.516   7.020 -0.0258  2.0588 -1.0927
  737MOL0     H 1694  11.553   9.102   6.946 -1.0437  1.6123 -0.1721
  737MOL0     H 1695  11.729   9.107   6.917  0.8069  2.3448 -1.1859
  737MOL0     H 1696  11.743   9.266   7.110  0.6770 -0.0824  0.3650
  737MOL0     H 1697  11.720   9.084   7.141  2.4275  0.9669 -2.8524
  737MOL0     H 1698  11.491   9.275   7.141 -1.4721 -1.4839 -1.3080
  737MOL0     H 1699  11.494   9.107   7.192 -0.1438  1.2296  1.3155
  737MOL0     H 1700  11.633   9.344   7.326  0.5317  0.3957  1.2852
  737MOL0     H 1701  11.634   9.176   7.384 -0.0034  1.8197  0.5499
  737MOL0     H 1702  11.220   9.258   7.463  0.6317 -0.5290 -0.4329
  737MOL0     H 1703  11.374   9.303   6.873 -1.8796 -0.0350 -1.5335
  737MOL0     H 1704  11.156   9.540   6.815 -2.2586  3.9892  3.5640
  737MOL0     H 1705  11.172   9.386   6.892 -2.8607  0.5188 -2.7095
  737MOL0     H 1706  11.133   9.542   6.980  2.1470  1.8303 -0.2189
  738MOL0     O 1707   4.771   2.184   9.644  0.3600  0.3083 -0.6902
  738MOL0     C 1708   4.857   2.106   9.682 -0.5365 -0.1565  0.0552
  738MOL0     O 1709   4.890   2.079   9.818  0.3811 -0.2051  0.1458
  738MOL0     C 1710   4.830   2.156   9.912 -0.1174  0.6147 -0.3839
  738MOL0     C 1711   4.789   2.291   9.907 -0.0798  0.8640 -0.1944
  738MOL0     C 1712   4.739   2.360  10.027 -0.6599  0.7291 -0.4187
  738MOL0     C 1713   4.726   2.279  10.136  0.3721 -0.9302  0.9524
  738MOL0     O 1714   4.672   2.328  10.260 -0.1942  1.0117  0.4178
  738MOL0     C 1715   4.537   2.342  10.245 -0.3012  0.0578  0.4222
  738MOL0     C 1716   4.452   2.224  10.296  0.9546  1.0759  0.2266
  738MOL0     C 1717   4.302   2.250  10.304  0.9525 -0.8508 -0.0380
  738MOL0     C 1718   4.239   2.244  10.159  0.5730 -0.0111 -0.2442
  738MOL0     C 1719   4.084   2.218  10.161  0.0263 -0.0900 -0.7690
  738MOL0     C 1720   4.052   2.198  10.017 -1.2006  0.3870 -0.3428
  738MOL0     C 1721   3.899   2.188  10.007  0.3711  0.4046  0.2929
  738MOL0     C 1722   3.874   2.119   9.872 -0.3519  0.2542 -0.2725
  738MOL0     N 1723   3.724   2.129   9.859  0.1156  0.5495 -0.6082
  738MOL0     C 1724   3.630   2.028   9.904 -0.5958 -0.6604  0.3193
  738MOL0     C 1725   3.503   2.062   9.859 -0.4399 -0.5878  1.0652
  738MOL0     C 1726   3.374   1.993   9.876 -0.3679  0.7365 -0.6240
  738MOL0     C 1727   3.362   1.945  10.026 -0.1236 -0.4808  0.2694
  738MOL0     C 1728   3.227   1.881  10.042  0.4555 -0.7225  0.4038
  738MOL0     C 1729   3.216   1.821  10.184  0.3841 -0.0204 -0.0483
  738MOL0     O 1730   3.285   1.691  10.192  0.3650 -0.0833 -0.3237
  738MOL0     C 1731   3.282   1.613  10.302 -0.6382  0.3862  0.3628
  738MOL0     C 1732   3.227   1.650  10.419 -0.5954  0.2862 -1.6555
  738MOL0     C 1733   3.215   1.560  10.526  0.3165  0.1237  0.0611
  738MOL0     C 1734   3.133   1.600  10.651 -0.3262  0.2766 -0.5556
  738MOL0     C 1735   3.270   1.429  10.512  0.5212  0.1204 -0.2128
  738MOL0     C 1736   3.263   1.340  10.628 -0.5043  0.3350 -0.0711
  738MOL0     O 1737   3.239   1.210  10.589 -0.7933  0.0958  0.2485
  738MOL0     C 1738   3.246   1.110  10.681  0.7184 -0.5113 -0.0808
  738MOL0     C 1739   3.363   1.068  10.737 -0.3531 -0.3947  0.0605
  738MOL0     C 1740   3.375   0.964  10.822 -0.5876  0.3876  0.6052
  738MOL0     C 1741   3.254   0.908  10.880  0.8730 -0.4936  0.4764
  738MOL0     O 1742   3.247   0.833  10.992 -0.6888 -0.0741  0.0006
  738MOL0     C 1743   3.360   0.787  11.071 -0.6046 -0.8977  0.2747
  738MOL0     C 1744   3.359   0.640  11.088 -0.4578  0.3513 -0.3187
  738MOL0     C 1745   3.508   0.609  11.137 -0.3239  0.3602  0.2795
  738MOL0     C 1746   3.528   0.477  11.223  0.6161 -0.9006 -0.5443
  738MOL0     C 1747   3.492   0.357  11.138 -0.4424 -0.2557 -0.1106
  738MOL0     C 1748   3.545   0.220  11.196  0.3225  0.0173  0.2603
  738MOL0     C 1749   3.494   0.104  11.109  0.1728  0.4250  0.1933
  738MOL0     C 1750   3.559  -0.019  11.162  0.0097  0.4327 -0.2251
  738MOL0    Cl 1751   3.511  -0.053  11.333 -0.1206 -0.0273 -0.7706
  738MOL0     C 1752   3.129   0.956  10.832 -0.4324 -0.4742 -0.1431
  738MOL0     C 1753   3.125   1.055  10.732 -1.5046 -0.6525 -0.5049
  738MOL0     O 1754   3.298   1.367  10.741 -0.1567 -0.0925 -0.4856
  738MOL0     C 1755   3.333   1.397  10.391  0.5328  1.1279 -0.9183
  738MOL0     C 1756   3.342   1.485  10.286 -0.3603  0.0881  0.4750
  738MOL0     N 1757   3.517   2.185   9.796 -0.1890 -0.0579 -0.1614
  738MOL0     N 1758   3.647   2.223   9.804  0.4599  0.0222 -0.4906
  738MOL0     C 1759   4.782   2.160  10.146 -0.4538  0.4040 -0.1875
  738MOL0     C 1760   4.831   2.091  10.038  0.0844 -0.9568 -0.6707
  738MOL0     C 1761   4.929   2.046   9.570  0.1141  0.4184  0.0856
  738MOL0     C 1762   5.027   1.944   9.602 -0.4750  0.8690 -0.5697
  738MOL0     C 1763   5.099   1.871   9.508 -0.4666 -0.8773  0.3238
  738MOL0     C 1764   5.078   1.899   9.376 -0.4886  0.2595 -0.5907
  738MOL0     O 1765   5.167   1.857   9.283 -0.4698  0.5202  0.3053
  738MOL0     C 1766   5.180   1.719   9.258  0.0675 -0.3010 -0.8099
  738MOL0     C 1767   5.320   1.667   9.278 -0.5307  0.8064 -0.2808
  738MOL0     C 1768   5.422   1.781   9.241  0.6273 -0.3417 -0.0011
  738MOL0     C 1769   5.556   1.720   9.207 -0.3730 -0.6470  0.5893
  738MOL0     C 1770   5.626   1.679   9.326 -0.2852  0.1761  0.2856
  738MOL0     C 1771   5.693   1.637   9.421  0.0109  0.5789 -0.4926
  738MOL0     C 1772   4.988   1.994   9.336 -0.4775 -0.2362  0.4237
  738MOL0     C 1773   4.905   2.067   9.428  0.2184 -0.2654 -0.4880
  738MOL0     C 1774   4.829   2.187   9.378 -0.7213 -0.7938 -0.0009
  738MOL0     H 1775   4.799   2.352   9.817  2.8916 -1.9164 -1.9645
  738MOL0     H 1776   4.709   2.463  10.012  6.0440  3.2261 -0.3701
  738MOL0     H 1777   4.511   2.378  10.145 -0.1489 -1.0834 -0.0460
  738MOL0     H 1778   4.508   2.427  10.308 -1.4312  1.9015 -2.3851
  738MOL0     H 1779   4.468   2.139  10.229 -1.7750  0.3427  0.3894
  738MOL0     H 1780   4.491   2.195  10.395  1.2713  0.6258 -0.0238
  738MOL0     H 1781   4.254   2.170  10.361 -3.4568 -0.3979 -2.6591
  738MOL0     H 1782   4.281   2.347  10.349  0.0987 -1.6737  1.3848
  738MOL0     H 1783   4.262   2.345  10.124  1.3268  0.3236  1.1541
  738MOL0     H 1784   4.283   2.162  10.103 -0.7995 -0.9426 -0.0100
  738MOL0     H 1785   4.019   2.291  10.209  0.2568 -0.5794  0.3423
  738MOL0     H 1786   4.064   2.126  10.218  3.0887  0.3570  1.2752
  738MOL0     H 1787   4.094   2.263   9.941  1.1388 -3.1736 -2.3993
  738MOL0     H 1788   4.087   2.100   9.982 -1.4273  0.1398  0.1161
  738MOL0     H 1789   3.842   2.280  10.024 -1.5206 -0.3331 -1.5773
  738MOL0     H 1790   3.874   2.106  10.075 -0.0287 -0.0388 -0.3853
  738MOL0     H 1791   3.914   2.183   9.792 -2.2621  5.3636  2.3764
  738MOL0     H 1792   3.895   2.012   9.875  0.5801  0.2554 -3.3932
  738MOL0     H 1793   3.652   1.939   9.961 -2.7725 -1.5881 -0.1752
  738MOL0     H 1794   3.386   1.908   9.808 -0.2098  0.7744 -0.6440
  738MOL0     H 1795   3.285   2.046   9.842 -0.2312  2.3376  1.2961
  738MOL0     H 1796   3.431   1.862  10.041  3.1196  1.7921 -1.0085
  738MOL0     H 1797   3.388   2.030  10.090  1.6266 -0.8906  0.1462
  738MOL0     H 1798   3.140   1.947  10.033  0.3815 -0.5351  2.1793
  738MOL0     H 1799   3.213   1.818   9.954 -0.6731 -1.7362  1.2554
  738MOL0     H 1800   3.251   1.896  10.256  1.7510  2.4603 -3.0554
  738MOL0     H 1801   3.115   1.813  10.224  1.3972  2.9960  3.7727
  738MOL0     H 1802   3.188   1.749  10.440  2.5147  0.9094  2.6410
  738MOL0     H 1803   3.203   1.593  10.735 -2.9911  0.6434  1.8744
  738MOL0     H 1804   3.053   1.529  10.677 -1.8232  2.9230  2.8588
  738MOL0     H 1805   3.097   1.703  10.643 -0.2068  0.5291  1.6443
  738MOL0     H 1806   3.459   1.111  10.709 -0.7905 -0.7296 -2.1705
  738MOL0     H 1807   3.474   0.932  10.852 -1.3879 -1.5377  1.3364
  738MOL0     H 1808   3.453   0.815  11.020 -1.6592  3.1811  0.2481
  738MOL0     H 1809   3.353   0.836  11.168 -2.1859  1.5562 -0.9566
  738MOL0     H 1810   3.285   0.605  11.161  1.0429 -4.4103 -0.7004
  738MOL0     H 1811   3.331   0.591  10.994 -1.7224  1.9547 -0.8102
  738MOL0     H 1812   3.537   0.696  11.196  2.6056 -0.1411 -0.2845
  738MOL0     H 1813   3.574   0.604  11.050  0.3754 -0.5964  0.8416
  738MOL0     H 1814   3.455   0.484  11.305  1.9188 -3.8417  0.9999
  738MOL0     H 1815   3.631   0.473  11.258  0.7994 -1.2096 -1.1026
  738MOL0     H 1816   3.383   0.357  11.125 -0.4773  1.2917 -0.0449
  738MOL0     H 1817   3.546   0.370  11.043 -3.0472  3.3373 -1.3447
  738MOL0     H 1818   3.507   0.211  11.299  0.3792  2.5219  0.5635
  738MOL0     H 1819   3.654   0.222  11.204  0.6112  0.0205 -2.6144
  738MOL0     H 1820   3.530   0.124  11.008  0.5896  1.3204  0.5155
  738MOL0     H 1821   3.385   0.096  11.096  0.1652  3.3346 -3.2003
  738MOL0     H 1822   3.668  -0.014  11.163  0.0092  0.4294  1.0685
  738MOL0     H 1823   3.526  -0.101  11.097 -1.5067  2.5953 -2.3377
  738MOL0     H 1824   3.040   0.942  10.893 -0.4933 -3.1756 -0.7114
  738MOL0     H 1825   3.028   1.098  10.710 -0.2975  2.2664 -0.6052
  738MOL0     H 1826   3.360   1.295  10.369  0.8816  1.5910 -2.8142
  738MOL0     H 1827   3.382   1.458  10.189 -0.9005  0.6387  0.0971
  738MOL0     H 1828   4.788   2.119  10.246 -2.6179  1.7373  0.5434
  738MOL0     H 1829   4.882   1.996  10.050 -0.9304 -1.4809 -0.4283
  738MOL0     H 1830   5.050   1.915   9.705  1.4310  2.5803 -0.4260
  738MOL0     H 1831   5.183   1.808   9.536  0.0178 -0.8933 -1.1243
  738MOL0     H 1832   5.130   1.660   9.336  1.3906 -0.3691  0.0185
  738MOL0     H 1833   5.140   1.690   9.160 -2.0329 -1.3227  0.2865
  738MOL0     H 1834   5.334   1.584   9.208  1.3587  0.8052  0.0512
  738MOL0     H 1835   5.339   1.638   9.381 -3.0322  1.0455  0.3317
  738MOL0     H 1836   5.387   1.843   9.159 -3.3309  1.5198  2.7422
  738MOL0     H 1837   5.449   1.852   9.320  0.5237  0.1053 -0.3659
  738MOL0     H 1838   5.626   1.778   9.146 -0.2351 -2.0791 -0.6738
  738MOL0     H 1839   5.544   1.636   9.138  0.7132 -0.0700 -0.3334
  738MOL0     H 1840   5.754   1.587   9.494 -0.9147 -3.1109 -2.0084
  738MOL0     H 1841   4.978   2.005   9.229  1.4251  0.4189  0.2814
  738MOL0     H 1842   4.836   2.279   9.436  2.4820 -1.2855  0.5931
  738MOL0     H 1843   4.867   2.212   9.278  0.3994 -1.1656  0.3114
  738MOL0     H 1844   4.729   2.144   9.368 -0.3648 -1.6045 -0.1950
  739MOL0     O 1845   1.200   1.784   9.023  0.0993  0.1480 -0.6672
  739MOL0     C 1846   1.201   1.863   9.116 -0.6522 -0.4894  0.4526
  739MOL0     O 1847   1.246   1.841   9.242 -0.4062  0.7477  0.2435
  739MOL0     C 1848   1.343   1.741   9.260  0.6704 -0.2325  0.2200
  739MOL0     C 1849   1.337   1.667   9.374  1.0910  0.9481 -0.3001
  739MOL0     C 1850   1.420   1.555   9.398  0.3685 -1.3548 -0.1657
  739MOL0     C 1851   1.529   1.529   9.318  0.5363  1.1118  0.6320
  739MOL0     O 1852   1.626   1.438   9.347  0.1388  0.2296  0.2772
  739MOL0     C 1853   1.564   1.309   9.379  0.1131  0.0582 -0.1898
  739MOL0     C 1854   1.670   1.198   9.385 -0.1971  0.2069  0.4078
  739MOL0     C 1855   1.614   1.080   9.466 -0.3973 -0.1088  0.6781
  739MOL0     C 1856   1.722   0.974   9.467 -0.0177 -0.0646  0.1500
  739MOL0     C 1857   1.660   0.844   9.531 -0.5576 -0.2880  0.1668
  739MOL0     C 1858   1.705   0.826   9.682  1.0690 -0.1174  0.2792
  739MOL0     C 1859   1.633   0.922   9.775 -0.3429 -0.7965 -1.0667
  739MOL0     C 1860   1.675   0.863   9.917 -0.0300 -0.0766  0.0416
  739MOL0     N 1861   1.608   0.963  10.007 -0.3497 -0.0022  0.3697
  739MOL0     C 1862   1.475   0.961  10.040 -0.5716 -0.1671 -0.8301
  739MOL0     C 1863   1.481   1.037  10.154  0.2010  0.1643  0.3194
  739MOL0     C 1864   1.351   1.061  10.232 -0.3122 -0.1739 -0.2460
  739MOL0     C 1865   1.271   0.930  10.268  0.0757 -0.4822  0.2096
  739MOL0     C 1866   1.155   0.964  10.365 -0.0967  0.3979  0.0982
  739MOL0     C 1867   1.163   0.909  10.514 -0.5153  0.8314  1.0907
  739MOL0     O 1868   1.299   0.904  10.559  0.1862 -0.2348 -0.4202
  739MOL0     C 1869   1.319   0.802  10.642  1.1594 -1.0208  0.2477
  739MOL0     C 1870   1.423   0.713  10.610  1.1269  0.1321 -0.0951
  739MOL0     C 1871   1.457   0.599  10.689 -0.3781  0.5074 -0.5493
  739MOL0     C 1872   1.575   0.516  10.644 -0.0103  0.2701  0.0644
  739MOL0     C 1873   1.368   0.569  10.801  0.4650 -0.5308 -0.5341
  739MOL0     C 1874   1.395   0.465  10.905 -1.0830 -1.3146 -0.0244
  739MOL0     O 1875   1.482   0.361  10.881 -0.1432  0.0621  0.6077
  739MOL0     C 1876   1.458   0.244  10.951 -0.4333 -0.0784  0.5227
  739MOL0     C 1877   1.407   0.123  10.891 -1.5911 -0.1414  0.4166
  739MOL0     C 1878   1.383   0.010  10.968 -0.1583  0.0410 -0.6114
  739MOL0     C 1879   1.415   0.001  11.104  0.5817  0.2175 -0.6387
  739MOL0     O 1880   1.375  -0.113  11.172  0.7288 -0.9044 -0.1742
  739MOL0     C 1881   1.297  -0.102  11.294 -0.3327 -0.0403  0.2682
  739MOL0     C 1882   1.263  -0.239  11.344 -0.0884  0.3933  0.1574
  739MOL0     C 1883   1.132  -0.224  11.428 -0.2670 -0.7717  0.2621
  739MOL0     C 1884   1.090  -0.358  11.493  0.0012 -0.1828  0.8378
  739MOL0     C 1885   0.973  -0.324  11.588 -0.4606 -0.3540 -0.5398
  739MOL0     C 1886   0.913  -0.439  11.669 -0.8132 -0.1313  1.0502
  739MOL0     C 1887   0.862  -0.390  11.802  1.3576  0.7237  0.1748
  739MOL0     C 1888   0.730  -0.321  11.806  0.4469 -0.2029 -0.7647
  739MOL0    Cl 1889   0.603  -0.418  11.749 -0.2832 -0.3363  0.1969
  739MOL0     C 1890   1.477   0.115  11.162  0.5480 -0.7360  0.4557
  739MOL0     C 1891   1.490   0.237  11.090  0.2384  0.0498  0.2624
  739MOL0     O 1892   1.331   0.478  11.007 -0.7056  0.4326 -0.3078
  739MOL0     C 1893   1.280   0.674  10.840 -0.3897 -0.6769 -0.3144
  739MOL0     C 1894   1.256   0.786  10.763  0.4600  0.6326 -0.1234
  739MOL0     N 1895   1.596   1.094  10.183 -0.1548  0.2116 -0.5336
  739MOL0     N 1896   1.676   1.056  10.086  0.3838 -0.2204  0.3735
  739MOL0     C 1897   1.543   1.611   9.205 -0.7954 -0.4726  0.6435
  739MOL0     C 1898   1.446   1.712   9.172  0.0742 -0.3312  0.0558
  739MOL0     C 1899   1.139   1.998   9.107  0.4933  0.0152  0.7852
  739MOL0     C 1900   1.078   2.054   9.220  0.5170  0.1148 -0.4906
  739MOL0     C 1901   1.015   2.176   9.223  0.2867 -1.0683  1.1939
  739MOL0     C 1902   1.024   2.263   9.113  0.5220 -0.1816 -0.1651
  739MOL0     O 1903   0.963   2.388   9.106 -0.6830 -0.4468  0.0589
  739MOL0     C 1904   0.849   2.415   9.185  0.6894 -0.3393 -0.4759
  739MOL0     C 1905   0.733   2.355   9.114  0.8029  0.5851  0.0262
  739MOL0     C 1906   0.705   2.417   8.972  0.3621 -0.2033 -1.1936
  739MOL0     C 1907   0.547   2.403   8.938 -1.3909  0.1135 -0.4222
  739MOL0     C 1908   0.502   2.270   8.911 -0.0474  0.4900  0.1000
  739MOL0     C 1909   0.460   2.157   8.879 -0.5152 -0.0628 -0.6823
  739MOL0     C 1910   1.092   2.215   9.003 -0.2731  0.0161  0.0465
  739MOL0     C 1911   1.134   2.083   8.996 -0.5879 -0.3771 -0.2926
  739MOL0     C 1912   1.193   2.035   8.859  0.9431  0.8360 -0.6893
  739MOL0     H 1913   1.270   1.705   9.451 -4.0303 -0.5483 -3.5455
  739MOL0     H 1914   1.402   1.493   9.485 -0.4054 -2.9771 -1.4256
  739MOL0     H 1915   1.482   1.286   9.310 -0.5456  2.9963 -0.5285
  739MOL0     H 1916   1.515   1.316   9.477  0.7169  0.7978  0.0698
  739MOL0     H 1917   1.691   1.162   9.284 -0.0293 -3.1874  1.5151
  739MOL0     H 1918   1.762   1.246   9.422  1.6356 -1.3646 -1.8097
  739MOL0     H 1919   1.592   1.103   9.570 -1.6440 -3.8016  1.3948
  739MOL0     H 1920   1.525   1.039   9.415 -0.8855  1.2149  0.4329
  739MOL0     H 1921   1.756   0.967   9.363 -0.1454  2.0105 -0.0639
  739MOL0     H 1922   1.808   1.006   9.527  1.8524 -1.4524 -1.6276
  739MOL0     H 1923   1.707   0.762   9.476 -2.4657  0.1547 -2.2904
  739MOL0     H 1924   1.551   0.840   9.522 -0.5490 -3.6377  0.0865
  739MOL0     H 1925   1.674   0.727   9.716  0.0933 -0.5191 -1.6408
  739MOL0     H 1926   1.814   0.827   9.688  1.2587  1.2502 -2.0564
  739MOL0     H 1927   1.527   0.908   9.752 -0.4567 -0.9952 -0.4528
  739MOL0     H 1928   1.665   1.026   9.760 -0.1493 -1.2167 -4.0951
  739MOL0     H 1929   1.636   0.767   9.953 -2.4119  0.8962  0.2698
  739MOL0     H 1930   1.784   0.854   9.922 -0.0296 -2.8098 -2.1325
  739MOL0     H 1931   1.387   0.913   9.999 -1.9568  2.0978 -0.7138
  739MOL0     H 1932   1.285   1.132  10.182 -0.1773 -0.2383 -0.5125
  739MOL0     H 1933   1.392   1.095  10.328 -1.5084  1.5877 -0.3018
  739MOL0     H 1934   1.227   0.911  10.169  0.5378 -1.5915  0.2085
  739MOL0     H 1935   1.341   0.849  10.286  2.2439  0.0478 -4.2911
  739MOL0     H 1936   1.148   1.073  10.360 -0.2921  0.3197 -1.9470
  739MOL0     H 1937   1.061   0.934  10.318 -1.3502  5.8890 -1.6126
  739MOL0     H 1938   1.102   0.972  10.579  1.1743  2.4665  1.1889
  739MOL0     H 1939   1.113   0.813  10.507  3.9091 -1.6204 -1.2828
  739MOL0     H 1940   1.481   0.732  10.520  1.5195 -0.6336 -0.0155
  739MOL0     H 1941   1.660   0.527  10.712  0.5016 -1.9871 -0.1402
  739MOL0     H 1942   1.605   0.540  10.541  2.0726 -1.5190  0.1748
  739MOL0     H 1943   1.538   0.414  10.653 -0.7284  0.3091 -2.0358
  739MOL0     H 1944   1.389   0.122  10.784 -1.6756  1.9540  0.3697
  739MOL0     H 1945   1.348  -0.075  10.911 -1.0568  0.1617 -0.2610
  739MOL0     H 1946   1.364  -0.046  11.360 -0.0462 -0.3838  0.2731
  739MOL0     H 1947   1.210  -0.040  11.272  0.8128  0.4699 -3.6680
  739MOL0     H 1948   1.240  -0.312  11.266 -1.1658  2.4644 -1.5768
  739MOL0     H 1949   1.345  -0.278  11.405  2.1938  0.9250 -2.4275
  739MOL0     H 1950   1.053  -0.188  11.362  1.7175  0.7631 -1.3808
  739MOL0     H 1951   1.156  -0.149  11.503 -0.0930 -0.2125 -0.3506
  739MOL0     H 1952   1.179  -0.393  11.545  1.1805 -1.1269 -1.6717
  739MOL0     H 1953   1.077  -0.437  11.418  2.3134 -1.6223  1.8395
  739MOL0     H 1954   1.005  -0.247  11.659  1.4682  0.3552 -2.0943
  739MOL0     H 1955   0.886  -0.285  11.534 -0.8916 -0.9771 -0.3083
  739MOL0     H 1956   0.995  -0.507  11.694 -0.8660 -0.1751  1.1029
  739MOL0     H 1957   0.836  -0.489  11.610 -1.7680  1.4679  0.8702
  739MOL0     H 1958   0.930  -0.320  11.852  1.7794  3.5678 -3.8669
  739MOL0     H 1959   0.846  -0.475  11.868 -0.6584  1.9011  1.3073
  739MOL0     H 1960   0.735  -0.227  11.751  0.5814 -1.7923 -3.6696
  739MOL0     H 1961   0.708  -0.295  11.910 -0.0244  1.3160 -1.2090
  739MOL0     H 1962   1.506   0.116  11.267 -0.7404  1.5223  0.8383
  739MOL0     H 1963   1.530   0.327  11.135 -0.4051  1.9907 -2.7481
  739MOL0     H 1964   1.232   0.679  10.938  3.0808 -0.3494  1.5490
  739MOL0     H 1965   1.177   0.853  10.798 -2.0066 -1.1291 -1.9599
  739MOL0     H 1966   1.628   1.581   9.145  0.0928 -1.5863  2.3754
  739MOL0     H 1967   1.445   1.752   9.071 -1.4894 -1.5970 -0.4712
  739MOL0     H 1968   1.065   1.995   9.310 -1.6074  0.9573 -0.1871
  739MOL0     H 1969   0.971   2.216   9.314  1.4519  1.5950  0.7115
  739MOL0     H 1970   0.858   2.381   9.288  0.9952  1.4801  0.1420
  739MOL0     H 1971   0.838   2.523   9.200  0.9777 -0.4195  0.3764
  739MOL0     H 1972   0.640   2.371   9.168  1.3797  1.4367  0.7968
  739MOL0     H 1973   0.746   2.246   9.113  0.2600  0.5191 -0.3783
  739MOL0     H 1974   0.724   2.524   8.980 -0.4655 -0.1930  1.8179
  739MOL0     H 1975   0.775   2.378   8.897  0.7332  2.6047 -2.4241
  739MOL0     H 1976   0.543   2.448   8.839  2.5951 -1.5176 -1.4795
  739MOL0     H 1977   0.487   2.456   9.013  1.4344  1.5010  1.0261
  739MOL0     H 1978   0.409   2.065   8.859  1.2517 -0.8062 -2.0238
  739MOL0     H 1979   1.098   2.283   8.918 -1.2886  0.4729  0.3405
  739MOL0     H 1980   1.199   2.124   8.795 -0.5941  2.6015  1.4318
  739MOL0     H 1981   1.292   1.991   8.869 -0.1278 -1.5286  0.3874
  739MOL0     H 1982   1.110   1.975   8.820  1.4285  0.1226 -0.6220
  740MOL0     O 1983   0.839   1.609   8.021 -0.1032 -0.3006  0.4146
  740MOL0     C 1984   0.738   1.544   8.024  0.2012 -0.6761 -0.0537
  740MOL0     O 1985   0.714   1.408   7.984 -0.9895  0.2802 -0.6553
  740MOL0     C 1986   0.801   1.329   7.919 -0.1041 -0.2742 -0.4751
  740MOL0     C 1987   0.788   1.190   7.949 -0.8609  0.6599  0.3927
  740MOL0     C 1988   0.893   1.101   7.929 -1.0270  0.4906  0.5331
  740MOL0     C 1989   1.002   1.154   7.861 -0.0214  0.8340 -0.4093
  740MOL0     O 1990   1.093   1.064   7.824  0.0359  0.4362  0.0551
  740MOL0     C 1991   1.210   1.117   7.767  0.0184 -0.2384  0.4205
  740MOL0     C 1992   1.197   1.142   7.620 -0.5393  0.1330  0.0407
  740MOL0     C 1993   1.195   1.017   7.516 -0.0752 -0.5134 -0.7073
  740MOL0     C 1994   1.089   0.914   7.539 -0.0761  0.6323  0.1660
  740MOL0     C 1995   1.041   0.823   7.430 -0.4630  0.1142 -0.1070
  740MOL0     C 1996   0.927   0.739   7.495 -0.4768  0.2372 -0.0744
  740MOL0     C 1997   0.878   0.618   7.411 -0.2227  0.1664 -0.0397
  740MOL0     C 1998   0.988   0.531   7.353  0.7634  0.4444  0.9025
  740MOL0     N 1999   1.071   0.484   7.464  0.0818 -0.2284  0.0878
  740MOL0     C 2000   1.043   0.374   7.538 -0.2405  0.5195 -0.5481
  740MOL0     C 2001   1.154   0.350   7.619 -0.0322 -0.6267  1.1703
  740MOL0     C 2002   1.175   0.224   7.698 -0.4712  0.6073  0.5836
  740MOL0     C 2003   1.047   0.177   7.777 -1.4431 -0.0458 -0.0662
  740MOL0     C 2004   1.027   0.281   7.894  0.1917  0.5692  0.8713
  740MOL0     C 2005   0.931   0.398   7.861 -0.3337  0.5617 -0.1206
  740MOL0     O 2006   1.008   0.521   7.853 -0.4471  1.1502  0.3227
  740MOL0     C 2007   1.069   0.576   7.964  0.5858  1.0336  0.3009
  740MOL0     C 2008   1.062   0.520   8.090 -0.5492  0.1821 -0.1466
  740MOL0     C 2009   1.093   0.584   8.212 -0.0677 -0.4320 -0.0419
  740MOL0     C 2010   1.071   0.500   8.330  0.1369  0.6141 -0.2775
  740MOL0     C 2011   1.149   0.719   8.202 -0.3964 -0.1399 -0.1225
  740MOL0     C 2012   1.201   0.799   8.313  0.0950  0.0594 -0.9590
  740MOL0     O 2013   1.277   0.905   8.295  0.1124 -0.4416  0.0991
  740MOL0     C 2014   1.353   0.941   8.408  1.0815  0.1391 -0.1013
  740MOL0     C 2015   1.471   0.865   8.435  0.4436 -0.1640 -0.6687
  740MOL0     C 2016   1.561   0.922   8.528  0.3972 -0.7097 -0.3227
  740MOL0     C 2017   1.534   1.046   8.604 -0.0101 -0.3271 -0.5107
  740MOL0     O 2018   1.629   1.070   8.698  0.3771 -0.5760 -0.2129
  740MOL0     C 2019   1.622   1.195   8.784 -0.0187  0.7299 -0.3205
  740MOL0     C 2020   1.570   1.155   8.921 -0.0935 -0.9459  0.0038
  740MOL0     C 2021   1.629   1.027   8.981  0.3847 -0.0212 -0.7794
  740MOL0     C 2022   1.777   1.030   8.975  0.0655  0.1412  1.0823
  740MOL0     C 2023   1.832   0.893   9.022 -0.3010  1.0932 -0.2243
  740MOL0     C 2024   1.984   0.903   9.040 -0.7660 -0.2578  0.3869
  740MOL0     C 2025   2.048   0.763   9.087  0.2543  0.4308 -0.1105
  740MOL0     C 2026   2.017   0.722   9.236 -0.0859 -0.0334  0.0282
  740MOL0    Cl 2027   1.849   0.640   9.243  0.6438  0.0068 -0.4128
  740MOL0     C 2028   1.414   1.115   8.571 -0.1029  0.0189  0.5811
  740MOL0     C 2029   1.323   1.056   8.484 -0.1181 -1.0780 -0.8692
  740MOL0     O 2030   1.157   0.759   8.424 -0.3152 -0.5090  0.1808
  740MOL0     C 2031   1.169   0.768   8.077 -0.1675  0.2602  0.7335
  740MOL0     C 2032   1.118   0.703   7.966  0.4946 -0.3476 -0.2565
  740MOL0     N 2033   1.244   0.447   7.577  0.3477 -0.2693 -0.3000
  740MOL0     N 2034   1.193   0.535   7.499 -0.1964  0.6737 -0.5784
  740MOL0     C 2035   1.005   1.287   7.814  0.1557  0.3065  0.6909
  740MOL0     C 2036   0.911   1.375   7.848 -0.0373 -0.3473  0.3718
  740MOL0     C 2037   0.617   1.625   8.073 -0.1503  0.2229  0.1080
  740MOL0     C 2038   0.492   1.556   8.086 -1.1172 -0.8239 -0.0631
  740MOL0     C 2039   0.385   1.625   8.139 -0.6302  0.7972  0.8290
  740MOL0     C 2040   0.384   1.760   8.171  0.2673  0.5902  0.0144
  740MOL0     O 2041   0.273   1.821   8.227  0.7318  0.3981 -0.9701
  740MOL0     C 2042   0.259   1.962   8.212  0.6259 -0.5635 -0.3212
  740MOL0     C 2043   0.119   1.996   8.177  0.1706 -0.5026  0.0122
  740MOL0     C 2044   0.023   1.961   8.291 -0.9540 -0.0857 -0.1564
  740MOL0     C 2045  -0.124   1.998   8.276  0.2650  0.6019  0.0010
  740MOL0     C 2046  -0.198   1.915   8.183 -0.4630  1.1854 -0.4708
  740MOL0     C 2047  -0.263   1.848   8.101  0.3234 -0.1033  0.4323
  740MOL0     C 2048   0.502   1.826   8.160 -0.4838 -0.2475 -0.3316
  740MOL0     C 2049   0.617   1.768   8.102 -1.1068  0.1034 -0.4294
  740MOL0     C 2050   0.745   1.855   8.111  0.5150  0.1739  0.7615
  740MOL0     H 2051   0.696   1.142   7.979 -1.6997  0.3647 -2.3623
  740MOL0     H 2052   0.872   1.002   7.969 -0.9313  0.5979  0.8526
  740MOL0     H 2053   1.290   1.043   7.774 -0.4003 -0.7264  0.1440
  740MOL0     H 2054   1.247   1.209   7.813 -1.3516 -0.1380  1.3854
  740MOL0     H 2055   1.103   1.191   7.590  0.6257  1.5425 -1.5596
  740MOL0     H 2056   1.280   1.212   7.607 -0.0070 -0.4893  0.0722
  740MOL0     H 2057   1.195   1.057   7.414 -1.3457  2.3536  0.3220
  740MOL0     H 2058   1.291   0.965   7.527  1.8741  2.4598 -2.2354
  740MOL0     H 2059   1.125   0.861   7.627 -0.1739 -1.7074 -1.1423
  740MOL0     H 2060   1.001   0.967   7.577 -0.2105  0.2719  0.3602
  740MOL0     H 2061   1.131   0.771   7.395  1.4186  2.9039  0.2956
  740MOL0     H 2062   0.995   0.863   7.339 -1.7639 -2.5886 -0.7561
  740MOL0     H 2063   0.955   0.713   7.597 -0.1098  0.4487 -0.1189
  740MOL0     H 2064   0.835   0.797   7.507 -0.1991  0.8346 -0.7294
  740MOL0     H 2065   0.812   0.642   7.327 -1.3168 -3.2870 -0.3582
  740MOL0     H 2066   0.814   0.561   7.480  1.4362 -1.0277  0.5662
  740MOL0     H 2067   0.937   0.453   7.296 -1.5454  3.3240 -1.2627
  740MOL0     H 2068   1.050   0.586   7.282 -0.5301  3.0014  1.6187
  740MOL0     H 2069   0.962   0.304   7.523 -1.3499  1.8262 -0.8542
  740MOL0     H 2070   1.248   0.253   7.775 -0.8336  1.2989  0.6782
  740MOL0     H 2071   1.207   0.147   7.627  0.1787  1.5901 -0.2084
  740MOL0     H 2072   0.960   0.162   7.712 -0.8336  0.3803 -0.9926
  740MOL0     H 2073   1.069   0.077   7.816 -0.1405 -0.4783 -1.8036
  740MOL0     H 2074   0.987   0.223   7.977 -0.2891 -0.5159 -0.0839
  740MOL0     H 2075   1.120   0.310   7.943  0.7481 -0.1927  0.2973
  740MOL0     H 2076   0.892   0.364   7.765 -0.6261 -3.7420  1.3246
  740MOL0     H 2077   0.852   0.407   7.937  1.4543 -0.8754  2.0317
  740MOL0     H 2078   1.016   0.422   8.104 -0.9273  0.3625 -0.1288
  740MOL0     H 2079   1.020   0.408   8.299  1.8013  0.2977 -2.4124
  740MOL0     H 2080   1.015   0.557   8.404  1.7157  2.9482 -0.7860
  740MOL0     H 2081   1.170   0.486   8.375  0.2776  1.6707 -0.2286
  740MOL0     H 2082   1.477   0.778   8.371  2.7278 -1.1410  0.7599
  740MOL0     H 2083   1.648   0.864   8.557 -0.1918 -2.8372 -2.4880
  740MOL0     H 2084   1.727   1.226   8.789  0.6250 -1.2555 -0.4577
  740MOL0     H 2085   1.570   1.278   8.736 -1.0118 -1.4853 -3.4329
  740MOL0     H 2086   1.574   1.242   8.987 -4.5201 -2.2946  2.4548
  740MOL0     H 2087   1.462   1.140   8.918  0.0683 -2.4232  0.8746
  740MOL0     H 2088   1.591   0.939   8.928  0.6601 -1.1249  0.7811
  740MOL0     H 2089   1.601   1.021   9.087  0.7944 -0.6502 -0.7028
  740MOL0     H 2090   1.817   1.119   9.023  0.1791  2.9983 -3.6458
  740MOL0     H 2091   1.807   1.035   8.870  1.7990 -1.6390  1.4353
  740MOL0     H 2092   1.781   0.879   9.118  1.6266  2.8731  1.1386
  740MOL0     H 2093   1.805   0.818   8.946  2.0859 -0.7255  0.6059
  740MOL0     H 2094   2.001   0.969   9.125  0.0113 -2.2120  1.8218
  740MOL0     H 2095   2.033   0.925   8.945  0.7168 -1.8520  0.7455
  740MOL0     H 2096   2.153   0.791   9.078  0.6105 -0.2481  1.6013
  740MOL0     H 2097   2.044   0.676   9.020 -1.3748 -1.3162  2.0835
  740MOL0     H 2098   2.042   0.792   9.317 -0.0826 -1.8451  1.6578
  740MOL0     H 2099   2.093   0.647   9.256  1.9166  2.4976  3.0226
  740MOL0     H 2100   1.391   1.203   8.630  1.6015  0.6343  0.3596
  740MOL0     H 2101   1.226   1.103   8.483 -0.7993 -2.2691  1.5985
  740MOL0     H 2102   1.209   0.864   8.045 -5.4777  1.6614 -3.4106
  740MOL0     H 2103   1.107   0.760   7.874  0.9696  0.7666  0.3610
  740MOL0     H 2104   1.096   1.333   7.777  1.1463 -1.6258  0.5945
  740MOL0     H 2105   0.920   1.479   7.818 -3.0973  0.2549  1.1654
  740MOL0     H 2106   0.475   1.452   8.061 -2.2818 -0.8233  0.6365
  740MOL0     H 2107   0.297   1.560   8.142  1.1318 -1.7204  0.8991
  740MOL0     H 2108   0.289   2.009   8.306  2.1607 -1.3532 -0.3917
  740MOL0     H 2109   0.319   2.007   8.132  0.1240  0.4753 -0.1313
  740MOL0     H 2110   0.076   1.957   8.084  1.8325  1.8656 -1.8376
  740MOL0     H 2111   0.096   2.102   8.164 -1.6832 -0.8905 -0.1296
  740MOL0     H 2112   0.046   1.854   8.294 -0.0036  0.0705 -1.2021
  740MOL0     H 2113   0.056   2.013   8.382 -0.8421 -0.0766 -0.2024
  740MOL0     H 2114  -0.136   2.103   8.247  0.7498  0.2927 -1.3761
  740MOL0     H 2115  -0.170   1.995   8.376  0.9208  2.4031  0.3849
  740MOL0     H 2116  -0.315   1.775   8.043  1.9208 -1.1696  0.2885
  740MOL0     H 2117   0.515   1.932   8.183  3.6468 -0.0321 -2.7215
  740MOL0     H 2118   0.792   1.858   8.012 -2.0942  1.6412 -0.5411
  740MOL0     H 2119   0.728   1.958   8.145 -2.1324  0.0617 -0.0292
  740MOL0     H 2120   0.803   1.809   8.192  0.2270 -2.2330 -0.3249
  741MOL0     O 2121   1.508   4.834   2.993 -0.7353  0.3546  0.1656
  741MOL0     C 2122   1.469   4.923   3.065 -0.2750 -0.8930  0.7077
  741MOL0     O 2123   1.537   4.972   3.171 -0.4339  0.3939  0.2478
  741MOL0     C 2124   1.624   4.894   3.241  0.9143  0.7598  1.6175
  741MOL0     C 2125   1.740   4.851   3.184 -0.1208  0.5331  0.4951
  741MOL0     C 2126   1.832   4.772   3.262  0.2615  0.9439 -0.5890
  741MOL0     C 2127   1.790   4.710   3.379  0.2438 -0.8970  1.0041
  741MOL0     O 2128   1.875   4.623   3.449 -0.5962 -0.1514 -0.1945
  741MOL0     C 2129   1.893   4.495   3.393 -0.1765 -0.9467  1.1696
  741MOL0     C 2130   1.976   4.494   3.261 -0.2315 -0.3847  0.1220
  741MOL0     C 2131   1.981   4.352   3.199  0.7059  0.4341 -0.2736
  741MOL0     C 2132   2.087   4.325   3.096 -0.3676 -0.2666  0.5445
  741MOL0     C 2133   2.038   4.208   3.016 -0.3093 -0.1418 -0.1279
  741MOL0     C 2134   2.157   4.133   2.941 -0.6592 -0.2190  0.3346
  741MOL0     C 2135   2.174   4.169   2.804 -0.4014 -1.0415  1.1386
  741MOL0     C 2136   2.087   4.086   2.710  0.2111  0.4445  0.0182
  741MOL0     N 2137   2.116   4.122   2.566 -0.1832  0.5029 -0.3093
  741MOL0     C 2138   2.185   4.029   2.487 -0.7115  0.1218 -0.2510
  741MOL0     C 2139   2.211   4.086   2.373  0.7664 -0.7240 -0.4601
  741MOL0     C 2140   2.294   4.034   2.260  0.4254 -0.1715 -0.5153
  741MOL0     C 2141   2.248   3.892   2.219 -0.0495 -0.6678 -0.5587
  741MOL0     C 2142   2.301   3.841   2.085 -0.7267  0.6026 -0.4187
  741MOL0     C 2143   2.252   3.706   2.037  0.3332  1.1653 -0.2414
  741MOL0     O 2144   2.107   3.709   2.012 -0.6292 -0.2366 -0.3776
  741MOL0     C 2145   2.044   3.776   1.909 -0.2583  0.3041  0.8392
  741MOL0     C 2146   2.122   3.822   1.789  0.1007  0.5202 -0.1179
  741MOL0     C 2147   2.062   3.881   1.677 -0.0313 -0.3206 -0.1302
  741MOL0     C 2148   2.152   3.917   1.557  1.2458 -0.3325  0.2084
  741MOL0     C 2149   1.925   3.909   1.694  0.0060  0.1812  0.2664
  741MOL0     C 2150   1.848   3.984   1.593 -0.1810  0.7168  0.4917
  741MOL0     O 2151   1.719   4.004   1.627  0.5281  0.5773  0.3627
  741MOL0     C 2152   1.622   4.058   1.541 -0.3347  0.3513  0.3586
  741MOL0     C 2153   1.499   3.991   1.548  0.9777 -0.2642  0.6487
  741MOL0     C 2154   1.385   4.038   1.486  0.2579  0.5333  0.1874
  741MOL0     C 2155   1.391   4.154   1.409  0.1448 -0.4094 -0.2571
  741MOL0     O 2156   1.280   4.205   1.343 -0.0704 -0.5985 -0.6046
  741MOL0     C 2157   1.158   4.213   1.421 -1.0564 -1.4129  0.0565
  741MOL0     C 2158   1.048   4.224   1.318 -0.8229 -0.6661 -0.3237
  741MOL0     C 2159   1.007   4.093   1.256  1.3681 -0.6104  0.4943
  741MOL0     C 2160   0.876   4.106   1.165 -0.5155 -0.4684 -0.5028
  741MOL0     C 2161   0.832   3.974   1.100  0.2816 -0.3929  0.1006
  741MOL0     C 2162   0.684   3.978   1.049  0.6071 -0.0253  0.1464
  741MOL0     C 2163   0.631   3.856   0.972 -0.3246  0.9868  0.3221
  741MOL0     C 2164   0.483   3.871   0.933  0.7551  0.1162  0.2180
  741MOL0    Cl 2165   0.462   4.013   0.843 -0.0217 -0.2653 -0.0259
  741MOL0     C 2166   1.510   4.225   1.412  0.5149 -1.2450 -0.3529
  741MOL0     C 2167   1.627   4.188   1.478 -0.0155  0.5326 -0.9414
  741MOL0     O 2168   1.892   4.006   1.483  0.1028  0.7241  0.1503
  741MOL0     C 2169   1.846   3.855   1.810 -1.0276 -0.3074 -0.1093
  741MOL0     C 2170   1.906   3.796   1.919 -0.8290 -0.4390  0.7278
  741MOL0     N 2171   2.142   4.203   2.370  0.2993 -0.2794 -0.1455
  741MOL0     N 2172   2.081   4.228   2.487 -0.5963  0.2909  0.7323
  741MOL0     C 2173   1.676   4.771   3.432 -0.8567  0.7693  0.2801
  741MOL0     C 2174   1.597   4.868   3.369  0.3987  0.3415 -0.3765
  741MOL0     C 2175   1.378   5.026   3.006 -0.3201 -0.6337  0.5962
  741MOL0     C 2176   1.410   5.167   3.024 -0.6633  0.2515  0.1169
  741MOL0     C 2177   1.340   5.259   2.951 -0.1186 -0.0963 -0.2882
  741MOL0     C 2178   1.235   5.225   2.868 -0.5147  1.0076 -0.5571
  741MOL0     O 2179   1.153   5.308   2.805 -0.6812  0.3783 -0.3311
  741MOL0     C 2180   1.207   5.411   2.727 -0.0054 -1.0983 -0.3173
  741MOL0     C 2181   1.111   5.538   2.721  0.4970  0.0912 -0.2936
  741MOL0     C 2182   1.119   5.620   2.604  0.9188 -0.4164  0.6052
  741MOL0     C 2183   1.051   5.757   2.618 -0.3342 -0.7952 -0.6265
  741MOL0     C 2184   1.052   5.826   2.492  0.5169  0.1366  0.3569
  741MOL0     C 2185   1.034   5.876   2.387 -1.0909 -0.6200 -0.1536
  741MOL0     C 2186   1.189   5.091   2.867 -0.8307 -0.0914 -0.3308
  741MOL0     C 2187   1.264   4.991   2.930 -0.4755  0.7773 -0.1615
  741MOL0     C 2188   1.212   4.855   2.924 -0.4113  0.3928  0.5481
  741MOL0     H 2189   1.742   4.879   3.080 -1.8027  0.7698  0.5150
  741MOL0     H 2190   1.934   4.755   3.230  0.9774 -1.6260  2.5249
  741MOL0     H 2191   1.789   4.479   3.362 -0.8301  2.3455  1.3748
  741MOL0     H 2192   1.933   4.427   3.469  1.8463  2.5190  3.4759
  741MOL0     H 2193   1.923   4.552   3.184 -2.3667  2.0210  3.1822
  741MOL0     H 2194   2.077   4.531   3.277  0.0999 -0.1025 -2.1602
  741MOL0     H 2195   1.985   4.287   3.287  1.9801  0.2135 -0.4699
  741MOL0     H 2196   1.886   4.327   3.151 -0.6120 -1.9530  3.2220
  741MOL0     H 2197   2.092   4.411   3.029  0.9331 -0.8699 -0.1829
  741MOL0     H 2198   2.191   4.320   3.129  0.4205  1.9495 -1.3218
  741MOL0     H 2199   1.969   4.234   2.935  0.5532 -2.4029 -1.6840
  741MOL0     H 2200   1.989   4.132   3.077  4.0079 -2.6349  0.6400
  741MOL0     H 2201   2.253   4.142   2.992 -1.0282 -1.3306  1.2541
  741MOL0     H 2202   2.136   4.026   2.939  0.9025 -0.5424 -0.4625
  741MOL0     H 2203   2.276   4.156   2.765  0.4113  1.0856  2.3906
  741MOL0     H 2204   2.162   4.276   2.784 -1.8559 -1.2124  1.0093
  741MOL0     H 2205   2.096   3.980   2.734  2.3411  0.7201  0.5858
  741MOL0     H 2206   1.986   4.129   2.716  1.2731  3.6996 -2.5615
  741MOL0     H 2207   2.219   3.932   2.521 -0.6531  0.7115  1.4699
  741MOL0     H 2208   2.400   4.041   2.286 -0.1894  0.5994  2.0703
  741MOL0     H 2209   2.277   4.097   2.172  0.7592  0.8204  0.1082
  741MOL0     H 2210   2.292   3.820   2.289  2.3610  1.0644 -0.1855
  741MOL0     H 2211   2.139   3.900   2.222  0.0090 -0.0093 -0.0882
  741MOL0     H 2212   2.272   3.916   2.010  1.8001  3.0762  0.8886
  741MOL0     H 2213   2.409   3.843   2.096 -0.9632  3.1714  3.1068
  741MOL0     H 2214   2.293   3.682   1.939 -0.0055 -3.4264  0.4998
  741MOL0     H 2215   2.282   3.623   2.102  0.1557 -0.7898 -2.5283
  741MOL0     H 2216   2.229   3.809   1.798 -0.0678 -0.3958  0.8544
  741MOL0     H 2217   2.139   4.022   1.530 -2.2094 -0.1280  2.1346
  741MOL0     H 2218   2.131   3.853   1.470  1.3418 -2.2568  1.5375
  741MOL0     H 2219   2.258   3.913   1.583  1.4739  2.1601 -0.1260
  741MOL0     H 2220   1.504   3.899   1.606  0.9704  0.4376  1.7826
  741MOL0     H 2221   1.288   3.989   1.491 -0.1906  1.4851  1.6224
  741MOL0     H 2222   1.145   4.132   1.493  0.4896  0.1984  2.2737
  741MOL0     H 2223   1.173   4.310   1.470  0.0184 -1.9148  0.7495
  741MOL0     H 2224   0.959   4.266   1.366  1.3328 -0.1399  3.6642
  741MOL0     H 2225   1.096   4.295   1.250  2.7084  1.0102  3.4628
  741MOL0     H 2226   0.993   4.030   1.344 -2.0723 -4.0655 -2.1985
  741MOL0     H 2227   1.083   4.046   1.193  1.6422 -1.9861  1.7909
  741MOL0     H 2228   0.895   4.179   1.085 -0.6840 -0.5406 -0.6086
  741MOL0     H 2229   0.792   4.154   1.217  0.4771  0.4556  0.2876
  741MOL0     H 2230   0.906   3.949   1.023  1.4890  1.2976  0.6599
  741MOL0     H 2231   0.844   3.889   1.168 -0.4257 -1.3156 -0.8884
  741MOL0     H 2232   0.662   4.066   0.988  0.2152  1.2438  2.0576
  741MOL0     H 2233   0.611   3.978   1.131 -0.5467  0.4698 -0.8471
  741MOL0     H 2234   0.648   3.769   1.035  2.1904  3.0947  2.8233
  741MOL0     H 2235   0.692   3.832   0.884 -1.4048  1.0069 -0.4419
  741MOL0     H 2236   0.425   3.882   1.025  1.2791 -0.6166  0.6414
  741MOL0     H 2237   0.445   3.796   0.863 -0.6272 -0.0254  1.0805
  741MOL0     H 2238   1.524   4.316   1.354 -3.6792 -0.6196 -0.6379
  741MOL0     H 2239   1.721   4.242   1.473  0.1863  0.2041 -0.7397
  741MOL0     H 2240   1.739   3.863   1.828 -0.4536  1.5739  3.4438
  741MOL0     H 2241   1.864   3.765   2.014  2.0207 -0.7680  1.9865
  741MOL0     H 2242   1.646   4.737   3.531  0.6254 -1.6654 -0.0218
  741MOL0     H 2243   1.523   4.922   3.428  0.2735 -1.8383  1.6466
  741MOL0     H 2244   1.492   5.196   3.089  0.9904 -1.5927 -1.0255
  741MOL0     H 2245   1.354   5.366   2.962 -1.3879  0.2217 -1.4614
  741MOL0     H 2246   1.308   5.448   2.748 -0.4925  0.3681 -0.3912
  741MOL0     H 2247   1.206   5.377   2.623 -0.6770  0.8604 -1.0037
  741MOL0     H 2248   1.105   5.595   2.814  0.0256 -1.5156  0.7100
  741MOL0     H 2249   1.016   5.485   2.708  0.4562  0.0208  0.2717
  741MOL0     H 2250   1.225   5.636   2.579  0.2901 -1.5962 -3.6086
  741MOL0     H 2251   1.074   5.565   2.521 -2.8325  2.3307  0.5871
  741MOL0     H 2252   1.108   5.816   2.689  0.1003 -0.5029 -1.2080
  741MOL0     H 2253   0.948   5.744   2.653  0.3375  1.2990  2.5301
  741MOL0     H 2254   1.011   5.925   2.294 -2.0723 -1.9929 -0.6677
  741MOL0     H 2255   1.099   5.076   2.807 -0.1684 -0.0923 -1.3593
  741MOL0     H 2256   1.266   4.787   2.858 -3.5112 -0.8213 -0.8937
  741MOL0     H 2257   1.205   4.821   3.028  1.3173 -5.1186 -0.8231
  741MOL0     H 2258   1.111   4.853   2.883 -0.7065 -3.7513  1.0514
  742MOL0     O 2259   9.894  10.836   1.195 -0.4393  0.0972 -0.3140
  742MOL0     C 2260   9.869  10.719   1.243  0.3943 -0.1568 -0.1140
  742MOL0     O 2261   9.827  10.616   1.162  0.1458  0.4534  1.0473
  742MOL0     C 2262   9.825  10.644   1.033 -0.3467 -0.2269  0.5072
  742MOL0     C 2263   9.944  10.615   0.957  0.2498 -0.7871 -0.8987
  742MOL0     C 2264   9.949  10.651   0.825  0.4285  0.5144  0.0006
  742MOL0     C 2265   9.836  10.699   0.757  0.4533  0.6404  0.5836
  742MOL0     O 2266   9.840  10.724   0.618  0.4801 -0.1285 -0.5438
  742MOL0     C 2267   9.957  10.723   0.541  0.9137  0.7091 -0.7516
  742MOL0     C 2268  10.005  10.580   0.497  1.3599  0.4789 -0.6631
  742MOL0     C 2269  10.114  10.578   0.397 -1.1018  0.7884  0.5068
  742MOL0     C 2270  10.068  10.600   0.251  1.0359 -1.3314  0.4356
  742MOL0     C 2271  10.179  10.622   0.152 -0.3935 -0.4880 -0.7046
  742MOL0     C 2272  10.141  10.646   0.003  1.0859 -1.1559  0.2888
  742MOL0     C 2273  10.252  10.721  -0.065  0.0982 -0.1837 -0.5681
  742MOL0     C 2274  10.247  10.716  -0.220  0.1299  0.9402 -0.3196
  742MOL0     N 2275  10.343  10.824  -0.253 -0.3108 -0.4069  0.2593
  742MOL0     C 2276  10.326  10.907  -0.364  0.7067 -0.0702 -0.0960
  742MOL0     C 2277  10.434  10.992  -0.371 -0.6905  0.0281  0.2436
  742MOL0     C 2278  10.461  11.123  -0.448 -0.3176  0.4624  0.3786
  742MOL0     C 2279  10.440  11.106  -0.589  1.3807  0.1559  0.6780
  742MOL0     C 2280  10.308  11.167  -0.639 -0.6754  0.0990 -0.7744
  742MOL0     C 2281  10.311  11.325  -0.616  0.6070  0.0008  0.1076
  742MOL0     O 2282  10.179  11.392  -0.625  0.0437 -0.0744  0.7508
  742MOL0     C 2283  10.173  11.533  -0.642 -0.0084  0.2998 -0.4646
  742MOL0     C 2284  10.115  11.583  -0.755  0.3392  0.3331 -0.5213
  742MOL0     C 2285  10.080  11.710  -0.782 -0.2160 -0.3175 -0.2446
  742MOL0     C 2286  10.010  11.738  -0.908  0.0938 -0.5385 -0.3307
  742MOL0     C 2287  10.118  11.811  -0.685 -0.5273  0.7444 -0.1458
  742MOL0     C 2288  10.102  11.960  -0.699 -0.3255  0.1348  0.1922
  742MOL0     O 2289  10.145  12.042  -0.601  0.5157 -0.9903  0.0145
  742MOL0     C 2290  10.066  12.043  -0.486  0.3892  0.2296 -0.0612
  742MOL0     C 2291   9.925  12.004  -0.483 -0.7853  0.1139  0.6314
  742MOL0     C 2292   9.863  11.990  -0.365  0.8567 -0.0090  0.6154
  742MOL0     C 2293   9.920  12.031  -0.243  0.3193 -0.0671  0.0420
  742MOL0     O 2294   9.870  12.025  -0.113 -0.1261 -0.1967 -0.2592
  742MOL0     C 2295   9.774  11.927  -0.095 -0.6252 -0.9541 -0.1076
  742MOL0     C 2296   9.751  11.904   0.053 -0.3385  0.7510 -0.8300
  742MOL0     C 2297   9.740  12.041   0.133  0.5229 -0.0974  0.3185
  742MOL0     C 2298   9.624  12.130   0.073 -1.4563  1.2539 -0.3125
  742MOL0     C 2299   9.487  12.075   0.089  0.5251 -0.1332 -0.1392
  742MOL0     C 2300   9.378  12.173   0.037 -0.0153 -0.2457  0.5877
  742MOL0     C 2301   9.372  12.176  -0.120  0.2387  0.2433  0.1148
  742MOL0     C 2302   9.305  12.309  -0.164 -0.1389 -0.3195  0.4139
  742MOL0    Cl 2303   9.138  12.316  -0.110 -0.0920 -0.1103  1.1907
  742MOL0     C 2304  10.046  12.085  -0.255 -0.5370  0.2607 -1.0861
  742MOL0     C 2305  10.127  12.089  -0.370  0.4857 -0.7021 -0.8592
  742MOL0     O 2306  10.067  12.006  -0.809 -0.8145  0.0897 -0.2549
  742MOL0     C 2307  10.169  11.763  -0.562 -0.2312  0.8161 -1.0987
  742MOL0     C 2308  10.203  11.628  -0.539 -0.8229  0.3577  0.3431
  742MOL0     N 2309  10.514  10.950  -0.269 -0.3377  1.0773  0.2873
  742MOL0     N 2310  10.466  10.856  -0.203  0.7303  1.1123 -0.0742
  742MOL0     C 2311   9.712  10.709   0.829 -0.3339 -0.0037  0.2327
  742MOL0     C 2312   9.707  10.686   0.970  0.7688 -0.6548  0.0090
  742MOL0     C 2313   9.872  10.689   1.388  0.1038 -0.4891 -0.9569
  742MOL0     C 2314   9.862  10.550   1.429 -0.3400 -0.5949  0.5417
  742MOL0     C 2315   9.894  10.516   1.556 -0.0479 -0.0217 -0.1710
  742MOL0     C 2316   9.921  10.620   1.651  0.4413  0.3213  0.2653
  742MOL0     O 2317   9.941  10.572   1.779 -0.3445 -0.7465  0.2166
  742MOL0     C 2318   9.922  10.641   1.903 -0.3046 -0.3481 -0.0621
  742MOL0     C 2319   9.859  10.544   2.002 -0.2736  0.4439  0.0233
  742MOL0     C 2320   9.954  10.453   2.065  0.6222 -0.6393  0.8637
  742MOL0     C 2321   9.880  10.353   2.147 -0.2081 -0.0372 -1.1167
  742MOL0     C 2322   9.951  10.258   2.225 -0.6160  0.4617 -0.2090
  742MOL0     C 2323  10.006  10.174   2.298 -1.2564 -0.7691 -0.4590
  742MOL0     C 2324   9.915  10.754   1.618 -0.1589  0.1996  0.5771
  742MOL0     C 2325   9.906  10.798   1.480 -0.4591 -0.1921 -1.1368
  742MOL0     C 2326   9.935  10.946   1.458  0.8429 -0.0450  0.1358
  742MOL0     H 2327  10.030  10.570   1.005  0.7748  3.0506  2.2129
  742MOL0     H 2328  10.047  10.642   0.778  1.1109  1.4711  1.1687
  742MOL0     H 2329  10.045  10.779   0.573  3.1928 -1.7754 -2.2481
  742MOL0     H 2330   9.922  10.764   0.446 -0.3604  0.8441 -0.2410
  742MOL0     H 2331  10.046  10.533   0.587 -2.5134  0.9474  1.6000
  742MOL0     H 2332   9.917  10.533   0.451 -0.0871  1.0656  1.3452
  742MOL0     H 2333  10.190  10.651   0.424 -0.3196  0.9820 -2.0002
  742MOL0     H 2334  10.156  10.478   0.411  0.7006  1.4708  0.2986
  742MOL0     H 2335  10.009  10.516   0.213 -1.7530  1.3919 -1.9081
  742MOL0     H 2336   9.989  10.676   0.251 -0.1444 -2.5250 -0.1225
  742MOL0     H 2337  10.237  10.529   0.157  0.7002  0.2490  1.8030
  742MOL0     H 2338  10.244  10.708   0.172 -0.5863 -0.5126  0.0288
  742MOL0     H 2339  10.140  10.555  -0.058  1.9810  0.9783 -3.2079
  742MOL0     H 2340  10.050  10.706  -0.003  1.6269 -0.3038  0.3668
  742MOL0     H 2341  10.348  10.675  -0.038 -0.3145 -1.7569 -1.6620
  742MOL0     H 2342  10.250  10.828  -0.040 -3.8402 -0.3449  0.4618
  742MOL0     H 2343  10.277  10.615  -0.251 -1.5753 -0.2905  1.8118
  742MOL0     H 2344  10.150  10.738  -0.265 -0.8639  1.9828  2.1707
  742MOL0     H 2345  10.245  10.916  -0.436  0.7335  3.5923  0.1415
  742MOL0     H 2346  10.568  11.145  -0.444 -0.3780  0.8409 -0.0877
  742MOL0     H 2347  10.403  11.203  -0.402  4.1091  3.7793  0.8817
  742MOL0     H 2348  10.530  11.139  -0.641 -0.1858  0.3305 -2.0750
  742MOL0     H 2349  10.426  11.001  -0.616 -0.3760  0.8147 -1.1818
  742MOL0     H 2350  10.288  11.148  -0.745 -0.1458  3.9385 -1.6879
  742MOL0     H 2351  10.228  11.118  -0.582 -0.8487  0.0935 -1.0180
  742MOL0     H 2352  10.338  11.347  -0.512 -0.9108 -0.3864  0.6028
  742MOL0     H 2353  10.399  11.372  -0.661  2.0826 -3.4697 -0.9791
  742MOL0     H 2354  10.089  11.505  -0.825 -2.1956  2.6359 -2.4153
  742MOL0     H 2355  10.079  11.800  -0.966 -0.2104 -1.5783 -1.8504
  742MOL0     H 2356   9.914  11.790  -0.904  0.8481  1.2330 -2.6136
  742MOL0     H 2357   9.999  11.643  -0.960 -0.5515 -1.1006  0.7912
  742MOL0     H 2358   9.868  11.968  -0.568 -1.8102  0.3971  1.1881
  742MOL0     H 2359   9.768  11.939  -0.363  0.4666  0.7191  1.3468
  742MOL0     H 2360   9.678  11.949  -0.143 -0.7268 -0.5395  0.2834
  742MOL0     H 2361   9.818  11.837  -0.141 -0.7397 -0.7388 -0.6515
  742MOL0     H 2362   9.659  11.846   0.057  1.4891 -2.3709 -0.8687
  742MOL0     H 2363   9.836  11.842   0.081  1.0494  2.1686 -1.7010
  742MOL0     H 2364   9.830  12.103   0.129  0.9274 -0.7009 -2.7817
  742MOL0     H 2365   9.721  12.008   0.235  1.1657 -2.6268 -0.3053
  742MOL0     H 2366   9.650  12.140  -0.033  0.9419 -0.9494 -0.0488
  742MOL0     H 2367   9.635  12.234   0.104  1.7730  1.9826 -3.2446
  742MOL0     H 2368   9.484  11.979   0.037  0.9715  0.1055 -0.6091
  742MOL0     H 2369   9.464  12.057   0.195  3.0768  3.2524  1.1418
  742MOL0     H 2370   9.407  12.271   0.075  0.9534 -0.5389  0.6535
  742MOL0     H 2371   9.277  12.143   0.068 -0.8323  1.3678 -0.4131
  742MOL0     H 2372   9.326  12.086  -0.163  1.4502 -0.0048 -0.7222
  742MOL0     H 2373   9.473  12.163  -0.161  1.1330 -3.2007  2.8988
  742MOL0     H 2374   9.312  12.327  -0.272 -2.4257  1.6497  0.5215
  742MOL0     H 2375   9.350  12.393  -0.110 -2.0235 -0.1886  1.8650
  742MOL0     H 2376  10.081  12.135  -0.165 -3.8915  3.6765 -1.3840
  742MOL0     H 2377  10.222  12.141  -0.367  0.2494 -0.2365  2.1584
  742MOL0     H 2378  10.189  11.841  -0.490  0.8258  0.6664 -1.2046
  742MOL0     H 2379  10.250  11.607  -0.443 -1.0717  2.5183  0.9962
  742MOL0     H 2380   9.627  10.728   0.764  0.6703  1.0078 -0.8396
  742MOL0     H 2381   9.617  10.677   1.029  2.0261 -3.0542  1.7626
  742MOL0     H 2382   9.854  10.468   1.360 -1.2675 -0.8189  0.9018
  742MOL0     H 2383   9.885  10.414   1.594 -2.6647  0.8403  1.8629
  742MOL0     H 2384  10.018  10.676   1.943 -0.1448  0.0383 -0.7759
  742MOL0     H 2385   9.855  10.727   1.895 -2.0367 -1.6468 -0.0638
  742MOL0     H 2386   9.790  10.478   1.950 -1.3518 -0.6976  2.7164
  742MOL0     H 2387   9.798  10.606   2.068 -0.8876  0.2516 -0.3661
  742MOL0     H 2388  10.011  10.409   1.983 -1.8347 -0.0393 -1.3105
  742MOL0     H 2389  10.029  10.508   2.122  2.6966 -1.9678 -0.4685
  742MOL0     H 2390   9.813  10.295   2.082  0.3450 -2.3334  0.2553
  742MOL0     H 2391   9.812  10.404   2.217  1.3143  0.3811  0.1015
  742MOL0     H 2392  10.045  10.109   2.373 -0.1007  1.5427  1.0677
  742MOL0     H 2393   9.944  10.821   1.698  0.5196 -0.5707  0.9826
  742MOL0     H 2394   9.856  10.983   1.392  2.1848  1.6766 -0.5735
  742MOL0     H 2395   9.957  11.010   1.544  2.0197 -0.2931  0.0302
  742MOL0     H 2396  10.026  10.944   1.399  0.2907 -3.1366 -0.8134
  743MOL0     O 2397   2.981   8.341   6.776  0.5851  0.3471 -0.7742
  743MOL0     C 2398   3.086   8.394   6.815  0.7376  1.0786 -0.0913
  743MOL0     O 2399   3.210   8.357   6.776 -0.5569 -0.4111  0.0992
  743MOL0     C 2400   3.228   8.279   6.663  0.1500  0.4375 -0.0630
  743MOL0     C 2401   3.345   8.192   6.656  0.9862 -1.3768  0.3152
  743MOL0     C 2402   3.361   8.107   6.553  0.7377  1.3045  0.0446
  743MOL0     C 2403   3.263   8.103   6.449 -0.6755 -0.1215 -0.5045
  743MOL0     O 2404   3.293   8.009   6.355  0.1581 -1.1890 -0.0023
  743MOL0     C 2405   3.188   7.988   6.243 -0.5315 -0.6191  0.4703
  743MOL0     C 2406   3.201   7.865   6.155  0.5919  0.1608 -0.1670
  743MOL0     C 2407   3.205   7.724   6.231  0.4751  0.1473 -0.0427
  743MOL0     C 2408   3.101   7.719   6.337  0.6713  0.1078 -1.0271
  743MOL0     C 2409   3.084   7.575   6.387  0.7780 -0.5029  0.3647
  743MOL0     C 2410   3.199   7.541   6.485  0.2592 -0.5459  0.1771
  743MOL0     C 2411   3.192   7.410   6.555 -0.4562 -0.6057 -0.1436
  743MOL0     C 2412   3.229   7.302   6.458  0.2246  0.0481 -0.0374
  743MOL0     N 2413   3.289   7.196   6.535 -0.1843 -0.2610  0.2806
  743MOL0     C 2414   3.418   7.190   6.588  0.3834  0.1613 -1.3748
  743MOL0     C 2415   3.434   7.056   6.632  0.0970  0.1502 -0.6947
  743MOL0     C 2416   3.565   7.000   6.679 -0.8978  0.4634  1.1565
  743MOL0     C 2417   3.605   6.872   6.605  0.0528  0.0107  0.0856
  743MOL0     C 2418   3.605   6.897   6.451  0.1964 -0.0542  0.5618
  743MOL0     C 2419   3.483   6.834   6.390 -0.3093 -0.8266  0.0397
  743MOL0     O 2420   3.498   6.815   6.249 -0.2489  0.1963  0.2761
  743MOL0     C 2421   3.410   6.876   6.161 -0.4663  0.4968  0.5543
  743MOL0     C 2422   3.364   7.003   6.173 -0.2833  0.3502 -0.2019
  743MOL0     C 2423   3.282   7.055   6.073 -1.0477 -0.9868 -0.1722
  743MOL0     C 2424   3.247   7.203   6.075 -0.4950  0.0328  0.3697
  743MOL0     C 2425   3.247   6.982   5.964 -0.5563  0.6933  0.3829
  743MOL0     C 2426   3.154   7.020   5.861  0.5498 -0.1259  1.3821
  743MOL0     O 2427   3.029   6.962   5.873  0.1032  0.5398  0.1995
  743MOL0     C 2428   2.927   7.005   5.791  0.9013 -0.1545  0.0600
  743MOL0     C 2429   2.876   7.138   5.793  0.6383  0.0406 -0.2201
  743MOL0     C 2430   2.768   7.184   5.718  0.3053  0.3014  0.7176
  743MOL0     C 2431   2.708   7.087   5.632 -0.3109  0.0561  1.1463
  743MOL0     O 2432   2.602   7.138   5.563 -0.4357 -0.0700 -0.2582
  743MOL0     C 2433   2.629   7.163   5.426  0.0502 -0.4658  0.5936
  743MOL0     C 2434   2.532   7.262   5.376 -0.7789  0.4018 -1.4319
  743MOL0     C 2435   2.390   7.193   5.387 -0.1645 -0.1086 -0.1949
  743MOL0     C 2436   2.294   7.282   5.308 -0.1590  1.0709  0.7676
  743MOL0     C 2437   2.146   7.250   5.311  1.2027  0.6493  0.3999
  743MOL0     C 2438   2.082   7.301   5.454  0.2666  0.0665  0.1592
  743MOL0     C 2439   1.920   7.321   5.455  0.7906 -0.3723  0.6488
  743MOL0     C 2440   1.862   7.383   5.584 -1.0193  0.6304 -0.4338
  743MOL0    Cl 2441   1.899   7.268   5.726  0.4779 -0.0071 -0.0287
  743MOL0     C 2442   2.755   6.957   5.620 -0.1642 -0.9647  1.0762
  743MOL0     C 2443   2.865   6.917   5.692  0.8534  0.4571 -0.3406
  743MOL0     O 2444   3.191   7.091   5.766  0.6294 -0.1044 -0.2552
  743MOL0     C 2445   3.298   6.852   5.950 -0.2087  0.6938 -0.1664
  743MOL0     C 2446   3.379   6.804   6.048  1.1467 -0.3803 -0.3743
  743MOL0     N 2447   3.303   6.994   6.625  1.2652 -0.1507 -0.9479
  743MOL0     N 2448   3.223   7.080   6.562  0.7971  0.4378  0.7132
  743MOL0     C 2449   3.146   8.194   6.454  0.0753  0.2716  1.0282
  743MOL0     C 2450   3.137   8.285   6.550 -0.0313 -0.6234 -0.7950
  743MOL0     C 2451   3.082   8.497   6.924 -0.9449 -0.1256  0.3398
  743MOL0     C 2452   2.957   8.510   6.991  0.8161 -0.8219  0.1535
  743MOL0     C 2453   2.931   8.605   7.099  0.9107 -0.0865 -0.1397
  743MOL0     C 2454   3.041   8.685   7.141  0.6625  0.8870 -0.1524
  743MOL0     O 2455   3.036   8.785   7.240 -0.2773  1.0228 -0.6184
  743MOL0     C 2456   2.983   8.744   7.367  0.0400 -0.3388  0.6996
  743MOL0     C 2457   3.069   8.622   7.413 -0.2711 -0.2407  1.3141
  743MOL0     C 2458   3.035   8.567   7.557  0.6233  1.0266  0.2614
  743MOL0     C 2459   3.123   8.626   7.665 -0.4950 -0.6721  0.2493
  743MOL0     C 2460   3.094   8.562   7.799  0.1888  0.3970  0.1389
  743MOL0     C 2461   3.075   8.513   7.913 -1.1472  0.2640 -0.3691
  743MOL0     C 2462   3.162   8.666   7.070  0.7151 -0.6859 -0.4046
  743MOL0     C 2463   3.188   8.584   6.959 -0.2073  0.6642 -0.3934
  743MOL0     C 2464   3.322   8.583   6.901 -0.4586  0.0978  0.5968
  743MOL0     H 2465   3.431   8.199   6.722 -0.8680  0.4635  2.7214
  743MOL0     H 2466   3.455   8.054   6.536 -0.2633 -0.6324  0.2604
  743MOL0     H 2467   3.208   8.080   6.188  2.5487 -0.3994  1.7635
  743MOL0     H 2468   3.084   7.990   6.279 -0.8107 -1.2705 -0.2678
  743MOL0     H 2469   3.126   7.861   6.076 -0.7164  0.6763  1.0067
  743MOL0     H 2470   3.294   7.876   6.098  0.2074  0.5614 -0.7174
  743MOL0     H 2471   3.183   7.644   6.160 -0.7052  0.7264 -0.3540
  743MOL0     H 2472   3.307   7.704   6.265  1.5698 -0.2400 -3.2642
  743MOL0     H 2473   3.118   7.773   6.431 -0.5362  1.0890 -1.3524
  743MOL0     H 2474   3.002   7.746   6.299  2.0273  0.9952 -4.1937
  743MOL0     H 2475   3.075   7.504   6.304 -0.9194  3.0929 -2.7957
  743MOL0     H 2476   2.988   7.566   6.438  0.1085 -1.3155 -0.9925
  743MOL0     H 2477   3.290   7.547   6.426 -0.6245 -0.3703 -1.2073
  743MOL0     H 2478   3.200   7.618   6.563 -0.4931  0.1712 -0.5154
  743MOL0     H 2479   3.088   7.406   6.588 -1.5146 -4.0939 -3.2089
  743MOL0     H 2480   3.256   7.405   6.644  1.4175  0.1928 -1.3898
  743MOL0     H 2481   3.135   7.269   6.414  0.4196  1.2393 -1.4094
  743MOL0     H 2482   3.299   7.321   6.376  0.1545 -0.9148 -0.3383
  743MOL0     H 2483   3.485   7.275   6.585  1.7735 -0.6263  2.3767
  743MOL0     H 2484   3.560   6.966   6.783  4.3957 -0.1609  1.4916
  743MOL0     H 2485   3.644   7.075   6.667 -0.1094 -0.4338  0.5470
  743MOL0     H 2486   3.697   6.829   6.646 -0.6394 -0.3185  1.3337
  743MOL0     H 2487   3.539   6.789   6.631 -1.2026  0.4854 -1.4404
  743MOL0     H 2488   3.611   7.002   6.421  1.2375  0.3829  2.1619
  743MOL0     H 2489   3.686   6.841   6.403 -2.6748 -0.7476 -4.0204
  743MOL0     H 2490   3.480   6.731   6.427 -2.4790 -0.8131 -0.0083
  743MOL0     H 2491   3.389   6.884   6.412  0.3719  0.8365 -0.6962
  743MOL0     H 2492   3.391   7.060   6.261 -2.5913 -2.2081  2.3743
  743MOL0     H 2493   3.137   7.203   6.075 -0.5093  1.2630  0.6308
  743MOL0     H 2494   3.267   7.251   5.978 -0.4848  0.0699  0.3901
  743MOL0     H 2495   3.287   7.268   6.154 -0.6271  1.1663 -0.4575
  743MOL0     H 2496   2.934   7.202   5.859  0.7970  1.0519 -1.3120
  743MOL0     H 2497   2.720   7.280   5.731 -0.4823  0.0967 -0.5241
  743MOL0     H 2498   2.732   7.186   5.396  0.0247 -2.5960 -1.4980
  743MOL0     H 2499   2.610   7.076   5.363 -2.1635  0.3250  0.0865
  743MOL0     H 2500   2.534   7.350   5.441  1.9701 -1.2507  0.9532
  743MOL0     H 2501   2.566   7.289   5.276  1.5538  0.7702 -0.6235
  743MOL0     H 2502   2.349   7.195   5.488  0.8482 -1.3256  0.2641
  743MOL0     H 2503   2.393   7.093   5.344 -0.0666  0.3407 -1.2636
  743MOL0     H 2504   2.315   7.291   5.201  2.3885 -2.9446  0.7100
  743MOL0     H 2505   2.303   7.382   5.353  1.2548  2.1511 -1.7152
  743MOL0     H 2506   2.101   7.306   5.228 -1.3077 -0.0490  1.1925
  743MOL0     H 2507   2.133   7.143   5.295  0.1068  0.7564  0.4614
  743MOL0     H 2508   2.136   7.393   5.478  0.1978  0.7756 -2.1692
  743MOL0     H 2509   2.108   7.221   5.524 -2.8428 -0.2874  1.0142
  743MOL0     H 2510   1.877   7.221   5.444  4.6227 -2.4197  2.1053
  743MOL0     H 2511   1.882   7.383   5.375  1.7923 -4.0170 -3.0054
  743MOL0     H 2512   1.755   7.403   5.576 -0.7174  3.3777  1.0454
  743MOL0     H 2513   1.912   7.478   5.607 -0.0289  0.5048 -1.9221
  743MOL0     H 2514   2.712   6.882   5.555  0.0457 -0.5775  0.4850
  743MOL0     H 2515   2.893   6.812   5.682 -1.2179 -0.1950  0.1241
  743MOL0     H 2516   3.261   6.790   5.869 -0.4414  2.7421 -1.7102
  743MOL0     H 2517   3.419   6.704   6.030 -3.6128 -2.3498 -1.4760
  743MOL0     H 2518   3.062   8.207   6.386  1.7687 -1.1399 -1.4776
  743MOL0     H 2519   3.068   8.368   6.545 -0.0025 -0.4837  0.8851
  743MOL0     H 2520   2.867   8.452   6.975 -0.1710 -0.3713  3.3429
  743MOL0     H 2521   2.836   8.615   7.151  0.5959  3.3553 -1.1753
  743MOL0     H 2522   3.001   8.831   7.430  2.9102  0.5524 -1.1480
  743MOL0     H 2523   2.877   8.723   7.353  0.0332 -0.4343  0.9015
  743MOL0     H 2524   3.173   8.649   7.393 -0.2730 -2.1702 -2.0438
  743MOL0     H 2525   3.050   8.549   7.333 -1.1258  1.8337 -0.4642
  743MOL0     H 2526   2.928   8.580   7.574  0.0143  1.0642 -2.9368
  743MOL0     H 2527   3.056   8.461   7.569 -2.2153  0.3125 -0.4286
  743MOL0     H 2528   3.123   8.735   7.672  2.3862 -0.5716 -0.0364
  743MOL0     H 2529   3.226   8.594   7.649  0.6010  2.1541  0.9594
  743MOL0     H 2530   3.052   8.474   8.010  1.1708  0.1303  0.1638
  743MOL0     H 2531   3.241   8.729   7.110 -1.3955  0.3824  2.4688
  743MOL0     H 2532   3.378   8.669   6.941  0.4306  1.3376 -2.8503
  743MOL0     H 2533   3.386   8.496   6.915  2.1623  1.1887 -2.9605
  743MOL0     H 2534   3.332   8.603   6.793  1.8957 -0.2817  0.6964
  744MOL0     O 2535   6.060   3.297   3.797 -0.4594 -0.1991  0.5836
  744MOL0     C 2536   6.115   3.350   3.889 -0.0356 -0.3296 -0.0418
  744MOL0     O 2537   6.104   3.472   3.931  0.5011 -0.2513  0.0530
  744MOL0     C 2538   6.028   3.561   3.853  0.3373  0.6895  0.6616
  744MOL0     C 2539   5.900   3.597   3.903 -0.0026  0.1337 -1.0117
  744MOL0     C 2540   5.812   3.662   3.820 -0.2429 -0.5579  0.9005
  744MOL0     C 2541   5.864   3.703   3.688 -0.0494 -0.5458 -1.4190
  744MOL0     O 2542   5.798   3.809   3.621  0.1098  0.4858 -0.7041
  744MOL0     C 2543   5.683   3.872   3.672 -0.0932 -0.0396  0.8287
  744MOL0     C 2544   5.666   3.989   3.580 -0.2875 -0.2844  0.4851
  744MOL0     C 2545   5.520   4.005   3.542 -0.1866 -0.0392  0.6812
  744MOL0     C 2546   5.495   4.133   3.468  0.8583  0.9235 -0.3963
  744MOL0     C 2547   5.346   4.185   3.474 -0.0229 -0.0016 -0.3961
  744MOL0     C 2548   5.333   4.323   3.413  0.6394 -0.2888  0.2052
  744MOL0     C 2549   5.369   4.436   3.498 -0.5896  0.5991 -0.5461
  744MOL0     C 2550   5.386   4.570   3.432  0.3466 -0.5796 -0.2413
  744MOL0     N 2551   5.257   4.614   3.382  0.3083  0.8849 -0.4452
  744MOL0     C 2552   5.145   4.644   3.468 -0.8361 -0.1532  0.1888
  744MOL0     C 2553   5.051   4.681   3.386  0.3589  0.5375 -0.1434
  744MOL0     C 2554   4.931   4.753   3.421 -1.0891  0.4406 -0.1320
  744MOL0     C 2555   4.962   4.900   3.444 -0.9223 -0.2552 -0.0866
  744MOL0     C 2556   5.025   4.945   3.581  0.1210  0.0714  1.1856
  744MOL0     C 2557   4.933   4.974   3.702 -0.0675  0.4354  0.3753
  744MOL0     O 2558   4.879   4.862   3.773 -0.0065 -0.0375  0.4231
  744MOL0     C 2559   4.967   4.769   3.823 -0.2404  1.0276 -0.2415
  744MOL0     C 2560   5.091   4.801   3.881 -0.5075  0.1257  1.2509
  744MOL0     C 2561   5.195   4.709   3.892  0.2917 -0.1129  0.0041
  744MOL0     C 2562   5.331   4.766   3.928 -0.8604 -0.2081  0.9190
  744MOL0     C 2563   5.163   4.563   3.867  0.2625  0.5867 -0.0416
  744MOL0     C 2564   5.255   4.447   3.875  0.2962  0.6414 -0.0540
  744MOL0     O 2565   5.204   4.334   3.906 -0.8013  0.1888  0.1645
  744MOL0     C 2566   5.280   4.226   3.937  0.1172 -0.2449 -0.2702
  744MOL0     C 2567   5.275   4.112   3.853  0.1427  0.0189  0.2142
  744MOL0     C 2568   5.312   3.992   3.895  0.0192 -0.3416  0.4412
  744MOL0     C 2569   5.385   3.973   4.019  0.6627  0.9633 -1.2155
  744MOL0     O 2570   5.420   3.845   4.059 -0.2636  0.9878 -1.1858
  744MOL0     C 2571   5.512   3.828   4.167 -0.3456  0.5678  0.0643
  744MOL0     C 2572   5.599   3.709   4.160 -0.4747  1.0004  0.5871
  744MOL0     C 2573   5.682   3.669   4.284 -0.3799 -0.1837 -0.0345
  744MOL0     C 2574   5.758   3.528   4.269  0.0519 -1.0110  0.1669
  744MOL0     C 2575   5.821   3.472   4.400 -0.5164  0.8809  0.1979
  744MOL0     C 2576   5.748   3.505   4.538  0.4533  0.9814  0.5239
  744MOL0     C 2577   5.839   3.438   4.651 -0.2125  0.1640 -0.3198
  744MOL0     C 2578   5.782   3.459   4.782  0.1717  0.0369  0.2077
  744MOL0    Cl 2579   5.622   3.397   4.800 -0.2495 -0.2626  0.6260
  744MOL0     C 2580   5.410   4.098   4.094 -0.1396  0.9112  0.1412
  744MOL0     C 2581   5.346   4.220   4.054 -0.2165  0.0759  0.6569
  744MOL0     O 2582   5.375   4.470   3.874  0.7406 -0.1205  0.0980
  744MOL0     C 2583   5.026   4.530   3.844 -0.5937 -0.1405 -0.6649
  744MOL0     C 2584   4.944   4.632   3.805  0.0392  0.7669  0.2717
  744MOL0     N 2585   5.098   4.650   3.257 -0.2052  0.6716  0.0588
  744MOL0     N 2586   5.215   4.603   3.258  0.6438  0.4053  0.0117
  744MOL0     C 2587   5.988   3.655   3.640 -0.1080  0.0741  0.4887
  744MOL0     C 2588   6.070   3.590   3.726 -0.6027  0.6605  0.6701
  744MOL0     C 2589   6.208   3.278   3.974 -1.0410  0.4723 -0.1718
  744MOL0     C 2590   6.243   3.322   4.103  0.3143  0.0297  1.0568
  744MOL0     C 2591   6.317   3.243   4.190  0.1999  0.2437  0.2940
  744MOL0     C 2592   6.370   3.117   4.154  0.7181 -1.0288 -0.2944
  744MOL0     O 2593   6.449   3.042   4.248 -0.1995  0.8837  0.0934
  744MOL0     C 2594   6.567   3.107   4.293 -0.2603 -0.0408  0.4683
  744MOL0     C 2595   6.661   3.101   4.172  0.6133  0.3226 -0.2578
  744MOL0     C 2596   6.681   2.958   4.119 -0.5069 -0.5059  0.0960
  744MOL0     C 2597   6.796   2.942   4.026 -0.1440 -0.1262  0.0186
  744MOL0     C 2598   6.757   2.995   3.894 -0.9134  0.0013 -1.1436
  744MOL0     C 2599   6.712   3.028   3.788 -0.1252  0.3918  0.4254
  744MOL0     C 2600   6.360   3.093   4.016 -0.6097 -0.8758 -0.0994
  744MOL0     C 2601   6.281   3.168   3.927  0.2067 -0.0490  0.5942
  744MOL0     C 2602   6.294   3.134   3.779  0.7374  1.0020  0.0638
  744MOL0     H 2603   5.859   3.555   3.994 -0.9820 -1.4845 -2.1345
  744MOL0     H 2604   5.712   3.689   3.853 -0.2877 -1.1665  1.2866
  744MOL0     H 2605   5.702   3.907   3.774  1.3510  0.3965  0.4296
  744MOL0     H 2606   5.593   3.810   3.675  0.0275 -0.2517  0.1715
  744MOL0     H 2607   5.719   4.075   3.622  2.4660 -1.0698 -1.0737
  744MOL0     H 2608   5.710   3.977   3.480 -0.0468  0.4981  0.4850
  744MOL0     H 2609   5.487   3.917   3.487  0.3760  0.2330 -0.1167
  744MOL0     H 2610   5.450   4.008   3.625  0.3403  0.0078  1.1274
  744MOL0     H 2611   5.565   4.205   3.510  1.0519 -0.3166  1.5263
  744MOL0     H 2612   5.523   4.121   3.363 -1.9020 -0.6410 -1.0679
  744MOL0     H 2613   5.312   4.189   3.578  0.8398  0.0570 -0.1060
  744MOL0     H 2614   5.278   4.113   3.427 -0.0271 -2.0293  2.4734
  744MOL0     H 2615   5.390   4.340   3.321 -0.9610 -0.9267 -0.9408
  744MOL0     H 2616   5.228   4.348   3.393  0.5355  2.4877  3.3567
  744MOL0     H 2617   5.460   4.405   3.550 -2.2532  0.2896  2.3508
  744MOL0     H 2618   5.294   4.437   3.577  1.9622  4.7781  2.1818
  744MOL0     H 2619   5.424   4.642   3.505  1.1494 -0.5322 -0.7024
  744MOL0     H 2620   5.457   4.560   3.350  0.6563  2.6687 -0.5053
  744MOL0     H 2621   5.146   4.656   3.576 -1.1881 -3.1692  0.6161
  744MOL0     H 2622   4.895   4.707   3.513 -2.2121 -1.5560 -1.5102
  744MOL0     H 2623   4.853   4.750   3.344 -2.6220  0.7314  1.3557
  744MOL0     H 2624   5.029   4.929   3.363  1.3750 -1.7229  1.1913
  744MOL0     H 2625   4.874   4.960   3.417 -3.4566 -3.0492  1.3221
  744MOL0     H 2626   5.100   4.868   3.602 -1.7390 -1.7559  1.4397
  744MOL0     H 2627   5.081   5.039   3.570 -0.8932  0.4202 -1.8787
  744MOL0     H 2628   5.007   5.020   3.767  1.6943 -3.1146  1.1324
  744MOL0     H 2629   4.855   5.044   3.671 -1.7981 -1.3313  0.5242
  744MOL0     H 2630   5.111   4.901   3.917  0.3660  0.5229 -0.2591
  744MOL0     H 2631   5.329   4.875   3.924 -1.1563 -0.1800  1.7165
  744MOL0     H 2632   5.397   4.724   3.851 -3.4248 -1.8841 -0.5421
  744MOL0     H 2633   5.366   4.746   4.029  3.4021 -2.7246 -0.7947
  744MOL0     H 2634   5.233   4.110   3.753  1.6105 -1.2670 -0.4079
  744MOL0     H 2635   5.281   3.905   3.838 -1.2456  1.0638 -1.1029
  744MOL0     H 2636   5.594   3.900   4.163  0.8134 -0.6357  1.1188
  744MOL0     H 2637   5.462   3.833   4.264  1.4086 -0.6289  1.0874
  744MOL0     H 2638   5.528   3.629   4.136  1.5706 -0.5824 -0.4020
  744MOL0     H 2639   5.678   3.723   4.087  0.3225  0.6820  1.3749
  744MOL0     H 2640   5.609   3.662   4.365 -0.0863 -0.0367  0.2412
  744MOL0     H 2641   5.749   3.747   4.322 -0.1413  0.6946 -2.1249
  744MOL0     H 2642   5.840   3.533   4.197 -1.9805 -1.9087 -2.3716
  744MOL0     H 2643   5.692   3.451   4.228  0.2158 -0.2024 -1.7070
  744MOL0     H 2644   5.828   3.363   4.386 -1.8391  0.6085  1.3686
  744MOL0     H 2645   5.923   3.511   4.398  0.7029 -2.0660 -1.5284
  744MOL0     H 2646   5.644   3.474   4.547  0.5673  0.7884  1.2095
  744MOL0     H 2647   5.744   3.612   4.562 -3.7014  0.8995  0.8301
  744MOL0     H 2648   5.931   3.496   4.639  1.0309 -1.2101  1.9389
  744MOL0     H 2649   5.866   3.336   4.623 -0.8017  0.6327 -2.7917
  744MOL0     H 2650   5.772   3.566   4.805 -0.5555 -0.3672  1.9748
  744MOL0     H 2651   5.851   3.429   4.861 -2.0282 -1.3650  1.7166
  744MOL0     H 2652   5.465   4.100   4.188 -0.2614  0.9907  0.2097
  744MOL0     H 2653   5.359   4.312   4.111 -0.2502  0.3709  0.1949
  744MOL0     H 2654   4.998   4.426   3.834  0.9172 -0.6142 -0.2405
  744MOL0     H 2655   4.848   4.606   3.762  0.3568  0.9168 -0.5577
  744MOL0     H 2656   6.016   3.672   3.537 -0.8476  0.4000  0.3301
  744MOL0     H 2657   6.167   3.557   3.689 -0.9330 -1.1239  1.2733
  744MOL0     H 2658   6.188   3.409   4.138 -1.1712 -0.7729  0.8226
  744MOL0     H 2659   6.328   3.280   4.291 -1.1370 -2.2774  1.4770
  744MOL0     H 2660   6.556   3.208   4.335 -2.5305 -0.4622  1.0073
  744MOL0     H 2661   6.597   3.050   4.382  0.1829  0.7094  0.8125
  744MOL0     H 2662   6.761   3.135   4.201  0.7265  0.5731 -0.9311
  744MOL0     H 2663   6.633   3.170   4.092  3.2127  1.5340 -0.2220
  744MOL0     H 2664   6.705   2.898   4.207  1.2150 -3.1283 -2.0055
  744MOL0     H 2665   6.597   2.905   4.072 -1.1714  0.1766  0.4981
  744MOL0     H 2666   6.800   2.833   4.022 -0.3706 -0.6013  5.4294
  744MOL0     H 2667   6.894   2.985   4.051 -0.3181  1.3001 -1.5818
  744MOL0     H 2668   6.658   3.040   3.696  1.3345 -2.5291 -0.9726
  744MOL0     H 2669   6.401   3.001   3.975  0.4818 -1.0354  1.2959
  744MOL0     H 2670   6.378   3.067   3.764 -1.0670 -1.6817  1.1739
  744MOL0     H 2671   6.206   3.086   3.735 -1.4686  2.4772  2.5098
  744MOL0     H 2672   6.307   3.225   3.720  1.7385 -1.1028 -3.2160
  745MOL0     O 2673   2.295   1.605   1.648 -0.4281  0.4483  0.5169
  745MOL0     C 2674   2.229   1.688   1.715 -0.4935 -0.1484  0.4685
  745MOL0     O 2675   2.170   1.800   1.665  0.6486  0.2711 -0.2964
  745MOL0     C 2676   2.167   1.822   1.528  0.3500  0.4809  0.1268
  745MOL0     C 2677   2.142   1.725   1.435 -0.5023 -0.2276  0.0349
  745MOL0     C 2678   2.133   1.766   1.296  0.3099  0.0140 -0.0725
  745MOL0     C 2679   2.177   1.889   1.256  0.4359  0.4309  0.3456
  745MOL0     O 2680   2.177   1.935   1.128 -0.1216 -0.3528 -0.4820
  745MOL0     C 2681   2.054   1.944   1.063 -0.0774  0.2232  0.2034
  745MOL0     C 2682   2.093   1.991   0.923 -0.6139 -0.4105  2.2881
  745MOL0     C 2683   2.153   1.873   0.853  0.2969 -0.3920  0.6852
  745MOL0     C 2684   2.169   1.919   0.705 -0.3857  0.1234  0.3435
  745MOL0     C 2685   2.220   1.804   0.607  0.4990  0.5816  0.4994
  745MOL0     C 2686   2.099   1.740   0.527 -0.4065  0.1278  0.6846
  745MOL0     C 2687   2.136   1.623   0.430 -0.1570  0.2131  0.1880
  745MOL0     C 2688   2.013   1.563   0.364  0.2765 -0.9043  0.4067
  745MOL0     N 2689   1.927   1.502   0.465  0.4638 -0.0562  0.5783
  745MOL0     C 2690   1.969   1.416   0.554  0.8313  1.2553 -0.2514
  745MOL0     C 2691   1.857   1.377   0.623  0.1320 -0.0702 -0.0990
  745MOL0     C 2692   1.847   1.291   0.742  0.3423  1.0530 -0.1490
  745MOL0     C 2693   1.897   1.143   0.713 -0.1578 -1.2566 -0.7125
  745MOL0     C 2694   1.871   1.053   0.845  0.3547 -1.1944 -0.8313
  745MOL0     C 2695   1.721   1.014   0.848 -0.1414  0.6416 -0.3056
  745MOL0     O 2696   1.707   0.932   0.965 -0.2296  0.0711 -0.4232
  745MOL0     C 2697   1.578   0.907   1.007 -0.3321  0.7775 -1.2704
  745MOL0     C 2698   1.560   0.803   1.105 -1.2456 -1.4195 -0.3717
  745MOL0     C 2699   1.439   0.771   1.148 -0.5814 -0.3224 -0.2009
  745MOL0     C 2700   1.439   0.653   1.241 -0.2021  0.4873 -0.2716
  745MOL0     C 2701   1.327   0.850   1.119  0.9638  0.9975  0.5973
  745MOL0     C 2702   1.192   0.807   1.183  0.5928 -0.6736 -0.3281
  745MOL0     O 2703   1.190   0.771   1.319 -0.6296 -0.1647  0.6003
  745MOL0     C 2704   1.075   0.732   1.371  0.2113  0.0746 -0.1630
  745MOL0     C 2705   1.030   0.614   1.329  0.5789  0.3054 -0.4510
  745MOL0     C 2706   0.912   0.563   1.406  0.2319  0.2642 -0.3631
  745MOL0     C 2707   0.850   0.623   1.518 -0.8806  0.0703  0.7426
  745MOL0     O 2708   0.736   0.562   1.563 -0.1732  0.4748 -0.4357
  745MOL0     C 2709   0.696   0.578   1.699  0.1407  0.0506  0.4021
  745MOL0     C 2710   0.562   0.505   1.729  0.1482  0.6693  0.5128
  745MOL0     C 2711   0.457   0.531   1.615 -0.8223  0.1215  0.2426
  745MOL0     C 2712   0.486   0.449   1.487 -0.7447 -0.2879 -0.0470
  745MOL0     C 2713   0.352   0.419   1.407 -0.2690 -0.4213 -0.3104
  745MOL0     C 2714   0.370   0.331   1.288 -0.2727 -1.1819  0.2304
  745MOL0     C 2715   0.242   0.243   1.271  0.1123  0.4037 -0.7336
  745MOL0     C 2716   0.249   0.164   1.154 -0.1332 -0.9978  0.8285
  745MOL0    Cl 2717   0.277   0.266   1.011  0.3452 -0.7710  0.2002
  745MOL0     C 2718   0.904   0.751   1.544  0.2673 -0.0674 -0.5400
  745MOL0     C 2719   1.013   0.804   1.470  0.2994  0.0818 -0.7337
  745MOL0     O 2720   1.095   0.818   1.110 -0.4342 -0.4129  0.4427
  745MOL0     C 2721   1.335   0.934   1.008  0.1746  0.0990  0.8406
  745MOL0     C 2722   1.468   0.969   0.950  0.9536 -0.1017  0.9157
  745MOL0     N 2723   1.746   1.420   0.546  0.1715 -0.4932 -0.5103
  745MOL0     N 2724   1.791   1.507   0.461 -0.6051 -0.2803 -0.1860
  745MOL0     C 2725   2.200   1.983   1.352 -0.3425  0.5694 -0.3341
  745MOL0     C 2726   2.189   1.952   1.487 -0.3012  1.0767 -0.5425
  745MOL0     C 2727   2.224   1.651   1.855 -0.3881 -0.9799 -1.1343
  745MOL0     C 2728   2.330   1.579   1.921  0.8288  0.5676  1.8246
  745MOL0     C 2729   2.313   1.534   2.057 -0.2656  0.3940  0.9809
  745MOL0     C 2730   2.211   1.578   2.131  0.1068  0.7448  0.4183
  745MOL0     O 2731   2.213   1.541   2.266 -0.1654  0.5200  0.0682
  745MOL0     C 2732   2.109   1.599   2.354 -0.3517  0.2297 -0.3727
  745MOL0     C 2733   2.120   1.538   2.497  0.1215  0.8442  0.7046
  745MOL0     C 2734   2.259   1.554   2.550 -0.5538  0.5817 -0.1179
  745MOL0     C 2735   2.260   1.470   2.684  0.8777  0.6851  0.2318
  745MOL0     C 2736   2.156   1.519   2.780 -1.1108 -1.1888 -0.0625
  745MOL0     C 2737   2.087   1.588   2.852  0.0782  0.1342  0.9002
  745MOL0     C 2738   2.111   1.646   2.069 -1.4642 -0.5464 -0.3759
  745MOL0     C 2739   2.112   1.683   1.931 -0.4699 -0.2337  0.3663
  745MOL0     C 2740   2.000   1.767   1.880 -0.7900 -0.0757 -0.1475
  745MOL0     H 2741   2.128   1.623   1.470 -2.1644  0.1530  0.5441
  745MOL0     H 2742   2.107   1.674   1.245 -0.1539 -1.0556  1.9945
  745MOL0     H 2743   1.993   2.016   1.118  0.8709  1.5564 -0.4222
  745MOL0     H 2744   1.989   1.858   1.046  1.7235 -1.2745  0.4593
  745MOL0     H 2745   2.002   2.020   0.868 -1.5772 -2.3238  2.7956
  745MOL0     H 2746   2.167   2.071   0.931 -1.2820  0.2221  2.2478
  745MOL0     H 2747   2.255   1.840   0.877  1.9973  2.8104 -1.4313
  745MOL0     H 2748   2.098   1.779   0.863  0.4970 -0.3690  2.2584
  745MOL0     H 2749   2.073   1.952   0.664 -0.7791 -2.3637 -0.9201
  745MOL0     H 2750   2.230   2.010   0.700 -1.7370  0.9953 -1.7012
  745MOL0     H 2751   2.281   1.729   0.658 -0.1925  0.5316  1.2779
  745MOL0     H 2752   2.297   1.843   0.540 -0.0889  0.7043 -0.1153
  745MOL0     H 2753   2.020   1.710   0.596 -0.7614  3.6074  2.0077
  745MOL0     H 2754   2.049   1.814   0.464 -2.3604 -0.5847  1.3122
  745MOL0     H 2755   2.187   1.544   0.486  0.6709  1.6310  1.5192
  745MOL0     H 2756   2.205   1.673   0.361 -1.4416 -0.8815 -1.9925
  745MOL0     H 2757   1.955   1.635   0.306  0.4702 -1.5077 -0.5618
  745MOL0     H 2758   2.048   1.482   0.300 -3.7911 -1.4620 -1.3957
  745MOL0     H 2759   2.075   1.400   0.567  0.9227  0.6554 -1.5823
  745MOL0     H 2760   1.747   1.310   0.783  0.9716  3.9109  0.2922
  745MOL0     H 2761   1.913   1.337   0.816  2.0155  1.0891 -1.6044
  745MOL0     H 2762   1.845   1.099   0.627  0.0227  1.9284 -2.5785
  745MOL0     H 2763   2.004   1.148   0.689 -0.1501 -0.0954 -0.4756
  745MOL0     H 2764   1.923   0.958   0.828  0.9010 -1.5010  2.0959
  745MOL0     H 2765   1.902   1.112   0.932 -1.7623 -2.3056  0.7706
  745MOL0     H 2766   1.665   1.108   0.851  0.7005  1.1269  2.0750
  745MOL0     H 2767   1.688   0.956   0.761 -2.3853 -0.9488  1.4985
  745MOL0     H 2768   1.645   0.743   1.136 -1.1717 -1.4523 -0.6277
  745MOL0     H 2769   1.517   0.582   1.212 -0.4975 -0.5894  1.4444
  745MOL0     H 2770   1.347   0.594   1.231 -0.3342  0.7660 -0.7376
  745MOL0     H 2771   1.449   0.680   1.347  0.3869 -3.7581  0.9209
  745MOL0     H 2772   1.081   0.556   1.252 -1.5298 -0.2034 -1.5607
  745MOL0     H 2773   0.864   0.473   1.368 -1.9710  1.8060 -1.4284
  745MOL0     H 2774   0.771   0.534   1.765 -1.2744  0.6678  2.5327
  745MOL0     H 2775   0.675   0.685   1.711 -1.0852 -0.1323  0.0338
  745MOL0     H 2776   0.577   0.397   1.730  1.6032  0.8470  1.2991
  745MOL0     H 2777   0.518   0.552   1.818 -2.2232  2.9305 -1.7175
  745MOL0     H 2778   0.459   0.638   1.590 -2.3452 -0.1568 -1.2320
  745MOL0     H 2779   0.358   0.509   1.654 -2.5301  1.7961 -2.7709
  745MOL0     H 2780   0.533   0.359   1.527 -2.4572 -0.9428  0.5502
  745MOL0     H 2781   0.556   0.503   1.422  0.1103  4.5151  4.1806
  745MOL0     H 2782   0.274   0.379   1.472 -2.3335  2.0190 -1.1192
  745MOL0     H 2783   0.318   0.518   1.376  0.6735  0.8614  2.4184
  745MOL0     H 2784   0.463   0.278   1.308  0.0681 -1.2176 -1.3569
  745MOL0     H 2785   0.387   0.397   1.202  5.1754 -0.3617  1.5899
  745MOL0     H 2786   0.150   0.301   1.260 -1.1273 -1.6625 -2.0521
  745MOL0     H 2787   0.235   0.170   1.352  1.1696  0.2850 -0.7369
  745MOL0     H 2788   0.163   0.097   1.145 -1.9246  1.2485  0.5772
  745MOL0     H 2789   0.343   0.107   1.154  1.1598  1.0338  0.5528
  745MOL0     H 2790   0.879   0.811   1.631  1.4738 -0.2551 -0.0516
  745MOL0     H 2791   1.058   0.899   1.496 -0.2178  0.7983 -2.3415
  745MOL0     H 2792   1.245   0.969   0.958 -0.4149 -1.9674  0.3183
  745MOL0     H 2793   1.478   1.042   0.871  2.0044  0.9988  2.0365
  745MOL0     H 2794   2.232   2.082   1.323  0.7150  0.1379 -0.7039
  745MOL0     H 2795   2.213   2.021   1.568 -0.4729 -1.1146  1.4874
  745MOL0     H 2796   2.411   1.545   1.857 -0.9728  0.3091 -0.4784
  745MOL0     H 2797   2.390   1.480   2.110  2.0105  1.4231 -1.0516
  745MOL0     H 2798   2.117   1.708   2.347 -0.4808  0.3182  0.7939
  745MOL0     H 2799   2.015   1.559   2.316 -0.3470 -0.1101 -0.0402
  745MOL0     H 2800   2.099   1.431   2.494  0.8656  0.6888 -2.5511
  745MOL0     H 2801   2.059   1.599   2.565 -1.7296 -0.9721  0.7726
  745MOL0     H 2802   2.339   1.523   2.482 -1.1248  0.8937 -0.9422
  745MOL0     H 2803   2.286   1.655   2.583  2.4055  0.4649 -1.8151
  745MOL0     H 2804   2.360   1.451   2.723  0.7726  0.7383  0.5331
  745MOL0     H 2805   2.228   1.373   2.643 -1.6492  0.8506  1.6219
  745MOL0     H 2806   2.037   1.661   2.913  0.1172 -0.1531  1.2790
  745MOL0     H 2807   2.032   1.682   2.134  1.0628  1.1424  2.0387
  745MOL0     H 2808   1.969   1.721   1.786  1.3233 -1.3991 -0.2460
  745MOL0     H 2809   1.915   1.776   1.948  0.5683 -3.0769  2.2039
  745MOL0     H 2810   2.026   1.873   1.866 -1.6300  0.7553  3.5444
  746MOL0     O 2811   9.724  11.221   5.223 -0.2490  0.5952  0.5448
  746MOL0     C 2812   9.793  11.328   5.211 -0.5385  0.1459  0.1847
  746MOL0     O 2813   9.914  11.344   5.259  0.0746 -0.8789  0.1881
  746MOL0     C 2814   9.998  11.257   5.326  0.0119 -0.1156  0.1725
  746MOL0     C 2815  10.136  11.300   5.354  0.8334 -0.5961 -0.2936
  746MOL0     C 2816  10.226  11.234   5.427 -0.6950  0.0353 -0.1503
  746MOL0     C 2817  10.207  11.099   5.470 -0.1726  0.7881 -0.0484
  746MOL0     O 2818  10.286  11.027   5.556 -0.0290 -0.2104  0.3563
  746MOL0     C 2819  10.366  11.103   5.645  0.1080  0.1648  0.3298
  746MOL0     C 2820  10.507  11.129   5.578 -0.1040  0.0472 -1.3711
  746MOL0     C 2821  10.598  11.008   5.549 -0.3816 -0.3214  0.3861
  746MOL0     C 2822  10.732  11.049   5.497  0.2281  0.3488 -0.1601
  746MOL0     C 2823  10.810  11.150   5.583 -0.0743  0.3013  0.3664
  746MOL0     C 2824  10.957  11.178   5.543  0.7169 -1.1672  0.9231
  746MOL0     C 2825  10.958  11.215   5.394  0.6974 -0.2837  0.4156
  746MOL0     C 2826  11.092  11.278   5.365 -0.8613 -0.7378  0.1446
  746MOL0     N 2827  11.205  11.169   5.363  0.4592 -0.4006  1.4925
  746MOL0     C 2828  11.347  11.202   5.350 -0.1416 -0.0842  0.3552
  746MOL0     C 2829  11.398  11.076   5.354 -0.2991 -0.6676 -0.2379
  746MOL0     C 2830  11.542  11.035   5.340  0.1364  0.5978  0.4057
  746MOL0     C 2831  11.581  11.042   5.190 -0.2142 -0.2694 -0.0288
  746MOL0     C 2832  11.723  10.984   5.171 -0.4167  0.6143 -0.0543
  746MOL0     C 2833  11.762  10.934   5.030 -0.7114 -0.7073 -0.4616
  746MOL0     O 2834  11.718  11.014   4.913  0.2281  0.2618 -0.3843
  746MOL0     C 2835  11.729  10.951   4.782 -0.4475 -0.4453  0.4693
  746MOL0     C 2836  11.780  10.820   4.766  0.9603  0.1277 -0.5090
  746MOL0     C 2837  11.803  10.744   4.640 -0.1768  0.1784 -0.5237
  746MOL0     C 2838  11.858  10.605   4.649  0.0445 -0.4404  1.4348
  746MOL0     C 2839  11.783  10.822   4.526 -0.2607  0.2251 -0.3481
  746MOL0     C 2840  11.797  10.770   4.389  0.3458 -0.1408  0.5767
  746MOL0     O 2841  11.833  10.859   4.295  0.7296 -0.0688  0.3816
  746MOL0     C 2842  11.875  10.809   4.175  0.2036 -0.5240 -0.1512
  746MOL0     C 2843  12.009  10.836   4.152  0.6763  0.1327  0.5533
  746MOL0     C 2844  12.070  10.782   4.034  0.7968 -0.3264 -0.7342
  746MOL0     C 2845  11.995  10.699   3.948  0.0653  1.1306 -0.1035
  746MOL0     O 2846  12.079  10.655   3.845 -0.0784 -0.2633 -0.3253
  746MOL0     C 2847  12.000  10.569   3.749  0.3157 -1.1090 -0.1291
  746MOL0     C 2848  12.080  10.513   3.625  0.5420  0.0750 -0.7663
  746MOL0     C 2849  12.212  10.441   3.669  0.4793  0.6769  0.4689
  746MOL0     C 2850  12.262  10.366   3.549  0.0664  0.3989 -0.6807
  746MOL0     C 2851  12.383  10.290   3.602  0.3509  0.4742  0.2892
  746MOL0     C 2852  12.454  10.197   3.504 -0.1917 -0.5431  0.2136
  746MOL0     C 2853  12.526  10.261   3.386  0.2707 -0.1674 -0.0297
  746MOL0     C 2854  12.598  10.154   3.305  0.0930  0.2618 -0.9637
  746MOL0    Cl 2855  12.767  10.135   3.383  0.0165 -0.0884 -0.1671
  746MOL0     C 2856  11.863  10.667   3.981  0.2819  1.1294 -0.1136
  746MOL0     C 2857  11.802  10.723   4.095  0.0536  0.0985 -0.0864
  746MOL0     O 2858  11.772  10.648   4.370  0.0241  0.8991  0.0492
  746MOL0     C 2859  11.748  10.959   4.543 -0.4754  0.3592 -0.7415
  746MOL0     C 2860  11.707  11.023   4.667  0.1343 -0.2804  1.0570
  746MOL0     N 2861  11.300  10.983   5.363 -0.6018 -0.4892 -0.0299
  746MOL0     N 2862  11.189  11.033   5.366  0.9259 -0.7474 -1.2334
  746MOL0     C 2863  10.091  11.041   5.415 -0.1643 -0.5017  0.5319
  746MOL0     C 2864   9.984  11.117   5.345 -0.7294 -1.0163  0.1760
  746MOL0     C 2865   9.727  11.455   5.173 -0.4641  0.0317  0.0666
  746MOL0     C 2866   9.816  11.552   5.133  0.5417 -0.0694 -0.2825
  746MOL0     C 2867   9.773  11.675   5.092  0.8783 -0.3638 -0.5016
  746MOL0     C 2868   9.635  11.705   5.105  0.2071 -0.5393 -0.0964
  746MOL0     O 2869   9.598  11.831   5.055 -0.1678  0.7333  0.3226
  746MOL0     C 2870   9.463  11.878   5.067 -0.1810  0.4981 -0.6004
  746MOL0     C 2871   9.370  11.821   4.962  0.2775 -0.6051 -0.4436
  746MOL0     C 2872   9.214  11.830   5.005 -0.6789  0.0767 -0.4469
  746MOL0     C 2873   9.144  11.965   5.011 -0.1968 -0.8769  0.1929
  746MOL0     C 2874   9.137  12.018   4.874  1.2074  0.4332 -0.1376
  746MOL0     C 2875   9.133  12.054   4.760 -0.5890 -0.0244  0.4689
  746MOL0     C 2876   9.545  11.614   5.146  0.3465 -1.2772 -0.5494
  746MOL0     C 2877   9.581  11.482   5.174 -0.2585 -0.4548 -0.1494
  746MOL0     C 2878   9.467  11.392   5.198  0.2083  0.6213  0.1475
  746MOL0     H 2879  10.168  11.395   5.314 -1.0904 -0.2215 -1.0490
  746MOL0     H 2880  10.315  11.285   5.462 -0.6111 -0.3509  0.2162
  746MOL0     H 2881  10.386  11.050   5.738 -0.3005 -1.2162 -0.3333
  746MOL0     H 2882  10.311  11.196   5.659 -0.6205 -0.3261  0.7936
  746MOL0     H 2883  10.495  11.172   5.478 -0.7726 -1.4793 -1.9720
  746MOL0     H 2884  10.561  11.198   5.643  1.3025 -2.6648  0.4908
  746MOL0     H 2885  10.619  10.959   5.645 -0.1244 -0.3222  0.3309
  746MOL0     H 2886  10.557  10.933   5.481 -1.7041 -0.8792  1.7311
  746MOL0     H 2887  10.792  10.960   5.476  0.0660 -0.7284  3.2563
  746MOL0     H 2888  10.720  11.099   5.400  0.9872  2.2749  0.6844
  746MOL0     H 2889  10.820  11.120   5.687 -0.4312  2.8260  1.1976
  746MOL0     H 2890  10.757  11.246   5.590 -0.0091  0.3456  0.2672
  746MOL0     H 2891  11.000  11.256   5.607  1.0664 -1.9574  1.6626
  746MOL0     H 2892  10.993  11.078   5.567 -0.4247 -1.2146  2.6386
  746MOL0     H 2893  10.883  11.283   5.354  1.9668 -0.4825 -2.5021
  746MOL0     H 2894  10.942  11.126   5.333 -0.8826  0.3644 -0.1494
  746MOL0     H 2895  11.099  11.320   5.265  1.8029 -0.5391  0.3453
  746MOL0     H 2896  11.113  11.356   5.439  0.4392  0.3640 -1.3204
  746MOL0     H 2897  11.388  11.302   5.351 -1.6799  0.5773  1.6082
  746MOL0     H 2898  11.566  10.934   5.377 -1.1530  0.2249  0.2627
  746MOL0     H 2899  11.598  11.102   5.407 -3.2665  3.0604  1.0204
  746MOL0     H 2900  11.510  10.978   5.137  1.9051 -3.5419  0.7518
  746MOL0     H 2901  11.574  11.148   5.163  0.2341  0.4053  2.3108
  746MOL0     H 2902  11.791  11.056   5.218 -0.3104 -0.5725  1.6999
  746MOL0     H 2903  11.714  10.899   5.239  0.2178  0.5122 -0.0925
  746MOL0     H 2904  11.868  10.924   5.007 -0.3782 -2.2034  1.4130
  746MOL0     H 2905  11.707  10.840   5.023 -1.3403 -0.6020  2.1038
  746MOL0     H 2906  11.814  10.756   4.846 -1.3937 -3.4715 -2.1112
  746MOL0     H 2907  11.954  10.591   4.599 -0.1384 -4.7137  1.8988
  746MOL0     H 2908  11.788  10.534   4.605 -1.0797  0.9810  0.8221
  746MOL0     H 2909  11.878  10.579   4.753 -2.0488 -1.2743  1.6724
  746MOL0     H 2910  12.062  10.882   4.235  0.7529  2.2478 -0.5881
  746MOL0     H 2911  12.174  10.812   4.021 -0.0296  3.4374  0.1393
  746MOL0     H 2912  11.951  10.483   3.795 -3.0358 -0.3478 -1.9751
  746MOL0     H 2913  11.913  10.625   3.714  0.2829 -2.5781 -2.6089
  746MOL0     H 2914  12.012  10.436   3.587  0.9319 -0.1230 -1.0607
  746MOL0     H 2915  12.109  10.602   3.568  2.1135  1.9534  2.6594
  746MOL0     H 2916  12.178  10.374   3.749  3.2203  0.4486  1.5479
  746MOL0     H 2917  12.285  10.510   3.712  1.3401  1.6563 -2.3267
  746MOL0     H 2918  12.287  10.433   3.466  1.0105 -2.1637 -2.6091
  746MOL0     H 2919  12.181  10.296   3.527 -1.5192  0.9200  2.8060
  746MOL0     H 2920  12.455  10.365   3.636  1.3972  0.3944 -1.5742
  746MOL0     H 2921  12.354  10.225   3.684 -0.6308 -1.0260 -1.1759
  746MOL0     H 2922  12.382  10.129   3.460  0.4376  0.5475 -2.7779
  746MOL0     H 2923  12.531  10.145   3.562 -0.1096 -0.2891  0.3356
  746MOL0     H 2924  12.599  10.328   3.432 -0.6141  1.8255 -1.3757
  746MOL0     H 2925  12.445  10.313   3.333 -1.8490  0.1247  3.1755
  746MOL0     H 2926  12.615  10.189   3.203 -2.7511  0.9382 -1.2898
  746MOL0     H 2927  12.554  10.054   3.297  0.1044  0.0036  1.3432
  746MOL0     H 2928  11.807  10.600   3.916  1.1831 -2.6509  2.6841
  746MOL0     H 2929  11.700  10.692   4.114 -0.3864  2.2037  1.2998
  746MOL0     H 2930  11.729  11.020   4.456  0.6026  2.1529  0.2030
  746MOL0     H 2931  11.671  11.125   4.674  1.7638  0.3212  1.0819
  746MOL0     H 2932  10.085  10.933   5.415  1.0125 -0.5796  0.1639
  746MOL0     H 2933   9.906  11.067   5.289 -1.0730  2.0347 -2.3775
  746MOL0     H 2934   9.921  11.532   5.120 -0.3229 -4.2990 -2.5318
  746MOL0     H 2935   9.835  11.744   5.037 -0.7153  0.1516 -1.7453
  746MOL0     H 2936   9.426  11.865   5.169  2.0047  2.3063  0.5209
  746MOL0     H 2937   9.470  11.986   5.050  1.1431 -0.0021 -4.3104
  746MOL0     H 2938   9.401  11.719   4.939 -3.5347 -1.5013 -2.4552
  746MOL0     H 2939   9.370  11.875   4.867  0.4916 -1.3627 -0.8817
  746MOL0     H 2940   9.154  11.761   4.944 -0.8757  0.2564 -0.4585
  746MOL0     H 2941   9.209  11.783   5.104  1.1854  1.8366  0.5352
  746MOL0     H 2942   9.194  12.022   5.090  1.2183 -3.7767  1.5119
  746MOL0     H 2943   9.047  11.942   5.056  1.0486 -1.4909  2.7302
  746MOL0     H 2944   9.140  12.081   4.657  1.5650  1.6219  0.9929
  746MOL0     H 2945   9.440  11.638   5.159 -0.0003 -3.5277  1.4652
  746MOL0     H 2946   9.374  11.449   5.189 -1.0093 -1.5135 -2.0117
  746MOL0     H 2947   9.466  11.308   5.128  1.0701  1.3885 -0.8140
  746MOL0     H 2948   9.477  11.355   5.300 -1.7920 -0.0124  0.1556
  747MOL0     O 2949   2.468   0.667   2.602 -0.3051  0.1769  0.1307
  747MOL0     C 2950   2.403   0.605   2.515  0.5509  0.4586 -0.2847
  747MOL0     O 2951   2.290   0.652   2.453 -0.2550 -0.2143 -0.2232
  747MOL0     C 2952   2.226   0.759   2.505 -0.6941 -0.6061  0.4779
  747MOL0     C 2953   2.211   0.785   2.640  0.1668 -0.4484 -0.0799
  747MOL0     C 2954   2.133   0.902   2.695 -0.3388 -0.1697 -0.2417
  747MOL0     C 2955   2.083   0.988   2.599  1.8321 -1.0844  0.2460
  747MOL0     O 2956   2.027   1.107   2.627  0.5678 -0.1877 -0.0003
  747MOL0     C 2957   1.962   1.135   2.763  0.4239  0.4837  0.2385
  747MOL0     C 2958   1.814   1.081   2.762  0.3568  0.1021  0.2586
  747MOL0     C 2959   1.729   1.135   2.644  0.6078  0.3015  0.6269
  747MOL0     C 2960   1.583   1.087   2.648  0.0655 -0.1474 -0.1457
  747MOL0     C 2961   1.502   1.099   2.514 -0.3089 -0.5107  0.3983
  747MOL0     C 2962   1.475   1.254   2.470  1.2014  0.8612 -0.5188
  747MOL0     C 2963   1.407   1.263   2.335  1.1092 -0.0751  0.0413
  747MOL0     C 2964   1.360   1.407   2.310  0.0308 -0.4366 -0.3854
  747MOL0     N 2965   1.294   1.435   2.185 -0.9202  0.9489 -0.2481
  747MOL0     C 2966   1.348   1.459   2.063 -1.3156 -0.6329 -0.4854
  747MOL0     C 2967   1.246   1.471   1.980 -0.7091  0.6055  0.2624
  747MOL0     C 2968   1.268   1.498   1.829  0.0100  1.2339 -0.1557
  747MOL0     C 2969   1.326   1.636   1.811  0.3510 -0.0935  0.3466
  747MOL0     C 2970   1.343   1.666   1.660 -0.1165 -0.5054  0.1362
  747MOL0     C 2971   1.368   1.813   1.631  0.1648 -0.5483 -0.7749
  747MOL0     O 2972   1.259   1.897   1.671 -0.2390  0.1880 -0.3775
  747MOL0     C 2973   1.178   1.960   1.570 -0.0472  0.7906 -0.3762
  747MOL0     C 2974   1.233   2.071   1.503 -0.6076 -0.5418  0.0240
  747MOL0     C 2975   1.153   2.147   1.419 -0.1725 -0.6696 -0.7656
  747MOL0     C 2976   1.210   2.269   1.349  0.2915  0.0250  0.5191
  747MOL0     C 2977   1.024   2.101   1.401 -0.3418 -0.7338  0.3353
  747MOL0     C 2978   0.928   2.189   1.330  0.8209  0.1352  0.5584
  747MOL0     O 2979   0.888   2.308   1.379 -0.3742 -0.8989  0.2386
  747MOL0     C 2980   0.781   2.385   1.326  0.6720  0.0252  0.2453
  747MOL0     C 2981   0.660   2.334   1.348 -0.3789 -1.1259 -0.8087
  747MOL0     C 2982   0.549   2.413   1.319  0.2501  0.1173  0.4038
  747MOL0     C 2983   0.561   2.543   1.273 -0.3841 -0.4510  0.4692
  747MOL0     O 2984   0.458   2.632   1.250 -0.0244  0.0972 -0.5020
  747MOL0     C 2985   0.331   2.595   1.296  0.9604 -0.4389 -0.0686
  747MOL0     C 2986   0.236   2.710   1.249 -0.2444 -0.5842  0.0659
  747MOL0     C 2987   0.101   2.690   1.320 -0.1851 -0.3721 -0.5672
  747MOL0     C 2988   0.087   2.798   1.433  0.3076  0.0624  0.2540
  747MOL0     C 2989  -0.058   2.832   1.440 -0.1479 -0.9818 -0.6611
  747MOL0     C 2990  -0.154   2.727   1.498  0.3667 -0.7075  0.1504
  747MOL0     C 2991  -0.298   2.754   1.468  0.5241 -0.7077  0.2393
  747MOL0     C 2992  -0.394   2.637   1.489 -0.3539 -0.1485  0.1973
  747MOL0    Cl 2993  -0.345   2.494   1.383  0.2751 -0.1433 -1.0512
  747MOL0     C 2994   0.689   2.593   1.256  0.7695  0.6515  0.3218
  747MOL0     C 2995   0.797   2.513   1.282  0.1911 -0.5558 -0.8462
  747MOL0     O 2996   0.896   2.146   1.221 -0.1670  0.1017 -0.7033
  747MOL0     C 2997   0.968   1.992   1.466 -0.5309  0.1742 -0.5699
  747MOL0     C 2998   1.049   1.905   1.548 -0.6687 -0.6459 -0.5981
  747MOL0     N 2999   1.128   1.465   2.054 -0.1499 -0.0682  0.1487
  747MOL0     N 3000   1.160   1.457   2.178 -0.7840  0.7214 -0.3325
  747MOL0     C 3001   2.092   0.962   2.468  0.1063 -0.9468 -0.0885
  747MOL0     C 3002   2.158   0.853   2.423 -0.6400 -1.1348  0.5812
  747MOL0     C 3003   2.461   0.481   2.458 -0.3230  0.0933 -0.5287
  747MOL0     C 3004   2.376   0.372   2.414 -1.1497 -0.6716 -0.3430
  747MOL0     C 3005   2.425   0.269   2.335 -1.0897 -0.0370 -0.3714
  747MOL0     C 3006   2.561   0.255   2.326 -0.8974 -0.3470  0.4278
  747MOL0     O 3007   2.630   0.143   2.280  0.0821  0.0175 -0.0243
  747MOL0     C 3008   2.566   0.032   2.222 -0.5324 -0.1172  0.5113
  747MOL0     C 3009   2.580   0.015   2.074  0.5052  0.2636 -0.2669
  747MOL0     C 3010   2.539   0.150   1.996  0.3932 -0.2149 -0.0457
  747MOL0     C 3011   2.573   0.135   1.845  0.5579  0.1515  0.0620
  747MOL0     C 3012   2.473   0.104   1.741  0.0806  0.7802  0.9980
  747MOL0     C 3013   2.373   0.067   1.682  0.1424  0.4454 -0.2930
  747MOL0     C 3014   2.644   0.354   2.382  1.1214  0.2458  0.3170
  747MOL0     C 3015   2.600   0.468   2.434  1.4452  0.9847 -0.0044
  747MOL0     C 3016   2.706   0.563   2.470  0.5236  0.5846 -0.6692
  747MOL0     H 3017   2.233   0.715   2.720 -1.1784  1.4278  2.0560
  747MOL0     H 3018   2.122   0.898   2.803 -0.5197 -0.4540 -0.2700
  747MOL0     H 3019   1.964   1.242   2.788  2.0985  0.1354  1.8477
  747MOL0     H 3020   2.012   1.094   2.851  1.1205  1.7809  0.4817
  747MOL0     H 3021   1.811   0.972   2.760 -0.5166  0.1208  0.4266
  747MOL0     H 3022   1.771   1.097   2.861 -1.1654 -1.5476 -0.1061
  747MOL0     H 3023   1.743   1.244   2.643 -0.3141  0.4297  1.1801
  747MOL0     H 3024   1.778   1.100   2.552  0.8382  0.7224  0.5857
  747MOL0     H 3025   1.582   0.980   2.672  1.1034  0.0056  0.6506
  747MOL0     H 3026   1.540   1.133   2.737  0.7329 -0.5022  0.3738
  747MOL0     H 3027   1.409   1.045   2.536 -0.3641 -0.4615  0.2838
  747MOL0     H 3028   1.556   1.053   2.431 -2.1625  2.8483 -2.9908
  747MOL0     H 3029   1.410   1.298   2.546  1.0021 -1.6067  0.8288
  747MOL0     H 3030   1.568   1.311   2.475  1.7989 -0.2014  1.2342
  747MOL0     H 3031   1.322   1.200   2.306  1.9530 -1.5464  0.6311
  747MOL0     H 3032   1.487   1.249   2.261  2.1416 -4.2661  1.6539
  747MOL0     H 3033   1.295   1.430   2.395 -0.4550 -2.3876 -0.1929
  747MOL0     H 3034   1.450   1.469   2.313 -0.2942  0.0380  2.5980
  747MOL0     H 3035   1.451   1.467   2.032 -0.6955 -4.2117  0.1702
  747MOL0     H 3036   1.169   1.502   1.782 -0.2865  2.7587  0.5698
  747MOL0     H 3037   1.341   1.427   1.787  1.2064  2.3868 -0.1071
  747MOL0     H 3038   1.261   1.707   1.863 -0.1477  0.7479 -1.3797
  747MOL0     H 3039   1.423   1.640   1.863  1.7735 -0.8667 -2.0803
  747MOL0     H 3040   1.425   1.606   1.620  2.3947  2.1523  0.8982
  747MOL0     H 3041   1.253   1.640   1.604 -0.0227 -1.4939  0.4190
  747MOL0     H 3042   1.450   1.861   1.685 -0.2383  0.0839 -0.7160
  747MOL0     H 3043   1.378   1.824   1.523 -0.3749 -2.7078 -1.1045
  747MOL0     H 3044   1.336   2.104   1.513 -1.0382  0.8894 -0.0077
  747MOL0     H 3045   1.149   2.306   1.266 -0.7985  0.0323  1.3135
  747MOL0     H 3046   1.317   2.251   1.329  0.2447  1.1368 -0.8990
  747MOL0     H 3047   1.228   2.344   1.426  2.5035 -1.1454  1.2500
  747MOL0     H 3048   0.642   2.245   1.408 -2.0201 -1.4122 -1.6515
  747MOL0     H 3049   0.453   2.370   1.346  0.7168 -0.3361  1.3849
  747MOL0     H 3050   0.285   2.507   1.250 -1.4328  1.8664 -2.4031
  747MOL0     H 3051   0.340   2.582   1.404  0.8003 -2.5012 -0.2717
  747MOL0     H 3052   0.277   2.809   1.270 -1.1135  0.5303 -2.8861
  747MOL0     H 3053   0.215   2.688   1.144  0.1118 -1.8087  0.2341
  747MOL0     H 3054   0.083   2.588   1.355 -1.3753  0.6181  1.9290
  747MOL0     H 3055   0.021   2.705   1.247 -2.8457 -1.9022  1.8178
  747MOL0     H 3056   0.142   2.886   1.398  1.1100  0.0207  1.3502
  747MOL0     H 3057   0.130   2.755   1.524  0.6545 -1.6406 -0.6725
  747MOL0     H 3058  -0.066   2.925   1.497 -2.6966  0.8991 -3.7612
  747MOL0     H 3059  -0.087   2.861   1.338  0.1877  2.3789  0.0575
  747MOL0     H 3060  -0.143   2.745   1.605  1.7155  4.8335 -0.5887
  747MOL0     H 3061  -0.133   2.624   1.467  0.9907  0.0267 -2.0310
  747MOL0     H 3062  -0.302   2.774   1.360 -0.7246  2.0623  0.7072
  747MOL0     H 3063  -0.325   2.844   1.524  0.3966  1.4903 -3.0378
  747MOL0     H 3064  -0.498   2.657   1.464 -0.9697 -0.7286  2.1390
  747MOL0     H 3065  -0.397   2.601   1.592 -0.9667  1.7847  0.8966
  747MOL0     H 3066   0.697   2.698   1.232  1.4985 -0.2651 -4.7893
  747MOL0     H 3067   0.894   2.557   1.258  0.2297 -0.6790 -0.9235
  747MOL0     H 3068   0.873   1.944   1.444  0.0130 -2.1549  1.6558
  747MOL0     H 3069   1.029   1.812   1.599  1.8300 -0.4911  0.8264
  747MOL0     H 3070   2.058   1.030   2.391 -3.8422  0.4190  2.5559
  747MOL0     H 3071   2.159   0.841   2.315  0.3315  1.2818  0.2525
  747MOL0     H 3072   2.269   0.360   2.408 -1.2068  0.2081 -1.3229
  747MOL0     H 3073   2.359   0.187   2.310 -2.1482  0.9379 -0.8899
  747MOL0     H 3074   2.602  -0.048   2.288  0.2890 -1.2094 -1.1837
  747MOL0     H 3075   2.457   0.032   2.237 -0.6118 -0.8000  0.0021
  747MOL0     H 3076   2.523  -0.071   2.038  1.5647 -1.7503  2.5149
  747MOL0     H 3077   2.683  -0.015   2.055 -0.1073 -1.7214 -0.7019
  747MOL0     H 3078   2.432   0.169   2.006  0.6090  1.9037 -1.3148
  747MOL0     H 3079   2.595   0.227   2.049 -1.4961 -1.2924  3.8955
  747MOL0     H 3080   2.654   0.063   1.844  0.0367 -0.4808  1.4647
  747MOL0     H 3081   2.615   0.230   1.809 -0.0337 -0.2639 -1.8509
  747MOL0     H 3082   2.284   0.037   1.631 -1.5088  3.9089  0.2734
  747MOL0     H 3083   2.751   0.333   2.387  0.4862 -4.2417 -0.6567
  747MOL0     H 3084   2.676   0.668   2.479 -1.9137 -0.1068  0.0164
  747MOL0     H 3085   2.737   0.537   2.572  1.2661 -1.6773 -1.4241
  747MOL0     H 3086   2.797   0.540   2.414  3.9805  0.3576  4.3471
  748MOL0     O 3087   2.410   4.865   9.040 -0.1181  0.1169  0.5002
  748MOL0     C 3088   2.516   4.919   9.057 -0.2196  0.1309  0.3764
  748MOL0     O 3089   2.541   5.047   9.011 -0.0060 -0.2932  0.5889
  748MOL0     C 3090   2.441   5.108   8.927  0.0477 -1.1107 -0.0384
  748MOL0     C 3091   2.334   5.176   8.981 -0.1344 -0.6244 -0.8853
  748MOL0     C 3092   2.241   5.243   8.898  0.5077  0.0852  0.4405
  748MOL0     C 3093   2.247   5.233   8.754 -0.4971  0.6698 -0.1142
  748MOL0     O 3094   2.149   5.287   8.670 -0.5734 -0.1351  0.7066
  748MOL0     C 3095   2.024   5.331   8.722  0.1633  1.4261 -0.4691
  748MOL0     C 3096   1.935   5.405   8.620  0.1402 -0.4016  0.0224
  748MOL0     C 3097   1.894   5.557   8.650  0.2769  0.7493  1.2821
  748MOL0     C 3098   2.021   5.647   8.661  1.3315  0.5413  0.2285
  748MOL0     C 3099   2.002   5.769   8.747  1.4756  0.2423 -0.0286
  748MOL0     C 3100   2.126   5.844   8.784  0.1441 -1.3161 -0.2562
  748MOL0     C 3101   2.206   5.902   8.664 -0.0144  0.5073 -0.3558
  748MOL0     C 3102   2.300   6.011   8.718  0.8639 -0.4795 -0.9352
  748MOL0     N 3103   2.295   6.140   8.641  0.4730 -0.7684 -0.0182
  748MOL0     C 3104   2.407   6.195   8.581  0.5204  0.4144 -0.5475
  748MOL0     C 3105   2.370   6.296   8.507 -0.1440 -0.1468  0.1061
  748MOL0     C 3106   2.460   6.359   8.408 -0.7226  0.0113 -0.7132
  748MOL0     C 3107   2.458   6.309   8.267 -0.1878 -0.7307 -0.0871
  748MOL0     C 3108   2.440   6.153   8.248 -0.6146  0.3042  0.5714
  748MOL0     C 3109   2.423   6.129   8.105 -0.7852  0.2790 -0.0540
  748MOL0     O 3110   2.528   6.182   8.022 -0.0685 -0.0604  0.7825
  748MOL0     C 3111   2.521   6.165   7.882  0.7978 -0.6104 -0.5465
  748MOL0     C 3112   2.621   6.227   7.814  0.1987 -0.0435  0.1963
  748MOL0     C 3113   2.627   6.218   7.680 -1.1096  0.2191 -0.4195
  748MOL0     C 3114   2.753   6.292   7.619 -0.4876  0.4660 -0.0751
  748MOL0     C 3115   2.535   6.135   7.603 -1.5097 -0.1531 -0.7641
  748MOL0     C 3116   2.533   6.106   7.451 -0.3678 -0.3130  0.0443
  748MOL0     O 3117   2.418   6.061   7.404  0.4493  0.1061  0.2943
  748MOL0     C 3118   2.395   6.040   7.266 -0.4322  0.1450  1.0491
  748MOL0     C 3119   2.268   6.035   7.209 -0.2012 -0.4448  0.6439
  748MOL0     C 3120   2.239   5.993   7.079 -0.0787 -0.2300  0.9054
  748MOL0     C 3121   2.353   5.974   6.985 -0.6538  0.8557 -0.2459
  748MOL0     O 3122   2.342   5.941   6.854  0.2389 -0.1735  0.5772
  748MOL0     C 3123   2.216   5.914   6.798 -0.6593 -0.4079  0.6978
  748MOL0     C 3124   2.141   6.030   6.752  0.2448 -0.9888  0.1866
  748MOL0     C 3125   2.214   6.097   6.635  0.6621 -0.6598 -0.2890
  748MOL0     C 3126   2.151   6.237   6.605  0.9319  1.0219  0.2190
  748MOL0     C 3127   2.224   6.316   6.500 -0.5612 -0.3333 -1.1933
  748MOL0     C 3128   2.259   6.240   6.374  0.1932  0.2433  0.4012
  748MOL0     C 3129   2.142   6.189   6.294  1.0743 -0.3967  0.4116
  748MOL0     C 3130   2.159   6.212   6.138  0.7742 -0.1835 -1.0221
  748MOL0    Cl 3131   2.062   6.116   6.014 -0.0193  0.0334  0.3469
  748MOL0     C 3132   2.480   5.974   7.044  0.0904  0.4267 -0.8470
  748MOL0     C 3133   2.505   6.004   7.181 -0.1075  0.2210 -0.6263
  748MOL0     O 3134   2.631   6.149   7.388 -0.4626  0.3411  0.8067
  748MOL0     C 3135   2.439   6.074   7.681  1.1548 -0.2096 -0.7744
  748MOL0     C 3136   2.426   6.088   7.819  0.8126 -0.8218  0.4574
  748MOL0     N 3137   2.232   6.292   8.510  0.2297 -0.5650  0.1642
  748MOL0     N 3138   2.184   6.196   8.590 -1.2451  0.9520 -0.5572
  748MOL0     C 3139   2.349   5.164   8.698  0.1997  1.1208 -0.8592
  748MOL0     C 3140   2.447   5.103   8.790  0.8874 -0.2986 -0.4287
  748MOL0     C 3141   2.621   4.845   9.122 -0.5043 -0.3562  1.4711
  748MOL0     C 3142   2.746   4.835   9.056  0.8238  0.1846  0.1815
  748MOL0     C 3143   2.847   4.757   9.115 -0.9010 -0.5657  0.7547
  748MOL0     C 3144   2.829   4.688   9.233 -0.1421  0.4850  1.8316
  748MOL0     O 3145   2.927   4.612   9.296  0.0784 -0.0313 -0.1230
  748MOL0     C 3146   3.018   4.530   9.217 -0.7530  0.1488 -0.2173
  748MOL0     C 3147   2.942   4.404   9.178  0.1115  0.0922 -0.0533
  748MOL0     C 3148   3.000   4.337   9.048 -0.1658  0.2758 -0.2373
  748MOL0     C 3149   2.938   4.207   9.006  0.0972  0.7582 -0.0283
  748MOL0     C 3150   2.989   4.171   8.870  0.5170  0.7446  0.5264
  748MOL0     C 3151   3.047   4.145   8.766  0.9125  0.1496 -0.2663
  748MOL0     C 3152   2.711   4.708   9.305 -1.1862 -0.4013 -0.8376
  748MOL0     C 3153   2.610   4.789   9.246  0.3933 -0.5416  0.4512
  748MOL0     C 3154   2.485   4.827   9.332 -0.2291 -0.0798  1.0796
  748MOL0     H 3155   2.317   5.173   9.088  0.7108 -1.8646 -0.7523
  748MOL0     H 3156   2.154   5.284   8.949 -1.8016 -1.0989 -2.2681
  748MOL0     H 3157   2.043   5.404   8.801  2.9141  3.2923 -2.6501
  748MOL0     H 3158   1.981   5.252   8.784  1.5222  1.2035  0.2378
  748MOL0     H 3159   1.982   5.402   8.521 -2.2247  0.0530 -1.1953
  748MOL0     H 3160   1.846   5.344   8.602  0.1968 -1.6034  3.2703
  748MOL0     H 3161   1.847   5.596   8.559 -0.7381 -0.2811  1.3401
  748MOL0     H 3162   1.827   5.566   8.736 -1.1163  0.9365  0.2240
  748MOL0     H 3163   2.107   5.596   8.706  0.6522 -1.0141 -0.1391
  748MOL0     H 3164   2.048   5.680   8.560 -0.7513 -2.8567 -1.6320
  748MOL0     H 3165   1.964   5.731   8.843  3.1083 -0.0190  0.5473
  748MOL0     H 3166   1.928   5.829   8.695  0.6152 -0.0040  0.8833
  748MOL0     H 3167   2.106   5.934   8.844  2.8504 -0.1790 -0.9187
  748MOL0     H 3168   2.189   5.775   8.841  2.1493 -0.7035 -1.6364
  748MOL0     H 3169   2.143   5.954   8.591 -1.3062  2.4222  2.0069
  748MOL0     H 3170   2.255   5.821   8.608 -0.0835 -0.0827  0.4198
  748MOL0     H 3171   2.271   6.038   8.820 -0.9709 -3.4118 -0.5935
  748MOL0     H 3172   2.398   5.963   8.726  0.2083 -1.6833  0.1284
  748MOL0     H 3173   2.508   6.156   8.589 -0.2106 -1.4116  0.3921
  748MOL0     H 3174   2.562   6.337   8.442 -0.1488  1.4297 -1.4377
  748MOL0     H 3175   2.434   6.465   8.402 -1.6684 -0.1626  0.0680
  748MOL0     H 3176   2.370   6.355   8.222  0.9139  1.8873  0.2017
  748MOL0     H 3177   2.543   6.349   8.211 -1.7544  0.9971 -1.3820
  748MOL0     H 3178   2.522   6.098   8.296 -1.9009 -1.8854  0.4358
  748MOL0     H 3179   2.344   6.121   8.291 -0.9980  2.2312  1.2447
  748MOL0     H 3180   2.401   6.024   8.083  1.6848 -0.3791  0.3125
  748MOL0     H 3181   2.334   6.183   8.072 -1.7035  0.6512  2.7253
  748MOL0     H 3182   2.691   6.281   7.877  0.1834  2.1426 -1.5681
  748MOL0     H 3183   2.824   6.224   7.570 -0.4001  1.5599 -1.5318
  748MOL0     H 3184   2.809   6.348   7.694  1.7487  0.8002 -1.8713
  748MOL0     H 3185   2.725   6.364   7.542  1.7254  2.3439  0.7506
  748MOL0     H 3186   2.179   6.051   7.269  0.3463  1.5169  1.0040
  748MOL0     H 3187   2.142   5.997   7.031  1.2796 -0.8376 -2.1117
  748MOL0     H 3188   2.234   5.845   6.716 -0.3605  2.5126 -1.8561
  748MOL0     H 3189   2.151   5.855   6.863  0.2736 -2.1043  0.1430
  748MOL0     H 3190   2.038   6.002   6.726  0.4288 -1.8218  0.3146
  748MOL0     H 3191   2.134   6.104   6.832 -0.7255 -1.6844  0.7748
  748MOL0     H 3192   2.197   6.037   6.545  1.1489 -2.3611  0.7176
  748MOL0     H 3193   2.321   6.118   6.648  1.1967 -0.4146 -4.0268
  748MOL0     H 3194   2.147   6.291   6.700  3.4217  1.8388 -0.0562
  748MOL0     H 3195   2.046   6.224   6.579  1.0777 -1.4400  0.6029
  748MOL0     H 3196   2.164   6.404   6.476 -0.5527 -0.5125 -1.8817
  748MOL0     H 3197   2.319   6.350   6.543 -0.1596 -2.0789 -0.6120
  748MOL0     H 3198   2.338   6.164   6.378 -1.4401 -1.6493 -1.4136
  748MOL0     H 3199   2.314   6.310   6.311  1.4538  0.6407  1.8684
  748MOL0     H 3200   2.055   6.243   6.332  0.2054 -0.7805 -0.9741
  748MOL0     H 3201   2.111   6.088   6.323 -2.2065  0.9281  1.9602
  748MOL0     H 3202   2.264   6.193   6.113  0.2701 -1.6207 -2.1781
  748MOL0     H 3203   2.131   6.318   6.132 -1.9181 -0.3355  3.6584
  748MOL0     H 3204   2.569   5.940   6.993 -1.3998 -1.4077 -2.3719
  748MOL0     H 3205   2.609   5.994   7.209  0.5277  0.3220 -2.7763
  748MOL0     H 3206   2.363   6.010   7.638  0.5317 -1.2879  1.7817
  748MOL0     H 3207   2.342   6.038   7.868 -0.7475  0.7782 -0.4668
  748MOL0     H 3208   2.352   5.123   8.597  1.2938 -1.0023 -0.0115
  748MOL0     H 3209   2.531   5.058   8.738  1.2009  2.2092 -2.2493
  748MOL0     H 3210   2.751   4.896   8.967 -3.4084 -2.1792 -2.0057
  748MOL0     H 3211   2.946   4.763   9.071 -1.2471 -0.8954 -0.0793
  748MOL0     H 3212   3.058   4.581   9.129  1.3087 -1.1544 -0.0974
  748MOL0     H 3213   3.107   4.496   9.271 -0.5157 -1.1441 -1.3624
  748MOL0     H 3214   2.841   4.438   9.155  1.3179  1.8448 -3.3677
  748MOL0     H 3215   2.913   4.340   9.262 -0.6619 -0.5481 -0.7938
  748MOL0     H 3216   3.008   4.403   8.962 -2.8818  1.3926  0.2432
  748MOL0     H 3217   3.098   4.312   9.090 -1.0394  2.0165  3.2679
  748MOL0     H 3218   2.829   4.215   8.993 -0.1548 -2.0598 -0.2967
  748MOL0     H 3219   2.946   4.125   9.078 -1.0989 -0.5385 -1.3067
  748MOL0     H 3220   3.098   4.130   8.672  1.9549  1.9206 -0.0422
  748MOL0     H 3221   2.713   4.659   9.402  0.0040 -2.2217 -1.7416
  748MOL0     H 3222   2.450   4.923   9.295  0.2740 -0.3573 -0.1462
  748MOL0     H 3223   2.397   4.766   9.309 -0.5177  0.5383  0.5364
  748MOL0     H 3224   2.514   4.831   9.438  0.6536  5.6918  0.9424
  749MOL0     O 3225   5.719   6.044   1.746  0.5321  0.1085 -0.0689
  749MOL0     C 3226   5.809   6.131   1.728  0.2802  0.2712 -1.2386
  749MOL0     O 3227   5.832   6.234   1.814  0.1485 -0.8015  0.2778
  749MOL0     C 3228   5.736   6.293   1.891  0.0658 -0.0870  1.0993
  749MOL0     C 3229   5.760   6.333   2.020 -0.1951 -0.6545  0.5056
  749MOL0     C 3230   5.658   6.388   2.100  0.0090 -0.5069  0.3665
  749MOL0     C 3231   5.528   6.404   2.050 -0.0451 -0.4369 -0.8623
  749MOL0     O 3232   5.440   6.449   2.148  0.7712 -0.4339 -0.5044
  749MOL0     C 3233   5.308   6.476   2.089 -0.9968 -0.2690  0.5669
  749MOL0     C 3234   5.230   6.554   2.199 -0.2490  0.1676 -0.2804
  749MOL0     C 3235   5.188   6.445   2.297 -0.1606  0.3039 -0.0227
  749MOL0     C 3236   5.106   6.501   2.412  0.5041 -0.0512 -0.2963
  749MOL0     C 3237   4.970   6.445   2.420 -0.4195 -0.0831  0.4973
  749MOL0     C 3238   4.922   6.457   2.566  0.4744  0.3490 -0.2094
  749MOL0     C 3239   4.785   6.417   2.597  0.1673 -0.4380 -0.7744
  749MOL0     C 3240   4.749   6.428   2.740 -0.5313  0.3820 -0.5077
  749MOL0     N 3241   4.623   6.357   2.764 -0.6600  0.5238  0.1397
  749MOL0     C 3242   4.611   6.224   2.758 -0.0138  0.2837 -0.2030
  749MOL0     C 3243   4.477   6.209   2.776  1.2012 -0.5577 -0.0841
  749MOL0     C 3244   4.405   6.080   2.741 -0.0223 -0.5391 -0.4166
  749MOL0     C 3245   4.275   6.041   2.814 -0.0110 -0.0073  0.4276
  749MOL0     C 3246   4.233   5.898   2.772  0.5435 -0.2351 -0.3835
  749MOL0     C 3247   4.110   5.844   2.841 -0.0845  0.8557 -0.7617
  749MOL0     O 3248   4.013   5.940   2.800  1.1400 -0.0732  0.1482
  749MOL0     C 3249   3.880   5.918   2.818 -0.3344 -0.0416  0.4781
  749MOL0     C 3250   3.820   5.809   2.874  0.6754  0.0393  0.2709
  749MOL0     C 3251   3.685   5.795   2.887 -0.3342  0.0074  1.0781
  749MOL0     C 3252   3.644   5.672   2.980 -0.3841 -1.1684  0.5724
  749MOL0     C 3253   3.590   5.894   2.831 -0.3869  0.7872 -0.4322
  749MOL0     C 3254   3.442   5.891   2.855  0.0067 -0.7210  0.0848
  749MOL0     O 3255   3.382   6.018   2.815  0.1491 -0.7811  0.5395
  749MOL0     C 3256   3.250   6.017   2.774 -0.2566 -0.8630 -0.2455
  749MOL0     C 3257   3.206   5.907   2.697 -0.7809 -0.8090  0.4568
  749MOL0     C 3258   3.080   5.906   2.643 -0.5236  0.5697  0.3028
  749MOL0     C 3259   2.987   6.011   2.662 -0.3983  1.1843  0.0282
  749MOL0     O 3260   2.875   5.994   2.583 -0.4320  0.4061  0.0657
  749MOL0     C 3261   2.746   6.037   2.627 -0.0462 -0.2321  0.9805
  749MOL0     C 3262   2.710   5.976   2.761  0.5451  0.3610  0.0903
  749MOL0     C 3263   2.655   5.838   2.761  0.8096  0.9505 -0.7630
  749MOL0     C 3264   2.499   5.844   2.757  0.1430 -0.4473  0.1371
  749MOL0     C 3265   2.446   5.858   2.909 -0.3526 -0.3727  0.0582
  749MOL0     C 3266   2.442   5.729   2.992 -0.7189 -0.3417  0.6557
  749MOL0     C 3267   2.410   5.753   3.139 -0.6911 -0.7582  0.6024
  749MOL0     C 3268   2.492   5.668   3.241  0.0280  0.3605 -0.4676
  749MOL0    Cl 3269   2.663   5.745   3.253  0.3621  0.2129  0.3331
  749MOL0     C 3270   3.031   6.128   2.728  0.0468 -0.2621 -0.8540
  749MOL0     C 3271   3.159   6.126   2.796 -0.5674  0.3152 -0.7609
  749MOL0     O 3272   3.382   5.803   2.919 -0.7054  0.5985  0.1442
  749MOL0     C 3273   3.649   6.001   2.769 -0.7198  0.7329 -0.3100
  749MOL0     C 3274   3.795   6.013   2.762  0.4089  0.3236  0.2719
  749MOL0     N 3275   4.412   6.336   2.771 -0.1242 -0.5990  0.1180
  749MOL0     N 3276   4.505   6.424   2.764  0.0112  0.4065  0.0577
  749MOL0     C 3277   5.506   6.377   1.913 -1.2516 -0.1015  0.0588
  749MOL0     C 3278   5.608   6.325   1.844 -0.4256 -0.1098  0.8259
  749MOL0     C 3279   5.905   6.103   1.619 -0.4201 -0.2512 -0.2296
  749MOL0     C 3280   6.027   6.183   1.610  0.3041 -0.6064 -0.9340
  749MOL0     C 3281   6.119   6.164   1.506 -0.2094 -0.4471 -1.1354
  749MOL0     C 3282   6.094   6.063   1.412  0.4286  0.2368  0.4526
  749MOL0     O 3283   6.191   6.029   1.314 -0.2970  0.6329 -0.6562
  749MOL0     C 3284   6.145   5.979   1.187  0.4742 -0.6801 -0.1118
  749MOL0     C 3285   6.251   5.991   1.071 -0.2208 -0.7396 -0.1053
  749MOL0     C 3286   6.261   6.129   0.996  0.6453  0.6009 -1.3349
  749MOL0     C 3287   6.135   6.169   0.919 -0.1446 -0.3160  0.2110
  749MOL0     C 3288   6.168   6.285   0.831 -0.8300  0.0079 -0.6827
  749MOL0     C 3289   6.204   6.354   0.738  1.5494  0.8801  0.5120
  749MOL0     C 3290   5.982   5.983   1.425 -0.3578  0.5534 -0.9517
  749MOL0     C 3291   5.890   5.994   1.528  0.4004 -0.1285  0.9341
  749MOL0     C 3292   5.787   5.876   1.541  0.1189 -0.1802 -0.1547
  749MOL0     H 3293   5.858   6.335   2.065  0.6191 -0.1942 -1.2071
  749MOL0     H 3294   5.669   6.435   2.197 -1.5575 -0.8060  0.7160
  749MOL0     H 3295   5.250   6.392   2.050 -0.1523 -0.3554 -0.5447
  749MOL0     H 3296   5.324   6.551   2.012 -1.4466  0.1837  0.9102
  749MOL0     H 3297   5.295   6.628   2.247 -2.9117  0.4639  3.2791
  749MOL0     H 3298   5.140   6.604   2.162  0.0789  2.3281  1.5877
  749MOL0     H 3299   5.128   6.366   2.250 -1.7632  1.5281 -0.0949
  749MOL0     H 3300   5.275   6.408   2.352  0.3196  2.6670  0.9115
  749MOL0     H 3301   5.158   6.483   2.506  0.9343 -2.7143 -0.9726
  749MOL0     H 3302   5.099   6.610   2.398  1.5822  0.1575  0.5820
  749MOL0     H 3303   4.977   6.337   2.403 -1.7508 -0.1502  0.2977
  749MOL0     H 3304   4.911   6.495   2.343  1.3282  1.3179  0.0021
  749MOL0     H 3305   4.977   6.402   2.643 -1.4819 -1.1315  0.2019
  749MOL0     H 3306   4.932   6.562   2.596 -3.1666  0.6167  0.5175
  749MOL0     H 3307   4.775   6.313   2.566  0.0552  0.4387 -4.1438
  749MOL0     H 3308   4.711   6.463   2.531 -0.8078 -1.3882 -0.3711
  749MOL0     H 3309   4.833   6.385   2.794  3.3233  4.1348 -2.8970
  749MOL0     H 3310   4.734   6.536   2.752 -1.9897  0.4793 -2.6152
  749MOL0     H 3311   4.683   6.145   2.738  1.5475  2.0744 -2.0093
  749MOL0     H 3312   4.481   6.007   2.774 -2.8952 -3.1983  0.8298
  749MOL0     H 3313   4.397   6.068   2.633  0.9633 -4.2643 -0.2309
  749MOL0     H 3314   4.298   6.044   2.921  2.3208 -1.3291  0.0268
  749MOL0     H 3315   4.196   6.115   2.795  0.1683  1.1661  3.6515
  749MOL0     H 3316   4.231   5.890   2.663 -0.5702  0.4615 -0.4299
  749MOL0     H 3317   4.316   5.832   2.801  0.2756  0.4914  2.2716
  749MOL0     H 3318   4.088   5.746   2.799  1.2378 -0.0702  0.6282
  749MOL0     H 3319   4.131   5.827   2.947  0.7643  0.7942 -0.9338
  749MOL0     H 3320   3.886   5.740   2.926  1.0381 -0.6751 -1.0669
  749MOL0     H 3321   3.731   5.611   3.007  0.0217 -0.7006  0.3471
  749MOL0     H 3322   3.573   5.608   2.926 -0.9996  1.1209 -1.5303
  749MOL0     H 3323   3.610   5.710   3.077  1.0836  2.0630 -0.0443
  749MOL0     H 3324   3.277   5.828   2.674  0.4032  0.6805 -1.1878
  749MOL0     H 3325   3.054   5.819   2.583 -1.8127  1.4560 -0.4842
  749MOL0     H 3326   2.739   6.146   2.625 -0.4604 -0.2519 -1.5802
  749MOL0     H 3327   2.674   6.000   2.554 -0.3631 -0.6001  1.4659
  749MOL0     H 3328   2.794   5.986   2.831  0.6472  1.0096 -0.1188
  749MOL0     H 3329   2.640   6.046   2.807  0.5140  0.4506 -0.0935
  749MOL0     H 3330   2.668   5.772   2.848 -2.2687 -0.4204 -1.2320
  749MOL0     H 3331   2.692   5.778   2.678  0.2087 -2.3767  1.1568
  749MOL0     H 3332   2.448   5.755   2.717  4.1714 -2.4732 -1.0206
  749MOL0     H 3333   2.473   5.929   2.694  2.5883  0.7001  0.5902
  749MOL0     H 3334   2.510   5.927   2.966  1.2272  0.0391 -2.0536
  749MOL0     H 3335   2.345   5.898   2.902 -1.0507 -1.9102  1.0880
  749MOL0     H 3336   2.532   5.669   2.976  0.5591  1.4739  0.8715
  749MOL0     H 3337   2.363   5.667   2.947  0.2295 -1.4297  0.4550
  749MOL0     H 3338   2.304   5.726   3.147 -0.4052 -2.0886  0.1854
  749MOL0     H 3339   2.421   5.860   3.156 -0.7852  0.5609 -5.4791
  749MOL0     H 3340   2.500   5.565   3.206 -0.2530 -0.0338  0.5806
  749MOL0     H 3341   2.456   5.674   3.344 -0.8843  1.7805 -0.8416
  749MOL0     H 3342   2.969   6.217   2.736 -0.0044 -0.4605  1.6221
  749MOL0     H 3343   3.194   6.213   2.851  0.6905 -0.7822  0.2341
  749MOL0     H 3344   3.581   6.074   2.726 -1.4015 -0.3387 -1.0831
  749MOL0     H 3345   3.830   6.104   2.714  0.3676 -0.5687 -1.5284
  749MOL0     H 3346   5.412   6.387   1.861 -2.0788  0.1645  1.5596
  749MOL0     H 3347   5.593   6.301   1.739  2.0915 -0.5321  0.5133
  749MOL0     H 3348   6.049   6.255   1.688  0.4678 -0.3675 -1.1964
  749MOL0     H 3349   6.215   6.215   1.500 -1.0672  1.1177 -2.2320
  749MOL0     H 3350   6.125   5.871   1.191  0.1276 -0.7317 -2.1025
  749MOL0     H 3351   6.050   6.023   1.157  0.7548  0.4801  0.6270
  749MOL0     H 3352   6.241   5.902   1.008 -0.9003  0.4601 -1.7680
  749MOL0     H 3353   6.348   5.992   1.122 -0.7405  1.8204  0.9906
  749MOL0     H 3354   6.290   6.204   1.071 -0.8901 -0.4582  0.3796
  749MOL0     H 3355   6.344   6.117   0.924  3.0897  1.3224  1.1882
  749MOL0     H 3356   6.048   6.180   0.985  0.2850 -1.5923  1.0020
  749MOL0     H 3357   6.109   6.082   0.858 -2.9480  0.4689  0.1212
  749MOL0     H 3358   6.237   6.426   0.666  2.0695  0.7532  0.6219
  749MOL0     H 3359   5.954   5.920   1.341  1.0648 -0.4237 -0.7139
  749MOL0     H 3360   5.827   5.804   1.612  1.1612 -0.5865 -1.1275
  749MOL0     H 3361   5.685   5.894   1.575  0.5407 -1.2627  1.8509
  749MOL0     H 3362   5.775   5.831   1.442 -2.1387  2.0011 -0.9928
  750MOL0     O 3363   2.078   6.505   7.495  0.1744 -0.2573  0.3780
  750MOL0     C 3364   2.043   6.509   7.382  0.4048  0.3174 -0.7941
  750MOL0     O 3365   1.912   6.530   7.333 -0.0954 -0.0505 -0.1947
  750MOL0     C 3366   1.823   6.550   7.429 -0.2641  0.4130  0.0067
  750MOL0     C 3367   1.793   6.678   7.500 -1.0848  0.8199  1.3108
  750MOL0     C 3368   1.693   6.681   7.591  0.1377  0.2853 -0.3331
  750MOL0     C 3369   1.618   6.562   7.629 -0.7822 -0.0453  0.4578
  750MOL0     O 3370   1.514   6.558   7.717 -0.6050 -0.0985 -0.0492
  750MOL0     C 3371   1.490   6.674   7.799  0.1708 -0.2724  0.2500
  750MOL0     C 3372   1.566   6.687   7.926  1.1237 -0.7920  0.0356
  750MOL0     C 3373   1.544   6.827   7.986  0.1397  0.4152  0.8765
  750MOL0     C 3374   1.405   6.873   7.977 -0.2919 -1.3155  0.1890
  750MOL0     C 3375   1.377   6.979   8.094  0.0760  0.7140 -0.8337
  750MOL0     C 3376   1.412   6.926   8.244  1.1723  0.0306  0.0168
  750MOL0     C 3377   1.383   7.041   8.339  0.5398  0.0683  0.4698
  750MOL0     C 3378   1.408   7.004   8.485  0.2470 -0.9146  0.5670
  750MOL0     N 3379   1.383   7.114   8.574  0.6939 -0.5899  0.7491
  750MOL0     C 3380   1.444   7.238   8.564  0.6867 -0.2308 -0.1453
  750MOL0     C 3381   1.368   7.319   8.647  0.0141 -0.4517 -0.8207
  750MOL0     C 3382   1.385   7.461   8.691  0.4151 -0.7456  0.1487
  750MOL0     C 3383   1.505   7.493   8.779 -0.4473  0.5196  0.2175
  750MOL0     C 3384   1.515   7.640   8.824 -0.1865  1.0025  0.2688
  750MOL0     C 3385   1.636   7.651   8.908  0.2610 -0.6423 -0.1472
  750MOL0     O 3386   1.626   7.592   9.036  0.4611 -0.2792 -0.2728
  750MOL0     C 3387   1.744   7.578   9.113  0.8395  0.3901  0.3636
  750MOL0     C 3388   1.765   7.466   9.192  0.0941 -0.3907 -0.4762
  750MOL0     C 3389   1.883   7.449   9.264 -0.6744 -0.2993  0.1364
  750MOL0     C 3390   1.880   7.325   9.341 -0.0474  1.0348  0.3450
  750MOL0     C 3391   1.996   7.543   9.255  0.4400  0.5430 -0.2570
  750MOL0     C 3392   2.122   7.528   9.335  0.4099  0.7436 -0.4067
  750MOL0     O 3393   2.207   7.628   9.320 -0.0945  0.3092 -0.1921
  750MOL0     C 3394   2.334   7.592   9.280  1.0814  0.2280  0.3233
  750MOL0     C 3395   2.350   7.517   9.167 -0.2773 -0.2143 -0.9876
  750MOL0     C 3396   2.474   7.498   9.115 -0.3850 -0.3314 -0.3402
  750MOL0     C 3397   2.584   7.576   9.159  0.0718  0.8228 -0.0765
  750MOL0     O 3398   2.699   7.557   9.097 -0.0665 -0.1073 -0.6330
  750MOL0     C 3399   2.827   7.608   9.143 -0.2473  0.3594  0.1926
  750MOL0     C 3400   2.924   7.510   9.074 -0.4516 -0.3544  0.2943
  750MOL0     C 3401   2.938   7.378   9.156 -0.4533  0.2337 -0.6035
  750MOL0     C 3402   3.034   7.389   9.275 -1.3264 -0.6027  0.7779
  750MOL0     C 3403   3.069   7.254   9.337  0.1382 -0.9523  0.6730
  750MOL0     C 3404   3.111   7.142   9.249 -0.4483  0.3302  0.6830
  750MOL0     C 3405   3.211   7.056   9.314 -0.9335 -0.4783  0.1148
  750MOL0     C 3406   3.150   6.971   9.427 -0.3619 -0.4702  0.2049
  750MOL0    Cl 3407   3.275   6.893   9.535  0.0530 -0.2544 -0.2734
  750MOL0     C 3408   2.557   7.671   9.260 -0.6493  0.2661  0.1324
  750MOL0     C 3409   2.435   7.675   9.327 -1.0452  0.4496 -0.5213
  750MOL0     O 3410   2.152   7.420   9.384 -1.0457 -0.1319 -0.1450
  750MOL0     C 3411   1.978   7.653   9.168  0.7767 -0.1136  0.0441
  750MOL0     C 3412   1.852   7.675   9.107  0.4125  0.3896  0.8463
  750MOL0     N 3413   1.272   7.236   8.702 -1.0146 -0.1638 -0.0899
  750MOL0     N 3414   1.287   7.112   8.656  0.2983  0.0629  0.2393
  750MOL0     C 3415   1.647   6.442   7.559 -0.2045 -0.5807  0.7452
  750MOL0     C 3416   1.746   6.434   7.466 -0.1955 -0.8975 -0.1905
  750MOL0     C 3417   2.147   6.480   7.282 -0.0840  0.4456 -0.1293
  750MOL0     C 3418   2.121   6.521   7.154 -0.1641  0.4924  0.0992
  750MOL0     C 3419   2.205   6.499   7.046 -0.9969  0.3779 -0.0184
  750MOL0     C 3420   2.325   6.431   7.070  0.8955 -0.6970  0.6596
  750MOL0     O 3421   2.406   6.393   6.961  0.1928 -0.1893 -0.0172
  750MOL0     C 3422   2.523   6.317   6.978  0.6000  0.4577  0.2573
  750MOL0     C 3423   2.643   6.408   7.017 -0.3924  0.6291 -0.3305
  750MOL0     C 3424   2.763   6.324   7.055  0.2023 -0.3558 -0.7061
  750MOL0     C 3425   2.887   6.424   7.086  0.4428  0.1284 -0.4493
  750MOL0     C 3426   3.006   6.386   7.004 -0.2807 -0.9301 -0.5277
  750MOL0     C 3427   3.112   6.353   6.947  0.7254 -0.3313 -0.9357
  750MOL0     C 3428   2.354   6.392   7.195  0.4149  0.1757  0.5781
  750MOL0     C 3429   2.275   6.420   7.304  1.0724 -0.1609  0.1439
  750MOL0     C 3430   2.324   6.385   7.437 -0.8592  1.4827  0.2589
  750MOL0     H 3431   1.844   6.773   7.488 -0.1933  0.4021  1.7009
  750MOL0     H 3432   1.680   6.775   7.643  0.1063 -0.0982  0.3820
  750MOL0     H 3433   1.383   6.661   7.818  0.3473  1.4639  2.9008
  750MOL0     H 3434   1.494   6.766   7.740 -0.5958  0.0736  0.7261
  750MOL0     H 3435   1.531   6.610   7.996  1.1479  0.2084  1.1887
  750MOL0     H 3436   1.674   6.678   7.909  1.4492  0.0728  1.4255
  750MOL0     H 3437   1.577   6.822   8.090  0.0323 -3.9668  0.8698
  750MOL0     H 3438   1.600   6.898   7.925  2.7602 -2.4100 -0.2192
  750MOL0     H 3439   1.382   6.928   7.886 -1.7633  0.8748  1.7832
  750MOL0     H 3440   1.326   6.801   7.997 -1.5397 -0.2070 -0.5981
  750MOL0     H 3441   1.272   7.012   8.095 -0.3013 -0.3421 -2.2486
  750MOL0     H 3442   1.444   7.064   8.083 -0.5791  1.3206 -0.1879
  750MOL0     H 3443   1.334   6.851   8.260  0.2156  0.5370 -1.9142
  750MOL0     H 3444   1.509   6.881   8.268  0.2465 -2.5130 -0.7334
  750MOL0     H 3445   1.281   7.078   8.326  0.5396  0.2200  0.9022
  750MOL0     H 3446   1.455   7.123   8.330 -2.3923  2.6314 -2.4521
  750MOL0     H 3447   1.345   6.919   8.515 -2.1861  1.2106  1.9487
  750MOL0     H 3448   1.508   6.960   8.489  0.9120 -0.0050 -3.0164
  750MOL0     H 3449   1.540   7.273   8.526 -0.6312  3.5112 -0.5089
  750MOL0     H 3450   1.294   7.493   8.742  1.6122 -0.0834  2.0014
  750MOL0     H 3451   1.396   7.509   8.594  0.3510 -0.4875  0.2698
  750MOL0     H 3452   1.504   7.426   8.865 -2.1101  1.6800  1.1544
  750MOL0     H 3453   1.593   7.462   8.721 -0.5089  1.7825 -0.5779
  750MOL0     H 3454   1.517   7.703   8.735 -1.4962 -0.7140 -1.0510
  750MOL0     H 3455   1.428   7.666   8.886 -2.1045  2.3897 -2.7495
  750MOL0     H 3456   1.710   7.597   8.849  0.1585 -0.9261 -0.0175
  750MOL0     H 3457   1.651   7.759   8.917  2.9014 -0.8862 -0.8273
  750MOL0     H 3458   1.695   7.384   9.189 -2.6796  1.6840  1.6334
  750MOL0     H 3459   1.923   7.331   9.441 -3.2716 -0.7864  1.9969
  750MOL0     H 3460   1.926   7.254   9.271 -2.8843  2.6174 -3.5303
  750MOL0     H 3461   1.776   7.299   9.360  0.2257  1.1747  2.1571
  750MOL0     H 3462   2.262   7.473   9.121 -1.9013  3.7073 -2.0953
  750MOL0     H 3463   2.489   7.427   9.035  1.7703  0.0926 -0.3604
  750MOL0     H 3464   2.846   7.706   9.098  1.2460  0.4964  1.0629
  750MOL0     H 3465   2.831   7.609   9.252 -2.1878 -1.5311  0.3522
  750MOL0     H 3466   2.884   7.505   8.972 -5.0107 -1.7854  1.9258
  750MOL0     H 3467   3.018   7.567   9.070 -1.9131  2.5769  3.0481
  750MOL0     H 3468   2.976   7.302   9.087 -1.6307  0.6305 -1.7416
  750MOL0     H 3469   2.839   7.345   9.189  0.0727  2.2175  3.4379
  750MOL0     H 3470   3.007   7.459   9.354 -3.2821 -2.6702  2.0803
  750MOL0     H 3471   3.131   7.420   9.236 -1.0091 -3.4708 -1.0287
  750MOL0     H 3472   3.143   7.268   9.417  0.6679 -1.5307  0.2953
  750MOL0     H 3473   2.976   7.222   9.385 -0.9690  0.2482 -0.6083
  750MOL0     H 3474   3.167   7.181   9.164 -1.7332 -0.8375 -0.7684
  750MOL0     H 3475   3.022   7.099   9.201 -1.0230  2.0351  0.1126
  750MOL0     H 3476   3.299   7.117   9.339 -0.3303 -0.6534 -1.4542
  750MOL0     H 3477   3.256   6.979   9.251 -0.8625 -2.7369  2.7450
  750MOL0     H 3478   3.102   6.884   9.382 -1.0767 -1.4728  2.7073
  750MOL0     H 3479   3.071   7.019   9.485 -0.8086  0.2746 -1.0006
  750MOL0     H 3480   2.637   7.744   9.263 -1.8865  1.6727  0.4865
  750MOL0     H 3481   2.405   7.744   9.405 -5.7129 -2.4647  0.6849
  750MOL0     H 3482   2.061   7.720   9.147 -0.7543  1.9280  0.2004
  750MOL0     H 3483   1.838   7.761   9.042  1.0401 -1.4169 -1.8457
  750MOL0     H 3484   1.573   6.368   7.584 -2.4381  1.4082  0.3534
  750MOL0     H 3485   1.766   6.339   7.418  0.6524 -2.1552  2.4408
  750MOL0     H 3486   2.027   6.567   7.125 -0.0998  0.2716 -0.4805
  750MOL0     H 3487   2.168   6.535   6.951 -1.2065  1.4181  0.4409
  750MOL0     H 3488   2.496   6.233   7.042 -0.5860  1.0502  0.5529
  750MOL0     H 3489   2.554   6.269   6.884  0.7043 -0.5036  0.7743
  750MOL0     H 3490   2.615   6.472   7.101 -0.5346  1.1367 -0.7541
  750MOL0     H 3491   2.676   6.466   6.929 -0.6264  1.3062  0.0199
  750MOL0     H 3492   2.735   6.278   7.150 -2.3469 -0.3475 -1.3738
  750MOL0     H 3493   2.795   6.254   6.977 -0.2332 -1.3895  0.0148
  750MOL0     H 3494   2.904   6.405   7.193 -0.7762  0.9165 -0.1006
  750MOL0     H 3495   2.859   6.529   7.084  1.5074  0.4933  1.3357
  750MOL0     H 3496   3.201   6.318   6.900  0.3245 -2.0694 -0.4657
  750MOL0     H 3497   2.453   6.349   7.204  1.6611  2.6027 -0.6194
  750MOL0     H 3498   2.432   6.372   7.431 -0.9561  1.2113 -3.0517
  750MOL0     H 3499   2.297   6.462   7.509 -3.4575  2.8413 -1.9701
  750MOL0     H 3500   2.281   6.287   7.463  0.4085  1.0990  0.9626
  751MOL0     O 3501   7.016   5.430   7.124 -0.7127 -0.2245 -0.4617
  751MOL0     C 3502   6.890   5.409   7.126 -0.9817  0.1249  0.9769
  751MOL0     O 3503   6.803   5.410   7.229  0.2158 -1.4592 -0.0973
  751MOL0     C 3504   6.854   5.436   7.357 -1.0416  0.3372  0.3596
  751MOL0     C 3505   6.961   5.534   7.377 -0.2270  0.0836  0.2342
  751MOL0     C 3506   7.012   5.568   7.499  0.4246 -0.4011 -0.9140
  751MOL0     C 3507   6.965   5.502   7.610  1.2000  0.6681 -0.7400
  751MOL0     O 3508   7.008   5.530   7.733 -0.5625  0.4078 -0.2085
  751MOL0     C 3509   7.079   5.653   7.774 -0.1672  0.2365  0.3898
  751MOL0     C 3510   7.005   5.771   7.849 -0.5438 -0.3281 -0.3319
  751MOL0     C 3511   6.874   5.814   7.784  0.7604  0.6472 -0.0988
  751MOL0     C 3512   6.884   5.937   7.698  0.3665  1.4745 -0.1734
  751MOL0     C 3513   6.965   5.919   7.574  0.2368  0.0440  0.0110
  751MOL0     C 3514   6.952   6.047   7.495  0.1162  0.0490  0.2056
  751MOL0     C 3515   7.006   6.038   7.354  0.4874 -0.0117  0.0739
  751MOL0     C 3516   7.063   5.901   7.306  0.5015  0.0653 -1.0703
  751MOL0     N 3517   7.090   5.911   7.154  0.0335 -0.9536  0.1930
  751MOL0     C 3518   7.011   5.885   7.043  0.4543  0.5887 -0.1618
  751MOL0     C 3519   7.073   5.937   6.940  0.4175 -0.2473  0.1012
  751MOL0     C 3520   7.007   5.920   6.805 -0.5606 -0.0510  0.3644
  751MOL0     C 3521   7.117   5.919   6.692  0.7336  0.3709  0.1964
  751MOL0     C 3522   7.046   5.925   6.557 -0.0031 -0.4144  0.2964
  751MOL0     C 3523   7.152   5.932   6.447 -0.2952  0.4093  0.3783
  751MOL0     O 3524   7.088   5.941   6.318  0.5464  0.3953 -0.2914
  751MOL0     C 3525   7.029   5.826   6.260 -0.3208 -0.5346 -0.2616
  751MOL0     C 3526   7.015   5.698   6.317  0.4653  0.4198 -0.6496
  751MOL0     C 3527   6.928   5.598   6.271  0.5403 -0.3843 -1.1117
  751MOL0     C 3528   6.928   5.466   6.351  0.2016 -1.2909  0.2163
  751MOL0     C 3529   6.841   5.641   6.162  0.0329 -0.2893 -0.1181
  751MOL0     C 3530   6.741   5.550   6.103  0.6635 -1.2386 -0.5176
  751MOL0     O 3531   6.687   5.593   5.978  0.6359  0.1729 -0.3452
  751MOL0     C 3532   6.605   5.517   5.889 -0.7166 -0.5224 -0.9226
  751MOL0     C 3533   6.599   5.375   5.896 -0.5366 -0.3318  0.4216
  751MOL0     C 3534   6.504   5.309   5.822  0.8780  0.1518 -0.1712
  751MOL0     C 3535   6.412   5.377   5.738  0.7607 -0.6390 -0.9392
  751MOL0     O 3536   6.322   5.315   5.663  0.4890 -0.5792  0.7483
  751MOL0     C 3537   6.249   5.217   5.725  0.3878  0.2778 -0.1467
  751MOL0     C 3538   6.279   5.088   5.648  0.2985  0.3668  0.3736
  751MOL0     C 3539   6.186   4.976   5.702  1.1202  0.1302  0.9872
  751MOL0     C 3540   6.206   4.853   5.608 -0.4497 -0.9903 -0.1347
  751MOL0     C 3541   6.128   4.728   5.670  0.6679 -0.8333  0.1688
  751MOL0     C 3542   6.183   4.603   5.618  0.6696  0.3551  0.7860
  751MOL0     C 3543   6.320   4.560   5.678  0.6179 -0.1879 -0.0552
  751MOL0     C 3544   6.393   4.450   5.592  0.4817 -0.4272 -0.2910
  751MOL0    Cl 3545   6.278   4.321   5.555 -0.3160  0.3260 -0.2161
  751MOL0     C 3546   6.428   5.517   5.725  0.3478 -0.0750 -0.6704
  751MOL0     C 3547   6.519   5.580   5.807 -0.3925  0.1289 -0.3668
  751MOL0     O 3548   6.714   5.448   6.159  0.0784 -0.3092  0.6580
  751MOL0     C 3549   6.866   5.764   6.099 -0.1049 -0.2863 -0.2614
  751MOL0     C 3550   6.958   5.853   6.151  0.4240  0.0837  0.1534
  751MOL0     N 3551   7.191   6.001   6.982  0.4645  0.1865 -0.1394
  751MOL0     N 3552   7.201   5.974   7.105 -0.0910 -0.3535 -0.6668
  751MOL0     C 3553   6.864   5.399   7.594 -0.3392  0.2312 -0.2816
  751MOL0     C 3554   6.810   5.365   7.469 -0.3386  1.4250 -1.0339
  751MOL0     C 3555   6.833   5.370   6.994  0.0211 -0.0552  0.5541
  751MOL0     C 3556   6.718   5.278   6.991 -0.8199 -0.6121  0.6411
  751MOL0     C 3557   6.654   5.234   6.874  0.1902 -0.3991  0.4346
  751MOL0     C 3558   6.701   5.277   6.755  0.5820 -0.5301  0.0915
  751MOL0     O 3559   6.631   5.220   6.652 -0.6226  0.0429 -0.7444
  751MOL0     C 3560   6.685   5.225   6.520 -0.0021 -0.3416 -0.5283
  751MOL0     C 3561   6.638   5.110   6.445  0.2765 -0.2205 -0.5424
  751MOL0     C 3562   6.669   5.110   6.296  0.9126 -1.3065  0.5200
  751MOL0     C 3563   6.558   5.034   6.206  0.1702  0.9586 -1.1002
  751MOL0     C 3564   6.607   5.028   6.073  0.5096  0.4097 -0.2530
  751MOL0     C 3565   6.661   5.032   5.963 -0.3277  0.1178  1.0559
  751MOL0     C 3566   6.815   5.360   6.749 -0.3223 -0.3156  0.2174
  751MOL0     C 3567   6.867   5.417   6.868 -0.7854  1.0581  0.4012
  751MOL0     C 3568   6.974   5.533   6.853 -0.4645 -0.5800 -0.2274
  751MOL0     H 3569   6.995   5.588   7.289  2.1169 -2.6079 -0.6500
  751MOL0     H 3570   7.103   5.624   7.517 -0.3241 -0.3446  4.1700
  751MOL0     H 3571   7.154   5.685   7.702  2.3613  0.0534  2.7499
  751MOL0     H 3572   7.151   5.614   7.847  2.5234  1.2607 -1.5398
  751MOL0     H 3573   6.999   5.725   7.948 -2.9749 -2.5026 -1.3859
  751MOL0     H 3574   7.082   5.848   7.841  1.0778 -1.6502  1.3826
  751MOL0     H 3575   6.841   5.717   7.744  0.9167 -0.5558  2.5008
  751MOL0     H 3576   6.806   5.831   7.868 -2.9546 -1.4504 -2.4033
  751MOL0     H 3577   6.778   5.950   7.674 -0.0765 -0.6588  0.3800
  751MOL0     H 3578   6.932   6.018   7.754 -0.7751 -1.2592  5.4547
  751MOL0     H 3579   6.899   5.844   7.530 -2.0233  1.8112  0.1947
  751MOL0     H 3580   7.069   5.886   7.580  1.2110  2.5628 -1.2882
  751MOL0     H 3581   6.855   6.090   7.519 -0.3518 -1.4334  1.0790
  751MOL0     H 3582   7.029   6.112   7.538  3.5817 -2.0420 -2.2477
  751MOL0     H 3583   7.082   6.113   7.331  0.7379 -0.7671 -1.7792
  751MOL0     H 3584   6.915   6.055   7.296 -0.5415  1.2508  1.9566
  751MOL0     H 3585   7.163   5.884   7.348  0.1292  1.6718  0.6265
  751MOL0     H 3586   7.003   5.813   7.332  1.0929  0.0224  0.2608
  751MOL0     H 3587   6.917   5.831   7.041  2.0832 -2.4735 -2.6400
  751MOL0     H 3588   6.950   6.011   6.786  0.3688  1.2776  3.3254
  751MOL0     H 3589   6.943   5.831   6.795  1.4487 -1.4293 -0.9625
  751MOL0     H 3590   7.183   6.006   6.694 -0.4227  1.3116 -0.7876
  751MOL0     H 3591   7.176   5.828   6.701  1.1413  0.4254 -1.6843
  751MOL0     H 3592   6.981   5.838   6.541 -0.2696  0.1366 -2.1226
  751MOL0     H 3593   7.001   6.024   6.561  1.3373  0.1644  2.8721
  751MOL0     H 3594   7.213   6.017   6.477 -1.0594  1.3830 -0.7594
  751MOL0     H 3595   7.210   5.839   6.451  1.3246  1.3069 -1.0556
  751MOL0     H 3596   7.095   5.671   6.385  0.2294  0.9581 -0.1537
  751MOL0     H 3597   7.013   5.466   6.419  0.7979  0.0246 -0.4751
  751MOL0     H 3598   6.929   5.377   6.287 -0.5656 -0.5149 -0.9340
  751MOL0     H 3599   6.830   5.470   6.400  1.5789 -0.0175  3.0797
  751MOL0     H 3600   6.672   5.332   5.963  0.5508  2.3779  1.1087
  751MOL0     H 3601   6.506   5.201   5.810 -2.1622 -0.0474  0.2409
  751MOL0     H 3602   6.281   5.202   5.829 -0.3025  0.3053  0.0749
  751MOL0     H 3603   6.143   5.242   5.728 -0.0575 -1.4357 -0.4176
  751MOL0     H 3604   6.262   5.090   5.540 -0.2578  0.9117  0.4663
  751MOL0     H 3605   6.387   5.075   5.660  0.0705 -0.2702  1.9563
  751MOL0     H 3606   6.084   5.014   5.701  0.5440 -1.0836 -2.7821
  751MOL0     H 3607   6.224   4.950   5.801 -0.2794 -1.4465  1.1533
  751MOL0     H 3608   6.312   4.837   5.586  0.0083 -3.3326  3.1016
  751MOL0     H 3609   6.174   4.862   5.503 -0.5517  1.3430  0.0458
  751MOL0     H 3610   6.135   4.733   5.779  1.8854  1.6023  0.0304
  751MOL0     H 3611   6.020   4.730   5.650  0.2119 -0.2755  2.4490
  751MOL0     H 3612   6.196   4.611   5.510 -1.6207  4.0809  0.6182
  751MOL0     H 3613   6.104   4.529   5.636  0.5639  0.3670  0.3697
  751MOL0     H 3614   6.304   4.519   5.778  3.0238  2.1736  1.3957
  751MOL0     H 3615   6.381   4.650   5.689 -0.2494  0.1883  2.2031
  751MOL0     H 3616   6.480   4.406   5.640 -0.2904  0.0458  1.6454
  751MOL0     H 3617   6.422   4.483   5.492  0.9622 -5.6176 -2.1609
  751MOL0     H 3618   6.370   5.584   5.662 -1.3551  0.6695  1.5840
  751MOL0     H 3619   6.535   5.687   5.808  1.1326 -0.0521 -1.4462
  751MOL0     H 3620   6.801   5.807   6.023 -0.2352  1.4061  0.7604
  751MOL0     H 3621   6.959   5.951   6.106 -1.7285  0.9250  1.7245
  751MOL0     H 3622   6.839   5.341   7.683  2.5720 -0.1456  0.3775
  751MOL0     H 3623   6.726   5.296   7.466 -1.1025  2.2423  0.4092
  751MOL0     H 3624   6.672   5.244   7.083 -1.5802  0.9997  0.8854
  751MOL0     H 3625   6.565   5.172   6.881 -0.0500 -0.1235 -0.1342
  751MOL0     H 3626   6.679   5.322   6.471  5.4690  2.7365  3.7501
  751MOL0     H 3627   6.793   5.208   6.530 -0.2391 -0.7663  1.8955
  751MOL0     H 3628   6.530   5.110   6.460  0.4375  1.3473  0.8890
  751MOL0     H 3629   6.678   5.024   6.500  1.7499  1.4352  1.1163
  751MOL0     H 3630   6.676   5.217   6.270 -0.5398 -0.9702  1.4016
  751MOL0     H 3631   6.765   5.058   6.294  0.9849 -1.1878  0.8921
  751MOL0     H 3632   6.455   5.072   6.205 -1.7978 -3.3621 -5.4021
  751MOL0     H 3633   6.557   4.929   6.236  0.0140  1.9797  3.0107
  751MOL0     H 3634   6.714   5.035   5.870 -1.0255  0.5873  0.6675
  751MOL0     H 3635   6.845   5.415   6.660 -0.0731  1.2846  1.2454
  751MOL0     H 3636   6.980   5.595   6.943  3.4290  1.0166 -1.3783
  751MOL0     H 3637   7.072   5.492   6.826  0.0052 -0.7519  1.6192
  751MOL0     H 3638   6.945   5.606   6.777 -1.4718 -0.9195 -0.1774
  752MOL0     O 3639  10.417   8.965  11.026  0.5442  0.4553  0.1993
  752MOL0     C 3640  10.433   9.081  11.054 -0.1898 -0.8610  0.6861
  752MOL0     O 3641  10.547   9.157  11.033 -0.2738 -0.1118  0.1704
  752MOL0     C 3642  10.676   9.111  11.026  1.1826 -0.2093 -0.3373
  752MOL0     C 3643  10.724   9.008  11.105 -0.2273 -0.4607  0.0345
  752MOL0     C 3644  10.858   8.964  11.084  0.1645  0.0060  0.2914
  752MOL0     C 3645  10.943   9.016  10.984  0.2167 -0.6950  0.0788
  752MOL0     O 3646  11.070   8.976  10.966 -0.0272  0.2066 -0.2667
  752MOL0     C 3647  11.167   9.056  11.032 -0.1528  0.6429  0.4930
  752MOL0     C 3648  11.313   9.000  11.005  1.0146  1.0806 -0.2451
  752MOL0     C 3649  11.331   8.857  11.041 -0.7509 -0.5482  0.4048
  752MOL0     C 3650  11.479   8.830  11.034  0.0196 -0.0721 -0.3343
  752MOL0     C 3651  11.520   8.711  11.121  0.6356  0.2938  0.7473
  752MOL0     C 3652  11.667   8.698  11.096  0.4034 -0.1766 -0.1188
  752MOL0     C 3653  11.717   8.580  11.185  0.3707  0.0491  0.0935
  752MOL0     C 3654  11.851   8.540  11.137 -0.3964  0.0630  0.3816
  752MOL0     N 3655  11.911   8.426  11.208  0.0274 -0.2910 -0.5406
  752MOL0     C 3656  11.911   8.306  11.164 -0.4479  0.2163  0.6389
  752MOL0     C 3657  11.981   8.233  11.252 -0.4351 -0.4684 -0.1156
  752MOL0     C 3658  11.997   8.088  11.227 -0.5502  0.1913 -0.5460
  752MOL0     C 3659  12.063   8.036  11.098  0.1968 -0.7760 -0.7715
  752MOL0     C 3660  12.216   8.072  11.079 -1.2661  0.0332  0.1717
  752MOL0     C 3661  12.297   7.954  11.008  0.3841 -1.4654  0.7313
  752MOL0     O 3662  12.433   7.994  10.994  0.0913 -0.3062 -0.8288
  752MOL0     C 3663  12.507   7.986  11.112  0.2087  0.1874 -0.1655
  752MOL0     C 3664  12.469   7.947  11.245  0.3303 -0.9464 -0.9041
  752MOL0     C 3665  12.561   7.961  11.346 -0.3808 -0.0383 -0.1006
  752MOL0     C 3666  12.518   7.933  11.486 -1.5709 -0.0796 -0.0230
  752MOL0     C 3667  12.698   8.004  11.325  0.2821  1.0702  0.4745
  752MOL0     C 3668  12.801   8.006  11.426  0.4457 -0.1374  0.1705
  752MOL0     O 3669  12.797   7.926  11.536  0.8469  0.3038 -0.0147
  752MOL0     C 3670  12.876   7.953  11.645  0.4491  0.0593 -0.3135
  752MOL0     C 3671  12.838   8.063  11.726 -0.6248  0.2045 -0.2778
  752MOL0     C 3672  12.935   8.103  11.823  0.1627  1.0436  0.3065
  752MOL0     C 3673  13.049   8.015  11.855  0.8263  0.3732  0.3061
  752MOL0     O 3674  13.146   8.043  11.945  0.8444  0.4768 -0.2403
  752MOL0     C 3675  13.140   8.167  12.019  0.1324  0.0554  0.2771
  752MOL0     C 3676  13.276   8.196  12.092  0.0144 -0.4218  0.6932
  752MOL0     C 3677  13.293   8.340  12.145 -0.8542  0.3311  0.9421
  752MOL0     C 3678  13.436   8.369  12.195  0.3933  0.1676 -0.4621
  752MOL0     C 3679  13.448   8.514  12.224 -0.5395 -0.2696  1.0588
  752MOL0     C 3680  13.585   8.569  12.278  0.0770 -0.3125 -0.7542
  752MOL0     C 3681  13.569   8.721  12.281 -0.4289 -0.0139  0.0800
  752MOL0     C 3682  13.706   8.799  12.288 -0.1386  1.1778  0.3280
  752MOL0    Cl 3683  13.768   8.784  12.448 -0.0236  0.0908  0.0097
  752MOL0     C 3684  13.061   7.892  11.787  0.1267 -0.1344  1.2841
  752MOL0     C 3685  12.976   7.856  11.678  0.3272 -0.2429  0.2303
  752MOL0     O 3686  12.898   8.072  11.399  0.8567 -0.3572  0.5760
  752MOL0     C 3687  12.722   8.037  11.191 -0.0841 -0.5688  0.1538
  752MOL0     C 3688  12.628   8.026  11.091 -0.8749  1.0230  0.4660
  752MOL0     N 3689  12.027   8.311  11.358  0.6258 -1.1051 -0.5011
  752MOL0     N 3690  11.985   8.436  11.330 -0.5494 -1.5609  0.5208
  752MOL0     C 3691  10.882   9.117  10.904 -0.1567  0.4645 -0.0557
  752MOL0     C 3692  10.753   9.170  10.934  0.2171 -0.2257  0.3635
  752MOL0     C 3693  10.325   9.158  11.121 -0.8305  0.3655 -0.7715
  752MOL0     C 3694  10.194   9.139  11.076  0.5887 -0.3200  0.0756
  752MOL0     C 3695  10.089   9.186  11.155  0.5573  0.1342  0.1304
  752MOL0     C 3696  10.109   9.246  11.271 -0.1846 -0.1656 -0.8452
  752MOL0     O 3697  10.020   9.285  11.372 -0.5942 -0.5432 -0.0484
  752MOL0     C 3698   9.880   9.282  11.343 -0.0350  0.9526 -0.4176
  752MOL0     C 3699   9.801   9.381  11.423  0.4080  0.2484  0.0813
  752MOL0     C 3700   9.833   9.356  11.570 -0.5564 -0.0048  0.2888
  752MOL0     C 3701   9.925   9.466  11.623  0.0474  0.8106  0.1135
  752MOL0     C 3702   9.962   9.419  11.752  0.6058  0.3428 -0.4696
  752MOL0     C 3703   9.981   9.395  11.872 -0.1564 -0.1921  0.5982
  752MOL0     C 3704  10.242   9.282  11.305 -0.3157  0.7737  0.8235
  752MOL0     C 3705  10.359   9.236  11.233 -0.0407  0.5627  0.4236
  752MOL0     C 3706  10.496   9.248  11.293  0.2228  0.1667 -0.4960
  752MOL0     H 3707  10.666   8.957  11.181 -0.6407  0.5640  0.4197
  752MOL0     H 3708  10.906   8.900  11.158 -0.3650 -0.9295 -0.1717
  752MOL0     H 3709  11.137   9.038  11.135  1.4711 -2.0865  0.5841
  752MOL0     H 3710  11.161   9.159  10.994 -1.7152  1.4700  2.7744
  752MOL0     H 3711  11.334   9.028  10.901 -1.3624  0.8961 -0.8339
  752MOL0     H 3712  11.378   9.058  11.071 -0.8149  3.3183 -0.2804
  752MOL0     H 3713  11.300   8.842  11.145  0.6301 -2.8854  0.5337
  752MOL0     H 3714  11.269   8.805  10.967  2.5084 -2.8981 -0.8912
  752MOL0     H 3715  11.512   8.805  10.933  1.5031 -2.2163  0.6007
  752MOL0     H 3716  11.533   8.920  11.067  4.9238 -2.6154 -0.4780
  752MOL0     H 3717  11.470   8.615  11.105 -2.6599  1.7801  1.2551
  752MOL0     H 3718  11.501   8.734  11.226 -4.0955 -0.6624  0.3227
  752MOL0     H 3719  11.677   8.684  10.988 -2.7610  2.6845 -0.9648
  752MOL0     H 3720  11.725   8.784  11.129 -1.3041  1.1695 -0.4465
  752MOL0     H 3721  11.656   8.490  11.189  1.5928 -0.7774  2.4183
  752MOL0     H 3722  11.734   8.614  11.288  1.8513 -1.5204  0.4054
  752MOL0     H 3723  11.851   8.527  11.028 -1.1319 -0.4481  0.4353
  752MOL0     H 3724  11.920   8.622  11.157 -0.0131  1.8209 -5.9517
  752MOL0     H 3725  11.855   8.251  11.088  0.2266  0.4864 -0.0693
  752MOL0     H 3726  11.898   8.046  11.242  0.3421 -2.2316 -0.9866
  752MOL0     H 3727  12.071   8.060  11.302  0.4487 -0.6754 -1.8050
  752MOL0     H 3728  12.044   7.929  11.087 -6.8544 -0.2323  1.0651
  752MOL0     H 3729  11.993   8.066  11.020 -1.3810 -0.0631  0.8333
  752MOL0     H 3730  12.228   8.155  11.009 -0.3370 -0.6101 -0.4535
  752MOL0     H 3731  12.258   8.102  11.176 -0.8621 -2.5189  0.8869
  752MOL0     H 3732  12.298   7.855  11.053 -2.8715 -0.0968  4.3454
  752MOL0     H 3733  12.262   7.936  10.906  1.8009 -0.8036  0.1036
  752MOL0     H 3734  12.367   7.913  11.258  0.4420 -0.9681  0.0441
  752MOL0     H 3735  12.411   7.926  11.505 -1.6283  2.6086  1.2075
  752MOL0     H 3736  12.545   8.023  11.543 -2.3755  1.0954 -1.4336
  752MOL0     H 3737  12.563   7.846  11.536 -2.8548 -0.5292  0.3972
  752MOL0     H 3738  12.750   8.125  11.711 -0.1969  0.5139 -1.6545
  752MOL0     H 3739  12.922   8.189  11.888 -3.0598 -0.4137  1.8570
  752MOL0     H 3740  13.137   8.250  11.949  1.8935 -1.8232 -2.2054
  752MOL0     H 3741  13.057   8.175  12.089 -0.0997  3.0246 -0.2123
  752MOL0     H 3742  13.282   8.122  12.172  0.2071 -2.4198 -1.0558
  752MOL0     H 3743  13.359   8.171  12.025 -0.6854 -1.7391  0.2827
  752MOL0     H 3744  13.224   8.358  12.228 -0.9922 -0.3319  0.9820
  752MOL0     H 3745  13.269   8.408  12.064 -1.0077  0.7524  1.3372
  752MOL0     H 3746  13.515   8.337  12.126  0.7923  1.6746 -0.7415
  752MOL0     H 3747  13.448   8.305  12.283 -1.1639 -0.8240 -0.9302
  752MOL0     H 3748  13.417   8.573  12.138  0.1397 -1.3306  0.0619
  752MOL0     H 3749  13.369   8.528  12.299 -4.7281 -1.2787 -2.6943
  752MOL0     H 3750  13.667   8.520  12.224 -0.4600 -2.8725  0.5659
  752MOL0     H 3751  13.589   8.529  12.380  3.3578 -2.9101 -1.6983
  752MOL0     H 3752  13.510   8.757  12.365 -1.0231  4.0318 -1.8694
  752MOL0     H 3753  13.544   8.751  12.179  0.2110 -1.0375 -0.3956
  752MOL0     H 3754  13.688   8.907  12.276  1.5256  1.2431 -2.3142
  752MOL0     H 3755  13.769   8.780  12.201 -1.0081  0.2528 -0.1201
  752MOL0     H 3756  13.143   7.823  11.805 -1.3126 -1.5486  2.7678
  752MOL0     H 3757  12.997   7.770  11.615  1.2485  0.0659  0.1014
  752MOL0     H 3758  12.822   8.069  11.162  0.5370 -0.5072  2.1783
  752MOL0     H 3759  12.653   8.053  10.990  0.6730 -0.6616  0.3554
  752MOL0     H 3760  10.950   9.149  10.825  4.0249 -2.8001  1.7967
  752MOL0     H 3761  10.729   9.254  10.869 -0.2892  0.6842  1.6991
  752MOL0     H 3762  10.162   9.088  10.986 -5.0684  0.5237  1.1743
  752MOL0     H 3763   9.981   9.181  11.143  0.1513 -0.2524  3.1671
  752MOL0     H 3764   9.868   9.328  11.245 -1.9433 -0.6464 -1.0091
  752MOL0     H 3765   9.826   9.187  11.341 -1.0729  1.4969  0.6040
  752MOL0     H 3766   9.693   9.368  11.412  0.4960 -0.1759 -0.3071
  752MOL0     H 3767   9.821   9.482  11.388 -0.7969  0.0609 -1.2283
  752MOL0     H 3768   9.741   9.367  11.627  1.3125  0.6246  3.4019
  752MOL0     H 3769   9.871   9.255  11.588  2.3442  1.1628  1.3172
  752MOL0     H 3770   9.867   9.558  11.634 -1.0675  0.1719 -0.2379
  752MOL0     H 3771  10.004   9.480  11.549  0.8808 -0.5904  0.6856
  752MOL0     H 3772   9.995   9.382  11.977  0.9986  1.2384  0.6628
  752MOL0     H 3773  10.251   9.343  11.395  4.4632  1.5478  0.0745
  752MOL0     H 3774  10.497   9.312  11.382 -0.2304 -2.3968  1.4619
  752MOL0     H 3775  10.503   9.152  11.345  0.6065  0.9588  0.9750
  752MOL0     H 3776  10.574   9.288  11.227 -0.6918 -0.2239 -1.8377
  753MOL0     O 3777  11.294  11.250   8.376 -0.8756  0.4450  0.1985
  753MOL0     C 3778  11.391  11.325   8.363  0.6297 -0.7925 -0.6578
  753MOL0     O 3779  11.518  11.302   8.313 -0.3127 -0.5425 -0.1923
  753MOL0     C 3780  11.561  11.179   8.281  0.1532 -0.5312  0.1476
  753MOL0     C 3781  11.684  11.174   8.209  0.1222 -0.1402  1.1775
  753MOL0     C 3782  11.735  11.060   8.158 -1.0938  1.7325 -1.0511
  753MOL0     C 3783  11.688  10.935   8.203  0.9834 -0.2925 -0.4529
  753MOL0     O 3784  11.724  10.815   8.155 -0.1882 -0.9144 -0.5758
  753MOL0     C 3785  11.799  10.805   8.036  0.7452 -0.6435 -0.8097
  753MOL0     C 3786  11.825  10.665   7.995  0.3812 -0.1783 -0.0785
  753MOL0     C 3787  11.703  10.599   7.947 -0.2888  1.6181 -0.4664
  753MOL0     C 3788  11.719  10.449   7.915 -0.0121 -0.3186  0.4025
  753MOL0     C 3789  11.577  10.378   7.883 -0.0511  0.8753 -0.0583
  753MOL0     C 3790  11.521  10.275   7.992 -0.1259 -0.1394  0.8308
  753MOL0     C 3791  11.389  10.211   7.949  0.5080  0.5316  0.3010
  753MOL0     C 3792  11.261  10.262   8.030  0.2542  0.0238  0.2305
  753MOL0     N 3793  11.251  10.405   8.027  0.0841 -0.3897  0.1291
  753MOL0     C 3794  11.245  10.475   7.910 -0.0007 -0.6380  0.1106
  753MOL0     C 3795  11.254  10.606   7.938  0.2817 -0.3328  0.2770
  753MOL0     C 3796  11.223  10.716   7.838  1.0678  0.5213 -0.2765
  753MOL0     C 3797  11.354  10.786   7.808  0.8925 -1.1034  0.5029
  753MOL0     C 3798  11.365  10.905   7.906 -0.7430  0.3041  0.2223
  753MOL0     C 3799  11.471  11.005   7.857  0.3943  0.6959 -0.6170
  753MOL0     O 3800  11.425  11.099   7.751 -0.3149 -0.0608 -0.2236
  753MOL0     C 3801  11.359  11.206   7.809  0.3772 -0.2040 -0.7322
  753MOL0     C 3802  11.329  11.308   7.714  1.2874  0.7039 -0.1502
  753MOL0     C 3803  11.255  11.426   7.746 -0.7633  0.2761  0.6709
  753MOL0     C 3804  11.225  11.511   7.632 -0.0215 -0.4756 -0.7786
  753MOL0     C 3805  11.204  11.446   7.877 -0.5029  0.6961  0.3183
  753MOL0     C 3806  11.120  11.559   7.920 -0.1049 -0.3654  0.5707
  753MOL0     O 3807  11.059  11.542   8.043  0.0608  0.9861 -0.1222
  753MOL0     C 3808  10.973  11.651   8.079 -0.0434  0.0953  0.4774
  753MOL0     C 3809  11.032  11.772   8.118  0.1438 -0.5733 -0.0244
  753MOL0     C 3810  10.949  11.888   8.127 -0.5218 -0.1181 -0.5898
  753MOL0     C 3811  10.810  11.889   8.110 -0.2001  1.0711  0.2469
  753MOL0     O 3812  10.724  11.989   8.118  0.7648  0.9350 -0.2596
  753MOL0     C 3813  10.770  12.109   8.184 -1.0597  0.8038 -0.7895
  753MOL0     C 3814  10.661  12.211   8.200 -0.4789  0.4395 -0.5872
  753MOL0     C 3815  10.699  12.351   8.254  0.7560 -0.4190  0.8934
  753MOL0     C 3816  10.780  12.436   8.143 -0.6695 -0.4862  0.1144
  753MOL0     C 3817  10.801  12.571   8.212 -0.6091  0.5159  1.0172
  753MOL0     C 3818  10.823  12.685   8.115  0.0188  0.6706  0.0933
  753MOL0     C 3819  10.887  12.804   8.190  0.4876 -0.0801 -0.0483
  753MOL0     C 3820  10.876  12.929   8.102 -0.5340  0.4789 -0.9243
  753MOL0    Cl 3821  10.695  12.972   8.068  0.2507  0.1807  0.2850
  753MOL0     C 3822  10.760  11.769   8.063 -0.3131 -0.0090  0.4157
  753MOL0     C 3823  10.842  11.656   8.045  0.0690  0.5748  0.7829
  753MOL0     O 3824  11.111  11.664   7.856 -0.3985  0.3670  0.2118
  753MOL0     C 3825  11.236  11.347   7.973  0.2138  0.1022  0.1663
  753MOL0     C 3826  11.321  11.237   7.947 -0.1747 -0.0539  0.0216
  753MOL0     N 3827  11.254  10.621   8.075  0.5711 -0.6657  1.3760
  753MOL0     N 3828  11.252  10.495   8.127  0.3847  1.0791 -0.1677
  753MOL0     C 3829  11.575  10.935   8.282  0.7034 -0.1930 -0.0555
  753MOL0     C 3830  11.510  11.052   8.322 -0.2187  0.1698 -0.4648
  753MOL0     C 3831  11.377  11.460   8.430 -0.5546 -0.4614 -0.0062
  753MOL0     C 3832  11.493  11.524   8.484  0.1922  0.2710  0.8102
  753MOL0     C 3833  11.485  11.632   8.582 -0.1604  1.6434  0.6790
  753MOL0     C 3834  11.367  11.693   8.608 -0.2765  0.5224 -0.5285
  753MOL0     O 3835  11.375  11.801   8.692 -0.3022  0.0149  0.2215
  753MOL0     C 3836  11.253  11.832   8.756  0.5694 -0.4129  0.3238
  753MOL0     C 3837  11.264  11.923   8.874  0.6453 -0.4144  0.6609
  753MOL0     C 3838  11.393  11.996   8.879 -0.7045 -0.5163 -0.4147
  753MOL0     C 3839  11.411  12.067   9.014  0.4883 -0.1596  0.4124
  753MOL0     C 3840  11.306  12.173   9.028 -0.4667 -0.2821 -1.0622
  753MOL0     C 3841  11.208  12.253   9.049 -0.6629 -0.7389  0.6405
  753MOL0     C 3842  11.257  11.637   8.549  0.3929 -0.3475 -0.3981
  753MOL0     C 3843  11.255  11.527   8.455 -0.1362  0.1488 -0.6010
  753MOL0     C 3844  11.122  11.483   8.408  0.3534  0.6182  0.3873
  753MOL0     H 3845  11.732  11.268   8.185  2.1517 -1.9352 -2.7118
  753MOL0     H 3846  11.818  11.067   8.088  0.2195  0.4428  0.2984
  753MOL0     H 3847  11.894  10.856   8.055  1.0368 -1.2015 -0.7465
  753MOL0     H 3848  11.749  10.859   7.955 -3.2732 -3.4653 -0.5371
  753MOL0     H 3849  11.900  10.663   7.915 -0.6142 -0.9300 -1.0235
  753MOL0     H 3850  11.866  10.618   8.085  2.1430 -1.2093 -1.3672
  753MOL0     H 3851  11.631  10.616   8.027 -0.4318  1.9754 -0.6666
  753MOL0     H 3852  11.667  10.660   7.864  0.9766  1.5170 -1.1104
  753MOL0     H 3853  11.787  10.443   7.829 -1.5558  0.7143 -0.9516
  753MOL0     H 3854  11.768  10.416   8.007  2.3554 -2.6076 -1.5239
  753MOL0     H 3855  11.567  10.326   7.786 -1.4627  0.2770  0.3690
  753MOL0     H 3856  11.501  10.456   7.868  0.7396  1.4852 -0.9850
  753MOL0     H 3857  11.603  10.203   8.003  1.3192  1.1171 -0.9457
  753MOL0     H 3858  11.517  10.315   8.093 -1.1923  0.8194  0.4316
  753MOL0     H 3859  11.389  10.105   7.974 -4.4050 -0.1823 -1.4718
  753MOL0     H 3860  11.357  10.211   7.845 -3.1274 -1.2671  1.2421
  753MOL0     H 3861  11.180  10.207   7.981 -1.6230  3.5639 -0.9719
  753MOL0     H 3862  11.260  10.223   8.132 -1.1418 -0.7592 -0.0625
  753MOL0     H 3863  11.219  10.436   7.812  2.0839 -2.0804  0.0896
  753MOL0     H 3864  11.146  10.783   7.878 -0.8685 -0.3939 -2.2862
  753MOL0     H 3865  11.180  10.683   7.743 -0.0576 -1.9153  0.9786
  753MOL0     H 3866  11.439  10.718   7.819 -0.3419 -2.7184  0.3846
  753MOL0     H 3867  11.361  10.817   7.703 -0.9884 -2.3218 -0.0510
  753MOL0     H 3868  11.267  10.949   7.928 -1.3979 -0.8282 -0.3257
  753MOL0     H 3869  11.395  10.858   8.000  0.8368 -0.6367 -0.7056
  753MOL0     H 3870  11.502  11.061   7.946 -2.6228  5.4721 -2.2505
  753MOL0     H 3871  11.561  10.949   7.828 -0.1774  1.0871 -3.4813
  753MOL0     H 3872  11.370  11.282   7.617  0.0554  2.4339 -1.1689
  753MOL0     H 3873  11.226  11.615   7.666 -2.2568 -1.3938  2.6280
  753MOL0     H 3874  11.126  11.489   7.590  0.5677 -1.3389 -1.7621
  753MOL0     H 3875  11.297  11.497   7.551 -0.8139 -1.2199 -1.3747
  753MOL0     H 3876  11.139  11.776   8.134  0.0284 -0.4249  0.7544
  753MOL0     H 3877  10.984  11.984   8.164 -0.8496 -0.7764  1.5635
  753MOL0     H 3878  10.802  12.090   8.287 -3.0808  1.3261 -0.0080
  753MOL0     H 3879  10.853  12.149   8.126  1.7144 -1.5764  1.2128
  753MOL0     H 3880  10.610  12.219   8.104  0.4518  5.5158 -0.9428
  753MOL0     H 3881  10.595  12.159   8.270  0.3453  0.7787  0.4722
  753MOL0     H 3882  10.749  12.348   8.351 -1.1176 -0.5634  1.9122
  753MOL0     H 3883  10.599  12.388   8.279  0.6372  0.4974 -0.8376
  753MOL0     H 3884  10.722  12.451   8.052 -1.4844  0.5874  0.7921
  753MOL0     H 3885  10.871  12.379   8.119  0.4353  0.1928  2.4380
  753MOL0     H 3886  10.713  12.591   8.274 -1.8100  2.5156 -1.2063
  753MOL0     H 3887  10.894  12.562   8.268  0.3338  1.5512 -0.3109
  753MOL0     H 3888  10.728  12.708   8.065  0.7144  4.4458  0.2207
  753MOL0     H 3889  10.884  12.645   8.034 -1.9411 -3.0820  0.2413
  753MOL0     H 3890  10.994  12.786   8.202  0.0372 -2.6358  0.7060
  753MOL0     H 3891  10.851  12.814   8.293  0.4732 -2.1067  0.1935
  753MOL0     H 3892  10.938  12.926   8.012  2.1745 -2.8004  0.8416
  753MOL0     H 3893  10.919  13.012   8.160 -2.1220 -0.2771  1.4860
  753MOL0     H 3894  10.652  11.779   8.053 -0.3856  3.1622  2.8210
  753MOL0     H 3895  10.787  11.574   8.000  0.0547  1.5681 -1.1502
  753MOL0     H 3896  11.215  11.358   8.079  2.9168  0.8365  0.7027
  753MOL0     H 3897  11.339  11.167   8.027  0.5442  0.6518  0.4858
  753MOL0     H 3898  11.527  10.848   8.326 -0.6260 -0.2590 -1.5678
  753MOL0     H 3899  11.427  11.052   8.392 -1.3912  3.5862 -1.6456
  753MOL0     H 3900  11.587  11.471   8.469 -0.0888  0.4097 -1.9142
  753MOL0     H 3901  11.581  11.656   8.626 -0.6000  0.8116  2.1534
  753MOL0     H 3902  11.190  11.879   8.680  1.0862 -0.5060 -0.1722
  753MOL0     H 3903  11.199  11.744   8.791 -0.7306  1.3047  2.9108
  753MOL0     H 3904  11.253  11.864   8.965 -0.1269  1.5130  1.8877
  753MOL0     H 3905  11.182  11.996   8.878 -0.1786 -1.3293  3.9414
  753MOL0     H 3906  11.469  11.919   8.879 -0.1228 -0.0216 -2.4505
  753MOL0     H 3907  11.414  12.052   8.787 -2.0680  1.6658  0.5110
  753MOL0     H 3908  11.511  12.109   9.006  0.4932 -0.5036 -2.1854
  753MOL0     H 3909  11.393  11.988   9.088 -2.1424  1.1471  1.3208
  753MOL0     H 3910  11.135  12.330   9.067 -0.6873 -1.1662  2.4800
  753MOL0     H 3911  11.165  11.690   8.571 -2.1006 -2.5635 -4.2483
  753MOL0     H 3912  11.038  11.551   8.391  0.8313  1.0073 -0.5168
  753MOL0     H 3913  11.124  11.427   8.314 -1.6112 -1.2605  1.3735
  753MOL0     H 3914  11.081  11.404   8.472 -1.8713 -0.4083 -2.0894
  754MOL0     O 3915   3.142   8.794  10.860 -0.1197 -0.0137 -0.1846
  754MOL0     C 3916   3.170   8.860  10.961 -0.3424  0.6294 -0.1541
  754MOL0     O 3917   3.131   8.988  10.985  0.3865  0.2045 -0.0571
  754MOL0     C 3918   3.055   9.038  10.886  0.1594 -0.2412 -0.4637
  754MOL0     C 3919   2.924   9.013  10.889  0.0418  0.4215  0.0358
  754MOL0     C 3920   2.843   9.078  10.798  0.0138  0.1012  0.4294
  754MOL0     C 3921   2.889   9.165  10.707  0.8532  0.2659  0.3619
  754MOL0     O 3922   2.803   9.216  10.612  0.6638 -0.4965 -0.5270
  754MOL0     C 3923   2.857   9.257  10.482 -0.7564 -0.2499  0.8231
  754MOL0     C 3924   2.855   9.410  10.480 -1.2431  0.3287 -0.4777
  754MOL0     C 3925   2.705   9.461  10.495  1.3457  0.6972 -0.6739
  754MOL0     C 3926   2.596   9.395  10.401 -0.3322 -0.0305  0.2186
  754MOL0     C 3927   2.488   9.498  10.378  0.3341 -0.1904  0.0717
  754MOL0     C 3928   2.401   9.444  10.261 -0.7776 -0.3244 -0.3261
  754MOL0     C 3929   2.304   9.543  10.212 -0.0782  0.1847 -0.3687
  754MOL0     C 3930   2.182   9.467  10.146 -0.4622  0.3380  0.8707
  754MOL0     N 3931   2.111   9.560  10.056 -0.0445 -0.4459  0.3568
  754MOL0     C 3932   2.074   9.518   9.930 -0.7312 -1.9761  0.5423
  754MOL0     C 3933   2.014   9.628   9.884 -0.0480  0.6537  0.0234
  754MOL0     C 3934   1.925   9.626   9.758 -0.0986 -0.0702 -0.1212
  754MOL0     C 3935   1.780   9.678   9.788  0.1906 -0.1765 -0.4635
  754MOL0     C 3936   1.709   9.582   9.887 -0.6380  0.2904 -0.2096
  754MOL0     C 3937   1.678   9.433   9.852 -0.2375  1.0671 -0.3488
  754MOL0     O 3938   1.799   9.361   9.850 -0.6465 -0.2229 -0.6237
  754MOL0     C 3939   1.839   9.284   9.963  0.1402  0.3402  0.9442
  754MOL0     C 3940   1.934   9.183   9.934 -0.1042 -0.4759  1.1373
  754MOL0     C 3941   1.996   9.121  10.038 -0.8886 -0.0894  0.0490
  754MOL0     C 3942   2.109   9.021   9.995  0.0353  0.3376 -0.7026
  754MOL0     C 3943   1.958   9.149  10.174  0.0803  0.1848 -0.3153
  754MOL0     C 3944   2.026   9.077  10.287  2.0109 -0.2414 -0.3923
  754MOL0     O 3945   1.977   9.119  10.404  0.8315  0.2979  0.1062
  754MOL0     C 3946   2.045   9.090  10.520 -0.9836 -0.9414 -0.2041
  754MOL0     C 3947   2.151   9.175  10.566  0.4616  0.7744 -0.2764
  754MOL0     C 3948   2.206   9.146  10.687  0.0369  0.7963 -0.4055
  754MOL0     C 3949   2.174   9.031  10.771 -0.8538 -0.0876 -0.1386
  754MOL0     O 3950   2.217   9.018  10.896  0.1868  0.1890 -0.1814
  754MOL0     C 3951   2.293   9.127  10.953 -0.5641  0.4763  0.0715
  754MOL0     C 3952   2.333   9.086  11.091 -0.6133 -0.0851 -0.1884
  754MOL0     C 3953   2.396   9.211  11.168  0.1445 -0.6304  0.3641
  754MOL0     C 3954   2.542   9.229  11.120  0.7664 -0.1869  0.1861
  754MOL0     C 3955   2.554   9.363  11.043  0.1465 -0.2131 -0.6440
  754MOL0     C 3956   2.688   9.405  10.971  1.6919  0.0300 -0.0518
  754MOL0     C 3957   2.814   9.365  11.058 -0.7647  0.1093 -0.6062
  754MOL0     C 3958   2.939   9.426  11.004 -0.5621  0.1526 -0.2648
  754MOL0    Cl 3959   2.956   9.592  11.071 -0.2136 -0.1855  0.7319
  754MOL0     C 3960   2.076   8.949  10.716  1.1667 -0.6517  0.2181
  754MOL0     C 3961   2.020   8.969  10.586  0.9261 -0.4119 -0.0587
  754MOL0     O 3962   2.109   8.996  10.268  0.4043  0.0361  0.3215
  754MOL0     C 3963   1.853   9.240  10.194 -0.2654 -0.4594 -1.0056
  754MOL0     C 3964   1.798   9.318  10.089 -0.4215  0.5280  0.3835
  754MOL0     N 3965   2.023   9.740   9.967  1.0631  0.2135  0.9090
  754MOL0     N 3966   2.086   9.695  10.070  0.5261  0.1316 -0.2044
  754MOL0     C 3967   3.029   9.199  10.719  0.0588  0.4020  1.2926
  754MOL0     C 3968   3.113   9.128  10.795 -0.3628 -0.5410  0.1911
  754MOL0     C 3969   3.226   8.787  11.073  0.5135  0.6199  0.2144
  754MOL0     C 3970   3.314   8.684  11.040 -0.5778 -0.1635  0.1274
  754MOL0     C 3971   3.370   8.597  11.129 -0.2181  0.3227 -0.3224
  754MOL0     C 3972   3.331   8.599  11.258 -0.3679 -0.0799  0.1015
  754MOL0     O 3973   3.390   8.521  11.353  0.0800 -0.0359 -0.2055
  754MOL0     C 3974   3.524   8.471  11.340 -0.9625  0.3362  1.3364
  754MOL0     C 3975   3.500   8.337  11.279 -0.3049 -1.2111 -0.4529
  754MOL0     C 3976   3.633   8.268  11.238  0.1125 -0.9960  0.6754
  754MOL0     C 3977   3.690   8.166  11.342  1.3369 -0.4125 -0.3350
  754MOL0     C 3978   3.586   8.081  11.401  0.5673  0.7112 -0.4355
  754MOL0     C 3979   3.494   8.009  11.438  0.0691  0.8387 -0.1645
  754MOL0     C 3980   3.249   8.712  11.305 -0.5955  0.1070  0.7631
  754MOL0     C 3981   3.197   8.798  11.212 -0.4164 -0.5100 -0.4323
  754MOL0     C 3982   3.096   8.888  11.278 -0.2381 -0.2790 -0.2167
  754MOL0     H 3983   2.887   8.939  10.959  0.8744  0.5635  0.6336
  754MOL0     H 3984   2.740   9.045  10.783  1.5786 -5.2740 -0.3928
  754MOL0     H 3985   2.796   9.221  10.398  1.0396  0.7421 -0.9873
  754MOL0     H 3986   2.957   9.219  10.458  0.0991  1.3625  1.6856
  754MOL0     H 3987   2.907   9.440  10.571  0.3861 -1.8952 -0.6097
  754MOL0     H 3988   2.898   9.456  10.391  0.5618  2.0206  1.1626
  754MOL0     H 3989   2.659   9.452  10.594  1.9450  4.7973  0.1380
  754MOL0     H 3990   2.713   9.569  10.479 -0.0893  0.5062 -3.1673
  754MOL0     H 3991   2.658   9.375  10.314  0.0352 -2.7744  1.0138
  754MOL0     H 3992   2.557   9.297  10.430  2.0426 -2.2211 -3.2001
  754MOL0     H 3993   2.538   9.591  10.352 -1.2507  0.3470 -1.2562
  754MOL0     H 3994   2.430   9.519  10.468 -0.0956  1.0947 -0.4814
  754MOL0     H 3995   2.468   9.408  10.182  2.3609  1.9672  1.0798
  754MOL0     H 3996   2.344   9.358  10.299  2.7200 -1.9588  1.8170
  754MOL0     H 3997   2.346   9.593  10.124 -0.3606 -3.6742 -2.9534
  754MOL0     H 3998   2.276   9.615  10.289 -0.7698 -2.5341  2.0885
  754MOL0     H 3999   2.215   9.388  10.078 -2.9941 -0.0619 -0.0062
  754MOL0     H 4000   2.107   9.439  10.221 -2.7309  2.7029 -0.3625
  754MOL0     H 4001   2.093   9.422   9.882  0.1807 -0.9358 -1.2982
  754MOL0     H 4002   1.915   9.525   9.717 -0.3501 -0.3672  0.6619
  754MOL0     H 4003   1.972   9.687   9.680 -1.6169 -0.0766 -1.0753
  754MOL0     H 4004   1.791   9.777   9.833 -2.9387  1.0162 -2.0181
  754MOL0     H 4005   1.727   9.693   9.693  0.6878  0.8482 -0.5896
  754MOL0     H 4006   1.755   9.580   9.987  0.2241  0.4636 -0.5926
  754MOL0     H 4007   1.607   9.615   9.909  0.4549  3.7682  0.2221
  754MOL0     H 4008   1.615   9.398   9.934  3.1681 -0.7850  1.7132
  754MOL0     H 4009   1.615   9.412   9.765 -0.6117 -1.5895  0.4635
  754MOL0     H 4010   1.964   9.171   9.830 -0.3157  1.5069  0.8161
  754MOL0     H 4011   2.209   9.057  10.020 -1.7925  3.6987  2.9690
  754MOL0     H 4012   2.114   9.015   9.885 -0.5873  0.7619 -0.7621
  754MOL0     H 4013   2.108   8.924  10.046  4.4863  1.0891  1.2277
  754MOL0     H 4014   2.190   9.260  10.510  1.6286  0.3253 -0.1571
  754MOL0     H 4015   2.274   9.221  10.726  0.4908 -1.0354  2.6669
  754MOL0     H 4016   2.387   9.138  10.898 -0.8158 -3.8383 -1.5992
  754MOL0     H 4017   2.242   9.223  10.960  0.8002  1.3533 -1.3394
  754MOL0     H 4018   2.238   9.064  11.140 -1.0012  0.0451 -0.8720
  754MOL0     H 4019   2.386   8.991  11.096 -0.2674  0.0689 -0.7591
  754MOL0     H 4020   2.391   9.183  11.273 -1.7691  2.7817  1.3527
  754MOL0     H 4021   2.345   9.308  11.159  2.6909  0.7776  0.0737
  754MOL0     H 4022   2.568   9.137  11.067 -0.7871  0.0303 -1.0077
  754MOL0     H 4023   2.605   9.233  11.210  1.7416 -0.6220 -0.4641
  754MOL0     H 4024   2.480   9.379  10.964  2.1225  0.8756 -2.3523
  754MOL0     H 4025   2.537   9.449  11.109 -1.2822 -0.5414 -0.5455
  754MOL0     H 4026   2.692   9.513  10.952  1.9689  0.5240  2.5099
  754MOL0     H 4027   2.688   9.339  10.884  3.5155  0.0281 -0.0838
  754MOL0     H 4028   2.819   9.259  11.084 -2.5737 -0.0286 -0.6910
  754MOL0     H 4029   2.794   9.408  11.157  3.0143  0.2488  0.2237
  754MOL0     H 4030   2.964   9.410  10.899  3.9059  0.3453  0.5861
  754MOL0     H 4031   3.018   9.374  11.059  1.0027  3.1903  0.5772
  754MOL0     H 4032   2.036   8.872  10.781 -0.2301 -1.5429 -1.5940
  754MOL0     H 4033   1.944   8.903  10.546  1.0009  0.7105 -2.2569
  754MOL0     H 4034   1.826   9.273  10.294  1.4381  2.0183 -1.2905
  754MOL0     H 4035   1.737   9.403  10.118 -1.6888 -0.0092 -0.6021
  754MOL0     H 4036   3.068   9.270  10.647  2.3097 -5.5209 -4.2080
  754MOL0     H 4037   3.217   9.156  10.783 -0.2452 -0.4316  1.3870
  754MOL0     H 4038   3.348   8.671  10.938  3.0774 -1.1921  1.3215
  754MOL0     H 4039   3.437   8.521  11.090  0.9757  0.9709  0.3852
  754MOL0     H 4040   3.587   8.529  11.273  1.3352 -2.0598  1.2552
  754MOL0     H 4041   3.569   8.478  11.439  0.2120  2.6172  0.7032
  754MOL0     H 4042   3.437   8.333  11.189 -2.7922  0.1149  1.1244
  754MOL0     H 4043   3.437   8.282  11.349 -2.5375 -0.0105 -1.3997
  754MOL0     H 4044   3.599   8.199  11.161  2.5305 -0.8293 -0.6397
  754MOL0     H 4045   3.703   8.341  11.196  1.0888 -2.4184 -0.2507
  754MOL0     H 4046   3.729   8.224  11.426 -0.8063  2.3132 -1.0775
  754MOL0     H 4047   3.769   8.109  11.293 -0.0667 -1.1908 -1.8012
  754MOL0     H 4048   3.431   7.926  11.459  2.9576 -2.0396 -1.9701
  754MOL0     H 4049   3.224   8.719  11.410 -1.3536 -1.4483  0.7294
  754MOL0     H 4050   3.111   8.992  11.245  1.0070  0.3424  2.1105
  754MOL0     H 4051   2.992   8.870  11.247 -0.1043  0.5517 -1.2172
  754MOL0     H 4052   3.096   8.884  11.387 -1.0623 -1.4508 -0.2373
  755MOL0     O 4053   7.135   8.173   5.563  0.2367  0.2953 -0.0798
  755MOL0     C 4054   7.038   8.132   5.629  0.2118  0.6952  0.7137
  755MOL0     O 4055   6.942   8.213   5.682  0.6834  0.3347  0.3707
  755MOL0     C 4056   6.957   8.342   5.652  0.2834 -0.6074  1.4141
  755MOL0     C 4057   6.945   8.399   5.519 -0.3074  0.1548 -0.2467
  755MOL0     C 4058   6.944   8.545   5.512 -0.4073  0.3739  0.3889
  755MOL0     C 4059   6.944   8.625   5.630 -0.3069 -1.1359  0.1624
  755MOL0     O 4060   6.926   8.759   5.625 -0.1848  0.2544  0.5829
  755MOL0     C 4061   7.030   8.830   5.559 -0.6431  0.0731  0.0696
  755MOL0     C 4062   7.162   8.815   5.637  0.3175  0.5544  0.3456
  755MOL0     C 4063   7.272   8.922   5.601 -0.7958  0.3888 -0.5302
  755MOL0     C 4064   7.231   9.065   5.632  0.3079 -1.0908 -0.8582
  755MOL0     C 4065   7.345   9.172   5.618  0.3844  0.5021  0.2852
  755MOL0     C 4066   7.284   9.303   5.669  0.1775 -0.4717 -0.0397
  755MOL0     C 4067   7.315   9.338   5.809  0.5861  0.7923 -0.1406
  755MOL0     C 4068   7.224   9.453   5.854  0.6268 -0.4931  0.1826
  755MOL0     N 4069   7.252   9.492   5.988 -0.5310 -0.6959 -0.3497
  755MOL0     C 4070   7.212   9.430   6.103  1.1364  0.0022  0.6752
  755MOL0     C 4071   7.255   9.501   6.204 -0.6584 -0.1014  0.2581
  755MOL0     C 4072   7.248   9.471   6.348 -0.2698  0.8951  0.4373
  755MOL0     C 4073   7.177   9.588   6.418 -0.1657  0.0086  0.4740
  755MOL0     C 4074   7.120   9.539   6.551  0.5500  0.0497  0.0760
  755MOL0     C 4075   7.001   9.617   6.601 -0.3801  0.2802  0.0466
  755MOL0     O 4076   7.020   9.756   6.606  0.0780  0.4014 -0.3006
  755MOL0     C 4077   7.104   9.809   6.693 -0.9259  0.6353 -0.3221
  755MOL0     C 4078   7.155   9.747   6.809 -0.4921  0.1897 -0.0899
  755MOL0     C 4079   7.252   9.804   6.902  0.5938 -0.4257  0.0871
  755MOL0     C 4080   7.290   9.728   7.022  0.1638 -0.5286  0.3837
  755MOL0     C 4081   7.302   9.934   6.886  0.9382 -0.3705  0.3798
  755MOL0     C 4082   7.420   9.995   6.962 -0.1236  0.2549  0.9831
  755MOL0     O 4083   7.468  10.116   6.898  0.9793 -0.3042 -0.5224
  755MOL0     C 4084   7.506  10.215   6.991  0.0826  1.5617 -0.0261
  755MOL0     C 4085   7.633  10.268   6.999 -0.4195 -0.5367  0.5322
  755MOL0     C 4086   7.682  10.344   7.109 -0.1521 -0.1324  0.2714
  755MOL0     C 4087   7.592  10.377   7.217 -0.6249  0.0190  0.5670
  755MOL0     O 4088   7.624  10.455   7.325 -0.4663  0.5350  0.0025
  755MOL0     C 4089   7.755  10.492   7.358  0.3206 -0.5521 -0.1767
  755MOL0     C 4090   7.738  10.593   7.469 -0.4275 -0.7845  1.2213
  755MOL0     C 4091   7.687  10.743   7.429 -0.9343 -0.3384  0.0344
  755MOL0     C 4092   7.634  10.833   7.539  0.3106 -0.0605  0.0242
  755MOL0     C 4093   7.728  10.864   7.658  0.1593 -0.3817  0.5742
  755MOL0     C 4094   7.848  10.942   7.617  0.7491  0.8720  0.1957
  755MOL0     C 4095   7.919  10.984   7.737  0.3189 -0.8589 -0.8258
  755MOL0     C 4096   8.042  11.061   7.694  0.3016  0.7218 -0.4176
  755MOL0    Cl 4097   8.173  11.092   7.823 -0.3896 -0.0974 -0.0533
  755MOL0     C 4098   7.465  10.347   7.199  0.8176 -0.4495  0.2912
  755MOL0     C 4099   7.422  10.269   7.089  0.3213 -0.6849 -0.6338
  755MOL0     O 4100   7.479   9.939   7.050 -0.5641  0.2210  0.3782
  755MOL0     C 4101   7.247  10.007   6.770  0.8171  0.6784  0.5545
  755MOL0     C 4102   7.157   9.939   6.676 -0.1438 -0.0149  0.5846
  755MOL0     N 4103   7.365   9.580   6.148 -0.2603  0.4328 -0.1833
  755MOL0     N 4104   7.360   9.582   6.018 -1.1242  0.2422  0.8266
  755MOL0     C 4105   6.944   8.565   5.754 -0.6480 -0.1182  0.1076
  755MOL0     C 4106   6.952   8.424   5.755  0.0287 -0.5126  0.6915
  755MOL0     C 4107   7.051   7.994   5.692 -0.3372 -0.1481  0.3574
  755MOL0     C 4108   6.949   7.961   5.789  0.1083 -0.4586 -0.0341
  755MOL0     C 4109   6.944   7.834   5.839  0.0913  0.2935  0.4889
  755MOL0     C 4110   7.043   7.739   5.821  0.4974 -0.1220  0.3350
  755MOL0     O 4111   7.050   7.619   5.883 -0.3205  0.1556 -0.5542
  755MOL0     C 4112   7.009   7.614   6.018 -0.0574 -0.5171 -0.7676
  755MOL0     C 4113   7.035   7.471   6.076  0.1992  0.3085  0.1368
  755MOL0     C 4114   7.043   7.464   6.230 -1.2842 -0.7005 -0.4554
  755MOL0     C 4115   7.088   7.325   6.282 -1.3459 -0.8403 -0.0513
  755MOL0     C 4116   7.234   7.319   6.280  0.4464  1.1410  0.0168
  755MOL0     C 4117   7.353   7.307   6.270  0.6743 -1.1314 -0.2106
  755MOL0     C 4118   7.136   7.775   5.714 -0.7683  0.2757  0.1252
  755MOL0     C 4119   7.134   7.894   5.646  0.5140 -0.1765  0.2043
  755MOL0     C 4120   7.226   7.903   5.526 -0.8547 -0.0389  0.0641
  755MOL0     H 4121   6.942   8.337   5.430  0.5988  0.5865 -0.5951
  755MOL0     H 4122   6.935   8.581   5.410 -1.5898 -2.1139 -0.4596
  755MOL0     H 4123   6.983   8.928   5.553 -0.2686  0.2095 -0.7389
  755MOL0     H 4124   7.050   8.796   5.457 -0.6253 -0.2079  0.1655
  755MOL0     H 4125   7.146   8.819   5.745  1.5980  0.6919  0.5451
  755MOL0     H 4126   7.203   8.714   5.625 -0.8697  0.2174 -1.2174
  755MOL0     H 4127   7.367   8.905   5.652 -1.2165  1.7697  0.7695
  755MOL0     H 4128   7.296   8.905   5.496  2.3727  0.3329  0.1167
  755MOL0     H 4129   7.140   9.083   5.575  0.4327 -0.2828 -0.8024
  755MOL0     H 4130   7.204   9.064   5.738  2.9745  2.1104 -0.0115
  755MOL0     H 4131   7.381   9.182   5.515 -1.5539 -2.8726 -0.8778
  755MOL0     H 4132   7.421   9.149   5.693 -0.2018 -1.8674  0.2214
  755MOL0     H 4133   7.317   9.385   5.605  0.3433 -1.3746 -1.1544
  755MOL0     H 4134   7.177   9.305   5.644  0.7223  2.5414 -2.7993
  755MOL0     H 4135   7.420   9.368   5.809  1.6705 -2.5060 -2.2418
  755MOL0     H 4136   7.299   9.262   5.886 -0.2913  2.4484  1.3905
  755MOL0     H 4137   7.232   9.533   5.781 -1.8695  1.0617  1.4661
  755MOL0     H 4138   7.122   9.415   5.842  1.7905 -5.2343  2.7411
  755MOL0     H 4139   7.133   9.356   6.104  1.7147 -0.6360  1.8361
  755MOL0     H 4140   7.348   9.453   6.389  0.1757 -0.0878 -1.0101
  755MOL0     H 4141   7.196   9.376   6.366  1.3822 -0.2450 -0.4869
  755MOL0     H 4142   7.254   9.662   6.443  2.8450 -2.8782  0.4326
  755MOL0     H 4143   7.088   9.610   6.359  0.5348 -1.8854 -1.4190
  755MOL0     H 4144   7.102   9.431   6.552 -1.5403  0.2681  3.6381
  755MOL0     H 4145   7.203   9.551   6.622  0.0415 -0.8326  0.8403
  755MOL0     H 4146   6.914   9.584   6.543  0.5737 -3.2706  0.3737
  755MOL0     H 4147   6.983   9.587   6.705  1.3405 -0.7181  0.0961
  755MOL0     H 4148   7.120   9.649   6.840 -1.2864 -0.1695 -2.0093
  755MOL0     H 4149   7.268   9.780   7.116 -1.7150 -0.1472 -0.2387
  755MOL0     H 4150   7.398   9.709   7.015  0.2633 -0.9679  2.4820
  755MOL0     H 4151   7.254   9.625   7.032  2.0025 -1.1862  0.6609
  755MOL0     H 4152   7.712  10.255   6.926  1.4852  0.5678  2.3168
  755MOL0     H 4153   7.785  10.379   7.112 -0.4599  0.7439  1.3088
  755MOL0     H 4154   7.821  10.411   7.391  0.1360 -0.8976 -0.6343
  755MOL0     H 4155   7.801  10.560   7.286 -3.0546  0.6309 -1.3861
  755MOL0     H 4156   7.671  10.551   7.544 -1.5003 -0.4650  0.4658
  755MOL0     H 4157   7.837  10.612   7.510 -0.7289  0.6819  1.3116
  755MOL0     H 4158   7.612  10.720   7.352  0.6540 -2.2054 -1.0538
  755MOL0     H 4159   7.769  10.802   7.386 -0.7459 -1.1181 -0.7146
  755MOL0     H 4160   7.537  10.798   7.574  0.4671 -2.3381 -1.5693
  755MOL0     H 4161   7.624  10.929   7.487 -2.5046 -1.4245 -2.2901
  755MOL0     H 4162   7.677  10.924   7.734  0.9254  0.8838  0.1189
  755MOL0     H 4163   7.746  10.769   7.711  1.3332  0.3656  1.5497
  755MOL0     H 4164   7.817  11.019   7.545 -2.6622 -2.2620 -2.0119
  755MOL0     H 4165   7.903  10.863   7.566 -4.3800 -2.6209 -0.6415
  755MOL0     H 4166   7.961  10.898   7.789 -1.2236  0.6955  3.4365
  755MOL0     H 4167   7.859  11.052   7.799  1.6242  0.2824 -0.7526
  755MOL0     H 4168   8.017  11.160   7.652 -0.7846 -0.0726 -1.7356
  755MOL0     H 4169   8.082  10.993   7.619 -1.8906 -0.6378 -0.4451
  755MOL0     H 4170   7.394  10.372   7.277  0.2387  0.6970 -0.5777
  755MOL0     H 4171   7.318  10.253   7.064  0.2322 -1.0315 -0.0442
  755MOL0     H 4172   7.273  10.109   6.742 -2.3579  0.4752 -4.3300
  755MOL0     H 4173   7.122   9.986   6.585 -0.4341 -1.5278 -0.1246
  755MOL0     H 4174   6.933   8.634   5.837  1.5580  2.0279 -1.2486
  755MOL0     H 4175   6.940   8.387   5.856  1.3340 -0.3040  0.9396
  755MOL0     H 4176   6.871   8.031   5.816  1.2294  0.3328  1.2695
  755MOL0     H 4177   6.862   7.815   5.907  0.5191 -3.8952  0.0582
  755MOL0     H 4178   7.058   7.690   6.080 -2.7102  0.7323 -0.0363
  755MOL0     H 4179   6.901   7.629   6.032 -0.0617 -0.3557 -0.9809
  755MOL0     H 4180   7.134   7.440   6.040 -0.9844 -2.2464 -1.1498
  755MOL0     H 4181   6.983   7.389   6.026  1.9821 -1.4637  1.0252
  755MOL0     H 4182   7.104   7.546   6.268 -0.8278 -1.1512 -0.1968
  755MOL0     H 4183   6.942   7.486   6.266 -0.4680  1.6306  0.5900
  755MOL0     H 4184   7.045   7.250   6.215 -0.3452 -2.3603  0.9319
  755MOL0     H 4185   7.051   7.301   6.382  3.7964 -1.8250  1.8947
  755MOL0     H 4186   7.457   7.281   6.269  0.6095 -1.4312  0.2720
  755MOL0     H 4187   7.208   7.696   5.693 -0.7259 -0.0034  1.2448
  755MOL0     H 4188   7.170   7.929   5.435 -0.2599  1.4411  0.1042
  755MOL0     H 4189   7.302   7.979   5.544 -0.2503 -1.1347  2.4600
  755MOL0     H 4190   7.269   7.806   5.502  2.3889  1.9424 -3.0871
  756MOL0     O 4191   6.138   8.507   3.123  0.5729 -0.2854 -0.1077
  756MOL0     C 4192   6.192   8.608   3.186  1.1203 -0.2251 -0.3111
  756MOL0     O 4193   6.304   8.674   3.148 -0.5270 -0.1719  0.7510
  756MOL0     C 4194   6.388   8.607   3.057  0.5097 -0.2931 -0.3353
  756MOL0     C 4195   6.498   8.548   3.113  0.3332 -0.3454 -0.1699
  756MOL0     C 4196   6.604   8.518   3.026  0.2182 -0.5048 -0.5175
  756MOL0     C 4197   6.600   8.530   2.884 -0.0801 -0.6600 -0.1898
  756MOL0     O 4198   6.699   8.486   2.792 -0.2408  0.4584 -0.3300
  756MOL0     C 4199   6.814   8.424   2.851 -0.0588  1.3749  0.9411
  756MOL0     C 4200   6.913   8.392   2.738  0.0896  1.4626  0.0810
  756MOL0     C 4201   7.042   8.343   2.811 -0.1834  0.2024 -0.1954
  756MOL0     C 4202   7.142   8.305   2.707 -0.4358  0.7266 -0.0625
  756MOL0     C 4203   7.277   8.243   2.760 -0.9308  0.2767 -0.7913
  756MOL0     C 4204   7.269   8.122   2.833 -0.0577 -0.3446 -0.7158
  756MOL0     C 4205   7.402   8.067   2.881 -0.8819 -0.3214 -0.0971
  756MOL0     C 4206   7.395   7.988   3.023  0.7968 -0.4539  0.5410
  756MOL0     N 4207   7.509   8.039   3.105  0.5064  0.7699  0.5148
  756MOL0     C 4208   7.484   8.121   3.202 -0.4694  1.1842  0.4621
  756MOL0     C 4209   7.607   8.128   3.271 -1.3668  0.1859 -0.6347
  756MOL0     C 4210   7.622   8.210   3.396 -0.4844 -0.4869 -0.5061
  756MOL0     C 4211   7.597   8.114   3.519 -0.5488 -0.4026 -1.4465
  756MOL0     C 4212   7.451   8.146   3.560 -0.0717  1.1409 -0.4060
  756MOL0     C 4213   7.426   8.083   3.702 -0.9592  0.0932 -0.3070
  756MOL0     O 4214   7.495   8.159   3.805 -0.1083  0.0546 -0.3421
  756MOL0     C 4215   7.447   8.277   3.857 -0.6381  0.2694  1.0005
  756MOL0     C 4216   7.529   8.341   3.953 -0.1113  0.7872 -0.1613
  756MOL0     C 4217   7.479   8.452   4.015  0.3843 -0.4692 -0.1722
  756MOL0     C 4218   7.577   8.503   4.116 -0.7230  0.0319  0.7631
  756MOL0     C 4219   7.357   8.518   3.981 -0.2175 -0.6814  0.9687
  756MOL0     C 4220   7.297   8.647   4.031 -0.2811  0.8061  0.6391
  756MOL0     O 4221   7.363   8.706   4.137 -0.2885  0.2618  0.1822
  756MOL0     C 4222   7.314   8.829   4.182 -1.4686  0.1893 -0.2297
  756MOL0     C 4223   7.231   8.822   4.296 -0.8780  0.4919  0.2748
  756MOL0     C 4224   7.186   8.942   4.335 -0.6540  0.0993 -0.5054
  756MOL0     C 4225   7.239   9.067   4.300  1.2003  0.1661  0.2929
  756MOL0     O 4226   7.216   9.184   4.376  0.0188  0.3845 -0.5315
  756MOL0     C 4227   7.191   9.170   4.522 -0.2323  0.1953  0.0651
  756MOL0     C 4228   7.179   9.310   4.584 -0.5583 -1.5591  0.2623
  756MOL0     C 4229   7.085   9.414   4.516 -0.1759 -0.1513  0.9114
  756MOL0     C 4230   6.944   9.361   4.458  0.4662 -0.0962 -0.1272
  756MOL0     C 4231   6.827   9.372   4.564  0.1491  0.2805  0.0666
  756MOL0     C 4232   6.695   9.376   4.494  1.2109 -0.0339  0.0094
  756MOL0     C 4233   6.578   9.367   4.600 -0.7491 -0.3934 -0.3887
  756MOL0     C 4234   6.546   9.506   4.664  0.3416 -0.9603  0.5068
  756MOL0    Cl 4235   6.412   9.490   4.772 -0.5028  0.5344  0.0274
  756MOL0     C 4236   7.329   9.067   4.192  1.0499  0.3295 -0.6483
  756MOL0     C 4237   7.360   8.950   4.137 -0.4766 -0.0457 -0.5289
  756MOL0     O 4238   7.201   8.695   3.970 -0.3994 -0.1658  0.4611
  756MOL0     C 4239   7.291   8.453   3.872  0.2205 -1.1261 -0.8182
  756MOL0     C 4240   7.334   8.342   3.810  0.2762  0.8870 -0.6680
  756MOL0     N 4241   7.698   8.045   3.213 -0.4637  0.3998  0.5111
  756MOL0     N 4242   7.643   7.999   3.103  0.0257 -0.3255  0.2201
  756MOL0     C 4243   6.475   8.558   2.826 -1.1984  0.2532  0.5464
  756MOL0     C 4244   6.374   8.611   2.918 -0.7119  0.1673  1.5092
  756MOL0     C 4245   6.104   8.673   3.284  0.1323 -0.2085  0.3343
  756MOL0     C 4246   6.070   8.593   3.387  0.2900 -0.3321  0.9478
  756MOL0     C 4247   5.996   8.639   3.498  0.4027  1.2206 -0.2909
  756MOL0     C 4248   5.966   8.766   3.508  0.9666  0.2064  0.5501
  756MOL0     O 4249   5.893   8.806   3.619  0.6124 -0.4915  0.3802
  756MOL0     C 4250   5.887   8.944   3.658 -0.3250 -0.2272 -0.6068
  756MOL0     C 4251   5.856   8.943   3.797  0.1837  0.1028  0.4171
  756MOL0     C 4252   5.839   9.090   3.855  0.2227  0.2274  0.5217
  756MOL0     C 4253   5.848   9.091   4.005 -0.6005 -0.2135  0.4472
  756MOL0     C 4254   5.906   9.215   4.043  0.1325 -0.5849 -0.0720
  756MOL0     C 4255   5.944   9.330   4.054 -0.6041  0.3471  0.7006
  756MOL0     C 4256   6.002   8.856   3.411 -0.8381  0.5212  0.4850
  756MOL0     C 4257   6.074   8.808   3.305  0.1186 -1.3202 -0.6131
  756MOL0     C 4258   6.108   8.910   3.197 -0.1971  0.1354 -0.0589
  756MOL0     H 4259   6.502   8.545   3.221 -2.6784  0.1309  0.0629
  756MOL0     H 4260   6.692   8.475   3.074 -0.7245 -0.0212  1.7598
  756MOL0     H 4261   6.790   8.330   2.902  0.7660  0.2396 -0.6515
  756MOL0     H 4262   6.854   8.508   2.909  3.6250  2.9957 -3.3271
  756MOL0     H 4263   6.859   8.318   2.678 -1.1537  0.7083  2.0157
  756MOL0     H 4264   6.933   8.480   2.675 -0.3640 -0.1338 -2.4469
  756MOL0     H 4265   7.083   8.428   2.867 -3.2841  1.5322  0.2308
  756MOL0     H 4266   7.033   8.255   2.876  2.1983  0.4121  0.5335
  756MOL0     H 4267   7.100   8.225   2.645  0.4323 -0.2738  0.5974
  756MOL0     H 4268   7.168   8.392   2.646 -0.7063  0.5710 -0.4054
  756MOL0     H 4269   7.324   8.319   2.824  0.4475 -1.8933  0.9150
  756MOL0     H 4270   7.346   8.224   2.678  0.1083 -0.0790  0.1384
  756MOL0     H 4271   7.200   8.127   2.918 -2.1082 -3.5719 -2.0032
  756MOL0     H 4272   7.212   8.053   2.770 -4.7780  1.0171  1.5983
  756MOL0     H 4273   7.459   8.159   2.895 -0.9950 -0.2755  0.0628
  756MOL0     H 4274   7.442   8.002   2.802  0.8089 -1.5636  1.6667
  756MOL0     H 4275   7.297   8.000   3.069  1.1499 -3.7732  2.4690
  756MOL0     H 4276   7.399   7.884   2.988 -0.7035 -0.0389 -1.0020
  756MOL0     H 4277   7.395   8.179   3.227  1.1280  2.5806  3.2573
  756MOL0     H 4278   7.551   8.293   3.391  1.5906  1.3412 -1.0808
  756MOL0     H 4279   7.726   8.244   3.398  0.0383 -2.0642  1.1757
  756MOL0     H 4280   7.618   8.011   3.491 -1.6850 -0.7322 -1.1406
  756MOL0     H 4281   7.663   8.147   3.600  0.8133 -0.2450 -2.5858
  756MOL0     H 4282   7.425   8.252   3.553  1.0487  1.3591 -2.0272
  756MOL0     H 4283   7.407   8.098   3.472  2.1591  0.4048 -1.1948
  756MOL0     H 4284   7.320   8.059   3.710 -0.4832 -2.9929 -1.7926
  756MOL0     H 4285   7.466   7.981   3.692 -0.7589  0.2796 -1.4660
  756MOL0     H 4286   7.624   8.297   3.982  0.0598  0.9566 -0.4548
  756MOL0     H 4287   7.534   8.514   4.216 -0.5642  1.0639  0.7218
  756MOL0     H 4288   7.613   8.603   4.093  1.9534 -0.9824  0.2018
  756MOL0     H 4289   7.668   8.443   4.117 -1.9344 -1.9067  1.7453
  756MOL0     H 4290   7.202   8.730   4.344 -0.0186 -1.9725 -3.4843
  756MOL0     H 4291   7.122   8.936   4.423  2.2105 -1.6388  1.6671
  756MOL0     H 4292   7.091   9.129   4.533 -0.6981  1.5506  1.2408
  756MOL0     H 4293   7.261   9.113   4.584 -3.3388 -1.3597  2.3943
  756MOL0     H 4294   7.152   9.306   4.690 -2.8438 -0.0656 -0.1815
  756MOL0     H 4295   7.277   9.359   4.581 -1.0013 -0.6842 -0.2921
  756MOL0     H 4296   7.145   9.456   4.434 -0.5028  0.2916  0.9004
  756MOL0     H 4297   7.062   9.492   4.589  1.7656  0.6266  0.7599
  756MOL0     H 4298   6.950   9.261   4.413  0.1405  0.1887 -0.8094
  756MOL0     H 4299   6.926   9.430   4.375 -1.3803 -1.1390 -0.6627
  756MOL0     H 4300   6.823   9.284   4.629 -0.7799  1.3877  1.5844
  756MOL0     H 4301   6.836   9.455   4.636 -0.0780 -0.3916  0.8872
  756MOL0     H 4302   6.685   9.285   4.435 -1.3533  0.9153 -1.1849
  756MOL0     H 4303   6.689   9.463   4.427  1.1064  2.3628  2.8825
  756MOL0     H 4304   6.600   9.289   4.674 -2.9468  0.0485  0.8112
  756MOL0     H 4305   6.488   9.330   4.552 -1.1305 -2.5380  1.7995
  756MOL0     H 4306   6.519   9.583   4.591  0.5924 -3.0318 -1.9101
  756MOL0     H 4307   6.631   9.547   4.720  1.2366  0.0243 -1.4662
  756MOL0     H 4308   7.366   9.164   4.161  2.3271 -1.3300 -5.2569
  756MOL0     H 4309   7.438   8.965   4.063  1.7250  3.3211  2.1440
  756MOL0     H 4310   7.205   8.487   3.814 -0.4296 -1.0023  0.1853
  756MOL0     H 4311   7.265   8.294   3.740 -0.7177  0.3436  0.6376
  756MOL0     H 4312   6.471   8.552   2.718  1.5918 -2.7020  0.4319
  756MOL0     H 4313   6.286   8.648   2.867 -1.9232 -4.8071 -0.6835
  756MOL0     H 4314   6.094   8.489   3.366  1.6223  0.5669 -2.6923
  756MOL0     H 4315   5.967   8.571   3.577 -1.2777  1.3953 -0.7165
  756MOL0     H 4316   5.971   9.007   3.630 -1.2883 -0.1214 -3.5221
  756MOL0     H 4317   5.797   8.982   3.609 -1.0015 -2.8310 -1.5614
  756MOL0     H 4318   5.947   8.899   3.839 -0.5613 -1.3495  0.5740
  756MOL0     H 4319   5.763   8.890   3.820 -1.8901  2.3225 -2.2514
  756MOL0     H 4320   5.916   9.141   3.795 -1.9843 -3.0787 -6.1947
  756MOL0     H 4321   5.741   9.125   3.821  0.1291 -0.5525 -0.0227
  756MOL0     H 4322   5.906   9.009   4.050 -0.8958 -1.6792 -1.6979
  756MOL0     H 4323   5.747   9.074   4.044 -0.9404 -0.4200 -0.4987
  756MOL0     H 4324   5.976   9.430   4.077  1.3423 -0.1969  0.5198
  756MOL0     H 4325   5.969   8.959   3.409 -2.0436  0.1701  1.1679
  756MOL0     H 4326   6.018   8.969   3.174 -0.9046 -0.9076 -0.0440
  756MOL0     H 4327   6.195   8.967   3.231 -0.9883  0.4027  1.6442
  756MOL0     H 4328   6.119   8.868   3.096  0.8257 -0.4190  0.2730
  757MOL0     O 4329   7.358   2.481   0.064 -0.2883  0.6023 -0.5868
  757MOL0     C 4330   7.264   2.534   0.124  0.1838 -0.5563 -0.7753
  757MOL0     O 4331   7.270   2.656   0.179  0.1606 -0.0110  0.6554
  757MOL0     C 4332   7.324   2.765   0.116  0.6362  0.9915  0.7160
  757MOL0     C 4333   7.353   2.872   0.194  0.4993 -0.2492 -0.3810
  757MOL0     C 4334   7.399   2.995   0.149  0.1011  0.4988 -0.0880
  757MOL0     C 4335   7.440   3.012   0.010  0.6073 -0.2873  0.6581
  757MOL0     O 4336   7.489   3.126  -0.054  0.1364  0.0957  0.2695
  757MOL0     C 4337   7.474   3.248   0.020  0.4274  0.5642 -0.9927
  757MOL0     C 4338   7.532   3.364  -0.065 -0.4338 -1.1245 -0.2469
  757MOL0     C 4339   7.418   3.438  -0.112  0.7705  0.2597 -0.4132
  757MOL0     C 4340   7.358   3.549  -0.020 -0.6358 -0.1495  0.5791
  757MOL0     C 4341   7.199   3.577  -0.042 -0.0658  0.4742 -0.4534
  757MOL0     C 4342   7.157   3.686   0.045 -0.5020  1.0302  0.0722
  757MOL0     C 4343   7.011   3.729   0.024  0.4058 -0.4175 -0.5297
  757MOL0     C 4344   7.015   3.831  -0.094  0.0115 -0.3960  0.2946
  757MOL0     N 4345   6.877   3.876  -0.114 -0.8057  0.0352  0.2386
  757MOL0     C 4346   6.784   3.832  -0.212 -0.7705  0.3482 -0.3567
  757MOL0     C 4347   6.670   3.891  -0.173  0.1106 -0.0564  0.0061
  757MOL0     C 4348   6.533   3.893  -0.244  0.2626 -0.4756 -0.2648
  757MOL0     C 4349   6.483   3.749  -0.280 -0.7110  0.4746  0.3687
  757MOL0     C 4350   6.467   3.642  -0.183 -0.6608 -0.3475 -0.6563
  757MOL0     C 4351   6.337   3.638  -0.085  0.0518  1.5459 -0.3647
  757MOL0     O 4352   6.369   3.525   0.001  0.5218 -0.0421 -1.1471
  757MOL0     C 4353   6.264   3.441   0.031 -0.6659  0.6233  0.4636
  757MOL0     C 4354   6.128   3.470   0.025  0.5150 -0.1376 -0.4628
  757MOL0     C 4355   6.022   3.375   0.036 -1.2881 -0.0845 -0.3121
  757MOL0     C 4356   5.880   3.410   0.036  0.5908 -0.8169 -0.1010
  757MOL0     C 4357   6.070   3.237   0.076  1.4312 -0.1194 -0.6055
  757MOL0     C 4358   5.980   3.119   0.108 -1.0309 -0.2462 -0.2989
  757MOL0     O 4359   5.864   3.137   0.174  0.4137  0.3214 -0.3164
  757MOL0     C 4360   5.791   3.016   0.209  0.3321 -0.9461  0.3840
  757MOL0     C 4361   5.753   2.924   0.118 -0.6648  0.3010  0.7188
  757MOL0     C 4362   5.690   2.800   0.158  0.4248  0.7479 -0.9025
  757MOL0     C 4363   5.637   2.792   0.290 -0.0073 -0.2138  1.2419
  757MOL0     O 4364   5.554   2.696   0.330 -0.1702  0.2399 -0.1368
  757MOL0     C 4365   5.617   2.563   0.325 -0.0631 -0.5338  0.0371
  757MOL0     C 4366   5.591   2.481   0.453 -0.8572  0.1026  0.6059
  757MOL0     C 4367   5.602   2.331   0.424 -0.2678 -0.9086  0.2005
  757MOL0     C 4368   5.562   2.259   0.551 -0.5212 -0.1091  0.6572
  757MOL0     C 4369   5.580   2.109   0.539 -0.0786  1.0309 -0.8759
  757MOL0     C 4370   5.484   2.053   0.436 -0.8659 -0.2993  0.0115
  757MOL0     C 4371   5.408   1.940   0.489  0.2660  0.0413  0.6553
  757MOL0     C 4372   5.494   1.818   0.506 -0.6758 -0.7096 -0.0629
  757MOL0    Cl 4373   5.587   1.785   0.356 -0.2546 -0.0199 -0.3854
  757MOL0     C 4374   5.657   2.901   0.377 -0.6909  0.1167 -0.0560
  757MOL0     C 4375   5.742   3.002   0.335 -0.5842 -0.1764  0.0810
  757MOL0     O 4376   6.030   3.013   0.085  0.7620  0.2910  0.1923
  757MOL0     C 4377   6.203   3.210   0.069  0.2674 -0.1612  0.2710
  757MOL0     C 4378   6.303   3.307   0.044 -0.1909  0.4100 -0.1077
  757MOL0     N 4379   6.697   3.980  -0.069  0.7207 -0.2382 -0.0365
  757MOL0     N 4380   6.822   3.974  -0.040  0.1405 -0.0993 -0.9538
  757MOL0     C 4381   7.423   2.897  -0.070 -1.3251 -0.2574 -0.6048
  757MOL0     C 4382   7.360   2.780  -0.023  0.3741 -0.8573 -0.0371
  757MOL0     C 4383   7.147   2.456   0.144  0.0840  0.0088 -0.0889
  757MOL0     C 4384   7.055   2.487   0.243  0.7512 -0.4525 -1.0807
  757MOL0     C 4385   6.931   2.416   0.262 -0.7839 -0.2789 -0.6112
  757MOL0     C 4386   6.896   2.317   0.175  0.5632  0.1706 -0.3798
  757MOL0     O 4387   6.777   2.259   0.206 -0.0841 -0.0641  0.3324
  757MOL0     C 4388   6.721   2.161   0.113  0.5623 -0.5034 -0.4920
  757MOL0     C 4389   6.604   2.093   0.186  0.0802  1.2992  0.0026
  757MOL0     C 4390   6.536   2.006   0.082 -0.0409  0.6224 -0.4379
  757MOL0     C 4391   6.396   1.943   0.143  0.1875 -0.5189  0.0208
  757MOL0     C 4392   6.362   1.828   0.069 -0.3835  0.4533 -0.3156
  757MOL0     C 4393   6.335   1.737   0.002  0.4130  0.6065 -0.6786
  757MOL0     C 4394   6.983   2.281   0.068  0.8854 -0.5129 -0.1583
  757MOL0     C 4395   7.111   2.350   0.053  1.6820  1.1596  0.4347
  757MOL0     C 4396   7.189   2.310  -0.069  0.5022  0.4628  0.0608
  757MOL0     H 4397   7.337   2.860   0.301 -2.2831  0.1748 -0.6602
  757MOL0     H 4398   7.409   3.078   0.218 -2.7857  2.1024 -1.3958
  757MOL0     H 4399   7.539   3.232   0.107  1.3147  3.4548 -1.0061
  757MOL0     H 4400   7.370   3.267   0.048 -0.2115  3.4262 -4.5541
  757MOL0     H 4401   7.599   3.416   0.004 -1.3750 -2.6672  1.9532
  757MOL0     H 4402   7.583   3.327  -0.154  0.4552 -2.3159  0.7026
  757MOL0     H 4403   7.446   3.483  -0.208  1.3608 -0.0558 -0.3942
  757MOL0     H 4404   7.337   3.366  -0.122  0.9516 -0.0554  0.3024
  757MOL0     H 4405   7.371   3.528   0.087  0.8992  3.0779  1.1620
  757MOL0     H 4406   7.406   3.641  -0.054 -1.9259 -0.1234 -1.2749
  757MOL0     H 4407   7.143   3.489  -0.012 -0.2853  1.7939  3.4796
  757MOL0     H 4408   7.180   3.607  -0.146 -0.6728 -0.3769 -0.5939
  757MOL0     H 4409   7.166   3.650   0.148 -4.1547  1.2341  0.6236
  757MOL0     H 4410   7.227   3.769   0.032  1.9497 -1.1840 -1.7705
  757MOL0     H 4411   6.965   3.784   0.107  1.3423  2.6099 -1.8983
  757MOL0     H 4412   6.948   3.642   0.002  0.5388 -1.3367  2.2893
  757MOL0     H 4413   7.092   3.907  -0.079  0.0642 -0.8737  2.8621
  757MOL0     H 4414   7.051   3.773  -0.180  0.7029  1.8353 -0.9979
  757MOL0     H 4415   6.786   3.765  -0.298 -0.4101  0.5118 -0.4756
  757MOL0     H 4416   6.534   3.958  -0.332 -1.9311  1.8402  1.2683
  757MOL0     H 4417   6.452   3.938  -0.185  1.5727 -2.9525  3.8912
  757MOL0     H 4418   6.381   3.757  -0.318 -2.1711  2.4761  4.2525
  757MOL0     H 4419   6.545   3.710  -0.361 -0.6721  1.0458  0.1165
  757MOL0     H 4420   6.486   3.545  -0.229 -0.0775 -0.6793  0.2571
  757MOL0     H 4421   6.553   3.652  -0.115 -1.3175 -0.6308  0.2448
  757MOL0     H 4422   6.322   3.729  -0.026 -2.4530  0.0480  1.5301
  757MOL0     H 4423   6.259   3.624  -0.160  1.6893  0.6639 -1.9885
  757MOL0     H 4424   6.118   3.575  -0.001  2.2152  0.6453  1.7074
  757MOL0     H 4425   5.825   3.366  -0.047  1.1044 -2.9891  0.6295
  757MOL0     H 4426   5.861   3.515   0.016 -0.9868 -1.1823 -0.6558
  757MOL0     H 4427   5.827   3.379   0.127  1.6386  0.8804  1.1490
  757MOL0     H 4428   5.793   2.917   0.017 -1.0612 -4.0517  0.6970
  757MOL0     H 4429   5.664   2.723   0.087 -1.5494  1.1796 -0.6990
  757MOL0     H 4430   5.589   2.509   0.234  0.9009 -2.8051  1.0290
  757MOL0     H 4431   5.725   2.566   0.306 -0.1341  0.0517 -0.3011
  757MOL0     H 4432   5.672   2.513   0.519  0.5749  0.4346 -1.2124
  757MOL0     H 4433   5.499   2.507   0.505 -1.2357 -2.3466  1.3037
  757MOL0     H 4434   5.705   2.324   0.389 -0.4349  1.5457 -1.0018
  757MOL0     H 4435   5.537   2.305   0.340 -2.5025  0.4031  1.4123
  757MOL0     H 4436   5.459   2.291   0.573  0.2463  3.4618 -0.2641
  757MOL0     H 4437   5.618   2.293   0.639 -1.3022 -1.0470  1.5490
  757MOL0     H 4438   5.685   2.096   0.513 -0.9565 -1.5368 -3.6485
  757MOL0     H 4439   5.564   2.061   0.636 -2.9650  2.0072 -0.7760
  757MOL0     H 4440   5.536   2.039   0.341 -1.7594  1.3001 -0.7647
  757MOL0     H 4441   5.404   2.121   0.407 -0.6493 -0.2620 -0.5059
  757MOL0     H 4442   5.326   1.935   0.416 -2.5063  0.7181  3.4784
  757MOL0     H 4443   5.346   1.964   0.577  1.6440 -1.2651  2.0438
  757MOL0     H 4444   5.427   1.735   0.529 -1.5919  0.3425  1.2860
  757MOL0     H 4445   5.553   1.822   0.598  1.8956 -0.3772 -1.6315
  757MOL0     H 4446   5.624   2.911   0.480 -0.3713 -1.1592  0.1832
  757MOL0     H 4447   5.769   3.080   0.406  2.8360  0.4386 -1.6968
  757MOL0     H 4448   6.235   3.110   0.098 -3.2306 -2.8833 -3.8943
  757MOL0     H 4449   6.404   3.270   0.052 -0.6443 -0.6053  1.1703
  757MOL0     H 4450   7.444   2.916  -0.174  2.6180  1.7508  0.3956
  757MOL0     H 4451   7.345   2.700  -0.094  0.2015  1.2574 -2.5295
  757MOL0     H 4452   7.090   2.564   0.310 -1.6161 -1.3240  1.3956
  757MOL0     H 4453   6.860   2.446   0.339  0.3725  0.1056  0.3276
  757MOL0     H 4454   6.686   2.221   0.029  0.2336  2.6424  1.7232
  757MOL0     H 4455   6.788   2.081   0.081 -0.2380 -0.2015 -3.1501
  757MOL0     H 4456   6.539   2.173   0.223 -0.9813 -0.9252  3.5326
  757MOL0     H 4457   6.633   2.025   0.267 -2.4005  2.9596  2.4839
  757MOL0     H 4458   6.506   2.077   0.004 -3.9668  1.2208  1.3809
  757MOL0     H 4459   6.608   1.930   0.050  0.3381  0.1584  1.4459
  757MOL0     H 4460   6.307   2.008   0.146 -0.7596 -1.6974 -1.3972
  757MOL0     H 4461   6.419   1.908   0.244  1.5529  0.5613  0.1191
  757MOL0     H 4462   6.309   1.644  -0.044 -0.2451  0.5811 -0.2683
  757MOL0     H 4463   6.957   2.199   0.001  2.2952 -1.1483  0.0234
  757MOL0     H 4464   7.140   2.231  -0.125 -0.6500  0.0467  1.5997
  757MOL0     H 4465   7.208   2.400  -0.129  3.6065 -2.4094 -3.8959
  757MOL0     H 4466   7.281   2.261  -0.035  1.1931  1.5613 -0.1340
  758MOL0     O 4467   9.294   1.337   0.211  0.6373  0.3278 -0.2901
  758MOL0     C 4468   9.348   1.426   0.155 -0.1932  0.2395  0.1317
  758MOL0     O 4469   9.297   1.512   0.053  0.2712 -0.4116  0.3683
  758MOL0     C 4470   9.161   1.528   0.037  0.2671 -0.1334 -0.6680
  758MOL0     C 4471   9.072   1.530   0.137  0.2205 -0.1770 -0.0762
  758MOL0     C 4472   8.937   1.559   0.125  0.3815 -0.4197 -0.1655
  758MOL0     C 4473   8.877   1.568  -0.009 -1.3001 -1.3737  0.3685
  758MOL0     O 4474   8.746   1.580  -0.047 -0.5299  0.6535 -0.6384
  758MOL0     C 4475   8.661   1.495   0.039 -0.4012 -0.1840 -0.3032
  758MOL0     C 4476   8.512   1.491  -0.004  0.7571  0.4639  0.1470
  758MOL0     C 4477   8.431   1.611   0.050 -0.3828 -0.9035  0.8681
  758MOL0     C 4478   8.387   1.583   0.192 -0.1573 -0.0896 -0.3950
  758MOL0     C 4479   8.320   1.708   0.244  0.2248 -0.4191  0.3993
  758MOL0     C 4480   8.267   1.701   0.390 -0.4497  0.4729  0.6542
  758MOL0     C 4481   8.149   1.595   0.402  0.9676  0.4647  0.2375
  758MOL0     C 4482   8.033   1.634   0.298 -0.6875  0.3416  0.0770
  758MOL0     N 4483   7.982   1.766   0.294 -0.2036 -0.4552 -0.5034
  758MOL0     C 4484   7.948   1.853   0.194 -0.4363  0.4323 -0.5709
  758MOL0     C 4485   7.897   1.967   0.248  0.6147  0.3887  0.6252
  758MOL0     C 4486   7.806   2.062   0.172  1.0633  0.1095 -1.0445
  758MOL0     C 4487   7.858   2.210   0.160  0.2539 -0.5839 -0.4377
  758MOL0     C 4488   7.781   2.302   0.063 -0.5563  0.0263  0.2105
  758MOL0     C 4489   7.835   2.446   0.048  1.0168 -0.3760  0.0438
  758MOL0     O 4490   7.976   2.448   0.059  0.5445  0.2630 -0.4621
  758MOL0     C 4491   8.030   2.559   0.121  0.3350 -0.8185 -0.5403
  758MOL0     C 4492   8.036   2.688   0.054 -0.5590 -0.3376 -0.7350
  758MOL0     C 4493   8.088   2.797   0.114 -0.2547  0.0262 -0.8716
  758MOL0     C 4494   8.077   2.929   0.048 -0.2931  0.9934 -0.2613
  758MOL0     C 4495   8.123   2.798   0.247  0.4016  0.6140 -0.2189
  758MOL0     C 4496   8.180   2.916   0.312 -0.1039 -0.7830  0.4569
  758MOL0     O 4497   8.285   2.972   0.246 -0.1075  0.3930  0.3527
  758MOL0     C 4498   8.376   3.063   0.288  0.3580 -0.1055 -1.0254
  758MOL0     C 4499   8.497   3.089   0.209  0.9875  0.1997  1.1794
  758MOL0     C 4500   8.587   3.179   0.251 -0.3128 -0.6499  0.0019
  758MOL0     C 4501   8.570   3.255   0.371  0.3125  0.3374  0.5801
  758MOL0     O 4502   8.653   3.350   0.410  0.2605 -0.1285  0.0448
  758MOL0     C 4503   8.757   3.398   0.320  0.3515 -0.0154 -0.0437
  758MOL0     C 4504   8.835   3.517   0.373 -0.4304  0.3402 -0.7184
  758MOL0     C 4505   8.958   3.539   0.290  0.1620  0.1518  0.6514
  758MOL0     C 4506   9.048   3.629   0.360  0.6749 -0.3566  0.2468
  758MOL0     C 4507   9.178   3.657   0.288 -0.5660 -0.5446  0.3016
  758MOL0     C 4508   9.183   3.696   0.139 -0.2050 -0.0102 -0.5017
  758MOL0     C 4509   9.318   3.724   0.076  0.4195 -0.2627 -1.7544
  758MOL0     C 4510   9.389   3.599   0.043 -1.6022  1.1917  0.1183
  758MOL0    Cl 4511   9.561   3.630   0.027 -0.0566 -0.3716 -0.0688
  758MOL0     C 4512   8.462   3.234   0.451 -0.6362 -0.5722  0.3142
  758MOL0     C 4513   8.363   3.147   0.408  0.0192 -0.8447  0.9615
  758MOL0     O 4514   8.125   2.959   0.414  0.7486  0.5285 -0.6965
  758MOL0     C 4515   8.110   2.676   0.321  0.6404 -1.2183 -0.5251
  758MOL0     C 4516   8.066   2.556   0.258 -0.3820 -0.6641  0.3159
  758MOL0     N 4517   7.896   1.940   0.378 -0.3348  0.1906 -0.4654
  758MOL0     N 4518   7.950   1.830   0.411  0.0786 -0.6283 -0.3631
  758MOL0     C 4519   8.976   1.571  -0.114  0.0865 -0.5330  0.3776
  758MOL0     C 4520   9.113   1.560  -0.092 -0.2778  1.6375  0.0053
  758MOL0     C 4521   9.499   1.428   0.173  0.0050 -0.0983 -0.4968
  758MOL0     C 4522   9.579   1.394   0.061 -0.2303  0.2139  0.0526
  758MOL0     C 4523   9.719   1.397   0.060  0.0826 -0.2528 -0.1011
  758MOL0     C 4524   9.793   1.429   0.187 -0.3434 -0.1043  0.0079
  758MOL0     O 4525   9.929   1.431   0.196 -1.0288  0.3285 -0.2998
  758MOL0     C 4526  10.015   1.419   0.089 -0.2337 -0.3542  0.6468
  758MOL0     C 4527  10.069   1.287   0.045  0.2385  0.1661 -0.2800
  758MOL0     C 4528  10.174   1.233   0.151 -0.4833 -0.1795 -0.2285
  758MOL0     C 4529  10.124   1.227   0.300 -0.6130 -0.4458  0.5335
  758MOL0     C 4530  10.216   1.136   0.372 -0.6470 -0.7566 -0.1277
  758MOL0     C 4531  10.306   1.064   0.407  0.3769  0.0752 -0.4230
  758MOL0     C 4532   9.705   1.446   0.306  0.1678  0.3606 -0.1779
  758MOL0     C 4533   9.566   1.454   0.293 -0.5208 -0.3313 -0.2337
  758MOL0     C 4534   9.492   1.468   0.419 -0.0253 -0.0795 -0.8240
  758MOL0     H 4535   9.108   1.521   0.239 -2.6897  2.6696  1.4099
  758MOL0     H 4536   8.876   1.557   0.215  3.5421 -1.6860  2.1603
  758MOL0     H 4537   8.675   1.530   0.142 -2.2600  2.1013 -0.7443
  758MOL0     H 4538   8.697   1.393   0.026 -2.7116 -1.1351  0.3648
  758MOL0     H 4539   8.518   1.497  -0.113  0.4392  1.9125  0.1963
  758MOL0     H 4540   8.474   1.396   0.035 -2.9651  3.0529  3.6632
  758MOL0     H 4541   8.497   1.698   0.041 -1.1115 -0.4213  0.0658
  758MOL0     H 4542   8.349   1.628  -0.020 -0.2600  2.4125  1.3954
  758MOL0     H 4543   8.319   1.498   0.186 -3.0046  1.7056  2.5765
  758MOL0     H 4544   8.464   1.554   0.264 -0.6151 -0.1529  0.0746
  758MOL0     H 4545   8.243   1.744   0.175 -2.5449 -3.8419  1.3725
  758MOL0     H 4546   8.393   1.789   0.240 -1.5716  1.3159  1.1736
  758MOL0     H 4547   8.346   1.666   0.456 -0.6436 -2.4653 -0.4917
  758MOL0     H 4548   8.238   1.803   0.415  0.6161  1.5390 -2.0629
  758MOL0     H 4549   8.106   1.618   0.499  0.2807  0.0958  0.0237
  758MOL0     H 4550   8.173   1.488   0.395  1.0826  0.5068 -0.0609
  758MOL0     H 4551   8.063   1.618   0.194  0.8503  1.9675  0.2318
  758MOL0     H 4552   7.940   1.577   0.309  0.1702 -1.0967  0.0621
  758MOL0     H 4553   7.940   1.821   0.090 -2.2853 -3.6733  0.6106
  758MOL0     H 4554   7.715   2.061   0.231  1.7959 -1.5559  0.1353
  758MOL0     H 4555   7.781   2.024   0.073  3.5915 -0.3231 -1.5887
  758MOL0     H 4556   7.870   2.249   0.261  2.2163  0.2555 -0.9425
  758MOL0     H 4557   7.961   2.196   0.126  0.7101 -0.9761  1.0442
  758MOL0     H 4558   7.798   2.259  -0.036  3.2978  2.5916 -0.4698
  758MOL0     H 4559   7.674   2.288   0.081 -0.0777 -1.8266  1.9822
  758MOL0     H 4560   7.797   2.479  -0.049 -0.7061 -1.4474  0.3153
  758MOL0     H 4561   7.804   2.525   0.117 -0.4545 -1.8358  1.1330
  758MOL0     H 4562   8.006   2.686  -0.050 -1.0206 -3.0762 -0.6332
  758MOL0     H 4563   8.167   2.991   0.045  0.2420  0.2081 -0.8500
  758MOL0     H 4564   8.004   2.994   0.097  1.5428  1.8619  1.4757
  758MOL0     H 4565   8.039   2.909  -0.053  1.5848  1.3796 -1.0833
  758MOL0     H 4566   8.517   3.036   0.117 -4.0127 -0.9973  0.4789
  758MOL0     H 4567   8.676   3.181   0.190  0.8820 -0.0358  1.6756
  758MOL0     H 4568   8.813   3.309   0.290 -0.6581 -0.2180 -1.4659
  758MOL0     H 4569   8.703   3.416   0.227  0.9156 -0.6869 -0.5103
  758MOL0     H 4570   8.768   3.603   0.380  1.2645  1.6081  0.8178
  758MOL0     H 4571   8.850   3.503   0.480 -0.3437 -1.8938 -0.9734
  758MOL0     H 4572   8.938   3.584   0.193  4.2665  1.9107  0.4041
  758MOL0     H 4573   9.004   3.442   0.268 -0.5238  0.0838 -0.5713
  758MOL0     H 4574   9.081   3.593   0.458  0.2843 -2.6056 -0.3913
  758MOL0     H 4575   8.998   3.726   0.369 -0.1418 -0.7109 -0.2705
  758MOL0     H 4576   9.234   3.730   0.346 -0.2525 -2.6467  2.8274
  758MOL0     H 4577   9.234   3.564   0.304 -2.1620 -1.4838  0.7418
  758MOL0     H 4578   9.107   3.772   0.123  0.0721  0.4442  0.3168
  758MOL0     H 4579   9.141   3.617   0.075 -0.3728  0.0544 -0.4713
  758MOL0     H 4580   9.371   3.775   0.157  0.3204 -0.5537 -1.5055
  758MOL0     H 4581   9.308   3.786  -0.014  0.8597 -2.7540 -3.6242
  758MOL0     H 4582   9.361   3.549  -0.050 -1.7006 -0.6655  1.0915
  758MOL0     H 4583   9.379   3.519   0.118  2.2990 -3.3405 -3.5064
  758MOL0     H 4584   8.450   3.289   0.544 -1.5706  0.1044 -0.1844
  758MOL0     H 4585   8.271   3.145   0.465 -1.7281 -2.8055 -1.7115
  758MOL0     H 4586   8.131   2.671   0.428 -1.5333 -4.5230 -0.0897
  758MOL0     H 4587   8.054   2.465   0.316  2.3597 -0.6894  0.9908
  758MOL0     H 4588   8.957   1.587  -0.220  2.7930 -0.5703 -0.1870
  758MOL0     H 4589   9.179   1.559  -0.177 -0.6198 -3.7707 -0.5626
  758MOL0     H 4590   9.525   1.363  -0.028 -4.0808 -1.4724  2.7178
  758MOL0     H 4591   9.768   1.350  -0.025  0.6361 -3.9777  2.0843
  758MOL0     H 4592   9.975   1.469   0.001  0.5910 -1.2293 -0.2602
  758MOL0     H 4593  10.101   1.481   0.113 -1.8029  1.8604  0.8226
  758MOL0     H 4594  10.115   1.305  -0.052  0.4045 -3.3305 -1.0126
  758MOL0     H 4595   9.993   1.208   0.037  0.9369 -1.0744  3.4207
  758MOL0     H 4596  10.206   1.132   0.125  0.5295  0.1805 -0.3917
  758MOL0     H 4597  10.264   1.294   0.151  0.7816 -1.9075  1.7738
  758MOL0     H 4598  10.022   1.191   0.316 -1.3594 -0.0381 -2.6831
  758MOL0     H 4599  10.129   1.328   0.343 -1.9607  0.3310 -1.0007
  758MOL0     H 4600  10.367   0.991   0.457 -1.5475 -0.9279  0.5785
  758MOL0     H 4601   9.751   1.453   0.404 -2.5451 -0.6303  1.2895
  758MOL0     H 4602   9.532   1.407   0.501  0.9226 -0.2071 -1.3716
  758MOL0     H 4603   9.491   1.571   0.458 -0.7415 -0.2509 -0.3770
  758MOL0     H 4604   9.389   1.433   0.430  0.3104 -0.3979  5.8286
  759MOL0     O 4605   4.975   6.779   8.509 -0.3599  0.6440  0.0649
  759MOL0     C 4606   4.958   6.710   8.409 -0.5410 -1.0202 -0.9645
  759MOL0     O 4607   4.867   6.725   8.316 -0.5159 -0.4699 -0.1961
  759MOL0     C 4608   4.777   6.820   8.304 -0.5044 -0.1698 -0.0645
  759MOL0     C 4609   4.735   6.906   8.406  1.0365  0.3350 -0.0035
  759MOL0     C 4610   4.627   6.990   8.366 -0.5009 -1.1951 -0.4141
  759MOL0     C 4611   4.564   6.980   8.241 -1.0992 -0.3036  0.1589
  759MOL0     O 4612   4.472   7.069   8.196 -0.4688 -0.0251  0.4770
  759MOL0     C 4613   4.414   7.164   8.278  1.0493  0.2939 -1.1017
  759MOL0     C 4614   4.313   7.244   8.197  0.2937 -0.4037 -0.1661
  759MOL0     C 4615   4.208   7.150   8.129  0.2512  0.1222 -0.6220
  759MOL0     C 4616   4.070   7.221   8.125  0.3428 -1.0533  1.0406
  759MOL0     C 4617   3.972   7.153   8.035  0.3550 -0.3162  0.9669
  759MOL0     C 4618   3.855   7.255   7.992  0.7859  0.3751  0.0906
  759MOL0     C 4619   3.765   7.187   7.885  0.0787  0.2556 -0.4169
  759MOL0     C 4620   3.782   7.253   7.753  0.6450 -0.2571 -0.0245
  759MOL0     N 4621   3.732   7.398   7.757  0.7819  0.2954 -0.2204
  759MOL0     C 4622   3.793   7.496   7.678  1.2781  0.8696 -0.5006
  759MOL0     C 4623   3.707   7.591   7.659 -0.1517  0.3530 -0.2845
  759MOL0     C 4624   3.730   7.714   7.586 -0.2761 -0.7655 -0.4134
  759MOL0     C 4625   3.724   7.678   7.438  0.1431 -0.0579 -0.7455
  759MOL0     C 4626   3.738   7.801   7.352  0.2094  0.2385 -0.2078
  759MOL0     C 4627   3.760   7.777   7.200  0.1295 -0.3330  0.3102
  759MOL0     O 4628   3.869   7.678   7.180  0.1621 -0.0810 -0.3928
  759MOL0     C 4629   3.904   7.623   7.057 -0.1864  0.6721 -0.2277
  759MOL0     C 4630   3.860   7.683   6.940 -0.2646 -1.4140  0.5443
  759MOL0     C 4631   3.925   7.644   6.820 -0.2696 -0.3882  0.1065
  759MOL0     C 4632   3.880   7.705   6.689 -0.7659  0.2287 -0.7118
  759MOL0     C 4633   4.024   7.547   6.816  0.4706 -0.3045  0.8558
  759MOL0     C 4634   4.105   7.523   6.701 -0.2547 -0.4188 -0.3843
  759MOL0     O 4635   4.196   7.624   6.668 -0.2667 -0.5271  0.1205
  759MOL0     C 4636   4.278   7.624   6.553  0.6890 -0.1703 -0.1595
  759MOL0     C 4637   4.304   7.748   6.502  0.3271 -0.1788  0.7774
  759MOL0     C 4638   4.392   7.753   6.393 -0.1055  0.0144 -0.9800
  759MOL0     C 4639   4.456   7.652   6.334 -0.7369  0.1402 -0.2276
  759MOL0     O 4640   4.549   7.664   6.236  0.1233 -0.0139  0.1497
  759MOL0     C 4641   4.552   7.781   6.152  0.2805 -0.7899 -0.1703
  759MOL0     C 4642   4.653   7.763   6.033  0.7477  0.2573  0.6742
  759MOL0     C 4643   4.652   7.623   5.975  0.4475  0.9546  0.8587
  759MOL0     C 4644   4.752   7.598   5.861 -0.4066  0.4087  0.9486
  759MOL0     C 4645   4.720   7.698   5.742  0.0451 -0.1945  0.8232
  759MOL0     C 4646   4.824   7.665   5.632  0.5422  0.7573  0.2525
  759MOL0     C 4647   4.832   7.770   5.521  0.3829  0.3395 -0.1210
  759MOL0     C 4648   4.939   7.736   5.428  0.1971 -0.6157  0.2846
  759MOL0    Cl 4649   5.104   7.708   5.510 -0.2220  0.0997 -0.1395
  759MOL0     C 4650   4.429   7.528   6.395 -0.4393  0.1475 -0.3718
  759MOL0     C 4651   4.339   7.507   6.501  0.7044 -0.1174 -0.2447
  759MOL0     O 4652   4.080   7.419   6.643  0.0603 -0.4470 -0.4831
  759MOL0     C 4653   4.044   7.474   6.934  0.6827 -0.4634  0.2417
  759MOL0     C 4654   3.992   7.515   7.054 -0.6288 -0.1912  0.4898
  759MOL0     N 4655   3.588   7.548   7.735  0.0684 -0.3062  0.6551
  759MOL0     N 4656   3.608   7.436   7.794  0.2344  0.3380  0.5079
  759MOL0     C 4657   4.620   6.896   8.147  0.1024  0.7448  0.7524
  759MOL0     C 4658   4.727   6.820   8.175  0.3633 -0.8633 -0.4863
  759MOL0     C 4659   5.069   6.629   8.363  0.2026  0.1500  1.4745
  759MOL0     C 4660   5.093   6.627   8.221  0.4006  0.2051  0.7106
  759MOL0     C 4661   5.204   6.563   8.174 -0.7578  0.0853 -0.1447
  759MOL0     C 4662   5.287   6.489   8.252  0.5118 -0.2384 -0.6261
  759MOL0     O 4663   5.393   6.431   8.199 -0.3839  0.2635  0.4020
  759MOL0     C 4664   5.494   6.528   8.192 -0.3446 -0.9546 -0.4253
  759MOL0     C 4665   5.581   6.478   8.075 -0.4499  0.4259  0.0925
  759MOL0     C 4666   5.699   6.575   8.040 -0.2923  0.4181 -0.3883
  759MOL0     C 4667   5.785   6.527   7.920 -0.8519  0.3309 -0.1813
  759MOL0     C 4668   5.714   6.482   7.797  0.1972 -0.8569 -0.6151
  759MOL0     C 4669   5.632   6.472   7.710 -0.6359 -0.5514 -0.8470
  759MOL0     C 4670   5.263   6.471   8.393 -0.9421 -1.0386  0.7509
  759MOL0     C 4671   5.159   6.553   8.448  1.3071  0.6328 -0.1577
  759MOL0     C 4672   5.145   6.537   8.598 -0.4734 -0.1814 -0.2939
  759MOL0     H 4673   4.789   6.905   8.500  0.1582  1.6277  0.5383
  759MOL0     H 4674   4.584   7.057   8.440  0.6035 -2.5857  1.5582
  759MOL0     H 4675   4.479   7.241   8.320 -0.0872  2.6507 -3.3928
  759MOL0     H 4676   4.375   7.110   8.365  2.3168 -1.6304 -1.6783
  759MOL0     H 4677   4.273   7.329   8.252  1.5214 -0.1166  0.3087
  759MOL0     H 4678   4.376   7.279   8.114  0.6855 -3.2234 -1.1803
  759MOL0     H 4679   4.235   7.121   8.027 -0.7351 -0.4891 -0.7231
  759MOL0     H 4680   4.194   7.059   8.187 -0.7370 -1.3668 -3.0769
  759MOL0     H 4681   4.030   7.227   8.227  0.7268  1.8234  1.1141
  759MOL0     H 4682   4.084   7.328   8.104  2.4269 -0.9654  2.4944
  759MOL0     H 4683   3.930   7.071   8.094  0.3561  1.8755  4.3062
  759MOL0     H 4684   4.022   7.112   7.947  1.3833  3.2807 -0.3417
  759MOL0     H 4685   3.801   7.288   8.081 -0.7892  0.8375 -1.0037
  759MOL0     H 4686   3.889   7.348   7.946 -0.8982  1.9780  1.9203
  759MOL0     H 4687   3.664   7.164   7.920 -0.8040  1.2879 -2.1733
  759MOL0     H 4688   3.801   7.084   7.873  1.0435  0.6210 -0.7213
  759MOL0     H 4689   3.888   7.261   7.730  0.5967 -3.2651 -1.8191
  759MOL0     H 4690   3.721   7.204   7.677  2.2073  2.4472 -3.3001
  759MOL0     H 4691   3.889   7.488   7.629  1.4812  2.2726 -0.3512
  759MOL0     H 4692   3.831   7.750   7.607 -0.1820 -0.7603 -0.8809
  759MOL0     H 4693   3.666   7.802   7.595 -0.4185 -0.5109 -3.0889
  759MOL0     H 4694   3.800   7.604   7.411  0.3971  0.2919 -0.9983
  759MOL0     H 4695   3.623   7.635   7.427  0.1436 -1.2233  2.7203
  759MOL0     H 4696   3.658   7.872   7.376 -0.1132  0.0977 -0.8440
  759MOL0     H 4697   3.830   7.849   7.386  0.9154 -1.5790  0.5591
  759MOL0     H 4698   3.671   7.747   7.145  0.3429  1.5372 -1.1534
  759MOL0     H 4699   3.775   7.872   7.148 -1.7703 -0.3671 -0.3815
  759MOL0     H 4700   3.787   7.763   6.945  0.6092  0.0391 -4.3846
  759MOL0     H 4701   3.842   7.628   6.622 -0.1024  0.3440 -1.2420
  759MOL0     H 4702   3.959   7.765   6.641 -1.2346  0.6549 -0.9546
  759MOL0     H 4703   3.788   7.762   6.705  0.2487  1.1795  2.5551
  759MOL0     H 4704   4.253   7.835   6.544  0.1896  1.1549 -1.9266
  759MOL0     H 4705   4.412   7.859   6.380  2.2853  0.1751  2.5577
  759MOL0     H 4706   4.448   7.795   6.122 -0.6415 -3.3100  1.5109
  759MOL0     H 4707   4.585   7.863   6.216 -0.8309 -2.4847  2.7496
  759MOL0     H 4708   4.621   7.840   5.962 -0.7230  2.1927  3.2471
  759MOL0     H 4709   4.759   7.773   6.056  0.5145 -0.0346  1.9622
  759MOL0     H 4710   4.552   7.591   5.944  1.0485 -0.3932  0.2080
  759MOL0     H 4711   4.686   7.559   6.057  0.1393  0.3826  0.5531
  759MOL0     H 4712   4.723   7.499   5.826 -3.2360  0.4153  2.9263
  759MOL0     H 4713   4.856   7.607   5.894  0.2069  1.4584 -1.1169
  759MOL0     H 4714   4.616   7.680   5.712  1.0148 -2.5846 -1.3799
  759MOL0     H 4715   4.718   7.802   5.775 -3.1850 -0.4638  1.8159
  759MOL0     H 4716   4.815   7.564   5.590  4.1873 -0.8335  2.7362
  759MOL0     H 4717   4.920   7.673   5.685  1.6238  2.7781 -1.8364
  759MOL0     H 4718   4.837   7.864   5.577  2.7210  1.5184 -2.0971
  759MOL0     H 4719   4.744   7.792   5.460  0.3299 -0.8680 -0.5024
  759MOL0     H 4720   4.942   7.822   5.360  0.6561  1.8722  3.2459
  759MOL0     H 4721   4.911   7.647   5.371 -2.9089  1.5666 -1.9909
  759MOL0     H 4722   4.473   7.431   6.372  2.3674  1.2546 -0.1291
  759MOL0     H 4723   4.304   7.416   6.547 -2.3262 -0.0030 -2.0560
  759MOL0     H 4724   4.100   7.381   6.924 -0.2578 -1.0252  0.0090
  759MOL0     H 4725   4.024   7.480   7.151 -0.5220  0.3327  0.6461
  759MOL0     H 4726   4.586   6.884   8.045  2.6800 -0.9310 -0.0142
  759MOL0     H 4727   4.771   6.753   8.103 -3.2588 -1.1838 -2.6489
  759MOL0     H 4728   5.038   6.682   8.145  1.3665  0.8837  0.4892
  759MOL0     H 4729   5.222   6.574   8.068  0.7037  0.8243  0.1452
  759MOL0     H 4730   5.457   6.628   8.168  0.3473 -0.5526  0.1715
  759MOL0     H 4731   5.558   6.535   8.281 -1.2067  2.6755  0.0365
  759MOL0     H 4732   5.516   6.458   7.989  0.9056 -3.1381 -0.2742
  759MOL0     H 4733   5.611   6.375   8.098 -2.0634  0.0392  0.5777
  759MOL0     H 4734   5.661   6.676   8.025 -1.5176  0.0662  0.1885
  759MOL0     H 4735   5.764   6.576   8.128  3.4031 -2.2921 -2.7688
  759MOL0     H 4736   5.851   6.448   7.957 -2.8828 -1.4415 -0.1269
  759MOL0     H 4737   5.843   6.614   7.888 -1.4176  1.2670  1.2285
  759MOL0     H 4738   5.552   6.448   7.643 -0.5181 -1.7142 -0.5854
  759MOL0     H 4739   5.318   6.416   8.468 -1.1390  0.0602  1.7301
  759MOL0     H 4740   5.070   6.596   8.652  0.3010 -1.8731  2.8806
  759MOL0     H 4741   5.112   6.435   8.619 -0.0856 -0.1961  0.2527
  759MOL0     H 4742   5.246   6.562   8.630 -0.1388  3.6377 -3.5486
  760MOL0     O 4743   0.933   9.433   1.386 -0.1356 -0.6845 -0.8402
  760MOL0     C 4744   0.985   9.489   1.290 -0.0425 -0.1229  0.0691
  760MOL0     O 4745   0.936   9.478   1.159  0.8934 -0.1412 -0.3094
  760MOL0     C 4746   0.850   9.373   1.140  0.3778  0.2171  0.8071
  760MOL0     C 4747   0.898   9.245   1.096  0.0961 -0.3785 -0.8438
  760MOL0     C 4748   0.806   9.133   1.093  0.8155 -0.7558 -1.6152
  760MOL0     C 4749   0.674   9.149   1.134 -1.0511  1.1048 -0.1904
  760MOL0     O 4750   0.597   9.033   1.147  0.5525 -0.1851  0.0606
  760MOL0     C 4751   0.459   9.040   1.095 -0.4784  0.4520 -0.1735
  760MOL0     C 4752   0.397   8.903   1.053 -0.7208  0.5960  0.3575
  760MOL0     C 4753   0.357   8.822   1.176 -0.1058  0.5620 -0.2294
  760MOL0     C 4754   0.209   8.793   1.185  0.2895  0.1342 -0.8624
  760MOL0     C 4755   0.191   8.705   1.305 -0.4332  0.2347  0.6172
  760MOL0     C 4756   0.046   8.658   1.313 -0.4681 -0.2013 -0.5360
  760MOL0     C 4757   0.033   8.511   1.368 -0.0836  0.1183  0.4172
  760MOL0     C 4758  -0.012   8.414   1.252  0.2446 -0.1721 -0.0734
  760MOL0     N 4759   0.074   8.421   1.126  0.2619 -0.1307 -0.1283
  760MOL0     C 4760   0.202   8.362   1.119  0.3477 -0.5659  0.6235
  760MOL0     C 4761   0.241   8.375   0.985  0.2372  1.0286  0.5421
  760MOL0     C 4762   0.370   8.324   0.911  1.4774 -0.0038 -0.1290
  760MOL0     C 4763   0.494   8.413   0.913  0.3947  0.4964  0.5460
  760MOL0     C 4764   0.574   8.408   1.050 -0.3318 -0.2069  0.5645
  760MOL0     C 4765   0.650   8.541   1.078  0.4268  0.3926 -0.7703
  760MOL0     O 4766   0.761   8.552   0.998 -0.0865 -0.2390  0.8761
  760MOL0     C 4767   0.844   8.654   1.021 -0.4557 -0.5004 -0.6483
  760MOL0     C 4768   0.932   8.687   0.919 -0.2365 -0.0779  0.4110
  760MOL0     C 4769   1.012   8.794   0.922  1.1458 -0.0391 -0.3099
  760MOL0     C 4770   1.104   8.818   0.797 -0.8054 -0.1633 -0.0244
  760MOL0     C 4771   1.036   8.855   1.048  0.2699 -0.1226  0.4482
  760MOL0     C 4772   1.128   8.964   1.071 -0.5181 -0.3355 -0.2920
  760MOL0     O 4773   1.154   8.995   1.202 -0.4149  0.3992 -0.2903
  760MOL0     C 4774   1.271   9.068   1.225 -0.6214 -0.1211 -0.3080
  760MOL0     C 4775   1.396   9.037   1.169  0.1329  0.8660  0.1192
  760MOL0     C 4776   1.507   9.116   1.181  0.0153  0.9633  0.4379
  760MOL0     C 4777   1.493   9.242   1.248  0.0361  0.0428 -0.2671
  760MOL0     O 4778   1.596   9.324   1.269 -0.0646 -0.8661 -0.2528
  760MOL0     C 4779   1.683   9.306   1.379  1.2657  0.5466 -0.1874
  760MOL0     C 4780   1.827   9.333   1.327  0.3054  0.8704  0.4646
  760MOL0     C 4781   1.934   9.285   1.425  1.4327 -0.7579  0.5801
  760MOL0     C 4782   2.072   9.302   1.363  0.8570 -0.3349 -0.2988
  760MOL0     C 4783   2.196   9.299   1.454  0.5496  0.0534  0.0975
  760MOL0     C 4784   2.207   9.423   1.543  0.4986  0.1417  0.1818
  760MOL0     C 4785   2.337   9.438   1.612  0.8174 -0.7410  0.1395
  760MOL0     C 4786   2.348   9.579   1.692  0.4501  1.0706 -0.2869
  760MOL0    Cl 4787   2.303   9.727   1.595 -0.1722  0.0885 -0.3333
  760MOL0     C 4788   1.371   9.283   1.292  0.3479  0.1473  0.3945
  760MOL0     C 4789   1.261   9.191   1.285  0.8943 -1.3464  0.0445
  760MOL0     O 4790   1.180   9.019   0.972 -0.4691 -0.3977 -1.1262
  760MOL0     C 4791   0.961   8.829   1.156 -0.5478 -0.0452 -0.0536
  760MOL0     C 4792   0.861   8.735   1.135 -0.7008 -0.3159 -0.3373
  760MOL0     N 4793   0.142   8.441   0.921  0.2179 -0.0364 -0.7932
  760MOL0     N 4794   0.053   8.470   1.002  0.7945  0.1393 -0.3413
  760MOL0     C 4795   0.629   9.270   1.174 -0.0742  0.4099  0.0909
  760MOL0     C 4796   0.710   9.384   1.170 -0.0710  0.7429  0.2054
  760MOL0     C 4797   1.115   9.560   1.315  0.5103  0.0449  0.3881
  760MOL0     C 4798   1.129   9.603   1.444 -1.0209  0.6605 -0.4214
  760MOL0     C 4799   1.255   9.665   1.473  0.8436  0.9404 -0.2120
  760MOL0     C 4800   1.352   9.686   1.372  1.1430  0.2589  0.6418
  760MOL0     O 4801   1.470   9.755   1.392 -0.3380 -0.3052  0.0567
  760MOL0     C 4802   1.521   9.784   1.522 -0.0309  0.6522  1.4622
  760MOL0     C 4803   1.548   9.650   1.600 -0.3599  0.0018 -0.7724
  760MOL0     C 4804   1.549   9.684   1.753 -0.3557  0.2967  0.7888
  760MOL0     C 4805   1.606   9.565   1.831  0.3272 -0.0259 -0.9231
  760MOL0     C 4806   1.749   9.547   1.803  0.2856 -0.1843  0.0731
  760MOL0     C 4807   1.868   9.520   1.806  0.0826  0.1527 -0.1758
  760MOL0     C 4808   1.330   9.635   1.240 -0.4238 -0.3818 -0.4836
  760MOL0     C 4809   1.205   9.583   1.204 -0.1983 -0.3191  0.8977
  760MOL0     C 4810   1.202   9.521   1.061 -0.0987 -0.3424  0.7106
  760MOL0     H 4811   1.006   9.237   1.082  0.6337  1.9618  1.1977
  760MOL0     H 4812   0.836   9.038   1.049  2.1693  0.2749 -3.0480
  760MOL0     H 4813   0.474   9.105   1.009  1.1200 -1.4668 -1.4264
  760MOL0     H 4814   0.394   9.086   1.170  1.5142  2.2830  0.5261
  760MOL0     H 4815   0.295   8.926   1.021 -1.8688 -4.0439  0.0020
  760MOL0     H 4816   0.440   8.865   0.960  1.0014  2.9177  0.1106
  760MOL0     H 4817   0.418   8.731   1.170 -0.0281  0.2732  2.8739
  760MOL0     H 4818   0.384   8.866   1.273  2.6318 -2.0771  0.3442
  760MOL0     H 4819   0.155   8.887   1.199  2.6720  1.7859 -2.0889
  760MOL0     H 4820   0.169   8.730   1.104  0.8053 -2.5690  0.8676
  760MOL0     H 4821   0.203   8.755   1.402 -2.6199 -0.1998  1.1620
  760MOL0     H 4822   0.262   8.622   1.304 -0.8192 -0.1761  2.7715
  760MOL0     H 4823   0.001   8.719   1.392  1.2149 -1.5156  1.5218
  760MOL0     H 4824  -0.007   8.668   1.218 -2.3956 -0.5720  0.4429
  760MOL0     H 4825  -0.047   8.513   1.443 -0.4336 -2.3957  0.2055
  760MOL0     H 4826   0.128   8.474   1.406 -0.1113  2.7458  3.3703
  760MOL0     H 4827  -0.022   8.316   1.299  0.6885 -0.2932 -0.2239
  760MOL0     H 4828  -0.115   8.421   1.215 -0.8915 -1.8342  2.5191
  760MOL0     H 4829   0.267   8.325   1.197  2.2268 -2.2139 -1.5945
  760MOL0     H 4830   0.344   8.319   0.804 -1.3681 -1.1677  0.5258
  760MOL0     H 4831   0.399   8.223   0.940  1.2007 -0.3898 -1.1596
  760MOL0     H 4832   0.557   8.386   0.827 -0.2853  2.0035 -0.4750
  760MOL0     H 4833   0.456   8.513   0.888 -0.4158  0.1556  0.3878
  760MOL0     H 4834   0.499   8.390   1.127 -0.8287 -0.6112 -0.0056
  760MOL0     H 4835   0.646   8.325   1.056 -4.0951 -4.2751 -3.2139
  760MOL0     H 4836   0.587   8.627   1.052 -2.8093 -2.0246 -1.7484
  760MOL0     H 4837   0.671   8.522   1.183  1.2982  1.7706 -0.6687
  760MOL0     H 4838   0.912   8.629   0.830  2.2088  0.8047 -0.7910
  760MOL0     H 4839   1.093   8.738   0.723  6.7896 -1.7021 -0.3513
  760MOL0     H 4840   1.207   8.797   0.828 -1.1451  0.4797  1.6418
  760MOL0     H 4841   1.089   8.917   0.753 -1.0098 -1.2262 -2.5071
  760MOL0     H 4842   1.406   8.945   1.112 -0.4635 -0.3367  1.8704
  760MOL0     H 4843   1.603   9.089   1.138 -0.7464 -1.0429 -0.0738
  760MOL0     H 4844   1.659   9.375   1.460 -1.0067 -2.0861  1.5522
  760MOL0     H 4845   1.667   9.201   1.405 -0.4889  0.4552 -1.4065
  760MOL0     H 4846   1.837   9.278   1.234 -1.7049  0.0723  0.6820
  760MOL0     H 4847   1.831   9.442   1.316 -2.9039  1.1317  1.0133
  760MOL0     H 4848   1.906   9.184   1.457 -0.1931 -0.2806  0.7375
  760MOL0     H 4849   1.923   9.351   1.512 -3.2173  1.2205 -1.1908
  760MOL0     H 4850   2.082   9.402   1.320 -1.5756 -0.1039 -0.4931
  760MOL0     H 4851   2.066   9.231   1.280  0.5160  0.7435 -1.2148
  760MOL0     H 4852   2.203   9.206   1.511  2.4212  1.0980  1.6873
  760MOL0     H 4853   2.277   9.308   1.380  0.3573  4.9707  0.2240
  760MOL0     H 4854   2.141   9.425   1.630 -0.8676 -0.2692 -0.8167
  760MOL0     H 4855   2.189   9.513   1.483  1.1941  0.7849  0.9098
  760MOL0     H 4856   2.419   9.429   1.541  0.2789  2.2439 -1.0061
  760MOL0     H 4857   2.338   9.356   1.685  0.8903  0.3551  1.4138
  760MOL0     H 4858   2.448   9.598   1.731 -1.0889  0.6950  4.5760
  760MOL0     H 4859   2.293   9.575   1.787  2.2592 -0.8983  0.7745
  760MOL0     H 4860   1.348   9.377   1.340  1.2436  1.5194 -1.7106
  760MOL0     H 4861   1.157   9.214   1.303  0.2557  0.7038 -4.6551
  760MOL0     H 4862   0.973   8.877   1.253 -0.5131  0.5816 -0.3635
  760MOL0     H 4863   0.795   8.735   1.221  2.4180  0.6823  2.2543
  760MOL0     H 4864   0.539   9.275   1.234 -0.1353 -1.9538  0.2902
  760MOL0     H 4865   0.669   9.468   1.225 -0.1348 -1.2289  3.3607
  760MOL0     H 4866   1.051   9.591   1.518  0.7310  0.1541  1.4550
  760MOL0     H 4867   1.279   9.686   1.576  1.8928 -2.3619  0.3552
  760MOL0     H 4868   1.620   9.826   1.503 -0.6076  1.0707 -0.9467
  760MOL0     H 4869   1.454   9.855   1.570 -0.7023  0.4651  0.8268
  760MOL0     H 4870   1.640   9.610   1.559  0.7196  2.4511 -0.9516
  760MOL0     H 4871   1.474   9.572   1.582  0.5099 -1.4695  1.5572
  760MOL0     H 4872   1.611   9.774   1.757  3.5481 -1.8787 -2.9635
  760MOL0     H 4873   1.449   9.709   1.790 -0.1383 -0.6907  2.0984
  760MOL0     H 4874   1.553   9.474   1.802  0.9950  0.2566 -3.2542
  760MOL0     H 4875   1.596   9.589   1.937 -0.1113  0.5422 -1.0861
  760MOL0     H 4876   1.969   9.502   1.835 -0.8136 -3.8176  1.1678
  760MOL0     H 4877   1.414   9.632   1.171  1.6325 -2.9077  1.8937
  760MOL0     H 4878   1.211   9.412   1.057 -0.0274 -0.3814  1.5723
  760MOL0     H 4879   1.110   9.555   1.012 -0.4651 -1.7240  0.3925
  760MOL0     H 4880   1.281   9.562   0.998 -2.0523 -0.7897 -2.2024
  761MOL0     O 4881   7.074  10.269   4.176 -0.0462 -0.0610  0.6216
  761MOL0     C 4882   7.041  10.158   4.129  0.4865  1.3219  0.9122
  761MOL0     O 4883   6.999  10.131   4.000  0.2991 -0.0333 -0.3639
  761MOL0     C 4884   7.009  10.223   3.899  0.9338  0.6379  0.2926
  761MOL0     C 4885   6.897  10.240   3.819  0.4313  0.9692  1.0893
  761MOL0     C 4886   6.889  10.334   3.716 -0.3975  0.2960 -0.3614
  761MOL0     C 4887   6.998  10.429   3.703 -0.9548  0.7517  1.1842
  761MOL0     O 4888   7.004  10.517   3.593  0.4251  0.4068  0.1433
  761MOL0     C 4889   7.024  10.653   3.629  0.3318 -0.4628 -1.1497
  761MOL0     C 4890   6.912  10.707   3.738  0.0207 -0.0185 -0.0746
  761MOL0     C 4891   6.949  10.841   3.807  0.4573  1.1656 -0.2247
  761MOL0     C 4892   7.010  10.963   3.724 -0.0239 -1.2399  0.5136
  761MOL0     C 4893   7.078  11.065   3.826  0.4076  0.3302 -0.1784
  761MOL0     C 4894   7.152  11.180   3.771 -0.1898  1.0883  0.5267
  761MOL0     C 4895   7.263  11.155   3.673 -0.0018 -0.5173  0.7446
  761MOL0     C 4896   7.408  11.118   3.727 -0.2213  0.3116  0.1533
  761MOL0     N 4897   7.513  11.162   3.637  0.1500  0.0917  0.4441
  761MOL0     C 4898   7.534  11.134   3.500  0.4611  0.0376  0.0804
  761MOL0     C 4899   7.672  11.133   3.481 -0.7957  0.8846  0.5348
  761MOL0     C 4900   7.747  11.098   3.349  1.1665 -0.6016 -1.5309
  761MOL0     C 4901   7.842  11.207   3.299 -0.2678 -0.1056  0.6472
  761MOL0     C 4902   7.805  11.354   3.260  0.5353  0.4134 -0.2051
  761MOL0     C 4903   7.770  11.432   3.384  0.2747 -0.0830  0.0651
  761MOL0     O 4904   7.737  11.563   3.348  0.1188  0.1337  0.1553
  761MOL0     C 4905   7.628  11.614   3.272  0.4583  0.3013 -0.0761
  761MOL0     C 4906   7.507  11.533   3.255 -1.1498 -1.0988  0.5794
  761MOL0     C 4907   7.401  11.576   3.174  1.2297  0.1026 -0.0543
  761MOL0     C 4908   7.282  11.481   3.179  0.3148  0.1722  0.6416
  761MOL0     C 4909   7.411  11.703   3.110 -0.7286  0.6254 -0.0001
  761MOL0     C 4910   7.301  11.762   3.026  0.0780  0.9935  0.4963
  761MOL0     O 4911   7.316  11.888   2.975  0.2258 -0.1061 -0.6760
  761MOL0     C 4912   7.211  11.942   2.899 -0.2092  0.4257  0.2305
  761MOL0     C 4913   7.109  11.878   2.821 -0.1280  0.3335  0.0182
  761MOL0     C 4914   7.015  11.947   2.744 -0.7598 -0.0088 -0.5386
  761MOL0     C 4915   7.021  12.088   2.737 -0.4923  0.2138 -0.5058
  761MOL0     O 4916   6.928  12.150   2.648  0.4328 -0.2131  0.0027
  761MOL0     C 4917   6.906  12.295   2.656  0.6120  0.7665 -0.2841
  761MOL0     C 4918   6.821  12.312   2.772  0.7358  0.1341 -0.5607
  761MOL0     C 4919   6.687  12.238   2.774  0.9588  1.1192 -0.9447
  761MOL0     C 4920   6.582  12.288   2.666  0.4527  0.2054  0.6872
  761MOL0     C 4921   6.432  12.280   2.704  0.2859 -0.0069 -1.0028
  761MOL0     C 4922   6.377  12.137   2.715  0.0226  0.5091  0.3225
  761MOL0     C 4923   6.396  12.056   2.574 -0.1125 -0.0010 -0.0860
  761MOL0     C 4924   6.369  11.900   2.587  0.8863  0.8290  0.5818
  761MOL0    Cl 4925   6.417  11.814   2.436 -0.1970  0.0231  0.0275
  761MOL0     C 4926   7.115  12.157   2.807 -0.6060  0.4553  0.5983
  761MOL0     C 4927   7.222  12.084   2.875  0.0491 -0.1018  0.0223
  761MOL0     O 4928   7.226  11.671   2.984  0.3139 -0.0884  1.1467
  761MOL0     C 4929   7.522  11.784   3.127 -1.0533 -0.5101 -0.3886
  761MOL0     C 4930   7.634  11.744   3.210 -1.2643  0.2458 -0.2577
  761MOL0     N 4931   7.729  11.156   3.604  0.5606 -0.3986  0.2168
  761MOL0     N 4932   7.640  11.175   3.694 -0.3800  0.1595  0.2343
  761MOL0     C 4933   7.115  10.412   3.782 -0.4102  0.2802  0.1400
  761MOL0     C 4934   7.126  10.304   3.873 -0.0944  0.6731 -0.8728
  761MOL0     C 4935   7.044  10.044   4.226  1.4022  0.5100 -0.8295
  761MOL0     C 4936   7.108  10.069   4.347 -0.5925  0.3584  0.5944
  761MOL0     C 4937   7.095   9.979   4.454 -0.2744  0.7203  0.7516
  761MOL0     C 4938   7.012   9.867   4.448  0.4427  0.7881  1.1662
  761MOL0     O 4939   7.001   9.776   4.552  0.5139 -0.0547  0.0304
  761MOL0     C 4940   7.064   9.807   4.678  0.1905  1.5933  0.9329
  761MOL0     C 4941   7.040   9.705   4.788  0.1304  0.0838  0.1260
  761MOL0     C 4942   6.890   9.691   4.804  0.8419 -0.0020 -1.0338
  761MOL0     C 4943   6.866   9.577   4.906 -1.4046  0.3838  0.0366
  761MOL0     C 4944   6.925   9.618   5.033 -0.0390  0.1331 -0.0695
  761MOL0     C 4945   6.965   9.660   5.142 -0.2292 -0.4308  0.5684
  761MOL0     C 4946   6.951   9.837   4.326 -0.3036  0.3702 -0.2797
  761MOL0     C 4947   6.968   9.924   4.216  0.6533 -1.0557  0.0169
  761MOL0     C 4948   6.894   9.881   4.091  0.0865 -0.8371 -0.2796
  761MOL0     H 4949   6.810  10.180   3.844  1.2054 -0.3120  0.7727
  761MOL0     H 4950   6.795  10.341   3.661  0.5099 -2.1441 -2.4116
  761MOL0     H 4951   7.005  10.714   3.540  0.0659 -0.9942 -1.4601
  761MOL0     H 4952   7.127  10.670   3.663  0.6237  0.3388 -2.3449
  761MOL0     H 4953   6.826  10.716   3.671  2.6841 -1.5674 -4.0853
  761MOL0     H 4954   6.886  10.638   3.819  1.8146  3.1079  3.4891
  761MOL0     H 4955   6.852  10.872   3.847  0.2426 -0.7437  0.8803
  761MOL0     H 4956   7.013  10.825   3.894 -1.1326  1.2030  1.0093
  761MOL0     H 4957   7.080  10.921   3.651  1.0974 -2.3010  2.1434
  761MOL0     H 4958   6.934  11.010   3.660  2.5045 -1.4448 -2.9655
  761MOL0     H 4959   7.153  11.012   3.885  1.9966 -0.0771 -2.4356
  761MOL0     H 4960   6.998  11.101   3.892  0.1840 -1.1038  0.3723
  761MOL0     H 4961   7.079  11.241   3.718 -1.2460 -2.4384 -2.4858
  761MOL0     H 4962   7.204  11.231   3.853  1.7967 -0.4529  0.3077
  761MOL0     H 4963   7.285  11.254   3.633  2.7461 -1.5295 -0.5134
  761MOL0     H 4964   7.225  11.081   3.601  0.2759  0.1595 -0.1177
  761MOL0     H 4965   7.430  11.170   3.821 -0.6599 -0.3498  0.6284
  761MOL0     H 4966   7.398  11.010   3.743 -0.5294  0.3779  0.4296
  761MOL0     H 4967   7.457  11.110   3.427  0.6274  0.9155 -0.3920
  761MOL0     H 4968   7.662  11.085   3.282 -1.1893  4.5960 -0.1365
  761MOL0     H 4969   7.791  11.002   3.377 -0.2591 -0.7209  0.5401
  761MOL0     H 4970   7.910  11.221   3.384  1.1103  0.7772 -0.5471
  761MOL0     H 4971   7.902  11.160   3.221 -0.8140  1.6359 -0.8740
  761MOL0     H 4972   7.892  11.400   3.214  1.0021 -1.0782 -0.8778
  761MOL0     H 4973   7.724  11.337   3.189  1.3656 -1.8665 -0.7034
  761MOL0     H 4974   7.685  11.384   3.433 -0.4593 -0.3602 -1.4590
  761MOL0     H 4975   7.852  11.446   3.456 -0.7894  0.2348  1.2524
  761MOL0     H 4976   7.504  11.442   3.314  3.1932  0.0597  2.9580
  761MOL0     H 4977   7.285  11.403   3.255 -0.9689 -0.6076 -0.0705
  761MOL0     H 4978   7.271  11.422   3.087  3.2281 -1.9612  1.5193
  761MOL0     H 4979   7.196  11.544   3.204  0.5100  0.6287  0.1839
  761MOL0     H 4980   7.107  11.770   2.821  0.5632  0.3141  0.7427
  761MOL0     H 4981   6.949  11.899   2.672  2.5032 -1.2404 -2.9789
  761MOL0     H 4982   6.998  12.354   2.652 -0.4538  2.4698 -0.6941
  761MOL0     H 4983   6.852  12.333   2.569 -0.3184  5.0091  1.8804
  761MOL0     H 4984   6.882  12.273   2.855  2.3882 -0.4207 -1.9850
  761MOL0     H 4985   6.805  12.416   2.802 -1.7514 -0.7954  1.8390
  761MOL0     H 4986   6.642  12.254   2.872 -2.9159  0.8620 -2.5117
  761MOL0     H 4987   6.701  12.130   2.773  3.2122  1.3537 -0.1579
  761MOL0     H 4988   6.593  12.246   2.566  1.6149  1.1665  0.3927
  761MOL0     H 4989   6.597  12.394   2.645 -0.1117  0.1434 -0.0379
  761MOL0     H 4990   6.406  12.319   2.803 -1.4949 -0.8404 -1.1073
  761MOL0     H 4991   6.387  12.348   2.631  0.3491  2.9218  1.4665
  761MOL0     H 4992   6.269  12.134   2.732 -0.9273 -1.0487 -4.4711
  761MOL0     H 4993   6.424  12.082   2.797 -1.6206  0.3911  1.2397
  761MOL0     H 4994   6.500  12.055   2.538 -0.0249  2.1697  0.0108
  761MOL0     H 4995   6.327  12.101   2.503 -2.0580  0.4801  1.9875
  761MOL0     H 4996   6.267  11.876   2.617  0.5730  1.9509  0.4566
  761MOL0     H 4997   6.436  11.859   2.663  2.2735  2.7134  0.4544
  761MOL0     H 4998   7.120  12.266   2.805 -1.3304  0.5904  3.1279
  761MOL0     H 4999   7.303  12.140   2.920  0.7397 -2.1190  1.4236
  761MOL0     H 5000   7.523  11.882   3.081  0.8796 -0.4633 -0.3169
  761MOL0     H 5001   7.717  11.813   3.223 -1.2478  0.4150 -1.1911
  761MOL0     H 5002   7.210  10.460   3.761 -0.5745 -0.3601 -2.4229
  761MOL0     H 5003   7.224  10.294   3.916  0.2365 -2.2683 -2.0880
  761MOL0     H 5004   7.174  10.154   4.358  4.0285 -1.8880 -4.8470
  761MOL0     H 5005   7.155   9.992   4.544 -1.5890 -1.7836  2.1183
  761MOL0     H 5006   7.170   9.802   4.652 -0.3057  2.6025 -1.6001
  761MOL0     H 5007   7.047   9.910   4.712 -2.6142  2.3387 -2.1493
  761MOL0     H 5008   7.094   9.743   4.875  2.1036 -2.3360  0.0867
  761MOL0     H 5009   7.075   9.604   4.765 -1.1473  0.4179 -4.3247
  761MOL0     H 5010   6.843   9.785   4.835 -1.5498 -0.9081 -1.6842
  761MOL0     H 5011   6.846   9.670   4.706 -0.7140  3.3025 -1.1806
  761MOL0     H 5012   6.908   9.481   4.876 -3.3898 -1.3251  2.3811
  761MOL0     H 5013   6.761   9.553   4.921 -1.0885  0.3122  2.4130
  761MOL0     H 5014   7.016   9.690   5.231 -0.5404  0.1729  0.5471
  761MOL0     H 5015   6.888   9.750   4.309 -2.7786  2.0339 -0.1501
  761MOL0     H 5016   6.966   9.877   4.009  0.9512  2.1227  0.1789
  761MOL0     H 5017   6.840   9.789   4.113 -0.2487 -0.2378  1.6402
  761MOL0     H 5018   6.826   9.959   4.055  3.1658  0.9863 -2.5943
  762MOL0     O 5019   7.956   7.954   2.118  0.0334  0.1465  0.2180
  762MOL0     C 5020   8.008   8.061   2.101 -0.9141  0.3480 -0.4375
  762MOL0     O 5021   8.135   8.089   2.135 -0.4238  0.0186 -0.4126
  762MOL0     C 5022   8.239   7.992   2.165  0.5786 -0.4510 -0.3409
  762MOL0     C 5023   8.355   8.052   2.221  0.2166  0.4941  1.0265
  762MOL0     C 5024   8.472   7.978   2.247 -0.3248  0.7923 -0.3557
  762MOL0     C 5025   8.458   7.837   2.233 -0.1766  0.2581  0.8394
  762MOL0     O 5026   8.571   7.767   2.272  0.5929  0.0148  0.7699
  762MOL0     C 5027   8.617   7.661   2.196 -0.3684  0.0543 -0.2761
  762MOL0     C 5028   8.769   7.636   2.248  0.2137  0.6527  0.0626
  762MOL0     C 5029   8.818   7.511   2.170 -0.2955 -0.1504 -0.6280
  762MOL0     C 5030   8.966   7.496   2.210  0.0453  0.5739  0.3820
  762MOL0     C 5031   9.040   7.380   2.145 -0.3037  0.3170  0.3381
  762MOL0     C 5032   9.191   7.375   2.152  1.0235 -0.4039  0.2306
  762MOL0     C 5033   9.266   7.459   2.045 -0.0480  0.2617  0.2836
  762MOL0     C 5034   9.419   7.467   2.083 -0.3957 -0.3332 -0.7117
  762MOL0     N 5035   9.464   7.597   2.140  1.1407  0.8948 -0.1062
  762MOL0     C 5036   9.412   7.645   2.263 -0.4053 -0.0367 -0.3426
  762MOL0     C 5037   9.513   7.728   2.311 -0.0599 -0.5948  0.3736
  762MOL0     C 5038   9.489   7.799   2.446 -0.2406  0.1059 -0.5335
  762MOL0     C 5039   9.553   7.697   2.564  0.6720 -0.3830 -0.0575
  762MOL0     C 5040   9.693   7.725   2.597 -0.7890  0.5917 -0.2600
  762MOL0     C 5041   9.746   7.647   2.718  1.0631  0.3209  0.3346
  762MOL0     O 5042   9.672   7.696   2.833 -0.2359 -0.3290 -0.8588
  762MOL0     C 5043   9.687   7.639   2.955  0.5048 -0.7137 -0.2153
  762MOL0     C 5044   9.679   7.507   2.982  0.2191 -0.0734  0.0463
  762MOL0     C 5045   9.656   7.453   3.103 -0.1666  0.2482 -0.2486
  762MOL0     C 5046   9.662   7.300   3.111  0.0271  0.4221 -0.0932
  762MOL0     C 5047   9.632   7.539   3.210  0.1644 -0.7934 -0.9885
  762MOL0     C 5048   9.588   7.495   3.344  0.1783 -0.0690  0.5550
  762MOL0     O 5049   9.637   7.578   3.440  0.9274  0.2988 -0.0004
  762MOL0     C 5050   9.594   7.560   3.568 -0.7268  0.0512  0.2723
  762MOL0     C 5051   9.708   7.582   3.655  0.6367  0.0660 -0.1784
  762MOL0     C 5052   9.680   7.562   3.792 -0.4703 -1.2137 -0.0886
  762MOL0     C 5053   9.554   7.518   3.837 -0.4619  0.4157  1.0151
  762MOL0     O 5054   9.536   7.507   3.979  0.1313  0.0987  0.8983
  762MOL0     C 5055   9.432   7.424   4.039  0.3891 -0.6527  0.8091
  762MOL0     C 5056   9.441   7.475   4.182  0.9743  0.3617 -0.9137
  762MOL0     C 5057   9.390   7.620   4.190 -0.1309 -0.5102 -1.1372
  762MOL0     C 5058   9.443   7.684   4.331 -0.0113  0.4667  0.5877
  762MOL0     C 5059   9.409   7.828   4.348 -0.5444 -1.3564 -0.7668
  762MOL0     C 5060   9.501   7.879   4.464 -0.6359  0.1813  0.9872
  762MOL0     C 5061   9.423   7.854   4.603 -1.0501  0.6694 -0.2904
  762MOL0     C 5062   9.478   7.906   4.737 -0.1949 -0.2572 -0.9913
  762MOL0    Cl 5063   9.352   7.956   4.844 -0.8096  0.0690  0.4358
  762MOL0     C 5064   9.451   7.511   3.752 -0.6590 -0.4114  0.5108
  762MOL0     C 5065   9.470   7.530   3.616 -0.4525  0.6313  0.7542
  762MOL0     O 5066   9.516   7.401   3.357 -0.2786  0.1445 -0.0022
  762MOL0     C 5067   9.655   7.675   3.190 -0.5805 -0.2297  1.7115
  762MOL0     C 5068   9.682   7.724   3.055 -0.2321 -0.0678 -0.5522
  762MOL0     N 5069   9.621   7.718   2.235 -0.8290 -0.2777  0.3287
  762MOL0     N 5070   9.591   7.637   2.133  0.1301  0.5735  0.4168
  762MOL0     C 5071   8.347   7.779   2.171  0.0290 -0.0346 -0.4994
  762MOL0     C 5072   8.239   7.859   2.137  0.0499 -0.2857 -0.3919
  762MOL0     C 5073   7.917   8.166   2.051  0.5418  0.5835  1.1806
  762MOL0     C 5074   7.779   8.133   2.034  0.5415  0.2436 -0.5206
  762MOL0     C 5075   7.675   8.221   1.992  0.8253  0.8209 -0.3613
  762MOL0     C 5076   7.705   8.354   1.975 -0.4243  0.5087  0.1075
  762MOL0     O 5077   7.594   8.433   1.952  0.0357 -0.1993 -0.0981
  762MOL0     C 5078   7.619   8.553   1.877 -0.4139 -1.1032 -0.4934
  762MOL0     C 5079   7.655   8.522   1.733  0.0988  0.0769 -0.0806
  762MOL0     C 5080   7.711   8.650   1.664 -0.2647 -0.2434 -0.1829
  762MOL0     C 5081   7.647   8.783   1.688  0.4915 -0.0476  0.3697
  762MOL0     C 5082   7.514   8.781   1.626 -0.5376  1.1513  0.5070
  762MOL0     C 5083   7.402   8.775   1.571 -0.5426  0.6609 -0.6476
  762MOL0     C 5084   7.836   8.387   1.988  0.1579  0.3652  0.8785
  762MOL0     C 5085   7.941   8.297   2.008  0.5589  0.3610  0.5121
  762MOL0     C 5086   8.086   8.351   2.016 -0.2639 -0.9772 -0.6608
  762MOL0     H 5087   8.349   8.157   2.245 -0.0155  1.1880 -1.6919
  762MOL0     H 5088   8.562   8.023   2.287 -0.8646  1.0715  0.5601
  762MOL0     H 5089   8.613   7.685   2.089  1.4929 -0.6301 -0.5260
  762MOL0     H 5090   8.558   7.570   2.213 -2.6563  1.9156  2.7424
  762MOL0     H 5091   8.823   7.729   2.224  1.4877 -0.2046 -0.4786
  762MOL0     H 5092   8.768   7.615   2.355 -4.1462 -2.0183 -0.2691
  762MOL0     H 5093   8.752   7.429   2.202 -2.0872  1.1193 -0.9260
  762MOL0     H 5094   8.805   7.525   2.063 -0.6599 -1.2233 -0.7361
  762MOL0     H 5095   9.022   7.587   2.187  0.5586 -0.3007 -2.1843
  762MOL0     H 5096   8.968   7.491   2.319 -1.5426  1.6778  0.4956
  762MOL0     H 5097   9.015   7.368   2.039  1.0099 -1.3049  0.1770
  762MOL0     H 5098   8.992   7.302   2.204  1.8275 -0.9905  0.4351
  762MOL0     H 5099   9.231   7.411   2.248  0.3145  0.1273  0.3322
  762MOL0     H 5100   9.227   7.273   2.139  3.3011 -0.0660  2.8148
  762MOL0     H 5101   9.219   7.557   2.031 -0.5858 -0.1848 -1.1587
  762MOL0     H 5102   9.249   7.397   1.957  0.5219 -1.3845  1.2850
  762MOL0     H 5103   9.454   7.397   2.159 -1.1366 -0.8090 -0.8058
  762MOL0     H 5104   9.490   7.452   2.002  4.9813 -0.4154  3.3979
  762MOL0     H 5105   9.320   7.612   2.310 -0.8171 -3.0718 -2.9408
  762MOL0     H 5106   9.383   7.822   2.466 -0.0771 -0.0133  0.5120
  762MOL0     H 5107   9.535   7.899   2.449  2.8741 -1.2273 -0.4463
  762MOL0     H 5108   9.481   7.717   2.645  0.3844  2.7431 -0.9423
  762MOL0     H 5109   9.542   7.594   2.529  0.2078  0.4780 -2.6846
  762MOL0     H 5110   9.743   7.701   2.503  1.9664 -2.4753  1.7782
  762MOL0     H 5111   9.711   7.831   2.615 -0.2383  0.2240  1.5674
  762MOL0     H 5112   9.754   7.540   2.698  0.8224 -0.1965  2.7357
  762MOL0     H 5113   9.851   7.679   2.723  2.4342 -2.2978 -4.9842
  762MOL0     H 5114   9.683   7.436   2.901  1.2359 -1.2064  1.0590
  762MOL0     H 5115   9.737   7.259   3.180 -0.9509  2.2200  2.1815
  762MOL0     H 5116   9.681   7.265   3.009  3.0001 -0.2028  0.5810
  762MOL0     H 5117   9.569   7.255   3.144 -0.8738  0.8496 -1.9272
  762MOL0     H 5118   9.807   7.611   3.620  1.5779  0.6049  2.6951
  762MOL0     H 5119   9.757   7.589   3.863 -1.0048  1.1935 -0.3289
  762MOL0     H 5120   9.335   7.440   3.992  0.8250 -1.2327 -0.3348
  762MOL0     H 5121   9.460   7.319   4.032  3.1970  0.0921 -0.4617
  762MOL0     H 5122   9.377   7.404   4.235  0.2627  0.6915 -1.3221
  762MOL0     H 5123   9.543   7.461   4.218  2.0397  1.7481 -3.1203
  762MOL0     H 5124   9.280   7.626   4.190 -0.1274 -0.4443 -1.1278
  762MOL0     H 5125   9.437   7.676   4.108 -0.9145 -0.4419 -1.5521
  762MOL0     H 5126   9.551   7.669   4.324  0.1462  1.6774  0.2846
  762MOL0     H 5127   9.414   7.621   4.416 -0.6661 -2.6288 -1.7433
  762MOL0     H 5128   9.446   7.889   4.265  1.6445 -2.0284 -0.3548
  762MOL0     H 5129   9.303   7.848   4.365  0.7525  3.7992  4.6179
  762MOL0     H 5130   9.511   7.987   4.448  2.5840 -0.4070 -2.5158
  762MOL0     H 5131   9.601   7.835   4.458 -0.3299  1.0029 -0.7754
  762MOL0     H 5132   9.395   7.749   4.604 -0.0091  0.3446 -1.7405
  762MOL0     H 5133   9.333   7.912   4.580 -0.6781  1.1575 -0.5477
  762MOL0     H 5134   9.542   7.987   4.702  0.6273 -0.0087  0.9468
  762MOL0     H 5135   9.549   7.841   4.790 -0.4275  1.9755  2.2944
  762MOL0     H 5136   9.348   7.497   3.783 -1.2962  0.8188 -0.9135
  762MOL0     H 5137   9.384   7.535   3.550  1.1038  0.6616 -1.3771
  762MOL0     H 5138   9.641   7.753   3.264  1.7508  1.5432  0.4273
  762MOL0     H 5139   9.705   7.825   3.024  0.2208 -0.3073 -1.0021
  762MOL0     H 5140   8.335   7.671   2.160 -2.0243  0.0913  0.0645
  762MOL0     H 5141   8.152   7.814   2.090 -0.5647  2.4758 -2.1502
  762MOL0     H 5142   7.738   8.033   2.049 -3.8364  1.2217 -3.8520
  762MOL0     H 5143   7.574   8.183   1.983  0.7536  0.7722  0.5130
  762MOL0     H 5144   7.537   8.624   1.863  2.8343  2.6219 -2.7050
  762MOL0     H 5145   7.698   8.611   1.925 -2.5357  0.0847  1.8097
  762MOL0     H 5146   7.562   8.485   1.688  0.2583 -0.6985  0.2029
  762MOL0     H 5147   7.734   8.447   1.729 -1.9965 -2.4546  2.0991
  762MOL0     H 5148   7.819   8.653   1.684 -0.5080 -1.1928  1.4964
  762MOL0     H 5149   7.703   8.635   1.556  3.9409 -0.0357 -0.6963
  762MOL0     H 5150   7.697   8.860   1.629 -1.0185 -0.2377 -1.2553
  762MOL0     H 5151   7.662   8.808   1.793 -2.3116  0.6148  0.6983
  762MOL0     H 5152   7.300   8.762   1.542  0.0691 -1.6946 -1.9444
  762MOL0     H 5153   7.867   8.491   1.978  3.7451 -0.7491 -1.7122
  762MOL0     H 5154   8.094   8.460   2.021 -2.7643 -0.7880  0.7492
  762MOL0     H 5155   8.113   8.318   2.116  2.6272 -1.7532 -1.5928
  762MOL0     H 5156   8.158   8.305   1.947  1.1308 -2.5335  1.7261
  763MOL0     O 5157   5.014   5.790   2.446 -0.0010 -0.5924 -0.3564
  763MOL0     C 5158   5.006   5.672   2.493  0.2215 -0.2194 -0.1001
  763MOL0     O 5159   4.889   5.605   2.492 -1.0152 -0.0058  0.0055
  763MOL0     C 5160   4.771   5.662   2.457  0.4742 -1.0417  0.7436
  763MOL0     C 5161   4.702   5.595   2.356  0.0829  0.0984 -0.9264
  763MOL0     C 5162   4.579   5.630   2.309  0.1051  0.4818  0.3063
  763MOL0     C 5163   4.504   5.724   2.375  0.3632  0.6285 -0.4167
  763MOL0     O 5164   4.371   5.761   2.347  0.3675  0.6712  0.0737
  763MOL0     C 5165   4.325   5.767   2.211  1.1939 -0.0856 -0.4803
  763MOL0     C 5166   4.244   5.639   2.172 -0.0073  0.2690  0.0768
  763MOL0     C 5167   4.157   5.652   2.048 -0.9462  0.9932  0.1271
  763MOL0     C 5168   4.224   5.725   1.930 -0.7846 -0.1758  0.1455
  763MOL0     C 5169   4.161   5.728   1.794  0.2230  0.2612  0.0618
  763MOL0     C 5170   4.011   5.755   1.795  0.4155  0.1923  0.1424
  763MOL0     C 5171   3.974   5.901   1.844 -0.6623  0.3871  0.0829
  763MOL0     C 5172   4.016   6.007   1.739 -0.2812 -0.3516  0.0204
  763MOL0     N 5173   4.005   6.141   1.810 -0.3459 -0.7641  0.2761
  763MOL0     C 5174   4.104   6.233   1.823  0.0751 -0.9201 -0.6686
  763MOL0     C 5175   4.069   6.330   1.916 -0.3752  0.4866 -0.4429
  763MOL0     C 5176   4.154   6.442   1.965  0.3194  1.1983  0.5820
  763MOL0     C 5177   4.076   6.571   1.964  0.4923 -0.3407  0.5300
  763MOL0     C 5178   4.138   6.699   2.035 -0.3357 -0.5544 -0.4882
  763MOL0     C 5179   4.232   6.773   1.945 -0.5699  0.1864 -0.2856
  763MOL0     O 5180   4.153   6.831   1.837 -0.7847  0.2907  0.0783
  763MOL0     C 5181   4.168   6.970   1.830 -0.0175  0.0292 -0.4861
  763MOL0     C 5182   4.282   7.034   1.781  0.3695  0.2560 -1.1596
  763MOL0     C 5183   4.305   7.163   1.775 -0.1183 -0.8420  0.7071
  763MOL0     C 5184   4.446   7.213   1.728  0.7314  0.8344  1.2291
  763MOL0     C 5185   4.201   7.251   1.823 -0.6139  0.3189  0.2164
  763MOL0     C 5186   4.209   7.399   1.824 -0.5323 -0.6997  1.4118
  763MOL0     O 5187   4.091   7.465   1.830 -1.2095 -0.5639  1.2114
  763MOL0     C 5188   4.094   7.602   1.819  0.8665  0.0983  1.4539
  763MOL0     C 5189   4.165   7.679   1.725  0.0179 -0.2192 -1.3211
  763MOL0     C 5190   4.153   7.819   1.725  0.9900  0.3163  0.1354
  763MOL0     C 5191   4.051   7.878   1.806  0.2469 -0.3327 -0.0655
  763MOL0     O 5192   3.996   8.003   1.778  0.5561  0.8352 -0.2775
  763MOL0     C 5193   3.981   8.035   1.637 -0.0330 -0.6785  0.1032
  763MOL0     C 5194   3.850   8.112   1.634  0.1156  0.5269 -1.0138
  763MOL0     C 5195   3.849   8.198   1.499  0.3118 -0.3355 -1.1621
  763MOL0     C 5196   3.909   8.334   1.509 -0.1438  0.1912 -0.2334
  763MOL0     C 5197   3.798   8.440   1.469 -0.6119 -0.8653 -0.6425
  763MOL0     C 5198   3.774   8.450   1.311 -0.0703  0.6248 -0.0719
  763MOL0     C 5199   3.715   8.581   1.270  0.1950 -0.1604  0.0870
  763MOL0     C 5200   3.711   8.579   1.115  0.7325 -0.1145  0.3372
  763MOL0    Cl 5201   3.866   8.640   1.040  0.4200 -0.2483  0.2902
  763MOL0     C 5202   3.979   7.799   1.904 -1.5463 -0.2285 -0.1258
  763MOL0     C 5203   4.012   7.665   1.913 -0.5810 -0.0596  0.2146
  763MOL0     O 5204   4.316   7.457   1.833 -0.0969 -0.7104  0.2377
  763MOL0     C 5205   4.086   7.188   1.877  0.2736 -0.4239 -0.2514
  763MOL0     C 5206   4.063   7.050   1.873  0.7170  0.3716  0.1351
  763MOL0     N 5207   3.937   6.292   1.960  0.5802 -0.0796 -0.9852
  763MOL0     N 5208   3.907   6.175   1.898 -0.2592  0.0537 -0.4532
  763MOL0     C 5209   4.559   5.774   2.497  0.0167 -0.2093 -0.0177
  763MOL0     C 5210   4.694   5.749   2.533 -0.1326  0.6410  0.3991
  763MOL0     C 5211   5.137   5.601   2.531  0.7546 -0.2477  0.2836
  763MOL0     C 5212   5.135   5.465   2.537 -0.0004 -0.1573 -0.5013
  763MOL0     C 5213   5.251   5.388   2.544 -0.3889 -1.1891 -0.2682
  763MOL0     C 5214   5.371   5.455   2.570 -0.4381 -0.0940 -0.0829
  763MOL0     O 5215   5.481   5.376   2.593 -0.2645  0.4500 -0.1165
  763MOL0     C 5216   5.611   5.430   2.626  0.3103 -1.2657 -0.5303
  763MOL0     C 5217   5.693   5.311   2.672  0.6107  0.3415  0.3996
  763MOL0     C 5218   5.844   5.332   2.652 -0.3875  0.4904  0.1088
  763MOL0     C 5219   5.937   5.221   2.707  0.2174 -0.0471  0.9734
  763MOL0     C 5220   5.919   5.084   2.659 -0.5255 -0.3595  0.4271
  763MOL0     C 5221   5.904   4.973   2.608 -0.8756  0.1657  0.2155
  763MOL0     C 5222   5.381   5.591   2.588  0.2096 -0.3786  0.2106
  763MOL0     C 5223   5.257   5.668   2.563 -1.1302 -0.3491 -0.1766
  763MOL0     C 5224   5.278   5.815   2.571  0.4207 -0.2385  0.5388
  763MOL0     H 5225   4.744   5.510   2.303 -1.8924  0.6325 -3.5794
  763MOL0     H 5226   4.536   5.571   2.229 -0.4839  0.5931  0.5379
  763MOL0     H 5227   4.409   5.782   2.143 -0.1335  1.6251 -1.8515
  763MOL0     H 5228   4.265   5.858   2.214 -1.3626 -1.6456  2.4445
  763MOL0     H 5229   4.301   5.546   2.161  0.1019  0.3407  0.0307
  763MOL0     H 5230   4.183   5.617   2.260  0.4099  2.1799  0.8842
  763MOL0     H 5231   4.131   5.548   2.025  0.5499 -0.5561  4.4624
  763MOL0     H 5232   4.066   5.706   2.073 -0.8236  1.0788  0.3968
  763MOL0     H 5233   4.244   5.828   1.959  0.0636  0.2163 -1.6635
  763MOL0     H 5234   4.325   5.683   1.923  0.1671  1.7305  1.4750
  763MOL0     H 5235   4.170   5.627   1.752  0.1298 -0.7138  2.2325
  763MOL0     H 5236   4.220   5.788   1.725  2.7883  1.3725  2.9711
  763MOL0     H 5237   3.969   5.729   1.696  2.4324 -3.4732  0.0647
  763MOL0     H 5238   3.962   5.678   1.856  1.1016  0.5234  1.1318
  763MOL0     H 5239   4.024   5.910   1.941 -0.8522 -1.6069  0.4062
  763MOL0     H 5240   3.868   5.917   1.866 -0.9607  1.1458 -1.7704
  763MOL0     H 5241   4.114   6.001   1.691  0.1752  3.1443  0.2128
  763MOL0     H 5242   3.940   6.001   1.661 -0.6519 -0.5582  0.3960
  763MOL0     H 5243   4.193   6.218   1.763  1.1004 -0.0495  0.5863
  763MOL0     H 5244   4.241   6.433   1.899  1.2706  1.4628  1.7661
  763MOL0     H 5245   4.186   6.426   2.068  1.3049 -1.2623 -0.0340
  763MOL0     H 5246   4.064   6.584   1.856  0.5752 -2.8432  0.1517
  763MOL0     H 5247   3.976   6.555   2.006  1.4444  0.4406  3.2711
  763MOL0     H 5248   4.057   6.766   2.065 -0.0709 -0.1939 -0.5658
  763MOL0     H 5249   4.185   6.663   2.127  1.4669 -1.2476 -1.6286
  763MOL0     H 5250   4.282   6.860   1.987  0.4158 -0.6167  0.2522
  763MOL0     H 5251   4.305   6.706   1.898 -3.1526 -0.6568 -3.4489
  763MOL0     H 5252   4.362   6.969   1.746  3.6542  2.6341  1.2801
  763MOL0     H 5253   4.423   7.286   1.650  1.4253  0.1691  0.3712
  763MOL0     H 5254   4.515   7.140   1.685  4.1052  4.4442 -0.0661
  763MOL0     H 5255   4.496   7.272   1.805  3.4354  0.3141 -0.0011
  763MOL0     H 5256   4.253   7.643   1.672  1.1889  0.0223  0.3738
  763MOL0     H 5257   4.216   7.873   1.655 -1.7989  1.3559 -1.7604
  763MOL0     H 5258   4.062   8.098   1.600  0.8700 -0.4077  2.3980
  763MOL0     H 5259   3.968   7.952   1.567  1.9229  0.2220 -1.4636
  763MOL0     H 5260   3.774   8.034   1.629  0.9368 -0.2448 -2.1009
  763MOL0     H 5261   3.836   8.178   1.719  0.8050 -1.9240  1.1375
  763MOL0     H 5262   3.744   8.215   1.471  0.1116  2.1384  0.6915
  763MOL0     H 5263   3.902   8.141   1.422  1.9605 -0.1863 -0.1868
  763MOL0     H 5264   3.976   8.353   1.424 -2.9695  0.7237 -2.4869
  763MOL0     H 5265   3.952   8.351   1.609  1.0315  2.8009 -1.0863
  763MOL0     H 5266   3.702   8.441   1.522 -1.3871  0.8175 -1.9847
  763MOL0     H 5267   3.849   8.534   1.494 -0.6440 -0.5458 -1.7384
  763MOL0     H 5268   3.705   8.368   1.288 -0.3014  0.4938  1.0434
  763MOL0     H 5269   3.863   8.422   1.254  0.3541 -0.6673  1.1537
  763MOL0     H 5270   3.779   8.659   1.310 -1.2557  0.4690  1.2542
  763MOL0     H 5271   3.613   8.585   1.310  0.2201  1.1255  0.0482
  763MOL0     H 5272   3.633   8.644   1.074  1.6383  0.6072 -0.2954
  763MOL0     H 5273   3.695   8.478   1.075 -1.8696  0.6089 -0.6735
  763MOL0     H 5274   3.901   7.843   1.965 -0.2968  1.5614  0.2700
  763MOL0     H 5275   3.968   7.598   1.986  2.1013 -2.6636 -0.3538
  763MOL0     H 5276   4.010   7.255   1.915 -1.4866 -1.3824 -1.9138
  763MOL0     H 5277   3.965   7.019   1.907  1.5946  1.0479  3.7468
  763MOL0     H 5278   4.492   5.834   2.558  0.0602 -0.6016  0.4168
  763MOL0     H 5279   4.751   5.788   2.617 -0.6796 -0.1531  1.1585
  763MOL0     H 5280   5.039   5.413   2.533 -1.4155  1.6560  3.6631
  763MOL0     H 5281   5.272   5.281   2.541  1.1559 -1.0744  2.7399
  763MOL0     H 5282   5.648   5.476   2.534  3.5081  1.1418  1.7443
  763MOL0     H 5283   5.604   5.509   2.701 -0.6948 -1.1881 -0.6893
  763MOL0     H 5284   5.663   5.224   2.613 -2.2257  1.5938 -0.1480
  763MOL0     H 5285   5.677   5.282   2.776  3.2688 -0.0725  0.7695
  763MOL0     H 5286   5.870   5.327   2.545  0.6553  0.0528  0.3714
  763MOL0     H 5287   5.891   5.417   2.701  1.8790 -0.4541 -0.3054
  763MOL0     H 5288   5.913   5.223   2.814 -0.7864  1.9093  0.7560
  763MOL0     H 5289   6.041   5.255   2.704 -0.9648  4.1436 -2.3710
  763MOL0     H 5290   5.889   4.880   2.557  0.0736  0.1397 -0.0243
  763MOL0     H 5291   5.477   5.639   2.602 -0.3992  1.8023 -2.4435
  763MOL0     H 5292   5.248   5.851   2.670  2.0678  1.9271  0.3176
  763MOL0     H 5293   5.377   5.851   2.545  1.3734  0.4585  4.4722
  763MOL0     H 5294   5.213   5.862   2.497  2.7791  0.7417 -1.0124
  764MOL0     O 5295   2.136   5.852   1.306 -0.4792  0.5094  0.3580
  764MOL0     C 5296   2.241   5.839   1.246  0.6609  0.4137 -1.1438
  764MOL0     O 5297   2.253   5.881   1.120  0.1647 -0.0539  0.4427
  764MOL0     C 5298   2.172   5.975   1.058  0.5684 -1.2539  0.0446
  764MOL0     C 5299   2.142   5.953   0.920 -0.0581  0.7646  0.2864
  764MOL0     C 5300   2.058   6.044   0.853 -0.6416  1.1268  0.0912
  764MOL0     C 5301   2.012   6.154   0.924 -1.0979 -0.5761  0.4553
  764MOL0     O 5302   1.918   6.249   0.880 -0.7373  0.2597 -0.4447
  764MOL0     C 5303   1.950   6.287   0.745  0.8793  0.2478 -0.0776
  764MOL0     C 5304   1.917   6.438   0.749  0.3225 -1.0311 -0.3349
  764MOL0     C 5305   1.989   6.500   0.634  0.1589 -0.8863  0.3723
  764MOL0     C 5306   1.957   6.644   0.637 -0.2676 -1.0054  0.5664
  764MOL0     C 5307   2.009   6.714   0.505 -0.3571 -0.1190 -0.6695
  764MOL0     C 5308   2.065   6.847   0.538 -0.7220 -0.1460 -0.4249
  764MOL0     C 5309   2.147   6.927   0.424  0.6316  0.0342 -1.5880
  764MOL0     C 5310   2.299   6.895   0.430 -1.1417  0.1459  0.5616
  764MOL0     N 5311   2.390   7.011   0.404  0.3150 -0.3212  0.0393
  764MOL0     C 5312   2.410   7.126   0.483  0.0153  0.7552  0.4093
  764MOL0     C 5313   2.499   7.203   0.407  1.1509  0.4467 -0.5482
  764MOL0     C 5314   2.548   7.334   0.454 -0.4526  0.2564  0.9218
  764MOL0     C 5315   2.692   7.371   0.411 -0.4496 -0.5785 -0.0506
  764MOL0     C 5316   2.796   7.343   0.516  0.7752 -1.0347 -0.6093
  764MOL0     C 5317   2.938   7.375   0.473 -0.2590 -0.0903  0.4632
  764MOL0     O 5318   2.938   7.504   0.417 -0.2628  0.7212  0.3072
  764MOL0     C 5319   2.989   7.607   0.488  0.9181 -0.3974 -0.1378
  764MOL0     C 5320   2.917   7.730   0.484  0.4033  0.7065 -0.3752
  764MOL0     C 5321   2.948   7.841   0.549  0.1551  0.1827 -0.6807
  764MOL0     C 5322   2.860   7.957   0.521  0.2617  1.1470 -0.5374
  764MOL0     C 5323   3.065   7.844   0.626 -0.4688 -1.7311  0.3807
  764MOL0     C 5324   3.086   7.963   0.711  0.6542 -0.1820  0.6185
  764MOL0     O 5325   3.090   8.097   0.671 -0.3510  0.0583 -1.0476
  764MOL0     C 5326   3.150   8.116   0.551  0.0306 -0.3876 -0.0515
  764MOL0     C 5327   3.239   8.040   0.483 -0.9101 -0.0927 -0.7722
  764MOL0     C 5328   3.269   8.072   0.352 -0.0063 -0.3160  1.0631
  764MOL0     C 5329   3.221   8.188   0.285  0.9574 -0.1355 -0.1126
  764MOL0     O 5330   3.260   8.220   0.161  0.0096 -0.5109  0.1678
  764MOL0     C 5331   3.234   8.120   0.063 -1.0069 -0.1597  0.7760
  764MOL0     C 5332   3.237   8.175  -0.078 -0.2560 -0.3414 -0.1182
  764MOL0     C 5333   3.164   8.311  -0.100  0.5290  1.1741  0.2443
  764MOL0     C 5334   3.007   8.290  -0.131  0.6046 -0.4676  0.1000
  764MOL0     C 5335   2.928   8.419  -0.154  0.9529  0.6836  0.4204
  764MOL0     C 5336   2.887   8.506  -0.032  0.1304  1.0092 -0.3461
  764MOL0     C 5337   2.797   8.632  -0.061 -0.5305 -0.6105 -0.5928
  764MOL0     C 5338   2.644   8.606  -0.049 -0.5550 -0.8007 -0.9119
  764MOL0    Cl 5339   2.549   8.675  -0.182 -0.0763 -0.4414  0.2242
  764MOL0     C 5340   3.152   8.275   0.364 -0.1190 -1.1259  0.4910
  764MOL0     C 5341   3.109   8.238   0.494  0.2578 -0.2406  0.4339
  764MOL0     O 5342   3.071   7.932   0.825  0.5183  1.0465 -0.5068
  764MOL0     C 5343   3.141   7.723   0.631 -0.1097 -0.8263  0.5526
  764MOL0     C 5344   3.104   7.604   0.570  0.1505  0.7922 -0.0738
  764MOL0     N 5345   2.546   7.128   0.304  0.4887  0.2882  0.5267
  764MOL0     N 5346   2.487   7.019   0.302  0.7054  0.3601 -1.0073
  764MOL0     C 5347   2.050   6.178   1.062  0.2909  0.2827  0.1807
  764MOL0     C 5348   2.123   6.083   1.134  0.0186 -0.2930  0.0350
  764MOL0     C 5349   2.373   5.782   1.309  0.4002  0.2674  0.1216
  764MOL0     C 5350   2.487   5.781   1.231  0.2017  0.0436  0.6101
  764MOL0     C 5351   2.610   5.736   1.279  1.2992  0.4142 -0.3953
  764MOL0     C 5352   2.616   5.687   1.406 -0.9990 -0.0072  0.2877
  764MOL0     O 5353   2.723   5.623   1.461 -0.8913 -0.5068 -0.4827
  764MOL0     C 5354   2.848   5.618   1.394  0.1832  0.0405 -0.1779
  764MOL0     C 5355   2.949   5.582   1.499 -0.0940  0.0644 -0.5451
  764MOL0     C 5356   2.964   5.431   1.496  0.1272 -0.1512  0.4664
  764MOL0     C 5357   2.861   5.354   1.576 -0.0320 -0.6220 -0.7854
  764MOL0     C 5358   2.880   5.210   1.573  0.1174  0.9998  0.0096
  764MOL0     C 5359   2.883   5.090   1.580 -0.8111  0.5270  0.5152
  764MOL0     C 5360   2.504   5.683   1.489 -0.6100  0.2846 -0.6917
  764MOL0     C 5361   2.390   5.733   1.442  0.0219 -0.6895 -0.1519
  764MOL0     C 5362   2.276   5.746   1.546 -0.6111  0.5980 -0.5866
  764MOL0     H 5363   2.172   5.859   0.875  2.2567  1.6590 -0.1659
  764MOL0     H 5364   2.038   6.032   0.747 -0.7216 -2.0560  0.3769
  764MOL0     H 5365   1.911   6.214   0.673  2.1564 -0.2289 -0.3156
  764MOL0     H 5366   2.057   6.283   0.724  1.3201  2.1427  1.5355
  764MOL0     H 5367   1.811   6.455   0.730  0.7143  2.5466 -0.1233
  764MOL0     H 5368   1.932   6.480   0.849  1.3294  1.0370 -1.2944
  764MOL0     H 5369   2.097   6.487   0.646 -0.3397 -4.1380  2.6720
  764MOL0     H 5370   1.946   6.462   0.540 -1.2153 -2.4159  1.5557
  764MOL0     H 5371   1.851   6.662   0.654 -0.6550 -0.1169 -2.1759
  764MOL0     H 5372   2.014   6.673   0.726  2.4454 -1.2351 -0.9752
  764MOL0     H 5373   1.933   6.713   0.427 -0.5149  0.7923 -0.5377
  764MOL0     H 5374   2.092   6.657   0.462  0.5321  0.0629  0.7421
  764MOL0     H 5375   1.979   6.898   0.582 -2.2546 -1.0266 -2.2530
  764MOL0     H 5376   2.139   6.825   0.616  0.7760 -0.6462 -1.9302
  764MOL0     H 5377   2.149   7.036   0.439 -0.8599 -0.1116 -0.1407
  764MOL0     H 5378   2.104   6.902   0.327 -1.7264  1.3018 -0.9437
  764MOL0     H 5379   2.322   6.852   0.527  0.6320  2.4688  1.2404
  764MOL0     H 5380   2.319   6.814   0.358  1.7954  1.4973 -0.3186
  764MOL0     H 5381   2.369   7.140   0.583  0.0526  1.9734  0.2726
  764MOL0     H 5382   2.539   7.336   0.563 -4.3654 -3.6217  0.9497
  764MOL0     H 5383   2.470   7.399   0.413 -1.2569 -0.7781  0.7639
  764MOL0     H 5384   2.721   7.326   0.315 -1.2974 -0.0974 -0.5434
  764MOL0     H 5385   2.691   7.478   0.392  0.3370 -0.0373  2.5364
  764MOL0     H 5386   2.773   7.410   0.600 -1.9269  2.6836 -3.8975
  764MOL0     H 5387   2.784   7.238   0.544  2.1288 -0.5472  2.2086
  764MOL0     H 5388   3.017   7.353   0.546  2.4521  0.9602 -1.9592
  764MOL0     H 5389   2.955   7.304   0.391 -1.8246  0.6650 -0.5628
  764MOL0     H 5390   2.837   7.732   0.411  1.5106 -1.4467 -1.7492
  764MOL0     H 5391   2.756   7.926   0.514  0.2256  0.4185  2.0544
  764MOL0     H 5392   2.894   7.998   0.426 -0.0540 -0.2156 -1.2523
  764MOL0     H 5393   2.856   8.023   0.609 -2.0114 -1.4259  1.4720
  764MOL0     H 5394   3.297   7.971   0.543 -1.2026 -0.1994 -0.6113
  764MOL0     H 5395   3.353   8.018   0.309  1.2754 -0.9008  4.0525
  764MOL0     H 5396   3.297   8.032   0.076  0.7827  0.3776 -3.0891
  764MOL0     H 5397   3.133   8.081   0.079 -2.6889  2.6193 -1.9086
  764MOL0     H 5398   3.336   8.192  -0.120 -1.2830  1.3382 -1.9939
  764MOL0     H 5399   3.195   8.094  -0.138  5.4839 -2.2311 -2.2222
  764MOL0     H 5400   3.212   8.357  -0.186  1.5500  1.9650  1.2021
  764MOL0     H 5401   3.176   8.379  -0.014  0.2292  1.2879  0.1977
  764MOL0     H 5402   2.970   8.245  -0.038  3.9064  1.1943  2.3819
  764MOL0     H 5403   2.993   8.221  -0.215 -1.2520 -2.5209  1.9383
  764MOL0     H 5404   2.987   8.467  -0.233  0.6238 -3.9087 -3.0475
  764MOL0     H 5405   2.827   8.398  -0.192  1.8621  0.2123 -1.8738
  764MOL0     H 5406   2.974   8.549   0.019 -0.2615  1.6812 -0.2241
  764MOL0     H 5407   2.838   8.434   0.034  1.5173 -1.7653 -2.1768
  764MOL0     H 5408   2.832   8.660  -0.160  0.2308 -2.0586 -0.7640
  764MOL0     H 5409   2.818   8.715   0.007  4.0497 -1.8363 -0.1471
  764MOL0     H 5410   2.605   8.631   0.050  2.8204  2.3014 -0.1026
  764MOL0     H 5411   2.636   8.497  -0.046  0.4165 -0.8784 -0.8435
  764MOL0     H 5412   3.126   8.367   0.313  1.8673 -1.4905 -1.3352
  764MOL0     H 5413   3.042   8.299   0.554 -3.0910 -3.3092  0.1488
  764MOL0     H 5414   3.240   7.722   0.674  1.9203 -0.4020 -3.6643
  764MOL0     H 5415   3.160   7.515   0.597 -0.9060 -0.1079 -0.7394
  764MOL0     H 5416   2.009   6.272   1.098 -0.4925 -1.1955  3.5393
  764MOL0     H 5417   2.156   6.104   1.236  3.4210 -2.3484 -0.4794
  764MOL0     H 5418   2.492   5.815   1.128  2.5058 -0.3576  0.5328
  764MOL0     H 5419   2.695   5.719   1.213 -0.0156  0.0008 -2.0615
  764MOL0     H 5420   2.833   5.538   1.320  1.2408  0.9209 -1.3837
  764MOL0     H 5421   2.875   5.718   1.360 -0.3287  0.5926  1.0210
  764MOL0     H 5422   2.924   5.612   1.602  1.8227 -1.0636  0.3034
  764MOL0     H 5423   3.042   5.638   1.487  0.4650 -1.0018 -1.4057
  764MOL0     H 5424   2.964   5.399   1.391  2.2680  1.2316 -0.0247
  764MOL0     H 5425   3.065   5.407   1.528  0.4466  0.7617  0.1792
  764MOL0     H 5426   2.760   5.368   1.536 -0.7396  0.0888  1.1359
  764MOL0     H 5427   2.872   5.383   1.681  2.0733  2.4692 -1.7015
  764MOL0     H 5428   2.908   4.986   1.577  0.1222  0.7296  0.9139
  764MOL0     H 5429   2.521   5.652   1.591 -2.0112 -0.3338 -0.6203
  764MOL0     H 5430   2.258   5.851   1.571  1.6282  0.8659  0.1844
  764MOL0     H 5431   2.186   5.708   1.498 -0.2845 -0.4647 -0.3834
  764MOL0     H 5432   2.296   5.695   1.641  1.1596  0.9020 -0.7535
  765MOL0     O 5433   2.424   2.935   3.337  0.0860  0.2935  1.3742
  765MOL0     C 5434   2.536   2.891   3.361  0.4949  0.0810  0.3610
  765MOL0     O 5435   2.562   2.758   3.361 -0.0874  0.1106  0.5887
  765MOL0     C 5436   2.457   2.670   3.347  0.4798  0.2763  0.4723
  765MOL0     C 5437   2.466   2.552   3.417  0.1016 -0.4165 -0.3602
  765MOL0     C 5438   2.382   2.449   3.396  0.3947  0.3341 -0.9806
  765MOL0     C 5439   2.278   2.455   3.302 -0.4472  0.3110 -0.3844
  765MOL0     O 5440   2.212   2.340   3.266 -0.1010 -0.4128  0.2843
  765MOL0     C 5441   2.273   2.205   3.264 -0.3503  0.3191  0.3617
  765MOL0     C 5442   2.185   2.082   3.230  0.5552 -1.1732 -0.1210
  765MOL0     C 5443   2.257   1.948   3.218  0.6210 -0.4498  0.5036
  765MOL0     C 5444   2.329   1.942   3.077  0.4519 -0.6516 -0.2815
  765MOL0     C 5445   2.433   1.829   3.065  0.1236 -0.5446  0.8788
  765MOL0     C 5446   2.459   1.773   2.921  0.1524  0.3786 -0.5244
  765MOL0     C 5447   2.544   1.870   2.832  1.2354  0.7640  0.2262
  765MOL0     C 5448   2.470   1.898   2.697 -0.2154 -0.4765 -0.5461
  765MOL0     N 5449   2.357   1.979   2.729 -0.0385 -0.2252  0.6027
  765MOL0     C 5450   2.352   2.110   2.746 -0.3732  0.8051 -0.5246
  765MOL0     C 5451   2.226   2.144   2.771 -0.4617 -1.3173  0.2510
  765MOL0     C 5452   2.168   2.283   2.800 -0.0895 -0.0220 -0.0510
  765MOL0     C 5453   2.162   2.355   2.663 -0.3309  0.8700 -0.7366
  765MOL0     C 5454   2.041   2.315   2.581  0.1684  0.6446  0.1049
  765MOL0     C 5455   2.042   2.406   2.446  0.1960  0.3666  0.5671
  765MOL0     O 5456   2.046   2.547   2.463 -1.2554  0.4594  0.1813
  765MOL0     C 5457   2.040   2.624   2.354  0.7016 -0.2472 -0.0001
  765MOL0     C 5458   2.130   2.733   2.357  0.7805 -0.2584  0.4600
  765MOL0     C 5459   2.146   2.819   2.250  0.2531 -0.3258  0.1209
  765MOL0     C 5460   2.254   2.923   2.268  0.9868  0.4542 -0.6798
  765MOL0     C 5461   2.051   2.808   2.143 -0.0322  0.2306 -0.6301
  765MOL0     C 5462   2.028   2.923   2.044 -0.5281  0.0233 -0.4345
  765MOL0     O 5463   1.919   2.912   1.971  0.3303  0.0875 -0.2508
  765MOL0     C 5464   1.880   3.027   1.898 -0.0444  0.1309  0.8496
  765MOL0     C 5465   1.873   3.156   1.960 -0.0775  0.2529 -0.8967
  765MOL0     C 5466   1.816   3.256   1.886 -1.0181  0.7097  1.0444
  765MOL0     C 5467   1.765   3.240   1.766  0.3359  0.2045  1.2980
  765MOL0     O 5468   1.707   3.348   1.693 -0.1788  0.2771 -0.6282
  765MOL0     C 5469   1.656   3.457   1.768  0.1701  0.6684  0.4693
  765MOL0     C 5470   1.584   3.557   1.676 -0.1433 -0.1243 -0.4650
  765MOL0     C 5471   1.507   3.486   1.560 -0.2436  0.5444  0.1717
  765MOL0     C 5472   1.414   3.392   1.616  0.6045  0.6573 -0.4970
  765MOL0     C 5473   1.299   3.342   1.526 -0.1932 -0.2979  1.0248
  765MOL0     C 5474   1.167   3.432   1.512  0.0252  0.0678 -0.0555
  765MOL0     C 5475   1.187   3.550   1.425  0.9896  0.4617 -0.5941
  765MOL0     C 5476   1.047   3.611   1.374 -0.5815  0.1160  0.0812
  765MOL0    Cl 5477   0.998   3.502   1.242  0.2331  0.0894  0.5293
  765MOL0     C 5478   1.792   3.123   1.698 -0.3743  0.2727 -0.0168
  765MOL0     C 5479   1.836   3.005   1.765 -0.5009 -1.1581  0.0378
  765MOL0     O 5480   2.111   3.022   2.037 -0.0547  0.4490 -0.1225
  765MOL0     C 5481   1.959   2.697   2.139 -0.7699 -0.8003  0.8058
  765MOL0     C 5482   1.964   2.601   2.242 -0.5408  0.5544 -0.1520
  765MOL0     N 5483   2.155   2.022   2.753  0.0097  0.1715 -0.3944
  765MOL0     N 5484   2.233   1.919   2.732 -0.2104 -0.1129  0.5326
  765MOL0     C 5485   2.261   2.573   3.235  0.2749  0.1799 -0.3778
  765MOL0     C 5486   2.345   2.679   3.259  0.4137 -0.5687  0.6330
  765MOL0     C 5487   2.645   2.983   3.369 -0.3190 -0.5872 -0.6688
  765MOL0     C 5488   2.775   2.939   3.337  0.7348 -0.8212  0.3184
  765MOL0     C 5489   2.882   3.029   3.352 -0.7758 -0.1938  0.1855
  765MOL0     C 5490   2.865   3.165   3.396 -0.5932 -0.5583 -0.2659
  765MOL0     O 5491   2.974   3.245   3.415 -1.2473 -0.3274 -0.4866
  765MOL0     C 5492   2.971   3.365   3.499 -0.5351 -0.4797  0.6323
  765MOL0     C 5493   3.111   3.392   3.558  0.3404  0.1102  0.0924
  765MOL0     C 5494   3.153   3.267   3.642 -0.2312  0.4707 -0.8075
  765MOL0     C 5495   3.249   3.278   3.758  0.0151 -0.2947  0.7824
  765MOL0     C 5496   3.170   3.280   3.886  0.1031 -0.0852  0.2740
  765MOL0     C 5497   3.116   3.297   3.994  0.1872  1.0827  0.2697
  765MOL0     C 5498   2.734   3.204   3.406 -0.3194 -1.2451  0.0936
  765MOL0     C 5499   2.628   3.122   3.409  0.0613  0.3329  0.6404
  765MOL0     C 5500   2.505   3.205   3.442 -1.1838 -0.1655 -0.1534
  765MOL0     H 5501   2.551   2.540   3.483  2.2300  2.1520 -2.3702
  765MOL0     H 5502   2.404   2.363   3.459  1.3436 -0.0721 -1.8335
  765MOL0     H 5503   2.319   2.176   3.359 -0.8281 -0.1462  0.4579
  765MOL0     H 5504   2.347   2.208   3.184 -0.5747 -2.5429 -0.0545
  765MOL0     H 5505   2.108   2.076   3.308 -0.6088  1.8995 -0.8737
  765MOL0     H 5506   2.131   2.113   3.140  0.5206 -2.9819 -0.7683
  765MOL0     H 5507   2.332   1.934   3.296 -0.7722 -3.5948  1.4393
  765MOL0     H 5508   2.178   1.873   3.227  1.9704 -2.1826 -1.3270
  765MOL0     H 5509   2.252   1.931   2.999  0.8151  1.4151 -0.9986
  765MOL0     H 5510   2.379   2.032   3.042  2.1163 -0.9267  1.2638
  765MOL0     H 5511   2.390   1.749   3.126  2.7562 -0.2528  3.3586
  765MOL0     H 5512   2.525   1.859   3.116 -0.0029  4.4764 -1.2343
  765MOL0     H 5513   2.505   1.676   2.943 -2.3180 -0.2920  2.2971
  765MOL0     H 5514   2.365   1.738   2.878 -1.6802  1.9197  1.9532
  765MOL0     H 5515   2.637   1.825   2.796  1.5968  0.5317  1.4353
  765MOL0     H 5516   2.571   1.955   2.894  0.8341 -0.1572  1.6982
  765MOL0     H 5517   2.543   1.936   2.625 -2.1762  1.3946 -1.6722
  765MOL0     H 5518   2.435   1.810   2.644 -2.8823 -0.5926  1.1992
  765MOL0     H 5519   2.435   2.179   2.738  0.3557 -0.2871 -4.5470
  765MOL0     H 5520   2.225   2.318   2.886  0.3422 -3.8792  1.4287
  765MOL0     H 5521   2.063   2.264   2.824  0.1348 -1.3784 -0.0824
  765MOL0     H 5522   2.155   2.455   2.706 -1.1010  1.5775 -2.4391
  765MOL0     H 5523   2.253   2.351   2.604  1.9318 -0.0458  2.5210
  765MOL0     H 5524   2.054   2.207   2.572  0.2809  0.6507  0.1867
  765MOL0     H 5525   1.947   2.342   2.629  0.0325 -1.3104  1.0334
  765MOL0     H 5526   2.139   2.376   2.407 -0.5331 -2.0750  0.4429
  765MOL0     H 5527   1.965   2.373   2.375  1.4082  1.1764 -1.1846
  765MOL0     H 5528   2.193   2.741   2.444  0.5643  2.4200  0.4608
  765MOL0     H 5529   2.198   3.009   2.305  0.5105  0.2521 -0.9325
  765MOL0     H 5530   2.319   2.931   2.181  1.3205  0.3981 -0.4397
  765MOL0     H 5531   2.316   2.889   2.352 -0.1009  2.3087  0.9712
  765MOL0     H 5532   1.927   3.164   2.054  4.9051  0.8258 -3.4222
  765MOL0     H 5533   1.824   3.355   1.930  0.3390  2.4098 -2.6408
  765MOL0     H 5534   1.590   3.425   1.849  0.6406 -1.2325  0.1558
  765MOL0     H 5535   1.732   3.516   1.821 -0.9636  1.0442  1.7271
  765MOL0     H 5536   1.517   3.616   1.740  1.8431  0.5014  1.1464
  765MOL0     H 5537   1.662   3.616   1.627 -0.1313 -2.7296 -3.9532
  765MOL0     H 5538   1.582   3.439   1.496  0.7371  1.1329  0.8555
  765MOL0     H 5539   1.460   3.560   1.495  1.2715 -0.8376 -2.6550
  765MOL0     H 5540   1.359   3.446   1.693 -0.6412  0.8163 -1.4624
  765MOL0     H 5541   1.469   3.310   1.663 -0.7186 -0.5737 -1.0275
  765MOL0     H 5542   1.357   3.341   1.433  0.2885 -0.2477  1.3212
  765MOL0     H 5543   1.264   3.239   1.534 -3.1738  0.4479 -0.7114
  765MOL0     H 5544   1.132   3.470   1.608 -2.5500 -1.0030 -0.4829
  765MOL0     H 5545   1.087   3.369   1.471  0.6634  0.7043 -2.4655
  765MOL0     H 5546   1.231   3.518   1.330 -0.9538  2.0693 -2.1363
  765MOL0     H 5547   1.242   3.625   1.483  0.0723 -0.2758  1.3413
  765MOL0     H 5548   1.053   3.714   1.337 -5.3120  0.0383 -1.5508
  765MOL0     H 5549   0.973   3.609   1.455  0.8265 -1.0199  1.4063
  765MOL0     H 5550   1.768   3.115   1.593  2.0976  2.0953 -0.8090
  765MOL0     H 5551   1.830   2.913   1.707  1.5386  0.1865 -2.5478
  765MOL0     H 5552   1.882   2.693   2.063  1.7909 -0.8618 -1.9828
  765MOL0     H 5553   1.890   2.521   2.235  0.9172 -0.8565  0.1515
  765MOL0     H 5554   2.198   2.580   3.148 -0.6421  1.8396  0.3626
  765MOL0     H 5555   2.328   2.766   3.195  0.1885 -0.1002  1.3122
  765MOL0     H 5556   2.808   2.842   3.301  1.9523  1.0298 -4.2675
  765MOL0     H 5557   2.982   2.993   3.332  0.6016  2.6507  1.4280
  765MOL0     H 5558   2.942   3.451   3.439 -0.1574 -1.0993 -0.4670
  765MOL0     H 5559   2.893   3.349   3.574 -0.8106  2.2198  1.0126
  765MOL0     H 5560   3.115   3.486   3.614  4.2409  0.4414 -0.4894
  765MOL0     H 5561   3.171   3.409   3.468 -0.7711  1.7423 -0.3930
  765MOL0     H 5562   3.059   3.221   3.675 -0.9733  3.3410  1.4996
  765MOL0     H 5563   3.206   3.199   3.575  0.2576 -0.1936  0.2386
  765MOL0     H 5564   3.312   3.367   3.745 -1.1508  0.7838  2.1406
  765MOL0     H 5565   3.312   3.189   3.757 -2.4908 -2.1897 -0.1976
  765MOL0     H 5566   3.058   3.327   4.078 -0.5151  1.8575 -0.4830
  765MOL0     H 5567   2.721   3.309   3.430  0.0493 -1.0470 -0.5649
  765MOL0     H 5568   2.459   3.229   3.346  1.1538  0.6670 -1.1227
  765MOL0     H 5569   2.448   3.150   3.518 -0.3131  0.1460  0.7375
  765MOL0     H 5570   2.523   3.302   3.488  1.1801 -0.2243 -0.8175
  766MOL0     O 5571  10.041   7.347   4.529  0.2072 -0.5971  0.3308
  766MOL0     C 5572  10.005   7.395   4.422  0.0459 -0.4422  0.7058
  766MOL0     O 5573   9.883   7.408   4.374  0.7656 -0.1936 -0.2026
  766MOL0     C 5574   9.790   7.421   4.480 -0.3791  0.2531  0.0990
  766MOL0     C 5575   9.735   7.311   4.545 -0.0796 -1.1028 -0.5517
  766MOL0     C 5576   9.649   7.341   4.653 -0.2508  0.3832  0.4590
  766MOL0     C 5577   9.616   7.470   4.679  0.9277 -0.8699 -0.7450
  766MOL0     O 5578   9.526   7.510   4.776 -0.1092 -0.3203  0.1900
  766MOL0     C 5579   9.424   7.416   4.801  0.2284 -0.1679  0.3099
  766MOL0     C 5580   9.364   7.458   4.938 -0.8248 -0.0641 -0.8430
  766MOL0     C 5581   9.325   7.614   4.946  1.1388  0.6305  0.4456
  766MOL0     C 5582   9.231   7.648   5.067 -0.5959 -0.3854 -0.6905
  766MOL0     C 5583   9.086   7.601   5.053  0.0909  0.3106  0.2754
  766MOL0     C 5584   9.008   7.668   5.160  0.4683  0.5360  0.4284
  766MOL0     C 5585   8.944   7.802   5.126  0.5413  0.2198 -0.6133
  766MOL0     C 5586   8.808   7.829   5.187  0.2681 -0.1535  0.5090
  766MOL0     N 5587   8.825   7.833   5.334  0.7447  0.4954  0.1154
  766MOL0     C 5588   8.783   7.726   5.417  0.1440  0.2897  0.1293
  766MOL0     C 5589   8.782   7.768   5.545  0.8789 -0.0154  1.0596
  766MOL0     C 5590   8.743   7.699   5.676 -0.2723 -0.2531  0.2142
  766MOL0     C 5591   8.826   7.566   5.700  0.5482 -0.2421 -0.6361
  766MOL0     C 5592   8.968   7.590   5.739  0.4909  0.0873 -0.0033
  766MOL0     C 5593   9.069   7.631   5.634  0.5595 -0.8462  0.7356
  766MOL0     O 5594   9.210   7.611   5.660  0.5414  0.4574 -0.2409
  766MOL0     C 5595   9.308   7.680   5.588 -1.0676 -0.7568  0.2098
  766MOL0     C 5596   9.295   7.762   5.468 -0.4429  0.0073 -0.0954
  766MOL0     C 5597   9.393   7.825   5.395  0.8701  0.6629 -0.2921
  766MOL0     C 5598   9.356   7.894   5.268 -0.1303 -1.1359 -0.5595
  766MOL0     C 5599   9.529   7.797   5.438 -0.5802  0.3350  1.0480
  766MOL0     C 5600   9.657   7.857   5.374  0.4294 -0.3774  0.0280
  766MOL0     O 5601   9.764   7.780   5.392 -0.6512 -0.0182  0.0868
  766MOL0     C 5602   9.887   7.839   5.383 -0.0967  0.3818 -1.0966
  766MOL0     C 5603   9.963   7.845   5.503 -0.3197  0.4882  0.9366
  766MOL0     C 5604  10.091   7.888   5.495  0.6818  0.2362 -0.2683
  766MOL0     C 5605  10.149   7.932   5.373 -1.0812  0.9298 -1.6660
  766MOL0     O 5606  10.284   7.945   5.374  0.1472  0.2430 -0.6049
  766MOL0     C 5607  10.338   8.080   5.351 -0.4580  0.0295 -0.0734
  766MOL0     C 5608  10.463   8.119   5.418 -1.0427  0.4756  0.1555
  766MOL0     C 5609  10.453   8.163   5.562  0.0849  0.7255 -0.2420
  766MOL0     C 5610  10.461   8.051   5.671 -0.5501 -1.0621 -0.2024
  766MOL0     C 5611  10.453   8.115   5.816  1.2584  0.0247  0.0693
  766MOL0     C 5612  10.474   8.004   5.919 -0.3804 -0.4706 -0.2381
  766MOL0     C 5613  10.446   8.063   6.062  0.1590  0.0093 -0.4169
  766MOL0     C 5614  10.554   8.016   6.159 -0.9940  0.0026  0.2934
  766MOL0    Cl 5615  10.526   8.108   6.312  0.5078  0.3176  0.4496
  766MOL0     C 5616  10.075   7.933   5.259 -0.6055  0.1870  0.3560
  766MOL0     C 5617   9.943   7.880   5.260 -0.8904 -0.1421 -0.1232
  766MOL0     O 5618   9.649   7.968   5.316  0.0185  0.1293 -0.1745
  766MOL0     C 5619   9.549   7.729   5.553  0.3505  0.6389  1.2115
  766MOL0     C 5620   9.444   7.682   5.627  0.1715  0.4640 -0.2972
  766MOL0     N 5621   8.831   7.897   5.546  0.3932 -0.2309 -0.2026
  766MOL0     N 5622   8.843   7.935   5.415 -0.6953  0.3590  0.5960
  766MOL0     C 5623   9.662   7.576   4.607  0.2618  0.5552 -0.1817
  766MOL0     C 5624   9.756   7.554   4.507  0.5784 -0.2329  0.1983
  766MOL0     C 5625  10.104   7.456   4.324  0.8403  0.0224 -0.8886
  766MOL0     C 5626  10.064   7.515   4.205 -0.1982  0.4386 -0.7060
  766MOL0     C 5627  10.146   7.570   4.114  0.7230  0.0525 -0.6026
  766MOL0     C 5628  10.280   7.558   4.134  0.3451  0.7720  0.2510
  766MOL0     O 5629  10.357   7.607   4.029  0.1240 -1.0622 -0.4047
  766MOL0     C 5630  10.497   7.617   4.055  1.2795 -0.3402 -0.6440
  766MOL0     C 5631  10.544   7.684   3.923  0.7447 -1.0389 -0.6738
  766MOL0     C 5632  10.690   7.696   3.929  0.5790 -0.4937 -0.2676
  766MOL0     C 5633  10.746   7.764   3.807 -0.2980 -0.2570  0.6043
  766MOL0     C 5634  10.790   7.907   3.819 -1.7071 -0.0493  0.1332
  766MOL0     C 5635  10.816   8.023   3.826 -0.1235 -0.1270  0.4445
  766MOL0     C 5636  10.331   7.512   4.258 -0.3348  1.9262  0.5794
  766MOL0     C 5637  10.246   7.462   4.356  0.4066  0.0946 -0.1273
  766MOL0     C 5638  10.318   7.412   4.481  0.5282 -0.2899 -0.9832
  766MOL0     H 5639   9.759   7.208   4.521  1.1605 -0.6421 -1.3777
  766MOL0     H 5640   9.611   7.264   4.719 -2.1719 -0.4789 -1.5134
  766MOL0     H 5641   9.464   7.317   4.822  0.8063 -0.0213 -0.0730
  766MOL0     H 5642   9.361   7.418   4.712  0.8145  0.7559 -0.1086
  766MOL0     H 5643   9.282   7.389   4.961 -0.9370 -0.5217 -2.5429
  766MOL0     H 5644   9.441   7.439   5.014  1.4195  0.9635 -2.7380
  766MOL0     H 5645   9.414   7.677   4.952  0.4566  1.7920 -1.0674
  766MOL0     H 5646   9.270   7.644   4.856  1.3209  1.6170  0.6590
  766MOL0     H 5647   9.269   7.619   5.165 -1.0604  0.9147 -0.0970
  766MOL0     H 5648   9.237   7.758   5.064  3.1312 -0.4786 -1.6518
  766MOL0     H 5649   9.079   7.492   5.053 -1.2732  0.3465 -1.5975
  766MOL0     H 5650   9.048   7.637   4.957  0.5969  1.4774  0.4999
  766MOL0     H 5651   8.916   7.611   5.178  1.6260 -1.9087 -0.8551
  766MOL0     H 5652   9.051   7.678   5.260 -3.2289 -0.6852  2.3497
  766MOL0     H 5653   8.947   7.816   5.018  2.5169  2.0744 -0.3867
  766MOL0     H 5654   9.019   7.870   5.167 -1.2197  0.4796  2.5464
  766MOL0     H 5655   8.778   7.926   5.146 -0.1702 -0.5697 -0.1761
  766MOL0     H 5656   8.735   7.753   5.157 -1.0546  1.9823 -2.0875
  766MOL0     H 5657   8.739   7.636   5.374  2.0936 -0.8475  0.3996
  766MOL0     H 5658   8.638   7.670   5.669 -0.1328 -0.7613  0.1790
  766MOL0     H 5659   8.749   7.763   5.765 -1.4854 -1.0287  0.8856
  766MOL0     H 5660   8.773   7.521   5.785 -2.2348  1.7283 -1.1663
  766MOL0     H 5661   8.817   7.498   5.615 -0.4794 -0.8807 -0.0533
  766MOL0     H 5662   8.974   7.668   5.815 -0.8315  0.0892  0.1342
  766MOL0     H 5663   9.007   7.495   5.778  0.3299  1.1335  2.9506
  766MOL0     H 5664   9.042   7.583   5.540 -3.9580 -0.4096  1.5983
  766MOL0     H 5665   9.060   7.738   5.615  1.3400 -1.1315 -1.5697
  766MOL0     H 5666   9.191   7.762   5.436 -0.5533 -0.4828  0.2516
  766MOL0     H 5667   9.430   7.865   5.193  0.2949 -0.2293 -0.5025
  766MOL0     H 5668   9.355   8.003   5.278 -0.6164 -1.1785 -0.0639
  766MOL0     H 5669   9.255   7.864   5.237  0.0792  0.2865 -2.8213
  766MOL0     H 5670   9.912   7.808   5.591  0.2315  0.0321  1.0635
  766MOL0     H 5671  10.154   7.873   5.582  3.5386 -1.1933 -2.3939
  766MOL0     H 5672  10.367   8.078   5.245 -1.1089  0.2616 -0.2637
  766MOL0     H 5673  10.269   8.165   5.344  0.2128  0.5836 -0.0095
  766MOL0     H 5674  10.536   8.038   5.414 -1.8300 -0.2567  0.3578
  766MOL0     H 5675  10.529   8.190   5.366  1.3089 -1.2042  0.6975
  766MOL0     H 5676  10.363   8.221   5.586  0.6276  0.7778  1.8809
  766MOL0     H 5677  10.528   8.240   5.584 -1.4838  3.3460 -3.3239
  766MOL0     H 5678  10.553   7.991   5.665  0.9615  0.3568  4.2829
  766MOL0     H 5679  10.374   7.984   5.664  0.0892 -1.9434  0.0329
  766MOL0     H 5680  10.513   8.207   5.820 -0.3652  1.4681 -3.6140
  766MOL0     H 5681  10.351   8.153   5.831  0.1938 -1.1239 -3.3728
  766MOL0     H 5682  10.581   7.984   5.917  0.2266  2.3761 -1.5104
  766MOL0     H 5683  10.430   7.910   5.884 -0.9569 -0.0958 -0.5391
  766MOL0     H 5684  10.345   8.029   6.086  1.6877 -5.1892 -0.2279
  766MOL0     H 5685  10.449   8.172   6.050  0.7949 -0.3411 -6.3276
  766MOL0     H 5686  10.657   8.026   6.122 -0.6957  0.9393  1.3598
  766MOL0     H 5687  10.551   7.908   6.176  0.8228 -0.2231 -0.5178
  766MOL0     H 5688  10.119   7.979   5.171 -1.8157  0.4589 -0.1239
  766MOL0     H 5689   9.899   7.884   5.161  1.0961 -0.2550 -1.0498
  766MOL0     H 5690   9.641   7.706   5.606 -1.9028 -3.4576  3.8331
  766MOL0     H 5691   9.473   7.644   5.724  0.7179 -0.1072 -0.6801
  766MOL0     H 5692   9.635   7.681   4.614  3.4656  1.6078 -1.8466
  766MOL0     H 5693   9.801   7.631   4.445 -2.4608 -0.5295 -2.6393
  766MOL0     H 5694   9.956   7.521   4.195 -0.1033  1.8446 -1.2300
  766MOL0     H 5695  10.103   7.619   4.028 -1.5639  2.6628  1.8296
  766MOL0     H 5696  10.526   7.680   4.139 -2.4795 -0.7762  1.1691
  766MOL0     H 5697  10.557   7.526   4.067  2.4881  0.5508  0.2855
  766MOL0     H 5698  10.502   7.783   3.904 -0.4854 -1.0028  1.8502
  766MOL0     H 5699  10.514   7.623   3.837 -2.3756  0.8935 -1.0972
  766MOL0     H 5700  10.720   7.743   4.023  1.5397 -3.1818  0.8844
  766MOL0     H 5701  10.746   7.602   3.937  0.5473 -0.3836  1.8771
  766MOL0     H 5702  10.672   7.760   3.727 -0.1475 -1.9892  0.5113
  766MOL0     H 5703  10.828   7.701   3.771 -2.4071 -3.1276  0.4717
  766MOL0     H 5704  10.835   8.128   3.834 -2.0402  0.1399  2.6766
  766MOL0     H 5705  10.434   7.499   4.290 -0.7289 -0.8157  0.9802
  766MOL0     H 5706  10.413   7.467   4.491 -0.2582  1.8558 -3.8928
  766MOL0     H 5707  10.259   7.438   4.569 -2.2000  0.9974 -3.0457
  766MOL0     H 5708  10.349   7.308   4.479  0.0426 -0.5885  2.2090
  767MOL0     O 5709  10.539   7.601   2.394  0.8551 -0.5067  0.9338
  767MOL0     C 5710  10.449   7.642   2.325 -0.5541  0.6273  0.9920
  767MOL0     O 5711  10.428   7.599   2.194 -0.3328  0.9606  0.0566
  767MOL0     C 5712  10.512   7.504   2.138 -0.8329  0.3566 -0.1248
  767MOL0     C 5713  10.651   7.511   2.137 -1.8851 -0.2542 -1.4587
  767MOL0     C 5714  10.727   7.409   2.080 -0.0830 -0.7945 -0.5558
  767MOL0     C 5715  10.677   7.295   2.027  0.0437  0.3735  0.5216
  767MOL0     O 5716  10.765   7.206   1.962 -0.1762  0.0922  0.1270
  767MOL0     C 5717  10.715   7.086   1.892  0.1959 -1.1865  0.7044
  767MOL0     C 5718  10.831   6.990   1.863  0.0328 -0.9648  0.0435
  767MOL0     C 5719  10.773   6.865   1.799 -0.2341 -0.1158 -0.0246
  767MOL0     C 5720  10.720   6.890   1.659  0.3925  0.5116  0.5321
  767MOL0     C 5721  10.703   6.763   1.568 -0.1519 -0.0088 -0.0381
  767MOL0     C 5722  10.718   6.797   1.422 -0.4415  0.2184 -0.8453
  767MOL0     C 5723  10.755   6.673   1.335 -0.0873 -0.5002  0.4523
  767MOL0     C 5724  10.906   6.625   1.353  0.3524  0.5374  0.1962
  767MOL0     N 5725  11.000   6.689   1.256  0.0605  0.1909 -0.8358
  767MOL0     C 5726  11.009   6.667   1.124  0.7408 -0.1592  0.1787
  767MOL0     C 5727  11.120   6.738   1.088  0.4059  0.1738 -0.2156
  767MOL0     C 5728  11.183   6.729   0.955  0.0902  0.1215 -0.2867
  767MOL0     C 5729  11.231   6.595   0.921 -0.0958  0.2324 -0.1539
  767MOL0     C 5730  11.278   6.570   0.781 -0.5347 -0.6892 -0.2567
  767MOL0     C 5731  11.401   6.664   0.752  1.0422  0.3764  0.7417
  767MOL0     O 5732  11.480   6.612   0.641 -1.0338  0.4652 -0.1238
  767MOL0     C 5733  11.541   6.489   0.657 -0.8073  0.1270  0.1118
  767MOL0     C 5734  11.517   6.404   0.553  0.1511  0.8090 -0.4163
  767MOL0     C 5735  11.579   6.281   0.555 -0.0053  0.1736 -1.1778
  767MOL0     C 5736  11.543   6.199   0.441  0.4808 -0.4845  0.3152
  767MOL0     C 5737  11.653   6.239   0.670 -0.2521  1.3759  1.2718
  767MOL0     C 5738  11.702   6.092   0.685 -1.1028 -0.0580 -1.2271
  767MOL0     O 5739  11.752   6.072   0.816  0.6164 -0.1418  0.3311
  767MOL0     C 5740  11.818   5.953   0.831  0.4888  0.0674 -0.7418
  767MOL0     C 5741  11.760   5.840   0.876  0.2017  0.9765  0.2401
  767MOL0     C 5742  11.819   5.711   0.888  0.2742  0.1955 -0.4141
  767MOL0     C 5743  11.958   5.705   0.865  0.2036 -0.9982 -0.4254
  767MOL0     O 5744  12.032   5.590   0.872 -0.2227 -0.0456  0.4407
  767MOL0     C 5745  11.965   5.482   0.929  0.3084  0.8521 -0.2161
  767MOL0     C 5746  12.064   5.363   0.945  0.2251  0.6242  0.8048
  767MOL0     C 5747  12.187   5.390   1.033 -0.3002  0.4861  0.0613
  767MOL0     C 5748  12.275   5.254   1.044  0.1933 -0.0448  0.3301
  767MOL0     C 5749  12.340   5.209   0.907  0.3104  0.5123 -0.8333
  767MOL0     C 5750  12.473   5.137   0.934 -0.2243  0.4948  0.7619
  767MOL0     C 5751  12.586   5.249   0.964  0.7724  0.7855  0.5066
  767MOL0     C 5752  12.621   5.320   0.834 -0.3349  0.0830 -0.4563
  767MOL0    Cl 5753  12.782   5.388   0.855  0.0478 -0.2113  1.1407
  767MOL0     C 5754  12.024   5.821   0.807  0.3851 -0.7060  0.3923
  767MOL0     C 5755  11.953   5.940   0.795  0.5757  1.3024  0.4895
  767MOL0     O 5756  11.699   6.010   0.592  0.2190 -0.3529  0.2050
  767MOL0     C 5757  11.688   6.329   0.767 -0.2319 -0.3918 -0.8963
  767MOL0     C 5758  11.636   6.458   0.768 -0.2924  0.1369  0.0551
  767MOL0     N 5759  11.179   6.799   1.199 -0.6319 -0.3362 -0.0640
  767MOL0     N 5760  11.102   6.771   1.301 -0.2148  0.0430 -0.6771
  767MOL0     C 5761  10.537   7.292   2.014 -0.3351 -0.0742 -0.3252
  767MOL0     C 5762  10.458   7.398   2.064 -0.3896 -0.4655 -0.5205
  767MOL0     C 5763  10.342   7.715   2.393  0.4397 -0.9883  0.5570
  767MOL0     C 5764  10.211   7.677   2.371  0.3006 -0.7895  0.2224
  767MOL0     C 5765  10.102   7.744   2.436  0.3814 -0.4419  0.3137
  767MOL0     C 5766  10.124   7.845   2.528 -0.1300  0.2323 -0.0366
  767MOL0     O 5767  10.020   7.930   2.559  0.3495 -0.3046 -0.1542
  767MOL0     C 5768  10.010   7.989   2.692 -0.8221  1.7036  0.3829
  767MOL0     C 5769   9.889   8.078   2.683 -0.1263 -0.5505 -0.4658
  767MOL0     C 5770   9.919   8.184   2.574 -0.6613  0.1227  0.3875
  767MOL0     C 5771   9.811   8.292   2.575 -0.1640  0.3767 -0.0691
  767MOL0     C 5772   9.856   8.424   2.526 -0.5674 -0.0747 -0.7304
  767MOL0     C 5773   9.905   8.527   2.488 -0.6599  0.2144  0.5917
  767MOL0     C 5774  10.253   7.873   2.557 -0.0275 -0.0446  0.1882
  767MOL0     C 5775  10.367   7.817   2.492  0.4642  0.1957  0.6096
  767MOL0     C 5776  10.492   7.895   2.494  0.2063  0.1743  0.2659
  767MOL0     H 5777  10.708   7.588   2.190 -1.7545 -2.3665  1.7784
  767MOL0     H 5778  10.836   7.412   2.075 -0.1307  0.5471 -1.4075
  767MOL0     H 5779  10.663   7.112   1.799 -1.7535  2.3089  2.5848
  767MOL0     H 5780  10.645   7.035   1.959 -1.3335  1.4853  1.2885
  767MOL0     H 5781  10.901   7.031   1.789 -2.0227  1.3662 -0.7301
  767MOL0     H 5782  10.890   6.975   1.954 -0.6011 -2.3782  0.2436
  767MOL0     H 5783  10.861   6.803   1.778  0.4872  0.0614  2.2299
  767MOL0     H 5784  10.710   6.804   1.865  1.4056  0.0044  1.7633
  767MOL0     H 5785  10.622   6.935   1.679  0.8429  2.3520 -1.0425
  767MOL0     H 5786  10.766   6.977   1.610 -1.3183  2.2960  1.9019
  767MOL0     H 5787  10.603   6.723   1.586 -2.8882  4.6520 -2.6563
  767MOL0     H 5788  10.789   6.701   1.594 -0.1941 -0.1458 -0.2284
  767MOL0     H 5789  10.618   6.831   1.391 -0.6596 -0.4155 -0.8583
  767MOL0     H 5790  10.790   6.879   1.420 -0.2233  0.0393 -0.4025
  767MOL0     H 5791  10.745   6.701   1.230  0.9916 -1.7115  0.0112
  767MOL0     H 5792  10.681   6.596   1.359  2.7200 -2.8306  2.2994
  767MOL0     H 5793  10.923   6.653   1.457  0.1283 -1.7555  0.9032
  767MOL0     H 5794  10.903   6.518   1.334  0.5448  0.6844 -0.7041
  767MOL0     H 5795  10.943   6.615   1.054 -1.2329  0.6327  1.3680
  767MOL0     H 5796  11.265   6.801   0.955 -2.2236  3.0655  2.7284
  767MOL0     H 5797  11.117   6.737   0.868 -0.3510  1.0401  0.1228
  767MOL0     H 5798  11.310   6.579   0.995  1.8187 -1.5499 -2.3979
  767MOL0     H 5799  11.152   6.522   0.938  0.8471 -1.6790 -3.0562
  767MOL0     H 5800  11.305   6.464   0.776 -0.0448 -0.5696 -0.2377
  767MOL0     H 5801  11.195   6.577   0.710  0.4436  1.9089 -1.2770
  767MOL0     H 5802  11.375   6.767   0.725  1.8883  0.5591  0.6063
  767MOL0     H 5803  11.460   6.684   0.842 -0.5563  0.0064  1.9289
  767MOL0     H 5804  11.449   6.430   0.471 -3.7362 -1.2214  1.8666
  767MOL0     H 5805  11.513   6.095   0.457 -3.0786  0.3011 -0.4002
  767MOL0     H 5806  11.631   6.210   0.377 -0.3319  1.7128 -0.5114
  767MOL0     H 5807  11.467   6.242   0.375  2.1079 -1.8780 -2.6219
  767MOL0     H 5808  11.655   5.839   0.906  0.1961  0.1608  0.2070
  767MOL0     H 5809  11.756   5.623   0.898 -1.6706  1.5887  0.3267
  767MOL0     H 5810  11.920   5.498   1.027  1.1746  0.2339  0.3000
  767MOL0     H 5811  11.882   5.461   0.860 -1.0254  2.0140  0.9788
  767MOL0     H 5812  12.004   5.275   0.971  0.5083 -0.0334 -0.6747
  767MOL0     H 5813  12.102   5.340   0.845 -0.0456  0.6294  0.7007
  767MOL0     H 5814  12.177   5.430   1.135  2.3921 -0.8617  0.9638
  767MOL0     H 5815  12.250   5.463   0.980 -2.4272 -0.1098 -3.6039
  767MOL0     H 5816  12.220   5.165   1.077 -1.7835  0.5780 -1.0448
  767MOL0     H 5817  12.344   5.276   1.126  0.1401 -2.8179  1.2379
  767MOL0     H 5818  12.275   5.130   0.867  2.1697 -1.9182  0.6905
  767MOL0     H 5819  12.345   5.287   0.831 -0.4293 -0.7701 -2.2694
  767MOL0     H 5820  12.501   5.083   0.843  1.8347  0.3612  1.4243
  767MOL0     H 5821  12.471   5.057   1.009  2.9180  1.4861  2.0673
  767MOL0     H 5822  12.675   5.194   0.995 -0.2067 -1.2556 -0.1424
  767MOL0     H 5823  12.550   5.317   1.042 -0.0812  0.7125  0.1888
  767MOL0     H 5824  12.551   5.399   0.805  1.0459  2.1072  1.3980
  767MOL0     H 5825  12.616   5.250   0.750 -1.7133  1.2261 -1.3884
  767MOL0     H 5826  12.128   5.817   0.776  1.0227  2.5963  1.6798
  767MOL0     H 5827  12.000   6.022   0.742 -1.8019  0.7657 -2.7539
  767MOL0     H 5828  11.771   6.301   0.831  2.8137  1.2864 -3.7923
  767MOL0     H 5829  11.666   6.535   0.838  0.9274 -0.6413  0.4154
  767MOL0     H 5830  10.484   7.226   1.946 -0.5091  0.4387 -0.6926
  767MOL0     H 5831  10.354   7.403   2.034 -0.3655  1.7662 -0.3545
  767MOL0     H 5832  10.175   7.605   2.299  0.9567  0.8587 -1.8469
  767MOL0     H 5833  10.002   7.708   2.412  1.0462 -1.2156 -1.4598
  767MOL0     H 5834  10.009   7.909   2.766  0.7040 -0.0716 -1.4038
  767MOL0     H 5835  10.099   8.051   2.704  3.5940 -3.7544 -0.0790
  767MOL0     H 5836   9.875   8.121   2.782  1.6045 -0.6824 -0.1295
  767MOL0     H 5837   9.802   8.020   2.651  0.8991 -1.0789 -2.4753
  767MOL0     H 5838  10.014   8.233   2.598 -1.1574  1.0032  0.5935
  767MOL0     H 5839   9.935   8.137   2.476 -0.6789 -1.4280  1.0961
  767MOL0     H 5840   9.776   8.315   2.676  0.2234 -1.0900  0.4238
  767MOL0     H 5841   9.721   8.269   2.516  0.1922  2.2320 -1.4168
  767MOL0     H 5842   9.961   8.605   2.440 -0.6212  1.1743  2.1067
  767MOL0     H 5843  10.276   7.958   2.620 -0.8695  0.5829 -0.3290
  767MOL0     H 5844  10.575   7.824   2.499 -1.1913 -1.5400  0.0848
  767MOL0     H 5845  10.497   7.946   2.397  1.1448  1.9464  1.1895
  767MOL0     H 5846  10.498   7.974   2.570  0.9778  0.0040  0.3898
  768MOL0     O 5847   3.757   9.056  10.700  0.1283  0.2649 -0.1129
  768MOL0     C 5848   3.640   9.004  10.704 -0.6543 -0.2834  0.0487
  768MOL0     O 5849   3.594   8.914  10.803  0.7285  0.2684 -0.6030
  768MOL0     C 5850   3.669   8.872  10.913  1.1035 -0.1503  0.0151
  768MOL0     C 5851   3.758   8.954  10.980  0.9017  0.4200 -0.8134
  768MOL0     C 5852   3.837   8.900  11.077 -0.5977  0.0960 -0.0812
  768MOL0     C 5853   3.847   8.763  11.103 -0.3048  0.0388  0.1291
  768MOL0     O 5854   3.948   8.715  11.186 -1.2544  0.3815 -0.0254
  768MOL0     C 5855   3.946   8.595  11.261  1.1585  1.0892 -0.0883
  768MOL0     C 5856   4.072   8.578  11.341 -0.3556 -0.2380 -0.3984
  768MOL0     C 5857   4.088   8.692  11.445 -0.0643  0.1760  0.8023
  768MOL0     C 5858   4.215   8.679  11.522 -0.7718 -0.0357 -0.6883
  768MOL0     C 5859   4.238   8.813  11.602  0.2182 -0.5145  0.1800
  768MOL0     C 5860   4.365   8.792  11.688 -0.3378  0.6527  0.7115
  768MOL0     C 5861   4.433   8.917  11.740  0.2124 -0.1952  0.0498
  768MOL0     C 5862   4.579   8.900  11.787  0.2638  0.2425 -0.2565
  768MOL0     N 5863   4.679   8.883  11.681 -0.0002  0.4142 -0.8824
  768MOL0     C 5864   4.785   8.965  11.668 -1.0315  0.1057 -0.7605
  768MOL0     C 5865   4.855   8.914  11.574 -1.0136  0.2753 -0.4885
  768MOL0     C 5866   4.984   8.981  11.525  0.3187 -0.2128  0.8193
  768MOL0     C 5867   5.117   8.931  11.592 -0.7060 -0.5650 -0.3442
  768MOL0     C 5868   5.242   8.999  11.526  0.6477  0.2305  0.6182
  768MOL0     C 5869   5.383   8.955  11.568 -0.8893 -0.4511 -0.0538
  768MOL0     O 5870   5.424   8.815  11.560  0.3280  0.0331  0.8519
  768MOL0     C 5871   5.462   8.759  11.432 -0.1371 -0.9307  0.4830
  768MOL0     C 5872   5.466   8.624  11.418  0.1560  0.0634 -0.6233
  768MOL0     C 5873   5.505   8.551  11.302 -0.9586 -1.2523  0.3088
  768MOL0     C 5874   5.514   8.403  11.304  0.2080 -0.1318 -0.0842
  768MOL0     C 5875   5.535   8.628  11.187 -0.1451  0.6373  1.7306
  768MOL0     C 5876   5.612   8.569  11.074 -0.4907 -0.2120  0.1291
  768MOL0     O 5877   5.729   8.632  11.044  0.2583  0.2464 -0.6120
  768MOL0     C 5878   5.826   8.563  10.975 -1.1505  0.3502 -0.6433
  768MOL0     C 5879   5.963   8.580  11.014 -0.4353 -0.0158 -0.2374
  768MOL0     C 5880   6.068   8.527  10.946  0.4168  0.5065  0.6477
  768MOL0     C 5881   6.046   8.461  10.821  0.5774 -0.0538  0.5279
  768MOL0     O 5882   6.163   8.434  10.750 -0.4913  0.5076  0.2354
  768MOL0     C 5883   6.152   8.350  10.636  0.0419  0.4411 -0.7843
  768MOL0     C 5884   6.135   8.201  10.660  0.0911 -1.2981  0.0840
  768MOL0     C 5885   6.234   8.146  10.749  0.0757  0.0530  0.2426
  768MOL0     C 5886   6.233   7.998  10.756 -0.0963  0.6414 -0.6721
  768MOL0     C 5887   6.348   7.927  10.828 -0.3756 -0.2529 -0.4200
  768MOL0     C 5888   6.477   7.919  10.748 -0.1236 -0.3532 -0.0520
  768MOL0     C 5889   6.594   7.831  10.814 -0.0650 -0.6294  0.7166
  768MOL0     C 5890   6.625   7.876  10.964 -0.2462 -0.3811 -0.3451
  768MOL0    Cl 5891   6.795   7.837  10.992 -0.1373  0.0414 -0.1787
  768MOL0     C 5892   5.914   8.461  10.776 -0.0239 -0.2425  0.7464
  768MOL0     C 5893   5.807   8.518  10.845 -0.1329 -0.8534 -0.4907
  768MOL0     O 5894   5.592   8.454  11.044  0.5534  0.3877  0.1026
  768MOL0     C 5895   5.523   8.773  11.195 -0.3028 -0.0140  0.8956
  768MOL0     C 5896   5.496   8.832  11.319 -0.3986 -0.8215  0.3358
  768MOL0     N 5897   4.811   8.790  11.530 -0.0456 -0.0084 -0.0139
  768MOL0     N 5898   4.703   8.774  11.598 -0.4587 -0.2472 -0.0670
  768MOL0     C 5899   3.741   8.683  11.054 -0.0684  0.3331  0.5072
  768MOL0     C 5900   3.653   8.740  10.949 -0.5254 -0.3003 -0.3232
  768MOL0     C 5901   3.536   9.036  10.607  1.2333 -0.4149  0.3737
  768MOL0     C 5902   3.414   8.966  10.613  0.0888 -0.0696  0.7697
  768MOL0     C 5903   3.295   8.997  10.532  0.0979  0.4130 -1.2215
  768MOL0     C 5904   3.307   9.102  10.447 -0.5472 -0.3744 -0.0496
  768MOL0     O 5905   3.199   9.107  10.361  0.1297 -0.2957 -0.0129
  768MOL0     C 5906   3.213   9.198  10.250  0.9086 -0.0302 -0.0496
  768MOL0     C 5907   3.099   9.186  10.142  1.4566 -0.0107  0.2119
  768MOL0     C 5908   3.103   9.298  10.033  0.1963  0.7821 -1.3037
  768MOL0     C 5909   2.991   9.282   9.933 -0.3104  0.5004 -1.1892
  768MOL0     C 5910   2.871   9.356   9.974  0.2784 -0.6816 -0.1686
  768MOL0     C 5911   2.765   9.407  10.018 -1.1708  0.2761  0.2635
  768MOL0     C 5912   3.422   9.178  10.437  0.1316  0.5709  0.1940
  768MOL0     C 5913   3.533   9.148  10.518 -0.0351 -0.0107 -1.0918
  768MOL0     C 5914   3.661   9.228  10.498  0.4940  0.2147 -0.1379
  768MOL0     H 5915   3.777   9.055  10.942 -2.0052  0.6779 -1.8633
  768MOL0     H 5916   3.909   8.966  11.124 -2.0817  0.2724  2.1013
  768MOL0     H 5917   3.943   8.503  11.203 -0.5949  0.7914  0.4033
  768MOL0     H 5918   3.855   8.591  11.323  0.5655 -0.8364 -1.0106
  768MOL0     H 5919   4.073   8.479  11.388  0.9046  0.0446  0.2029
  768MOL0     H 5920   4.144   8.585  11.260 -1.8684 -0.1817 -1.7779
  768MOL0     H 5921   4.092   8.779  11.379 -0.0035 -1.8088 -1.9874
  768MOL0     H 5922   4.003   8.711  11.512 -0.4402  1.7879 -0.0833
  768MOL0     H 5923   4.210   8.601  11.599 -2.5750 -0.0516 -0.7783
  768MOL0     H 5924   4.307   8.659  11.467  0.5003  0.3273  1.2141
  768MOL0     H 5925   4.153   8.834  11.668 -2.5524 -3.1302 -2.2239
  768MOL0     H 5926   4.251   8.886  11.522  0.9850 -2.0230 -1.1187
  768MOL0     H 5927   4.359   8.714  11.764  2.2496 -1.7960 -1.3643
  768MOL0     H 5928   4.440   8.751  11.621 -2.0194  1.1091 -1.5813
  768MOL0     H 5929   4.370   8.949  11.823 -0.1841  0.6871 -0.5674
  768MOL0     H 5930   4.437   9.000  11.669 -1.2023  0.5734  0.8154
  768MOL0     H 5931   4.598   8.993  11.841 -0.5373  0.3658 -0.1800
  768MOL0     H 5932   4.571   8.814  11.855 -2.2022 -0.7753 -1.6871
  768MOL0     H 5933   4.807   9.051  11.731  1.6274 -0.5738 -0.6516
  768MOL0     H 5934   4.967   9.088  11.538 -4.1229  0.3031 -5.0532
  768MOL0     H 5935   4.994   8.965  11.417  2.9237 -0.2033  0.9922
  768MOL0     H 5936   5.111   8.940  11.701 -2.9496 -1.5070 -0.3454
  768MOL0     H 5937   5.138   8.826  11.571 -0.9722 -0.8429  0.7451
  768MOL0     H 5938   5.232   8.980  11.418 -2.7617  2.3454  0.4239
  768MOL0     H 5939   5.241   9.107  11.538 -0.9786  0.3310 -0.1254
  768MOL0     H 5940   5.453   9.028  11.528 -0.4527 -0.2771  0.9979
  768MOL0     H 5941   5.396   8.976  11.675 -2.7705 -2.5524  0.6794
  768MOL0     H 5942   5.445   8.572  11.510  0.0149  2.3120  0.6968
  768MOL0     H 5943   5.418   8.373  11.259  0.2103 -1.6349  0.8430
  768MOL0     H 5944   5.511   8.366  11.407 -1.2567 -2.8764 -0.9934
  768MOL0     H 5945   5.608   8.362  11.267  1.8436  3.1143  0.1118
  768MOL0     H 5946   5.987   8.613  11.114 -0.8760 -0.5719  0.0532
  768MOL0     H 5947   6.168   8.541  10.986  0.5183 -3.7833  2.4811
  768MOL0     H 5948   6.069   8.394  10.581 -1.0332  0.1759  0.5647
  768MOL0     H 5949   6.245   8.363  10.579 -0.5650  0.7535 -1.7312
  768MOL0     H 5950   6.039   8.184  10.709 -1.3956  1.0848 -1.8035
  768MOL0     H 5951   6.133   8.147  10.565 -2.2063  0.0694 -0.7010
  768MOL0     H 5952   6.228   8.187  10.850  2.4566  0.9263  0.1021
  768MOL0     H 5953   6.323   8.201  10.717 -1.8389  3.4844  0.3773
  768MOL0     H 5954   6.220   7.951  10.658  1.7113 -1.5952  0.0913
  768MOL0     H 5955   6.139   7.974  10.806 -1.0973  1.2812 -2.1754
  768MOL0     H 5956   6.358   7.975  10.926 -0.3089 -1.2376  0.0711
  768MOL0     H 5957   6.324   7.823  10.852  0.3093 -0.7861 -1.9038
  768MOL0     H 5958   6.507   8.021  10.722 -1.8802 -0.6581 -4.0619
  768MOL0     H 5959   6.453   7.869  10.653  1.0617  1.1669 -1.2216
  768MOL0     H 5960   6.686   7.826  10.754  0.8782 -0.2011  2.0954
  768MOL0     H 5961   6.564   7.727  10.822  2.7840 -1.9737 -2.8853
  768MOL0     H 5962   6.559   7.816  11.026 -0.3649 -1.3534 -1.3881
  768MOL0     H 5963   6.606   7.982  10.987  1.5135 -0.3117  1.0081
  768MOL0     H 5964   5.880   8.431  10.678 -0.7502  2.3861  0.0997
  768MOL0     H 5965   5.703   8.512  10.817 -0.3745 -0.6267  0.3268
  768MOL0     H 5966   5.545   8.832  11.107 -1.9713 -3.3344 -2.0301
  768MOL0     H 5967   5.483   8.940  11.316 -4.1427 -1.0673  2.0096
  768MOL0     H 5968   3.735   8.580  11.085  2.5502  0.4921  1.8669
  768MOL0     H 5969   3.573   8.680  10.906 -0.7231  1.5532 -2.7477
  768MOL0     H 5970   3.401   8.878  10.675 -0.1613 -0.7203 -0.1925
  768MOL0     H 5971   3.216   8.923  10.546  2.4497 -1.9599  0.3987
  768MOL0     H 5972   3.221   9.305  10.273  0.1309  0.6340 -2.5409
  768MOL0     H 5973   3.307   9.177  10.199  2.5379  1.1186  2.2866
  768MOL0     H 5974   3.001   9.195  10.189  0.9295  3.6084 -1.2647
  768MOL0     H 5975   3.097   9.088  10.093  0.3481  1.8286 -3.9329
  768MOL0     H 5976   3.098   9.395  10.084  2.5233  0.3504 -0.0959
  768MOL0     H 5977   3.202   9.284   9.989 -0.5110 -0.5366 -2.5443
  768MOL0     H 5978   2.974   9.175   9.922  0.0430  0.3226 -0.1575
  768MOL0     H 5979   3.038   9.320   9.842  1.8706  0.7231 -0.0471
  768MOL0     H 5980   2.678   9.449  10.065 -1.1113  2.0755 -1.1315
  768MOL0     H 5981   3.425   9.267  10.374  0.8225  0.0307 -0.5547
  768MOL0     H 5982   3.683   9.269  10.597 -2.2516  3.3602 -0.6720
  768MOL0     H 5983   3.731   9.171  10.436 -0.5097  1.7099 -2.7963
  768MOL0     H 5984   3.650   9.312  10.429  0.4961 -1.3301 -2.1088
  769MOL0     O 5985   1.620  10.520   8.713  0.0447  0.0937  0.6333
  769MOL0     C 5986   1.546  10.538   8.613 -0.0074  0.3160  0.7834
  769MOL0     O 5987   1.453  10.638   8.611  0.2572 -0.5148 -0.0633
  769MOL0     C 5988   1.487  10.741   8.696  1.0882  0.4219 -0.0452
  769MOL0     C 5989   1.431  10.739   8.823 -0.9499 -0.5672  0.6880
  769MOL0     C 5990   1.470  10.844   8.914  0.9207 -0.0626 -0.6165
  769MOL0     C 5991   1.546  10.950   8.882  0.1825 -0.3488  0.6951
  769MOL0     O 5992   1.567  11.051   8.975 -0.6433 -0.5790 -0.3471
  769MOL0     C 5993   1.536  11.183   8.935 -0.7135 -0.4698  0.5768
  769MOL0     C 5994   1.494  11.267   9.052 -0.7384 -0.0309  0.4296
  769MOL0     C 5995   1.471  11.407   9.022  0.0881  0.4043  0.0537
  769MOL0     C 5996   1.545  11.514   9.115  0.8977  0.4321  0.4300
  769MOL0     C 5997   1.512  11.659   9.071 -0.7501  0.5543  0.2253
  769MOL0     C 5998   1.589  11.760   9.165 -1.0440  0.1438  0.0101
  769MOL0     C 5999   1.567  11.909   9.133  1.7332 -0.1630  0.2437
  769MOL0     C 6000   1.637  12.000   9.232 -0.2458 -0.1726  1.1514
  769MOL0     N 6001   1.552  12.024   9.352  0.1762 -0.4540  0.3062
  769MOL0     C 6002   1.420  12.065   9.358  0.3862 -0.5032  0.3894
  769MOL0     C 6003   1.392  12.058   9.489 -0.6637 -0.5174  0.5041
  769MOL0     C 6004   1.288  12.134   9.568  0.4733  0.1053 -0.3573
  769MOL0     C 6005   1.324  12.287   9.586 -0.9316  0.1881  1.0927
  769MOL0     C 6006   1.221  12.358   9.674  0.4319  0.0317  0.1636
  769MOL0     C 6007   1.224  12.313   9.823 -0.4620 -0.3067  0.5056
  769MOL0     O 6008   1.365  12.328   9.863  0.4853 -0.4216  0.1719
  769MOL0     C 6009   1.412  12.219   9.918 -0.7019  0.6875 -0.1707
  769MOL0     C 6010   1.393  12.212  10.056 -0.7387  0.4380 -1.0402
  769MOL0     C 6011   1.412  12.091  10.129 -0.3117  0.9422 -0.0382
  769MOL0     C 6012   1.367  12.083  10.278 -0.6793  0.5552  0.3283
  769MOL0     C 6013   1.453  11.975  10.062  0.3636  0.6116  0.5791
  769MOL0     C 6014   1.458  11.847  10.123 -0.0384  0.5730 -0.2630
  769MOL0     O 6015   1.561  11.771  10.083 -0.0556 -0.0519  0.1893
  769MOL0     C 6016   1.604  11.661  10.147 -0.0326  0.1609 -0.0043
  769MOL0     C 6017   1.517  11.561  10.186  0.4165  0.2540 -0.3270
  769MOL0     C 6018   1.566  11.454  10.259 -0.4190 -0.1265  0.3294
  769MOL0     C 6019   1.707  11.445  10.293 -0.1404  0.2485  0.3716
  769MOL0     O 6020   1.764  11.342  10.354 -0.6175 -0.4809 -0.3277
  769MOL0     C 6021   1.689  11.215  10.372 -0.4042 -0.1511  0.0592
  769MOL0     C 6022   1.673  11.114  10.257 -0.4913  0.6429  1.1797
  769MOL0     C 6023   1.584  10.990  10.304 -0.6816  0.1354  0.2463
  769MOL0     C 6024   1.563  10.884  10.199  1.1311 -0.1706 -0.4100
  769MOL0     C 6025   1.546  10.735  10.260 -1.1799 -0.5530 -0.7533
  769MOL0     C 6026   1.484  10.652  10.155  0.9107  0.7898 -0.2137
  769MOL0     C 6027   1.469  10.504  10.191  0.2152 -0.2260 -0.1065
  769MOL0     C 6028   1.373  10.433  10.110  0.9424  0.5325 -0.4021
  769MOL0    Cl 6029   1.370  10.263  10.172  0.5976 -0.1743 -0.6399
  769MOL0     C 6030   1.795  11.542  10.250 -0.2707  0.2901  0.4999
  769MOL0     C 6031   1.747  11.639  10.168 -0.8057  0.5840  0.2679
  769MOL0     O 6032   1.367  11.807  10.193  0.0789  0.5591  0.0421
  769MOL0     C 6033   1.495  11.993   9.927 -0.5687 -0.3382  0.0771
  769MOL0     C 6034   1.464  12.108   9.853  1.0689 -0.2290 -0.0387
  769MOL0     N 6035   1.484  11.982   9.550  0.0363 -0.1704  0.2076
  769MOL0     N 6036   1.584  11.973   9.477 -0.2775 -0.7594  0.5459
  769MOL0     C 6037   1.597  10.957   8.752 -0.3667 -0.0359 -1.0470
  769MOL0     C 6038   1.573  10.845   8.666  0.3845  1.0271  0.4056
  769MOL0     C 6039   1.566  10.443   8.492  0.4365 -0.0746 -0.3375
  769MOL0     C 6040   1.658  10.335   8.508  0.2159  0.3433  0.3817
  769MOL0     C 6041   1.702  10.261   8.404 -0.3155  1.2826 -0.0188
  769MOL0     C 6042   1.627  10.272   8.289 -0.1997  0.3072  0.3957
  769MOL0     O 6043   1.691  10.204   8.187 -0.6166 -0.5414  0.7048
  769MOL0     C 6044   1.617  10.151   8.082  0.1330  0.6091  0.2415
  769MOL0     C 6045   1.676  10.205   7.957 -0.3450 -0.1389  0.7839
  769MOL0     C 6046   1.642  10.351   7.949 -0.2272 -0.6297 -0.3201
  769MOL0     C 6047   1.692  10.410   7.817  0.5538 -0.1864 -0.5055
  769MOL0     C 6048   1.639  10.541   7.800 -0.1654 -0.8952 -0.1781
  769MOL0     C 6049   1.597  10.653   7.768 -0.8698 -0.2812 -0.1390
  769MOL0     C 6050   1.521  10.362   8.270 -0.4068 -0.6288  1.1500
  769MOL0     C 6051   1.492  10.455   8.369  0.2892  0.4474  0.0508
  769MOL0     C 6052   1.379  10.555   8.341 -0.9529  0.3900  1.9344
  769MOL0     H 6053   1.361  10.663   8.857  0.3855 -1.5847  1.2649
  769MOL0     H 6054   1.436  10.840   9.017 -1.1895  0.6716 -1.2377
  769MOL0     H 6055   1.453  11.176   8.863 -0.5143  0.5995  0.2267
  769MOL0     H 6056   1.616  11.241   8.888 -0.7676 -0.0473  0.9978
  769MOL0     H 6057   1.405  11.211   9.084 -1.7289  2.4875  2.3584
  769MOL0     H 6058   1.569  11.261   9.131  2.3998  2.9087 -2.0357
  769MOL0     H 6059   1.503  11.429   8.920  2.6123 -1.7038  0.2963
  769MOL0     H 6060   1.363  11.421   9.032  0.2982  0.8461  2.2549
  769MOL0     H 6061   1.510  11.502   9.218 -1.2364 -2.7368 -0.4825
  769MOL0     H 6062   1.654  11.506   9.109  0.8330  0.4695 -3.3049
  769MOL0     H 6063   1.403  11.664   9.082 -0.6961  1.8903  0.2876
  769MOL0     H 6064   1.540  11.683   8.968  1.4260 -1.5314  0.2408
  769MOL0     H 6065   1.556  11.741   9.267  2.8830 -1.0856  1.2632
  769MOL0     H 6066   1.697  11.744   9.174 -1.0645  0.8042  1.8945
  769MOL0     H 6067   1.458  11.916   9.138  1.5123 -2.7205  0.2452
  769MOL0     H 6068   1.602  11.934   9.032 -0.3260  1.2293 -0.1810
  769MOL0     H 6069   1.732  11.955   9.261  0.4848 -2.0768 -3.4167
  769MOL0     H 6070   1.655  12.096   9.184 -1.0678 -0.1739  0.8129
  769MOL0     H 6071   1.364  12.116   9.281 -2.3105 -3.0283  0.5229
  769MOL0     H 6072   1.290  12.096   9.671 -1.1422 -0.6194 -0.5646
  769MOL0     H 6073   1.186  12.116   9.534  0.5387  0.4045 -0.7237
  769MOL0     H 6074   1.419  12.299   9.639 -1.3053 -1.6111  2.2370
  769MOL0     H 6075   1.323  12.330   9.485 -2.3967  0.2909  1.1288
  769MOL0     H 6076   1.232  12.466   9.663 -0.9268 -0.0040 -2.3239
  769MOL0     H 6077   1.126  12.330   9.627  0.1384  0.5702  0.4252
  769MOL0     H 6078   1.156  12.383   9.872 -0.9092  0.1805 -0.7662
  769MOL0     H 6079   1.189  12.210   9.835  0.7288 -1.2308 -2.8954
  769MOL0     H 6080   1.355  12.298  10.109  0.8398  1.7576 -1.9387
  769MOL0     H 6081   1.328  12.181  10.307 -0.0291  1.6333 -2.1414
  769MOL0     H 6082   1.452  12.074  10.346  0.8641  0.0058 -1.5791
  769MOL0     H 6083   1.293  12.004  10.293 -0.8299  0.4465 -0.8720
  769MOL0     H 6084   1.410  11.561  10.166  0.7153  1.7418 -2.1982
  769MOL0     H 6085   1.501  11.368  10.253 -1.4984  0.7714 -2.7260
  769MOL0     H 6086   1.750  11.154  10.438 -1.9436 -1.7034  0.1271
  769MOL0     H 6087   1.590  11.224  10.418 -1.3302  1.9407 -2.0670
  769MOL0     H 6088   1.623  11.154  10.167  2.0112  3.1012  0.7503
  769MOL0     H 6089   1.770  11.079  10.220 -0.7065  0.6114  0.6212
  769MOL0     H 6090   1.488  11.026  10.341  0.0019 -0.0858  2.3859
  769MOL0     H 6091   1.630  10.933  10.386 -2.7632 -2.9585 -0.5470
  769MOL0     H 6092   1.642  10.875  10.125  2.2939 -1.7217  0.9284
  769MOL0     H 6093   1.483  10.908  10.128  0.8046 -1.3370 -0.4550
  769MOL0     H 6094   1.642  10.700  10.298 -1.2174 -3.5075 -2.9760
  769MOL0     H 6095   1.483  10.733  10.349 -2.0848 -2.0908 -1.3768
  769MOL0     H 6096   1.539  10.643  10.061  1.5177 -1.4269  0.2963
  769MOL0     H 6097   1.381  10.688  10.146 -0.6788 -3.4661 -1.2792
  769MOL0     H 6098   1.428  10.494  10.292 -3.5906  0.7850 -1.3684
  769MOL0     H 6099   1.573  10.471  10.192  1.5138  3.3688  1.4809
  769MOL0     H 6100   1.402  10.449  10.006  3.4189  1.3734  0.3233
  769MOL0     H 6101   1.269  10.465  10.117  0.6558 -0.6716  2.2573
  769MOL0     H 6102   1.899  11.535  10.278  0.2135  1.9002 -0.7243
  769MOL0     H 6103   1.816  11.709  10.121 -1.3279 -0.2233 -1.8425
  769MOL0     H 6104   1.551  11.915   9.875  0.7830  0.3432  0.4528
  769MOL0     H 6105   1.486  12.100   9.747  1.0342  0.8177 -0.1369
  769MOL0     H 6106   1.663  11.039   8.726  1.2000  0.1024  2.6884
  769MOL0     H 6107   1.626  10.846   8.571  0.6846 -0.9888  0.5096
  769MOL0     H 6108   1.707  10.313   8.602  0.5597 -0.1259  0.0955
  769MOL0     H 6109   1.785  10.192   8.409  2.1409  4.0575  0.0681
  769MOL0     H 6110   1.620  10.041   8.076 -1.5189  0.6174 -3.2913
  769MOL0     H 6111   1.510  10.169   8.066  0.7953  2.2287 -3.3405
  769MOL0     H 6112   1.629  10.157   7.872  2.3825 -0.4128 -0.6716
  769MOL0     H 6113   1.785  10.190   7.955 -0.4941 -1.4911  1.8472
  769MOL0     H 6114   1.533  10.361   7.956  0.0257  1.8637  1.2365
  769MOL0     H 6115   1.675  10.410   8.035 -0.4625  1.0844 -1.3564
  769MOL0     H 6116   1.648  10.348   7.738 -1.8186  0.7250  0.0074
  769MOL0     H 6117   1.801  10.405   7.817  0.5684  0.1099 -0.7491
  769MOL0     H 6118   1.571  10.754   7.743 -1.5225 -0.5936 -0.7207
  769MOL0     H 6119   1.472  10.358   8.173  1.4494  2.0190 -0.0160
  769MOL0     H 6120   1.327  10.556   8.437 -1.8126  0.3199  1.4699
  769MOL0     H 6121   1.433  10.639   8.295  1.6257 -3.2748 -2.5422
  769MOL0     H 6122   1.317  10.511   8.262  0.2425  1.2171  0.4746
  770MOL0     O 6123   8.507   6.474   4.524  0.2632 -0.3452 -0.4615
  770MOL0     C 6124   8.622   6.434   4.541  0.1905  0.1561 -0.0813
  770MOL0     O 6125   8.683   6.408   4.669  0.7696 -0.0881 -0.9847
  770MOL0     C 6126   8.601   6.456   4.772 -0.9999  0.7509  0.5510
  770MOL0     C 6127   8.618   6.590   4.811  0.1034  0.0484  0.0220
  770MOL0     C 6128   8.511   6.648   4.896 -0.2544  0.2462  0.3355
  770MOL0     C 6129   8.394   6.574   4.933  0.0202 -0.0434  0.6284
  770MOL0     O 6130   8.289   6.635   4.997 -0.1566 -0.1118 -0.3095
  770MOL0     C 6131   8.180   6.563   5.051  0.8252  0.8908  0.4186
  770MOL0     C 6132   8.073   6.669   5.087  0.3439 -0.2714 -0.4174
  770MOL0     C 6133   8.122   6.745   5.214  0.0581  0.0255  1.0842
  770MOL0     C 6134   8.035   6.869   5.260 -0.6446  0.1354  0.3222
  770MOL0     C 6135   8.123   6.936   5.373 -0.0733 -1.0326 -1.4639
  770MOL0     C 6136   8.081   7.082   5.403  0.6135  0.4092  1.1843
  770MOL0     C 6137   8.129   7.133   5.538 -0.4514 -0.8469 -0.2348
  770MOL0     C 6138   8.024   7.105   5.648 -0.3711 -0.4419  0.2266
  770MOL0     N 6139   8.064   7.142   5.785 -0.1241  0.0407 -0.0593
  770MOL0     C 6140   8.069   7.268   5.833 -0.0429 -1.2143 -0.4175
  770MOL0     C 6141   8.067   7.259   5.969 -0.4185  1.5190 -0.2040
  770MOL0     C 6142   8.054   7.364   6.070 -0.3922  0.3229 -0.8404
  770MOL0     C 6143   7.913   7.382   6.099 -0.1883  0.3905  0.0667
  770MOL0     C 6144   7.870   7.457   6.229  0.3195  0.3813  0.8628
  770MOL0     C 6145   7.714   7.453   6.237  0.3760  0.0710 -0.1855
  770MOL0     O 6146   7.664   7.513   6.114 -0.2010  0.3604 -1.6002
  770MOL0     C 6147   7.665   7.645   6.095  0.3437 -0.2314 -0.1536
  770MOL0     C 6148   7.631   7.675   5.964  0.1983 -0.5184  0.1694
  770MOL0     C 6149   7.632   7.805   5.905 -0.0581 -0.9448 -0.0345
  770MOL0     C 6150   7.573   7.828   5.764 -0.4531  0.7099  0.7544
  770MOL0     C 6151   7.670   7.911   5.994 -0.8467 -0.2143  0.2453
  770MOL0     C 6152   7.681   8.060   5.961  0.5127  0.6527  0.5106
  770MOL0     O 6153   7.692   8.099   5.832 -0.4110 -0.4685 -0.3562
  770MOL0     C 6154   7.708   8.232   5.803  0.1199  0.0793  0.3879
  770MOL0     C 6155   7.825   8.299   5.792 -0.4505  0.6092  0.1579
  770MOL0     C 6156   7.838   8.430   5.753  0.1039 -0.4875 -1.1875
  770MOL0     C 6157   7.713   8.500   5.724 -0.3572 -0.3853  0.1358
  770MOL0     O 6158   7.728   8.633   5.705  0.3713 -0.4757 -0.5645
  770MOL0     C 6159   7.677   8.707   5.817 -0.4011  0.5947 -1.0676
  770MOL0     C 6160   7.708   8.855   5.815 -0.0420  0.7464 -0.4502
  770MOL0     C 6161   7.864   8.864   5.818 -0.1108  0.7189  0.5127
  770MOL0     C 6162   7.906   9.013   5.824 -0.6420 -0.2441  1.0472
  770MOL0     C 6163   8.058   9.028   5.822 -0.7738  0.2624  0.1548
  770MOL0     C 6164   8.111   9.170   5.818 -0.5198 -0.3386 -0.3310
  770MOL0     C 6165   8.265   9.163   5.802 -0.3094 -0.0748  0.0277
  770MOL0     C 6166   8.324   9.302   5.824 -0.3255 -0.2101 -0.0237
  770MOL0    Cl 6167   8.252   9.427   5.708 -0.6747 -0.3564 -0.0203
  770MOL0     C 6168   7.589   8.427   5.739 -0.6686 -0.6257  0.9084
  770MOL0     C 6169   7.593   8.297   5.777  0.2655 -0.1251  0.0346
  770MOL0     O 6170   7.696   8.143   6.056  0.2320 -1.0931 -0.0726
  770MOL0     C 6171   7.695   7.877   6.126 -1.2264 -0.0668 -0.7110
  770MOL0     C 6172   7.699   7.743   6.180  0.7802 -0.3090 -0.3485
  770MOL0     N 6173   8.083   7.121   5.998 -0.4038 -0.0088  0.8292
  770MOL0     N 6174   8.095   7.058   5.887  0.0522  0.4459 -0.2604
  770MOL0     C 6175   8.396   6.437   4.901  0.9871 -0.6567 -1.2120
  770MOL0     C 6176   8.501   6.382   4.834 -0.0797  0.5948 -0.6364
  770MOL0     C 6177   8.702   6.409   4.408 -0.0954 -0.0679 -0.6037
  770MOL0     C 6178   8.830   6.372   4.439 -0.6987  0.0646 -0.4882
  770MOL0     C 6179   8.928   6.355   4.335 -0.2954 -0.8145 -0.5671
  770MOL0     C 6180   8.887   6.376   4.201 -0.1764 -0.3911  0.0308
  770MOL0     O 6181   8.969   6.378   4.099 -0.5535 -0.4836  0.5628
  770MOL0     C 6182   9.045   6.259   4.090 -0.1479  0.3916 -0.0644
  770MOL0     C 6183   8.969   6.138   4.037 -0.6168 -0.7865  0.3766
  770MOL0     C 6184   8.897   6.158   3.902  0.5923  0.5984 -0.6169
  770MOL0     C 6185   8.801   6.048   3.868 -1.2756 -0.0135 -0.0477
  770MOL0     C 6186   8.875   5.922   3.843  0.0015  1.2940  0.6555
  770MOL0     C 6187   8.940   5.822   3.828 -0.9327  0.0992  0.1395
  770MOL0     C 6188   8.751   6.412   4.174 -0.4207 -0.4282 -0.7894
  770MOL0     C 6189   8.658   6.425   4.269  0.9395  0.1065 -0.6223
  770MOL0     C 6190   8.521   6.457   4.235  0.7312  0.5267  0.3070
  770MOL0     H 6191   8.706   6.652   4.795 -0.2576  1.0024  1.6358
  770MOL0     H 6192   8.538   6.744   4.939  0.0239 -1.7908  5.3418
  770MOL0     H 6193   8.207   6.506   5.140 -4.7335 -3.8474 -0.3120
  770MOL0     H 6194   8.156   6.476   4.989  4.2404 -0.3303  0.6071
  770MOL0     H 6195   8.069   6.741   5.004 -1.4945  4.6914  3.4849
  770MOL0     H 6196   7.978   6.626   5.120  1.5398 -1.5743  1.5217
  770MOL0     H 6197   8.123   6.678   5.300 -0.5934 -1.6263 -0.1324
  770MOL0     H 6198   8.225   6.781   5.205  0.5587 -0.7960  2.9507
  770MOL0     H 6199   8.016   6.929   5.171 -1.2032 -0.8124 -0.2192
  770MOL0     H 6200   7.931   6.842   5.282 -0.7703  1.1060  0.9764
  770MOL0     H 6201   8.227   6.947   5.340  0.3053  1.2896  0.2838
  770MOL0     H 6202   8.118   6.874   5.462 -1.2193  0.5355 -0.3928
  770MOL0     H 6203   8.094   7.152   5.320 -2.3733 -0.5930 -0.2568
  770MOL0     H 6204   7.973   7.071   5.399  0.8218 -2.2147  1.4837
  770MOL0     H 6205   8.139   7.242   5.536  1.3166 -0.9905 -0.4351
  770MOL0     H 6206   8.226   7.087   5.556 -1.5571 -2.9501  0.7292
  770MOL0     H 6207   7.938   7.169   5.629 -2.4414 -1.9872  3.4801
  770MOL0     H 6208   8.003   6.997   5.646  2.4693 -1.0817  0.6662
  770MOL0     H 6209   8.063   7.360   5.775  1.4767 -1.8501 -1.6692
  770MOL0     H 6210   8.097   7.455   6.026  2.4517 -0.0979  0.8381
  770MOL0     H 6211   8.110   7.341   6.160 -1.3598  0.8704 -0.0788
  770MOL0     H 6212   7.865   7.432   6.014  0.5331 -0.1226 -0.6561
  770MOL0     H 6213   7.863   7.285   6.108  0.1052  0.4225  3.0328
  770MOL0     H 6214   7.909   7.416   6.323  0.7728 -1.5227 -0.0930
  770MOL0     H 6215   7.917   7.555   6.218 -0.2150  0.6557  1.0181
  770MOL0     H 6216   7.684   7.350   6.255 -0.1480 -0.3541 -3.0918
  770MOL0     H 6217   7.681   7.509   6.325  0.2707  1.5527 -1.1288
  770MOL0     H 6218   7.600   7.590   5.904  3.4084 -0.8109 -1.3092
  770MOL0     H 6219   7.565   7.727   5.722  0.1221 -0.6922  3.7008
  770MOL0     H 6220   7.639   7.892   5.705  2.3845 -2.7299 -0.2000
  770MOL0     H 6221   7.469   7.861   5.773 -0.7951  0.2054 -0.9941
  770MOL0     H 6222   7.912   8.238   5.819 -1.1706 -0.3539  0.3728
  770MOL0     H 6223   7.933   8.482   5.759 -2.5749  5.1586 -0.1428
  770MOL0     H 6224   7.568   8.707   5.817 -0.4852  3.0243  0.4124
  770MOL0     H 6225   7.721   8.682   5.914  0.4875  0.7892 -1.4038
  770MOL0     H 6226   7.678   8.897   5.718 -1.1540  0.5975 -0.1829
  770MOL0     H 6227   7.653   8.900   5.898  2.7745 -1.1028  2.6481
  770MOL0     H 6228   7.901   8.816   5.727  0.2525 -1.3052  1.6652
  770MOL0     H 6229   7.906   8.806   5.901 -1.4896 -1.9990 -0.5537
  770MOL0     H 6230   7.868   9.057   5.917  0.0071  1.1213  0.6828
  770MOL0     H 6231   7.863   9.073   5.744  0.6275  0.9941  1.2635
  770MOL0     H 6232   8.086   8.973   5.912  0.2136 -2.7027 -1.8027
  770MOL0     H 6233   8.097   8.982   5.730 -0.2240 -0.5411  0.7740
  770MOL0     H 6234   8.092   9.215   5.916  2.0452 -1.9921  1.0554
  770MOL0     H 6235   8.071   9.222   5.730 -1.1145 -0.4668 -0.1414
  770MOL0     H 6236   8.298   9.119   5.707 -3.6736 -0.8243 -0.9230
  770MOL0     H 6237   8.295   9.094   5.881 -2.6719 -0.9810  0.2144
  770MOL0     H 6238   8.432   9.294   5.809 -0.5802 -2.8262 -0.8781
  770MOL0     H 6239   8.297   9.349   5.919 -2.3102  0.5131 -0.8725
  770MOL0     H 6240   7.502   8.490   5.721 -1.8175 -1.0831  4.1414
  770MOL0     H 6241   7.503   8.239   5.797  1.6323 -2.3302  0.0852
  770MOL0     H 6242   7.706   7.945   6.210  1.9423  0.6332 -1.5576
  770MOL0     H 6243   7.717   7.723   6.285 -2.1494  0.8733  0.4599
  770MOL0     H 6244   8.323   6.368   4.942 -2.0076  1.5582 -2.4526
  770MOL0     H 6245   8.494   6.279   4.801 -0.6499  0.9925 -1.8124
  770MOL0     H 6246   8.879   6.377   4.535  3.8272  2.0848 -2.5849
  770MOL0     H 6247   9.031   6.337   4.363 -0.4168  0.4919  0.8360
  770MOL0     H 6248   9.133   6.267   4.025  0.2836  0.0427  0.4677
  770MOL0     H 6249   9.084   6.230   4.188 -1.0849 -0.6398  0.0155
  770MOL0     H 6250   8.889   6.111   4.106 -1.1035 -1.9199 -0.6132
  770MOL0     H 6251   9.040   6.055   4.028 -2.3477 -2.3346  0.3888
  770MOL0     H 6252   8.838   6.249   3.918 -1.7815 -0.9509 -0.1996
  770MOL0     H 6253   8.964   6.173   3.817  1.5755  3.9511  0.5859
  770MOL0     H 6254   8.746   6.077   3.778  2.8362 -1.9554 -3.5607
  770MOL0     H 6255   8.736   6.030   3.954  0.5396  0.1412  1.4262
  770MOL0     H 6256   8.991   5.727   3.827 -1.2799 -0.1097 -1.4226
  770MOL0     H 6257   8.727   6.429   4.070  1.0354 -0.4074 -1.1393
  770MOL0     H 6258   8.452   6.405   4.302  1.7622  0.5339  1.3937
  770MOL0     H 6259   8.512   6.566   4.241  1.8763  0.6514 -0.1161
  770MOL0     H 6260   8.505   6.428   4.130  0.8229  2.1332 -0.1821
  771MOL0     O 6261   4.657   6.326   6.370  0.2820  0.0787 -0.2951
  771MOL0     C 6262   4.589   6.247   6.435 -0.2214  0.2876 -0.1575
  771MOL0     O 6263   4.484   6.281   6.520 -0.2798 -0.1878  0.5286
  771MOL0     C 6264   4.467   6.413   6.551 -0.1619  0.1060  0.1445
  771MOL0     C 6265   4.345   6.461   6.507 -0.6887  0.5404 -0.3292
  771MOL0     C 6266   4.312   6.596   6.533 -1.4662 -0.5691  0.5888
  771MOL0     C 6267   4.412   6.684   6.575  0.8058  0.1983 -0.5229
  771MOL0     O 6268   4.379   6.820   6.557 -0.4025 -0.4251 -0.6761
  771MOL0     C 6269   4.475   6.914   6.515 -0.5764  0.9306 -0.0934
  771MOL0     C 6270   4.432   7.059   6.514  0.6624  0.6980 -0.2270
  771MOL0     C 6271   4.406   7.112   6.663 -0.5348  0.6839 -0.5878
  771MOL0     C 6272   4.540   7.163   6.712 -0.5452 -0.5267  0.5178
  771MOL0     C 6273   4.553   7.172   6.863 -1.4323 -0.2036  0.3801
  771MOL0     C 6274   4.439   7.262   6.927 -0.3777  0.3383  0.0309
  771MOL0     C 6275   4.427   7.410   6.905 -0.6495 -0.6936  0.3796
  771MOL0     C 6276   4.565   7.490   6.926  0.3744  0.2602  0.1497
  771MOL0     N 6277   4.665   7.444   6.826 -0.0535 -0.8978 -0.2472
  771MOL0     C 6278   4.680   7.514   6.712 -0.0093  0.8977 -0.4403
  771MOL0     C 6279   4.811   7.489   6.675 -0.3758  0.0009 -0.8660
  771MOL0     C 6280   4.879   7.549   6.556  0.3314 -0.1719  0.3224
  771MOL0     C 6281   4.879   7.458   6.435 -0.1155  0.6683 -0.4617
  771MOL0     C 6282   4.966   7.494   6.306 -0.6004 -0.1250  0.2446
  771MOL0     C 6283   5.101   7.406   6.309 -0.6960 -0.9901  1.1190
  771MOL0     O 6284   5.175   7.446   6.191 -0.2709 -0.0842 -0.0782
  771MOL0     C 6285   5.139   7.403   6.067 -0.8811  0.0491 -0.1917
  771MOL0     C 6286   5.225   7.454   5.964  0.7097 -0.1680  0.5982
  771MOL0     C 6287   5.192   7.434   5.836  0.0908  0.5807  0.7550
  771MOL0     C 6288   5.276   7.482   5.723  0.2043  0.5034 -0.1789
  771MOL0     C 6289   5.079   7.354   5.803 -1.1431 -0.2745  0.0411
  771MOL0     C 6290   5.055   7.318   5.662  0.4206 -0.0915 -0.8318
  771MOL0     O 6291   4.985   7.405   5.586 -0.2438  0.4495 -0.8141
  771MOL0     C 6292   4.959   7.349   5.471 -0.0696  0.0051  0.5578
  771MOL0     C 6293   4.833   7.294   5.451 -0.4502 -0.4271 -0.4129
  771MOL0     C 6294   4.805   7.243   5.324  0.7397 -0.6397 -0.0603
  771MOL0     C 6295   4.889   7.253   5.209 -0.0734  0.0791 -0.1073
  771MOL0     O 6296   4.875   7.194   5.085 -0.3232 -0.9775  0.0069
  771MOL0     C 6297   4.758   7.118   5.060  0.5636  0.4962  0.6798
  771MOL0     C 6298   4.744   7.078   4.910  0.0709 -0.1893  0.2344
  771MOL0     C 6299   4.609   7.031   4.889 -0.2654  0.9284 -0.0269
  771MOL0     C 6300   4.568   7.033   4.734 -0.4441  0.1505  0.5676
  771MOL0     C 6301   4.643   6.934   4.650 -0.7599  0.6402  1.4126
  771MOL0     C 6302   4.600   6.934   4.509  1.0658  0.2747  0.2002
  771MOL0     C 6303   4.461   6.855   4.483 -0.3057 -0.0445  0.0727
  771MOL0     C 6304   4.406   6.871   4.340  0.4831  0.2490  0.0181
  771MOL0    Cl 6305   4.225   6.841   4.346  0.1273 -0.1880 -0.4241
  771MOL0     C 6306   5.013   7.317   5.229 -0.2250  1.8920  0.7324
  771MOL0     C 6307   5.048   7.365   5.360  0.7011  0.3976 -0.7205
  771MOL0     O 6308   5.110   7.219   5.633  0.4725  0.1167 -0.0359
  771MOL0     C 6309   5.004   7.297   5.903 -1.1236  1.0024 -0.1634
  771MOL0     C 6310   5.031   7.313   6.035 -0.5757 -0.0452  0.3234
  771MOL0     N 6311   4.869   7.424   6.778  0.3072  0.8730  1.3904
  771MOL0     N 6312   4.781   7.396   6.868  0.7994 -0.9886 -0.2076
  771MOL0     C 6313   4.540   6.638   6.605 -0.0714 -1.4546  0.1294
  771MOL0     C 6314   4.570   6.503   6.594 -0.7600  0.3217  0.7336
  771MOL0     C 6315   4.625   6.095   6.426 -0.2200 -0.3488 -0.0120
  771MOL0     C 6316   4.616   6.011   6.541 -0.3489 -0.3945  0.5290
  771MOL0     C 6317   4.626   5.878   6.535  0.4939  0.6000  0.5104
  771MOL0     C 6318   4.675   5.814   6.420 -0.0747  0.4097  0.5763
  771MOL0     O 6319   4.697   5.674   6.403 -0.2034 -0.7170  0.6268
  771MOL0     C 6320   4.626   5.576   6.479 -0.7408 -0.0754  1.1807
  771MOL0     C 6321   4.654   5.443   6.416  1.1610  0.5009 -0.1165
  771MOL0     C 6322   4.553   5.337   6.472 -1.3191  0.5929  0.0811
  771MOL0     C 6323   4.539   5.333   6.620 -0.1070 -0.3902  0.7933
  771MOL0     C 6324   4.416   5.261   6.659 -1.0688 -0.3134  0.7027
  771MOL0     C 6325   4.311   5.217   6.694 -0.2721 -0.7410 -0.0365
  771MOL0     C 6326   4.713   5.899   6.321 -0.1601 -0.4789  0.7806
  771MOL0     C 6327   4.677   6.035   6.316 -0.0485 -0.0299  0.8088
  771MOL0     C 6328   4.697   6.103   6.176  0.7994  0.5833  0.1082
  771MOL0     H 6329   4.268   6.399   6.461  0.2077 -0.4476 -0.5125
  771MOL0     H 6330   4.213   6.638   6.523 -0.4384  1.8866  0.1358
  771MOL0     H 6331   4.510   6.898   6.413  0.2288  1.6144  0.0645
  771MOL0     H 6332   4.565   6.909   6.576 -0.3109  0.9222 -0.4805
  771MOL0     H 6333   4.505   7.128   6.469  2.0356  0.1429  1.0529
  771MOL0     H 6334   4.340   7.053   6.455 -0.5020  1.3931  1.4663
  771MOL0     H 6335   4.337   7.197   6.668 -2.8387 -0.9877 -1.8087
  771MOL0     H 6336   4.366   7.030   6.723  1.5342  0.1786  0.1749
  771MOL0     H 6337   4.611   7.083   6.686  0.9160  0.6602  0.6966
  771MOL0     H 6338   4.577   7.257   6.670 -3.8117  0.7938  0.3218
  771MOL0     H 6339   4.654   7.196   6.897 -1.1480 -0.1115 -0.4907
  771MOL0     H 6340   4.543   7.068   6.894 -0.6345 -1.3760 -2.8281
  771MOL0     H 6341   4.339   7.220   6.925 -1.4948  2.7622  1.2219
  771MOL0     H 6342   4.468   7.255   7.032  2.8588 -3.8032 -0.8420
  771MOL0     H 6343   4.363   7.450   6.983 -0.4448  2.7003 -1.0291
  771MOL0     H 6344   4.375   7.436   6.813  2.0877  0.9229 -0.8294
  771MOL0     H 6345   4.565   7.597   6.907  2.9712  0.1106 -1.0501
  771MOL0     H 6346   4.612   7.486   7.025 -2.0529  0.9272  1.4206
  771MOL0     H 6347   4.607   7.576   6.659 -2.2486 -1.4500 -0.2974
  771MOL0     H 6348   4.985   7.560   6.582  0.2503 -0.4702  0.7854
  771MOL0     H 6349   4.832   7.646   6.538  3.1927  1.0846 -1.2046
  771MOL0     H 6350   4.913   7.357   6.458 -0.4737  0.5854 -0.2873
  771MOL0     H 6351   4.772   7.460   6.413 -0.6910 -1.9417  1.5862
  771MOL0     H 6352   4.914   7.456   6.218  0.5856 -3.0684  0.7190
  771MOL0     H 6353   4.985   7.602   6.299 -3.2041  0.4971  1.5192
  771MOL0     H 6354   5.163   7.426   6.397  2.0554 -1.2748 -0.6194
  771MOL0     H 6355   5.084   7.298   6.306  3.5675 -1.8378 -1.3613
  771MOL0     H 6356   5.299   7.531   5.984  0.5210  0.5927 -1.4486
  771MOL0     H 6357   5.221   7.547   5.655 -0.6973 -1.1687 -1.1195
  771MOL0     H 6358   5.326   7.402   5.668 -0.5775  0.4066 -0.7614
  771MOL0     H 6359   5.354   7.536   5.777  2.7048  1.4142 -4.2575
  771MOL0     H 6360   4.764   7.283   5.534  0.4010  1.6706  0.6368
  771MOL0     H 6361   4.708   7.196   5.309 -0.1045  0.4026  1.8187
  771MOL0     H 6362   4.769   7.030   5.124  1.8472 -0.0434 -0.2333
  771MOL0     H 6363   4.664   7.164   5.091 -1.2558 -1.1403 -1.9787
  771MOL0     H 6364   4.762   7.155   4.834 -0.5620 -0.7222 -0.4591
  771MOL0     H 6365   4.816   7.001   4.879 -1.3626 -0.8490 -1.6198
  771MOL0     H 6366   4.536   7.091   4.946 -1.9460  0.5617 -1.6878
  771MOL0     H 6367   4.594   6.930   4.928 -0.7679  1.0976  0.2348
  771MOL0     H 6368   4.603   7.129   4.694  2.8507 -2.5124 -3.8247
  771MOL0     H 6369   4.460   7.031   4.717  0.1086 -1.5097 -3.9288
  771MOL0     H 6370   4.751   6.951   4.647 -0.9217  1.5289 -0.1433
  771MOL0     H 6371   4.644   6.838   4.702  6.5920 -0.9321 -0.4719
  771MOL0     H 6372   4.673   6.891   4.441  0.6279 -1.6268  0.8546
  771MOL0     H 6373   4.579   7.038   4.480 -3.0948 -0.5554 -0.4051
  771MOL0     H 6374   4.398   6.914   4.550  3.1956  1.1837  2.6124
  771MOL0     H 6375   4.477   6.751   4.511 -1.3890  0.1860  1.6437
  771MOL0     H 6376   4.446   6.796   4.271  0.7090 -0.5310  0.9683
  771MOL0     H 6377   4.420   6.977   4.316 -1.5704  1.0916  2.1426
  771MOL0     H 6378   5.082   7.352   5.153 -2.0454  3.4151 -0.3019
  771MOL0     H 6379   5.145   7.412   5.368  0.2336  1.6148 -1.7917
  771MOL0     H 6380   4.926   7.226   5.875 -0.6314 -1.2137  3.4225
  771MOL0     H 6381   4.973   7.265   6.114 -2.1510  2.3558  0.7574
  771MOL0     H 6382   4.619   6.712   6.619 -1.5256  0.8050 -2.4716
  771MOL0     H 6383   4.669   6.472   6.627  1.4390 -0.8605 -5.5371
  771MOL0     H 6384   4.593   6.063   6.633  1.4228 -0.0468  0.8243
  771MOL0     H 6385   4.607   5.819   6.624 -2.5139 -0.7048 -0.8446
  771MOL0     H 6386   4.660   5.593   6.582  4.0267  1.1245 -0.3517
  771MOL0     H 6387   4.521   5.600   6.460 -0.5086 -1.3952 -2.5088
  771MOL0     H 6388   4.760   5.420   6.426  1.1685 -0.5010 -2.0490
  771MOL0     H 6389   4.651   5.452   6.307  3.6961  0.9565 -0.2019
  771MOL0     H 6390   4.454   5.361   6.433 -0.1545  1.9630 -2.2566
  771MOL0     H 6391   4.591   5.243   6.429  2.6720  1.1875  1.8625
  771MOL0     H 6392   4.535   5.437   6.653 -1.1460  0.7982 -2.6878
  771MOL0     H 6393   4.626   5.291   6.671  1.2914  0.1435 -1.0670
  771MOL0     H 6394   4.217   5.174   6.724  1.4231 -3.5603  1.7542
  771MOL0     H 6395   4.761   5.850   6.236 -0.2301 -1.6830  1.4113
  771MOL0     H 6396   4.746   6.035   6.105  0.9866 -3.7206  3.9309
  771MOL0     H 6397   4.602   6.120   6.124  0.5452 -0.9188  0.0451
  771MOL0     H 6398   4.756   6.195   6.181  3.5965 -0.8208 -3.0470
  772MOL0     O 6399   4.831  11.352   1.388 -1.1801  0.5565  0.0143
  772MOL0     C 6400   4.931  11.399   1.446  0.4058 -0.2432  0.5631
  772MOL0     O 6401   5.043  11.327   1.485  0.1555 -0.0535 -0.7800
  772MOL0     C 6402   5.045  11.196   1.462 -0.8530  0.8683  0.7979
  772MOL0     C 6403   5.071  11.103   1.568  0.3388  0.9418 -0.6312
  772MOL0     C 6404   5.070  10.965   1.546  0.5965 -0.4299 -0.1149
  772MOL0     C 6405   5.065  10.913   1.407  0.2907  0.6711 -0.4259
  772MOL0     O 6406   5.088  10.789   1.359  0.2586 -0.2745 -0.0358
  772MOL0     C 6407   5.133  10.697   1.447  1.0143 -0.2850 -1.2038
  772MOL0     C 6408   5.154  10.561   1.384 -0.4369  0.3539  0.5026
  772MOL0     C 6409   5.286  10.552   1.311  0.5209 -0.2416 -0.5989
  772MOL0     C 6410   5.333  10.423   1.242 -0.9009  0.0677 -0.7347
  772MOL0     C 6411   5.380  10.450   1.097  0.5680 -1.3967  0.1815
  772MOL0     C 6412   5.437  10.319   1.032  0.6283 -0.0235  0.2791
  772MOL0     C 6413   5.520  10.346   0.913 -0.1315 -0.2623  1.0793
  772MOL0     C 6414   5.428  10.383   0.791  0.0035  0.7011  0.3333
  772MOL0     N 6415   5.506  10.423   0.676 -0.6387 -0.0879  0.3294
  772MOL0     C 6416   5.607  10.512   0.674 -0.2499 -0.9249 -0.4872
  772MOL0     C 6417   5.631  10.526   0.539  0.0006  0.4474  0.0488
  772MOL0     C 6418   5.709  10.631   0.476  0.4370  0.2212  0.3505
  772MOL0     C 6419   5.640  10.768   0.470  0.1887  0.1285 -0.8052
  772MOL0     C 6420   5.567  10.796   0.338 -1.6633  0.3057 -0.2131
  772MOL0     C 6421   5.480  10.920   0.336 -0.2242  0.1051  0.2013
  772MOL0     O 6422   5.363  10.925   0.419 -0.1309 -0.0110  0.7505
  772MOL0     C 6423   5.247  10.879   0.362  0.0960  0.7542 -1.6425
  772MOL0     C 6424   5.125  10.889   0.437 -0.9310  0.3647  0.1771
  772MOL0     C 6425   5.008  10.841   0.393  0.0943 -0.3324  0.3014
  772MOL0     C 6426   4.899  10.840   0.499  0.6481  0.5946 -0.0198
  772MOL0     C 6427   4.998  10.791   0.259  1.1491 -0.2989  0.5443
  772MOL0     C 6428   4.879  10.737   0.186 -0.8638 -0.2793 -0.0008
  772MOL0     O 6429   4.853  10.771   0.051  0.6673  0.6509  0.1499
  772MOL0     C 6430   4.771  10.673  -0.016 -0.8346  0.0075  0.0788
  772MOL0     C 6431   4.766  10.536   0.016  0.2476  0.3258 -0.9458
  772MOL0     C 6432   4.669  10.460  -0.055 -0.9527 -0.4590 -0.1552
  772MOL0     C 6433   4.589  10.523  -0.156  0.0597 -0.6200 -0.2983
  772MOL0     O 6434   4.500  10.452  -0.231  0.2914 -0.9465 -0.1963
  772MOL0     C 6435   4.528  10.308  -0.260  0.2304 -0.1716  0.3626
  772MOL0     C 6436   4.452  10.256  -0.382  0.5535  0.5371 -0.6599
  772MOL0     C 6437   4.493  10.323  -0.510  1.7437  0.1970 -0.4988
  772MOL0     C 6438   4.398  10.284  -0.627 -0.5369 -0.6302 -0.1756
  772MOL0     C 6439   4.449  10.338  -0.769  1.4379  0.6889  1.0090
  772MOL0     C 6440   4.355  10.277  -0.882 -0.0612 -0.2349 -0.1077
  772MOL0     C 6441   4.393  10.319  -1.035  0.3169 -1.0837 -0.0944
  772MOL0     C 6442   4.283  10.274  -1.138 -0.9706  0.4208  0.1631
  772MOL0    Cl 6443   4.121  10.333  -1.105  0.2311 -0.0037 -0.0934
  772MOL0     C 6444   4.615  10.663  -0.188 -0.1783 -0.3581 -1.2676
  772MOL0     C 6445   4.700  10.727  -0.114  0.2293 -0.8151 -0.1637
  772MOL0     O 6446   4.796  10.688   0.259  0.5879 -0.0109 -0.1062
  772MOL0     C 6447   5.120  10.782   0.187  0.2377  0.8588  0.3937
  772MOL0     C 6448   5.239  10.811   0.246 -0.7392 -0.2434 -0.5550
  772MOL0     N 6449   5.554  10.438   0.464 -1.0528  0.4663  0.3936
  772MOL0     N 6450   5.482  10.377   0.552 -0.9551 -0.0951 -0.3550
  772MOL0     C 6451   5.057  11.004   1.302 -0.2131 -0.6471  0.0247
  772MOL0     C 6452   5.035  11.135   1.331  1.3086 -0.4956  0.2229
  772MOL0     C 6453   4.931  11.543   1.484  0.3000 -0.5755  0.0530
  772MOL0     C 6454   4.990  11.577   1.606 -0.5122 -1.2655  0.6850
  772MOL0     C 6455   4.964  11.705   1.661 -0.9142  0.5199  0.6639
  772MOL0     C 6456   4.899  11.802   1.596 -0.9339 -0.3565 -0.2398
  772MOL0     O 6457   4.896  11.934   1.646  0.5631 -0.0190  0.0751
  772MOL0     C 6458   4.899  12.052   1.562  0.5762  0.0238  0.6712
  772MOL0     C 6459   5.037  12.071   1.501  0.6081  0.3024  0.3958
  772MOL0     C 6460   5.160  12.010   1.576 -0.7343  0.9691  0.2978
  772MOL0     C 6461   5.284  12.103   1.587  0.5023  0.2580 -0.3426
  772MOL0     C 6462   5.379  12.043   1.675 -0.1348 -0.4365 -0.6191
  772MOL0     C 6463   5.453  12.021   1.768 -0.4228  0.2047 -0.0771
  772MOL0     C 6464   4.845  11.765   1.470  0.6444 -0.0224 -0.5483
  772MOL0     C 6465   4.865  11.644   1.412 -0.1729 -0.1394  1.0694
  772MOL0     C 6466   4.810  11.627   1.278 -0.6470 -0.6647 -0.0554
  772MOL0     H 6467   5.084  11.150   1.665 -3.5476 -1.1217  1.1455
  772MOL0     H 6468   5.083  10.894   1.627  1.0713 -1.3060 -0.9417
  772MOL0     H 6469   5.069  10.682   1.534  1.4600 -0.6622 -0.9391
  772MOL0     H 6470   5.225  10.738   1.489  1.0792 -2.4985  1.0295
  772MOL0     H 6471   5.141  10.488   1.465  0.8581  0.9914  1.3163
  772MOL0     H 6472   5.070  10.540   1.316  0.4982  0.0552 -0.5861
  772MOL0     H 6473   5.277  10.628   1.232  0.4498 -0.3465 -0.6913
  772MOL0     H 6474   5.358  10.582   1.388  0.2982 -0.6501 -0.2288
  772MOL0     H 6475   5.417  10.383   1.300  0.2535  4.7861  1.3139
  772MOL0     H 6476   5.252  10.351   1.256  0.9772 -2.1142 -0.5774
  772MOL0     H 6477   5.468  10.514   1.106  0.3418 -1.0952  0.2470
  772MOL0     H 6478   5.303  10.502   1.039 -0.2092 -2.1093  0.5551
  772MOL0     H 6479   5.502  10.266   1.102  1.5809  1.0070  0.1948
  772MOL0     H 6480   5.352  10.255   1.006 -0.4185  1.1178  0.7936
  772MOL0     H 6481   5.581  10.260   0.885 -2.2948 -0.7853 -2.6123
  772MOL0     H 6482   5.579  10.438   0.919  0.8189 -0.7215 -0.6728
  772MOL0     H 6483   5.352  10.309   0.769 -0.3177  0.6099  1.6477
  772MOL0     H 6484   5.372  10.474   0.818  0.8452  0.3116  3.9643
  772MOL0     H 6485   5.638  10.571   0.759 -1.3802 -1.3757  0.2533
  772MOL0     H 6486   5.727  10.602   0.372 -0.5804 -2.8069  0.9196
  772MOL0     H 6487   5.804  10.650   0.526  0.5944  1.6131 -0.4278
  772MOL0     H 6488   5.565  10.785   0.548  0.4154 -1.1683 -0.2826
  772MOL0     H 6489   5.716  10.845   0.484 -0.5597  0.8259 -0.4714
  772MOL0     H 6490   5.644  10.804   0.260  2.1044  2.2468  3.2960
  772MOL0     H 6491   5.514  10.704   0.312  1.0376 -0.6940 -2.7937
  772MOL0     H 6492   5.546  11.001   0.369 -1.9328  1.7338 -0.2363
  772MOL0     H 6493   5.456  10.943   0.232 -1.7678 -0.4670  0.4139
  772MOL0     H 6494   5.144  10.910   0.541 -0.2839  1.4364 -0.1416
  772MOL0     H 6495   4.820  10.915   0.488 -0.9311 -1.0668 -0.5946
  772MOL0     H 6496   4.936  10.859   0.600 -0.2152  4.1663 -0.2378
  772MOL0     H 6497   4.855  10.741   0.484  1.0612  0.5604 -1.0927
  772MOL0     H 6498   4.828  10.487   0.091 -0.1520  1.9344  0.4921
  772MOL0     H 6499   4.669  10.352  -0.044  2.8949 -0.5249  0.6005
  772MOL0     H 6500   4.636  10.299  -0.277  0.6050  0.4835  2.1763
  772MOL0     H 6501   4.505  10.239  -0.179  1.2661 -1.7845 -0.6428
  772MOL0     H 6502   4.475  10.152  -0.406 -0.4684  0.6306 -2.2147
  772MOL0     H 6503   4.346  10.267  -0.359 -0.0615 -0.0171 -2.9337
  772MOL0     H 6504   4.596  10.310  -0.544  1.9127  0.5756 -0.1390
  772MOL0     H 6505   4.476  10.431  -0.504  0.5801  0.3295 -3.9793
  772MOL0     H 6506   4.303  10.330  -0.600 -1.0772 -2.2280  0.7778
  772MOL0     H 6507   4.384  10.176  -0.627 -0.8025 -0.8556 -5.1819
  772MOL0     H 6508   4.441  10.447  -0.775  1.0991  0.6461 -4.1644
  772MOL0     H 6509   4.554  10.316  -0.789  0.9030 -0.8006 -0.4604
  772MOL0     H 6510   4.249  10.297  -0.860 -0.0508  0.6900 -0.8381
  772MOL0     H 6511   4.368  10.169  -0.879  1.8112 -0.0815 -1.2922
  772MOL0     H 6512   4.487  10.267  -1.057  1.4028  1.5908 -2.3001
  772MOL0     H 6513   4.413  10.426  -1.045 -1.5094 -0.7016 -0.0135
  772MOL0     H 6514   4.273  10.165  -1.141  0.7415  0.2440  0.1356
  772MOL0     H 6515   4.329  10.296  -1.235  4.6205  0.2013  2.4320
  772MOL0     H 6516   4.555  10.723  -0.256  3.4075  2.4062 -2.3154
  772MOL0     H 6517   4.722  10.832  -0.135 -0.3400 -0.3337  1.4826
  772MOL0     H 6518   5.120  10.748   0.084  0.3463  3.3238 -0.4908
  772MOL0     H 6519   5.328  10.788   0.187 -1.4187  1.3069 -2.3053
  772MOL0     H 6520   5.042  10.961   1.203  1.0607  0.4783 -0.6998
  772MOL0     H 6521   5.015  11.220   1.267  0.1250  0.8731  2.2983
  772MOL0     H 6522   5.050  11.510   1.667  0.2549  0.8372  2.3768
  772MOL0     H 6523   4.998  11.731   1.761 -0.7340 -0.4815  0.8675
  772MOL0     H 6524   4.821  12.038   1.487  0.4219 -0.8603  0.9825
  772MOL0     H 6525   4.867  12.137   1.623  2.2167  1.1458  0.0494
  772MOL0     H 6526   5.054  12.177   1.481  2.9168  0.9611  4.6120
  772MOL0     H 6527   5.020  12.027   1.403  3.0586  0.4408 -0.1617
  772MOL0     H 6528   5.139  11.982   1.680  1.0046  1.6493  0.8716
  772MOL0     H 6529   5.192  11.917   1.527  0.0811  2.0211 -1.2574
  772MOL0     H 6530   5.248  12.198   1.627  1.1746 -0.2775  1.6395
  772MOL0     H 6531   5.327  12.129   1.490 -0.7437 -1.8320 -1.5541
  772MOL0     H 6532   5.532  11.992   1.835 -1.0345  0.4020  0.7324
  772MOL0     H 6533   4.777  11.832   1.418 -1.0475 -2.0859 -1.1371
  772MOL0     H 6534   4.890  11.583   1.218  3.0886  2.2716  2.2792
  772MOL0     H 6535   4.721  11.565   1.290 -1.3521  0.1278 -1.0007
  772MOL0     H 6536   4.790  11.719   1.221 -0.2128 -1.1759 -1.0568
  773MOL0     O 6537   8.972   1.034   1.823 -0.6240 -0.3021  0.8613
  773MOL0     C 6538   8.888   1.050   1.914  0.1456  0.1345 -0.5062
  773MOL0     O 6539   8.761   1.107   1.897 -0.0523 -0.4600 -0.6201
  773MOL0     C 6540   8.740   1.159   1.774 -0.7895 -0.7199 -0.0874
  773MOL0     C 6541   8.723   1.300   1.782 -0.5801  0.2271 -0.2005
  773MOL0     C 6542   8.701   1.380   1.668  0.6272  0.5973 -0.0970
  773MOL0     C 6543   8.688   1.321   1.539 -0.3509  0.0893  0.1870
  773MOL0     O 6544   8.657   1.388   1.418 -0.3146  0.0525 -1.1714
  773MOL0     C 6545   8.598   1.524   1.441  0.2664  0.0102 -0.3701
  773MOL0     C 6546   8.554   1.571   1.308  0.1102 -0.5850  0.3457
  773MOL0     C 6547   8.658   1.566   1.204  0.2587  0.3978  0.2809
  773MOL0     C 6548   8.770   1.678   1.186  1.1416  0.4505 -0.0604
  773MOL0     C 6549   8.872   1.632   1.079  0.4398 -1.4325 -0.1655
  773MOL0     C 6550   9.001   1.716   1.106 -0.3444 -0.4842 -0.0554
  773MOL0     C 6551   8.997   1.857   1.044 -0.2911 -0.2300 -0.3776
  773MOL0     C 6552   9.031   1.869   0.894 -0.1763  0.4565  1.0732
  773MOL0     N 6553   9.029   2.001   0.838 -0.8426 -0.2770  0.7057
  773MOL0     C 6554   8.962   2.039   0.731 -0.0074 -0.3077  0.9457
  773MOL0     C 6555   9.019   2.147   0.687  0.6920 -0.3978 -0.2802
  773MOL0     C 6556   8.985   2.247   0.569 -0.3964  1.0964  0.3719
  773MOL0     C 6557   9.097   2.260   0.470  0.1330 -0.0450 -0.8578
  773MOL0     C 6558   9.053   2.313   0.332  1.1389  0.4021 -0.2318
  773MOL0     C 6559   9.177   2.306   0.240  0.4465 -0.1364 -1.2182
  773MOL0     O 6560   9.114   2.335   0.114 -0.4736  0.0486  0.4248
  773MOL0     C 6561   9.175   2.294  -0.005  0.3526 -0.0212 -0.4161
  773MOL0     C 6562   9.123   2.314  -0.136 -0.3259 -0.5133  1.0200
  773MOL0     C 6563   9.188   2.295  -0.258  0.2564  0.6555 -1.0309
  773MOL0     C 6564   9.115   2.349  -0.378 -1.0524  0.4797  0.1682
  773MOL0     C 6565   9.311   2.239  -0.251  0.4079 -0.4957  0.4187
  773MOL0     C 6566   9.390   2.203  -0.374  0.1728 -0.1247 -0.0745
  773MOL0     O 6567   9.524   2.234  -0.359  0.2008 -0.0279  1.0277
  773MOL0     C 6568   9.603   2.181  -0.460 -0.0524  0.2518  0.6180
  773MOL0     C 6569   9.705   2.264  -0.492 -1.0077  0.3992  0.2170
  773MOL0     C 6570   9.807   2.225  -0.576 -1.1376  0.2211  0.0635
  773MOL0     C 6571   9.813   2.099  -0.635  0.4025 -0.3842 -0.2180
  773MOL0     O 6572   9.922   2.067  -0.696  0.0451  0.3167  0.3158
  773MOL0     C 6573   9.930   1.947  -0.773  0.2010  0.5467  0.6721
  773MOL0     C 6574  10.075   1.944  -0.826 -0.1460  0.7617  0.3076
  773MOL0     C 6575  10.073   1.834  -0.932 -0.4919 -0.3825  0.6269
  773MOL0     C 6576  10.038   1.693  -0.883  0.0213 -0.0253  0.0343
  773MOL0     C 6577   9.942   1.622  -0.980  0.3807  0.7494 -0.4240
  773MOL0     C 6578  10.006   1.577  -1.107 -0.4552 -0.1099 -0.4578
  773MOL0     C 6579   9.916   1.479  -1.173  0.3327  0.7960  1.2397
  773MOL0     C 6580   9.905   1.504  -1.331 -0.6492 -0.1044 -0.0126
  773MOL0    Cl 6581  10.072   1.513  -1.394 -0.5885  0.0099 -0.2415
  773MOL0     C 6582   9.709   2.015  -0.591 -0.0158  0.6079  0.1775
  773MOL0     C 6583   9.600   2.055  -0.506  0.2135  0.9548 -0.4212
  773MOL0     O 6584   9.336   2.161  -0.480 -0.1993  0.1081 -0.3477
  773MOL0     C 6585   9.377   2.228  -0.125  0.9276  0.1181 -0.5814
  773MOL0     C 6586   9.309   2.251  -0.006  0.0387 -0.1069 -0.6149
  773MOL0     N 6587   9.129   2.177   0.770 -0.4396 -0.4481  0.1076
  773MOL0     N 6588   9.138   2.085   0.861 -0.0959 -0.4241 -0.4510
  773MOL0     C 6589   8.709   1.185   1.533 -0.6417  0.3876  0.2346
  773MOL0     C 6590   8.737   1.108   1.642  0.3869  0.6646  0.0042
  773MOL0     C 6591   8.935   1.015   2.057  0.1953 -0.3423  0.4824
  773MOL0     C 6592   8.871   1.084   2.159 -0.5014  0.0888  0.7344
  773MOL0     C 6593   8.897   1.039   2.288  0.4334 -0.5880 -0.7100
  773MOL0     C 6594   8.978   0.928   2.328 -0.3329 -0.1838  0.2775
  773MOL0     O 6595   9.009   0.862   2.449  0.0897 -0.1851  0.4901
  773MOL0     C 6596   8.935   0.900   2.571 -0.3630  0.5459  0.2782
  773MOL0     C 6597   8.983   1.037   2.625  0.2784  0.1088  0.3170
  773MOL0     C 6598   8.870   1.131   2.671 -0.0081  0.1979  0.2442
  773MOL0     C 6599   8.780   1.069   2.791 -0.0562  0.3384  0.7721
  773MOL0     C 6600   8.680   0.963   2.748 -0.8254 -0.5109  0.5590
  773MOL0     C 6601   8.585   0.901   2.731  1.1007  0.1308  0.1348
  773MOL0     C 6602   9.033   0.863   2.218 -0.2028  0.5035 -0.3993
  773MOL0     C 6603   9.013   0.899   2.082  0.3027 -0.5771 -0.7975
  773MOL0     C 6604   9.076   0.806   1.990  0.7066 -0.5396  1.0435
  773MOL0     H 6605   8.744   1.338   1.881  1.1062 -2.2659  0.5086
  773MOL0     H 6606   8.679   1.485   1.682 -1.2651 -0.0713  2.7235
  773MOL0     H 6607   8.664   1.599   1.487 -0.7817  1.7771 -1.6218
  773MOL0     H 6608   8.507   1.507   1.501 -2.2965  0.7230 -3.7415
  773MOL0     H 6609   8.482   1.503   1.260  2.5986 -0.4044 -4.1514
  773MOL0     H 6610   8.521   1.675   1.308 -0.0735 -0.6410  0.1858
  773MOL0     H 6611   8.705   1.467   1.197  1.4913  1.0384 -4.7689
  773MOL0     H 6612   8.611   1.559   1.105  2.1651  0.1249 -0.6629
  773MOL0     H 6613   8.718   1.771   1.158 -2.3907 -0.6851  2.0662
  773MOL0     H 6614   8.819   1.692   1.282 -1.8307  0.3970  1.5993
  773MOL0     H 6615   8.840   1.649   0.975 -0.9461  0.7209  0.5394
  773MOL0     H 6616   8.893   1.525   1.090 -2.0402 -2.1757 -1.7622
  773MOL0     H 6617   9.019   1.735   1.212  2.7260 -1.5516 -0.2796
  773MOL0     H 6618   9.091   1.661   1.076  1.1843 -0.7615  4.3598
  773MOL0     H 6619   9.059   1.923   1.106 -0.1335 -0.8112  0.0897
  773MOL0     H 6620   8.895   1.891   1.064 -0.4438 -0.5325 -0.6212
  773MOL0     H 6621   9.127   1.819   0.878 -0.3252  0.1936  0.9867
  773MOL0     H 6622   8.960   1.808   0.837  0.5177  0.8389 -0.2161
  773MOL0     H 6623   8.881   1.997   0.672  1.2473 -0.4035 -0.7896
  773MOL0     H 6624   8.962   2.345   0.611 -0.7259  0.5815  1.4042
  773MOL0     H 6625   8.888   2.217   0.529  0.1181 -0.2453  0.0742
  773MOL0     H 6626   9.176   2.332   0.492  0.3043 -0.4595 -0.0949
  773MOL0     H 6627   9.147   2.163   0.466 -0.8362 -0.9338  3.7837
  773MOL0     H 6628   8.971   2.255   0.290  1.2956 -1.6343  2.0286
  773MOL0     H 6629   9.012   2.414   0.344  0.9438  0.1015  2.2885
  773MOL0     H 6630   9.248   2.385   0.265 -1.2004  0.5172  1.8878
  773MOL0     H 6631   9.219   2.205   0.241  0.5692 -0.0834 -0.4287
  773MOL0     H 6632   9.022   2.351  -0.147 -1.3322 -2.9785  1.2368
  773MOL0     H 6633   9.098   2.273  -0.455  1.8877  0.6134 -0.7313
  773MOL0     H 6634   9.179   2.430  -0.414  2.6450 -0.5582  3.6730
  773MOL0     H 6635   9.019   2.398  -0.362 -0.5083  1.4613  0.4873
  773MOL0     H 6636   9.708   2.359  -0.440  1.5776  1.6986 -2.0881
  773MOL0     H 6637   9.885   2.300  -0.585 -1.1732  0.1090 -1.3278
  773MOL0     H 6638   9.906   1.856  -0.717 -2.1012  1.2341  0.9120
  773MOL0     H 6639   9.865   1.960  -0.860  0.4449  1.1417  0.5699
  773MOL0     H 6640  10.080   2.048  -0.860  0.2078  1.7269  3.0615
  773MOL0     H 6641  10.152   1.915  -0.754  0.1199 -1.1312 -0.6695
  773MOL0     H 6642  10.169   1.827  -0.983 -0.3877 -3.0400  1.0368
  773MOL0     H 6643  10.010   1.873  -1.013  1.6774  1.7480 -0.1608
  773MOL0     H 6644   9.998   1.686  -0.782 -0.7078  0.7289 -0.1850
  773MOL0     H 6645  10.132   1.637  -0.889 -0.8923 -1.5885 -0.2493
  773MOL0     H 6646   9.902   1.529  -0.940 -1.6301  1.4189 -0.7529
  773MOL0     H 6647   9.866   1.695  -1.010  1.1822  1.3777 -0.9628
  773MOL0     H 6648  10.101   1.531  -1.077  0.3882  0.7566 -1.7083
  773MOL0     H 6649  10.027   1.671  -1.159  4.2860 -0.5471  0.2295
  773MOL0     H 6650   9.815   1.482  -1.131  0.8655  0.9565  2.5237
  773MOL0     H 6651   9.943   1.374  -1.159  1.0454 -0.3044 -5.0494
  773MOL0     H 6652   9.852   1.599  -1.346  0.7902  0.3122 -3.7274
  773MOL0     H 6653   9.832   1.433  -1.371 -1.9396  0.4875  1.2353
  773MOL0     H 6654   9.717   1.910  -0.618  2.9569  0.0107  2.7913
  773MOL0     H 6655   9.516   1.996  -0.472  1.3827  0.1719  1.1894
  773MOL0     H 6656   9.470   2.175  -0.107  0.2573  0.3394  5.4213
  773MOL0     H 6657   9.377   2.242   0.078  1.1028 -2.5388 -1.6540
  773MOL0     H 6658   8.721   1.144   1.433 -0.1454  2.3478 -0.5549
  773MOL0     H 6659   8.736   1.004   1.612  0.4480  1.1762 -1.9299
  773MOL0     H 6660   8.820   1.179   2.150  2.4491  1.8476  1.1367
  773MOL0     H 6661   8.826   1.088   2.354  0.9038  0.4411 -0.9597
  773MOL0     H 6662   8.827   0.899   2.553 -0.2951  0.0953 -0.1493
  773MOL0     H 6663   8.963   0.824   2.644  0.2936 -1.3355 -1.7863
  773MOL0     H 6664   9.049   1.078   2.549  1.9712 -1.5011  0.8460
  773MOL0     H 6665   9.049   1.020   2.711  2.4714  1.5161 -1.0070
  773MOL0     H 6666   8.908   1.224   2.715 -0.0308 -0.6059  2.0471
  773MOL0     H 6667   8.800   1.146   2.588 -0.0992 -3.1594 -0.4159
  773MOL0     H 6668   8.722   1.153   2.830  0.3400  1.2097 -0.4412
  773MOL0     H 6669   8.847   1.032   2.870  4.5931  2.2081 -1.8436
  773MOL0     H 6670   8.491   0.850   2.727  1.0256  0.2976 -0.1439
  773MOL0     H 6671   9.092   0.775   2.241  0.3617  0.7259 -0.9657
  773MOL0     H 6672   9.112   0.714   2.037  0.2214 -0.6142  1.2691
  773MOL0     H 6673   8.999   0.773   1.919  1.8504 -0.8481 -0.0894
  773MOL0     H 6674   9.158   0.852   1.933 -1.9343  1.8740 -1.1194
  774MOL0     O 6675   9.438   8.161   3.592  0.1454 -0.4926  0.4793
  774MOL0     C 6676   9.522   8.168   3.501 -0.0178 -0.0181 -1.0286
  774MOL0     O 6677   9.492   8.145   3.370 -1.3429 -0.0020 -0.2205
  774MOL0     C 6678   9.374   8.104   3.334  0.4817 -0.1102  0.0007
  774MOL0     C 6679   9.279   8.195   3.295 -0.0251  0.1214 -0.3903
  774MOL0     C 6680   9.150   8.161   3.252  0.6389  0.4514 -0.1508
  774MOL0     C 6681   9.118   8.029   3.234 -0.1686 -0.6724 -0.7654
  774MOL0     O 6682   8.991   7.991   3.205  0.3385 -0.5946  0.5205
  774MOL0     C 6683   8.948   7.864   3.241 -0.5638 -0.0141  1.5332
  774MOL0     C 6684   8.926   7.849   3.386  0.2895 -0.0723  1.3634
  774MOL0     C 6685   8.876   7.708   3.421  0.6350  0.2906 -0.5795
  774MOL0     C 6686   8.859   7.676   3.570  0.1958  0.3123  0.5502
  774MOL0     C 6687   8.811   7.531   3.580 -0.0151 -0.9262 -1.0397
  774MOL0     C 6688   8.788   7.485   3.733  0.2493  0.0856 -0.4895
  774MOL0     C 6689   8.700   7.363   3.770  0.0276  0.2487 -1.2941
  774MOL0     C 6690   8.754   7.308   3.906 -0.6194  0.4270 -0.1071
  774MOL0     N 6691   8.881   7.226   3.900 -0.2755  0.4083  0.0407
  774MOL0     C 6692   8.901   7.125   3.804  0.0864  0.5224 -0.1136
  774MOL0     C 6693   9.033   7.085   3.836  0.6517  0.5435  0.4305
  774MOL0     C 6694   9.122   6.985   3.773  0.4698 -0.1805  0.6032
  774MOL0     C 6695   9.146   6.996   3.630 -0.0659 -0.4179 -0.9983
  774MOL0     C 6696   9.244   7.101   3.589  0.2707  0.4051 -0.0682
  774MOL0     C 6697   9.242   7.161   3.446  0.2406 -0.2841 -0.6063
  774MOL0     O 6698   9.115   7.212   3.399 -0.5848 -0.1518  0.0077
  774MOL0     C 6699   9.103   7.297   3.292 -0.7805  0.4620 -0.0597
  774MOL0     C 6700   9.197   7.335   3.199  0.5293  0.1814  0.5453
  774MOL0     C 6701   9.165   7.417   3.089 -0.3107 -0.2543  0.1113
  774MOL0     C 6702   9.289   7.422   2.990 -0.4504  0.7463 -0.2622
  774MOL0     C 6703   9.030   7.474   3.074 -0.0225 -0.2565 -0.4317
  774MOL0     C 6704   8.997   7.569   2.971 -0.6793 -0.9604  0.4218
  774MOL0     O 6705   9.077   7.687   2.976  0.2570  0.3910  0.2136
  774MOL0     C 6706   9.079   7.778   2.866  0.3451  0.4721 -0.3351
  774MOL0     C 6707   9.028   7.752   2.736  0.1902  0.1964 -0.0713
  774MOL0     C 6708   9.048   7.843   2.630 -0.7316  0.1700  0.3043
  774MOL0     C 6709   9.121   7.967   2.664 -0.6296 -0.3801  0.2530
  774MOL0     O 6710   9.152   8.051   2.566 -0.6004  0.9959  0.8937
  774MOL0     C 6711   9.040   8.067   2.461  0.0056  0.6595 -0.0419
  774MOL0     C 6712   9.027   8.211   2.413 -0.9510  0.6256  1.2105
  774MOL0     C 6713   8.970   8.297   2.524 -0.5935  0.2227 -0.0299
  774MOL0     C 6714   8.943   8.435   2.455 -0.1109 -0.5206 -0.6740
  774MOL0     C 6715   8.914   8.554   2.552  0.2041 -0.6775 -0.4634
  774MOL0     C 6716   8.770   8.574   2.592  0.2261 -0.0671  0.8188
  774MOL0     C 6717   8.665   8.526   2.484 -0.6966 -0.4248 -0.8475
  774MOL0     C 6718   8.525   8.563   2.536  0.1144  0.7848 -0.6465
  774MOL0    Cl 6719   8.479   8.739   2.542 -0.2018  0.0474 -0.0411
  774MOL0     C 6720   9.151   8.004   2.792 -0.4557 -0.0131  0.1355
  774MOL0     C 6721   9.131   7.906   2.888 -0.0122  0.0884 -0.1642
  774MOL0     O 6722   8.897   7.557   2.909  0.5929 -0.2917 -1.1316
  774MOL0     C 6723   8.939   7.426   3.165  0.9855  0.7855  0.3044
  774MOL0     C 6724   8.971   7.332   3.263 -0.6613  0.2574 -0.5289
  774MOL0     N 6725   9.079   7.160   3.939  0.3223 -0.0892  0.3364
  774MOL0     N 6726   8.988   7.238   3.982  0.7963  0.6565 -0.3800
  774MOL0     C 6727   9.221   7.936   3.262  0.1332  0.1378  0.1048
  774MOL0     C 6728   9.330   7.974   3.323  0.0153 -0.1457  0.5222
  774MOL0     C 6729   9.645   8.226   3.541  0.7741  0.0984 -0.6568
  774MOL0     C 6730   9.726   8.249   3.428  0.4379 -0.6510 -0.6622
  774MOL0     C 6731   9.858   8.300   3.449  1.1003 -0.4088 -0.2266
  774MOL0     C 6732   9.908   8.317   3.576  0.5258  0.9241 -0.0370
  774MOL0     O 6733  10.037   8.355   3.620  0.4351  0.1149 -0.7178
  774MOL0     C 6734  10.138   8.376   3.525  0.0412 -0.9236 -0.0118
  774MOL0     C 6735  10.124   8.520   3.455  0.2049  0.0051 -0.0423
  774MOL0     C 6736  10.192   8.536   3.318  1.5730 -0.2730  0.5559
  774MOL0     C 6737  10.347   8.531   3.325 -0.0417 -0.1533  0.8332
  774MOL0     C 6738  10.403   8.513   3.188  0.1010  1.1675  0.7684
  774MOL0     C 6739  10.454   8.460   3.085 -1.1829 -0.8136  0.2914
  774MOL0     C 6740   9.824   8.289   3.687 -0.0944  0.3620  0.5785
  774MOL0     C 6741   9.696   8.233   3.671  0.2915  0.5053 -0.4160
  774MOL0     C 6742   9.625   8.177   3.791 -0.9474 -0.1115 -0.0026
  774MOL0     H 6743   9.313   8.298   3.302 -4.4043  1.7144  0.9720
  774MOL0     H 6744   9.083   8.242   3.223 -0.5723 -0.7894 -0.9361
  774MOL0     H 6745   9.017   7.790   3.200  1.6212  1.5247  2.2841
  774MOL0     H 6746   8.858   7.834   3.187  0.5219 -1.9676  0.7265
  774MOL0     H 6747   9.016   7.868   3.445  0.2634 -3.7023  2.8657
  774MOL0     H 6748   8.847   7.915   3.421  0.1863 -0.2035  1.3805
  774MOL0     H 6749   8.780   7.674   3.382  0.2309 -0.5509  1.0668
  774MOL0     H 6750   8.952   7.637   3.385 -0.8036 -0.4382 -2.3647
  774MOL0     H 6751   8.950   7.690   3.628 -0.1664 -0.8613  1.4296
  774MOL0     H 6752   8.773   7.730   3.612  0.5097  0.5262  0.9255
  774MOL0     H 6753   8.884   7.466   3.531 -0.1078 -4.0537  2.5203
  774MOL0     H 6754   8.719   7.530   3.522  0.3315 -0.6005 -1.6037
  774MOL0     H 6755   8.889   7.477   3.774  0.0975  0.8712  0.0632
  774MOL0     H 6756   8.749   7.572   3.786 -1.3119 -0.7763 -0.1534
  774MOL0     H 6757   8.700   7.283   3.696 -0.3790 -1.7509  0.7565
  774MOL0     H 6758   8.599   7.404   3.764  0.6792  2.9093  2.1646
  774MOL0     H 6759   8.770   7.383   3.983  0.6275 -1.6652  1.8119
  774MOL0     H 6760   8.681   7.238   3.948 -1.4199  0.3282 -1.5880
  774MOL0     H 6761   8.833   7.083   3.730 -1.3686 -0.2664  1.5926
  774MOL0     H 6762   9.077   6.888   3.795 -1.4173  0.5664  0.2345
  774MOL0     H 6763   9.219   6.977   3.823  2.3332  3.5802 -1.9772
  774MOL0     H 6764   9.171   6.894   3.599 -1.1480 -1.4314  1.1810
  774MOL0     H 6765   9.053   7.032   3.584  0.6329  2.4794 -0.3609
  774MOL0     H 6766   9.216   7.181   3.657 -0.5433  0.5740 -0.5937
  774MOL0     H 6767   9.344   7.060   3.606 -0.4427 -2.6101 -2.2379
  774MOL0     H 6768   9.313   7.243   3.443 -1.3682  1.1824 -4.5664
  774MOL0     H 6769   9.288   7.095   3.371  1.2452  0.4444 -0.6429
  774MOL0     H 6770   9.295   7.289   3.203  1.5036  1.9049 -1.5626
  774MOL0     H 6771   9.366   7.486   3.034  3.4381 -4.2250  1.1523
  774MOL0     H 6772   9.279   7.461   2.889 -0.5839  1.5408  0.0522
  774MOL0     H 6773   9.345   7.328   2.987 -2.3289 -0.5065  1.4964
  774MOL0     H 6774   8.981   7.658   2.708 -2.8527  2.4850 -3.6533
  774MOL0     H 6775   9.012   7.820   2.530 -2.7903 -2.0794  1.4743
  774MOL0     H 6776   9.053   8.008   2.370 -0.2956  0.6710 -0.0919
  774MOL0     H 6777   8.943   8.044   2.507 -0.8026 -2.0495 -2.8086
  774MOL0     H 6778   9.124   8.250   2.381 -0.0622 -2.6265 -0.6191
  774MOL0     H 6779   8.966   8.203   2.322  0.3230 -2.2459  0.4828
  774MOL0     H 6780   9.042   8.292   2.607  0.4224 -0.1059 -0.8981
  774MOL0     H 6781   8.875   8.266   2.567  0.0679 -0.6146  0.8772
  774MOL0     H 6782   8.870   8.422   2.373 -1.0319 -1.9283  0.3168
  774MOL0     H 6783   9.030   8.467   2.397  1.5443 -0.0108  1.9536
  774MOL0     H 6784   8.961   8.531   2.648 -0.7930  1.0410  0.5016
  774MOL0     H 6785   8.974   8.640   2.519 -0.0662 -0.1484  0.4032
  774MOL0     H 6786   8.750   8.675   2.630 -0.8410 -0.6231  1.8172
  774MOL0     H 6787   8.759   8.503   2.674 -0.4282 -1.8643 -0.7497
  774MOL0     H 6788   8.669   8.417   2.485  4.2988 -0.5833  2.9540
  774MOL0     H 6789   8.687   8.576   2.389 -3.4516 -0.0027 -1.3539
  774MOL0     H 6790   8.520   8.523   2.638  1.8935  1.7895 -0.1237
  774MOL0     H 6791   8.451   8.509   2.478  0.6052 -2.1218  1.2012
  774MOL0     H 6792   9.209   8.095   2.805  1.9956 -1.3700 -0.7551
  774MOL0     H 6793   9.171   7.910   2.989 -2.7784  0.3558  1.0247
  774MOL0     H 6794   8.833   7.443   3.147  0.8863 -1.2361 -1.4347
  774MOL0     H 6795   8.888   7.295   3.322  0.2959 -1.9481 -0.4695
  774MOL0     H 6796   9.208   7.830   3.241 -2.8630  0.6917 -1.4032
  774MOL0     H 6797   9.389   7.891   3.360 -0.2474 -0.9682 -0.8216
  774MOL0     H 6798   9.679   8.247   3.331  0.1967 -2.1831 -0.5387
  774MOL0     H 6799   9.919   8.308   3.360 -0.1215  0.0424 -1.0527
  774MOL0     H 6800  10.235   8.386   3.575  0.5377  1.8315 -1.3266
  774MOL0     H 6801  10.134   8.302   3.445 -3.3652 -2.8164  1.7021
  774MOL0     H 6802  10.170   8.602   3.510  0.7274  1.4673 -2.4792
  774MOL0     H 6803  10.020   8.551   3.457 -0.3091 -1.6406  2.3375
  774MOL0     H 6804  10.150   8.464   3.246 -0.4022  1.5622 -0.2444
  774MOL0     H 6805  10.160   8.632   3.278 -0.1904 -1.8185 -2.0967
  774MOL0     H 6806  10.378   8.450   3.392 -1.3842 -1.6155 -0.2265
  774MOL0     H 6807  10.387   8.621   3.372  1.2610 -0.2985  0.0613
  774MOL0     H 6808  10.496   8.428   2.991  2.4646  2.8663  0.3895
  774MOL0     H 6809   9.881   8.290   3.779  1.2165  5.4217  0.0074
  774MOL0     H 6810   9.692   8.166   3.876 -4.0046 -0.5354  2.5339
  774MOL0     H 6811   9.539   8.238   3.819 -0.5004  0.8589 -0.6569
  774MOL0     H 6812   9.593   8.074   3.777  0.8589 -0.9636  1.7594
  775MOL0     O 6813   1.758  10.344   9.020 -0.3917  1.0258  0.1251
  775MOL0     C 6814   1.839  10.376   8.929 -0.2708  0.1656 -0.3177
  775MOL0     O 6815   1.887  10.502   8.915  0.7300 -0.2273  0.1089
  775MOL0     C 6816   1.865  10.584   9.019 -0.8568 -0.7534 -0.1854
  775MOL0     C 6817   1.786  10.704   9.004 -0.7836  0.6733  1.0005
  775MOL0     C 6818   1.770  10.790   9.112 -1.0687 -0.2886  0.5289
  775MOL0     C 6819   1.828  10.774   9.240 -1.1823  0.7388  0.7492
  775MOL0     O 6820   1.800  10.842   9.355  0.3711 -0.1248  0.4091
  775MOL0     C 6821   1.749  10.978   9.347 -0.2256  0.4009  0.1990
  775MOL0     C 6822   1.800  11.067   9.460  0.1990  0.4327 -0.2195
  775MOL0     C 6823   1.953  11.092   9.442  0.6364 -0.3315 -0.2797
  775MOL0     C 6824   2.003  11.179   9.549 -0.2124  0.3807  0.7479
  775MOL0     C 6825   2.109  11.281   9.498  0.0297 -0.3634 -0.3676
  775MOL0     C 6826   2.053  11.391   9.402  0.7868  0.5452 -0.0522
  775MOL0     C 6827   1.969  11.487   9.482  0.1117 -0.0007  0.1674
  775MOL0     C 6828   1.935  11.604   9.385  0.3063  0.4975 -0.6062
  775MOL0     N 6829   1.985  11.730   9.427 -0.2065  0.7484  0.4565
  775MOL0     C 6830   1.926  11.811   9.522  1.1425 -0.7646 -0.2877
  775MOL0     C 6831   1.998  11.925   9.542 -0.5484 -0.3070  0.2163
  775MOL0     C 6832   1.956  12.028   9.628 -1.1704 -0.3945 -0.5729
  775MOL0     C 6833   2.080  12.104   9.699  0.1872 -0.2481  0.6749
  775MOL0     C 6834   2.171  12.006   9.776 -0.1026  0.2075 -0.6921
  775MOL0     C 6835   2.310  12.074   9.785  0.1943 -0.0272 -0.6119
  775MOL0     O 6836   2.289  12.198   9.861 -0.6231  1.1736  0.9568
  775MOL0     C 6837   2.395  12.287   9.828  0.5638 -0.8445 -0.4324
  775MOL0     C 6838   2.526  12.240   9.802  1.0709  0.7317  0.4136
  775MOL0     C 6839   2.626  12.338   9.781 -0.2768 -0.0591  0.3100
  775MOL0     C 6840   2.750  12.283   9.731  0.0218 -0.9034 -0.0382
  775MOL0     C 6841   2.592  12.478   9.774  0.7267  0.7097  0.4938
  775MOL0     C 6842   2.687  12.587   9.738  0.7452  0.5841 -0.2019
  775MOL0     O 6843   2.621  12.693   9.680  0.0423  0.0106 -0.8224
  775MOL0     C 6844   2.693  12.795   9.622 -0.0104  0.5641  0.8804
  775MOL0     C 6845   2.793  12.780   9.523  1.0718  0.4946  1.0469
  775MOL0     C 6846   2.856  12.889   9.467 -0.5191 -1.2788  0.4568
  775MOL0     C 6847   2.830  13.018   9.512 -0.1872 -0.8961 -0.3859
  775MOL0     O 6848   2.906  13.114   9.446 -0.3399  0.2548  0.2504
  775MOL0     C 6849   2.897  13.255   9.478  0.9471 -0.8161  0.3635
  775MOL0     C 6850   2.961  13.293   9.614 -0.6860  0.1686  0.8282
  775MOL0     C 6851   2.987  13.446   9.619 -0.0987  0.6979  0.6267
  775MOL0     C 6852   2.865  13.526   9.671 -0.2097  0.9257  0.0955
  775MOL0     C 6853   2.909  13.679   9.693  0.0412  0.9459 -1.0431
  775MOL0     C 6854   2.789  13.769   9.708  0.0593 -0.5494 -0.6400
  775MOL0     C 6855   2.676  13.715   9.794  0.3525  0.5081 -0.3480
  775MOL0     C 6856   2.572  13.819   9.829  0.6585  0.5893  0.6382
  775MOL0    Cl 6857   2.642  13.949   9.926  0.7268 -0.5626 -0.2118
  775MOL0     C 6858   2.721  13.035   9.599  0.0592  0.1871 -0.8880
  775MOL0     C 6859   2.656  12.928   9.665  0.5324 -1.2336  0.9755
  775MOL0     O 6860   2.809  12.568   9.759 -1.0660 -0.2072 -0.3861
  775MOL0     C 6861   2.464  12.515   9.801 -0.0095  0.1529 -1.0703
  775MOL0     C 6862   2.367  12.425   9.840  0.1435 -0.4944 -0.4732
  775MOL0     N 6863   2.097  11.911   9.443  0.2134 -0.3237  0.0553
  775MOL0     N 6864   2.099  11.792   9.387  1.0151 -0.7098 -0.6717
  775MOL0     C 6865   1.895  10.656   9.252 -0.0123  0.8603  0.2524
  775MOL0     C 6866   1.916  10.561   9.148 -0.2697  0.9007 -0.0460
  775MOL0     C 6867   1.876  10.266   8.834 -0.1935 -0.2234  0.7571
  775MOL0     C 6868   1.963  10.308   8.722 -0.5734  0.1332  0.0637
  775MOL0     C 6869   1.996  10.208   8.634 -0.7181  0.1547  0.4756
  775MOL0     C 6870   1.965  10.075   8.647 -0.1115 -0.0684 -1.2417
  775MOL0     O 6871   2.001   9.988   8.548 -0.8763 -0.2000  0.2943
  775MOL0     C 6872   1.911   9.882   8.534  0.2924  0.3557 -0.2356
  775MOL0     C 6873   1.946   9.774   8.427 -0.9533  1.4148  0.0931
  775MOL0     C 6874   1.942   9.824   8.280 -0.3735  0.0683  0.2308
  775MOL0     C 6875   1.994   9.957   8.260 -0.1373 -0.2533  0.5369
  775MOL0     C 6876   2.013   9.993   8.125  0.2437  0.4495 -1.0241
  775MOL0     C 6877   2.019  10.018   8.010  0.6407 -0.1777  0.5303
  775MOL0     C 6878   1.900  10.036   8.766 -0.4690  0.6735 -1.2163
  775MOL0     C 6879   1.840  10.133   8.850 -1.3874 -0.5724  0.3026
  775MOL0     C 6880   1.745  10.089   8.961 -0.2088  0.7983  0.5087
  775MOL0     H 6881   1.745  10.711   8.904  2.6406 -4.3671 -1.1736
  775MOL0     H 6882   1.694  10.865   9.091  1.1099  2.7083  2.4005
  775MOL0     H 6883   1.640  10.986   9.351 -0.2273  0.1624  0.6882
  775MOL0     H 6884   1.781  11.022   9.252  0.5821 -1.4355 -0.4177
  775MOL0     H 6885   1.752  11.165   9.457  1.7112  1.2195 -0.0428
  775MOL0     H 6886   1.777  11.023   9.557 -4.0893 -2.2973 -2.1982
  775MOL0     H 6887   2.007  10.996   9.448 -2.5111 -2.4002 -2.1060
  775MOL0     H 6888   1.971  11.136   9.344 -0.0628  0.8434  0.1032
  775MOL0     H 6889   1.928  11.235   9.604 -0.1461 -0.7550  2.0545
  775MOL0     H 6890   2.057  11.126   9.629 -2.7633  0.7566  2.8360
  775MOL0     H 6891   2.190  11.232   9.442 -0.7319 -0.9181 -1.0003
  775MOL0     H 6892   2.153  11.319   9.591  2.1207 -1.5392 -0.7944
  775MOL0     H 6893   2.136  11.438   9.349  1.9498 -0.4093  0.8591
  775MOL0     H 6894   1.990  11.342   9.327  3.7720 -1.8619 -1.2200
  775MOL0     H 6895   2.026  11.531   9.565  1.2346 -0.4843 -0.3323
  775MOL0     H 6896   1.877  11.449   9.528  0.2894  1.1228  1.5194
  775MOL0     H 6897   1.984  11.603   9.287 -0.7354 -2.4451 -1.1988
  775MOL0     H 6898   1.828  11.607   9.361  0.4028  0.2359 -1.0859
  775MOL0     H 6899   1.835  11.785   9.576 -0.0151  2.2862 -0.5610
  775MOL0     H 6900   1.895  11.988   9.709 -0.1596 -1.0123 -0.1060
  775MOL0     H 6901   1.895  12.098   9.570  0.7099  0.0738 -2.0994
  775MOL0     H 6902   2.143  12.134   9.615 -3.7810 -0.2782 -2.6637
  775MOL0     H 6903   2.032  12.182   9.759 -4.7090 -2.2401 -0.0963
  775MOL0     H 6904   2.135  11.991   9.879  3.1942 -0.1474  0.5519
  775MOL0     H 6905   2.180  11.911   9.722  1.8729  0.2950 -0.5879
  775MOL0     H 6906   2.382  12.007   9.833  0.6382  1.2680  0.6158
  775MOL0     H 6907   2.352  12.082   9.684 -1.1483 -0.9433 -1.2561
  775MOL0     H 6908   2.549  12.134   9.810 -0.8893  0.4312  3.9296
  775MOL0     H 6909   2.827  12.276   9.808  0.9325  0.2549 -0.7944
  775MOL0     H 6910   2.796  12.351   9.657 -0.8496 -0.8709 -0.5638
  775MOL0     H 6911   2.742  12.181   9.694  1.8767 -1.3128  0.5755
  775MOL0     H 6912   2.813  12.684   9.475 -0.1407  0.7991 -0.1291
  775MOL0     H 6913   2.934  12.878   9.393 -1.5982 -4.7832 -0.3403
  775MOL0     H 6914   2.961  13.305   9.405 -2.2316  1.3931 -1.1152
  775MOL0     H 6915   2.797  13.297   9.468  1.1378 -0.3921  0.2247
  775MOL0     H 6916   2.893  13.262   9.694 -0.1698 -0.4433  1.0412
  775MOL0     H 6917   3.053  13.233   9.622  0.0591  1.2875  0.9454
  775MOL0     H 6918   3.020  13.473   9.518 -0.7744 -1.0175 -0.0865
  775MOL0     H 6919   3.066  13.457   9.695 -0.2478 -1.7503  1.2180
  775MOL0     H 6920   2.820  13.483   9.761 -0.1022  2.1936  0.7741
  775MOL0     H 6921   2.785  13.504   9.600  0.1398  0.2853 -0.1070
  775MOL0     H 6922   2.981  13.690   9.775 -0.5309  3.2307 -0.7748
  775MOL0     H 6923   2.962  13.713   9.604 -0.1717  4.2624 -0.0575
  775MOL0     H 6924   2.748  13.789   9.609 -2.0612 -0.1271  0.2600
  775MOL0     H 6925   2.817  13.868   9.745  1.1947 -1.3842  0.8465
  775MOL0     H 6926   2.711  13.678   9.891  0.4553  0.8149 -0.2679
  775MOL0     H 6927   2.620  13.637   9.742  0.4759  1.5564 -2.1604
  775MOL0     H 6928   2.497  13.770   9.891  1.1139 -1.3069 -0.2276
  775MOL0     H 6929   2.529  13.848   9.732  0.1554 -1.5519  0.1645
  775MOL0     H 6930   2.686  13.135   9.623 -0.0322  0.2925 -1.4497
  775MOL0     H 6931   2.566  12.942   9.724  0.9219  1.3043  1.1155
  775MOL0     H 6932   2.437  12.620   9.790  1.5951  0.7597  0.3232
  775MOL0     H 6933   2.262  12.447   9.860  0.3787  1.5197 -1.2746
  775MOL0     H 6934   1.936  10.625   9.348  2.1329 -2.7391 -1.5753
  775MOL0     H 6935   1.975  10.474   9.174 -1.2893  0.3676  0.5214
  775MOL0     H 6936   2.003  10.407   8.700  1.0351 -0.5327 -0.1403
  775MOL0     H 6937   2.057  10.233   8.548 -0.3280 -0.2463  0.6358
  775MOL0     H 6938   1.898   9.832   8.630 -2.1523  0.7250 -0.3078
  775MOL0     H 6939   1.812   9.925   8.513  0.0372 -0.0343  0.1449
  775MOL0     H 6940   1.883   9.687   8.445  0.6033 -0.0255 -1.1381
  775MOL0     H 6941   2.048   9.735   8.436 -1.0844  0.5213 -1.7072
  775MOL0     H 6942   1.998   9.749   8.223 -3.1302 -2.0661  0.0686
  775MOL0     H 6943   1.840   9.826   8.239 -1.4020 -0.0097  2.6607
  775MOL0     H 6944   2.086   9.973   8.317  0.1608  0.3429 -0.0970
  775MOL0     H 6945   1.923  10.027   8.306 -0.5200 -0.4623  0.2734
  775MOL0     H 6946   2.030  10.066   7.915  1.8828  2.2862  1.8110
  775MOL0     H 6947   1.885   9.933   8.796  0.4038  0.6276 -0.9349
  775MOL0     H 6948   1.795  10.101   9.057  0.6555  3.9224 -0.2052
  775MOL0     H 6949   1.654  10.151   8.957  0.3561  1.6885  1.2973
  775MOL0     H 6950   1.727   9.983   8.940  2.1765  0.8047 -2.1167
  776MOL0     O 6951   8.783   0.107   4.152  0.4177 -0.1882 -0.4167
  776MOL0     C 6952   8.688   0.066   4.215 -0.4239 -0.0657 -0.5743
  776MOL0     O 6953   8.592   0.144   4.268  0.0897 -0.0945  0.6847
  776MOL0     C 6954   8.626   0.280   4.269  1.1329  0.4143 -0.4921
  776MOL0     C 6955   8.710   0.328   4.371  0.5355 -0.1761  0.1786
  776MOL0     C 6956   8.763   0.460   4.372  0.1231 -0.7490 -0.0073
  776MOL0     C 6957   8.698   0.551   4.275 -0.2508  0.0147  0.4552
  776MOL0     O 6958   8.752   0.677   4.280  0.5131 -0.1409 -0.0386
  776MOL0     C 6959   8.649   0.780   4.299 -0.3970  0.2533 -0.2952
  776MOL0     C 6960   8.728   0.903   4.340 -0.0094  0.2521 -0.6288
  776MOL0     C 6961   8.630   1.017   4.374  0.3312  0.4201 -0.7681
  776MOL0     C 6962   8.593   1.110   4.248  1.0511 -0.4921  0.1775
  776MOL0     C 6963   8.477   1.210   4.266 -0.0454 -0.7624 -0.6960
  776MOL0     C 6964   8.336   1.143   4.283 -0.8530  0.1923  0.9751
  776MOL0     C 6965   8.224   1.225   4.340  0.4667 -0.3445  0.4543
  776MOL0     C 6966   8.106   1.143   4.384  1.0503 -0.1309 -0.5873
  776MOL0     N 6967   7.985   1.223   4.396  0.7915  0.2220 -0.0105
  776MOL0     C 6968   7.940   1.291   4.510 -0.1625  0.0064 -0.7495
  776MOL0     C 6969   7.817   1.342   4.475 -0.0793 -0.0096  0.1258
  776MOL0     C 6970   7.737   1.420   4.580 -0.2373  0.1778  0.8770
  776MOL0     C 6971   7.674   1.348   4.691  0.0649 -0.5688 -0.1643
  776MOL0     C 6972   7.659   1.444   4.816  1.1199  0.6805 -0.2485
  776MOL0     C 6973   7.524   1.506   4.831  0.9779  0.0532  0.4901
  776MOL0     O 6974   7.519   1.591   4.942 -0.2615  0.6071  0.0097
  776MOL0     C 6975   7.589   1.710   4.955 -0.2785  0.4100  0.8018
  776MOL0     C 6976   7.615   1.753   5.089 -0.2717 -0.1817  0.7185
  776MOL0     C 6977   7.700   1.854   5.117  0.2620 -0.9485  0.1079
  776MOL0     C 6978   7.733   1.884   5.258  1.0249  0.4790  0.3596
  776MOL0     C 6979   7.747   1.932   5.015 -0.1784 -0.3652  0.6363
  776MOL0     C 6980   7.828   2.062   5.031 -0.8016  0.5464 -0.1671
  776MOL0     O 6981   7.897   2.104   4.925  1.2909  0.7667  0.1642
  776MOL0     C 6982   7.990   2.193   4.941 -0.6390 -0.1984 -0.4053
  776MOL0     C 6983   7.961   2.324   4.966 -0.5137 -0.3190  0.0698
  776MOL0     C 6984   8.054   2.428   4.967 -0.4645  0.5496 -0.2703
  776MOL0     C 6985   8.193   2.394   4.943 -0.4854 -0.2699 -0.6883
  776MOL0     O 6986   8.283   2.494   4.924  0.0137  0.1093 -0.3304
  776MOL0     C 6987   8.323   2.516   4.790 -0.3560 -0.2258  0.8592
  776MOL0     C 6988   8.407   2.635   4.793  0.3330 -0.2098  0.1406
  776MOL0     C 6989   8.324   2.753   4.844 -0.0561 -1.1335 -0.5140
  776MOL0     C 6990   8.417   2.886   4.830 -0.3799  0.3237 -0.5774
  776MOL0     C 6991   8.344   3.019   4.884 -0.0701 -0.1299 -0.1060
  776MOL0     C 6992   8.449   3.131   4.903  0.3520  0.6608  0.0297
  776MOL0     C 6993   8.373   3.259   4.949  0.6564  0.2666 -0.5928
  776MOL0     C 6994   8.453   3.382   4.966  0.0507  0.3677 -0.1738
  776MOL0    Cl 6995   8.355   3.525   4.919  0.3570 -0.3718  0.1007
  776MOL0     C 6996   8.226   2.258   4.934  0.3527 -0.0229  0.4004
  776MOL0     C 6997   8.124   2.164   4.918  0.7845 -1.2334  0.1425
  776MOL0     O 6998   7.846   2.110   5.142  0.1486 -0.0263  1.0327
  776MOL0     C 6999   7.730   1.887   4.879 -0.9263 -0.2118 -0.6176
  776MOL0     C 7000   7.654   1.777   4.849  0.2206 -0.8162  0.1266
  776MOL0     N 7001   7.791   1.299   4.350  0.5688 -0.3134  0.9675
  776MOL0     N 7002   7.888   1.227   4.302 -0.0815 -0.5529 -1.5907
  776MOL0     C 7003   8.590   0.507   4.182 -0.0964 -0.9654  0.2342
  776MOL0     C 7004   8.572   0.370   4.178 -0.1164  0.1862 -0.6898
  776MOL0     C 7005   8.708  -0.070   4.263 -1.3899 -0.2697 -0.5044
  776MOL0     C 7006   8.702  -0.091   4.400  0.1480  0.7630 -0.0227
  776MOL0     C 7007   8.703  -0.224   4.448 -0.6520 -0.8513  0.0190
  776MOL0     C 7008   8.697  -0.327   4.365 -1.1881 -0.8036 -0.3545
  776MOL0     O 7009   8.691  -0.454   4.417  0.4674 -0.6834  0.3291
  776MOL0     C 7010   8.553  -0.499   4.437  1.6567 -0.0815  0.7309
  776MOL0     C 7011   8.562  -0.605   4.546  0.1077  0.0786 -0.1941
  776MOL0     C 7012   8.433  -0.684   4.572 -0.0544  0.1385  0.5262
  776MOL0     C 7013   8.437  -0.747   4.709 -0.0172 -0.5814  1.3102
  776MOL0     C 7014   8.323  -0.841   4.721 -0.1559  0.5270  0.8214
  776MOL0     C 7015   8.234  -0.916   4.748  0.5473 -0.8213  0.2236
  776MOL0     C 7016   8.695  -0.306   4.227 -0.1135  0.7728 -0.6350
  776MOL0     C 7017   8.702  -0.178   4.176  0.5351  0.2919  0.3512
  776MOL0     C 7018   8.717  -0.153   4.023 -0.3671  0.5856 -0.0061
  776MOL0     H 7019   8.754   0.266   4.448 -0.4734 -0.1771  0.7780
  776MOL0     H 7020   8.843   0.488   4.440 -1.5155  1.1616  1.2652
  776MOL0     H 7021   8.583   0.747   4.380  1.8074 -2.2944  0.5844
  776MOL0     H 7022   8.589   0.807   4.211 -0.6469  1.5964  0.2700
  776MOL0     H 7023   8.783   0.869   4.428  3.3138 -0.2973 -2.7219
  776MOL0     H 7024   8.791   0.943   4.260 -0.6415  2.7667  0.0314
  776MOL0     H 7025   8.543   0.965   4.415  1.1810 -1.1534 -0.8774
  776MOL0     H 7026   8.666   1.092   4.445 -0.5582  1.1543 -1.0674
  776MOL0     H 7027   8.685   1.163   4.224  0.3448  1.1700  0.9876
  776MOL0     H 7028   8.565   1.046   4.164 -3.2147  1.4989 -0.2328
  776MOL0     H 7029   8.482   1.284   4.185  0.3110 -1.8028 -1.6561
  776MOL0     H 7030   8.517   1.267   4.350  0.8692 -3.3735  0.7648
  776MOL0     H 7031   8.317   1.110   4.180  2.1902  0.7337  0.1332
  776MOL0     H 7032   8.332   1.048   4.338 -6.0402 -0.7001 -0.4348
  776MOL0     H 7033   8.196   1.292   4.259  1.8992  1.8795  1.7021
  776MOL0     H 7034   8.262   1.291   4.419  1.4084 -0.9116  0.4838
  776MOL0     H 7035   8.101   1.063   4.309 -0.5805  1.3906 -2.1862
  776MOL0     H 7036   8.124   1.111   4.487  0.7984  1.2324 -0.0999
  776MOL0     H 7037   7.981   1.299   4.610 -1.3409  0.3011 -0.2802
  776MOL0     H 7038   7.656   1.454   4.514 -1.3957  1.5207  2.8861
  776MOL0     H 7039   7.798   1.506   4.608  3.3467 -2.5998  2.4370
  776MOL0     H 7040   7.580   1.298   4.667 -0.9119  1.4770 -0.8181
  776MOL0     H 7041   7.743   1.272   4.729 -3.0584 -3.9563 -0.6396
  776MOL0     H 7042   7.663   1.378   4.903  3.2546 -1.1476 -1.6222
  776MOL0     H 7043   7.740   1.517   4.815  1.1134  0.7574 -2.9224
  776MOL0     H 7044   7.499   1.563   4.741  0.5612  0.9718  1.1700
  776MOL0     H 7045   7.447   1.430   4.842 -1.1715  1.8476 -1.1434
  776MOL0     H 7046   7.563   1.688   5.158 -1.0252 -2.5649 -1.8818
  776MOL0     H 7047   7.675   1.972   5.287  0.7890 -0.3360  2.5437
  776MOL0     H 7048   7.839   1.908   5.271  0.1194  3.5560  3.7859
  776MOL0     H 7049   7.699   1.807   5.329  1.3112 -1.1718 -1.2258
  776MOL0     H 7050   7.858   2.346   4.992 -0.4887  2.2071 -1.5944
  776MOL0     H 7051   8.025   2.531   4.983  0.0642  0.4063  1.8265
  776MOL0     H 7052   8.395   2.443   4.753 -0.8251  0.6027 -1.9867
  776MOL0     H 7053   8.242   2.502   4.717  0.8412 -1.4654 -0.2913
  776MOL0     H 7054   8.492   2.618   4.860  0.1671 -2.4076 -0.1313
  776MOL0     H 7055   8.436   2.656   4.689 -0.9447 -2.3431 -0.7156
  776MOL0     H 7056   8.280   2.745   4.944  0.3084  1.7293 -0.0445
  776MOL0     H 7057   8.238   2.763   4.778 -1.0919 -1.7814  0.6959
  776MOL0     H 7058   8.434   2.892   4.722 -2.7815 -5.0365 -1.5998
  776MOL0     H 7059   8.513   2.872   4.880 -0.2238  0.8084 -0.7377
  776MOL0     H 7060   8.276   3.057   4.807  0.8937 -0.6926 -1.2571
  776MOL0     H 7061   8.281   3.002   4.972  0.0945  1.7935  0.4268
  776MOL0     H 7062   8.487   3.153   4.803  2.0581 -1.9064  0.0065
  776MOL0     H 7063   8.535   3.106   4.967  1.3964  4.0205  0.1417
  776MOL0     H 7064   8.323   3.246   5.046 -1.3181 -0.6004 -1.6606
  776MOL0     H 7065   8.297   3.280   4.872  0.3985  2.1143  0.0991
  776MOL0     H 7066   8.536   3.373   4.895 -0.3513  0.5864 -0.6818
  776MOL0     H 7067   8.487   3.382   5.070 -0.3501 -0.4004 -0.0348
  776MOL0     H 7068   8.332   2.241   4.921  0.5998  0.5227  1.5581
  776MOL0     H 7069   8.151   2.064   4.886  0.8739 -0.3831 -2.7254
  776MOL0     H 7070   7.772   1.935   4.791  0.4640 -2.4799 -1.2814
  776MOL0     H 7071   7.654   1.744   4.746  1.1170 -0.7758  0.1056
  776MOL0     H 7072   8.537   0.582   4.124  2.6202  1.1206  0.2310
  776MOL0     H 7073   8.521   0.344   4.086 -1.9484  0.9689  0.0604
  776MOL0     H 7074   8.712  -0.015   4.477 -0.8446 -1.6335  2.6644
  776MOL0     H 7075   8.709  -0.252   4.553 -1.0358  2.1666  0.9294
  776MOL0     H 7076   8.481  -0.417   4.451  0.1808 -0.8562 -1.6540
  776MOL0     H 7077   8.508  -0.541   4.347  1.8970  1.2539 -0.0453
  776MOL0     H 7078   8.583  -0.554   4.641  2.7067 -1.2899  0.0403
  776MOL0     H 7079   8.647  -0.668   4.521  0.2895  0.0795  0.4093
  776MOL0     H 7080   8.352  -0.610   4.571  0.1403  0.3799 -1.6655
  776MOL0     H 7081   8.428  -0.761   4.495  1.4081 -1.0696  1.5949
  776MOL0     H 7082   8.418  -0.667   4.781  4.0294 -0.2303  2.2122
  776MOL0     H 7083   8.525  -0.804   4.739  0.3659 -0.9200 -0.3430
  776MOL0     H 7084   8.156  -0.987   4.768 -1.0185  1.4040  2.6997
  776MOL0     H 7085   8.692  -0.400   4.174 -2.9540  0.0571  0.6130
  776MOL0     H 7086   8.760  -0.238   3.970 -0.7991  0.4425 -0.1284
  776MOL0     H 7087   8.619  -0.129   3.981 -1.4321 -0.4073  1.7987
  776MOL0     H 7088   8.789  -0.071   4.007  1.6373 -0.2831  3.4463
  777MOL0     O 7089   2.722   2.522   6.585 -0.0143 -0.5781 -0.0237
  777MOL0     C 7090   2.700   2.403   6.550 -1.2192  0.4944  0.6063
  777MOL0     O 7091   2.589   2.348   6.511  0.0756 -0.1872  0.3644
  777MOL0     C 7092   2.471   2.423   6.508  0.1970  0.6553  0.4750
  777MOL0     C 7093   2.384   2.391   6.400 -0.5443 -0.7788 -0.7193
  777MOL0     C 7094   2.252   2.446   6.398 -1.1125 -0.0278  0.5053
  777MOL0     C 7095   2.217   2.531   6.492  1.2169  0.8181  0.6510
  777MOL0     O 7096   2.090   2.581   6.462 -0.4610 -0.2345 -0.2164
  777MOL0     C 7097   1.997   2.582   6.568 -0.0491 -0.3198  0.7033
  777MOL0     C 7098   1.906   2.699   6.555  0.4776 -1.4590 -0.5673
  777MOL0     C 7099   1.981   2.829   6.597  0.2270 -0.2185  0.1513
  777MOL0     C 7100   2.059   2.887   6.480  0.5406 -0.4132 -1.2957
  777MOL0     C 7101   2.078   3.047   6.482  0.2600  0.1158  0.0277
  777MOL0     C 7102   2.171   3.078   6.600 -0.3586 -0.4144  0.6620
  777MOL0     C 7103   2.256   3.195   6.564 -1.0531 -0.3616 -0.7182
  777MOL0     C 7104   2.363   3.250   6.665  0.9736  0.8816 -0.1273
  777MOL0     N 7105   2.432   3.378   6.632  0.3732  0.3862  0.5797
  777MOL0     C 7106   2.455   3.432   6.506  0.5194 -0.6819  0.4276
  777MOL0     C 7107   2.491   3.560   6.520 -0.6262  0.3088  0.5745
  777MOL0     C 7108   2.509   3.658   6.407 -0.1915 -0.2319  0.2868
  777MOL0     C 7109   2.435   3.778   6.429  1.0593  0.3837 -0.0848
  777MOL0     C 7110   2.448   3.879   6.312  0.0424 -0.0113  0.6224
  777MOL0     C 7111   2.392   4.011   6.362 -0.5255  0.5076 -1.6917
  777MOL0     O 7112   2.261   4.008   6.411  0.1471  0.2908 -0.0046
  777MOL0     C 7113   2.213   4.134   6.447 -0.4196  0.0859 -0.0088
  777MOL0     C 7114   2.295   4.250   6.453 -0.0569 -0.7632  0.4377
  777MOL0     C 7115   2.245   4.377   6.481  0.4829  0.5355 -0.6464
  777MOL0     C 7116   2.355   4.486   6.481 -0.7339  0.4411 -0.0177
  777MOL0     C 7117   2.113   4.379   6.537 -0.3610 -0.9360 -0.0418
  777MOL0     C 7118   2.044   4.501   6.602  0.0547  0.2718 -0.8220
  777MOL0     O 7119   1.915   4.497   6.652  0.6257  0.6748  0.0355
  777MOL0     C 7120   1.841   4.611   6.688 -0.6243 -0.5931  0.1198
  777MOL0     C 7121   1.752   4.596   6.789  0.8830  0.3789 -0.6498
  777MOL0     C 7122   1.674   4.707   6.829  0.2281 -0.7793 -0.6689
  777MOL0     C 7123   1.679   4.823   6.757  0.1217  0.4521  0.0584
  777MOL0     O 7124   1.573   4.907   6.778  0.1427  0.2350  0.3325
  777MOL0     C 7125   1.597   5.000   6.886  0.0535 -0.8965  0.5840
  777MOL0     C 7126   1.523   5.130   6.850  0.3027  0.6792 -0.1152
  777MOL0     C 7127   1.369   5.123   6.895 -1.0374  0.1347 -0.5869
  777MOL0     C 7128   1.294   5.246   6.855  0.1748 -1.3433 -0.4727
  777MOL0     C 7129   1.136   5.224   6.868 -0.6686  0.5347 -0.1528
  777MOL0     C 7130   1.066   5.352   6.810 -0.6899 -0.2625 -0.8634
  777MOL0     C 7131   0.919   5.356   6.851  0.5982 -0.0593  0.1077
  777MOL0     C 7132   0.829   5.256   6.776 -0.2450  0.8259 -0.8047
  777MOL0    Cl 7133   0.859   5.083   6.844  0.0724 -0.3924 -0.6138
  777MOL0     C 7134   1.777   4.845   6.653 -0.5022  0.1359 -0.5649
  777MOL0     C 7135   1.858   4.738   6.620  0.6041 -0.1609 -0.1794
  777MOL0     O 7136   2.120   4.597   6.615 -0.3729  0.1098  0.7136
  777MOL0     C 7137   2.028   4.269   6.527  0.7255 -0.3120  0.2983
  777MOL0     C 7138   2.076   4.148   6.479  0.2807  0.2180 -1.4226
  777MOL0     N 7139   2.491   3.581   6.661 -0.4912  0.0476 -0.5794
  777MOL0     N 7140   2.463   3.473   6.723  0.3749 -0.3615 -0.1034
  777MOL0     C 7141   2.290   2.567   6.603 -0.0851  0.3945 -0.0446
  777MOL0     C 7142   2.425   2.518   6.600  0.6042 -0.7524  0.7711
  777MOL0     C 7143   2.811   2.304   6.562  0.2135 -0.2258  0.1952
  777MOL0     C 7144   2.780   2.162   6.554 -0.4695  1.4363 -0.2256
  777MOL0     C 7145   2.891   2.073   6.539 -0.6578  0.6325 -0.2094
  777MOL0     C 7146   3.025   2.114   6.542 -0.8509  0.4034 -0.5092
  777MOL0     O 7147   3.126   2.017   6.522 -0.1272 -0.2424  0.0526
  777MOL0     C 7148   3.259   2.044   6.482  0.4278  0.6079  0.4111
  777MOL0     C 7149   3.321   1.922   6.410  0.2223  0.7428  0.0378
  777MOL0     C 7150   3.452   1.975   6.348 -0.3896 -0.0893 -0.8745
  777MOL0     C 7151   3.577   1.969   6.437  0.1875 -0.8088 -0.3232
  777MOL0     C 7152   3.697   1.997   6.353  0.4499  0.4859  0.0700
  777MOL0     C 7153   3.806   2.002   6.296 -0.9369  0.4348 -0.4483
  777MOL0     C 7154   3.051   2.252   6.547 -0.7449  0.5723  0.2088
  777MOL0     C 7155   2.945   2.342   6.548 -1.2897 -0.5048 -0.1492
  777MOL0     C 7156   3.001   2.488   6.540  0.1293 -0.1577 -0.3236
  777MOL0     H 7157   2.420   2.322   6.324  0.7084  0.4862 -1.3095
  777MOL0     H 7158   2.186   2.416   6.318  0.1272 -2.8140  0.3793
  777MOL0     H 7159   2.057   2.580   6.659  1.5685  0.2550 -0.3072
  777MOL0     H 7160   1.932   2.494   6.557  0.0255 -0.1481 -6.8251
  777MOL0     H 7161   1.877   2.705   6.449 -1.2565  0.5031 -0.0398
  777MOL0     H 7162   1.821   2.686   6.622  1.4088  0.0592  0.9727
  777MOL0     H 7163   1.912   2.911   6.621  2.3227  1.3701  1.1599
  777MOL0     H 7164   2.039   2.821   6.690  3.5332  0.7624 -1.6772
  777MOL0     H 7165   2.148   2.823   6.485 -0.5738 -1.9732  2.9618
  777MOL0     H 7166   2.013   2.855   6.387  0.2439 -0.4592 -1.1335
  777MOL0     H 7167   1.987   3.107   6.488 -0.3116 -0.8810  1.6194
  777MOL0     H 7168   2.123   3.076   6.386 -0.1271  0.6731  0.0109
  777MOL0     H 7169   2.124   3.092   6.698  2.1557  1.5643  1.7180
  777MOL0     H 7170   2.239   2.997   6.629  2.6637  2.2311  1.6919
  777MOL0     H 7171   2.191   3.275   6.527  1.0454  0.4317 -3.0119
  777MOL0     H 7172   2.318   3.180   6.475 -0.7515  2.4580 -1.0848
  777MOL0     H 7173   2.334   3.258   6.770  2.0739  3.3887  0.0749
  777MOL0     H 7174   2.438   3.171   6.659 -0.2106 -0.5382  2.2958
  777MOL0     H 7175   2.426   3.384   6.413  1.4915 -1.7028  0.6338
  777MOL0     H 7176   2.481   3.620   6.309  0.0405 -0.5184  0.3287
  777MOL0     H 7177   2.616   3.678   6.392 -0.2218 -1.9422 -3.1417
  777MOL0     H 7178   2.332   3.747   6.448  0.5294  2.3088  0.5115
  777MOL0     H 7179   2.466   3.833   6.519 -0.1534  1.3615 -0.2423
  777MOL0     H 7180   2.549   3.901   6.277  1.7168 -4.6275  1.7444
  777MOL0     H 7181   2.384   3.835   6.235 -0.4452 -1.3034  1.7174
  777MOL0     H 7182   2.450   4.037   6.451 -2.5768 -0.1582 -0.0776
  777MOL0     H 7183   2.409   4.086   6.284  1.2685  1.2817 -0.6262
  777MOL0     H 7184   2.402   4.243   6.433 -0.2107  0.5578 -1.0213
  777MOL0     H 7185   2.312   4.582   6.451  0.0276  1.7298  2.7386
  777MOL0     H 7186   2.431   4.458   6.408 -3.2720 -1.4137 -2.1750
  777MOL0     H 7187   2.396   4.489   6.582  0.1096 -0.1537 -0.3263
  777MOL0     H 7188   1.745   4.499   6.838 -3.4780  1.6995  1.9431
  777MOL0     H 7189   1.594   4.692   6.901  0.8628 -1.2554 -0.0552
  777MOL0     H 7190   1.561   4.964   6.983  1.6661 -1.3090  1.0600
  777MOL0     H 7191   1.705   5.019   6.885  0.2947 -1.8214 -2.5327
  777MOL0     H 7192   1.574   5.220   6.887  0.2725 -0.4615  3.0203
  777MOL0     H 7193   1.523   5.151   6.743  2.3083  1.0438 -0.0765
  777MOL0     H 7194   1.367   5.125   7.004 -2.7062 -1.7603 -0.5174
  777MOL0     H 7195   1.330   5.033   6.846  1.1787 -0.2718 -1.7306
  777MOL0     H 7196   1.309   5.268   6.749 -1.3200 -1.1931 -0.6807
  777MOL0     H 7197   1.314   5.336   6.912 -0.5629 -0.6019 -1.3529
  777MOL0     H 7198   1.106   5.137   6.809  3.1862 -0.2650 -1.2646
  777MOL0     H 7199   1.105   5.202   6.970 -1.0690  0.5920 -0.2625
  777MOL0     H 7200   1.078   5.358   6.702  0.8186 -0.5621 -0.7343
  777MOL0     H 7201   1.120   5.438   6.852  0.3283 -2.0512  1.7618
  777MOL0     H 7202   0.894   5.461   6.834  0.4443 -0.4695 -2.8442
  777MOL0     H 7203   0.914   5.338   6.959  1.7141  0.8835  0.3333
  777MOL0     H 7204   0.851   5.254   6.669 -1.4297 -1.1542 -1.0677
  777MOL0     H 7205   0.724   5.285   6.791 -1.1336 -2.6300  0.7854
  777MOL0     H 7206   1.775   4.933   6.590 -1.7691  0.5291 -0.0242
  777MOL0     H 7207   1.927   4.769   6.543 -0.0830 -0.0903 -0.7732
  777MOL0     H 7208   1.923   4.282   6.550  0.8697 -1.5722  1.8015
  777MOL0     H 7209   2.019   4.056   6.480  1.1674 -0.3400 -0.4413
  777MOL0     H 7210   2.268   2.648   6.672  2.0164 -0.8284  2.2007
  777MOL0     H 7211   2.487   2.559   6.679 -0.9960  2.4298  0.5479
  777MOL0     H 7212   2.688   2.104   6.556 -1.3904  2.8434 -0.2377
  777MOL0     H 7213   2.872   1.966   6.538 -0.7721  0.6548 -0.5663
  777MOL0     H 7214   3.256   2.123   6.406  1.0133  0.5759  0.3505
  777MOL0     H 7215   3.316   2.071   6.571 -0.9991  1.9142  0.9782
  777MOL0     H 7216   3.250   1.888   6.335 -2.3961 -0.1378  2.7483
  777MOL0     H 7217   3.340   1.835   6.472 -2.9823 -0.0884  0.0168
  777MOL0     H 7218   3.474   1.919   6.257  0.4956 -2.5210  0.7279
  777MOL0     H 7219   3.434   2.074   6.304 -1.2171 -0.4257 -1.3068
  777MOL0     H 7220   3.584   1.863   6.462 -1.3708 -0.8522  0.0889
  777MOL0     H 7221   3.594   2.041   6.517  2.0399 -1.1613 -0.3582
  777MOL0     H 7222   3.910   1.994   6.272 -0.6810 -1.2333  0.9865
  777MOL0     H 7223   3.152   2.289   6.537 -0.6152 -0.2652 -1.9764
  777MOL0     H 7224   2.950   2.557   6.473  3.5168  0.1920 -2.8129
  777MOL0     H 7225   3.006   2.534   6.639  1.5081  0.3483 -0.6137
  777MOL0     H 7226   3.104   2.480   6.505  0.2288  0.3530 -0.1445
  778MOL0     O 7227   4.448   9.262  11.315 -0.4669  1.1772  0.2380
  778MOL0     C 7228   4.354   9.185  11.303  0.5074 -0.2305  0.4679
  778MOL0     O 7229   4.217   9.223  11.308 -0.9568  0.3554 -0.4333
  778MOL0     C 7230   4.183   9.340  11.340 -0.1336  0.6160  1.0440
  778MOL0     C 7231   4.180   9.369  11.470  0.5277 -0.1915 -0.7675
  778MOL0     C 7232   4.142   9.503  11.524 -0.1365 -0.4202  1.0377
  778MOL0     C 7233   4.114   9.610  11.427  0.0493  0.7606  0.0671
  778MOL0     O 7234   4.071   9.732  11.473 -0.1431  0.2343  0.2233
  778MOL0     C 7235   4.084   9.848  11.397  0.0511 -0.1532 -0.1268
  778MOL0     C 7236   3.975   9.944  11.452 -0.2463 -0.5375  0.3286
  778MOL0     C 7237   3.832   9.877  11.438 -0.5566 -0.0952 -0.6777
  778MOL0     C 7238   3.715   9.959  11.495 -0.4215 -0.7337  1.1265
  778MOL0     C 7239   3.606   9.886  11.546  0.0794  0.3100 -0.2704
  778MOL0     C 7240   3.495   9.967  11.619 -0.1362  0.9043 -0.9614
  778MOL0     C 7241   3.397  10.039  11.522 -0.6675 -0.3560  0.5028
  778MOL0     C 7242   3.465  10.143  11.426  0.3684  0.9382  0.6630
  778MOL0     N 7243   3.558  10.241  11.486 -0.5784 -0.5596  0.1351
  778MOL0     C 7244   3.674  10.290  11.430  0.1427  0.6354 -0.0721
  778MOL0     C 7245   3.726  10.365  11.527 -0.8164 -0.3220  0.7375
  778MOL0     C 7246   3.855  10.449  11.510  0.2177  0.2713  0.0146
  778MOL0     C 7247   3.974  10.342  11.476 -1.0858 -1.4976 -0.4781
  778MOL0     C 7248   4.116  10.399  11.514  0.6180  0.6735 -0.2060
  778MOL0     C 7249   4.157  10.523  11.448 -1.4898 -0.3230  0.1377
  778MOL0     O 7250   4.144  10.515  11.306 -0.2934 -0.1478  0.2388
  778MOL0     C 7251   4.124  10.622  11.226  0.0365 -0.1854  0.3640
  778MOL0     C 7252   4.112  10.756  11.263 -0.2806 -0.2580 -0.7332
  778MOL0     C 7253   4.097  10.856  11.169  0.7110  0.1526 -1.8167
  778MOL0     C 7254   4.096  10.999  11.227  0.8668  0.3230  0.7473
  778MOL0     C 7255   4.076  10.816  11.030  0.6547  0.5944 -0.7980
  778MOL0     C 7256   4.059  10.908  10.918 -0.2027  0.1273 -0.0715
  778MOL0     O 7257   4.014  10.850  10.796 -0.0711  0.1178  0.3431
  778MOL0     C 7258   4.002  10.917  10.677 -0.1104 -0.9557 -0.4500
  778MOL0     C 7259   3.999  10.849  10.560  0.4670 -0.0569  0.1805
  778MOL0     C 7260   3.981  10.911  10.439  0.1885 -0.1315  0.1094
  778MOL0     C 7261   3.967  11.052  10.422  0.2002  0.3835  0.1065
  778MOL0     O 7262   3.941  11.104  10.297 -0.5776  0.6554 -0.0195
  778MOL0     C 7263   3.870  11.225  10.293 -0.1613 -0.2294  0.2673
  778MOL0     C 7264   3.810  11.275  10.163  0.3365 -1.0640  0.7960
  778MOL0     C 7265   3.913  11.366  10.086 -0.5371  0.5381  0.5833
  778MOL0     C 7266   3.853  11.436   9.968  0.4564 -0.0295 -0.3754
  778MOL0     C 7267   3.879  11.363   9.835  0.0271 -0.9794 -1.5901
  778MOL0     C 7268   3.846  11.443   9.710 -0.3079  0.1863 -0.6274
  778MOL0     C 7269   3.949  11.560   9.683 -0.5943  0.4192  0.2793
  778MOL0     C 7270   4.110  11.509   9.690 -0.4842 -0.3682 -0.4945
  778MOL0    Cl 7271   4.222  11.630   9.616 -0.4972 -0.9103 -0.1078
  778MOL0     C 7272   3.972  11.121  10.542  0.2282  0.1006  0.6108
  778MOL0     C 7273   3.997  11.060  10.663 -0.2219  0.1292 -0.3561
  778MOL0     O 7274   4.078  11.026  10.933 -1.3671  0.4335  0.0858
  778MOL0     C 7275   4.100  10.684  11.003 -0.4552  0.8067  0.4757
  778MOL0     C 7276   4.118  10.584  11.100  0.5403  0.2547  1.3534
  778MOL0     N 7277   3.643  10.367  11.637  0.5068  0.0530  1.1333
  778MOL0     N 7278   3.548  10.287  11.609 -0.0562 -1.4326  0.0075
  778MOL0     C 7279   4.112   9.571  11.292  0.0643 -0.4612  0.5832
  778MOL0     C 7280   4.141   9.444  11.251  0.5679 -0.9093  0.1096
  778MOL0     C 7281   4.380   9.039  11.274  0.4884  0.7051  0.5197
  778MOL0     C 7282   4.276   8.969  11.203 -0.7730 -0.4834 -0.0959
  778MOL0     C 7283   4.296   8.834  11.177  0.8699 -0.1109  0.5086
  778MOL0     C 7284   4.402   8.764  11.220 -0.3668 -0.2774 -0.2476
  778MOL0     O 7285   4.402   8.629  11.199  0.2066 -1.2633  0.4657
  778MOL0     C 7286   4.521   8.554  11.213 -1.0082 -0.1002 -0.7156
  778MOL0     C 7287   4.473   8.413  11.179 -0.2955 -0.3276 -0.1338
  778MOL0     C 7288   4.569   8.308  11.226  0.0793 -0.5309  0.4242
  778MOL0     C 7289   4.520   8.177  11.173  0.1739  0.5461 -0.4780
  778MOL0     C 7290   4.509   8.079  11.284 -0.1879 -0.1556  0.2497
  778MOL0     C 7291   4.503   7.983  11.364  0.0046 -0.0547 -0.3334
  778MOL0     C 7292   4.510   8.825  11.289 -0.1186 -0.7417 -0.2111
  778MOL0     C 7293   4.495   8.962  11.317 -0.3052 -1.2831 -0.4679
  778MOL0     C 7294   4.615   9.029  11.384 -0.1890 -0.6145 -0.2224
  778MOL0     H 7295   4.196   9.293  11.545  1.0701 -0.6733 -1.3652
  778MOL0     H 7296   4.153   9.531  11.628  1.9845 -1.6503  1.2063
  778MOL0     H 7297   4.081   9.843  11.288  1.5523  0.1158 -0.2024
  778MOL0     H 7298   4.184   9.881  11.429  1.1121 -3.1329 -0.0740
  778MOL0     H 7299   3.993   9.977  11.554 -4.1396 -1.6124  1.5566
  778MOL0     H 7300   3.974  10.037  11.395 -2.1723 -1.0579 -0.5896
  778MOL0     H 7301   3.806   9.863  11.333 -3.6380  0.4141 -0.0614
  778MOL0     H 7302   3.835   9.777  11.481 -0.1604  0.2390  0.0849
  778MOL0     H 7303   3.750  10.029  11.571  0.7048 -2.5987  2.4174
  778MOL0     H 7304   3.684  10.021  11.410  1.2901 -1.5022 -0.1180
  778MOL0     H 7305   3.650   9.811  11.613  1.0636 -0.4279 -1.7116
  778MOL0     H 7306   3.556   9.835  11.464 -0.7709  0.8849 -0.1202
  778MOL0     H 7307   3.453   9.894  11.688  2.1597 -1.7531 -2.1798
  778MOL0     H 7308   3.539  10.034  11.694  1.6740 -0.1271 -1.0284
  778MOL0     H 7309   3.319  10.082  11.587  1.3934  2.5636  1.2377
  778MOL0     H 7310   3.344   9.970  11.456  2.7407 -1.6427 -1.1134
  778MOL0     H 7311   3.509  10.096  11.338 -3.0440  2.9302 -2.3602
  778MOL0     H 7312   3.380  10.186  11.373 -0.0509 -2.0709 -1.3249
  778MOL0     H 7313   3.688  10.285  11.322 -0.5807 -0.5403 -0.1280
  778MOL0     H 7314   3.881  10.492  11.607  1.3121 -1.7488  0.6834
  778MOL0     H 7315   3.848  10.531  11.439  0.2476  1.1286  0.9757
  778MOL0     H 7316   3.967  10.253  11.541 -1.3904 -2.0098 -1.1992
  778MOL0     H 7317   3.973  10.307  11.373  0.8633  1.8025 -1.7625
  778MOL0     H 7318   4.124  10.408  11.623  1.9393  0.8354 -0.3077
  778MOL0     H 7319   4.179  10.314  11.487  1.1876  1.0179  0.0110
  778MOL0     H 7320   4.099  10.605  11.492  0.9208  2.0938 -0.9348
  778MOL0     H 7321   4.263  10.538  11.469 -1.6710  0.7850  0.3047
  778MOL0     H 7322   4.113  10.783  11.368 -0.4584 -1.0344 -0.5309
  778MOL0     H 7323   4.190  11.053  11.211  0.7039  1.8251  3.9327
  778MOL0     H 7324   4.104  11.005  11.336 -1.8486 -1.6990  1.1763
  778MOL0     H 7325   4.012  11.064  11.204  0.8652 -0.2138 -0.8884
  778MOL0     H 7326   3.994  10.741  10.570  1.6742 -0.3796 -1.9706
  778MOL0     H 7327   3.979  10.856  10.346  1.8969 -0.8333  0.4490
  778MOL0     H 7328   3.784  11.209  10.358  1.6773 -1.1916  2.6152
  778MOL0     H 7329   3.938  11.299  10.337 -1.7842  1.3636  0.2156
  778MOL0     H 7330   3.772  11.202  10.091 -0.7828 -1.1650  1.4476
  778MOL0     H 7331   3.721  11.332  10.191 -2.0934 -2.2435 -3.5721
  778MOL0     H 7332   3.995  11.299  10.057 -1.1658 -0.6251  1.4281
  778MOL0     H 7333   3.955  11.454  10.135 -3.5927  1.6119  1.4471
  778MOL0     H 7334   3.904  11.533   9.963  0.5631  0.0238  1.1974
  778MOL0     H 7335   3.749  11.464   9.984  0.8729  0.1758  2.7193
  778MOL0     H 7336   3.982  11.326   9.841  0.1390 -0.4708  0.4262
  778MOL0     H 7337   3.807  11.282   9.839  0.3221 -1.1786  1.2054
  778MOL0     H 7338   3.741  11.474   9.716 -0.2607  0.5946 -1.6289
  778MOL0     H 7339   3.872  11.378   9.627  1.9192  0.8640 -0.5175
  778MOL0     H 7340   3.934  11.640   9.756 -0.4757  0.3885  0.3370
  778MOL0     H 7341   3.938  11.599   9.582 -0.2178 -0.9818 -0.3356
  778MOL0     H 7342   4.103  11.408   9.650 -1.5537 -1.3884  2.0022
  778MOL0     H 7343   4.140  11.491   9.794  2.9308  2.1362 -0.8888
  778MOL0     H 7344   3.946  11.227  10.545 -1.9909 -0.2743 -1.9381
  778MOL0     H 7345   3.981  11.132  10.743  1.9689  0.7670 -0.4045
  778MOL0     H 7346   4.106  10.650  10.900  1.7341 -0.0618  0.8187
  778MOL0     H 7347   4.124  10.482  11.063 -1.2597  0.4284  0.4896
  778MOL0     H 7348   4.076   9.640  11.217 -2.5263 -1.2480  0.9868
  778MOL0     H 7349   4.121   9.436  11.145 -2.1698 -2.0072  0.6100
  778MOL0     H 7350   4.183   9.002  11.156 -2.0972 -2.9181  0.6281
  778MOL0     H 7351   4.226   8.779  11.115 -0.6238  2.3358 -0.1232
  778MOL0     H 7352   4.594   8.582  11.137  0.6017 -0.9628  0.4647
  778MOL0     H 7353   4.566   8.547  11.313  1.0756  0.7699 -1.5318
  778MOL0     H 7354   4.468   8.417  11.070  3.7661  3.2129 -0.4530
  778MOL0     H 7355   4.381   8.384  11.231  0.9914 -0.9895  1.9108
  778MOL0     H 7356   4.673   8.336  11.205  0.4901 -2.1811  0.0740
  778MOL0     H 7357   4.544   8.311  11.333 -2.6055 -0.4729 -0.1359
  778MOL0     H 7358   4.590   8.146  11.096 -0.2371  2.0355 -1.4899
  778MOL0     H 7359   4.418   8.184  11.133 -0.8220  0.8472  1.9089
  778MOL0     H 7360   4.496   7.889  11.415  0.7911  0.1123  0.1021
  778MOL0     H 7361   4.589   8.772  11.340 -0.7379 -1.0155  0.4818
  778MOL0     H 7362   4.584   9.064  11.483 -0.3025  3.0452 -1.4174
  778MOL0     H 7363   4.696   8.956  11.393 -1.0230 -1.4612  0.6373
  778MOL0     H 7364   4.673   9.109  11.338  1.0525  0.6842  3.2731
  779MOL0     O 7365   8.957  10.759   8.614  1.2126  0.3276 -0.1705
  779MOL0     C 7366   8.989  10.790   8.731  0.2242  0.7338  0.6041
  779MOL0     O 7367   8.933  10.892   8.798 -0.0292  0.0348 -1.1653
  779MOL0     C 7368   8.812  10.942   8.752  0.8182  0.7066 -0.3235
  779MOL0     C 7369   8.702  10.860   8.740  0.0262  0.7777  0.0027
  779MOL0     C 7370   8.574  10.915   8.693 -0.6499  0.7000 -0.6742
  779MOL0     C 7371   8.562  11.049   8.681  0.3475 -0.3517 -1.1254
  779MOL0     O 7372   8.433  11.095   8.642  0.5336  0.4389 -0.1271
  779MOL0     C 7373   8.425  11.184   8.534 -0.4217  0.1245  0.8768
  779MOL0     C 7374   8.276  11.211   8.493 -0.5752 -0.0041  0.8591
  779MOL0     C 7375   8.192  11.249   8.619 -1.2472 -0.7117 -0.3734
  779MOL0     C 7376   8.041  11.287   8.582 -1.1076  0.6016  0.9876
  779MOL0     C 7377   7.964  11.331   8.703  0.3604 -0.0723  0.8105
  779MOL0     C 7378   7.824  11.376   8.664  1.1505 -0.4039  0.1999
  779MOL0     C 7379   7.726  11.254   8.653 -0.0316 -0.1343 -0.1929
  779MOL0     C 7380   7.727  11.194   8.518 -0.1516  0.2663  0.6820
  779MOL0     N 7381   7.602  11.114   8.491 -0.0245 -0.4104  0.4447
  779MOL0     C 7382   7.568  10.996   8.544  0.2099 -0.8301  0.6716
  779MOL0     C 7383   7.444  10.970   8.485  0.8549 -0.0106 -0.3110
  779MOL0     C 7384   7.371  10.844   8.517 -0.5412 -0.6291  0.5652
  779MOL0     C 7385   7.238  10.814   8.431  0.4156 -0.6604  0.0471
  779MOL0     C 7386   7.127  10.923   8.431 -0.9714 -0.1177 -0.8166
  779MOL0     C 7387   7.133  11.003   8.563  0.1377 -0.6843 -0.1360
  779MOL0     O 7388   7.014  11.090   8.570 -0.0068  0.4653  0.7342
  779MOL0     C 7389   7.006  11.216   8.510 -0.9908 -0.1968 -0.1125
  779MOL0     C 7390   6.901  11.303   8.546 -0.1499  0.9724 -0.4401
  779MOL0     C 7391   6.878  11.428   8.491  0.1603 -0.2175  0.2573
  779MOL0     C 7392   6.755  11.504   8.534  0.3034 -0.5440  0.7109
  779MOL0     C 7393   6.963  11.471   8.396 -0.3997  1.0259 -0.8274
  779MOL0     C 7394   6.940  11.591   8.309 -0.1831 -0.9923  0.6416
  779MOL0     O 7395   7.053  11.659   8.275  0.7412 -0.5447  0.2958
  779MOL0     C 7396   7.036  11.795   8.254  0.0682  0.9793 -0.5635
  779MOL0     C 7397   6.931  11.884   8.292  0.0619  0.2963 -0.4371
  779MOL0     C 7398   6.929  12.024   8.297  0.3356 -0.0390 -0.4959
  779MOL0     C 7399   7.046  12.083   8.245  1.2686  0.4209 -0.8491
  779MOL0     O 7400   7.044  12.223   8.250  0.3514  0.2994  1.0692
  779MOL0     C 7401   7.160  12.292   8.294  0.1649  0.3935  0.4923
  779MOL0     C 7402   7.217  12.345   8.160 -0.8257  0.0492 -0.8674
  779MOL0     C 7403   7.354  12.411   8.188  0.2517 -0.3231 -0.7891
  779MOL0     C 7404   7.388  12.523   8.086 -0.8479  0.9698 -0.4661
  779MOL0     C 7405   7.545  12.552   8.070 -0.5156 -0.6258 -0.3659
  779MOL0     C 7406   7.568  12.650   7.957  0.2200  0.2889 -0.8940
  779MOL0     C 7407   7.713  12.704   7.948  0.3068  0.5013  0.1994
  779MOL0     C 7408   7.783  12.771   8.064  0.6834 -0.8091  0.9824
  779MOL0    Cl 7409   7.898  12.886   8.009 -0.0234 -0.1160 -0.4726
  779MOL0     C 7410   7.154  11.996   8.204  0.7044 -0.3736  0.1335
  779MOL0     C 7411   7.146  11.861   8.206  0.4900  0.0495 -0.2160
  779MOL0     O 7412   6.827  11.609   8.265  0.9299  0.3559  0.2611
  779MOL0     C 7413   7.078  11.387   8.369  0.8336  0.5591  0.9468
  779MOL0     C 7414   7.104  11.265   8.431  0.0681 -0.0952  1.5289
  779MOL0     N 7415   7.417  11.065   8.389 -1.2008  0.7133 -0.2883
  779MOL0     N 7416   7.510  11.154   8.397 -0.1089  0.6476  0.0542
  779MOL0     C 7417   8.673  11.131   8.700 -0.0276 -0.6659  0.3719
  779MOL0     C 7418   8.807  11.079   8.727  0.1009  1.5499  0.0665
  779MOL0     C 7419   9.108  10.716   8.776  0.6862  0.7831  0.2978
  779MOL0     C 7420   9.122  10.581   8.751  0.0625 -0.0466 -0.8515
  779MOL0     C 7421   9.229  10.503   8.796  0.0421 -0.1978 -0.2977
  779MOL0     C 7422   9.340  10.563   8.860  0.2284 -0.1290 -0.5050
  779MOL0     O 7423   9.452  10.507   8.911 -0.6097  0.6498  0.6705
  779MOL0     C 7424   9.511  10.398   8.843  1.1441  0.5793 -0.0826
  779MOL0     C 7425   9.661  10.384   8.875 -0.1743 -0.7476 -0.1862
  779MOL0     C 7426   9.684  10.318   9.014  0.2730 -0.9904 -0.5229
  779MOL0     C 7427   9.830  10.341   9.081  0.0277  0.4199  0.6528
  779MOL0     C 7428   9.936  10.289   8.988 -0.6169 -0.1279  0.9919
  779MOL0     C 7429  10.019  10.245   8.906 -0.2291  0.9719  0.0755
  779MOL0     C 7430   9.318  10.698   8.895 -0.8145 -0.1046 -0.7605
  779MOL0     C 7431   9.207  10.773   8.849 -0.5837  0.4739 -1.4139
  779MOL0     C 7432   9.205  10.909   8.908  0.8593  0.0514 -0.3528
  779MOL0     H 7433   8.713  10.754   8.758 -0.1631  1.1421  2.5349
  779MOL0     H 7434   8.489  10.850   8.676 -0.8498  0.8204 -0.1373
  779MOL0     H 7435   8.471  11.147   8.441 -0.8560  0.1723  0.6405
  779MOL0     H 7436   8.477  11.276   8.559  2.8506 -2.4185  4.7438
  779MOL0     H 7437   8.274  11.296   8.424 -0.0786  0.8387  1.8507
  779MOL0     H 7438   8.243  11.123   8.438  1.2643  0.7044 -1.5304
  779MOL0     H 7439   8.199  11.157   8.678  0.8435 -2.2413 -2.8039
  779MOL0     H 7440   8.238  11.331   8.675  2.5560 -0.4199 -3.4906
  779MOL0     H 7441   8.042  11.373   8.514  0.7117  1.5641  2.1538
  779MOL0     H 7442   7.995  11.203   8.529  1.8114  0.2343 -1.1876
  779MOL0     H 7443   8.013  11.421   8.740  1.2167  0.5592 -1.6450
  779MOL0     H 7444   7.971  11.256   8.782 -1.8456 -0.8711  0.3213
  779MOL0     H 7445   7.788  11.444   8.741 -2.1885 -0.5379 -1.0953
  779MOL0     H 7446   7.829  11.435   8.572  0.9770  1.6167  1.4258
  779MOL0     H 7447   7.622  11.282   8.669 -0.3137 -0.5365 -1.2186
  779MOL0     H 7448   7.746  11.171   8.722 -2.2980  0.7894  1.6897
  779MOL0     H 7449   7.735  11.275   8.444 -0.4026  0.2759  0.6634
  779MOL0     H 7450   7.801  11.117   8.493 -0.1070  0.9751 -1.6437
  779MOL0     H 7451   7.610  10.945   8.631  0.8804 -0.7595  0.3911
  779MOL0     H 7452   7.342  10.856   8.622 -0.9446  0.3008  0.3592
  779MOL0     H 7453   7.433  10.754   8.521  1.4029  0.6830  1.5845
  779MOL0     H 7454   7.265  10.803   8.325 -1.1412 -2.5899 -0.1996
  779MOL0     H 7455   7.201  10.715   8.458 -0.2074 -0.6904 -0.8844
  779MOL0     H 7456   7.139  10.992   8.347 -0.7121  0.7469 -0.0765
  779MOL0     H 7457   7.033  10.866   8.432  0.1585 -2.1314  2.2334
  779MOL0     H 7458   7.140  10.933   8.648 -0.2601 -0.6840 -0.1055
  779MOL0     H 7459   7.223  11.065   8.555 -0.6527  0.2989 -1.8152
  779MOL0     H 7460   6.839  11.288   8.635 -0.1362  0.1588 -0.5611
  779MOL0     H 7461   6.672  11.496   8.463  2.0052  2.0768 -1.8147
  779MOL0     H 7462   6.778  11.611   8.538 -1.4685 -0.1834  1.7258
  779MOL0     H 7463   6.728  11.471   8.634 -2.3333 -4.6608 -1.0885
  779MOL0     H 7464   6.841  11.836   8.328 -1.3165  3.1154  0.2048
  779MOL0     H 7465   6.854  12.084   8.349  1.9191 -0.7742  2.9315
  779MOL0     H 7466   7.141  12.363   8.375  0.0487  2.6584 -1.4437
  779MOL0     H 7467   7.230  12.219   8.337 -0.2606 -0.4044 -0.1353
  779MOL0     H 7468   7.232  12.263   8.089 -0.2697  0.9174 -1.7775
  779MOL0     H 7469   7.149  12.411   8.105 -0.0394  2.0072  0.3942
  779MOL0     H 7470   7.436  12.339   8.178  2.4183  1.7264  1.1633
  779MOL0     H 7471   7.356  12.447   8.292 -4.1788  0.5636 -0.8155
  779MOL0     H 7472   7.338  12.616   8.115 -1.4128  0.1006  1.4658
  779MOL0     H 7473   7.350  12.487   7.989 -0.6301  0.9559 -0.5472
  779MOL0     H 7474   7.580  12.599   8.163  2.5540  0.7864 -2.0970
  779MOL0     H 7475   7.605  12.464   8.045  3.2058  1.7124 -0.4645
  779MOL0     H 7476   7.512  12.739   7.987 -1.6302 -0.9547 -0.5213
  779MOL0     H 7477   7.531  12.608   7.863 -2.6156 -0.4071  0.4393
  779MOL0     H 7478   7.709  12.781   7.871  1.5099  1.9186  1.4828
  779MOL0     H 7479   7.779  12.625   7.912 -1.4651 -0.3465 -1.3569
  779MOL0     H 7480   7.836  12.703   8.130 -0.7401 -3.3868 -0.3821
  779MOL0     H 7481   7.716  12.829   8.128  2.2505  2.1049  0.1509
  779MOL0     H 7482   7.244  12.049   8.175  0.4458  0.3163  0.5607
  779MOL0     H 7483   7.233  11.802   8.180  0.8638  0.3288  0.3803
  779MOL0     H 7484   7.151  11.431   8.301 -3.2534  2.1078 -2.9432
  779MOL0     H 7485   7.193  11.208   8.404  1.8175  1.7852  2.9799
  779MOL0     H 7486   8.656  11.238   8.688  2.7261 -0.3608 -2.2945
  779MOL0     H 7487   8.905  11.125   8.727  1.0053 -0.2642 -1.0919
  779MOL0     H 7488   9.042  10.537   8.692  0.2739 -0.6029 -0.7296
  779MOL0     H 7489   9.240  10.403   8.756  0.5587  0.6395 -2.3941
  779MOL0     H 7490   9.450  10.311   8.870  0.6698  1.6490  2.5698
  779MOL0     H 7491   9.501  10.424   8.737  1.2602 -0.9165 -0.4852
  779MOL0     H 7492   9.702  10.484   8.860 -4.1010  0.9596 -0.9379
  779MOL0     H 7493   9.709  10.322   8.799 -0.4434  1.0434 -1.9196
  779MOL0     H 7494   9.612  10.362   9.084  0.9630 -1.3560  0.4511
  779MOL0     H 7495   9.667  10.210   9.018 -5.3889 -0.3818  0.5329
  779MOL0     H 7496   9.828  10.275   9.169 -1.3849  0.5357  0.7404
  779MOL0     H 7497   9.855  10.444   9.105  2.3666 -0.3003  1.6209
  779MOL0     H 7498  10.090  10.221   8.829 -2.6045 -1.7889 -1.4637
  779MOL0     H 7499   9.394  10.736   8.963  0.7590 -4.5354  0.3096
  779MOL0     H 7500   9.152  10.907   9.003  2.1088  3.0232  0.5231
  779MOL0     H 7501   9.302  10.953   8.934 -0.8760  4.1056  0.0459
  779MOL0     H 7502   9.165  10.989   8.844  1.7693  2.8416  2.3065
  780MOL0     O 7503  11.562   5.705   7.422  0.1880 -0.0682  0.0514
  780MOL0     C 7504  11.585   5.766   7.318 -0.3005 -0.6267  0.2913
  780MOL0     O 7505  11.649   5.717   7.209 -0.1733  0.4984 -0.4868
  780MOL0     C 7506  11.681   5.581   7.185  0.0298 -0.0806  0.2791
  780MOL0     C 7507  11.764   5.548   7.079  0.3743 -0.2582  0.3610
  780MOL0     C 7508  11.789   5.414   7.040  0.3946 -0.5191 -0.3162
  780MOL0     C 7509  11.745   5.307   7.111  0.9124  0.0274 -1.2295
  780MOL0     O 7510  11.797   5.178   7.086  0.3643 -0.3484 -0.4958
  780MOL0     C 7511  11.701   5.080   7.071  0.5881  0.6130 -0.9359
  780MOL0     C 7512  11.666   5.035   6.930  0.2478  0.4289 -0.3501
  780MOL0     C 7513  11.572   5.121   6.844 -0.2306 -0.5610 -0.4559
  780MOL0     C 7514  11.577   5.062   6.702  0.2303  0.4446  0.1381
  780MOL0     C 7515  11.473   4.949   6.680 -0.5851  0.1975  0.3611
  780MOL0     C 7516  11.342   4.997   6.614 -0.1443 -0.4625 -0.3134
  780MOL0     C 7517  11.231   4.890   6.582 -0.4435 -0.3923  0.5428
  780MOL0     C 7518  11.250   4.847   6.441  0.2748  0.2695 -0.7251
  780MOL0     N 7519  11.183   4.716   6.421  0.3780 -0.0540  0.1496
  780MOL0     C 7520  11.231   4.588   6.453  0.4053  0.2043 -0.1053
  780MOL0     C 7521  11.141   4.509   6.394 -0.2088  0.2016 -0.4164
  780MOL0     C 7522  11.154   4.362   6.431  0.4087  0.1574  0.0148
  780MOL0     C 7523  11.037   4.288   6.367 -0.3177  0.6900 -0.0745
  780MOL0     C 7524  10.894   4.309   6.411  0.1590 -0.6501 -0.4396
  780MOL0     C 7525  10.884   4.327   6.565  0.4442 -0.8071  0.2525
  780MOL0     O 7526  10.925   4.200   6.622 -0.0415 -0.4442  0.0757
  780MOL0     C 7527  10.947   4.199   6.760  0.4123  0.3796 -0.4161
  780MOL0     C 7528  10.878   4.278   6.855 -0.2885 -0.5265 -0.8175
  780MOL0     C 7529  10.904   4.268   6.993  0.2723 -0.1411  0.8121
  780MOL0     C 7530  10.807   4.368   7.068  0.1665  0.2480  0.0912
  780MOL0     C 7531  10.994   4.180   7.030  0.0328  0.7106  0.0865
  780MOL0     C 7532  11.016   4.155   7.173 -0.5081 -0.3308  1.0238
  780MOL0     O 7533  11.052   4.028   7.197  0.7453  0.7903  0.0050
  780MOL0     C 7534  11.077   3.965   7.316 -0.2913 -0.2151  0.1019
  780MOL0     C 7535  10.997   3.998   7.430 -0.1842  0.2321 -0.8806
  780MOL0     C 7536  11.031   3.945   7.556 -0.0387  0.6101  0.7951
  780MOL0     C 7537  11.133   3.854   7.568 -0.8518  0.4313 -0.7614
  780MOL0     O 7538  11.169   3.789   7.680 -0.5782  0.7005 -0.7045
  780MOL0     C 7539  11.157   3.851   7.810 -0.1186 -0.0399 -0.2621
  780MOL0     C 7540  11.104   3.747   7.911 -1.3093 -0.2824 -0.1814
  780MOL0     C 7541  11.115   3.802   8.053  0.0978 -0.9551 -0.0149
  780MOL0     C 7542  11.092   3.698   8.153  0.1092  0.2309  0.2893
  780MOL0     C 7543  11.119   3.768   8.288 -0.5225  0.6883  0.3277
  780MOL0     C 7544  11.161   3.653   8.385 -0.7844  0.1455 -0.7495
  780MOL0     C 7545  11.054   3.539   8.397 -0.2212  0.1794 -1.0592
  780MOL0     C 7546  11.108   3.431   8.489  0.8128  0.3865 -0.4662
  780MOL0    Cl 7547  11.147   3.489   8.647 -0.3250 -0.1445  0.2266
  780MOL0     C 7548  11.221   3.830   7.463  0.0915 -0.6343  0.1299
  780MOL0     C 7549  11.198   3.894   7.339  0.2425 -0.0552  0.2149
  780MOL0     O 7550  11.005   4.246   7.260 -0.9214  0.1974 -0.2482
  780MOL0     C 7551  11.064   4.094   6.937  1.0342  0.2626  0.2436
  780MOL0     C 7552  11.034   4.103   6.807  0.3886 -0.2372  0.0932
  780MOL0     N 7553  11.038   4.580   6.332 -0.0123 -0.3376 -0.7691
  780MOL0     N 7554  11.068   4.699   6.343 -0.2240  0.4958 -0.2334
  780MOL0     C 7555  11.661   5.343   7.220 -0.6525 -0.0171 -0.2066
  780MOL0     C 7556  11.630   5.474   7.258 -0.5253  1.2068  0.1266
  780MOL0     C 7557  11.531   5.911   7.312 -0.0106  0.2250  0.1046
  780MOL0     C 7558  11.509   5.978   7.434 -0.6882 -0.9075  0.1937
  780MOL0     C 7559  11.455   6.100   7.427  1.0818 -0.3232  0.3784
  780MOL0     C 7560  11.416   6.164   7.305 -0.0464  0.5164 -0.3482
  780MOL0     O 7561  11.352   6.288   7.317  0.0805  0.5151  0.3392
  780MOL0     C 7562  11.266   6.332   7.206  1.1916  0.2499  0.6079
  780MOL0     C 7563  11.265   6.485   7.200  0.3575 -0.3222 -0.0404
  780MOL0     C 7564  11.198   6.553   7.078 -0.1471  0.5527 -0.3416
  780MOL0     C 7565  11.062   6.494   7.070 -0.7654  0.3320 -0.2284
  780MOL0     C 7566  10.972   6.566   6.980  0.4175  0.1453  0.0544
  780MOL0     C 7567  10.874   6.611   6.931 -0.3893  0.5877  0.0853
  780MOL0     C 7568  11.441   6.093   7.183  0.3094  0.6251  0.0093
  780MOL0     C 7569  11.500   5.968   7.189  0.2480 -0.9166 -0.4848
  780MOL0     C 7570  11.508   5.896   7.054  0.7035 -0.7391  0.6080
  780MOL0     H 7571  11.811   5.615   7.008 -0.1063 -2.8846 -2.6404
  780MOL0     H 7572  11.850   5.395   6.952 -0.0716  0.6418 -0.9108
  780MOL0     H 7573  11.608   5.104   7.124  1.6054  1.7896  0.4065
  780MOL0     H 7574  11.745   5.002   7.136 -0.9445  0.7466  0.3269
  780MOL0     H 7575  11.766   5.014   6.890  1.0350 -1.2308  2.2461
  780MOL0     H 7576  11.628   4.934   6.942  4.5832 -1.2766  0.8923
  780MOL0     H 7577  11.467   5.112   6.874 -1.2957  0.7452 -3.4561
  780MOL0     H 7578  11.599   5.227   6.847 -1.5832 -0.1788 -1.1786
  780MOL0     H 7579  11.564   5.140   6.626 -1.3400 -0.5790 -0.7160
  780MOL0     H 7580  11.679   5.026   6.689  0.0201  0.4494 -1.8100
  780MOL0     H 7581  11.451   4.903   6.777 -2.7993  0.0527 -0.1430
  780MOL0     H 7582  11.513   4.879   6.607 -0.5353  0.5951  0.0007
  780MOL0     H 7583  11.302   5.076   6.679 -3.4291 -3.0188  1.0891
  780MOL0     H 7584  11.368   5.038   6.516  0.6961 -1.9609 -0.7496
  780MOL0     H 7585  11.135   4.941   6.575 -0.4312 -0.6319 -3.1904
  780MOL0     H 7586  11.224   4.811   6.657  1.4581 -0.6027  0.5676
  780MOL0     H 7587  11.206   4.912   6.364  0.8917 -2.0171 -3.1644
  780MOL0     H 7588  11.356   4.833   6.418  0.3042  0.9654 -1.0561
  780MOL0     H 7589  11.322   4.563   6.507 -0.1537  1.7942  1.6614
  780MOL0     H 7590  11.150   4.356   6.540 -1.0366  2.6004  0.1803
  780MOL0     H 7591  11.249   4.326   6.389 -0.7498  0.7637 -3.4485
  780MOL0     H 7592  11.061   4.291   6.261  3.0187 -4.1037  0.2684
  780MOL0     H 7593  11.057   4.182   6.383 -0.8722  0.3702 -1.4102
  780MOL0     H 7594  10.845   4.391   6.359 -1.4864 -2.8269 -2.5606
  780MOL0     H 7595  10.843   4.216   6.383 -2.6996  1.0993 -1.4745
  780MOL0     H 7596  10.937   4.418   6.595  0.9771 -0.9420 -0.2607
  780MOL0     H 7597  10.779   4.335   6.595  0.6781  1.3029  0.6948
  780MOL0     H 7598  10.796   4.343   6.826 -0.4472 -0.9383 -1.2949
  780MOL0     H 7599  10.744   4.446   7.024 -2.0376  0.1102  2.7399
  780MOL0     H 7600  10.869   4.415   7.144  5.0327 -1.6270 -2.3082
  780MOL0     H 7601  10.733   4.300   7.112 -1.1811  1.1909 -0.6534
  780MOL0     H 7602  10.912   4.064   7.415  0.4845  0.9231 -1.7090
  780MOL0     H 7603  10.966   3.967   7.640 -2.8002  1.0914 -1.3448
  780MOL0     H 7604  11.260   3.867   7.842 -0.6569  0.7651  1.1909
  780MOL0     H 7605  11.101   3.945   7.805 -0.4505 -0.3014 -3.2079
  780MOL0     H 7606  11.004   3.714   7.882 -0.4506  0.3206 -4.4630
  780MOL0     H 7607  11.174   3.663   7.906 -0.4221  0.3943  0.4586
  780MOL0     H 7608  11.045   3.882   8.081  0.8198  0.5027 -2.1052
  780MOL0     H 7609  11.209   3.857   8.067  1.0470 -2.6105  0.4238
  780MOL0     H 7610  11.171   3.623   8.139 -0.4755 -1.6190  5.0338
  780MOL0     H 7611  10.994   3.651   8.137  0.1445 -0.2164  1.2855
  780MOL0     H 7612  11.194   3.847   8.279 -1.1109  0.9846 -3.3458
  780MOL0     H 7613  11.023   3.811   8.320 -0.2886  0.6481  1.1223
  780MOL0     H 7614  11.179   3.704   8.480  1.1359 -1.2341 -0.2968
  780MOL0     H 7615  11.254   3.611   8.344  0.4288  0.5133  1.4699
  780MOL0     H 7616  11.024   3.516   8.294  0.4742 -0.2228 -1.1836
  780MOL0     H 7617  10.969   3.586   8.446  0.4733  0.1358  0.2316
  780MOL0     H 7618  11.201   3.396   8.444  0.6502 -0.1515 -0.4030
  780MOL0     H 7619  11.052   3.337   8.492  2.4027 -0.5902 -0.0322
  780MOL0     H 7620  11.316   3.777   7.468 -0.5389 -2.0731 -1.8761
  780MOL0     H 7621  11.274   3.889   7.262 -0.1783  0.7439 -0.2621
  780MOL0     H 7622  11.145   4.028   6.965 -0.5892 -2.0297 -0.1888
  780MOL0     H 7623  11.092   4.035   6.745  2.1336  2.2218 -1.1457
  780MOL0     H 7624  11.617   5.267   7.283  0.2546 -0.2484  0.1600
  780MOL0     H 7625  11.577   5.482   7.352  3.3732  0.8359  2.5862
  780MOL0     H 7626  11.532   5.943   7.534  3.6551  2.1693  0.5514
  780MOL0     H 7627  11.444   6.159   7.517  0.8666  0.4691 -0.1595
  780MOL0     H 7628  11.307   6.321   7.106 -2.3538  2.4860 -1.2869
  780MOL0     H 7629  11.162   6.301   7.218  1.0042 -0.0857 -1.6256
  780MOL0     H 7630  11.362   6.535   7.213 -0.6442  2.0317 -1.1013
  780MOL0     H 7631  11.208   6.511   7.289 -0.2790 -1.8724  0.0264
  780MOL0     H 7632  11.193   6.661   7.095 -1.7730  0.4615 -0.1362
  780MOL0     H 7633  11.261   6.534   6.991  1.4563 -1.6620  1.1774
  780MOL0     H 7634  11.019   6.487   7.171 -1.0878  1.0931 -0.3082
  780MOL0     H 7635  11.065   6.397   7.020  1.6423  0.7693 -1.0366
  780MOL0     H 7636  10.790   6.667   6.893 -2.3847  0.2771  3.5981
  780MOL0     H 7637  11.409   6.133   7.087 -0.7003  1.0640  0.5134
  780MOL0     H 7638  11.465   5.796   7.062 -0.1943 -0.2529  2.4847
  780MOL0     H 7639  11.455   5.965   6.987 -1.4667  1.1122  3.9079
  780MOL0     H 7640  11.614   5.889   7.028  0.6942 -2.2646  0.9151
  781MOL0     O 7641   1.155   3.838   6.986  0.3385  0.0903 -0.2434
  781MOL0     C 7642   1.184   3.898   6.888 -0.1997  0.0049  0.3988
  781MOL0     O 7643   1.116   4.012   6.843  0.0473  0.5934 -0.1487
  781MOL0     C 7644   0.979   4.043   6.858 -1.1473  0.0072 -0.0519
  781MOL0     C 7645   0.877   3.974   6.920  0.6350 -1.3582 -0.0610
  781MOL0     C 7646   0.758   4.030   6.919  1.0152  0.2407  0.8315
  781MOL0     C 7647   0.722   4.159   6.875 -0.1833  0.1194 -0.8564
  781MOL0     O 7648   0.597   4.229   6.889 -0.0469 -0.3800  0.4754
  781MOL0     C 7649   0.542   4.237   7.030 -0.2971  0.1100  0.4078
  781MOL0     C 7650   0.622   4.320   7.124 -0.0856  0.8111 -0.6450
  781MOL0     C 7651   0.612   4.291   7.274  0.3280 -0.8906 -0.2770
  781MOL0     C 7652   0.468   4.306   7.322  0.2534  0.1376  0.7395
  781MOL0     C 7653   0.452   4.304   7.470 -0.5707 -0.7000 -0.5129
  781MOL0     C 7654   0.471   4.156   7.526 -0.5400  0.4747 -0.6392
  781MOL0     C 7655   0.449   4.128   7.677 -1.0499  0.0652 -0.4498
  781MOL0     C 7656   0.535   4.231   7.759  0.1245  0.9651  0.4133
  781MOL0     N 7657   0.552   4.161   7.891 -0.4408 -0.0511 -0.2789
  781MOL0     C 7658   0.452   4.137   7.978  0.1663  0.0398 -0.2345
  781MOL0     C 7659   0.512   4.099   8.092 -0.8606  0.1547 -0.4922
  781MOL0     C 7660   0.453   4.046   8.210 -1.4441 -0.5520  0.0765
  781MOL0     C 7661   0.357   4.144   8.291 -0.7803  0.0095  0.2846
  781MOL0     C 7662   0.306   4.072   8.420 -0.2333 -0.7592 -0.3603
  781MOL0     C 7663   0.387   4.097   8.542  0.9982  0.3123  0.7459
  781MOL0     O 7664   0.330   4.049   8.666 -0.0172 -0.0675 -1.0470
  781MOL0     C 7665   0.231   4.107   8.737  0.0987  0.8374  0.2449
  781MOL0     C 7666   0.179   4.029   8.836 -0.5729 -0.0394  0.1387
  781MOL0     C 7667   0.065   4.065   8.911 -0.5824 -0.2814 -0.9354
  781MOL0     C 7668   0.018   3.972   9.018 -0.1325 -0.6079 -0.0357
  781MOL0     C 7669   0.005   4.183   8.891 -0.3106 -0.0251  0.6978
  781MOL0     C 7670  -0.111   4.243   8.957 -0.0547 -0.0788  0.0704
  781MOL0     O 7671  -0.180   4.340   8.894  0.1986 -0.5635  0.2085
  781MOL0     C 7672  -0.254   4.425   8.967  0.4667 -0.1336  0.0057
  781MOL0     C 7673  -0.367   4.474   8.898  1.1254  0.6008 -0.6710
  781MOL0     C 7674  -0.461   4.564   8.952  0.6308 -0.5329  0.0285
  781MOL0     C 7675  -0.424   4.628   9.071  1.0100  1.1219  0.0032
  781MOL0     O 7676  -0.504   4.715   9.135  0.5803 -0.2242 -0.2808
  781MOL0     C 7677  -0.611   4.786   9.058  1.0135  0.1311 -0.0389
  781MOL0     C 7678  -0.628   4.924   9.117  0.6071 -0.5217  0.1301
  781MOL0     C 7679  -0.708   5.042   9.063 -0.0158 -0.7028  0.4603
  781MOL0     C 7680  -0.859   5.039   9.081 -0.3478  0.0725 -0.0030
  781MOL0     C 7681  -0.898   5.042   9.223 -0.6397  0.1968 -0.4152
  781MOL0     C 7682  -0.851   5.163   9.297 -0.2107 -0.0291  0.3418
  781MOL0     C 7683  -0.950   5.282   9.284  0.1158  0.8364 -0.9968
  781MOL0     C 7684  -0.865   5.407   9.309  0.6951 -0.2509 -0.1694
  781MOL0    Cl 7685  -0.973   5.539   9.291  0.0579 -0.6427 -0.3409
  781MOL0     C 7686  -0.311   4.587   9.133 -0.1043  0.1127 -0.4635
  781MOL0     C 7687  -0.232   4.484   9.086  0.1316 -0.1621 -1.0232
  781MOL0     O 7688  -0.131   4.211   9.069 -0.1235  0.4811 -1.7209
  781MOL0     C 7689   0.060   4.266   8.785  0.1352 -0.0429  0.6234
  781MOL0     C 7690   0.176   4.236   8.711  0.4027 -0.1771 -0.1732
  781MOL0     N 7691   0.650   4.112   8.064  0.3040 -0.2947  0.4220
  781MOL0     N 7692   0.671   4.128   7.944  0.6966  0.2838  1.1437
  781MOL0     C 7693   0.831   4.226   6.812  0.1825  0.5935  0.8458
  781MOL0     C 7694   0.955   4.168   6.801 -0.2004 -0.1333  0.5860
  781MOL0     C 7695   1.314   3.849   6.816  0.5375 -0.0317  0.2224
  781MOL0     C 7696   1.339   3.708   6.837  0.1481 -0.5260  0.5704
  781MOL0     C 7697   1.438   3.647   6.760 -1.4028 -1.0953  0.7869
  781MOL0     C 7698   1.514   3.718   6.661  0.0178 -1.4986  0.1705
  781MOL0     O 7699   1.613   3.668   6.577  0.0830 -0.2687 -0.0464
  781MOL0     C 7700   1.655   3.533   6.587  0.7854  0.7411  0.6376
  781MOL0     C 7701   1.576   3.434   6.505 -0.1228  0.0818 -0.2563
  781MOL0     C 7702   1.564   3.455   6.351  0.1507  0.0931 -0.5228
  781MOL0     C 7703   1.710   3.482   6.303  0.4280  0.1153  0.0938
  781MOL0     C 7704   1.801   3.363   6.315 -0.8846 -0.1013  0.1190
  781MOL0     C 7705   1.880   3.265   6.307  0.8119 -1.7740 -0.4081
  781MOL0     C 7706   1.490   3.855   6.663 -0.3395 -0.8596  1.0834
  781MOL0     C 7707   1.398   3.925   6.743  0.3132  1.3476  0.2220
  781MOL0     C 7708   1.368   4.074   6.716  0.2111 -0.3990  0.2313
  781MOL0     H 7709   0.891   3.876   6.964 -0.3194 -1.7650 -0.6149
  781MOL0     H 7710   0.691   3.986   6.993  2.2559  2.4514  3.4186
  781MOL0     H 7711   0.536   4.133   7.065  1.2495 -0.6849 -1.5125
  781MOL0     H 7712   0.442   4.280   7.035 -0.9134 -1.3879  2.3505
  781MOL0     H 7713   0.727   4.308   7.096  0.0210 -1.8177  0.5650
  781MOL0     H 7714   0.583   4.419   7.096 -2.5582 -0.2159 -1.1552
  781MOL0     H 7715   0.649   4.190   7.296  1.8645 -1.1927 -3.6258
  781MOL0     H 7716   0.673   4.366   7.326 -0.7992  1.3673 -2.0713
  781MOL0     H 7717   0.426   4.396   7.276  0.9986 -1.6550 -4.1065
  781MOL0     H 7718   0.424   4.216   7.279  2.2523  0.4347 -2.2194
  781MOL0     H 7719   0.362   4.348   7.512  1.4368  0.9152  2.4681
  781MOL0     H 7720   0.531   4.372   7.501  0.3609  0.8751 -5.4907
  781MOL0     H 7721   0.414   4.083   7.467  2.6153 -1.3119 -1.7185
  781MOL0     H 7722   0.575   4.127   7.507 -0.6208 -1.0794  1.0804
  781MOL0     H 7723   0.475   4.022   7.686 -2.3613 -0.1926  0.6584
  781MOL0     H 7724   0.343   4.130   7.706 -0.5669 -1.3499  1.6102
  781MOL0     H 7725   0.626   4.250   7.701  2.0236 -1.1945  2.4781
  781MOL0     H 7726   0.475   4.322   7.770 -0.0425  1.0788 -1.1430
  781MOL0     H 7727   0.348   4.153   7.953 -0.8158 -1.3156  2.4963
  781MOL0     H 7728   0.528   4.008   8.279 -0.2601 -0.8853 -1.3336
  781MOL0     H 7729   0.389   3.963   8.178 -2.9417  1.5257 -2.8625
  781MOL0     H 7730   0.422   4.228   8.315 -0.4746 -0.1530  0.0360
  781MOL0     H 7731   0.277   4.169   8.220 -0.0895 -0.3731 -0.6434
  781MOL0     H 7732   0.204   4.106   8.441 -0.1440  0.9486 -2.3261
  781MOL0     H 7733   0.307   3.963   8.409  2.0232 -0.7807 -0.2471
  781MOL0     H 7734   0.480   4.040   8.532  0.3989 -0.5571 -0.0757
  781MOL0     H 7735   0.409   4.204   8.553  0.0396  0.3748  2.4016
  781MOL0     H 7736   0.221   3.933   8.863  0.7959  0.9968  1.9145
  781MOL0     H 7737   0.068   3.874   9.018  0.6132 -0.3454  3.1569
  781MOL0     H 7738  -0.090   3.955   9.017  0.0521 -2.3644  2.3045
  781MOL0     H 7739   0.043   4.024   9.110 -1.2303 -0.9999  0.5025
  781MOL0     H 7740  -0.398   4.441   8.800  1.3609 -0.6776 -0.3252
  781MOL0     H 7741  -0.556   4.595   8.910  0.3332 -0.0587  1.0150
  781MOL0     H 7742  -0.589   4.791   8.951 -2.1830  0.0060 -0.8028
  781MOL0     H 7743  -0.700   4.723   9.062  2.3162 -1.8001 -0.2853
  781MOL0     H 7744  -0.652   4.917   9.224  0.3618  1.1751  0.2116
  781MOL0     H 7745  -0.528   4.966   9.122 -0.2972  1.8383 -0.2479
  781MOL0     H 7746  -0.682   5.043   8.956  4.3335 -0.2500  1.3333
  781MOL0     H 7747  -0.663   5.137   9.092 -0.6050 -0.5910  1.0235
  781MOL0     H 7748  -0.882   4.940   9.041  1.0033 -0.3597  0.2341
  781MOL0     H 7749  -0.911   5.113   9.019  2.4592  0.2310 -2.3540
  781MOL0     H 7750  -1.006   5.035   9.232 -0.8003 -2.9770 -2.8606
  781MOL0     H 7751  -0.865   4.951   9.275 -2.8445 -0.6451 -0.3908
  781MOL0     H 7752  -0.750   5.194   9.269 -1.1928  0.8516 -2.6093
  781MOL0     H 7753  -0.845   5.142   9.404 -1.0066 -5.6443 -0.3738
  781MOL0     H 7754  -1.031   5.274   9.357 -0.8439  0.1818 -2.0863
  781MOL0     H 7755  -1.007   5.272   9.191 -1.0696 -1.2872 -0.0972
  781MOL0     H 7756  -0.769   5.410   9.256  0.9825  3.9387  0.2442
  781MOL0     H 7757  -0.839   5.397   9.415 -0.9818  1.0291  0.4034
  781MOL0     H 7758  -0.278   4.628   9.228 -0.1498  1.1393 -0.8687
  781MOL0     H 7759  -0.154   4.457   9.157 -1.6119 -4.1274 -0.3438
  781MOL0     H 7760   0.021   4.367   8.780  1.2548  0.3611 -0.7270
  781MOL0     H 7761   0.205   4.303   8.630 -2.0704  4.3847  2.2693
  781MOL0     H 7762   0.812   4.328   6.780  0.6727  1.4506  3.0934
  781MOL0     H 7763   1.036   4.224   6.756  0.7461 -1.2558  0.8509
  781MOL0     H 7764   1.264   3.655   6.895  0.0070  0.2153  1.0893
  781MOL0     H 7765   1.446   3.539   6.765  1.4924 -0.8926  4.4758
  781MOL0     H 7766   1.759   3.532   6.554  1.1339 -0.6560  1.6668
  781MOL0     H 7767   1.662   3.498   6.690  0.1058 -2.1747 -0.2084
  781MOL0     H 7768   1.472   3.441   6.537 -1.0989  1.3172 -3.2904
  781MOL0     H 7769   1.621   3.334   6.511  1.6213  0.7419 -1.6020
  781MOL0     H 7770   1.512   3.366   6.312  2.8509 -2.3783  1.1343
  781MOL0     H 7771   1.500   3.543   6.348 -1.0876 -0.7052  0.8581
  781MOL0     H 7772   1.746   3.576   6.347 -3.4492  1.7889  0.0125
  781MOL0     H 7773   1.708   3.500   6.195  0.6790 -2.1263 -0.3351
  781MOL0     H 7774   1.938   3.176   6.293  1.7706 -0.9847 -1.6068
  781MOL0     H 7775   1.554   3.909   6.593  0.9184  0.2011  2.9736
  781MOL0     H 7776   1.292   4.085   6.639  1.4350  1.2610 -0.8209
  781MOL0     H 7777   1.334   4.116   6.811  0.0314  0.0488 -0.0318
  781MOL0     H 7778   1.449   4.139   6.680 -1.5853  1.3313 -0.9056
  782MOL0     O 7779  11.489   5.775   0.473  0.1391  0.2042  0.2636
  782MOL0     C 7780  11.479   5.672   0.534 -0.4892  0.1737 -0.3594
  782MOL0     O 7781  11.368   5.610   0.558  0.1493 -0.6702 -0.3704
  782MOL0     C 7782  11.258   5.670   0.567  1.0129 -0.7434 -0.2383
  782MOL0     C 7783  11.240   5.808   0.608 -0.0115  0.1209 -0.4088
  782MOL0     C 7784  11.110   5.847   0.632 -0.3980 -0.2999  0.7015
  782MOL0     C 7785  11.002   5.762   0.637 -0.1004  0.7786 -0.5520
  782MOL0     O 7786  10.878   5.821   0.638  0.2939 -0.6765 -0.2639
  782MOL0     C 7787  10.796   5.793   0.744 -0.7181  1.3447 -0.9356
  782MOL0     C 7788  10.674   5.884   0.762 -1.0703 -0.7450 -0.2068
  782MOL0     C 7789  10.593   5.846   0.889  0.4590 -0.1479  1.0822
  782MOL0     C 7790  10.527   5.963   0.944  0.0772 -0.7129 -0.3788
  782MOL0     C 7791  10.462   5.918   1.073  0.7828  0.2569 -0.1126
  782MOL0     C 7792  10.431   6.041   1.165 -0.6480  0.0441 -0.3294
  782MOL0     C 7793  10.329   6.020   1.284 -0.7048  0.1771 -0.1442
  782MOL0     C 7794  10.326   6.144   1.370  0.5686  0.2526 -0.7220
  782MOL0     N 7795  10.455   6.165   1.440  0.7657 -0.2931 -0.0069
  782MOL0     C 7796  10.486   6.132   1.574 -0.0802  0.5597 -0.4429
  782MOL0     C 7797  10.585   6.220   1.606 -0.5299  0.6394 -0.3353
  782MOL0     C 7798  10.659   6.232   1.746  0.1920  0.3181  0.0862
  782MOL0     C 7799  10.645   6.378   1.791 -0.0770 -1.0764  0.3789
  782MOL0     C 7800  10.498   6.423   1.822  1.3248 -0.3321 -0.4019
  782MOL0     C 7801  10.488   6.579   1.848  0.1190  0.2978  0.1179
  782MOL0     O 7802  10.363   6.623   1.781  0.5555 -0.0783 -0.2975
  782MOL0     C 7803  10.337   6.754   1.760 -0.4242 -0.5990  0.4939
  782MOL0     C 7804  10.316   6.828   1.872  1.1916 -0.2613  0.1225
  782MOL0     C 7805  10.284   6.968   1.866 -0.6016 -0.2985 -0.0552
  782MOL0     C 7806  10.246   7.047   1.992  0.0612  0.6651 -0.1279
  782MOL0     C 7807  10.274   7.027   1.736 -0.6811  0.2825  0.1462
  782MOL0     C 7808  10.240   7.170   1.727  0.5182 -0.2668 -0.7072
  782MOL0     O 7809  10.128   7.215   1.665  0.0788 -0.0296 -0.4224
  782MOL0     C 7810  10.116   7.351   1.675  0.0380 -1.0182 -0.8253
  782MOL0     C 7811  10.081   7.414   1.793  0.5829  0.2652 -0.6117
  782MOL0     C 7812  10.071   7.552   1.800 -0.6265  1.1372  0.1099
  782MOL0     C 7813  10.109   7.642   1.694 -0.3307  0.2966 -0.0039
  782MOL0     O 7814  10.092   7.774   1.704  0.0309  0.0521 -0.1674
  782MOL0     C 7815  10.132   7.836   1.827 -0.1446 -0.3430 -0.4314
  782MOL0     C 7816  10.111   7.995   1.822  0.7843 -0.1884 -0.1247
  782MOL0     C 7817  10.142   8.073   1.951  0.8117  0.9517  0.1943
  782MOL0     C 7818  10.148   8.214   1.905 -0.3447  0.4124 -0.0125
  782MOL0     C 7819  10.155   8.307   2.032 -0.8308  0.6157  0.6779
  782MOL0     C 7820  10.203   8.445   1.992 -0.1207 -0.6514 -0.7714
  782MOL0     C 7821  10.274   8.495   2.123  0.2975  0.4485  0.4854
  782MOL0     C 7822  10.292   8.641   2.121 -0.0999 -0.4983  0.4591
  782MOL0    Cl 7823  10.405   8.668   2.258 -0.3553 -0.4617 -0.0199
  782MOL0     C 7824  10.151   7.580   1.575 -0.0409  0.9823 -0.9433
  782MOL0     C 7825  10.162   7.432   1.565 -0.1723  0.2014  0.5177
  782MOL0     O 7826  10.329   7.237   1.771 -1.0353 -0.0617 -0.0442
  782MOL0     C 7827  10.299   6.951   1.619 -1.0574 -0.2062 -0.6893
  782MOL0     C 7828  10.336   6.814   1.631  1.0056  0.7587  0.0332
  782MOL0     N 7829  10.625   6.287   1.492 -0.3147  0.9954  0.4501
  782MOL0     N 7830  10.546   6.263   1.396  0.2356  0.2225  0.4609
  782MOL0     C 7831  11.017   5.627   0.603 -0.8346  0.3446 -0.4729
  782MOL0     C 7832  11.151   5.576   0.572  0.1300 -0.6600 -0.1515
  782MOL0     C 7833  11.604   5.591   0.541 -0.9064  1.5067  0.5605
  782MOL0     C 7834  11.721   5.655   0.562  0.3213  0.0145 -0.7002
  782MOL0     C 7835  11.846   5.608   0.560 -0.7599 -0.1310 -0.0410
  782MOL0     C 7836  11.860   5.473   0.533  0.1096 -0.1282 -0.1594
  782MOL0     O 7837  11.985   5.422   0.504 -0.1182 -0.1456 -0.8272
  782MOL0     C 7838  12.101   5.495   0.551 -0.2460 -0.0700  0.7591
  782MOL0     C 7839  12.216   5.425   0.489 -0.6648  0.5212 -0.3174
  782MOL0     C 7840  12.351   5.488   0.523 -1.0914 -0.5191  0.2360
  782MOL0     C 7841  12.459   5.445   0.425 -0.6910 -1.6596  0.0478
  782MOL0     C 7842  12.460   5.541   0.310  1.1458 -0.8130  0.1431
  782MOL0     C 7843  12.473   5.613   0.208  0.6639 -0.0163  0.3752
  782MOL0     C 7844  11.746   5.388   0.501  0.0537  0.2603 -0.8422
  782MOL0     C 7845  11.617   5.451   0.500 -1.3299 -0.4111 -0.0863
  782MOL0     C 7846  11.507   5.366   0.448  0.3521  0.0060  0.6760
  782MOL0     H 7847  11.312   5.889   0.602  0.3347 -0.2245 -0.9965
  782MOL0     H 7848  11.105   5.955   0.633  2.0691 -0.0839 -0.8954
  782MOL0     H 7849  10.859   5.800   0.833 -1.4990  0.7178 -0.3223
  782MOL0     H 7850  10.772   5.689   0.722  4.2505  0.4792 -3.8746
  782MOL0     H 7851  10.712   5.986   0.775  1.5806 -2.0064  3.4473
  782MOL0     H 7852  10.617   5.870   0.670 -1.1120 -1.3700 -0.0864
  782MOL0     H 7853  10.515   5.772   0.868 -0.7453  1.3750 -0.1223
  782MOL0     H 7854  10.649   5.798   0.969 -0.4479 -2.0749  0.6233
  782MOL0     H 7855  10.596   6.047   0.953 -1.4084  0.6595 -1.4047
  782MOL0     H 7856  10.446   6.001   0.881 -4.0759  1.2350  5.2851
  782MOL0     H 7857  10.504   5.827   1.117  1.7397  0.5193 -0.4606
  782MOL0     H 7858  10.361   5.895   1.039 -0.1404  1.7538  1.4635
  782MOL0     H 7859  10.521   6.094   1.197  1.1342 -1.4766 -2.5157
  782MOL0     H 7860  10.381   6.109   1.095  1.6020 -0.0711 -2.1474
  782MOL0     H 7861  10.374   5.943   1.346 -0.5565  1.3549  1.2665
  782MOL0     H 7862  10.227   5.987   1.260 -0.6156  0.6839 -1.2983
  782MOL0     H 7863  10.288   6.228   1.311  2.0501  0.6863 -1.0978
  782MOL0     H 7864  10.257   6.134   1.454 -0.4410  0.3479 -1.5295
  782MOL0     H 7865  10.442   6.057   1.639  1.4129 -0.2880 -0.3482
  782MOL0     H 7866  10.765   6.211   1.728  0.3544  1.0004  0.2407
  782MOL0     H 7867  10.615   6.151   1.805 -0.8968 -0.3884 -1.5800
  782MOL0     H 7868  10.701   6.399   1.883 -3.3390 -1.3387  2.6046
  782MOL0     H 7869  10.676   6.448   1.714 -2.2888 -0.0992  0.2919
  782MOL0     H 7870  10.433   6.393   1.739  2.3385 -0.3688 -1.2041
  782MOL0     H 7871  10.467   6.377   1.916 -0.1804 -2.0181 -1.6430
  782MOL0     H 7872  10.480   6.590   1.957 -3.2842 -1.3461  0.1792
  782MOL0     H 7873  10.577   6.631   1.812  3.4493 -2.9370  2.8625
  782MOL0     H 7874  10.324   6.797   1.976  0.1309  0.4102  0.4242
  782MOL0     H 7875  10.196   7.144   1.987  2.8728  2.5011  2.8679
  782MOL0     H 7876  10.337   7.055   2.052 -0.4939  3.0344  0.5038
  782MOL0     H 7877  10.190   6.979   2.057  2.2238 -0.6751  0.4398
  782MOL0     H 7878  10.051   7.355   1.879  1.1683  0.0060 -0.5805
  782MOL0     H 7879  10.018   7.587   1.888 -0.7043 -1.2141  1.0674
  782MOL0     H 7880  10.067   7.801   1.908 -2.2661  0.7311 -1.5766
  782MOL0     H 7881  10.241   7.832   1.839 -0.0923  2.2081  0.4187
  782MOL0     H 7882  10.169   8.045   1.744  1.5613  1.2130  1.2884
  782MOL0     H 7883  10.007   8.010   1.789 -0.1829 -0.6528  2.4974
  782MOL0     H 7884  10.235   8.031   1.991  0.3177 -4.8644 -3.5689
  782MOL0     H 7885  10.057   8.064   2.019 -1.2845  1.8476 -2.1261
  782MOL0     H 7886  10.056   8.231   1.849 -1.5650  3.7334  2.6471
  782MOL0     H 7887  10.241   8.234   1.850  1.4688 -0.2811  2.5792
  782MOL0     H 7888  10.065   8.316   2.094 -1.0547  1.8464  0.1952
  782MOL0     H 7889  10.228   8.257   2.096  1.4276  0.9040 -1.5395
  782MOL0     H 7890  10.119   8.511   1.968  0.5953  0.2153 -0.9328
  782MOL0     H 7891  10.276   8.456   1.912  2.1384  2.3174  1.4964
  782MOL0     H 7892  10.372   8.448   2.117  1.1709  2.3541 -2.0741
  782MOL0     H 7893  10.218   8.459   2.211  0.8595 -3.2644 -0.5223
  782MOL0     H 7894  10.200   8.698   2.134  1.2357  1.2167  3.4573
  782MOL0     H 7895  10.332   8.680   2.027 -2.6635 -1.7956 -1.2895
  782MOL0     H 7896  10.186   7.637   1.490 -0.1818  0.6603 -1.2168
  782MOL0     H 7897  10.198   7.378   1.478 -0.9142 -1.4344  1.1763
  782MOL0     H 7898  10.286   6.974   1.514 -1.3331 -2.1725 -1.1166
  782MOL0     H 7899  10.369   6.766   1.539  2.0821  1.8909 -0.1872
  782MOL0     H 7900  10.920   5.579   0.597 -1.5701  1.6102  0.8546
  782MOL0     H 7901  11.174   5.472   0.552  1.9290 -0.7106  1.7631
  782MOL0     H 7902  11.705   5.762   0.572  2.1026  0.1572  1.4180
  782MOL0     H 7903  11.929   5.674   0.580 -2.8035  2.2381  1.1183
  782MOL0     H 7904  12.100   5.598   0.515 -0.2452  1.1614  3.9583
  782MOL0     H 7905  12.099   5.499   0.661 -2.2674 -0.7591  0.7923
  782MOL0     H 7906  12.207   5.428   0.380  0.4226  1.7987 -0.3892
  782MOL0     H 7907  12.208   5.320   0.518 -0.3311  0.0408 -1.8681
  782MOL0     H 7908  12.344   5.597   0.520  2.9333  0.0121  2.9314
  782MOL0     H 7909  12.394   5.465   0.621  1.3775  3.4013  0.2949
  782MOL0     H 7910  12.436   5.341   0.400  1.2772 -2.8114  2.6718
  782MOL0     H 7911  12.554   5.453   0.478  0.1097  0.6160 -1.5483
  782MOL0     H 7912  12.493   5.671   0.121 -0.2129  0.8475  0.7315
  782MOL0     H 7913  11.779   5.287   0.478  2.2850  0.2637  1.8186
  782MOL0     H 7914  11.466   5.408   0.356  1.0273 -0.6184  0.0828
  782MOL0     H 7915  11.540   5.262   0.443  1.4128  0.4110 -1.5920
  782MOL0     H 7916  11.426   5.364   0.522 -0.8454 -1.2565 -0.6051
  783MOL0     O 7917   6.634  10.726   1.917  0.0414  0.1709  1.0071
  783MOL0     C 7918   6.548  10.686   2.008 -0.3113 -0.5858 -1.1591
  783MOL0     O 7919   6.493  10.557   2.016 -0.7418  0.0628 -0.5182
  783MOL0     C 7920   6.549  10.471   1.926 -0.6629 -0.5212  0.6231
  783MOL0     C 7921   6.496  10.478   1.791 -0.5239  0.5620 -0.9914
  783MOL0     C 7922   6.556  10.388   1.700 -0.5285  0.2626  0.0234
  783MOL0     C 7923   6.655  10.305   1.720 -0.4202 -0.3009 -0.2151
  783MOL0     O 7924   6.701  10.231   1.615 -0.5565  0.1668 -0.4930
  783MOL0     C 7925   6.804  10.132   1.636 -0.4251 -0.2312 -0.0132
  783MOL0     C 7926   6.814  10.034   1.507 -0.1286  0.4145 -0.2502
  783MOL0     C 7927   6.851   9.886   1.551 -0.8576  0.3417 -0.3495
  783MOL0     C 7928   6.819   9.781   1.450  0.6035  0.3597  0.5777
  783MOL0     C 7929   6.864   9.640   1.501 -0.2612 -0.1729  0.2654
  783MOL0     C 7930   6.882   9.541   1.381 -0.1360 -0.2374  0.8250
  783MOL0     C 7931   6.754   9.523   1.303 -0.3125 -0.0798  0.3890
  783MOL0     C 7932   6.743   9.370   1.282 -0.2168 -0.1381  0.3560
  783MOL0     N 7933   6.640   9.330   1.179 -0.6582  0.0284  1.1570
  783MOL0     C 7934   6.508   9.320   1.202  0.4237  0.5455 -1.3509
  783MOL0     C 7935   6.449   9.240   1.108  0.4564  0.1256  0.1874
  783MOL0     C 7936   6.309   9.208   1.114 -0.1522 -0.4907 -0.4315
  783MOL0     C 7937   6.226   9.235   0.984  0.9077 -0.0570 -0.8172
  783MOL0     C 7938   6.108   9.137   0.961 -0.1156  0.2656 -0.3993
  783MOL0     C 7939   6.023   9.186   0.841  0.0512  0.3513  1.1241
  783MOL0     O 7940   5.924   9.288   0.885 -0.5602  0.9595  0.0482
  783MOL0     C 7941   5.831   9.333   0.795 -0.4556 -0.1978  0.1245
  783MOL0     C 7942   5.721   9.413   0.850 -1.0269 -0.6372  2.0359
  783MOL0     C 7943   5.614   9.455   0.761 -0.3184 -0.5388 -0.4577
  783MOL0     C 7944   5.502   9.545   0.817  0.3576  0.1627 -0.1986
  783MOL0     C 7945   5.608   9.422   0.620 -0.5830  0.4669 -0.4234
  783MOL0     C 7946   5.507   9.470   0.524 -0.8628  0.2745 -0.8753
  783MOL0     O 7947   5.525   9.409   0.400  0.1446  0.3006 -0.3078
  783MOL0     C 7948   5.426   9.425   0.304 -0.2215 -0.5836 -0.3666
  783MOL0     C 7949   5.389   9.552   0.265 -0.4928 -0.2994 -0.0933
  783MOL0     C 7950   5.278   9.573   0.177  0.8766 -0.7161 -0.2654
  783MOL0     C 7951   5.203   9.468   0.125 -0.2485  0.2855 -0.5962
  783MOL0     O 7952   5.121   9.498   0.015  0.3751 -0.4829 -0.2094
  783MOL0     C 7953   5.049   9.386  -0.044 -1.0060  0.2192  0.7356
  783MOL0     C 7954   4.968   9.437  -0.164  0.7793 -0.5390  0.6905
  783MOL0     C 7955   4.842   9.514  -0.114  0.0795 -0.0728 -0.0066
  783MOL0     C 7956   4.732   9.425  -0.053 -0.5716  0.2059 -0.1394
  783MOL0     C 7957   4.602   9.492  -0.043  0.1109 -0.0646  0.0489
  783MOL0     C 7958   4.504   9.437   0.055 -0.4465  0.6599 -0.7463
  783MOL0     C 7959   4.543   9.468   0.191  0.2848  0.8653 -0.8914
  783MOL0     C 7960   4.464   9.592   0.241 -0.6986  0.1274  0.3361
  783MOL0    Cl 7961   4.286   9.560   0.255  0.2180  0.3040  0.7032
  783MOL0     C 7962   5.249   9.339   0.170 -0.4099  0.4355  1.0255
  783MOL0     C 7963   5.352   9.319   0.252 -0.0091  0.2566  0.1340
  783MOL0     O 7964   5.431   9.566   0.551 -0.6539 -0.0388  0.7208
  783MOL0     C 7965   5.723   9.353   0.579 -0.7381  0.3985  0.7399
  783MOL0     C 7966   5.836   9.319   0.656  0.8281  0.3568 -0.5513
  783MOL0     N 7967   6.535   9.208   1.018  0.0914 -0.5461  0.1049
  783MOL0     N 7968   6.651   9.258   1.059  0.1860 -0.0894  0.4586
  783MOL0     C 7969   6.706  10.303   1.855 -0.5383  0.2763  0.8779
  783MOL0     C 7970   6.669  10.391   1.955  0.4552  1.0279  0.9310
  783MOL0     C 7971   6.498  10.786   2.112  0.0569  0.2252 -0.1780
  783MOL0     C 7972   6.356  10.778   2.136 -0.0126  0.3101  0.3788
  783MOL0     C 7973   6.298  10.862   2.222 -0.5452  1.0730 -0.4728
  783MOL0     C 7974   6.366  10.966   2.294 -0.0619  0.3997  0.5115
  783MOL0     O 7975   6.321  11.063   2.381  0.0599 -0.2252  0.2893
  783MOL0     C 7976   6.184  11.065   2.415  0.3949  0.1324 -0.0332
  783MOL0     C 7977   6.128  11.184   2.475 -0.3153  0.3459  0.1295
  783MOL0     C 7978   6.168  11.182   2.618  0.3804  0.2408  0.4446
  783MOL0     C 7979   6.129  11.323   2.663  0.4157 -0.4777  0.2320
  783MOL0     C 7980   6.134  11.328   2.807  0.1434  0.7403  0.1845
  783MOL0     C 7981   6.121  11.332   2.933  0.3129  0.2368 -0.4357
  783MOL0     C 7982   6.507  10.975   2.263  0.1198  0.5760 -1.0610
  783MOL0     C 7983   6.571  10.882   2.186 -1.1504  0.8411  0.2690
  783MOL0     C 7984   6.725  10.885   2.173  0.3931  0.4117  0.6587
  783MOL0     H 7985   6.426  10.554   1.758 -1.6210 -1.5881 -3.9717
  783MOL0     H 7986   6.520  10.393   1.598 -2.5641  0.9782  0.7229
  783MOL0     H 7987   6.786  10.066   1.722 -0.9600 -1.4734 -1.0572
  783MOL0     H 7988   6.890  10.199   1.643  0.4287 -1.0463 -2.0093
  783MOL0     H 7989   6.728  10.048   1.440  1.1790 -0.3420 -2.1844
  783MOL0     H 7990   6.903  10.061   1.451  0.2964  2.9646  1.5084
  783MOL0     H 7991   6.955   9.879   1.584 -0.9404  1.0308  0.0766
  783MOL0     H 7992   6.793   9.846   1.635  1.0848 -1.0204  0.3968
  783MOL0     H 7993   6.711   9.787   1.432  0.8025 -2.0617 -2.1010
  783MOL0     H 7994   6.865   9.803   1.354  0.3835 -1.4490  0.0134
  783MOL0     H 7995   6.795   9.599   1.575 -0.6997 -1.0365 -0.5945
  783MOL0     H 7996   6.963   9.646   1.546 -0.4358 -1.4892  0.8875
  783MOL0     H 7997   6.947   9.586   1.305 -2.7816  2.8813  0.1500
  783MOL0     H 7998   6.934   9.447   1.399  1.0590  0.0748 -0.7537
  783MOL0     H 7999   6.750   9.555   1.199  0.6091 -0.7290  0.1343
  783MOL0     H 8000   6.669   9.556   1.364  0.3235 -1.1979  1.9688
  783MOL0     H 8001   6.834   9.324   1.242 -0.1609  0.2981 -0.0269
  783MOL0     H 8002   6.720   9.324   1.379 -0.1356  1.0736  0.9604
  783MOL0     H 8003   6.468   9.355   1.297 -0.8449 -1.3840 -1.1059
  783MOL0     H 8004   6.257   9.269   1.189  0.3212 -0.1536 -0.3741
  783MOL0     H 8005   6.295   9.101   1.134 -2.4495 -0.1055  0.3428
  783MOL0     H 8006   6.184   9.335   0.996 -0.6985 -1.0461  3.7773
  783MOL0     H 8007   6.296   9.227   0.900  1.3381  0.5142 -0.5169
  783MOL0     H 8008   6.147   9.038   0.937  6.2299  2.4446 -0.8158
  783MOL0     H 8009   6.036   9.148   1.043  0.8080  0.9036  0.3555
  783MOL0     H 8010   6.083   9.239   0.767  0.4976 -1.7135 -0.0709
  783MOL0     H 8011   5.979   9.104   0.784 -0.9729  0.7523  1.3204
  783MOL0     H 8012   5.722   9.430   0.957 -1.0743  0.3494  1.8883
  783MOL0     H 8013   5.510   9.654   0.806  2.7261  0.1315  0.8381
  783MOL0     H 8014   5.510   9.533   0.925 -1.9292 -1.3458 -0.1090
  783MOL0     H 8015   5.397   9.518   0.802  0.3942 -0.3335  0.4139
  783MOL0     H 8016   5.439   9.640   0.303 -0.0648 -0.2778 -0.6832
  783MOL0     H 8017   5.236   9.666   0.139  2.5180 -0.2351 -0.9853
  783MOL0     H 8018   5.113   9.304  -0.077 -2.7966 -1.7166  1.8117
  783MOL0     H 8019   4.986   9.323   0.019 -2.5209 -0.4521 -1.2997
  783MOL0     H 8020   5.038   9.484  -0.233  0.9267 -1.1303  0.4274
  783MOL0     H 8021   4.920   9.360  -0.225 -3.1063  1.6507  0.6151
  783MOL0     H 8022   4.803   9.561  -0.205 -0.3918 -4.7764 -2.5521
  783MOL0     H 8023   4.887   9.580  -0.039  1.7672 -0.5239 -0.5841
  783MOL0     H 8024   4.760   9.389   0.046  0.4520  0.0915 -0.4573
  783MOL0     H 8025   4.724   9.335  -0.115 -0.9711 -0.5236  0.9636
  783MOL0     H 8026   4.620   9.600  -0.032  0.2235 -0.2885  2.5596
  783MOL0     H 8027   4.544   9.489  -0.136 -0.5869 -0.1429  0.4754
  783MOL0     H 8028   4.505   9.330   0.035  0.0852 -0.0099  2.3015
  783MOL0     H 8029   4.402   9.477   0.041 -1.6771 -1.1829  2.0900
  783MOL0     H 8030   4.651   9.486   0.203  0.4206 -1.1828  2.0197
  783MOL0     H 8031   4.517   9.379   0.249 -0.2024 -0.3704 -2.8908
  783MOL0     H 8032   4.478   9.676   0.172 -3.7375 -0.2446 -0.8843
  783MOL0     H 8033   4.496   9.633   0.337  1.3212 -2.4907  0.9178
  783MOL0     H 8034   5.197   9.249   0.135  0.7938 -0.6097  1.8399
  783MOL0     H 8035   5.378   9.217   0.278  1.8686 -0.0624 -2.5798
  783MOL0     H 8036   5.738   9.329   0.475 -0.0010 -1.2927  1.1975
  783MOL0     H 8037   5.925   9.279   0.608 -1.5417 -1.3885 -3.8729
  783MOL0     H 8038   6.801  10.253   1.871 -1.5053 -2.1024 -0.3198
  783MOL0     H 8039   6.732  10.395   2.043  0.8341 -1.9212  0.8978
  783MOL0     H 8040   6.305  10.696   2.086  1.5458  1.4051 -3.2768
  783MOL0     H 8041   6.194  10.831   2.222  0.4868 -3.1507 -2.7508
  783MOL0     H 8042   6.125  11.029   2.330 -0.5085  0.1936  0.5465
  783MOL0     H 8043   6.173  10.978   2.481  0.4168 -0.7734 -1.1963
  783MOL0     H 8044   6.020  11.172   2.469 -0.6341  0.6329  3.4034
  783MOL0     H 8045   6.161  11.272   2.418 -1.7380  0.1328 -1.0830
  783MOL0     H 8046   6.109  11.104   2.667 -0.9575  0.6327 -0.4708
  783MOL0     H 8047   6.276  11.171   2.632  0.5038  1.5325  0.7018
  783MOL0     H 8048   6.025  11.346   2.639  0.3437 -1.7375 -0.7787
  783MOL0     H 8049   6.202  11.399   2.633  1.0702 -0.9317  0.6268
  783MOL0     H 8050   6.114  11.350   3.039 -3.6894 -1.1636 -0.3187
  783MOL0     H 8051   6.571  11.047   2.314 -1.5334  1.2988  0.0637
  783MOL0     H 8052   6.754  10.968   2.108 -1.9789  0.4943 -0.3925
  783MOL0     H 8053   6.761  10.924   2.268  0.4054 -0.6956  1.1198
  783MOL0     H 8054   6.775  10.790   2.153  0.2714  0.3142  0.8139
  784MOL0     O 8055   0.016  10.442   0.119 -0.1117  0.3462 -0.2217
  784MOL0     C 8056   0.088  10.493   0.031 -0.8681 -0.3771 -1.3858
  784MOL0     O 8057   0.154  10.615   0.043 -0.1263  0.2798  0.2189
  784MOL0     C 8058   0.135  10.688   0.159  0.7026 -0.0338 -0.0857
  784MOL0     C 8059   0.204  10.676   0.279 -0.4179 -0.6434 -0.3120
  784MOL0     C 8060   0.171  10.756   0.384 -0.4174 -0.5867 -0.6567
  784MOL0     C 8061   0.066  10.853   0.381 -0.1074  0.7625  0.4219
  784MOL0     O 8062   0.032  10.936   0.480 -0.6931  0.0225  0.3421
  784MOL0     C 8063  -0.112  10.957   0.494 -0.0702 -0.5128 -0.1857
  784MOL0     C 8064  -0.136  11.008   0.643 -0.1009  0.2326  0.9634
  784MOL0     C 8065  -0.123  10.902   0.754 -0.4497  0.8746  0.4678
  784MOL0     C 8066  -0.167  10.968   0.886 -0.3051 -0.2969  0.1577
  784MOL0     C 8067  -0.162  10.873   1.002  0.3890  0.5421 -0.8501
  784MOL0     C 8068  -0.298  10.810   1.014  0.0726 -0.5379 -0.2167
  784MOL0     C 8069  -0.316  10.690   1.116 -0.0499 -0.3070  0.0850
  784MOL0     C 8070  -0.350  10.747   1.259 -0.5970  0.7351  1.1451
  784MOL0     N 8071  -0.392  10.641   1.361 -0.7178 -0.2611 -0.7299
  784MOL0     C 8072  -0.438  10.514   1.338  0.5737 -0.2710  0.4438
  784MOL0     C 8073  -0.458  10.459   1.468  1.2238 -0.2051  0.7597
  784MOL0     C 8074  -0.521  10.327   1.495 -0.8743 -0.5532  0.8908
  784MOL0     C 8075  -0.459  10.251   1.610 -0.5704 -0.8868 -0.6649
  784MOL0     C 8076  -0.540  10.130   1.641  0.0580  0.9590  0.0640
  784MOL0     C 8077  -0.499  10.062   1.776  1.1912  0.1486  0.2657
  784MOL0     O 8078  -0.546  10.146   1.881  0.5968  0.1910 -0.4483
  784MOL0     C 8079  -0.599  10.095   1.997  0.4713  0.7840 -0.1435
  784MOL0     C 8080  -0.556   9.977   2.056 -0.4476 -0.3822  0.0442
  784MOL0     C 8081  -0.620   9.945   2.181  0.4270 -0.0659 -0.1372
  784MOL0     C 8082  -0.560   9.822   2.245 -1.0772  0.4986 -0.9904
  784MOL0     C 8083  -0.730  10.032   2.234 -0.2389  0.3068  1.7872
  784MOL0     C 8084  -0.792  10.006   2.375 -0.1208  0.1708 -0.3737
  784MOL0     O 8085  -0.866  10.104   2.423 -1.3033 -0.1537  0.8416
  784MOL0     C 8086  -0.915  10.102   2.552 -0.5352 -0.0522  0.3090
  784MOL0     C 8087  -1.054  10.096   2.584  0.1540 -0.7176 -0.1706
  784MOL0     C 8088  -1.102  10.109   2.715 -0.0644  0.4189 -0.4223
  784MOL0     C 8089  -1.005  10.109   2.819  1.2545  0.5937  0.3627
  784MOL0     O 8090  -1.067  10.123   2.936 -0.3249  0.3390  0.0220
  784MOL0     C 8091  -0.977  10.164   3.044 -0.4971  1.7865  0.8200
  784MOL0     C 8092  -1.073  10.179   3.159  0.1959  0.1767  0.0645
  784MOL0     C 8093  -1.155  10.049   3.204 -0.1173  0.4133  0.5583
  784MOL0     C 8094  -1.299  10.060   3.143  0.1957 -0.0117  0.1742
  784MOL0     C 8095  -1.401   9.936   3.173  0.6145  0.6611 -1.0040
  784MOL0     C 8096  -1.542   9.961   3.116  0.0807  0.3344  0.3238
  784MOL0     C 8097  -1.538   9.954   2.964 -0.3342  0.0469 -0.6849
  784MOL0     C 8098  -1.641  10.045   2.911 -0.0280  0.3627 -0.1754
  784MOL0    Cl 8099  -1.671  10.049   2.741  0.0749  0.2200  0.0247
  784MOL0     C 8100  -0.865  10.099   2.784 -0.1095  0.1817  0.2154
  784MOL0     C 8101  -0.818  10.104   2.656 -0.3773 -0.4932 -0.2156
  784MOL0     O 8102  -0.762   9.909   2.441 -0.1817  0.8041  0.1987
  784MOL0     C 8103  -0.775  10.138   2.154 -0.7806 -0.6551  0.7177
  784MOL0     C 8104  -0.713  10.169   2.037  0.0994 -0.0380 -0.1807
  784MOL0     N 8105  -0.425  10.548   1.565  0.8535 -0.8012 -0.0227
  784MOL0     N 8106  -0.378  10.649   1.502  0.1506 -0.0621 -0.3228
  784MOL0     C 8107   0.004  10.865   0.256 -0.1128 -0.0506 -0.1089
  784MOL0     C 8108   0.031  10.787   0.148  0.1885 -0.3418  0.2048
  784MOL0     C 8109   0.110  10.409  -0.100 -0.1681 -0.0342 -0.6109
  784MOL0     C 8110   0.190  10.470  -0.203 -0.5326 -0.1021 -0.3233
  784MOL0     C 8111   0.212  10.425  -0.331  0.4002 -0.1197  0.3814
  784MOL0     C 8112   0.154  10.300  -0.366  0.4285 -0.1356 -0.9099
  784MOL0     O 8113   0.181  10.254  -0.487 -0.6637  0.6487 -0.8179
  784MOL0     C 8114   0.111  10.131  -0.517  0.7966 -0.1928  0.6030
  784MOL0     C 8115   0.158  10.086  -0.657 -1.2313 -0.5951 -0.1792
  784MOL0     C 8116   0.213   9.946  -0.653  0.0622  0.7281  0.3363
  784MOL0     C 8117   0.242   9.894  -0.800  0.0845  0.0941 -0.4103
  784MOL0     C 8118   0.347   9.969  -0.870  0.5898 -0.4188 -0.1746
  784MOL0     C 8119   0.420  10.046  -0.922 -0.0786 -0.2126  0.4267
  784MOL0     C 8120   0.078  10.239  -0.267  0.2570  0.6984 -0.4343
  784MOL0     C 8121   0.054  10.281  -0.130  1.0252  0.3478  0.2063
  784MOL0     C 8122  -0.037  10.202  -0.029 -0.0378  0.2163  0.8904
  784MOL0     H 8123   0.297  10.620   0.278  1.6507  2.5350 -1.5683
  784MOL0     H 8124   0.222  10.746   0.479  1.4663  1.5516 -1.3501
  784MOL0     H 8125  -0.174  10.868   0.483  3.0484 -2.6124 -2.3139
  784MOL0     H 8126  -0.157  11.039   0.438 -1.1323  1.5662  3.3772
  784MOL0     H 8127  -0.069  11.091   0.665  0.0685 -0.0136  1.3733
  784MOL0     H 8128  -0.239  11.045   0.655 -0.9824 -1.4429 -0.7300
  784MOL0     H 8129  -0.173  10.809   0.727  0.8296 -0.0940  1.3436
  784MOL0     H 8130  -0.020  10.868   0.767 -1.1564 -0.9059  1.6729
  784MOL0     H 8131  -0.096  11.050   0.902 -2.5959  2.2210 -1.6482
  784MOL0     H 8132  -0.265  11.016   0.885 -0.0193  0.3146 -1.4539
  784MOL0     H 8133  -0.159  10.941   1.088 -2.3976  1.5073 -1.3981
  784MOL0     H 8134  -0.084  10.796   1.006 -3.6432 -3.9649  2.6713
  784MOL0     H 8135  -0.369  10.891   1.032  1.0775  0.1634  0.7406
  784MOL0     H 8136  -0.326  10.760   0.921  1.6269 -2.2362  0.1598
  784MOL0     H 8137  -0.217  10.643   1.120  0.5513  0.9746  0.9633
  784MOL0     H 8138  -0.386  10.619   1.072  0.2251  0.5279 -1.8019
  784MOL0     H 8139  -0.266  10.811   1.286 -1.1023  2.1543 -0.4418
  784MOL0     H 8140  -0.432  10.819   1.269 -0.8339  0.9374 -1.4913
  784MOL0     H 8141  -0.468  10.474   1.241 -0.7852  3.0423 -0.6531
  784MOL0     H 8142  -0.520  10.259   1.409  1.5572  0.8676 -0.3039
  784MOL0     H 8143  -0.625  10.348   1.523 -0.2751  1.0241  2.0906
  784MOL0     H 8144  -0.352  10.238   1.590 -0.7286 -1.7261 -1.0157
  784MOL0     H 8145  -0.459  10.305   1.705 -2.5523  0.8562 -1.5807
  784MOL0     H 8146  -0.646  10.157   1.641 -0.1113  0.4689 -2.3706
  784MOL0     H 8147  -0.511  10.057   1.565  2.6137 -1.7652  3.2918
  784MOL0     H 8148  -0.557   9.969   1.778 -1.0729  1.4017 -1.8509
  784MOL0     H 8149  -0.392  10.050   1.794  1.3850  0.7716 -0.4204
  784MOL0     H 8150  -0.477   9.912   2.019  0.4044 -0.7599  2.3058
  784MOL0     H 8151  -0.648   9.767   2.280 -0.3492  0.9120  1.6920
  784MOL0     H 8152  -0.517   9.852   2.341  1.5455 -3.1220 -0.8635
  784MOL0     H 8153  -0.485   9.763   2.191  0.1725  1.6606 -0.5760
  784MOL0     H 8154  -1.131  10.070   2.512 -0.3391  1.4809 -0.4978
  784MOL0     H 8155  -1.210  10.113   2.724  0.0227  0.9331  0.7333
  784MOL0     H 8156  -0.896  10.090   3.050  2.8473  4.5903 -3.4336
  784MOL0     H 8157  -0.930  10.262   3.037  1.1832  1.0247  1.0421
  784MOL0     H 8158  -1.029  10.221   3.249  1.0013  1.4668 -0.8944
  784MOL0     H 8159  -1.147  10.255   3.132 -0.0210 -1.1674 -3.7018
  784MOL0     H 8160  -1.174  10.040   3.311 -4.3848  0.1200 -0.0718
  784MOL0     H 8161  -1.099   9.962   3.168 -1.7048 -0.4576  0.1316
  784MOL0     H 8162  -1.283  10.076   3.036  1.2867  0.9789  0.4623
  784MOL0     H 8163  -1.340  10.155   3.177 -0.2530 -0.9415  2.4371
  784MOL0     H 8164  -1.358   9.840   3.145 -0.3790 -1.3534  3.4308
  784MOL0     H 8165  -1.419   9.938   3.281 -2.3789 -0.2609 -1.4142
  784MOL0     H 8166  -1.572  10.063   3.144  2.1337  2.0053 -2.9126
  784MOL0     H 8167  -1.613   9.883   3.143  0.4440  0.4207  1.5917
  784MOL0     H 8168  -1.549   9.853   2.922  2.6561 -0.0198 -1.4952
  784MOL0     H 8169  -1.439   9.976   2.924 -1.1142  0.0802 -2.6754
  784MOL0     H 8170  -1.623  10.149   2.940 -3.1941  2.3166 -4.1681
  784MOL0     H 8171  -1.739  10.035   2.960 -1.5310  1.7830 -2.6757
  784MOL0     H 8172  -0.799  10.098   2.870 -0.3356  1.3400  0.4222
  784MOL0     H 8173  -0.710  10.116   2.653 -0.3909  3.6261  4.2339
  784MOL0     H 8174  -0.851  10.202   2.197 -2.4925 -2.1859  0.0981
  784MOL0     H 8175  -0.746  10.254   1.977 -0.2877  1.5308  2.1071
  784MOL0     H 8176  -0.059  10.949   0.227  4.7850  2.7407 -4.2750
  784MOL0     H 8177  -0.009  10.802   0.048  1.5469 -1.1273 -0.4792
  784MOL0     H 8178   0.236  10.563  -0.171  0.2911 -0.2193 -1.1427
  784MOL0     H 8179   0.266  10.460  -0.418 -1.3945 -1.5861 -1.3982
  784MOL0     H 8180   0.124  10.045  -0.449 -1.5154 -0.3649  0.9090
  784MOL0     H 8181   0.005  10.154  -0.533  0.9759  0.0814 -0.1979
  784MOL0     H 8182   0.243  10.148  -0.687  0.1334 -2.0188  0.6041
  784MOL0     H 8183   0.073  10.099  -0.724 -0.0538  0.1129 -1.5952
  784MOL0     H 8184   0.300   9.924  -0.591  0.1168  1.8523  0.6809
  784MOL0     H 8185   0.130   9.885  -0.616  0.7619  0.7505  1.9908
  784MOL0     H 8186   0.146   9.900  -0.851 -2.4825 -1.5234  3.6725
  784MOL0     H 8187   0.272   9.789  -0.797  1.7640  0.5401  1.8398
  784MOL0     H 8188   0.496  10.111  -0.962 -0.7842  0.2007 -0.2780
  784MOL0     H 8189   0.028  10.145  -0.286 -0.5683  1.3478 -1.6727
  784MOL0     H 8190  -0.056  10.107  -0.079  1.4435  0.3857 -0.0611
  784MOL0     H 8191   0.019  10.185   0.064  1.2774 -2.5964 -0.2970
  784MOL0     H 8192  -0.128  10.262  -0.019 -0.1777  0.2211 -0.3125
  785MOL0     O 8193   0.742   7.142   2.638  0.3535 -0.8757 -0.0535
  785MOL0     C 8194   0.691   7.233   2.576 -0.6832 -0.5709  0.0888
  785MOL0     O 8195   0.604   7.323   2.636 -0.3500 -0.6543 -0.1421
  785MOL0     C 8196   0.560   7.297   2.768  1.0633  1.0730  1.5620
  785MOL0     C 8197   0.645   7.311   2.874 -0.2659 -0.2012 -0.7791
  785MOL0     C 8198   0.596   7.325   3.000 -0.5237  0.2687  0.3357
  785MOL0     C 8199   0.465   7.295   3.026 -0.9996  0.4233  0.1080
  785MOL0     O 8200   0.416   7.306   3.154  0.0646  0.1554  0.3512
  785MOL0     C 8201   0.475   7.224   3.250 -0.0330 -0.0114 -0.1779
  785MOL0     C 8202   0.378   7.102   3.258 -0.4108 -0.1734 -0.7199
  785MOL0     C 8203   0.239   7.127   3.312 -0.1119  0.1108 -0.2881
  785MOL0     C 8204   0.130   7.032   3.269 -0.3305  0.0961 -0.3489
  785MOL0     C 8205  -0.014   7.074   3.315  0.5249  0.9627  0.0690
  785MOL0     C 8206  -0.078   7.183   3.222 -0.2966  0.3309  0.6957
  785MOL0     C 8207  -0.233   7.206   3.238 -0.7056 -0.9720  1.2274
  785MOL0     C 8208  -0.318   7.102   3.155 -0.6921 -0.1639  0.1274
  785MOL0     N 8209  -0.306   7.129   3.013 -0.1871 -0.8878 -0.0193
  785MOL0     C 8210  -0.379   7.216   2.946  0.4912 -0.0052  0.6430
  785MOL0     C 8211  -0.335   7.198   2.816  0.0736 -0.4719  0.1740
  785MOL0     C 8212  -0.359   7.303   2.716  0.0083 -0.2648  1.2908
  785MOL0     C 8213  -0.238   7.365   2.651 -0.1413 -0.8310 -1.2761
  785MOL0     C 8214  -0.274   7.465   2.549 -0.0020  0.3783  0.3181
  785MOL0     C 8215  -0.345   7.598   2.598 -0.4200 -0.6463 -0.8133
  785MOL0     O 8216  -0.341   7.697   2.501 -0.3420  0.5481 -0.2888
  785MOL0     C 8217  -0.343   7.826   2.538  0.9923  0.6210  0.3486
  785MOL0     C 8218  -0.377   7.879   2.671  0.7049  0.5350  0.3444
  785MOL0     C 8219  -0.351   8.007   2.715  0.9649 -0.3355 -0.2605
  785MOL0     C 8220  -0.382   8.043   2.854  0.5036 -0.1048  0.2246
  785MOL0     C 8221  -0.306   8.099   2.620 -0.7148  0.2817 -0.1965
  785MOL0     C 8222  -0.269   8.240   2.651 -0.8513  0.0019  0.6400
  785MOL0     O 8223  -0.256   8.331   2.546 -0.1993 -0.5928 -0.4421
  785MOL0     C 8224  -0.202   8.452   2.581  0.3942  0.3912  0.5363
  785MOL0     C 8225  -0.068   8.453   2.630 -0.2772  1.6044 -0.5772
  785MOL0     C 8226  -0.012   8.575   2.661  0.1608 -0.6547  0.4961
  785MOL0     C 8227  -0.078   8.698   2.643  0.7138  0.1035 -0.9608
  785MOL0     O 8228  -0.033   8.820   2.677 -0.2928 -0.8124  0.2080
  785MOL0     C 8229   0.110   8.832   2.717  0.6678 -0.4459  0.7007
  785MOL0     C 8230   0.140   8.802   2.871  0.2193 -0.3769 -0.3993
  785MOL0     C 8231   0.273   8.739   2.887  1.0248 -0.0900 -0.3033
  785MOL0     C 8232   0.304   8.731   3.034  0.4254 -0.6423  0.8635
  785MOL0     C 8233   0.441   8.669   3.037 -0.5661 -0.2939  0.0601
  785MOL0     C 8234   0.482   8.639   3.187 -1.0020  0.0524  0.5786
  785MOL0     C 8235   0.518   8.763   3.275 -0.4062 -0.1298 -0.5587
  785MOL0     C 8236   0.615   8.720   3.393 -0.1730  0.0027  0.1733
  785MOL0    Cl 8237   0.669   8.845   3.502 -0.4777  0.0692 -0.1895
  785MOL0     C 8238  -0.215   8.689   2.600  0.0143  0.3148  0.4516
  785MOL0     C 8239  -0.277   8.568   2.572  0.9273 -0.5454  0.8536
  785MOL0     O 8240  -0.270   8.271   2.764 -0.3155 -0.4853 -0.3842
  785MOL0     C 8241  -0.295   8.056   2.490 -0.0676 -1.0495  0.2165
  785MOL0     C 8242  -0.298   7.925   2.452  0.2043  0.5127 -0.7802
  785MOL0     N 8243  -0.238   7.099   2.811 -0.3977 -0.2918  0.2129
  785MOL0     N 8244  -0.227   7.055   2.928 -0.1424  0.5613  0.0512
  785MOL0     C 8245   0.373   7.269   2.921 -0.4485 -0.3435  0.1986
  785MOL0     C 8246   0.416   7.282   2.783 -0.5341 -0.1040 -0.2679
  785MOL0     C 8247   0.687   7.215   2.423 -0.7031  0.6316  0.1928
  785MOL0     C 8248   0.792   7.117   2.374  0.1301 -0.5253 -0.0606
  785MOL0     C 8249   0.786   7.098   2.238  0.1266  0.7219  0.1395
  785MOL0     C 8250   0.690   7.145   2.157 -0.0212  0.6831  0.4560
  785MOL0     O 8251   0.704   7.121   2.019 -0.0031 -0.2320  0.2911
  785MOL0     C 8252   0.625   7.190   1.918  0.9562 -0.7319  0.4653
  785MOL0     C 8253   0.697   7.156   1.785  0.0472  0.1806 -0.3400
  785MOL0     C 8254   0.654   7.007   1.751  0.3922 -0.0152 -0.4417
  785MOL0     C 8255   0.513   7.000   1.674 -0.3329 -0.3392 -0.1988
  785MOL0     C 8256   0.440   6.881   1.684 -1.2964 -0.8885 -0.2819
  785MOL0     C 8257   0.383   6.772   1.687  0.0886  0.0291  0.1631
  785MOL0     C 8258   0.596   7.231   2.206 -0.4560  0.2620 -0.1428
  785MOL0     C 8259   0.594   7.268   2.332  0.5600  0.0880 -0.7824
  785MOL0     C 8260   0.507   7.374   2.383  0.9190  0.1452 -0.5664
  785MOL0     H 8261   0.752   7.313   2.858  0.4456 -1.2026  2.8659
  785MOL0     H 8262   0.663   7.352   3.081 -1.7784  1.0967  1.1273
  785MOL0     H 8263   0.465   7.287   3.339 -0.3053 -1.6037  0.9626
  785MOL0     H 8264   0.578   7.189   3.237  1.0657  0.4451  5.0647
  785MOL0     H 8265   0.362   7.052   3.162  1.7294  1.1536 -1.8546
  785MOL0     H 8266   0.416   7.021   3.321 -1.9748 -1.9557 -1.9463
  785MOL0     H 8267   0.250   7.119   3.420 -0.8098  0.5938 -0.1773
  785MOL0     H 8268   0.220   7.234   3.296  1.5213  0.9913  2.8151
  785MOL0     H 8269   0.138   7.022   3.161 -0.7923 -3.3299 -0.1834
  785MOL0     H 8270   0.145   6.928   3.297 -2.2319 -0.4200 -1.0679
  785MOL0     H 8271  -0.003   7.105   3.419  0.1019  0.5124  0.2550
  785MOL0     H 8272  -0.088   6.994   3.329 -2.1960  3.3186  0.0168
  785MOL0     H 8273  -0.014   7.270   3.238  1.5538 -1.0081  0.8892
  785MOL0     H 8274  -0.060   7.150   3.119  0.7887 -0.4883  1.1307
  785MOL0     H 8275  -0.245   7.314   3.227  1.7576 -0.6641  1.1136
  785MOL0     H 8276  -0.251   7.191   3.345  0.2653 -0.1251  1.5159
  785MOL0     H 8277  -0.300   6.998   3.183 -0.4334 -0.4828 -1.1810
  785MOL0     H 8278  -0.416   7.132   3.191 -0.2271  2.6789 -0.7472
  785MOL0     H 8279  -0.449   7.295   2.970  0.7923  2.1141 -4.2273
  785MOL0     H 8280  -0.415   7.384   2.763  2.2158 -0.5114  4.7272
  785MOL0     H 8281  -0.426   7.261   2.640 -0.6881  2.0621  0.5569
  785MOL0     H 8282  -0.177   7.407   2.732 -0.1112  0.3271 -1.8832
  785MOL0     H 8283  -0.172   7.296   2.598  0.2533  0.1856 -2.1505
  785MOL0     H 8284  -0.179   7.499   2.506  1.4455 -3.2963  0.2325
  785MOL0     H 8285  -0.341   7.421   2.475  1.2997 -0.0529 -0.6523
  785MOL0     H 8286  -0.444   7.577   2.640  2.1202 -3.7232  4.6401
  785MOL0     H 8287  -0.287   7.618   2.688  2.7215 -0.5408 -2.7123
  785MOL0     H 8288  -0.417   7.808   2.742 -0.3994  3.3611  2.7557
  785MOL0     H 8289  -0.436   7.963   2.905  1.4815  1.5082  4.1495
  785MOL0     H 8290  -0.442   8.134   2.867  1.0759  0.3028  0.0675
  785MOL0     H 8291  -0.293   8.060   2.915  0.6927  1.8513 -0.5015
  785MOL0     H 8292  -0.010   8.362   2.639 -2.6721  0.2194  2.5859
  785MOL0     H 8293   0.084   8.570   2.712  0.8175 -1.1475 -0.7414
  785MOL0     H 8294   0.165   8.764   2.650  1.7424 -2.4706  3.4629
  785MOL0     H 8295   0.143   8.934   2.698 -1.3266  0.2430  0.7686
  785MOL0     H 8296   0.129   8.895   2.927  0.3049  1.5531 -3.3414
  785MOL0     H 8297   0.065   8.733   2.911 -1.1899  2.0051  1.3542
  785MOL0     H 8298   0.354   8.796   2.840  2.0052  0.2957  1.7661
  785MOL0     H 8299   0.273   8.638   2.843  2.0325 -1.1104  1.8933
  785MOL0     H 8300   0.228   8.667   3.080  0.2592 -2.6362 -1.8950
  785MOL0     H 8301   0.306   8.836   3.063  0.9814 -1.4183  3.8884
  785MOL0     H 8302   0.437   8.573   2.985 -0.5178 -1.8366  2.7172
  785MOL0     H 8303   0.519   8.730   2.991 -2.7341  2.9245  0.3162
  785MOL0     H 8304   0.561   8.564   3.195 -1.5145 -0.3878  1.6680
  785MOL0     H 8305   0.402   8.586   3.239  0.2219  2.2533  5.2166
  785MOL0     H 8306   0.426   8.805   3.317 -1.2086 -0.7676 -1.6183
  785MOL0     H 8307   0.563   8.839   3.212 -3.7429  0.8522 -2.0027
  785MOL0     H 8308   0.703   8.668   3.353 -0.7931 -0.4986 -0.5841
  785MOL0     H 8309   0.562   8.646   3.453 -0.2254 -0.0617  0.0478
  785MOL0     H 8310  -0.261   8.786   2.585  4.1488  2.4398  0.0395
  785MOL0     H 8311  -0.373   8.554   2.523  0.6873  2.1654  0.4149
  785MOL0     H 8312  -0.250   8.128   2.423  2.0911 -2.4889  0.0343
  785MOL0     H 8313  -0.267   7.895   2.352 -0.4070  0.3403 -0.9262
  785MOL0     H 8314   0.267   7.258   2.940 -1.9988  3.1986 -4.4679
  785MOL0     H 8315   0.365   7.274   2.687  1.3258 -1.7702 -1.2015
  785MOL0     H 8316   0.873   7.076   2.433 -1.0549 -1.0747  1.2311
  785MOL0     H 8317   0.854   7.028   2.192 -1.1530 -1.2017  1.0227
  785MOL0     H 8318   0.524   7.149   1.908  0.7631  0.1014 -1.7048
  785MOL0     H 8319   0.617   7.299   1.925 -1.3482 -0.8852  1.1372
  785MOL0     H 8320   0.807   7.161   1.781  0.2748 -2.0679  1.2264
  785MOL0     H 8321   0.653   7.220   1.709 -2.2080 -1.7496 -0.7668
  785MOL0     H 8322   0.725   6.964   1.679 -1.7954 -3.1260 -0.9407
  785MOL0     H 8323   0.654   6.952   1.846  2.5269 -1.6266 -1.2815
  785MOL0     H 8324   0.535   7.039   1.575 -1.3165 -0.9835 -0.6870
  785MOL0     H 8325   0.438   7.070   1.713 -1.2961 -0.7620 -1.2464
  785MOL0     H 8326   0.332   6.678   1.680 -0.0819 -0.0308  1.8283
  785MOL0     H 8327   0.531   7.282   2.135 -3.8575 -1.5921  1.3766
  785MOL0     H 8328   0.436   7.341   2.459  1.7674  3.0557  1.6660
  785MOL0     H 8329   0.562   7.466   2.404  2.5276 -0.4446 -1.9741
  785MOL0     H 8330   0.444   7.415   2.303 -0.4472  0.8631  0.8157
  786MOL0     O 8331   6.768  11.267   0.192  1.0477 -0.6530  1.2817
  786MOL0     C 8332   6.665  11.292   0.252  1.1454  0.0711  0.3349
  786MOL0     O 8333   6.648  11.404   0.326 -0.0109 -0.5072 -0.0007
  786MOL0     C 8334   6.742  11.499   0.304  0.3978  0.1209 -0.6316
  786MOL0     C 8335   6.873  11.506   0.359 -0.1101 -0.5009  0.1647
  786MOL0     C 8336   6.960  11.612   0.310  0.7539  0.2145  0.1408
  786MOL0     C 8337   6.901  11.710   0.219  0.0511 -0.5637 -1.1048
  786MOL0     O 8338   6.981  11.812   0.176  0.6738  1.2843 -0.2703
  786MOL0     C 8339   7.083  11.863   0.265 -0.8718  0.0604  0.8985
  786MOL0     C 8340   7.113  12.012   0.221 -1.1758  0.2320 -1.1415
  786MOL0     C 8341   7.124  12.043   0.072 -0.7085  0.4276 -0.3972
  786MOL0     C 8342   7.211  12.169   0.038  0.8369  0.3222  0.0350
  786MOL0     C 8343   7.175  12.224  -0.102  0.3918  0.3479  0.4366
  786MOL0     C 8344   7.229  12.356  -0.141 -0.1953  0.4277  0.6511
  786MOL0     C 8345   7.238  12.366  -0.293  0.0801 -0.4380  0.3510
  786MOL0     C 8346   7.101  12.401  -0.366 -0.1272  0.7961 -0.4972
  786MOL0     N 8347   7.083  12.547  -0.362  0.1838 -0.2410  0.3445
  786MOL0     C 8348   7.085  12.634  -0.246 -0.2969  0.6952 -0.2556
  786MOL0     C 8349   7.095  12.762  -0.291  0.3520  0.2717  0.2199
  786MOL0     C 8350   7.077  12.884  -0.203 -0.2873 -0.1670 -0.1318
  786MOL0     C 8351   7.214  12.945  -0.164 -0.3051  0.0660 -0.1412
  786MOL0     C 8352   7.197  13.069  -0.075 -0.2562 -1.2640  0.6683
  786MOL0     C 8353   7.232  13.031   0.072 -0.4937 -0.4995  0.8934
  786MOL0     O 8354   7.185  12.900   0.098  0.2759  0.1639 -0.1569
  786MOL0     C 8355   7.241  12.807   0.182  0.2741  1.1924 -1.1110
  786MOL0     C 8356   7.160  12.695   0.214  0.0240 -0.6109  0.7533
  786MOL0     C 8357   7.186  12.604   0.318  0.2431 -0.3733  0.6745
  786MOL0     C 8358   7.078  12.513   0.343 -0.0746  0.1220  0.2810
  786MOL0     C 8359   7.302  12.625   0.394 -0.3009  0.0583 -1.1722
  786MOL0     C 8360   7.331  12.532   0.499  0.9259  0.0922 -0.6255
  786MOL0     O 8361   7.384  12.598   0.609 -0.3772  0.3626  0.2530
  786MOL0     C 8362   7.354  12.554   0.731 -0.2127 -0.6732  0.1523
  786MOL0     C 8363   7.258  12.620   0.804 -0.0019  0.8932 -0.5283
  786MOL0     C 8364   7.226  12.564   0.931  0.4161  0.2988  0.0052
  786MOL0     C 8365   7.299  12.458   0.996  0.2441  0.0495  0.7290
  786MOL0     O 8366   7.260  12.406   1.117  0.1395  1.0189  0.1630
  786MOL0     C 8367   7.147  12.457   1.188  0.0642 -0.0315  0.9565
  786MOL0     C 8368   7.151  12.444   1.345 -0.1688 -0.0209 -0.2606
  786MOL0     C 8369   7.015  12.457   1.410 -0.1294 -0.5955 -0.7682
  786MOL0     C 8370   6.990  12.390   1.546 -0.3778  0.0420 -0.0952
  786MOL0     C 8371   6.924  12.499   1.631 -0.1627  0.3611  0.4264
  786MOL0     C 8372   6.874  12.460   1.775 -0.0838 -0.6590 -0.5630
  786MOL0     C 8373   6.758  12.366   1.753  0.7330 -0.1056  0.0773
  786MOL0     C 8374   6.677  12.388   1.881 -0.2847  0.4696 -0.5145
  786MOL0    Cl 8375   6.603  12.563   1.908  0.2445  0.0805  0.1314
  786MOL0     C 8376   7.400  12.400   0.915  0.9450 -0.4468  0.1921
  786MOL0     C 8377   7.427  12.447   0.782 -0.1832  0.4553 -0.5329
  786MOL0     O 8378   7.323  12.410   0.490  0.6741 -0.2528 -0.8155
  786MOL0     C 8379   7.377  12.735   0.375 -0.4315 -0.0957 -0.0865
  786MOL0     C 8380   7.346  12.832   0.274 -0.1738  1.1766 -0.1920
  786MOL0     N 8381   7.097  12.747  -0.433 -0.1115 -0.2861 -0.5148
  786MOL0     N 8382   7.083  12.622  -0.471  0.9598 -1.1470  0.3012
  786MOL0     C 8383   6.772  11.699   0.168  0.0741 -0.1115 -0.1449
  786MOL0     C 8384   6.699  11.589   0.210  0.2224 -0.5491  0.5699
  786MOL0     C 8385   6.549  11.198   0.245 -0.8994  0.1713  0.6074
  786MOL0     C 8386   6.473  11.183   0.356  0.2301 -0.7890  0.8357
  786MOL0     C 8387   6.361  11.101   0.354  1.0838 -0.5877 -0.3412
  786MOL0     C 8388   6.336  11.021   0.242  0.7422  0.4194 -0.7484
  786MOL0     O 8389   6.234  10.923   0.255  0.3342 -0.6092 -0.3622
  786MOL0     C 8390   6.132  10.904   0.156  0.7983  0.2224 -0.4678
  786MOL0     C 8391   6.025  10.823   0.224 -0.1660 -0.1524 -0.4071
  786MOL0     C 8392   5.934  10.918   0.305  0.3850 -0.4769 -0.0336
  786MOL0     C 8393   5.988  10.956   0.449 -0.3454 -0.5519 -1.0852
  786MOL0     C 8394   5.907  11.070   0.503  0.9472  0.6231  0.3375
  786MOL0     C 8395   5.858  11.160   0.565  0.6749  0.2312 -1.3915
  786MOL0     C 8396   6.419  11.027   0.132  0.5554  0.0208 -0.4808
  786MOL0     C 8397   6.532  11.115   0.133 -0.0397 -0.4174  0.3286
  786MOL0     C 8398   6.606  11.131  -0.005 -0.3557 -0.3911 -0.0271
  786MOL0     H 8399   6.907  11.439   0.437  0.2069  0.9181  1.2807
  786MOL0     H 8400   7.064  11.616   0.338  1.3285  2.1805 -1.9704
  786MOL0     H 8401   7.178  11.818   0.234 -0.7187  2.0614 -2.0056
  786MOL0     H 8402   7.049  11.851   0.368  0.4162 -0.9043  1.2417
  786MOL0     H 8403   7.019  12.057   0.252 -1.4368 -0.3301 -1.0985
  786MOL0     H 8404   7.199  12.057   0.271 -0.9371  1.3814 -2.5156
  786MOL0     H 8405   7.166  11.960   0.014 -1.0525  1.4426 -2.1396
  786MOL0     H 8406   7.026  12.046   0.024 -0.7452  0.9120 -0.2907
  786MOL0     H 8407   7.179  12.246   0.109 -1.9108 -0.7676  0.1279
  786MOL0     H 8408   7.318  12.151   0.046  0.6332 -0.9644  0.0265
  786MOL0     H 8409   7.066  12.234  -0.111 -0.0221 -2.5115  1.1749
  786MOL0     H 8410   7.202  12.142  -0.169  1.7234  0.9066  0.2659
  786MOL0     H 8411   7.164  12.429  -0.092  1.1396  0.4268  2.4960
  786MOL0     H 8412   7.331  12.369  -0.103 -0.1031  0.4327  0.4049
  786MOL0     H 8413   7.279  12.279  -0.346 -0.5971  0.0806 -1.0631
  786MOL0     H 8414   7.312  12.445  -0.312 -1.2363  1.0456  1.1577
  786MOL0     H 8415   7.104  12.372  -0.471  0.6929 -0.8093 -0.0525
  786MOL0     H 8416   7.015  12.367  -0.308 -0.2481  2.4955  0.4060
  786MOL0     H 8417   7.089  12.604  -0.142  0.5830  0.9177 -0.2231
  786MOL0     H 8418   7.014  12.857  -0.118 -0.2351 -0.4523 -0.1823
  786MOL0     H 8419   7.026  12.962  -0.261 -1.5019 -1.0119 -0.2245
  786MOL0     H 8420   7.288  12.878  -0.121 -0.1877  0.9275  1.0510
  786MOL0     H 8421   7.254  12.985  -0.258 -2.0183 -1.7489 -1.7309
  786MOL0     H 8422   7.261  13.149  -0.113 -1.5279 -0.0661  0.9575
  786MOL0     H 8423   7.092  13.098  -0.088  0.3459  0.6267 -0.4363
  786MOL0     H 8424   7.341  13.030   0.085 -0.5930 -0.1828  1.8116
  786MOL0     H 8425   7.184  13.101   0.141  0.8734  1.9563 -0.4677
  786MOL0     H 8426   7.070  12.683   0.153  0.2654  0.0733  0.2541
  786MOL0     H 8427   7.095  12.411   0.307  2.2567  0.1300  1.1598
  786MOL0     H 8428   6.985  12.546   0.295  1.3800  1.3650 -1.8683
  786MOL0     H 8429   7.060  12.499   0.450 -0.7771  0.6988  0.2460
  786MOL0     H 8430   7.203  12.706   0.768 -2.6607 -0.6520 -0.4398
  786MOL0     H 8431   7.148  12.620   0.981  1.0739  2.3223 -1.1210
  786MOL0     H 8432   7.145  12.565   1.175  0.7200 -0.0820  0.3611
  786MOL0     H 8433   7.058  12.415   1.138 -0.3128  1.7012  0.0785
  786MOL0     H 8434   7.200  12.353   1.380  1.1546  1.1935  1.1679
  786MOL0     H 8435   7.221  12.525   1.366 -2.4102  2.1786 -0.8011
  786MOL0     H 8436   6.934  12.436   1.340  0.4168 -0.2625 -1.5128
  786MOL0     H 8437   7.022  12.566   1.417  2.2630 -0.6037 -1.9514
  786MOL0     H 8438   7.079  12.351   1.598 -0.2129  0.3476 -0.1478
  786MOL0     H 8439   6.923  12.306   1.524  0.4201  0.0306 -2.7699
  786MOL0     H 8440   6.997  12.579   1.639 -0.5885  0.6224  1.9332
  786MOL0     H 8441   6.839  12.536   1.572  0.3806  2.5810  0.9554
  786MOL0     H 8442   6.864  12.547   1.841  2.5171 -0.4405 -0.3575
  786MOL0     H 8443   6.960  12.406   1.814 -1.5364 -1.3512  1.8920
  786MOL0     H 8444   6.793  12.266   1.726  0.9365  0.2466 -1.0437
  786MOL0     H 8445   6.695  12.394   1.668 -0.0601  0.1933  0.7587
  786MOL0     H 8446   6.738  12.367   1.969  0.7149 -0.1882 -1.3433
  786MOL0     H 8447   6.599  12.312   1.876  0.7704 -0.6211 -1.0427
  786MOL0     H 8448   7.446  12.309   0.950 -1.1652 -2.4564 -1.8593
  786MOL0     H 8449   7.503  12.409   0.713 -1.5580 -1.6712 -0.9855
  786MOL0     H 8450   7.468  12.761   0.428 -1.6640  3.7771  0.4612
  786MOL0     H 8451   7.416  12.907   0.240  0.9517 -0.2146 -1.0822
  786MOL0     H 8452   6.737  11.775   0.099 -1.0423  2.4517  2.9590
  786MOL0     H 8453   6.594  11.580   0.184 -0.6569 -1.0577  3.8268
  786MOL0     H 8454   6.494  11.248   0.441  0.8551  0.2319 -0.0701
  786MOL0     H 8455   6.311  11.101   0.450  0.1620 -1.2564 -0.8060
  786MOL0     H 8456   6.107  11.005   0.122 -2.3054 -0.7008 -1.2535
  786MOL0     H 8457   6.167  10.843   0.072 -1.0678  0.9221 -1.8089
  786MOL0     H 8458   6.081  10.749   0.282  0.5998  1.8996  1.6119
  786MOL0     H 8459   5.964  10.768   0.151 -0.9170  0.7666 -0.4943
  786MOL0     H 8460   5.928  11.016   0.258 -1.2562  0.1086  1.2903
  786MOL0     H 8461   5.835  10.872   0.312  1.0434 -1.6987  3.4521
  786MOL0     H 8462   6.093  10.983   0.436 -0.0812 -0.9188  0.2014
  786MOL0     H 8463   5.973  10.870   0.515 -0.8474  0.0821 -0.3612
  786MOL0     H 8464   5.818  11.231   0.634 -2.0094 -0.8105 -1.7361
  786MOL0     H 8465   6.398  10.961   0.048  0.4450  1.8303 -1.9391
  786MOL0     H 8466   6.710  11.102   0.013 -0.1201  0.3353 -0.1793
  786MOL0     H 8467   6.573  11.063  -0.085  0.5334  0.3073 -1.0176
  786MOL0     H 8468   6.612  11.236  -0.035  0.7587 -0.1100  1.0874
  787MOL0     O 8469  10.127   7.090   2.506  0.3089 -0.6025 -0.6696
  787MOL0     C 8470  10.105   7.124   2.624 -0.0094  0.4803  0.2553
  787MOL0     O 8471  10.067   7.029   2.721 -0.3676 -0.1594  0.2101
  787MOL0     C 8472  10.069   6.890   2.700 -0.1649 -0.5460  1.5169
  787MOL0     C 8473  10.190   6.826   2.708 -0.3157 -1.0419 -0.2558
  787MOL0     C 8474  10.194   6.682   2.717 -0.8626 -0.2326 -0.3486
  787MOL0     C 8475  10.083   6.604   2.698  0.4786  0.0800  0.2346
  787MOL0     O 8476  10.078   6.465   2.718  0.2512  0.3636 -0.8210
  787MOL0     C 8477  10.210   6.401   2.725  1.3740  0.6872  0.2073
  787MOL0     C 8478  10.190   6.247   2.735  0.5406 -1.1908  0.4877
  787MOL0     C 8479  10.300   6.161   2.777 -0.3150 -0.1639  0.5032
  787MOL0     C 8480  10.248   6.022   2.813 -0.9758  0.0062  0.3533
  787MOL0     C 8481  10.331   5.953   2.925  0.5696 -0.1293  0.4278
  787MOL0     C 8482  10.481   5.968   2.910  0.9649 -0.2520 -0.0414
  787MOL0     C 8483  10.546   5.853   2.968 -0.2468  1.0228 -0.7247
  787MOL0     C 8484  10.698   5.873   2.989  0.3688  0.9633  0.3156
  787MOL0     N 8485  10.737   5.954   3.104  0.0813 -0.7521  0.2379
  787MOL0     C 8486  10.677   6.058   3.173  0.6746  1.3648  0.7512
  787MOL0     C 8487  10.762   6.082   3.270 -0.6506  0.2348 -0.0310
  787MOL0     C 8488  10.746   6.176   3.383  0.0212  0.5885  0.4799
  787MOL0     C 8489  10.791   6.313   3.334  0.3521  0.2123 -0.1351
  787MOL0     C 8490  10.809   6.419   3.437 -0.3804 -0.0075 -0.5132
  787MOL0     C 8491  10.667   6.483   3.479  0.3451  0.5512 -0.6964
  787MOL0     O 8492  10.693   6.589   3.587  0.6468 -0.2814  0.1319
  787MOL0     C 8493  10.607   6.695   3.595  0.5041  0.0242 -0.8384
  787MOL0     C 8494  10.476   6.682   3.565 -0.9818  0.0162  0.4464
  787MOL0     C 8495  10.385   6.791   3.565 -0.7900 -0.8769 -0.1814
  787MOL0     C 8496  10.238   6.768   3.530 -0.0756  0.4780  0.2957
  787MOL0     C 8497  10.444   6.924   3.595 -1.1085  0.6968  0.5679
  787MOL0     C 8498  10.364   7.052   3.598  0.4846 -0.4219  0.1108
  787MOL0     O 8499  10.264   7.074   3.682  0.3546 -0.1326  0.4001
  787MOL0     C 8500  10.193   7.193   3.700  0.6637  0.4413  0.5375
  787MOL0     C 8501  10.275   7.308   3.717 -0.1348 -0.0066 -0.1969
  787MOL0     C 8502  10.219   7.437   3.727  0.7499 -0.0395 -0.1753
  787MOL0     C 8503  10.076   7.450   3.753  0.1757  0.1473 -0.1666
  787MOL0     O 8504  10.027   7.572   3.799  0.0772 -0.7653  0.5342
  787MOL0     C 8505  10.087   7.691   3.749 -0.1361  0.1879  0.3414
  787MOL0     C 8506   9.982   7.811   3.766  0.9663  0.1357 -0.1559
  787MOL0     C 8507  10.018   7.889   3.895  0.0125  0.3151 -0.3862
  787MOL0     C 8508  10.144   7.977   3.901 -0.3593  0.9509 -0.0460
  787MOL0     C 8509  10.127   8.113   3.834 -0.2783  0.1804  0.6756
  787MOL0     C 8510  10.261   8.189   3.869 -0.1973 -0.6412 -1.3512
  787MOL0     C 8511  10.384   8.132   3.803  0.1462  0.2332  0.1183
  787MOL0     C 8512  10.510   8.209   3.824  0.0584  0.1374  0.0485
  787MOL0    Cl 8513  10.507   8.363   3.727  0.1700  0.3264  0.1998
  787MOL0     C 8514   9.995   7.335   3.764  0.0392 -0.5971 -0.2508
  787MOL0     C 8515  10.053   7.209   3.719  0.1375 -0.6763  1.2895
  787MOL0     O 8516  10.381   7.125   3.501 -0.1730  0.0649  0.0813
  787MOL0     C 8517  10.578   6.932   3.631  1.2141  0.3494  0.4868
  787MOL0     C 8518  10.658   6.819   3.626  0.2838  0.7193 -0.1585
  787MOL0     N 8519  10.869   6.000   3.270 -0.7598 -0.4108 -0.3169
  787MOL0     N 8520  10.850   5.918   3.172 -0.8801  0.0476 -0.1807
  787MOL0     C 8521   9.963   6.680   2.673  0.5895  0.9116 -0.1306
  787MOL0     C 8522   9.953   6.816   2.680 -0.2371  1.0714  0.0173
  787MOL0     C 8523  10.122   7.266   2.666  0.2043  0.8018  0.5961
  787MOL0     C 8524  10.060   7.311   2.784 -1.4729 -0.4612 -0.5516
  787MOL0     C 8525  10.076   7.441   2.845  0.8883 -0.0418  0.6979
  787MOL0     C 8526  10.170   7.525   2.792 -0.1641  0.0052 -0.3776
  787MOL0     O 8527  10.202   7.654   2.846  0.8010 -0.1695 -0.1045
  787MOL0     C 8528  10.124   7.703   2.951 -0.2718 -0.6597 -0.7305
  787MOL0     C 8529  10.184   7.836   2.980  0.4287  0.0992 -0.0181
  787MOL0     C 8530  10.136   7.889   3.128  0.3787  1.1084  0.8521
  787MOL0     C 8531   9.989   7.948   3.133  0.1339 -0.7388 -0.3715
  787MOL0     C 8532   9.934   7.912   3.268 -0.6929 -0.4347  0.4809
  787MOL0     C 8533   9.887   7.870   3.374  1.2058  0.2482  0.6168
  787MOL0     C 8534  10.247   7.479   2.686 -0.0509 -1.0000  0.6476
  787MOL0     C 8535  10.238   7.349   2.627  1.0347  0.2118 -0.2296
  787MOL0     C 8536  10.322   7.310   2.501  0.1966  0.2109  0.1100
  787MOL0     H 8537  10.283   6.882   2.716  0.0397 -1.5067 -0.9744
  787MOL0     H 8538  10.290   6.638   2.742 -1.2605  0.3784  2.7802
  787MOL0     H 8539  10.264   6.432   2.815  0.0463  0.1385  1.2193
  787MOL0     H 8540  10.268   6.422   2.635  2.6450 -2.1866  0.2451
  787MOL0     H 8541  10.111   6.231   2.809 -0.2042 -0.1476 -0.0630
  787MOL0     H 8542  10.157   6.211   2.637  0.5008 -0.8305  0.3691
  787MOL0     H 8543  10.370   6.159   2.693  2.4971  2.1230  2.6125
  787MOL0     H 8544  10.340   6.193   2.873 -2.3013  0.3376  1.2007
  787MOL0     H 8545  10.145   6.027   2.849 -1.0537  0.8403  0.0234
  787MOL0     H 8546  10.248   5.955   2.726  3.3953 -3.0549  2.3134
  787MOL0     H 8547  10.304   5.847   2.912 -2.9606  0.2511  3.1686
  787MOL0     H 8548  10.298   5.992   3.021  1.9965 -0.5659  1.1293
  787MOL0     H 8549  10.520   5.971   2.808  1.4190 -2.2690  0.0316
  787MOL0     H 8550  10.514   6.057   2.965 -1.0883 -0.5329  1.7748
  787MOL0     H 8551  10.516   5.770   2.904 -0.7481  0.9686 -0.4261
  787MOL0     H 8552  10.512   5.832   3.070 -0.9922  2.1744 -0.7138
  787MOL0     H 8553  10.735   5.773   3.014  1.4463  1.1183 -0.5522
  787MOL0     H 8554  10.749   5.908   2.898  0.2154 -0.8307 -0.5005
  787MOL0     H 8555  10.577   6.097   3.162 -0.5340 -2.1507 -2.8572
  787MOL0     H 8556  10.805   6.132   3.464  1.9574 -2.7485 -2.4807
  787MOL0     H 8557  10.641   6.193   3.405  0.5712  3.5719  1.2725
  787MOL0     H 8558  10.888   6.297   3.286  0.2397 -3.1529  0.5750
  787MOL0     H 8559  10.713   6.353   3.268 -1.0901  0.9631  1.9223
  787MOL0     H 8560  10.858   6.393   3.531 -0.6748  0.9928 -0.0684
  787MOL0     H 8561  10.867   6.503   3.397 -2.1956  1.6462  0.1623
  787MOL0     H 8562  10.614   6.526   3.394 -0.7591  2.0005  0.6770
  787MOL0     H 8563  10.615   6.400   3.528  1.5824  0.0715 -0.1241
  787MOL0     H 8564  10.435   6.581   3.563 -0.5893 -0.2195  2.3498
  787MOL0     H 8565  10.206   6.674   3.575  1.2542 -0.1744 -0.0688
  787MOL0     H 8566  10.216   6.780   3.423  0.2012 -1.7624 -0.0540
  787MOL0     H 8567  10.171   6.837   3.581 -0.2129  0.6344 -0.0884
  787MOL0     H 8568  10.384   7.304   3.712  0.0146  0.7249  1.6745
  787MOL0     H 8569  10.284   7.524   3.723  1.6321 -0.6837 -0.2862
  787MOL0     H 8570  10.182   7.711   3.798 -0.1340 -2.1731  1.4194
  787MOL0     H 8571  10.113   7.681   3.643  0.6351 -0.4845  0.5915
  787MOL0     H 8572   9.990   7.880   3.681  2.2751 -0.8558 -0.8793
  787MOL0     H 8573   9.877   7.781   3.777  0.9636  0.4693  0.8080
  787MOL0     H 8574  10.022   7.814   3.975  1.6576  2.8754  2.1318
  787MOL0     H 8575   9.939   7.961   3.919 -1.3436  0.0250 -3.4669
  787MOL0     H 8576  10.215   7.924   3.835 -0.3523 -0.7448  1.2491
  787MOL0     H 8577  10.175   7.987   4.005 -2.2570  2.1688  0.4405
  787MOL0     H 8578  10.128   8.117   3.724 -0.3250  2.0744  0.7159
  787MOL0     H 8579  10.042   8.172   3.869  0.9454  3.2844 -1.1291
  787MOL0     H 8580  10.271   8.207   3.977 -1.2639  1.5637 -1.5748
  787MOL0     H 8581  10.248   8.295   3.846 -3.0461 -0.6070 -0.0884
  787MOL0     H 8582  10.367   8.128   3.695  0.1278 -0.0931  0.1314
  787MOL0     H 8583  10.416   8.033   3.838 -0.5945 -0.1892 -0.3762
  787MOL0     H 8584  10.589   8.147   3.781  1.4541  1.0977  1.1534
  787MOL0     H 8585  10.525   8.216   3.932 -1.2644 -3.0630  0.5503
  787MOL0     H 8586   9.893   7.347   3.800  1.1424  1.8547  2.4505
  787MOL0     H 8587   9.991   7.120   3.729 -0.5545 -0.3180  0.3410
  787MOL0     H 8588  10.628   7.025   3.657 -0.2785  1.3760 -0.2015
  787MOL0     H 8589  10.766   6.826   3.637  0.2993  0.7176 -0.3000
  787MOL0     H 8590   9.869   6.630   2.651  1.1009 -0.0097 -0.2850
  787MOL0     H 8591   9.857   6.866   2.672 -1.7699 -1.4623  1.0995
  787MOL0     H 8592   9.981   7.256   2.834 -2.4081  0.2297 -1.2311
  787MOL0     H 8593  10.018   7.458   2.935 -5.6860  1.4615 -3.1189
  787MOL0     H 8594  10.018   7.714   2.923 -0.8173  2.4108  1.8888
  787MOL0     H 8595  10.146   7.635   3.034 -0.7118 -0.8634 -0.7773
  787MOL0     H 8596  10.174   7.915   2.906  3.1173 -0.7310 -1.4168
  787MOL0     H 8597  10.291   7.817   2.992 -0.1779 -2.6694  2.2030
  787MOL0     H 8598  10.145   7.812   3.205 -1.8054  0.8193  0.8838
  787MOL0     H 8599  10.207   7.969   3.151 -0.1570  2.0412 -0.5768
  787MOL0     H 8600   9.918   7.902   3.064 -1.1562 -0.3695  0.6643
  787MOL0     H 8601   9.998   8.055   3.112 -0.0990 -1.2770 -3.6640
  787MOL0     H 8602   9.828   7.843   3.459 -0.6254  2.3499  0.1037
  787MOL0     H 8603  10.331   7.536   2.647  0.0839 -1.5374  0.1503
  787MOL0     H 8604  10.414   7.369   2.514  0.8890 -0.4503 -1.4151
  787MOL0     H 8605  10.348   7.204   2.496  1.0457  0.4673 -1.9008
  787MOL0     H 8606  10.266   7.343   2.413  1.6179 -0.1357 -0.9753
  788MOL0     O 8607   3.157   4.072   9.460  0.1405  1.3485 -0.6380
  788MOL0     C 8608   3.180   3.991   9.377  0.4028  0.4200  0.7802
  788MOL0     O 8609   3.185   3.851   9.386  0.0146 -0.7342 -0.1365
  788MOL0     C 8610   3.235   3.791   9.498  0.4431  0.8024 -0.1251
  788MOL0     C 8611   3.221   3.652   9.477  1.3507  0.1405 -0.7968
  788MOL0     C 8612   3.269   3.571   9.575 -0.3146 -0.0159 -0.0690
  788MOL0     C 8613   3.345   3.613   9.681 -0.5515 -0.3505 -0.4280
  788MOL0     O 8614   3.396   3.522   9.766 -0.0621  0.7159 -0.2025
  788MOL0     C 8615   3.492   3.547   9.872 -0.9819  0.3634  0.6760
  788MOL0     C 8616   3.546   3.406   9.923 -0.4811  0.3625 -0.5429
  788MOL0     C 8617   3.612   3.318   9.823  0.3221  0.5764  0.0648
  788MOL0     C 8618   3.684   3.202   9.901 -0.2712 -1.0419  1.2485
  788MOL0     C 8619   3.749   3.094   9.813 -0.2111  0.2105  2.2744
  788MOL0     C 8620   3.835   3.142   9.707 -0.2792 -0.5190  0.0694
  788MOL0     C 8621   3.906   3.025   9.637  0.5602 -1.1602  0.0151
  788MOL0     C 8622   4.033   3.073   9.548 -0.4912  0.0116  0.1150
  788MOL0     N 8623   4.147   3.098   9.630  0.3522  0.5164 -0.2508
  788MOL0     C 8624   4.238   3.196   9.598 -0.0156  0.2241  0.8320
  788MOL0     C 8625   4.314   3.230   9.703  0.3571 -0.2312 -0.2942
  788MOL0     C 8626   4.418   3.333   9.724 -0.6183 -0.0876 -0.0693
  788MOL0     C 8627   4.361   3.449   9.805  0.9329  0.4374 -0.2269
  788MOL0     C 8628   4.257   3.535   9.730  0.8145  0.2748  0.3581
  788MOL0     C 8629   4.321   3.602   9.602 -0.6187  0.4982 -0.0009
  788MOL0     O 8630   4.439   3.688   9.617 -0.3979  0.2207 -1.3843
  788MOL0     C 8631   4.428   3.813   9.677 -0.0687  0.0248  0.4013
  788MOL0     C 8632   4.547   3.885   9.692  0.1125 -0.6146 -0.0368
  788MOL0     C 8633   4.553   4.018   9.732  0.0258 -0.3089  0.7274
  788MOL0     C 8634   4.688   4.078   9.730 -0.2441  0.3035  0.1779
  788MOL0     C 8635   4.422   4.086   9.760 -0.1000  0.1319  0.2460
  788MOL0     C 8636   4.404   4.216   9.817  0.1462  0.4199 -0.3018
  788MOL0     O 8637   4.279   4.257   9.869 -0.3485 -0.2168  0.8340
  788MOL0     C 8638   4.240   4.392   9.877 -0.2717 -0.6348 -0.4714
  788MOL0     C 8639   4.144   4.424   9.972 -0.2105 -0.1688 -0.5755
  788MOL0     C 8640   4.086   4.558   9.975  0.0651  0.3921  0.1758
  788MOL0     C 8641   4.125   4.657   9.881 -0.0913 -1.0481  0.5129
  788MOL0     O 8642   4.065   4.787   9.877 -0.6663  0.4237 -0.4809
  788MOL0     C 8643   4.077   4.856   9.750  0.0021  0.6472  0.1587
  788MOL0     C 8644   3.979   4.973   9.754  0.0021  0.0625 -0.3975
  788MOL0     C 8645   3.844   4.937   9.815 -0.0929 -1.0763 -1.3185
  788MOL0     C 8646   3.767   4.819   9.748  0.8670 -0.4369  0.0556
  788MOL0     C 8647   3.627   4.811   9.815  0.4276 -0.7337  0.3394
  788MOL0     C 8648   3.533   4.931   9.778 -0.1574 -0.4524  0.8200
  788MOL0     C 8649   3.384   4.923   9.799 -0.3733  1.7894  0.4508
  788MOL0     C 8650   3.306   5.049   9.773  0.3427 -0.0919  0.1682
  788MOL0    Cl 8651   3.333   5.180   9.900  0.7836  0.0754  0.3501
  788MOL0     C 8652   4.219   4.616   9.780  0.2850 -0.1710  0.2603
  788MOL0     C 8653   4.266   4.483   9.774 -0.4239  1.0602 -0.9773
  788MOL0     O 8654   4.501   4.283   9.812 -0.2007 -0.4660  0.5020
  788MOL0     C 8655   4.302   4.014   9.743 -1.2972  0.3948  0.1699
  788MOL0     C 8656   4.312   3.877   9.713 -0.4437  0.0074  0.9285
  788MOL0     N 8657   4.265   3.147   9.807 -0.2846  0.3497  0.4073
  788MOL0     N 8658   4.182   3.057   9.757  0.4092 -0.9835  0.2902
  788MOL0     C 8659   3.372   3.758   9.700  1.0448  0.5592 -0.5874
  788MOL0     C 8660   3.314   3.842   9.603  0.2896 -1.2812 -0.1738
  788MOL0     C 8661   3.231   4.050   9.246  0.0764  0.5207 -0.5998
  788MOL0     C 8662   3.287   4.176   9.251 -0.1558 -0.6834  0.9472
  788MOL0     C 8663   3.354   4.238   9.139  0.4653  0.5148  1.0477
  788MOL0     C 8664   3.345   4.180   9.009  0.6114  0.3993 -0.8270
  788MOL0     O 8665   3.394   4.232   8.892  0.5276  0.2696  0.5326
  788MOL0     C 8666   3.531   4.182   8.868  0.5527 -0.0095 -0.5006
  788MOL0     C 8667   3.540   4.164   8.717 -0.8389 -0.0716 -0.1848
  788MOL0     C 8668   3.507   4.293   8.649  0.7958  0.6627 -0.3175
  788MOL0     C 8669   3.532   4.292   8.491  0.1647  0.1645 -0.3157
  788MOL0     C 8670   3.434   4.203   8.432 -0.0791  0.2806 -0.0446
  788MOL0     C 8671   3.355   4.115   8.402  0.7072  0.4752  0.0801
  788MOL0     C 8672   3.289   4.051   9.007 -0.5773 -0.8715 -0.1791
  788MOL0     C 8673   3.213   4.001   9.112 -0.0940 -0.0881 -0.0839
  788MOL0     C 8674   3.136   3.873   9.089  0.2389 -0.1008 -0.3948
  788MOL0     H 8675   3.149   3.621   9.402  0.1251  0.3021  0.2758
  788MOL0     H 8676   3.248   3.465   9.571 -3.7118  0.5446 -0.0900
  788MOL0     H 8677   3.436   3.596   9.952 -3.4547 -1.6710  0.3146
  788MOL0     H 8678   3.569   3.615   9.834 -1.3424  0.2416 -0.3174
  788MOL0     H 8679   3.612   3.428  10.007  2.6536  1.2693 -2.9953
  788MOL0     H 8680   3.457   3.353   9.958 -2.1198  3.5900  0.5308
  788MOL0     H 8681   3.528   3.280   9.763  0.6170 -0.7283  0.4545
  788MOL0     H 8682   3.679   3.376   9.759 -0.5210  3.8633  1.9621
  788MOL0     H 8683   3.769   3.251   9.949  0.3101  0.7267 -1.4247
  788MOL0     H 8684   3.616   3.152   9.971 -1.7818 -0.0329  0.5405
  788MOL0     H 8685   3.673   3.029   9.769  1.0889  1.3577 -2.1732
  788MOL0     H 8686   3.811   3.042   9.887  2.6336  1.8204  1.1961
  788MOL0     H 8687   3.786   3.190   9.622  2.2725  2.7918  0.2319
  788MOL0     H 8688   3.906   3.208   9.759  0.3177 -1.1540  0.0742
  788MOL0     H 8689   3.840   2.969   9.570 -0.9087  0.4103  0.0733
  788MOL0     H 8690   3.939   2.954   9.713 -1.1413 -2.2969 -0.2466
  788MOL0     H 8691   4.046   2.998   9.470 -0.9679  2.1201 -2.1171
  788MOL0     H 8692   4.013   3.163   9.488  1.9572 -0.4603 -1.5471
  788MOL0     H 8693   4.237   3.239   9.498  3.0682 -0.3814  0.4422
  788MOL0     H 8694   4.460   3.360   9.627 -0.0841 -0.2022  0.1261
  788MOL0     H 8695   4.500   3.272   9.764 -0.3114 -0.4294 -1.1792
  788MOL0     H 8696   4.319   3.415   9.899 -1.4644  0.1608 -1.3189
  788MOL0     H 8697   4.447   3.514   9.823  0.4813  1.3028 -1.0578
  788MOL0     H 8698   4.176   3.467   9.704 -0.7410  3.0180 -2.7857
  788MOL0     H 8699   4.216   3.613   9.794  2.5308  0.4225  1.3300
  788MOL0     H 8700   4.357   3.523   9.536  0.2595  1.5670 -0.8623
  788MOL0     H 8701   4.240   3.663   9.561 -0.6274  1.9332  1.9980
  788MOL0     H 8702   4.634   3.824   9.670  0.2479 -1.3946  2.4347
  788MOL0     H 8703   4.716   4.107   9.832 -1.0382 -0.9905  0.7849
  788MOL0     H 8704   4.681   4.161   9.659 -1.7777  0.6326  0.6687
  788MOL0     H 8705   4.764   4.004   9.703 -2.2633 -1.1062 -2.1343
  788MOL0     H 8706   4.104   4.350  10.041 -1.7229  3.0992  2.3978
  788MOL0     H 8707   4.012   4.587  10.049  1.4063  1.7072  1.0596
  788MOL0     H 8708   4.174   4.890   9.714  1.5381 -0.4109  2.9329
  788MOL0     H 8709   4.041   4.780   9.680 -0.7339  0.4011  0.7848
  788MOL0     H 8710   4.038   5.040   9.817  0.8429 -4.2820  4.1316
  788MOL0     H 8711   3.965   5.015   9.655  0.8172  1.1245 -0.0782
  788MOL0     H 8712   3.781   5.026   9.810 -1.4291 -1.9604 -0.8325
  788MOL0     H 8713   3.868   4.920   9.920  1.7613  0.7888 -1.3746
  788MOL0     H 8714   3.830   4.731   9.760  2.8603  0.9030 -0.0776
  788MOL0     H 8715   3.750   4.842   9.642 -0.1278 -0.0653  0.2835
  788MOL0     H 8716   3.572   4.724   9.777 -0.0659 -2.0668  3.7709
  788MOL0     H 8717   3.630   4.800   9.923  2.8136 -2.1827  0.2058
  788MOL0     H 8718   3.549   4.946   9.671 -2.8896 -0.2208  0.3653
  788MOL0     H 8719   3.565   5.026   9.822  1.7288  0.4025 -2.0973
  788MOL0     H 8720   3.372   4.915   9.907 -2.0574  1.5387  0.2800
  788MOL0     H 8721   3.341   4.831   9.757  2.8490 -1.0638  2.7743
  788MOL0     H 8722   3.200   5.022   9.772  0.4076 -0.5213  1.8257
  788MOL0     H 8723   3.321   5.102   9.679 -1.9253  4.2209  1.9537
  788MOL0     H 8724   4.243   4.678   9.694 -0.7323 -1.9666 -1.4132
  788MOL0     H 8725   4.335   4.454   9.696  5.5822  1.7194  3.3341
  788MOL0     H 8726   4.206   4.059   9.766 -1.3726 -1.2899  4.0923
  788MOL0     H 8727   4.218   3.825   9.707 -0.8379  0.8304 -0.6454
  788MOL0     H 8728   3.437   3.806   9.773  2.8582 -0.8880 -1.1728
  788MOL0     H 8729   3.324   3.950   9.596 -2.4925 -1.0622 -3.5643
  788MOL0     H 8730   3.302   4.243   9.336  2.2546  1.6767 -1.1316
  788MOL0     H 8731   3.417   4.325   9.153  1.0572  0.4146 -0.8268
  788MOL0     H 8732   3.613   4.246   8.902  1.2781 -2.4355  2.8463
  788MOL0     H 8733   3.548   4.084   8.913 -0.2196  0.7178  1.4502
  788MOL0     H 8734   3.468   4.087   8.686 -2.4290  1.9789 -1.8878
  788MOL0     H 8735   3.640   4.129   8.692 -1.1900 -3.4369  2.3625
  788MOL0     H 8736   3.397   4.293   8.652  0.6838 -1.6090 -2.0504
  788MOL0     H 8737   3.544   4.383   8.699 -1.0217  0.6810  1.1046
  788MOL0     H 8738   3.634   4.257   8.475 -0.4927 -1.2159 -1.6972
  788MOL0     H 8739   3.523   4.393   8.449 -0.5625  0.4036  0.3750
  788MOL0     H 8740   3.293   4.040   8.358 -0.6380  1.3038  0.4961
  788MOL0     H 8741   3.300   3.988   8.919 -0.4168 -0.7220 -0.2676
  788MOL0     H 8742   3.189   3.786   9.128  1.8257  0.7565 -0.5496
  788MOL0     H 8743   3.038   3.892   9.134  0.3120 -3.8820  1.7699
  788MOL0     H 8744   3.122   3.854   8.982 -0.9469 -1.2508 -0.0634
  789MOL0     O 8745   2.492  11.533   9.942  0.0648 -0.5649  0.5305
  789MOL0     C 8746   2.502  11.514   9.819  0.9796  0.4503  0.3394
  789MOL0     O 8747   2.514  11.395   9.757 -0.3212 -0.1410  0.0962
  789MOL0     C 8748   2.512  11.285   9.832  0.4426  0.2885  0.5169
  789MOL0     C 8749   2.587  11.270   9.946  0.5522  0.1309  0.0015
  789MOL0     C 8750   2.588  11.148  10.012 -0.6609  0.7516 -1.0072
  789MOL0     C 8751   2.530  11.036   9.966  0.0386 -0.1083  0.5340
  789MOL0     O 8752   2.546  10.906  10.010  0.0259  0.1130  0.3579
  789MOL0     C 8753   2.675  10.851   9.992  0.8462  0.3499  0.8561
  789MOL0     C 8754   2.685  10.701  10.006 -1.2905  0.0458 -0.1269
  789MOL0     C 8755   2.645  10.615   9.894 -0.2933  0.7435  0.1707
  789MOL0     C 8756   2.502  10.584   9.898 -0.5035  0.0005  0.9278
  789MOL0     C 8757   2.455  10.507   9.769  0.1668 -0.3453 -0.3059
  789MOL0     C 8758   2.353  10.395   9.795 -0.1535 -0.1684  0.7425
  789MOL0     C 8759   2.344  10.319   9.659 -0.1492 -1.2930  0.3084
  789MOL0     C 8760   2.263  10.391   9.549 -0.1132 -0.2210  0.1653
  789MOL0     N 8761   2.220  10.302   9.437  0.3433 -0.6004  0.8213
  789MOL0     C 8762   2.261  10.299   9.310 -0.5810 -0.4531 -0.0977
  789MOL0     C 8763   2.172  10.231   9.238  0.3037 -0.0169  0.1579
  789MOL0     C 8764   2.169  10.216   9.090 -0.0738 -0.0688  0.1873
  789MOL0     C 8765   2.275  10.120   9.033  0.3556  0.1439 -0.6149
  789MOL0     C 8766   2.332  10.157   8.895 -0.7612 -0.1591  0.5761
  789MOL0     C 8767   2.477  10.101   8.868  0.1821 -0.2994  0.5327
  789MOL0     O 8768   2.578  10.198   8.889 -0.5941  0.2458  0.2544
  789MOL0     C 8769   2.601  10.214   9.020 -0.4272 -0.7114  0.5901
  789MOL0     C 8770   2.583  10.339   9.083  0.4038 -0.3946  0.4279
  789MOL0     C 8771   2.616  10.365   9.219  0.0197 -0.1857  0.4676
  789MOL0     C 8772   2.603  10.504   9.258 -0.5903 -1.2387 -0.5889
  789MOL0     C 8773   2.652  10.255   9.303  0.6729  0.2012 -0.2670
  789MOL0     C 8774   2.682  10.263   9.447 -0.1910 -0.6782 -0.5438
  789MOL0     O 8775   2.745  10.148   9.494 -0.1979 -0.1703 -0.6025
  789MOL0     C 8776   2.808  10.169   9.618 -1.1994  0.3636  0.1141
  789MOL0     C 8777   2.748  10.134   9.739  0.4923 -0.1567 -0.9801
  789MOL0     C 8778   2.811  10.163   9.865  0.0067  0.0808 -0.8114
  789MOL0     C 8779   2.945  10.199   9.861 -0.2912  0.2300  0.0925
  789MOL0     O 8780   3.009  10.215   9.976  0.0266  0.1910  0.0196
  789MOL0     C 8781   3.148  10.203   9.979 -0.7617 -0.5663 -0.3536
  789MOL0     C 8782   3.208  10.087   9.911 -0.0355  0.6128 -0.6055
  789MOL0     C 8783   3.135   9.956   9.941  0.3462  0.3829 -0.0322
  789MOL0     C 8784   3.208   9.838   9.875 -0.3044  0.1393  0.0287
  789MOL0     C 8785   3.142   9.703   9.889  0.7669 -0.0554 -0.7442
  789MOL0     C 8786   3.218   9.595   9.805  1.2246 -0.0441  0.8870
  789MOL0     C 8787   3.205   9.607   9.654  0.0307 -0.2428 -0.1812
  789MOL0     C 8788   3.075   9.655   9.604  0.3935 -0.1329  0.3472
  789MOL0    Cl 8789   2.946   9.537   9.616 -0.0797 -0.2666  0.1880
  789MOL0     C 8790   3.006  10.243   9.739  0.9258 -0.7927  0.1455
  789MOL0     C 8791   2.936  10.217   9.622 -0.9594 -0.1071 -0.7378
  789MOL0     O 8792   2.660  10.361   9.512  0.4738  0.2000 -0.0494
  789MOL0     C 8793   2.667  10.132   9.246 -0.4712  1.0520 -0.7026
  789MOL0     C 8794   2.638  10.107   9.109 -0.7581 -0.4268 -0.5017
  789MOL0     N 8795   2.076  10.185   9.325  0.2817  0.4450 -0.0051
  789MOL0     N 8796   2.109  10.220   9.446 -0.2129  0.2611  0.0331
  789MOL0     C 8797   2.443  11.054   9.859  0.2626 -0.0943  0.3681
  789MOL0     C 8798   2.437  11.180   9.790  0.2993 -0.4168  0.3878
  789MOL0     C 8799   2.490  11.635   9.740  0.7724 -0.1587 -0.1902
  789MOL0     C 8800   2.553  11.750   9.785  0.4458  0.4283 -0.3478
  789MOL0     C 8801   2.575  11.862   9.704  0.1480 -0.1280 -0.7336
  789MOL0     C 8802   2.516  11.873   9.581 -0.3782  0.2491  0.4362
  789MOL0     O 8803   2.540  11.999   9.509 -0.7753  0.9271 -0.1799
  789MOL0     C 8804   2.443  12.045   9.421  0.1372  0.1204  0.2702
  789MOL0     C 8805   2.447  11.978   9.284 -0.3566  0.4489 -0.9685
  789MOL0     C 8806   2.568  12.010   9.198 -0.4961  0.2218  0.1081
  789MOL0     C 8807   2.585  12.143   9.140  0.3921  0.8952 -1.1780
  789MOL0     C 8808   2.700  12.165   9.062  0.6253  0.3983  0.5099
  789MOL0     C 8809   2.798  12.183   8.993 -0.5755  1.1507 -0.5415
  789MOL0     C 8810   2.441  11.759   9.545  0.0216 -0.5647  0.5678
  789MOL0     C 8811   2.419  11.656   9.625  1.3591  0.1211  0.2779
  789MOL0     C 8812   2.315  11.560   9.579  0.5182  0.1612  0.3056
  789MOL0     H 8813   2.647  11.354   9.978 -1.6965  1.9801 -0.3768
  789MOL0     H 8814   2.663  11.137  10.090 -2.7049 -0.3480  0.8889
  789MOL0     H 8815   2.729  10.893  10.077 -0.5923  3.7523  0.2672
  789MOL0     H 8816   2.730  10.880   9.902  1.9049  1.2283  1.7486
  789MOL0     H 8817   2.789  10.685  10.037 -1.3383 -1.6813 -0.7649
  789MOL0     H 8818   2.634  10.669  10.098  1.1632  1.6952  1.9805
  789MOL0     H 8819   2.679  10.658   9.799  1.3582  0.4558  0.6127
  789MOL0     H 8820   2.703  10.523   9.885 -2.0697 -0.2569 -2.2676
  789MOL0     H 8821   2.486  10.525   9.989 -0.2477 -1.5359  0.0081
  789MOL0     H 8822   2.446  10.677   9.915  0.5285  0.9603 -0.6730
  789MOL0     H 8823   2.543  10.470   9.716  2.2117  2.4137  0.9251
  789MOL0     H 8824   2.400  10.577   9.705  0.6599  1.7275  1.4073
  789MOL0     H 8825   2.399  10.325   9.866 -1.3180  2.5005  4.4543
  789MOL0     H 8826   2.262  10.435   9.842 -2.1190 -1.0953 -2.0363
  789MOL0     H 8827   2.297  10.222   9.677  1.5057 -2.2265 -0.2370
  789MOL0     H 8828   2.447  10.295   9.630  0.6928  2.7159 -0.6262
  789MOL0     H 8829   2.174  10.442   9.587  0.7511  2.4214 -1.1777
  789MOL0     H 8830   2.321  10.471   9.503 -1.8560  1.3864  0.6585
  789MOL0     H 8831   2.342  10.362   9.276 -0.0515 -2.3200 -2.6073
  789MOL0     H 8832   2.216  10.310   9.061  3.4336 -1.2383  1.4605
  789MOL0     H 8833   2.075  10.202   9.037 -0.0634  2.6149 -0.6529
  789MOL0     H 8834   2.352  10.111   9.110 -0.7579 -0.7737  0.4313
  789MOL0     H 8835   2.228  10.021   9.034  2.1630 -0.7469 -0.7074
  789MOL0     H 8836   2.269  10.116   8.815  0.2311 -1.8627  0.6009
  789MOL0     H 8837   2.335  10.265   8.885  1.1966 -0.2570 -0.2439
  789MOL0     H 8838   2.475  10.009   8.928 -1.8670 -1.1163 -0.6678
  789MOL0     H 8839   2.488  10.061   8.766 -1.7644 -4.1780  1.6397
  789MOL0     H 8840   2.550  10.420   9.018 -1.7993 -0.3649  1.4952
  789MOL0     H 8841   2.699  10.533   9.302 -1.2997  0.2592  0.0554
  789MOL0     H 8842   2.523  10.493   9.332 -0.1039  1.6031  0.4795
  789MOL0     H 8843   2.571  10.573   9.179 -2.6539 -0.1056  1.1536
  789MOL0     H 8844   2.652  10.084   9.741  1.3175 -1.8661  1.5738
  789MOL0     H 8845   2.750  10.151   9.954  2.4340 -1.5527  0.7603
  789MOL0     H 8846   3.194  10.301   9.962 -0.6962 -0.5197  0.0759
  789MOL0     H 8847   3.164  10.176  10.084  1.1643  0.9967 -0.1964
  789MOL0     H 8848   3.221  10.104   9.804  1.9440  1.6859 -0.2340
  789MOL0     H 8849   3.308  10.082   9.955  0.1561 -1.3300 -1.1447
  789MOL0     H 8850   3.041   9.963   9.885 -0.6019 -1.7054  1.1618
  789MOL0     H 8851   3.108   9.928  10.043 -0.5404 -2.1329 -0.8718
  789MOL0     H 8852   3.308   9.826   9.918 -0.4180  1.3941  0.7061
  789MOL0     H 8853   3.224   9.856   9.768 -1.3184  0.0886 -0.1445
  789MOL0     H 8854   3.144   9.675   9.995 -2.7391  3.1231  0.3766
  789MOL0     H 8855   3.034   9.710   9.871  0.5991 -3.0752 -1.4781
  789MOL0     H 8856   3.171   9.498   9.827 -1.1755  0.9952  0.6479
  789MOL0     H 8857   3.325   9.603   9.826  1.2782  0.2649  0.4991
  789MOL0     H 8858   3.242   9.516   9.604  2.5628  0.7659 -0.2952
  789MOL0     H 8859   3.283   9.680   9.631  1.4408 -2.0157 -1.3949
  789MOL0     H 8860   3.091   9.694   9.504  2.2483  1.6844  1.2868
  789MOL0     H 8861   3.049   9.748   9.655  0.1567 -1.0338  1.9557
  789MOL0     H 8862   3.103  10.291   9.751 -0.1929  1.4882  0.5674
  789MOL0     H 8863   2.995  10.237   9.533 -0.2494  0.8360 -0.0694
  789MOL0     H 8864   2.696  10.045   9.305 -1.3934  0.7496 -0.6764
  789MOL0     H 8865   2.653  10.007   9.071 -3.2190 -2.0738  2.4102
  789MOL0     H 8866   2.385  10.973   9.815  0.5402  0.1449 -0.4597
  789MOL0     H 8867   2.377  11.184   9.700 -0.6988 -1.9030  0.9530
  789MOL0     H 8868   2.607  11.746   9.878 -0.4370 -0.4530  0.1503
  789MOL0     H 8869   2.643  11.942   9.731 -1.2278  0.4632  1.1481
  789MOL0     H 8870   2.351  12.014   9.472 -0.3167 -3.0602 -2.1494
  789MOL0     H 8871   2.438  12.154   9.420 -1.7868  0.2303  3.8357
  789MOL0     H 8872   2.352  12.000   9.236 -2.5066  0.4020  2.8737
  789MOL0     H 8873   2.441  11.870   9.295  3.1705  0.2354  0.1130
  789MOL0     H 8874   2.656  11.968   9.248  0.2710  1.0518 -0.5201
  789MOL0     H 8875   2.571  11.947   9.109  3.1954  2.5748 -1.7042
  789MOL0     H 8876   2.583  12.213   9.223 -1.1979 -0.6760  0.1918
  789MOL0     H 8877   2.493  12.149   9.081 -0.5451 -0.8853  0.0071
  789MOL0     H 8878   2.880  12.163   8.926  1.4957 -1.4727  2.4467
  789MOL0     H 8879   2.382  11.766   9.455  0.2979 -1.0975  0.3438
  789MOL0     H 8880   2.353  11.470   9.531 -0.8033 -3.1311  4.7578
  789MOL0     H 8881   2.253  11.528   9.663  0.3903  0.4776  0.3352
  789MOL0     H 8882   2.240  11.604   9.513 -0.5079 -0.0956  1.2612
  790MOL0     O 8883   2.321   5.164  10.480  0.7861  0.0132  1.1893
  790MOL0     C 8884   2.283   5.079  10.562  0.2244  0.2724  1.1068
  790MOL0     O 8885   2.346   5.048  10.677  0.0014  0.4416  0.1470
  790MOL0     C 8886   2.463   5.101  10.728 -0.3939 -0.3531  0.3054
  790MOL0     C 8887   2.531   5.215  10.678  0.1877 -0.3639 -0.0774
  790MOL0     C 8888   2.646   5.264  10.743  0.2211 -0.5573 -0.8401
  790MOL0     C 8889   2.708   5.194  10.845  0.2308  0.0500 -0.0934
  790MOL0     O 8890   2.825   5.250  10.901  0.6175  0.5692 -0.0193
  790MOL0     C 8891   2.844   5.213  11.041 -0.1206 -0.1636  0.4558
  790MOL0     C 8892   2.951   5.297  11.106  0.5852  0.0869  0.3929
  790MOL0     C 8893   2.890   5.432  11.124  0.1990 -0.3045  0.2329
  790MOL0     C 8894   2.780   5.449  11.231 -0.6859 -0.0362 -0.4807
  790MOL0     C 8895   2.819   5.416  11.380  0.3193  0.2528 -0.8341
  790MOL0     C 8896   2.952   5.465  11.414 -0.4145  0.4284 -0.9493
  790MOL0     C 8897   2.961   5.618  11.429  0.7168 -0.3354  0.8255
  790MOL0     C 8898   3.060   5.664  11.547  0.7899  1.1519 -0.2179
  790MOL0     N 8899   2.985   5.767  11.625 -0.1580  0.2757  0.4872
  790MOL0     C 8900   2.951   5.899  11.581  0.0192 -0.1542 -1.5337
  790MOL0     C 8901   2.922   5.952  11.701  0.0156  0.8896  0.3928
  790MOL0     C 8902   2.923   6.103  11.720 -0.2817 -0.9093 -0.5131
  790MOL0     C 8903   2.793   6.163  11.793 -0.7825  0.0577 -0.5629
  790MOL0     C 8904   2.672   6.190  11.706 -0.6913  0.1445 -0.8134
  790MOL0     C 8905   2.563   6.265  11.775 -0.0454 -0.0606 -0.8268
  790MOL0     O 8906   2.510   6.189  11.895 -0.4246 -0.1112  0.3494
  790MOL0     C 8907   2.529   6.228  12.017 -0.6815 -0.0717 -0.7066
  790MOL0     C 8908   2.507   6.353  12.062 -0.0591  0.0442 -0.4182
  790MOL0     C 8909   2.515   6.389  12.194  0.4556 -0.1202  0.2484
  790MOL0     C 8910   2.484   6.532  12.223 -0.5190  0.0536  0.7681
  790MOL0     C 8911   2.547   6.289  12.288 -0.2685  0.5441  0.0371
  790MOL0     C 8912   2.561   6.307  12.441 -0.2365 -0.1874 -0.2723
  790MOL0     O 8913   2.573   6.189  12.525 -0.2403 -0.3111  0.2653
  790MOL0     C 8914   2.550   6.220  12.653 -0.3547  0.1744 -0.5839
  790MOL0     C 8915   2.662   6.222  12.739 -0.6578  1.4208 -0.6266
  790MOL0     C 8916   2.643   6.241  12.871 -0.0393  0.0714 -0.5332
  790MOL0     C 8917   2.512   6.257  12.915 -0.2787 -0.2954 -0.0372
  790MOL0     O 8918   2.488   6.293  13.045  0.1542  0.0654 -0.2520
  790MOL0     C 8919   2.549   6.226  13.156 -0.3189 -0.0547 -0.7349
  790MOL0     C 8920   2.516   6.076  13.170  0.1926  0.0478 -0.3199
  790MOL0     C 8921   2.516   6.034  13.318 -0.1260 -0.4052 -0.0114
  790MOL0     C 8922   2.397   6.090  13.402 -0.4543  0.0495  0.4196
  790MOL0     C 8923   2.407   6.047  13.539  0.8318  0.2393  0.0948
  790MOL0     C 8924   2.290   6.092  13.625  0.2442 -0.1412 -0.3814
  790MOL0     C 8925   2.294   6.055  13.777 -0.2677  0.1924  1.0075
  790MOL0     C 8926   2.152   6.080  13.837  0.0126  0.3807  0.4489
  790MOL0    Cl 8927   2.056   5.944  13.810 -0.2984 -0.1374 -0.1821
  790MOL0     C 8928   2.408   6.260  12.828  0.0933  0.4514 -0.2851
  790MOL0     C 8929   2.420   6.240  12.696 -0.0641 -0.1229  0.4411
  790MOL0     O 8930   2.542   6.418  12.492  0.5315  0.3452  0.2266
  790MOL0     C 8931   2.585   6.157  12.238  0.1026  0.5350 -0.1263
  790MOL0     C 8932   2.581   6.128  12.098 -0.6442 -0.5064 -0.4360
  790MOL0     N 8933   2.941   5.865  11.804 -0.6478  0.6832  0.1806
  790MOL0     N 8934   2.973   5.746  11.759 -0.7111 -0.8797  0.5678
  790MOL0     C 8935   2.653   5.074  10.886  0.0147 -0.5610  0.1898
  790MOL0     C 8936   2.531   5.033  10.831  0.6065  0.3558  0.2482
  790MOL0     C 8937   2.170   4.986  10.519 -0.0757  0.1509 -0.2936
  790MOL0     C 8938   2.071   4.939  10.611 -0.0706 -1.1086  0.7635
  790MOL0     C 8939   1.958   4.862  10.576  0.2421 -1.1457 -0.5585
  790MOL0     C 8940   1.927   4.850  10.446  0.7122  0.7141  0.2707
  790MOL0     O 8941   1.807   4.795  10.420  0.0089  0.4917 -0.5040
  790MOL0     C 8942   1.780   4.750  10.289 -0.2140  0.2410 -0.2963
  790MOL0     C 8943   1.852   4.625  10.241 -0.1491 -0.0406  0.3425
  790MOL0     C 8944   1.758   4.509  10.220 -0.5910  0.5387 -0.2208
  790MOL0     C 8945   1.824   4.403  10.128 -0.7174 -0.7508  0.8303
  790MOL0     C 8946   1.790   4.431   9.980  0.1486  0.3208 -0.6210
  790MOL0     C 8947   1.742   4.449   9.794  0.8836  0.2766  0.0229
  790MOL0     C 8948   2.020   4.901  10.344  0.5813  0.1190 -0.7118
  790MOL0     C 8949   2.139   4.963  10.378  0.4391 -0.5195 -0.7240
  790MOL0     C 8950   2.224   5.015  10.257  0.8985 -0.1319 -1.0862
  790MOL0     H 8951   2.495   5.259  10.585 -1.0025  1.0823  1.0317
  790MOL0     H 8952   2.696   5.357  10.718 -3.1305  1.6637 -0.0344
  790MOL0     H 8953   2.878   5.110  11.056  2.2159  0.3903 -0.5975
  790MOL0     H 8954   2.748   5.236  11.089  1.2656  0.8190  2.9059
  790MOL0     H 8955   2.986   5.249  11.198  1.8491  0.9318  0.3720
  790MOL0     H 8956   3.039   5.301  11.042 -0.7813 -0.6295 -1.6314
  790MOL0     H 8957   2.979   5.492  11.142  0.3041 -0.3067 -0.2529
  790MOL0     H 8958   2.848   5.475  11.033 -1.5218  0.8823  1.5381
  790MOL0     H 8959   2.740   5.551  11.232 -0.5166  0.2248 -4.3975
  790MOL0     H 8960   2.701   5.382  11.198 -0.2470  0.5786 -2.9720
  790MOL0     H 8961   2.836   5.309  11.397  2.4871  0.8928  1.4723
  790MOL0     H 8962   2.742   5.449  11.450 -0.5383  0.1305 -1.6900
  790MOL0     H 8963   2.974   5.423  11.513  0.4066  0.0107 -1.3077
  790MOL0     H 8964   3.031   5.423  11.351  1.6774 -0.5780  2.0923
  790MOL0     H 8965   2.864   5.666  11.446  1.1751  2.0693 -2.3791
  790MOL0     H 8966   2.990   5.654  11.330  0.8774 -0.4015  0.8478
  790MOL0     H 8967   3.088   5.584  11.616  1.4132  1.6987  0.1766
  790MOL0     H 8968   3.153   5.696  11.499  1.4709 -1.6882 -0.9747
  790MOL0     H 8969   2.957   5.951  11.487 -0.9006 -2.4521 -2.9434
  790MOL0     H 8970   2.940   6.157  11.626 -1.5121 -2.2481 -1.5469
  790MOL0     H 8971   3.006   6.137  11.782 -0.1247 -2.1641 -0.0214
  790MOL0     H 8972   2.766   6.091  11.871 -1.9539 -0.4723 -1.4321
  790MOL0     H 8973   2.815   6.263  11.832 -0.8804 -0.1156 -0.0608
  790MOL0     H 8974   2.705   6.254  11.624  2.4491  0.8120  0.8112
  790MOL0     H 8975   2.632   6.099  11.663  1.1012 -1.0454 -0.0777
  790MOL0     H 8976   2.601   6.364  11.800  0.8687  0.5857 -4.1833
  790MOL0     H 8977   2.480   6.277  11.705 -0.3643  1.9438 -0.1327
  790MOL0     H 8978   2.465   6.424  11.991 -0.8791 -2.5522 -2.7119
  790MOL0     H 8979   2.498   6.594  12.134 -0.5275 -1.6470 -0.4651
  790MOL0     H 8980   2.549   6.572  12.301 -0.9711  3.3431 -0.4021
  790MOL0     H 8981   2.377   6.537  12.249 -0.2803 -0.1353  1.8375
  790MOL0     H 8982   2.760   6.214  12.692 -1.0727 -0.4742 -1.2685
  790MOL0     H 8983   2.728   6.268  12.933 -1.4516  3.2557  0.2223
  790MOL0     H 8984   2.658   6.233  13.164 -0.2910 -1.9362  4.9421
  790MOL0     H 8985   2.522   6.283  13.245  1.4779 -1.0899  0.5433
  790MOL0     H 8986   2.411   6.065  13.140 -0.7369  0.2381  2.5095
  790MOL0     H 8987   2.580   6.009  13.113 -2.6767 -1.9592 -1.4227
  790MOL0     H 8988   2.609   6.078  13.356 -0.1238  0.4482 -0.9480
  790MOL0     H 8989   2.536   5.927  13.323  2.6503  0.0728  2.9970
  790MOL0     H 8990   2.303   6.053  13.361 -0.0139 -0.0916 -0.4858
  790MOL0     H 8991   2.389   6.199  13.400  0.1123  0.0797 -0.4465
  790MOL0     H 8992   2.410   5.940  13.559 -2.3792  0.2231  1.0227
  790MOL0     H 8993   2.504   6.076  13.580  1.0799 -2.4115  1.5899
  790MOL0     H 8994   2.202   6.041  13.586  0.5136 -1.0147  0.1356
  790MOL0     H 8995   2.273   6.199  13.610  1.2826  0.0426 -0.3139
  790MOL0     H 8996   2.361   6.129  13.821 -1.1944  0.8917  1.2637
  790MOL0     H 8997   2.319   5.949  13.786 -0.2131  0.0559 -0.4568
  790MOL0     H 8998   2.108   6.173  13.800  2.2111  1.9692  1.5621
  790MOL0     H 8999   2.156   6.089  13.946  2.6622 -0.3842  0.4806
  790MOL0     H 9000   2.310   6.289  12.865  1.3608 -0.3635  4.2157
  790MOL0     H 9001   2.336   6.276  12.637  0.6399  2.0802  0.6793
  790MOL0     H 9002   2.603   6.068  12.298  1.3802 -0.2932 -1.6434
  790MOL0     H 9003   2.614   6.033  12.058 -1.5116 -1.0979  0.2150
  790MOL0     H 9004   2.709   5.021  10.962  2.5320  2.4662  0.6434
  790MOL0     H 9005   2.484   4.947  10.878  2.6109 -0.5030  0.7763
  790MOL0     H 9006   2.076   4.970  10.715  0.6183  1.2729  0.0888
  790MOL0     H 9007   1.885   4.829  10.650 -1.8480 -1.6936 -2.7535
  790MOL0     H 9008   1.672   4.739  10.279 -0.1520 -0.6465 -0.1057
  790MOL0     H 9009   1.803   4.824  10.212 -0.5476 -1.3569 -1.9917
  790MOL0     H 9010   1.927   4.596  10.316  0.8223 -2.2883 -1.3729
  790MOL0     H 9011   1.913   4.645  10.153 -2.3671  0.4701 -1.1542
  790MOL0     H 9012   1.752   4.466  10.320  0.8967 -0.6932 -0.6239
  790MOL0     H 9013   1.660   4.538  10.181 -0.5013 -1.3638 -2.0720
  790MOL0     H 9014   1.799   4.299  10.147 -3.6432 -0.6177 -1.4861
  790MOL0     H 9015   1.933   4.415  10.130 -0.6391 -0.7832 -1.0864
  790MOL0     H 9016   1.720   4.467   9.690 -0.3569  0.7590  0.3497
  790MOL0     H 9017   1.997   4.894  10.238  0.4814  2.4776 -0.8940
  790MOL0     H 9018   2.332   5.023  10.272  0.9011  0.1793 -1.2563
  790MOL0     H 9019   2.216   4.938  10.179  0.2400 -2.2200  0.9367
  790MOL0     H 9020   2.169   5.101  10.218  1.0113  0.7824  0.6965
  791MOL0     O 9021   5.909   9.662   4.962  0.2406  0.1045 -0.3394
  791MOL0     C 9022   5.928   9.543   4.993  0.7491 -0.5050 -0.1538
  791MOL0     O 9023   5.904   9.489   5.121  0.9406 -0.5490 -0.1767
  791MOL0     C 9024   5.837   9.566   5.212  0.0494  0.3109  0.6142
  791MOL0     C 9025   5.890   9.690   5.256 -0.1465  1.0287 -0.1717
  791MOL0     C 9026   5.828   9.750   5.368 -0.6214 -0.6801  0.2302
  791MOL0     C 9027   5.708   9.698   5.415  0.3707 -0.4466  0.4921
  791MOL0     O 9028   5.654   9.754   5.527  0.1859 -0.4427  0.1760
  791MOL0     C 9029   5.618   9.893   5.513  0.3687  0.4767  0.0510
  791MOL0     C 9030   5.540   9.925   5.643  0.5562 -0.3648  0.3210
  791MOL0     C 9031   5.444   9.805   5.676  0.2478  0.0681 -0.1945
  791MOL0     C 9032   5.353   9.836   5.789 -0.2416  0.6152 -0.1449
  791MOL0     C 9033   5.250   9.723   5.789 -0.0876  0.6266  1.1046
  791MOL0     C 9034   5.199   9.692   5.929  0.0197 -0.2363  0.0456
  791MOL0     C 9035   5.172   9.817   6.012  0.2449  0.2488  0.8236
  791MOL0     C 9036   5.064   9.907   5.950 -0.3653  0.6239  0.1427
  791MOL0     N 9037   4.938   9.828   5.915 -0.5988 -0.1155  0.7511
  791MOL0     C 9038   4.888   9.826   5.790  0.8517 -0.5419 -0.8382
  791MOL0     C 9039   4.773   9.757   5.806 -0.3202  0.2943 -0.7417
  791MOL0     C 9040   4.677   9.736   5.703  0.0128  0.5464  0.2503
  791MOL0     C 9041   4.611   9.595   5.704  0.2826 -0.0209 -0.1238
  791MOL0     C 9042   4.509   9.589   5.582  0.1700 -0.2377  0.0412
  791MOL0     C 9043   4.385   9.679   5.592  0.6992  0.0834  0.2266
  791MOL0     O 9044   4.279   9.627   5.677 -0.2606  0.2772  0.5776
  791MOL0     C 9045   4.165   9.696   5.701 -0.2674  1.1844  0.2622
  791MOL0     C 9046   4.077   9.657   5.809 -1.1337  0.1724  0.1501
  791MOL0     C 9047   3.962   9.724   5.837  0.0466 -0.0977  0.0070
  791MOL0     C 9048   3.903   9.710   5.979 -0.5131 -0.2287  0.2809
  791MOL0     C 9049   3.922   9.829   5.748 -0.8888 -0.3276 -0.5776
  791MOL0     C 9050   3.801   9.906   5.754  0.1317 -0.0090  0.8045
  791MOL0     O 9051   3.801  10.041   5.720 -0.8736  0.1027  0.4251
  791MOL0     C 9052   3.706  10.130   5.756 -0.9156 -0.2049  0.3400
  791MOL0     C 9053   3.717  10.256   5.695 -0.2690  0.5929  0.1492
  791MOL0     C 9054   3.614  10.350   5.701  0.1660 -0.4666  0.4205
  791MOL0     C 9055   3.526  10.336   5.805 -0.8812  0.3487  0.7123
  791MOL0     O 9056   3.447  10.443   5.836  0.2990  0.4965  0.1154
  791MOL0     C 9057   3.311  10.418   5.866  0.3891  0.1108 -0.6868
  791MOL0     C 9058   3.225  10.554   5.862 -0.1194 -0.3712  0.1151
  791MOL0     C 9059   3.266  10.645   5.988  0.0713  0.1559  0.2808
  791MOL0     C 9060   3.220  10.579   6.117  0.0585  0.0339 -0.0887
  791MOL0     C 9061   3.231  10.679   6.238 -0.4447 -0.7848  0.9710
  791MOL0     C 9062   3.159  10.672   6.376 -1.2382 -0.7738  0.3577
  791MOL0     C 9063   3.211  10.561   6.460  0.1742  0.8670  0.0760
  791MOL0     C 9064   3.148  10.563   6.597  0.6764 -0.1675 -1.3127
  791MOL0    Cl 9065   3.226  10.441   6.701  0.1669 -0.2771  0.4933
  791MOL0     C 9066   3.516  10.210   5.872 -0.3097 -0.2850 -0.6708
  791MOL0     C 9067   3.606  10.110   5.852 -0.1921  0.4016  0.9821
  791MOL0     O 9068   3.711   9.838   5.800 -0.3831 -1.1429  0.3439
  791MOL0     C 9069   4.002   9.866   5.636 -0.5443  0.1123  0.4427
  791MOL0     C 9070   4.126   9.795   5.612  0.0155  0.2959  0.0221
  791MOL0     N 9071   4.761   9.713   5.936 -0.5264 -0.0943  0.0833
  791MOL0     N 9072   4.858   9.759   6.005 -0.2644  0.0909 -0.1287
  791MOL0     C 9073   5.645   9.581   5.365  0.3945  0.4672  0.4334
  791MOL0     C 9074   5.713   9.513   5.262  0.8381 -0.9236 -0.5284
  791MOL0     C 9075   5.964   9.442   4.892 -0.3957 -0.9065  1.0529
  791MOL0     C 9076   5.937   9.313   4.899  1.0202  0.5175  0.2148
  791MOL0     C 9077   5.964   9.222   4.799 -0.0734  0.1028 -0.0857
  791MOL0     C 9078   6.039   9.257   4.680  1.3737 -0.0710  0.0185
  791MOL0     O 9079   6.051   9.179   4.563  0.0767 -1.1235  0.8712
  791MOL0     C 9080   6.173   9.166   4.496 -0.5125  0.5017  1.1258
  791MOL0     C 9081   6.151   9.071   4.379  0.5998 -1.1685  0.5677
  791MOL0     C 9082   6.270   8.992   4.327  1.1184 -0.6437 -1.0192
  791MOL0     C 9083   6.232   8.890   4.223  0.1521 -0.1621 -0.3844
  791MOL0     C 9084   6.128   8.790   4.269 -0.4046  0.1478 -0.5066
  791MOL0     C 9085   6.042   8.714   4.324 -0.8109 -0.6086 -0.4629
  791MOL0     C 9086   6.087   9.382   4.688 -0.5163  0.0538  1.2079
  791MOL0     C 9087   6.045   9.477   4.778 -0.5128 -0.7816 -1.0355
  791MOL0     C 9088   6.104   9.602   4.752  0.2315 -0.5312  0.4316
  791MOL0     H 9089   5.984   9.720   5.209  0.3862 -2.1928 -1.4272
  791MOL0     H 9090   5.875   9.832   5.421 -0.4996 -2.1442  2.5106
  791MOL0     H 9091   5.553   9.894   5.425  0.2796 -0.9454  0.0638
  791MOL0     H 9092   5.702   9.961   5.505  1.5362 -0.7328  1.3447
  791MOL0     H 9093   5.606   9.938   5.729 -0.6738  2.7977  0.9362
  791MOL0     H 9094   5.485  10.018   5.625  1.5856 -0.0026 -1.0957
  791MOL0     H 9095   5.378   9.774   5.594 -1.5002 -0.9705  1.5440
  791MOL0     H 9096   5.507   9.719   5.699  1.4781 -0.2103 -3.9077
  791MOL0     H 9097   5.425   9.819   5.870 -0.8695 -0.5336  0.2024
  791MOL0     H 9098   5.311   9.936   5.776 -1.2202  0.0994 -1.1192
  791MOL0     H 9099   5.277   9.623   5.753 -2.9931  0.3810 -0.7102
  791MOL0     H 9100   5.166   9.754   5.726  2.1746  0.6605 -2.0826
  791MOL0     H 9101   5.107   9.632   5.929  1.3655 -2.4458  0.7805
  791MOL0     H 9102   5.275   9.631   5.979  0.1227 -1.8550 -1.9709
  791MOL0     H 9103   5.266   9.870   6.030  1.4294 -1.6692  0.4819
  791MOL0     H 9104   5.118   9.787   6.103 -2.2333  1.0777 -0.2778
  791MOL0     H 9105   5.049   9.980   6.030 -0.4277  1.5175 -0.6643
  791MOL0     H 9106   5.102   9.968   5.868 -0.5057  0.3933 -0.0966
  791MOL0     H 9107   4.933   9.867   5.700  2.6232 -2.0292 -0.6769
  791MOL0     H 9108   4.720   9.752   5.604  2.0276  0.6023  1.0747
  791MOL0     H 9109   4.607   9.820   5.713 -0.5531  0.1403 -0.2418
  791MOL0     H 9110   4.694   9.525   5.691  0.4528  0.1863 -0.1584
  791MOL0     H 9111   4.559   9.576   5.799  1.8700 -1.9842  0.4435
  791MOL0     H 9112   4.563   9.621   5.493 -2.4760  0.6272 -1.3496
  791MOL0     H 9113   4.467   9.488   5.576  3.3375 -1.6022 -1.1547
  791MOL0     H 9114   4.405   9.781   5.626  0.8911  1.0192 -2.4827
  791MOL0     H 9115   4.339   9.666   5.494  0.2788  1.9593  0.1509
  791MOL0     H 9116   4.107   9.571   5.869  0.3226  0.7775  0.3330
  791MOL0     H 9117   3.895   9.604   6.007  1.1113 -0.7878 -1.1485
  791MOL0     H 9118   3.810   9.763   5.995 -0.6327  0.8751 -3.3618
  791MOL0     H 9119   3.988   9.737   6.043  1.5264 -0.7657 -2.0457
  791MOL0     H 9120   3.793  10.273   5.620  1.1629 -0.2119  1.3716
  791MOL0     H 9121   3.621  10.444   5.647 -1.5116 -0.9148 -0.6493
  791MOL0     H 9122   3.262  10.346   5.800  1.0033  1.0460 -2.2047
  791MOL0     H 9123   3.321  10.379   5.968 -0.9830 -0.4514 -0.7538
  791MOL0     H 9124   3.261  10.606   5.772 -0.0110  1.1653  1.0210
  791MOL0     H 9125   3.117  10.540   5.863 -0.5837  2.0425  4.2671
  791MOL0     H 9126   3.227  10.746   5.981 -1.2916 -0.4255 -1.3137
  791MOL0     H 9127   3.369  10.678   5.968  0.2255 -1.0980 -1.2502
  791MOL0     H 9128   3.276  10.489   6.146  1.3478  0.9860  0.4289
  791MOL0     H 9129   3.119  10.538   6.106 -0.2547  0.5319  0.8074
  791MOL0     H 9130   3.335  10.701   6.263 -0.9759  1.4381  1.4325
  791MOL0     H 9131   3.210  10.778   6.196 -0.1172 -0.2471  2.0467
  791MOL0     H 9132   3.050  10.665   6.372 -1.1545 -4.2052  0.9544
  791MOL0     H 9133   3.173  10.766   6.429 -1.0422 -1.2242  1.1271
  791MOL0     H 9134   3.318  10.583   6.468 -0.4101  4.0711  0.1985
  791MOL0     H 9135   3.206  10.464   6.409  1.6446  0.1800  1.1807
  791MOL0     H 9136   3.041  10.549   6.574  0.5362  1.7310 -1.9585
  791MOL0     H 9137   3.162  10.661   6.642 -0.5347 -1.1358  1.3909
  791MOL0     H 9138   3.437  10.191   5.944  0.2225 -0.1765 -0.0514
  791MOL0     H 9139   3.601  10.013   5.900  3.0152 -0.8664 -0.9345
  791MOL0     H 9140   3.978   9.952   5.575 -0.7576  0.8951  1.6088
  791MOL0     H 9141   4.186   9.838   5.532 -1.6554  0.5744 -1.1211
  791MOL0     H 9142   5.545   9.543   5.383  0.2925 -1.8747 -3.8024
  791MOL0     H 9143   5.663   9.430   5.213 -2.6317  1.7403 -1.8439
  791MOL0     H 9144   5.866   9.275   4.972  1.2608  2.8654  1.7760
  791MOL0     H 9145   5.930   9.121   4.817 -1.8971  1.0406  2.1869
  791MOL0     H 9146   6.221   9.261   4.471  1.6860 -0.3243  1.9344
  791MOL0     H 9147   6.247   9.132   4.570 -1.1966 -0.0036  1.5964
  791MOL0     H 9148   6.122   9.144   4.303  2.5865  1.3792  2.1000
  791MOL0     H 9149   6.074   8.994   4.392  0.5361 -1.5090 -1.4627
  791MOL0     H 9150   6.348   9.051   4.278  1.3598  0.3544  0.5202
  791MOL0     H 9151   6.308   8.938   4.414  1.3669 -1.2503 -1.4902
  791MOL0     H 9152   6.325   8.836   4.203  1.5205  2.5238 -1.9212
  791MOL0     H 9153   6.196   8.946   4.137 -2.8436 -0.6345  0.4379
  791MOL0     H 9154   5.971   8.644   4.364  0.2486 -1.5966 -0.2510
  791MOL0     H 9155   6.153   9.413   4.608 -0.8093  0.7084  1.2098
  791MOL0     H 9156   6.187   9.599   4.680 -0.6110 -0.3935 -0.5647
  791MOL0     H 9157   6.014   9.659   4.729 -1.2783 -2.0469  2.3323
  791MOL0     H 9158   6.149   9.643   4.843  0.1829 -1.4410  0.8749
  792MOL0     O 9159   7.253   2.876   9.344 -0.8857  0.1299 -0.6893
  792MOL0     C 9160   7.273   2.792   9.258  0.1591  0.0251 -0.1543
  792MOL0     O 9161   7.400   2.748   9.229  0.2864 -0.2525  0.0769
  792MOL0     C 9162   7.513   2.822   9.248  0.8751  0.3379 -0.3677
  792MOL0     C 9163   7.544   2.892   9.365 -0.1285  0.2853 -0.4766
  792MOL0     C 9164   7.660   2.969   9.374 -0.0533 -0.7432  0.2301
  792MOL0     C 9165   7.743   2.975   9.265  0.6397  0.1125 -0.5008
  792MOL0     O 9166   7.861   3.038   9.280 -0.6854  0.4856 -0.2805
  792MOL0     C 9167   7.854   3.183   9.241 -0.3736  0.5083  1.0842
  792MOL0     C 9168   7.953   3.263   9.321  0.1354 -0.2648 -0.1368
  792MOL0     C 9169   7.884   3.284   9.462 -0.5093 -0.6792 -0.1572
  792MOL0     C 9170   7.787   3.404   9.461 -1.0392 -0.5136  0.3286
  792MOL0     C 9171   7.714   3.406   9.594 -0.7054  0.4519 -0.1480
  792MOL0     C 9172   7.791   3.434   9.723 -0.8677  0.5727  0.4410
  792MOL0     C 9173   7.687   3.438   9.833  0.2604  0.8188 -0.0584
  792MOL0     C 9174   7.672   3.575   9.911 -0.3470 -0.0170  0.9653
  792MOL0     N 9175   7.595   3.676   9.841  0.6711 -1.0281 -0.3075
  792MOL0     C 9176   7.600   3.724   9.713  0.6063  0.7804 -0.7634
  792MOL0     C 9177   7.485   3.806   9.691  0.1581 -0.2149 -0.0704
  792MOL0     C 9178   7.426   3.842   9.562 -0.7790 -0.6224  0.5721
  792MOL0     C 9179   7.534   3.853   9.458 -0.2840  0.7532  0.4125
  792MOL0     C 9180   7.620   3.978   9.475 -0.7343  0.4757 -0.5968
  792MOL0     C 9181   7.752   3.957   9.390 -0.0854 -0.4957 -0.8879
  792MOL0     O 9182   7.849   3.864   9.447 -0.5502 -0.3329  0.8876
  792MOL0     C 9183   7.934   3.907   9.538 -0.7685 -1.1797 -0.5502
  792MOL0     C 9184   7.973   3.825   9.644  0.3175  0.1332  0.2589
  792MOL0     C 9185   8.072   3.843   9.741 -0.0381  0.3168  0.7811
  792MOL0     C 9186   8.081   3.754   9.863 -0.7029  0.1904 -0.2865
  792MOL0     C 9187   8.153   3.957   9.722  0.3872 -0.0317 -0.4157
  792MOL0     C 9188   8.270   3.989   9.800 -0.6203 -1.7896 -0.1122
  792MOL0     O 9189   8.313   4.130   9.794  0.0904  0.6796 -0.6749
  792MOL0     C 9190   8.424   4.179   9.848  0.5194 -0.0715 -0.2376
  792MOL0     C 9191   8.520   4.218   9.761 -0.4851 -0.1913  0.1904
  792MOL0     C 9192   8.643   4.271   9.813  0.3296 -0.7281 -0.4516
  792MOL0     C 9193   8.666   4.279   9.946 -0.5264 -0.5900 -0.4045
  792MOL0     O 9194   8.790   4.323   9.990  0.2587  0.0360 -0.0065
  792MOL0     C 9195   8.852   4.232  10.089 -0.0984 -0.3332  0.0988
  792MOL0     C 9196   8.993   4.270  10.080  0.1700 -0.1361  0.3548
  792MOL0     C 9197   9.024   4.410  10.117 -0.2385 -0.4951  0.5267
  792MOL0     C 9198   9.183   4.432  10.119 -0.0910  0.6306  0.5174
  792MOL0     C 9199   9.228   4.563  10.176  0.1753 -0.1134 -0.2517
  792MOL0     C 9200   9.208   4.599  10.323  0.2281 -0.2889 -0.6494
  792MOL0     C 9201   9.263   4.743  10.380 -0.2267  0.2966  0.0778
  792MOL0     C 9202   9.219   4.764  10.522  0.5712 -0.7661 -0.1091
  792MOL0    Cl 9203   9.049   4.775  10.551  0.3619 -0.6229  0.3350
  792MOL0     C 9204   8.573   4.226  10.035 -0.4168  0.6423 -0.1462
  792MOL0     C 9205   8.451   4.179   9.990  0.2939 -0.2490  0.5439
  792MOL0     O 9206   8.347   3.902   9.846 -0.4888 -0.5643 -0.6559
  792MOL0     C 9207   8.114   4.055   9.617 -0.7079  0.4984  0.0610
  792MOL0     C 9208   8.012   4.028   9.521 -0.2778  0.1960 -0.3584
  792MOL0     N 9209   7.423   3.816   9.815 -0.1145  0.2784  0.5510
  792MOL0     N 9210   7.489   3.740   9.900  0.5823  0.0857  0.2921
  792MOL0     C 9211   7.714   2.909   9.148  0.2599 -1.4737  0.2833
  792MOL0     C 9212   7.602   2.829   9.136  0.7069  0.5292 -0.0306
  792MOL0     C 9213   7.159   2.711   9.206  0.1458 -0.5773  0.8147
  792MOL0     C 9214   7.199   2.582   9.162  0.7042  1.0418 -0.1077
  792MOL0     C 9215   7.102   2.494   9.099 -0.4530  0.1071  0.0310
  792MOL0     C 9216   6.972   2.534   9.079 -0.4575  0.8769  0.3957
  792MOL0     O 9217   6.895   2.464   8.989 -0.4699 -0.1775  0.3127
  792MOL0     C 9218   6.809   2.541   8.918 -0.1752 -0.3836  0.4500
  792MOL0     C 9219   6.756   2.455   8.802 -0.3151 -0.0958 -0.5589
  792MOL0     C 9220   6.686   2.545   8.709  0.6162  0.2438  0.0841
  792MOL0     C 9221   6.612   2.466   8.604 -0.6805 -0.7487  0.1510
  792MOL0     C 9222   6.492   2.535   8.564  0.2261 -0.7677 -0.0182
  792MOL0     C 9223   6.401   2.604   8.533  0.4094  0.3302  0.5928
  792MOL0     C 9224   6.933   2.655   9.140 -0.0834 -0.1530 -0.4001
  792MOL0     C 9225   7.025   2.745   9.198 -0.8859 -0.0045 -0.6077
  792MOL0     C 9226   6.979   2.892   9.206 -0.4199  0.2795  0.4476
  792MOL0     H 9227   7.495   2.884   9.462  1.1780  1.6467  0.3458
  792MOL0     H 9228   7.694   3.024   9.461  1.4832  0.9534 -1.3295
  792MOL0     H 9229   7.753   3.224   9.250 -0.3919  0.2580  2.2419
  792MOL0     H 9230   7.880   3.180   9.135 -1.7828  0.0800  0.7344
  792MOL0     H 9231   8.044   3.202   9.322  3.1142  3.7231 -0.9711
  792MOL0     H 9232   7.985   3.357   9.276 -2.7134 -0.3810 -2.7456
  792MOL0     H 9233   7.832   3.194   9.498  1.0581 -0.9437  1.5999
  792MOL0     H 9234   7.946   3.314   9.546 -1.8302 -0.2256  0.6716
  792MOL0     H 9235   7.840   3.492   9.424 -1.9598 -0.7572 -1.6656
  792MOL0     H 9236   7.706   3.396   9.388 -1.3284 -0.3953  0.6323
  792MOL0     H 9237   7.663   3.312   9.621 -0.2890  0.9631  2.7093
  792MOL0     H 9238   7.631   3.478   9.591 -0.9277  0.2500  0.7976
  792MOL0     H 9239   7.862   3.352   9.734 -5.6274 -4.1434  0.3294
  792MOL0     H 9240   7.842   3.530   9.730  0.5691 -0.1499  0.1198
  792MOL0     H 9241   7.715   3.370   9.914 -4.4276 -0.7850  0.5188
  792MOL0     H 9242   7.592   3.395   9.801  1.9898 -2.5112 -1.1269
  792MOL0     H 9243   7.622   3.547  10.005 -1.8320  0.2841  0.3018
  792MOL0     H 9244   7.774   3.602   9.940 -0.5993  0.1113  1.7612
  792MOL0     H 9245   7.682   3.687   9.652  0.9043 -2.0532  1.1786
  792MOL0     H 9246   7.360   3.928   9.575  0.7829  1.1299 -2.2907
  792MOL0     H 9247   7.353   3.765   9.535 -1.3444  0.2982 -0.6356
  792MOL0     H 9248   7.593   3.763   9.440 -0.2063  1.2222 -2.1492
  792MOL0     H 9249   7.499   3.869   9.355 -2.9870  0.6164  1.2408
  792MOL0     H 9250   7.567   4.068   9.441  1.9980  2.5389  0.2469
  792MOL0     H 9251   7.661   3.988   9.576 -0.4133 -0.7501 -0.5957
  792MOL0     H 9252   7.726   3.915   9.292  0.6103  0.7066 -1.6075
  792MOL0     H 9253   7.802   4.050   9.364  4.0137 -2.5114 -1.0218
  792MOL0     H 9254   7.917   3.732   9.647 -0.4630  0.3693 -2.9803
  792MOL0     H 9255   8.165   3.686   9.846 -0.2211  0.6858  0.0658
  792MOL0     H 9256   7.993   3.691   9.875 -0.7299  0.4157  0.8482
  792MOL0     H 9257   8.101   3.817   9.951 -1.2342 -0.4047  0.2711
  792MOL0     H 9258   8.496   4.245   9.659 -3.0401  1.0454  1.0424
  792MOL0     H 9259   8.718   4.311   9.746  0.3998 -3.6034 -2.2742
  792MOL0     H 9260   8.814   4.240  10.192 -1.2435  0.7610 -0.3873
  792MOL0     H 9261   8.834   4.127  10.065  3.4156 -1.0013 -0.1851
  792MOL0     H 9262   9.031   4.210  10.164 -0.6570  0.0892  0.9010
  792MOL0     H 9263   9.028   4.230   9.985  0.2464  0.9987 -0.0986
  792MOL0     H 9264   8.980   4.437  10.213 -1.8030 -1.7714  0.2243
  792MOL0     H 9265   8.974   4.483  10.053  0.5263  0.6851  1.2511
  792MOL0     H 9266   9.219   4.426  10.016  0.5701 -0.8975  0.8063
  792MOL0     H 9267   9.231   4.349  10.171 -2.6268 -2.6569 -1.9234
  792MOL0     H 9268   9.337   4.562  10.170  0.2464  0.5009  0.7099
  792MOL0     H 9269   9.198   4.650  10.116 -0.4050  1.9124  2.7659
  792MOL0     H 9270   9.254   4.522  10.385  0.9024  2.5112  2.5927
  792MOL0     H 9271   9.100   4.586  10.338  0.5688 -1.4698  1.1137
  792MOL0     H 9272   9.224   4.831  10.329 -1.4698 -0.0781  0.3400
  792MOL0     H 9273   9.372   4.739  10.376 -0.1657  2.1410 -0.9122
  792MOL0     H 9274   9.261   4.861  10.551  3.4538 -2.4352  1.6490
  792MOL0     H 9275   9.268   4.703  10.598 -2.8272 -3.0671  0.4510
  792MOL0     H 9276   8.577   4.233  10.144  2.9262  3.6593 -0.2831
  792MOL0     H 9277   8.377   4.128  10.051  2.0422 -2.0796  1.2368
  792MOL0     H 9278   8.172   4.145   9.600 -0.0798 -0.2099 -1.8244
  792MOL0     H 9279   8.016   4.080   9.426 -1.3935 -0.5291 -0.8204
  792MOL0     H 9280   7.781   2.928   9.065  1.7601  3.1956  2.2025
  792MOL0     H 9281   7.591   2.780   9.040 -2.7664  5.2995 -2.4896
  792MOL0     H 9282   7.296   2.534   9.170  1.2623  1.9667 -1.1293
  792MOL0     H 9283   7.146   2.402   9.062  1.8267  0.7014  1.0912
  792MOL0     H 9284   6.726   2.573   8.982  0.7902  1.8831  0.6661
  792MOL0     H 9285   6.859   2.625   8.871 -3.0399 -0.1000 -2.3855
  792MOL0     H 9286   6.685   2.379   8.836  3.5404 -3.4857  0.8108
  792MOL0     H 9287   6.835   2.405   8.744 -0.0575 -2.0720  1.3635
  792MOL0     H 9288   6.616   2.608   8.764  0.3457 -0.2332  0.2914
  792MOL0     H 9289   6.754   2.621   8.669 -1.4464  3.0981  1.5919
  792MOL0     H 9290   6.573   2.367   8.630  0.7660 -1.4663 -0.2755
  792MOL0     H 9291   6.667   2.445   8.512 -3.6826 -1.1249 -1.6723
  792MOL0     H 9292   6.315   2.662   8.508  0.8842 -0.2037 -2.6465
  792MOL0     H 9293   6.828   2.683   9.138  0.0169  0.2870  0.1378
  792MOL0     H 9294   7.027   2.958   9.133  1.7712  0.0852  1.6157
  792MOL0     H 9295   6.872   2.907   9.196 -0.3494  1.4488  1.2452
  792MOL0     H 9296   6.989   2.924   9.311  2.5489  0.9029  0.0740
  793MOL0     O 9297  10.964  11.491  10.224  0.4576 -0.1969  0.7166
  793MOL0     C 9298  10.922  11.472  10.109 -0.4758 -1.3282 -0.7731
  793MOL0     O 9299  10.963  11.377  10.020  0.8623 -0.5540  0.2831
  793MOL0     C 9300  11.060  11.276  10.035 -0.0486 -2.3608 -0.0051
  793MOL0     C 9301  11.035  11.166   9.938 -0.0143 -0.8500  0.5663
  793MOL0     C 9302  11.122  11.055   9.955 -0.6395 -0.1644 -0.0600
  793MOL0     C 9303  11.237  11.056  10.037  0.3893 -0.5719  1.0759
  793MOL0     O 9304  11.316  10.948  10.061  0.2008  0.0010 -0.1951
  793MOL0     C 9305  11.303  10.850   9.965  0.0958 -0.3249 -0.4966
  793MOL0     C 9306  11.424  10.759   9.971  0.2213 -0.5454 -0.3778
  793MOL0     C 9307  11.549  10.816   9.895 -0.2791 -0.0634  0.1155
  793MOL0     C 9308  11.684  10.736   9.913  0.2264 -1.0550  0.4774
  793MOL0     C 9309  11.803  10.790   9.839  0.6067 -0.4342  0.6090
  793MOL0     C 9310  11.838  10.937   9.871  0.1906  1.3674  0.1361
  793MOL0     C 9311  11.961  10.994   9.818 -0.9159 -0.4781 -0.6206
  793MOL0     C 9312  11.935  11.063   9.691  0.1276  0.6024  0.3886
  793MOL0     N 9313  11.913  10.979   9.568 -0.7619  0.2542 -0.4774
  793MOL0     C 9314  12.002  10.886   9.520 -0.2424  0.4320  0.2088
  793MOL0     C 9315  11.943  10.844   9.400 -0.8090  0.2686 -0.0069
  793MOL0     C 9316  11.990  10.741   9.303 -0.2525 -0.5357 -0.5294
  793MOL0     C 9317  11.984  10.805   9.157 -0.7457  0.2951  0.6274
  793MOL0     C 9318  12.118  10.805   9.085  0.1655  0.7130 -0.0694
  793MOL0     C 9319  12.111  10.845   8.941 -0.9503  0.0955  0.7293
  793MOL0     O 9320  12.241  10.816   8.881 -0.2080 -0.2277  0.4075
  793MOL0     C 9321  12.283  10.697   8.818  0.3774 -0.7044 -1.2269
  793MOL0     C 9322  12.422  10.670   8.803  0.5854 -1.0368 -0.5160
  793MOL0     C 9323  12.466  10.553   8.731  0.6635  0.2537 -0.8723
  793MOL0     C 9324  12.618  10.534   8.711  0.4844  0.2602 -0.7693
  793MOL0     C 9325  12.376  10.454   8.690  0.1288  1.6473 -0.3971
  793MOL0     C 9326  12.405  10.325   8.630  0.2230  0.5195 -0.1470
  793MOL0     O 9327  12.323  10.278   8.524  0.0576 -0.3052 -0.3462
  793MOL0     C 9328  12.350  10.161   8.452  0.3708 -0.4640  0.3562
  793MOL0     C 9329  12.462  10.085   8.454 -0.6064  0.4798  0.4762
  793MOL0     C 9330  12.473   9.969   8.377 -0.6122  0.7491 -0.0172
  793MOL0     C 9331  12.366   9.925   8.296 -1.3503  0.4580 -0.6224
  793MOL0     O 9332  12.386   9.806   8.228 -0.0566 -0.6770  0.3547
  793MOL0     C 9333  12.390   9.817   8.089  0.1533 -0.0388  0.9027
  793MOL0     C 9334  12.280   9.751   8.010  0.5749  0.3829  0.3842
  793MOL0     C 9335  12.335   9.751   7.868 -0.1625  0.0584  0.8182
  793MOL0     C 9336  12.231   9.713   7.764 -0.3026 -0.0216 -1.3673
  793MOL0     C 9337  12.275   9.696   7.626 -0.0433 -0.4760 -0.1140
  793MOL0     C 9338  12.312   9.842   7.571  0.5406 -0.1490 -0.1323
  793MOL0     C 9339  12.388   9.843   7.434 -0.0476 -0.8951 -0.9213
  793MOL0     C 9340  12.539   9.800   7.449  0.6480  0.1787  0.2563
  793MOL0    Cl 9341  12.627   9.910   7.334  0.1898  0.4254  0.3802
  793MOL0     C 9342  12.261  10.016   8.280  0.5427  0.7656 -0.8594
  793MOL0     C 9343  12.256  10.131   8.358 -0.7060  0.0494 -0.6892
  793MOL0     O 9344  12.502  10.262   8.675 -0.0291 -1.1769 -0.4795
  793MOL0     C 9345  12.240  10.482   8.717 -0.0907  0.3713  0.1241
  793MOL0     C 9346  12.191  10.602   8.771 -0.5678 -0.5029  0.6868
  793MOL0     N 9347  11.811  10.892   9.399  0.5863 -0.4225 -0.2836
  793MOL0     N 9348  11.793  10.966   9.497 -0.7783  0.1180  0.2372
  793MOL0     C 9349  11.258  11.170  10.116 -0.4531 -0.2150  0.0443
  793MOL0     C 9350  11.174  11.284  10.114  0.5626 -0.4366 -0.4914
  793MOL0     C 9351  10.810  11.556  10.065 -0.0286  0.5474 -0.1359
  793MOL0     C 9352  10.745  11.513   9.951 -0.2359 -0.6237  0.3356
  793MOL0     C 9353  10.651  11.592   9.890 -0.2955  0.8914 -0.8178
  793MOL0     C 9354  10.613  11.716   9.937 -1.1365  0.6139  0.2302
  793MOL0     O 9355  10.509  11.771   9.867 -0.0511 -0.3642 -0.1622
  793MOL0     C 9356  10.439  11.875   9.942 -0.0193  0.2118  0.1795
  793MOL0     C 9357  10.332  11.807  10.027 -0.2417  0.0969  0.2909
  793MOL0     C 9358  10.283  11.918  10.122  0.7278  0.0853  0.5094
  793MOL0     C 9359  10.162  11.873  10.205 -0.2180  0.3024  0.5088
  793MOL0     C 9360  10.147  11.931  10.337  0.2265 -0.3705  0.4561
  793MOL0     C 9361  10.124  11.957  10.451  0.0194 -0.4741  0.4319
  793MOL0     C 9362  10.682  11.761  10.049  0.2120 -0.0775  0.2636
  793MOL0     C 9363  10.776  11.687  10.116 -0.8295 -0.5263  1.0360
  793MOL0     C 9364  10.850  11.750  10.228  0.3239  0.6522  0.7970
  793MOL0     H 9365  10.949  11.161   9.873  1.5392 -1.4048 -1.5268
  793MOL0     H 9366  11.113  10.970   9.888  1.8905 -1.6272  1.2825
  793MOL0     H 9367  11.300  10.898   9.867 -0.7081 -0.8447 -0.7416
  793MOL0     H 9368  11.209  10.797   9.987 -1.2133 -0.5879 -5.5512
  793MOL0     H 9369  11.457  10.744  10.074 -0.8638  2.3483  0.4800
  793MOL0     H 9370  11.398  10.661   9.929 -0.2916 -0.1400 -1.0153
  793MOL0     H 9371  11.521  10.863   9.800 -2.3956  0.2882  0.8554
  793MOL0     H 9372  11.565  10.903   9.959 -2.1453 -0.5694  1.3459
  793MOL0     H 9373  11.701  10.742  10.021  0.4533 -0.9926  0.4379
  793MOL0     H 9374  11.675  10.632   9.880  0.1586 -0.7073 -0.6473
  793MOL0     H 9375  11.783  10.780   9.732 -0.0904  3.8116  0.1549
  793MOL0     H 9376  11.893  10.729   9.845 -1.1411 -3.1798  0.4250
  793MOL0     H 9377  11.751  11.003   9.861 -0.8342 -0.1687 -1.7619
  793MOL0     H 9378  11.857  10.923   9.978 -2.0397  2.1872  0.7044
  793MOL0     H 9379  12.040  10.919   9.811  1.3639  1.5909  1.3182
  793MOL0     H 9380  11.999  11.063   9.893  2.7455 -0.9824 -1.8253
  793MOL0     H 9381  11.862  11.144   9.701  1.5553  2.0822 -0.5578
  793MOL0     H 9382  12.024  11.125   9.674  2.1835 -1.7606  1.9253
  793MOL0     H 9383  12.093  10.848   9.565 -0.3301 -0.3557 -0.2604
  793MOL0     H 9384  11.940  10.645   9.316 -0.3019 -0.8855 -2.8436
  793MOL0     H 9385  12.092  10.709   9.327 -0.2296  0.2409  0.4795
  793MOL0     H 9386  11.918  10.743   9.096  0.6614 -2.4918  1.7475
  793MOL0     H 9387  11.942  10.906   9.158  0.1265  0.6631  1.6993
  793MOL0     H 9388  12.198  10.870   9.124  1.1606 -0.9139  0.7289
  793MOL0     H 9389  12.161  10.705   9.092 -2.7296 -0.5926  0.6924
  793MOL0     H 9390  12.028  10.799   8.886 -2.1938  4.9953 -2.0391
  793MOL0     H 9391  12.085  10.951   8.942  1.9556  0.9610 -1.7175
  793MOL0     H 9392  12.495  10.741   8.841 -2.2344  1.7338  0.1593
  793MOL0     H 9393  12.670  10.628   8.691  1.6989 -0.2246 -0.0438
  793MOL0     H 9394  12.633  10.471   8.623 -2.4066 -2.4263  0.4589
  793MOL0     H 9395  12.671  10.497   8.800  2.1408 -0.1400 -1.8783
  793MOL0     H 9396  12.553  10.104   8.511  1.2422 -2.5356 -1.2286
  793MOL0     H 9397  12.565   9.913   8.389 -0.3980  0.9431 -0.7158
  793MOL0     H 9398  12.381   9.925   8.076  3.6138  0.2148 -0.2731
  793MOL0     H 9399  12.486   9.775   8.059 -1.0430 -2.3268 -0.0302
  793MOL0     H 9400  12.268   9.647   8.042  0.0156  0.2523 -0.2236
  793MOL0     H 9401  12.185   9.802   8.024 -1.1244 -2.1865 -0.8274
  793MOL0     H 9402  12.416   9.679   7.853 -0.6303 -0.0871 -1.3384
  793MOL0     H 9403  12.374   9.848   7.837  1.7306 -1.3957 -1.7194
  793MOL0     H 9404  12.143   9.776   7.782 -2.1966 -2.5016 -1.3434
  793MOL0     H 9405  12.202   9.612   7.793  2.4070  0.1733  2.8955
  793MOL0     H 9406  12.362   9.631   7.619  2.2004  2.0690  2.0053
  793MOL0     H 9407  12.193   9.650   7.570 -0.6596 -2.6038  2.3459
  793MOL0     H 9408  12.369   9.901   7.644  1.0417  1.5836 -1.8533
  793MOL0     H 9409  12.220   9.899   7.555  2.0707  1.7186 -3.3163
  793MOL0     H 9410  12.382   9.947   7.400  2.0898 -0.1425  0.7765
  793MOL0     H 9411  12.333   9.776   7.368  3.7516 -4.7635 -0.5824
  793MOL0     H 9412  12.546   9.706   7.395  0.3650  1.1839 -1.6222
  793MOL0     H 9413  12.577   9.792   7.551 -1.6076  0.1987  1.1460
  793MOL0     H 9414  12.178   9.986   8.218  0.5651 -1.3342  0.0485
  793MOL0     H 9415  12.167  10.186   8.331 -0.7353  0.4737  0.2388
  793MOL0     H 9416  12.166  10.413   8.676 -0.2871 -0.5728  1.9785
  793MOL0     H 9417  12.085  10.621   8.757 -0.5226 -0.2502  0.6893
  793MOL0     H 9418  11.349  11.169  10.175  0.3090  0.0570 -1.1090
  793MOL0     H 9419  11.177  11.359  10.192  0.0265 -2.2846  1.3731
  793MOL0     H 9420  10.761  11.418   9.900 -2.7709 -0.9261 -0.0015
  793MOL0     H 9421  10.603  11.559   9.798  0.1614 -0.0419 -0.7305
  793MOL0     H 9422  10.513  11.930  10.003 -0.4029 -1.0686  1.8860
  793MOL0     H 9423  10.395  11.955   9.882  0.4149  0.2381 -0.1137
  793MOL0     H 9424  10.365  11.718  10.082 -2.6426 -0.1303  1.5159
  793MOL0     H 9425  10.253  11.761   9.966  2.8160 -3.0683 -1.6896
  793MOL0     H 9426  10.354  11.957  10.196 -2.0504 -2.0728  4.7339
  793MOL0     H 9427  10.251  12.005  10.065 -0.7554 -0.8556 -0.1564
  793MOL0     H 9428  10.162  11.766  10.227  3.3448  0.4893  2.2156
  793MOL0     H 9429  10.068  11.886  10.151 -0.6631  0.7738  1.3688
  793MOL0     H 9430  10.081  11.990  10.543  1.3711 -1.6177  1.5188
  793MOL0     H 9431  10.686  11.864  10.083  1.9491  0.0289 -0.1607
  793MOL0     H 9432  10.871  11.675  10.306  1.9224 -0.9217 -1.0539
  793MOL0     H 9433  10.942  11.793  10.189 -0.8655  1.3115 -1.4700
  793MOL0     H 9434  10.791  11.829  10.276 -0.0709  0.4044  0.7308
  794MOL0     O 9435   8.873   2.854   1.621 -0.1467  0.6581  0.3937
  794MOL0     C 9436   8.995   2.869   1.638 -0.4242  0.4647  0.7189
  794MOL0     O 9437   9.057   2.982   1.679  1.2002 -0.3353 -0.4548
  794MOL0     C 9438   8.967   3.089   1.699  0.1275  0.1703 -0.8095
  794MOL0     C 9439   8.900   3.094   1.823 -0.3376  0.7875  0.4989
  794MOL0     C 9440   8.830   3.214   1.857  0.1639  0.3935 -0.1723
  794MOL0     C 9441   8.816   3.317   1.768 -0.7562 -0.3945 -1.0088
  794MOL0     O 9442   8.770   3.447   1.788 -0.4510  0.2797 -0.2472
  794MOL0     C 9443   8.638   3.441   1.852  1.0039 -0.1279  0.1388
  794MOL0     C 9444   8.544   3.392   1.739 -0.1687  0.5641  0.0832
  794MOL0     C 9445   8.541   3.490   1.615  0.4787  0.2124 -0.1348
  794MOL0     C 9446   8.488   3.635   1.647 -0.1943 -0.6124  0.1208
  794MOL0     C 9447   8.364   3.650   1.730 -0.2988 -1.4290 -0.3813
  794MOL0     C 9448   8.330   3.804   1.738  0.0021  0.3669 -0.0241
  794MOL0     C 9449   8.187   3.825   1.797  0.1548 -0.6024  0.0407
  794MOL0     C 9450   8.119   3.968   1.813 -0.0340 -0.5577 -0.0891
  794MOL0     N 9451   8.081   4.035   1.680 -0.7850  0.2201  0.1489
  794MOL0     C 9452   8.135   4.151   1.640  0.2149 -1.1783 -0.1325
  794MOL0     C 9453   8.062   4.186   1.534 -0.3124 -0.4441 -0.1820
  794MOL0     C 9454   8.084   4.310   1.446 -0.6368 -0.3655 -0.0462
  794MOL0     C 9455   8.156   4.272   1.314  0.1797 -0.5814 -0.7281
  794MOL0     C 9456   8.255   4.378   1.261 -1.2330  0.7713  0.0404
  794MOL0     C 9457   8.399   4.351   1.322  0.1340 -0.0667  0.4858
  794MOL0     O 9458   8.403   4.330   1.462  0.1790  0.5589 -0.7095
  794MOL0     C 9459   8.507   4.243   1.494 -0.6786  0.9329 -0.2269
  794MOL0     C 9460   8.636   4.286   1.479 -1.1340 -1.6354 -0.1318
  794MOL0     C 9461   8.748   4.219   1.508 -0.6964  0.5036  0.4909
  794MOL0     C 9462   8.885   4.285   1.483 -0.2442 -0.5035  0.7002
  794MOL0     C 9463   8.732   4.091   1.562 -0.3312 -0.0155  0.7335
  794MOL0     C 9464   8.838   3.995   1.583  0.4632 -0.8330 -0.5432
  794MOL0     O 9465   8.966   4.039   1.539  0.6629  0.4814 -0.2215
  794MOL0     C 9466   9.084   3.975   1.567 -1.0820  0.2650 -0.1908
  794MOL0     C 9467   9.144   3.880   1.483 -0.7274 -0.9005  0.5936
  794MOL0     C 9468   9.271   3.837   1.514 -0.1895 -0.5149 -0.0338
  794MOL0     C 9469   9.333   3.863   1.634 -0.3405 -0.8178 -0.3463
  794MOL0     O 9470   9.450   3.808   1.672  0.1140  0.7490  0.5011
  794MOL0     C 9471   9.452   3.714   1.782  0.1203 -0.1406  1.1045
  794MOL0     C 9472   9.553   3.741   1.889 -0.4073  0.1448  0.4962
  794MOL0     C 9473   9.509   3.848   1.988 -1.0359 -0.7166  0.4749
  794MOL0     C 9474   9.386   3.832   2.081  0.9473  0.3350  0.1364
  794MOL0     C 9475   9.418   3.754   2.206 -0.3919 -0.5462 -0.1478
  794MOL0     C 9476   9.476   3.612   2.202 -0.5790  0.3363  0.5008
  794MOL0     C 9477   9.482   3.550   2.336  0.9984 -0.9573 -0.3203
  794MOL0     C 9478   9.547   3.412   2.363  0.4998 -0.0558 -0.2956
  794MOL0    Cl 9479   9.709   3.419   2.328  0.1642  0.6030 -0.1982
  794MOL0     C 9480   9.276   3.953   1.726 -0.8292 -0.1695 -0.9274
  794MOL0     C 9481   9.149   4.012   1.692 -0.3677  0.6669 -0.6794
  794MOL0     O 9482   8.816   3.882   1.618 -0.3338  0.3801  0.0615
  794MOL0     C 9483   8.603   4.038   1.580  0.1499  0.5235 -0.7317
  794MOL0     C 9484   8.489   4.117   1.545  0.7821  0.6996  1.1490
  794MOL0     N 9485   7.960   4.095   1.529  0.6446 -0.6565  0.2722
  794MOL0     N 9486   7.976   3.998   1.601 -0.0014  0.2597  0.1996
  794MOL0     C 9487   8.891   3.310   1.648  0.3397  0.4890 -0.4286
  794MOL0     C 9488   8.970   3.202   1.616 -0.1244  0.0115  0.4117
  794MOL0     C 9489   9.091   2.753   1.632  0.3202  0.0264  0.3145
  794MOL0     C 9490   9.199   2.761   1.726  0.3055  0.0522  0.1247
  794MOL0     C 9491   9.287   2.650   1.736 -1.5031 -0.5746 -0.0504
  794MOL0     C 9492   9.270   2.535   1.664 -0.4150 -0.0628  1.2354
  794MOL0     O 9493   9.343   2.424   1.673 -1.1274 -0.0681 -0.2263
  794MOL0     C 9494   9.414   2.395   1.797 -0.6628 -0.9532 -0.3475
  794MOL0     C 9495   9.306   2.357   1.909  0.5918  0.5007 -0.5213
  794MOL0     C 9496   9.210   2.238   1.862 -0.2710  1.0281 -0.1299
  794MOL0     C 9497   9.235   2.109   1.947  0.3399 -0.4465  0.9423
  794MOL0     C 9498   9.332   2.024   1.885 -0.4419 -0.8434 -0.2549
  794MOL0     C 9499   9.412   1.935   1.849 -0.1648 -0.2814  0.0717
  794MOL0     C 9500   9.151   2.522   1.583 -1.2141 -0.3608  0.8333
  794MOL0     C 9501   9.070   2.631   1.561 -0.1410  0.3020  0.2905
  794MOL0     C 9502   8.944   2.608   1.472  0.5871  0.8166  0.0002
  794MOL0     H 9503   8.913   3.014   1.895  2.1387 -0.7977 -1.5377
  794MOL0     H 9504   8.795   3.228   1.959 -0.8722  0.5078 -0.5292
  794MOL0     H 9505   8.599   3.538   1.885 -1.2291 -1.3445  1.2775
  794MOL0     H 9506   8.641   3.388   1.947  0.6324  1.4696  1.0836
  794MOL0     H 9507   8.575   3.291   1.709  1.8568  1.0347  0.4455
  794MOL0     H 9508   8.442   3.391   1.778 -0.0514  2.6381  0.5346
  794MOL0     H 9509   8.640   3.504   1.570  0.0271  2.2073 -0.6079
  794MOL0     H 9510   8.471   3.448   1.542 -0.9264 -1.1408  1.8818
  794MOL0     H 9511   8.573   3.682   1.699  2.1747 -0.4082 -3.5852
  794MOL0     H 9512   8.484   3.699   1.559  2.3845 -0.1280  0.2759
  794MOL0     H 9513   8.367   3.611   1.832  0.2608 -1.2791 -0.3339
  794MOL0     H 9514   8.282   3.605   1.675 -0.9199 -0.4143 -0.3153
  794MOL0     H 9515   8.402   3.852   1.805  0.5495  2.5455 -2.0077
  794MOL0     H 9516   8.343   3.858   1.644 -0.6861  0.9470  0.2065
  794MOL0     H 9517   8.190   3.791   1.901 -0.8837  0.8406  0.5799
  794MOL0     H 9518   8.113   3.761   1.747 -0.0381 -0.5993  0.3189
  794MOL0     H 9519   8.028   3.953   1.871 -0.6074  2.0993 -0.1697
  794MOL0     H 9520   8.191   4.037   1.858  0.8702 -0.8616 -1.0348
  794MOL0     H 9521   8.215   4.208   1.687 -0.9128  0.9873 -0.6699
  794MOL0     H 9522   8.141   4.390   1.493  0.7917 -1.3266 -0.0905
  794MOL0     H 9523   7.992   4.361   1.413  0.1900  0.0410 -1.8298
  794MOL0     H 9524   8.212   4.180   1.333 -0.6323 -0.5891  2.0259
  794MOL0     H 9525   8.087   4.247   1.233  1.0145  1.8607 -2.3373
  794MOL0     H 9526   8.272   4.374   1.153 -0.9609 -1.2233  0.1259
  794MOL0     H 9527   8.234   4.480   1.293  0.4264  0.5229  2.1073
  794MOL0     H 9528   8.436   4.258   1.277  1.5157 -0.4347  2.2803
  794MOL0     H 9529   8.467   4.425   1.277 -1.9764 -0.0873 -3.1355
  794MOL0     H 9530   8.664   4.376   1.427  2.5577 -3.8152 -2.3931
  794MOL0     H 9531   8.866   4.393   1.479 -2.1001 -0.7939 -3.0371
  794MOL0     H 9532   8.931   4.254   1.389  0.3892  1.9295  0.1333
  794MOL0     H 9533   8.961   4.273   1.561  1.3160  2.4221 -0.2159
  794MOL0     H 9534   9.099   3.859   1.386 -0.9257  1.5425  0.0901
  794MOL0     H 9535   9.341   3.784   1.450  1.9190  1.3500  0.5850
  794MOL0     H 9536   9.352   3.713   1.827 -1.0254  1.8124 -1.1906
  794MOL0     H 9537   9.471   3.617   1.736 -0.5093 -0.2534  1.0745
  794MOL0     H 9538   9.594   3.648   1.931  0.6554  0.5504  0.3641
  794MOL0     H 9539   9.643   3.785   1.847 -2.1483  4.1199  0.5463
  794MOL0     H 9540   9.499   3.938   1.927  3.0287 -0.3046  0.1058
  794MOL0     H 9541   9.595   3.870   2.051 -1.6838 -0.1448  1.1711
  794MOL0     H 9542   9.305   3.788   2.023  0.2542  1.7768 -0.0358
  794MOL0     H 9543   9.350   3.929   2.117  2.6807  1.4144 -0.8819
  794MOL0     H 9544   9.493   3.809   2.264  0.2810 -1.9230  0.3378
  794MOL0     H 9545   9.327   3.753   2.267 -0.3024  1.5208  0.1079
  794MOL0     H 9546   9.577   3.613   2.159 -0.8579  1.2628 -0.1616
  794MOL0     H 9547   9.413   3.559   2.130 -2.1587  0.7280  1.5549
  794MOL0     H 9548   9.379   3.537   2.372  0.7639 -2.9864 -1.6143
  794MOL0     H 9549   9.531   3.628   2.395  3.0368 -1.6928 -0.9540
  794MOL0     H 9550   9.499   3.346   2.291 -0.8487  2.2402 -1.6143
  794MOL0     H 9551   9.519   3.383   2.464  1.7065 -1.8181 -0.4224
  794MOL0     H 9552   9.329   3.983   1.816  3.2779 -0.1402 -3.1093
  794MOL0     H 9553   9.098   4.080   1.760  0.8057 -1.1668  2.2248
  794MOL0     H 9554   8.587   3.940   1.623 -1.9989 -0.2937 -3.1245
  794MOL0     H 9555   8.392   4.091   1.586  0.5920  1.1218  0.9788
  794MOL0     H 9556   8.892   3.400   1.588  1.0767 -0.2019 -1.4798
  794MOL0     H 9557   9.026   3.197   1.523 -1.3810  0.8856 -0.4260
  794MOL0     H 9558   9.218   2.853   1.780  0.6572  0.7275 -1.1115
  794MOL0     H 9559   9.366   2.667   1.809  0.1794  2.5042 -2.3595
  794MOL0     H 9560   9.473   2.304   1.787 -0.6187 -0.6797 -3.5991
  794MOL0     H 9561   9.480   2.473   1.836 -0.4506 -0.7727 -1.0563
  794MOL0     H 9562   9.233   2.434   1.936 -0.9998 -1.0098 -0.3026
  794MOL0     H 9563   9.349   2.318   2.002  0.2188 -3.8270 -1.9145
  794MOL0     H 9564   9.107   2.274   1.871 -0.9213 -1.0377  1.2765
  794MOL0     H 9565   9.234   2.215   1.757 -0.0427 -0.6330  0.2512
  794MOL0     H 9566   9.141   2.053   1.942 -0.2838  0.5933 -3.4022
  794MOL0     H 9567   9.269   2.139   2.046 -1.6546 -0.6658  1.7489
  794MOL0     H 9568   9.486   1.864   1.817 -0.9758 -1.8238  1.4242
  794MOL0     H 9569   9.133   2.425   1.538 -1.5188  0.4300 -0.7880
  794MOL0     H 9570   8.869   2.541   1.515 -2.9530  1.2114 -4.7551
  794MOL0     H 9571   8.897   2.701   1.437 -0.5522  0.2595  0.0401
  794MOL0     H 9572   8.973   2.556   1.381 -1.2069  2.9183 -1.8791
  795MOL0     O 9573   0.282   5.899   2.326  0.0254  0.0968  0.3811
  795MOL0     C 9574   0.240   5.914   2.442  0.3627  0.0808 -0.7380
  795MOL0     O 9575   0.314   5.891   2.551 -0.1965 -0.0051  0.5452
  795MOL0     C 9576   0.424   5.806   2.535  0.0754  0.6352 -0.0438
  795MOL0     C 9577   0.551   5.853   2.558  0.3915  0.1594 -0.1950
  795MOL0     C 9578   0.670   5.775   2.557 -0.4980 -0.4971  0.2470
  795MOL0     C 9579   0.652   5.635   2.526  0.7609 -0.6963 -0.1693
  795MOL0     O 9580   0.762   5.565   2.516  0.3403 -0.4845 -0.0456
  795MOL0     C 9581   0.778   5.491   2.388 -0.5250 -0.0067 -0.2263
  795MOL0     C 9582   0.884   5.393   2.365 -0.2007  1.0186  0.3891
  795MOL0     C 9583   0.951   5.383   2.229 -0.0687  0.0952  0.2753
  795MOL0     C 9584   0.866   5.296   2.122 -0.0943 -0.4128  0.4398
  795MOL0     C 9585   0.933   5.293   1.980 -0.2973  0.7793 -0.4079
  795MOL0     C 9586   0.887   5.420   1.909 -0.4364 -0.1935  0.2828
  795MOL0     C 9587   0.885   5.399   1.755 -1.0137  1.6997 -0.4181
  795MOL0     C 9588   0.774   5.293   1.706 -0.4631  0.8622  0.2889
  795MOL0     N 9589   0.718   5.300   1.574  0.0117 -0.3963  0.3802
  795MOL0     C 9590   0.618   5.219   1.525  0.2905 -0.4568  0.1859
  795MOL0     C 9591   0.557   5.282   1.425 -0.0143  0.2790 -0.4337
  795MOL0     C 9592   0.416   5.239   1.372  0.2506 -1.0987  0.3132
  795MOL0     C 9593   0.303   5.287   1.459  0.1137 -0.4854 -0.5839
  795MOL0     C 9594   0.229   5.399   1.386 -0.1361 -0.0537  1.0134
  795MOL0     C 9595   0.117   5.452   1.465 -0.5589 -0.1136  0.2114
  795MOL0     O 9596   0.170   5.516   1.584 -0.9070  0.1340 -0.5073
  795MOL0     C 9597   0.081   5.572   1.680 -0.2999  0.7820  1.1120
  795MOL0     C 9598  -0.044   5.631   1.639 -0.3150 -0.2877 -0.7424
  795MOL0     C 9599  -0.106   5.721   1.728 -0.3997  0.3124 -0.6734
  795MOL0     C 9600  -0.222   5.792   1.672  0.6324 -0.4589 -0.0216
  795MOL0     C 9601  -0.060   5.728   1.859 -0.2683 -0.3408 -0.0963
  795MOL0     C 9602  -0.109   5.833   1.950  1.4444  0.4451 -0.7660
  795MOL0     O 9603  -0.037   5.946   1.938  0.7166  0.1417 -0.2179
  795MOL0     C 9604  -0.081   6.048   2.024 -0.9143  0.7582  0.4497
  795MOL0     C 9605   0.021   6.132   2.073  0.7723 -0.0941  0.4081
  795MOL0     C 9606  -0.018   6.247   2.147  0.8511  0.4746 -0.2108
  795MOL0     C 9607  -0.153   6.293   2.154  0.2527 -0.7751 -0.2116
  795MOL0     O 9608  -0.209   6.401   2.225 -0.0298  0.0030 -0.2917
  795MOL0     C 9609  -0.115   6.492   2.286  0.7009 -0.3993 -0.5520
  795MOL0     C 9610  -0.054   6.447   2.413  0.0577  0.4837 -0.9931
  795MOL0     C 9611  -0.126   6.482   2.543 -0.4280  1.2472  0.2129
  795MOL0     C 9612  -0.171   6.630   2.551 -0.2987  0.4320 -0.3607
  795MOL0     C 9613  -0.087   6.736   2.485 -0.6319  0.4065 -0.0401
  795MOL0     C 9614  -0.126   6.881   2.523  0.0181  0.0772 -0.0636
  795MOL0     C 9615  -0.012   6.986   2.548 -1.2060  0.1214  0.9241
  795MOL0     C 9616   0.065   6.954   2.679  0.1114 -0.1517  0.8750
  795MOL0    Cl 9617   0.175   7.089   2.739  0.3829  0.2423 -0.1521
  795MOL0     C 9618  -0.248   6.221   2.088  0.2034 -0.1788 -0.2649
  795MOL0     C 9619  -0.211   6.101   2.023  0.6613  0.3730 -0.5089
  795MOL0     O 9620  -0.220   5.818   2.004 -0.2237 -0.1789 -1.6772
  795MOL0     C 9621   0.050   5.650   1.901 -0.0788  0.0602  0.7022
  795MOL0     C 9622   0.121   5.577   1.811  0.3498 -0.2825 -0.8492
  795MOL0     N 9623   0.621   5.410   1.418  0.5245  0.0708 -0.8381
  795MOL0     N 9624   0.708   5.422   1.516  1.0912  0.5387 -0.1422
  795MOL0     C 9625   0.522   5.591   2.504  0.6153  0.4637  0.5043
  795MOL0     C 9626   0.412   5.671   2.502  0.5885 -0.3593 -0.2202
  795MOL0     C 9627   0.098   5.971   2.456  0.4581  0.6839 -0.1607
  795MOL0     C 9628   0.075   6.068   2.548 -0.1023  0.5706 -1.0544
  795MOL0     C 9629  -0.056   6.115   2.578 -1.0109 -0.8567  0.4048
  795MOL0     C 9630  -0.163   6.083   2.502 -0.5002  0.0584 -0.2222
  795MOL0     O 9631  -0.287   6.146   2.516 -0.1501  1.0424 -0.2464
  795MOL0     C 9632  -0.392   6.129   2.425  0.6667 -0.0291  0.2775
  795MOL0     C 9633  -0.502   6.242   2.437 -0.2114  1.0404  0.3446
  795MOL0     C 9634  -0.538   6.288   2.573  0.0199 -0.1969 -0.6191
  795MOL0     C 9635  -0.572   6.182   2.680  0.0671 -0.2554  0.0169
  795MOL0     C 9636  -0.717   6.165   2.699 -0.3272 -0.3516 -0.8740
  795MOL0     C 9637  -0.833   6.163   2.748  0.4436 -0.6557 -0.1360
  795MOL0     C 9638  -0.136   5.984   2.399  0.9862 -0.0529  0.2014
  795MOL0     C 9639  -0.012   5.918   2.386  0.3581 -0.4451 -0.3733
  795MOL0     C 9640   0.001   5.788   2.309 -0.4950 -0.1972 -0.1178
  795MOL0     H 9641   0.587   5.955   2.547  3.2419 -0.8458 -1.2782
  795MOL0     H 9642   0.766   5.822   2.574 -0.9028  0.5177 -0.2120
  795MOL0     H 9643   0.782   5.573   2.315  1.4214  0.6873  0.5829
  795MOL0     H 9644   0.690   5.426   2.382 -1.0784  0.4360  2.1778
  795MOL0     H 9645   0.970   5.419   2.427  0.4905  2.0223 -0.9483
  795MOL0     H 9646   0.857   5.295   2.405  0.3147  1.0738  0.8841
  795MOL0     H 9647   0.981   5.480   2.187  3.3072 -0.2057  1.6578
  795MOL0     H 9648   1.037   5.317   2.244  3.4172  4.0284 -0.6626
  795MOL0     H 9649   0.841   5.197   2.160 -1.2601 -0.2529  0.1384
  795MOL0     H 9650   0.768   5.339   2.100  0.7096  0.6296 -1.2877
  795MOL0     H 9651   0.916   5.203   1.919  1.2061  0.5391 -0.5156
  795MOL0     H 9652   1.040   5.293   2.003  0.0420 -2.1129 -1.5968
  795MOL0     H 9653   0.786   5.450   1.938 -1.1999 -2.7091  0.4657
  795MOL0     H 9654   0.952   5.504   1.932  0.4869 -0.2331 -1.9887
  795MOL0     H 9655   0.983   5.363   1.724 -2.9160 -1.8638 -3.0466
  795MOL0     H 9656   0.869   5.500   1.716 -1.7550  0.8879 -2.3435
  795MOL0     H 9657   0.811   5.190   1.705 -1.5704  0.4379  1.1128
  795MOL0     H 9658   0.691   5.298   1.778 -2.4138  1.8342 -1.8995
  795MOL0     H 9659   0.598   5.119   1.561 -0.9264 -1.9938 -4.1606
  795MOL0     H 9660   0.407   5.130   1.366 -1.6224 -0.9015 -1.2199
  795MOL0     H 9661   0.425   5.283   1.272  2.9344 -2.7921 -0.3076
  795MOL0     H 9662   0.234   5.203   1.473 -2.4608  1.1623 -2.4177
  795MOL0     H 9663   0.333   5.320   1.559 -1.9495 -0.1034 -0.0352
  795MOL0     H 9664   0.297   5.481   1.358  2.7032 -2.9570 -1.4457
  795MOL0     H 9665   0.179   5.368   1.294 -4.3459  1.9627  2.3563
  795MOL0     H 9666   0.063   5.525   1.404 -0.4987 -1.2662 -1.2857
  795MOL0     H 9667   0.049   5.375   1.500 -0.0079 -0.1490  1.2404
  795MOL0     H 9668  -0.067   5.624   1.533 -0.7225 -0.8919 -0.6156
  795MOL0     H 9669  -0.299   5.820   1.744 -0.2159  0.4894 -1.2476
  795MOL0     H 9670  -0.270   5.742   1.586 -3.4265 -1.4691  2.5159
  795MOL0     H 9671  -0.199   5.890   1.629 -1.5871  0.6905  1.2097
  795MOL0     H 9672   0.121   6.091   2.069  1.3097  1.2512 -0.7621
  795MOL0     H 9673   0.054   6.304   2.205 -0.1863 -0.4209  2.0745
  795MOL0     H 9674  -0.036   6.526   2.218  1.6804 -0.0160  0.7536
  795MOL0     H 9675  -0.178   6.578   2.311 -1.2914 -2.5397  2.3506
  795MOL0     H 9676  -0.038   6.339   2.401 -4.9242 -0.8288  1.3513
  795MOL0     H 9677   0.046   6.492   2.416 -0.3357  1.2930  0.1968
  795MOL0     H 9678  -0.055   6.466   2.625 -1.0221  0.7427  0.6317
  795MOL0     H 9679  -0.217   6.423   2.554 -0.9207  1.4383 -2.3246
  795MOL0     H 9680  -0.183   6.659   2.656  0.6282  2.0514 -0.6688
  795MOL0     H 9681  -0.275   6.625   2.517 -0.6989 -2.0151  0.9532
  795MOL0     H 9682   0.016   6.726   2.521 -0.3990  1.9065 -0.2379
  795MOL0     H 9683  -0.067   6.728   2.378  3.9345 -0.1614  0.6561
  795MOL0     H 9684  -0.197   6.883   2.606  0.3628  0.6067  0.2218
  795MOL0     H 9685  -0.196   6.918   2.448 -0.1336  1.3628  0.6909
  795MOL0     H 9686  -0.050   7.088   2.552  0.2651  0.9619 -2.7321
  795MOL0     H 9687   0.057   6.985   2.463 -0.3102 -4.9983  1.3725
  795MOL0     H 9688   0.133   6.871   2.656 -1.0435 -1.7296  2.7593
  795MOL0     H 9689  -0.000   6.915   2.758 -0.0000  0.1767  0.9465
  795MOL0     H 9690  -0.350   6.242   2.117  0.6852 -1.6896  2.9220
  795MOL0     H 9691  -0.290   6.041   1.979  1.8241 -0.8441 -0.9909
  795MOL0     H 9692   0.079   5.656   2.006  0.3147 -0.8513  0.6617
  795MOL0     H 9693   0.202   5.519   1.853 -1.9337 -0.3887  4.1080
  795MOL0     H 9694   0.504   5.488   2.476  1.9701  0.5827 -0.9158
  795MOL0     H 9695   0.311   5.640   2.479  0.5951 -0.1541 -0.5273
  795MOL0     H 9696   0.148   6.107   2.618 -0.0419 -0.4709 -0.5132
  795MOL0     H 9697  -0.080   6.180   2.662 -0.8060 -2.0460  1.4167
  795MOL0     H 9698  -0.344   6.131   2.327  0.8803  2.7308  0.3761
  795MOL0     H 9699  -0.441   6.031   2.432  0.5697  0.1223  2.3257
  795MOL0     H 9700  -0.596   6.207   2.393  0.3990 -0.4508  0.1638
  795MOL0     H 9701  -0.457   6.332   2.396 -1.3243  2.0784  1.3379
  795MOL0     H 9702  -0.454   6.354   2.597 -0.8003  1.5025 -2.1401
  795MOL0     H 9703  -0.619   6.361   2.567 -1.5959 -1.7645  1.1285
  795MOL0     H 9704  -0.513   6.200   2.771 -0.5038  1.5098  0.0790
  795MOL0     H 9705  -0.542   6.089   2.629 -1.8751  0.8377 -3.3965
  795MOL0     H 9706  -0.932   6.145   2.784  1.4554 -1.9232  2.2320
  795MOL0     H 9707  -0.214   5.953   2.330  3.6473 -0.6443 -2.7618
  795MOL0     H 9708   0.052   5.817   2.217 -0.8844  0.9207  0.0004
  795MOL0     H 9709   0.052   5.708   2.364 -0.8721 -0.2051  0.2307
  795MOL0     H 9710  -0.095   5.743   2.282 -0.0128 -1.0536 -0.4419
  796MOL0     O 9711  11.292   2.579   7.041  0.5180  0.2202 -0.5005
  796MOL0     C 9712  11.406   2.590   6.986  0.4281 -0.7849 -0.0712
  796MOL0     O 9713  11.441   2.497   6.893  0.1547  0.6367  0.2238
  796MOL0     C 9714  11.384   2.395   6.822 -0.1339 -0.2312 -0.2445
  796MOL0     C 9715  11.253   2.390   6.781  0.0985 -0.1554  0.1639
  796MOL0     C 9716  11.209   2.280   6.700  0.8870 -1.3460  0.2240
  796MOL0     C 9717  11.295   2.174   6.673  1.0716  0.9495  0.2725
  796MOL0     O 9718  11.269   2.052   6.624  0.2267 -0.8929  0.0157
  796MOL0     C 9719  11.148   2.040   6.540 -0.2201 -0.7465 -0.7683
  796MOL0     C 9720  11.127   1.884   6.526 -0.2471  0.5040  1.3601
  796MOL0     C 9721  11.072   1.804   6.654  0.3655  0.3815 -0.7247
  796MOL0     C 9722  11.019   1.666   6.606 -0.2679 -0.7906 -0.4243
  796MOL0     C 9723  10.997   1.566   6.716  0.5286  0.6766 -0.4200
  796MOL0     C 9724  10.872   1.592   6.810  0.0919 -0.0691 -0.1418
  796MOL0     C 9725  10.730   1.536   6.779  0.3141  0.6810 -0.3752
  796MOL0     C 9726  10.701   1.430   6.882  0.2006  1.1475 -1.1503
  796MOL0     N 9727  10.779   1.313   6.879  0.6500 -0.3725 -0.0728
  796MOL0     C 9728  10.837   1.275   6.996 -0.5346  0.1745  0.0927
  796MOL0     C 9729  10.887   1.150   6.972  0.6138 -0.3708 -0.3400
  796MOL0     C 9730  10.940   1.047   7.068  0.4863  0.1174 -0.8091
  796MOL0     C 9731  10.836   0.928   7.095  0.1073 -0.4295  0.5780
  796MOL0     C 9732  10.841   0.831   6.980  0.5292  0.3133 -0.6524
  796MOL0     C 9733  10.771   0.700   7.033  0.7552  0.4268  0.0795
  796MOL0     O 9734  10.803   0.600   6.938  0.1026 -0.4175 -0.5642
  796MOL0     C 9735  10.721   0.593   6.825 -0.1946  0.2353  0.4085
  796MOL0     C 9736  10.776   0.587   6.698 -1.0545 -0.9703  0.7292
  796MOL0     C 9737  10.705   0.579   6.574  0.8123  0.6642 -1.1155
  796MOL0     C 9738  10.799   0.594   6.452  0.0254 -0.5141  0.2501
  796MOL0     C 9739  10.559   0.563   6.584 -0.8509 -0.1850 -0.4710
  796MOL0     C 9740  10.472   0.553   6.467 -0.6877 -1.5383 -0.0475
  796MOL0     O 9741  10.346   0.607   6.473 -0.2773  0.3335 -0.2688
  796MOL0     C 9742  10.258   0.537   6.393  0.8373 -0.1794 -0.6598
  796MOL0     C 9743  10.258   0.402   6.386 -0.6177  0.4538 -0.3615
  796MOL0     C 9744  10.163   0.336   6.306  0.5882  0.5721 -0.0230
  796MOL0     C 9745  10.071   0.406   6.221  0.2904  0.3451  0.3531
  796MOL0     O 9746   9.972   0.336   6.147 -0.7672 -0.4462  0.1159
  796MOL0     C 9747   9.873   0.407   6.073 -0.5537 -0.6817 -0.6545
  796MOL0     C 9748   9.788   0.311   6.002 -0.6042  1.0067  0.8088
  796MOL0     C 9749   9.695   0.216   6.087 -0.7854 -0.6798 -0.2627
  796MOL0     C 9750   9.622   0.102   6.009 -0.7624  1.5288  0.4008
  796MOL0     C 9751   9.526   0.146   5.908 -0.1182  0.9617 -0.5798
  796MOL0     C 9752   9.399   0.167   5.983 -0.3580 -0.1892 -0.5335
  796MOL0     C 9753   9.295   0.179   5.871  0.0875 -0.2529 -0.2092
  796MOL0     C 9754   9.184   0.262   5.919 -1.0662 -0.4369  0.5109
  796MOL0    Cl 9755   9.065   0.263   5.780 -0.6390  0.1720  0.1252
  796MOL0     C 9756  10.095   0.546   6.216  0.2695 -0.2987  1.1633
  796MOL0     C 9757  10.179   0.611   6.302  0.1687  0.9157  0.0734
  796MOL0     O 9758  10.527   0.509   6.372  0.5602 -0.5366 -0.3095
  796MOL0     C 9759  10.512   0.543   6.713  0.3095 -0.4345 -0.4587
  796MOL0     C 9760  10.588   0.559   6.824 -0.2256 -0.8779 -0.0730
  796MOL0     N 9761  10.868   1.129   6.835  0.0289 -0.1410 -0.3627
  796MOL0     N 9762  10.804   1.230   6.783 -0.5860  0.9577  0.7214
  796MOL0     C 9763  11.429   2.192   6.715 -0.0628  0.3983 -0.2147
  796MOL0     C 9764  11.469   2.300   6.788  0.6272 -0.8232  0.6888
  796MOL0     C 9765  11.495   2.704   7.017 -0.2448  0.0176  0.5705
  796MOL0     C 9766  11.483   2.768   7.135 -0.3328  0.2937 -0.5725
  796MOL0     C 9767  11.564   2.874   7.176  0.3959  0.6475  1.4250
  796MOL0     C 9768  11.659   2.927   7.086  0.5502  0.5145  0.6987
  796MOL0     O 9769  11.743   3.027   7.118 -0.4470 -1.1296  1.0641
  796MOL0     C 9770  11.802   3.044   7.243  1.1051 -0.1701 -0.1245
  796MOL0     C 9771  11.917   3.129   7.201 -0.7525  1.0158 -0.4983
  796MOL0     C 9772  12.017   3.151   7.312 -0.3682  1.0343 -0.0580
  796MOL0     C 9773  12.107   3.032   7.340  0.0781  0.8130  0.6522
  796MOL0     C 9774  12.192   3.070   7.451 -0.4008  0.4773  0.2986
  796MOL0     C 9775  12.241   3.112   7.553 -0.3318 -1.0466 -0.3187
  796MOL0     C 9776  11.664   2.870   6.952  0.8215 -0.1683 -0.8170
  796MOL0     C 9777  11.587   2.761   6.926 -0.4438 -0.0492  0.4462
  796MOL0     C 9778  11.610   2.707   6.783 -0.6410  0.7917 -0.9407
  796MOL0     H 9779  11.181   2.471   6.793 -1.2768 -1.5053  1.4110
  796MOL0     H 9780  11.107   2.265   6.669  0.8289 -1.2920  0.3882
  796MOL0     H 9781  11.176   2.078   6.441  1.1694  4.9148  1.4227
  796MOL0     H 9782  11.058   2.092   6.574  0.3029  0.1097 -0.6646
  796MOL0     H 9783  11.071   1.863   6.435 -0.6523 -0.8070  1.8820
  796MOL0     H 9784  11.228   1.848   6.505  0.5456  2.1350  2.1823
  796MOL0     H 9785  11.150   1.791   6.730  0.6552 -0.1902 -1.1194
  796MOL0     H 9786  10.992   1.863   6.701 -0.6777 -2.0481  0.7209
  796MOL0     H 9787  10.937   1.668   6.533 -1.2250  0.2365  0.6371
  796MOL0     H 9788  11.105   1.622   6.555 -1.3759 -2.6144 -0.8252
  796MOL0     H 9789  11.084   1.585   6.781 -1.1386 -1.7094  2.8077
  796MOL0     H 9790  10.998   1.460   6.688 -3.2962 -0.2220  1.9737
  796MOL0     H 9791  10.911   1.558   6.906  1.7409  0.1710 -0.6873
  796MOL0     H 9792  10.866   1.700   6.829  1.8963 -0.4016  2.9904
  796MOL0     H 9793  10.729   1.506   6.674  1.3842 -0.7335 -0.0211
  796MOL0     H 9794  10.651   1.610   6.793  1.2190  1.2420  2.3910
  796MOL0     H 9795  10.715   1.475   6.980  4.4855  3.7410 -2.6449
  796MOL0     H 9796  10.601   1.388   6.867  0.5980 -1.4027  2.1280
  796MOL0     H 9797  10.828   1.322   7.094  0.9328 -1.2256  0.9557
  796MOL0     H 9798  10.960   1.100   7.162 -1.9678 -0.2510 -0.0097
  796MOL0     H 9799  11.031   1.003   7.026 -0.4898 -1.7667 -1.0483
  796MOL0     H 9800  10.854   0.880   7.192  1.6869  2.2756  1.7318
  796MOL0     H 9801  10.736   0.972   7.096 -0.0873 -0.1497 -4.6850
  796MOL0     H 9802  10.793   0.884   6.897  1.3435  2.3299  0.1013
  796MOL0     H 9803  10.944   0.813   6.947  0.3360 -0.5921 -0.7740
  796MOL0     H 9804  10.817   0.665   7.126 -2.6601  0.6226  2.0374
  796MOL0     H 9805  10.664   0.717   7.049  1.0160  0.4829  2.1075
  796MOL0     H 9806  10.881   0.611   6.686 -0.7854 -1.7284  1.4792
  796MOL0     H 9807  10.756   0.657   6.373  0.7349  3.1334  2.5462
  796MOL0     H 9808  10.843   0.501   6.415  1.9677 -0.7838  2.9610
  796MOL0     H 9809  10.892   0.645   6.481 -0.2045 -0.8936  1.7397
  796MOL0     H 9810  10.312   0.345   6.462  2.6176  0.4585 -2.4416
  796MOL0     H 9811  10.142   0.231   6.325  1.6874  0.6919  2.1742
  796MOL0     H 9812   9.816   0.468   6.143  2.9310 -0.5563  2.3501
  796MOL0     H 9813   9.914   0.473   5.995 -1.6164  0.5639 -0.1938
  796MOL0     H 9814   9.720   0.370   5.939 -0.5133 -0.9271 -1.1990
  796MOL0     H 9815   9.850   0.240   5.948  0.3324 -0.2927  3.4234
  796MOL0     H 9816   9.623   0.277   6.141  0.4652  0.0209  0.6655
  796MOL0     H 9817   9.773   0.173   6.151  1.7097  0.6139 -2.2288
  796MOL0     H 9818   9.583   0.028   6.080  3.6355 -0.3485  1.2499
  796MOL0     H 9819   9.707   0.052   5.961 -0.4062  2.0399  0.4986
  796MOL0     H 9820   9.574   0.228   5.854  0.6667 -1.6147 -4.2047
  796MOL0     H 9821   9.518   0.061   5.840  0.6927  1.3798 -1.2028
  796MOL0     H 9822   9.429   0.256   6.040 -0.6584 -0.0647 -0.5678
  796MOL0     H 9823   9.368   0.085   6.048 -1.4200 -1.2401 -2.2783
  796MOL0     H 9824   9.260   0.079   5.847 -2.3357  0.0341  1.8032
  796MOL0     H 9825   9.331   0.224   5.778 -1.2238  0.2533 -0.4847
  796MOL0     H 9826   9.209   0.369   5.920 -3.9436  0.4253 -2.3075
  796MOL0     H 9827   9.134   0.229   6.011 -2.9166  0.6278 -0.0595
  796MOL0     H 9828  10.036   0.616   6.157  1.6192 -0.3232 -0.2922
  796MOL0     H 9829  10.194   0.717   6.285  1.5942  0.6703 -0.3678
  796MOL0     H 9830  10.420   0.489   6.733  1.4932 -2.6537 -0.7122
  796MOL0     H 9831  10.551   0.520   6.919  1.0926  1.6907  1.5905
  796MOL0     H 9832  11.508   2.122   6.687 -0.4476  0.5264 -1.7167
  796MOL0     H 9833  11.568   2.337   6.812 -1.6100  5.7375  1.8098
  796MOL0     H 9834  11.408   2.742   7.209 -1.4046  0.8812 -1.4073
  796MOL0     H 9835  11.569   2.915   7.277  2.5920 -2.4794  2.7332
  796MOL0     H 9836  11.738   3.099   7.312 -1.2330 -1.4539 -1.1365
  796MOL0     H 9837  11.824   2.941   7.274 -0.6874  0.7371  5.0703
  796MOL0     H 9838  11.874   3.225   7.171 -1.9569  0.5113 -0.4177
  796MOL0     H 9839  11.974   3.080   7.122  0.3232  0.6217  0.4799
  796MOL0     H 9840  12.075   3.239   7.280  1.3909  0.0386  0.2803
  796MOL0     H 9841  11.962   3.183   7.402 -2.0794 -1.0822 -0.2838
  796MOL0     H 9842  12.162   3.007   7.249 -2.8592  4.2934 -2.4187
  796MOL0     H 9843  12.034   2.957   7.372  1.4747 -0.8554  0.0831
  796MOL0     H 9844  12.276   3.159   7.642 -1.1242  0.6858 -0.8763
  796MOL0     H 9845  11.732   2.902   6.874  1.2407 -3.3630 -1.9081
  796MOL0     H 9846  11.520   2.663   6.739 -0.1414 -0.9975 -0.2586
  796MOL0     H 9847  11.650   2.779   6.711  2.0159 -2.9653 -3.5383
  796MOL0     H 9848  11.680   2.624   6.789 -0.9758  0.5087 -0.9451
  797MOL0     O 9849   3.576   1.109   0.104 -0.6243  0.3555  0.0779
  797MOL0     C 9850   3.476   1.073   0.043 -0.9293  0.1402 -0.8976
  797MOL0     O 9851   3.408   1.153  -0.039 -0.0959 -0.1061 -0.2715
  797MOL0     C 9852   3.440   1.285  -0.078  0.2986 -0.3465  0.1758
  797MOL0     C 9853   3.545   1.354  -0.043 -1.2976  0.0224 -0.1454
  797MOL0     C 9854   3.588   1.471  -0.095  0.2689 -1.4943 -0.3294
  797MOL0     C 9855   3.522   1.533  -0.199  0.3496 -0.6293  0.1076
  797MOL0     O 9856   3.549   1.663  -0.257 -0.0213  0.0780 -0.2577
  797MOL0     C 9857   3.687   1.690  -0.296  0.4516 -0.3687 -0.1809
  797MOL0     C 9858   3.710   1.843  -0.286 -0.1810 -0.2108 -0.1718
  797MOL0     C 9859   3.740   1.897  -0.144  0.0294  0.3611  0.5866
  797MOL0     C 9860   3.764   2.050  -0.159  0.2541 -0.2149  0.6667
  797MOL0     C 9861   3.806   2.124  -0.018  0.7623  0.1794 -0.3485
  797MOL0     C 9862   3.940   2.075   0.049  1.2896 -0.7032 -1.0226
  797MOL0     C 9863   3.953   2.162   0.176 -0.5927 -0.6925  0.5101
  797MOL0     C 9864   4.092   2.124   0.241 -0.5793 -0.9443 -0.6625
  797MOL0     N 9865   4.104   2.194   0.373 -0.9596  1.3366 -0.0611
  797MOL0     C 9866   4.225   2.219   0.435 -0.2016  0.3816 -0.0342
  797MOL0     C 9867   4.192   2.295   0.543 -0.0931  1.0186 -0.4911
  797MOL0     C 9868   4.290   2.358   0.635  0.8148 -0.3566 -0.9472
  797MOL0     C 9869   4.378   2.266   0.702 -0.6670  0.5662 -0.2885
  797MOL0     C 9870   4.425   2.306   0.840  0.2528 -0.7016 -0.3918
  797MOL0     C 9871   4.523   2.209   0.910 -0.6471 -0.4054 -0.1692
  797MOL0     O 9872   4.583   2.283   1.015  0.4163  0.2694 -0.5663
  797MOL0     C 9873   4.687   2.366   0.991 -0.3702 -0.3945 -0.2444
  797MOL0     C 9874   4.702   2.465   1.089  0.1939  0.2478  0.1924
  797MOL0     C 9875   4.806   2.563   1.084 -0.4472 -0.3455  0.7205
  797MOL0     C 9876   4.831   2.655   1.210 -0.5799  0.4183  0.0601
  797MOL0     C 9877   4.891   2.559   0.978 -0.8577 -0.0852  0.5916
  797MOL0     C 9878   5.007   2.648   0.957 -0.3585 -1.0347 -0.6229
  797MOL0     O 9879   5.064   2.632   0.828 -0.2059 -0.9531  0.3954
  797MOL0     C 9880   5.172   2.715   0.797  0.3795 -0.6256  0.0060
  797MOL0     C 9881   5.297   2.655   0.773 -0.9420 -0.0470 -0.3874
  797MOL0     C 9882   5.403   2.736   0.753  0.1579  1.1978  0.7341
  797MOL0     C 9883   5.391   2.873   0.732  0.7606 -0.7807 -0.2908
  797MOL0     O 9884   5.492   2.962   0.701  0.1407 -0.4790 -0.3033
  797MOL0     C 9885   5.624   2.921   0.745  1.0289 -0.0592  0.3668
  797MOL0     C 9886   5.712   3.041   0.716 -1.0093  0.1811  0.0465
  797MOL0     C 9887   5.863   3.027   0.710  0.1367  0.6611 -0.2361
  797MOL0     C 9888   5.936   3.155   0.751  0.6443  0.6836  1.1000
  797MOL0     C 9889   6.082   3.139   0.722 -0.3952 -0.0814 -1.1338
  797MOL0     C 9890   6.166   3.263   0.666 -1.3999 -0.2610  0.1533
  797MOL0     C 9891   6.330   3.225   0.643  0.3055  1.6672 -0.1633
  797MOL0     C 9892   6.396   3.173   0.769 -0.4296 -0.0412 -0.0704
  797MOL0    Cl 9893   6.390   3.319   0.870 -0.0068  0.0751  0.3204
  797MOL0     C 9894   5.262   2.930   0.746  0.7911  0.1610  0.2795
  797MOL0     C 9895   5.147   2.851   0.788  0.5464  0.3166  0.5853
  797MOL0     O 9896   5.043   2.730   1.038 -0.6440 -0.3192 -0.3404
  797MOL0     C 9897   4.867   2.470   0.872 -0.0994  1.0644 -0.0634
  797MOL0     C 9898   4.771   2.375   0.882  0.5467 -0.6706 -0.0348
  797MOL0     N 9899   4.058   2.317   0.545  0.1306  0.5870  0.6954
  797MOL0     N 9900   4.006   2.261   0.439  0.3222 -0.6770 -0.3218
  797MOL0     C 9901   3.410   1.457  -0.256  0.6529 -0.4191  0.4978
  797MOL0     C 9902   3.372   1.329  -0.193 -0.5490 -0.9239  0.4648
  797MOL0     C 9903   3.437   0.934   0.065 -0.2114 -0.2802  0.0968
  797MOL0     C 9904   3.500   0.851   0.163  0.5245  0.4266 -0.5266
  797MOL0     C 9905   3.452   0.723   0.186 -0.6345  0.0575  0.8927
  797MOL0     C 9906   3.369   0.663   0.092  0.0712  0.7238  0.8374
  797MOL0     O 9907   3.347   0.532   0.121 -0.7635 -0.0981  0.3941
  797MOL0     C 9908   3.322   0.446   0.018  0.4085  0.8094 -0.2112
  797MOL0     C 9909   3.331   0.304   0.072 -0.6412  0.1395 -0.0810
  797MOL0     C 9910   3.295   0.200  -0.032  0.1373 -0.6084  0.4016
  797MOL0     C 9911   3.340   0.056   0.003  0.5123 -0.8374  0.0758
  797MOL0     C 9912   3.242  -0.009   0.085  1.1684 -0.3117  0.3267
  797MOL0     C 9913   3.163  -0.086   0.147  0.6456 -1.3248  0.0556
  797MOL0     C 9914   3.311   0.737  -0.010  0.0967  0.3120 -0.4335
  797MOL0     C 9915   3.349   0.871  -0.022  0.3085 -0.3026  0.7102
  797MOL0     C 9916   3.272   0.936  -0.130  0.5239  0.3182  0.2325
  797MOL0     H 9917   3.591   1.325   0.051  0.0981 -0.2565 -0.8916
  797MOL0     H 9918   3.664   1.531  -0.045 -0.1558 -1.6843  0.5418
  797MOL0     H 9919   3.697   1.660  -0.401 -1.0591 -0.9238 -0.1976
  797MOL0     H 9920   3.747   1.626  -0.230 -3.8710 -5.2773 -0.3769
  797MOL0     H 9921   3.794   1.865  -0.351  0.6811  0.1689  1.0389
  797MOL0     H 9922   3.627   1.889  -0.341  0.2301 -0.0313 -0.6499
  797MOL0     H 9923   3.666   1.870  -0.069  0.5876  2.1718  1.8647
  797MOL0     H 9924   3.836   1.852  -0.115 -0.3535 -0.0839  1.2003
  797MOL0     H 9925   3.831   2.073  -0.243 -0.3642  0.4519  0.3390
  797MOL0     H 9926   3.664   2.089  -0.181 -0.1506  0.1418  2.9314
  797MOL0     H 9927   3.723   2.113   0.052  0.6061  0.5750 -0.4699
  797MOL0     H 9928   3.809   2.231  -0.038  0.4597 -0.0435 -1.7296
  797MOL0     H 9929   3.931   1.967   0.062 -1.4128 -0.8585 -3.1323
  797MOL0     H 9930   4.029   2.080  -0.015  0.6142 -1.6615 -2.0839
  797MOL0     H 9931   3.886   2.140   0.260 -0.7759 -0.5557  0.4007
  797MOL0     H 9932   3.955   2.270   0.157  1.6249 -1.1339 -2.3995
  797MOL0     H 9933   4.084   2.019   0.272  0.0149 -0.1311  2.5519
  797MOL0     H 9934   4.174   2.160   0.178  2.8236 -1.4372  3.0703
  797MOL0     H 9935   4.326   2.198   0.400  0.1881  1.6245  0.2656
  797MOL0     H 9936   4.234   2.409   0.714  0.7576 -1.0184 -0.5538
  797MOL0     H 9937   4.344   2.427   0.569 -1.7042  1.2026 -1.5009
  797MOL0     H 9938   4.317   2.175   0.702 -0.0507  0.1362 -1.5884
  797MOL0     H 9939   4.464   2.251   0.637 -0.6012 -1.3183  0.1823
  797MOL0     H 9940   4.481   2.399   0.823  0.0482 -0.8198 -1.7508
  797MOL0     H 9941   4.341   2.329   0.907  2.1787  1.1716  1.5707
  797MOL0     H 9942   4.460   2.125   0.943 -4.0212  2.2165  0.6099
  797MOL0     H 9943   4.590   2.165   0.835 -2.3707 -2.0516 -0.8469
  797MOL0     H 9944   4.643   2.484   1.179  2.6747  0.4818  1.8652
  797MOL0     H 9945   4.936   2.666   1.237  0.3104  0.7380 -3.1220
  797MOL0     H 9946   4.779   2.620   1.299  0.1273 -0.0770  0.2845
  797MOL0     H 9947   4.775   2.744   1.178 -2.9276 -1.3582 -1.1299
  797MOL0     H 9948   5.301   2.547   0.783  0.7357 -0.1609 -1.7703
  797MOL0     H 9949   5.499   2.688   0.742 -0.3114  0.6740 -1.6535
  797MOL0     H 9950   5.634   2.904   0.852  0.6105  0.4579  0.4913
  797MOL0     H 9951   5.671   2.841   0.686 -0.6286  0.0603 -1.1825
  797MOL0     H 9952   5.701   3.071   0.612  3.8129 -0.4969 -0.8667
  797MOL0     H 9953   5.669   3.118   0.780  0.2224  1.0001 -0.0982
  797MOL0     H 9954   5.895   2.992   0.611 -0.3321  0.3432 -0.2785
  797MOL0     H 9955   5.879   2.947   0.783 -4.9242 -0.2897  0.2275
  797MOL0     H 9956   5.917   3.186   0.854 -2.0466  0.5759  0.7255
  797MOL0     H 9957   5.904   3.235   0.684 -0.6053 -0.1893  0.6126
  797MOL0     H 9958   6.126   3.108   0.817 -1.7064  1.8843  0.1916
  797MOL0     H 9959   6.096   3.060   0.648 -1.2022 -1.1094 -0.2258
  797MOL0     H 9960   6.163   3.349   0.733 -1.2963  1.6596 -2.1908
  797MOL0     H 9961   6.121   3.296   0.572 -4.0364 -1.7702  0.7986
  797MOL0     H 9962   6.372   3.319   0.604 -5.0805  4.3706 -0.4502
  797MOL0     H 9963   6.339   3.140   0.575 -1.5443  1.9436 -0.8193
  797MOL0     H 9964   6.499   3.141   0.747 -0.2370  0.8615 -0.5466
  797MOL0     H 9965   6.342   3.099   0.829  2.8665 -0.6993  2.4420
  797MOL0     H 9966   5.231   3.031   0.722 -2.0306 -0.3140  1.5382
  797MOL0     H 9967   5.048   2.895   0.788 -0.7305 -2.3755  1.1098
  797MOL0     H 9968   4.925   2.458   0.782 -0.7599 -2.2128 -0.1905
  797MOL0     H 9969   4.759   2.305   0.801 -0.1951 -0.6060  0.0137
  797MOL0     H 9970   3.344   1.489  -0.336  0.7785  1.5200  1.1191
  797MOL0     H 9971   3.294   1.266  -0.234 -1.0916  1.3070 -2.2175
  797MOL0     H 9972   3.581   0.878   0.231  0.8944 -0.8181 -0.4471
  797MOL0     H 9973   3.485   0.655   0.264  0.5240 -0.8314 -0.3321
  797MOL0     H 9974   3.219   0.441  -0.020  1.5461 -3.0692 -3.4446
  797MOL0     H 9975   3.388   0.464  -0.068  2.0927 -4.1788 -0.2648
  797MOL0     H 9976   3.266   0.290   0.159  1.5113 -2.0322  1.3376
  797MOL0     H 9977   3.432   0.303   0.115 -0.7962 -0.4935  0.2832
  797MOL0     H 9978   3.186   0.206  -0.039  0.2227  3.7313  0.1513
  797MOL0     H 9979   3.346   0.232  -0.123  0.1997  0.6099  0.8533
  797MOL0     H 9980   3.445   0.068   0.033  0.6864  1.1263 -1.1293
  797MOL0     H 9981   3.356  -0.001  -0.088  2.3361 -1.0651  0.4968
  797MOL0     H 9982   3.091  -0.148   0.198  0.2698 -0.7013  0.2984
  797MOL0     H 9983   3.247   0.691  -0.084  2.1927 -1.2952 -1.3591
  797MOL0     H 9984   3.199   1.001  -0.080 -0.6054 -2.7156  2.9352
  797MOL0     H 9985   3.339   0.993  -0.194  1.8209 -0.3077  0.9873
  797MOL0     H 9986   3.219   0.875  -0.203 -1.2127  1.3019  0.6079
  798MOL0     O 9987  10.453  11.187   8.883  0.0481 -0.3561 -0.9700
  798MOL0     C 9988  10.408  11.169   8.996 -0.4465 -0.2305 -1.1441
  798MOL0     O 9989  10.466  11.080   9.085 -0.3367  0.0065  0.1325
  798MOL0     C 9990  10.552  10.986   9.038 -0.9640 -0.0133  0.1223
  798MOL0     C 9991  10.508  10.858   9.028 -0.5415  0.1724  0.0730
  798MOL0     C 9992  10.601  10.761   8.973 -0.6160 -0.6372  0.2333
  798MOL0     C 9993  10.733  10.801   8.932 -0.4490 -0.1062  0.1861
  798MOL0     O 9994  10.808  10.707   8.867  0.0791  0.9118 -0.5417
  798MOL0     C 9995  10.895  10.741   8.763  0.0786  0.5311  0.3428
  798MOL0     C 9996  10.939  10.617   8.687  0.2217 -0.0643  0.4053
  798MOL0     C 9997  11.054  10.532   8.759  0.1643 -0.6007  0.3678
  798MOL0     C 9998  11.014  10.428   8.863  0.0307  0.4928  0.4678
  798MOL0     C 9999  10.941  10.303   8.809  0.6386  0.0557 -0.5146
  798MOL0     C10000  10.834  10.237   8.898 -0.4839 -0.2141 -0.7767
  798MOL0     C10001  10.889  10.203   9.031 -0.4239 -0.0527  0.1329
  798MOL0     C10002  10.777  10.144   9.120 -1.1276  1.0889 -0.0720
  798MOL0     N10003  10.837  10.121   9.256  0.3275 -0.2077 -0.3565
  798MOL0     C10004  10.887  10.002   9.299  0.8172  0.4260  0.3885
  798MOL0     C10005  10.914  10.013   9.431 -0.5810  0.8922 -0.7302
  798MOL0     C10006  10.978   9.905   9.514  0.0884 -0.9256 -0.0957
  798MOL0     C10007  10.875   9.806   9.565  0.2087  0.0671 -0.0466
  798MOL0     C10008  10.951   9.703   9.656  0.8901  0.1661  1.1500
  798MOL0     C10009  10.879   9.577   9.685 -0.4576  0.9145  0.8069
  798MOL0     O10010  10.823   9.519   9.567  0.1583 -0.3065 -0.7492
  798MOL0     C10011  10.823   9.380   9.562 -0.5177 -0.1413  0.5615
  798MOL0     C10012  10.855   9.314   9.440  0.2938  0.5955  0.3036
  798MOL0     C10013  10.857   9.175   9.418 -0.5482  0.0181  0.2271
  798MOL0     C10014  10.895   9.118   9.282 -0.3268 -0.1076  0.2162
  798MOL0     C10015  10.821   9.098   9.521  0.4634  0.0829  0.2920
  798MOL0     C10016  10.798   8.950   9.510 -0.0536 -0.5384  0.5894
  798MOL0     O10017  10.767   8.886   9.627  1.0031  0.2990 -0.2144
  798MOL0     C10018  10.732   8.747   9.628 -0.7120 -0.2452 -0.3824
  798MOL0     C10019  10.630   8.675   9.565  0.5859  0.6489  0.2423
  798MOL0     C10020  10.604   8.538   9.602  0.7380  1.0551 -0.6009
  798MOL0     C10021  10.675   8.472   9.705 -0.5112 -0.5968 -0.1415
  798MOL0     O10022  10.662   8.334   9.717 -0.1051 -0.1662  0.6903
  798MOL0     C10023  10.782   8.255   9.699 -0.6857  0.5654 -0.2913
  798MOL0     C10024  10.828   8.230   9.557  0.7014 -0.0631 -0.8500
  798MOL0     C10025  10.928   8.341   9.505 -0.4890  0.2768  0.3378
  798MOL0     C10026  10.970   8.280   9.366 -0.3320 -0.7606  1.3123
  798MOL0     C10027  11.097   8.355   9.310 -0.0679 -0.3728  0.0741
  798MOL0     C10028  11.096   8.366   9.152  0.0397 -0.1056  0.4216
  798MOL0     C10029  11.041   8.256   9.066 -1.3300  0.5003  0.0120
  798MOL0     C10030  11.070   8.283   8.921 -0.4087 -0.8622 -0.1328
  798MOL0    Cl10031  11.003   8.151   8.813 -0.3500  0.4673 -0.1496
  798MOL0     C10032  10.779   8.539   9.767  0.1205 -0.3329  0.1783
  798MOL0     C10033  10.803   8.673   9.728  0.3576 -0.1083 -0.9125
  798MOL0     O10034  10.811   8.893   9.402 -0.8847 -0.3077  0.1885
  798MOL0     C10035  10.804   9.157   9.651 -0.5006 -0.4880  0.0041
  798MOL0     C10036  10.805   9.292   9.670 -0.5555  0.6056  0.5895
  798MOL0     N10037  10.874  10.139   9.471 -0.3612 -0.8141  0.3058
  798MOL0     N10038  10.804  10.183   9.371  0.5106 -0.6635  0.1023
  798MOL0     C10039  10.773  10.933   8.944 -0.2675  0.3333 -0.1733
  798MOL0     C10040  10.678  11.031   8.991  0.1726  0.2198 -0.0099
  798MOL0     C10041  10.291  11.231   9.047 -0.5683  0.6268 -0.2109
  798MOL0     C10042  10.186  11.160   9.099  0.3942 -1.0148 -0.1596
  798MOL0     C10043  10.087  11.240   9.160  0.6633  0.1483  0.0806
  798MOL0     C10044  10.080  11.385   9.165 -0.1010 -0.3566 -0.2925
  798MOL0     O10045   9.972  11.448   9.220 -0.3494  0.9214  0.8785
  798MOL0     C10046   9.976  11.587   9.224  0.7871 -0.0021 -0.1261
  798MOL0     C10047   9.870  11.644   9.316  1.1583  0.6644  0.1307
  798MOL0     C10048   9.728  11.660   9.237 -1.2600  0.7160  0.7288
  798MOL0     C10049   9.612  11.710   9.313 -0.9228 -1.1483 -0.7771
  798MOL0     C10050   9.628  11.848   9.367 -0.2674 -0.0181 -0.0068
  798MOL0     C10051   9.640  11.963   9.405  0.3642  0.1607  0.4673
  798MOL0     C10052  10.197  11.450   9.110 -0.3775  0.8484 -0.4314
  798MOL0     C10053  10.301  11.372   9.054  0.3205  0.2628 -0.8382
  798MOL0     C10054  10.418  11.452   9.008 -0.1287  0.3339 -0.1805
  798MOL0     H10055  10.404  10.839   9.051 -0.5599 -2.6259 -1.8253
  798MOL0     H10056  10.568  10.658   8.965  3.1629 -1.8640 -2.8397
  798MOL0     H10057  10.979  10.804   8.793  0.4600  0.2006 -0.0076
  798MOL0     H10058  10.823  10.788   8.697 -2.5012 -2.8711  0.4516
  798MOL0     H10059  10.853  10.551   8.675 -0.0072  0.4184 -0.7059
  798MOL0     H10060  10.971  10.644   8.586  1.4353 -1.8862  0.2395
  798MOL0     H10061  11.124  10.493   8.685 -1.0927 -1.0718 -0.6027
  798MOL0     H10062  11.110  10.610   8.811  0.3904  0.5480 -1.5296
  798MOL0     H10063  11.106  10.386   8.906 -0.8281 -0.3397  1.5322
  798MOL0     H10064  10.952  10.464   8.945 -1.3466  1.7251 -1.0724
  798MOL0     H10065  11.016  10.229   8.779 -0.6605 -0.6637 -2.1583
  798MOL0     H10066  10.893  10.321   8.713 -1.2315 -1.8848 -0.0187
  798MOL0     H10067  10.750  10.305   8.914  0.2473  0.3971  0.6166
  798MOL0     H10068  10.798  10.142   8.857  2.5708 -1.1493 -1.5585
  798MOL0     H10069  10.948  10.279   9.082 -0.3118 -0.4424  0.5927
  798MOL0     H10070  10.956  10.118   9.008 -0.2211  0.8872 -3.3911
  798MOL0     H10071  10.677  10.189   9.120 -1.5855  0.1689  1.5379
  798MOL0     H10072  10.760  10.040   9.090 -0.5424  1.1274 -0.5581
  798MOL0     H10073  10.894   9.909   9.243 -4.2904  0.1460 -0.2498
  798MOL0     H10074  11.032   9.962   9.590  0.3989  2.5058 -2.6099
  798MOL0     H10075  11.055   9.856   9.454  2.9836 -0.3147  2.8380
  798MOL0     H10076  10.801   9.869   9.616 -0.5791 -1.3449  0.6087
  798MOL0     H10077  10.825   9.756   9.482 -1.0032  1.6256 -0.3024
  798MOL0     H10078  11.034   9.678   9.590  0.9668 -0.1290  1.3567
  798MOL0     H10079  10.988   9.748   9.748  2.3158 -0.2011  0.7809
  798MOL0     H10080  10.952   9.509   9.729  0.7007  0.7303 -1.3112
  798MOL0     H10081  10.798   9.604   9.754  0.0429 -2.4685  2.9646
  798MOL0     H10082  10.876   9.377   9.354  3.5271 -0.3762  0.2588
  798MOL0     H10083  10.991   9.067   9.297 -0.6269  0.1503  4.0309
  798MOL0     H10084  10.911   9.202   9.213 -0.6819  1.1506  1.6155
  798MOL0     H10085  10.818   9.053   9.241 -0.4867  0.4638 -0.4098
  798MOL0     H10086  10.562   8.732   9.503 -0.6546  1.1531  2.0012
  798MOL0     H10087  10.526   8.480   9.553  0.0374  1.1763  0.3347
  798MOL0     H10088  10.866   8.279   9.764  1.5583 -2.1394 -1.9569
  798MOL0     H10089  10.748   8.160   9.741  2.2238 -0.5163 -0.1716
  798MOL0     H10090  10.869   8.129   9.544  0.7402  0.1350 -2.4497
  798MOL0     H10091  10.737   8.223   9.497  1.1534 -4.0791 -1.3318
  798MOL0     H10092  11.007   8.351   9.580 -1.0905  2.0387  0.7811
  798MOL0     H10093  10.873   8.434   9.490 -1.8963 -0.7543 -1.2454
  798MOL0     H10094  10.881   8.289   9.304 -0.0317  1.2168  1.0836
  798MOL0     H10095  10.997   8.174   9.366  0.8911 -0.4757  0.5559
  798MOL0     H10096  11.105   8.454   9.356 -3.5113  0.8402 -1.6115
  798MOL0     H10097  11.183   8.288   9.325  2.1491  2.3936  0.4984
  798MOL0     H10098  11.199   8.388   9.122  0.0696  1.6772  1.6285
  798MOL0     H10099  11.041   8.458   9.129  2.0747  1.6229  1.9287
  798MOL0     H10100  10.932   8.253   9.077 -1.4296  0.1677 -0.9396
  798MOL0     H10101  11.079   8.156   9.088 -3.4014 -0.2572  0.3832
  798MOL0     H10102  11.175   8.311   8.909 -0.7560  0.2807 -0.6838
  798MOL0     H10103  11.016   8.376   8.901  0.5946 -0.0245  0.8812
  798MOL0     H10104  10.829   8.496   9.854  0.1858  0.7442  0.6878
  798MOL0     H10105  10.865   8.729   9.798 -0.2746  1.7310 -1.7484
  798MOL0     H10106  10.776   9.107   9.743 -1.0821  2.9251  1.8441
  798MOL0     H10107  10.783   9.338   9.765 -0.7232  2.3484 -0.2486
  798MOL0     H10108  10.867  10.979   8.916 -0.1907  0.2622 -0.0319
  798MOL0     H10109  10.695  11.137   8.999 -1.8144  0.6187 -0.5604
  798MOL0     H10110  10.171  11.055   9.080 -1.0668 -0.6128 -1.4096
  798MOL0     H10111   9.996  11.192   9.193  0.3887  0.9865  0.5705
  798MOL0     H10112  10.070  11.628   9.264  1.9013 -1.2224 -1.4032
  798MOL0     H10113   9.968  11.625   9.122  0.8076 -0.7465 -0.4158
  798MOL0     H10114   9.904  11.734   9.367  1.2381  0.8854 -0.3006
  798MOL0     H10115   9.860  11.576   9.401 -0.3069  0.7994  0.0961
  798MOL0     H10116   9.755  11.724   9.152  0.6900 -2.6231 -1.4036
  798MOL0     H10117   9.714  11.558   9.200  0.5786 -0.6160  3.4034
  798MOL0     H10118   9.586  11.642   9.394  1.1884 -1.1499 -0.0425
  798MOL0     H10119   9.534  11.709   9.237  0.5953  1.1289 -2.5168
  798MOL0     H10120   9.642  12.063   9.442  5.1845  0.8940 -1.0840
  798MOL0     H10121  10.202  11.558   9.115 -0.2871  0.7948  3.2655
  798MOL0     H10122  10.456  11.431   8.908  4.8025  0.2714  1.4157
  798MOL0     H10123  10.387  11.556   9.006  2.0040  1.0771  1.2363
  798MOL0     H10124  10.505  11.433   9.072 -1.2716 -0.2613  1.2793
  799MOL0     O10125   5.088   1.094   9.678 -0.0124 -0.1004  0.2543
  799MOL0     C10126   5.071   1.132   9.555 -0.3750 -0.1564  0.2410
  799MOL0     O10127   5.173   1.149   9.461  0.5424 -0.2737  0.0949
  799MOL0     C10128   5.302   1.166   9.502 -0.6670  0.6462  0.0649
  799MOL0     C10129   5.375   1.079   9.582 -0.2919  0.5307 -0.2352
  799MOL0     C10130   5.503   1.110   9.621 -0.4550  0.9735 -0.1350
  799MOL0     C10131   5.570   1.219   9.562 -0.5212  0.5682 -0.2583
  799MOL0     O10132   5.705   1.243   9.597 -0.1907 -0.8635 -0.3645
  799MOL0     C10133   5.809   1.196   9.512  0.0705 -0.4289  1.3643
  799MOL0     C10134   5.949   1.248   9.557  0.0344 -0.5043  0.0455
  799MOL0     C10135   6.063   1.235   9.457  0.0366 -0.5148  0.3977
  799MOL0     C10136   6.110   1.092   9.440  0.8320  0.6326 -0.5513
  799MOL0     C10137   6.229   1.096   9.338 -0.4647  0.4669 -1.0695
  799MOL0     C10138   6.252   0.941   9.299 -0.8068  0.1586 -0.0626
  799MOL0     C10139   6.321   0.852   9.405 -0.7446 -0.6362 -0.2414
  799MOL0     C10140   6.334   0.702   9.369  0.9806 -1.1666  1.3240
  799MOL0     N10141   6.392   0.618   9.470  0.3163  0.0170 -0.0711
  799MOL0     C10142   6.356   0.632   9.603 -0.1838 -0.6821  0.2741
  799MOL0     C10143   6.404   0.515   9.652  1.7572 -0.5376 -0.6113
  799MOL0     C10144   6.398   0.481   9.804  0.7244 -0.3246  0.7474
  799MOL0     C10145   6.356   0.596   9.902  1.0554  0.7671 -0.1165
  799MOL0     C10146   6.353   0.546  10.057 -0.4043  0.1259 -0.0777
  799MOL0     C10147   6.313   0.665  10.150  0.2906  0.2253 -0.6236
  799MOL0     O10148   6.169   0.675  10.152 -0.5351 -0.0761 -0.5343
  799MOL0     C10149   6.096   0.751  10.243 -0.7358 -0.1397 -0.5542
  799MOL0     C10150   6.152   0.853  10.325  0.7766  1.2148  0.2649
  799MOL0     C10151   6.072   0.924  10.422  0.2708  1.0638  0.4452
  799MOL0     C10152   6.149   1.031  10.503 -0.3361  1.0347  0.7467
  799MOL0     C10153   5.933   0.904  10.432 -0.0460 -0.2814  0.4809
  799MOL0     C10154   5.847   0.994  10.505  1.0241 -0.6361  0.0894
  799MOL0     O10155   5.861   1.126  10.477  0.0444  0.2861 -0.0871
  799MOL0     C10156   5.765   1.216  10.532 -0.7597  0.0277 -0.3119
  799MOL0     C10157   5.627   1.187  10.527  0.4162 -2.1819 -0.1313
  799MOL0     C10158   5.541   1.291  10.575  0.5498 -0.0952 -0.3823
  799MOL0     C10159   5.602   1.398  10.649 -0.2871 -1.0824  0.2271
  799MOL0     O10160   5.527   1.485  10.714  1.1738  0.0867 -0.7776
  799MOL0     C10161   5.381   1.483  10.706 -0.3724 -0.2653 -0.1838
  799MOL0     C10162   5.304   1.592  10.773  0.8513  0.7160 -0.7707
  799MOL0     C10163   5.317   1.726  10.689  0.2197 -0.4253  0.5246
  799MOL0     C10164   5.223   1.842  10.747 -0.5208 -0.2052 -0.6419
  799MOL0     C10165   5.287   1.915  10.873  0.2572  0.0318 -0.1377
  799MOL0     C10166   5.178   2.003  10.939 -0.2332  0.4217  0.2479
  799MOL0     C10167   5.217   2.124  11.026 -0.1118  0.0335 -0.7548
  799MOL0     C10168   5.088   2.184  11.076  0.2986  1.8360 -0.8270
  799MOL0    Cl10169   5.029   2.096  11.225 -0.2175  0.1835  0.1707
  799MOL0     C10170   5.735   1.420  10.655 -0.1513  0.3384 -0.0036
  799MOL0     C10171   5.821   1.325  10.594  0.9220  0.3009 -0.5809
  799MOL0     O10172   5.759   0.942  10.571 -0.4124 -0.7688 -0.9946
  799MOL0     C10173   5.886   0.792  10.359  0.4294 -0.3298 -0.8961
  799MOL0     C10174   5.966   0.719  10.272 -0.6926 -0.7835  0.6550
  799MOL0     N10175   6.456   0.436   9.553  1.0748  0.4534 -0.3893
  799MOL0     N10176   6.446   0.499   9.445  0.1144  0.0347 -0.0210
  799MOL0     C10177   5.501   1.309   9.475  0.6423  0.2472  0.4977
  799MOL0     C10178   5.368   1.282   9.452  1.1611  0.6046  0.5519
  799MOL0     C10179   4.935   1.118   9.506  0.4683  0.3283 -0.1847
  799MOL0     C10180   4.927   1.079   9.371 -0.0763  1.0797  0.3556
  799MOL0     C10181   4.799   1.063   9.311 -0.4650 -0.8679  0.6535
  799MOL0     C10182   4.685   1.069   9.390  0.4531 -0.1401 -0.6018
  799MOL0     O10183   4.571   1.032   9.329 -0.6192 -0.1979  0.0835
  799MOL0     C10184   4.443   1.082   9.380 -0.4704 -0.2433  2.0471
  799MOL0     C10185   4.418   1.227   9.345 -0.2740  0.7797 -0.3212
  799MOL0     C10186   4.270   1.267   9.384 -0.0525 -0.3495  1.6399
  799MOL0     C10187   4.249   1.279   9.533  0.0467 -0.3606 -1.0106
  799MOL0     C10188   4.331   1.386   9.597  0.2898 -0.2214  0.7087
  799MOL0     C10189   4.400   1.471   9.647 -0.2486 -1.2056  1.1531
  799MOL0     C10190   4.697   1.100   9.525 -0.0674  0.8634  0.5906
  799MOL0     C10191   4.816   1.143   9.580  0.1902  0.6266  0.7226
  799MOL0     C10192   4.818   1.208   9.721 -0.4854 -1.0998 -0.2043
  799MOL0     H10193   5.317   0.993   9.615  0.6213  0.1429  0.3839
  799MOL0     H10194   5.547   1.029   9.678 -1.1240 -1.2739 -2.5910
  799MOL0     H10195   5.797   1.230   9.409 -2.9797 -2.9122  0.7381
  799MOL0     H10196   5.812   1.086   9.515 -0.8048 -0.4465  1.7227
  799MOL0     H10197   5.928   1.355   9.566 -2.8989 -0.9335 -0.4493
  799MOL0     H10198   5.980   1.210   9.655 -0.9814 -0.8147  0.2679
  799MOL0     H10199   6.052   1.284   9.360 -0.3303  1.5273  1.4205
  799MOL0     H10200   6.152   1.284   9.497 -1.5441  2.5033  0.4963
  799MOL0     H10201   6.141   1.042   9.532  0.4964 -1.5482 -1.5702
  799MOL0     H10202   6.026   1.034   9.400  0.2499 -2.5718  4.4261
  799MOL0     H10203   6.324   1.127   9.383 -1.2262  2.8823 -0.9400
  799MOL0     H10204   6.213   1.152   9.245  2.3594 -0.7738 -2.4142
  799MOL0     H10205   6.151   0.908   9.272 -0.6125  0.8069 -1.6604
  799MOL0     H10206   6.306   0.948   9.204 -1.5253  0.6244 -0.4495
  799MOL0     H10207   6.274   0.857   9.504 -1.6557 -1.3321 -0.6298
  799MOL0     H10208   6.421   0.896   9.420 -1.4560  0.0472  3.4534
  799MOL0     H10209   6.236   0.659   9.348  0.7501  0.9998 -3.5277
  799MOL0     H10210   6.388   0.688   9.275 -0.3062 -1.7489  0.6506
  799MOL0     H10211   6.304   0.714   9.650 -1.2928 -1.7686  1.0058
  799MOL0     H10212   6.492   0.437   9.837  0.0767 -1.2196  1.4411
  799MOL0     H10213   6.321   0.404   9.809 -1.4627  1.7762  0.9661
  799MOL0     H10214   6.427   0.679   9.894 -0.2258  2.3235  2.7707
  799MOL0     H10215   6.256   0.627   9.870  1.5637 -1.0239 -4.0169
  799MOL0     H10216   6.274   0.472  10.072  2.3901 -2.5970  2.8475
  799MOL0     H10217   6.450   0.512  10.095  1.0469  6.3238  2.9822
  799MOL0     H10218   6.358   0.641  10.247  0.1964 -0.7019 -0.8058
  799MOL0     H10219   6.362   0.755  10.112  1.0850  0.5954  1.1476
  799MOL0     H10220   6.258   0.869  10.309  1.0924 -1.7207 -1.2637
  799MOL0     H10221   6.179   1.108  10.431  0.4493 -1.0567 -1.2564
  799MOL0     H10222   6.240   0.987  10.544  1.0777  0.7895 -2.3729
  799MOL0     H10223   6.087   1.074  10.582 -1.0464 -1.7576  1.8220
  799MOL0     H10224   5.587   1.095  10.487  0.6428 -3.5719  2.6057
  799MOL0     H10225   5.435   1.270  10.564  0.0449  0.9564  1.8380
  799MOL0     H10226   5.352   1.478  10.600 -1.0762  0.1736 -0.0142
  799MOL0     H10227   5.361   1.386  10.752 -1.4778 -0.1798 -0.4478
  799MOL0     H10228   5.199   1.561  10.773  1.7828 -2.8983 -0.2675
  799MOL0     H10229   5.342   1.601  10.875 -0.4913  0.7461 -0.2560
  799MOL0     H10230   5.305   1.720  10.581 -1.1608 -0.2188  0.6388
  799MOL0     H10231   5.419   1.765  10.682 -0.7399  2.2620  0.1503
  799MOL0     H10232   5.126   1.809  10.785  1.6259 -0.8925  5.3202
  799MOL0     H10233   5.225   1.922  10.673  4.6804 -0.0457 -0.7398
  799MOL0     H10234   5.321   1.848  10.953 -0.5626 -2.3797 -1.6785
  799MOL0     H10235   5.378   1.968  10.843  0.0182  1.2121  1.1572
  799MOL0     H10236   5.122   1.926  10.993 -1.5724 -0.5540 -2.3650
  799MOL0     H10237   5.116   2.043  10.858 -1.0326 -3.8545 -1.5662
  799MOL0     H10238   5.256   2.203  10.961 -1.2970  0.7174 -0.6694
  799MOL0     H10239   5.289   2.108  11.106  0.6364  0.3582 -1.3467
  799MOL0     H10240   5.015   2.188  10.995 -1.6898  3.9408  0.9052
  799MOL0     H10241   5.103   2.288  11.106  0.7399  1.0414  1.9602
  799MOL0     H10242   5.774   1.510  10.702  0.5456 -0.2781  0.6257
  799MOL0     H10243   5.928   1.343  10.597  0.9271  1.1940 -3.3022
  799MOL0     H10244   5.782   0.763  10.370  0.1571  1.4072  3.1264
  799MOL0     H10245   5.919   0.646  10.207  2.4127  0.7359 -3.8037
  799MOL0     H10246   5.554   1.394   9.433  1.0311  0.3590  1.1942
  799MOL0     H10247   5.324   1.353   9.382  2.7151  3.0300  1.8610
  799MOL0     H10248   5.017   1.073   9.309  0.7849  3.0666  1.3331
  799MOL0     H10249   4.796   1.051   9.204 -3.0696  2.6160  0.1697
  799MOL0     H10250   4.370   1.020   9.326 -0.1251 -1.2622  2.7265
  799MOL0     H10251   4.438   1.065   9.488 -1.2683  0.5537  2.1471
  799MOL0     H10252   4.424   1.227   9.236 -5.0943  0.2029 -0.8057
  799MOL0     H10253   4.498   1.288   9.389  2.0672 -2.6900  0.6126
  799MOL0     H10254   4.240   1.362   9.339 -0.1254 -0.4499  1.4762
  799MOL0     H10255   4.201   1.191   9.348  0.4027 -0.1538  0.2753
  799MOL0     H10256   4.267   1.187   9.590  0.2032 -1.3480 -2.5917
  799MOL0     H10257   4.147   1.313   9.553  1.0249  1.1486  1.9510
  799MOL0     H10258   4.464   1.556   9.661 -1.2074 -0.7939  3.6886
  799MOL0     H10259   4.611   1.101   9.591 -1.5332 -1.5757 -1.1483
  799MOL0     H10260   4.884   1.296   9.714 -2.2951  0.1898 -2.5834
  799MOL0     H10261   4.719   1.252   9.739 -0.1125 -0.3808  0.1471
  799MOL0     H10262   4.852   1.137   9.797  2.2663  0.5534  0.2778
  800MOL0     O10263   0.021   8.671   6.084  0.1404 -0.0273  0.2048
  800MOL0     C10264  -0.009   8.550   6.096 -0.9707 -0.5962 -0.2335
  800MOL0     O10265  -0.009   8.456   5.993  0.5220  0.8722  0.8489
  800MOL0     C10266   0.013   8.489   5.857 -0.3483 -0.8231  0.1400
  800MOL0     C10267   0.043   8.391   5.771 -0.4217  0.3479  0.5913
  800MOL0     C10268   0.045   8.408   5.635  1.3484 -0.4912  0.0692
  800MOL0     C10269   0.016   8.531   5.574  0.5961 -0.5595 -0.2686
  800MOL0     O10270  -0.001   8.546   5.445  0.4660 -0.4974 -0.3092
  800MOL0     C10271  -0.045   8.444   5.362 -0.0641  1.0254 -0.1850
  800MOL0     C10272  -0.125   8.503   5.240  0.1946  0.4683  0.1052
  800MOL0     C10273  -0.249   8.576   5.293  0.4865  0.0533 -0.6639
  800MOL0     C10274  -0.319   8.677   5.201  0.5409 -0.1693 -0.2145
  800MOL0     C10275  -0.413   8.603   5.109  0.3518  0.1354 -0.0640
  800MOL0     C10276  -0.514   8.691   5.036  0.7443 -0.0516 -0.5406
  800MOL0     C10277  -0.446   8.795   4.945  0.6804 -0.3595  0.4185
  800MOL0     C10278  -0.449   8.940   4.999  0.2801 -0.3494 -0.1083
  800MOL0     N10279  -0.371   9.018   4.906  0.7212  0.1560 -0.3340
  800MOL0     C10280  -0.422   9.052   4.781 -0.2007 -0.1743  0.0453
  800MOL0     C10281  -0.315   9.105   4.711  0.8994  0.6471 -0.3455
  800MOL0     C10282  -0.312   9.147   4.566 -0.2349  1.1156 -1.0080
  800MOL0     C10283  -0.204   9.067   4.481  1.1211  0.2888 -1.4987
  800MOL0     C10284  -0.061   9.097   4.530 -0.9604  1.1120 -0.4073
  800MOL0     C10285  -0.024   9.245   4.536 -0.2662 -0.1501 -0.2674
  800MOL0     O10286  -0.035   9.301   4.406 -1.2364 -0.1319  0.3257
  800MOL0     C10287  -0.000   9.434   4.420 -0.2359 -0.1905  0.0263
  800MOL0     C10288  -0.102   9.529   4.413  0.4055  0.1110  0.0150
  800MOL0     C10289  -0.076   9.658   4.431  0.0256 -0.0914  0.1450
  800MOL0     C10290  -0.195   9.753   4.414 -0.9229 -0.0976  0.6925
  800MOL0     C10291   0.065   9.700   4.466  0.4662 -0.6831 -0.7012
  800MOL0     C10292   0.105   9.842   4.495 -0.4217 -0.3935 -0.2665
  800MOL0     O10293   0.250   9.864   4.514  0.6454 -0.2962 -0.6756
  800MOL0     C10294   0.294   9.991   4.517 -0.5847 -0.1504  0.1716
  800MOL0     C10295   0.278  10.078   4.627  0.4371 -0.2545  0.3992
  800MOL0     C10296   0.323  10.202   4.621  0.5726  0.3107  0.5399
  800MOL0     C10297   0.398  10.257   4.511  0.1103 -0.0240  0.3005
  800MOL0     O10298   0.460  10.380   4.537  1.2599  0.2507  0.7136
  800MOL0     C10299   0.505  10.461   4.433 -0.8172  0.4831 -0.3083
  800MOL0     C10300   0.589  10.580   4.486  0.4231  0.3918  0.7647
  800MOL0     C10301   0.624  10.683   4.382 -0.0213 -0.1787 -0.2394
  800MOL0     C10302   0.729  10.781   4.414 -0.4511  0.7452 -0.4655
  800MOL0     C10303   0.713  10.926   4.360 -0.4589  0.3259  0.8592
  800MOL0     C10304   0.736  10.929   4.204  0.2111  0.2226  0.7392
  800MOL0     C10305   0.835  11.028   4.160  0.1952 -0.6340 -0.5631
  800MOL0     C10306   0.853  11.017   4.007  0.9921  0.0817  0.4727
  800MOL0    Cl10307   1.004  11.093   3.949 -0.2105  0.0496  0.4305
  800MOL0     C10308   0.411  10.170   4.398  0.7237 -0.3079  0.1023
  800MOL0     C10309   0.357  10.042   4.405 -0.2884 -0.6421  0.1639
  800MOL0     O10310   0.022   9.933   4.513 -0.3008  0.4987  0.2416
  800MOL0     C10311   0.161   9.604   4.470 -0.6874 -0.1100  0.2249
  800MOL0     C10312   0.132   9.471   4.441 -0.1416 -0.3657 -0.0225
  800MOL0     N10313  -0.217   9.113   4.806 -0.3395  0.2700  1.2282
  800MOL0     N10314  -0.242   9.056   4.916 -0.4237 -1.0607  0.0826
  800MOL0     C10315   0.006   8.643   5.661 -0.6419  0.3859 -0.4859
  800MOL0     C10316   0.004   8.618   5.801  0.6650 -0.0931  0.4839
  800MOL0     C10317  -0.048   8.498   6.232  0.1108  0.3586  1.7374
  800MOL0     C10318  -0.041   8.360   6.240  0.5219  0.9689 -0.2114
  800MOL0     C10319  -0.098   8.299   6.357 -0.1605 -0.4756  0.2209
  800MOL0     C10320  -0.177   8.378   6.446  0.0791 -0.1425 -0.5720
  800MOL0     O10321  -0.247   8.340   6.553 -0.4028  1.0323 -0.2811
  800MOL0     C10322  -0.183   8.255   6.648  0.3669  0.2420  0.2090
  800MOL0     C10323  -0.038   8.298   6.683 -0.5458 -0.3931 -0.5389
  800MOL0     C10324  -0.065   8.433   6.767 -0.8714  0.0339  0.1896
  800MOL0     C10325   0.063   8.505   6.811 -1.9074 -0.1144  0.5627
  800MOL0     C10326   0.126   8.447   6.923  0.8449 -0.1123  0.7123
  800MOL0     C10327   0.205   8.425   7.012 -1.3588 -0.1632 -0.0533
  800MOL0     C10328  -0.184   8.511   6.425 -0.2925 -0.5125  0.1587
  800MOL0     C10329  -0.111   8.577   6.331 -0.4267 -0.0733 -0.0375
  800MOL0     C10330  -0.125   8.730   6.329 -0.2155 -0.4497 -0.0715
  800MOL0     H10331   0.037   8.287   5.799 -2.1570  0.5976  1.2759
  800MOL0     H10332   0.029   8.323   5.569 -1.2661  0.7888 -1.0947
  800MOL0     H10333  -0.101   8.363   5.410 -1.8052  2.1668 -0.1882
  800MOL0     H10334   0.042   8.384   5.335  2.0154  2.4454  2.7934
  800MOL0     H10335  -0.061   8.570   5.181  0.7699 -0.1982 -0.0442
  800MOL0     H10336  -0.155   8.420   5.176 -0.1869  2.0496 -1.8819
  800MOL0     H10337  -0.322   8.503   5.330 -2.2107  4.0314  2.8712
  800MOL0     H10338  -0.226   8.637   5.381 -4.7055  1.8716 -0.1766
  800MOL0     H10339  -0.374   8.736   5.276 -1.4673 -2.9697  0.6755
  800MOL0     H10340  -0.259   8.750   5.147 -0.9219  2.3690  1.3630
  800MOL0     H10341  -0.463   8.520   5.161  1.2371 -1.0376 -1.0299
  800MOL0     H10342  -0.341   8.552   5.044  0.4351 -0.0770  0.1926
  800MOL0     H10343  -0.589   8.629   4.986  1.8000 -0.0794 -2.1494
  800MOL0     H10344  -0.567   8.746   5.114  0.9959 -0.8461  0.2035
  800MOL0     H10345  -0.484   8.790   4.843  1.1110 -1.3698  0.2972
  800MOL0     H10346  -0.343   8.775   4.914  0.4525 -0.5100 -0.2487
  800MOL0     H10347  -0.548   8.984   5.012  1.3742  1.8539  1.3297
  800MOL0     H10348  -0.390   8.949   5.091 -1.3025  1.6381  0.7835
  800MOL0     H10349  -0.519   9.021   4.742  0.2450 -2.8863  0.8544
  800MOL0     H10350  -0.280   9.252   4.567  2.8761  0.2805 -0.3360
  800MOL0     H10351  -0.406   9.143   4.511 -0.4152  2.5268 -0.8484
  800MOL0     H10352  -0.229   8.961   4.495 -2.2931  1.2754  1.5618
  800MOL0     H10353  -0.214   9.089   4.374 -1.8062  0.6067 -1.2333
  800MOL0     H10354  -0.060   9.039   4.623 -2.0605 -1.8206 -2.1172
  800MOL0     H10355   0.008   9.056   4.456  1.7648  2.8290  0.9973
  800MOL0     H10356  -0.083   9.302   4.608 -0.9440  0.8270 -1.5605
  800MOL0     H10357   0.079   9.233   4.572 -1.4518 -1.1683  3.1709
  800MOL0     H10358  -0.202   9.492   4.393 -0.0489 -1.6642  4.4298
  800MOL0     H10359  -0.183   9.789   4.312  2.3506  2.2289  1.7454
  800MOL0     H10360  -0.189   9.841   4.478  1.5418  2.6053 -2.8355
  800MOL0     H10361  -0.294   9.708   4.422 -1.8944  1.5952 -0.9591
  800MOL0     H10362   0.216  10.055   4.713 -3.4253  0.6174 -1.9003
  800MOL0     H10363   0.304  10.273   4.701  4.6157  1.3637  0.7791
  800MOL0     H10364   0.573  10.402   4.371 -2.4742 -0.0623 -1.6763
  800MOL0     H10365   0.418  10.501   4.379 -2.9639 -2.8428  0.3946
  800MOL0     H10366   0.530  10.629   4.564 -0.6668 -2.5432  1.9187
  800MOL0     H10367   0.688  10.545   4.515  1.1413 -0.0709 -1.9709
  800MOL0     H10368   0.540  10.740   4.343  1.2258 -0.6351 -3.9855
  800MOL0     H10369   0.663  10.622   4.300 -2.6225 -2.9295  0.3977
  800MOL0     H10370   0.821  10.742   4.371  0.8839  0.9012  2.0744
  800MOL0     H10371   0.755  10.784   4.520  1.9075  1.0775 -0.9945
  800MOL0     H10372   0.620  10.971   4.397 -0.1611 -0.7481  3.0720
  800MOL0     H10373   0.798  10.978   4.405  0.2485  1.7288 -1.8713
  800MOL0     H10374   0.638  10.940   4.156  0.8487 -0.2428 -0.7200
  800MOL0     H10375   0.777  10.837   4.163 -0.4028  1.5139 -3.1757
  800MOL0     H10376   0.927  10.998   4.212 -1.0447 -0.0489  2.1485
  800MOL0     H10377   0.791  11.125   4.184 -1.8153 -0.3163 -4.6525
  800MOL0     H10378   0.768  11.053   3.948 -0.2387 -5.9882 -2.1644
  800MOL0     H10379   0.843  10.912   3.979  1.5484 -0.1951  1.2674
  800MOL0     H10380   0.462  10.193   4.305 -2.6112 -0.5217 -1.9342
  800MOL0     H10381   0.395   9.985   4.321  1.7492  0.6063  0.1539
  800MOL0     H10382   0.264   9.638   4.470 -1.1854  1.7443  3.1678
  800MOL0     H10383   0.205   9.392   4.442  1.2860  0.9074 -0.0374
  800MOL0     H10384  -0.018   8.743   5.625 -1.6835 -0.7232 -3.1924
  800MOL0     H10385  -0.017   8.710   5.854 -0.2104 -0.2432  0.4258
  800MOL0     H10386  -0.014   8.296   6.157 -0.3080 -0.2792  0.4468
  800MOL0     H10387  -0.089   8.191   6.367 -2.4090 -0.7981 -0.5623
  800MOL0     H10388  -0.240   8.231   6.738  0.4855  0.2072  0.2744
  800MOL0     H10389  -0.165   8.159   6.599  0.8928  1.9172 -3.1373
  800MOL0     H10390   0.026   8.304   6.594  1.4220  0.0861  0.8380
  800MOL0     H10391   0.005   8.227   6.754  1.4875  1.4337  0.1763
  800MOL0     H10392  -0.130   8.495   6.705 -2.9740 -1.5829  0.6744
  800MOL0     H10393  -0.116   8.412   6.861 -0.1043  2.2978  1.1812
  800MOL0     H10394   0.036   8.607   6.837 -1.2786  0.2222 -0.0852
  800MOL0     H10395   0.143   8.521   6.738 -0.7157 -0.4038  1.7669
  800MOL0     H10396   0.260   8.374   7.088 -1.6000 -1.2648 -0.5989
  800MOL0     H10397  -0.239   8.573   6.495 -3.1655  0.6635 -2.8614
  800MOL0     H10398  -0.203   8.761   6.259  1.1463 -0.0952 -1.5195
  800MOL0     H10399  -0.143   8.766   6.430 -0.6070  3.1287 -1.2922
  800MOL0     H10400  -0.029   8.777   6.303 -0.2910 -0.9463 -1.3562
  801MOL0     O10401  11.599   8.194  10.401  0.3660 -0.1034  0.7940
  801MOL0     C10402  11.633   8.160  10.289 -0.5062  0.0462  0.6855
  801MOL0     O10403  11.639   8.030  10.248  0.1187  0.6110 -0.0473
  801MOL0     C10404  11.575   7.920  10.317  0.4499 -1.0582  0.5266
  801MOL0     C10405  11.613   7.795  10.275  0.9302 -0.8894  0.0406
  801MOL0     C10406  11.577   7.680  10.352 -0.1240 -0.6229 -0.5061
  801MOL0     C10407  11.505   7.696  10.466 -1.1288 -0.4785 -0.3107
  801MOL0     O10408  11.471   7.587  10.536  0.5096 -0.6136 -0.3979
  801MOL0     C10409  11.475   7.614  10.681 -0.0835  0.3155 -0.6223
  801MOL0     C10410  11.432   7.482  10.751 -0.8690 -0.1693 -0.8092
  801MOL0     C10411  11.297   7.433  10.723  0.7980  0.2977  0.6985
  801MOL0     C10412  11.180   7.532  10.752 -0.3868  0.2043 -0.2330
  801MOL0     C10413  11.062   7.463  10.810  0.0150 -0.1807 -0.0793
  801MOL0     C10414  10.975   7.568  10.874  0.6105 -0.1211 -0.4425
  801MOL0     C10415  10.834   7.502  10.920 -0.3444 -0.4175  0.8411
  801MOL0     C10416  10.720   7.600  10.951 -1.2377 -0.1443  0.2568
  801MOL0     N10417  10.598   7.530  11.001  0.0728  0.3905  0.3639
  801MOL0     C10418  10.530   7.447  10.907  0.1024 -1.2561  0.8099
  801MOL0     C10419  10.445   7.378  10.985 -0.0188  0.0898 -0.4859
  801MOL0     C10420  10.340   7.288  10.932 -0.3838 -0.2210  0.8535
  801MOL0     C10421  10.239   7.370  10.844 -0.2583 -0.2128 -0.6477
  801MOL0     C10422  10.144   7.268  10.775  0.0943  0.5900  0.5112
  801MOL0     C10423  10.114   7.322  10.635  0.2455 -0.2548  0.2470
  801MOL0     O10424  10.207   7.283  10.542 -0.8564 -0.0025  0.6313
  801MOL0     C10425  10.173   7.341  10.424 -0.1483 -0.5539  0.4500
  801MOL0     C10426  10.042   7.388  10.382 -0.2994  1.1678 -0.6970
  801MOL0     C10427  10.020   7.433  10.256  0.3201  0.5371 -0.1468
  801MOL0     C10428   9.884   7.474  10.226 -1.1686 -0.6500 -0.9291
  801MOL0     C10429  10.125   7.442  10.165  0.8000  0.0236 -1.3312
  801MOL0     C10430  10.116   7.497  10.032 -0.2204 -0.1421  1.5694
  801MOL0     O10431  10.195   7.439   9.939 -0.0387 -0.0535  0.1362
  801MOL0     C10432  10.214   7.499   9.821 -0.8798  0.4656 -0.3567
  801MOL0     C10433  10.122   7.493   9.723 -0.0407 -0.5383  1.0057
  801MOL0     C10434  10.136   7.569   9.609 -0.0921  1.1520  0.6044
  801MOL0     C10435  10.255   7.633   9.579  0.2744 -0.2844  0.2660
  801MOL0     O10436  10.255   7.698   9.462 -0.1978  0.4629  0.2803
  801MOL0     C10437  10.315   7.632   9.359 -0.1487  0.5935 -0.3742
  801MOL0     C10438  10.387   7.728   9.254  0.1974  0.7630 -0.8812
  801MOL0     C10439  10.402   7.662   9.118  0.4812 -0.4897 -0.0699
  801MOL0     C10440  10.486   7.761   9.029 -0.1517  0.9343 -0.9145
  801MOL0     C10441  10.483   7.719   8.888 -0.3458  0.1612 -0.0763
  801MOL0     C10442  10.597   7.788   8.818  0.2404  0.2517  0.2061
  801MOL0     C10443  10.628   7.755   8.671 -0.5165 -0.4262  0.4355
  801MOL0     C10444  10.754   7.833   8.629  0.5415 -0.5886 -0.3531
  801MOL0    Cl10445  10.777   7.837   8.452  0.0440 -0.1439  0.1582
  801MOL0     C10446  10.363   7.623   9.673  0.2522 -0.0714  0.2442
  801MOL0     C10447  10.340   7.549   9.791 -0.8085 -0.1522 -0.2398
  801MOL0     O10448  10.044   7.595  10.013 -0.3399 -0.1228  0.3585
  801MOL0     C10449  10.248   7.408  10.208 -0.5259  0.3531 -0.7733
  801MOL0     C10450  10.278   7.346  10.332  0.6849 -0.5442 -0.5138
  801MOL0     N10451  10.464   7.412  11.117 -1.0672  0.9439  0.1552
  801MOL0     N10452  10.566   7.496  11.131 -0.0805 -0.3415 -0.0046
  801MOL0     C10453  11.447   7.822  10.494  1.0839  0.1707  0.5437
  801MOL0     C10454  11.485   7.933  10.424 -0.0364  0.0800  0.0076
  801MOL0     C10455  11.687   8.261  10.198  1.0099  0.2492  0.3776
  801MOL0     C10456  11.647   8.395  10.231  0.4643 -0.0553 -0.2750
  801MOL0     C10457  11.682   8.504  10.150 -0.3452  0.6873  0.4008
  801MOL0     C10458  11.749   8.493  10.037 -1.1873 -0.2349 -0.0235
  801MOL0     O10459  11.804   8.611   9.983 -0.7212  0.4141 -0.4488
  801MOL0     C10460  11.859   8.600   9.852 -0.3659 -0.6128  0.6815
  801MOL0     C10461  11.922   8.741   9.815 -0.4053 -0.6880 -1.1044
  801MOL0     C10462  12.045   8.762   9.902 -0.2064  0.3906  0.2598
  801MOL0     C10463  12.098   8.905   9.892  0.0024 -1.1969 -0.5190
  801MOL0     C10464  12.004   8.987   9.968  0.4429 -0.2697  1.1565
  801MOL0     C10465  11.939   9.075  10.022 -0.3667 -0.4940 -0.6632
  801MOL0     C10466  11.788   8.363  10.000  0.3429  0.4443  0.6740
  801MOL0     C10467  11.758   8.244  10.078 -0.2909 -0.0689  0.7129
  801MOL0     C10468  11.828   8.116  10.037 -0.1440  0.2604 -0.3869
  801MOL0     H10469  11.673   7.776  10.187  0.9585  0.9734 -0.3753
  801MOL0     H10470  11.612   7.579  10.332 -1.3986 -1.3112  0.5120
  801MOL0     H10471  11.409   7.694  10.716 -1.1446 -1.5077  1.8574
  801MOL0     H10472  11.579   7.640  10.706  0.1679 -0.3126 -1.0049
  801MOL0     H10473  11.500   7.405  10.713 -0.6138  0.4439 -1.6320
  801MOL0     H10474  11.439   7.505  10.858 -2.5173  1.0229 -0.9162
  801MOL0     H10475  11.290   7.409  10.616 -1.6331  0.2137  0.8190
  801MOL0     H10476  11.280   7.343  10.783  2.9944 -0.5503  0.1304
  801MOL0     H10477  11.216   7.613  10.816  1.5535  0.6584 -1.8082
  801MOL0     H10478  11.154   7.583  10.659  0.3851  0.4153 -0.3444
  801MOL0     H10479  11.090   7.384  10.880  2.1604  0.8451  0.2820
  801MOL0     H10480  11.015   7.410  10.726 -0.4670 -0.5262  0.4040
  801MOL0     H10481  11.021   7.625  10.956 -0.7543  0.6994 -0.2092
  801MOL0     H10482  10.939   7.639  10.799 -0.0589  1.4902  1.3023
  801MOL0     H10483  10.848   7.442  11.010  1.9011  0.8490  1.3999
  801MOL0     H10484  10.808   7.440  10.834 -1.7578  0.8617  0.2864
  801MOL0     H10485  10.744   7.670  11.031 -1.6678  1.1400 -0.6981
  801MOL0     H10486  10.701   7.658  10.860  4.1050 -1.9359 -2.4309
  801MOL0     H10487  10.548   7.456  10.800  0.5755  0.4876  1.0089
  801MOL0     H10488  10.288   7.253  11.022  2.9631  2.8729  4.3645
  801MOL0     H10489  10.384   7.202  10.880 -0.8550 -0.9711  1.6519
  801MOL0     H10490  10.193   7.443  10.911  0.4829  1.4754 -1.9084
  801MOL0     H10491  10.304   7.411  10.766  0.6036  1.1997  0.7613
  801MOL0     H10492  10.175   7.166  10.752 -0.7402  0.5979 -0.7317
  801MOL0     H10493  10.050   7.273  10.831  2.5171  1.5017  4.9409
  801MOL0     H10494  10.018   7.278  10.605 -0.9196  3.1220 -1.5771
  801MOL0     H10495  10.096   7.430  10.633  2.1478  0.0911 -1.1407
  801MOL0     H10496   9.949   7.387  10.437 -0.8233  3.4388 -1.4568
  801MOL0     H10497   9.863   7.446  10.122  0.8262 -0.2743 -1.4740
  801MOL0     H10498   9.880   7.583  10.217 -0.7255 -0.7153 -2.1566
  801MOL0     H10499   9.804   7.440  10.292  0.3736 -0.8443  0.9425
  801MOL0     H10500  10.026   7.447   9.743 -1.9172  2.1037 -1.1018
  801MOL0     H10501  10.043   7.576   9.553 -2.7292  2.1617  4.6596
  801MOL0     H10502  10.387   7.557   9.392  0.0889 -0.3283 -2.7985
  801MOL0     H10503  10.235   7.573   9.312  1.0041  0.2492 -1.9887
  801MOL0     H10504  10.313   7.807   9.243 -1.0383 -0.1175  0.7310
  801MOL0     H10505  10.488   7.752   9.289  1.7771 -0.9533 -3.8868
  801MOL0     H10506  10.301   7.655   9.078  1.0105  1.1069 -1.7737
  801MOL0     H10507  10.448   7.562   9.119 -0.3646 -0.9420  2.5972
  801MOL0     H10508  10.588   7.763   9.069  0.0401  0.5280 -1.3723
  801MOL0     H10509  10.439   7.859   9.042  1.1219  1.3277  1.3261
  801MOL0     H10510  10.494   7.610   8.882 -0.7417  0.0042  1.5260
  801MOL0     H10511  10.393   7.745   8.831  1.0265  0.7254 -2.0561
  801MOL0     H10512  10.690   7.765   8.872 -0.3596  2.8755  2.6133
  801MOL0     H10513  10.586   7.896   8.829  0.1125  0.3230 -0.6108
  801MOL0     H10514  10.538   7.763   8.610 -1.3454  0.9248  1.7537
  801MOL0     H10515  10.657   7.650   8.675 -0.0744 -0.6118 -3.7424
  801MOL0     H10516  10.853   7.807   8.669  1.8498  2.0762 -1.6547
  801MOL0     H10517  10.744   7.934   8.669 -0.3910  0.9268 -4.0507
  801MOL0     H10518  10.454   7.676   9.645 -1.8481  4.4047  1.1125
  801MOL0     H10519  10.425   7.533   9.857 -0.2822 -0.6457 -1.0062
  801MOL0     H10520  10.336   7.412  10.145  1.9928 -2.2360  2.2504
  801MOL0     H10521  10.368   7.313  10.383  0.1048 -1.1714  0.1274
  801MOL0     H10522  11.369   7.835  10.568  1.2086 -1.4269  0.9842
  801MOL0     H10523  11.439   8.027  10.454  1.3132  0.7482  0.0880
  801MOL0     H10524  11.586   8.422  10.316  0.0339 -0.3825 -0.4781
  801MOL0     H10525  11.662   8.602  10.192 -2.6666  0.1486  0.6964
  801MOL0     H10526  11.916   8.512   9.820 -3.0883 -2.2923  0.1522
  801MOL0     H10527  11.777   8.588   9.781  1.7809 -1.3376 -1.8401
  801MOL0     H10528  11.859   8.829   9.827 -0.5951 -0.9658  0.0905
  801MOL0     H10529  11.939   8.746   9.707  0.4275  0.2778 -0.9464
  801MOL0     H10530  12.031   8.734  10.007 -0.8794  3.3627  1.0470
  801MOL0     H10531  12.122   8.694   9.863  0.2958 -1.1371  3.5317
  801MOL0     H10532  12.111   8.944   9.791 -2.7876 -0.5772 -0.7053
  801MOL0     H10533  12.199   8.906   9.935 -0.9604  0.4018  1.9032
  801MOL0     H10534  11.886   9.151  10.076  1.9641 -0.4108  1.7136
  801MOL0     H10535  11.847   8.333   9.914 -1.7123 -4.3698  0.6316
  801MOL0     H10536  11.932   8.129  10.007 -0.0681 -1.2650 -0.8951
  801MOL0     H10537  11.829   8.068  10.135 -4.4288  2.9895  1.3052
  801MOL0     H10538  11.775   8.058   9.960 -2.6501  2.8661 -0.7994
  802MOL0     O10539   9.004   5.876   2.944  1.0023 -0.5295  0.0412
  802MOL0     C10540   8.903   5.819   2.962  0.4082  0.4268 -0.1836
  802MOL0     O10541   8.782   5.876   2.977  0.9615 -0.3889  0.7104
  802MOL0     C10542   8.783   6.011   2.980 -0.3498  0.0194  0.6737
  802MOL0     C10543   8.771   6.070   3.098  0.1601  0.7327 -0.7013
  802MOL0     C10544   8.772   6.205   3.117  0.7409  0.1264  0.1363
  802MOL0     C10545   8.775   6.295   3.001 -0.0081  0.9390 -0.1312
  802MOL0     O10546   8.762   6.432   3.004 -0.2510  0.1175  0.5279
  802MOL0     C10547   8.697   6.497   3.108  0.9072 -0.0540 -0.0453
  802MOL0     C10548   8.620   6.615   3.061 -0.3573  0.2765 -0.3590
  802MOL0     C10549   8.567   6.711   3.168  0.4451 -0.0439  0.0976
  802MOL0     C10550   8.430   6.662   3.215  0.0092 -0.5214  0.5080
  802MOL0     C10551   8.370   6.751   3.324 -0.0844  0.2096  0.5812
  802MOL0     C10552   8.261   6.677   3.398 -0.0764 -0.1577  0.7670
  802MOL0     C10553   8.195   6.760   3.510  0.2399  0.1392 -0.1395
  802MOL0     C10554   8.061   6.689   3.560 -0.0189 -0.0107  0.9434
  802MOL0     N10555   7.955   6.692   3.456 -0.5392 -0.2813 -0.1220
  802MOL0     C10556   7.881   6.585   3.406  0.4320 -0.6851 -0.1722
  802MOL0     C10557   7.831   6.634   3.290 -0.5581 -0.8467 -0.0927
  802MOL0     C10558   7.732   6.579   3.187  0.4310 -0.0992  0.5879
  802MOL0     C10559   7.583   6.602   3.212  0.5330 -0.8579  0.1087
  802MOL0     C10560   7.536   6.622   3.355  0.1492 -0.4123  0.1683
  802MOL0     C10561   7.550   6.766   3.397  0.3461 -0.5784  0.3407
  802MOL0     O10562   7.584   6.761   3.539 -0.0083 -0.0820 -0.8907
  802MOL0     C10563   7.511   6.854   3.604  0.0871  0.6863 -0.3619
  802MOL0     C10564   7.415   6.818   3.697  0.4735 -0.7111  0.0878
  802MOL0     C10565   7.326   6.917   3.750 -1.0032 -0.0756  0.7004
  802MOL0     C10566   7.213   6.861   3.833  0.4803 -0.1993  0.4824
  802MOL0     C10567   7.345   7.056   3.727 -0.7139  0.9486  0.0090
  802MOL0     C10568   7.265   7.163   3.787  0.3883  0.0020  0.7045
  802MOL0     O10569   7.283   7.286   3.737  0.1099  0.1253 -0.0436
  802MOL0     C10570   7.247   7.385   3.820  0.7925  0.2497 -0.3617
  802MOL0     C10571   7.119   7.441   3.820  0.1394 -0.9622  0.6340
  802MOL0     C10572   7.080   7.538   3.911 -0.7590 -0.0868 -1.0625
  802MOL0     C10573   7.173   7.582   4.011  0.3658  0.4889 -0.9000
  802MOL0     O10574   7.136   7.681   4.099  0.0281  0.1912 -0.0832
  802MOL0     C10575   7.218   7.795   4.098 -0.2676  0.2848  0.5266
  802MOL0     C10576   7.106   7.903   4.083  0.0428 -0.6364 -0.3135
  802MOL0     C10577   7.040   7.931   4.219 -0.2049 -0.5023  0.3093
  802MOL0     C10578   6.908   8.019   4.225 -0.5908 -0.6785  0.5814
  802MOL0     C10579   6.949   8.161   4.184 -0.3877  1.1160  0.2328
  802MOL0     C10580   6.858   8.274   4.219  0.7068  0.4109  0.4380
  802MOL0     C10581   6.895   8.402   4.167 -0.3795  0.2839 -0.8003
  802MOL0     C10582   7.023   8.473   4.232  0.6074  0.2910 -0.5658
  802MOL0    Cl10583   7.016   8.509   4.398  0.1540 -0.8287 -0.0788
  802MOL0     C10584   7.296   7.526   4.014 -0.3010 -1.5410 -0.1257
  802MOL0     C10585   7.333   7.427   3.923 -0.3445  0.7910  0.4602
  802MOL0     O10586   7.204   7.138   3.895 -0.0724 -0.2094  0.3020
  802MOL0     C10587   7.438   7.088   3.631  0.1486  0.6768 -0.0961
  802MOL0     C10588   7.525   6.989   3.581 -0.3838  0.1861  0.8591
  802MOL0     N10589   7.867   6.768   3.270  0.4534  0.3534  0.5190
  802MOL0     N10590   7.933   6.802   3.373 -0.4504  0.0768  1.1798
  802MOL0     C10591   8.799   6.231   2.885  0.1477  0.3719  0.1863
  802MOL0     C10592   8.803   6.093   2.866  0.7666 -0.0790  0.2011
  802MOL0     C10593   8.905   5.674   2.966 -0.3481  1.0080  0.7294
  802MOL0     C10594   8.791   5.613   3.022  0.7959  1.1199  0.0131
  802MOL0     C10595   8.773   5.476   3.044  0.4486  0.3538  0.9656
  802MOL0     C10596   8.882   5.394   3.012 -0.3421 -0.1827  0.3487
  802MOL0     O10597   8.877   5.258   3.016 -0.3618  0.1164 -0.2664
  802MOL0     C10598   8.758   5.192   3.053  0.4264  0.4271 -0.3162
  802MOL0     C10599   8.782   5.042   3.043  0.8382 -0.5317 -0.3130
  802MOL0     C10600   8.904   5.000   3.129 -0.5606 -0.3974  0.4565
  802MOL0     C10601   8.902   4.848   3.138 -0.1913  0.4485 -0.8234
  802MOL0     C10602   9.038   4.784   3.124  0.3604  0.5614 -0.2722
  802MOL0     C10603   9.143   4.723   3.111  0.3342 -0.1421 -0.6144
  802MOL0     C10604   9.002   5.451   2.969  0.4806 -0.3771  0.1149
  802MOL0     C10605   9.010   5.586   2.937 -0.2416 -1.1264  0.1628
  802MOL0     C10606   9.137   5.622   2.866  0.1114  0.1483 -0.2394
  802MOL0     H10607   8.753   6.002   3.180  3.6749 -4.1557 -3.4029
  802MOL0     H10608   8.762   6.254   3.214 -0.0371 -0.5729  0.4286
  802MOL0     H10609   8.756   6.532   3.193  0.6510 -0.2359  0.2105
  802MOL0     H10610   8.628   6.431   3.162  0.3334  0.2102 -0.4442
  802MOL0     H10611   8.675   6.681   2.994  0.8126 -2.2223 -2.0315
  802MOL0     H10612   8.532   6.583   3.003 -2.1715  1.3429  1.6799
  802MOL0     H10613   8.622   6.732   3.260 -0.3023  1.5349  0.2204
  802MOL0     H10614   8.555   6.807   3.117  0.1914 -0.9753 -1.6949
  802MOL0     H10615   8.377   6.648   3.120  0.4270  2.0257 -0.1808
  802MOL0     H10616   8.445   6.563   3.259  0.4780 -0.8350 -0.3309
  802MOL0     H10617   8.333   6.845   3.280  1.8706 -0.3065 -2.4566
  802MOL0     H10618   8.455   6.766   3.391  1.1398 -0.6045 -0.7389
  802MOL0     H10619   8.175   6.659   3.333 -1.6821  2.8496  1.8471
  802MOL0     H10620   8.301   6.584   3.440 -0.7135  0.6401  3.3045
  802MOL0     H10621   8.163   6.858   3.474 -2.9747 -0.6317  0.2590
  802MOL0     H10622   8.260   6.765   3.598  0.7437  4.0019 -0.5705
  802MOL0     H10623   8.093   6.586   3.580 -2.9428 -2.4643 -4.8272
  802MOL0     H10624   8.032   6.746   3.649 -1.1643  1.8202 -0.5364
  802MOL0     H10625   7.872   6.489   3.456 -0.3714  0.8671  2.9424
  802MOL0     H10626   7.736   6.474   3.159  1.1598 -0.0482  0.4768
  802MOL0     H10627   7.751   6.626   3.090  1.5905 -0.5897  0.5662
  802MOL0     H10628   7.560   6.695   3.160  1.4568  0.2419  1.5677
  802MOL0     H10629   7.541   6.515   3.161  1.3672  0.6046 -3.3914
  802MOL0     H10630   7.432   6.586   3.361  0.6917 -2.1748 -0.3293
  802MOL0     H10631   7.595   6.556   3.419 -0.8787  0.4716  2.1083
  802MOL0     H10632   7.633   6.817   3.346 -0.5571  1.1719  0.5467
  802MOL0     H10633   7.469   6.835   3.372 -0.2213 -1.0533  0.8407
  802MOL0     H10634   7.412   6.710   3.712 -0.6283 -0.4276  2.2043
  802MOL0     H10635   7.116   6.899   3.798  0.9581  2.3599  1.6461
  802MOL0     H10636   7.212   6.893   3.938 -4.3421  0.3635  0.4759
  802MOL0     H10637   7.216   6.752   3.827  3.0000 -0.0982 -1.9107
  802MOL0     H10638   7.049   7.414   3.741  1.5277 -3.1395  0.0431
  802MOL0     H10639   6.980   7.581   3.917 -0.9023 -0.5784  3.3594
  802MOL0     H10640   7.291   7.795   4.180 -0.4925  1.3526  0.7389
  802MOL0     H10641   7.279   7.804   4.008  1.0873  2.4463  1.5959
  802MOL0     H10642   7.146   7.998   4.048 -3.6403  0.8046 -1.0300
  802MOL0     H10643   7.032   7.872   4.009  0.6877 -2.0869 -0.3920
  802MOL0     H10644   7.115   7.981   4.281  1.8043 -2.5428 -0.3413
  802MOL0     H10645   7.008   7.832   4.253  1.6084 -1.9318 -1.8531
  802MOL0     H10646   6.876   8.020   4.329  0.0362  1.8628  0.8022
  802MOL0     H10647   6.829   7.984   4.157 -0.8890  0.7534  0.1574
  802MOL0     H10648   7.046   8.193   4.225  0.2596  1.5826 -1.5611
  802MOL0     H10649   6.959   8.160   4.075 -0.7711  0.3441  0.2043
  802MOL0     H10650   6.852   8.276   4.328 -1.4402  0.6976  0.3643
  802MOL0     H10651   6.755   8.255   4.187  0.5648 -1.7264  1.9335
  802MOL0     H10652   6.811   8.468   4.189 -0.3654  0.2132 -0.5402
  802MOL0     H10653   6.924   8.413   4.062  3.1118  3.6701  0.2705
  802MOL0     H10654   7.031   8.570   4.184  0.0613 -0.4470 -2.2084
  802MOL0     H10655   7.123   8.428   4.227  1.2156  1.1295  2.2861
  802MOL0     H10656   7.363   7.547   4.097  1.2999 -0.8153 -1.5451
  802MOL0     H10657   7.431   7.384   3.943 -1.4847 -1.4078  1.7489
  802MOL0     H10658   7.460   7.190   3.602 -2.3835  1.9279  2.0227
  802MOL0     H10659   7.603   7.026   3.515 -1.3793  1.1500  0.1817
  802MOL0     H10660   8.789   6.297   2.799  0.4053  0.0669 -0.0800
  802MOL0     H10661   8.804   6.060   2.763 -1.9428  2.6381 -0.8129
  802MOL0     H10662   8.708   5.674   3.057  0.8623  0.9367  0.5067
  802MOL0     H10663   8.683   5.445   3.096 -2.3375  2.9320 -1.9043
  802MOL0     H10664   8.724   5.230   3.150  1.2830  1.5607 -0.4438
  802MOL0     H10665   8.677   5.205   2.980  1.9149 -2.7082 -2.7516
  802MOL0     H10666   8.794   5.008   2.940  0.0874 -5.6064  1.0257
  802MOL0     H10667   8.692   4.999   3.087  0.1788  2.3930  1.4854
  802MOL0     H10668   8.991   5.034   3.073 -1.1536 -1.6929 -1.3218
  802MOL0     H10669   8.913   5.039   3.231  1.9069  0.4593 -0.0212
  802MOL0     H10670   8.830   4.808   3.066 -4.2493  1.2738  2.4581
  802MOL0     H10671   8.866   4.813   3.235 -1.5466  2.9813 -0.3168
  802MOL0     H10672   9.232   4.663   3.107  1.5873  0.7775  4.8613
  802MOL0     H10673   9.089   5.387   2.956 -1.6080 -2.9297 -2.7679
  802MOL0     H10674   9.177   5.534   2.815 -0.6366 -2.1644  2.9014
  802MOL0     H10675   9.114   5.689   2.782 -3.0161 -1.7037 -0.9967
  802MOL0     H10676   9.209   5.666   2.936  0.7195 -1.5558  0.2405
  803MOL0     O10677   7.012   1.317   4.180  0.6252 -0.1940  0.2495
  803MOL0     C10678   6.996   1.432   4.130  1.1109  1.1810  0.5976
  803MOL0     O10679   6.920   1.528   4.186  0.5520  0.2213 -0.4678
  803MOL0     C10680   6.859   1.532   4.315  0.0821 -1.1677 -0.0516
  803MOL0     C10681   6.736   1.598   4.333  0.2256 -0.1572 -0.2971
  803MOL0     C10682   6.675   1.607   4.461 -0.3876  0.9663  0.7788
  803MOL0     C10683   6.742   1.543   4.571 -0.3577 -0.4647  0.9454
  803MOL0     O10684   6.681   1.557   4.692 -0.0995 -0.4234 -0.1723
  803MOL0     C10685   6.762   1.566   4.813 -1.0160 -0.6317  0.4420
  803MOL0     C10686   6.687   1.654   4.925  0.1316  0.2895  0.1489
  803MOL0     C10687   6.735   1.637   5.063  0.0282 -0.0327  0.6700
  803MOL0     C10688   6.664   1.743   5.158 -0.3627 -0.0196  1.3847
  803MOL0     C10689   6.703   1.727   5.304 -0.0670  0.9232  1.3551
  803MOL0     C10690   6.650   1.844   5.393  0.1003  0.2596 -0.5886
  803MOL0     C10691   6.501   1.840   5.441 -1.2150  0.2550  1.0773
  803MOL0     C10692   6.470   1.982   5.502 -0.5826 -0.1912 -0.0110
  803MOL0     N10693   6.520   1.992   5.638 -0.0879 -0.5147 -0.2400
  803MOL0     C10694   6.475   1.928   5.751  1.1638  0.2680 -0.4814
  803MOL0     C10695   6.553   1.977   5.858  0.6812  0.7827  1.1988
  803MOL0     C10696   6.536   1.919   5.997  0.3091 -0.0896 -0.7616
  803MOL0     C10697   6.530   1.762   5.988 -0.3362 -0.1775 -0.6015
  803MOL0     C10698   6.571   1.716   6.130 -0.3111  0.2670  0.5283
  803MOL0     C10699   6.722   1.740   6.173 -0.2160  0.2544  0.4894
  803MOL0     O10700   6.762   1.644   6.266 -0.0906  0.2566 -0.0765
  803MOL0     C10701   6.821   1.530   6.224 -0.2282  0.6703 -0.5780
  803MOL0     C10702   6.754   1.412   6.192  0.2901 -0.0111  0.9314
  803MOL0     C10703   6.820   1.297   6.140  0.2081 -0.7217  0.1678
  803MOL0     C10704   6.722   1.187   6.102 -0.6195  0.0289  1.1633
  803MOL0     C10705   6.961   1.290   6.137 -0.4456  0.0643  0.7435
  803MOL0     C10706   7.043   1.184   6.066  0.8730 -0.1750  0.1043
  803MOL0     O10707   6.980   1.071   6.060 -0.6061  0.8661  0.8012
  803MOL0     C10708   7.040   0.977   5.979  0.8092 -0.4665 -0.5726
  803MOL0     C10709   7.146   0.907   6.039 -0.1183  0.1611 -0.5299
  803MOL0     C10710   7.206   0.816   5.961 -0.2110  0.0396  0.0574
  803MOL0     C10711   7.180   0.795   5.826  0.0333  0.3289  0.1818
  803MOL0     O10712   7.272   0.710   5.763 -0.1125 -0.1792 -0.8463
  803MOL0     C10713   7.372   0.769   5.670 -0.2397 -0.1237 -0.1784
  803MOL0     C10714   7.407   0.672   5.550 -0.2263 -0.0371 -0.4207
  803MOL0     C10715   7.291   0.682   5.451 -0.3386  0.5230  0.9648
  803MOL0     C10716   7.339   0.742   5.318 -0.3151  0.5211 -1.4829
  803MOL0     C10717   7.212   0.762   5.230 -0.0603 -0.2464  0.2986
  803MOL0     C10718   7.257   0.791   5.073 -0.0170  0.3931  0.0893
  803MOL0     C10719   7.378   0.897   5.057  0.3055  0.6138  1.3177
  803MOL0     C10720   7.388   0.925   4.900 -0.0829 -0.1015  0.1852
  803MOL0    Cl10721   7.530   1.033   4.875 -0.0840 -0.1072 -0.5896
  803MOL0     C10722   7.081   0.873   5.766 -0.3786  0.5947 -0.8982
  803MOL0     C10723   7.009   0.961   5.843  0.1100 -0.2621 -1.1948
  803MOL0     O10724   7.157   1.211   6.023  0.3038 -0.5057  0.1865
  803MOL0     C10725   7.027   1.392   6.200 -0.2471  0.0786 -0.1097
  803MOL0     C10726   6.960   1.511   6.238  0.6964  0.9851  0.1874
  803MOL0     N10727   6.643   2.063   5.798  0.0800  0.3402 -0.1889
  803MOL0     N10728   6.625   2.068   5.672 -0.4633  0.0924  1.0162
  803MOL0     C10729   6.863   1.468   4.549  0.9305 -1.0286 -0.5517
  803MOL0     C10730   6.920   1.478   4.420  0.9311  0.0578 -0.0760
  803MOL0     C10731   7.050   1.473   3.997  0.2369  0.6668 -0.2509
  803MOL0     C10732   7.036   1.605   3.940  0.1416 -0.3095 -0.0189
  803MOL0     C10733   7.102   1.645   3.828 -0.5594  0.7205  0.7047
  803MOL0     C10734   7.167   1.551   3.748 -0.3066  0.2315  0.4863
  803MOL0     O10735   7.230   1.569   3.624  0.3752  0.1374 -0.3100
  803MOL0     C10736   7.238   1.700   3.569 -0.3049 -0.0607  0.6598
  803MOL0     C10737   7.112   1.752   3.493  0.1815  0.5325 -0.1206
  803MOL0     C10738   7.099   1.678   3.359 -1.8622  0.1161 -0.4270
  803MOL0     C10739   7.049   1.779   3.253  0.1499  0.0150  0.8701
  803MOL0     C10740   7.037   1.716   3.118  0.1937  0.4165  0.4859
  803MOL0     C10741   7.019   1.649   3.017  0.0507  0.0801  0.4499
  803MOL0     C10742   7.186   1.427   3.805  0.1961  0.0548 -0.1611
  803MOL0     C10743   7.138   1.380   3.928  0.5222  0.8178 -0.1528
  803MOL0     C10744   7.191   1.244   3.970 -0.7541  0.2660  0.0355
  803MOL0     H10745   6.691   1.634   4.241 -0.5328 -3.3067 -1.2968
  803MOL0     H10746   6.583   1.663   4.461 -0.3346  1.0933 -0.4131
  803MOL0     H10747   6.861   1.614   4.813 -1.1376 -0.3791  0.5542
  803MOL0     H10748   6.784   1.467   4.856 -1.3518  0.1341  2.5208
  803MOL0     H10749   6.722   1.752   4.893  2.9828 -0.3999  0.8573
  803MOL0     H10750   6.579   1.659   4.912 -0.3176  0.6722  3.3311
  803MOL0     H10751   6.723   1.535   5.101  0.5375  0.5660  2.5398
  803MOL0     H10752   6.841   1.662   5.075  0.4146 -2.2863  2.6201
  803MOL0     H10753   6.701   1.836   5.113  1.2509 -1.2561 -0.0345
  803MOL0     H10754   6.556   1.733   5.162 -0.3240 -3.7794 -1.3694
  803MOL0     H10755   6.811   1.716   5.308 -0.3477 -3.0743  2.7096
  803MOL0     H10756   6.663   1.631   5.338  1.6930 -0.1831  0.3969
  803MOL0     H10757   6.717   1.853   5.479 -0.2397  3.0983 -0.5449
  803MOL0     H10758   6.651   1.937   5.337 -1.9222  1.3416  1.0316
  803MOL0     H10759   6.488   1.749   5.500  0.0454 -2.3182 -2.3224
  803MOL0     H10760   6.437   1.821   5.354 -2.3567 -2.0035  2.3207
  803MOL0     H10761   6.498   2.058   5.429 -0.6950 -2.7891 -2.9826
  803MOL0     H10762   6.362   1.998   5.502 -0.8801 -1.9559  1.3508
  803MOL0     H10763   6.389   1.862   5.754 -0.6511  2.4869 -0.8393
  803MOL0     H10764   6.445   1.968   6.030 -0.7464 -2.3457 -0.1583
  803MOL0     H10765   6.619   1.951   6.061  0.3953 -0.4831 -0.6722
  803MOL0     H10766   6.429   1.729   5.966 -1.3621  0.7685  2.2034
  803MOL0     H10767   6.602   1.717   5.918  0.5247  0.4148 -0.1182
  803MOL0     H10768   6.494   1.765   6.192 -4.1261 -2.6604 -1.4444
  803MOL0     H10769   6.537   1.613   6.139  0.2310  0.2004  2.0776
  803MOL0     H10770   6.772   1.717   6.079 -4.3943  1.0269 -2.1623
  803MOL0     H10771   6.745   1.842   6.205 -1.3248  0.7815 -0.3206
  803MOL0     H10772   6.646   1.419   6.200 -0.0603 -0.3322 -2.3335
  803MOL0     H10773   6.740   1.084   6.136 -1.9502 -0.8702 -0.6618
  803MOL0     H10774   6.719   1.164   5.995 -0.7618 -0.5640  1.2908
  803MOL0     H10775   6.622   1.201   6.146  0.7156  2.0566  3.8600
  803MOL0     H10776   7.161   0.920   6.146 -0.0603  0.3711 -0.5619
  803MOL0     H10777   7.296   0.765   5.994  1.2926  2.2029 -0.4655
  803MOL0     H10778   7.356   0.872   5.638 -0.0285  1.1114  3.3088
  803MOL0     H10779   7.461   0.788   5.730 -1.4269  1.0211  1.3191
  803MOL0     H10780   7.499   0.705   5.501  0.6779  1.8220  2.2611
  803MOL0     H10781   7.424   0.569   5.580  0.1452 -0.6383 -2.5158
  803MOL0     H10782   7.215   0.748   5.493 -0.3450 -0.0521  1.8868
  803MOL0     H10783   7.247   0.586   5.423  3.2843 -0.5601 -1.7645
  803MOL0     H10784   7.420   0.683   5.275  0.1701 -0.8078  1.0776
  803MOL0     H10785   7.375   0.845   5.332  0.1980  0.3977 -1.9030
  803MOL0     H10786   7.161   0.666   5.220  2.0047 -1.1387 -2.9588
  803MOL0     H10787   7.147   0.840   5.271 -2.4068 -3.6338  3.8324
  803MOL0     H10788   7.171   0.817   5.010 -0.9537  2.4346  2.0409
  803MOL0     H10789   7.298   0.694   5.044 -0.2676 -0.4054  2.2472
  803MOL0     H10790   7.477   0.862   5.087  0.6235  0.1298 -0.1727
  803MOL0     H10791   7.350   0.981   5.120 -0.1608 -0.2497  2.2788
  803MOL0     H10792   7.304   0.984   4.865  2.1194  1.7723 -2.3811
  803MOL0     H10793   7.405   0.836   4.839 -2.5359 -1.6584  1.6152
  803MOL0     H10794   7.052   0.864   5.661  3.7097  0.9059 -2.2125
  803MOL0     H10795   6.933   1.028   5.805 -0.4275  1.9453  3.1582
  803MOL0     H10796   7.135   1.386   6.211 -0.0166  1.4820 -1.3655
  803MOL0     H10797   7.022   1.591   6.277  1.5492 -0.0599  1.0222
  803MOL0     H10798   6.909   1.423   4.636  0.8936  0.2076  0.1264
  803MOL0     H10799   7.018   1.437   4.398  2.2539  2.6008  0.7372
  803MOL0     H10800   6.970   1.674   3.993  1.8780 -0.4882  2.5523
  803MOL0     H10801   7.106   1.747   3.790  1.0791  1.5149  2.7823
  803MOL0     H10802   7.269   1.764   3.652  1.6995 -0.6621  0.4284
  803MOL0     H10803   7.319   1.712   3.496 -1.2888  0.0578 -0.4524
  803MOL0     H10804   7.119   1.861   3.490  0.8737  0.5217  0.7001
  803MOL0     H10805   7.031   1.726   3.562 -0.8530 -0.3531 -1.6056
  803MOL0     H10806   7.189   1.623   3.331 -1.2926 -0.4404  2.2170
  803MOL0     H10807   7.026   1.600   3.379 -0.9000 -0.8659 -0.6773
  803MOL0     H10808   7.119   1.863   3.248  0.3198 -0.1803 -0.1752
  803MOL0     H10809   6.949   1.806   3.289  0.3693  2.5651 -0.1723
  803MOL0     H10810   7.000   1.576   2.940 -0.0643  1.0796 -0.4853
  803MOL0     H10811   7.267   1.367   3.765 -0.3036 -2.9255  2.8230
  803MOL0     H10812   7.258   1.268   4.053 -0.9190  0.5980  0.0751
  803MOL0     H10813   7.124   1.170   4.015 -0.5930  1.3669  2.1999
  803MOL0     H10814   7.238   1.181   3.893 -2.2431 -1.4346  0.4553
  804MOL0     O10815   8.370   1.553   8.443 -0.2257  0.3143 -0.2344
  804MOL0     C10816   8.421   1.558   8.336 -0.8676  0.0381 -0.0792
  804MOL0     O10817   8.358   1.599   8.223  0.2147 -0.2141  0.3136
  804MOL0     C10818   8.227   1.633   8.217  0.8340  0.4364  0.1611
  804MOL0     C10819   8.187   1.670   8.089 -0.4719 -0.2101  0.0384
  804MOL0     C10820   8.049   1.700   8.071  0.8054  0.2438  0.0887
  804MOL0     C10821   7.955   1.693   8.179 -0.3416  0.3003  0.2388
  804MOL0     O10822   7.825   1.724   8.152  0.7902  0.0885  0.0152
  804MOL0     C10823   7.762   1.614   8.085 -1.0527  0.4656 -0.5088
  804MOL0     C10824   7.626   1.611   8.138  0.6945 -0.3987  0.0675
  804MOL0     C10825   7.548   1.510   8.067  1.2401  0.0258 -1.1134
  804MOL0     C10826   7.401   1.500   8.119  0.8797 -0.8712 -0.5047
  804MOL0     C10827   7.336   1.373   8.067 -0.7483 -0.8461  0.1902
  804MOL0     C10828   7.205   1.353   8.153 -0.2510 -0.5084 -0.2349
  804MOL0     C10829   7.133   1.227   8.104 -0.4459 -0.2782 -0.3320
  804MOL0     C10830   6.991   1.226   8.165 -0.1351 -0.2613 -0.3212
  804MOL0     N10831   6.918   1.099   8.140 -0.2590 -0.9421  0.0686
  804MOL0     C10832   6.936   1.018   8.028  0.4813 -0.6757  0.2778
  804MOL0     C10833   6.819   0.942   8.016  0.1175 -0.0885  0.9740
  804MOL0     C10834   6.802   0.824   7.927 -0.6403 -0.0580 -1.1314
  804MOL0     C10835   6.810   0.693   8.005 -0.0274 -0.0779 -0.3559
  804MOL0     C10836   6.699   0.668   8.111  0.0575 -0.6512 -0.4485
  804MOL0     C10837   6.566   0.646   8.040 -0.6217 -0.4273  0.2020
  804MOL0     O10838   6.482   0.573   8.129  0.4618 -0.6967  0.2380
  804MOL0     C10839   6.397   0.641   8.213 -0.3995 -0.6412  0.4512
  804MOL0     C10840   6.421   0.773   8.260 -0.3837 -0.3091  0.1222
  804MOL0     C10841   6.356   0.825   8.376  0.2124 -0.0723  0.3027
  804MOL0     C10842   6.378   0.968   8.398 -0.1176 -0.8741  0.2273
  804MOL0     C10843   6.253   0.751   8.440  0.1995 -0.4859  0.0175
  804MOL0     C10844   6.186   0.780   8.565 -0.0538  1.7296  0.2881
  804MOL0     O10845   6.258   0.847   8.658 -0.2554 -0.0358 -0.3709
  804MOL0     C10846   6.196   0.869   8.774  0.2009 -0.4288 -0.0519
  804MOL0     C10847   6.101   0.975   8.789 -1.1807 -0.5043 -0.6041
  804MOL0     C10848   6.018   0.964   8.902  0.1024 -0.0276 -0.1219
  804MOL0     C10849   6.008   0.856   8.980  0.5736 -0.0254 -0.7206
  804MOL0     O10850   5.916   0.859   9.085  0.2181 -0.6693  0.4838
  804MOL0     C10851   5.873   0.738   9.158 -0.7049  0.1516 -0.8061
  804MOL0     C10852   5.738   0.778   9.217  0.2914  0.9418  0.9405
  804MOL0     C10853   5.666   0.652   9.276 -0.7817 -0.8929  0.1716
  804MOL0     C10854   5.560   0.697   9.377 -0.2629  0.0069  0.1048
  804MOL0     C10855   5.438   0.776   9.315 -0.7888 -0.7816  0.7913
  804MOL0     C10856   5.321   0.775   9.413  0.5846 -0.5460  0.1948
  804MOL0     C10857   5.238   0.641   9.420  0.8911 -0.5525 -0.2370
  804MOL0     C10858   5.087   0.660   9.437  0.0647 -0.1944 -0.5119
  804MOL0    Cl10859   5.005   0.767   9.308 -0.3159 -0.3709  0.2056
  804MOL0     C10860   6.098   0.755   8.961  0.1445 -0.0776 -0.0641
  804MOL0     C10861   6.201   0.762   8.863 -0.2909 -0.7151  0.6133
  804MOL0     O10862   6.067   0.753   8.579  0.7171 -0.2093 -0.1096
  804MOL0     C10863   6.225   0.623   8.381 -1.0418 -0.0081 -0.4269
  804MOL0     C10864   6.295   0.570   8.274 -0.1446  0.2185  0.0116
  804MOL0     N10865   6.729   0.991   8.119  0.1641  0.0675  0.6714
  804MOL0     N10866   6.796   1.073   8.188  0.1653 -0.1396 -0.0419
  804MOL0     C10867   8.003   1.675   8.308 -1.1554 -0.5133 -0.4799
  804MOL0     C10868   8.135   1.640   8.326 -0.1129 -0.4954 -0.5913
  804MOL0     C10869   8.573   1.534   8.340 -0.4556  0.0390 -0.4854
  804MOL0     C10870   8.656   1.622   8.281  0.4337 -0.7362 -0.0199
  804MOL0     C10871   8.785   1.628   8.316  0.0608  0.0002 -0.1056
  804MOL0     C10872   8.844   1.521   8.379  0.0708 -0.4754  0.0472
  804MOL0     O10873   8.980   1.516   8.407 -0.0120 -0.0666 -1.0895
  804MOL0     C10874   9.063   1.627   8.365 -0.0631  0.5580  0.6427
  804MOL0     C10875   9.210   1.588   8.378 -0.0358 -0.0714 -0.1046
  804MOL0     C10876   9.306   1.691   8.319  0.4964 -0.9221 -0.1470
  804MOL0     C10877   9.447   1.656   8.370 -0.8998  0.1511  0.4379
  804MOL0     C10878   9.554   1.633   8.266  0.6427 -0.3534  0.0663
  804MOL0     C10879   9.644   1.624   8.185  0.1217 -0.6869 -0.9319
  804MOL0     C10880   8.763   1.433   8.434  0.0727  0.6907 -0.3686
  804MOL0     C10881   8.625   1.429   8.414 -0.4918 -0.5206 -0.7867
  804MOL0     C10882   8.548   1.318   8.464  0.1068 -0.1865  0.3503
  804MOL0     H10883   8.252   1.687   8.004 -0.3753 -1.0638 -0.0691
  804MOL0     H10884   8.036   1.740   7.971  0.6180  1.3566  0.5535
  804MOL0     H10885   7.808   1.516   8.099 -0.5208  0.4830 -1.9342
  804MOL0     H10886   7.786   1.631   7.980  2.0651  1.4450  0.2813
  804MOL0     H10887   7.637   1.586   8.244  2.4615 -1.2690 -0.2767
  804MOL0     H10888   7.578   1.709   8.145 -1.4660 -1.4653  1.1815
  804MOL0     H10889   7.524   1.542   7.966 -1.0297 -1.6836 -1.1837
  804MOL0     H10890   7.592   1.411   8.082  0.1983 -0.1959  0.9078
  804MOL0     H10891   7.395   1.488   8.227 -1.0267 -0.4304 -0.5370
  804MOL0     H10892   7.347   1.591   8.091 -0.0848 -0.9385  1.0684
  804MOL0     H10893   7.404   1.289   8.085  2.6266  1.7367  0.3757
  804MOL0     H10894   7.324   1.385   7.959  3.5908  1.1150 -0.2829
  804MOL0     H10895   7.233   1.342   8.259  3.5439  1.0351 -0.8955
  804MOL0     H10896   7.145   1.443   8.140  0.7049  0.0573 -0.8585
  804MOL0     H10897   7.186   1.131   8.115 -2.3412 -1.6015 -2.0944
  804MOL0     H10898   7.113   1.231   7.997 -3.0670 -3.7434 -0.1441
  804MOL0     H10899   7.003   1.234   8.273 -0.2707  1.4998 -0.4154
  804MOL0     H10900   6.943   1.310   8.115  0.1946  0.1349  0.0242
  804MOL0     H10901   7.024   1.013   7.965  0.3336 -0.7587  0.0755
  804MOL0     H10902   6.884   0.824   7.855 -0.4194  1.7966 -0.9434
  804MOL0     H10903   6.702   0.828   7.882 -0.6634  1.6903 -1.0059
  804MOL0     H10904   6.811   0.605   7.940 -0.4391 -0.9272  0.7585
  804MOL0     H10905   6.902   0.692   8.065 -0.4982  5.2296  0.8986
  804MOL0     H10906   6.728   0.578   8.166 -1.1491 -1.4652 -1.1090
  804MOL0     H10907   6.698   0.760   8.170  0.0689 -0.3414 -0.9191
  804MOL0     H10908   6.522   0.744   8.015  1.4058 -0.4865 -4.6813
  804MOL0     H10909   6.578   0.591   7.946 -0.8968  0.0320 -0.1067
  804MOL0     H10910   6.498   0.834   8.213 -2.1601  1.7157 -0.2833
  804MOL0     H10911   6.387   1.018   8.302 -0.9032  0.7433  0.9516
  804MOL0     H10912   6.466   0.990   8.459 -0.0467  2.8317 -0.9473
  804MOL0     H10913   6.310   1.025   8.462  0.4161  0.3323 -0.2606
  804MOL0     H10914   6.084   1.061   8.725 -0.6294 -0.3161 -0.4977
  804MOL0     H10915   5.936   1.031   8.923 -2.4804 -2.4115 -1.9518
  804MOL0     H10916   5.862   0.650   9.094 -0.3870 -0.5916  0.1326
  804MOL0     H10917   5.951   0.711   9.229  0.8809  0.8160 -2.2372
  804MOL0     H10918   5.753   0.856   9.292  1.4166  1.6161  0.0505
  804MOL0     H10919   5.685   0.836   9.142 -0.8499  0.3242  1.2531
  804MOL0     H10920   5.746   0.605   9.335  2.6525  1.5005 -2.1459
  804MOL0     H10921   5.626   0.593   9.194 -1.4233  1.5281 -1.3684
  804MOL0     H10922   5.610   0.758   9.454  1.6057  0.0664 -1.0973
  804MOL0     H10923   5.517   0.608   9.423  1.1950 -0.9414 -0.2783
  804MOL0     H10924   5.479   0.878   9.313  0.2828 -1.1698  1.5134
  804MOL0     H10925   5.411   0.730   9.220  0.4857  0.0075  0.0199
  804MOL0     H10926   5.245   0.849   9.386  2.9045  2.2192  0.7545
  804MOL0     H10927   5.355   0.800   9.514 -0.6471  0.2721  0.4353
  804MOL0     H10928   5.280   0.591   9.508  1.5519 -0.1764 -0.3295
  804MOL0     H10929   5.259   0.570   9.340 -0.5992 -2.1605  0.7150
  804MOL0     H10930   5.056   0.686   9.539  3.7132 -0.2230  0.7650
  804MOL0     H10931   5.048   0.564   9.404  3.3947 -0.8783 -3.0803
  804MOL0     H10932   6.104   0.674   9.033  1.7887 -1.9679 -2.1549
  804MOL0     H10933   6.258   0.673   8.837 -0.5592 -0.1599 -2.2059
  804MOL0     H10934   6.146   0.564   8.427 -1.2924  1.4921  1.2008
  804MOL0     H10935   6.279   0.472   8.231 -1.4245 -0.9186  2.8308
  804MOL0     H10936   7.944   1.682   8.399  1.4199  0.3434  1.2712
  804MOL0     H10937   8.161   1.638   8.431 -0.1571  5.6271 -0.1553
  804MOL0     H10938   8.620   1.704   8.220 -2.1338 -2.6815 -1.3629
  804MOL0     H10939   8.836   1.712   8.269 -2.0992  1.4564  0.0236
  804MOL0     H10940   9.036   1.649   8.262  1.0231  0.4575  0.3314
  804MOL0     H10941   9.042   1.723   8.415  0.5764  0.2987  1.4437
  804MOL0     H10942   9.223   1.486   8.339 -1.5637 -0.2254 -0.2954
  804MOL0     H10943   9.230   1.571   8.484 -2.7408 -0.4588  0.4317
  804MOL0     H10944   9.298   1.707   8.211  1.5910  0.4730 -0.0577
  804MOL0     H10945   9.275   1.789   8.358  0.8682 -1.0655  0.5232
  804MOL0     H10946   9.457   1.572   8.439  1.5989  0.4147  0.5109
  804MOL0     H10947   9.466   1.744   8.433 -0.4483  0.1058  0.3691
  804MOL0     H10948   9.735   1.597   8.135  1.1455  0.6560  0.1247
  804MOL0     H10949   8.815   1.350   8.481  1.3926  1.2931 -0.7381
  804MOL0     H10950   8.525   1.334   8.570 -0.5429 -3.3660  0.7873
  804MOL0     H10951   8.454   1.304   8.410  0.9669 -0.3416 -1.1639
  804MOL0     H10952   8.606   1.226   8.455  2.9692  1.2484  2.6133
  805MOL0     O10953   8.791   3.498   8.661  0.4570  0.0326 -0.1748
  805MOL0     C10954   8.704   3.415   8.678 -0.3638  0.5248  0.5319
  805MOL0     O10955   8.661   3.325   8.581 -0.1504  0.0096  0.3989
  805MOL0     C10956   8.717   3.315   8.454  0.0502  0.8810 -1.2585
  805MOL0     C10957   8.637   3.250   8.359 -0.4525 -0.1287 -0.3686
  805MOL0     C10958   8.686   3.236   8.230  0.6289 -0.3357  0.3974
  805MOL0     C10959   8.808   3.289   8.182  0.1753 -0.0452 -0.8665
  805MOL0     O10960   8.849   3.279   8.054  0.0830 -0.0695 -0.5900
  805MOL0     C10961   8.983   3.211   8.032  0.0399 -0.8142 -0.0705
  805MOL0     C10962   9.035   3.253   7.899 -0.0232 -0.5372 -0.6655
  805MOL0     C10963   9.183   3.190   7.883  0.0481  0.8023  0.4053
  805MOL0     C10964   9.296   3.241   7.969  0.2203 -0.0792 -0.2428
  805MOL0     C10965   9.425   3.165   7.958 -0.6381  0.2730  0.0635
  805MOL0     C10966   9.513   3.203   7.842 -0.6782  0.1895 -0.0978
  805MOL0     C10967   9.642   3.128   7.835  0.2530  0.1720 -0.2069
  805MOL0     C10968   9.637   2.981   7.837 -0.3693  0.1835  0.3117
  805MOL0     N10969   9.768   2.921   7.815 -0.1898 -0.0570  0.1098
  805MOL0     C10970   9.828   2.902   7.689 -0.7015 -0.6929  0.3029
  805MOL0     C10971   9.961   2.893   7.705  0.3131 -0.1889  0.6510
  805MOL0     C10972  10.065   2.889   7.596  0.7998 -0.0536 -0.8540
  805MOL0     C10973  10.111   3.021   7.544  0.5254  0.3706 -0.6338
  805MOL0     C10974  10.093   3.144   7.635 -0.2993 -0.6724  1.0111
  805MOL0     C10975  10.162   3.261   7.584 -0.3108 -0.0400  0.1096
  805MOL0     O10976  10.100   3.297   7.464  0.2354  0.7431 -0.0111
  805MOL0     C10977  10.084   3.426   7.419 -1.0320 -0.9529  0.7604
  805MOL0     C10978  10.030   3.439   7.291  1.1787  0.0737 -0.3078
  805MOL0     C10979  10.028   3.559   7.219 -0.3721 -0.4359  0.1547
  805MOL0     C10980   9.972   3.555   7.078  0.7927 -0.2553  0.3419
  805MOL0     C10981  10.076   3.675   7.281 -0.3346  0.1089  0.1560
  805MOL0     C10982  10.054   3.811   7.225  0.9017 -0.3155 -0.1951
  805MOL0     O10983  10.141   3.902   7.281  0.1469 -0.6549  0.5800
  805MOL0     C10984  10.141   4.039   7.240  0.3221  1.3918  0.3779
  805MOL0     C10985  10.255   4.110   7.224 -0.4473 -1.7734  0.4212
  805MOL0     C10986  10.254   4.249   7.200 -0.4606  0.1635 -0.0743
  805MOL0     C10987  10.138   4.311   7.180  0.3084  0.0197  0.3164
  805MOL0     O10988  10.152   4.446   7.166 -0.4926  1.1619 -0.4159
  805MOL0     C10989  10.047   4.532   7.146  1.0206 -0.0963 -0.1018
  805MOL0     C10990  10.093   4.679   7.159 -0.5776  0.3256 -0.2919
  805MOL0     C10991  10.158   4.687   7.308  0.1958 -0.4979 -0.1173
  805MOL0     C10992  10.215   4.831   7.345  0.4006  0.4765 -0.1106
  805MOL0     C10993  10.284   4.821   7.486  0.3101 -0.5154  0.1610
  805MOL0     C10994  10.359   4.950   7.511 -0.6710 -0.3570 -0.4429
  805MOL0     C10995  10.468   4.934   7.616  0.1495 -0.2030  1.1340
  805MOL0     C10996  10.567   5.048   7.616 -0.7220 -0.1553  0.3646
  805MOL0    Cl10997  10.645   5.070   7.459  0.0730 -0.0080 -0.5502
  805MOL0     C10998  10.014   4.243   7.200  0.4301  0.1665 -0.4734
  805MOL0     C10999  10.021   4.109   7.230  0.1283  0.3001 -0.1712
  805MOL0     O11000   9.953   3.837   7.166 -0.4070  0.2814  0.1604
  805MOL0     C11001  10.137   3.660   7.414 -0.1968 -0.4885 -0.5456
  805MOL0     C11002  10.149   3.535   7.468 -0.0768  0.2155 -0.5720
  805MOL0     N11003   9.988   2.927   7.836 -0.0935 -0.3759  0.3665
  805MOL0     N11004   9.875   2.939   7.905 -0.5436 -0.2870 -1.0084
  805MOL0     C11005   8.884   3.353   8.278 -0.2404 -0.0065 -0.8746
  805MOL0     C11006   8.844   3.367   8.416  0.7902 -0.3304  0.5224
  805MOL0     C11007   8.633   3.416   8.809 -0.6132  1.2344  0.4378
  805MOL0     C11008   8.496   3.422   8.800  0.0112 -0.2163  0.4854
  805MOL0     C11009   8.416   3.422   8.914 -0.0457  1.1202 -1.2836
  805MOL0     C11010   8.468   3.449   9.036  0.8591  0.2721 -0.4416
  805MOL0     O11011   8.371   3.459   9.133 -0.7248 -0.0525  0.5323
  805MOL0     C11012   8.423   3.443   9.273  0.1046  0.0224  0.7875
  805MOL0     C11013   8.310   3.477   9.365 -0.2543  0.2866  0.2272
  805MOL0     C11014   8.357   3.522   9.504  0.3014  0.5292  0.8085
  805MOL0     C11015   8.243   3.570   9.593  0.2834  0.8638 -0.0842
  805MOL0     C11016   8.195   3.454   9.673 -0.8653  0.7566 -0.5181
  805MOL0     C11017   8.154   3.371   9.754 -0.6886  0.9831 -0.5627
  805MOL0     C11018   8.613   3.451   9.050  1.1366 -0.8161 -0.3946
  805MOL0     C11019   8.698   3.434   8.934  0.7053  0.3391 -0.5336
  805MOL0     C11020   8.853   3.427   8.952 -0.7931  0.5923 -1.0708
  805MOL0     H11021   8.540   3.214   8.392 -0.4221  1.0775  1.1438
  805MOL0     H11022   8.619   3.180   8.165  0.0301 -1.8404  2.2229
  805MOL0     H11023   8.947   3.108   8.035 -4.3489  0.5356  1.2019
  805MOL0     H11024   9.044   3.241   8.118 -1.9612 -2.7070  2.1369
  805MOL0     H11025   8.975   3.224   7.812 -2.4304  1.5152  0.1997
  805MOL0     H11026   9.028   3.362   7.902 -2.6113 -0.6729  0.2984
  805MOL0     H11027   9.174   3.084   7.909  1.0392  0.7883  0.7280
  805MOL0     H11028   9.211   3.179   7.778  0.0717  0.5881  0.4337
  805MOL0     H11029   9.311   3.346   7.944  2.3823  0.3477  2.3507
  805MOL0     H11030   9.259   3.239   8.072  0.2822 -1.6916 -0.2277
  805MOL0     H11031   9.411   3.057   7.955  3.9807 -0.5388 -0.1879
  805MOL0     H11032   9.482   3.190   8.049  0.4055 -1.4808 -0.0628
  805MOL0     H11033   9.459   3.192   7.748  0.7691  0.5627 -1.0078
  805MOL0     H11034   9.532   3.311   7.845 -2.8762  0.6105  1.2415
  805MOL0     H11035   9.704   3.166   7.916  1.1299  2.9358 -2.0220
  805MOL0     H11036   9.699   3.163   7.748  0.6153  2.0126  0.7251
  805MOL0     H11037   9.597   2.947   7.933  0.9632 -2.7940 -0.0580
  805MOL0     H11038   9.569   2.941   7.761 -1.1974 -0.7773  1.5248
  805MOL0     H11039   9.792   2.890   7.587 -0.8418 -0.3624  0.3123
  805MOL0     H11040  10.036   2.834   7.506  0.3804  0.0429 -0.7801
  805MOL0     H11041  10.155   2.848   7.643  0.8493  0.4426 -0.5148
  805MOL0     H11042  10.216   3.001   7.520  1.0913 -0.5168  2.2035
  805MOL0     H11043  10.062   3.050   7.450  0.3075  3.0329  0.2054
  805MOL0     H11044   9.989   3.176   7.650  0.2398  0.5207  2.4021
  805MOL0     H11045  10.134   3.113   7.731 -3.1691 -2.5158  1.7693
  805MOL0     H11046  10.169   3.333   7.666  0.6725 -2.3632  2.1919
  805MOL0     H11047  10.266   3.236   7.558 -0.5136 -1.7027  0.7851
  805MOL0     H11048   9.983   3.348   7.256 -0.9910  0.7278  0.7515
  805MOL0     H11049  10.016   3.630   7.013  1.2656 -0.2941  0.6181
  805MOL0     H11050   9.866   3.581   7.076  0.5473 -1.1498  0.7869
  805MOL0     H11051   9.991   3.460   7.026  2.6736 -0.2862  1.0304
  805MOL0     H11052  10.351   4.059   7.234 -0.4601 -1.4462  2.8392
  805MOL0     H11053  10.351   4.293   7.179 -1.7521  1.9625 -2.8071
  805MOL0     H11054   9.997   4.524   7.049  0.4541 -2.8247  0.3165
  805MOL0     H11055   9.961   4.519   7.213 -0.7634  1.1323 -2.0139
  805MOL0     H11056  10.168   4.695   7.081  0.1834  1.3652  0.6357
  805MOL0     H11057   9.998   4.730   7.142 -0.1177  2.0291  1.8404
  805MOL0     H11058  10.234   4.610   7.323 -0.2934 -1.0831 -0.5566
  805MOL0     H11059  10.080   4.661   7.381  2.0236 -4.2751  0.7397
  805MOL0     H11060  10.132   4.901   7.346  0.4809  0.5723  0.7764
  805MOL0     H11061  10.287   4.870   7.273  0.4174 -0.2043 -0.4673
  805MOL0     H11062  10.215   4.787   7.563  0.2192 -3.0623 -0.9464
  805MOL0     H11063  10.368   4.752   7.477  0.6231 -0.1763  0.5091
  805MOL0     H11064  10.292   5.025   7.555 -0.6255  0.0685 -1.0907
  805MOL0     H11065  10.389   4.990   7.414  1.2655  1.9080  0.9625
  805MOL0     H11066  10.516   4.842   7.584 -3.1855 -1.2327 -1.5096
  805MOL0     H11067  10.425   4.921   7.716 -0.9492 -0.6357  0.6234
  805MOL0     H11068  10.647   5.028   7.687  0.3232  0.5381 -0.5831
  805MOL0     H11069  10.533   5.149   7.643  1.4433  0.5357  0.7149
  805MOL0     H11070   9.922   4.299   7.193 -0.0381 -0.4772  0.3518
  805MOL0     H11071   9.941   4.047   7.269  0.6579 -0.4708 -0.2784
  805MOL0     H11072  10.172   3.744   7.473 -0.1772  0.6818 -2.1679
  805MOL0     H11073  10.200   3.520   7.563 -1.8524 -2.6130  0.0334
  805MOL0     H11074   8.970   3.412   8.249  0.5661  0.8967  2.8593
  805MOL0     H11075   8.923   3.423   8.465  1.7134 -0.1617 -1.0845
  805MOL0     H11076   8.443   3.414   8.706 -1.7042 -1.0219  1.4764
  805MOL0     H11077   8.309   3.426   8.897 -0.1522  4.3015 -0.5402
  805MOL0     H11078   8.472   3.345   9.276  0.8112 -0.0195 -4.2114
  805MOL0     H11079   8.505   3.514   9.288  1.2929  0.2518 -4.6334
  805MOL0     H11080   8.243   3.391   9.367 -1.3079  0.8400 -3.5259
  805MOL0     H11081   8.243   3.549   9.317 -1.3122 -1.3402 -0.8118
  805MOL0     H11082   8.416   3.445   9.554  2.2908  1.5605  0.1400
  805MOL0     H11083   8.425   3.607   9.500 -1.0245  1.6579  1.2580
  805MOL0     H11084   8.159   3.610   9.536  0.0763 -0.1752 -0.5338
  805MOL0     H11085   8.281   3.651   9.655 -1.8163  2.2241 -0.5048
  805MOL0     H11086   8.105   3.301   9.820  1.1541  1.4667  1.4596
  805MOL0     H11087   8.649   3.447   9.152 -0.5515  0.7606  0.3034
  805MOL0     H11088   8.880   3.321   8.947 -1.1223  0.3739  0.8336
  805MOL0     H11089   8.914   3.473   8.875  0.4011 -0.9022 -1.0568
  805MOL0     H11090   8.885   3.472   9.046  0.5455  0.1980 -1.3241
  806MOL0     O11091   8.262   7.440   4.157 -0.5593  0.6293  0.2092
  806MOL0     C11092   8.275   7.538   4.086  1.4032 -0.7409  0.5414
  806MOL0     O11093   8.175   7.591   4.011 -0.2164  0.4128  0.0517
  806MOL0     C11094   8.058   7.531   4.027  0.9674 -0.1589 -0.5399
  806MOL0     C11095   8.004   7.419   3.950 -0.0509 -0.4484  0.4191
  806MOL0     C11096   7.880   7.381   3.983  0.2685 -0.1057  0.6697
  806MOL0     C11097   7.804   7.431   4.091 -0.5274 -0.5647  0.0408
  806MOL0     O11098   7.674   7.396   4.098  0.4170  0.0776 -0.8006
  806MOL0     C11099   7.623   7.372   4.229 -0.1616  0.1005 -0.2216
  806MOL0     C11100   7.597   7.230   4.268  0.6307  0.6596  0.3349
  806MOL0     C11101   7.473   7.170   4.208  0.3722 -0.5588  0.3398
  806MOL0     C11102   7.452   7.018   4.244 -0.0267 -0.7089 -0.8765
  806MOL0     C11103   7.300   6.985   4.251  0.6440  0.3245 -0.2001
  806MOL0     C11104   7.285   6.832   4.276 -0.6169 -0.6212 -1.3483
  806MOL0     C11105   7.141   6.788   4.266  0.4605 -0.0802  0.5068
  806MOL0     C11106   7.143   6.637   4.240 -0.8401  0.0757 -0.1574
  806MOL0     N11107   7.023   6.578   4.180  0.6930 -0.1674 -0.1498
  806MOL0     C11108   6.898   6.588   4.220  0.9222 -0.4269 -0.7964
  806MOL0     C11109   6.824   6.509   4.137  0.1152 -0.2385  0.9317
  806MOL0     C11110   6.677   6.489   4.131 -0.2239 -0.0181 -0.2340
  806MOL0     C11111   6.620   6.398   4.237  0.3986  0.3223 -1.4682
  806MOL0     C11112   6.698   6.281   4.295  0.7703  0.2368 -0.6273
  806MOL0     C11113   6.712   6.179   4.195  0.3350 -0.8558 -0.0266
  806MOL0     O11114   6.594   6.109   4.155  0.1427  0.7264  0.3902
  806MOL0     C11115   6.599   6.039   4.032 -0.5154  0.8047  1.1082
  806MOL0     C11116   6.669   6.073   3.912 -1.2592  0.3879 -0.2343
  806MOL0     C11117   6.660   5.997   3.795  0.9478 -0.3891 -0.5609
  806MOL0     C11118   6.731   6.056   3.681  0.7785  0.1480 -0.3455
  806MOL0     C11119   6.575   5.879   3.793 -0.0863 -0.5043  0.1697
  806MOL0     C11120   6.571   5.794   3.673  0.2465 -0.2732 -0.1654
  806MOL0     O11121   6.692   5.777   3.606 -0.0296  0.0547  0.3342
  806MOL0     C11122   6.688   5.687   3.508 -0.4509 -0.8857 -0.0682
  806MOL0     C11123   6.685   5.731   3.378  0.0505  0.0261  0.2440
  806MOL0     C11124   6.711   5.654   3.270  0.5840  0.1395  0.0348
  806MOL0     C11125   6.725   5.519   3.285  1.2909  0.1733 -0.7558
  806MOL0     O11126   6.763   5.459   3.169 -0.2093  0.3355  0.3616
  806MOL0     C11127   6.734   5.320   3.153  0.2136 -0.8491 -0.5084
  806MOL0     C11128   6.767   5.291   3.007  0.9386 -0.1841  1.5698
  806MOL0     C11129   6.694   5.170   2.960 -0.5180 -0.5776  0.4041
  806MOL0     C11130   6.707   5.159   2.804  0.6432  0.9502 -0.9658
  806MOL0     C11131   6.672   5.012   2.751  0.0771 -0.0919  0.3424
  806MOL0     C11132   6.710   4.994   2.605 -0.3532  0.5466 -0.4461
  806MOL0     C11133   6.691   4.851   2.565 -0.4879 -0.2576  0.7657
  806MOL0     C11134   6.741   4.831   2.414  0.6685  0.6466 -0.0126
  806MOL0    Cl11135   6.904   4.879   2.376  0.6808  0.0236 -0.5021
  806MOL0     C11136   6.695   5.465   3.416  0.2793  0.5549  0.4589
  806MOL0     C11137   6.671   5.552   3.527  0.8763 -0.8266  0.4897
  806MOL0     O11138   6.460   5.755   3.641 -0.1059 -0.1677 -0.5935
  806MOL0     C11139   6.493   5.860   3.903  0.5363 -0.8340  0.7031
  806MOL0     C11140   6.508   5.938   4.016 -0.3129 -1.4102 -0.0732
  806MOL0     N11141   6.909   6.470   4.035  0.0686  0.1584  0.0970
  806MOL0     N11142   7.028   6.527   4.055  0.2778 -0.3903  0.3662
  806MOL0     C11143   7.847   7.539   4.158 -1.1811  0.1883  0.3667
  806MOL0     C11144   7.978   7.584   4.128  0.3140 -0.8557 -0.6554
  806MOL0     C11145   8.405   7.605   4.068  0.0591  0.0369  0.2683
  806MOL0     C11146   8.411   7.729   3.996  0.0081  0.7539 -0.4063
  806MOL0     C11147   8.537   7.780   3.985 -0.9028 -0.5591 -0.1252
  806MOL0     C11148   8.659   7.719   4.013  0.3428 -0.3485  0.5891
  806MOL0     O11149   8.787   7.757   3.982  0.0294  0.5082 -0.1890
  806MOL0     C11150   8.800   7.863   3.886 -0.5263 -0.2491  0.4166
  806MOL0     C11151   8.951   7.898   3.873  0.3757 -0.5593  0.0198
  806MOL0     C11152   8.991   8.001   3.988  0.2484  0.2149 -0.2661
  806MOL0     C11153   9.133   8.055   3.984  0.3794  0.7722 -0.2860
  806MOL0     C11154   9.132   8.168   4.081 -0.2791 -0.2586 -0.2331
  806MOL0     C11155   9.133   8.256   4.159  0.1791  0.5011  0.2011
  806MOL0     C11156   8.651   7.613   4.101  0.5462 -0.2981  0.2136
  806MOL0     C11157   8.524   7.558   4.133  0.0069 -0.6166 -0.2099
  806MOL0     C11158   8.539   7.423   4.210 -0.8012 -0.7274  0.1872
  806MOL0     H11159   8.071   7.388   3.870  0.1008  1.8218 -0.4335
  806MOL0     H11160   7.833   7.311   3.915  2.6841  0.4096 -1.6840
  806MOL0     H11161   7.533   7.434   4.226  0.1863  0.6759 -4.1424
  806MOL0     H11162   7.684   7.404   4.314 -1.0042 -0.8646  0.7925
  806MOL0     H11163   7.679   7.161   4.245 -2.0039 -1.8087 -2.4682
  806MOL0     H11164   7.586   7.225   4.377 -3.2536 -1.3115  0.0181
  806MOL0     H11165   7.388   7.226   4.247  0.7616  0.8348 -0.7348
  806MOL0     H11166   7.472   7.177   4.099  2.6093 -0.3612  0.2785
  806MOL0     H11167   7.511   6.956   4.176  1.3157  0.5569 -0.9259
  806MOL0     H11168   7.486   6.989   4.344  0.9433  0.9057 -0.6966
  806MOL0     H11169   7.257   7.018   4.156  0.0360  1.8940  0.5732
  806MOL0     H11170   7.258   7.032   4.340  0.9077 -1.7490  1.0804
  806MOL0     H11171   7.358   6.777   4.216 -0.0137  0.2258 -1.4042
  806MOL0     H11172   7.315   6.816   4.380 -0.4879  0.5206 -1.1988
  806MOL0     H11173   7.091   6.841   4.184  0.0309  0.9096  1.3901
  806MOL0     H11174   7.089   6.822   4.356  2.6162 -1.4976  2.3906
  806MOL0     H11175   7.225   6.615   4.172  0.5791  1.2412  1.1019
  806MOL0     H11176   7.161   6.597   4.341  0.2264 -2.6154 -1.3193
  806MOL0     H11177   6.846   6.626   4.308 -2.2986 -3.0365 -1.3953
  806MOL0     H11178   6.651   6.450   4.032  0.4269 -1.4902  0.1420
  806MOL0     H11179   6.636   6.589   4.148 -0.8007  0.2970 -3.0087
  806MOL0     H11180   6.590   6.455   4.325  1.6625  0.4458 -1.0892
  806MOL0     H11181   6.523   6.361   4.203 -0.0401  2.5999 -2.9747
  806MOL0     H11182   6.795   6.314   4.332 -0.0903  3.1886 -0.7553
  806MOL0     H11183   6.643   6.237   4.378 -0.7760  0.5274 -1.4594
  806MOL0     H11184   6.758   6.234   4.112 -1.6282  1.7977  0.4993
  806MOL0     H11185   6.790   6.115   4.236  2.2119  2.4820  1.9954
  806MOL0     H11186   6.728   6.163   3.914 -0.7773  0.0768 -0.3362
  806MOL0     H11187   6.714   6.163   3.666  0.3918  0.5786  2.6904
  806MOL0     H11188   6.691   6.010   3.590  1.3629  1.8606 -1.5162
  806MOL0     H11189   6.838   6.033   3.680  0.8376  0.3500  0.5566
  806MOL0     H11190   6.673   5.836   3.353 -1.4817 -0.4294 -1.1139
  806MOL0     H11191   6.727   5.698   3.172  1.9721 -7.2380 -3.7543
  806MOL0     H11192   6.791   5.253   3.217 -0.8794  1.5129  3.2794
  806MOL0     H11193   6.628   5.301   3.174 -0.3564  2.8587  0.7391
  806MOL0     H11194   6.720   5.370   2.949  2.0107 -0.4834  0.2358
  806MOL0     H11195   6.875   5.293   2.988  0.8559 -2.3421  0.5089
  806MOL0     H11196   6.590   5.198   2.980 -0.6884 -0.4366 -0.6306
  806MOL0     H11197   6.725   5.079   3.012  0.5791 -0.4353  0.0212
  806MOL0     H11198   6.815   5.172   2.790  1.3423 -0.2830  2.3612
  806MOL0     H11199   6.654   5.244   2.759  1.9159  0.7498 -2.9995
  806MOL0     H11200   6.720   4.931   2.806  0.3415 -2.3122 -2.9018
  806MOL0     H11201   6.563   5.000   2.755  0.0463  0.4200  3.2346
  806MOL0     H11202   6.814   5.028   2.601 -0.5499  1.0561 -3.8657
  806MOL0     H11203   6.664   5.052   2.525  1.5233  2.3727 -0.2683
  806MOL0     H11204   6.588   4.819   2.586 -1.1886  0.9773 -0.6033
  806MOL0     H11205   6.771   4.800   2.619  1.4348 -0.0976 -1.7400
  806MOL0     H11206   6.686   4.894   2.344  0.6090  2.1423  1.3198
  806MOL0     H11207   6.721   4.726   2.391  1.8402  0.2607  0.6311
  806MOL0     H11208   6.702   5.359   3.440 -0.9127  0.5474  0.8572
  806MOL0     H11209   6.658   5.508   3.626 -1.3127  2.0354  1.6132
  806MOL0     H11210   6.422   5.778   3.908 -1.2499  0.7564  3.4924
  806MOL0     H11211   6.453   5.923   4.109  1.8641 -0.8089  1.3903
  806MOL0     H11212   7.789   7.592   4.233 -0.1382 -0.4995  1.6896
  806MOL0     H11213   8.018   7.668   4.185  2.4664  0.4501 -3.8111
  806MOL0     H11214   8.319   7.775   3.962 -1.2718  0.6703  2.5735
  806MOL0     H11215   8.558   7.876   3.938  3.2313  0.0364  2.4087
  806MOL0     H11216   8.757   7.836   3.789 -3.1923  1.4555  1.0244
  806MOL0     H11217   8.744   7.955   3.905  1.3034  1.3638 -1.5027
  806MOL0     H11218   8.968   7.939   3.773  1.7826 -2.6832 -0.6763
  806MOL0     H11219   9.008   7.805   3.864  0.4210 -0.4511 -0.8865
  806MOL0     H11220   8.926   8.089   3.981 -1.5852 -1.1663 -1.5023
  806MOL0     H11221   8.981   7.964   4.090 -3.2414  2.1692  0.2790
  806MOL0     H11222   9.177   8.093   3.891 -1.9500 -1.0414 -2.2519
  806MOL0     H11223   9.205   7.981   4.023 -2.4853 -0.5804  2.9261
  806MOL0     H11224   9.127   8.342   4.223 -0.3119 -1.0599  2.3800
  806MOL0     H11225   8.743   7.569   4.136  1.4787  1.8474  0.6448
  806MOL0     H11226   8.453   7.403   4.276  0.3421 -1.0010  1.6496
  806MOL0     H11227   8.555   7.333   4.151 -3.1069 -1.4313  0.5156
  806MOL0     H11228   8.619   7.444   4.281  0.5869  0.9250 -1.7475
  807MOL0     O11229   8.021   3.377   8.305  0.3763 -0.3426  0.1102
  807MOL0     C11230   8.114   3.304   8.315  0.7388 -0.2388  0.1917
  807MOL0     O11231   8.214   3.323   8.398 -1.0584 -0.1853  0.1322
  807MOL0     C11232   8.247   3.448   8.446 -0.6718  0.0172  0.6221
  807MOL0     C11233   8.151   3.526   8.526  0.2361  0.5099  0.2754
  807MOL0     C11234   8.196   3.635   8.602 -0.2948  0.3227 -0.6397
  807MOL0     C11235   8.323   3.686   8.588 -0.5810  0.5309  0.1793
  807MOL0     O11236   8.366   3.789   8.661  0.0351 -0.0700 -0.2484
  807MOL0     C11237   8.358   3.760   8.804  0.0329 -0.4674  0.0985
  807MOL0     C11238   8.444   3.866   8.866  1.1488 -0.6217  0.3426
  807MOL0     C11239   8.589   3.839   8.847 -0.0243 -1.0532  0.1229
  807MOL0     C11240   8.657   3.856   8.711 -0.8518  0.1073 -0.3272
  807MOL0     C11241   8.661   4.001   8.663  1.1123 -0.2326  1.0223
  807MOL0     C11242   8.528   4.037   8.581 -0.5543 -0.2417 -0.2288
  807MOL0     C11243   8.540   4.177   8.510  0.1201 -1.3409 -0.1679
  807MOL0     C11244   8.605   4.170   8.372  1.1055  0.2316 -0.4537
  807MOL0     N11245   8.602   4.301   8.307 -0.4159  0.0384  0.9074
  807MOL0     C11246   8.530   4.336   8.200  0.2875  0.2500  0.6113
  807MOL0     C11247   8.550   4.466   8.168  0.5118  0.3578  0.3274
  807MOL0     C11248   8.479   4.544   8.063  0.1240  0.6236  0.3895
  807MOL0     C11249   8.487   4.470   7.936  0.3447  0.7832  0.2135
  807MOL0     C11250   8.621   4.449   7.877 -0.1536 -0.1809 -0.0977
  807MOL0     C11251   8.720   4.571   7.873  0.1458 -0.1183 -0.1374
  807MOL0     O11252   8.816   4.557   7.765 -0.1713  0.1651 -0.0610
  807MOL0     C11253   8.928   4.635   7.760  0.0183  1.3866 -0.7001
  807MOL0     C11254   9.026   4.602   7.668 -0.1916 -0.3295  0.0808
  807MOL0     C11255   9.147   4.676   7.649  0.5104  0.3012 -0.8428
  807MOL0     C11256   9.245   4.622   7.553  0.3687  0.7608  0.2703
  807MOL0     C11257   9.166   4.779   7.742  0.6762 -0.2259 -0.7257
  807MOL0     C11258   9.296   4.849   7.772 -0.0013  0.3697  0.3770
  807MOL0     O11259   9.294   4.952   7.866  0.0708  0.0857  0.9660
  807MOL0     C11260   9.397   5.025   7.896 -0.5853 -0.5319 -0.1072
  807MOL0     C11261   9.515   4.966   7.938  0.6412  0.3036 -0.0367
  807MOL0     C11262   9.626   5.036   7.986 -0.6926 -0.2811 -0.0050
  807MOL0     C11263   9.616   5.171   8.005  0.9458 -0.8457  1.1326
  807MOL0     O11264   9.722   5.239   8.055 -0.3314 -0.6449  0.3003
  807MOL0     C11265   9.703   5.380   8.088 -0.3724  0.2331  0.3451
  807MOL0     C11266   9.839   5.428   8.144  0.1757 -0.2910  0.3507
  807MOL0     C11267   9.923   5.468   8.019 -0.9462 -0.4451  0.4999
  807MOL0     C11268  10.070   5.527   8.035 -0.5528 -0.2269 -0.4263
  807MOL0     C11269  10.148   5.527   7.904 -0.2802  0.2644  1.0116
  807MOL0     C11270  10.187   5.387   7.863 -0.7169  0.5369 -0.4573
  807MOL0     C11271  10.310   5.379   7.767  0.1652 -0.5642 -0.7945
  807MOL0     C11272  10.446   5.398   7.839  0.5647  0.0566  0.3568
  807MOL0    Cl11273  10.493   5.270   7.954  0.3586  0.1740 -0.0871
  807MOL0     C11274   9.494   5.235   7.970 -0.3419  0.1884  0.8371
  807MOL0     C11275   9.381   5.164   7.917 -0.4119 -0.0568 -0.1067
  807MOL0     O11276   9.395   4.818   7.709  0.2180 -0.5177 -0.6406
  807MOL0     C11277   9.067   4.816   7.835 -0.5103  0.1550  0.3213
  807MOL0     C11278   8.953   4.737   7.848  0.6355  0.5663 -0.7743
  807MOL0     N11279   8.645   4.507   8.248  0.3393  0.4152 -0.7370
  807MOL0     N11280   8.676   4.412   8.334 -0.1919  0.8913  0.9861
  807MOL0     C11281   8.414   3.619   8.494 -0.0873  0.5542 -0.2263
  807MOL0     C11282   8.374   3.502   8.428 -0.0172 -0.9992  0.1098
  807MOL0     C11283   8.100   3.172   8.256 -0.4896  0.8199  0.2513
  807MOL0     C11284   8.146   3.150   8.127  0.6382  0.5085 -0.1588
  807MOL0     C11285   8.138   3.019   8.073 -0.6728 -0.5173  0.0398
  807MOL0     C11286   8.065   2.923   8.143  0.2632  0.8467  0.4169
  807MOL0     O11287   8.075   2.796   8.091 -0.5944 -0.1486  0.1594
  807MOL0     C11288   7.988   2.690   8.126 -0.6627 -0.3765  0.0699
  807MOL0     C11289   7.854   2.717   8.068  0.1024  0.3387  0.0010
  807MOL0     C11290   7.844   2.644   7.930 -0.1753 -0.2265 -0.0932
  807MOL0     C11291   7.710   2.677   7.861 -0.1802  0.3956 -0.2901
  807MOL0     C11292   7.707   2.815   7.825  0.0735  0.0143 -0.3085
  807MOL0     C11293   7.705   2.932   7.789 -0.0905  0.1255 -0.3748
  807MOL0     C11294   7.997   2.955   8.259  0.6070  0.2495 -0.2381
  807MOL0     C11295   8.015   3.081   8.313 -0.3169  0.0812 -0.2560
  807MOL0     C11296   7.928   3.120   8.438 -0.5476 -0.1736 -0.9376
  807MOL0     H11297   8.048   3.497   8.543  0.6815  0.4417  3.2958
  807MOL0     H11298   8.126   3.670   8.678 -0.9263 -0.0546 -1.0387
  807MOL0     H11299   8.405   3.667   8.839  1.2707  0.7460  1.8491
  807MOL0     H11300   8.259   3.751   8.848  1.1028  0.3881  2.9247
  807MOL0     H11301   8.413   3.963   8.826  0.9331 -1.3640 -1.3793
  807MOL0     H11302   8.421   3.870   8.973 -2.2076  0.8952 -0.3035
  807MOL0     H11303   8.636   3.913   8.912  3.6507 -2.3610 -0.8220
  807MOL0     H11304   8.602   3.736   8.882  0.3321 -1.6689 -1.7074
  807MOL0     H11305   8.761   3.833   8.733 -1.2909 -0.0883  1.8603
  807MOL0     H11306   8.598   3.796   8.641  2.8391 -2.1145 -1.8366
  807MOL0     H11307   8.744   4.003   8.592 -2.6104  0.5244 -3.9274
  807MOL0     H11308   8.671   4.073   8.745  0.1107  3.8422 -2.0764
  807MOL0     H11309   8.508   3.959   8.508  1.0620 -0.8293 -0.0762
  807MOL0     H11310   8.442   4.038   8.650 -2.0032 -0.8899 -1.9638
  807MOL0     H11311   8.606   4.226   8.582  1.2168  1.2715 -2.7448
  807MOL0     H11312   8.457   4.249   8.513 -0.1673 -1.5092 -2.4622
  807MOL0     H11313   8.710   4.141   8.383  1.0433 -0.0781 -0.6636
  807MOL0     H11314   8.549   4.090   8.323  2.1374  0.4368 -2.0235
  807MOL0     H11315   8.453   4.273   8.157 -0.1960  2.4874 -2.1183
  807MOL0     H11316   8.520   4.645   8.054 -0.0492  0.6035 -0.7510
  807MOL0     H11317   8.372   4.556   8.081  0.2506 -0.7802  2.3540
  807MOL0     H11318   8.440   4.372   7.950 -0.0045  0.6150 -1.8223
  807MOL0     H11319   8.421   4.525   7.869 -2.3928  0.1089  2.1782
  807MOL0     H11320   8.675   4.380   7.944  1.7212 -0.6058 -1.9438
  807MOL0     H11321   8.602   4.404   7.779 -2.0004  2.9288 -1.3235
  807MOL0     H11322   8.665   4.663   7.851 -2.4421 -1.8416 -1.3029
  807MOL0     H11323   8.761   4.583   7.973 -3.2499  0.0752  1.3759
  807MOL0     H11324   8.993   4.514   7.613  1.3191 -1.3493  0.7523
  807MOL0     H11325   9.200   4.565   7.471  4.7391  0.3732 -2.1617
  807MOL0     H11326   9.301   4.551   7.613  0.0476  0.6633  0.4539
  807MOL0     H11327   9.306   4.703   7.513  0.9045 -0.1933 -0.9156
  807MOL0     H11328   9.534   4.860   7.926  2.3375  0.7803 -2.1404
  807MOL0     H11329   9.716   4.992   8.028 -0.5959  1.3102  1.6131
  807MOL0     H11330   9.682   5.436   7.996 -2.0464 -1.3997 -0.3387
  807MOL0     H11331   9.622   5.387   8.161 -2.4237 -2.6354 -1.4317
  807MOL0     H11332   9.819   5.518   8.204 -2.9845 -0.0938 -0.8184
  807MOL0     H11333   9.890   5.359   8.212 -0.4726 -0.0695  1.0825
  807MOL0     H11334   9.871   5.548   7.966 -1.3124 -0.3882  0.9374
  807MOL0     H11335   9.927   5.399   7.935  1.6850  2.7986 -2.3696
  807MOL0     H11336  10.138   5.479   8.106 -0.9916 -1.5579 -0.8723
  807MOL0     H11337  10.064   5.634   8.054  1.7310  0.0373 -0.9220
  807MOL0     H11338  10.090   5.572   7.824 -1.2764  0.8286  2.0219
  807MOL0     H11339  10.241   5.583   7.920 -1.3608  3.3307 -2.1573
  807MOL0     H11340  10.098   5.341   7.819 -1.8323  1.7391  0.4578
  807MOL0     H11341  10.218   5.322   7.946 -2.3741  0.5855  0.2422
  807MOL0     H11342  10.301   5.462   7.697  2.7809 -1.0362 -1.7900
  807MOL0     H11343  10.310   5.282   7.717 -0.4152 -1.5052  0.9200
  807MOL0     H11344  10.431   5.484   7.906 -0.5017  0.9943 -1.0250
  807MOL0     H11345  10.518   5.409   7.758 -1.9645  0.6956 -1.9520
  807MOL0     H11346   9.475   5.338   7.999 -0.6090 -0.2633  2.3678
  807MOL0     H11347   9.286   5.217   7.905 -0.8529 -0.7629  0.1819
  807MOL0     H11348   9.070   4.899   7.905 -3.0405 -1.3528  2.4054
  807MOL0     H11349   8.877   4.773   7.917  2.2997  3.3853 -0.2623
  807MOL0     H11350   8.512   3.661   8.476 -1.1229  3.0202 -0.5717
  807MOL0     H11351   8.447   3.450   8.367 -0.1332 -0.8742 -0.1372
  807MOL0     H11352   8.205   3.228   8.080  1.3121  0.6831  0.9446
  807MOL0     H11353   8.183   3.005   7.976 -3.6522 -0.0696 -1.5092
  807MOL0     H11354   8.018   2.592   8.087 -0.3374  0.0359 -0.7358
  807MOL0     H11355   7.980   2.688   8.235 -2.7641 -0.2295 -0.0430
  807MOL0     H11356   7.843   2.825   8.057 -0.3556  0.3142  0.1836
  807MOL0     H11357   7.785   2.668   8.137  3.4458 -4.5604  0.3647
  807MOL0     H11358   7.927   2.670   7.865 -2.1616  3.1656 -1.5643
  807MOL0     H11359   7.848   2.539   7.959 -2.6718  0.5631  4.0457
  807MOL0     H11360   7.637   2.641   7.934 -2.5199 -0.3363 -2.8356
  807MOL0     H11361   7.691   2.606   7.780 -3.5872  2.4712 -1.5079
  807MOL0     H11362   7.700   3.033   7.755 -1.9485  1.0547  2.3145
  807MOL0     H11363   7.935   2.880   8.307 -0.6734  1.2921 -0.2180
  807MOL0     H11364   7.927   3.045   8.517 -3.7245  0.9582  0.2638
  807MOL0     H11365   7.958   3.212   8.489  0.7506 -1.7959  1.4091
  807MOL0     H11366   7.823   3.132   8.412 -1.7685  1.4737  3.7164
  808MOL0     O11367   7.986   8.111   3.905 -0.4897  0.5266 -0.6356
  808MOL0     C11368   7.960   8.103   3.785 -0.6002  0.1760  0.5887
  808MOL0     O11369   7.899   8.195   3.705  0.1961 -0.5040  0.0762
  808MOL0     C11370   7.885   8.318   3.763  0.4625 -0.4098 -0.3351
  808MOL0     C11371   7.985   8.393   3.830  0.0116  0.2352 -0.2440
  808MOL0     C11372   7.955   8.532   3.877  0.3038 -0.3784 -0.2049
  808MOL0     C11373   7.826   8.593   3.847  0.2712 -0.5874 -0.4476
  808MOL0     O11374   7.779   8.714   3.885  0.4025 -0.5544  0.4821
  808MOL0     C11375   7.871   8.827   3.873 -0.6014  0.8847  0.3571
  808MOL0     C11376   7.897   8.882   4.010  0.0007 -0.2999 -0.5846
  808MOL0     C11377   8.014   8.975   4.024  1.0012 -0.2355  1.1206
  808MOL0     C11378   8.014   9.042   4.159  0.7047  0.0182  0.0268
  808MOL0     C11379   8.154   9.080   4.217 -1.1938  0.6866  0.6648
  808MOL0     C11380   8.146   9.135   4.360 -0.3832  0.5026  0.7333
  808MOL0     C11381   8.108   9.026   4.461 -0.2664  0.3067  0.3411
  808MOL0     C11382   8.176   9.063   4.592 -0.8576  0.0236  0.3015
  808MOL0     N11383   8.231   8.957   4.677  0.7797 -0.2546  0.0392
  808MOL0     C11384   8.255   8.827   4.636 -0.2232 -0.5956 -0.3454
  808MOL0     C11385   8.329   8.781   4.735 -0.6913  0.1056  0.8560
  808MOL0     C11386   8.399   8.651   4.749  1.1059 -0.1156 -0.3878
  808MOL0     C11387   8.309   8.561   4.839 -0.2628  0.6921  0.1811
  808MOL0     C11388   8.346   8.417   4.828  0.2671  0.4801  0.3613
  808MOL0     C11389   8.270   8.343   4.711 -0.1690 -0.1414  0.0033
  808MOL0     O11390   8.307   8.210   4.712 -0.7161  0.1672 -0.1869
  808MOL0     C11391   8.221   8.121   4.667  0.5912 -0.4024  0.5617
  808MOL0     C11392   8.180   8.119   4.526  0.0994 -0.1205 -0.7729
  808MOL0     C11393   8.102   8.012   4.469  0.0098  0.9703  0.6024
  808MOL0     C11394   8.077   8.010   4.322 -0.4056  0.1709  1.9438
  808MOL0     C11395   8.060   7.910   4.555  0.6601 -0.9143  0.4075
  808MOL0     C11396   7.991   7.787   4.520 -0.3201 -0.9985 -1.2491
  808MOL0     O11397   8.018   7.678   4.594 -0.0576  0.6529 -0.2390
  808MOL0     C11398   7.978   7.562   4.538 -0.0338 -1.0043 -0.8664
  808MOL0     C11399   7.855   7.510   4.590 -0.4497  0.4325 -0.2357
  808MOL0     C11400   7.820   7.383   4.556  0.0240  0.4636 -0.7816
  808MOL0     C11401   7.899   7.304   4.478  0.5397  0.4897 -0.5072
  808MOL0     O11402   7.851   7.180   4.478  0.4829 -0.5408  0.5902
  808MOL0     C11403   7.909   7.101   4.379 -0.7488  1.1186 -0.5567
  808MOL0     C11404   7.836   6.962   4.369  0.2203  0.4681  0.0958
  808MOL0     C11405   7.910   6.876   4.268 -0.0891  0.6950 -0.4120
  808MOL0     C11406   8.065   6.836   4.297  1.4440  0.6307 -0.4345
  808MOL0     C11407   8.131   6.747   4.194 -0.2523 -0.4002 -0.0230
  808MOL0     C11408   8.092   6.598   4.212  0.3906  0.0775 -0.8950
  808MOL0     C11409   8.146   6.520   4.093  0.0954  0.3869 -0.1621
  808MOL0     C11410   8.132   6.363   4.096  0.1746  0.3791 -0.4329
  808MOL0    Cl11411   8.185   6.306   4.256 -0.0762 -0.0422 -0.0785
  808MOL0     C11412   8.013   7.355   4.414  0.0240  0.0027 -0.5648
  808MOL0     C11413   8.049   7.487   4.447 -0.6832  0.1904  0.4713
  808MOL0     O11414   7.920   7.785   4.419  0.3219  0.1361  0.7249
  808MOL0     C11415   8.107   7.911   4.695 -0.5741  0.6169  0.8855
  808MOL0     C11416   8.175   8.017   4.754 -0.3871 -1.0497  0.8959
  808MOL0     N11417   8.352   8.886   4.825 -0.5294  1.2300 -0.0116
  808MOL0     N11418   8.293   8.989   4.794  0.4485  0.3813  0.9764
  808MOL0     C11419   7.732   8.522   3.781 -0.4741  0.2848  1.2208
  808MOL0     C11420   7.759   8.384   3.743 -0.7910  0.8199  0.4085
  808MOL0     C11421   8.008   7.973   3.723 -0.5728  0.2783  0.0467
  808MOL0     C11422   8.030   7.862   3.809 -0.0712  0.4262  1.2352
  808MOL0     C11423   8.052   7.738   3.749 -1.0738  0.6887 -0.7422
  808MOL0     C11424   8.067   7.723   3.609 -0.6082 -0.7874  0.3761
  808MOL0     O11425   8.093   7.607   3.536 -0.2333  0.5505 -0.4009
  808MOL0     C11426   8.189   7.517   3.582 -0.1106 -0.0780  0.4808
  808MOL0     C11427   8.326   7.534   3.513 -0.5006  0.3253 -1.0572
  808MOL0     C11428   8.323   7.543   3.355  0.4438  0.4078 -1.2838
  808MOL0     C11429   8.475   7.519   3.316  0.9247  0.0951  0.1214
  808MOL0     C11430   8.492   7.495   3.173 -0.1792 -0.3541  0.7478
  808MOL0     C11431   8.491   7.493   3.046 -0.6360  0.2885 -0.2830
  808MOL0     C11432   8.062   7.837   3.534  0.6260  0.2062 -1.3178
  808MOL0     C11433   8.033   7.967   3.583  0.1123  0.1065  0.2839
  808MOL0     C11434   8.013   8.075   3.478 -0.3739 -0.1082 -0.1953
  808MOL0     H11435   8.080   8.348   3.857  2.8847  5.3487 -0.6810
  808MOL0     H11436   8.014   8.597   3.941  0.0528  1.6021 -1.8782
  808MOL0     H11437   7.810   8.895   3.814 -1.3432 -0.5779 -0.6165
  808MOL0     H11438   7.962   8.802   3.817 -2.2406 -1.8315 -1.3016
  808MOL0     H11439   7.801   8.920   4.046 -0.2239 -1.9858  0.7099
  808MOL0     H11440   7.922   8.797   4.074 -0.3322  0.9726  1.3029
  808MOL0     H11441   8.110   8.928   4.001  0.1130 -0.6171 -2.3256
  808MOL0     H11442   8.007   9.049   3.944  2.1356 -0.9747  0.2929
  808MOL0     H11443   7.957   9.135   4.168 -0.7711 -1.0128  2.8396
  808MOL0     H11444   7.965   8.977   4.232  3.1218 -0.9016  0.9498
  808MOL0     H11445   8.196   9.153   4.147 -1.1413 -0.7633 -0.8684
  808MOL0     H11446   8.223   8.996   4.205 -0.5633  1.4842 -1.7939
  808MOL0     H11447   8.239   9.191   4.378  0.4592  1.5957 -5.0804
  808MOL0     H11448   8.071   9.212   4.382  0.9961  1.9268  0.6940
  808MOL0     H11449   8.149   8.938   4.410 -0.2675 -0.0231  0.9058
  808MOL0     H11450   7.999   9.016   4.457 -0.2317  0.3225 -1.9646
  808MOL0     H11451   8.267   9.121   4.572 -1.2624  0.8066  0.7051
  808MOL0     H11452   8.117   9.131   4.653 -0.1962 -0.4520  1.5052
  808MOL0     H11453   8.220   8.770   4.551  2.2025  0.0765 -1.8815
  808MOL0     H11454   8.490   8.662   4.808  0.4460  0.2036  0.5878
  808MOL0     H11455   8.411   8.605   4.650  4.2688  0.7119 -0.4959
  808MOL0     H11456   8.318   8.607   4.938  1.1927  1.1963 -0.1616
  808MOL0     H11457   8.201   8.571   4.824 -0.1133  3.4790  0.4965
  808MOL0     H11458   8.454   8.404   4.816 -0.1239 -1.1511 -2.1431
  808MOL0     H11459   8.312   8.360   4.915 -1.8726 -1.0055 -1.3315
  808MOL0     H11460   8.162   8.355   4.724 -0.4194  2.3341 -3.1782
  808MOL0     H11461   8.302   8.391   4.618  0.1598  3.0040  1.6265
  808MOL0     H11462   8.227   8.190   4.459  2.9258  1.6476  2.7318
  808MOL0     H11463   8.134   8.090   4.274 -3.6505  1.6639  0.1963
  808MOL0     H11464   7.972   8.027   4.296 -0.1772  0.1281  0.9431
  808MOL0     H11465   8.107   7.917   4.272 -2.5624  0.0614  0.6842
  808MOL0     H11466   7.813   7.555   4.679  1.5797 -1.8092  2.0582
  808MOL0     H11467   7.747   7.328   4.615  2.9554 -0.5959  2.1397
  808MOL0     H11468   7.918   7.144   4.278  0.8001  2.0153 -0.0705
  808MOL0     H11469   8.008   7.072   4.415 -0.6536  2.9087  0.7307
  808MOL0     H11470   7.837   6.904   4.461  0.3745  1.0828  0.4830
  808MOL0     H11471   7.731   6.972   4.339  0.6200  1.7993 -0.9535
  808MOL0     H11472   7.908   6.931   4.174  3.6652  3.7797  1.0215
  808MOL0     H11473   7.854   6.782   4.267  1.1860 -0.1609  1.8397
  808MOL0     H11474   8.067   6.798   4.400  1.1951 -0.2665 -0.7520
  808MOL0     H11475   8.124   6.928   4.292 -1.1645  2.3390 -3.1100
  808MOL0     H11476   8.105   6.791   4.098  0.5804 -2.1776 -1.1153
  808MOL0     H11477   8.240   6.746   4.196 -0.1967 -0.3201 -1.6120
  808MOL0     H11478   7.985   6.582   4.230  0.3217  0.5017 -0.9025
  808MOL0     H11479   8.146   6.569   4.302 -0.3095 -1.6124 -0.9862
  808MOL0     H11480   8.248   6.544   4.062  0.3566 -2.1123 -1.5037
  808MOL0     H11481   8.073   6.551   4.017 -0.9936 -0.9396  0.3027
  808MOL0     H11482   8.193   6.309   4.023 -0.4177  0.2559 -0.8479
  808MOL0     H11483   8.033   6.328   4.064 -0.0345  2.0384 -1.7565
  808MOL0     H11484   8.089   7.309   4.351 -1.2247  0.0213 -2.1418
  808MOL0     H11485   8.143   7.516   4.402 -2.6077  4.1816 -1.4235
  808MOL0     H11486   8.087   7.832   4.767  1.2171 -2.9596 -2.1746
  808MOL0     H11487   8.213   8.029   4.855  2.0092  2.5593 -0.2148
  808MOL0     H11488   7.639   8.566   3.746 -0.6977 -0.5062  0.7963
  808MOL0     H11489   7.691   8.323   3.685  2.1147  1.4067 -4.0555
  808MOL0     H11490   8.010   7.857   3.916 -1.6938 -1.4453  0.9103
  808MOL0     H11491   8.049   7.643   3.801  0.9520 -2.0760 -5.0926
  808MOL0     H11492   8.204   7.523   3.690  1.6053  0.3218  0.2444
  808MOL0     H11493   8.153   7.413   3.575  0.2972 -0.1784 -0.1096
  808MOL0     H11494   8.388   7.450   3.548 -3.0399 -0.3321  2.3310
  808MOL0     H11495   8.369   7.629   3.544 -0.8529  0.2542 -0.3380
  808MOL0     H11496   8.271   7.455   3.315  0.1037 -0.4387  0.9066
  808MOL0     H11497   8.263   7.630   3.326 -2.1632 -1.2653 -1.2537
  808MOL0     H11498   8.498   7.419   3.356  2.0273 -0.3964 -1.6294
  808MOL0     H11499   8.546   7.587   3.364  1.1588  1.1687 -1.6631
  808MOL0     H11500   8.498   7.490   2.939 -0.3794 -1.2720 -0.2403
  808MOL0     H11501   8.067   7.816   3.427 -0.9160 -1.5519 -1.1034
  808MOL0     H11502   8.050   8.173   3.509  1.7441 -1.0211  0.3232
  808MOL0     H11503   8.074   8.048   3.391 -2.2310 -0.9703 -1.3054
  808MOL0     H11504   7.909   8.064   3.444  0.3991 -1.6298 -2.3177
  809MOL0     O11505   8.017   8.406   7.421  0.2083 -0.4979 -0.0098
  809MOL0     C11506   7.967   8.296   7.381  0.3597  0.4276 -0.5711
  809MOL0     O11507   7.991   8.177   7.454  0.1893 -0.4057  0.5903
  809MOL0     C11508   8.107   8.185   7.523 -0.8855 -0.2046  0.3408
  809MOL0     C11509   8.117   8.176   7.663 -0.3133  0.3721  0.4757
  809MOL0     C11510   8.240   8.162   7.725 -0.3566 -1.2055 -0.6497
  809MOL0     C11511   8.362   8.152   7.655 -0.0791 -1.2539  0.0277
  809MOL0     O11512   8.481   8.151   7.726  0.1069 -0.4997 -0.1052
  809MOL0     C11513   8.599   8.185   7.652  0.3758 -0.3104  0.1915
  809MOL0     C11514   8.718   8.141   7.733 -1.3525  0.2670  0.2904
  809MOL0     C11515   8.751   7.997   7.695 -0.2036  0.0936  1.5407
  809MOL0     C11516   8.832   7.917   7.804  0.0524 -0.1343  0.7986
  809MOL0     C11517   8.974   7.978   7.817 -0.9023  0.0485  0.3196
  809MOL0     C11518   9.072   7.869   7.871  0.3209 -0.5284 -0.0136
  809MOL0     C11519   9.063   7.844   8.025  0.2996  0.4241 -0.2485
  809MOL0     C11520   8.942   7.766   8.083  0.2206 -0.0346 -0.4565
  809MOL0     N11521   8.969   7.744   8.229  0.0109  0.5395 -0.1283
  809MOL0     C11522   8.975   7.845   8.322  0.9238  1.3682 -0.4582
  809MOL0     C11523   9.023   7.780   8.436  0.0094 -0.6830  0.1625
  809MOL0     C11524   9.010   7.832   8.574  0.6270 -0.0472  0.2251
  809MOL0     C11525   8.937   7.739   8.674 -0.2048 -0.1393  0.3629
  809MOL0     C11526   8.786   7.745   8.645  0.1859 -0.1639  0.0675
  809MOL0     C11527   8.701   7.638   8.718  0.6657  0.4795 -0.2294
  809MOL0     O11528   8.575   7.689   8.766  0.5897 -0.3653 -0.5655
  809MOL0     C11529   8.477   7.691   8.665 -0.3790  0.2199 -1.1147
  809MOL0     C11530   8.390   7.588   8.633  0.0656  0.4973  0.0221
  809MOL0     C11531   8.296   7.597   8.534  0.3449  0.3807  0.7160
  809MOL0     C11532   8.205   7.475   8.519 -0.8604 -0.0512  0.2941
  809MOL0     C11533   8.282   7.719   8.459  0.7207  0.1464  0.6147
  809MOL0     C11534   8.186   7.736   8.346  0.0944  1.0352  0.4316
  809MOL0     O11535   8.153   7.873   8.305 -0.4199  0.0954 -0.2791
  809MOL0     C11536   8.080   7.914   8.192  0.1634 -0.0066 -0.2286
  809MOL0     C11537   8.058   7.833   8.080  0.4266  0.4972 -0.1791
  809MOL0     C11538   7.958   7.882   7.992 -0.0757 -0.3192 -0.6552
  809MOL0     C11539   7.887   8.001   8.004  0.3323 -0.3108  0.2546
  809MOL0     O11540   7.803   8.034   7.902  1.0090  0.1578  0.0419
  809MOL0     C11541   7.667   8.078   7.935 -0.7393  0.2442 -0.9347
  809MOL0     C11542   7.580   8.025   7.824  0.3107 -0.1973 -0.3403
  809MOL0     C11543   7.431   8.073   7.813  0.5893 -1.4614 -0.2636
  809MOL0     C11544   7.422   8.220   7.792  0.2491  0.1277 -0.2408
  809MOL0     C11545   7.273   8.276   7.805 -0.3064 -0.6917  0.8722
  809MOL0     C11546   7.255   8.429   7.787  0.0990  0.3418 -0.0007
  809MOL0     C11547   7.314   8.509   7.903 -1.1829  0.3025 -0.2123
  809MOL0     C11548   7.293   8.659   7.889  0.6110 -0.9668 -0.0087
  809MOL0    Cl11549   7.385   8.744   8.029  0.0504  0.5357  0.0975
  809MOL0     C11550   7.928   8.079   8.115  0.6828 -0.1097 -0.3604
  809MOL0     C11551   8.026   8.039   8.206 -0.4504 -0.3974  0.1088
  809MOL0     O11552   8.154   7.636   8.286  0.6855  0.9241  0.5241
  809MOL0     C11553   8.372   7.826   8.492  0.5085 -0.1912 -0.3702
  809MOL0     C11554   8.468   7.805   8.595 -0.3630 -0.8428 -0.5715
  809MOL0     N11555   9.056   7.647   8.405 -0.8391 -0.3933 -0.2130
  809MOL0     N11556   9.009   7.621   8.283 -0.5668  0.1432 -0.1095
  809MOL0     C11557   8.350   8.172   7.511 -0.5498 -0.3848 -0.1046
  809MOL0     C11558   8.224   8.185   7.452 -0.1336  0.1856 -0.4148
  809MOL0     C11559   7.880   8.286   7.262 -0.7919 -0.8875 -0.2775
  809MOL0     C11560   7.850   8.152   7.215  0.1476  0.2783 -0.2733
  809MOL0     C11561   7.752   8.140   7.116 -0.6935 -0.0607  0.7503
  809MOL0     C11562   7.708   8.245   7.038 -0.6091 -0.7492  0.1315
  809MOL0     O11563   7.624   8.227   6.927  0.5371  0.3039 -0.6383
  809MOL0     C11564   7.511   8.143   6.970  0.1030  0.8119  0.1131
  809MOL0     C11565   7.375   8.203   6.921  0.2968 -0.1380 -0.3397
  809MOL0     C11566   7.371   8.197   6.767 -0.2679 -0.1116  0.9864
  809MOL0     C11567   7.288   8.301   6.701  0.2092 -0.1203  0.5897
  809MOL0     C11568   7.252   8.251   6.570 -1.6138  0.3520  0.4534
  809MOL0     C11569   7.232   8.194   6.460 -0.7153  0.5079 -0.7609
  809MOL0     C11570   7.766   8.368   7.060 -0.0531 -0.0923  0.1710
  809MOL0     C11571   7.841   8.399   7.173 -0.4274  0.6504  0.4497
  809MOL0     C11572   7.893   8.543   7.179 -0.0074  1.2845  0.9397
  809MOL0     H11573   8.022   8.166   7.715 -0.4717  2.8589  0.7599
  809MOL0     H11574   8.253   8.143   7.831 -0.6918 -1.6596 -0.6856
  809MOL0     H11575   8.616   8.291   7.630  2.3469 -0.1130  2.3204
  809MOL0     H11576   8.596   8.143   7.552 -1.7260  0.2501 -0.0317
  809MOL0     H11577   8.811   8.190   7.703 -1.9865  0.6991 -1.0671
  809MOL0     H11578   8.695   8.147   7.840 -1.3430 -0.9275  0.3769
  809MOL0     H11579   8.657   7.941   7.695  0.5853 -1.3599 -0.9345
  809MOL0     H11580   8.793   7.982   7.595 -1.2648 -0.8439  1.2216
  809MOL0     H11581   8.771   7.921   7.895 -2.3945  0.8005 -0.8106
  809MOL0     H11582   8.835   7.816   7.761 -5.0012 -0.2288  0.1430
  809MOL0     H11583   8.979   8.064   7.884  1.9834 -1.0458  1.7191
  809MOL0     H11584   9.020   7.997   7.720  1.0356 -1.9069  0.7547
  809MOL0     H11585   9.050   7.774   7.821  1.2374 -1.8868  2.0564
  809MOL0     H11586   9.171   7.906   7.843 -0.6122  2.9247  0.7988
  809MOL0     H11587   9.075   7.942   8.074 -0.6285 -0.1822  1.2479
  809MOL0     H11588   9.147   7.775   8.040  0.8157  1.5678  2.9033
  809MOL0     H11589   8.849   7.822   8.073 -0.2935 -0.8997 -0.7058
  809MOL0     H11590   8.928   7.674   8.024 -0.2426  1.3045 -2.5375
  809MOL0     H11591   8.927   7.943   8.316  1.3182  1.7743  1.8619
  809MOL0     H11592   8.972   7.935   8.573  1.3688  0.2358 -1.5507
  809MOL0     H11593   9.115   7.839   8.601  1.3686 -1.8005 -1.9939
  809MOL0     H11594   8.972   7.636   8.664 -0.3016  0.0033 -2.2557
  809MOL0     H11595   8.957   7.772   8.776  0.5612  1.1096 -0.1683
  809MOL0     H11596   8.747   7.843   8.674  0.9924 -0.1433  1.1253
  809MOL0     H11597   8.774   7.738   8.536  0.0213 -0.7930  0.1217
  809MOL0     H11598   8.681   7.551   8.656  0.5676  0.5590 -0.3081
  809MOL0     H11599   8.758   7.602   8.805 -0.3555 -1.1008 -0.1646
  809MOL0     H11600   8.401   7.493   8.685 -2.5506  0.2341  0.2371
  809MOL0     H11601   8.099   7.487   8.540 -0.5775  1.2869  1.0490
  809MOL0     H11602   8.235   7.400   8.593 -0.9630 -0.4910 -0.1000
  809MOL0     H11603   8.223   7.421   8.425  0.0393 -0.2777  0.5782
  809MOL0     H11604   8.092   7.730   8.068 -0.6221  0.0212  0.7135
  809MOL0     H11605   7.925   7.811   7.917  2.7767 -1.9780 -0.5010
  809MOL0     H11606   7.637   8.026   8.027  0.5495  0.3764 -0.4057
  809MOL0     H11607   7.663   8.186   7.953 -0.4385  0.2458 -0.8647
  809MOL0     H11608   7.616   8.074   7.734 -0.0447  0.5717 -0.0720
  809MOL0     H11609   7.578   7.916   7.823 -2.2431 -0.2374 -1.7765
  809MOL0     H11610   7.384   8.073   7.912 -1.0621  2.4674 -0.8764
  809MOL0     H11611   7.374   8.014   7.740 -2.0384 -1.4449  1.6708
  809MOL0     H11612   7.451   8.246   7.690  0.9975  2.4474  0.4927
  809MOL0     H11613   7.478   8.269   7.872  0.1335 -0.1993  0.0385
  809MOL0     H11614   7.195   8.239   7.738 -0.1935  0.5556  0.0147
  809MOL0     H11615   7.252   8.253   7.910 -0.2599 -1.0380  0.8042
  809MOL0     H11616   7.149   8.458   7.790  0.7309  3.0643 -0.8475
  809MOL0     H11617   7.303   8.467   7.696  0.2462  2.4313  0.8747
  809MOL0     H11618   7.421   8.490   7.913 -1.1568 -1.6949 -3.1223
  809MOL0     H11619   7.269   8.472   7.996  1.7516  0.6907  1.4902
  809MOL0     H11620   7.189   8.690   7.898  0.4944 -0.9414 -1.2577
  809MOL0     H11621   7.337   8.709   7.802 -1.1237  2.6417  1.0115
  809MOL0     H11622   7.892   8.181   8.125  2.9343  0.6474  1.1212
  809MOL0     H11623   8.049   8.100   8.293  1.7542 -2.9732  1.4902
  809MOL0     H11624   8.375   7.916   8.431  2.1153  0.3176  0.4134
  809MOL0     H11625   8.533   7.888   8.621  0.1542 -1.4166 -0.0019
  809MOL0     H11626   8.442   8.184   7.455 -0.6657 -0.9842 -0.4281
  809MOL0     H11627   8.226   8.193   7.344 -0.7674 -2.9767 -0.7591
  809MOL0     H11628   7.888   8.065   7.267  0.1981 -0.5203 -1.6251
  809MOL0     H11629   7.712   8.046   7.079 -2.4015  2.0012 -3.4068
  809MOL0     H11630   7.515   8.039   6.935  2.1603  1.0793 -0.5562
  809MOL0     H11631   7.497   8.130   7.078 -1.1631 -0.0331 -0.1214
  809MOL0     H11632   7.364   8.308   6.950  2.5848  0.2406 -0.6236
  809MOL0     H11633   7.291   8.149   6.964  1.2805 -1.2066  0.2906
  809MOL0     H11634   7.471   8.212   6.727 -1.9868 -0.8787 -4.3602
  809MOL0     H11635   7.349   8.096   6.734  1.9587 -0.2771 -0.1431
  809MOL0     H11636   7.341   8.396   6.687  0.8453 -0.7586 -1.8142
  809MOL0     H11637   7.193   8.312   6.755  0.5760  1.9276  0.8992
  809MOL0     H11638   7.214   8.146   6.367 -1.5312 -0.3845 -0.1642
  809MOL0     H11639   7.724   8.447   6.999  1.3347  2.4759  2.3783
  809MOL0     H11640   7.881   8.595   7.083 -1.6241  0.1715  0.4952
  809MOL0     H11641   7.828   8.604   7.242  0.9774  3.7415 -0.2673
  809MOL0     H11642   7.999   8.547   7.206 -0.3167 -1.3060  2.8547
  810MOL0     O11643   4.855  10.184   2.578  0.8087 -0.4901  0.7196
  810MOL0     C11644   4.761  10.103   2.607 -0.1916 -1.1368  0.3347
  810MOL0     O11645   4.673  10.051   2.519  0.0185 -0.1566 -0.5244
  810MOL0     C11646   4.715  10.050   2.389  1.5258  0.2078 -0.1943
  810MOL0     C11647   4.632  10.094   2.284 -0.2072 -0.6165 -0.2433
  810MOL0     C11648   4.672  10.076   2.150 -1.2699 -1.5844 -0.4131
  810MOL0     C11649   4.787   9.999   2.118 -0.3737 -0.9351 -0.1693
  810MOL0     O11650   4.824   9.991   1.990 -0.4499 -0.6961  0.0264
  810MOL0     C11651   4.830  10.120   1.924  0.0342 -0.4890 -0.6819
  810MOL0     C11652   4.899  10.113   1.784 -0.0041 -0.0235  0.4430
  810MOL0     C11653   5.043  10.173   1.776  0.2024 -0.2871  0.5316
  810MOL0     C11654   5.121  10.132   1.651 -0.1235  0.2353  0.0555
  810MOL0     C11655   5.151   9.977   1.641 -0.1372  0.4504 -0.5379
  810MOL0     C11656   5.185   9.935   1.501 -0.4847  0.4575 -0.0079
  810MOL0     C11657   5.316  10.015   1.435  0.2838  0.5946  0.3155
  810MOL0     C11658   5.384   9.945   1.313 -1.1479  0.8864 -0.0597
  810MOL0     N11659   5.501   9.844   1.343 -0.0140 -0.7806  1.0085
  810MOL0     C11660   5.530   9.745   1.252 -0.7727 -0.4167 -0.6679
  810MOL0     C11661   5.595   9.648   1.323 -0.6665  0.0633 -1.4065
  810MOL0     C11662   5.648   9.523   1.266  0.0512 -0.2063 -0.3279
  810MOL0     C11663   5.736   9.447   1.364 -0.7185 -1.5001 -0.0544
  810MOL0     C11664   5.791   9.325   1.298 -0.6889 -0.8677 -0.0590
  810MOL0     C11665   5.862   9.245   1.399 -0.8230  0.2684 -0.6828
  810MOL0     O11666   5.934   9.145   1.323 -0.9951 -0.2328 -0.7170
  810MOL0     C11667   5.978   9.032   1.396 -0.1242 -0.5666  1.2301
  810MOL0     C11668   5.935   8.992   1.524 -0.0400 -0.4285 -0.0875
  810MOL0     C11669   6.002   8.893   1.599  0.1786 -0.2632  0.4740
  810MOL0     C11670   5.958   8.857   1.742  0.1255 -0.6604  0.3003
  810MOL0     C11671   6.102   8.820   1.519  0.5748 -0.0258 -0.2007
  810MOL0     C11672   6.179   8.736   1.595  0.5531 -0.3099 -0.4498
  810MOL0     O11673   6.121   8.617   1.636 -0.9106  0.0706 -0.2272
  810MOL0     C11674   6.172   8.527   1.728 -0.3706  0.0532 -0.8442
  810MOL0     C11675   6.147   8.390   1.714 -0.3957  0.2242 -0.0816
  810MOL0     C11676   6.187   8.308   1.824 -0.5109 -0.2441 -0.3123
  810MOL0     C11677   6.256   8.361   1.933 -0.1802  0.2161  0.1025
  810MOL0     O11678   6.284   8.289   2.045  0.7652 -0.1292 -0.3558
  810MOL0     C11679   6.311   8.146   2.027  1.2527 -0.5751  0.0540
  810MOL0     C11680   6.186   8.061   2.056  0.0196 -0.0202  0.2581
  810MOL0     C11681   6.182   7.916   1.993 -0.5504 -0.1926  0.1244
  810MOL0     C11682   6.316   7.836   2.004  0.1160 -0.1556 -0.4715
  810MOL0     C11683   6.356   7.796   2.136 -0.0697  0.1203 -0.3074
  810MOL0     C11684   6.264   7.692   2.198  0.7610  0.6868  0.0294
  810MOL0     C11685   6.335   7.590   2.292  0.6277 -0.7622 -0.1490
  810MOL0     C11686   6.437   7.499   2.226 -0.3966 -0.0104  0.7732
  810MOL0    Cl11687   6.452   7.372   2.345  0.6549  0.1410 -0.6915
  810MOL0     C11688   6.293   8.502   1.945  0.4606 -0.2304 -0.4799
  810MOL0     C11689   6.240   8.576   1.845 -0.8295 -0.9147 -0.0412
  810MOL0     O11690   6.293   8.775   1.618  0.0921  1.3469 -0.0089
  810MOL0     C11691   6.128   8.849   1.386 -0.0182  0.6302  0.0747
  810MOL0     C11692   6.069   8.956   1.321  0.1548  0.8007  0.1074
  810MOL0     N11693   5.598   9.692   1.452 -0.1132  0.4932 -0.6477
  810MOL0     N11694   5.544   9.805   1.463  0.6022  1.1023 -0.0674
  810MOL0     C11695   4.856   9.940   2.220 -0.1402  0.6809  0.6745
  810MOL0     C11696   4.825   9.966   2.348 -0.4864  0.2909  0.0431
  810MOL0     C11697   4.734  10.072   2.747  0.4458  0.7651 -0.0749
  810MOL0     C11698   4.662  10.154   2.834 -0.5163 -0.5223  0.3041
  810MOL0     C11699   4.618  10.102   2.961 -0.8019 -0.5157  0.3185
  810MOL0     C11700   4.648   9.971   3.002 -0.5398 -0.2014  0.0176
  810MOL0     O11701   4.600   9.930   3.117  0.7757 -0.3771 -0.5597
  810MOL0     C11702   4.655   9.812   3.169 -0.1108 -0.3956  0.6170
  810MOL0     C11703   4.591   9.802   3.310  0.2748 -0.7020 -0.3431
  810MOL0     C11704   4.442   9.806   3.319 -0.0500  0.2900  0.9516
  810MOL0     C11705   4.388   9.683   3.238  0.6721  0.8607  0.2504
  810MOL0     C11706   4.386   9.545   3.305 -0.1191 -0.7835 -0.0340
  810MOL0     C11707   4.377   9.433   3.360 -0.5336  0.1640 -0.4232
  810MOL0     C11708   4.730   9.890   2.913  0.5234  0.1817  0.2111
  810MOL0     C11709   4.761   9.936   2.788 -0.0292 -0.8860  0.0920
  810MOL0     C11710   4.852   9.840   2.714  0.4418 -0.3311  0.1545
  810MOL0     H11711   4.541  10.152   2.297 -0.3001 -0.7793 -0.1683
  810MOL0     H11712   4.603  10.115   2.075  0.4729  0.1910 -1.1641
  810MOL0     H11713   4.889  10.194   1.979  0.9505 -0.1599 -2.0646
  810MOL0     H11714   4.728  10.154   1.902 -1.0181 -1.5285  2.1438
  810MOL0     H11715   4.896  10.007   1.759  2.1789  0.0772 -0.4621
  810MOL0     H11716   4.831  10.159   1.712 -2.1614 -4.6276 -0.8458
  810MOL0     H11717   5.045  10.279   1.803 -2.2021 -0.4237  1.4826
  810MOL0     H11718   5.107  10.126   1.852  4.5434 -0.0899 -2.6413
  810MOL0     H11719   5.066  10.153   1.559  2.3315  3.3824 -0.8757
  810MOL0     H11720   5.215  10.188   1.649  0.9958 -1.4595  1.7914
  810MOL0     H11721   5.060   9.922   1.663 -2.3511  3.1531 -2.2389
  810MOL0     H11722   5.240   9.955   1.701 -1.2799  2.0292  1.8365
  810MOL0     H11723   5.213   9.829   1.497 -0.0896  0.5383  0.5074
  810MOL0     H11724   5.096   9.941   1.437  0.6086 -0.5286 -1.6959
  810MOL0     H11725   5.388  10.016   1.518 -0.6141  2.0339  1.1005
  810MOL0     H11726   5.287  10.118   1.416  2.9875  2.6290  5.3899
  810MOL0     H11727   5.298   9.887   1.278 -1.8309  1.1394  1.1552
  810MOL0     H11728   5.414  10.024   1.243  0.3267  0.0622 -0.3887
  810MOL0     H11729   5.508   9.744   1.146  0.5927 -1.4460 -0.9736
  810MOL0     H11730   5.701   9.565   1.179  3.0135 -0.1600  1.3757
  810MOL0     H11731   5.569   9.449   1.251  1.9482 -2.5058  0.4584
  810MOL0     H11732   5.818   9.510   1.401 -1.3403 -1.0754  0.6281
  810MOL0     H11733   5.665   9.423   1.444 -0.4876 -2.0257 -0.0041
  810MOL0     H11734   5.705   9.274   1.253 -2.4651 -1.2456  3.4053
  810MOL0     H11735   5.875   9.356   1.236  0.8117 -2.1348  1.2393
  810MOL0     H11736   5.937   9.309   1.446  0.9965  1.9759 -5.3361
  810MOL0     H11737   5.785   9.210   1.468  0.9094  0.2906  1.3782
  810MOL0     H11738   5.843   9.030   1.566 -1.0305 -1.4002 -1.3258
  810MOL0     H11739   6.006   8.926   1.812 -1.2604 -0.4488  1.0786
  810MOL0     H11740   5.973   8.752   1.772  2.6063 -1.4058 -3.0028
  810MOL0     H11741   5.850   8.869   1.754  0.3203 -0.2816  1.9722
  810MOL0     H11742   6.092   8.335   1.638 -1.1597 -5.4908  3.9811
  810MOL0     H11743   6.157   8.204   1.809  0.1711 -0.1262 -3.2421
  810MOL0     H11744   6.354   8.126   1.929  1.2017 -0.8337  0.0836
  810MOL0     H11745   6.383   8.117   2.104  2.0720  1.9065  0.3020
  810MOL0     H11746   6.168   8.058   2.164 -1.6782  0.7417  0.0340
  810MOL0     H11747   6.106   8.124   2.015 -0.1655 -0.7016 -0.4385
  810MOL0     H11748   6.155   7.931   1.887  0.9469 -0.8651 -0.3717
  810MOL0     H11749   6.101   7.856   2.034 -0.6707  1.2540  2.1500
  810MOL0     H11750   6.398   7.897   1.965  3.1222 -3.7928 -0.3688
  810MOL0     H11751   6.315   7.750   1.936  1.5905 -0.6403  0.0968
  810MOL0     H11752   6.456   7.753   2.139 -0.8467 -1.7338  1.2123
  810MOL0     H11753   6.361   7.883   2.202  2.1498 -0.9921  1.0965
  810MOL0     H11754   6.219   7.633   2.117  0.8731  0.2916  0.2545
  810MOL0     H11755   6.189   7.745   2.257 -0.0173  1.7598 -1.8020
  810MOL0     H11756   6.253   7.531   2.335 -1.6766  1.4606 -1.2272
  810MOL0     H11757   6.379   7.636   2.380 -2.4700  0.2401  1.0212
  810MOL0     H11758   6.531   7.551   2.209 -2.4426  3.5522 -0.9001
  810MOL0     H11759   6.394   7.454   2.136 -0.1701  0.3289  0.4927
  810MOL0     H11760   6.341   8.547   2.031  2.4440 -0.7940 -1.2325
  810MOL0     H11761   6.248   8.682   1.866  0.6342 -0.8228 -0.9070
  810MOL0     H11762   6.209   8.794   1.340 -1.8770 -1.5998 -0.7225
  810MOL0     H11763   6.107   8.990   1.225 -0.0764 -0.1862 -0.3487
  810MOL0     H11764   4.951   9.889   2.207 -0.0783  0.6304  1.3165
  810MOL0     H11765   4.886   9.916   2.422 -0.9031  0.6916  0.6756
  810MOL0     H11766   4.616  10.244   2.792 -1.7738 -0.7020  1.2181
  810MOL0     H11767   4.565  10.163   3.033 -2.5311 -0.4105 -0.9784
  810MOL0     H11768   4.645   9.731   3.097  0.0081 -0.3765  0.5780
  810MOL0     H11769   4.764   9.822   3.179 -0.0160 -0.3979 -0.3092
  810MOL0     H11770   4.649   9.878   3.363  2.7354 -0.1034 -3.6002
  810MOL0     H11771   4.614   9.698   3.333 -0.1032 -0.4703  1.1953
  810MOL0     H11772   4.417   9.787   3.424  1.5436  0.1176  1.3334
  810MOL0     H11773   4.397   9.901   3.289 -0.8010 -0.3125  0.1345
  810MOL0     H11774   4.440   9.673   3.142 -2.1324 -0.9679 -1.2123
  810MOL0     H11775   4.288   9.708   3.201  0.7785 -1.3773 -1.8090
  810MOL0     H11776   4.396   9.348   3.422  3.8136 -1.3889 -3.3927
  810MOL0     H11777   4.758   9.787   2.929  1.5427  0.7482  2.4637
  810MOL0     H11778   4.894   9.757   2.771 -1.7887 -2.9356 -1.7404
  810MOL0     H11779   4.812   9.807   2.617  2.9838 -0.2923 -0.9943
  810MOL0     H11780   4.945   9.889   2.683  2.2583 -2.4125  2.0047
  811MOL0     O11781   0.720   9.316   8.425  0.4752 -0.0107  0.3324
  811MOL0     C11782   0.640   9.400   8.389 -0.1404 -0.3157  0.0337
  811MOL0     O11783   0.617   9.428   8.260  0.4415 -1.1274  0.0318
  811MOL0     C11784   0.630   9.329   8.172 -0.0944  0.0559 -0.4474
  811MOL0     C11785   0.535   9.228   8.150  0.4351 -0.2114  0.5802
  811MOL0     C11786   0.568   9.116   8.082  0.4087 -0.1829 -0.7913
  811MOL0     C11787   0.694   9.113   8.009  0.9085  0.9001  0.6576
  811MOL0     O11788   0.730   9.004   7.927  0.3356 -0.1945 -0.2453
  811MOL0     C11789   0.763   9.044   7.789  0.4767  0.4789 -0.3669
  811MOL0     C11790   0.704   8.946   7.689  0.0816  0.2907 -0.5368
  811MOL0     C11791   0.755   8.998   7.555  0.5406 -0.3665  0.2116
  811MOL0     C11792   0.728   8.918   7.427  0.0990 -0.6319 -0.0058
  811MOL0     C11793   0.804   8.797   7.406  0.3444  0.0793  0.6390
  811MOL0     C11794   0.800   8.735   7.260 -0.8436  0.1435 -0.3021
  811MOL0     C11795   0.898   8.805   7.163  0.2228 -0.1827 -0.7470
  811MOL0     C11796   0.890   8.744   7.021  0.1686  0.0134  0.1126
  811MOL0     N11797   0.965   8.618   7.007 -0.1489 -0.6118 -0.6946
  811MOL0     C11798   0.915   8.492   7.038  0.6774 -0.6673  0.4294
  811MOL0     C11799   1.027   8.402   7.043  0.0636  0.2124  0.8781
  811MOL0     C11800   1.014   8.269   7.079 -0.2327 -0.2793 -0.1427
  811MOL0     C11801   0.982   8.214   6.945 -0.4079 -0.6050  0.3527
  811MOL0     C11802   0.938   8.067   6.953  0.3949  0.0557  0.1084
  811MOL0     C11803   0.884   8.014   6.825 -0.5764  0.1787 -0.2637
  811MOL0     O11804   0.755   8.072   6.802 -0.3989 -0.3528 -0.0024
  811MOL0     C11805   0.648   8.003   6.750  0.2156 -0.5068  0.0067
  811MOL0     C11806   0.536   8.075   6.731  0.2974  0.0757  1.0065
  811MOL0     C11807   0.412   8.024   6.682 -0.6403  0.9114 -0.2237
  811MOL0     C11808   0.287   8.119   6.698  0.2635 -0.2345 -0.7425
  811MOL0     C11809   0.413   7.889   6.628  0.4171  0.6989 -0.6073
  811MOL0     C11810   0.301   7.833   6.545  1.4063 -0.2070 -0.1962
  811MOL0     O11811   0.201   7.914   6.522  0.3872  0.1348  0.0661
  811MOL0     C11812   0.090   7.865   6.460  1.0724 -0.0223  0.2833
  811MOL0     C11813   0.046   7.934   6.343 -0.4250 -0.0799 -0.7688
  811MOL0     C11814  -0.070   7.895   6.285  0.0334  1.1678  0.2819
  811MOL0     C11815  -0.152   7.793   6.328  0.0699  0.1216  0.0884
  811MOL0     O11816  -0.268   7.775   6.258  0.6826 -0.4433 -0.5763
  811MOL0     C11817  -0.367   7.681   6.297  1.1512  0.0160 -0.3277
  811MOL0     C11818  -0.477   7.702   6.189  0.4831 -0.3048 -0.1908
  811MOL0     C11819  -0.588   7.587   6.181  0.1146 -0.5468  0.7881
  811MOL0     C11820  -0.734   7.624   6.130 -0.7601 -0.7910 -0.8905
  811MOL0     C11821  -0.827   7.514   6.173 -0.5347 -0.4955 -0.2297
  811MOL0     C11822  -0.970   7.572   6.172  0.1141 -0.1664  0.6581
  811MOL0     C11823  -1.074   7.461   6.161 -0.7622  0.0791 -0.6242
  811MOL0     C11824  -1.212   7.517   6.149  0.3942 -0.1852 -0.0802
  811MOL0    Cl11825  -1.261   7.601   6.302 -0.1546  0.5791 -0.0723
  811MOL0     C11826  -0.121   7.733   6.455 -0.4947  0.6251  0.5469
  811MOL0     C11827   0.005   7.766   6.514 -0.1316  0.7054 -0.4487
  811MOL0     O11828   0.315   7.722   6.492 -0.0327 -0.6067  0.2335
  811MOL0     C11829   0.535   7.810   6.655 -0.4936 -0.1267 -0.1536
  811MOL0     C11830   0.651   7.872   6.710  0.3891 -0.1905 -0.7294
  811MOL0     N11831   1.135   8.480   7.004 -0.2157 -0.4698  0.9826
  811MOL0     N11832   1.104   8.605   6.994 -0.0899 -0.4170 -0.5013
  811MOL0     C11833   0.768   9.233   8.005 -0.3711  0.1421  0.4675
  811MOL0     C11834   0.749   9.335   8.092 -0.4258  0.3247  0.4198
  811MOL0     C11835   0.586   9.499   8.491  0.3934 -0.4576 -0.3258
  811MOL0     C11836   0.569   9.628   8.457  0.4735 -0.4423 -0.0053
  811MOL0     C11837   0.519   9.730   8.540  0.0638  0.3664  0.0126
  811MOL0     C11838   0.482   9.696   8.677  0.2719  0.3473  1.4500
  811MOL0     O11839   0.446   9.789   8.772  0.1769 -0.3625  0.3007
  811MOL0     C11840   0.424   9.932   8.730  0.9182  0.8661  0.8170
  811MOL0     C11841   0.388  10.003   8.861 -0.6581 -0.3780 -0.8696
  811MOL0     C11842   0.512  10.052   8.933 -0.5043  0.2555  0.6822
  811MOL0     C11843   0.486  10.153   9.046  0.5982 -1.1452 -0.2998
  811MOL0     C11844   0.611  10.197   9.097 -0.6409 -0.1586 -0.6309
  811MOL0     C11845   0.731  10.227   9.112 -0.7666 -0.3067  0.5135
  811MOL0     C11846   0.487   9.558   8.711 -0.4014 -0.9047 -0.4494
  811MOL0     C11847   0.541   9.465   8.630 -0.1720  0.1319  0.5079
  811MOL0     C11848   0.538   9.324   8.669  0.0682 -0.0092  0.5271
  811MOL0     H11849   0.435   9.231   8.193 -0.4089  3.5359 -1.2407
  811MOL0     H11850   0.496   9.034   8.092 -0.0233 -0.2096 -3.4023
  811MOL0     H11851   0.872   9.042   7.772  0.3554  2.3120 -1.6839
  811MOL0     H11852   0.742   9.148   7.763  1.3713  0.7428 -0.0853
  811MOL0     H11853   0.746   8.848   7.713  2.6190  1.9515  2.5498
  811MOL0     H11854   0.596   8.954   7.703  0.2963 -1.1206  2.9787
  811MOL0     H11855   0.694   9.088   7.550  0.2658 -0.5898 -0.4409
  811MOL0     H11856   0.860   9.030   7.552  0.0559  1.3569  0.7436
  811MOL0     H11857   0.625   8.885   7.438  0.9100 -2.7470  2.3164
  811MOL0     H11858   0.728   8.972   7.332 -0.5720 -0.0909  0.2982
  811MOL0     H11859   0.750   8.721   7.464  1.6852 -2.4785 -1.2262
  811MOL0     H11860   0.904   8.798   7.449 -0.2236 -0.3714  2.0269
  811MOL0     H11861   0.828   8.630   7.273 -0.3369 -0.0752 -2.6300
  811MOL0     H11862   0.702   8.748   7.212  0.8407 -0.3195 -4.3018
  811MOL0     H11863   1.001   8.804   7.199  0.4125  1.9501 -1.1297
  811MOL0     H11864   0.856   8.905   7.151  0.0228  0.2304  2.4788
  811MOL0     H11865   0.788   8.709   7.001 -1.6864  2.1654  4.3647
  811MOL0     H11866   0.927   8.809   6.941  1.4544 -1.4811 -0.5435
  811MOL0     H11867   0.811   8.468   7.061  0.5904  0.4641  1.3423
  811MOL0     H11868   0.925   8.266   7.144 -2.0120 -1.3197 -2.4889
  811MOL0     H11869   1.099   8.235   7.138 -0.7973  3.8055  3.5672
  811MOL0     H11870   0.902   8.274   6.901  0.2021  2.5490  3.1439
  811MOL0     H11871   1.072   8.235   6.886 -0.7859 -0.4570 -0.1851
  811MOL0     H11872   1.020   8.000   6.982  1.1885 -0.0178 -2.1033
  811MOL0     H11873   0.859   8.058   7.028  0.1361 -1.5959 -0.3179
  811MOL0     H11874   0.951   8.029   6.740  0.4350  1.0818  0.6520
  811MOL0     H11875   0.880   7.905   6.832  2.9563 -0.1161 -0.9344
  811MOL0     H11876   0.534   8.179   6.763 -0.2393 -0.0103  1.2814
  811MOL0     H11877   0.311   8.216   6.743  0.5446 -0.3530 -0.6299
  811MOL0     H11878   0.214   8.066   6.758  1.6769 -1.1108  0.2715
  811MOL0     H11879   0.242   8.138   6.600  1.0096 -2.8511 -1.6812
  811MOL0     H11880   0.101   8.012   6.290  0.9105 -1.1906 -1.0585
  811MOL0     H11881  -0.103   7.966   6.209  0.7781  2.0255  0.7544
  811MOL0     H11882  -0.317   7.584   6.293  1.0598 -0.1483  1.6358
  811MOL0     H11883  -0.399   7.693   6.401  0.6906 -0.5863 -0.3966
  811MOL0     H11884  -0.518   7.802   6.202  1.4580  0.1081 -0.1924
  811MOL0     H11885  -0.432   7.719   6.091 -0.1777  2.2701 -0.1053
  811MOL0     H11886  -0.597   7.541   6.280 -0.7392 -1.2526  0.3972
  811MOL0     H11887  -0.540   7.510   6.120  1.9051  0.4459  0.8762
  811MOL0     H11888  -0.738   7.636   6.021  1.6469 -3.2954 -1.3869
  811MOL0     H11889  -0.772   7.718   6.171 -1.0779  1.0737 -4.9788
  811MOL0     H11890  -0.816   7.436   6.096 -0.4436  1.3893 -2.2157
  811MOL0     H11891  -0.808   7.489   6.278  2.1881  0.9422 -0.2749
  811MOL0     H11892  -0.967   7.641   6.087  1.3404  0.6015  1.2859
  811MOL0     H11893  -0.979   7.640   6.257 -0.2521  1.4928 -0.6551
  811MOL0     H11894  -1.062   7.389   6.243  0.2991  0.1523 -0.6944
  811MOL0     H11895  -1.057   7.401   6.071 -0.5077  1.3136 -1.4126
  811MOL0     H11896  -1.280   7.435   6.124 -0.0447 -0.0332  0.6043
  811MOL0     H11897  -1.232   7.595   6.075 -0.8644  1.2156  1.6376
  811MOL0     H11898  -0.184   7.658   6.501 -0.5372  0.9150  0.9616
  811MOL0     H11899   0.045   7.721   6.604 -0.0071  2.0746  0.2044
  811MOL0     H11900   0.535   7.705   6.631 -1.1309 -1.2385  3.9139
  811MOL0     H11901   0.737   7.806   6.720 -0.0155 -0.8299 -1.3991
  811MOL0     H11902   0.849   9.247   7.935 -1.9910  3.5211 -0.9541
  811MOL0     H11903   0.813   9.423   8.085  0.1620 -0.1789 -0.7776
  811MOL0     H11904   0.595   9.663   8.358 -0.8078 -1.5995 -0.7778
  811MOL0     H11905   0.517   9.832   8.503 -3.3255  0.9574  1.4646
  811MOL0     H11906   0.511   9.986   8.690  0.3501  0.6386 -0.8238
  811MOL0     H11907   0.347   9.936   8.652 -0.5928 -0.8278  2.1384
  811MOL0     H11908   0.320   9.944   8.923 -2.8741  1.7465 -1.1028
  811MOL0     H11909   0.320  10.089   8.851 -0.4667  0.1107  1.5154
  811MOL0     H11910   0.553   9.964   8.984  3.0366  0.6959 -1.0765
  811MOL0     H11911   0.580  10.105   8.866 -1.4994  0.4913 -0.1641
  811MOL0     H11912   0.433  10.102   9.128 -2.3951  2.2804  0.1270
  811MOL0     H11913   0.419  10.235   9.019 -0.5771 -2.0489 -0.2070
  811MOL0     H11914   0.829  10.263   9.136 -0.5955 -1.0363  0.9304
  811MOL0     H11915   0.462   9.539   8.814 -1.0754  2.0746  0.0262
  811MOL0     H11916   0.543   9.248   8.591  0.2905  0.1477  0.3893
  811MOL0     H11917   0.609   9.307   8.751  0.7320 -0.9377 -0.2198
  811MOL0     H11918   0.441   9.303   8.714 -0.0435 -0.2689  0.1649
  812MOL0     O11919  10.248  10.870   4.885 -0.1042  0.0543  0.1658
  812MOL0     C11920  10.218  10.805   4.986  0.5123  0.5920  0.0502
  812MOL0     O11921  10.103  10.847   5.059  0.1651  0.0005  0.5728
  812MOL0     C11922  10.021  10.941   4.993 -0.6517 -0.2963 -1.2441
  812MOL0     C11923  10.029  11.085   5.011 -0.6256  0.1113  0.8123
  812MOL0     C11924   9.929  11.168   4.953 -1.1573 -0.1444  0.2497
  812MOL0     C11925   9.828  11.115   4.877  0.3475  0.8251 -0.6286
  812MOL0     O11926   9.709  11.177   4.832 -0.0531 -0.4240  0.2718
  812MOL0     C11927   9.738  11.309   4.767  0.1600  0.1129  0.2243
  812MOL0     C11928   9.600  11.371   4.727 -0.0726  0.3290 -0.5471
  812MOL0     C11929   9.506  11.408   4.843  0.6992  0.0242  0.0378
  812MOL0     C11930   9.372  11.461   4.800  0.7096 -0.1227  0.3201
  812MOL0     C11931   9.257  11.475   4.902 -0.5007 -0.5983 -0.0176
  812MOL0     C11932   9.194  11.336   4.933  0.0945 -0.1508 -0.3146
  812MOL0     C11933   9.098  11.366   5.053  0.0116  0.0250  0.1072
  812MOL0     C11934   9.027  11.235   5.095  0.4173  0.8055 -0.2868
  812MOL0     N11935   9.118  11.159   5.182 -0.3180  0.1241  0.0829
  812MOL0     C11936   9.227  11.093   5.149 -0.8308  0.2796  0.4834
  812MOL0     C11937   9.308  11.061   5.255 -0.3608 -0.6957 -0.7996
  812MOL0     C11938   9.433  10.994   5.271 -0.0794 -0.7207  0.3020
  812MOL0     C11939   9.400  10.848   5.298  1.3614  0.0609  0.4369
  812MOL0     C11940   9.285  10.817   5.410 -0.3342 -0.4033  0.9495
  812MOL0     C11941   9.314  10.872   5.554  0.0181  0.7139  0.7089
  812MOL0     O11942   9.237  10.785   5.636 -0.3438 -0.5185 -0.3166
  812MOL0     C11943   9.181  10.815   5.755  0.4143 -0.0163 -0.3430
  812MOL0     C11944   9.215  10.914   5.845 -0.1297 -0.2061  0.1116
  812MOL0     C11945   9.165  10.926   5.974 -0.2514 -0.1536  0.0771
  812MOL0     C11946   9.204  11.044   6.053 -0.9366  0.1211 -0.3165
  812MOL0     C11947   9.069  10.830   6.023 -0.2731 -0.2397 -0.5916
  812MOL0     C11948   9.012  10.821   6.164 -0.9666  0.1703 -0.1778
  812MOL0     O11949   8.928  10.718   6.192  0.0718 -1.0352 -0.2184
  812MOL0     C11950   8.912  10.689   6.329 -0.0055  0.3666  0.2313
  812MOL0     C11951   8.828  10.772   6.405  1.2014  0.6293  0.5048
  812MOL0     C11952   8.798  10.729   6.533 -0.3470 -0.1384  0.1533
  812MOL0     C11953   8.850  10.606   6.589 -0.5168 -0.6956  0.4493
  812MOL0     O11954   8.834  10.555   6.718 -0.2819  0.6960  0.0430
  812MOL0     C11955   8.823  10.651   6.830 -0.4813  0.3669 -0.7175
  812MOL0     C11956   8.868  10.585   6.963  0.7540 -0.6455 -0.0023
  812MOL0     C11957   9.017  10.588   6.983  0.3561 -0.6193  0.1146
  812MOL0     C11958   9.075  10.511   7.105  0.3745 -0.9573 -0.3537
  812MOL0     C11959   8.990  10.539   7.228  0.0494  0.4534  1.0547
  812MOL0     C11960   9.031  10.460   7.356 -0.7400  0.0546 -0.7346
  812MOL0     C11961   9.177  10.478   7.384 -0.3996 -0.3434  0.1112
  812MOL0     C11962   9.233  10.409   7.514 -0.4719 -0.5646  0.1885
  812MOL0    Cl11963   9.257  10.239   7.468 -0.2170  0.6798  0.0417
  812MOL0     C11964   8.934  10.529   6.506 -0.6545  0.3725 -0.5500
  812MOL0     C11965   8.964  10.576   6.376 -0.7151 -0.0182  0.0056
  812MOL0     O11966   9.040  10.903   6.248  0.4253 -0.0266  0.2466
  812MOL0     C11967   9.027  10.736   5.930  0.2958 -0.0671  0.7144
  812MOL0     C11968   9.087  10.729   5.800  0.1640  1.3836 -0.9319
  812MOL0     N11969   9.239  11.121   5.359 -0.0363  0.6197  0.2037
  812MOL0     N11970   9.130  11.176   5.315 -0.6729 -0.0326  0.3352
  812MOL0     C11971   9.825  10.981   4.856  0.5718  0.8692 -0.6777
  812MOL0     C11972   9.921  10.892   4.903  0.0902  0.0646 -0.4999
  812MOL0     C11973  10.291  10.679   5.007  0.1676  0.0713 -0.2040
  812MOL0     C11974  10.421  10.660   4.961 -0.0797  0.0070 -0.1351
  812MOL0     C11975  10.492  10.537   4.964 -0.1092  0.8440 -1.1493
  812MOL0     C11976  10.428  10.424   5.020  0.2128  0.5391  0.1693
  812MOL0     O11977  10.508  10.317   5.021  0.1347  0.3157 -0.2333
  812MOL0     C11978  10.465  10.182   5.050  0.4289 -0.8714 -0.3665
  812MOL0     C11979  10.517  10.110   5.172 -0.4169 -0.4354  0.4101
  812MOL0     C11980  10.550  10.202   5.293  0.1973  0.9456  0.2916
  812MOL0     C11981  10.637  10.129   5.396  0.8950  0.0972 -0.7866
  812MOL0     C11982  10.559  10.026   5.465  0.8140 -0.0395  0.1281
  812MOL0     C11983  10.489   9.934   5.503  0.0318  0.1257 -0.9215
  812MOL0     C11984  10.290  10.440   5.066 -0.4196  0.1863 -0.2848
  812MOL0     C11985  10.230  10.559   5.063  0.5684  0.2985  1.1554
  812MOL0     C11986  10.091  10.557   5.107  0.1530  0.1638  1.0672
  812MOL0     H11987  10.102  11.134   5.074 -1.6822  1.7535  0.7918
  812MOL0     H11988   9.951  11.271   4.978 -0.0930 -0.4826  0.7428
  812MOL0     H11989   9.807  11.302   4.682 -1.3975  2.3767 -1.3264
  812MOL0     H11990   9.785  11.384   4.831 -1.2835  2.7282 -1.5854
  812MOL0     H11991   9.645  11.455   4.673  3.0196  0.2583  1.6405
  812MOL0     H11992   9.543  11.301   4.665 -3.2017 -0.1839  2.5928
  812MOL0     H11993   9.494  11.316   4.902  0.1093  1.3484  2.0851
  812MOL0     H11994   9.559  11.475   4.912  2.5022  0.1351 -1.4008
  812MOL0     H11995   9.387  11.562   4.761  3.3781  0.2997  2.2213
  812MOL0     H11996   9.338  11.420   4.704 -0.0467  1.0368  0.0756
  812MOL0     H11997   9.187  11.547   4.859 -0.1815 -0.4722 -0.3353
  812MOL0     H11998   9.308  11.515   4.990 -0.6920 -1.5796  0.5474
  812MOL0     H11999   9.141  11.290   4.849 -0.8565 -0.1495  0.2609
  812MOL0     H12000   9.271  11.266   4.968 -0.2612 -1.6394 -2.3097
  812MOL0     H12001   9.025  11.443   5.025  1.2214  1.5242  0.8905
  812MOL0     H12002   9.159  11.407   5.134  0.6558  0.5116 -0.6200
  812MOL0     H12003   8.935  11.266   5.145  0.2873  2.4051 -1.4157
  812MOL0     H12004   9.011  11.177   5.004 -1.4339  3.5596 -1.8787
  812MOL0     H12005   9.248  11.075   5.044 -0.5721 -3.6375  1.0693
  812MOL0     H12006   9.500  11.030   5.348 -0.6405 -0.8308  0.8469
  812MOL0     H12007   9.485  11.009   5.175 -0.7454  0.5736  0.1251
  812MOL0     H12008   9.362  10.795   5.210 -0.5441  1.3489  0.4174
  812MOL0     H12009   9.489  10.791   5.324 -0.0849 -2.6155 -0.1266
  812MOL0     H12010   9.182  10.841   5.383  0.4690  0.9830 -1.0617
  812MOL0     H12011   9.292  10.708   5.415 -2.5075 -0.7808 -1.7475
  812MOL0     H12012   9.422  10.870   5.574  0.0365  1.4876  0.7193
  812MOL0     H12013   9.273  10.974   5.552  1.8926  1.5085  0.0375
  812MOL0     H12014   9.297  10.978   5.816 -1.0234  1.4647  1.1158
  812MOL0     H12015   9.110  11.097   6.073 -1.4101  0.4159 -2.9641
  812MOL0     H12016   9.275  11.107   5.999 -2.1997 -0.6732 -3.0719
  812MOL0     H12017   9.250  11.011   6.146  0.2285 -3.0117 -1.8776
  812MOL0     H12018   8.793  10.862   6.355  3.4547  3.3485  3.4303
  812MOL0     H12019   8.728  10.788   6.591  0.6949  0.3313  0.9658
  812MOL0     H12020   8.881  10.743   6.816 -0.2580  0.8812  2.7013
  812MOL0     H12021   8.716  10.672   6.832 -0.4271  0.6007 -0.1615
  812MOL0     H12022   8.813  10.630   7.046 -0.0743 -3.1421  0.8725
  812MOL0     H12023   8.826  10.485   6.949 -2.1803  0.5473 -0.4710
  812MOL0     H12024   9.035  10.695   7.001 -3.3383  0.6473 -2.5428
  812MOL0     H12025   9.088  10.570   6.902  3.1228  4.6412  0.8825
  812MOL0     H12026   9.177  10.539   7.132 -0.0332 -1.5876  2.0579
  812MOL0     H12027   9.070  10.404   7.085  1.4588 -0.8263 -1.4439
  812MOL0     H12028   8.992  10.646   7.247 -0.1435  0.0426  3.7350
  812MOL0     H12029   8.884  10.516   7.214 -0.6453 -0.0543  5.5474
  812MOL0     H12030   8.999  10.355   7.361 -0.9229  0.1852  1.9232
  812MOL0     H12031   8.979  10.505   7.441  2.3982 -1.7287  2.3946
  812MOL0     H12032   9.210  10.583   7.385  0.8985 -0.7281 -0.1092
  812MOL0     H12033   9.230  10.422   7.306 -0.9839 -2.0503  0.9116
  812MOL0     H12034   9.165  10.426   7.598  0.8304  0.5175  1.0615
  812MOL0     H12035   9.324  10.451   7.556 -1.4041  1.2350  0.5246
  812MOL0     H12036   8.970  10.436   6.548 -3.6464  0.2492  2.0208
  812MOL0     H12037   9.019  10.521   6.301  0.0085  1.3282 -0.4905
  812MOL0     H12038   8.946  10.669   5.955  0.2050  0.1723  1.0738
  812MOL0     H12039   9.072  10.644   5.734  0.6584  1.2530 -0.8810
  812MOL0     H12040   9.737  10.943   4.806 -1.2652  3.6213  0.1864
  812MOL0     H12041   9.915  10.788   4.873 -3.0042  0.1281 -0.4445
  812MOL0     H12042  10.466  10.739   4.901 -2.3975 -0.3429 -2.5500
  812MOL0     H12043  10.587  10.547   4.913 -0.7471  3.1262 -2.0158
  812MOL0     H12044  10.356  10.181   5.058  0.0533 -1.0977 -3.9255
  812MOL0     H12045  10.478  10.114   4.965 -2.7251  0.2516 -1.9353
  812MOL0     H12046  10.616  10.072   5.147  1.1592  2.9142  1.0230
  812MOL0     H12047  10.462  10.029   5.221  2.5454 -3.6396 -1.1568
  812MOL0     H12048  10.611  10.284   5.254 -2.9416  2.9202 -0.8818
  812MOL0     H12049  10.461  10.235   5.347  1.3664 -1.9887  4.5443
  812MOL0     H12050  10.670  10.207   5.465  0.9474  0.8251 -1.6213
  812MOL0     H12051  10.727  10.083   5.354  1.6067  0.8220 -0.0995
  812MOL0     H12052  10.437   9.852   5.547 -0.5846  0.4454 -1.0442
  812MOL0     H12053  10.226  10.355   5.089  0.0283 -0.1964 -0.4425
  812MOL0     H12054  10.024  10.571   5.021  0.6103  0.6558  0.7880
  812MOL0     H12055  10.053  10.460   5.139 -1.2810  0.4858  0.4450
  812MOL0     H12056  10.073  10.631   5.186  2.0023  0.3720  1.3212
  813MOL0     O12057   1.164   7.247   6.714  0.3165 -0.7852  0.3189
  813MOL0     C12058   1.042   7.272   6.702 -1.7769  0.0394 -0.5271
  813MOL0     O12059   0.942   7.187   6.643  0.6038 -0.3399 -0.1384
  813MOL0     C12060   0.973   7.079   6.563  0.3015  0.6212 -0.1326
  813MOL0     C12061   1.084   7.002   6.569 -0.5364  0.3382 -0.3848
  813MOL0     C12062   1.110   6.896   6.485 -0.7791 -0.4644 -0.5759
  813MOL0     C12063   1.016   6.848   6.391 -0.5578 -0.6464  0.4063
  813MOL0     O12064   1.042   6.764   6.289  0.1548 -0.5139  0.8356
  813MOL0     C12065   1.178   6.749   6.263  1.0030 -0.8674  0.1017
  813MOL0     C12066   1.208   6.680   6.130  0.5774  0.3726  0.5052
  813MOL0     C12067   1.170   6.531   6.140  0.5808  1.6040  0.0119
  813MOL0     C12068   1.209   6.455   6.013  0.3564 -0.2140  0.2861
  813MOL0     C12069   1.191   6.302   6.016  0.4978  0.3009 -0.6504
  813MOL0     C12070   1.053   6.251   5.981  0.1979 -0.2896 -0.4353
  813MOL0     C12071   1.018   6.278   5.832 -0.0526  0.3510 -0.0764
  813MOL0     C12072   0.878   6.208   5.801  0.1386 -0.3356  0.0150
  813MOL0     N12073   0.847   6.248   5.660  0.1228  0.4706  0.0185
  813MOL0     C12074   0.925   6.224   5.554  0.0583  0.8912  1.0450
  813MOL0     C12075   0.881   6.310   5.456 -1.1276 -0.1305  0.5760
  813MOL0     C12076   0.925   6.311   5.307  0.4129 -0.2160  0.4912
  813MOL0     C12077   0.796   6.327   5.208 -0.9925 -0.0016 -0.0988
  813MOL0     C12078   0.849   6.382   5.077 -0.4280 -0.3905  0.4892
  813MOL0     C12079   0.746   6.386   4.961  0.0001 -0.6080 -0.2433
  813MOL0     O12080   0.795   6.419   4.827  0.7001  0.4178 -0.2031
  813MOL0     C12081   0.819   6.309   4.755 -0.0661 -0.1342  0.2842
  813MOL0     C12082   0.730   6.273   4.654  0.0982 -0.3239 -0.4404
  813MOL0     C12083   0.735   6.151   4.586 -0.6443 -0.6145 -0.1806
  813MOL0     C12084   0.638   6.127   4.477 -0.0203  0.1798  0.8862
  813MOL0     C12085   0.840   6.062   4.632 -0.8640 -0.7931  0.4819
  813MOL0     C12086   0.884   5.927   4.563  0.8707 -0.1599  0.9309
  813MOL0     O12087   0.995   5.862   4.595 -0.9908  0.4027 -0.0272
  813MOL0     C12088   0.991   5.723   4.567 -0.2542 -0.8730  0.6511
  813MOL0     C12089   0.912   5.631   4.631  0.1340 -0.0861 -0.8394
  813MOL0     C12090   0.895   5.494   4.602 -0.1050 -0.0791 -0.0582
  813MOL0     C12091   0.969   5.446   4.495 -0.0690 -1.2079 -1.0008
  813MOL0     O12092   0.952   5.315   4.470 -0.0890  0.1425  0.8071
  813MOL0     C12093   0.942   5.278   4.332  0.0995  0.4041 -0.4546
  813MOL0     C12094   0.845   5.158   4.316 -0.8336 -0.2400 -0.0384
  813MOL0     C12095   0.814   5.126   4.169  0.1492  0.0519 -1.0419
  813MOL0     C12096   0.745   4.996   4.165 -0.1283  0.8501 -0.3530
  813MOL0     C12097   0.660   4.967   4.039  1.0661 -0.2416 -0.6125
  813MOL0     C12098   0.729   5.001   3.904 -1.0690  0.3475 -1.0838
  813MOL0     C12099   0.620   5.027   3.798  0.1978  0.6033  0.0470
  813MOL0     C12100   0.530   4.900   3.769 -0.2761  0.6810 -1.2211
  813MOL0    Cl12101   0.402   4.950   3.642 -0.0387  0.4932  0.2652
  813MOL0     C12102   1.062   5.536   4.436  1.1337  0.2675  0.1430
  813MOL0     C12103   1.066   5.668   4.466 -0.4968  0.1410 -0.3144
  813MOL0     O12104   0.810   5.883   4.471 -0.3269  0.2071 -0.4864
  813MOL0     C12105   0.925   6.093   4.740  0.2855 -0.2719 -0.0906
  813MOL0     C12106   0.912   6.219   4.795 -0.3936 -0.2925  0.5195
  813MOL0     N12107   0.791   6.393   5.516 -0.2100 -0.3844 -0.2049
  813MOL0     N12108   0.756   6.343   5.631 -0.0917  0.3380  0.0333
  813MOL0     C12109   0.896   6.918   6.396 -0.5906  0.1532  0.4483
  813MOL0     C12110   0.877   7.029   6.482  0.9964  0.1755 -1.3222
  813MOL0     C12111   0.999   7.397   6.779  0.5272  0.4063 -0.0228
  813MOL0     C12112   0.854   7.401   6.801  0.8224  0.7994  0.0559
  813MOL0     C12113   0.796   7.490   6.884 -0.2347 -0.6542 -0.9200
  813MOL0     C12114   0.869   7.601   6.934 -1.2655  0.0071 -0.8466
  813MOL0     O12115   0.826   7.700   7.014  0.0671  0.3663  0.2070
  813MOL0     C12116   0.688   7.730   7.039  0.2382 -0.1704  0.3566
  813MOL0     C12117   0.630   7.654   7.163  0.7917 -0.6619  0.9896
  813MOL0     C12118   0.717   7.649   7.291 -0.4340 -0.2555 -1.1530
  813MOL0     C12119   0.659   7.587   7.424 -0.7168  0.3332 -0.6082
  813MOL0     C12120   0.610   7.452   7.419 -0.4235 -0.9165  0.0655
  813MOL0     C12121   0.561   7.342   7.406  0.2810  0.2671  0.0516
  813MOL0     C12122   1.007   7.596   6.909 -0.3399 -0.6175 -0.5613
  813MOL0     C12123   1.073   7.497   6.843 -0.2501 -0.5720  0.1383
  813MOL0     C12124   1.219   7.522   6.828  0.1985 -0.0078  0.5794
  813MOL0     H12125   1.155   7.029   6.647 -1.4897 -0.3122  0.7545
  813MOL0     H12126   1.207   6.848   6.502 -0.4360  0.0270 -1.1285
  813MOL0     H12127   1.217   6.681   6.339  1.8438  0.3815  0.8334
  813MOL0     H12128   1.234   6.842   6.278 -1.2783  0.9326 -1.7925
  813MOL0     H12129   1.151   6.724   6.047  0.0378 -1.3167 -0.0576
  813MOL0     H12130   1.314   6.689   6.105  0.1865  3.1218 -0.5595
  813MOL0     H12131   1.208   6.486   6.232 -1.9996  0.6489  0.6861
  813MOL0     H12132   1.061   6.526   6.131  0.7379  1.6334 -3.4870
  813MOL0     H12133   1.164   6.506   5.927 -0.2065  0.6341  1.0662
  813MOL0     H12134   1.318   6.458   6.002  0.6404 -4.0340  0.5200
  813MOL0     H12135   1.214   6.261   6.115  0.0679  1.7790  0.0957
  813MOL0     H12136   1.259   6.268   5.938 -0.3461  2.2447 -2.3166
  813MOL0     H12137   1.052   6.145   6.006  1.4613  0.4701  3.5502
  813MOL0     H12138   0.974   6.301   6.039 -3.9963 -3.6427 -2.6512
  813MOL0     H12139   1.080   6.228   5.757 -2.0439  3.2757 -4.0278
  813MOL0     H12140   1.006   6.385   5.814 -0.5376  0.6164  1.6606
  813MOL0     H12141   0.886   6.099   5.801 -0.9310 -0.4942 -2.5399
  813MOL0     H12142   0.803   6.233   5.876  0.4863  0.9755 -0.0307
  813MOL0     H12143   0.990   6.140   5.534  0.2068  1.0778  0.7258
  813MOL0     H12144   0.974   6.221   5.268 -1.0307  0.0314 -2.1280
  813MOL0     H12145   1.000   6.390   5.302 -3.8925  4.4879  1.4647
  813MOL0     H12146   0.739   6.235   5.193 -3.4368  1.8665 -3.7848
  813MOL0     H12147   0.729   6.408   5.239 -1.0214  0.4122 -1.1880
  813MOL0     H12148   0.900   6.478   5.091 -1.4149  0.1968  0.1541
  813MOL0     H12149   0.930   6.314   5.050 -0.3299 -1.7506  3.7477
  813MOL0     H12150   0.709   6.283   4.962  2.7782 -1.7219 -1.4822
  813MOL0     H12151   0.662   6.453   4.980  0.3170 -0.2560 -0.0690
  813MOL0     H12152   0.649   6.339   4.623  2.7465  3.5102  0.0815
  813MOL0     H12153   0.576   6.210   4.442 -1.3887 -1.1858 -0.0526
  813MOL0     H12154   0.577   6.038   4.495  1.6628 -1.6049 -1.5086
  813MOL0     H12155   0.704   6.097   4.395  3.2022 -1.1094  3.6710
  813MOL0     H12156   0.847   5.668   4.710  1.2635 -0.4492  0.2735
  813MOL0     H12157   0.820   5.439   4.658  0.9062 -0.9485  0.4795
  813MOL0     H12158   0.913   5.359   4.265 -0.3440  0.1322 -0.5924
  813MOL0     H12159   1.034   5.249   4.281  1.7480 -0.2681  2.6466
  813MOL0     H12160   0.890   5.067   4.356  0.8076 -0.1340 -1.4934
  813MOL0     H12161   0.750   5.188   4.361 -0.1818 -2.4201  3.1005
  813MOL0     H12162   0.908   5.113   4.115  1.7038 -2.1476  1.9392
  813MOL0     H12163   0.762   5.211   4.123  3.9138  0.9950 -4.0521
  813MOL0     H12164   0.682   4.983   4.254  0.3436 -3.2460 -0.4225
  813MOL0     H12165   0.813   4.911   4.162 -0.3774  0.5511  1.4719
  813MOL0     H12166   0.631   4.861   4.046  3.5204 -0.9325  0.1805
  813MOL0     H12167   0.575   5.036   4.040  0.7715 -0.5003 -2.5968
  813MOL0     H12168   0.782   4.909   3.874 -1.1280  0.1263 -0.5201
  813MOL0     H12169   0.803   5.081   3.907  1.8942 -2.1879 -0.4341
  813MOL0     H12170   0.670   5.054   3.704  2.9470 -0.9248  0.9386
  813MOL0     H12171   0.565   5.116   3.828  2.4534  3.8111 -4.2672
  813MOL0     H12172   0.470   4.859   3.851 -3.2163  1.5747 -2.7729
  813MOL0     H12173   0.602   4.823   3.739  0.2753  0.9509 -0.5996
  813MOL0     H12174   1.115   5.493   4.351 -2.1291 -4.8087  0.2348
  813MOL0     H12175   1.122   5.741   4.409 -1.3791  1.2808  0.2436
  813MOL0     H12176   0.997   6.018   4.771 -0.6836 -0.9677  0.5382
  813MOL0     H12177   0.973   6.241   4.882  0.4937 -0.4225 -0.0686
  813MOL0     H12178   0.823   6.882   6.325  1.8347 -1.2934 -1.4651
  813MOL0     H12179   0.785   7.086   6.469  2.6337  3.7129  1.1516
  813MOL0     H12180   0.791   7.325   6.755  2.4624 -0.8926  0.4712
  813MOL0     H12181   0.688   7.478   6.893 -0.0729 -0.5909  1.5328
  813MOL0     H12182   0.681   7.839   7.041  3.4498  0.1366  0.8643
  813MOL0     H12183   0.628   7.690   6.957  0.3271 -2.5166  1.3628
  813MOL0     H12184   0.629   7.552   7.125  3.1694 -1.2020  2.1765
  813MOL0     H12185   0.526   7.682   7.186  0.2771 -1.3139 -0.4351
  813MOL0     H12186   0.813   7.604   7.265 -1.1802 -1.4922 -1.8630
  813MOL0     H12187   0.735   7.754   7.312 -2.7146 -0.2880  1.6997
  813MOL0     H12188   0.587   7.663   7.457  2.5258  3.0555  0.7570
  813MOL0     H12189   0.742   7.578   7.495  0.1126 -2.8957 -1.8054
  813MOL0     H12190   0.525   7.242   7.391  0.2877  0.0782  1.2167
  813MOL0     H12191   1.070   7.675   6.950  0.4553 -0.3730 -2.1606
  813MOL0     H12192   1.240   7.628   6.842 -0.3465  0.2187 -0.2108
  813MOL0     H12193   1.278   7.461   6.896 -0.9177 -0.0076  1.5812
  813MOL0     H12194   1.259   7.518   6.726  2.1819  0.9095  1.2644
  814MOL0     O12195   8.927  11.179   0.553 -0.4458  0.3606 -0.3299
  814MOL0     C12196   8.929  11.284   0.613  0.2456  0.7303 -0.8790
  814MOL0     O12197   8.853  11.324   0.731  0.3351  0.1272 -0.0048
  814MOL0     C12198   8.771  11.235   0.795 -0.1715  0.0623  0.3048
  814MOL0     C12199   8.746  11.099   0.770  0.5573 -0.2356  0.2700
  814MOL0     C12200   8.657  11.026   0.853  0.2069  0.8501 -1.2848
  814MOL0     C12201   8.596  11.073   0.968  0.0646  0.0696 -0.0033
  814MOL0     O12202   8.521  10.986   1.044  1.2790  0.2951  0.0201
  814MOL0     C12203   8.464  11.018   1.177  0.6325  0.3810 -0.2374
  814MOL0     C12204   8.408  10.890   1.235  0.7637  0.3044  0.5148
  814MOL0     C12205   8.284  10.846   1.169 -0.3475  0.1613 -0.3642
  814MOL0     C12206   8.238  10.699   1.173  0.2945 -0.9864 -0.1793
  814MOL0     C12207   8.088  10.673   1.125 -0.6150  0.0811  0.3897
  814MOL0     C12208   8.006  10.663   1.244  0.1514 -0.4883  0.0900
  814MOL0     C12209   7.864  10.622   1.224 -0.1944  0.5112 -0.2193
  814MOL0     C12210   7.778  10.745   1.192  0.0245 -0.8656 -0.6659
  814MOL0     N12211   7.663  10.701   1.120  1.2577  0.4167 -1.6178
  814MOL0     C12212   7.658  10.708   0.983  0.0197  0.7502 -0.5512
  814MOL0     C12213   7.525  10.675   0.963 -0.2429  0.3772  0.6777
  814MOL0     C12214   7.484  10.653   0.821 -0.2300  1.3437 -0.5502
  814MOL0     C12215   7.516  10.526   0.750  0.3716  0.6231  0.0813
  814MOL0     C12216   7.445  10.388   0.806  0.2521 -0.5783  0.3255
  814MOL0     C12217   7.427  10.379   0.959  0.0887 -0.5939 -0.4023
  814MOL0     O12218   7.419  10.237   0.999  0.5780 -0.4453  0.1380
  814MOL0     C12219   7.351  10.214   1.118  0.1034 -0.1977 -0.2156
  814MOL0     C12220   7.309  10.083   1.154 -0.3744 -0.5970  0.1803
  814MOL0     C12221   7.264  10.047   1.280 -0.3286  0.1577  0.3887
  814MOL0     C12222   7.229   9.903   1.296 -0.1360 -0.5717 -0.2898
  814MOL0     C12223   7.243  10.150   1.374 -0.0681  0.0617  0.0408
  814MOL0     C12224   7.195  10.129   1.517  0.8200  0.1524 -0.4213
  814MOL0     O12225   7.190  10.009   1.579 -0.4512  0.5738 -0.0426
  814MOL0     C12226   7.158  10.014   1.715 -0.1192 -0.5251 -0.2787
  814MOL0     C12227   7.089  10.107   1.801 -0.1011 -0.8739  0.1896
  814MOL0     C12228   7.057  10.082   1.933 -0.8964 -0.3878 -0.8266
  814MOL0     C12229   7.078   9.959   1.983 -1.3404  0.0649 -0.0216
  814MOL0     O12230   7.017   9.928   2.102  0.1392  0.7054 -0.7047
  814MOL0     C12231   7.058   9.810   2.177  0.0961 -1.5018 -1.1757
  814MOL0     C12232   6.988   9.807   2.314 -0.0717  0.9874  0.6520
  814MOL0     C12233   7.024   9.921   2.412  0.6986 -0.3947 -0.2668
  814MOL0     C12234   6.909   9.912   2.524 -0.1165 -0.0894  0.1897
  814MOL0     C12235   6.928  10.030   2.633  0.2590 -0.7565  0.1645
  814MOL0     C12236   6.834  10.016   2.755 -1.2315 -0.4175 -1.2407
  814MOL0     C12237   6.802  10.141   2.832 -1.1940 -0.5914  0.2277
  814MOL0     C12238   6.704  10.105   2.946  0.8815 -0.1965  0.2530
  814MOL0    Cl12239   6.687  10.244   3.051 -0.0346  0.5678  0.1970
  814MOL0     C12240   7.151   9.863   1.906  0.6429 -0.1465 -0.1201
  814MOL0     C12241   7.192   9.891   1.774 -0.4809  0.5111 -0.6990
  814MOL0     O12242   7.147  10.233   1.564 -0.2112 -0.4387  0.4327
  814MOL0     C12243   7.275  10.279   1.342 -0.2495 -0.3111  0.5625
  814MOL0     C12244   7.334  10.308   1.212  0.0931 -0.8148 -0.6306
  814MOL0     N12245   7.448  10.660   1.080 -0.5822  0.1132 -0.4057
  814MOL0     N12246   7.536  10.676   1.174 -0.3798  0.6792  0.1743
  814MOL0     C12247   8.612  11.209   0.984  0.1379 -0.6594  0.1891
  814MOL0     C12248   8.693  11.288   0.900 -0.0056 -1.1662  0.8114
  814MOL0     C12249   9.052  11.367   0.580  0.6741  0.2853  0.4857
  814MOL0     C12250   9.108  11.436   0.690 -0.3670 -0.3589  0.2107
  814MOL0     C12251   9.226  11.511   0.683 -1.2416  0.6470 -0.3530
  814MOL0     C12252   9.310  11.505   0.562 -0.1816 -0.1850 -0.3916
  814MOL0     O12253   9.423  11.581   0.571 -0.3108  0.5418  0.2578
  814MOL0     C12254   9.526  11.565   0.470  1.1758 -0.2045 -0.0655
  814MOL0     C12255   9.667  11.602   0.501 -0.3464 -0.8587 -0.6077
  814MOL0     C12256   9.763  11.597   0.384  0.3107 -0.3883  0.0368
  814MOL0     C12257   9.748  11.467   0.299  0.4528 -0.6369  0.0805
  814MOL0     C12258   9.864  11.419   0.231  0.7026  0.4445 -1.0125
  814MOL0     C12259   9.952  11.357   0.182 -0.4384  0.7962  0.2781
  814MOL0     C12260   9.264  11.425   0.452  0.4195  0.8183 -0.0175
  814MOL0     C12261   9.137  11.356   0.459 -0.3043  0.1422  0.2009
  814MOL0     C12262   9.075  11.289   0.339  0.2360  0.0701  0.5697
  814MOL0     H12263   8.784  11.056   0.678 -2.0683 -0.6222 -0.7139
  814MOL0     H12264   8.637  10.921   0.835 -1.0521  0.3973  2.1772
  814MOL0     H12265   8.372  11.078   1.172  0.2013 -0.1688  0.8044
  814MOL0     H12266   8.530  11.073   1.245  0.0633  3.5008 -2.0038
  814MOL0     H12267   8.490  10.819   1.216  1.7033  1.3038  0.7615
  814MOL0     H12268   8.390  10.911   1.341 -1.3666  1.2823 -0.0035
  814MOL0     H12269   8.200  10.904   1.208  2.0864  3.8856 -0.1397
  814MOL0     H12270   8.287  10.876   1.064  0.8897 -1.6703 -0.8959
  814MOL0     H12271   8.298  10.638   1.104  0.3407 -0.0489 -0.9947
  814MOL0     H12272   8.248  10.655   1.273 -4.1701 -0.7402  0.5490
  814MOL0     H12273   8.083  10.574   1.080 -3.0852  1.1040 -1.7957
  814MOL0     H12274   8.053  10.749   1.055  2.8585  3.2866  1.7164
  814MOL0     H12275   8.059  10.594   1.310  0.9100  1.3511  1.4793
  814MOL0     H12276   8.000  10.753   1.306 -1.1186  0.3130 -1.1305
  814MOL0     H12277   7.839  10.575   1.319  2.3548 -1.5250 -0.4368
  814MOL0     H12278   7.856  10.555   1.137  3.3548  0.8379 -0.9443
  814MOL0     H12279   7.746  10.789   1.287 -1.7463 -0.7577 -1.2754
  814MOL0     H12280   7.837  10.821   1.139 -0.9310  0.2046 -0.2277
  814MOL0     H12281   7.737  10.714   0.908  2.8105  3.2880  2.3076
  814MOL0     H12282   7.514  10.734   0.754  2.4108  0.6539 -0.3077
  814MOL0     H12283   7.376  10.671   0.833  0.3009  3.4709  2.4842
  814MOL0     H12284   7.485  10.536   0.645 -3.2097 -0.8595  0.8432
  814MOL0     H12285   7.623  10.506   0.762  0.5183  0.4648 -1.2679
  814MOL0     H12286   7.345  10.370   0.766  0.0892 -0.3231  0.6137
  814MOL0     H12287   7.513  10.307   0.779  3.3677  0.7726  3.3439
  814MOL0     H12288   7.521  10.414   1.005  0.2672  0.6856 -1.6670
  814MOL0     H12289   7.345  10.442   0.994  0.9925  1.0293 -1.0722
  814MOL0     H12290   7.317  10.003   1.082 -1.0732  0.3774 -1.0117
  814MOL0     H12291   7.198   9.857   1.202  1.5342  0.1380 -1.2337
  814MOL0     H12292   7.154   9.891   1.375 -1.6687  1.2919 -1.3692
  814MOL0     H12293   7.318   9.851   1.333 -0.5639  0.4666  2.4742
  814MOL0     H12294   7.057  10.206   1.770 -1.0886 -1.4314 -0.6513
  814MOL0     H12295   7.011  10.162   1.991 -0.0693  1.9091 -3.1400
  814MOL0     H12296   7.027   9.727   2.113 -1.6327 -2.5296  0.8442
  814MOL0     H12297   7.166   9.818   2.193  0.1140 -2.2982 -0.8583
  814MOL0     H12298   6.883   9.811   2.286 -0.2080  1.5323  1.2228
  814MOL0     H12299   7.011   9.711   2.361 -1.8549  0.9337  1.4876
  814MOL0     H12300   7.041  10.020   2.369  1.7286 -0.6266 -0.4193
  814MOL0     H12301   7.121   9.897   2.455  0.5043 -0.1452  0.3278
  814MOL0     H12302   6.921   9.820   2.582  1.5581  0.1934  0.3209
  814MOL0     H12303   6.816   9.897   2.468 -3.1501 -3.2788  5.2905
  814MOL0     H12304   7.034  10.043   2.659  0.3650  1.8802 -1.3199
  814MOL0     H12305   6.904  10.127   2.590 -1.2695 -0.7822  0.8696
  814MOL0     H12306   6.869   9.933   2.816 -1.2911  1.6847  1.9204
  814MOL0     H12307   6.743   9.984   2.704 -0.7585 -1.2011 -1.5946
  814MOL0     H12308   6.756  10.215   2.766  0.4650 -0.8609 -1.3063
  814MOL0     H12309   6.896  10.174   2.877  0.9160 -0.0997 -4.0327
  814MOL0     H12310   6.748  10.024   3.005  1.9033  1.4946  1.9315
  814MOL0     H12311   6.604  10.082   2.909 -0.9671  5.0266  1.1918
  814MOL0     H12312   7.165   9.763   1.947 -1.0130  0.7844  3.0916
  814MOL0     H12313   7.241   9.816   1.714  1.7123  0.9631  0.4454
  814MOL0     H12314   7.268  10.365   1.409  0.8798  0.6721 -0.5483
  814MOL0     H12315   7.357  10.412   1.190 -0.1784 -0.6191 -0.0170
  814MOL0     H12316   8.570  11.268   1.066  2.1134  0.2347  0.6212
  814MOL0     H12317   8.696  11.396   0.909  0.2132 -1.0953 -0.0804
  814MOL0     H12318   9.062  11.446   0.789  2.9904 -0.2401  1.8985
  814MOL0     H12319   9.233  11.576   0.770 -2.7386  0.4359 -0.0493
  814MOL0     H12320   9.536  11.460   0.439 -1.2652 -1.0543  1.6436
  814MOL0     H12321   9.495  11.626   0.385 -2.3015  2.0651  2.5697
  814MOL0     H12322   9.711  11.536   0.576  1.9358  0.7050 -0.4670
  814MOL0     H12323   9.675  11.704   0.539  3.5141 -0.4809 -1.9922
  814MOL0     H12324   9.751  11.689   0.326 -0.0627 -0.7784 -0.5160
  814MOL0     H12325   9.863  11.597   0.427  0.0615 -1.3934  0.6604
  814MOL0     H12326   9.680  11.477   0.213  1.5428  0.9777 -0.6533
  814MOL0     H12327   9.716  11.385   0.363  1.6689  1.8381  4.1793
  814MOL0     H12328  10.031  11.297   0.141 -2.5885 -1.1733 -1.2774
  814MOL0     H12329   9.318  11.417   0.359  1.6005 -0.6685  0.7489
  814MOL0     H12330   9.142  11.310   0.255 -3.5710 -0.4265 -2.9124
  814MOL0     H12331   9.086  11.181   0.349  1.2455  0.1403  0.4292
  814MOL0     H12332   8.973  11.321   0.318  0.6863  0.4849 -1.2087
  815MOL0     O12333   0.108   6.984   2.226  1.0261 -0.1769 -0.0463
  815MOL0     C12334   0.065   6.933   2.123  0.4024 -0.1900 -0.0509
  815MOL0     O12335  -0.059   6.963   2.067 -0.1306 -0.3234  0.1939
  815MOL0     C12336  -0.156   7.046   2.132 -0.3885  0.3416  1.0573
  815MOL0     C12337  -0.139   7.137   2.236  0.1809  0.0249  1.1403
  815MOL0     C12338  -0.249   7.199   2.304 -1.0026  0.0212 -0.0309
  815MOL0     C12339  -0.378   7.181   2.267  0.1488  0.1819  0.8043
  815MOL0     O12340  -0.464   7.262   2.320  0.5559  0.0377  0.0055
  815MOL0     C12341  -0.603   7.218   2.330 -0.5132 -0.4671  0.3611
  815MOL0     C12342  -0.687   7.279   2.443 -0.0458  0.3764  0.4375
  815MOL0     C12343  -0.726   7.420   2.412  0.8046 -0.0646  1.2423
  815MOL0     C12344  -0.820   7.486   2.505  0.6067  0.3684 -0.5003
  815MOL0     C12345  -0.760   7.504   2.641 -1.4441  0.0887 -0.0531
  815MOL0     C12346  -0.862   7.553   2.742 -0.0221 -0.1736  0.1929
  815MOL0     C12347  -0.955   7.661   2.687 -0.4695 -0.2422 -0.2338
  815MOL0     C12348  -1.030   7.733   2.803  0.3354  0.2523 -0.3123
  815MOL0     N12349  -0.927   7.828   2.847 -0.6508  0.7615  0.1426
  815MOL0     C12350  -0.940   7.962   2.829 -0.2908 -0.1082 -0.6491
  815MOL0     C12351  -0.838   8.031   2.898 -0.0256  0.6691 -0.6194
  815MOL0     C12352  -0.813   8.180   2.919 -0.1747  0.9479 -0.1909
  815MOL0     C12353  -0.712   8.234   2.810  0.8272  1.0854 -1.1376
  815MOL0     C12354  -0.784   8.287   2.683 -1.3240 -0.2621 -0.8069
  815MOL0     C12355  -0.686   8.353   2.580 -0.1224 -0.2871  0.3145
  815MOL0     O12356  -0.595   8.256   2.539 -0.3925 -0.0519 -0.1725
  815MOL0     C12357  -0.602   8.186   2.421  0.5772 -0.4912 -0.2293
  815MOL0     C12358  -0.648   8.053   2.427  0.0006  0.8547 -0.3611
  815MOL0     C12359  -0.656   7.980   2.310 -0.5147 -0.2385 -1.0334
  815MOL0     C12360  -0.723   7.842   2.332  1.0212  0.6680 -0.6030
  815MOL0     C12361  -0.629   8.041   2.186 -0.1084 -0.3634 -0.5403
  815MOL0     C12362  -0.634   7.983   2.048  1.0469  0.0113 -0.4196
  815MOL0     O12363  -0.585   8.048   1.938 -0.3902 -0.0070  0.4448
  815MOL0     C12364  -0.568   7.985   1.821  0.8472  0.5748 -0.2645
  815MOL0     C12365  -0.443   7.967   1.767  0.8367  0.6642 -1.1738
  815MOL0     C12366  -0.414   7.894   1.653  1.0498 -0.7559 -0.9866
  815MOL0     C12367  -0.526   7.849   1.573 -0.2717  0.7241 -0.3179
  815MOL0     O12368  -0.492   7.773   1.463  0.3944 -0.8231  0.2360
  815MOL0     C12369  -0.603   7.743   1.382 -0.0535 -0.9487  0.1243
  815MOL0     C12370  -0.566   7.632   1.286 -0.3285 -0.4698  0.7505
  815MOL0     C12371  -0.581   7.494   1.330  0.4826  0.5929 -0.9423
  815MOL0     C12372  -0.469   7.448   1.425 -0.3062 -0.0911 -0.1609
  815MOL0     C12373  -0.495   7.312   1.476 -0.2388  0.0922  0.7542
  815MOL0     C12374  -0.384   7.294   1.584  0.4104  0.0705 -1.0958
  815MOL0     C12375  -0.405   7.194   1.698  0.3967  0.7685  0.0464
  815MOL0     C12376  -0.414   7.058   1.640 -0.1094  0.1917  0.2355
  815MOL0    Cl12377  -0.430   6.929   1.763  0.0303  0.4696 -0.0662
  815MOL0     C12378  -0.653   7.873   1.620 -0.1757 -0.3946  0.1980
  815MOL0     C12379  -0.684   7.935   1.747 -0.8391  0.0175 -0.1615
  815MOL0     O12380  -0.666   7.861   2.048 -0.3461 -0.0293  0.6600
  815MOL0     C12381  -0.580   8.178   2.184 -0.3652  0.2614  0.1858
  815MOL0     C12382  -0.568   8.253   2.302  0.1675  0.2662  0.3084
  815MOL0     N12383  -0.764   7.925   2.955  0.5637 -0.2185 -0.2590
  815MOL0     N12384  -0.814   7.811   2.924 -0.8939 -0.3978  0.6627
  815MOL0     C12385  -0.393   7.096   2.156  0.3332  0.2093 -0.0118
  815MOL0     C12386  -0.291   7.020   2.091 -0.5157  0.0587  0.6279
  815MOL0     C12387   0.151   6.830   2.057 -0.1099  0.7748 -0.3418
  815MOL0     C12388   0.075   6.728   1.996  0.2041  0.3979  0.3571
  815MOL0     C12389   0.139   6.605   1.964 -0.0706 -0.2236 -0.8365
  815MOL0     C12390   0.281   6.594   1.962  0.0154 -0.6625  0.3811
  815MOL0     O12391   0.323   6.474   1.912 -0.7088  0.2145  0.6670
  815MOL0     C12392   0.453   6.435   1.961 -0.3668  0.5244  0.4310
  815MOL0     C12393   0.438   6.349   2.094  0.0751 -0.9005  0.7237
  815MOL0     C12394   0.408   6.428   2.229  0.8748 -0.1941 -0.3950
  815MOL0     C12395   0.415   6.341   2.357 -0.3808  0.5318 -0.3942
  815MOL0     C12396   0.544   6.281   2.383  0.3197 -0.0064 -0.5383
  815MOL0     C12397   0.648   6.247   2.431 -0.9807 -0.6219  0.8556
  815MOL0     C12398   0.347   6.705   2.003  0.6352 -0.6382 -0.2216
  815MOL0     C12399   0.290   6.820   2.063  0.0035 -0.8984  0.5877
  815MOL0     C12400   0.383   6.931   2.110 -0.5322 -0.0566  1.1452
  815MOL0     H12401  -0.039   7.149   2.276  1.6153 -1.1146 -1.7834
  815MOL0     H12402  -0.221   7.267   2.384 -2.2054  1.5442 -0.8618
  815MOL0     H12403  -0.601   7.109   2.331 -0.7222 -0.5039 -0.8891
  815MOL0     H12404  -0.640   7.248   2.231  3.6649  0.2307 -1.2125
  815MOL0     H12405  -0.787   7.237   2.440 -1.1734  2.8716 -2.5885
  815MOL0     H12406  -0.649   7.267   2.546 -0.4839  1.8934  0.8100
  815MOL0     H12407  -0.640   7.487   2.409  0.2225  0.6732  0.4919
  815MOL0     H12408  -0.773   7.421   2.313  0.9447 -0.9135  1.1601
  815MOL0     H12409  -0.854   7.577   2.455 -1.0257 -1.0413 -2.1569
  815MOL0     H12410  -0.911   7.427   2.521  1.5308 -0.6492  1.3123
  815MOL0     H12411  -0.677   7.574   2.655 -1.7293  0.0676  2.1290
  815MOL0     H12412  -0.725   7.407   2.678 -0.4114 -0.0199 -1.2457
  815MOL0     H12413  -0.922   7.466   2.773 -0.7071 -0.6150 -2.1516
  815MOL0     H12414  -0.807   7.579   2.832  2.6043 -0.7121 -1.1693
  815MOL0     H12415  -1.027   7.616   2.618  1.4030 -3.4700 -0.3006
  815MOL0     H12416  -0.905   7.732   2.621 -3.8750  0.2497 -2.5381
  815MOL0     H12417  -1.123   7.778   2.768 -1.4225 -2.5503  0.4745
  815MOL0     H12418  -1.052   7.660   2.881 -0.7454 -1.4784 -2.1648
  815MOL0     H12419  -1.027   8.012   2.786  0.7924  0.3026 -2.4700
  815MOL0     H12420  -0.758   8.173   3.013  1.7375 -2.9439 -1.3996
  815MOL0     H12421  -0.902   8.243   2.917 -1.6890 -1.0891 -0.3703
  815MOL0     H12422  -0.645   8.308   2.856  2.5307  0.5465 -2.6342
  815MOL0     H12423  -0.651   8.148   2.780 -0.6524  0.1647 -1.6206
  815MOL0     H12424  -0.833   8.210   2.623 -2.4198 -2.1011  2.2115
  815MOL0     H12425  -0.865   8.356   2.710  1.1510  3.3448 -1.8611
  815MOL0     H12426  -0.740   8.380   2.488  0.5538 -1.1736 -0.3624
  815MOL0     H12427  -0.642   8.446   2.618  0.0607  0.4856 -1.6548
  815MOL0     H12428  -0.684   8.013   2.521 -0.9767 -0.4742 -1.2732
  815MOL0     H12429  -0.831   7.849   2.347  0.8525  3.7509 -2.5256
  815MOL0     H12430  -0.682   7.817   2.431  0.5899 -0.6836 -0.7462
  815MOL0     H12431  -0.711   7.767   2.254 -2.5109  1.0971 -1.7272
  815MOL0     H12432  -0.355   7.989   1.826  0.5489 -2.0718  0.4192
  815MOL0     H12433  -0.309   7.867   1.645  0.8338 -2.0835  0.2114
  815MOL0     H12434  -0.682   7.706   1.448  1.8759 -0.5956  2.7957
  815MOL0     H12435  -0.638   7.836   1.335  0.1046 -0.6423  0.6083
  815MOL0     H12436  -0.620   7.648   1.192  0.4442 -3.2612 -0.2402
  815MOL0     H12437  -0.461   7.652   1.264 -1.4390  1.8780 -3.5204
  815MOL0     H12438  -0.586   7.427   1.243 -0.3735 -2.5136  1.3169
  815MOL0     H12439  -0.684   7.480   1.364  0.5311 -2.1862 -1.6636
  815MOL0     H12440  -0.492   7.513   1.510  2.4652 -0.3929  0.9576
  815MOL0     H12441  -0.371   7.468   1.381 -0.2139 -1.6973 -0.7411
  815MOL0     H12442  -0.591   7.295   1.526  0.1442 -2.2890  0.7795
  815MOL0     H12443  -0.485   7.236   1.398  0.4080 -2.1198  2.8894
  815MOL0     H12444  -0.382   7.385   1.645 -1.2440  1.3179 -2.7642
  815MOL0     H12445  -0.287   7.267   1.543  0.6255 -3.4169  1.2906
  815MOL0     H12446  -0.501   7.216   1.746 -0.5689  0.6726 -1.7374
  815MOL0     H12447  -0.325   7.206   1.772 -1.9743  2.8731  2.5172
  815MOL0     H12448  -0.316   7.035   1.597  0.8228  3.2291  0.5135
  815MOL0     H12449  -0.492   7.053   1.564  1.1459 -0.6099 -1.0510
  815MOL0     H12450  -0.746   7.852   1.569 -0.4341  1.4902 -0.1851
  815MOL0     H12451  -0.787   7.929   1.783 -0.2148  0.6719  1.8358
  815MOL0     H12452  -0.545   8.217   2.089 -1.5393  0.3208 -0.2414
  815MOL0     H12453  -0.531   8.354   2.306  2.5735 -0.5934  3.0855
  815MOL0     H12454  -0.495   7.064   2.137 -1.2952  2.9527  3.0504
  815MOL0     H12455  -0.321   6.949   2.015 -1.2377 -0.2953  1.2336
  815MOL0     H12456  -0.033   6.733   1.997  0.1435 -0.6141  0.8335
  815MOL0     H12457   0.076   6.523   1.932 -1.5473  2.0508 -4.3883
  815MOL0     H12458   0.497   6.375   1.881  2.0207  3.5409 -0.7233
  815MOL0     H12459   0.529   6.513   1.970  3.9562 -2.8988 -2.2987
  815MOL0     H12460   0.527   6.290   2.118 -0.8455 -1.4103  3.1012
  815MOL0     H12461   0.353   6.282   2.077 -0.9357  0.7086 -1.0230
  815MOL0     H12462   0.475   6.515   2.229  0.2953  0.2654 -0.9420
  815MOL0     H12463   0.304   6.462   2.227  0.4314 -1.2660  1.9098
  815MOL0     H12464   0.333   6.269   2.363 -0.5433  0.8358  1.9560
  815MOL0     H12465   0.389   6.401   2.445  1.2232  0.1478  0.3762
  815MOL0     H12466   0.737   6.200   2.469 -0.4610  0.0316  0.4710
  815MOL0     H12467   0.456   6.708   2.007  0.5803  0.5912  1.6299
  815MOL0     H12468   0.487   6.899   2.095  0.5280  3.7849 -1.1194
  815MOL0     H12469   0.361   7.022   2.054  1.4545  0.3703  0.9962
  815MOL0     H12470   0.377   6.956   2.217 -1.5024  0.7708  0.9039
  816MOL0     O12471   1.752   4.000  11.051 -1.1487  0.0377 -0.0912
  816MOL0     C12472   1.728   3.917  10.968  0.1517 -0.0258  0.6502
  816MOL0     O12473   1.776   3.913  10.841  0.3406  1.3426  0.2636
  816MOL0     C12474   1.867   4.005  10.788  0.0740 -0.3170  0.0507
  816MOL0     C12475   1.993   4.029  10.845  0.6962 -0.1650 -0.0429
  816MOL0     C12476   2.077   4.126  10.791 -0.4437 -0.6835 -0.4525
  816MOL0     C12477   2.025   4.204  10.688 -0.2962 -0.2537  0.4697
  816MOL0     O12478   2.117   4.307  10.648  0.1752 -0.3523  0.3905
  816MOL0     C12479   2.116   4.363  10.505 -0.3667  0.3171  0.0480
  816MOL0     C12480   2.229   4.461  10.487  0.8737 -0.6598 -0.2612
  816MOL0     C12481   2.213   4.524  10.347 -0.4140  0.7476 -0.3930
  816MOL0     C12482   2.344   4.578  10.302  0.4043  1.1465  0.3187
  816MOL0     C12483   2.397   4.688  10.391  0.5911  0.0138  0.8907
  816MOL0     C12484   2.519   4.739  10.309 -0.8254 -0.3769  0.6055
  816MOL0     C12485   2.605   4.840  10.387  1.0189  0.6688  0.2247
  816MOL0     C12486   2.701   4.906  10.284  0.2350  0.4737  0.3940
  816MOL0     N12487   2.640   5.028  10.230  0.7267  0.4314  0.1562
  816MOL0     C12488   2.621   5.142  10.306 -0.7216  0.5170 -0.5738
  816MOL0     C12489   2.556   5.220  10.219  0.1697  0.7491 -0.5205
  816MOL0     C12490   2.481   5.353  10.245  0.1545 -0.2012 -0.5480
  816MOL0     C12491   2.542   5.455  10.162 -0.2417  1.0461  0.1232
  816MOL0     C12492   2.456   5.586  10.171  0.2063  0.9825 -0.6958
  816MOL0     C12493   2.531   5.699  10.096  0.4135  0.5047 -0.3042
  816MOL0     O12494   2.537   5.685   9.954  0.1950 -0.0071  0.4107
  816MOL0     C12495   2.546   5.803   9.883  0.8870 -0.0118  0.2929
  816MOL0     C12496   2.631   5.910   9.911 -0.5250  0.3550 -0.0012
  816MOL0     C12497   2.617   6.039   9.846 -0.8992  0.2616 -0.5589
  816MOL0     C12498   2.730   6.152   9.875 -0.2841  0.2762  0.1594
  816MOL0     C12499   2.517   6.059   9.748  0.7669 -0.1488 -0.3384
  816MOL0     C12500   2.504   6.172   9.652 -1.1771 -0.0432 -0.8703
  816MOL0     O12501   2.405   6.156   9.566 -0.6650  0.6790  0.8304
  816MOL0     C12502   2.376   6.254   9.476  0.4486  0.1799  0.0721
  816MOL0     C12503   2.243   6.311   9.473  0.2500 -0.3650  0.0505
  816MOL0     C12504   2.213   6.421   9.394 -0.1045  0.0863  0.0519
  816MOL0     C12505   2.306   6.475   9.312  0.4430 -1.0846  0.0452
  816MOL0     O12506   2.277   6.572   9.222 -0.2119 -0.5708 -0.2495
  816MOL0     C12507   2.145   6.626   9.204  0.7909  0.1222 -0.1827
  816MOL0     C12508   2.134   6.730   9.092 -0.4185 -0.1004  0.3993
  816MOL0     C12509   2.253   6.829   9.083 -0.8317 -0.6257 -0.1731
  816MOL0     C12510   2.245   6.944   8.979  1.2268  0.7979 -0.7446
  816MOL0     C12511   2.118   7.041   9.001 -0.2053 -0.2273  0.6592
  816MOL0     C12512   2.084   7.124   8.874  0.0554 -0.6721  0.0563
  816MOL0     C12513   2.099   7.076   8.729  1.0602 -0.2244 -0.3884
  816MOL0     C12514   2.103   7.186   8.626  0.8992 -0.0160  0.6627
  816MOL0    Cl12515   2.242   7.290   8.680 -0.2017 -0.3545  0.3237
  816MOL0     C12516   2.429   6.421   9.313  0.2071 -0.2977  0.1266
  816MOL0     C12517   2.462   6.309   9.391 -0.9346 -0.7519  0.2677
  816MOL0     O12518   2.574   6.267   9.663 -0.3196 -0.3338  0.3482
  816MOL0     C12519   2.419   5.954   9.741  0.3178 -0.2991  0.6113
  816MOL0     C12520   2.437   5.829   9.796 -0.1229  0.5483 -0.3071
  816MOL0     N12521   2.522   5.152  10.102  0.6441 -1.8700  0.5623
  816MOL0     N12522   2.581   5.044  10.110  0.9298  0.8082  0.5160
  816MOL0     C12523   1.905   4.173  10.631  0.2776 -0.2666 -0.1376
  816MOL0     C12524   1.830   4.059  10.670  0.1073 -0.6881 -0.5765
  816MOL0     C12525   1.656   3.793  11.011 -1.5888  0.0635 -0.4945
  816MOL0     C12526   1.702   3.663  10.964  0.7322 -0.0690 -0.2294
  816MOL0     C12527   1.631   3.551  11.019  0.2524  1.0512  0.5859
  816MOL0     C12528   1.526   3.568  11.118  0.2963 -0.6378 -0.3995
  816MOL0     O12529   1.484   3.447  11.181 -0.6464 -0.9634 -0.1860
  816MOL0     C12530   1.378   3.382  11.129  0.9594 -0.3161  0.5218
  816MOL0     C12531   1.252   3.478  11.135  0.2145  0.4335  0.9060
  816MOL0     C12532   1.114   3.409  11.105  0.0599 -0.8453  0.2594
  816MOL0     C12533   0.996   3.481  11.170  0.5936  0.1851 -0.1156
  816MOL0     C12534   0.991   3.624  11.141  0.8152  0.4498  1.0007
  816MOL0     C12535   0.974   3.736  11.116  0.1288 -0.2019  0.3128
  816MOL0     C12536   1.482   3.692  11.152 -0.1859  0.4063  0.3662
  816MOL0     C12537   1.546   3.804  11.095  0.8243  0.0915  0.0087
  816MOL0     C12538   1.481   3.943  11.117  0.4943  0.7885  0.0016
  816MOL0     H12539   2.001   3.967  10.934  0.7369 -1.0707 -0.6741
  816MOL0     H12540   2.173   4.150  10.835 -1.7460  0.3818  1.9968
  816MOL0     H12541   2.022   4.411  10.478 -0.9040  1.4105  3.3589
  816MOL0     H12542   2.134   4.280  10.437  0.6603 -0.0910  0.7879
  816MOL0     H12543   2.225   4.533  10.569 -0.9438 -1.5690  0.4884
  816MOL0     H12544   2.322   4.403  10.485 -0.7561 -3.4739 -2.7923
  816MOL0     H12545   2.181   4.449  10.274 -0.0640 -0.8900  1.0938
  816MOL0     H12546   2.142   4.607  10.339 -1.1908  0.1765  0.3464
  816MOL0     H12547   2.416   4.497  10.296 -1.2088 -0.5726  2.6728
  816MOL0     H12548   2.335   4.613  10.198  2.2239 -3.5202 -1.6611
  816MOL0     H12549   2.430   4.636  10.482  0.1745 -2.3163 -0.2113
  816MOL0     H12550   2.327   4.767  10.420 -0.2769  0.4966 -2.1892
  816MOL0     H12551   2.588   4.658  10.282  1.4038  1.6330 -0.0179
  816MOL0     H12552   2.483   4.782  10.215  2.1637 -1.0390 -0.9872
  816MOL0     H12553   2.665   4.783  10.459  2.5589  1.0937 -0.6746
  816MOL0     H12554   2.546   4.913  10.443  0.1086  0.5376 -0.5287
  816MOL0     H12555   2.805   4.915  10.315  1.2023 -3.1222 -1.3291
  816MOL0     H12556   2.712   4.835  10.203  1.9845  0.7515  0.3595
  816MOL0     H12557   2.633   5.159  10.412  0.9714  1.2960 -0.8544
  816MOL0     H12558   2.489   5.390  10.348 -1.3104  1.5587 -1.0123
  816MOL0     H12559   2.373   5.344  10.231 -0.0105  1.4878 -0.5559
  816MOL0     H12560   2.644   5.477  10.194  0.7118 -0.8893 -1.3039
  816MOL0     H12561   2.550   5.424  10.057  1.4812 -2.2807  1.0744
  816MOL0     H12562   2.358   5.563  10.127 -0.5835 -2.9239  2.4792
  816MOL0     H12563   2.439   5.614  10.275 -0.5319  2.5125 -1.2049
  816MOL0     H12564   2.489   5.796  10.125  1.8761  1.2448 -0.5749
  816MOL0     H12565   2.634   5.698  10.132  0.2915 -1.1852  0.0665
  816MOL0     H12566   2.712   5.899   9.982 -0.2003  4.4195  0.5177
  816MOL0     H12567   2.800   6.158   9.792 -1.1338 -1.1315 -0.6898
  816MOL0     H12568   2.791   6.141   9.965  1.2829 -0.0162 -0.8977
  816MOL0     H12569   2.679   6.248   9.887  0.9408  0.8483  1.0576
  816MOL0     H12570   2.165   6.250   9.518 -0.7933 -0.3600 -1.6561
  816MOL0     H12571   2.111   6.460   9.393  0.5392  1.8665  0.3278
  816MOL0     H12572   2.070   6.548   9.186  0.3065  0.3275  0.8559
  816MOL0     H12573   2.120   6.680   9.295  1.3216  3.6880 -1.9738
  816MOL0     H12574   2.151   6.667   9.004  0.0830 -4.0875  3.0848
  816MOL0     H12575   2.036   6.777   9.104 -0.6913 -0.2005 -1.2309
  816MOL0     H12576   2.350   6.779   9.073 -1.5089 -1.7204 -1.6256
  816MOL0     H12577   2.255   6.887   9.176 -0.6218  2.3554 -1.9347
  816MOL0     H12578   2.231   6.879   8.892 -3.4247  0.6748 -0.1361
  816MOL0     H12579   2.334   7.008   8.975  1.7087  0.3077  1.0588
  816MOL0     H12580   2.029   6.985   9.032  0.9040 -0.5069  3.5826
  816MOL0     H12581   2.140   7.102   9.089  3.7910 -1.7197  0.8883
  816MOL0     H12582   2.172   7.188   8.886  1.9127 -2.5451 -2.5816
  816MOL0     H12583   1.984   7.166   8.886  0.1629 -0.5633  0.6169
  816MOL0     H12584   2.015   7.009   8.707  1.4216  0.3005 -3.8868
  816MOL0     H12585   2.186   7.011   8.712  0.7363 -0.8498  0.2564
  816MOL0     H12586   2.012   7.244   8.611  1.5624  0.4184 -2.2648
  816MOL0     H12587   2.119   7.132   8.533 -1.8541 -0.7682  0.5533
  816MOL0     H12588   2.501   6.461   9.243  1.4726  0.3222  1.6976
  816MOL0     H12589   2.563   6.276   9.372 -0.6490  0.1354  0.1840
  816MOL0     H12590   2.333   5.958   9.675  0.3572  3.4054  0.5719
  816MOL0     H12591   2.363   5.751   9.789 -1.5593  1.8572 -0.1063
  816MOL0     H12592   1.893   4.230  10.540  0.4013  0.4395  0.2801
  816MOL0     H12593   1.739   4.035  10.616  1.7895  1.4673 -4.8694
  816MOL0     H12594   1.781   3.651  10.890 -0.1039 -1.1312 -0.9871
  816MOL0     H12595   1.645   3.452  10.978 -0.2395  0.6753  1.3011
  816MOL0     H12596   1.390   3.360  11.023 -2.7713 -0.0939 -0.0791
  816MOL0     H12597   1.365   3.289  11.185  1.0442  0.2894  1.5763
  816MOL0     H12598   1.255   3.569  11.074 -2.2093 -0.9758 -1.5257
  816MOL0     H12599   1.252   3.522  11.235  2.8781  2.2478  0.2251
  816MOL0     H12600   1.099   3.394  10.998  0.6492 -1.8460  0.3008
  816MOL0     H12601   1.123   3.304  11.138 -0.2298 -0.7191  0.7575
  816MOL0     H12602   1.000   3.465  11.278 -0.4804  0.5631 -0.0099
  816MOL0     H12603   0.898   3.444  11.138 -0.0154  0.9889  0.7430
  816MOL0     H12604   0.965   3.843  11.110  1.7110 -0.0277  0.7467
  816MOL0     H12605   1.417   3.700  11.238  0.8157 -0.9793  1.3047
  816MOL0     H12606   1.529   3.983  11.207  1.8180 -1.5391  0.4158
  816MOL0     H12607   1.503   4.010  11.034 -0.9785  0.7044 -0.4990
  816MOL0     H12608   1.372   3.934  11.121  0.2823  2.6460 -0.3506
  817MOL0     O12609   8.179   4.737   9.825  0.3419  0.0670 -0.4050
  817MOL0     C12610   8.210   4.635   9.881 -0.4517 -0.2696  0.0652
  817MOL0     O12611   8.168   4.509   9.839  0.1017  0.2034  0.3459
  817MOL0     C12612   8.087   4.488   9.729 -0.5922  0.1629  0.6404
  817MOL0     C12613   7.982   4.396   9.735  0.1170  0.1481  0.3623
  817MOL0     C12614   7.904   4.365   9.615 -1.0173  0.4519 -0.7597
  817MOL0     C12615   7.941   4.427   9.492  0.8808 -0.1467 -0.3448
  817MOL0     O12616   7.868   4.389   9.386  0.7993 -0.5612 -0.1971
  817MOL0     C12617   7.934   4.419   9.260 -0.7438 -0.4831 -0.7716
  817MOL0     C12618   7.926   4.322   9.145  0.8443  1.3805  0.0917
  817MOL0     C12619   7.782   4.267   9.139 -0.8584  0.0445  0.0938
  817MOL0     C12620   7.769   4.158   9.019 -1.1332  0.0198 -0.1043
  817MOL0     C12621   7.700   4.213   8.895  0.8578  1.3329  0.0288
  817MOL0     C12622   7.761   4.329   8.820  0.3536 -1.1154  0.0960
  817MOL0     C12623   7.678   4.354   8.697  1.3224  0.0266  0.5326
  817MOL0     C12624   7.749   4.453   8.606 -0.4033  0.0627  0.3109
  817MOL0     N12625   7.655   4.495   8.501 -0.8202 -0.0334  0.4704
  817MOL0     C12626   7.707   4.496   8.373 -0.3963 -0.5092  0.0961
  817MOL0     C12627   7.609   4.533   8.283  0.5003 -0.0166 -0.0696
  817MOL0     C12628   7.616   4.540   8.129  0.1336  0.0932  0.4239
  817MOL0     C12629   7.570   4.412   8.069 -0.3327  0.5907  0.9078
  817MOL0     C12630   7.537   4.443   7.925  1.0946 -0.2870 -0.2956
  817MOL0     C12631   7.530   4.311   7.840  0.9039 -0.3095 -0.1098
  817MOL0     O12632   7.661   4.254   7.839 -0.6088 -0.1183 -0.2757
  817MOL0     C12633   7.694   4.214   7.713  0.5283 -0.7439  0.4274
  817MOL0     C12634   7.748   4.089   7.703 -0.3931 -0.5637  0.8975
  817MOL0     C12635   7.793   4.028   7.582  0.7562  0.0046 -0.2824
  817MOL0     C12636   7.863   3.894   7.569  0.3318 -0.0540 -0.2671
  817MOL0     C12637   7.771   4.108   7.467  0.0624  0.4572 -0.3148
  817MOL0     C12638   7.804   4.066   7.332  0.1058  0.9551 -0.3327
  817MOL0     O12639   7.810   4.155   7.239 -0.3419 -0.4626 -0.2002
  817MOL0     C12640   7.815   4.150   7.101  1.0196 -0.0919 -0.1649
  817MOL0     C12641   7.796   4.278   7.048 -0.6631  0.2161 -0.5828
  817MOL0     C12642   7.786   4.291   6.913 -0.0699  0.4705  0.7011
  817MOL0     C12643   7.791   4.178   6.834  0.7444  0.0821  0.3258
  817MOL0     O12644   7.786   4.189   6.695  0.6157 -0.5434 -0.2024
  817MOL0     C12645   7.783   4.072   6.604  0.2205  0.2683 -0.0957
  817MOL0     C12646   7.785   4.117   6.455 -0.0995 -0.1920 -0.0672
  817MOL0     C12647   7.904   4.192   6.405 -0.5634 -0.6980  0.5351
  817MOL0     C12648   7.923   4.227   6.251 -0.6828  0.7028  0.1761
  817MOL0     C12649   8.048   4.318   6.239 -0.4653  0.1977  0.1440
  817MOL0     C12650   8.064   4.343   6.087  0.3450 -0.2893 -0.6664
  817MOL0     C12651   8.148   4.233   6.035 -0.3867 -0.0493 -0.2048
  817MOL0     C12652   8.150   4.233   5.886 -0.8066 -0.3779  0.3184
  817MOL0    Cl12653   8.276   4.355   5.844 -0.1577 -0.0223 -0.3458
  817MOL0     C12654   7.785   4.047   6.893 -0.1974 -0.7341  0.1073
  817MOL0     C12655   7.800   4.031   7.026 -0.5178  0.3236 -0.3560
  817MOL0     O12656   7.836   3.954   7.305 -1.0143  0.0203 -0.5866
  817MOL0     C12657   7.699   4.230   7.475 -0.0946  0.9506 -0.5357
  817MOL0     C12658   7.676   4.290   7.593 -0.0963 -0.1529  0.4961
  817MOL0     N12659   7.498   4.568   8.360  0.3185 -0.4525 -0.4567
  817MOL0     N12660   7.532   4.551   8.491 -0.0283  0.5567 -0.1408
  817MOL0     C12661   8.035   4.534   9.495  0.1682 -0.1025 -0.1161
  817MOL0     C12662   8.112   4.558   9.606  0.5979 -0.2368 -0.2220
  817MOL0     C12663   8.280   4.634  10.015  0.3686 -1.1496 -0.5862
  817MOL0     C12664   8.335   4.513  10.064  0.3407  0.1151 -0.7713
  817MOL0     C12665   8.400   4.496  10.186 -0.4259  0.2742  0.3645
  817MOL0     C12666   8.407   4.598  10.280 -0.8699 -0.6587  0.6685
  817MOL0     O12667   8.471   4.604  10.402 -0.7028  0.1532 -0.0247
  817MOL0     C12668   8.602   4.541  10.405  0.0082  0.2658  0.1446
  817MOL0     C12669   8.638   4.549  10.552  0.3211 -0.5957 -0.1047
  817MOL0     C12670   8.782   4.524  10.606  0.5012  1.2577 -0.3415
  817MOL0     C12671   8.800   4.605  10.735 -0.5617 -0.3573 -0.0372
  817MOL0     C12672   8.707   4.558  10.842 -0.5702  0.0095 -1.0512
  817MOL0     C12673   8.624   4.497  10.921  0.0281  0.8728  0.8112
  817MOL0     C12674   8.341   4.717  10.237  0.3370 -0.6429  0.1845
  817MOL0     C12675   8.281   4.738  10.107 -0.6294  0.1564 -1.4163
  817MOL0     C12676   8.230   4.875  10.071 -0.1701 -0.6437 -0.6093
  817MOL0     H12677   7.968   4.342   9.828 -2.6480 -1.1731 -0.7180
  817MOL0     H12678   7.822   4.296   9.633 -0.9408  0.5415 -0.0303
  817MOL0     H12679   8.040   4.416   9.286 -0.3298  1.3760 -2.0466
  817MOL0     H12680   7.913   4.522   9.230 -0.4565 -0.3377 -0.4794
  817MOL0     H12681   7.942   4.377   9.052  2.7098  0.6586 -0.0538
  817MOL0     H12682   7.996   4.238   9.146 -1.1514 -0.3608  0.8217
  817MOL0     H12683   7.763   4.219   9.236  0.8159 -1.9781 -0.5174
  817MOL0     H12684   7.716   4.353   9.124 -1.7487 -0.8641 -1.3513
  817MOL0     H12685   7.873   4.131   8.996 -0.0925  2.8038  0.8385
  817MOL0     H12686   7.723   4.065   9.053 -1.5017 -0.2941 -1.4131
  817MOL0     H12687   7.598   4.236   8.926 -1.1514  0.7191 -5.1356
  817MOL0     H12688   7.693   4.134   8.820 -0.4158  0.9089  0.5716
  817MOL0     H12689   7.766   4.424   8.874  2.1574 -1.1721  0.0591
  817MOL0     H12690   7.864   4.308   8.793  0.3975  1.0522 -1.6757
  817MOL0     H12691   7.572   4.371   8.715  1.4202  0.6389  0.5320
  817MOL0     H12692   7.681   4.260   8.641 -0.9600  0.8971 -1.2075
  817MOL0     H12693   7.776   4.546   8.658  2.2489 -1.1868  1.3729
  817MOL0     H12694   7.836   4.409   8.556 -0.7947  2.0703 -2.3940
  817MOL0     H12695   7.805   4.457   8.349 -1.3885 -2.5023 -0.9240
  817MOL0     H12696   7.714   4.566   8.090  1.0139 -1.2471  1.6138
  817MOL0     H12697   7.543   4.617   8.102 -0.6133 -0.5263  0.6334
  817MOL0     H12698   7.654   4.343   8.064 -2.5100 -2.1452 -0.4440
  817MOL0     H12699   7.486   4.364   8.120 -0.5391 -0.3677 -0.3017
  817MOL0     H12700   7.442   4.497   7.922  2.3257  2.0097 -1.1720
  817MOL0     H12701   7.614   4.507   7.881 -0.1053  0.6364 -1.1298
  817MOL0     H12702   7.460   4.237   7.881  0.8053 -1.2811 -1.9606
  817MOL0     H12703   7.485   4.337   7.744 -3.6795  0.5267  1.9707
  817MOL0     H12704   7.758   4.037   7.798  1.2858  1.1027  1.7053
  817MOL0     H12705   7.960   3.911   7.520 -0.2091 -2.9799 -2.6845
  817MOL0     H12706   7.807   3.815   7.519 -1.2770  1.8678 -1.6398
  817MOL0     H12707   7.892   3.865   7.671 -0.3761  0.5830  0.1268
  817MOL0     H12708   7.802   4.368   7.107 -0.7781 -0.8571  1.1263
  817MOL0     H12709   7.770   4.388   6.868  1.6851 -0.1790 -1.5190
  817MOL0     H12710   7.877   4.019   6.620 -0.8709 -1.0827  2.4235
  817MOL0     H12711   7.691   4.020   6.632 -1.2896  0.0990 -4.5594
  817MOL0     H12712   7.778   4.030   6.389 -1.6622  1.6251 -2.4745
  817MOL0     H12713   7.691   4.168   6.429 -1.0468 -1.5773  0.5180
  817MOL0     H12714   7.999   4.137   6.417  0.7573  0.8955 -1.9017
  817MOL0     H12715   7.906   4.285   6.463  0.9269  1.1980 -2.3193
  817MOL0     H12716   7.842   4.288   6.212 -0.6023  0.7856  0.1391
  817MOL0     H12717   7.920   4.133   6.194 -3.5761  0.5930  0.3607
  817MOL0     H12718   8.022   4.413   6.284 -1.6948  0.2556 -0.6546
  817MOL0     H12719   8.135   4.273   6.287 -1.2178 -0.9005  0.5086
  817MOL0     H12720   8.109   4.442   6.075 -1.5451  1.0317  2.1193
  817MOL0     H12721   7.966   4.359   6.042 -0.5318 -1.0948  0.8896
  817MOL0     H12722   8.118   4.141   6.086  1.4771  0.4780  1.9680
  817MOL0     H12723   8.253   4.244   6.064 -0.8130  1.7244  0.8370
  817MOL0     H12724   8.054   4.260   5.841 -0.9087  0.4057  0.9661
  817MOL0     H12725   8.179   4.135   5.846 -4.4693 -1.6159  0.3251
  817MOL0     H12726   7.771   3.958   6.831  5.3372 -2.5842  0.9836
  817MOL0     H12727   7.791   3.935   7.076  3.5505 -0.3134 -0.5324
  817MOL0     H12728   7.671   4.289   7.388 -1.3412 -2.1583 -2.3996
  817MOL0     H12729   7.627   4.387   7.599  1.4105  0.5556  2.6401
  817MOL0     H12730   8.037   4.606   9.414  0.0791 -1.1703 -1.0973
  817MOL0     H12731   8.193   4.629   9.596 -1.1664  2.4694  2.7637
  817MOL0     H12732   8.342   4.427   9.998  0.8872 -1.8882  1.7742
  817MOL0     H12733   8.453   4.404  10.205  0.0865  0.7754  1.5210
  817MOL0     H12734   8.592   4.445  10.354 -2.4469  1.1982 -1.3215
  817MOL0     H12735   8.677   4.583  10.338  1.0497 -3.7809 -1.5577
  817MOL0     H12736   8.586   4.470  10.606 -2.4778  2.1006  1.4358
  817MOL0     H12737   8.598   4.648  10.579  1.5240  0.3857 -1.7072
  817MOL0     H12738   8.792   4.415  10.612  1.0274  1.2627 -0.9597
  817MOL0     H12739   8.863   4.564  10.544 -1.4913  0.8312 -3.4711
  817MOL0     H12740   8.767   4.704  10.703  1.1750  0.1099 -0.4913
  817MOL0     H12741   8.905   4.609  10.764 -0.3455  0.3482 -0.8665
  817MOL0     H12742   8.542   4.438  10.954  0.3710 -1.9191 -2.7029
  817MOL0     H12743   8.369   4.801  10.300 -2.3424 -0.7767  1.7429
  817MOL0     H12744   8.228   4.938  10.160  0.2859 -2.0456  0.4193
  817MOL0     H12745   8.289   4.922   9.991  1.4166  0.6186  1.2179
  817MOL0     H12746   8.123   4.867  10.048 -0.7990 -4.2370  2.7097
  818MOL0     O12747  11.337   2.345  11.477 -0.8219 -0.1337  0.4416
  818MOL0     C12748  11.278   2.245  11.525  0.3812 -0.2464 -0.1661
  818MOL0     O12749  11.173   2.255  11.598  0.7475 -0.4454 -0.0968
  818MOL0     C12750  11.113   2.367  11.633 -1.4228  0.0397 -0.3644
  818MOL0     C12751  10.979   2.345  11.638 -0.7819  0.5457  0.2584
  818MOL0     C12752  10.886   2.449  11.658  0.9569 -0.3307 -0.0717
  818MOL0     C12753  10.934   2.578  11.687  0.3307  0.8619  0.2870
  818MOL0     O12754  10.869   2.691  11.732 -0.0345 -0.6437 -0.2795
  818MOL0     C12755  10.783   2.665  11.844 -0.9341 -0.1312  0.5585
  818MOL0     C12756  10.755   2.790  11.934 -0.2440 -0.2800  0.2715
  818MOL0     C12757  10.697   2.908  11.863  0.0667 -0.1235  1.0265
  818MOL0     C12758  10.781   3.020  11.805 -0.4691 -0.4803  0.3886
  818MOL0     C12759  10.711   3.147  11.743 -0.2443  0.6983 -0.7335
  818MOL0     C12760  10.646   3.141  11.610 -0.4682 -0.1765  0.7535
  818MOL0     C12761  10.747   3.098  11.511 -0.0287 -0.6263  0.1049
  818MOL0     C12762  10.694   3.112  11.364  0.1305 -0.4173 -0.8959
  818MOL0     N12763  10.552   3.058  11.361 -0.6564 -0.2422  0.7214
  818MOL0     C12764  10.438   3.131  11.354  0.4717 -1.0591  0.6583
  818MOL0     C12765  10.339   3.048  11.318  0.0686 -0.5008 -0.3749
  818MOL0     C12766  10.198   3.087  11.319  0.0328 -0.3939 -0.2984
  818MOL0     C12767  10.170   3.148  11.183  0.0398  0.2079 -0.0504
  818MOL0     C12768  10.156   3.036  11.076 -0.0089  0.4092 -0.6007
  818MOL0     C12769  10.145   3.070  10.927  0.4604 -0.8336  0.4227
  818MOL0     O12770  10.051   3.168  10.907 -0.4683  0.2343 -0.4027
  818MOL0     C12771  10.004   3.176  10.780  0.2203  0.5369 -0.2416
  818MOL0     C12772  10.022   3.297  10.717 -0.4595  0.3643 -1.0171
  818MOL0     C12773   9.959   3.331  10.594  1.1384  1.2503  0.3966
  818MOL0     C12774   9.976   3.472  10.530 -0.1753  0.3630  0.3484
  818MOL0     C12775   9.895   3.222  10.521 -0.0305 -0.0652  0.4228
  818MOL0     C12776   9.827   3.224  10.382 -0.3326 -0.3119 -0.0571
  818MOL0     O12777   9.849   3.118  10.302 -1.4448  0.1136  0.5380
  818MOL0     C12778   9.793   3.113  10.175  0.0450  0.7158  0.6285
  818MOL0     C12779   9.871   3.154  10.070  0.6428  0.2638  0.0373
  818MOL0     C12780   9.813   3.152   9.951  0.1597 -0.4112  0.2293
  818MOL0     C12781   9.675   3.120   9.924 -0.7864  0.6144  0.8383
  818MOL0     O12782   9.623   3.133   9.797  0.7844  0.1566  0.0260
  818MOL0     C12783   9.525   3.237   9.802 -0.5048 -0.0987  0.3058
  818MOL0     C12784   9.428   3.245   9.676 -0.0194 -0.0029 -0.3472
  818MOL0     C12785   9.325   3.127   9.676  0.8660 -0.8843 -0.4245
  818MOL0     C12786   9.214   3.165   9.774 -0.5291  0.2597 -1.1276
  818MOL0     C12787   9.089   3.075   9.783 -0.0737  0.1203  0.1187
  818MOL0     C12788   9.012   3.103   9.910 -0.0374 -1.0261  0.4470
  818MOL0     C12789   8.888   3.024   9.915  1.1161  0.0081 -1.1341
  818MOL0     C12790   8.818   3.022  10.054  0.2330 -1.1528  1.3982
  818MOL0    Cl12791   8.660   2.959  10.051  0.5603 -0.3777  0.1781
  818MOL0     C12792   9.597   3.058  10.026 -0.2227 -0.9239  0.7559
  818MOL0     C12793   9.662   3.057  10.154  1.2316 -0.0682  0.4309
  818MOL0     O12794   9.769   3.329  10.342 -0.3058  0.1286 -0.1044
  818MOL0     C12795   9.879   3.096  10.592 -0.4751 -0.3591 -0.0996
  818MOL0     C12796   9.925   3.076  10.725  0.4052  0.8117  0.0015
  818MOL0     N12797  10.391   2.922  11.301 -0.2621 -0.0747  0.3895
  818MOL0     N12798  10.519   2.930  11.319 -0.0482 -0.0292  0.2571
  818MOL0     C12799  11.075   2.597  11.688  0.1870  0.1210 -1.2775
  818MOL0     C12800  11.160   2.498  11.655 -1.3709  0.6157 -0.4801
  818MOL0     C12801  11.345   2.112  11.509  0.0797  0.8087  0.6369
  818MOL0     C12802  11.299   2.006  11.585  1.4009  0.3500 -1.0165
  818MOL0     C12803  11.360   1.876  11.581  0.5409  0.0677  0.8374
  818MOL0     C12804  11.466   1.853  11.505  0.5511  0.1074 -0.0083
  818MOL0     O12805  11.529   1.731  11.518 -0.1668 -0.3472 -0.1569
  818MOL0     C12806  11.676   1.728  11.517  0.7976  0.7168 -0.5239
  818MOL0     C12807  11.741   1.825  11.623 -0.9796 -0.6083  0.9518
  818MOL0     C12808  11.896   1.820  11.603 -0.4039 -0.3950  0.2585
  818MOL0     C12809  11.971   1.937  11.675 -0.0009  0.8991 -0.0639
  818MOL0     C12810  11.966   1.924  11.818 -0.0487 -0.0284 -0.1463
  818MOL0     C12811  11.933   1.898  11.934 -0.1271  0.4548  0.6765
  818MOL0     C12812  11.514   1.958  11.419  0.0522 -0.5062  0.6785
  818MOL0     C12813  11.443   2.076  11.413  0.0798 -0.5145 -0.3038
  818MOL0     C12814  11.502   2.163  11.302  0.6064 -0.2649 -0.2685
  818MOL0     H12815  10.945   2.243  11.626  0.1370  0.2151  0.3653
  818MOL0     H12816  10.784   2.416  11.647 -0.0226  0.7965  3.8366
  818MOL0     H12817  10.803   2.577  11.906 -0.3929  0.2566  0.9364
  818MOL0     H12818  10.685   2.653  11.797 -0.2808  2.6604 -1.7585
  818MOL0     H12819  10.690   2.765  12.018  0.6079 -0.9042  0.7563
  818MOL0     H12820  10.840   2.838  11.982  0.2578 -2.1078  1.3108
  818MOL0     H12821  10.622   2.871  11.792 -1.6362  0.3223  2.5111
  818MOL0     H12822  10.636   2.962  11.937 -3.4668  1.3973 -2.6044
  818MOL0     H12823  10.843   3.049  11.889 -2.9077 -2.9404  3.2906
  818MOL0     H12824  10.840   2.977  11.724 -4.1604 -4.0326 -0.7966
  818MOL0     H12825  10.786   3.226  11.731  0.5059  0.2217  0.6335
  818MOL0     H12826  10.639   3.187  11.816 -0.0855 -0.3638  0.0273
  818MOL0     H12827  10.559   3.075  11.622  1.9671 -3.8309  0.0237
  818MOL0     H12828  10.616   3.244  11.586  3.2310  0.9202  0.2747
  818MOL0     H12829  10.785   2.997  11.529  0.4686 -0.4762 -0.0753
  818MOL0     H12830  10.833   3.165  11.500  0.1714 -0.6711  1.2415
  818MOL0     H12831  10.678   3.215  11.330  1.6346 -1.1661 -4.3450
  818MOL0     H12832  10.770   3.070  11.297 -0.1616 -0.1683 -1.3865
  818MOL0     H12833  10.433   3.238  11.373  2.5123 -0.6284 -0.9754
  818MOL0     H12834  10.182   3.166  11.392 -1.1464  3.5784 -4.3443
  818MOL0     H12835  10.137   3.000  11.345  0.0130 -0.2320  0.1905
  818MOL0     H12836  10.074   3.199  11.191 -1.3924 -2.5519  2.6276
  818MOL0     H12837  10.243   3.224  11.154  0.0063 -0.2320 -1.3578
  818MOL0     H12838  10.239   2.965  11.076 -1.8946 -1.9456  0.5665
  818MOL0     H12839  10.070   2.972  11.096  0.0356 -0.2589 -2.3917
  818MOL0     H12840  10.241   3.112  10.897  0.1394 -0.3173  0.1048
  818MOL0     H12841  10.113   2.977  10.880 -5.2940  0.5269  0.9305
  818MOL0     H12842  10.077   3.363  10.782 -3.5685  2.5711 -0.3844
  818MOL0     H12843  10.005   3.453  10.427  0.4196 -3.0187  1.0312
  818MOL0     H12844  10.037   3.542  10.588 -0.3873  1.8938 -1.2004
  818MOL0     H12845   9.883   3.530  10.520  0.9465  2.5174  1.5611
  818MOL0     H12846   9.972   3.190  10.089  1.1634 -0.3126 -1.5407
  818MOL0     H12847   9.878   3.172   9.867  0.0824  0.1699  0.3073
  818MOL0     H12848   9.474   3.225   9.898  0.8304 -3.4040  0.7313
  818MOL0     H12849   9.579   3.332   9.814  1.1128 -0.9090 -0.1585
  818MOL0     H12850   9.371   3.337   9.690 -0.2997 -0.2529  0.1846
  818MOL0     H12851   9.491   3.246   9.586 -1.1585 -0.1570 -1.1704
  818MOL0     H12852   9.375   3.031   9.690 -1.6395 -1.9501  1.8763
  818MOL0     H12853   9.278   3.128   9.577  2.4676  3.3970 -1.3625
  818MOL0     H12854   9.192   3.270   9.757  3.7985  1.5998  0.2387
  818MOL0     H12855   9.268   3.166   9.870  2.3483  2.2740 -2.6168
  818MOL0     H12856   9.032   3.111   9.696 -0.0568 -0.2848 -0.0606
  818MOL0     H12857   9.122   2.971   9.786 -1.3789 -0.4323 -2.2828
  818MOL0     H12858   8.983   3.208   9.916 -0.1666 -0.9189 -1.4870
  818MOL0     H12859   9.078   3.089   9.995 -1.4852  0.4020  1.8788
  818MOL0     H12860   8.909   2.924   9.877 -1.0078 -0.7172 -0.5531
  818MOL0     H12861   8.815   3.069   9.846 -2.6547 -1.7619  1.3290
  818MOL0     H12862   8.813   3.128  10.082  1.0278 -0.6709 -0.1602
  818MOL0     H12863   8.883   2.977  10.130  0.3395  2.1519  3.4403
  818MOL0     H12864   9.492   3.031  10.017 -0.3554 -0.8769  2.0458
  818MOL0     H12865   9.610   3.011  10.237 -1.5652  1.3560 -0.4069
  818MOL0     H12866   9.829   3.021  10.532  0.3418 -0.6239 -0.4699
  818MOL0     H12867   9.918   2.988  10.788  0.8719  1.2704  0.7134
  818MOL0     H12868  11.114   2.694  11.716  0.7299  0.1914 -2.2431
  818MOL0     H12869  11.268   2.506  11.662 -0.8264 -3.3184 -1.9663
  818MOL0     H12870  11.236   2.011  11.673  3.2691 -0.0628  0.3990
  818MOL0     H12871  11.337   1.811  11.665  3.7234  0.0980  1.8436
  818MOL0     H12872  11.707   1.628  11.549  1.6639  1.2866  0.4916
  818MOL0     H12873  11.725   1.752  11.422  1.9470 -1.5238 -0.5730
  818MOL0     H12874  11.710   1.792  11.723 -2.3418 -0.2254  0.6779
  818MOL0     H12875  11.708   1.923  11.587  1.2840 -0.5662 -1.3110
  818MOL0     H12876  11.932   1.724  11.640 -1.0288 -0.7443 -0.0196
  818MOL0     H12877  11.932   1.834  11.500  0.2572 -1.0355  0.3938
  818MOL0     H12878  11.940   2.037  11.643 -2.7714  0.5083  1.1356
  818MOL0     H12879  12.078   1.939  11.651 -0.3880 -0.8308 -2.2231
  818MOL0     H12880  11.879   1.868  12.021 -2.8681  0.7737 -0.8190
  818MOL0     H12881  11.594   1.956  11.345 -0.2595  1.3995  0.2264
  818MOL0     H12882  11.610   2.176  11.299  0.5684 -0.1671 -2.6277
  818MOL0     H12883  11.475   2.119  11.206  0.8451  0.3221 -0.6055
  818MOL0     H12884  11.462   2.265  11.295  3.8439  1.0153 -2.0810
  819MOL0     O12885   1.702   0.490   7.210  0.5566 -0.2142 -0.0125
  819MOL0     C12886   1.743   0.402   7.285 -0.0656  0.6752  0.4031
  819MOL0     O12887   1.682   0.272   7.291  0.2074  0.0170 -0.6748
  819MOL0     C12888   1.551   0.251   7.250  0.4425  0.5528  0.1075
  819MOL0     C12889   1.451   0.347   7.267  0.1462  0.1016  0.2504
  819MOL0     C12890   1.314   0.307   7.243  0.2523 -0.3143  0.5328
  819MOL0     C12891   1.290   0.179   7.181  0.9988  0.9814 -0.9744
  819MOL0     O12892   1.168   0.128   7.149  0.5250  0.1328 -0.7893
  819MOL0     C12893   1.053   0.208   7.191  0.6129 -0.2212  0.2003
  819MOL0     C12894   0.926   0.169   7.109  0.3424 -0.4829  0.3832
  819MOL0     C12895   0.872   0.286   7.035  0.2799 -0.0383 -0.2722
  819MOL0     C12896   0.765   0.246   6.934  0.1859  0.1815 -0.7521
  819MOL0     C12897   0.634   0.186   6.987 -0.1449 -0.2720 -0.3012
  819MOL0     C12898   0.554   0.282   7.079 -0.4671 -0.3761  0.3493
  819MOL0     C12899   0.433   0.233   7.155  1.1998 -0.1998  0.3754
  819MOL0     C12900   0.478   0.155   7.274  0.4977  0.0405 -0.6536
  819MOL0     N12901   0.554   0.230   7.382  0.5233  0.6367 -0.3458
  819MOL0     C12902   0.500   0.274   7.499  0.0979  0.0928  0.6192
  819MOL0     C12903   0.591   0.346   7.565 -0.1662  0.1037  0.5422
  819MOL0     C12904   0.588   0.423   7.693  0.6913 -1.6270  0.0614
  819MOL0     C12905   0.534   0.566   7.665  0.9942 -0.3685  0.4934
  819MOL0     C12906   0.527   0.652   7.795 -0.1903  0.8170  0.0277
  819MOL0     C12907   0.503   0.800   7.748  1.0771  0.9479 -0.6212
  819MOL0     O12908   0.358   0.820   7.721  0.9583  0.2139 -0.1735
  819MOL0     C12909   0.314   0.946   7.751  0.5187 -0.1536 -0.0106
  819MOL0     C12910   0.176   0.956   7.772  0.8659  0.2935  0.9072
  819MOL0     C12911   0.122   1.057   7.842 -0.2163 -0.1992  0.2289
  819MOL0     C12912  -0.027   1.045   7.861  0.5471 -0.3153 -0.2619
  819MOL0     C12913   0.199   1.172   7.876 -1.1118  0.0505 -0.4125
  819MOL0     C12914   0.154   1.299   7.959  0.3348 -0.2828 -0.5852
  819MOL0     O12915   0.026   1.285   8.028  0.0468 -0.1681  0.4300
  819MOL0     C12916  -0.004   1.360   8.141 -0.3745  0.1228 -0.2090
  819MOL0     C12917  -0.107   1.452   8.140  0.0816 -0.9266 -0.0547
  819MOL0     C12918  -0.132   1.545   8.250  0.5733 -0.3016  0.3180
  819MOL0     C12919  -0.056   1.546   8.368  0.8714  0.1929  0.3863
  819MOL0     O12920  -0.068   1.633   8.474  0.2789  0.9408 -0.0476
  819MOL0     C12921  -0.197   1.687   8.503  0.0610 -0.4391  0.4278
  819MOL0     C12922  -0.233   1.635   8.645 -0.0624  0.6115  0.8874
  819MOL0     C12923  -0.391   1.634   8.687  0.0972 -0.2644 -0.1146
  819MOL0     C12924  -0.414   1.538   8.799 -0.3226 -0.4667 -0.3797
  819MOL0     C12925  -0.548   1.540   8.855 -0.6312 -0.0934 -0.2913
  819MOL0     C12926  -0.556   1.419   8.954  0.0521 -0.1368  0.4265
  819MOL0     C12927  -0.703   1.400   9.014 -0.2964 -0.0710 -0.1777
  819MOL0     C12928  -0.708   1.259   9.081 -0.0446  0.4227  0.4039
  819MOL0    Cl12929  -0.637   1.270   9.248  0.1125 -0.4745 -0.7446
  819MOL0     C12930   0.052   1.449   8.358 -0.3381 -0.1372 -1.1739
  819MOL0     C12931   0.073   1.353   8.256 -0.1585 -0.1265 -0.4309
  819MOL0     O12932   0.232   1.392   7.967  0.2425 -0.0598  0.4041
  819MOL0     C12933   0.334   1.170   7.828 -0.5187  0.1448 -0.2996
  819MOL0     C12934   0.393   1.056   7.787  0.5710  0.1612  0.6126
  819MOL0     N12935   0.708   0.327   7.492 -0.3902  0.7900  0.3792
  819MOL0     N12936   0.684   0.264   7.373  0.1620 -0.1024 -0.4352
  819MOL0     C12937   1.391   0.088   7.155  0.7293  0.0385 -0.0043
  819MOL0     C12938   1.519   0.124   7.191  0.2336 -0.9363  0.4935
  819MOL0     C12939   1.870   0.418   7.360 -0.5171  0.4927 -0.3559
  819MOL0     C12940   1.931   0.305   7.427  0.7174 -0.1579  0.5929
  819MOL0     C12941   2.040   0.315   7.509  0.4990  1.1224  0.5768
  819MOL0     C12942   2.115   0.434   7.509 -0.1502 -0.4521  0.5320
  819MOL0     O12943   2.240   0.444   7.564  0.7253 -0.3331  0.5179
  819MOL0     C12944   2.307   0.319   7.619 -0.6826 -1.9304 -0.1405
  819MOL0     C12945   2.451   0.344   7.644  0.2758  0.4098  0.4547
  819MOL0     C12946   2.479   0.403   7.785 -0.5554 -0.0243 -0.3009
  819MOL0     C12947   2.624   0.452   7.790  0.4856 -0.0721  0.2763
  819MOL0     C12948   2.657   0.522   7.911 -0.1597 -0.7365 -0.9052
  819MOL0     C12949   2.706   0.588   8.005 -0.3444  0.5022  0.9569
  819MOL0     C12950   2.080   0.539   7.430  0.9059 -0.0616  0.2546
  819MOL0     C12951   1.950   0.541   7.364 -0.3231 -0.6164  0.4305
  819MOL0     C12952   1.922   0.652   7.269  0.0187  0.5780 -0.4850
  819MOL0     H12953   1.466   0.449   7.303 -0.7690  0.4708 -0.3746
  819MOL0     H12954   1.244   0.380   7.282 -2.9271 -2.2450 -1.1940
  819MOL0     H12955   1.079   0.312   7.170 -0.8219  0.7595  2.7811
  819MOL0     H12956   1.033   0.204   7.298  1.3727  1.8628  0.4654
  819MOL0     H12957   0.950   0.106   7.023 -0.5391 -1.0081  0.5102
  819MOL0     H12958   0.851   0.124   7.175  0.0449 -0.3784  0.1186
  819MOL0     H12959   0.837   0.371   7.094  1.2188  2.3530 -2.9118
  819MOL0     H12960   0.958   0.314   6.973  1.2002 -0.5909  0.7212
  819MOL0     H12961   0.746   0.341   6.883  1.2005  1.6780  1.4795
  819MOL0     H12962   0.804   0.161   6.877 -1.5333 -1.6780  0.7194
  819MOL0     H12963   0.634   0.093   7.045 -4.8559 -0.0814  0.4084
  819MOL0     H12964   0.562   0.177   6.905 -0.3743 -2.7960  0.0857
  819MOL0     H12965   0.623   0.334   7.146 -0.9216  1.5599 -0.6233
  819MOL0     H12966   0.530   0.369   7.018  2.4821  1.8947  2.1552
  819MOL0     H12967   0.375   0.165   7.093 -1.1858  1.8686  0.1679
  819MOL0     H12968   0.361   0.308   7.190 -1.3174 -2.3324  0.0443
  819MOL0     H12969   0.391   0.105   7.315  2.0104 -0.8710  1.6521
  819MOL0     H12970   0.544   0.076   7.235 -1.5089 -0.9880 -2.1631
  819MOL0     H12971   0.403   0.237   7.531  1.2978 -3.5086  0.5591
  819MOL0     H12972   0.690   0.422   7.731 -0.0770  2.4634  2.7974
  819MOL0     H12973   0.522   0.372   7.765  0.1974 -0.6008  0.3445
  819MOL0     H12974   0.597   0.624   7.597  1.7214 -1.7057  0.0039
  819MOL0     H12975   0.433   0.549   7.626 -0.0158 -0.0248  2.7882
  819MOL0     H12976   0.460   0.616   7.874  0.3593 -1.2525 -0.4004
  819MOL0     H12977   0.622   0.649   7.848 -1.6341  1.1879  2.8431
  819MOL0     H12978   0.517   0.860   7.838  0.5602 -0.1395  0.2024
  819MOL0     H12979   0.581   0.825   7.675  2.6168  0.8090  0.9033
  819MOL0     H12980   0.112   0.872   7.749 -0.3154  0.8412  2.0433
  819MOL0     H12981  -0.062   1.124   7.794  0.4301  0.7836  1.0412
  819MOL0     H12982  -0.037   1.073   7.967 -2.0891  2.7653 -1.1540
  819MOL0     H12983  -0.087   0.956   7.843 -1.7382  0.7694  1.4392
  819MOL0     H12984  -0.156   1.451   8.043 -0.8359  4.1219  0.0420
  819MOL0     H12985  -0.212   1.617   8.241  1.1925  0.3416 -0.0883
  819MOL0     H12986  -0.191   1.796   8.497  1.8639 -0.3838  2.2719
  819MOL0     H12987  -0.280   1.657   8.438 -2.1316  1.9025  1.9367
  819MOL0     H12988  -0.197   1.532   8.642  2.8923  1.4718  2.4320
  819MOL0     H12989  -0.178   1.673   8.732  0.6804 -2.0814  1.6716
  819MOL0     H12990  -0.461   1.606   8.608  0.7417 -2.2351 -0.0538
  819MOL0     H12991  -0.413   1.738   8.713 -0.2174  0.4202 -2.8727
  819MOL0     H12992  -0.357   1.573   8.886 -0.1840  2.7971 -1.6211
  819MOL0     H12993  -0.385   1.438   8.767 -0.0879  0.0350 -1.8128
  819MOL0     H12994  -0.595   1.630   8.895  1.0329  0.4971  0.3796
  819MOL0     H12995  -0.611   1.517   8.768 -2.7973 -0.8420  1.3778
  819MOL0     H12996  -0.487   1.430   9.038 -1.2105 -0.6022  1.5466
  819MOL0     H12997  -0.515   1.336   8.895  4.9857  4.1032 -3.0794
  819MOL0     H12998  -0.777   1.406   8.933 -0.0770  0.6956 -0.3274
  819MOL0     H12999  -0.733   1.478   9.084 -1.7808  1.9442 -2.8561
  819MOL0     H13000  -0.674   1.173   9.023  0.8296  1.2214 -0.3168
  819MOL0     H13001  -0.813   1.234   9.097 -0.3562  0.8959 -0.7849
  819MOL0     H13002   0.116   1.447   8.445  2.3674  0.8047 -3.0066
  819MOL0     H13003   0.152   1.281   8.275 -0.2306 -0.1894 -0.3619
  819MOL0     H13004   0.402   1.254   7.842  0.3047 -0.3615 -1.1164
  819MOL0     H13005   0.496   1.060   7.753 -0.2671  1.4165 -2.0734
  819MOL0     H13006   1.366  -0.011   7.117 -3.8962  1.4395 -1.3610
  819MOL0     H13007   1.596   0.055   7.157 -0.1973 -0.8591 -0.7180
  819MOL0     H13008   1.878   0.210   7.426 -1.5558  0.9879 -1.9766
  819MOL0     H13009   2.067   0.222   7.559 -0.4679  0.9373  0.7762
  819MOL0     H13010   2.265   0.301   7.719 -3.7763 -0.2175 -1.0127
  819MOL0     H13011   2.296   0.236   7.548  0.3704  0.1513 -2.9205
  819MOL0     H13012   2.486   0.405   7.560 -0.0637 -1.3780 -1.0595
  819MOL0     H13013   2.499   0.245   7.642 -0.1616  0.2066 -1.1743
  819MOL0     H13014   2.413   0.487   7.807  1.9635  1.7804  0.9892
  819MOL0     H13015   2.467   0.324   7.860 -2.4711  2.1234  1.8402
  819MOL0     H13016   2.628   0.525   7.709 -0.2814 -0.0737  0.2322
  819MOL0     H13017   2.695   0.371   7.769 -2.8654 -2.1889 -4.6938
  819MOL0     H13018   2.725   0.638   8.098 -0.4611  0.7393  0.8527
  819MOL0     H13019   2.158   0.615   7.426  0.9651 -0.1544 -1.5856
  819MOL0     H13020   1.899   0.611   7.170  1.0564 -4.2375  0.9867
  819MOL0     H13021   1.835   0.703   7.312  0.1380  0.4185 -0.0544
  819MOL0     H13022   2.007   0.719   7.258 -1.8272  3.2105  0.3174
  820MOL0     O13023   3.011   4.728   4.330  0.4116  0.0340 -0.3924
  820MOL0     C13024   2.912   4.717   4.399  0.4795  0.1271 -0.1119
  820MOL0     O13025   2.782   4.680   4.355 -0.5030  0.2525 -0.9049
  820MOL0     C13026   2.753   4.663   4.228 -0.0387  0.2078 -0.3211
  820MOL0     C13027   2.806   4.572   4.142 -0.5976  0.6863  0.1734
  820MOL0     C13028   2.778   4.558   4.005 -0.5317  0.9615 -0.2092
  820MOL0     C13029   2.688   4.657   3.950 -0.6073 -0.1007 -0.8029
  820MOL0     O13030   2.655   4.649   3.818 -0.4353  0.2368  0.0905
  820MOL0     C13031   2.685   4.526   3.751  0.7300  0.0805 -0.4014
  820MOL0     C13032   2.589   4.512   3.633  0.3626  0.7271  0.1941
  820MOL0     C13033   2.592   4.613   3.522 -0.2968 -0.2863  1.2304
  820MOL0     C13034   2.482   4.586   3.408  0.4144  0.2517  0.4968
  820MOL0     C13035   2.543   4.510   3.284  0.4816 -1.2817 -0.7575
  820MOL0     C13036   2.433   4.481   3.188  0.3802  0.6283  0.4563
  820MOL0     C13037   2.470   4.415   3.057  0.8054  1.4323 -0.4628
  820MOL0     C13038   2.592   4.466   2.982 -0.9390  1.1150 -0.3019
  820MOL0     N13039   2.594   4.405   2.844 -0.5174 -0.1890  0.2074
  820MOL0     C13040   2.490   4.406   2.759  0.5267  0.0414 -0.2773
  820MOL0     C13041   2.533   4.346   2.647  0.3441  1.0412  0.4533
  820MOL0     C13042   2.455   4.337   2.514  0.3439  0.0318 -0.4284
  820MOL0     C13043   2.527   4.391   2.393 -0.4017 -0.2717 -1.1079
  820MOL0     C13044   2.463   4.381   2.251 -0.1286  0.4203  0.3434
  820MOL0     C13045   2.531   4.485   2.156  0.1781 -0.1878  0.0155
  820MOL0     O13046   2.659   4.447   2.128 -0.6542 -0.4833 -0.2268
  820MOL0     C13047   2.671   4.328   2.052 -0.7227 -0.2402 -0.4188
  820MOL0     C13048   2.715   4.202   2.113  0.7886 -0.3453  0.9063
  820MOL0     C13049   2.726   4.078   2.042  0.7986 -0.3530  0.1506
  820MOL0     C13050   2.761   3.960   2.128  0.3723 -0.8281 -0.3209
  820MOL0     C13051   2.690   4.073   1.907 -0.0109 -0.3002 -0.1876
  820MOL0     C13052   2.684   3.955   1.821 -0.3072 -0.0751 -0.0379
  820MOL0     O13053   2.698   3.972   1.691 -0.0274 -0.0935  0.0097
  820MOL0     C13054   2.630   3.893   1.604  0.2802  0.7435  1.0109
  820MOL0     C13055   2.542   3.783   1.620 -0.8014 -0.9908 -0.5612
  820MOL0     C13056   2.494   3.715   1.513  1.2979  0.1654  0.1334
  820MOL0     C13057   2.525   3.749   1.380 -0.5489  0.3047  0.1507
  820MOL0     O13058   2.473   3.667   1.288  0.3865  0.6335  0.2051
  820MOL0     C13059   2.494   3.690   1.143  0.2312 -0.3533  0.2228
  820MOL0     C13060   2.424   3.815   1.087  0.3313 -0.1700 -0.0177
  820MOL0     C13061   2.286   3.786   1.029 -0.1194 -0.3126 -0.6686
  820MOL0     C13062   2.293   3.789   0.878 -0.1337 -0.4180  0.3873
  820MOL0     C13063   2.157   3.774   0.826  0.2853 -0.1439  1.0062
  820MOL0     C13064   2.175   3.771   0.669  0.4220  0.1281 -0.3818
  820MOL0     C13065   2.053   3.723   0.588  0.0606  0.7290 -0.5492
  820MOL0     C13066   2.012   3.819   0.481  0.2681 -0.1332  0.2597
  820MOL0    Cl13067   2.111   3.792   0.338 -0.1011  0.0590 -0.4615
  820MOL0     C13068   2.608   3.858   1.355  0.6269  0.4487  0.2720
  820MOL0     C13069   2.658   3.930   1.471 -0.5269 -0.1318  0.8152
  820MOL0     O13070   2.664   3.843   1.875  0.4400 -0.0546  0.0594
  820MOL0     C13071   2.642   4.198   1.849 -0.0150 -0.7839 -0.4856
  820MOL0     C13072   2.632   4.322   1.925  0.0437 -0.1094 -0.9746
  820MOL0     N13073   2.659   4.305   2.663 -0.5843 -0.1009 -0.0861
  820MOL0     N13074   2.696   4.335   2.784  0.1446  0.4389 -0.4023
  820MOL0     C13075   2.622   4.736   4.034  0.4346  0.3351  0.0566
  820MOL0     C13076   2.650   4.741   4.163 -0.1451  0.1355 -0.7377
  820MOL0     C13077   2.928   4.734   4.546 -0.7043  0.3108  0.5276
  820MOL0     C13078   3.062   4.710   4.601  0.5758 -0.2687  0.2879
  820MOL0     C13079   3.081   4.728   4.740 -0.9075  1.1135 -0.3719
  820MOL0     C13080   2.975   4.754   4.826 -0.2859  0.4969  0.3167
  820MOL0     O13081   2.985   4.777   4.960 -1.2917 -0.1235  0.1203
  820MOL0     C13082   3.093   4.856   5.007 -0.4996  0.1170  0.3411
  820MOL0     C13083   3.061   4.877   5.152 -0.1829 -0.1207 -1.4926
  820MOL0     C13084   3.165   4.988   5.214 -0.9085 -0.1115 -0.0661
  820MOL0     C13085   3.106   5.069   5.325 -0.0615  0.0703 -0.7149
  820MOL0     C13086   3.061   4.980   5.436 -0.2791  0.2572 -0.8239
  820MOL0     C13087   3.060   4.896   5.524  1.3879 -0.3715 -0.2847
  820MOL0     C13088   2.853   4.787   4.769  0.3641 -1.0646  0.2508
  820MOL0     C13089   2.826   4.783   4.628  0.0097 -0.2386  0.2951
  820MOL0     C13090   2.686   4.842   4.583 -0.5499  0.0698 -0.4555
  820MOL0     H13091   2.871   4.501   4.191  1.5172  3.9713  2.5376
  820MOL0     H13092   2.832   4.482   3.949 -1.6114  0.6727 -0.8828
  820MOL0     H13093   2.678   4.435   3.812 -1.9672 -1.4524 -2.7300
  820MOL0     H13094   2.788   4.533   3.715  2.4363 -0.9603  3.7404
  820MOL0     H13095   2.584   4.410   3.594 -3.0937  0.9233 -0.1306
  820MOL0     H13096   2.491   4.532   3.675 -1.4165  0.2503 -3.3620
  820MOL0     H13097   2.579   4.711   3.566 -1.2819  0.0302  0.2878
  820MOL0     H13098   2.694   4.613   3.480 -1.2767  0.1597 -1.3686
  820MOL0     H13099   2.401   4.527   3.449 -0.1696  1.8599  1.7774
  820MOL0     H13100   2.443   4.686   3.386 -0.6159 -0.0410  0.9392
  820MOL0     H13101   2.586   4.413   3.308  0.2585 -1.6235 -1.6850
  820MOL0     H13102   2.624   4.572   3.245  1.7653 -2.1191  0.5062
  820MOL0     H13103   2.359   4.420   3.239 -0.7288  1.2711 -0.3426
  820MOL0     H13104   2.384   4.578   3.173 -0.6188  0.0577 -0.0436
  820MOL0     H13105   2.382   4.418   2.993 -0.9531 -0.0623  1.7349
  820MOL0     H13106   2.493   4.312   3.087  1.0467  1.7275  0.3887
  820MOL0     H13107   2.593   4.575   2.973 -2.7781  1.4875  2.7455
  820MOL0     H13108   2.684   4.442   3.036 -0.6044 -0.2901 -1.4170
  820MOL0     H13109   2.385   4.432   2.771 -0.1838 -2.0675 -1.4570
  820MOL0     H13110   2.365   4.394   2.538  2.1963  3.2165 -0.4435
  820MOL0     H13111   2.410   4.238   2.498 -3.6831  1.6559 -0.1635
  820MOL0     H13112   2.561   4.494   2.411  2.2661 -1.4544  1.5984
  820MOL0     H13113   2.623   4.340   2.384  1.3307  1.8918  2.6086
  820MOL0     H13114   2.460   4.283   2.204 -1.3930  0.1256  0.9783
  820MOL0     H13115   2.357   4.408   2.254 -0.6681 -1.5330  3.0464
  820MOL0     H13116   2.469   4.504   2.068 -1.8493 -1.5628  1.0635
  820MOL0     H13117   2.548   4.580   2.207  0.8547  0.2237 -0.9523
  820MOL0     H13118   2.747   4.208   2.216  3.4848 -1.2529  0.2204
  820MOL0     H13119   2.665   3.914   2.154  0.6574 -0.3097  1.8942
  820MOL0     H13120   2.812   3.991   2.220 -0.9866  0.6811 -0.0079
  820MOL0     H13121   2.822   3.888   2.074 -2.2533 -0.6528 -3.9070
  820MOL0     H13122   2.497   3.743   1.711  0.0367 -0.6109  0.0403
  820MOL0     H13123   2.422   3.637   1.535  2.9134 -1.2558  0.6077
  820MOL0     H13124   2.600   3.699   1.118 -0.2204  1.8999 -1.2344
  820MOL0     H13125   2.457   3.606   1.083  1.6467 -0.1341 -1.0104
  820MOL0     H13126   2.421   3.880   1.174  3.3157 -1.3241  1.0796
  820MOL0     H13127   2.495   3.859   1.016  0.2330  0.7841  0.4677
  820MOL0     H13128   2.225   3.867   1.068  3.8401  2.8452 -0.3456
  820MOL0     H13129   2.263   3.684   1.059 -0.6606 -1.4967 -4.5428
  820MOL0     H13130   2.365   3.713   0.845  0.1627 -0.2780  0.6993
  820MOL0     H13131   2.323   3.890   0.848 -2.2266 -0.2777 -1.4368
  820MOL0     H13132   2.117   3.680   0.863 -2.5220  1.0338  1.2788
  820MOL0     H13133   2.092   3.859   0.853 -2.8637 -2.5817  1.6567
  820MOL0     H13134   2.260   3.710   0.640  1.4399  0.5669  1.4935
  820MOL0     H13135   2.201   3.870   0.631 -1.2812 -0.0751 -2.2656
  820MOL0     H13136   1.977   3.709   0.664  0.8362 -0.6074  0.0148
  820MOL0     H13137   2.072   3.621   0.553  1.7646  1.6134 -2.4239
  820MOL0     H13138   2.023   3.926   0.504 -2.2292 -0.1186  1.7597
  820MOL0     H13139   1.904   3.807   0.465  0.4902 -3.1314  0.5532
  820MOL0     H13140   2.634   3.885   1.253 -0.6511  1.2372  0.1298
  820MOL0     H13141   2.726   4.013   1.451  0.9853 -1.6859 -0.9187
  820MOL0     H13142   2.590   4.206   1.754 -1.6571 -1.3228  0.3376
  820MOL0     H13143   2.590   4.414   1.885 -1.3459  0.0042  0.6310
  820MOL0     H13144   2.552   4.807   3.990  1.2248  2.1556  1.5663
  820MOL0     H13145   2.593   4.804   4.231  1.2516 -0.0315  0.6626
  820MOL0     H13146   3.144   4.699   4.531 -1.6023 -0.8715 -2.3609
  820MOL0     H13147   3.179   4.718   4.786 -2.2166 -0.5370  2.3097
  820MOL0     H13148   3.196   4.821   4.997 -1.0579 -1.2009 -1.1052
  820MOL0     H13149   3.089   4.956   4.962 -0.4665  1.3843  2.9731
  820MOL0     H13150   3.061   4.779   5.201  1.0607  0.0910 -1.0325
  820MOL0     H13151   2.958   4.912   5.165  0.5479  2.1843 -1.5580
  820MOL0     H13152   3.262   4.947   5.246  0.3175  2.1648 -0.5938
  820MOL0     H13153   3.191   5.066   5.142 -1.1925  0.9213  0.9251
  820MOL0     H13154   3.022   5.131   5.294  1.5868  3.0329  0.4122
  820MOL0     H13155   3.181   5.140   5.359 -0.3884  0.3937 -0.6612
  820MOL0     H13156   3.040   4.832   5.608 -2.1043  0.7565 -0.0794
  820MOL0     H13157   2.776   4.820   4.839 -0.5022 -2.4634  0.0192
  820MOL0     H13158   2.699   4.874   4.480  4.4736 -3.1905 -1.2009
  820MOL0     H13159   2.626   4.750   4.590  1.2104 -1.1301 -0.5807
  820MOL0     H13160   2.642   4.907   4.659 -2.3847  1.7242 -2.7967
  821MOL0     O13161   1.084   5.853   9.258 -0.0428 -0.0787 -1.0606
  821MOL0     C13162   1.167   5.804   9.188  0.5699  0.9275 -0.4361
  821MOL0     O13163   1.307   5.818   9.199 -0.0822  0.4941  0.9391
  821MOL0     C13164   1.341   5.902   9.291  0.4095  0.0457  0.3326
  821MOL0     C13165   1.366   6.039   9.254 -0.4341  0.2387 -0.6799
  821MOL0     C13166   1.398   6.136   9.350 -0.0765  0.7825 -0.3761
  821MOL0     C13167   1.405   6.097   9.485  0.3365 -0.3280  0.3165
  821MOL0     O13168   1.451   6.185   9.571 -0.5014 -0.5418  0.2701
  821MOL0     C13169   1.440   6.329   9.539  0.3577  0.1502 -0.7747
  821MOL0     C13170   1.439   6.419   9.673 -0.4536  0.4346  0.0556
  821MOL0     C13171   1.307   6.387   9.744  0.1275 -0.0109 -0.0742
  821MOL0     C13172   1.263   6.496   9.843 -1.5661  0.0986  0.3106
  821MOL0     C13173   1.115   6.489   9.881  0.3209  0.5267 -0.0923
  821MOL0     C13174   1.042   6.629   9.884  0.9973  0.6854 -0.1457
  821MOL0     C13175   0.897   6.623   9.942  0.2184  0.9729  0.1259
  821MOL0     C13176   0.810   6.735   9.875  0.3276  0.9630 -0.3037
  821MOL0     N13177   0.783   6.712   9.734 -0.7068  0.6857 -0.2445
  821MOL0     C13178   0.689   6.637   9.669  0.2990  0.5235  0.5998
  821MOL0     C13179   0.691   6.682   9.543  0.4284  0.3004  0.3020
  821MOL0     C13180   0.593   6.638   9.438  0.1543  0.5523  0.4867
  821MOL0     C13181   0.620   6.499   9.373 -0.8265  0.3091 -0.3085
  821MOL0     C13182   0.533   6.483   9.248 -0.5179  0.0678  0.2191
  821MOL0     C13183   0.579   6.542   9.118 -0.4419 -0.4618  1.6317
  821MOL0     O13184   0.708   6.500   9.060 -0.0981  0.1671 -0.7560
  821MOL0     C13185   0.763   6.561   8.950 -0.0958  0.5093 -0.1177
  821MOL0     C13186   0.741   6.490   8.825 -0.0174 -0.1172 -0.6963
  821MOL0     C13187   0.780   6.549   8.703  0.2697  0.3636 -0.2697
  821MOL0     C13188   0.765   6.449   8.581  0.0948 -0.4209 -1.1309
  821MOL0     C13189   0.834   6.680   8.700 -0.7122 -0.5923  0.6000
  821MOL0     C13190   0.889   6.741   8.574  0.2597  0.3016 -0.1118
  821MOL0     O13191   0.878   6.869   8.560  0.0781  0.0254  0.4996
  821MOL0     C13192   0.906   6.933   8.440 -0.7539  0.1070  0.0241
  821MOL0     C13193   0.876   6.881   8.310 -0.2686  0.7730  0.0283
  821MOL0     C13194   0.904   6.952   8.198 -1.1564 -0.2627 -0.7756
  821MOL0     C13195   0.971   7.073   8.202  0.4234  0.1439  0.1380
  821MOL0     O13196   0.996   7.122   8.078 -0.2513  0.4702  0.1490
  821MOL0     C13197   0.917   7.233   8.039  0.2029 -0.1026 -0.7481
  821MOL0     C13198   0.906   7.218   7.890  0.9152  0.1802  0.8386
  821MOL0     C13199   0.862   7.342   7.829  0.1150  0.8438 -0.3187
  821MOL0     C13200   0.733   7.402   7.878  0.7388  0.0434 -0.0690
  821MOL0     C13201   0.611   7.326   7.835 -0.7421 -0.0740 -0.2914
  821MOL0     C13202   0.485   7.372   7.897  0.3149  0.4785 -0.6236
  821MOL0     C13203   0.471   7.324   8.039 -0.0965  0.3696  0.0601
  821MOL0     C13204   0.500   7.425   8.150  0.7380  0.4069  0.1868
  821MOL0    Cl13205   0.459   7.350   8.306  0.2842 -0.2362  0.9407
  821MOL0     C13206   0.992   7.124   8.330  0.2132 -1.2238 -0.7604
  821MOL0     C13207   0.967   7.056   8.453 -0.1857 -1.4305 -0.2193
  821MOL0     O13208   0.946   6.669   8.491 -0.6543  0.8151 -0.8467
  821MOL0     C13209   0.833   6.753   8.821 -0.2649  0.2814 -0.5921
  821MOL0     C13210   0.811   6.691   8.944 -0.9393  0.5814 -1.2787
  821MOL0     N13211   0.801   6.763   9.522  0.5698 -1.0035 -0.2548
  821MOL0     N13212   0.852   6.788   9.639  0.1633 -0.7200  1.2685
  821MOL0     C13213   1.407   5.958   9.521  0.0181 -0.2946  0.6450
  821MOL0     C13214   1.372   5.866   9.423  0.7144  1.3650  0.6318
  821MOL0     C13215   1.119   5.704   9.081  0.4422  0.9331 -0.2639
  821MOL0     C13216   1.030   5.602   9.108  0.3218  0.0941  1.5038
  821MOL0     C13217   1.000   5.516   9.002  0.9793 -0.3390 -0.3279
  821MOL0     C13218   1.064   5.525   8.876  1.3866  0.5783  1.1463
  821MOL0     O13219   1.017   5.431   8.781 -0.0008 -0.4077  0.7969
  821MOL0     C13220   1.079   5.408   8.651  0.3180  0.0131  0.3531
  821MOL0     C13221   0.990   5.326   8.561 -0.1099 -0.7565  0.4042
  821MOL0     C13222   0.866   5.419   8.516 -0.9398  0.4825 -0.9377
  821MOL0     C13223   0.756   5.426   8.620 -0.9183 -1.0017 -0.2635
  821MOL0     C13224   0.642   5.508   8.583  0.6552  0.1617  0.3285
  821MOL0     C13225   0.540   5.571   8.546  0.0755  0.7980  0.3722
  821MOL0     C13226   1.157   5.622   8.849 -0.1085 -0.5219  0.3303
  821MOL0     C13227   1.174   5.708   8.948 -0.8403  0.2003  0.1810
  821MOL0     C13228   1.283   5.811   8.910  0.2076 -0.0886  0.3971
  821MOL0     H13229   1.349   6.073   9.152  0.7063  0.5018 -0.7919
  821MOL0     H13230   1.419   6.235   9.310  1.4659  0.6514  0.0614
  821MOL0     H13231   1.347   6.351   9.486 -0.0968 -1.5968 -0.7669
  821MOL0     H13232   1.517   6.376   9.477  0.8597 -0.1091 -0.3545
  821MOL0     H13233   1.520   6.408   9.746  0.2410  4.3395  0.0704
  821MOL0     H13234   1.453   6.517   9.626  5.2708 -0.6034 -1.1899
  821MOL0     H13235   1.224   6.384   9.673  0.8636 -4.2840 -0.9777
  821MOL0     H13236   1.301   6.292   9.797 -0.6643 -0.2098 -0.4930
  821MOL0     H13237   1.329   6.476   9.928 -0.9814 -2.1932 -0.5861
  821MOL0     H13238   1.287   6.594   9.800 -0.0164 -0.6768 -0.7203
  821MOL0     H13239   1.095   6.446   9.980 -0.7936  0.4908 -0.3292
  821MOL0     H13240   1.072   6.420   9.809  3.2620 -1.0363 -0.5349
  821MOL0     H13241   1.095   6.690   9.957  1.6351  0.7312 -0.6381
  821MOL0     H13242   1.045   6.673   9.784 -1.1654 -3.5521 -2.3592
  821MOL0     H13243   0.897   6.647  10.049 -0.7311 -4.0601  1.5073
  821MOL0     H13244   0.845   6.528   9.928 -0.8687  1.5103  0.3928
  821MOL0     H13245   0.710   6.717   9.916  0.9341 -2.8696 -0.2125
  821MOL0     H13246   0.841   6.839   9.890  1.0906  0.3380  3.7685
  821MOL0     H13247   0.627   6.565   9.720  1.3202  0.0959  1.2719
  821MOL0     H13248   0.594   6.714   9.359 -4.5694  0.0853 -0.3313
  821MOL0     H13249   0.491   6.648   9.477 -1.1180  2.3678 -2.8675
  821MOL0     H13250   0.722   6.510   9.334 -0.4412  1.3099  0.9078
  821MOL0     H13251   0.615   6.419   9.447  1.8330  0.7437  0.4516
  821MOL0     H13252   0.535   6.376   9.223  0.1857  0.1745 -0.1816
  821MOL0     H13253   0.433   6.522   9.271  0.1751  0.9004  2.0305
  821MOL0     H13254   0.490   6.527   9.057 -0.4849 -1.6870  1.9602
  821MOL0     H13255   0.595   6.647   9.145  1.3289 -0.0901 -0.5449
  821MOL0     H13256   0.718   6.384   8.822 -0.8767 -0.1655  2.9623
  821MOL0     H13257   0.863   6.400   8.575  0.5487  0.5058 -1.5623
  821MOL0     H13258   0.736   6.508   8.494  0.7509  3.6376  1.1282
  821MOL0     H13259   0.686   6.373   8.586 -0.5404  0.0487 -3.0316
  821MOL0     H13260   0.835   6.780   8.305 -0.3077  0.8419 -1.2027
  821MOL0     H13261   0.892   6.918   8.095  0.3942  1.9025 -1.7548
  821MOL0     H13262   0.824   7.226   8.096  0.1900 -0.0431 -0.7625
  821MOL0     H13263   0.971   7.320   8.077 -1.7435 -0.0555  2.1607
  821MOL0     H13264   1.005   7.209   7.843  1.2863  2.3641  1.0875
  821MOL0     H13265   0.848   7.127   7.870  0.6537  0.4568  0.3077
  821MOL0     H13266   0.835   7.324   7.725  0.2800 -1.8805  0.0420
  821MOL0     H13267   0.948   7.409   7.832  0.0741  1.0852 -2.8668
  821MOL0     H13268   0.721   7.504   7.840  0.0124 -0.1975 -0.5002
  821MOL0     H13269   0.731   7.399   7.987  0.7714 -0.4079 -0.0813
  821MOL0     H13270   0.608   7.335   7.726  3.5817 -4.4875 -1.1014
  821MOL0     H13271   0.625   7.219   7.852 -0.1091  0.1107  0.3633
  821MOL0     H13272   0.412   7.329   7.828 -0.0248 -1.3999  0.8179
  821MOL0     H13273   0.476   7.481   7.887  4.1388  0.8170 -1.5891
  821MOL0     H13274   0.524   7.230   8.057 -0.0643  0.2460 -0.6356
  821MOL0     H13275   0.366   7.293   8.039  0.2248 -0.8456 -1.2993
  821MOL0     H13276   0.451   7.518   8.122  0.7049 -0.0220 -1.2627
  821MOL0     H13277   0.607   7.444   8.141  0.8509 -0.0644  0.4599
  821MOL0     H13278   1.030   7.225   8.320  0.7368 -1.5178 -1.8984
  821MOL0     H13279   1.004   7.100   8.546  1.4371 -2.3891 -0.3744
  821MOL0     H13280   0.864   6.856   8.835  0.1197  0.0310  0.4621
  821MOL0     H13281   0.827   6.746   9.037  2.5236  4.0830 -3.6117
  821MOL0     H13282   1.422   5.925   9.623  1.1717  0.8272  0.8577
  821MOL0     H13283   1.359   5.763   9.456 -0.9896  1.0048 -1.0094
  821MOL0     H13284   0.993   5.583   9.208  2.5732  0.4030  2.4731
  821MOL0     H13285   0.924   5.440   9.018  1.7799 -2.1034 -3.8827
  821MOL0     H13286   1.110   5.497   8.595 -1.6897  0.4849 -0.0745
  821MOL0     H13287   1.173   5.352   8.657 -0.1586 -0.8662 -0.1299
  821MOL0     H13288   0.952   5.243   8.622 -0.3758 -0.0948  1.1681
  821MOL0     H13289   1.041   5.282   8.476  1.1909 -0.2526  0.8999
  821MOL0     H13290   0.900   5.522   8.501 -0.9866  0.2676 -2.6649
  821MOL0     H13291   0.816   5.389   8.424 -0.5918  3.3593 -2.1911
  821MOL0     H13292   0.803   5.472   8.708  0.6247 -1.4827 -0.8115
  821MOL0     H13293   0.736   5.327   8.660 -0.9924 -0.2986  1.5287
  821MOL0     H13294   0.454   5.629   8.518  1.1046  1.0482 -2.6575
  821MOL0     H13295   1.190   5.638   8.746 -1.0095 -3.1388 -0.4494
  821MOL0     H13296   1.288   5.847   8.807  1.2447 -1.0571  0.0827
  821MOL0     H13297   1.259   5.903   8.964  1.1734  1.9406 -2.4202
  821MOL0     H13298   1.380   5.763   8.926 -0.3317 -0.9135  1.3639
  822MOL0     O13299   9.394   7.291   8.961  0.1864  1.1511 -0.0751
  822MOL0     C13300   9.297   7.226   9.002 -0.4915 -0.9136 -0.5124
  822MOL0     O13301   9.213   7.282   9.098  0.1364  0.4227  0.1278
  822MOL0     C13302   9.223   7.400   9.160  0.1272  0.0030  0.1402
  822MOL0     C13303   9.193   7.505   9.084  0.4448 -0.0828 -0.4550
  822MOL0     C13304   9.191   7.638   9.131  0.3130 -0.1057 -0.2080
  822MOL0     C13305   9.233   7.662   9.264 -0.3342 -0.4851  0.2979
  822MOL0     O13306   9.249   7.778   9.336 -0.2639  0.4576 -0.3669
  822MOL0     C13307   9.187   7.892   9.282 -0.3700  0.2883  0.3103
  822MOL0     C13308   9.179   7.995   9.392 -0.3711 -0.7349 -0.2772
  822MOL0     C13309   9.095   8.117   9.341  0.5294  0.2373 -0.2694
  822MOL0     C13310   9.120   8.239   9.407 -0.5006 -0.2844  0.1718
  822MOL0     C13311   9.245   8.315   9.378 -0.7481  0.0444  0.4207
  822MOL0     C13312   9.270   8.411   9.496 -0.6153 -0.1935  0.6718
  822MOL0     C13313   9.358   8.329   9.597 -0.1641 -0.2948  0.2082
  822MOL0     C13314   9.415   8.407   9.713  0.4382 -0.6460  0.2102
  822MOL0     N13315   9.316   8.442   9.815  0.1233  1.1272 -0.8368
  822MOL0     C13316   9.272   8.364   9.924  0.9869 -0.0400  0.1491
  822MOL0     C13317   9.181   8.444   9.990 -0.6517  0.0248 -0.5466
  822MOL0     C13318   9.101   8.418  10.111  0.2370  0.5713 -0.2066
  822MOL0     C13319   8.991   8.319  10.093 -1.0718  0.3984 -0.4870
  822MOL0     C13320   9.046   8.173  10.125  0.6222  0.2233 -0.5401
  822MOL0     C13321   8.945   8.066  10.099 -0.5915  0.5198 -0.4132
  822MOL0     O13322   8.833   8.087  10.180 -0.6687  0.2992 -0.1128
  822MOL0     C13323   8.838   8.036  10.313  0.3685 -0.2815  0.6432
  822MOL0     C13324   8.924   7.932  10.358  0.4499  0.2845  1.0873
  822MOL0     C13325   8.918   7.868  10.479 -0.3964  1.2715  0.0622
  822MOL0     C13326   8.995   7.743  10.499 -0.1200  0.7059  0.4962
  822MOL0     C13327   8.833   7.919  10.578  0.5448 -0.2776  0.7634
  822MOL0     C13328   8.816   7.860  10.702  0.2843  0.0458 -0.1774
  822MOL0     O13329   8.871   7.917  10.814  0.6545 -0.1209 -0.4712
  822MOL0     C13330   8.830   7.859  10.934 -0.1412 -0.7711 -0.6708
  822MOL0     C13331   8.702   7.817  10.971 -0.4078 -0.0159 -0.0271
  822MOL0     C13332   8.676   7.771  11.105  0.0771 -0.0140  0.1209
  822MOL0     C13333   8.772   7.780  11.202 -0.1746 -0.1208  1.1286
  822MOL0     O13334   8.750   7.731  11.330 -0.1277  0.3915  0.2384
  822MOL0     C13335   8.687   7.611  11.355  0.2139  0.0884 -0.4479
  822MOL0     C13336   8.650   7.616  11.499 -0.4778 -0.1169  0.4134
  822MOL0     C13337   8.522   7.704  11.517  0.5782 -0.4330  0.3864
  822MOL0     C13338   8.480   7.734  11.665  0.1499 -0.6676 -0.7671
  822MOL0     C13339   8.358   7.818  11.670  0.5517 -0.4438 -0.5058
  822MOL0     C13340   8.302   7.824  11.819  0.0762 -0.1256 -0.0552
  822MOL0     C13341   8.375   7.907  11.923 -1.2655  0.6373 -1.4987
  822MOL0     C13342   8.382   7.846  12.060  0.1055  0.1766 -0.0187
  822MOL0    Cl13343   8.225   7.826  12.138  0.2343  0.0108  0.0804
  822MOL0     C13344   8.890   7.822  11.162  0.4455  0.6823 -0.1501
  822MOL0     C13345   8.922   7.870  11.035  0.4031 -0.7143  0.5575
  822MOL0     O13346   8.759   7.757  10.703 -0.2187 -0.5400  0.0266
  822MOL0     C13347   8.756   8.026  10.550  0.3406 -1.1560  0.8423
  822MOL0     C13348   8.754   8.082  10.414 -0.0779 -0.0878  0.2390
  822MOL0     N13349   9.163   8.551   9.902  1.2194  1.1305  0.4350
  822MOL0     N13350   9.238   8.554   9.801  0.3143  0.3897  0.2452
  822MOL0     C13351   9.278   7.549   9.336  0.6367  0.4607  1.0434
  822MOL0     C13352   9.278   7.418   9.291  0.2374  0.5801 -0.0355
  822MOL0     C13353   9.254   7.103   8.936 -1.2710  0.4740  0.1980
  822MOL0     C13354   9.124   7.066   8.953 -0.0646 -0.1049 -0.2577
  822MOL0     C13355   9.063   6.951   8.885  0.6260  0.1568 -0.3862
  822MOL0     C13356   9.145   6.860   8.822 -0.6451 -0.2091 -0.5871
  822MOL0     O13357   9.100   6.742   8.763 -0.4030  0.3615  0.1521
  822MOL0     C13358   9.063   6.630   8.855  0.0534  0.7619  0.1635
  822MOL0     C13359   9.081   6.653   9.009 -0.6449  0.6508  0.7957
  822MOL0     C13360   9.074   6.526   9.095  0.7405 -0.6186 -0.2540
  822MOL0     C13361   8.997   6.401   9.030 -0.4115  0.3309 -0.3474
  822MOL0     C13362   8.862   6.411   8.992  0.5970  1.0119 -0.4416
  822MOL0     C13363   8.746   6.383   8.967 -0.3151  0.3958  0.8924
  822MOL0     C13364   9.280   6.911   8.798 -0.8056 -1.3650 -0.1916
  822MOL0     C13365   9.332   7.028   8.840  1.3552  0.6859 -0.9122
  822MOL0     C13366   9.464   7.058   8.784  0.3462  0.4571  1.1784
  822MOL0     H13367   9.159   7.468   8.988  0.1942 -3.9381  0.9321
  822MOL0     H13368   9.177   7.722   9.065 -2.4663  0.9494  1.5385
  822MOL0     H13369   9.090   7.870   9.237  1.9431 -3.6535 -3.5447
  822MOL0     H13370   9.256   7.934   9.209 -0.1205 -0.5509  0.0538
  822MOL0     H13371   9.125   7.962   9.481  2.4023  0.1711  1.8712
  822MOL0     H13372   9.281   8.019   9.423 -0.4624 -1.4381  0.5935
  822MOL0     H13373   9.107   8.141   9.235 -1.6155  1.9266 -0.2197
  822MOL0     H13374   8.991   8.087   9.358  0.8237 -0.6537  0.0171
  822MOL0     H13375   9.036   8.308   9.398  1.2629  2.0087  0.5830
  822MOL0     H13376   9.121   8.214   9.514 -0.3737  0.8829  0.4516
  822MOL0     H13377   9.219   8.379   9.293  0.5625 -0.4727 -0.4031
  822MOL0     H13378   9.336   8.265   9.345 -0.5484  2.1211 -2.6053
  822MOL0     H13379   9.330   8.497   9.465  0.0234 -1.3374 -1.4888
  822MOL0     H13380   9.183   8.444   9.553  0.4828  2.2677  1.0451
  822MOL0     H13381   9.441   8.278   9.548 -1.2853 -0.6828 -1.3343
  822MOL0     H13382   9.301   8.254   9.652  0.5745 -0.0048  1.4078
  822MOL0     H13383   9.485   8.331   9.748 -0.8677 -2.6257 -1.3314
  822MOL0     H13384   9.465   8.491   9.663 -1.3910 -0.8115 -2.0250
  822MOL0     H13385   9.304   8.261   9.936  6.0269  1.0854 -1.2459
  822MOL0     H13386   9.052   8.514  10.129 -3.5008 -1.4440  1.9475
  822MOL0     H13387   9.157   8.389  10.201 -1.3066 -1.4628  0.1918
  822MOL0     H13388   8.905   8.342  10.157 -1.8181 -3.0451 -0.0441
  822MOL0     H13389   8.959   8.322   9.988  0.0865 -0.8314 -0.9054
  822MOL0     H13390   9.136   8.160  10.065  0.0707  2.7065 -2.0466
  822MOL0     H13391   9.070   8.167  10.231 -0.3130  2.3690 -0.1570
  822MOL0     H13392   8.907   8.067   9.996 -0.4444  0.5242 -0.4669
  822MOL0     H13393   8.996   7.970  10.109  0.1668  0.9283 -0.3495
  822MOL0     H13394   8.992   7.878  10.293 -1.2011  1.1113 -1.4897
  822MOL0     H13395   9.005   7.708  10.602  1.3572  0.3157  0.2380
  822MOL0     H13396   9.097   7.751  10.460 -0.2305 -0.1666  0.0125
  822MOL0     H13397   8.943   7.664  10.444  0.8247 -0.5993  1.4013
  822MOL0     H13398   8.620   7.830  10.901 -1.1625  0.1370  0.8650
  822MOL0     H13399   8.573   7.750  11.130  0.1175 -1.7971 -1.0629
  822MOL0     H13400   8.600   7.610  11.288 -0.2912  2.3191  0.0954
  822MOL0     H13401   8.760   7.539  11.317  3.1324  0.7123  3.3972
  822MOL0     H13402   8.617   7.515  11.522  0.9986 -1.2377 -2.0095
  822MOL0     H13403   8.740   7.637  11.558 -1.5021  6.1001  0.4163
  822MOL0     H13404   8.447   7.650  11.458  2.2472 -2.0652 -0.3306
  822MOL0     H13405   8.545   7.797  11.466 -0.7403 -1.1368 -1.6337
  822MOL0     H13406   8.561   7.796  11.704  0.1118  0.2024 -2.0226
  822MOL0     H13407   8.484   7.647  11.732  0.1278  1.4923  2.2485
  822MOL0     H13408   8.366   7.920  11.633  1.8350 -0.4813 -0.3664
  822MOL0     H13409   8.287   7.763  11.607 -0.4573 -1.2422  1.2395
  822MOL0     H13410   8.293   7.723  11.861 -1.3464  0.6206  1.5617
  822MOL0     H13411   8.207   7.874  11.799 -0.8403 -1.2319  1.3404
  822MOL0     H13412   8.334   8.008  11.932  0.4093  1.1882  0.7100
  822MOL0     H13413   8.475   7.924  11.883 -0.7637 -0.1656 -0.6222
  822MOL0     H13414   8.441   7.904  12.132  0.1957 -2.9486  2.6826
  822MOL0     H13415   8.426   7.746  12.064 -0.5809 -0.2203 -1.5763
  822MOL0     H13416   8.967   7.831  11.239  2.2632  1.6155 -1.9854
  822MOL0     H13417   9.011   7.922  11.002  0.6501 -1.2940  0.2907
  822MOL0     H13418   8.675   8.048  10.619  0.6040  1.8877  0.3063
  822MOL0     H13419   8.684   8.159  10.384 -0.7081 -0.5503  0.4923
  822MOL0     H13420   9.311   7.572   9.436  1.9480 -0.3103  0.8070
  822MOL0     H13421   9.324   7.344   9.355 -1.7000  2.1745  3.5409
  822MOL0     H13422   9.055   7.117   9.020  1.1798 -2.9746  3.6208
  822MOL0     H13423   8.961   6.915   8.895  1.2626 -1.3742  1.1050
  822MOL0     H13424   8.961   6.592   8.840 -0.5656  1.4161  2.4013
  822MOL0     H13425   9.123   6.541   8.832  0.1035  1.0682 -0.9509
  822MOL0     H13426   8.998   6.718   9.041 -2.6173 -1.6253  0.5727
  822MOL0     H13427   9.178   6.701   9.019  0.3452 -1.5848  3.0391
  822MOL0     H13428   9.174   6.490   9.121  1.6500  2.2742  0.6858
  822MOL0     H13429   9.026   6.544   9.192 -0.8902 -0.5074 -1.0445
  822MOL0     H13430   8.998   6.318   9.100 -1.3559 -0.3582 -1.1189
  822MOL0     H13431   9.058   6.373   8.943 -1.1441  2.1412 -1.5321
  822MOL0     H13432   8.641   6.375   8.945 -1.0951  2.3068  3.3666
  822MOL0     H13433   9.337   6.848   8.731 -0.4508  1.6320 -2.8919
  822MOL0     H13434   9.551   7.049   8.850  2.7825  0.2864 -1.8244
  822MOL0     H13435   9.479   7.000   8.692  0.4944  2.9410 -0.4714
  822MOL0     H13436   9.452   7.164   8.760 -1.5951  0.1774  0.7273
  823MOL0     O13437   3.203   1.136   1.501 -0.1083 -0.1685  0.3819
  823MOL0     C13438   3.184   1.081   1.392  0.2171  0.5916  0.2056
  823MOL0     O13439   3.073   1.105   1.315 -0.1677 -0.0403  0.4247
  823MOL0     C13440   3.005   1.222   1.351  0.1568 -0.3339 -0.3772
  823MOL0     C13441   3.043   1.355   1.315  0.0177  0.0601 -0.0953
  823MOL0     C13442   2.974   1.464   1.348 -1.4104 -0.6909 -0.4036
  823MOL0     C13443   2.845   1.453   1.409 -1.0395  0.6822  0.9019
  823MOL0     O13444   2.769   1.555   1.449  0.2092  0.2471  0.2599
  823MOL0     C13445   2.734   1.563   1.592 -0.8410  0.5503  0.4654
  823MOL0     C13446   2.634   1.679   1.613 -0.9011 -1.1400 -0.7416
  823MOL0     C13447   2.708   1.815   1.592  0.1984 -0.5632  0.2472
  823MOL0     C13448   2.620   1.941   1.619  0.2076 -0.2580  0.6476
  823MOL0     C13449   2.681   2.076   1.564 -0.0942  0.0842  0.7807
  823MOL0     C13450   2.576   2.176   1.537  0.0812 -0.1021 -0.6735
  823MOL0     C13451   2.648   2.302   1.498 -0.4470 -1.2885  0.7693
  823MOL0     C13452   2.557   2.418   1.457  0.0811 -0.3094  0.1917
  823MOL0     N13453   2.448   2.404   1.359  1.0666  0.0561 -0.3138
  823MOL0     C13454   2.460   2.425   1.218 -0.2927 -0.1971 -0.0548
  823MOL0     C13455   2.352   2.392   1.163 -0.0472  0.6572 -0.5309
  823MOL0     C13456   2.318   2.386   1.018  1.1296  0.4315 -0.7318
  823MOL0     C13457   2.199   2.479   0.989  0.5897  0.4001  0.8890
  823MOL0     C13458   2.108   2.427   0.878 -0.4020 -0.3797 -0.3685
  823MOL0     C13459   2.026   2.529   0.811 -1.0016 -0.0756  0.2867
  823MOL0     O13460   1.988   2.481   0.679 -0.3760 -0.8847  0.7358
  823MOL0     C13461   1.865   2.426   0.649  0.4835 -0.1306 -0.0648
  823MOL0     C13462   1.849   2.400   0.514  0.3350 -0.6404 -0.2069
  823MOL0     C13463   1.726   2.366   0.464 -0.1951 -0.1957 -0.2112
  823MOL0     C13464   1.735   2.363   0.312 -0.2172  0.5054 -0.6600
  823MOL0     C13465   1.618   2.326   0.542  0.0705  0.4961 -0.5227
  823MOL0     C13466   1.493   2.282   0.490 -0.5903  0.5384  0.1382
  823MOL0     O13467   1.410   2.223   0.582 -0.2073  0.0918 -0.3638
  823MOL0     C13468   1.296   2.159   0.544 -0.2612  0.5128  0.0790
  823MOL0     C13469   1.283   2.032   0.595 -0.5496  1.1875  0.7955
  823MOL0     C13470   1.173   1.953   0.561 -0.8511 -0.0542 -1.1200
  823MOL0     C13471   1.073   2.004   0.477 -0.2419  0.1656 -0.0275
  823MOL0     O13472   0.971   1.923   0.430 -0.3162 -0.4673 -0.5054
  823MOL0     C13473   0.926   1.958   0.299  1.2284  0.2920  0.9144
  823MOL0     C13474   0.866   1.826   0.241  0.6758  0.9161  1.1326
  823MOL0     C13475   0.805   1.852   0.100 -0.5530  0.1969 -0.0334
  823MOL0     C13476   0.693   1.759   0.070 -0.7161  0.3262 -0.0952
  823MOL0     C13477   0.741   1.612   0.079  0.0255 -0.0873  0.6897
  823MOL0     C13478   0.624   1.520   0.031 -0.4326  0.7474 -0.3418
  823MOL0     C13479   0.576   1.514  -0.114 -0.1818 -1.4954  0.7242
  823MOL0     C13480   0.477   1.405  -0.138 -0.1217  0.5834 -0.1093
  823MOL0    Cl13481   0.449   1.369  -0.310  0.2170  0.5616 -0.7230
  823MOL0     C13482   1.077   2.140   0.447  0.0153  0.8094 -0.1853
  823MOL0     C13483   1.192   2.217   0.481  0.4476 -0.3296  0.1109
  823MOL0     O13484   1.479   2.282   0.365 -0.0189  0.9671  0.3623
  823MOL0     C13485   1.643   2.349   0.678 -0.0502  0.8091 -0.4793
  823MOL0     C13486   1.762   2.405   0.734 -0.7424  0.2289 -0.3344
  823MOL0     N13487   2.258   2.360   1.267  0.3458 -0.2500  0.3369
  823MOL0     N13488   2.313   2.382   1.384 -0.3837  0.2263 -0.5666
  823MOL0     C13489   2.798   1.319   1.436  0.6217  0.8294  1.9162
  823MOL0     C13490   2.884   1.204   1.420  1.0557  0.0550  0.1139
  823MOL0     C13491   3.264   0.956   1.352 -0.1301  0.3821 -0.0851
  823MOL0     C13492   3.234   0.875   1.233  0.1712 -0.1858 -0.6796
  823MOL0     C13493   3.295   0.755   1.220 -1.3843  0.3248  0.3127
  823MOL0     C13494   3.401   0.711   1.305  0.3511  0.5789  0.3269
  823MOL0     O13495   3.450   0.585   1.289 -0.3324 -0.2442  0.1435
  823MOL0     C13496   3.559   0.544   1.370 -0.1356  0.2281 -0.1403
  823MOL0     C13497   3.698   0.583   1.313  0.2673  0.1999 -0.6086
  823MOL0     C13498   3.719   0.497   1.180  0.6349  0.1998 -0.8692
  823MOL0     C13499   3.758   0.576   1.052  0.2077 -0.5599  0.8301
  823MOL0     C13500   3.857   0.502   0.974 -1.0156 -0.1896 -0.0633
  823MOL0     C13501   3.954   0.442   0.924 -0.3337 -0.4276 -0.1891
  823MOL0     C13502   3.440   0.791   1.412  0.4679  0.2399  0.1282
  823MOL0     C13503   3.376   0.912   1.430 -0.3534  0.2174  0.0722
  823MOL0     C13504   3.423   0.985   1.551 -0.1814  0.6341  0.0256
  823MOL0     H13505   3.130   1.366   1.252 -1.5951  0.5806 -2.3721
  823MOL0     H13506   3.022   1.559   1.323 -1.2444 -1.3103 -2.6866
  823MOL0     H13507   2.827   1.574   1.648 -1.3984 -1.1617  1.8303
  823MOL0     H13508   2.700   1.464   1.623  2.1479 -0.1787  1.7414
  823MOL0     H13509   2.551   1.656   1.546 -0.7101 -1.5938 -0.8287
  823MOL0     H13510   2.613   1.679   1.721  3.4189  5.9286  0.7590
  823MOL0     H13511   2.801   1.836   1.646  0.0390  3.5202 -0.7786
  823MOL0     H13512   2.729   1.827   1.485 -3.6116 -0.1856 -0.6136
  823MOL0     H13513   2.518   1.921   1.586  0.6791 -1.2801 -0.2665
  823MOL0     H13514   2.601   1.942   1.727  0.8664 -1.2814  0.7904
  823MOL0     H13515   2.737   2.068   1.470  1.5119  2.5083  1.4409
  823MOL0     H13516   2.754   2.116   1.635  1.9089 -1.7628 -0.1027
  823MOL0     H13517   2.519   2.124   1.460  0.4526 -0.2416 -0.8605
  823MOL0     H13518   2.524   2.193   1.631  1.9876 -0.3441  0.4747
  823MOL0     H13519   2.719   2.295   1.415 -0.4374  1.2947  0.4753
  823MOL0     H13520   2.712   2.332   1.581  0.1951 -4.1339  1.3976
  823MOL0     H13521   2.518   2.470   1.544 -1.7343 -1.7506  0.2967
  823MOL0     H13522   2.628   2.492   1.420 -0.1681 -0.0364  0.2610
  823MOL0     H13523   2.559   2.445   1.178 -0.3424  1.4371  0.5576
  823MOL0     H13524   2.293   2.280   1.008  1.7361  0.1365  0.6414
  823MOL0     H13525   2.411   2.409   0.964 -0.2133  0.9772 -2.9519
  823MOL0     H13526   2.147   2.491   1.084  3.6368 -0.7759  2.8666
  823MOL0     H13527   2.231   2.581   0.965 -4.2468  1.6528 -1.4916
  823MOL0     H13528   2.170   2.380   0.801 -3.0153 -0.7294 -2.3834
  823MOL0     H13529   2.042   2.355   0.927 -3.5644  2.9887  0.7498
  823MOL0     H13530   1.932   2.544   0.864 -3.0827  2.4623 -3.5903
  823MOL0     H13531   2.075   2.627   0.814  0.3207 -0.6743  4.4483
  823MOL0     H13532   1.943   2.415   0.462  1.0842  2.7488  1.8468
  823MOL0     H13533   1.803   2.440   0.275 -2.9819  4.3585  1.5760
  823MOL0     H13534   1.649   2.399   0.255  0.6019 -0.8244 -2.8788
  823MOL0     H13535   1.751   2.262   0.274  2.8685  1.2561 -1.7132
  823MOL0     H13536   1.368   1.991   0.648 -2.1832 -0.1397  2.5225
  823MOL0     H13537   1.173   1.853   0.602  3.1875 -0.5207 -1.8150
  823MOL0     H13538   0.846   2.030   0.316  0.3637 -0.6415  0.9459
  823MOL0     H13539   1.008   1.990   0.235 -0.5643 -0.5629 -1.9966
  823MOL0     H13540   0.942   1.750   0.223  0.0448  0.2131  1.4014
  823MOL0     H13541   0.782   1.796   0.305  0.3203  0.2246  0.3509
  823MOL0     H13542   0.885   1.835   0.027 -0.8914  0.3953 -0.4582
  823MOL0     H13543   0.767   1.953   0.081  0.9314  0.5592 -1.2983
  823MOL0     H13544   0.673   1.783  -0.034  1.2131  2.0900 -0.1139
  823MOL0     H13545   0.605   1.775   0.134 -0.7290  0.9077 -0.2581
  823MOL0     H13546   0.831   1.614   0.018 -0.4175  2.4393  0.0263
  823MOL0     H13547   0.778   1.586   0.179  0.6623 -2.3032 -0.0747
  823MOL0     H13548   0.542   1.537   0.100 -0.6391  1.4852 -0.7659
  823MOL0     H13549   0.669   1.422   0.051  1.8976  1.4718 -1.6023
  823MOL0     H13550   0.657   1.510  -0.188 -1.4426 -1.4278 -0.7214
  823MOL0     H13551   0.519   1.606  -0.130  0.0693 -1.4147  0.2605
  823MOL0     H13552   0.383   1.433  -0.091 -0.1003 -0.5834  0.6491
  823MOL0     H13553   0.511   1.315  -0.086  0.3117  1.8621  1.9312
  823MOL0     H13554   0.987   2.187   0.409 -2.9163 -2.2931  2.2487
  823MOL0     H13555   1.191   2.326   0.478 -2.2554 -0.2988 -1.4083
  823MOL0     H13556   1.568   2.326   0.752 -0.0134  0.6367 -0.4965
  823MOL0     H13557   1.756   2.436   0.838 -2.3903  1.2195 -0.6823
  823MOL0     H13558   2.697   1.310   1.474 -0.8179  0.9700 -1.4744
  823MOL0     H13559   2.845   1.103   1.423  4.0625 -1.2450 -0.9879
  823MOL0     H13560   3.151   0.894   1.164  0.8327  2.2026 -0.9194
  823MOL0     H13561   3.257   0.691   1.141 -1.0062 -0.0684  0.4460
  823MOL0     H13562   3.538   0.576   1.472 -5.2905 -1.1768 -0.4729
  823MOL0     H13563   3.566   0.435   1.373 -0.2798  0.2457  2.1912
  823MOL0     H13564   3.779   0.570   1.385  1.6360  0.9756 -1.9622
  823MOL0     H13565   3.707   0.689   1.287 -0.6188 -0.3566 -3.5624
  823MOL0     H13566   3.791   0.416   1.192 -3.1571 -3.9556 -3.1506
  823MOL0     H13567   3.625   0.449   1.154  0.4752 -0.6397  1.0948
  823MOL0     H13568   3.807   0.671   1.075  3.6870 -1.5906 -1.4606
  823MOL0     H13569   3.673   0.609   0.992  0.8393 -1.4059 -0.5847
  823MOL0     H13570   4.027   0.378   0.879 -1.3248 -0.2728 -2.1074
  823MOL0     H13571   3.522   0.768   1.478  0.1260 -1.1442  0.0963
  823MOL0     H13572   3.347   0.988   1.630 -1.8657 -1.8464 -1.3801
  823MOL0     H13573   3.509   0.938   1.599  0.1409 -0.3010 -1.4061
  823MOL0     H13574   3.460   1.088   1.543  2.4523  0.1929  3.7631
  824MOL0     O13575  10.627   7.118   8.571  0.0633 -0.7404 -1.0592
  824MOL0     C13576  10.742   7.068   8.585  0.4856 -0.1832  0.5578
  824MOL0     O13577  10.760   6.931   8.568  0.1803  0.2823 -0.7647
  824MOL0     C13578  10.652   6.866   8.529  0.6059  0.8665 -0.4486
  824MOL0     C13579  10.529   6.853   8.603 -0.9469  0.2240  0.1670
  824MOL0     C13580  10.423   6.789   8.547 -0.5711  0.1832 -0.0730
  824MOL0     C13581  10.430   6.721   8.420 -0.2854  0.1394 -0.8924
  824MOL0     O13582  10.325   6.659   8.361  0.4884 -0.2018  0.1436
  824MOL0     C13583  10.212   6.615   8.440  1.0624 -0.0265  0.1970
  824MOL0     C13584  10.246   6.473   8.489 -0.4858  0.2220  0.6977
  824MOL0     C13585  10.126   6.402   8.557 -0.2122 -0.0759  0.4410
  824MOL0     C13586  10.089   6.256   8.520 -0.2237  0.1360  0.1145
  824MOL0     C13587   9.939   6.249   8.559 -0.9626 -0.5344 -0.7325
  824MOL0     C13588   9.879   6.110   8.569 -0.7744 -0.1672 -0.5352
  824MOL0     C13589   9.731   6.115   8.574  0.2184  0.1327  0.4203
  824MOL0     C13590   9.676   6.180   8.705  0.0956  0.0682 -0.4252
  824MOL0     N13591   9.650   6.328   8.699 -0.7266 -1.0276 -0.6388
  824MOL0     C13592   9.646   6.404   8.584 -0.1898  0.4443  0.8527
  824MOL0     C13593   9.607   6.523   8.625 -0.7067 -0.9349  0.1854
  824MOL0     C13594   9.563   6.638   8.527  0.5582  0.2160 -0.8329
  824MOL0     C13595   9.418   6.631   8.502 -0.6327  0.0641 -0.2198
  824MOL0     C13596   9.372   6.765   8.447 -0.8521  0.0138  0.5076
  824MOL0     C13597   9.274   6.748   8.346 -0.0887  0.5232 -0.3240
  824MOL0     O13598   9.339   6.695   8.231  0.4277  0.0149 -1.2060
  824MOL0     C13599   9.250   6.645   8.148  0.1489  0.2813  0.5015
  824MOL0     C13600   9.219   6.691   8.016  0.2102  0.5548 -0.0862
  824MOL0     C13601   9.114   6.636   7.936  0.1055 -0.3487  0.6084
  824MOL0     C13602   9.075   6.704   7.806  0.0217  0.4118 -0.2878
  824MOL0     C13603   9.040   6.523   7.989  0.4862  0.8096  0.0413
  824MOL0     C13604   8.941   6.450   7.907 -0.0401  0.3747  1.0388
  824MOL0     O13605   8.821   6.517   7.886 -0.4161 -0.1948  0.0525
  824MOL0     C13606   8.738   6.493   7.771 -0.1465  0.4223  0.2951
  824MOL0     C13607   8.655   6.592   7.733  0.7442 -0.1763  0.0048
  824MOL0     C13608   8.560   6.562   7.634  0.7950 -0.0899  0.2588
  824MOL0     C13609   8.568   6.451   7.560  0.5117  1.0488 -0.9168
  824MOL0     O13610   8.477   6.433   7.463  0.2288 -0.1198  0.4696
  824MOL0     C13611   8.481   6.316   7.379  0.1571 -0.1042  0.7091
  824MOL0     C13612   8.381   6.317   7.266  0.1158 -0.2212 -0.1085
  824MOL0     C13613   8.425   6.421   7.162 -1.4055 -0.4573 -0.5206
  824MOL0     C13614   8.319   6.426   7.053  0.2028  0.6071 -0.7122
  824MOL0     C13615   8.332   6.548   6.973 -0.4785 -0.1395  1.0650
  824MOL0     C13616   8.235   6.549   6.857 -0.5454  0.4419 -0.6984
  824MOL0     C13617   8.198   6.700   6.794  0.5848  0.9972  0.1739
  824MOL0     C13618   8.112   6.685   6.667  0.4516 -0.5324 -0.1504
  824MOL0    Cl13619   7.943   6.660   6.702  0.1560 -0.0331  0.1396
  824MOL0     C13620   8.663   6.354   7.592 -0.3782 -0.0088  1.1968
  824MOL0     C13621   8.743   6.373   7.698  0.9250  0.2389 -0.0547
  824MOL0     O13622   8.970   6.340   7.875  0.1613  0.0952 -0.6830
  824MOL0     C13623   9.082   6.477   8.116 -0.1393  0.3143 -0.5119
  824MOL0     C13624   9.181   6.533   8.194 -0.5859  0.8703 -0.1109
  824MOL0     N13625   9.579   6.522   8.759 -0.1267 -0.1870 -0.2709
  824MOL0     N13626   9.606   6.404   8.808 -0.4797  0.2112  0.4325
  824MOL0     C13627  10.555   6.717   8.355 -1.3550 -1.3076 -0.1690
  824MOL0     C13628  10.666   6.791   8.408 -0.6512 -0.2795 -1.2188
  824MOL0     C13629  10.846   7.140   8.647 -0.6574 -1.0940  0.2210
  824MOL0     C13630  10.966   7.071   8.685  0.4667  0.5912 -0.2553
  824MOL0     C13631  11.088   7.129   8.734  0.2274  0.5502 -0.8420
  824MOL0     C13632  11.087   7.267   8.768 -0.6144 -0.4089  0.3812
  824MOL0     O13633  11.175   7.345   8.840  0.6827 -0.6553 -0.2315
  824MOL0     C13634  11.288   7.294   8.906  0.8044  0.1690 -0.5798
  824MOL0     C13635  11.239   7.227   9.032 -0.4660  0.8411  0.1726
  824MOL0     C13636  11.362   7.186   9.109  0.4920  0.0529  0.1710
  824MOL0     C13637  11.333   7.100   9.236 -0.2351 -0.1846 -0.0986
  824MOL0     C13638  11.265   6.974   9.210  0.8169  1.0331 -0.6873
  824MOL0     C13639  11.212   6.867   9.188 -1.1663  0.5154 -0.8610
  824MOL0     C13640  10.968   7.341   8.729 -0.1665  0.5286  0.1594
  824MOL0     C13641  10.854   7.283   8.655 -0.4395  0.4847 -0.5725
  824MOL0     C13642  10.737   7.364   8.635 -0.0436 -0.3725 -0.7924
  824MOL0     H13643  10.538   6.880   8.708  0.5656 -0.6986  0.2991
  824MOL0     H13644  10.337   6.778   8.612  1.1267 -0.8108  2.1352
  824MOL0     H13645  10.129   6.616   8.369 -1.6123  5.1779  2.8091
  824MOL0     H13646  10.182   6.673   8.528  0.9588 -0.0003  0.1455
  824MOL0     H13647  10.295   6.413   8.411  0.4462  2.4513 -0.5391
  824MOL0     H13648  10.323   6.483   8.566 -0.4370  5.0677  0.3418
  824MOL0     H13649  10.142   6.402   8.665  0.9860 -0.0427  0.2859
  824MOL0     H13650  10.041   6.468   8.538  1.5962  2.5326  0.9319
  824MOL0     H13651  10.099   6.239   8.412 -0.4213  1.1183 -0.0659
  824MOL0     H13652  10.156   6.182   8.566  2.5473  0.7573 -2.5844
  824MOL0     H13653   9.887   6.315   8.489  0.0036  0.8294 -0.2070
  824MOL0     H13654   9.928   6.293   8.659  1.9969  1.4886 -1.1733
  824MOL0     H13655   9.905   6.059   8.475  0.5530  0.6675 -0.6411
  824MOL0     H13656   9.922   6.048   8.648 -2.5638  0.5741  1.0863
  824MOL0     H13657   9.705   6.011   8.598  2.7250 -0.0224  3.0100
  824MOL0     H13658   9.680   6.146   8.482 -1.8735  1.2543  1.8674
  824MOL0     H13659   9.579   6.133   8.725  0.1385 -0.2456 -0.9415
  824MOL0     H13660   9.736   6.149   8.790 -2.0127 -2.7622  0.1846
  824MOL0     H13661   9.662   6.370   8.482  1.5257 -0.4565  1.3858
  824MOL0     H13662   9.625   6.641   8.436 -0.6245 -4.3595 -2.0846
  824MOL0     H13663   9.593   6.734   8.570 -1.2462 -0.5756  2.5319
  824MOL0     H13664   9.385   6.547   8.440  0.2511 -0.8700  0.5414
  824MOL0     H13665   9.376   6.631   8.603 -1.6661  3.6957 -0.4889
  824MOL0     H13666   9.330   6.830   8.524 -1.6476 -2.1651  2.0260
  824MOL0     H13667   9.455   6.821   8.403 -0.7363 -2.2468 -2.4456
  824MOL0     H13668   9.200   6.681   8.390  2.3771 -1.8798  0.4511
  824MOL0     H13669   9.235   6.846   8.317  2.8155  1.5573 -1.1399
  824MOL0     H13670   9.286   6.774   7.995  3.2059 -1.7873 -0.6064
  824MOL0     H13671   8.987   6.765   7.826 -0.5190 -0.6169  0.5518
  824MOL0     H13672   9.050   6.629   7.730  0.4582  0.2469 -0.2721
  824MOL0     H13673   9.164   6.765   7.786 -1.4762  2.4955 -0.9503
  824MOL0     H13674   8.627   6.683   7.786  2.7219  0.2585  0.3710
  824MOL0     H13675   8.481   6.632   7.610  1.5294 -0.8248 -5.8118
  824MOL0     H13676   8.583   6.307   7.340 -0.3410  4.5836 -2.6590
  824MOL0     H13677   8.460   6.242   7.456  1.0046  1.5277  2.6012
  824MOL0     H13678   8.381   6.220   7.215  1.9392 -0.1958 -0.1928
  824MOL0     H13679   8.279   6.327   7.306 -0.2417 -2.9855 -0.1751
  824MOL0     H13680   8.519   6.386   7.118 -0.9226 -1.3225  1.0951
  824MOL0     H13681   8.440   6.520   7.205  0.1118 -1.3996  1.3122
  824MOL0     H13682   8.220   6.447   7.093  0.4270  2.6949 -1.1723
  824MOL0     H13683   8.330   6.328   7.004  1.2905  0.5925 -0.4556
  824MOL0     H13684   8.292   6.630   7.032  1.5889  0.6712  1.4283
  824MOL0     H13685   8.436   6.566   6.944 -0.5881 -2.0682 -0.7905
  824MOL0     H13686   8.149   6.490   6.888  0.5497 -0.6537  0.3402
  824MOL0     H13687   8.291   6.489   6.784 -1.0154  0.7710 -1.3477
  824MOL0     H13688   8.281   6.765   6.766  0.5367  0.8497 -0.3204
  824MOL0     H13689   8.150   6.750   6.879 -0.7633  0.3824 -0.2019
  824MOL0     H13690   8.156   6.596   6.622  4.4980  1.8878 -1.4199
  824MOL0     H13691   8.126   6.777   6.610  0.4969  0.8069  1.9045
  824MOL0     H13692   8.675   6.267   7.528 -0.0142  0.8389  0.0863
  824MOL0     H13693   8.812   6.293   7.723  0.0429 -0.5333 -0.0648
  824MOL0     H13694   9.036   6.396   8.171  3.0469 -0.4185  1.3170
  824MOL0     H13695   9.210   6.485   8.287 -0.6793  2.1956  0.6319
  824MOL0     H13696  10.566   6.667   8.259  0.5662 -1.3371  0.0220
  824MOL0     H13697  10.762   6.780   8.359  0.9816 -1.8235  1.9561
  824MOL0     H13698  10.980   6.967   8.659 -1.1305  0.9101 -2.7559
  824MOL0     H13699  11.166   7.066   8.774  1.1475  1.7783 -0.6239
  824MOL0     H13700  11.336   7.214   8.848  1.6186  0.1635  0.0821
  824MOL0     H13701  11.362   7.372   8.923 -0.2662  0.6904  2.1918
  824MOL0     H13702  11.192   7.132   9.003  0.1325 -0.2010  2.3545
  824MOL0     H13703  11.168   7.287   9.089 -1.7799 -0.6832  0.2010
  824MOL0     H13704  11.424   7.123   9.045 -0.7010 -2.6452  1.4931
  824MOL0     H13705  11.406   7.278   9.147  0.4945  1.1452 -2.3435
  824MOL0     H13706  11.274   7.151   9.312  0.3202  0.9458 -0.4042
  824MOL0     H13707  11.433   7.085   9.277 -0.6823 -2.1557  0.3607
  824MOL0     H13708  11.169   6.771   9.170 -0.1930 -0.2429  0.6065
  824MOL0     H13709  10.958   7.446   8.755  2.5694  0.7151  0.7229
  824MOL0     H13710  10.762   7.470   8.631 -1.0549 -0.0367  0.8187
  824MOL0     H13711  10.700   7.347   8.534  1.3654  0.8514 -1.5431
  824MOL0     H13712  10.661   7.336   8.709  1.1722 -0.0769  0.6241
  825MOL0     O13713   7.241  11.003   1.076  0.3809  1.2406  0.5783
  825MOL0     C13714   7.333  11.006   1.152  0.6580 -0.1995  0.2044
  825MOL0     O13715   7.462  11.033   1.112  0.0093  0.8675 -0.2844
  825MOL0     C13716   7.483  11.082   0.984  0.2019 -0.1946 -0.7101
  825MOL0     C13717   7.488  11.001   0.873 -0.0197  0.5294  0.7238
  825MOL0     C13718   7.523  11.040   0.748 -0.1842 -0.7909  0.6389
  825MOL0     C13719   7.552  11.175   0.728  0.2357  0.5227 -0.2705
  825MOL0     O13720   7.573  11.244   0.611  1.0671 -0.6892 -0.2844
  825MOL0     C13721   7.582  11.170   0.497 -0.6706 -0.0674  0.6213
  825MOL0     C13722   7.553  11.255   0.376  0.1621 -0.2481  0.7337
  825MOL0     C13723   7.675  11.340   0.343  0.8331 -0.1802 -0.6788
  825MOL0     C13724   7.755  11.274   0.228 -0.3929  0.0793 -0.1851
  825MOL0     C13725   7.811  11.138   0.255  0.4386 -0.6919 -0.2366
  825MOL0     C13726   7.912  11.112   0.140 -0.1331  0.4920  0.4992
  825MOL0     C13727   7.980  10.976   0.132 -0.0772 -1.3454 -0.3398
  825MOL0     C13728   8.061  10.935   0.258 -0.8702 -1.0595  0.4834
  825MOL0     N13729   8.164  10.835   0.234 -0.4678  0.3645  0.5531
  825MOL0     C13730   8.294  10.853   0.208 -0.0127  0.5275 -0.8079
  825MOL0     C13731   8.351  10.728   0.216  0.6045 -0.5182  0.4147
  825MOL0     C13732   8.489  10.692   0.172 -0.2114 -0.8989 -0.1810
  825MOL0     C13733   8.575  10.715   0.306 -1.1163  0.5566 -0.4156
  825MOL0     C13734   8.718  10.661   0.283 -0.0361 -0.0770  0.0897
  825MOL0     C13735   8.811  10.716   0.395  0.6792 -0.5481  0.2035
  825MOL0     O13736   8.791  10.637   0.514  0.5484 -0.1821 -0.4764
  825MOL0     C13737   8.897  10.573   0.565 -0.2895 -0.2545  0.2274
  825MOL0     C13738   8.961  10.602   0.683 -0.1394  0.0010 -2.2075
  825MOL0     C13739   9.062  10.520   0.740 -0.0359 -0.0248  0.2098
  825MOL0     C13740   9.145  10.569   0.858 -0.1327 -0.3336  0.0152
  825MOL0     C13741   9.098  10.400   0.680  0.3011  0.3869 -0.3864
  825MOL0     C13742   9.181  10.296   0.734  0.2198 -0.0421 -1.5426
  825MOL0     O13743   9.202  10.192   0.649  0.2737 -0.1870 -0.1700
  825MOL0     C13744   9.235  10.068   0.699  0.2914  0.0660  0.3328
  825MOL0     C13745   9.356  10.008   0.672  0.6156 -0.6601 -0.0768
  825MOL0     C13746   9.385   9.876   0.716 -0.0757 -0.3187  0.3385
  825MOL0     C13747   9.300   9.810   0.793 -0.3056  0.0408 -0.6328
  825MOL0     O13748   9.338   9.687   0.834 -0.4923  0.6916 -0.1650
  825MOL0     C13749   9.286   9.650   0.953  0.3470  0.4299  0.3672
  825MOL0     C13750   9.365   9.528   1.013 -0.0368 -0.0466 -0.5706
  825MOL0     C13751   9.515   9.557   1.027  0.0215  0.1381 -0.9544
  825MOL0     C13752   9.553   9.657   1.143 -0.9418  0.2597  0.3211
  825MOL0     C13753   9.702   9.675   1.149 -0.2202 -0.2833  0.0494
  825MOL0     C13754   9.745   9.797   1.240 -0.5520  0.2174 -0.0084
  825MOL0     C13755   9.894   9.819   1.259 -0.1120 -0.0143  0.5597
  825MOL0     C13756   9.936   9.959   1.294 -0.0830  0.4018 -0.6256
  825MOL0    Cl13757   9.890   9.998   1.470 -0.1777  0.3919  0.2919
  825MOL0     C13758   9.178   9.864   0.819  0.6794  0.5065 -0.7602
  825MOL0     C13759   9.140   9.991   0.772  0.7154 -0.0196  0.5075
  825MOL0     O13760   9.227  10.304   0.847  0.4610 -0.4175 -0.2808
  825MOL0     C13761   9.032  10.367   0.551  0.7252  0.3789 -0.5008
  825MOL0     C13762   8.939  10.457   0.498  0.5021  0.3482  0.2154
  825MOL0     N13763   8.247  10.637   0.234  0.0264  0.4194  0.3635
  825MOL0     N13764   8.138  10.706   0.249  0.5856  0.2844 -0.8385
  825MOL0     C13765   7.542  11.262   0.839 -0.5171  0.5352 -0.1359
  825MOL0     C13766   7.510  11.215   0.965  0.9167 -0.5155 -0.3564
  825MOL0     C13767   7.319  10.959   1.295  0.2406 -0.0198 -0.0099
  825MOL0     C13768   7.437  10.940   1.366  0.0080  0.5070  0.4500
  825MOL0     C13769   7.449  10.869   1.479 -0.2698  0.5860  0.6436
  825MOL0     C13770   7.343  10.820   1.543 -0.3684  0.3781 -0.1932
  825MOL0     O13771   7.356  10.755   1.663  0.0541  0.9963 -0.6173
  825MOL0     C13772   7.245  10.695   1.743 -0.5229  1.0913 -0.3098
  825MOL0     C13773   7.292  10.653   1.887 -0.4769  0.2554  0.6014
  825MOL0     C13774   7.384  10.752   1.957 -0.5402 -0.2567 -0.1878
  825MOL0     C13775   7.320  10.890   1.974  0.2594 -0.1115  0.4194
  825MOL0     C13776   7.200  10.890   2.061 -1.3867 -0.0485 -0.1358
  825MOL0     C13777   7.104  10.884   2.130 -0.5797  0.1645  0.2105
  825MOL0     C13778   7.221  10.845   1.485  0.2236  0.0920  0.8614
  825MOL0     C13779   7.204  10.906   1.356 -0.4245 -0.5657 -0.3878
  825MOL0     C13780   7.062  10.922   1.312 -0.5547  0.0738  0.4178
  825MOL0     H13781   7.457  10.900   0.897  0.1614  0.1632 -0.5002
  825MOL0     H13782   7.520  10.971   0.665 -1.5913 -1.2462  1.0396
  825MOL0     H13783   7.498  11.101   0.484 -1.5025  0.8155  1.1429
  825MOL0     H13784   7.679  11.120   0.498  0.1554  1.0673 -3.4523
  825MOL0     H13785   7.516  11.188   0.298 -1.8245  3.2056 -1.5604
  825MOL0     H13786   7.472  11.328   0.381  0.1293  0.1304 -2.9469
  825MOL0     H13787   7.653  11.439   0.302  2.1347  1.4932  2.2929
  825MOL0     H13788   7.733  11.368   0.432  0.7909  0.1551 -0.7547
  825MOL0     H13789   7.704  11.282   0.131  0.8144  4.3513 -0.6579
  825MOL0     H13790   7.845  11.336   0.220 -0.1913  0.1747  2.1957
  825MOL0     H13791   7.725  11.071   0.242  0.3496 -0.5312 -0.4852
  825MOL0     H13792   7.845  11.126   0.358 -0.1569 -0.0634  0.0363
  825MOL0     H13793   7.852  11.123   0.049 -0.1246  1.6597  0.6153
  825MOL0     H13794   7.989  11.190   0.143  2.1405 -1.4851 -1.7102
  825MOL0     H13795   8.052  10.982   0.050  2.0448  1.7375  1.5279
  825MOL0     H13796   7.901  10.910   0.094 -1.2805  1.5709 -3.4054
  825MOL0     H13797   8.124  11.019   0.290 -3.6552  0.8202  1.3567
  825MOL0     H13798   7.990  10.908   0.337 -2.3987 -0.6104 -0.6949
  825MOL0     H13799   8.362  10.938   0.206 -0.6341  1.0262 -1.2360
  825MOL0     H13800   8.530  10.763   0.100 -0.5243  1.1227  1.5427
  825MOL0     H13801   8.492  10.594   0.122 -3.0837  0.3948 -3.3278
  825MOL0     H13802   8.574  10.822   0.328 -2.8734  1.3068 -3.4789
  825MOL0     H13803   8.534  10.653   0.385  2.5530 -0.3899  0.9522
  825MOL0     H13804   8.731  10.553   0.276 -1.0551 -0.1026 -2.2679
  825MOL0     H13805   8.763  10.698   0.191  0.8033  2.8128  1.5455
  825MOL0     H13806   8.917  10.716   0.368  1.4236 -2.7860  2.7823
  825MOL0     H13807   8.787  10.821   0.418  0.6678 -0.7531  1.1500
  825MOL0     H13808   8.928  10.693   0.734  3.6522 -0.3311  1.3466
  825MOL0     H13809   9.130  10.513   0.951  0.0193 -1.6770 -0.7464
  825MOL0     H13810   9.130  10.675   0.884  1.8860 -0.2039  0.9049
  825MOL0     H13811   9.250  10.555   0.829  0.0521 -0.5250  0.7473
  825MOL0     H13812   9.423  10.070   0.612 -0.7582  2.5046  1.4204
  825MOL0     H13813   9.472   9.816   0.692 -1.6221 -2.2635 -0.7410
  825MOL0     H13814   9.287   9.720   1.037  2.6569  0.4891  0.3322
  825MOL0     H13815   9.182   9.618   0.942  0.4403  0.5558 -0.9968
  825MOL0     H13816   9.321   9.490   1.106 -0.5033 -2.2738 -1.6171
  825MOL0     H13817   9.351   9.444   0.944  0.5652 -0.5994 -0.0333
  825MOL0     H13818   9.560   9.606   0.940  4.4800 -0.0119  0.9978
  825MOL0     H13819   9.577   9.468   1.042  1.1869  0.9806 -0.7373
  825MOL0     H13820   9.520   9.623   1.242 -2.4394 -2.3785 -0.9464
  825MOL0     H13821   9.506   9.749   1.108  0.6434 -0.7552 -5.6293
  825MOL0     H13822   9.750   9.583   1.183 -2.4292 -0.8906  1.7902
  825MOL0     H13823   9.731   9.718   1.053 -0.3896  1.4818  0.7511
  825MOL0     H13824   9.709   9.795   1.344 -0.7875  4.8174  0.1871
  825MOL0     H13825   9.696   9.884   1.198 -3.5608 -0.3498  2.0220
  825MOL0     H13826   9.933   9.802   1.158 -1.1307  0.4102  0.0798
  825MOL0     H13827   9.944   9.753   1.332 -1.3516 -2.0917 -0.3697
  825MOL0     H13828   9.882  10.023   1.224 -0.9009 -1.7144 -2.0182
  825MOL0     H13829  10.044   9.964   1.280  0.2883  3.9982  2.0365
  825MOL0     H13830   9.102   9.817   0.880  1.2232  1.1342  0.4525
  825MOL0     H13831   9.042  10.030   0.795 -0.8935 -3.0716 -0.6039
  825MOL0     H13832   9.058  10.277   0.496  3.9612 -1.6214  3.7483
  825MOL0     H13833   8.877  10.438   0.411  0.6108 -0.3354  0.2794
  825MOL0     H13834   7.568  11.365   0.820 -1.3895  1.0178  1.1580
  825MOL0     H13835   7.503  11.287   1.046  0.0220  1.4317 -2.0666
  825MOL0     H13836   7.531  10.968   1.321  0.5064 -2.2578 -0.4784
  825MOL0     H13837   7.547  10.865   1.526  0.0284 -1.7609 -0.0456
  825MOL0     H13838   7.151  10.751   1.752 -3.2847 -2.7078 -2.6657
  825MOL0     H13839   7.201  10.609   1.693 -0.8827  0.4427  1.0875
  825MOL0     H13840   7.362  10.575   1.856 -0.1485  0.3529  1.1023
  825MOL0     H13841   7.204  10.639   1.950 -1.9087  0.6043 -1.2150
  825MOL0     H13842   7.405  10.714   2.057 -1.6896  0.4275  0.3309
  825MOL0     H13843   7.475  10.770   1.899  1.1283  1.1967  2.6412
  825MOL0     H13844   7.297  10.918   1.870  0.3378 -0.7592  0.2217
  825MOL0     H13845   7.387  10.966   2.015 -0.4963  0.6587  0.2771
  825MOL0     H13846   7.015  10.879   2.188  2.0904 -2.5199  4.6363
  825MOL0     H13847   7.125  10.808   1.520 -0.2839 -0.6795 -1.2263
  825MOL0     H13848   7.036  10.984   1.226 -3.3236 -0.6791  0.6148
  825MOL0     H13849   7.016  10.823   1.304  1.6132 -1.2449  2.7363
  825MOL0     H13850   7.005  10.961   1.397 -0.0421 -1.5373  1.5470
  826MOL0     O13851   8.107   0.903   3.353  0.0156  0.1458 -0.1423
  826MOL0     C13852   8.031   0.908   3.447  1.1408  0.0270  0.2086
  826MOL0     O13853   7.915   0.844   3.458 -0.1009  0.3430 -0.4664
  826MOL0     C13854   7.901   0.748   3.363 -0.8496 -0.3678 -0.3992
  826MOL0     C13855   7.953   0.616   3.380  0.0532 -0.8542 -0.6611
  826MOL0     C13856   7.941   0.536   3.277 -0.4322  0.6717  0.2198
  826MOL0     C13857   7.868   0.552   3.161 -0.9278 -0.5673 -0.7543
  826MOL0     O13858   7.836   0.452   3.080 -0.7136  0.5789 -0.5364
  826MOL0     C13859   7.936   0.437   2.979  0.1357  0.2977 -0.3751
  826MOL0     C13860   7.897   0.318   2.880  1.0852 -1.1099 -0.2625
  826MOL0     C13861   7.806   0.358   2.771 -0.6790  0.2831 -0.9062
  826MOL0     C13862   7.667   0.383   2.819  1.2740 -0.2650  0.0233
  826MOL0     C13863   7.567   0.456   2.729  1.0681 -0.1066  0.1718
  826MOL0     C13864   7.502   0.362   2.618 -0.5664 -0.2181 -0.7476
  826MOL0     C13865   7.405   0.439   2.524 -1.1161  0.7909  0.4927
  826MOL0     C13866   7.402   0.380   2.386 -0.2722 -0.6581  0.3658
  826MOL0     N13867   7.313   0.265   2.387  0.3892 -0.0254  0.2440
  826MOL0     C13868   7.177   0.277   2.382 -0.4920  0.1409 -0.7149
  826MOL0     C13869   7.133   0.153   2.412  0.3879 -0.7591  0.5889
  826MOL0     C13870   6.992   0.106   2.432 -0.3241 -0.2744  1.2230
  826MOL0     C13871   6.942   0.019   2.311 -0.3536  0.0216  0.6721
  826MOL0     C13872   7.004   0.059   2.167  0.6044 -0.5610 -0.7371
  826MOL0     C13873   6.945  -0.031   2.056  0.3986 -1.0873 -0.6990
  826MOL0     O13874   6.808  -0.008   2.029 -1.2545  0.3844  0.2567
  826MOL0     C13875   6.757  -0.070   1.922  0.2013  0.2718  0.2811
  826MOL0     C13876   6.618  -0.061   1.911  0.0276  0.8303 -0.8248
  826MOL0     C13877   6.539  -0.103   1.801  0.3875 -0.2725 -1.2585
  826MOL0     C13878   6.394  -0.063   1.799  0.0299 -0.0727 -0.0134
  826MOL0     C13879   6.608  -0.182   1.710  0.2237  0.5770 -0.1989
  826MOL0     C13880   6.540  -0.235   1.580  0.6312 -0.8418  0.0239
  826MOL0     O13881   6.398  -0.263   1.570 -0.2335 -0.1641  0.3736
  826MOL0     C13882   6.364  -0.362   1.477  0.2590  0.6836 -0.2024
  826MOL0     C13883   6.438  -0.485   1.460  1.9569 -0.1283  0.5896
  826MOL0     C13884   6.393  -0.567   1.362 -0.1453  0.3165  0.5231
  826MOL0     C13885   6.276  -0.546   1.276  0.7398 -0.3516  0.4167
  826MOL0     O13886   6.235  -0.631   1.181 -0.0792  0.5222  0.1827
  826MOL0     C13887   6.282  -0.764   1.174 -0.4933  0.6116 -0.5607
  826MOL0     C13888   6.413  -0.783   1.098 -0.3967  0.0446 -0.7969
  826MOL0     C13889   6.412  -0.902   0.994  0.5216  0.5986 -0.1639
  826MOL0     C13890   6.417  -1.033   1.062 -0.2435  0.8210 -1.2469
  826MOL0     C13891   6.373  -1.155   0.969  0.1983  0.2498  0.4049
  826MOL0     C13892   6.456  -1.177   0.835  0.8759 -0.3537 -0.1969
  826MOL0     C13893   6.586  -1.251   0.862 -0.4114 -0.0975 -0.1325
  826MOL0     C13894   6.680  -1.225   0.747 -0.5981  0.2641  0.4155
  826MOL0    Cl13895   6.604  -1.278   0.592 -0.0595 -0.1369  0.4362
  826MOL0     C13896   6.211  -0.416   1.288  0.7153  1.7459  0.6843
  826MOL0     C13897   6.244  -0.334   1.392 -0.8835 -0.0888 -0.1767
  826MOL0     O13898   6.619  -0.228   1.485 -0.6888 -0.0005  0.1064
  826MOL0     C13899   6.747  -0.191   1.723 -0.4707 -0.4407  0.6425
  826MOL0     C13900   6.827  -0.132   1.819  0.8422 -0.2226 -0.3962
  826MOL0     N13901   7.242   0.067   2.404 -0.2196  0.2157 -0.0138
  826MOL0     N13902   7.355   0.139   2.392  0.7800  0.2677  0.7757
  826MOL0     C13903   7.812   0.676   3.138  0.2333  0.2851 -0.2198
  826MOL0     C13904   7.827   0.773   3.251  0.7697 -0.2397 -0.0642
  826MOL0     C13905   8.045   1.019   3.551  0.2872  1.1829  0.1285
  826MOL0     C13906   7.934   1.048   3.636 -1.1359  0.6640 -0.6985
  826MOL0     C13907   7.938   1.138   3.747  0.7501 -0.1565  1.6787
  826MOL0     C13908   8.059   1.210   3.767  0.2944 -0.6737 -0.4160
  826MOL0     O13909   8.075   1.289   3.872 -0.4139  0.2579  0.2278
  826MOL0     C13910   7.966   1.331   3.954 -0.4265 -0.1617  0.2514
  826MOL0     C13911   8.008   1.451   4.035  0.0771  0.2956 -0.2724
  826MOL0     C13912   7.892   1.526   4.104  1.1521  0.5068  1.1315
  826MOL0     C13913   7.949   1.618   4.213 -1.2947 -0.0965  0.4109
  826MOL0     C13914   7.851   1.669   4.297 -0.3305  1.1602  0.1412
  826MOL0     C13915   7.753   1.698   4.362  0.4864 -0.6831  0.8269
  826MOL0     C13916   8.169   1.186   3.684 -0.4250 -0.4151 -0.2059
  826MOL0     C13917   8.169   1.085   3.583 -0.2428 -0.4809  0.3745
  826MOL0     C13918   8.289   1.072   3.499  0.3926 -0.7185 -0.4430
  826MOL0     H13919   8.014   0.594   3.467 -2.2699  1.9272  1.9440
  826MOL0     H13920   7.988   0.439   3.290  0.6455  1.0085 -0.9389
  826MOL0     H13921   8.027   0.396   3.025 -0.4237 -1.0019 -0.3827
  826MOL0     H13922   7.961   0.533   2.932 -2.1948  1.8774  1.4022
  826MOL0     H13923   7.996   0.288   2.845  0.7408 -1.7861 -0.6684
  826MOL0     H13924   7.848   0.240   2.939  1.1807  1.2635  3.2510
  826MOL0     H13925   7.849   0.442   2.715 -0.6584  0.4063 -0.7081
  826MOL0     H13926   7.817   0.276   2.700 -0.6256  1.8329 -2.7568
  826MOL0     H13927   7.624   0.287   2.849  1.2124  0.7981  3.7501
  826MOL0     H13928   7.664   0.441   2.911 -0.3821 -3.1719  1.9497
  826MOL0     H13929   7.614   0.542   2.680  2.9655 -0.0716  1.9389
  826MOL0     H13930   7.484   0.490   2.792 -0.5485 -2.0861 -0.7363
  826MOL0     H13931   7.570   0.297   2.563 -2.7791 -2.9020 -0.5066
  826MOL0     H13932   7.442   0.284   2.667  1.9591 -0.7162  1.7963
  826MOL0     H13933   7.447   0.540   2.522 -0.7729  0.7281  2.3594
  826MOL0     H13934   7.301   0.431   2.557 -0.9776 -2.7621  0.4498
  826MOL0     H13935   7.373   0.453   2.310 -0.7194 -1.6095 -0.4136
  826MOL0     H13936   7.505   0.353   2.360  0.1028  2.5372 -2.0288
  826MOL0     H13937   7.118   0.366   2.363 -0.2246  0.8243  1.3593
  826MOL0     H13938   6.932   0.197   2.437  1.7889  1.1452  2.3699
  826MOL0     H13939   6.988   0.043   2.522 -1.4525 -3.8097 -1.1142
  826MOL0     H13940   6.980  -0.082   2.327 -2.0498 -0.4074  2.3249
  826MOL0     H13941   6.833   0.020   2.304 -0.2609 -0.7671 -2.0038
  826MOL0     H13942   6.986   0.166   2.166 -1.1549 -0.8237 -1.0246
  826MOL0     H13943   7.112   0.042   2.164  2.4236  7.0879  1.0929
  826MOL0     H13944   7.008  -0.003   1.971  1.9784 -0.3457  0.6395
  826MOL0     H13945   6.966  -0.136   2.080  0.3683 -1.3217 -1.6782
  826MOL0     H13946   6.565  -0.016   1.996  1.0653  1.1369 -0.3275
  826MOL0     H13947   6.368   0.011   1.876 -3.1959 -1.9788  0.9329
  826MOL0     H13948   6.329  -0.149   1.818 -0.8906  0.6353  0.0948
  826MOL0     H13949   6.360  -0.018   1.706 -2.2947 -0.4234  0.6016
  826MOL0     H13950   6.518  -0.531   1.517  0.6336  0.0075  2.6472
  826MOL0     H13951   6.450  -0.659   1.359 -0.8287 -0.1061  0.3148
  826MOL0     H13952   6.287  -0.806   1.275  2.9311 -0.2877 -0.9747
  826MOL0     H13953   6.204  -0.817   1.120 -0.8991 -1.0794  1.5575
  826MOL0     H13954   6.439  -0.684   1.058 -0.1654  0.5916  0.6435
  826MOL0     H13955   6.497  -0.801   1.165 -0.8604 -1.1059 -0.4982
  826MOL0     H13956   6.492  -0.905   0.919 -0.7417  2.3889 -1.6855
  826MOL0     H13957   6.326  -0.892   0.928  1.4179  0.4470 -1.3916
  826MOL0     H13958   6.336  -1.037   1.135  0.7698 -2.8293 -0.1166
  826MOL0     H13959   6.514  -1.056   1.106  0.2107  0.9964 -2.1436
  826MOL0     H13960   6.381  -1.244   1.031  0.3130  0.4463  0.6727
  826MOL0     H13961   6.264  -1.148   0.959 -0.1372 -2.3613  1.4567
  826MOL0     H13962   6.472  -1.081   0.784 -1.3721 -0.1585 -0.6227
  826MOL0     H13963   6.411  -1.245   0.763  2.6255 -2.2761  0.4288
  826MOL0     H13964   6.564  -1.358   0.863  1.3833 -0.5716  3.1149
  826MOL0     H13965   6.636  -1.214   0.952 -1.3793 -2.9353  1.6660
  826MOL0     H13966   6.776  -1.275   0.761 -0.1637  0.4783 -1.6074
  826MOL0     H13967   6.700  -1.118   0.758  3.6381 -0.4409  1.2397
  826MOL0     H13968   6.137  -0.405   1.210  0.3386 -0.9522  0.5510
  826MOL0     H13969   6.179  -0.247   1.402 -1.2328 -0.4990  1.1979
  826MOL0     H13970   6.806  -0.241   1.647 -1.5236 -4.3968  2.2003
  826MOL0     H13971   6.934  -0.146   1.828  1.3937  3.8361  1.4896
  826MOL0     H13972   7.765   0.690   3.041  0.5951  0.1485 -0.4152
  826MOL0     H13973   7.784   0.871   3.236  4.7496  2.3019  3.0726
  826MOL0     H13974   7.838   1.004   3.611 -0.0918 -0.6215 -2.7443
  826MOL0     H13975   7.849   1.143   3.809 -1.3802  0.9283 -1.2406
  826MOL0     H13976   7.880   1.356   3.892 -1.2927 -2.7996  0.2784
  826MOL0     H13977   7.924   1.250   4.014  0.1008 -0.9631 -0.4310
  826MOL0     H13978   8.046   1.516   3.956  1.2133 -0.3183 -0.2582
  826MOL0     H13979   8.082   1.427   4.112 -1.1244 -0.0440  0.8124
  826MOL0     H13980   7.838   1.591   4.035 -1.6701  0.9990  3.5862
  826MOL0     H13981   7.826   1.453   4.152  1.2103  0.6352  1.4109
  826MOL0     H13982   8.019   1.693   4.174  1.3672 -1.3535  2.4713
  826MOL0     H13983   8.004   1.547   4.276  0.0260  0.4201 -0.1279
  826MOL0     H13984   7.663   1.713   4.419  2.4007 -1.0788  4.2142
  826MOL0     H13985   8.260   1.240   3.708 -1.1427  0.2938  1.0574
  826MOL0     H13986   8.331   0.971   3.506 -0.3474 -0.9433  1.1858
  826MOL0     H13987   8.262   1.103   3.397 -1.7917  0.8622  0.5213
  826MOL0     H13988   8.360   1.148   3.533 -1.0567  1.2089 -1.5280
  827MOL0     O13989   7.057  11.032   4.462  0.5967  0.3209 -0.1183
  827MOL0     C13990   7.044  11.084   4.574  0.1085 -0.7641 -0.7637
  827MOL0     O13991   7.152  11.120   4.653  0.8494  0.1109  0.2773
  827MOL0     C13992   7.282  11.103   4.610  0.0403  0.3782 -0.3871
  827MOL0     C13993   7.377  11.203   4.624 -0.1330 -0.4212  0.8379
  827MOL0     C13994   7.511  11.190   4.590 -0.7817  0.7197  0.1275
  827MOL0     C13995   7.554  11.067   4.545 -0.0681  0.1123  0.5217
  827MOL0     O13996   7.692  11.056   4.535 -0.4593  0.8618 -0.0867
  827MOL0     C13997   7.743  11.043   4.400 -0.1853 -0.6172 -0.6914
  827MOL0     C13998   7.734  11.184   4.330 -0.7699 -1.0107 -0.1644
  827MOL0     C13999   7.774  11.162   4.191  0.6711 -0.3650  0.0703
  827MOL0     C14000   7.770  11.291   4.118  0.4924 -0.4452  1.1595
  827MOL0     C14001   7.826  11.284   3.971  0.2943 -0.4969  0.6180
  827MOL0     C14002   7.811  11.421   3.912  0.3826  0.3000 -0.6095
  827MOL0     C14003   7.838  11.424   3.756  0.1842  0.4319  0.5049
  827MOL0     C14004   7.904  11.552   3.715  0.4622  0.1084  0.0768
  827MOL0     N14005   8.042  11.533   3.675 -0.2695 -0.6783 -0.8714
  827MOL0     C14006   8.146  11.557   3.759 -0.0715  1.2445 -0.0888
  827MOL0     C14007   8.258  11.527   3.679 -0.7788 -0.4772 -0.0281
  827MOL0     C14008   8.400  11.534   3.727 -0.0168 -0.0603 -1.2217
  827MOL0     C14009   8.495  11.459   3.638 -0.2361  0.9895  0.7935
  827MOL0     C14010   8.488  11.317   3.681  0.8353  0.6644 -0.1996
  827MOL0     C14011   8.357  11.243   3.638 -0.7701  0.1808 -0.0984
  827MOL0     O14012   8.379  11.098   3.677 -0.3536 -0.9207  0.5238
  827MOL0     C14013   8.268  11.038   3.732 -0.0217 -0.9858 -0.6034
  827MOL0     C14014   8.294  10.949   3.831  1.0929 -0.0915  0.0930
  827MOL0     C14015   8.189  10.864   3.880 -0.0703 -0.8811 -1.4632
  827MOL0     C14016   8.228  10.759   3.988 -0.5808 -0.3381  0.0693
  827MOL0     C14017   8.061  10.884   3.840 -0.0412 -0.6709 -0.3516
  827MOL0     C14018   7.947  10.807   3.878  1.1608 -0.8133 -0.0527
  827MOL0     O14019   7.837  10.872   3.925  0.2125  0.4319  0.5612
  827MOL0     C14020   7.727  10.797   3.931 -0.0693  0.1918  0.5914
  827MOL0     C14021   7.621  10.815   3.835 -0.8515  0.3776 -1.0082
  827MOL0     C14022   7.498  10.748   3.850 -0.7914  0.4177 -0.5777
  827MOL0     C14023   7.482  10.669   3.970  0.5828 -0.3103  0.5194
  827MOL0     O14024   7.362  10.608   3.994 -0.5112 -0.1309 -0.3206
  827MOL0     C14025   7.281  10.630   4.104 -0.6729  0.2896 -0.6169
  827MOL0     C14026   7.217  10.773   4.104  0.3389  1.0716  0.3078
  827MOL0     C14027   7.325  10.882   4.126  1.0416 -0.5981  0.3232
  827MOL0     C14028   7.267  11.008   4.196  0.4520 -0.1117  0.5682
  827MOL0     C14029   7.328  11.129   4.135 -0.6130  0.8983  0.2731
  827MOL0     C14030   7.271  11.268   4.187  0.0261 -0.8128  0.2652
  827MOL0     C14031   7.325  11.378   4.087  0.2401  0.4772 -1.4470
  827MOL0     C14032   7.335  11.513   4.163  0.3134 -0.2469 -0.1169
  827MOL0    Cl14033   7.472  11.509   4.278  0.1581 -0.0553 -0.0571
  827MOL0     C14034   7.588  10.650   4.056 -0.2754  1.2436  0.2774
  827MOL0     C14035   7.711  10.709   4.041 -0.9952  0.5356  0.6442
  827MOL0     O14036   7.947  10.690   3.838 -0.4322 -0.0444 -0.1573
  827MOL0     C14037   8.028  10.982   3.743 -0.1189  0.3674 -0.1820
  827MOL0     C14038   8.137  11.052   3.690 -0.6043 -0.2157 -0.1407
  827MOL0     N14039   8.212  11.494   3.551  0.5574 -0.1296 -0.4877
  827MOL0     N14040   8.081  11.501   3.549 -0.9024 -0.7281  0.8913
  827MOL0     C14041   7.460  10.960   4.525  0.1473  0.4709  0.2977
  827MOL0     C14042   7.326  10.981   4.551 -0.3123 -0.2870 -0.5799
  827MOL0     C14043   6.919  11.141   4.614 -0.2729  0.9570 -0.7710
  827MOL0     C14044   6.818  11.158   4.511  0.6222  0.6197  0.0686
  827MOL0     C14045   6.702  11.231   4.524 -0.2885  0.6252  0.5626
  827MOL0     C14046   6.668  11.271   4.659 -0.3836 -0.1744 -0.2135
  827MOL0     O14047   6.558  11.342   4.679  0.8722 -0.5782 -0.7005
  827MOL0     C14048   6.444  11.275   4.738  0.0529 -0.1968  0.2579
  827MOL0     C14049   6.332  11.292   4.636  1.3796  0.2983 -0.2178
  827MOL0     C14050   6.318  11.438   4.583  0.0960 -1.2290  0.2796
  827MOL0     C14051   6.181  11.462   4.516  0.6019  0.1587 -0.0765
  827MOL0     C14052   6.160  11.371   4.401 -0.0037 -0.4441  0.9101
  827MOL0     C14053   6.143  11.293   4.315 -0.0421 -0.7281  0.5013
  827MOL0     C14054   6.749  11.242   4.765 -0.0198 -0.2319  0.2997
  827MOL0     C14055   6.881  11.180   4.746 -0.6623  0.4178 -0.7169
  827MOL0     C14056   6.975  11.154   4.871 -0.2180 -0.5245  0.0306
  827MOL0     H14057   7.337  11.293   4.669  1.1352  0.0198  1.1232
  827MOL0     H14058   7.577  11.277   4.588 -0.5540  0.8362  3.9911
  827MOL0     H14059   7.679  10.969   4.351 -2.0914  1.0136 -0.7954
  827MOL0     H14060   7.850  11.020   4.404 -0.1141 -0.2668 -0.5431
  827MOL0     H14061   7.628  11.210   4.341 -0.4898  0.7344 -1.0855
  827MOL0     H14062   7.802  11.247   4.387 -2.0204 -1.9567  2.5045
  827MOL0     H14063   7.873  11.117   4.186 -0.2569 -2.3524 -2.5142
  827MOL0     H14064   7.695  11.090   4.166 -0.4646  0.5888  0.7969
  827MOL0     H14065   7.671  11.338   4.107  0.0670 -0.7967  3.1356
  827MOL0     H14066   7.817  11.365   4.183  0.2241 -1.5084  2.6124
  827MOL0     H14067   7.765  11.214   3.913  1.6318 -1.4959  0.3770
  827MOL0     H14068   7.928  11.245   3.976 -0.2541 -1.8168  2.3035
  827MOL0     H14069   7.709  11.461   3.919  0.5857  0.5334  1.7210
  827MOL0     H14070   7.872  11.495   3.965 -1.7160  2.0570 -0.4933
  827MOL0     H14071   7.740  11.411   3.710  0.5099 -0.2612 -0.0155
  827MOL0     H14072   7.896  11.337   3.724  1.4469  0.4321  2.6026
  827MOL0     H14073   7.855  11.592   3.626 -1.0309  3.2459  2.1217
  827MOL0     H14074   7.882  11.634   3.785  2.2965 -0.1668  1.0570
  827MOL0     H14075   8.151  11.588   3.862  3.5839  0.3524  0.1346
  827MOL0     H14076   8.403  11.507   3.833 -0.4434 -1.3821 -1.5291
  827MOL0     H14077   8.426  11.640   3.734  1.7400 -0.5711  3.2015
  827MOL0     H14078   8.487  11.474   3.530  1.3185  0.7375  0.6189
  827MOL0     H14079   8.595  11.485   3.677  1.3190 -2.8117 -0.2306
  827MOL0     H14080   8.573  11.265   3.635 -0.7525 -2.6007  0.3022
  827MOL0     H14081   8.499  11.316   3.790 -1.7945 -0.2956  0.1156
  827MOL0     H14082   8.272  11.278   3.697  0.1051 -0.8990  1.9154
  827MOL0     H14083   8.341  11.246   3.530  3.1719  1.1163 -0.7961
  827MOL0     H14084   8.394  10.928   3.867  0.2667 -0.7810  2.1424
  827MOL0     H14085   8.149  10.691   4.022  0.4449 -0.9317  1.3758
  827MOL0     H14086   8.251  10.814   4.080 -0.0383 -0.1137 -0.2019
  827MOL0     H14087   8.317  10.707   3.952 -0.6559 -2.2769  2.4080
  827MOL0     H14088   7.636  10.875   3.745  1.1086 -1.1760 -1.7971
  827MOL0     H14089   7.411  10.772   3.790  0.5144  0.6624 -2.4839
  827MOL0     H14090   7.208  10.549   4.099  1.2024 -1.4564 -1.1837
  827MOL0     H14091   7.330  10.614   4.200 -2.7685 -0.3169  0.4119
  827MOL0     H14092   7.185  10.787   4.000 -0.5490 -1.3656  0.2079
  827MOL0     H14093   7.137  10.765   4.178  2.5615 -4.7707  2.6621
  827MOL0     H14094   7.376  10.927   4.041 -1.0125 -0.2426 -0.7911
  827MOL0     H14095   7.404  10.836   4.186  6.1211  3.0446 -2.7784
  827MOL0     H14096   7.296  11.012   4.301 -0.6826 -0.7703  0.9316
  827MOL0     H14097   7.158  11.010   4.197  0.2978 -3.0665  2.2098
  827MOL0     H14098   7.437  11.138   4.140 -0.1219 -2.4509 -1.3105
  827MOL0     H14099   7.307  11.126   4.028  1.3824 -3.0697 -0.1934
  827MOL0     H14100   7.308  11.287   4.288 -1.8656  1.4727  0.6090
  827MOL0     H14101   7.161  11.270   4.185 -0.0313  2.6637  0.9378
  827MOL0     H14102   7.257  11.388   4.002  0.9842  1.3131 -1.9605
  827MOL0     H14103   7.415  11.340   4.037  0.7740 -1.3705  0.7314
  827MOL0     H14104   7.244  11.531   4.221  1.7925 -0.3598  2.3500
  827MOL0     H14105   7.348  11.587   4.083 -0.6195  3.2964  2.7498
  827MOL0     H14106   7.566  10.580   4.136 -0.9076 -0.5498 -1.3864
  827MOL0     H14107   7.791  10.690   4.112  0.3473  1.5369 -0.5469
  827MOL0     H14108   7.927  10.990   3.704 -1.1492  2.6613  2.5958
  827MOL0     H14109   8.105  11.118   3.610  0.1277  3.7211  2.5359
  827MOL0     H14110   7.499  10.863   4.497 -2.6942  0.1071 -3.1056
  827MOL0     H14111   7.262  10.896   4.531  0.5844 -0.3533 -3.7961
  827MOL0     H14112   6.854  11.122   4.415  2.4853  0.1127  0.9059
  827MOL0     H14113   6.625  11.253   4.450 -0.4484  0.6754  0.7432
  827MOL0     H14114   6.464  11.168   4.753  5.0466  0.0421 -2.3826
  827MOL0     H14115   6.418  11.333   4.828  0.4816  1.0325 -0.3917
  827MOL0     H14116   6.241  11.267   4.691  0.5381  0.9417 -1.2899
  827MOL0     H14117   6.349  11.228   4.548 -0.5488 -0.5876  0.0170
  827MOL0     H14118   6.325  11.510   4.666 -1.8448 -2.6416  1.7633
  827MOL0     H14119   6.397  11.457   4.510 -1.6862  1.1801 -1.1736
  827MOL0     H14120   6.176  11.568   4.492  2.2251  0.6078  1.3525
  827MOL0     H14121   6.104  11.434   4.589 -3.1514  0.1322 -3.6798
  827MOL0     H14122   6.112  11.217   4.245  0.4474  1.2835 -2.0363
  827MOL0     H14123   6.715  11.272   4.863 -2.6701 -2.2629  0.1196
  827MOL0     H14124   6.916  11.149   4.963 -1.5408  2.5704 -0.5458
  827MOL0     H14125   7.048  11.074   4.861  0.7680  0.3523  0.0581
  827MOL0     H14126   7.029  11.249   4.876  0.4245 -0.7439 -1.8723
  828MOL0     O14127   4.728   0.388   7.239 -0.1564 -0.2588 -0.2589
  828MOL0     C14128   4.658   0.481   7.200 -0.5730  0.0050 -0.3143
  828MOL0     O14129   4.597   0.492   7.080  0.3151 -0.4878  0.9431
  828MOL0     C14130   4.644   0.422   6.975  0.6755 -0.3564 -0.0465
  828MOL0     C14131   4.770   0.441   6.918  0.2953  0.1567 -0.1998
  828MOL0     C14132   4.813   0.372   6.798 -0.2008 -1.5321 -0.4857
  828MOL0     C14133   4.731   0.280   6.746 -0.1301  0.5576 -0.7430
  828MOL0     O14134   4.782   0.201   6.641 -0.4073  0.6006 -0.6259
  828MOL0     C14135   4.747   0.056   6.630  0.3685 -1.0721 -0.0259
  828MOL0     C14136   4.817   0.004   6.504  0.3273 -0.1480  0.1024
  828MOL0     C14137   4.747   0.031   6.380 -0.5778 -1.2068  0.4839
  828MOL0     C14138   4.826   0.084   6.261 -0.1945 -0.1103  1.1189
  828MOL0     C14139   4.965   0.020   6.249  0.2122 -0.0774  0.4594
  828MOL0     C14140   5.020   0.075   6.116  0.1721 -0.8303 -0.1796
  828MOL0     C14141   5.168   0.030   6.088 -0.0908  0.5215 -0.2440
  828MOL0     C14142   5.171  -0.070   5.978 -0.8366  0.1482 -0.5667
  828MOL0     N14143   5.310  -0.126   5.957  0.7774 -0.8626 -0.7060
  828MOL0     C14144   5.367  -0.198   6.058  0.5019 -1.3252 -0.4305
  828MOL0     C14145   5.486  -0.246   6.009  0.5174 -0.8442  0.5944
  828MOL0     C14146   5.585  -0.336   6.080  1.3303 -0.2294 -0.9739
  828MOL0     C14147   5.723  -0.264   6.088 -0.5790 -0.5429 -0.1684
  828MOL0     C14148   5.837  -0.362   6.119  0.1171 -0.0768 -0.4347
  828MOL0     C14149   5.967  -0.284   6.114  0.5196 -0.9195  0.3685
  828MOL0     O14150   5.952  -0.167   6.203 -0.6066  0.7408 -0.5079
  828MOL0     C14151   6.044  -0.158   6.305  1.0911  0.5243 -0.6116
  828MOL0     C14152   6.163  -0.100   6.275  0.8976  0.4811  0.0057
  828MOL0     C14153   6.266  -0.094   6.370 -1.1126  0.0598 -0.4202
  828MOL0     C14154   6.397  -0.041   6.340  0.7597 -1.1507 -0.2992
  828MOL0     C14155   6.245  -0.153   6.498 -0.3746 -0.8609 -0.2475
  828MOL0     C14156   6.339  -0.151   6.612 -0.2284  0.4406  1.0785
  828MOL0     O14157   6.467  -0.204   6.589  0.5488  0.2702 -0.5972
  828MOL0     C14158   6.569  -0.196   6.683  0.6578 -1.2120 -0.4219
  828MOL0     C14159   6.661  -0.304   6.675  0.6712 -0.1371  0.4598
  828MOL0     C14160   6.775  -0.307   6.756 -0.8343 -0.2817  0.3295
  828MOL0     C14161   6.802  -0.198   6.839  1.3019  0.2717  0.0760
  828MOL0     O14162   6.923  -0.218   6.906  0.0663  0.2403 -0.0839
  828MOL0     C14163   6.946  -0.166   7.043  0.0967  0.7485 -0.2179
  828MOL0     C14164   6.981  -0.263   7.153 -0.3072 -0.2463  0.6798
  828MOL0     C14165   6.903  -0.401   7.138 -0.2968 -0.0481 -0.2436
  828MOL0     C14166   6.845  -0.436   7.274  0.4375  1.7981  1.0067
  828MOL0     C14167   6.761  -0.571   7.286 -0.0881  0.4519  0.6766
  828MOL0     C14168   6.643  -0.571   7.180  0.9317  0.1450 -0.7044
  828MOL0     C14169   6.547  -0.440   7.204  1.1571 -0.7655  0.5313
  828MOL0     C14170   6.415  -0.455   7.115 -0.0111 -0.5671 -0.5680
  828MOL0    Cl14171   6.445  -0.436   6.938  0.2625  0.6562 -0.2359
  828MOL0     C14172   6.716  -0.090   6.853 -1.3208  0.3870 -0.7985
  828MOL0     C14173   6.597  -0.089   6.774 -0.0676 -0.8652 -0.9259
  828MOL0     O14174   6.299  -0.107   6.720 -0.2776 -0.0141  0.6321
  828MOL0     C14175   6.116  -0.206   6.533  0.4339 -0.7674  0.4093
  828MOL0     C14176   6.010  -0.206   6.440 -0.9284  0.0563 -0.7936
  828MOL0     N14177   5.492  -0.196   5.872  1.3423  0.7393 -0.2812
  828MOL0     N14178   5.390  -0.128   5.846 -0.0890  0.2581 -1.2674
  828MOL0     C14179   4.616   0.252   6.810 -0.9947  0.2285  0.9282
  828MOL0     C14180   4.567   0.322   6.926 -0.6778  0.1725 -0.0850
  828MOL0     C14181   4.641   0.594   7.297 -0.6269  0.1369  1.1355
  828MOL0     C14182   4.609   0.716   7.255 -0.0119  0.6117 -0.3381
  828MOL0     C14183   4.596   0.829   7.336 -0.1326 -0.2314  0.0337
  828MOL0     C14184   4.607   0.821   7.468 -0.0120  0.4949  0.2655
  828MOL0     O14185   4.608   0.939   7.550  0.0617 -0.1219 -0.2389
  828MOL0     C14186   4.730   1.001   7.569  0.0079  0.3349  0.0490
  828MOL0     C14187   4.772   1.092   7.455 -0.7585 -0.0536 -0.5068
  828MOL0     C14188   4.668   1.206   7.447  0.2713  0.4049  0.5866
  828MOL0     C14189   4.654   1.323   7.547  0.4169 -0.5990  0.5523
  828MOL0     C14190   4.781   1.398   7.556 -0.3400 -0.3085  0.6350
  828MOL0     C14191   4.872   1.478   7.552 -0.2943  0.5649 -0.6823
  828MOL0     C14192   4.623   0.690   7.522  0.3612 -0.2196  0.4988
  828MOL0     C14193   4.660   0.581   7.444  0.1790  1.1044 -0.2970
  828MOL0     C14194   4.706   0.453   7.519  0.1473 -0.2991 -0.4171
  828MOL0     H14195   4.833   0.515   6.967 -1.5449  0.1087  2.4776
  828MOL0     H14196   4.915   0.387   6.763  0.8707  1.8742  3.3035
  828MOL0     H14197   4.638   0.040   6.629 -0.1835  1.7571 -2.6565
  828MOL0     H14198   4.782   0.003   6.719 -2.1889  0.1014  1.8181
  828MOL0     H14199   4.919   0.043   6.505  0.4015 -0.3461  0.5499
  828MOL0     H14200   4.832  -0.104   6.511  0.6489 -0.1306 -0.2764
  828MOL0     H14201   4.707  -0.068   6.357 -1.9509 -0.6697  0.4598
  828MOL0     H14202   4.658   0.094   6.384 -0.7372 -1.0549 -2.8362
  828MOL0     H14203   4.771   0.052   6.172  0.5705  1.0153  0.2195
  828MOL0     H14204   4.840   0.192   6.262  0.2629 -0.1013 -1.1666
  828MOL0     H14205   4.944  -0.087   6.235 -0.4613 -0.3094  2.8255
  828MOL0     H14206   5.024   0.038   6.339 -1.0732 -0.0507  1.3220
  828MOL0     H14207   4.956   0.052   6.031  2.3802 -0.8130 -1.9376
  828MOL0     H14208   5.000   0.182   6.113 -3.0862 -1.3573 -1.6409
  828MOL0     H14209   5.221  -0.015   6.173  0.7624 -0.4392 -1.2569
  828MOL0     H14210   5.231   0.118   6.073  0.5839  0.4994  2.0162
  828MOL0     H14211   5.098  -0.149   5.999 -1.0656  0.6826  0.7697
  828MOL0     H14212   5.131  -0.021   5.889 -1.2254  0.2344 -0.3467
  828MOL0     H14213   5.342  -0.206   6.163  1.3129 -0.3295 -0.1590
  828MOL0     H14214   5.588  -0.439   6.046  2.6426 -1.5594  2.6784
  828MOL0     H14215   5.552  -0.356   6.182 -3.7263  0.4004 -2.2023
  828MOL0     H14216   5.741  -0.223   5.988  4.7129  2.0241  1.4719
  828MOL0     H14217   5.712  -0.185   6.163 -0.0040 -0.2666 -0.3713
  828MOL0     H14218   5.835  -0.425   6.209  0.2149 -1.6544 -1.4937
  828MOL0     H14219   5.829  -0.438   6.041 -2.5176  2.2114 -2.5990
  828MOL0     H14220   6.060  -0.339   6.135  0.2403 -0.7401  2.2570
  828MOL0     H14221   5.966  -0.248   6.011 -1.6408  1.3150  1.0553
  828MOL0     H14222   6.180  -0.073   6.171  1.7980 -0.6027 -0.1389
  828MOL0     H14223   6.474  -0.118   6.327  0.5255 -2.0177  2.8634
  828MOL0     H14224   6.428   0.026   6.421 -1.6912 -0.9832  0.5848
  828MOL0     H14225   6.376   0.027   6.257 -1.2177 -1.0811  0.2184
  828MOL0     H14226   6.650  -0.384   6.602 -2.4288 -1.2908  2.0414
  828MOL0     H14227   6.843  -0.392   6.751  0.4036  0.7103 -0.3280
  828MOL0     H14228   7.010  -0.077   7.045 -2.1941  2.5768 -2.3024
  828MOL0     H14229   6.849  -0.135   7.083  0.5108  0.6104  0.9320
  828MOL0     H14230   7.087  -0.287   7.160 -1.0328 -3.1656  4.6137
  828MOL0     H14231   6.960  -0.208   7.245  0.3797  1.3627 -0.0701
  828MOL0     H14232   6.975  -0.477   7.107  2.0397  2.4348 -1.2656
  828MOL0     H14233   6.818  -0.395   7.069  1.8494 -1.0250 -3.1456
  828MOL0     H14234   6.766  -0.363   7.296 -0.3663  1.6053 -1.0567
  828MOL0     H14235   6.924  -0.438   7.350  2.3773 -1.6185 -0.8471
  828MOL0     H14236   6.833  -0.651   7.269 -0.5853  0.3661 -1.3026
  828MOL0     H14237   6.713  -0.590   7.382  0.8640 -0.9845  0.8906
  828MOL0     H14238   6.597  -0.666   7.204  1.5633  0.1053  0.4188
  828MOL0     H14239   6.672  -0.575   7.074 -1.6474 -3.3538 -1.4427
  828MOL0     H14240   6.598  -0.348   7.174 -3.0235  1.4533 -0.6078
  828MOL0     H14241   6.516  -0.432   7.308  0.1081 -2.3356  0.3782
  828MOL0     H14242   6.353  -0.367   7.130  2.3437  1.3762 -1.5506
  828MOL0     H14243   6.365  -0.545   7.153 -0.0548 -0.0665  0.5908
  828MOL0     H14244   6.745  -0.001   6.909  0.6005 -0.4930 -0.3245
  828MOL0     H14245   6.534  -0.001   6.770  1.5018  0.3330 -0.6621
  828MOL0     H14246   6.103  -0.249   6.631 -0.9345 -2.1056 -0.3306
  828MOL0     H14247   5.908  -0.240   6.455 -1.3326  2.4798  3.5486
  828MOL0     H14248   4.546   0.184   6.764 -1.3918  0.4443  1.2007
  828MOL0     H14249   4.479   0.282   6.975 -2.1803  0.0169 -2.7140
  828MOL0     H14250   4.596   0.732   7.148 -1.3805 -3.1670 -0.8711
  828MOL0     H14251   4.567   0.925   7.295 -1.1111  1.0919  3.5273
  828MOL0     H14252   4.705   1.062   7.656 -1.0913  0.1943 -0.1522
  828MOL0     H14253   4.811   0.928   7.577  0.3230  0.6782 -0.0125
  828MOL0     H14254   4.772   1.050   7.354  0.7153  0.7640 -0.8698
  828MOL0     H14255   4.869   1.136   7.478  0.6508 -2.6115 -1.2161
  828MOL0     H14256   4.687   1.262   7.355  2.3532  0.7019  1.1439
  828MOL0     H14257   4.574   1.150   7.436  2.7412 -3.9149 -0.8568
  828MOL0     H14258   4.639   1.294   7.652  2.6200 -0.4469  0.9674
  828MOL0     H14259   4.575   1.393   7.519  2.2120 -0.3289 -4.9524
  828MOL0     H14260   4.929   1.569   7.556  1.7645 -0.5048 -2.8450
  828MOL0     H14261   4.638   0.684   7.630 -0.7697  1.0534  0.7526
  828MOL0     H14262   4.804   0.411   7.495  0.2001 -1.2597  1.3222
  828MOL0     H14263   4.697   0.465   7.627  1.9107 -0.5102 -0.2272
  828MOL0     H14264   4.649   0.364   7.492 -0.9622  0.4799 -0.7224
  829MOL0     O14265   1.836   1.441   5.936  0.1687 -0.2910  0.0467
  829MOL0     C14266   1.808   1.522   5.847  0.6695 -0.3184 -1.1035
  829MOL0     O14267   1.686   1.545   5.788 -0.1858 -0.2306 -0.3470
  829MOL0     C14268   1.595   1.444   5.778 -0.8274  0.2001 -0.9622
  829MOL0     C14269   1.640   1.326   5.710 -0.2263 -0.8711 -0.0558
  829MOL0     C14270   1.551   1.225   5.686 -1.0262 -0.8179  0.2463
  829MOL0     C14271   1.422   1.236   5.748  0.0950 -0.1866 -1.0877
  829MOL0     O14272   1.331   1.129   5.744 -0.3241  0.0344 -0.2852
  829MOL0     C14273   1.364   1.015   5.666 -0.2480 -0.5571 -0.2778
  829MOL0     C14274   1.287   0.900   5.734 -0.4549  0.2139  0.9396
  829MOL0     C14275   1.385   0.831   5.845 -0.0485  0.2759 -0.1546
  829MOL0     C14276   1.403   0.891   5.987  0.8994 -0.1598 -1.1909
  829MOL0     C14277   1.536   0.842   6.051 -0.3357  0.0561 -0.7392
  829MOL0     C14278   1.565   0.919   6.176  0.0309 -0.2115  0.7797
  829MOL0     C14279   1.713   0.897   6.218 -0.5063 -0.5371  0.0501
  829MOL0     C14280   1.742   0.946   6.357  0.2234  0.0484  0.3829
  829MOL0     N14281   1.872   0.898   6.402 -0.3448  0.3684 -0.1715
  829MOL0     C14282   1.887   0.777   6.464 -0.5204 -0.7128 -0.2334
  829MOL0     C14283   2.018   0.762   6.473  0.4913 -0.2822 -0.0426
  829MOL0     C14284   2.080   0.639   6.540  1.0809  0.3043 -0.3710
  829MOL0     C14285   2.141   0.543   6.449 -0.3321 -0.2378  0.3517
  829MOL0     C14286   2.217   0.438   6.532 -0.6151  0.5441 -0.6101
  829MOL0     C14287   2.315   0.349   6.446  0.3578 -0.0929 -0.4474
  829MOL0     O14288   2.429   0.433   6.403  0.5989 -0.8670 -0.8390
  829MOL0     C14289   2.433   0.492   6.283  0.2641 -0.5210  0.7266
  829MOL0     C14290   2.339   0.481   6.175  0.0739 -0.3374  1.1815
  829MOL0     C14291   2.360   0.531   6.045  0.3795  0.0925  0.3026
  829MOL0     C14292   2.254   0.500   5.934 -0.9508  0.0154 -0.4081
  829MOL0     C14293   2.474   0.603   6.011 -0.2558 -0.6330 -0.4016
  829MOL0     C14294   2.507   0.645   5.881 -0.0306  0.1269 -0.1975
  829MOL0     O14295   2.568   0.760   5.879 -0.6324 -0.2984  0.1551
  829MOL0     C14296   2.599   0.811   5.751  0.0855 -0.2884  0.0830
  829MOL0     C14297   2.506   0.891   5.678 -0.2620 -1.1624  0.2400
  829MOL0     C14298   2.537   0.943   5.551 -0.9528 -0.1349  0.8107
  829MOL0     C14299   2.666   0.918   5.493  0.7844 -0.1027 -1.2119
  829MOL0     O14300   2.712   0.974   5.375  0.1819  0.3495 -0.3090
  829MOL0     C14301   2.671   1.118   5.358 -1.1891 -0.0770  0.3151
  829MOL0     C14302   2.773   1.193   5.276  0.1590 -0.4779 -0.3853
  829MOL0     C14303   2.884   1.239   5.373  1.2448 -0.5945  0.1277
  829MOL0     C14304   2.989   1.314   5.289 -0.0139 -0.6658 -0.4738
  829MOL0     C14305   3.041   1.426   5.374  0.1495 -0.3688 -0.6606
  829MOL0     C14306   3.155   1.505   5.312 -0.0701 -0.1005  0.7519
  829MOL0     C14307   3.109   1.603   5.199 -0.8399  0.9031 -0.3522
  829MOL0     C14308   3.052   1.731   5.257 -0.1133 -0.7356  0.4618
  829MOL0    Cl14309   3.012   1.843   5.117 -0.2189  0.0504  0.4384
  829MOL0     C14310   2.756   0.841   5.566  0.0221  0.2261 -0.3733
  829MOL0     C14311   2.723   0.784   5.694 -0.3986 -0.4892 -0.3612
  829MOL0     O14312   2.484   0.576   5.786 -1.2960 -0.3375  0.4109
  829MOL0     C14313   2.545   0.648   6.128  0.7210  0.4206  0.4656
  829MOL0     C14314   2.530   0.584   6.256 -0.2807 -0.1013  0.4803
  829MOL0     N14315   2.085   0.872   6.424  1.3483 -0.2763  0.6937
  829MOL0     N14316   1.993   0.954   6.379  0.4155 -0.0502  0.6450
  829MOL0     C14317   1.381   1.345   5.828 -0.5064 -0.2748  0.7336
  829MOL0     C14318   1.468   1.449   5.827 -0.0028  0.1812 -0.0722
  829MOL0     C14319   1.920   1.604   5.795 -0.0009 -0.6027 -0.4092
  829MOL0     C14320   2.052   1.584   5.846 -0.1943 -0.7644 -0.3218
  829MOL0     C14321   2.158   1.678   5.833 -0.9061  0.4250 -0.5063
  829MOL0     C14322   2.142   1.790   5.754  0.7800  1.0077 -1.0727
  829MOL0     O14323   2.254   1.867   5.721 -0.0431 -0.0154 -0.4516
  829MOL0     C14324   2.240   1.980   5.628  0.6092 -0.0721 -0.6011
  829MOL0     C14325   2.362   2.059   5.639 -1.0020 -0.1625 -0.6308
  829MOL0     C14326   2.379   2.171   5.540 -0.5731 -0.1024 -0.1887
  829MOL0     C14327   2.519   2.225   5.530 -0.5218  0.3884 -0.1350
  829MOL0     C14328   2.578   2.162   5.415 -0.2727 -0.5324 -1.1427
  829MOL0     C14329   2.622   2.106   5.319  0.3178 -0.4373  0.3745
  829MOL0     C14330   2.017   1.805   5.693 -0.1011  0.6124 -1.0957
  829MOL0     C14331   1.909   1.716   5.709 -0.0692 -0.0929  0.0210
  829MOL0     C14332   1.785   1.757   5.633 -0.7360  0.4743 -0.0033
  829MOL0     H14333   1.735   1.318   5.658  0.6882 -0.3574  1.4547
  829MOL0     H14334   1.594   1.135   5.644  2.1817  0.3521  0.7480
  829MOL0     H14335   1.468   0.983   5.654 -0.6037 -2.6514  1.5548
  829MOL0     H14336   1.323   1.018   5.565 -0.2144  0.8704 -0.2699
  829MOL0     H14337   1.209   0.953   5.789  0.4631  1.8752  0.6882
  829MOL0     H14338   1.239   0.839   5.656  0.3370 -0.7155  1.1668
  829MOL0     H14339   1.341   0.731   5.851  1.2932 -0.3771 -0.7467
  829MOL0     H14340   1.488   0.816   5.809  0.1853  3.7941 -1.3197
  829MOL0     H14341   1.407   1.000   5.984 -0.8950  0.1740  2.5760
  829MOL0     H14342   1.312   0.857   6.037 -1.0616  2.2943 -2.8475
  829MOL0     H14343   1.623   0.858   5.987  1.1971 -0.5607  1.1111
  829MOL0     H14344   1.531   0.736   6.076  4.7685 -0.9367 -2.5957
  829MOL0     H14345   1.550   1.026   6.155  3.9810 -0.1067 -3.0924
  829MOL0     H14346   1.489   0.885   6.247 -2.4856  2.7900 -0.2734
  829MOL0     H14347   1.770   0.943   6.137 -3.2667  0.1929 -1.6316
  829MOL0     H14348   1.727   0.788   6.220  1.7045 -0.3275 -1.2004
  829MOL0     H14349   1.745   1.055   6.344  2.1629 -0.0989 -0.7371
  829MOL0     H14350   1.668   0.908   6.428  0.7613 -0.0159  0.9075
  829MOL0     H14351   1.812   0.711   6.507 -1.3182  1.1962  1.5067
  829MOL0     H14352   2.014   0.597   6.617 -0.6184  0.4286 -1.6886
  829MOL0     H14353   2.162   0.680   6.599 -0.6546 -0.6908  2.9824
  829MOL0     H14354   2.063   0.495   6.388  2.2035 -1.0389 -2.5184
  829MOL0     H14355   2.213   0.594   6.384 -0.8523 -2.9881 -2.6813
  829MOL0     H14356   2.275   0.493   6.607  2.5936 -1.8813 -1.1180
  829MOL0     H14357   2.142   0.390   6.597 -0.0145  1.3005  0.6946
  829MOL0     H14358   2.360   0.268   6.505 -0.0660  0.4012  0.5898
  829MOL0     H14359   2.261   0.309   6.360  1.1571 -2.5156  0.0856
  829MOL0     H14360   2.251   0.420   6.192 -0.0580 -1.9718 -3.6843
  829MOL0     H14361   2.253   0.579   5.859  4.1005 -0.9556 -1.9157
  829MOL0     H14362   2.155   0.478   5.974 -2.2380 -0.8225 -3.7274
  829MOL0     H14363   2.282   0.414   5.873  0.5042  0.1758 -0.0107
  829MOL0     H14364   2.413   0.930   5.716  0.3733  0.0286  0.5914
  829MOL0     H14365   2.479   1.023   5.508  0.4989  0.2913 -0.4489
  829MOL0     H14366   2.576   1.105   5.304 -0.6568 -3.4860 -0.0014
  829MOL0     H14367   2.653   1.173   5.451 -0.2199 -1.5740  1.4378
  829MOL0     H14368   2.813   1.121   5.204  1.2632  0.1032 -0.3717
  829MOL0     H14369   2.731   1.282   5.227 -1.0508 -1.1355 -0.5871
  829MOL0     H14370   2.935   1.154   5.420  0.6968  0.2469  2.3642
  829MOL0     H14371   2.841   1.309   5.446 -2.3439  0.0430 -2.3267
  829MOL0     H14372   2.942   1.352   5.198 -0.3499 -2.0430 -0.9005
  829MOL0     H14373   3.068   1.243   5.263 -1.4642 -3.2536  1.7520
  829MOL0     H14374   2.955   1.488   5.399  1.7912  1.8384 -0.1886
  829MOL0     H14375   3.079   1.375   5.463  3.2210  0.7211 -1.2113
  829MOL0     H14376   3.228   1.433   5.275 -1.2505  0.7481 -3.7295
  829MOL0     H14377   3.193   1.565   5.396  1.4418 -0.3981  0.3191
  829MOL0     H14378   3.026   1.557   5.143 -0.5548 -1.6262  1.1446
  829MOL0     H14379   3.185   1.623   5.124 -0.5360 -1.7890 -0.8663
  829MOL0     H14380   3.122   1.777   5.328 -0.4111 -1.6556  1.3786
  829MOL0     H14381   2.962   1.708   5.316  0.8348 -0.1528  2.2236
  829MOL0     H14382   2.848   0.811   5.516 -0.5638 -0.6724 -0.9291
  829MOL0     H14383   2.792   0.729   5.757  0.1013 -0.4687 -0.8803
  829MOL0     H14384   2.633   0.711   6.117  0.9129 -0.0075 -0.5130
  829MOL0     H14385   2.605   0.604   6.332  1.1886 -1.4821 -0.5307
  829MOL0     H14386   1.289   1.341   5.885  1.0721 -0.9481  3.3769
  829MOL0     H14387   1.431   1.543   5.866  0.0799  0.0773  0.2573
  829MOL0     H14388   2.092   1.516   5.921  1.4222 -0.1121 -0.5401
  829MOL0     H14389   2.255   1.672   5.881  0.9095 -2.6962 -4.0726
  829MOL0     H14390   2.201   1.956   5.528  0.8013  1.3925 -1.0630
  829MOL0     H14391   2.156   2.044   5.656 -1.3693 -2.9706  0.5494
  829MOL0     H14392   2.436   1.981   5.621  0.6445  1.4126 -0.9522
  829MOL0     H14393   2.386   2.101   5.737 -0.3165  2.9911 -2.0117
  829MOL0     H14394   2.343   2.150   5.439 -0.7612  1.1373 -0.3977
  829MOL0     H14395   2.309   2.246   5.579  0.4800 -0.5089  2.6931
  829MOL0     H14396   2.587   2.199   5.612 -1.4155 -1.9781 -0.0838
  829MOL0     H14397   2.513   2.332   5.508 -1.2872  0.3566 -0.0993
  829MOL0     H14398   2.663   2.067   5.228 -2.4236 -1.0299 -0.7153
  829MOL0     H14399   1.997   1.890   5.628 -2.7221  0.7342 -0.2318
  829MOL0     H14400   1.691   1.752   5.689  0.4594 -2.2212  1.9852
  829MOL0     H14401   1.776   1.857   5.589 -2.4080  0.8260  1.0217
  829MOL0     H14402   1.767   1.686   5.551 -0.0101 -2.1462  1.9783
  830MOL0     O14403   0.772   4.165   4.367 -0.8404 -0.5682  0.2837
  830MOL0     C14404   0.833   4.082   4.427  0.5812  1.4055  0.2135
  830MOL0     O14405   0.970   4.068   4.426  0.5645  0.3604 -0.1345
  830MOL0     C14406   1.057   4.168   4.372  0.0320  0.4941 -0.8100
  830MOL0     C14407   1.190   4.137   4.333 -0.1446 -0.9780 -0.0307
  830MOL0     C14408   1.273   4.239   4.312 -0.7311  0.5287  0.8525
  830MOL0     C14409   1.238   4.366   4.316  0.2328 -0.6030  0.1184
  830MOL0     O14410   1.321   4.478   4.284 -0.1203 -0.6499 -0.6140
  830MOL0     C14411   1.457   4.452   4.313 -0.3100 -0.2032 -0.0969
  830MOL0     C14412   1.542   4.581   4.338  0.1827  0.5902 -0.3709
  830MOL0     C14413   1.489   4.680   4.441  0.0613 -0.1487  0.1742
  830MOL0     C14414   1.588   4.790   4.465  0.0458  0.1826  1.0993
  830MOL0     C14415   1.517   4.892   4.547 -0.2638 -0.4923 -0.2060
  830MOL0     C14416   1.597   5.017   4.556 -0.1411 -0.8079  0.9255
  830MOL0     C14417   1.520   5.137   4.611 -0.7943  0.8085  0.0607
  830MOL0     C14418   1.592   5.267   4.612 -0.4877  0.1941 -0.2483
  830MOL0     N14419   1.673   5.292   4.736 -0.2925  0.1424 -0.7869
  830MOL0     C14420   1.703   5.416   4.778  0.7948 -0.5811  0.2904
  830MOL0     C14421   1.801   5.416   4.867 -0.6125  0.5418  1.1977
  830MOL0     C14422   1.890   5.531   4.916  0.6824 -0.9419  0.5143
  830MOL0     C14423   2.008   5.558   4.810  1.2730  1.1460  0.3124
  830MOL0     C14424   2.000   5.695   4.751 -0.2658  0.1449  0.8693
  830MOL0     C14425   1.868   5.723   4.674  1.0349  0.2153 -0.0714
  830MOL0     O14426   1.879   5.646   4.564  0.2194 -0.0509 -0.3768
  830MOL0     C14427   1.772   5.611   4.485  1.1631  0.2304 -0.5672
  830MOL0     C14428   1.646   5.654   4.505 -0.4164 -0.0916  0.1961
  830MOL0     C14429   1.540   5.605   4.425  0.4342  1.1847  0.3117
  830MOL0     C14430   1.409   5.663   4.467 -0.5999  0.0540 -0.8240
  830MOL0     C14431   1.555   5.510   4.324 -0.4111 -0.5518  1.0092
  830MOL0     C14432   1.441   5.455   4.248  0.6580  1.2629  0.9372
  830MOL0     O14433   1.466   5.331   4.199 -1.2020 -0.2987 -0.4231
  830MOL0     C14434   1.408   5.295   4.086 -0.4128 -0.1660  0.7396
  830MOL0     C14435   1.274   5.265   4.076 -0.3032  0.4595  0.1689
  830MOL0     C14436   1.214   5.221   3.962 -0.0506  0.3760 -0.0867
  830MOL0     C14437   1.283   5.208   3.839  0.2321  0.8273  0.3138
  830MOL0     O14438   1.230   5.157   3.721  0.4490 -0.4021  0.4329
  830MOL0     C14439   1.310   5.126   3.606  0.4284  0.5960 -0.2029
  830MOL0     C14440   1.337   5.241   3.508  0.4622 -0.0556 -0.3353
  830MOL0     C14441   1.195   5.315   3.471  0.7889 -0.5218  0.0828
  830MOL0     C14442   1.200   5.425   3.365 -0.5792  0.2178 -0.4857
  830MOL0     C14443   1.056   5.481   3.315 -1.2083  0.1094  0.1341
  830MOL0     C14444   1.069   5.564   3.188  0.0762 -0.2361 -1.3826
  830MOL0     C14445   0.930   5.613   3.143  0.0728  0.5879  0.0416
  830MOL0     C14446   0.954   5.755   3.080  0.7174 -0.2386 -0.0616
  830MOL0    Cl14447   0.801   5.798   3.000  0.3048 -0.2422 -0.0662
  830MOL0     C14448   1.426   5.242   3.851  0.6140  0.2677  0.2558
  830MOL0     C14449   1.484   5.289   3.966  0.4397  0.2840 -1.0506
  830MOL0     O14450   1.338   5.514   4.233  0.6196 -0.3079 -0.0935
  830MOL0     C14451   1.690   5.466   4.305  0.3985  0.1483  0.5077
  830MOL0     C14452   1.791   5.514   4.384  0.4231 -0.2918 -0.5256
  830MOL0     N14453   1.835   5.280   4.875 -0.1523  0.3397 -0.3275
  830MOL0     N14454   1.756   5.211   4.800 -0.9443  0.3738 -0.2898
  830MOL0     C14455   1.106   4.404   4.365 -0.8506 -0.1674 -0.2022
  830MOL0     C14456   1.018   4.305   4.394  0.0285 -0.3087  0.9894
  830MOL0     C14457   0.744   3.987   4.509 -0.3074 -0.3210  0.0913
  830MOL0     C14458   0.605   3.985   4.488 -0.0932 -0.6873  0.3654
  830MOL0     C14459   0.520   3.891   4.549 -0.7871 -0.2564  0.2724
  830MOL0     C14460   0.575   3.785   4.628 -0.3329 -0.6114 -0.0428
  830MOL0     O14461   0.486   3.693   4.673 -0.2099  0.5901 -0.6811
  830MOL0     C14462   0.510   3.611   4.790  0.5042 -0.7941 -0.2620
  830MOL0     C14463   0.382   3.545   4.834  1.1448  0.1843  0.1293
  830MOL0     C14464   0.282   3.650   4.897  0.8257  0.0728  0.5413
  830MOL0     C14465   0.151   3.596   4.948  0.7420  1.0193  0.0430
  830MOL0     C14466   0.175   3.489   5.056  0.2423  0.5403 -0.1517
  830MOL0     C14467   0.188   3.394   5.132  0.5130 -1.0423 -0.7047
  830MOL0     C14468   0.720   3.781   4.650  1.1124 -0.0243  0.6422
  830MOL0     C14469   0.800   3.882   4.593  0.1122  0.0040  0.0833
  830MOL0     C14470   0.944   3.886   4.645  0.1751  0.1366 -0.4531
  830MOL0     H14471   1.224   4.038   4.303  1.8003 -0.3585 -0.0152
  830MOL0     H14472   1.367   4.200   4.275 -1.7677 -1.1703 -0.1277
  830MOL0     H14473   1.502   4.400   4.227  2.2087  4.6857 -2.1054
  830MOL0     H14474   1.458   4.391   4.403  1.7579 -0.3267 -0.1715
  830MOL0     H14475   1.645   4.551   4.361  1.0624  3.4658 -0.1541
  830MOL0     H14476   1.539   4.639   4.245 -0.0898  1.7345  0.3367
  830MOL0     H14477   1.402   4.732   4.399  0.9891  2.5491  1.3259
  830MOL0     H14478   1.461   4.640   4.539  1.4825 -0.0046  0.6610
  830MOL0     H14479   1.680   4.743   4.501  1.5266  0.0878 -2.3510
  830MOL0     H14480   1.623   4.833   4.370  0.3235 -0.7731  0.7533
  830MOL0     H14481   1.494   4.854   4.647  0.2793 -0.3228 -0.0122
  830MOL0     H14482   1.419   4.923   4.511 -1.8330 -2.1510  2.3078
  830MOL0     H14483   1.687   4.993   4.614  0.6280 -2.2410 -0.7647
  830MOL0     H14484   1.635   5.039   4.456 -1.1224 -1.6424  0.3531
  830MOL0     H14485   1.479   5.110   4.709 -1.4388 -1.4914 -0.7864
  830MOL0     H14486   1.433   5.149   4.547 -1.4369  1.6192  1.0539
  830MOL0     H14487   1.649   5.276   4.520  0.1643 -2.2600 -0.1384
  830MOL0     H14488   1.521   5.350   4.614 -0.0921  0.5480 -0.7263
  830MOL0     H14489   1.659   5.511   4.750  1.9739 -0.0576  0.1832
  830MOL0     H14490   1.941   5.508   5.010  3.3322  4.5086  0.7869
  830MOL0     H14491   1.840   5.627   4.933  0.2373 -1.1758  0.5336
  830MOL0     H14492   2.098   5.550   4.871  0.8676  5.1324  1.7724
  830MOL0     H14493   2.006   5.481   4.733 -1.5343  2.6425 -1.3167
  830MOL0     H14494   2.015   5.769   4.830 -3.3184  0.8701  0.8691
  830MOL0     H14495   2.083   5.709   4.681 -2.0101  2.8374 -0.8212
  830MOL0     H14496   1.777   5.696   4.730  0.0529  1.2662 -1.1095
  830MOL0     H14497   1.862   5.831   4.656 -0.5025  0.9613  3.8965
  830MOL0     H14498   1.627   5.726   4.584  3.3120  2.7397 -1.2057
  830MOL0     H14499   1.346   5.591   4.521 -0.7834  0.2995 -0.7076
  830MOL0     H14500   1.351   5.699   4.382 -1.4985 -3.1325 -1.7143
  830MOL0     H14501   1.416   5.744   4.540  2.4433 -0.8158 -0.0086
  830MOL0     H14502   1.216   5.280   4.167 -0.0889  0.9847  0.2240
  830MOL0     H14503   1.110   5.189   3.955 -0.2513  0.8454  0.7113
  830MOL0     H14504   1.407   5.086   3.635 -0.4464 -2.1195 -0.7794
  830MOL0     H14505   1.261   5.049   3.547  1.5970 -0.9385  0.7518
  830MOL0     H14506   1.420   5.304   3.541 -1.9225  2.2140  1.8641
  830MOL0     H14507   1.378   5.195   3.418  0.3243 -0.9016  0.0277
  830MOL0     H14508   1.139   5.363   3.551 -0.8418  2.5354 -2.6501
  830MOL0     H14509   1.123   5.242   3.433 -0.9921  0.7617  0.9106
  830MOL0     H14510   1.268   5.385   3.289 -1.2604  1.0615 -1.5762
  830MOL0     H14511   1.259   5.501   3.417  0.0679 -0.7584  0.2510
  830MOL0     H14512   0.990   5.398   3.287  0.8347 -0.4769 -3.7018
  830MOL0     H14513   1.014   5.547   3.391 -3.2909 -1.2890  0.2707
  830MOL0     H14514   1.129   5.522   3.107  2.4586  0.4047 -0.0541
  830MOL0     H14515   1.126   5.648   3.229 -1.9408  1.0458 -1.0273
  830MOL0     H14516   0.849   5.624   3.215 -0.6743  2.3166 -0.9946
  830MOL0     H14517   0.890   5.546   3.067 -1.6290  0.1789  1.2427
  830MOL0     H14518   1.037   5.774   3.010  2.7903  0.8867  2.5419
  830MOL0     H14519   0.971   5.826   3.162  0.1665  0.2971 -0.3977
  830MOL0     H14520   1.490   5.220   3.766 -3.3184  0.5631 -3.0754
  830MOL0     H14521   1.590   5.314   3.964  0.0196  2.6852  1.1325
  830MOL0     H14522   1.711   5.404   4.218 -2.3079 -1.0702  0.6425
  830MOL0     H14523   1.894   5.480   4.376  0.3489 -0.2488 -1.8114
  830MOL0     H14524   1.069   4.506   4.370 -0.7843 -0.1375  4.8514
  830MOL0     H14525   0.922   4.334   4.436 -1.2648 -2.1293 -0.5248
  830MOL0     H14526   0.551   4.064   4.437 -0.8291 -3.0821 -2.9092
  830MOL0     H14527   0.413   3.896   4.528 -0.8134  0.9539  0.6589
  830MOL0     H14528   0.589   3.536   4.779 -0.1285 -2.1375  3.2573
  830MOL0     H14529   0.547   3.678   4.868  0.4861  0.0154 -0.9247
  830MOL0     H14530   0.410   3.460   4.897  1.8755 -1.3671 -2.1440
  830MOL0     H14531   0.340   3.497   4.745  1.7109 -0.6404  0.2962
  830MOL0     H14532   0.331   3.710   4.974  1.6542  1.3948 -0.9489
  830MOL0     H14533   0.258   3.720   4.816 -1.1239 -3.8177 -2.6114
  830MOL0     H14534   0.079   3.568   4.870 -2.3140  1.9304  2.3338
  830MOL0     H14535   0.094   3.674   4.999 -3.1440 -1.0070 -0.8217
  830MOL0     H14536   0.187   3.313   5.203  1.5942  0.5633  1.2446
  830MOL0     H14537   0.756   3.700   4.713 -0.0662 -0.0862  1.2700
  830MOL0     H14538   1.035   3.877   4.585 -0.0873  0.5926 -0.9333
  830MOL0     H14539   0.961   3.979   4.701 -2.0058  2.8234 -3.8478
  830MOL0     H14540   0.944   3.807   4.720  5.1758  1.2148  1.0837
  831MOL0     O14541   3.839   2.822  10.843  0.6044  0.1486 -0.4776
  831MOL0     C14542   3.781   2.712  10.851 -0.2293 -1.0753 -0.2347
  831MOL0     O14543   3.841   2.589  10.861  0.0731  0.3160 -0.8053
  831MOL0     C14544   3.964   2.581  10.794  0.8138  0.3133  1.1259
  831MOL0     C14545   4.052   2.485  10.852  0.6268 -0.4426  0.5190
  831MOL0     C14546   4.170   2.459  10.787 -0.2726  0.3494  0.1013
  831MOL0     C14547   4.224   2.527  10.682  0.1484  0.4555 -0.0748
  831MOL0     O14548   4.350   2.491  10.642  0.8139 -0.0011 -0.1398
  831MOL0     C14549   4.447   2.596  10.649 -0.0670 -0.2098 -0.9532
  831MOL0     C14550   4.528   2.594  10.522  0.1710  0.8279 -0.6267
  831MOL0     C14551   4.653   2.679  10.522 -0.3655 -0.7461  0.1587
  831MOL0     C14552   4.733   2.684  10.387 -0.0981 -0.3132  1.2827
  831MOL0     C14553   4.848   2.782  10.391  0.1082 -0.2176  0.8412
  831MOL0     C14554   4.947   2.749  10.494 -0.1406  0.1392  0.4411
  831MOL0     C14555   5.080   2.824  10.481 -0.0024  0.4487 -0.5645
  831MOL0     C14556   5.159   2.798  10.599  0.0915  0.4857 -0.3215
  831MOL0     N14557   5.139   2.675  10.675 -0.1633  0.0075  0.3225
  831MOL0     C14558   5.144   2.548  10.617  0.9283 -0.2998  0.2019
  831MOL0     C14559   5.089   2.459  10.698  0.2855  0.0416  0.7249
  831MOL0     C14560   5.058   2.313  10.669 -1.4799 -0.0206 -0.0641
  831MOL0     C14561   4.923   2.304  10.595 -0.5401  0.1637  0.1192
  831MOL0     C14562   4.842   2.179  10.608  0.5478  0.0796 -1.0833
  831MOL0     C14563   4.911   2.045  10.574  0.0707  1.7096 -0.5461
  831MOL0     O14564   4.950   2.042  10.433  0.2245  0.8452 -0.5144
  831MOL0     C14565   4.988   1.922  10.384 -0.5169  0.7247 -0.0976
  831MOL0     C14566   5.039   1.916  10.253  0.6589  0.8895 -0.6929
  831MOL0     C14567   5.077   1.795  10.194 -0.3365 -0.5520  0.4611
  831MOL0     C14568   5.106   1.807  10.046 -0.9977 -0.0884  0.3737
  831MOL0     C14569   5.090   1.679  10.274 -0.6157  0.6326  0.0713
  831MOL0     C14570   5.138   1.547  10.230 -0.1474  0.6120 -0.0009
  831MOL0     O14571   5.081   1.440  10.297 -0.2451  0.1192  0.4667
  831MOL0     C14572   5.122   1.318  10.255  0.4083 -0.3851 -0.7873
  831MOL0     C14573   5.075   1.279  10.127  0.3002 -0.4507 -0.5512
  831MOL0     C14574   5.113   1.146  10.083  0.1132 -0.9273  0.4413
  831MOL0     C14575   5.175   1.062  10.166 -0.7530 -0.4161  0.7988
  831MOL0     O14576   5.236   0.940  10.118  0.4723  0.5322 -0.8091
  831MOL0     C14577   5.223   0.889   9.982 -0.3527  0.3632 -0.0843
  831MOL0     C14578   5.236   0.738   9.980 -0.3315 -0.0694 -0.0205
  831MOL0     C14579   5.240   0.688   9.827 -0.4257 -0.2712 -0.8472
  831MOL0     C14580   5.243   0.541   9.802 -0.1511  0.5482  0.4108
  831MOL0     C14581   5.100   0.487   9.783 -0.5343 -0.1332 -0.5186
  831MOL0     C14582   5.098   0.335   9.771  0.6554  0.5824 -0.1754
  831MOL0     C14583   5.132   0.289   9.634 -0.5045 -0.0073  0.7123
  831MOL0     C14584   5.183   0.141   9.651 -0.9770  0.8161  0.1301
  831MOL0    Cl14585   5.254   0.089   9.496  0.3391 -0.0115  0.3762
  831MOL0     C14586   5.206   1.101  10.296 -0.2226 -0.2537 -0.0041
  831MOL0     C14587   5.185   1.233  10.343  0.3073  0.1784  0.6317
  831MOL0     O14588   5.216   1.541  10.136  0.4305  0.5321 -0.7493
  831MOL0     C14589   5.046   1.681  10.411  0.8058  0.1416 -0.1638
  831MOL0     C14590   4.996   1.802  10.457  1.0895 -0.8793 -0.1649
  831MOL0     N14591   5.027   2.537  10.796 -0.1073  0.2836  0.0119
  831MOL0     N14592   5.069   2.660  10.788  0.2003 -0.2307 -1.2136
  831MOL0     C14593   4.153   2.633  10.630  1.3031  0.1119 -0.0768
  831MOL0     C14594   4.020   2.652  10.682 -0.4284  0.1857  0.3071
  831MOL0     C14595   3.637   2.717  10.848 -0.2265 -0.2933 -0.9199
  831MOL0     C14596   3.575   2.831  10.906  0.1849  0.6676 -0.2788
  831MOL0     C14597   3.440   2.827  10.929 -0.0308  0.0418 -0.4236
  831MOL0     C14598   3.352   2.728  10.874 -1.0071  0.2334 -0.4711
  831MOL0     O14599   3.220   2.765  10.866 -1.0043 -0.0537 -0.1774
  831MOL0     C14600   3.198   2.855  10.756  0.0341  0.6377  0.1852
  831MOL0     C14601   3.057   2.910  10.777 -0.8848 -0.0704  0.3054
  831MOL0     C14602   2.937   2.810  10.780  0.4903 -0.7684  0.6131
  831MOL0     C14603   2.902   2.765  10.640  1.0421 -0.1671 -0.2649
  831MOL0     C14604   2.995   2.663  10.590 -0.1355  0.3508  1.0575
  831MOL0     C14605   3.084   2.590  10.554 -0.1181  0.8903  0.0490
  831MOL0     C14606   3.408   2.615  10.828  0.2545  0.6716  0.7716
  831MOL0     C14607   3.552   2.607  10.816  0.5037 -0.9005 -1.1941
  831MOL0     C14608   3.604   2.475  10.757 -0.4209 -0.3148 -0.7954
  831MOL0     H14609   4.033   2.432  10.945  3.1405  0.4150  1.5959
  831MOL0     H14610   4.230   2.377  10.826  0.0023  1.4096  2.0093
  831MOL0     H14611   4.511   2.565  10.731 -2.1652  2.5349  1.9801
  831MOL0     H14612   4.417   2.699  10.670 -2.4699 -1.0136 -0.0057
  831MOL0     H14613   4.563   2.490  10.526  0.3248  0.8980  2.1242
  831MOL0     H14614   4.462   2.602  10.435  1.1102 -0.2579 -1.4727
  831MOL0     H14615   4.614   2.780  10.537 -0.8987 -0.7113 -1.3731
  831MOL0     H14616   4.715   2.637  10.603 -4.5043  0.1533  4.2436
  831MOL0     H14617   4.772   2.587  10.356 -1.3155  0.3444 -2.9567
  831MOL0     H14618   4.654   2.712  10.317  0.8707  3.5430  1.5152
  831MOL0     H14619   4.812   2.883  10.411  0.6139  0.1263  0.0603
  831MOL0     H14620   4.904   2.781  10.297 -0.6848 -3.6335  0.2852
  831MOL0     H14621   4.902   2.775  10.590 -3.2896  1.1324 -1.1559
  831MOL0     H14622   4.958   2.641  10.477  0.2090  0.5428 -2.4420
  831MOL0     H14623   5.065   2.930  10.459  2.0202  0.7129 -0.8569
  831MOL0     H14624   5.115   2.802  10.380 -0.1860 -2.1085 -0.1432
  831MOL0     H14625   5.267   2.793  10.583  0.4441  0.9216  1.7155
  831MOL0     H14626   5.130   2.880  10.664  0.1249 -0.8275  1.4228
  831MOL0     H14627   5.190   2.533  10.520  3.6609 -1.2182  1.5237
  831MOL0     H14628   5.043   2.257  10.762 -2.5010 -1.1122 -0.8550
  831MOL0     H14629   5.150   2.281  10.620 -0.0646  0.6298  2.0255
  831MOL0     H14630   4.864   2.388  10.633 -0.5772  0.3778 -0.4122
  831MOL0     H14631   4.943   2.320  10.489  1.9121 -0.6307  0.4023
  831MOL0     H14632   4.810   2.181  10.713  1.8071  0.2020 -0.6884
  831MOL0     H14633   4.746   2.190  10.557 -0.1602 -1.6300 -0.2207
  831MOL0     H14634   4.998   2.015  10.633  0.0426  0.7432 -0.9784
  831MOL0     H14635   4.834   1.970  10.597  0.2088  1.5064 -0.7516
  831MOL0     H14636   5.031   2.006  10.192  2.0648 -0.7987 -3.5940
  831MOL0     H14637   5.079   1.905  10.005  2.2400  1.1142  0.8166
  831MOL0     H14638   5.084   1.715   9.992 -0.3074 -0.1546  0.1986
  831MOL0     H14639   5.214   1.812  10.029 -1.1419 -1.0038 -0.9106
  831MOL0     H14640   5.017   1.347  10.065  3.4892  1.9277 -1.1642
  831MOL0     H14641   5.098   1.121   9.979 -2.5101  0.2915  0.4483
  831MOL0     H14642   5.124   0.911   9.942  0.0397  0.2941 -1.1274
  831MOL0     H14643   5.296   0.933   9.913  0.4799 -1.0812 -0.1597
  831MOL0     H14644   5.322   0.715  10.044  1.3629 -0.3947 -2.2772
  831MOL0     H14645   5.139   0.711  10.020 -0.5239  2.0282  1.0882
  831MOL0     H14646   5.325   0.741   9.783  0.3307  1.4670  2.3987
  831MOL0     H14647   5.155   0.725   9.768 -0.2416 -0.1521 -1.0397
  831MOL0     H14648   5.283   0.484   9.887 -3.2377 -0.2998  1.3959
  831MOL0     H14649   5.307   0.532   9.713  2.4978  1.0112  2.1294
  831MOL0     H14650   5.043   0.517   9.871  0.9453  4.4087 -0.8427
  831MOL0     H14651   5.049   0.532   9.698  1.6106  3.1452 -0.2739
  831MOL0     H14652   4.994   0.310   9.793  1.1184 -1.2177  0.1632
  831MOL0     H14653   5.165   0.292   9.846  1.0375 -1.1986 -1.4683
  831MOL0     H14654   5.219   0.341   9.592 -1.7043  2.7910  1.4894
  831MOL0     H14655   5.043   0.299   9.571  0.6842  1.3319 -0.8417
  831MOL0     H14656   5.105   0.071   9.681  1.7116 -2.6596 -0.4117
  831MOL0     H14657   5.253   0.128   9.734 -0.7975 -2.9199 -0.4658
  831MOL0     H14658   5.258   1.039  10.367  0.7975  0.6187  0.0282
  831MOL0     H14659   5.222   1.251  10.443  0.4705  0.4570  0.5194
  831MOL0     H14660   5.054   1.592  10.473 -1.1844  1.0386  1.4749
  831MOL0     H14661   4.965   1.795  10.561 -0.1516  3.7110 -0.0253
  831MOL0     H14662   4.200   2.699  10.558  0.5867 -0.0963 -0.7437
  831MOL0     H14663   3.953   2.726  10.640 -4.0278 -1.8368  2.0244
  831MOL0     H14664   3.635   2.916  10.938 -0.5185  1.5765 -1.3119
  831MOL0     H14665   3.388   2.912  10.971 -0.5039 -0.7597  0.6738
  831MOL0     H14666   3.262   2.943  10.761  0.3831  0.3125  1.8660
  831MOL0     H14667   3.203   2.797  10.663 -1.8832  1.7971 -0.7118
  831MOL0     H14668   3.037   2.987  10.702  0.5577 -0.3797 -0.4399
  831MOL0     H14669   3.067   2.962  10.873  0.4348  0.3516 -0.0403
  831MOL0     H14670   2.954   2.719  10.839 -0.1839 -0.8803  0.6335
  831MOL0     H14671   2.846   2.860  10.813 -1.4588 -3.0332 -1.0330
  831MOL0     H14672   2.884   2.839  10.562 -3.6168 -2.8249 -2.1452
  831MOL0     H14673   2.799   2.728  10.634 -0.3225  3.2748 -0.1516
  831MOL0     H14674   3.159   2.521  10.519 -0.7704  0.5742 -0.7754
  831MOL0     H14675   3.338   2.538  10.798 -1.3008  1.3497  2.5025
  831MOL0     H14676   3.681   2.427  10.819 -2.5352 -0.6515  1.7213
  831MOL0     H14677   3.519   2.407  10.754  0.6872 -1.7339 -2.5393
  831MOL0     H14678   3.646   2.484  10.656  3.6200 -0.0470  0.7282
  832MOL0     O14679   4.547  11.492   6.109 -0.8711  0.0864  0.1548
  832MOL0     C14680   4.527  11.476   5.989 -0.0726  0.5193 -0.1569
  832MOL0     O14681   4.478  11.565   5.906 -0.5711  0.6105  0.0131
  832MOL0     C14682   4.509  11.691   5.927 -0.3687  0.3341 -0.4383
  832MOL0     C14683   4.445  11.769   6.016  0.1293  0.5856 -0.7151
  832MOL0     C14684   4.482  11.901   6.039 -0.5197  0.4865 -0.2472
  832MOL0     C14685   4.587  11.963   5.967  0.3299  1.1209 -0.1124
  832MOL0     O14686   4.629  12.089   5.982  0.0487  0.3484  0.5154
  832MOL0     C14687   4.608  12.151   6.109 -0.0181  0.1949 -0.6919
  832MOL0     C14688   4.520  12.270   6.074  0.4891 -0.0214 -0.0576
  832MOL0     C14689   4.538  12.387   6.182  0.0468  0.7311  0.2443
  832MOL0     C14690   4.542  12.338   6.321  1.0981 -0.0793  0.1745
  832MOL0     C14691   4.548  12.440   6.433  0.1245  0.5253 -0.1737
  832MOL0     C14692   4.550  12.369   6.574 -0.4046 -0.6437  0.2083
  832MOL0     C14693   4.605  12.464   6.683  0.2857  0.5078  0.3968
  832MOL0     C14694   4.694  12.374   6.773 -0.3098 -0.3130  0.0605
  832MOL0     N14695   4.731  12.457   6.882 -0.1216  0.3996 -0.1518
  832MOL0     C14696   4.841  12.536   6.865  0.4351  1.0779 -0.8176
  832MOL0     C14697   4.824  12.628   6.963 -0.2803  0.2552  0.4079
  832MOL0     C14698   4.912  12.752   6.972 -0.3721 -0.3476 -1.2173
  832MOL0     C14699   4.989  12.771   7.103 -0.0430 -0.1563 -0.1509
  832MOL0     C14700   5.124  12.709   7.094  0.3310 -0.3152 -0.0121
  832MOL0     C14701   5.202  12.698   7.230  0.5681 -0.1846 -0.1329
  832MOL0     O14702   5.145  12.602   7.319  0.3916  0.5281  0.4803
  832MOL0     C14703   5.156  12.470   7.277 -0.1766  0.2336  0.2260
  832MOL0     C14704   5.285  12.418   7.250 -0.6203  0.6553  0.3155
  832MOL0     C14705   5.305  12.288   7.206 -0.5257  0.5058  0.1517
  832MOL0     C14706   5.443  12.223   7.178  0.4239  0.4379 -0.5983
  832MOL0     C14707   5.185  12.214   7.177  0.0788  0.5087  0.1983
  832MOL0     C14708   5.199  12.079   7.119 -0.3384  0.3584 -0.9043
  832MOL0     O14709   5.117  12.054   7.007  0.4151  0.3206 -0.4051
  832MOL0     C14710   5.122  11.929   6.948  0.9577  0.0165 -0.4362
  832MOL0     C14711   5.208  11.882   6.849 -0.3470  0.1509 -0.5625
  832MOL0     C14712   5.176  11.760   6.778 -0.7771  0.3764 -0.2016
  832MOL0     C14713   5.072  11.683   6.825 -0.3760  0.0266 -0.7508
  832MOL0     O14714   5.066  11.560   6.760  0.4432  0.5487 -0.3160
  832MOL0     C14715   5.031  11.434   6.837  0.0995 -0.6538  0.0509
  832MOL0     C14716   5.146  11.381   6.936  0.5770  0.3679 -0.6710
  832MOL0     C14717   5.264  11.331   6.852 -0.5482  0.0268  0.8158
  832MOL0     C14718   5.232  11.194   6.783  0.3072  0.3641  0.0862
  832MOL0     C14719   5.274  11.080   6.878  0.2339  0.5592  0.4612
  832MOL0     C14720   5.280  10.931   6.818 -0.2388  0.6905 -1.2750
  832MOL0     C14721   5.165  10.893   6.738  0.2447 -0.1447 -0.5149
  832MOL0     C14722   5.147  10.742   6.712  0.1379  0.8784 -0.1428
  832MOL0    Cl14723   5.280  10.671   6.623  0.2859 -0.0096 -0.1221
  832MOL0     C14724   4.995  11.722   6.927 -0.8066  0.3549 -0.3623
  832MOL0     C14725   5.016  11.846   6.980  0.0461  0.5801 -0.3730
  832MOL0     O14726   5.259  11.990   7.176  0.7232 -0.6273  0.8241
  832MOL0     C14727   5.059  12.270   7.204 -1.2094  1.0155  0.4719
  832MOL0     C14728   5.044  12.394   7.251  0.1317  0.5247 -0.6882
  832MOL0     N14729   4.714  12.600   7.034  0.5843  0.5003 -0.9221
  832MOL0     N14730   4.651  12.505   6.976  0.1145 -0.2315 -0.0019
  832MOL0     C14731   4.626  11.888   5.855  1.1538 -0.3193  0.1649
  832MOL0     C14732   4.596  11.751   5.845 -0.8795 -0.6340  0.1551
  832MOL0     C14733   4.538  11.334   5.941  0.4010 -0.4593 -0.3149
  832MOL0     C14734   4.434  11.275   5.878  0.1765 -0.2769  0.4708
  832MOL0     C14735   4.433  11.153   5.829 -0.2303 -0.8131 -0.1574
  832MOL0     C14736   4.536  11.062   5.869  0.0141 -0.0463  0.6162
  832MOL0     O14737   4.522  10.929   5.822 -0.0981  1.0271  0.1902
  832MOL0     C14738   4.419  10.851   5.873 -0.7694 -0.8102  0.1034
  832MOL0     C14739   4.409  10.840   6.032 -0.1012 -0.1897  1.1040
  832MOL0     C14740   4.394  10.693   6.070 -0.5401  0.6945 -0.8564
  832MOL0     C14741   4.384  10.673   6.220  0.3677  0.4452 -0.8977
  832MOL0     C14742   4.376  10.531   6.265  0.2509  0.6861 -0.6976
  832MOL0     C14743   4.385  10.416   6.315 -0.4268 -0.2366  0.6816
  832MOL0     C14744   4.646  11.111   5.935 -0.7512  0.1091  0.4051
  832MOL0     C14745   4.643  11.247   5.980  0.0157 -0.3241 -0.0406
  832MOL0     C14746   4.776  11.290   6.056 -0.4798  0.3647 -0.3216
  832MOL0     H14747   4.379  11.727   6.091  1.6238  2.1946  1.6140
  832MOL0     H14748   4.437  11.951   6.124 -3.3280 -1.9622 -0.1371
  832MOL0     H14749   4.708  12.180   6.144  1.2937 -0.1361 -3.7815
  832MOL0     H14750   4.575  12.087   6.191 -0.6168  2.4599  0.9503
  832MOL0     H14751   4.526  12.322   5.978 -3.9882  4.3272  1.6038
  832MOL0     H14752   4.416  12.239   6.068  0.4326  0.4769 -3.9968
  832MOL0     H14753   4.638  12.428   6.168  2.5254 -4.2948  1.0887
  832MOL0     H14754   4.466  12.470   6.176 -0.1071  0.5383 -0.7591
  832MOL0     H14755   4.453  12.276   6.336  1.0386  0.4699  2.2749
  832MOL0     H14756   4.627  12.269   6.326  0.9132 -0.4168 -0.9247
  832MOL0     H14757   4.468  12.512   6.411 -1.1550 -0.4985  1.0199
  832MOL0     H14758   4.649  12.483   6.427  0.4243 -0.1456  0.0088
  832MOL0     H14759   4.453  12.325   6.599  0.0385 -1.1877  1.0162
  832MOL0     H14760   4.614  12.281   6.561 -0.7631 -0.5871 -2.2573
  832MOL0     H14761   4.517  12.502   6.735  1.4561  0.3469  2.6041
  832MOL0     H14762   4.669  12.545   6.648  1.4792 -2.3222 -5.0525
  832MOL0     H14763   4.638  12.288   6.814  1.2102 -1.2648  0.2018
  832MOL0     H14764   4.788  12.332   6.738  0.3624 -1.1925  2.6516
  832MOL0     H14765   4.923  12.523   6.794  1.4343 -4.4729  0.8709
  832MOL0     H14766   4.851  12.843   6.966 -0.6411 -0.5122 -1.0098
  832MOL0     H14767   4.976  12.753   6.884 -1.9135 -0.5412 -2.3921
  832MOL0     H14768   5.001  12.876   7.130 -0.2505 -0.4645  1.1665
  832MOL0     H14769   4.935  12.736   7.191 -0.7156  2.9412  0.7745
  832MOL0     H14770   5.111  12.606   7.059 -2.8243  0.2440 -0.7777
  832MOL0     H14771   5.186  12.770   7.027  2.8735 -0.8157  1.7047
  832MOL0     H14772   5.303  12.687   7.190  0.5985  1.8873 -0.7540
  832MOL0     H14773   5.187  12.795   7.279 -2.9876 -0.1236 -1.0820
  832MOL0     H14774   5.375  12.475   7.272  0.2889  0.2646 -2.1367
  832MOL0     H14775   5.509  12.304   7.146  1.9836  0.5459  2.5572
  832MOL0     H14776   5.440  12.151   7.095  0.5657 -3.1067  2.2337
  832MOL0     H14777   5.483  12.177   7.268  0.8607  0.6130 -0.7032
  832MOL0     H14778   5.281  11.957   6.822 -0.1098  0.8778  1.8612
  832MOL0     H14779   5.244  11.728   6.699 -3.1240  3.1863 -3.7272
  832MOL0     H14780   4.947  11.463   6.901  0.5300  5.7649 -1.6650
  832MOL0     H14781   4.996  11.358   6.767 -2.0070  0.5929 -0.3129
  832MOL0     H14782   5.179  11.459   7.005 -1.5748  2.3559 -1.7669
  832MOL0     H14783   5.115  11.299   7.001  2.6784 -0.0201 -0.0722
  832MOL0     H14784   5.351  11.328   6.918  2.2647  2.5128 -2.4378
  832MOL0     H14785   5.276  11.400   6.768 -0.9958  0.7390  1.3213
  832MOL0     H14786   5.285  11.185   6.688 -1.1640 -1.0049 -0.6524
  832MOL0     H14787   5.125  11.190   6.761  0.3486  2.4259 -0.7355
  832MOL0     H14788   5.372  11.101   6.921 -0.7326  2.3722  1.8990
  832MOL0     H14789   5.204  11.064   6.960 -1.4516  0.5611 -0.9066
  832MOL0     H14790   5.282  10.872   6.909  0.6958  4.3892  1.3510
  832MOL0     H14791   5.371  10.934   6.756  1.0474 -1.2524  0.3799
  832MOL0     H14792   5.171  10.947   6.643 -2.0801 -0.9860 -1.2125
  832MOL0     H14793   5.082  10.926   6.802  0.7010 -1.6993  0.9435
  832MOL0     H14794   5.056  10.711   6.659  0.4931 -4.0211  1.5484
  832MOL0     H14795   5.141  10.697   6.811 -2.5918  0.0255 -0.5807
  832MOL0     H14796   4.900  11.672   6.944 -0.2630 -0.4071  0.5689
  832MOL0     H14797   4.946  11.858   7.062  0.2231  2.5796 -0.4836
  832MOL0     H14798   4.971  12.208   7.190 -0.1665 -1.5642  3.9027
  832MOL0     H14799   4.946  12.434   7.272 -0.5026 -1.5565  0.6503
  832MOL0     H14800   4.690  11.941   5.785 -1.0816 -0.7070 -2.3313
  832MOL0     H14801   4.626  11.688   5.761 -3.9809 -2.8793  0.5232
  832MOL0     H14802   4.339  11.325   5.866  0.4382 -0.0736 -0.8962
  832MOL0     H14803   4.365  11.120   5.751  3.2083  1.4526 -4.5660
  832MOL0     H14804   4.326  10.866   5.817  0.1225  0.5703 -1.0834
  832MOL0     H14805   4.436  10.752   5.830  1.6591  0.0130 -1.0085
  832MOL0     H14806   4.325  10.905   6.056  1.8252  3.4518 -1.1008
  832MOL0     H14807   4.505  10.868   6.078 -0.4323  0.0361  1.6649
  832MOL0     H14808   4.301  10.654   6.028 -1.8601  0.6345  1.9254
  832MOL0     H14809   4.480  10.639   6.029 -2.5788 -3.3374 -0.3262
  832MOL0     H14810   4.294  10.710   6.269 -2.2448 -3.0123 -2.6015
  832MOL0     H14811   4.473  10.725   6.258 -0.1209  1.3051 -0.8969
  832MOL0     H14812   4.385  10.314   6.348  0.7866 -0.8883 -1.1360
  832MOL0     H14813   4.735  11.061   5.970 -1.4961 -3.1485 -1.8414
  832MOL0     H14814   4.823  11.206   6.108 -0.5400  1.9438  2.5039
  832MOL0     H14815   4.840  11.346   5.987 -2.7420  4.6408  0.6777
  832MOL0     H14816   4.767  11.364   6.136 -0.6075  1.7868 -1.5978
  833MOL0     O14817   1.427   1.556   6.303 -0.0847  0.2103  0.1974
  833MOL0     C14818   1.517   1.637   6.319  0.2041 -0.0784  0.0711
  833MOL0     O14819   1.568   1.688   6.431 -0.4742  0.1162 -0.6861
  833MOL0     C14820   1.560   1.614   6.551  0.3211 -0.3312  1.1193
  833MOL0     C14821   1.454   1.637   6.632  0.4296 -0.9272  0.6948
  833MOL0     C14822   1.441   1.578   6.755  0.3453 -0.1386  0.1873
  833MOL0     C14823   1.529   1.485   6.806 -0.2369 -0.0731 -0.9629
  833MOL0     O14824   1.503   1.432   6.932  0.7248 -0.8427 -0.0293
  833MOL0     C14825   1.607   1.344   6.989  0.4630 -0.5060 -0.1761
  833MOL0     C14826   1.607   1.335   7.139  0.6050 -0.4500  0.1214
  833MOL0     C14827   1.710   1.251   7.211 -0.1325 -0.0817  0.8632
  833MOL0     C14828   1.856   1.304   7.233 -0.5033  1.0938 -0.1435
  833MOL0     C14829   1.959   1.186   7.266  0.0257  0.1976  0.3021
  833MOL0     C14830   2.112   1.218   7.240  0.6242  0.9978 -0.6791
  833MOL0     C14831   2.191   1.090   7.213  0.5021 -0.1506 -0.1072
  833MOL0     C14832   2.248   1.089   7.073 -0.5452 -1.1063  0.8265
  833MOL0     N14833   2.367   1.188   7.067  0.9645 -0.2891 -0.2897
  833MOL0     C14834   2.378   1.273   6.957 -1.3174 -0.2237  0.4855
  833MOL0     C14835   2.494   1.344   6.984 -1.2441 -0.8683  0.8732
  833MOL0     C14836   2.565   1.444   6.896  0.3247  0.1861  0.8707
  833MOL0     C14837   2.682   1.374   6.813  0.1047 -0.4468 -0.8924
  833MOL0     C14838   2.796   1.325   6.898  0.1733  0.6169  0.5386
  833MOL0     C14839   2.887   1.242   6.800 -0.0710 -0.0792  0.4531
  833MOL0     O14840   2.966   1.142   6.878  0.9030 -0.2455 -0.2467
  833MOL0     C14841   3.067   1.202   6.950 -0.2786 -0.1267  0.1510
  833MOL0     C14842   3.104   1.340   6.958 -0.4328  1.1385 -0.9050
  833MOL0     C14843   3.193   1.375   7.057 -0.5295 -0.2576 -0.0899
  833MOL0     C14844   3.210   1.524   7.072  0.4028 -0.4945 -0.5890
  833MOL0     C14845   3.274   1.286   7.135  0.3644 -0.4673  0.4174
  833MOL0     C14846   3.373   1.317   7.232 -1.0191 -0.6319 -0.3085
  833MOL0     O14847   3.348   1.286   7.354  0.3062  0.8119 -0.9324
  833MOL0     C14848   3.443   1.289   7.452  0.0332 -1.7235  0.4786
  833MOL0     C14849   3.438   1.406   7.530 -0.3981 -0.4506  0.1769
  833MOL0     C14850   3.535   1.435   7.627  0.2031 -0.8839  1.0310
  833MOL0     C14851   3.641   1.342   7.644 -0.2181 -0.6096 -0.1779
  833MOL0     O14852   3.736   1.373   7.731  0.3028  0.0491 -0.6209
  833MOL0     C14853   3.875   1.340   7.695  0.3432 -0.5794 -0.1052
  833MOL0     C14854   3.952   1.350   7.826  0.6749  0.7683 -1.3009
  833MOL0     C14855   4.105   1.343   7.832  0.1303 -0.5219 -0.8651
  833MOL0     C14856   4.168   1.211   7.773 -0.6141 -1.2871 -0.5962
  833MOL0     C14857   4.313   1.221   7.739 -0.2776 -1.0720  0.7587
  833MOL0     C14858   4.404   1.189   7.853 -0.5138  0.5065  0.0397
  833MOL0     C14859   4.422   1.040   7.873  0.9295 -0.1847 -0.3005
  833MOL0     C14860   4.537   1.011   7.964 -0.3754  0.5037 -0.0677
  833MOL0    Cl14861   4.622   0.860   7.907 -0.0619 -0.4161  0.1766
  833MOL0     C14862   3.632   1.215   7.582 -0.8467  0.2361 -0.7001
  833MOL0     C14863   3.541   1.193   7.480 -0.2142  0.1823  0.4791
  833MOL0     O14864   3.472   1.378   7.192 -0.2789 -0.9057  0.7805
  833MOL0     C14865   3.246   1.148   7.113 -0.9017 -0.7770  0.0179
  833MOL0     C14866   3.148   1.103   7.016  1.1488  0.2617  0.0672
  833MOL0     N14867   2.548   1.292   7.098 -0.1429  0.2033 -0.8819
  833MOL0     N14868   2.472   1.204   7.155 -0.4157 -0.3136 -0.0099
  833MOL0     C14869   1.645   1.467   6.725  0.1504 -0.5667 -0.9245
  833MOL0     C14870   1.660   1.529   6.599  0.2465 -0.5836 -0.5635
  833MOL0     C14871   1.557   1.707   6.192  1.4794 -0.0592 -0.7516
  833MOL0     C14872   1.451   1.730   6.096 -0.9912 -0.4432  0.3738
  833MOL0     C14873   1.460   1.825   5.996 -1.4891  0.2691 -0.5843
  833MOL0     C14874   1.585   1.887   5.978  0.4346  0.2196 -0.2971
  833MOL0     O14875   1.594   1.984   5.882 -0.0159  0.1301 -0.1629
  833MOL0     C14876   1.716   2.054   5.866  0.7261 -0.2888 -0.0209
  833MOL0     C14877   1.701   2.158   5.755 -0.1397  0.5728 -0.7478
  833MOL0     C14878   1.824   2.256   5.752  0.8848 -0.2804  0.0155
  833MOL0     C14879   1.834   2.315   5.614 -0.3249  0.2680  0.9900
  833MOL0     C14880   1.891   2.231   5.497  0.1932 -0.3481 -0.2259
  833MOL0     C14881   1.938   2.167   5.409  0.1213 -0.7864 -0.2765
  833MOL0     C14882   1.695   1.850   6.056 -0.7588  0.7377 -0.2470
  833MOL0     C14883   1.694   1.762   6.167  1.0920 -0.3311  0.9908
  833MOL0     C14884   1.824   1.716   6.231  0.3081 -0.3650 -0.1602
  833MOL0     H14885   1.372   1.693   6.588 -0.7237 -2.1809  1.1567
  833MOL0     H14886   1.353   1.605   6.813  1.4108 -0.6316  2.0934
  833MOL0     H14887   1.706   1.377   6.956  1.5578 -3.0449  0.2714
  833MOL0     H14888   1.590   1.240   6.958 -1.9964 -0.5053  1.0311
  833MOL0     H14889   1.616   1.434   7.184  1.6084 -0.1452 -0.7078
  833MOL0     H14890   1.517   1.284   7.176  1.2979 -2.0677 -0.3111
  833MOL0     H14891   1.660   1.218   7.302 -1.7582 -3.2842 -1.0179
  833MOL0     H14892   1.716   1.161   7.149  1.9115  2.1415 -2.5904
  833MOL0     H14893   1.885   1.369   7.150 -1.0004  2.2681  0.5701
  833MOL0     H14894   1.858   1.370   7.320 -0.9246  2.1422 -0.9063
  833MOL0     H14895   1.930   1.103   7.202 -3.5538 -1.9201  4.1665
  833MOL0     H14896   1.953   1.159   7.372  1.3039 -1.4625 -0.0159
  833MOL0     H14897   2.116   1.287   7.155 -2.9702  1.6444 -0.4904
  833MOL0     H14898   2.154   1.278   7.322  1.1009 -0.0836 -0.1085
  833MOL0     H14899   2.132   0.998   7.220 -0.5606  0.3935 -1.4694
  833MOL0     H14900   2.258   1.083   7.298  0.5550  0.8812 -0.0560
  833MOL0     H14901   2.292   0.989   7.063 -0.9327 -1.1047 -1.2507
  833MOL0     H14902   2.180   1.101   6.989  2.3427  0.3921 -1.4772
  833MOL0     H14903   2.311   1.275   6.872 -1.6373 -0.7091  0.7177
  833MOL0     H14904   2.617   1.522   6.953  0.8180 -0.7790  1.7883
  833MOL0     H14905   2.488   1.485   6.831  0.4178 -2.2518 -0.9097
  833MOL0     H14906   2.629   1.302   6.750 -3.1551  0.4626  0.5828
  833MOL0     H14907   2.729   1.443   6.743 -0.9907 -2.3072 -3.6094
  833MOL0     H14908   2.845   1.408   6.950 -0.5506  2.3277 -1.3852
  833MOL0     H14909   2.764   1.250   6.971 -1.7086  1.2375  0.4077
  833MOL0     H14910   2.824   1.191   6.726 -0.9995 -0.2739  1.3551
  833MOL0     H14911   2.946   1.313   6.741 -1.3217 -0.7673 -1.7125
  833MOL0     H14912   3.061   1.423   6.902 -1.2809  1.6004  0.3776
  833MOL0     H14913   3.281   1.551   7.150  1.2273  2.3053 -2.1879
  833MOL0     H14914   3.119   1.575   7.106 -0.8449 -2.8383 -0.2067
  833MOL0     H14915   3.254   1.570   6.983 -0.0968  2.2298  0.4771
  833MOL0     H14916   3.364   1.484   7.522  0.6261  0.9998  3.2356
  833MOL0     H14917   3.526   1.529   7.681 -1.7610  0.0074 -0.7049
  833MOL0     H14918   3.895   1.246   7.644  0.8002 -0.9356  0.7042
  833MOL0     H14919   3.904   1.422   7.628  1.2093 -2.1834 -1.7696
  833MOL0     H14920   3.919   1.441   7.878 -0.6251 -0.9792  1.1710
  833MOL0     H14921   3.902   1.264   7.873 -1.2795  0.5673 -3.5609
  833MOL0     H14922   4.140   1.344   7.935  1.4161  2.4826 -1.2173
  833MOL0     H14923   4.140   1.441   7.799 -0.6725  0.8705  2.0776
  833MOL0     H14924   4.109   1.191   7.683  0.6529 -1.3846 -1.4239
  833MOL0     H14925   4.155   1.130   7.846 -0.2589 -1.5060 -0.7725
  833MOL0     H14926   4.354   1.167   7.653  0.4258 -0.9412  1.0029
  833MOL0     H14927   4.325   1.327   7.712  1.7341 -1.2410  0.8325
  833MOL0     H14928   4.359   1.217   7.950  0.1391 -2.3891  1.2841
  833MOL0     H14929   4.501   1.226   7.822  0.7356 -5.1276 -4.5516
  833MOL0     H14930   4.443   1.010   7.770  0.4980 -0.5091 -0.2976
  833MOL0     H14931   4.336   0.994   7.923 -0.2894  0.3410 -1.8212
  833MOL0     H14932   4.509   1.010   8.069  0.6184 -0.4699  0.2139
  833MOL0     H14933   4.613   1.090   7.956 -0.8853  1.1319  1.2007
  833MOL0     H14934   3.700   1.141   7.624  1.5013  1.4469 -2.1479
  833MOL0     H14935   3.539   1.088   7.453 -1.1221  0.1817  0.5041
  833MOL0     H14936   3.290   1.074   7.180  1.5592  1.5414  1.1886
  833MOL0     H14937   3.132   0.997   6.998  1.4471 -0.1646  2.0920
  833MOL0     H14938   1.732   1.410   6.757  0.9192  1.7945  1.5705
  833MOL0     H14939   1.754   1.522   6.545  0.0155  0.4287 -1.1362
  833MOL0     H14940   1.350   1.706   6.126 -1.1026  2.3234  2.6625
  833MOL0     H14941   1.374   1.860   5.940 -2.1919  0.1071  0.3701
  833MOL0     H14942   1.719   2.103   5.963 -1.5984  0.9315 -0.4924
  833MOL0     H14943   1.805   1.993   5.851 -0.0245 -1.2143 -0.9082
  833MOL0     H14944   1.624   2.233   5.777 -1.7023 -1.1534 -0.0550
  833MOL0     H14945   1.667   2.102   5.667 -2.7389 -0.6257  0.8692
  833MOL0     H14946   1.818   2.340   5.822 -0.2173 -1.1683  1.0408
  833MOL0     H14947   1.912   2.193   5.765  2.0217  0.7470 -2.2001
  833MOL0     H14948   1.896   2.404   5.626 -2.2022  1.4803  2.3525
  833MOL0     H14949   1.736   2.343   5.573  0.6613  0.3625 -1.4777
  833MOL0     H14950   1.975   2.106   5.328 -0.4665 -1.3460 -0.1242
  833MOL0     H14951   1.798   1.871   6.028 -1.1640 -0.1133 -2.6620
  833MOL0     H14952   1.848   1.779   6.318 -0.3434  1.1788 -1.0485
  833MOL0     H14953   1.826   1.610   6.255 -0.7145 -1.1830 -3.1760
  833MOL0     H14954   1.899   1.730   6.152 -2.7394  2.2872 -2.9009
  834MOL0     O14955   5.154   7.460   9.066 -0.5308  0.5635 -1.0476
  834MOL0     C14956   5.167   7.409   9.181 -0.6828  0.0720  0.0598
  834MOL0     O14957   5.264   7.321   9.213 -0.3371 -0.0493  0.2435
  834MOL0     C14958   5.342   7.281   9.108 -0.0453  0.6634  1.5053
  834MOL0     C14959   5.440   7.362   9.046 -0.6751 -0.7059  0.3733
  834MOL0     C14960   5.522   7.314   8.944  1.5757 -0.3585  0.2146
  834MOL0     C14961   5.507   7.184   8.901 -0.1220  0.0014  0.2970
  834MOL0     O14962   5.597   7.144   8.803  0.4088 -0.0072 -0.3500
  834MOL0     C14963   5.548   7.152   8.670  1.0498  1.0462 -0.0115
  834MOL0     C14964   5.639   7.251   8.596  0.1122 -0.7828 -0.9885
  834MOL0     C14965   5.575   7.272   8.460 -0.4036  0.5860 -0.3534
  834MOL0     C14966   5.665   7.363   8.372  0.2730 -0.1080  0.2211
  834MOL0     C14967   5.624   7.373   8.222  0.1396  0.0386 -0.1869
  834MOL0     C14968   5.502   7.459   8.196  0.3875 -0.5533  0.9202
  834MOL0     C14969   5.463   7.477   8.047  0.7765  0.4134 -0.1660
  834MOL0     C14970   5.441   7.366   7.947  0.5317  0.2104  0.0207
  834MOL0     N14971   5.435   7.409   7.812 -0.2622  0.1017 -0.6265
  834MOL0     C14972   5.328   7.407   7.732 -0.5543  0.2235  0.6776
  834MOL0     C14973   5.375   7.445   7.612  0.2604 -0.1371  0.1326
  834MOL0     C14974   5.287   7.446   7.491  0.2352  0.0036  0.9541
  834MOL0     C14975   5.242   7.596   7.453 -0.2751  0.2084 -0.6215
  834MOL0     C14976   5.194   7.595   7.310 -0.5050  0.7530  1.0116
  834MOL0     C14977   5.150   7.738   7.279  0.1130 -0.4263  0.4768
  834MOL0     O14978   5.085   7.757   7.147  0.0829 -0.4777 -0.1093
  834MOL0     C14979   5.156   7.729   7.041 -0.9340 -1.2613  0.8927
  834MOL0     C14980   5.292   7.769   7.024  0.0285  0.5034  0.7481
  834MOL0     C14981   5.359   7.751   6.901  0.0983 -0.6288 -0.3722
  834MOL0     C14982   5.504   7.801   6.899 -0.5746  0.3735 -0.0330
  834MOL0     C14983   5.297   7.685   6.793  0.4384  0.0207  1.7368
  834MOL0     C14984   5.356   7.670   6.651 -0.4792 -0.5421 -0.1657
  834MOL0     O14985   5.488   7.690   6.619 -0.1087  0.5711 -0.3925
  834MOL0     C14986   5.537   7.700   6.489 -0.1688 -0.9895  0.2739
  834MOL0     C14987   5.679   7.700   6.471 -0.3018 -0.5379  0.2931
  834MOL0     C14988   5.736   7.740   6.348  0.6611  0.1889 -0.6961
  834MOL0     C14989   5.662   7.752   6.229  0.3875  1.4417 -0.1188
  834MOL0     O14990   5.702   7.763   6.095  0.1209 -0.2824  0.1766
  834MOL0     C14991   5.818   7.836   6.071 -0.1772  0.0362  0.1510
  834MOL0     C14992   5.798   7.963   5.998  1.3580 -0.7791 -0.3557
  834MOL0     C14993   5.752   8.076   6.096  0.3291  0.3652  0.5167
  834MOL0     C14994   5.722   8.210   6.040 -0.1738  0.6268 -0.8022
  834MOL0     C14995   5.604   8.202   5.945 -0.3310 -0.9083 -0.4503
  834MOL0     C14996   5.548   8.339   5.893 -0.3613  0.0102 -0.3640
  834MOL0     C14997   5.427   8.391   5.977 -0.4645 -1.4957  0.2903
  834MOL0     C14998   5.302   8.292   5.958 -0.5192 -0.4666  0.6441
  834MOL0    Cl14999   5.182   8.315   6.090  0.6358  0.1155  0.3161
  834MOL0     C15000   5.518   7.752   6.258 -0.0575 -0.8472  0.6306
  834MOL0     C15001   5.458   7.732   6.375  0.5077  0.2889 -0.3337
  834MOL0     O15002   5.262   7.635   6.572 -0.5874 -0.0342 -0.1399
  834MOL0     C15003   5.159   7.651   6.807 -0.3012 -0.5425 -0.7585
  834MOL0     C15004   5.091   7.680   6.931 -0.0992 -0.5839  0.0995
  834MOL0     N15005   5.508   7.485   7.619  0.5357  0.8303  0.0022
  834MOL0     N15006   5.538   7.454   7.739  0.6478 -0.3039  0.3967
  834MOL0     C15007   5.404   7.110   8.947  0.9246 -0.1922  0.7099
  834MOL0     C15008   5.316   7.162   9.040 -0.0421 -0.2826  1.0158
  834MOL0     C15009   5.061   7.446   9.274  0.3468 -0.3784 -0.3409
  834MOL0     C15010   4.985   7.565   9.256 -0.2103  0.3056  0.3138
  834MOL0     C15011   4.881   7.601   9.339  0.2575 -0.0505 -0.3603
  834MOL0     C15012   4.848   7.514   9.441  0.7343  0.7079  0.7891
  834MOL0     O15013   4.761   7.565   9.536  0.0455  0.7822  0.2320
  834MOL0     C15014   4.703   7.470   9.637 -0.5386 -0.2786 -0.0693
  834MOL0     C15015   4.589   7.381   9.577 -0.6145  1.2788 -0.3249
  834MOL0     C15016   4.477   7.472   9.529 -0.1051  0.1986  0.0239
  834MOL0     C15017   4.342   7.402   9.492 -0.7634  0.4085  0.1657
  834MOL0     C15018   4.371   7.317   9.369  0.3853 -0.7432 -0.6023
  834MOL0     C15019   4.406   7.239   9.285  0.9501  0.3892  0.7369
  834MOL0     C15020   4.912   7.394   9.445 -0.8323 -0.4880 -0.4128
  834MOL0     C15021   5.017   7.355   9.367  0.1187 -0.3544  0.0629
  834MOL0     C15022   5.075   7.226   9.395 -0.0665  0.7858  0.2805
  834MOL0     H15023   5.462   7.458   9.093  3.9110 -1.9186  1.2595
  834MOL0     H15024   5.585   7.392   8.900 -3.2222  4.9738  1.5741
  834MOL0     H15025   5.440   7.170   8.667  0.2636 -2.6153  0.9396
  834MOL0     H15026   5.561   7.064   8.607  0.7568  2.1241 -1.6272
  834MOL0     H15027   5.644   7.350   8.641 -0.7906 -1.7120  1.2816
  834MOL0     H15028   5.742   7.214   8.593  0.2118 -0.4670 -2.4147
  834MOL0     H15029   5.548   7.172   8.424  0.9303  0.6990 -1.7832
  834MOL0     H15030   5.477   7.316   8.482 -0.4385 -0.4155  1.6921
  834MOL0     H15031   5.678   7.464   8.413  1.1046 -0.8324  1.8592
  834MOL0     H15032   5.766   7.320   8.367  0.4362  0.2775  0.1792
  834MOL0     H15033   5.617   7.272   8.182  2.6727 -1.3108  2.3697
  834MOL0     H15034   5.698   7.421   8.157 -1.4404  0.1445 -1.9853
  834MOL0     H15035   5.414   7.415   8.244  1.0179 -2.1969  0.6343
  834MOL0     H15036   5.514   7.556   8.245  2.4047 -1.7370  2.9227
  834MOL0     H15037   5.545   7.533   8.004  0.4936  2.7254  2.0383
  834MOL0     H15038   5.373   7.539   8.052 -0.7173 -1.6983  1.6932
  834MOL0     H15039   5.513   7.284   7.955 -0.0379 -0.2414  0.6452
  834MOL0     H15040   5.346   7.313   7.960  0.9203 -0.7337 -0.8736
  834MOL0     H15041   5.229   7.364   7.744 -1.0889  0.2226 -2.8731
  834MOL0     H15042   5.194   7.392   7.509 -0.0436  0.2326  0.2200
  834MOL0     H15043   5.339   7.400   7.406  0.4110  2.4965 -0.3844
  834MOL0     H15044   5.159   7.619   7.520 -2.0042 -0.5291 -2.3985
  834MOL0     H15045   5.322   7.670   7.470  0.1385 -0.3846  0.0341
  834MOL0     H15046   5.276   7.563   7.245 -0.7001 -2.5596  2.2461
  834MOL0     H15047   5.112   7.523   7.305 -0.1846  0.4349 -0.0378
  834MOL0     H15048   5.077   7.755   7.359 -0.0806  1.5867 -0.0704
  834MOL0     H15049   5.228   7.815   7.290  0.9460 -0.9459 -1.4787
  834MOL0     H15050   5.351   7.804   7.108  1.3578  0.4286 -0.1142
  834MOL0     H15051   5.533   7.881   6.831  1.3822 -0.9783 -0.8618
  834MOL0     H15052   5.569   7.717   6.873  0.9333  1.4763  0.0756
  834MOL0     H15053   5.537   7.833   6.999 -2.1472  0.5253  0.4673
  834MOL0     H15054   5.731   7.683   6.564  3.0928  0.5863 -1.2308
  834MOL0     H15055   5.844   7.730   6.344  0.5114 -1.4866 -0.9148
  834MOL0     H15056   5.875   7.848   6.164  2.7214  1.8843 -1.7135
  834MOL0     H15057   5.876   7.762   6.015 -3.5291 -1.0866 -2.1181
  834MOL0     H15058   5.895   7.998   5.960  1.2753  0.4235  0.4840
  834MOL0     H15059   5.718   7.945   5.925 -3.6498  2.1766  3.7261
  834MOL0     H15060   5.834   8.088   6.167 -0.2065  1.2147  1.0202
  834MOL0     H15061   5.661   8.037   6.142  1.4315 -1.7352  0.9950
  834MOL0     H15062   5.814   8.221   5.981  0.3692  4.5818  0.5120
  834MOL0     H15063   5.714   8.283   6.120 -1.0716  0.0538 -0.3590
  834MOL0     H15064   5.643   8.148   5.858 -3.4368 -2.3135 -1.1014
  834MOL0     H15065   5.520   8.143   5.981 -1.3413  0.8562  0.1989
  834MOL0     H15066   5.523   8.328   5.788  0.9913 -1.7882 -0.5570
  834MOL0     H15067   5.627   8.415   5.892 -0.2769 -0.0793 -0.5075
  834MOL0     H15068   5.396   8.488   5.938  0.3827 -1.0928  0.5826
  834MOL0     H15069   5.448   8.401   6.084 -1.1163 -1.6164  0.4334
  834MOL0     H15070   5.338   8.189   5.966  2.7065  0.4441 -0.4308
  834MOL0     H15071   5.266   8.324   5.860  2.8452  0.2538 -0.4975
  834MOL0     H15072   5.454   7.749   6.170  1.2402 -3.0449 -0.3195
  834MOL0     H15073   5.351   7.733   6.390  0.8563 -2.3131  3.5928
  834MOL0     H15074   5.090   7.622   6.728  1.9171  0.3420 -3.1318
  834MOL0     H15075   4.986   7.653   6.933 -0.6019  1.2423  0.7718
  834MOL0     H15076   5.390   7.015   8.896  0.8333  1.0562 -1.7568
  834MOL0     H15077   5.218   7.120   9.060 -0.9869  0.9884 -0.6267
  834MOL0     H15078   5.019   7.631   9.176  3.2737 -1.4956  0.1188
  834MOL0     H15079   4.831   7.697   9.342  0.6888  0.2212  3.5608
  834MOL0     H15080   4.779   7.407   9.684  1.5503  2.3258  0.2985
  834MOL0     H15081   4.671   7.534   9.720  1.7007 -1.3464  1.7114
  834MOL0     H15082   4.560   7.303   9.648  0.4669  0.4789 -0.7281
  834MOL0     H15083   4.638   7.326   9.496 -0.1527 -1.5431  1.7193
  834MOL0     H15084   4.449   7.548   9.603 -4.1631 -3.5224  2.8413
  834MOL0     H15085   4.513   7.519   9.437 -1.1493 -0.8917 -0.9925
  834MOL0     H15086   4.273   7.483   9.465  0.6681  1.2394 -1.1429
  834MOL0     H15087   4.294   7.342   9.569 -1.1625  0.5680  0.0447
  834MOL0     H15088   4.441   7.176   9.205  1.2715 -1.1670  2.0585
  834MOL0     H15089   4.867   7.327   9.518 -0.0029 -0.1390  0.4573
  834MOL0     H15090   5.082   7.162   9.306 -1.4024  1.3460 -0.2617
  834MOL0     H15091   5.177   7.246   9.427 -0.6878 -0.3460  3.3508
  834MOL0     H15092   5.026   7.173   9.478  1.3903 -0.4127  0.4092
  835MOL0     O15093   9.201   3.395   6.196  0.3335 -0.0021  0.4817
  835MOL0     C15094   9.224   3.380   6.068  0.7307  0.6302  0.0453
  835MOL0     O15095   9.137   3.410   5.962  0.3382 -0.0196 -0.3505
  835MOL0     C15096   9.010   3.455   5.992 -0.3373 -0.3608  0.3849
  835MOL0     C15097   8.977   3.592   6.001 -1.2725  0.8370 -0.4591
  835MOL0     C15098   8.854   3.632   6.060 -0.8212  0.2349  0.7216
  835MOL0     C15099   8.765   3.532   6.094  0.0197  0.5944  0.2580
  835MOL0     O15100   8.641   3.578   6.119  0.2500 -0.2997  0.0191
  835MOL0     C15101   8.521   3.499   6.133  0.1988  1.1672 -0.6529
  835MOL0     C15102   8.406   3.585   6.174 -1.0563  0.0034 -0.7256
  835MOL0     C15103   8.347   3.665   6.068 -0.9106  0.2826  0.3088
  835MOL0     C15104   8.250   3.767   6.115  0.0286  0.3297 -1.3441
  835MOL0     C15105   8.114   3.706   6.136  1.0322  0.2518 -0.1399
  835MOL0     C15106   7.995   3.798   6.164 -0.8278  0.9468 -0.1168
  835MOL0     C15107   7.871   3.716   6.197 -0.0375  0.3769  0.0297
  835MOL0     C15108   7.757   3.817   6.205 -0.5672  0.2255  0.4271
  835MOL0     N15109   7.642   3.752   6.152 -0.5105  0.0074 -0.2675
  835MOL0     C15110   7.590   3.762   6.027  0.3306  1.1381  0.4368
  835MOL0     C15111   7.489   3.680   6.026 -1.3398  0.3877 -1.0456
  835MOL0     C15112   7.411   3.665   5.905 -0.2792 -0.8452 -0.5588
  835MOL0     C15113   7.468   3.536   5.830  0.5372 -0.3415 -0.3558
  835MOL0     C15114   7.448   3.536   5.680  0.2583 -0.6676  0.1969
  835MOL0     C15115   7.314   3.513   5.617 -0.0795  0.7503  0.2381
  835MOL0     O15116   7.349   3.529   5.484 -0.5878 -0.3450 -0.0157
  835MOL0     C15117   7.275   3.480   5.381  0.0584  0.7599 -0.6844
  835MOL0     C15118   7.301   3.513   5.252 -0.0565 -0.4617 -0.1849
  835MOL0     C15119   7.206   3.475   5.147  0.2082  0.3751 -0.4138
  835MOL0     C15120   7.206   3.541   5.001 -0.3005 -0.9789 -0.0736
  835MOL0     C15121   7.099   3.386   5.181  0.2472 -0.9318 -0.7106
  835MOL0     C15122   7.024   3.314   5.081  0.8883  0.1834  0.8997
  835MOL0     O15123   6.897   3.276   5.122  0.0450 -0.8126 -0.4361
  835MOL0     C15124   6.832   3.197   5.032 -0.6939  0.4967  0.1164
  835MOL0     C15125   6.718   3.236   4.965  0.4368 -0.1174  0.7817
  835MOL0     C15126   6.659   3.157   4.875  0.6067  0.6344 -0.1855
  835MOL0     C15127   6.683   3.017   4.883 -0.1128 -0.1725  0.1571
  835MOL0     O15128   6.612   2.932   4.799  0.0596  0.3716  0.1361
  835MOL0     C15129   6.470   2.929   4.828 -0.6784 -0.2553 -0.2560
  835MOL0     C15130   6.418   2.805   4.910  0.2939 -0.1641 -0.9171
  835MOL0     C15131   6.254   2.793   4.918 -0.3813 -0.3503 -0.2362
  835MOL0     C15132   6.191   2.737   4.787  1.1127 -0.3556  0.0185
  835MOL0     C15133   6.037   2.774   4.779  1.1178  0.1919 -0.4426
  835MOL0     C15134   5.938   2.717   4.887  0.2484 -0.5815 -0.1906
  835MOL0     C15135   5.917   2.565   4.858 -0.0505 -0.4335 -0.4282
  835MOL0     C15136   5.820   2.498   4.952  0.0713  0.0957 -0.3827
  835MOL0    Cl15137   5.902   2.464   5.104 -0.3311 -0.5609 -0.0132
  835MOL0     C15138   6.786   2.972   4.955  0.3811 -0.2082  0.5112
  835MOL0     C15139   6.862   3.061   5.032  0.0161 -0.0711  0.2158
  835MOL0     O15140   7.075   3.275   4.978  0.0508  0.0567 -0.5120
  835MOL0     C15141   7.082   3.359   5.316  0.8597  0.0206  0.2617
  835MOL0     C15142   7.161   3.407   5.418  0.5857 -0.3499 -0.9065
  835MOL0     N15143   7.478   3.605   6.142  0.5694 -0.3277  0.7111
  835MOL0     N15144   7.580   3.646   6.209 -0.3674 -0.3783 -1.3052
  835MOL0     C15145   8.786   3.397   6.066  0.0241 -0.5220 -0.3107
  835MOL0     C15146   8.909   3.361   6.030  0.6878  0.0222  1.0927
  835MOL0     C15147   9.366   3.371   6.022 -0.1799 -0.5346 -0.5161
  835MOL0     C15148   9.396   3.403   5.892  0.2785  0.5606 -0.1425
  835MOL0     C15149   9.530   3.411   5.838 -0.2600 -0.5921 -0.5905
  835MOL0     C15150   9.633   3.393   5.922 -1.5608  1.0540  0.3990
  835MOL0     O15151   9.769   3.414   5.887 -0.9147  0.6330  0.6759
  835MOL0     C15152   9.816   3.529   5.812  0.1140 -1.0733 -0.7451
  835MOL0     C15153   9.971   3.518   5.790  0.6320 -0.1086  0.0330
  835MOL0     C15154   9.990   3.422   5.671  0.2778 -0.1588 -0.6102
  835MOL0     C15155   9.989   3.477   5.524 -0.0376  0.0074 -0.2446
  835MOL0     C15156   9.855   3.503   5.466 -0.2536  0.7128 -0.2133
  835MOL0     C15157   9.744   3.535   5.432  0.4976 -0.9102 -0.1263
  835MOL0     C15158   9.608   3.353   6.055 -0.1874 -0.7275  0.2765
  835MOL0     C15159   9.477   3.335   6.098  0.1395 -0.6878  0.0894
  835MOL0     C15160   9.457   3.276   6.231 -0.2648  0.2571 -0.2944
  835MOL0     H15161   9.049   3.663   5.961 -0.3909 -1.0198 -2.3354
  835MOL0     H15162   8.818   3.733   6.079  0.9310  0.6621  2.0228
  835MOL0     H15163   8.536   3.434   6.220  1.5329  1.6687 -0.4917
  835MOL0     H15164   8.506   3.432   6.048  0.5153 -0.0890  0.2412
  835MOL0     H15165   8.334   3.536   6.240 -1.8421  1.8726 -0.1323
  835MOL0     H15166   8.458   3.663   6.230  0.3518 -0.5513 -1.2058
  835MOL0     H15167   8.433   3.716   6.025  0.8080 -2.6500 -0.0193
  835MOL0     H15168   8.297   3.618   5.982  0.5508 -2.8151  1.0126
  835MOL0     H15169   8.286   3.816   6.205  1.1023 -3.0531  0.2427
  835MOL0     H15170   8.248   3.847   6.040  1.4185  0.7503 -0.9675
  835MOL0     H15171   8.131   3.644   6.224 -0.4367  2.0179  1.4804
  835MOL0     H15172   8.085   3.633   6.059 -0.0837 -0.8171  1.2267
  835MOL0     H15173   7.999   3.876   6.241 -5.9259  0.7231  0.6977
  835MOL0     H15174   7.973   3.847   6.069  1.2107  2.4374  0.1094
  835MOL0     H15175   7.887   3.663   6.291  3.2761 -0.7086 -0.9963
  835MOL0     H15176   7.857   3.645   6.114  2.1674 -0.1344  0.0258
  835MOL0     H15177   7.732   3.846   6.307  0.7471 -2.5321  1.6155
  835MOL0     H15178   7.773   3.909   6.147 -0.7373 -1.5299 -2.6098
  835MOL0     H15179   7.614   3.827   5.943 -3.0390 -0.2092 -1.7880
  835MOL0     H15180   7.431   3.760   5.856 -1.3722 -1.1614 -1.6644
  835MOL0     H15181   7.303   3.655   5.919 -0.4800  2.4078  1.0413
  835MOL0     H15182   7.574   3.512   5.843 -0.0757 -3.3004 -0.0818
  835MOL0     H15183   7.419   3.446   5.869  0.2128 -0.8427 -1.8690
  835MOL0     H15184   7.486   3.628   5.636 -0.8670 -0.9707 -1.5323
  835MOL0     H15185   7.506   3.453   5.637 -1.8380 -0.9221 -2.4679
  835MOL0     H15186   7.290   3.413   5.655 -2.5750  0.9640 -0.5931
  835MOL0     H15187   7.246   3.593   5.647 -2.2330 -0.7718 -0.3355
  835MOL0     H15188   7.377   3.591   5.245 -1.8160  2.0618  4.1381
  835MOL0     H15189   7.297   3.595   4.975 -0.8273  0.4508  0.9083
  835MOL0     H15190   7.117   3.604   4.986  1.6437  2.0917  0.3581
  835MOL0     H15191   7.186   3.463   4.927 -2.2623 -1.3804  0.7935
  835MOL0     H15192   6.684   3.339   4.975 -0.6586 -0.5491  1.7039
  835MOL0     H15193   6.581   3.207   4.819 -0.4830  0.7613  1.3619
  835MOL0     H15194   6.446   3.013   4.894 -2.5306 -3.5557  3.7310
  835MOL0     H15195   6.407   2.950   4.741 -1.6688  1.0052  0.7339
  835MOL0     H15196   6.473   2.718   4.872 -0.9701 -0.7841 -1.3874
  835MOL0     H15197   6.455   2.827   5.010 -0.4143 -0.4456 -0.5866
  835MOL0     H15198   6.208   2.892   4.924 -2.4128 -1.1611 -1.4319
  835MOL0     H15199   6.236   2.739   5.011 -0.3344 -2.3337 -1.3251
  835MOL0     H15200   6.199   2.628   4.800  0.6714 -0.2982  0.8500
  835MOL0     H15201   6.253   2.776   4.707  1.0873 -0.1013  0.1232
  835MOL0     H15202   6.029   2.882   4.795  0.3605  0.0821 -0.0080
  835MOL0     H15203   5.992   2.748   4.683  0.5244  0.3349 -0.2118
  835MOL0     H15204   5.843   2.770   4.886 -1.0505 -2.7593 -0.1431
  835MOL0     H15205   5.982   2.723   4.987  2.1062 -0.0558 -1.0005
  835MOL0     H15206   6.010   2.508   4.861 -0.9866 -1.9971  1.7084
  835MOL0     H15207   5.868   2.567   4.760 -0.7398  3.2300 -0.1513
  835MOL0     H15208   5.789   2.405   4.905 -2.7006  0.2009  1.0262
  835MOL0     H15209   5.736   2.563   4.975  0.9624  0.9840  0.4883
  835MOL0     H15210   6.790   2.864   4.954  0.2352 -0.2215  0.8977
  835MOL0     H15211   6.917   3.027   5.119 -1.5164  0.9310  1.6199
  835MOL0     H15212   7.002   3.289   5.342 -0.1600  1.0143 -0.0917
  835MOL0     H15213   7.145   3.367   5.517 -4.3802 -1.2955 -1.8390
  835MOL0     H15214   8.705   3.326   6.073 -0.9878  0.5782 -0.3849
  835MOL0     H15215   8.921   3.254   6.022 -2.1525 -0.2725 -0.2637
  835MOL0     H15216   9.327   3.435   5.815 -1.0888 -1.4410  0.1811
  835MOL0     H15217   9.551   3.443   5.736 -0.3889  0.3092 -0.3481
  835MOL0     H15218   9.782   3.544   5.709 -2.0325 -0.2844  0.0218
  835MOL0     H15219   9.786   3.625   5.855  0.3335  0.3997 -3.5845
  835MOL0     H15220  10.029   3.478   5.873  0.6003 -0.7350 -0.2398
  835MOL0     H15221  10.008   3.617   5.763  1.7521 -0.3556  0.6216
  835MOL0     H15222  10.096   3.397   5.682  0.7962  1.8168 -0.6690
  835MOL0     H15223   9.918   3.340   5.668 -4.5358  3.6406 -3.5298
  835MOL0     H15224  10.035   3.421   5.442 -3.3013 -1.4425 -1.2183
  835MOL0     H15225  10.038   3.575   5.534  1.2477 -0.2880 -2.8360
  835MOL0     H15226   9.643   3.570   5.420  0.3525  0.0704  3.1103
  835MOL0     H15227   9.697   3.335   6.116  0.6944  2.0373 -0.0453
  835MOL0     H15228   9.372   3.207   6.237  1.9277 -3.0359 -3.0457
  835MOL0     H15229   9.545   3.216   6.253  0.2675  1.0388 -0.2736
  835MOL0     H15230   9.458   3.358   6.303  0.9159 -1.7786  2.1473
  836MOL0     O15231  10.151   9.470   4.699  0.6476 -0.0588  0.1543
  836MOL0     C15232  10.072   9.490   4.791 -0.2998 -0.3187  0.3322
  836MOL0     O15233  10.000   9.606   4.806  0.2046 -0.5857  0.4397
  836MOL0     C15234  10.034   9.704   4.724  0.4934  0.1375 -0.3130
  836MOL0     C15235   9.946   9.740   4.628 -0.5289  0.9885  0.2324
  836MOL0     C15236   9.975   9.834   4.530  0.3307  0.7094 -0.3872
  836MOL0     C15237  10.105   9.888   4.519  0.8650  0.3444 -0.3550
  836MOL0     O15238  10.140   9.987   4.428 -0.6689  0.4175  0.4258
  836MOL0     C15239  10.205   9.948   4.301  0.2254  0.7304 -0.7686
  836MOL0     C15240  10.185  10.061   4.197  0.6555 -0.6777  0.7269
  836MOL0     C15241  10.042  10.084   4.165  0.6748 -0.5726  0.2185
  836MOL0     C15242  10.016  10.191   4.052 -1.1179 -0.0846 -0.6867
  836MOL0     C15243   9.887  10.171   3.963  0.0872 -0.1368  0.2122
  836MOL0     C15244   9.881  10.273   3.840 -1.0805 -0.1462 -1.2683
  836MOL0     C15245   9.987  10.256   3.733  0.1475 -0.0369  0.0700
  836MOL0     C15246  10.089  10.360   3.708 -0.1342  0.5554  0.4718
  836MOL0     N15247  10.164  10.359   3.582  0.1823  0.4403 -0.3966
  836MOL0     C15248  10.211  10.465   3.515 -0.6385 -1.0538  0.0167
  836MOL0     C15249  10.271  10.423   3.404  0.6896 -0.6921 -0.3043
  836MOL0     C15250  10.351  10.521   3.310 -0.7110  1.5034 -0.3540
  836MOL0     C15251  10.283  10.539   3.182 -0.2306  0.6119  0.3609
  836MOL0     C15252  10.170  10.641   3.195  0.6475  0.4566 -0.7061
  836MOL0     C15253  10.206  10.789   3.150  0.2604 -0.6041  0.7565
  836MOL0     O15254  10.282  10.846   3.253 -0.4654 -0.4109  0.1059
  836MOL0     C15255  10.336  10.966   3.235 -0.1028 -0.1465  0.5781
  836MOL0     C15256  10.327  11.038   3.116  0.3771 -0.0943 -0.1263
  836MOL0     C15257  10.416  11.152   3.107 -0.0007  0.1589 -0.2598
  836MOL0     C15258  10.406  11.241   2.987  0.0524  0.4966 -0.2886
  836MOL0     C15259  10.494  11.199   3.210 -0.2478  0.5073 -0.7565
  836MOL0     C15260  10.584  11.323   3.208 -0.7159  0.0992 -0.5954
  836MOL0     O15261  10.581  11.389   3.321  0.6299 -0.6157  0.2103
  836MOL0     C15262  10.637  11.517   3.328 -0.3563  0.5633 -0.6681
  836MOL0     C15263  10.576  11.613   3.400  0.4495 -0.0176 -1.1538
  836MOL0     C15264  10.613  11.745   3.386  0.2640 -0.1259  0.4111
  836MOL0     C15265  10.733  11.784   3.316  0.4647  0.7870 -0.8741
  836MOL0     O15266  10.767  11.915   3.319 -0.1253 -0.1787  0.0589
  836MOL0     C15267  10.823  11.964   3.200 -0.3420  0.9568  0.4131
  836MOL0     C15268  10.851  12.123   3.191 -0.2668  0.0806  0.6191
  836MOL0     C15269  10.946  12.155   3.315  0.3793 -1.2233 -0.4534
  836MOL0     C15270  10.870  12.180   3.447  0.7281  0.1189 -0.8233
  836MOL0     C15271  10.967  12.192   3.567  0.4481 -1.2727 -0.1194
  836MOL0     C15272  11.057  12.307   3.584  0.1786 -0.2581 -0.1971
  836MOL0     C15273  11.153  12.277   3.691  0.1038  0.1455 -1.0990
  836MOL0     C15274  11.088  12.300   3.835 -0.5899  0.0316 -0.2147
  836MOL0    Cl15275  11.212  12.322   3.961 -0.0915 -0.2031  0.2485
  836MOL0     C15276  10.810  11.675   3.270 -0.0541 -0.9274  0.1174
  836MOL0     C15277  10.769  11.542   3.275 -0.2795 -0.1720 -0.9362
  836MOL0     O15278  10.628  11.360   3.098 -0.8888 -0.5497  1.0321
  836MOL0     C15279  10.494  11.116   3.328 -0.6865 -0.3212  1.2090
  836MOL0     C15280  10.419  11.007   3.342  1.3906 -0.0183  0.4268
  836MOL0     N15281  10.252  10.284   3.397  0.2962  0.0273 -0.4283
  836MOL0     N15282  10.185  10.245   3.499  0.5132  0.2464  0.1316
  836MOL0     C15283  10.197   9.851   4.617  0.5869  0.8338  0.1492
  836MOL0     C15284  10.159   9.763   4.724 -0.6658  0.0717  0.3702
  836MOL0     C15285  10.054   9.380   4.904  0.1973  0.4652 -0.1802
  836MOL0     C15286   9.944   9.396   4.998  0.3702 -0.3298  0.8080
  836MOL0     C15287   9.926   9.306   5.102 -0.0219  0.0108 -0.0942
  836MOL0     C15288  10.010   9.192   5.113  0.4692 -0.2573  0.0273
  836MOL0     O15289   9.967   9.088   5.182 -0.1241 -0.5906 -0.6453
  836MOL0     C15290   9.924   9.096   5.317 -0.0542 -0.1543 -0.2948
  836MOL0     C15291  10.050   9.062   5.402 -0.3747  0.1332 -0.7169
  836MOL0     C15292  10.140   8.945   5.352  0.3330 -0.3640  0.4654
  836MOL0     C15293  10.233   8.928   5.460 -0.2585 -0.6429 -0.1218
  836MOL0     C15294  10.181   8.851   5.569  1.6753  0.0904  0.3247
  836MOL0     C15295  10.128   8.786   5.666 -0.7317 -0.1557  0.3493
  836MOL0     C15296  10.120   9.186   5.040 -0.7665  1.2612 -0.5230
  836MOL0     C15297  10.155   9.277   4.938  0.3127 -0.6681 -0.8445
  836MOL0     C15298  10.289   9.271   4.879 -0.3484 -0.7976  0.0278
  836MOL0     H15299   9.849   9.696   4.645 -0.1737  1.2669  3.7359
  836MOL0     H15300   9.903   9.873   4.458  0.4283  4.1395  1.1852
  836MOL0     H15301  10.161   9.853   4.268  0.0338  0.1363  1.0965
  836MOL0     H15302  10.313   9.929   4.305  0.0810  0.0012  0.1185
  836MOL0     H15303  10.234  10.154   4.227 -4.3912  2.2985  0.9715
  836MOL0     H15304  10.224  10.028   4.100 -3.2932 -0.8871 -1.0247
  836MOL0     H15305  10.002   9.992   4.123 -1.3878 -0.1866  1.1972
  836MOL0     H15306   9.977  10.105   4.251  0.7389 -1.4363  0.4811
  836MOL0     H15307  10.027  10.291   4.096  2.0309  0.5398 -2.5607
  836MOL0     H15308  10.108  10.194   3.993 -0.6748  1.2668  0.0376
  836MOL0     H15309   9.796  10.186   4.021 -0.4840  0.6519 -0.8491
  836MOL0     H15310   9.887  10.071   3.921  0.0060 -0.8361  1.8116
  836MOL0     H15311   9.782  10.252   3.798 -1.1345  1.2207 -1.8757
  836MOL0     H15312   9.873  10.376   3.876  2.9128  0.2192 -1.0460
  836MOL0     H15313   9.923  10.252   3.644 -0.0069 -0.8502  0.2073
  836MOL0     H15314  10.038  10.160   3.746  2.0832  0.6940 -1.5849
  836MOL0     H15315  10.041  10.458   3.699  1.6134  1.5308  1.3595
  836MOL0     H15316  10.158  10.356   3.793  1.3682 -0.6441 -0.7364
  836MOL0     H15317  10.232  10.560   3.563  2.3763 -0.6575 -1.8785
  836MOL0     H15318  10.449  10.473   3.299 -0.7002  1.6612 -0.9392
  836MOL0     H15319  10.364  10.615   3.366 -1.1326  0.6441  1.2514
  836MOL0     H15320  10.364  10.562   3.113  1.8591  3.3209  3.3731
  836MOL0     H15321  10.244  10.442   3.150  1.2222 -0.0930  0.6367
  836MOL0     H15322  10.093  10.598   3.130  0.6580  0.5538 -0.7822
  836MOL0     H15323  10.125  10.638   3.294  1.6353 -1.8481 -0.2624
  836MOL0     H15324  10.266  10.784   3.058 -1.7431 -5.5820 -0.6159
  836MOL0     H15325  10.118  10.850   3.125 -0.0761 -0.3286  2.5031
  836MOL0     H15326  10.285  11.006   3.022  1.5545 -1.9508 -0.0780
  836MOL0     H15327  10.502  11.255   2.935 -0.0404  1.7057 -0.1650
  836MOL0     H15328  10.368  11.338   3.022  3.0106  0.6083  3.1739
  836MOL0     H15329  10.331  11.210   2.913 -0.8406  0.2321  0.7105
  836MOL0     H15330  10.482  11.590   3.448  0.5015  0.2045 -0.9393
  836MOL0     H15331  10.550  11.824   3.425 -0.5719 -0.8803  0.6053
  836MOL0     H15332  10.918  11.911   3.184  1.1793  2.8467  2.4551
  836MOL0     H15333  10.754  11.935   3.121  0.9752 -2.3197  0.3047
  836MOL0     H15334  10.907  12.156   3.102 -1.5805  3.4954  0.9175
  836MOL0     H15335  10.765  12.190   3.190 -0.7667 -0.3213 -3.8346
  836MOL0     H15336  11.004  12.246   3.295 -3.3661  1.6834  0.7425
  836MOL0     H15337  11.014  12.069   3.314 -2.9154 -4.0635 -0.5038
  836MOL0     H15338  10.788  12.109   3.460 -1.6519  2.8322  0.2040
  836MOL0     H15339  10.809  12.271   3.439  0.0732  0.2721  3.5298
  836MOL0     H15340  10.896  12.193   3.650  0.3377 -1.1124 -0.2146
  836MOL0     H15341  11.021  12.097   3.566 -3.7044 -3.9184 -1.6087
  836MOL0     H15342  11.005  12.400   3.612 -2.6346 -1.2432 -1.8319
  836MOL0     H15343  11.125  12.328   3.501  0.4175 -0.8549 -0.1537
  836MOL0     H15344  11.239  12.343   3.677 -0.4809  0.8351 -1.5275
  836MOL0     H15345  11.187  12.173   3.686  0.1220  0.1859 -2.1898
  836MOL0     H15346  11.032  12.209   3.858 -1.9713  1.1758  1.1240
  836MOL0     H15347  11.012  12.378   3.834 -0.5000  0.1723 -2.5383
  836MOL0     H15348  10.902  11.706   3.223  2.4462 -2.8951  3.2720
  836MOL0     H15349  10.831  11.469   3.224 -1.5652 -0.7793 -1.7083
  836MOL0     H15350  10.551  11.143   3.417 -0.4544 -0.8162  1.2108
  836MOL0     H15351  10.418  10.932   3.420  1.9908 -0.4531  0.0247
  836MOL0     H15352  10.296   9.892   4.634  1.6198 -0.7959 -1.6095
  836MOL0     H15353  10.234   9.745   4.800 -1.8641  1.0217  1.8514
  836MOL0     H15354   9.864   9.469   4.994  1.1390  0.5022 -0.0983
  836MOL0     H15355   9.842   9.304   5.170 -1.2110 -1.0326 -1.5173
  836MOL0     H15356   9.896   9.195   5.356 -0.5107 -1.6726  3.6611
  836MOL0     H15357   9.844   9.023   5.332 -0.7987  0.8480  0.8532
  836MOL0     H15358  10.019   9.051   5.507 -2.1368 -1.1233 -1.3137
  836MOL0     H15359  10.121   9.144   5.406  0.6026 -0.5953 -2.4145
  836MOL0     H15360  10.090   8.851   5.329  1.2153 -0.2773 -2.1826
  836MOL0     H15361  10.202   8.977   5.267  4.4444  0.8781  3.6119
  836MOL0     H15362  10.264   9.028   5.493 -6.7613  0.4374  4.8168
  836MOL0     H15363  10.318   8.871   5.422  2.1812  2.3293  0.4660
  836MOL0     H15364  10.095   8.713   5.737 -3.4004  0.1054 -0.4812
  836MOL0     H15365  10.181   9.097   5.057  1.7928  2.8681 -0.8231
  836MOL0     H15366  10.287   9.277   4.770 -0.8789 -0.2760  0.0561
  836MOL0     H15367  10.352   9.349   4.921 -0.2800 -0.3359 -0.9126
  836MOL0     H15368  10.351   9.182   4.897  2.8707  1.3697  0.3781
  837MOL0     O15369   8.852  11.098   7.387 -0.1393 -0.0485  0.1147
  837MOL0     C15370   8.865  11.007   7.302  0.4099  0.5161 -0.8407
  837MOL0     O15371   8.966  10.918   7.299 -0.2490 -0.1504  0.0319
  837MOL0     C15372   9.055  10.897   7.406  0.0910 -0.2906  0.4524
  837MOL0     C15373   9.019  10.839   7.524 -0.0918  0.3825  0.2445
  837MOL0     C15374   9.102  10.832   7.634  0.0837  0.5777 -0.1957
  837MOL0     C15375   9.236  10.868   7.625  0.1955  0.0673 -0.5953
  837MOL0     O15376   9.319  10.830   7.733  0.5891 -0.3557  0.1687
  837MOL0     C15377   9.351  10.941   7.824  0.4232 -0.5395  0.6081
  837MOL0     C15378   9.464  10.889   7.911 -0.4676 -0.0747 -0.2055
  837MOL0     C15379   9.571  10.978   7.941 -0.2217 -0.5051 -0.0682
  837MOL0     C15380   9.666  10.998   7.825  0.6237  0.1997 -0.2236
  837MOL0     C15381   9.764  11.112   7.855  0.0167 -0.7013 -0.1297
  837MOL0     C15382   9.842  11.162   7.733  0.6098  1.2658  0.0621
  837MOL0     C15383   9.963  11.228   7.794  0.1942 -0.1792  1.1570
  837MOL0     C15384   9.943  11.373   7.839  0.0679  0.4400 -0.4238
  837MOL0     N15385   9.914  11.470   7.735  0.4286 -0.2853  1.3178
  837MOL0     C15386   9.875  11.600   7.758 -0.5720  0.7998  0.1700
  837MOL0     C15387   9.857  11.656   7.626 -0.8220 -0.0500 -0.1549
  837MOL0     C15388   9.809  11.788   7.583 -0.6974  0.4116 -0.0047
  837MOL0     C15389   9.920  11.889   7.548 -0.7419 -0.1430 -0.5696
  837MOL0     C15390  10.026  11.910   7.658 -0.3189  0.3816 -0.6055
  837MOL0     C15391  10.161  11.958   7.585  0.3118  0.2017  0.7880
  837MOL0     O15392  10.255  11.980   7.694 -0.3986  0.2662 -0.4348
  837MOL0     C15393  10.361  12.066   7.653 -0.2617  0.3153 -0.6374
  837MOL0     C15394  10.405  12.081   7.516  0.4915 -0.6216 -0.0203
  837MOL0     C15395  10.514  12.176   7.488 -1.1041  0.7746 -0.0180
  837MOL0     C15396  10.578  12.177   7.351  1.0345 -0.3877  0.1306
  837MOL0     C15397  10.564  12.258   7.589 -0.6410  0.2715 -0.6770
  837MOL0     C15398  10.683  12.361   7.584  1.8623 -0.6072 -0.1392
  837MOL0     O15399  10.670  12.456   7.680  0.5684 -0.8490  0.1784
  837MOL0     C15400  10.763  12.558   7.683  0.0253  0.5290 -0.6814
  837MOL0     C15401  10.719  12.679   7.638  0.2653  0.9537  1.0087
  837MOL0     C15402  10.807  12.794   7.638  0.3143  0.3108  0.2237
  837MOL0     C15403  10.937  12.778   7.681 -0.5079  0.0703 -0.1130
  837MOL0     O15404  11.029  12.880   7.686 -0.4278  0.1089  0.0205
  837MOL0     C15405  11.019  12.985   7.590  0.6174 -0.1172 -0.3673
  837MOL0     C15406  11.037  12.953   7.441  0.0417  0.3108 -1.3689
  837MOL0     C15407  11.185  12.944   7.408  0.8404  1.0592 -0.6959
  837MOL0     C15408  11.186  12.901   7.266 -0.3870 -0.8610  0.2045
  837MOL0     C15409  11.329  12.898   7.206  0.2396  0.0567 -0.2175
  837MOL0     C15410  11.372  13.043   7.185  0.7669 -0.5664  0.1801
  837MOL0     C15411  11.499  13.040   7.100  0.4307 -0.4347  0.0039
  837MOL0     C15412  11.539  13.166   7.014  0.0499 -0.5276 -0.0254
  837MOL0    Cl15413  11.415  13.185   6.874 -0.2755  0.0842 -0.4817
  837MOL0     C15414  10.984  12.648   7.727 -0.2067 -0.5583 -0.0382
  837MOL0     C15415  10.898  12.542   7.720  0.2368 -0.4178 -1.0015
  837MOL0     O15416  10.761  12.367   7.495  0.5007  0.7791 -0.2280
  837MOL0     C15417  10.524  12.231   7.723  0.1498 -0.0393  0.8180
  837MOL0     C15418  10.432  12.134   7.754  0.0476 -0.0664  0.1145
  837MOL0     N15419   9.890  11.556   7.534 -0.1597 -0.1045  0.0051
  837MOL0     N15420   9.914  11.451   7.596 -0.1948 -0.0865 -1.2767
  837MOL0     C15421   9.284  10.916   7.505  0.2742 -0.3858 -0.0903
  837MOL0     C15422   9.195  10.927   7.400  0.1681 -0.6260 -0.1754
  837MOL0     C15423   8.775  11.001   7.185  0.6288 -1.1216 -0.0371
  837MOL0     C15424   8.788  11.100   7.089 -0.3048  0.2674 -1.0707
  837MOL0     C15425   8.713  11.089   6.975  1.0743 -0.6805 -0.2501
  837MOL0     C15426   8.621  10.972   6.958 -0.0917 -0.0366 -0.6895
  837MOL0     O15427   8.540  10.984   6.848  0.1287  0.2405  0.0885
  837MOL0     C15428   8.557  11.065   6.732 -0.0931 -0.5848 -0.5732
  837MOL0     C15429   8.489  11.209   6.745 -0.0444  0.9126  0.0770
  837MOL0     C15430   8.338  11.202   6.760 -0.0793 -1.1302  1.0666
  837MOL0     C15431   8.266  11.337   6.790 -0.4511 -0.0302 -0.4576
  837MOL0     C15432   8.288  11.436   6.684  0.5328  0.2134  0.0293
  837MOL0     C15433   8.287  11.512   6.589  0.1286 -0.0157  0.3113
  837MOL0     C15434   8.608  10.875   7.060 -0.5902 -0.8092 -0.5911
  837MOL0     C15435   8.689  10.885   7.170  0.2073  0.2499  0.5746
  837MOL0     C15436   8.677  10.777   7.285  0.1348 -0.1374  0.1267
  837MOL0     H15437   8.916  10.807   7.524  0.0322 -0.1192 -1.5393
  837MOL0     H15438   9.056  10.802   7.728 -1.2461  1.6105 -0.4933
  837MOL0     H15439   9.267  10.975   7.885  2.2324  2.5712  1.6255
  837MOL0     H15440   9.366  11.036   7.771 -0.1035 -0.3984  0.7016
  837MOL0     H15441   9.420  10.850   8.003 -0.0467 -1.6636 -0.6466
  837MOL0     H15442   9.499  10.792   7.875 -2.3624 -0.1899 -1.9099
  837MOL0     H15443   9.526  11.069   7.982  0.1455 -0.2899 -0.1425
  837MOL0     H15444   9.634  10.939   8.021 -1.5066  2.3380  2.5517
  837MOL0     H15445   9.715  10.901   7.821  0.1343 -0.2077  2.1241
  837MOL0     H15446   9.610  11.024   7.734 -0.3795 -1.6537 -0.1862
  837MOL0     H15447   9.834  11.070   7.929  1.0231  2.9741  1.2113
  837MOL0     H15448   9.707  11.192   7.902 -1.0243 -2.6399  2.0922
  837MOL0     H15449   9.861  11.072   7.673 -2.2460  0.1011  0.7595
  837MOL0     H15450   9.788  11.226   7.663 -1.1046  0.2778  0.4265
  837MOL0     H15451  10.048  11.241   7.727 -0.6950 -1.3631 -0.2608
  837MOL0     H15452  10.016  11.166   7.866  2.8014  0.4833 -0.0731
  837MOL0     H15453   9.858  11.377   7.908 -0.2594  2.7117 -0.8665
  837MOL0     H15454  10.033  11.399   7.894  1.2703 -2.4814 -0.8507
  837MOL0     H15455   9.849  11.635   7.857 -1.7781 -1.2473  0.6280
  837MOL0     H15456   9.743  11.827   7.661  1.0059  1.2528  1.0624
  837MOL0     H15457   9.752  11.757   7.494 -0.3309 -0.5440  0.0853
  837MOL0     H15458   9.970  11.853   7.458 -1.7945 -1.9119 -0.4891
  837MOL0     H15459   9.879  11.990   7.541 -0.2194  0.3804  2.4541
  837MOL0     H15460   9.972  11.967   7.734 -3.0383 -0.3354 -1.8699
  837MOL0     H15461  10.036  11.809   7.698 -0.6768  1.1457  1.5598
  837MOL0     H15462  10.194  11.872   7.526  0.2135  2.5592 -3.0334
  837MOL0     H15463  10.151  12.047   7.522  1.2275 -1.0862 -1.2759
  837MOL0     H15464  10.361  12.029   7.431 -3.3739  0.5987  1.0309
  837MOL0     H15465  10.587  12.280   7.316 -0.8850 -0.6800 -1.3840
  837MOL0     H15466  10.504  12.130   7.285  0.3948  1.8148 -0.8164
  837MOL0     H15467  10.672  12.122   7.345  0.8201 -0.7304 -0.0975
  837MOL0     H15468  10.621  12.679   7.590  0.6603 -0.2946  0.1574
  837MOL0     H15469  10.776  12.891   7.602 -1.9972 -0.5197 -0.2346
  837MOL0     H15470  10.926  13.041   7.602  0.3785 -0.6866  0.4992
  837MOL0     H15471  11.101  13.055   7.610  0.6441 -0.3682  0.4304
  837MOL0     H15472  10.996  12.852   7.431  0.6842 -0.1076  0.0279
  837MOL0     H15473  10.990  13.028   7.376 -2.8808 -0.6033 -0.4591
  837MOL0     H15474  11.232  12.862   7.462  0.4763  1.6717  0.5846
  837MOL0     H15475  11.236  13.038   7.431  0.6984  0.3779  2.9966
  837MOL0     H15476  11.111  12.963   7.216 -1.3624  0.2633  2.8637
  837MOL0     H15477  11.155  12.796   7.267 -2.4023 -0.3031  0.8208
  837MOL0     H15478  11.401  12.841   7.264 -0.0871 -2.9330 -2.5409
  837MOL0     H15479  11.312  12.851   7.109 -0.0196  0.3102 -0.2980
  837MOL0     H15480  11.386  13.104   7.275 -3.3743  1.3903 -0.2583
  837MOL0     H15481  11.302  13.101   7.125  0.6167 -1.7121 -0.7939
  837MOL0     H15482  11.492  12.946   7.044  0.2549 -0.0052 -0.7030
  837MOL0     H15483  11.585  13.024   7.166 -0.4122  0.5134  1.3696
  837MOL0     H15484  11.643  13.151   6.986 -0.2411  0.4047 -1.7563
  837MOL0     H15485  11.545  13.254   7.079  1.7276 -0.1651 -0.6323
  837MOL0     H15486  11.088  12.628   7.750  0.2756 -0.0213 -1.6157
  837MOL0     H15487  10.928  12.447   7.763 -3.1405 -0.9644  0.5242
  837MOL0     H15488  10.567  12.283   7.808 -0.1982  1.9976 -0.1891
  837MOL0     H15489  10.416  12.117   7.860 -4.5624  0.1053 -0.3588
  837MOL0     H15490   9.389  10.940   7.494  0.7633 -2.3640 -0.0605
  837MOL0     H15491   9.228  10.949   7.299  1.5671  3.6229  1.0160
  837MOL0     H15492   8.857  11.184   7.096  1.0589 -0.9198  0.4730
  837MOL0     H15493   8.727  11.151   6.886  2.1192  0.5312  0.7198
  837MOL0     H15494   8.660  11.073   6.694  1.5809 -1.8248  3.2758
  837MOL0     H15495   8.494  11.011   6.660 -0.0461 -1.8054  0.2680
  837MOL0     H15496   8.509  11.245   6.644  0.7763 -2.3770 -1.0620
  837MOL0     H15497   8.540  11.278   6.813  1.1318  1.7527 -1.5853
  837MOL0     H15498   8.288  11.162   6.672 -2.6695  0.4422  1.7199
  837MOL0     H15499   8.325  11.134   6.845  0.5315 -2.2479  0.2823
  837MOL0     H15500   8.302  11.386   6.881  2.4629 -0.3661 -1.3296
  837MOL0     H15501   8.160  11.315   6.810 -0.1092  0.0670  1.6947
  837MOL0     H15502   8.279  11.578   6.504  2.3746  2.1343  1.6427
  837MOL0     H15503   8.540  10.796   7.029 -1.7249  0.6879 -2.1291
  837MOL0     H15504   8.773  10.738   7.320 -0.3068 -2.1206 -0.7636
  837MOL0     H15505   8.618  10.814   7.369  1.7660 -2.6505  2.5570
  837MOL0     H15506   8.630  10.686   7.249 -0.5138 -0.6996  2.2842
  838MOL0     O15507   0.558   2.832   7.929 -0.3182 -0.8141 -0.3039
  838MOL0     C15508   0.558   2.822   7.813  0.6298 -0.5493 -0.2704
  838MOL0     O15509   0.441   2.816   7.740  0.3300  0.1082  0.7727
  838MOL0     C15510   0.322   2.813   7.810  0.1024 -0.2166  0.1727
  838MOL0     C15511   0.281   2.698   7.888 -0.3387 -0.3185 -0.5730
  838MOL0     C15512   0.157   2.695   7.957 -0.0325 -0.0895 -0.2149
  838MOL0     C15513   0.071   2.801   7.939  0.1244 -0.6235 -0.8465
  838MOL0     O15514  -0.047   2.791   8.006  0.7911  0.0552 -0.2010
  838MOL0     C15515  -0.161   2.825   7.923  0.2930 -0.2379  0.2383
  838MOL0     C15516  -0.287   2.826   8.014  0.2650 -0.5253  0.3712
  838MOL0     C15517  -0.280   2.924   8.127 -0.6976  0.0359  0.0177
  838MOL0     C15518  -0.375   2.865   8.235  1.3243 -0.6529  0.1854
  838MOL0     C15519  -0.395   2.962   8.358  1.1754 -0.1369 -0.2671
  838MOL0     C15520  -0.276   2.985   8.442  1.4440 -0.1494  0.1950
  838MOL0     C15521  -0.229   2.856   8.507 -0.4456  0.1240 -0.4596
  838MOL0     C15522  -0.110   2.891   8.604 -0.1371  1.4087  0.4029
  838MOL0     N15523   0.013   2.911   8.534  0.8488 -0.0671 -0.3305
  838MOL0     C15524   0.090   2.818   8.464 -0.6366  0.3878  0.7465
  838MOL0     C15525   0.198   2.882   8.425 -0.2520 -0.0659 -0.5298
  838MOL0     C15526   0.302   2.819   8.335  0.1815 -0.6051  0.7382
  838MOL0     C15527   0.429   2.770   8.401 -0.4539 -0.3833  0.0094
  838MOL0     C15528   0.515   2.684   8.300  0.5276  0.2805 -0.6648
  838MOL0     C15529   0.604   2.753   8.208 -0.2833  0.5464  1.1523
  838MOL0     O15530   0.731   2.806   8.268 -0.4830  0.0253  0.2883
  838MOL0     C15531   0.848   2.770   8.215 -0.8341 -0.4164 -0.8494
  838MOL0     C15532   0.956   2.732   8.293 -0.5491 -0.9198 -0.3341
  838MOL0     C15533   1.078   2.693   8.244 -0.5441  0.6143 -0.4820
  838MOL0     C15534   1.191   2.638   8.333 -0.3906 -0.6533  0.6543
  838MOL0     C15535   1.102   2.707   8.106  0.3019 -0.1909 -0.1220
  838MOL0     C15536   1.221   2.687   8.033  0.5135 -0.9305  0.2107
  838MOL0     O15537   1.270   2.781   7.943  0.1550  0.5411 -0.3138
  838MOL0     C15538   1.386   2.753   7.877 -0.8006 -0.4133 -0.7750
  838MOL0     C15539   1.495   2.688   7.939 -0.2293  0.0305  0.4475
  838MOL0     C15540   1.603   2.655   7.866  0.5375 -0.1339 -0.2254
  838MOL0     C15541   1.617   2.697   7.737 -0.6015  0.5108 -0.0690
  838MOL0     O15542   1.736   2.674   7.670 -0.0554  0.5082 -0.1531
  838MOL0     C15543   1.749   2.533   7.643  0.5004  0.0835 -0.1105
  838MOL0     C15544   1.836   2.499   7.527 -0.9933  0.1688  0.3056
  838MOL0     C15545   1.769   2.550   7.399  0.3422 -0.1930 -0.1688
  838MOL0     C15546   1.844   2.513   7.268  0.0927  0.8832 -0.5226
  838MOL0     C15547   1.774   2.518   7.122 -0.2405 -0.4379 -0.7853
  838MOL0     C15548   1.657   2.422   7.120  0.2613 -0.5096  0.4310
  838MOL0     C15549   1.583   2.429   6.982  0.0638  0.0297 -0.0464
  838MOL0     C15550   1.434   2.385   7.010 -0.1488  0.1641 -0.4296
  838MOL0    Cl15551   1.353   2.381   6.860  0.4335 -0.3390 -0.2280
  838MOL0     C15552   1.517   2.770   7.675  0.0971 -0.3877  0.5773
  838MOL0     C15553   1.395   2.790   7.747 -0.0328 -0.3116  0.2859
  838MOL0     O15554   1.251   2.572   8.048 -0.4976  0.2630  0.8668
  838MOL0     C15555   0.997   2.754   8.030 -0.3711  1.0065  0.7647
  838MOL0     C15556   0.873   2.785   8.083 -0.5704  0.2115  0.5471
  838MOL0     N15557   0.195   3.010   8.470  0.2912  0.1933  0.1513
  838MOL0     N15558   0.081   3.032   8.517  0.1187  0.1199 -0.0148
  838MOL0     C15559   0.110   2.915   7.868 -0.0919  0.2028 -0.4566
  838MOL0     C15560   0.233   2.918   7.799  0.5222  0.2554  0.5034
  838MOL0     C15561   0.683   2.797   7.739 -0.2712 -0.7722  0.4596
  838MOL0     C15562   0.799   2.880   7.734  0.3144 -0.5344 -0.0976
  838MOL0     C15563   0.907   2.852   7.647 -1.3591 -0.1537  0.6643
  838MOL0     C15564   0.917   2.737   7.580  0.2906  0.2565  0.5385
  838MOL0     O15565   1.017   2.701   7.493  0.9751 -0.2967  0.1866
  838MOL0     C15566   1.106   2.792   7.434  0.2492  0.3127  0.2358
  838MOL0     C15567   1.126   2.743   7.297 -0.1660  0.5366  1.1709
  838MOL0     C15568   1.215   2.851   7.227  0.2705  0.2620 -0.1859
  838MOL0     C15569   1.246   2.821   7.081 -0.6480  0.4352  0.8927
  838MOL0     C15570   1.131   2.834   6.990  0.4780 -0.1742 -0.4693
  838MOL0     C15571   1.050   2.851   6.889 -0.1159  0.0604 -0.1274
  838MOL0     C15572   0.808   2.647   7.594 -0.9775 -0.2225  0.0121
  838MOL0     C15573   0.688   2.675   7.672 -0.8856  0.8735  1.9930
  838MOL0     C15574   0.589   2.563   7.696 -0.0500 -0.2102 -0.2592
  838MOL0     H15575   0.330   2.602   7.890 -0.6993 -0.5462 -2.0687
  838MOL0     H15576   0.132   2.606   8.014 -1.1444 -0.6549 -1.5357
  838MOL0     H15577  -0.169   2.745   7.849  1.0041  0.1656 -0.2911
  838MOL0     H15578  -0.150   2.915   7.863  0.1177 -2.9876 -4.3821
  838MOL0     H15579  -0.378   2.852   7.959  0.0068  3.0244  2.1589
  838MOL0     H15580  -0.290   2.723   8.051  0.9027 -0.6600  0.0494
  838MOL0     H15581  -0.179   2.933   8.169 -0.6195  3.5306 -0.5608
  838MOL0     H15582  -0.308   3.025   8.095 -0.9458 -0.0695 -0.0926
  838MOL0     H15583  -0.470   2.852   8.182  1.1901 -0.1797  0.3020
  838MOL0     H15584  -0.339   2.768   8.270  3.5590 -0.7166 -1.9933
  838MOL0     H15585  -0.466   2.906   8.421  4.3643 -1.7863  2.1546
  838MOL0     H15586  -0.441   3.057   8.331  1.3375  0.2808  0.8742
  838MOL0     H15587  -0.202   3.048   8.392 -0.0490  1.2167 -0.4005
  838MOL0     H15588  -0.303   3.046   8.529 -0.9502 -1.4352  0.4428
  838MOL0     H15589  -0.204   2.773   8.439  1.4776 -0.0698  0.4197
  838MOL0     H15590  -0.316   2.822   8.563 -0.1296  0.9473  0.5659
  838MOL0     H15591  -0.139   2.974   8.670  1.2123  2.7946 -0.6603
  838MOL0     H15592  -0.101   2.809   8.675 -1.2424 -1.1977 -2.2568
  838MOL0     H15593   0.081   2.710   8.458  1.4630  0.0247  2.9012
  838MOL0     H15594   0.332   2.894   8.262  0.4407 -2.3785 -1.0628
  838MOL0     H15595   0.247   2.744   8.278 -0.8691  2.1588 -2.1087
  838MOL0     H15596   0.481   2.851   8.452 -0.3700 -2.0941  2.8450
  838MOL0     H15597   0.401   2.699   8.479 -0.5063  1.0933  1.3684
  838MOL0     H15598   0.565   2.614   8.368 -3.4842 -0.0575  2.3174
  838MOL0     H15599   0.455   2.624   8.231 -0.9632  1.6070 -0.5649
  838MOL0     H15600   0.623   2.676   8.133  0.0248 -2.3377  3.9811
  838MOL0     H15601   0.553   2.840   8.165 -1.0596 -0.7523 -0.7111
  838MOL0     H15602   0.933   2.728   8.399 -3.6610  0.7624 -0.8324
  838MOL0     H15603   1.154   2.635   8.436  0.7287  2.9118  1.2869
  838MOL0     H15604   1.275   2.707   8.330 -0.1541 -0.8917  1.3893
  838MOL0     H15605   1.213   2.536   8.300 -1.4130 -0.8326  0.4992
  838MOL0     H15606   1.504   2.665   8.044 -1.2006  0.0434  0.5392
  838MOL0     H15607   1.693   2.610   7.908  0.6399 -0.4623 -0.7807
  838MOL0     H15608   1.791   2.491   7.735 -0.4725  0.3716  0.4788
  838MOL0     H15609   1.652   2.484   7.631  0.5962  0.1707 -1.4340
  838MOL0     H15610   1.936   2.543   7.533 -1.2583  0.9776 -0.8180
  838MOL0     H15611   1.851   2.391   7.518 -2.8623 -0.1911  1.2019
  838MOL0     H15612   1.768   2.660   7.401 -1.2663 -0.1881 -0.0894
  838MOL0     H15613   1.665   2.518   7.395  0.4321 -0.7458  1.4006
  838MOL0     H15614   1.885   2.412   7.279  0.3983  1.0240 -0.3619
  838MOL0     H15615   1.927   2.584   7.263 -0.3448  1.4709  0.2605
  838MOL0     H15616   1.740   2.622   7.113 -0.5418 -0.4056  0.4988
  838MOL0     H15617   1.846   2.497   7.043 -1.2223 -2.3796 -1.2090
  838MOL0     H15618   1.588   2.454   7.199 -0.5918 -0.0998 -0.4689
  838MOL0     H15619   1.687   2.320   7.145  3.0695  0.4729  1.4606
  838MOL0     H15620   1.633   2.365   6.908 -0.0417 -1.7495  1.3766
  838MOL0     H15621   1.573   2.529   6.938  0.5406 -0.0187 -0.2699
  838MOL0     H15622   1.387   2.457   7.078  3.0918  1.1313  1.0012
  838MOL0     H15623   1.422   2.280   7.038  0.1506  0.5109  1.1350
  838MOL0     H15624   1.524   2.783   7.568 -1.3066 -0.9940  0.3887
  838MOL0     H15625   1.322   2.848   7.691  0.0071 -1.1159 -0.6222
  838MOL0     H15626   1.012   2.779   7.926  0.2542  2.0334  1.0887
  838MOL0     H15627   0.788   2.841   8.044 -2.7761 -1.4348  2.6285
  838MOL0     H15628   0.042   2.999   7.857 -1.5915 -0.3805  3.0977
  838MOL0     H15629   0.260   3.009   7.747 -1.4265 -0.4694 -1.9579
  838MOL0     H15630   0.788   2.968   7.795 -4.4997 -1.4770  0.8285
  838MOL0     H15631   0.989   2.923   7.649 -1.0230  0.2648 -5.8324
  838MOL0     H15632   1.070   2.895   7.441 -2.2564 -0.5357  0.5903
  838MOL0     H15633   1.202   2.804   7.485 -0.4285  2.3465  1.1245
  838MOL0     H15634   1.027   2.753   7.253  0.5423  3.9347  0.0498
  838MOL0     H15635   1.160   2.643   7.268  1.4616  1.6092 -0.8781
  838MOL0     H15636   1.172   2.952   7.234  0.0631  0.1202  0.7415
  838MOL0     H15637   1.312   2.865   7.275  1.4315  2.1068 -2.8086
  838MOL0     H15638   1.290   2.721   7.078 -0.5342  0.4894 -1.1603
  838MOL0     H15639   1.317   2.901   7.056 -0.8932 -0.3451 -3.1013
  838MOL0     H15640   0.984   2.879   6.811  1.4044 -1.3034 -2.0068
  838MOL0     H15641   0.808   2.553   7.539 -0.2497  0.9501 -2.0884
  838MOL0     H15642   0.488   2.579   7.659 -0.4079 -2.4978 -0.4222
  838MOL0     H15643   0.636   2.468   7.667  1.6003  0.9103 -1.4302
  838MOL0     H15644   0.580   2.535   7.802 -0.6085 -2.9518 -0.9563
  839MOL0     O15645   3.825   1.020   9.585  0.3857  0.8116  0.5672
  839MOL0     C15646   3.788   1.108   9.661  0.0141  1.1388 -0.5350
  839MOL0     O15647   3.766   1.238   9.637 -0.5367  0.6490  0.5537
  839MOL0     C15648   3.804   1.302   9.519 -0.5054  0.4286 -1.4429
  839MOL0     C15649   3.888   1.257   9.417  0.5450  0.9816  0.0518
  839MOL0     C15650   3.914   1.337   9.309  0.0738 -0.1692 -0.0965
  839MOL0     C15651   3.864   1.465   9.304 -0.4870  0.2268 -0.7688
  839MOL0     O15652   3.909   1.547   9.201 -0.4621 -0.2680 -0.1418
  839MOL0     C15653   3.871   1.687   9.206  0.2635  0.2272  0.4369
  839MOL0     C15654   3.910   1.746   9.080  0.1515  1.0174 -0.7791
  839MOL0     C15655   3.862   1.886   9.039  0.6497 -0.2420 -0.1076
  839MOL0     C15656   3.780   1.883   8.900 -0.1150  1.1179  0.9925
  839MOL0     C15657   3.705   2.009   8.867 -0.3048 -0.4806 -0.9076
  839MOL0     C15658   3.600   2.049   8.965  0.5355 -0.0977  0.0486
  839MOL0     C15659   3.483   2.121   8.891 -1.1574  0.8360 -0.3437
  839MOL0     C15660   3.397   2.199   8.986  1.2859  0.2531  1.2492
  839MOL0     N15661   3.482   2.294   9.055  0.1285  0.0830 -0.6856
  839MOL0     C15662   3.496   2.289   9.196  0.2560 -0.4479 -1.1917
  839MOL0     C15663   3.584   2.397   9.218 -0.0741 -0.5951 -0.0938
  839MOL0     C15664   3.642   2.427   9.349  0.0455 -0.0518 -0.7241
  839MOL0     C15665   3.794   2.469   9.342  0.2294 -0.3953 -0.7854
  839MOL0     C15666   3.873   2.456   9.477 -0.2491 -0.4386 -0.1984
  839MOL0     C15667   4.015   2.500   9.476  0.7310 -0.1625  0.2438
  839MOL0     O15668   4.039   2.611   9.378 -0.1617  0.0080  0.5573
  839MOL0     C15669   4.147   2.688   9.377 -0.7947 -0.6102 -1.0416
  839MOL0     C15670   4.165   2.786   9.280  0.0819  0.5235 -0.1360
  839MOL0     C15671   4.265   2.882   9.289 -0.1413 -0.4521 -1.3765
  839MOL0     C15672   4.268   2.983   9.179  0.2620  0.7252  0.2005
  839MOL0     C15673   4.364   2.890   9.395  1.3305 -0.0651 -0.3877
  839MOL0     C15674   4.478   2.977   9.400 -1.2708  0.4103 -0.2705
  839MOL0     O15675   4.576   2.912   9.467  0.8749 -0.2694 -1.2217
  839MOL0     C15676   4.709   2.939   9.448 -0.7513  0.3948 -0.5600
  839MOL0     C15677   4.759   2.969   9.321  0.9208 -1.6131 -0.3301
  839MOL0     C15678   4.894   2.994   9.302  0.5588  0.3912  0.6201
  839MOL0     C15679   4.986   2.977   9.402 -0.0012 -1.0327 -0.3528
  839MOL0     O15680   5.117   3.005   9.365 -0.6724  0.0830 -0.1991
  839MOL0     C15681   5.221   3.004   9.474  0.5648 -0.3745  0.1236
  839MOL0     C15682   5.352   3.045   9.396  0.6125 -0.3101 -0.0245
  839MOL0     C15683   5.474   3.037   9.494  0.5807 -0.6802  0.5191
  839MOL0     C15684   5.500   3.153   9.584 -0.1032 -0.3079  0.1934
  839MOL0     C15685   5.513   3.298   9.520 -0.6059  0.6032 -0.0790
  839MOL0     C15686   5.394   3.381   9.570  0.6057  0.0857  0.2400
  839MOL0     C15687   5.409   3.537   9.544 -0.4306 -0.8563  0.1964
  839MOL0     C15688   5.276   3.616   9.578  0.5999  0.8761 -0.0476
  839MOL0    Cl15689   5.134   3.613   9.467  0.3162 -0.1240 -0.0123
  839MOL0     C15690   4.935   2.951   9.530 -0.0885  0.6970 -0.3481
  839MOL0     C15691   4.796   2.930   9.551 -0.6493 -1.0706  0.9254
  839MOL0     O15692   4.488   3.088   9.350 -0.0178 -0.0337 -0.3027
  839MOL0     C15693   4.348   2.788   9.497  0.6946  0.3095 -1.0472
  839MOL0     C15694   4.238   2.697   9.488  0.9408 -0.9678 -0.6243
  839MOL0     N15695   3.616   2.457   9.099 -0.6868 -0.4224  0.2510
  839MOL0     N15696   3.556   2.388   9.003  0.6077 -0.5426 -0.0543
  839MOL0     C15697   3.764   1.502   9.400  0.8967 -0.2651  0.2257
  839MOL0     C15698   3.743   1.419   9.511  0.1728 -0.0206 -0.0445
  839MOL0     C15699   3.771   1.076   9.804  0.5149  0.2482 -0.3044
  839MOL0     C15700   3.651   1.110   9.868  0.2989  0.6619 -0.0470
  839MOL0     C15701   3.630   1.067  10.000  0.0512 -0.1124  0.3756
  839MOL0     C15702   3.722   0.991  10.080 -0.3866  1.0455  0.4179
  839MOL0     O15703   3.694   0.940  10.208  0.9594 -0.2948 -0.1776
  839MOL0     C15704   3.567   0.969  10.275  0.2551  0.0148  0.8784
  839MOL0     C15705   3.562   0.880  10.386 -0.6598 -0.2434  0.6087
  839MOL0     C15706   3.423   0.885  10.451  0.3337 -0.6686 -0.0979
  839MOL0     C15707   3.304   0.851  10.350 -0.7276  0.4206 -0.2548
  839MOL0     C15708   3.186   0.800  10.416 -0.1878  0.1011  0.3770
  839MOL0     C15709   3.095   0.744  10.470 -0.0457  0.4050 -0.6555
  839MOL0     C15710   3.835   0.952  10.002  1.0629  0.5298 -1.0988
  839MOL0     C15711   3.863   0.998   9.875 -0.9027  0.7681  0.7217
  839MOL0     C15712   3.993   0.944   9.811  0.8328 -0.4301 -0.7690
  839MOL0     H15713   3.935   1.159   9.421 -1.1806 -0.0821 -2.4619
  839MOL0     H15714   3.993   1.306   9.241 -0.5512 -3.2676  0.4707
  839MOL0     H15715   3.910   1.732   9.297 -1.4108  0.3879  1.1191
  839MOL0     H15716   3.762   1.696   9.198  0.4854  1.4689 -3.2595
  839MOL0     H15717   4.019   1.741   9.083  0.0734 -1.1573 -0.0804
  839MOL0     H15718   3.873   1.682   9.000  0.9148 -1.7533  0.9478
  839MOL0     H15719   3.790   1.920   9.114  1.4762  0.6807  0.2919
  839MOL0     H15720   3.948   1.953   9.030  1.2520 -0.9929 -0.0005
  839MOL0     H15721   3.832   1.842   8.812 -0.4576 -1.4922  1.9253
  839MOL0     H15722   3.700   1.808   8.911 -1.2446  1.5171 -2.8450
  839MOL0     H15723   3.660   1.994   8.768 -0.5913  0.0604 -0.8620
  839MOL0     H15724   3.772   2.095   8.858 -0.5222 -0.1510  0.4319
  839MOL0     H15725   3.554   1.969   9.023 -0.4837  0.6200  0.2545
  839MOL0     H15726   3.662   2.115   9.027  1.2786  0.6923 -1.4724
  839MOL0     H15727   3.428   2.049   8.831 -0.5289  0.7457 -0.8258
  839MOL0     H15728   3.520   2.184   8.810  1.3710 -1.0281 -0.7934
  839MOL0     H15729   3.316   2.258   8.940 -1.3322 -3.0244  1.3272
  839MOL0     H15730   3.348   2.127   9.052  2.6674 -2.6281 -0.6703
  839MOL0     H15731   3.460   2.214   9.266  2.5887 -2.7437 -2.2581
  839MOL0     H15732   3.637   2.336   9.409  3.8093  0.2678  0.3002
  839MOL0     H15733   3.578   2.495   9.406 -0.2455 -0.8688 -0.0686
  839MOL0     H15734   3.835   2.397   9.271  1.3036 -0.5382 -0.0489
  839MOL0     H15735   3.801   2.572   9.309 -1.6922 -0.0704 -0.2826
  839MOL0     H15736   3.817   2.531   9.533 -1.5045  2.3517 -4.6842
  839MOL0     H15737   3.877   2.355   9.519  2.7874 -1.6711 -2.9612
  839MOL0     H15738   4.049   2.536   9.574  0.8779 -0.1152  0.1751
  839MOL0     H15739   4.073   2.416   9.436 -2.1401 -0.4700 -3.8954
  839MOL0     H15740   4.091   2.769   9.202  0.2570 -4.3823  0.4295
  839MOL0     H15741   4.286   3.081   9.225  2.8106  0.0629  0.7352
  839MOL0     H15742   4.174   2.993   9.124 -1.1567 -0.1375  2.3636
  839MOL0     H15743   4.344   2.967   9.102  1.0847  1.7942  0.7563
  839MOL0     H15744   4.682   2.972   9.244  0.7420  2.6568 -0.2143
  839MOL0     H15745   4.940   3.007   9.204  1.5561  0.2415  1.0540
  839MOL0     H15746   5.200   3.078   9.552  4.5987 -0.8691  1.9249
  839MOL0     H15747   5.253   2.909   9.516  3.5667 -0.3845 -1.8343
  839MOL0     H15748   5.366   2.981   9.309  2.1622  0.2034 -0.1988
  839MOL0     H15749   5.343   3.147   9.358  1.8529  0.3867  1.3968
  839MOL0     H15750   5.560   3.025   9.427 -0.5611  0.4013 -1.2396
  839MOL0     H15751   5.460   2.943   9.549  2.9021 -1.1441  0.4110
  839MOL0     H15752   5.599   3.133   9.624  0.0398 -1.6940 -0.7813
  839MOL0     H15753   5.437   3.156   9.673  3.7694  1.2415  3.1705
  839MOL0     H15754   5.594   3.355   9.565 -0.9136  2.5665 -1.8627
  839MOL0     H15755   5.508   3.302   9.411 -0.5824  2.3214 -0.0333
  839MOL0     H15756   5.384   3.368   9.678  0.9910  1.2749  0.4338
  839MOL0     H15757   5.296   3.350   9.534 -0.0701  1.1707  1.0736
  839MOL0     H15758   5.425   3.558   9.437 -0.5362  0.6120  0.4449
  839MOL0     H15759   5.493   3.579   9.601 -1.5034  2.2764 -0.2933
  839MOL0     H15760   5.284   3.725   9.591 -0.0452  1.0196 -0.7925
  839MOL0     H15761   5.232   3.587   9.674 -0.6739  1.4794 -0.4321
  839MOL0     H15762   5.003   2.928   9.612 -0.2315 -3.1679 -1.1084
  839MOL0     H15763   4.772   2.911   9.655  1.5118 -2.5423  1.2224
  839MOL0     H15764   4.396   2.788   9.595 -0.3917  0.9426 -0.4958
  839MOL0     H15765   4.240   2.615   9.559  0.5244 -1.0524 -0.7078
  839MOL0     H15766   3.713   1.596   9.381  0.5173 -0.5580 -0.2378
  839MOL0     H15767   3.685   1.450   9.597  2.2198  0.8679  1.0959
  839MOL0     H15768   3.573   1.165   9.816 -0.8581 -1.0034 -0.1465
  839MOL0     H15769   3.533   1.096  10.040  0.2814  0.5448  0.4799
  839MOL0     H15770   3.561   1.073  10.310 -0.7295  0.1054  0.4963
  839MOL0     H15771   3.476   0.953  10.216  1.6501  2.5528 -2.2491
  839MOL0     H15772   3.632   0.900  10.467 -1.1727  3.1120  0.3709
  839MOL0     H15773   3.573   0.778  10.347  1.9226  1.6814 -4.7699
  839MOL0     H15774   3.417   0.824  10.542  1.7992 -3.6723 -1.8865
  839MOL0     H15775   3.401   0.988  10.482  1.2714  0.0125 -1.5818
  839MOL0     H15776   3.325   0.782  10.268 -2.1794 -1.5266  0.9173
  839MOL0     H15777   3.270   0.947  10.311 -0.1576  0.4490 -0.6893
  839MOL0     H15778   3.021   0.684  10.519  0.6933 -1.6984 -1.9685
  839MOL0     H15779   3.918   0.898  10.047 -1.1685 -0.1157  2.7156
  839MOL0     H15780   4.042   1.025   9.757  1.8832 -2.5162 -3.1944
  839MOL0     H15781   4.068   0.921   9.887  2.1761  3.6093 -0.6975
  839MOL0     H15782   3.971   0.869   9.734 -1.7602 -0.8304  0.2498
  840MOL0     O15783   2.734   9.778   2.434  0.5138 -0.0260  0.4875
  840MOL0     C15784   2.655   9.863   2.393 -0.7234 -0.2220  0.3311
  840MOL0     O15785   2.521   9.862   2.402 -0.9441  0.8766 -0.2957
  840MOL0     C15786   2.462   9.804   2.515  0.4670  0.3513  0.5756
  840MOL0     C15787   2.337   9.744   2.507 -0.3011  0.1031  0.0942
  840MOL0     C15788   2.269   9.701   2.623  0.1277  0.7021 -0.2568
  840MOL0     C15789   2.327   9.704   2.750 -0.7281  0.2162  0.4122
  840MOL0     O15790   2.272   9.656   2.867 -0.3718 -0.1734  0.4416
  840MOL0     C15791   2.141   9.605   2.874  0.0096  0.1375  0.3393
  840MOL0     C15792   2.106   9.557   3.015 -0.5206  0.5065 -0.0830
  840MOL0     C15793   1.972   9.492   3.016 -0.0187 -0.9505 -0.0319
  840MOL0     C15794   1.952   9.371   2.918  0.9570 -0.3254 -1.0059
  840MOL0     C15795   1.842   9.281   2.978  0.7861 -1.1224  0.6631
  840MOL0     C15796   1.866   9.142   2.951  0.3359 -0.1037 -0.0814
  840MOL0     C15797   1.795   9.051   3.066  0.1695 -0.4999 -0.9248
  840MOL0     C15798   1.896   9.001   3.169  0.3900  0.2368  0.3281
  840MOL0     N15799   1.864   8.879   3.236 -0.1202 -0.3940  0.1264
  840MOL0     C15800   1.815   8.765   3.190 -0.8842  0.7983  0.3836
  840MOL0     C15801   1.799   8.685   3.302 -0.0689  1.0608  0.0380
  840MOL0     C15802   1.739   8.544   3.293  0.2203 -0.1645 -0.3368
  840MOL0     C15803   1.584   8.537   3.309  0.0487 -0.0998 -0.2602
  840MOL0     C15804   1.538   8.566   3.450 -0.5007  0.1016  0.4938
  840MOL0     C15805   1.382   8.579   3.459 -0.9055  0.1734  0.2574
  840MOL0     O15806   1.319   8.458   3.410  0.4128 -0.2795 -0.0100
  840MOL0     C15807   1.192   8.431   3.452  0.0578 -0.4775  0.0586
  840MOL0     C15808   1.145   8.298   3.441 -0.2818 -0.4352 -0.7528
  840MOL0     C15809   1.009   8.261   3.470  0.8959 -0.1455  0.8313
  840MOL0     C15810   0.993   8.103   3.492  0.0548  0.5811 -1.4723
  840MOL0     C15811   0.912   8.362   3.487  0.6697 -0.0886 -0.1252
  840MOL0     C15812   0.772   8.327   3.510  0.7061 -1.0721  0.9906
  840MOL0     O15813   0.735   8.212   3.445  0.6325 -0.4133 -0.5477
  840MOL0     C15814   0.617   8.164   3.462  1.2223 -0.1304 -0.3974
  840MOL0     C15815   0.587   8.059   3.556  0.0669 -0.3142 -1.0487
  840MOL0     C15816   0.464   8.004   3.576  1.0178 -0.6045  0.8674
  840MOL0     C15817   0.351   8.051   3.504 -0.0807  0.4295 -0.1857
  840MOL0     O15818   0.227   7.996   3.525 -0.1783 -0.5833 -1.0963
  840MOL0     C15819   0.180   7.947   3.654 -0.2921 -0.0350  0.0704
  840MOL0     C15820   0.041   7.887   3.642 -0.2829 -0.1062 -0.4994
  840MOL0     C15821   0.039   7.782   3.535  0.5312  0.2343  0.7000
  840MOL0     C15822  -0.056   7.653   3.563  0.4180  0.2441  0.2467
  840MOL0     C15823  -0.001   7.537   3.645 -0.2535  1.0393  0.3111
  840MOL0     C15824  -0.113   7.442   3.699 -0.1399 -0.2903 -0.1432
  840MOL0     C15825  -0.183   7.358   3.596  0.6749  0.1343  0.6830
  840MOL0     C15826  -0.232   7.230   3.644  1.1553 -0.8324  0.8813
  840MOL0    Cl15827  -0.106   7.139   3.733 -0.3876 -0.1001 -0.0443
  840MOL0     C15828   0.373   8.155   3.415 -0.2828 -0.5316 -0.9768
  840MOL0     C15829   0.506   8.205   3.388  0.3383 -0.8530 -0.9322
  840MOL0     O15830   0.699   8.403   3.571 -0.2726 -0.2134 -0.2566
  840MOL0     C15831   0.954   8.503   3.492  0.4420 -0.0253 -0.4835
  840MOL0     C15832   1.091   8.530   3.488  0.5448  0.4150  0.0374
  840MOL0     N15833   1.842   8.748   3.417 -0.4097  0.7530 -0.5573
  840MOL0     N15834   1.878   8.867   3.371  0.3493  0.2448 -0.0787
  840MOL0     C15835   2.456   9.765   2.760  0.5074 -0.2879 -0.7139
  840MOL0     C15836   2.515   9.823   2.643 -0.0884 -0.1145 -0.0119
  840MOL0     C15837   2.721   9.975   2.322 -0.0241  0.1653 -1.0308
  840MOL0     C15838   2.641  10.040   2.226  0.8996  0.0784 -0.7993
  840MOL0     C15839   2.684  10.150   2.160 -1.5622  0.1372  0.5043
  840MOL0     C15840   2.810  10.202   2.174 -0.4244 -0.0677  1.3178
  840MOL0     O15841   2.850  10.308   2.088  0.2021 -0.2743  0.4887
  840MOL0     C15842   2.994  10.344   2.079  1.2272 -0.1210 -0.4160
  840MOL0     C15843   3.007  10.451   1.968  0.2562 -0.7481 -0.9739
  840MOL0     C15844   2.911  10.566   1.988 -0.0043  0.3230  0.7028
  840MOL0     C15845   2.891  10.653   1.853  0.5540  0.9043  0.4267
  840MOL0     C15846   2.849  10.793   1.856  0.3083  0.2531  0.3246
  840MOL0     C15847   2.811  10.910   1.854 -0.5696 -0.5694  1.0593
  840MOL0     C15848   2.896  10.135   2.269 -0.3967  0.5527  0.7902
  840MOL0     C15849   2.852  10.025   2.346 -0.8051 -0.4666  0.7952
  840MOL0     C15850   2.956   9.976   2.453 -1.1662 -0.4238  0.7573
  840MOL0     H15851   2.292   9.737   2.408  0.9509 -0.0569 -0.4826
  840MOL0     H15852   2.169   9.660   2.617  0.3941  0.0086 -0.0638
  840MOL0     H15853   2.137   9.527   2.796 -1.1508  0.2950  0.2241
  840MOL0     H15854   2.068   9.684   2.856  1.2787  1.4948  0.9977
  840MOL0     H15855   2.187   9.487   3.037 -1.5968 -0.4446  1.0805
  840MOL0     H15856   2.100   9.646   3.078 -2.8668  2.5446 -2.9334
  840MOL0     H15857   1.965   9.468   3.122 -2.0852  4.2396  1.3130
  840MOL0     H15858   1.890   9.562   3.002 -0.7364 -1.3057  2.0834
  840MOL0     H15859   1.916   9.407   2.821 -1.2627 -1.3550 -0.6256
  840MOL0     H15860   2.051   9.324   2.912  1.9224  1.6653 -1.7235
  840MOL0     H15861   1.741   9.313   2.950  0.7756  2.3937  3.8186
  840MOL0     H15862   1.850   9.305   3.085 -0.3949  0.1926  0.4886
  840MOL0     H15863   1.818   9.122   2.855  0.8097 -4.4828  0.3773
  840MOL0     H15864   1.970   9.111   2.939 -0.5555 -4.6401  1.7960
  840MOL0     H15865   1.756   8.958   3.025 -3.5724  0.6890 -0.4174
  840MOL0     H15866   1.705   9.095   3.110  0.2276 -1.4799  0.2271
  840MOL0     H15867   1.983   8.968   3.112  0.0905  0.2672 -0.1544
  840MOL0     H15868   1.920   9.077   3.244 -1.5757  0.4766  0.7720
  840MOL0     H15869   1.816   8.728   3.087 -1.9167  2.6404 -0.3398
  840MOL0     H15870   1.794   8.485   3.366 -1.0387 -1.0878 -0.1120
  840MOL0     H15871   1.757   8.499   3.195 -0.7581  2.1682 -1.6824
  840MOL0     H15872   1.533   8.605   3.240  1.8435 -0.3757 -1.9580
  840MOL0     H15873   1.549   8.436   3.285  0.5411 -0.2054 -0.5437
  840MOL0     H15874   1.575   8.484   3.511  0.5079 -0.7591 -1.1877
  840MOL0     H15875   1.582   8.665   3.466 -1.0191  0.5523 -0.7200
  840MOL0     H15876   1.362   8.606   3.563 -1.4015  4.0666 -0.6965
  840MOL0     H15877   1.355   8.658   3.388 -1.2652 -1.5388 -1.6148
  840MOL0     H15878   1.224   8.226   3.421  2.0698  1.2992  1.5005
  840MOL0     H15879   1.091   8.058   3.513  0.4279  1.3143 -1.5914
  840MOL0     H15880   0.956   8.057   3.400  0.7310 -1.5546 -0.7358
  840MOL0     H15881   0.920   8.078   3.569  0.8127  2.3936 -0.0812
  840MOL0     H15882   0.674   8.020   3.607  1.0947  2.1843 -0.7322
  840MOL0     H15883   0.444   7.936   3.658 -2.6409 -0.2869  0.3966
  840MOL0     H15884   0.239   7.857   3.675 -0.0948  0.6165  2.7439
  840MOL0     H15885   0.206   8.013   3.738  3.8716  0.2041 -1.1882
  840MOL0     H15886   0.009   7.842   3.736  3.8434 -1.9871  0.2179
  840MOL0     H15887  -0.027   7.971   3.626 -1.6239 -0.2678  3.3915
  840MOL0     H15888   0.138   7.747   3.506  0.6673  2.5257 -2.0905
  840MOL0     H15889   0.005   7.826   3.440  1.4690 -0.9497 -0.2088
  840MOL0     H15890  -0.072   7.607   3.465  1.2591 -1.5266  0.9043
  840MOL0     H15891  -0.158   7.679   3.594 -0.9015 -0.5049 -3.0638
  840MOL0     H15892   0.083   7.481   3.605 -0.6697 -0.0556  0.9246
  840MOL0     H15893   0.027   7.579   3.743  0.1963  1.2788  0.0805
  840MOL0     H15894  -0.195   7.499   3.744 -0.9403 -1.3974 -0.1395
  840MOL0     H15895  -0.075   7.390   3.788  4.5170  0.9939 -1.1348
  840MOL0     H15896  -0.104   7.345   3.521 -0.7166  2.1770 -1.2663
  840MOL0     H15897  -0.265   7.408   3.545 -0.1410  2.0727  3.6843
  840MOL0     H15898  -0.261   7.165   3.561 -2.5001 -0.1765  1.4854
  840MOL0     H15899  -0.320   7.252   3.706  1.8976  0.3772  1.5388
  840MOL0     H15900   0.285   8.207   3.378  0.2032  1.7184  0.7794
  840MOL0     H15901   0.501   8.288   3.319 -1.9461  1.9220  2.2346
  840MOL0     H15902   0.894   8.590   3.517  1.5654  0.6809 -0.1486
  840MOL0     H15903   1.128   8.632   3.492 -0.7904  1.0090 -1.3300
  840MOL0     H15904   2.511   9.784   2.852 -2.9862 -1.5693  1.8528
  840MOL0     H15905   2.608   9.878   2.656 -1.8439  3.5963 -1.7140
  840MOL0     H15906   2.533  10.029   2.214  0.2329  1.9156  2.3111
  840MOL0     H15907   2.621  10.199   2.085 -0.7728 -0.9884 -0.9448
  840MOL0     H15908   3.042  10.379   2.171  0.6064  2.0738 -0.8764
  840MOL0     H15909   3.042  10.253   2.040  1.0962 -0.9615  1.3027
  840MOL0     H15910   2.984  10.397   1.876 -2.3828 -2.7154  0.6926
  840MOL0     H15911   3.114  10.475   1.977 -0.0873  0.3040  0.7674
  840MOL0     H15912   2.807  10.536   2.004  0.0856  0.7059  2.1602
  840MOL0     H15913   2.935  10.643   2.062 -0.3476  1.2509 -0.1243
  840MOL0     H15914   2.826  10.587   1.795 -0.0340  1.7263  0.1316
  840MOL0     H15915   2.986  10.657   1.800  2.1276 -1.0755  2.8498
  840MOL0     H15916   2.788  11.012   1.835  2.5356 -0.0533 -0.5084
  840MOL0     H15917   2.999  10.168   2.267 -0.3873  0.9241 -3.9793
  840MOL0     H15918   2.913   9.924   2.539  0.6915 -1.8080  0.8990
  840MOL0     H15919   3.043   9.921   2.416  0.4800  2.2105  0.4145
  840MOL0     H15920   3.009  10.065   2.488 -1.3641 -0.8652  2.2299
  841MOL0     O15921   0.928   4.059   5.879 -0.0354 -0.3507  0.8191
  841MOL0     C15922   0.819   4.057   5.830  0.9782  0.3471 -0.0418
  841MOL0     O15923   0.763   4.157   5.757  0.2809 -0.2690  0.3877
  841MOL0     C15924   0.851   4.210   5.665  0.4185  0.0812  0.5676
  841MOL0     C15925   0.831   4.349   5.638  0.0100  0.6763 -0.3649
  841MOL0     C15926   0.929   4.415   5.559  0.2116  0.8535  0.2595
  841MOL0     C15927   1.022   4.340   5.483  0.6952  0.3770 -0.1026
  841MOL0     O15928   1.099   4.401   5.385 -0.0406 -0.3168 -1.1906
  841MOL0     C15929   1.183   4.326   5.295 -0.6096  0.5149  0.3416
  841MOL0     C15930   1.325   4.347   5.348  0.2886 -0.6972 -0.1196
  841MOL0     C15931   1.423   4.300   5.234  0.2867 -0.0419  0.3971
  841MOL0     C15932   1.575   4.294   5.276 -0.5118  0.3622 -0.8239
  841MOL0     C15933   1.646   4.198   5.193 -0.2088 -0.5958  0.2212
  841MOL0     C15934   1.795   4.186   5.226 -0.3821  0.5908 -0.6986
  841MOL0     C15935   1.804   4.057   5.318 -0.6162 -0.3322  0.4326
  841MOL0     C15936   1.953   4.008   5.310 -0.7788 -0.1767 -0.0574
  841MOL0     N15937   2.049   4.109   5.364  0.7386  0.6918  0.2862
  841MOL0     C15938   2.034   4.187   5.475  0.1145 -0.1018 -0.3366
  841MOL0     C15939   2.139   4.273   5.461 -0.3265 -0.4402 -0.7192
  841MOL0     C15940   2.168   4.369   5.581  0.0411 -1.5221 -0.2158
  841MOL0     C15941   2.295   4.316   5.654 -1.2104 -0.4184  0.2613
  841MOL0     C15942   2.363   4.425   5.740  0.5387  0.2506 -0.1984
  841MOL0     C15943   2.505   4.384   5.783  0.0027  0.9982  0.7023
  841MOL0     O15944   2.559   4.488   5.871  0.3594 -0.3958 -0.3622
  841MOL0     C15945   2.609   4.442   5.992 -0.8133  0.0879 -0.0997
  841MOL0     C15946   2.719   4.519   6.030  0.1666 -0.0877  0.3426
  841MOL0     C15947   2.787   4.503   6.148 -0.1225  0.8840 -0.1883
  841MOL0     C15948   2.911   4.587   6.155 -0.0861  0.3689 -0.2779
  841MOL0     C15949   2.731   4.422   6.249  0.4511  0.5898  0.3661
  841MOL0     C15950   2.782   4.412   6.384 -0.2611 -0.1161  0.5880
  841MOL0     O15951   2.698   4.365   6.479 -0.4192  1.1308  0.8479
  841MOL0     C15952   2.750   4.314   6.596  0.2524 -0.1349  0.9362
  841MOL0     C15953   2.888   4.275   6.605 -0.7069 -0.6324  0.7865
  841MOL0     C15954   2.927   4.224   6.728  0.4754  0.9121  0.2369
  841MOL0     C15955   2.856   4.255   6.844  0.0098 -0.4409  0.5640
  841MOL0     O15956   2.896   4.234   6.977  0.0709  0.4164  0.6571
  841MOL0     C15957   2.965   4.113   6.994  0.8664  0.3508 -0.9177
  841MOL0     C15958   2.967   4.086   7.145  0.3935 -0.1358 -0.0309
  841MOL0     C15959   3.031   3.948   7.177  0.3621  0.0466  0.8541
  841MOL0     C15960   3.058   3.912   7.324 -0.2205 -0.5521 -0.5237
  841MOL0     C15961   3.089   3.761   7.346 -0.4688 -0.2503 -0.3090
  841MOL0     C15962   2.978   3.658   7.321 -0.0052 -0.7207 -0.4169
  841MOL0     C15963   3.053   3.523   7.317  0.1136 -0.5202  1.3599
  841MOL0     C15964   2.975   3.396   7.348 -0.8761  0.4711 -0.5237
  841MOL0    Cl15965   2.794   3.411   7.307 -0.4923  0.4949  0.2676
  841MOL0     C15966   2.726   4.310   6.829 -0.3450  0.4967 -0.4891
  841MOL0     C15967   2.673   4.331   6.708 -0.0561 -0.4231 -0.0946
  841MOL0     O15968   2.889   4.470   6.407 -0.5254  0.6477 -0.0187
  841MOL0     C15969   2.616   4.346   6.214  0.1808 -0.5559 -0.3719
  841MOL0     C15970   2.555   4.356   6.085 -0.1106 -0.2170  0.2839
  841MOL0     N15971   2.205   4.246   5.346 -0.3895  0.6001  0.8794
  841MOL0     N15972   2.167   4.141   5.298 -0.0628  0.2933  0.1513
  841MOL0     C15973   1.031   4.200   5.511  0.6035  0.4816  0.2181
  841MOL0     C15974   0.947   4.137   5.596 -0.1890  0.5191 -0.1271
  841MOL0     C15975   0.714   3.956   5.888  0.8982 -0.4696  1.0648
  841MOL0     C15976   0.599   3.949   5.806  0.5535  0.2706  0.3931
  841MOL0     C15977   0.487   3.883   5.841  0.2196  1.3645 -0.4248
  841MOL0     C15978   0.482   3.812   5.965 -0.1415 -0.1326 -0.3847
  841MOL0     O15979   0.385   3.723   6.022 -0.5852 -0.4546 -0.6282
  841MOL0     C15980   0.263   3.685   5.952 -0.3107 -0.2139 -0.3977
  841MOL0     C15981   0.147   3.757   6.015  0.7026  0.1645 -0.0001
  841MOL0     C15982   0.116   3.722   6.161 -0.1303 -0.0596  0.7228
  841MOL0     C15983  -0.027   3.775   6.205 -0.4693 -0.0757  0.5600
  841MOL0     C15984  -0.060   3.750   6.346  0.7587 -0.2446 -0.4342
  841MOL0     C15985  -0.062   3.724   6.467 -0.6894  1.0965  0.2930
  841MOL0     C15986   0.588   3.823   6.045 -0.5908  0.1358 -0.4393
  841MOL0     C15987   0.708   3.888   6.007 -0.4991 -0.3760  0.3791
  841MOL0     C15988   0.821   3.881   6.113  0.1536  0.2111 -0.2494
  841MOL0     H15989   0.752   4.401   5.691  0.8223 -0.1203  1.7719
  841MOL0     H15990   0.910   4.522   5.547 -3.9171  0.2258 -0.1071
  841MOL0     H15991   1.177   4.366   5.193  1.7733 -2.5460 -1.1604
  841MOL0     H15992   1.166   4.219   5.284  0.5115  0.2771  0.8039
  841MOL0     H15993   1.340   4.451   5.377 -0.4771 -1.1845  2.2595
  841MOL0     H15994   1.338   4.275   5.430  5.8790 -1.0306 -0.9289
  841MOL0     H15995   1.386   4.201   5.205  0.6432 -0.1072  0.1622
  841MOL0     H15996   1.417   4.363   5.146  0.2851 -0.4851  0.0768
  841MOL0     H15997   1.620   4.393   5.262  0.9805 -0.5470 -2.9687
  841MOL0     H15998   1.583   4.270   5.382  0.2130  1.6195 -0.5655
  841MOL0     H15999   1.646   4.240   5.092  2.6640 -3.3001 -1.0837
  841MOL0     H16000   1.588   4.105   5.188  0.3036 -0.8838 -0.7088
  841MOL0     H16001   1.858   4.181   5.137  2.7704  2.8146  1.1949
  841MOL0     H16002   1.822   4.276   5.283  0.2967 -1.7071  2.9333
  841MOL0     H16003   1.732   3.977   5.297  0.3426 -1.4880  1.3462
  841MOL0     H16004   1.784   4.085   5.422 -0.2209  2.6373 -0.1981
  841MOL0     H16005   1.979   3.911   5.355  1.8208  0.4894  0.0459
  841MOL0     H16006   1.964   3.993   5.202  1.7593 -1.0146  0.2520
  841MOL0     H16007   1.967   4.174   5.559 -1.7378  0.0473 -1.7154
  841MOL0     H16008   2.086   4.371   5.652 -1.1982  1.4631 -1.5590
  841MOL0     H16009   2.185   4.470   5.541  2.5540 -1.6368  0.3576
  841MOL0     H16010   2.272   4.224   5.708 -0.0698  0.0597  1.6294
  841MOL0     H16011   2.369   4.277   5.584  1.6316 -1.1217  3.4254
  841MOL0     H16012   2.371   4.510   5.671  1.4848 -0.4975 -1.0320
  841MOL0     H16013   2.305   4.457   5.827 -2.4484 -4.1753 -0.2653
  841MOL0     H16014   2.483   4.295   5.841 -0.5519 -0.5589 -1.7383
  841MOL0     H16015   2.566   4.354   5.697  0.2158 -1.2968  1.6039
  841MOL0     H16016   2.748   4.595   5.958 -0.4159 -0.5070 -0.3439
  841MOL0     H16017   2.943   4.631   6.061  1.1298 -0.4804 -0.2859
  841MOL0     H16018   2.993   4.530   6.199 -1.6398 -0.1351  2.1731
  841MOL0     H16019   2.893   4.659   6.235 -1.4369 -0.6429  0.3894
  841MOL0     H16020   2.953   4.264   6.519 -1.8171  0.4313 -0.2243
  841MOL0     H16021   3.027   4.181   6.734  0.4844  1.1078  1.9398
  841MOL0     H16022   2.913   4.034   6.939  1.0979 -2.0566  2.0449
  841MOL0     H16023   3.068   4.113   6.957  0.6503  2.2653 -1.6599
  841MOL0     H16024   3.042   4.156   7.183  0.2495 -0.1489  0.2811
  841MOL0     H16025   2.871   4.102   7.194 -0.9131 -5.5273 -0.1479
  841MOL0     H16026   3.125   3.932   7.123 -0.8098 -0.1081 -1.2458
  841MOL0     H16027   2.960   3.876   7.134  0.4938  1.1098 -1.2657
  841MOL0     H16028   2.983   3.955   7.391 -1.3389 -1.5534 -1.0825
  841MOL0     H16029   3.149   3.963   7.358 -0.7789 -0.9584  1.7433
  841MOL0     H16030   3.172   3.729   7.282 -0.2487  0.7842 -0.5555
  841MOL0     H16031   3.126   3.742   7.447  3.0032  0.9095 -1.2194
  841MOL0     H16032   2.923   3.688   7.232 -0.2485  2.5720  0.7236
  841MOL0     H16033   2.910   3.675   7.405  1.7301  1.1666  0.6965
  841MOL0     H16034   3.128   3.537   7.395  0.8704 -0.3375  0.6139
  841MOL0     H16035   3.106   3.514   7.222 -0.1062 -0.0967  1.1964
  841MOL0     H16036   2.978   3.370   7.454  0.2882 -1.6670 -1.0211
  841MOL0     H16037   3.014   3.301   7.310 -0.9508 -0.1921  1.0040
  841MOL0     H16038   2.665   4.315   6.918  2.1622  3.2319  1.2769
  841MOL0     H16039   2.572   4.367   6.695 -0.3514 -0.4345  1.8484
  841MOL0     H16040   2.573   4.275   6.284  2.8862  0.7770  2.9637
  841MOL0     H16041   2.478   4.289   6.047 -1.2777  0.7511  0.9106
  841MOL0     H16042   1.108   4.145   5.457 -0.0481 -2.0776  1.7012
  841MOL0     H16043   0.961   4.036   5.633  2.4981 -0.4104 -3.1708
  841MOL0     H16044   0.599   3.980   5.702  1.1726 -2.8171 -0.6305
  841MOL0     H16045   0.405   3.882   5.770 -1.5646  1.3417  1.5507
  841MOL0     H16046   0.259   3.708   5.846 -3.6919 -4.5057 -1.4844
  841MOL0     H16047   0.259   3.577   5.972  2.4343 -0.3754 -0.2215
  841MOL0     H16048   0.059   3.729   5.956  0.8962  0.7628 -0.5818
  841MOL0     H16049   0.164   3.863   5.995  0.7010  0.0125 -0.8479
  841MOL0     H16050   0.123   3.614   6.172  2.9934 -0.0329 -0.2182
  841MOL0     H16051   0.195   3.767   6.221  0.2364 -0.4261  0.5150
  841MOL0     H16052  -0.106   3.723   6.149 -0.2297  0.2605 -0.0970
  841MOL0     H16053  -0.041   3.881   6.182 -2.1563 -0.0579  1.4540
  841MOL0     H16054  -0.059   3.712   6.573  2.4505  2.8744  0.5490
  841MOL0     H16055   0.595   3.756   6.130  2.8676 -1.1918 -1.6090
  841MOL0     H16056   0.892   3.799   6.099 -0.1408  0.0213 -0.6525
  841MOL0     H16057   0.872   3.977   6.102 -0.0795  0.3526 -0.1026
  841MOL0     H16058   0.773   3.874   6.211 -0.9201  1.2403 -0.6766
  842MOL0     O16059   6.526   8.332   2.533  0.5873 -0.5243 -0.6996
  842MOL0     C16060   6.474   8.261   2.447  0.4512  0.1501 -0.6127
  842MOL0     O16061   6.355   8.288   2.377 -0.7554  0.6292  0.2209
  842MOL0     C16062   6.314   8.413   2.388 -0.3976 -0.1094  0.6124
  842MOL0     C16063   6.369   8.509   2.300 -0.8600  0.7898  0.4354
  842MOL0     C16064   6.327   8.642   2.304  0.8447  0.4656  0.1923
  842MOL0     C16065   6.227   8.679   2.395  0.4977 -0.3760 -0.5823
  842MOL0     O16066   6.176   8.808   2.420  0.3770  0.0143  0.1311
  842MOL0     C16067   6.249   8.922   2.362  1.0135 -0.8170  0.8740
  842MOL0     C16068   6.188   8.945   2.226  0.1585 -0.2824  0.4477
  842MOL0     C16069   6.043   8.987   2.237 -0.0418 -0.8717 -0.5831
  842MOL0     C16070   5.967   8.964   2.111  0.2311  0.2401  1.2007
  842MOL0     C16071   5.881   8.833   2.105 -0.8709  1.0388  0.0206
  842MOL0     C16072   5.949   8.697   2.094  0.7363 -0.2361  0.6410
  842MOL0     C16073   5.858   8.578   2.122 -0.8222  0.2607  0.8983
  842MOL0     C16074   5.907   8.443   2.058  0.4602 -0.4462 -0.3133
  842MOL0     N16075   5.802   8.344   2.087 -0.2064  0.1507  0.0737
  842MOL0     C16076   5.730   8.351   2.202  0.0249 -0.3680 -1.1622
  842MOL0     C16077   5.648   8.238   2.200 -1.0335 -0.6228 -0.0274
  842MOL0     C16078   5.553   8.207   2.313 -0.7263  1.0339  0.0407
  842MOL0     C16079   5.581   8.066   2.382 -0.1405 -0.3655 -1.1986
  842MOL0     C16080   5.485   8.038   2.495 -0.0614 -0.6695  0.7325
  842MOL0     C16081   5.521   8.110   2.625  0.6431 -0.3609  0.3795
  842MOL0     O16082   5.650   8.062   2.672  0.2852  0.4233  0.0519
  842MOL0     C16083   5.653   7.969   2.775  0.0805 -0.3438 -0.3350
  842MOL0     C16084   5.776   7.943   2.834 -0.6200  0.9148  1.2113
  842MOL0     C16085   5.803   7.852   2.932  1.4147  0.3756  0.6506
  842MOL0     C16086   5.936   7.849   2.998 -1.0307 -0.1541 -0.5145
  842MOL0     C16087   5.696   7.761   2.969  1.0196 -0.1223 -0.1778
  842MOL0     C16088   5.692   7.668   3.077  0.0388 -0.3355 -0.4111
  842MOL0     O16089   5.616   7.554   3.058  0.6337  0.3896 -0.3320
  842MOL0     C16090   5.601   7.455   3.149 -0.1096  0.5170  0.2021
  842MOL0     C16091   5.529   7.464   3.266 -0.4359  0.4947  0.5899
  842MOL0     C16092   5.543   7.367   3.364 -0.1653  0.4646 -0.5815
  842MOL0     C16093   5.615   7.245   3.346 -0.1674  0.5868 -0.0810
  842MOL0     O16094   5.621   7.136   3.433 -0.1536 -0.6006  0.5597
  842MOL0     C16095   5.583   7.171   3.566 -0.0835 -0.0131  0.6258
  842MOL0     C16096   5.600   7.034   3.628  0.0546  0.3439 -0.0962
  842MOL0     C16097   5.591   7.029   3.780 -0.2098 -0.0581  0.1509
  842MOL0     C16098   5.699   7.128   3.848  1.1883 -0.0991 -0.7240
  842MOL0     C16099   5.737   7.071   3.982  0.2048  0.4970 -0.1196
  842MOL0     C16100   5.630   7.072   4.085  0.3968 -0.2159 -0.0577
  842MOL0     C16101   5.612   7.219   4.143 -0.4573 -0.0878 -0.2411
  842MOL0     C16102   5.499   7.226   4.243 -0.0877 -0.5990  0.6277
  842MOL0    Cl16103   5.488   7.394   4.286  0.3024  0.0528  0.0483
  842MOL0     C16104   5.666   7.235   3.219 -0.1532 -0.7251  0.1232
  842MOL0     C16105   5.665   7.340   3.122  0.0111  0.1405  0.0468
  842MOL0     O16106   5.745   7.697   3.187  0.3686 -0.4530 -0.0906
  842MOL0     C16107   5.567   7.774   2.903 -0.2377 -0.4351 -0.0924
  842MOL0     C16108   5.547   7.880   2.813  0.5110  0.1111 -0.6957
  842MOL0     N16109   5.663   8.186   2.075  0.0614  0.0663  0.0402
  842MOL0     N16110   5.751   8.245   2.004  0.1824  0.3456 -0.1739
  842MOL0     C16111   6.166   8.585   2.481  0.2942  0.1863 -0.1174
  842MOL0     C16112   6.208   8.450   2.472  0.3773  0.0004 -0.2404
  842MOL0     C16113   6.556   8.144   2.406  0.8809 -0.0794  1.8181
  842MOL0     C16114   6.683   8.162   2.338 -0.1029  0.0562  0.1245
  842MOL0     C16115   6.747   8.047   2.291 -0.4047  0.8228 -0.3604
  842MOL0     C16116   6.693   7.918   2.321  0.4472  0.6356  1.5305
  842MOL0     O16117   6.751   7.802   2.281  0.4386  0.2098 -0.6617
  842MOL0     C16118   6.889   7.791   2.273 -0.8760 -0.3707 -0.3233
  842MOL0     C16119   6.925   7.660   2.202  0.0519 -0.3276  0.0765
  842MOL0     C16120   7.067   7.624   2.213 -0.3084  1.1411 -0.2389
  842MOL0     C16121   7.170   7.731   2.189 -0.6508  0.7311 -0.1022
  842MOL0     C16122   7.303   7.668   2.147  0.8545 -0.8072  0.5514
  842MOL0     C16123   7.404   7.597   2.123 -0.2810 -0.1255  0.6969
  842MOL0     C16124   6.574   7.911   2.384  0.6368  1.2194  0.3386
  842MOL0     C16125   6.507   8.019   2.428 -0.7632  0.4485 -0.3798
  842MOL0     C16126   6.367   8.001   2.482  0.0510  0.1835  0.1481
  842MOL0     H16127   6.453   8.484   2.236 -2.8423  0.2081 -2.0499
  842MOL0     H16128   6.363   8.714   2.231  0.3025 -1.8910 -2.5900
  842MOL0     H16129   6.355   8.899   2.354  1.2700  0.7157 -0.8186
  842MOL0     H16130   6.229   9.014   2.418 -1.1732 -0.1697 -0.7993
  842MOL0     H16131   6.243   9.023   2.172 -1.2526 -1.1031 -2.3835
  842MOL0     H16132   6.199   8.851   2.172 -0.0906  0.7612 -1.5132
  842MOL0     H16133   5.999   8.938   2.323  2.5928 -1.2053  0.6699
  842MOL0     H16134   6.053   9.095   2.251  0.5981 -1.1826  1.7677
  842MOL0     H16135   5.893   9.044   2.102 -0.4975 -0.2860  2.3186
  842MOL0     H16136   6.033   8.976   2.024 -0.0802  1.5666  1.1182
  842MOL0     H16137   5.821   8.842   2.015  0.2353 -0.8130 -0.9743
  842MOL0     H16138   5.822   8.832   2.197  0.5716  0.7525  0.9775
  842MOL0     H16139   6.008   8.679   2.004  0.3417 -0.3045  0.3938
  842MOL0     H16140   6.032   8.688   2.165  1.4078 -0.0828 -0.1081
  842MOL0     H16141   5.757   8.607   2.091  0.3497  2.1147 -1.5494
  842MOL0     H16142   5.870   8.561   2.229  0.6471  0.5365  0.7868
  842MOL0     H16143   5.917   8.463   1.951  1.3503  2.4541  0.2167
  842MOL0     H16144   6.010   8.423   2.088  0.9421  0.8496 -1.0515
  842MOL0     H16145   5.745   8.421   2.283  1.1869 -1.5177 -0.3398
  842MOL0     H16146   5.458   8.205   2.258  0.5901  2.7795 -2.5114
  842MOL0     H16147   5.552   8.293   2.381  0.4136  1.0991  0.0022
  842MOL0     H16148   5.592   7.988   2.306 -2.0412  0.0153 -1.9421
  842MOL0     H16149   5.681   8.073   2.424 -1.4927 -2.3257  2.8774
  842MOL0     H16150   5.384   8.062   2.459  0.8805  0.7178 -1.2075
  842MOL0     H16151   5.491   7.932   2.519 -0.7065 -1.3662 -1.8191
  842MOL0     H16152   5.523   8.217   2.601 -0.7580 -0.2281  0.7837
  842MOL0     H16153   5.446   8.111   2.704 -1.6935 -0.1815 -1.7197
  842MOL0     H16154   5.852   8.015   2.806 -0.4879  0.0841 -0.6974
  842MOL0     H16155   5.969   7.750   3.031  1.3393 -0.1972 -2.6799
  842MOL0     H16156   5.912   7.899   3.093 -0.2730 -1.1802  0.2453
  842MOL0     H16157   6.014   7.904   2.944 -1.3383  2.2364  1.2913
  842MOL0     H16158   5.463   7.546   3.291 -1.2028 -0.4866  1.9985
  842MOL0     H16159   5.476   7.380   3.448 -2.8714  2.2312 -2.8352
  842MOL0     H16160   5.651   7.244   3.610  0.6050 -0.6121  0.5882
  842MOL0     H16161   5.477   7.198   3.564 -0.8580 -2.1606 -5.2668
  842MOL0     H16162   5.525   6.963   3.594 -0.6546 -2.5129  6.0907
  842MOL0     H16163   5.694   6.989   3.594 -0.2873 -0.8739  0.5006
  842MOL0     H16164   5.587   6.933   3.831 -1.0135 -0.4331 -0.5836
  842MOL0     H16165   5.493   7.078   3.789  0.2977  1.4925 -2.0072
  842MOL0     H16166   5.668   7.231   3.870 -1.6973 -1.5039  2.9316
  842MOL0     H16167   5.784   7.125   3.780  0.6110  2.1284 -1.6126
  842MOL0     H16168   5.764   6.965   3.981 -0.9150  0.1686  0.9023
  842MOL0     H16169   5.817   7.134   4.021 -0.4448  0.7528  0.8275
  842MOL0     H16170   5.668   7.002   4.161 -0.4951 -0.6904 -0.0410
  842MOL0     H16171   5.529   7.037   4.065  0.3394 -1.7532  2.4194
  842MOL0     H16172   5.582   7.287   4.063 -1.3435  2.2808  1.9815
  842MOL0     H16173   5.706   7.260   4.182  1.2835 -1.6087 -2.5225
  842MOL0     H16174   5.533   7.164   4.327  4.2196  1.4896  0.7429
  842MOL0     H16175   5.401   7.191   4.210 -0.5827 -1.8106  3.1077
  842MOL0     H16176   5.700   7.137   3.188  1.0262 -0.4057  0.3728
  842MOL0     H16177   5.708   7.328   3.022 -0.2859  0.3928 -0.1138
  842MOL0     H16178   5.483   7.707   2.922 -0.5822 -0.0593 -0.2552
  842MOL0     H16179   5.450   7.882   2.764  1.7958 -0.0867 -3.4080
  842MOL0     H16180   6.087   8.608   2.553 -1.1341  2.9552 -2.3469
  842MOL0     H16181   6.173   8.363   2.527  1.1962 -0.4226 -0.3809
  842MOL0     H16182   6.729   8.257   2.312 -1.5379  0.6868 -0.1476
  842MOL0     H16183   6.836   8.075   2.235 -1.2034  5.0239  0.1287
  842MOL0     H16184   6.926   7.877   2.215  0.2494 -0.0590  0.8002
  842MOL0     H16185   6.933   7.809   2.372  2.3060  0.4834 -1.7352
  842MOL0     H16186   6.874   7.677   2.107 -2.2385  2.3407  1.6463
  842MOL0     H16187   6.855   7.582   2.234  0.6728 -1.7681 -1.8633
  842MOL0     H16188   7.087   7.594   2.316  1.2033  1.6779 -0.3433
  842MOL0     H16189   7.086   7.539   2.146 -0.6169  2.3949 -1.9812
  842MOL0     H16190   7.178   7.800   2.273 -1.1772  2.9638 -1.7786
  842MOL0     H16191   7.140   7.805   2.114  3.1660  2.1555 -0.4198
  842MOL0     H16192   7.495   7.545   2.101 -0.1410  1.0406 -1.8626
  842MOL0     H16193   6.516   7.823   2.410 -1.8027  2.2551 -1.2168
  842MOL0     H16194   6.371   8.047   2.581  1.9094 -1.2038  0.7772
  842MOL0     H16195   6.299   8.046   2.409  1.2583  2.5218  0.3594
  842MOL0     H16196   6.346   7.895   2.498 -1.5030  0.8356  3.1269
  843MOL0     O16197   8.465   0.843  10.214 -0.5531  0.2868  0.4042
  843MOL0     C16198   8.400   0.751  10.244 -0.6782 -0.0497 -0.5469
  843MOL0     O16199   8.341   0.730  10.363  0.4745 -0.1072 -0.0392
  843MOL0     C16200   8.355   0.822  10.464 -0.6702  0.2545 -0.6056
  843MOL0     C16201   8.466   0.910  10.485 -0.1822  0.1920  0.0471
  843MOL0     C16202   8.455   1.007  10.589 -0.2364 -0.1164  0.0079
  843MOL0     C16203   8.337   1.021  10.674 -0.8243  0.5499  0.6162
  843MOL0     O16204   8.344   1.110  10.777 -0.3429  0.0571 -0.3194
  843MOL0     C16205   8.227   1.137  10.847  0.9069 -0.3900  0.4275
  843MOL0     C16206   8.135   1.212  10.756  1.2553 -0.9999 -0.4008
  843MOL0     C16207   8.010   1.258  10.833  0.0651 -0.6074  0.0795
  843MOL0     C16208   7.903   1.330  10.744 -0.4339  0.4665 -0.2556
  843MOL0     C16209   7.775   1.345  10.836  0.1197 -0.2785  0.8821
  843MOL0     C16210   7.681   1.219  10.868  0.7695  1.3087  0.2356
  843MOL0     C16211   7.566   1.265  10.955 -0.0693 -0.5771  0.7885
  843MOL0     C16212   7.473   1.153  10.995 -0.0650 -0.8480 -0.5690
  843MOL0     N16213   7.368   1.106  10.898 -1.2505 -0.2772 -0.0152
  843MOL0     C16214   7.343   0.975  10.865 -0.3717  0.1832 -0.0203
  843MOL0     C16215   7.245   0.977  10.776 -0.1978 -0.2014 -0.3998
  843MOL0     C16216   7.181   0.848  10.717 -0.1789 -0.0489 -0.4972
  843MOL0     C16217   7.096   0.762  10.826 -0.1651  0.6929  0.0395
  843MOL0     C16218   7.039   0.634  10.767  0.7791 -0.5498  0.7068
  843MOL0     C16219   7.119   0.505  10.790 -0.8581  0.5950 -0.1284
  843MOL0     O16220   7.132   0.469  10.935 -0.7507 -0.2944 -0.9623
  843MOL0     C16221   7.197   0.354  10.983 -0.0686  1.1550  1.4184
  843MOL0     C16222   7.204   0.328  11.122  0.2309 -0.2644  0.9241
  843MOL0     C16223   7.266   0.206  11.167  0.1732  0.3240 -0.6698
  843MOL0     C16224   7.266   0.193  11.315 -0.6810  0.5408 -0.2629
  843MOL0     C16225   7.310   0.109  11.073  0.7359 -0.3802  0.2651
  843MOL0     C16226   7.358  -0.021  11.117 -0.1098  0.2249 -0.4316
  843MOL0     O16227   7.309  -0.077  11.245  0.1811  0.6585  0.4629
  843MOL0     C16228   7.359  -0.203  11.286  0.2283 -0.1632  0.2925
  843MOL0     C16229   7.458  -0.190  11.381 -0.3487  0.0303 -0.8850
  843MOL0     C16230   7.506  -0.306  11.450  0.1832 -1.0763  0.2356
  843MOL0     C16231   7.449  -0.431  11.417 -1.1033 -0.9980  0.8725
  843MOL0     O16232   7.485  -0.537  11.493  0.1652  0.6910 -0.0554
  843MOL0     C16233   7.615  -0.575  11.506  0.0282 -0.6157 -0.1455
  843MOL0     C16234   7.682  -0.632  11.377  0.3291  0.5421 -0.1235
  843MOL0     C16235   7.791  -0.733  11.407 -0.0725  0.7978  0.5100
  843MOL0     C16236   7.856  -0.802  11.286 -0.9997  0.0992  0.9548
  843MOL0     C16237   7.844  -0.731  11.152 -0.1824  0.9314  0.3316
  843MOL0     C16238   7.901  -0.823  11.047  0.3852 -0.5954 -0.0157
  843MOL0     C16239   7.911  -0.757  10.899  0.0788  0.2428  0.1591
  843MOL0     C16240   8.026  -0.662  10.885 -0.6582 -0.5507 -1.0384
  843MOL0    Cl16241   8.183  -0.747  10.884 -0.1754  0.2309  0.3338
  843MOL0     C16242   7.366  -0.440  11.317 -0.8257  0.4244  0.4059
  843MOL0     C16243   7.312  -0.328  11.251  0.4802 -0.4221 -0.1956
  843MOL0     O16244   7.442  -0.080  11.040  0.3441 -0.2051 -0.8605
  843MOL0     C16245   7.313   0.149  10.935 -1.1888  0.4335  0.1409
  843MOL0     C16246   7.260   0.268  10.891  1.5592 -0.1713 -0.7531
  843MOL0     N16247   7.219   1.112  10.753  0.0335  0.3485 -0.0089
  843MOL0     N16248   7.298   1.184  10.818  0.1828  0.1267 -0.5101
  843MOL0     C16249   8.226   0.941  10.637 -0.0309 -0.6535  0.3516
  843MOL0     C16250   8.235   0.847  10.533 -0.5206 -0.1927 -0.6433
  843MOL0     C16251   8.392   0.637  10.152 -0.6669 -0.4318 -0.3853
  843MOL0     C16252   8.316   0.522  10.180 -0.6559 -0.3773 -0.0281
  843MOL0     C16253   8.285   0.409  10.098  0.5538  0.4332 -0.4197
  843MOL0     C16254   8.337   0.406   9.967  0.5953 -0.0338 -0.8116
  843MOL0     O16255   8.306   0.294   9.893  0.6434  0.2517 -0.2522
  843MOL0     C16256   8.352   0.290   9.755 -0.0472 -0.0981 -0.7370
  843MOL0     C16257   8.308   0.165   9.690 -0.4489 -0.6406  0.0432
  843MOL0     C16258   8.301   0.166   9.536  0.7853  0.0391  1.0427
  843MOL0     C16259   8.260   0.295   9.453 -0.7154 -1.0002 -0.6163
  843MOL0     C16260   8.379   0.373   9.443 -1.1141  0.7036 -0.3634
  843MOL0     C16261   8.489   0.425   9.430  0.2993  1.2870 -1.0949
  843MOL0     C16262   8.426   0.515   9.934 -0.0191 -0.3655 -0.2689
  843MOL0     C16263   8.450   0.626  10.023 -0.6582 -0.7855  0.8873
  843MOL0     C16264   8.530   0.737   9.947 -1.2211  0.1122 -0.0903
  843MOL0     H16265   8.557   0.908  10.425  0.2717 -0.7588  0.7342
  843MOL0     H16266   8.537   1.074  10.613 -0.5556  0.6421 -0.9479
  843MOL0     H16267   8.251   1.207  10.927 -0.4965  0.6905 -0.0741
  843MOL0     H16268   8.181   1.046  10.888  0.0467 -1.1675 -2.0841
  843MOL0     H16269   8.192   1.298  10.720 -1.9920  0.2272 -3.1595
  843MOL0     H16270   8.103   1.148  10.674 -2.1612  1.0322 -0.8515
  843MOL0     H16271   7.963   1.184  10.899 -1.1100  0.5705  0.5964
  843MOL0     H16272   8.043   1.335  10.903  4.7516 -1.1075 -1.2320
  843MOL0     H16273   7.943   1.426  10.709  2.3151 -0.1426  0.9437
  843MOL0     H16274   7.879   1.273  10.654  2.7317 -0.4809 -0.6425
  843MOL0     H16275   7.715   1.419  10.782  2.5434 -0.1060 -1.8683
  843MOL0     H16276   7.802   1.392  10.931  0.1524  2.1862 -0.2701
  843MOL0     H16277   7.631   1.196  10.774  1.6520 -0.7154  0.2304
  843MOL0     H16278   7.729   1.131  10.910 -0.5439 -1.1532 -3.0173
  843MOL0     H16279   7.510   1.334  10.891  1.8461  2.0142  1.7151
  843MOL0     H16280   7.610   1.320  11.039  2.0541 -0.3924 -0.3786
  843MOL0     H16281   7.538   1.075  11.036  3.0057  1.7498 -0.0178
  843MOL0     H16282   7.415   1.195  11.078 -2.1881 -2.9995 -0.8719
  843MOL0     H16283   7.384   0.886  10.911  1.7783  1.6860  1.1257
  843MOL0     H16284   7.260   0.778  10.690 -0.0607 -0.1646  0.1211
  843MOL0     H16285   7.122   0.868  10.627 -1.6135 -0.0328  0.4049
  843MOL0     H16286   7.157   0.746  10.916 -2.3811  0.2642  1.5393
  843MOL0     H16287   7.010   0.821  10.858  0.2051  0.7370  0.9888
  843MOL0     H16288   6.941   0.608  10.807 -0.3881  1.1024 -0.9380
  843MOL0     H16289   7.035   0.636  10.658  3.3321  1.7425  0.5212
  843MOL0     H16290   7.062   0.429  10.736 -3.3923  0.8578  1.9476
  843MOL0     H16291   7.222   0.512  10.755 -0.1062  0.6955  2.0096
  843MOL0     H16292   7.164   0.395  11.197  1.5611 -0.5557  1.9321
  843MOL0     H16293   7.369   0.171  11.343 -1.0490  1.5852  2.2783
  843MOL0     H16294   7.209   0.108  11.353  1.0249 -0.7642 -0.5274
  843MOL0     H16295   7.238   0.289  11.362  1.6056  2.2530 -2.1599
  843MOL0     H16296   7.510  -0.096  11.393  2.8374 -1.0492 -4.2408
  843MOL0     H16297   7.575  -0.289  11.532  0.3470  3.5808 -0.5958
  843MOL0     H16298   7.678  -0.491  11.537  2.9072 -2.3380 -0.9627
  843MOL0     H16299   7.622  -0.644  11.590 -0.4823 -1.5771 -0.8684
  843MOL0     H16300   7.613  -0.679  11.306  0.4459  0.1880 -0.0032
  843MOL0     H16301   7.718  -0.539  11.331 -0.3731  2.0821  2.2570
  843MOL0     H16302   7.736  -0.815  11.456 -4.1347  2.3911 -0.9175
  843MOL0     H16303   7.861  -0.697  11.483  0.5026 -1.5163  1.1463
  843MOL0     H16304   7.801  -0.896  11.281 -1.6169  0.2376  3.7049
  843MOL0     H16305   7.962  -0.823  11.305 -0.7448  0.9069  0.4810
  843MOL0     H16306   7.743  -0.709  11.118  0.2667 -1.6905 -3.3180
  843MOL0     H16307   7.899  -0.636  11.150  1.4037  0.0469  0.1654
  843MOL0     H16308   7.827  -0.904  11.040 -0.4708  0.0207  1.4212
  843MOL0     H16309   7.994  -0.870  11.081 -0.2014 -2.0599 -0.3469
  843MOL0     H16310   7.820  -0.699  10.885  0.3342  0.3316 -1.2394
  843MOL0     H16311   7.914  -0.835  10.824 -0.7805  2.0507 -1.8518
  843MOL0     H16312   8.018  -0.593  10.969 -3.4459 -0.3730 -1.3593
  843MOL0     H16313   8.006  -0.604  10.795 -0.8793 -1.2508 -1.4463
  843MOL0     H16314   7.323  -0.538  11.296 -1.2666  0.6116  0.4182
  843MOL0     H16315   7.238  -0.343  11.173  1.7791 -0.3223 -1.5098
  843MOL0     H16316   7.354   0.086  10.855 -2.3673 -1.3216  0.8631
  843MOL0     H16317   7.260   0.297  10.786  0.5291  1.4929 -0.3279
  843MOL0     H16318   8.131   0.949  10.689  0.2301 -0.8172  0.8648
  843MOL0     H16319   8.145   0.794  10.503  0.5429 -1.4780 -1.7358
  843MOL0     H16320   8.267   0.536  10.276  0.7793  0.2840  0.6524
  843MOL0     H16321   8.221   0.327  10.130  1.5942 -0.1858  0.1371
  843MOL0     H16322   8.318   0.381   9.704 -3.7210 -1.4611 -1.0279
  843MOL0     H16323   8.461   0.281   9.759  0.1517  1.4710 -1.7214
  843MOL0     H16324   8.208   0.133   9.723 -0.9199 -2.4062 -2.7291
  843MOL0     H16325   8.366   0.085   9.736 -4.2226 -2.2644  2.4967
  843MOL0     H16326   8.399   0.131   9.499  1.8385  2.7235  1.1016
  843MOL0     H16327   8.233   0.085   9.507  1.2389  0.2697 -0.8011
  843MOL0     H16328   8.176   0.350   9.496  1.0091 -0.5290  2.4144
  843MOL0     H16329   8.230   0.270   9.351  1.4238 -2.4321 -0.9512
  843MOL0     H16330   8.587   0.467   9.418  0.3271  2.5416  2.2698
  843MOL0     H16331   8.468   0.502   9.835  0.1300  1.0486 -0.4076
  843MOL0     H16332   8.582   0.691   9.863  1.2345  1.6790  0.4681
  843MOL0     H16333   8.459   0.814   9.917 -0.4293  1.9379  2.3987
  843MOL0     H16334   8.600   0.785  10.017 -0.4573  0.2590 -0.9395
  844MOL0     O16335   5.832   6.553   9.590  0.6929  1.0866 -0.2269
  844MOL0     C16336   5.764   6.636   9.539 -0.9420  1.1832  0.0263
  844MOL0     O16337   5.806   6.757   9.494  0.0442  0.1797 -0.6992
  844MOL0     C16338   5.912   6.824   9.555 -0.4110  0.0055  0.4169
  844MOL0     C16339   5.887   6.924   9.644  0.5517  1.0597  0.0773
  844MOL0     C16340   5.984   7.014   9.681 -0.1270  0.4742 -0.7709
  844MOL0     C16341   6.107   7.002   9.639 -0.2436 -0.2372 -0.1067
  844MOL0     O16342   6.218   7.077   9.685 -0.4087 -1.1888 -0.8826
  844MOL0     C16343   6.196   7.208   9.751  0.1810  0.2005  0.8798
  844MOL0     C16344   6.333   7.273   9.754 -1.3163  0.2666  0.9739
  844MOL0     C16345   6.410   7.242   9.887 -0.4439 -0.4486  0.8419
  844MOL0     C16346   6.456   7.097   9.908 -0.1841 -0.3176 -0.3673
  844MOL0     C16347   6.518   7.084  10.056  0.4346  0.1127 -0.0402
  844MOL0     C16348   6.411   7.132  10.171 -0.2950 -0.6008  0.8974
  844MOL0     C16349   6.283   7.048  10.147 -0.1207 -0.3507 -0.8850
  844MOL0     C16350   6.189   7.041  10.266 -0.3084 -0.8951  0.3514
  844MOL0     N16351   6.049   7.040  10.227 -0.3640 -0.2986  0.1983
  844MOL0     C16352   5.967   6.936  10.237  0.4506 -1.0037  0.1959
  844MOL0     C16353   5.847   6.983  10.220  0.5928 -0.6778 -0.0547
  844MOL0     C16354   5.723   6.906  10.258 -0.3260 -0.0011 -0.0527
  844MOL0     C16355   5.602   6.936  10.168 -0.3196  0.3340 -0.0998
  844MOL0     C16356   5.623   6.914  10.014  0.0682  0.3924 -0.2428
  844MOL0     C16357   5.496   6.960   9.941 -0.3294  0.6658 -0.0384
  844MOL0     O16358   5.523   6.969   9.799 -0.5144 -0.1776  0.0203
  844MOL0     C16359   5.421   6.942   9.714  0.0411  0.5331 -0.6427
  844MOL0     C16360   5.458   6.961   9.580 -0.2751  0.0177  0.6870
  844MOL0     C16361   5.359   6.941   9.478  0.2945  0.5511 -0.7204
  844MOL0     C16362   5.398   6.976   9.332 -0.4985 -0.4713  0.2747
  844MOL0     C16363   5.239   6.877   9.508 -0.8753 -0.0820  0.9405
  844MOL0     C16364   5.143   6.834   9.397  0.7003 -1.0382 -0.6504
  844MOL0     O16365   5.128   6.904   9.281 -0.1190 -0.0664  0.4103
  844MOL0     C16366   5.042   6.850   9.181 -0.4531  0.2307 -0.0598
  844MOL0     C16367   4.910   6.827   9.210 -0.0621  0.0014 -0.0803
  844MOL0     C16368   4.820   6.788   9.115  0.2539  0.0745 -0.9669
  844MOL0     C16369   4.866   6.746   8.991 -0.3059 -0.4392 -0.7701
  844MOL0     O16370   4.777   6.688   8.904  0.2706  0.3035 -0.2449
  844MOL0     C16371   4.711   6.783   8.822  0.0897  0.3635  0.3997
  844MOL0     C16372   4.635   6.704   8.709 -0.8120 -0.3289 -0.4345
  844MOL0     C16373   4.527   6.795   8.643 -0.1764 -0.0019  0.1331
  844MOL0     C16374   4.395   6.796   8.707  0.6671  0.4488 -0.7866
  844MOL0     C16375   4.288   6.900   8.657  0.8836  0.9356 -0.3396
  844MOL0     C16376   4.352   7.038   8.654 -0.8271 -0.3029 -0.1558
  844MOL0     C16377   4.263   7.170   8.665  0.0801  0.8474  0.1500
  844MOL0     C16378   4.155   7.160   8.775  0.4496  0.4609 -0.0568
  844MOL0    Cl16379   4.227   7.147   8.944  0.5354 -0.2476 -0.1244
  844MOL0     C16380   5.003   6.761   8.957  0.2247 -0.0771  0.2202
  844MOL0     C16381   5.088   6.819   9.054 -0.5812 -0.1474  0.5276
  844MOL0     O16382   5.069   6.743   9.433 -0.4759  0.5647  0.1870
  844MOL0     C16383   5.218   6.852   9.645 -0.7030 -0.0028  0.1801
  844MOL0     C16384   5.303   6.880   9.743 -0.0694 -0.5454 -0.0855
  844MOL0     N16385   5.858   7.116  10.193  0.5919  0.6613 -0.9071
  844MOL0     N16386   5.972   7.146  10.193 -0.3932 -0.4661  0.3606
  844MOL0     C16387   6.140   6.906   9.553 -0.5927  0.0007  0.0477
  844MOL0     C16388   6.045   6.820   9.509  0.9640  0.0369  0.8922
  844MOL0     C16389   5.625   6.605   9.509 -0.0717 -0.2524  0.1399
  844MOL0     C16390   5.590   6.616   9.376  0.3358  0.3083  0.7463
  844MOL0     C16391   5.474   6.547   9.337 -0.8119 -0.5689  0.1682
  844MOL0     C16392   5.376   6.511   9.420 -0.7104 -0.4404  0.3381
  844MOL0     O16393   5.255   6.497   9.372  0.2227 -0.5688 -0.1740
  844MOL0     C16394   5.248   6.422   9.251  0.5760 -0.6275  0.5331
  844MOL0     C16395   5.107   6.385   9.224  0.0543 -0.8883  0.1303
  844MOL0     C16396   5.091   6.315   9.090 -0.3611 -0.1002 -0.0893
  844MOL0     C16397   5.102   6.414   8.971  0.7331  0.3772  1.6556
  844MOL0     C16398   5.231   6.387   8.901 -0.2044  0.4680  0.5748
  844MOL0     C16399   5.346   6.371   8.854  0.3153  0.3253 -0.1316
  844MOL0     C16400   5.399   6.524   9.551 -0.1575  0.4686  0.3720
  844MOL0     C16401   5.531   6.564   9.597  0.1245  0.0438 -0.8245
  844MOL0     C16402   5.551   6.569   9.749 -0.2447 -0.1816 -0.1918
  844MOL0     H16403   5.786   6.943   9.680  0.2233  4.1302 -2.1854
  844MOL0     H16404   5.943   7.082   9.755  1.3913  0.2946  0.2648
  844MOL0     H16405   6.162   7.193   9.854 -1.6936  1.1803  0.4402
  844MOL0     H16406   6.119   7.251   9.686  1.0133 -0.9825 -0.9937
  844MOL0     H16407   6.382   7.248   9.659 -1.1097  2.7737  0.3267
  844MOL0     H16408   6.314   7.381   9.747 -2.5183  0.0095 -0.0546
  844MOL0     H16409   6.497   7.309   9.885 -2.1646  1.9227  1.1209
  844MOL0     H16410   6.357   7.278   9.976  2.3941  0.0285  2.4670
  844MOL0     H16411   6.374   7.030   9.881 -0.8344  0.6794 -0.9296
  844MOL0     H16412   6.533   7.090   9.831  2.3934  2.2507  1.7323
  844MOL0     H16413   6.608   7.146  10.061 -0.0189  1.1786 -3.1458
  844MOL0     H16414   6.555   6.985  10.084 -3.0145 -0.8870  1.6126
  844MOL0     H16415   6.447   7.103  10.270  3.4348 -0.8545 -0.3773
  844MOL0     H16416   6.397   7.240  10.162 -0.3085 -0.7495 -1.8380
  844MOL0     H16417   6.309   6.944  10.127 -0.1787 -0.7696  1.0754
  844MOL0     H16418   6.227   7.077  10.057 -0.4719 -0.9702 -0.8667
  844MOL0     H16419   6.222   6.966  10.338  1.7800  3.7330  4.9410
  844MOL0     H16420   6.215   7.136  10.314  0.0186 -0.4843 -0.5979
  844MOL0     H16421   5.997   6.833  10.256  2.6868 -0.7494 -1.5456
  844MOL0     H16422   5.688   6.927  10.360 -0.3511 -1.8760  0.3608
  844MOL0     H16423   5.749   6.800  10.247 -0.3305  0.1404 -1.5439
  844MOL0     H16424   5.523   6.868  10.201 -0.0688 -0.7816 -1.6869
  844MOL0     H16425   5.564   7.037  10.187 -0.8846  0.0629  0.2181
  844MOL0     H16426   5.709   6.971   9.979 -0.4262  0.6616 -1.0347
  844MOL0     H16427   5.659   6.811  10.015  2.4137  1.1116  2.5736
  844MOL0     H16428   5.422   6.886   9.973  0.7827  1.1211  4.1757
  844MOL0     H16429   5.465   7.059   9.975  2.2269  0.9568  1.6945
  844MOL0     H16430   5.556   6.990   9.543  0.2504 -1.0987  1.1499
  844MOL0     H16431   5.361   6.911   9.251 -2.3172  1.5916 -0.6434
  844MOL0     H16432   5.505   6.961   9.319  0.1537  1.9771  2.0967
  844MOL0     H16433   5.361   7.074   9.302 -1.2692 -0.3524  1.5652
  844MOL0     H16434   4.883   6.860   9.310  2.8638  0.8219  0.5528
  844MOL0     H16435   4.715   6.773   9.139  0.8698  0.5398  2.6708
  844MOL0     H16436   4.639   6.850   8.870 -2.1834 -2.6223  1.4667
  844MOL0     H16437   4.787   6.850   8.781  1.1089  0.6410  2.5826
  844MOL0     H16438   4.714   6.686   8.635 -0.7762 -3.0287  0.1696
  844MOL0     H16439   4.600   6.604   8.736 -0.3134 -0.0070  1.5737
  844MOL0     H16440   4.510   6.755   8.543 -0.6309 -1.1501  0.6469
  844MOL0     H16441   4.569   6.896   8.649  2.4718 -1.0724  3.8169
  844MOL0     H16442   4.401   6.832   8.810 -0.9663  1.8766 -1.1415
  844MOL0     H16443   4.340   6.702   8.696 -2.9206  2.3224 -0.5243
  844MOL0     H16444   4.269   6.869   8.554 -0.4592  2.2520 -0.5275
  844MOL0     H16445   4.206   6.889   8.728  0.4278  1.0458 -0.8471
  844MOL0     H16446   4.422   7.044   8.570  0.1240 -0.1843  0.6175
  844MOL0     H16447   4.418   7.057   8.739 -0.4082 -0.1489 -0.5072
  844MOL0     H16448   4.212   7.194   8.571  0.2782 -0.3397 -0.2767
  844MOL0     H16449   4.323   7.259   8.686  1.8154 -0.0520 -0.7052
  844MOL0     H16450   4.098   7.069   8.757 -0.5674  1.1227 -0.2579
  844MOL0     H16451   4.087   7.246   8.769 -1.5619 -1.0811 -0.4150
  844MOL0     H16452   5.026   6.737   8.853 -1.5106 -1.8348  0.1733
  844MOL0     H16453   5.194   6.829   9.030 -0.9113 -1.5999 -1.9333
  844MOL0     H16454   5.123   6.807   9.673 -0.4647  0.2314  1.4494
  844MOL0     H16455   5.278   6.848   9.844  0.3686 -1.2597 -0.1988
  844MOL0     H16456   6.241   6.911   9.514 -1.5095  1.4224 -2.3669
  844MOL0     H16457   6.059   6.759   9.420 -1.0204  0.0215  0.5503
  844MOL0     H16458   5.660   6.662   9.308  1.3177 -1.4075  0.5393
  844MOL0     H16459   5.471   6.545   9.228  0.1068 -2.2012  0.1511
  844MOL0     H16460   5.287   6.475   9.163  0.2889  1.7346  1.7365
  844MOL0     H16461   5.292   6.323   9.260  1.8657 -0.1676 -0.4724
  844MOL0     H16462   5.028   6.461   9.228 -1.7123 -2.6114 -0.3754
  844MOL0     H16463   5.088   6.320   9.310  1.6770 -0.6755  0.6687
  844MOL0     H16464   5.155   6.226   9.081 -0.8193 -0.3702 -0.7782
  844MOL0     H16465   4.990   6.277   9.075  0.8030 -2.8692 -1.7112
  844MOL0     H16466   5.069   6.516   8.992  0.2289  0.1901  1.7928
  844MOL0     H16467   5.036   6.379   8.891 -0.6332  1.6086  2.1994
  844MOL0     H16468   5.445   6.349   8.820  1.3816  3.5938  0.5723
  844MOL0     H16469   5.312   6.504   9.613 -2.5386 -0.2340 -2.9154
  844MOL0     H16470   5.478   6.627   9.806  0.6598  2.3807 -1.4671
  844MOL0     H16471   5.546   6.472   9.798 -2.1988  0.1992  0.4489
  844MOL0     H16472   5.650   6.612   9.769  0.5128  0.4073 -4.2761
  845MOL0     O16473   1.335   5.089   6.132  0.3087  1.1948  0.0206
  845MOL0     C16474   1.351   4.971   6.132  0.0192 -0.1357 -0.1826
  845MOL0     O16475   1.440   4.920   6.042 -0.0854  0.4585 -0.3543
  845MOL0     C16476   1.543   4.833   6.064  0.0449  0.3258  0.6549
  845MOL0     C16477   1.598   4.788   6.187  0.3402  0.7696 -1.2439
  845MOL0     C16478   1.702   4.699   6.180 -0.3616 -1.0929 -0.4520
  845MOL0     C16479   1.776   4.668   6.061  0.4809 -0.5797 -1.1308
  845MOL0     O16480   1.900   4.614   6.046  0.5328  0.3335  0.1226
  845MOL0     C16481   1.968   4.622   6.173  0.3467  0.6516  0.6830
  845MOL0     C16482   2.117   4.607   6.158  0.4451 -0.5751 -0.2465
  845MOL0     C16483   2.160   4.491   6.070  0.5521 -0.7665 -0.1127
  845MOL0     C16484   2.091   4.357   6.097  0.7093  0.1441  0.4197
  845MOL0     C16485   2.183   4.257   6.031 -0.2821  0.8626  0.4311
  845MOL0     C16486   2.129   4.110   6.038 -0.1376 -0.3662 -0.1392
  845MOL0     C16487   2.218   4.020   5.953  0.1504  0.4353  0.1660
  845MOL0     C16488   2.175   3.870   5.944  0.7777 -0.1263  0.5622
  845MOL0     N16489   2.053   3.845   5.869  0.0443 -0.2508  0.0564
  845MOL0     C16490   1.929   3.826   5.914 -0.2839  0.5661 -0.4331
  845MOL0     C16491   1.842   3.824   5.806  0.3562  0.0417 -0.5665
  845MOL0     C16492   1.690   3.814   5.796 -0.1610 -0.1988 -0.2225
  845MOL0     C16493   1.646   3.684   5.865 -0.2226  0.2070  0.6550
  845MOL0     C16494   1.539   3.604   5.793  0.1728 -0.0771 -0.6937
  845MOL0     C16495   1.476   3.483   5.872 -0.5990 -1.5835 -0.7540
  845MOL0     O16496   1.346   3.438   5.832 -0.2073  0.4356  0.6135
  845MOL0     C16497   1.338   3.374   5.708 -0.6449  0.5177  0.1105
  845MOL0     C16498   1.210   3.375   5.634 -0.5895  0.4470 -0.2478
  845MOL0     C16499   1.206   3.319   5.512  1.1784 -0.2607  0.5020
  845MOL0     C16500   1.080   3.355   5.427 -0.3222 -0.1269 -0.7083
  845MOL0     C16501   1.322   3.252   5.461  0.3168 -1.3707  0.8411
  845MOL0     C16502   1.329   3.177   5.336  0.6962  0.3610 -0.9110
  845MOL0     O16503   1.441   3.194   5.254  0.6009  0.1745  0.5203
  845MOL0     C16504   1.469   3.085   5.166 -0.7041 -0.0352  0.9566
  845MOL0     C16505   1.519   3.109   5.031 -0.2337  0.5483 -0.4505
  845MOL0     C16506   1.558   2.995   4.951 -0.4604 -0.3177  0.5314
  845MOL0     C16507   1.570   2.868   5.000 -0.3151 -0.3220 -0.5117
  845MOL0     O16508   1.618   2.762   4.923 -0.6000 -0.3119 -0.1074
  845MOL0     C16509   1.548   2.636   4.920 -0.7063 -0.7420  0.0898
  845MOL0     C16510   1.580   2.541   4.799  0.4449 -0.0316 -0.5392
  845MOL0     C16511   1.540   2.603   4.666  0.2893 -0.3085 -0.0544
  845MOL0     C16512   1.397   2.579   4.619 -0.4040 -0.0014 -0.5594
  845MOL0     C16513   1.343   2.674   4.522 -0.4842 -0.0669 -0.3894
  845MOL0     C16514   1.297   2.810   4.588 -0.2631 -0.4404  0.0969
  845MOL0     C16515   1.220   2.894   4.489 -0.3587 -0.2998 -0.3014
  845MOL0     C16516   1.188   3.036   4.531  0.5364  0.0144  0.7626
  845MOL0    Cl16517   1.335   3.130   4.518 -0.3940  0.5257  0.1144
  845MOL0     C16518   1.543   2.855   5.142 -0.5210  0.0891  0.2190
  845MOL0     C16519   1.484   2.954   5.214 -0.1306  1.2071  0.4904
  845MOL0     O16520   1.236   3.096   5.320 -0.3649  0.4508  0.3266
  845MOL0     C16521   1.440   3.262   5.538  0.3233  0.3726  0.8403
  845MOL0     C16522   1.444   3.312   5.659 -0.2869  0.4530 -0.6567
  845MOL0     N16523   1.915   3.848   5.695  0.2556 -0.1990 -0.1811
  845MOL0     N16524   2.042   3.855   5.732 -0.1248 -1.1514  0.0303
  845MOL0     C16525   1.712   4.712   5.944 -0.3539  0.2837 -0.1702
  845MOL0     C16526   1.597   4.792   5.944 -0.0692 -0.2734  0.2307
  845MOL0     C16527   1.280   4.877   6.229  0.8212 -1.0529  0.1912
  845MOL0     C16528   1.267   4.737   6.198  0.4246  0.1963 -0.0128
  845MOL0     C16529   1.219   4.646   6.286  0.2373 -0.6014 -1.7877
  845MOL0     C16530   1.167   4.688   6.414 -0.0468 -0.2752 -0.1706
  845MOL0     O16531   1.134   4.598   6.525  0.0985  0.7478 -0.0564
  845MOL0     C16532   1.185   4.623   6.656 -0.3604  0.7151 -0.1865
  845MOL0     C16533   1.341   4.628   6.658 -0.6035  0.8422  0.5073
  845MOL0     C16534   1.384   4.478   6.637 -1.0585 -0.7661  0.2569
  845MOL0     C16535   1.508   4.497   6.550 -0.4204  0.1068 -0.2729
  845MOL0     C16536   1.576   4.369   6.531  0.5065  0.6816  0.4481
  845MOL0     C16537   1.631   4.257   6.530  0.2458  0.3897 -0.3843
  845MOL0     C16538   1.168   4.824   6.441  0.8475  0.3973  1.0958
  845MOL0     C16539   1.222   4.922   6.350  0.1468  1.0306 -0.5735
  845MOL0     C16540   1.206   5.065   6.403 -0.1968 -0.4869 -0.3130
  845MOL0     H16541   1.548   4.836   6.271 -1.5956  0.3686 -2.1198
  845MOL0     H16542   1.727   4.669   6.281  3.5987  2.3924 -0.1314
  845MOL0     H16543   1.921   4.545   6.235  0.1551 -0.3403 -0.6434
  845MOL0     H16544   1.957   4.714   6.232  0.8986  0.3266  1.3180
  845MOL0     H16545   2.150   4.698   6.108 -1.3587 -1.8406 -4.1225
  845MOL0     H16546   2.155   4.597   6.261  1.3576  2.3250 -0.2170
  845MOL0     H16547   2.159   4.516   5.963 -1.6335  2.8684  0.6168
  845MOL0     H16548   2.268   4.475   6.080  1.0632  2.3385  0.3005
  845MOL0     H16549   2.081   4.348   6.206 -1.0615  0.7109  0.3387
  845MOL0     H16550   1.994   4.349   6.048  0.5697 -1.7134  0.9138
  845MOL0     H16551   2.287   4.265   6.066  0.2471  0.3457 -0.9672
  845MOL0     H16552   2.188   4.298   5.930  2.7659  3.1083  1.3113
  845MOL0     H16553   2.123   4.084   6.144  3.3680 -0.9959  0.0049
  845MOL0     H16554   2.029   4.109   5.994 -0.8853  1.3149  1.4330
  845MOL0     H16555   2.321   4.016   5.990 -0.6297 -1.7125  2.4074
  845MOL0     H16556   2.216   4.056   5.850  0.0839 -3.0693 -1.2081
  845MOL0     H16557   2.254   3.821   5.886  2.5712  1.9606  1.1003
  845MOL0     H16558   2.170   3.835   6.047  0.4227 -0.4965  0.4240
  845MOL0     H16559   1.904   3.814   6.019 -1.4079 -2.9645 -0.9525
  845MOL0     H16560   1.660   3.814   5.691 -1.2618 -0.1118  0.0838
  845MOL0     H16561   1.644   3.893   5.857  0.9448  1.2058 -1.1522
  845MOL0     H16562   1.729   3.613   5.865 -0.9471 -0.6782  1.5037
  845MOL0     H16563   1.628   3.695   5.973 -2.1468 -0.8410  0.4847
  845MOL0     H16564   1.452   3.665   5.764 -0.3376 -0.2728  0.4059
  845MOL0     H16565   1.588   3.554   5.709 -0.8296  0.5387 -1.6885
  845MOL0     H16566   1.558   3.410   5.877 -2.0617 -3.2275  0.3508
  845MOL0     H16567   1.467   3.521   5.974 -0.4702  0.0883 -1.3457
  845MOL0     H16568   1.125   3.437   5.662 -2.7666 -3.3010  2.2747
  845MOL0     H16569   1.047   3.453   5.464  1.0859 -0.4515  1.6312
  845MOL0     H16570   1.002   3.280   5.439 -1.5752  1.0951 -0.9633
  845MOL0     H16571   1.089   3.357   5.318  0.8291  0.4727 -0.6147
  845MOL0     H16572   1.519   3.203   4.977  2.3697  1.1581  0.4241
  845MOL0     H16573   1.576   3.014   4.846 -1.2612 -1.8278  0.0910
  845MOL0     H16574   1.569   2.591   5.018  0.8895 -0.5627 -0.1468
  845MOL0     H16575   1.441   2.662   4.913 -0.6999 -0.6234  0.4038
  845MOL0     H16576   1.688   2.555   4.802  0.2749  1.5586 -1.1455
  845MOL0     H16577   1.541   2.439   4.811  2.0158 -0.4040  2.2290
  845MOL0     H16578   1.599   2.548   4.592 -2.3251 -1.3011 -1.5234
  845MOL0     H16579   1.559   2.711   4.653  0.8989 -0.5387 -1.2538
  845MOL0     H16580   1.321   2.580   4.697 -1.1222 -2.2843 -1.1686
  845MOL0     H16581   1.388   2.480   4.573  0.1253 -0.5117  0.3884
  845MOL0     H16582   1.424   2.683   4.448  1.3300  0.5205  1.5727
  845MOL0     H16583   1.255   2.643   4.465 -1.5037 -0.3177  1.2571
  845MOL0     H16584   1.388   2.859   4.624 -0.4850  1.7648 -2.1099
  845MOL0     H16585   1.228   2.791   4.671 -0.5685  1.5340  0.3452
  845MOL0     H16586   1.127   2.839   4.472 -0.9115  0.8585 -1.2060
  845MOL0     H16587   1.280   2.909   4.399 -0.6151  2.6404 -0.0985
  845MOL0     H16588   1.174   3.039   4.640  1.6141 -0.4536  0.9293
  845MOL0     H16589   1.109   3.079   4.469 -1.2345 -2.6226  0.9979
  845MOL0     H16590   1.551   2.761   5.196  0.4887 -1.4612 -2.4438
  845MOL0     H16591   1.444   2.923   5.310 -1.5928 -1.0749 -0.7917
  845MOL0     H16592   1.522   3.199   5.506 -1.5949  0.3569 -5.3989
  845MOL0     H16593   1.543   3.309   5.704 -1.1479 -3.4986  1.3532
  845MOL0     H16594   1.764   4.687   5.852  1.6653 -1.1634  1.2789
  845MOL0     H16595   1.561   4.842   5.855 -1.4302  1.4457  1.6777
  845MOL0     H16596   1.295   4.686   6.106  1.2000 -0.5149  0.6006
  845MOL0     H16597   1.231   4.541   6.261  2.6846 -0.6998 -0.5384
  845MOL0     H16598   1.142   4.714   6.698 -0.2953 -1.3472  5.0887
  845MOL0     H16599   1.154   4.538   6.717 -0.6096 -2.4289 -4.2238
  845MOL0     H16600   1.368   4.649   6.761  0.0586 -0.3448  0.5829
  845MOL0     H16601   1.386   4.691   6.580  0.3299 -0.9799 -0.4876
  845MOL0     H16602   1.402   4.429   6.733 -1.8124 -0.2052  0.6906
  845MOL0     H16603   1.317   4.409   6.585 -0.3001 -1.6485  0.4260
  845MOL0     H16604   1.580   4.570   6.590 -1.2182  0.6736  0.1431
  845MOL0     H16605   1.482   4.528   6.448  1.7702  1.8126 -0.3839
  845MOL0     H16606   1.670   4.158   6.528 -2.4690 -0.7508 -2.4143
  845MOL0     H16607   1.137   4.852   6.541 -0.7999 -1.1036  1.0558
  845MOL0     H16608   1.162   5.136   6.332 -2.4644  0.7422  2.1440
  845MOL0     H16609   1.140   5.075   6.490  1.4928 -0.1865  0.9940
  845MOL0     H16610   1.303   5.096   6.442 -1.4126 -1.6034  4.1888
  846MOL0     O16611   3.434   9.687   6.822  0.1904  0.6542 -0.3346
  846MOL0     C16612   3.448   9.747   6.927 -0.2296  0.4144  0.7605
  846MOL0     O16613   3.417   9.875   6.943  0.9581 -0.0271  0.2924
  846MOL0     C16614   3.338   9.933   6.849  0.9089  0.1769  0.7162
  846MOL0     C16615   3.372  10.037   6.765 -0.0077 -0.7552 -0.3361
  846MOL0     C16616   3.286  10.102   6.684 -0.3477 -0.0338  0.2569
  846MOL0     C16617   3.150  10.074   6.690 -0.7517 -0.1115 -0.7968
  846MOL0     O16618   3.059  10.145   6.619  1.1878  0.2248 -0.3125
  846MOL0     C16619   2.970  10.223   6.696  0.2690  0.2493 -0.0519
  846MOL0     C16620   2.882  10.300   6.589  1.1335  0.4233  0.4996
  846MOL0     C16621   2.796  10.206   6.490 -0.2073  0.2212 -0.5698
  846MOL0     C16622   2.837  10.252   6.347  1.4742 -0.5221  0.0349
  846MOL0     C16623   2.743  10.180   6.255 -0.3734  0.8170 -0.5952
  846MOL0     C16624   2.791  10.209   6.112  0.2996 -0.3922  0.0811
  846MOL0     C16625   2.710  10.127   6.008 -0.3116 -0.3008 -0.2663
  846MOL0     C16626   2.566  10.171   5.986  0.3356 -0.3336 -0.7430
  846MOL0     N16627   2.508  10.150   5.850  0.7140  0.1241 -0.6546
  846MOL0     C16628   2.561  10.190   5.738 -0.3994 -0.2357  0.2438
  846MOL0     C16629   2.480  10.140   5.643  0.1149  0.2823  0.0619
  846MOL0     C16630   2.485  10.134   5.497  0.5492  0.7892 -0.8372
  846MOL0     C16631   2.514  10.267   5.427  0.2640 -0.3518  0.3828
  846MOL0     C16632   2.571  10.244   5.288  0.4183 -0.2505  0.1102
  846MOL0     C16633   2.470  10.165   5.197 -0.1889  0.1923 -0.3088
  846MOL0     O16634   2.536  10.155   5.075  0.1490 -0.5511  0.6992
  846MOL0     C16635   2.490  10.055   4.989 -0.1219  0.2896  0.5261
  846MOL0     C16636   2.552  10.036   4.865 -0.2009  0.6759  0.2560
  846MOL0     C16637   2.499   9.956   4.768 -0.3584 -0.1066  0.7655
  846MOL0     C16638   2.571   9.967   4.632  0.1096 -0.0598 -1.0343
  846MOL0     C16639   2.385   9.877   4.791  0.7989  0.1969 -0.5239
  846MOL0     C16640   2.340   9.774   4.692 -0.0278 -0.1241 -0.6524
  846MOL0     O16641   2.247   9.692   4.748 -0.2452 -0.1276 -0.8634
  846MOL0     C16642   2.173   9.627   4.658  0.0081  0.4059 -0.1914
  846MOL0     C16643   2.046   9.671   4.631  0.5938  0.0495  0.0594
  846MOL0     C16644   1.953   9.608   4.542  0.5814 -0.2382 -0.8496
  846MOL0     C16645   1.995   9.496   4.486  0.6352  0.7543 -0.4993
  846MOL0     O16646   1.906   9.446   4.396 -0.7667  0.2030  0.1893
  846MOL0     C16647   1.958   9.372   4.285  1.0868  0.8758 -0.6851
  846MOL0     C16648   1.901   9.436   4.165  1.0135 -0.7616  0.2534
  846MOL0     C16649   1.914   9.356   4.043 -0.9564  0.0441 -0.7661
  846MOL0     C16650   1.844   9.441   3.932  0.3127  0.0452 -0.3099
  846MOL0     C16651   1.831   9.377   3.794 -0.1405 -1.0816 -0.4571
  846MOL0     C16652   1.712   9.434   3.719 -0.2838 -0.0184 -0.4512
  846MOL0     C16653   1.694   9.362   3.586 -0.4766  0.4660 -0.6408
  846MOL0     C16654   1.556   9.421   3.525 -0.5565  0.5037  0.1511
  846MOL0    Cl16655   1.538   9.357   3.364 -0.1577 -0.3574  0.2414
  846MOL0     C16656   2.118   9.434   4.517 -0.6331  0.1857  0.0332
  846MOL0     C16657   2.202   9.504   4.603 -0.1178 -1.3005 -0.6078
  846MOL0     O16658   2.381   9.761   4.577  0.1993  0.7650 -0.3870
  846MOL0     C16659   2.326   9.891   4.912 -0.0195  0.8717 -0.0164
  846MOL0     C16660   2.378   9.976   5.008 -0.3935 -0.3497 -0.6187
  846MOL0     N16661   2.365  10.078   5.710  0.3046  0.0835  0.2913
  846MOL0     N16662   2.385  10.104   5.832 -0.5380  1.5316 -0.3000
  846MOL0     C16663   3.114   9.968   6.773 -0.8300 -0.4205  0.4069
  846MOL0     C16664   3.198   9.900   6.862 -0.3196 -0.2770  0.3276
  846MOL0     C16665   3.524   9.685   7.039 -0.3329 -0.7159 -0.0105
  846MOL0     C16666   3.617   9.762   7.109  0.3407  0.7896  0.3022
  846MOL0     C16667   3.702   9.687   7.194  0.2005  0.1201 -0.2126
  846MOL0     C16668   3.692   9.554   7.226  0.2614  0.4054  0.3414
  846MOL0     O16669   3.782   9.494   7.308 -0.3778  0.5385  0.1799
  846MOL0     C16670   3.731   9.408   7.405  0.1612 -0.5836 -0.5336
  846MOL0     C16671   3.783   9.436   7.541  0.2584  0.8198  0.0086
  846MOL0     C16672   3.939   9.436   7.527 -0.0001 -0.9657  0.4099
  846MOL0     C16673   4.021   9.404   7.657  0.5114  0.0465  0.8133
  846MOL0     C16674   3.976   9.485   7.767  1.0011  0.3608  0.0926
  846MOL0     C16675   3.939   9.565   7.854 -1.0365  0.5478  0.7767
  846MOL0     C16676   3.596   9.482   7.153 -0.2883  0.8378  0.2756
  846MOL0     C16677   3.512   9.542   7.068  0.2183 -0.0450  0.0841
  846MOL0     C16678   3.412   9.454   7.006  0.1644 -0.3297  0.0103
  846MOL0     H16679   3.474  10.071   6.752 -0.3168 -0.0864 -1.0418
  846MOL0     H16680   3.310  10.185   6.617 -2.7315  2.5908  2.4150
  846MOL0     H16681   3.024  10.303   6.747  0.4151 -0.8617  1.6205
  846MOL0     H16682   2.910  10.168   6.768 -0.3618  1.3917  0.3179
  846MOL0     H16683   2.818  10.373   6.640  0.7817  0.9968 -0.7394
  846MOL0     H16684   2.963  10.347   6.534 -0.0814  2.0062  0.0163
  846MOL0     H16685   2.819  10.099   6.497  2.5124  0.4483 -3.5823
  846MOL0     H16686   2.687  10.211   6.500 -0.8145 -1.6200 -4.3053
  846MOL0     H16687   2.819  10.358   6.331  0.5977 -0.4687  1.2602
  846MOL0     H16688   2.937  10.216   6.320  0.6650 -1.1304 -2.5293
  846MOL0     H16689   2.641  10.217   6.270 -0.7694 -0.5244  0.1301
  846MOL0     H16690   2.744  10.073   6.279  1.6018  0.9474  0.0568
  846MOL0     H16691   2.800  10.313   6.079  2.6109 -0.4267  0.4517
  846MOL0     H16692   2.893  10.170   6.098  2.0728  1.7866  4.8178
  846MOL0     H16693   2.711  10.021   6.033  2.8711 -1.5274 -4.4175
  846MOL0     H16694   2.772  10.144   5.920  0.7582  0.1372  0.5560
  846MOL0     H16695   2.512  10.149   6.078  3.5506 -1.9559  0.9584
  846MOL0     H16696   2.580  10.279   5.995 -3.9779  0.6959 -3.6740
  846MOL0     H16697   2.657  10.240   5.729 -1.6380  2.2454  0.0393
  846MOL0     H16698   2.392  10.089   5.461  0.7665 -0.1100 -0.3123
  846MOL0     H16699   2.561  10.059   5.472 -0.0962  0.0265 -0.5561
  846MOL0     H16700   2.428  10.334   5.436  1.0936  0.5119  2.8639
  846MOL0     H16701   2.588  10.327   5.480 -0.1594  0.0261  0.5520
  846MOL0     H16702   2.596  10.339   5.241  0.7879 -0.5336 -0.2788
  846MOL0     H16703   2.655  10.174   5.282 -0.8225 -1.7324 -0.7840
  846MOL0     H16704   2.439  10.070   5.242 -0.6560  0.5343  0.1039
  846MOL0     H16705   2.391  10.237   5.174  3.1535  3.9233 -1.1403
  846MOL0     H16706   2.640  10.093   4.838  1.2237 -1.5545 -0.1044
  846MOL0     H16707   2.516  10.034   4.566 -2.5264  0.0495  1.1022
  846MOL0     H16708   2.587   9.868   4.587  1.1632 -0.6272  0.4826
  846MOL0     H16709   2.672  10.005   4.651  0.4184 -1.3798  0.2229
  846MOL0     H16710   2.023   9.757   4.694  0.3711 -1.3101  1.9344
  846MOL0     H16711   1.853   9.650   4.533  0.0119 -0.0524  3.6860
  846MOL0     H16712   2.066   9.366   4.271  1.0358 -3.3508 -0.5096
  846MOL0     H16713   1.926   9.268   4.298  1.1472  1.0557  1.1033
  846MOL0     H16714   1.795   9.460   4.176  0.4321 -2.7407 -0.3990
  846MOL0     H16715   1.943   9.536   4.154  1.5293 -0.8327  1.4647
  846MOL0     H16716   1.868   9.258   4.058 -0.4234 -0.2625 -1.1154
  846MOL0     H16717   2.017   9.348   4.009 -1.3241  0.3988 -2.0379
  846MOL0     H16718   1.894   9.537   3.936  0.1067  0.1497 -0.2000
  846MOL0     H16719   1.743   9.471   3.962 -0.2997 -1.7442 -0.4270
  846MOL0     H16720   1.926   9.395   3.744  0.9639  0.8732  2.1053
  846MOL0     H16721   1.832   9.270   3.816 -0.5856 -0.8900  0.5770
  846MOL0     H16722   1.723   9.542   3.706 -0.2465  0.2122  1.2046
  846MOL0     H16723   1.626   9.406   3.781 -1.2165  1.9103 -0.8070
  846MOL0     H16724   1.685   9.253   3.598  0.4296  0.3242 -1.2169
  846MOL0     H16725   1.772   9.396   3.518 -1.7892  0.6440 -2.1307
  846MOL0     H16726   1.563   9.529   3.509  0.2473  0.3177 -0.8503
  846MOL0     H16727   1.466   9.388   3.578 -1.4259 -2.4856 -2.8147
  846MOL0     H16728   2.144   9.333   4.486 -0.4350  0.4118 -0.5444
  846MOL0     H16729   2.300   9.460   4.616  2.5041  3.8723 -0.5977
  846MOL0     H16730   2.229   9.847   4.934 -0.6964  2.0777 -0.5153
  846MOL0     H16731   2.326   9.985   5.103  0.4014  1.5528 -0.3015
  846MOL0     H16732   3.007   9.947   6.777 -1.3215  1.4380 -1.4603
  846MOL0     H16733   3.162   9.808   6.906  2.8054 -1.6822  0.2455
  846MOL0     H16734   3.624   9.869   7.100  1.3600  0.6336 -1.1256
  846MOL0     H16735   3.782   9.736   7.249  0.5494  3.1218 -3.0660
  846MOL0     H16736   3.622   9.398   7.399 -0.1096  0.1133  2.0334
  846MOL0     H16737   3.771   9.311   7.374 -0.0359 -0.3327 -1.6452
  846MOL0     H16738   3.750   9.352   7.603  2.2498  0.7487  1.0602
  846MOL0     H16739   3.745   9.527   7.589  0.6028  1.1799 -0.3852
  846MOL0     H16740   3.970   9.357   7.458 -0.7534 -1.3871  0.5353
  846MOL0     H16741   3.964   9.533   7.484  0.4253 -0.5824  1.4955
  846MOL0     H16742   4.124   9.432   7.632 -0.2806  2.1271 -0.3856
  846MOL0     H16743   4.026   9.298   7.682  1.4867 -0.1251 -0.0218
  846MOL0     H16744   3.901   9.622   7.936 -0.7310 -0.2991  1.5262
  846MOL0     H16745   3.589   9.373   7.159 -0.3381  0.8633  0.7194
  846MOL0     H16746   3.379   9.373   7.072 -1.9840  2.0301  1.9996
  846MOL0     H16747   3.324   9.511   6.977  0.9386  1.7048  1.4438
  846MOL0     H16748   3.456   9.411   6.916  1.4540  1.5612 -0.3219
  847MOL0     O16749   6.549   8.423  10.309  0.3587  0.8273 -0.2803
  847MOL0     C16750   6.657   8.415  10.369  0.3935 -1.2618  0.1527
  847MOL0     O16751   6.740   8.310  10.379 -0.7590 -0.2671 -0.5468
  847MOL0     C16752   6.696   8.186  10.333 -0.1883 -0.2115 -0.1894
  847MOL0     C16753   6.579   8.129  10.389 -0.2151 -0.0533  0.2660
  847MOL0     C16754   6.527   8.002  10.335  0.8486 -0.5367  0.9221
  847MOL0     C16755   6.596   7.929  10.251 -0.4714  1.6459  0.7259
  847MOL0     O16756   6.567   7.807  10.202 -0.9941  0.1587 -0.2740
  847MOL0     C16757   6.440   7.753  10.223 -0.0835 -0.0172 -1.2032
  847MOL0     C16758   6.388   7.672  10.111 -0.4987  0.8070  0.1508
  847MOL0     C16759   6.276   7.577  10.127  0.4888  0.5070  0.6618
  847MOL0     C16760   6.144   7.654  10.111 -0.5385  0.0997  0.1316
  847MOL0     C16761   6.037   7.623  10.218 -0.2162  0.3183  0.4918
  847MOL0     C16762   6.081   7.635  10.363 -0.7133 -0.5186  0.2527
  847MOL0     C16763   6.085   7.493  10.438  0.4028  0.1216  0.0520
  847MOL0     C16764   6.152   7.507  10.583  0.0809  0.4309  0.3265
  847MOL0     N16765   6.297   7.533  10.573 -0.7175  0.2061  1.1023
  847MOL0     C16766   6.377   7.458  10.489  0.3706  0.1660 -0.0158
  847MOL0     C16767   6.493   7.460  10.552  0.0620  0.9686 -0.3199
  847MOL0     C16768   6.628   7.397  10.501 -0.2288  0.7427 -0.0087
  847MOL0     C16769   6.640   7.368  10.352 -0.7648 -0.1319  0.8113
  847MOL0     C16770   6.777   7.307  10.305 -1.3855 -0.9564 -0.3865
  847MOL0     C16771   6.898   7.394  10.337 -0.9375 -0.8221  0.0948
  847MOL0     O16772   6.902   7.513  10.265  0.3436 -0.0200 -0.2247
  847MOL0     C16773   6.953   7.626  10.319 -0.7157  0.1524  0.8381
  847MOL0     C16774   6.872   7.712  10.383 -0.4582 -0.0011 -0.9797
  847MOL0     C16775   6.923   7.821  10.445  0.6585 -0.4336  0.2034
  847MOL0     C16776   6.824   7.899  10.537 -0.0407  0.9371 -0.0579
  847MOL0     C16777   7.051   7.871  10.410 -0.2257  0.4225  0.1766
  847MOL0     C16778   7.115   7.985  10.471 -1.2298 -0.3841  0.3916
  847MOL0     O16779   7.226   8.034  10.395  0.5279 -0.0105 -0.4588
  847MOL0     C16780   7.334   8.070  10.480  0.2078  0.1406 -0.2926
  847MOL0     C16781   7.381   7.994  10.589 -1.6164 -0.2152 -0.1288
  847MOL0     C16782   7.487   8.048  10.661 -0.0323 -0.9240  0.0796
  847MOL0     C16783   7.538   8.172  10.645  0.3256 -0.1043 -0.0454
  847MOL0     O16784   7.638   8.234  10.718 -0.3230  0.3669 -0.1088
  847MOL0     C16785   7.722   8.158  10.802 -0.7655 -1.3642  0.1756
  847MOL0     C16786   7.829   8.245  10.860  0.3074  0.2581  0.4068
  847MOL0     C16787   7.788   8.342  10.967 -0.2427  0.2767  0.3177
  847MOL0     C16788   7.863   8.319  11.094  0.1380  0.5057 -0.1484
  847MOL0     C16789   8.005   8.367  11.087 -0.5291 -0.8352 -0.1886
  847MOL0     C16790   8.017   8.517  11.131 -0.7984  0.3899 -0.8672
  847MOL0     C16791   8.158   8.527  11.197  0.2645 -0.5761  0.3395
  847MOL0     C16792   8.179   8.660  11.277  0.2635  0.3209  0.0715
  847MOL0    Cl16793   8.311   8.621  11.405  0.3891 -0.2536 -0.1414
  847MOL0     C16794   7.489   8.250  10.533  0.4629  0.2058 -0.1691
  847MOL0     C16795   7.398   8.194  10.444  0.2023  0.8660  0.0173
  847MOL0     O16796   7.076   8.033  10.578 -0.0055 -0.4604  0.4200
  847MOL0     C16797   7.129   7.782  10.334 -0.3540  0.0273 -0.2449
  847MOL0     C16798   7.088   7.657  10.292  0.5697  0.8421  0.5315
  847MOL0     N16799   6.488   7.542  10.658 -0.4558 -0.5231 -0.7339
  847MOL0     N16800   6.374   7.587  10.664 -0.2738 -0.2915  0.0754
  847MOL0     C16801   6.716   7.990  10.196  0.7595 -0.2283 -0.6103
  847MOL0     C16802   6.768   8.116  10.240  0.6849  0.3295 -0.3051
  847MOL0     C16803   6.677   8.526  10.459 -0.0095  0.2029  0.0392
  847MOL0     C16804   6.805   8.564  10.500  0.1837 -0.2771 -0.1937
  847MOL0     C16805   6.836   8.680  10.572 -0.0878  0.2809  0.5454
  847MOL0     C16806   6.737   8.769  10.611 -0.4856 -0.4459  0.0464
  847MOL0     O16807   6.756   8.901  10.652 -0.6286 -0.1500  0.0734
  847MOL0     C16808   6.865   8.926  10.737 -1.0088  0.7734  0.1975
  847MOL0     C16809   6.998   8.971  10.658  0.0145  1.0677 -0.3439
  847MOL0     C16810   6.991   9.117  10.604  0.2807 -0.3574 -0.1748
  847MOL0     C16811   7.130   9.179  10.575 -0.2243  0.1123  0.3373
  847MOL0     C16812   7.182   9.271  10.672 -1.0377 -0.9437 -0.6092
  847MOL0     C16813   7.217   9.350  10.762  1.1699 -0.3313  0.5450
  847MOL0     C16814   6.610   8.732  10.570  0.9103 -1.6069  0.2062
  847MOL0     C16815   6.574   8.616  10.503  0.1369 -0.2661  0.2898
  847MOL0     C16816   6.420   8.590  10.494  0.6393 -0.3092 -0.2046
  847MOL0     H16817   6.540   8.186  10.473 -3.4746  1.8582 -2.3182
  847MOL0     H16818   6.439   7.961  10.383 -0.9533 -0.7148 -2.3124
  847MOL0     H16819   6.353   7.818  10.235  0.1588  0.0625  0.3369
  847MOL0     H16820   6.441   7.695  10.316 -6.0180  1.7695  0.4332
  847MOL0     H16821   6.376   7.733  10.021  1.3608 -1.7420 -2.0145
  847MOL0     H16822   6.465   7.595  10.094 -1.9076 -0.8658  1.0689
  847MOL0     H16823   6.281   7.506  10.044  3.1107  0.9534  0.3704
  847MOL0     H16824   6.291   7.535  10.227  3.8566  0.0157  0.0395
  847MOL0     H16825   6.157   7.763  10.107 -4.3069  0.7806  2.3166
  847MOL0     H16826   6.095   7.613  10.022 -1.5989 -1.3156  1.3307
  847MOL0     H16827   6.011   7.518  10.200 -0.8584  0.9057 -2.5152
  847MOL0     H16828   5.947   7.679  10.191  1.5744  1.6462 -3.3155
  847MOL0     H16829   6.177   7.686  10.376  0.0018 -1.8673  0.3364
  847MOL0     H16830   6.006   7.701  10.409  0.1169  2.0829 -1.8227
  847MOL0     H16831   6.134   7.424  10.369  2.1482 -0.2731  1.6138
  847MOL0     H16832   5.984   7.450  10.442  0.5571 -0.1971  0.6448
  847MOL0     H16833   6.100   7.586  10.639 -1.6177  1.7151 -2.7927
  847MOL0     H16834   6.147   7.409  10.632  1.1723 -1.0333 -2.3044
  847MOL0     H16835   6.350   7.413  10.394 -0.5472 -0.9663  0.7431
  847MOL0     H16836   6.636   7.298  10.547 -0.8365  0.6089 -0.1777
  847MOL0     H16837   6.714   7.457  10.532  0.9963 -1.1922  0.4975
  847MOL0     H16838   6.552   7.305  10.336 -2.0810  2.2326 -2.3357
  847MOL0     H16839   6.626   7.458  10.292 -0.7192 -0.3537  0.4668
  847MOL0     H16840   6.801   7.215  10.357  1.2235 -1.2476 -1.9275
  847MOL0     H16841   6.780   7.286  10.198  0.3703 -0.2927 -0.5076
  847MOL0     H16842   6.904   7.409  10.445 -2.2629  0.0846  0.0615
  847MOL0     H16843   6.987   7.349  10.292 -1.4428 -1.5186 -0.2193
  847MOL0     H16844   6.771   7.673  10.386  0.1154 -1.5971 -1.5122
  847MOL0     H16845   6.864   7.887  10.638  2.1740 -0.8957 -1.0759
  847MOL0     H16846   6.718   7.877  10.517 -0.3265  2.7023 -0.6992
  847MOL0     H16847   6.831   8.005  10.511  1.9121  0.7545 -0.3795
  847MOL0     H16848   7.334   7.897  10.605 -1.4420  0.0025  1.9832
  847MOL0     H16849   7.531   7.991  10.742 -0.6398 -0.7718  0.5220
  847MOL0     H16850   7.661   8.116  10.883  1.0499 -4.4855  0.0657
  847MOL0     H16851   7.772   8.077  10.749  0.8539 -0.0292 -0.4220
  847MOL0     H16852   7.897   8.173  10.906 -1.4025  0.0284  2.7463
  847MOL0     H16853   7.884   8.285  10.774 -1.3270 -1.8740 -1.7571
  847MOL0     H16854   7.683   8.318  10.986  0.5819 -1.9689  2.6305
  847MOL0     H16855   7.807   8.448  10.946  3.7520 -0.6392 -1.5561
  847MOL0     H16856   7.859   8.212  11.115 -2.4137  0.6078  0.2383
  847MOL0     H16857   7.800   8.365  11.171 -1.3742  2.6171 -2.4921
  847MOL0     H16858   8.049   8.309  11.168 -2.3132 -0.0493  1.4266
  847MOL0     H16859   8.055   8.342  10.993  1.6615 -1.2229  1.0247
  847MOL0     H16860   7.937   8.530  11.205 -0.4396 -0.1847 -0.3734
  847MOL0     H16861   8.007   8.588  11.048  4.4004  2.6249  0.0122
  847MOL0     H16862   8.239   8.521  11.124 -0.0608 -1.1399  0.0185
  847MOL0     H16863   8.159   8.445  11.269  1.3176 -2.1100 -1.3492
  847MOL0     H16864   8.093   8.696  11.334 -0.1971 -0.9712  0.2378
  847MOL0     H16865   8.202   8.741  11.208 -1.1655  0.6780 -0.0189
  847MOL0     H16866   7.521   8.352  10.513  1.7829  0.0791  1.1343
  847MOL0     H16867   7.357   8.247  10.359 -1.1056 -3.2394 -2.1683
  847MOL0     H16868   7.232   7.808  10.315 -0.2751  0.5064  0.7673
  847MOL0     H16869   7.149   7.591  10.231 -0.7817  0.3316 -0.3060
  847MOL0     H16870   6.770   7.937  10.118  1.4707 -1.5491  0.7167
  847MOL0     H16871   6.852   8.156  10.184 -0.0963 -0.4449 -2.0974
  847MOL0     H16872   6.896   8.517  10.463  0.0485 -0.8109  0.1328
  847MOL0     H16873   6.940   8.706  10.582  0.3938 -1.4360  0.3132
  847MOL0     H16874   6.831   9.004  10.805 -1.5552 -2.3521  3.8665
  847MOL0     H16875   6.883   8.833  10.792  0.9158 -0.3485 -2.1482
  847MOL0     H16876   7.002   8.901  10.575  0.8509  0.1131  0.4803
  847MOL0     H16877   7.090   8.964  10.718 -0.8254  1.3002  1.0314
  847MOL0     H16878   6.920   9.142  10.524 -0.4563  1.9270  1.0882
  847MOL0     H16879   6.949   9.171  10.689 -0.9759  0.0277 -1.0118
  847MOL0     H16880   7.118   9.228  10.477 -1.1325 -1.2877 -0.2817
  847MOL0     H16881   7.203   9.098  10.570 -0.1217  0.1894  0.6105
  847MOL0     H16882   7.243   9.424  10.835  1.6392  0.0713 -0.0276
  847MOL0     H16883   6.526   8.800  10.574  1.6243 -0.6154 -1.0182
  847MOL0     H16884   6.381   8.614  10.395 -0.8092 -0.6776  0.2474
  847MOL0     H16885   6.404   8.482  10.507 -1.1134 -0.1162 -0.5433
  847MOL0     H16886   6.365   8.651  10.566  1.0441  1.0359 -0.9972
  848MOL0     O16887   9.011   9.392  10.711 -0.3544  1.2940  0.9009
  848MOL0     C16888   8.928   9.295  10.697 -0.6337  0.4379 -0.2397
  848MOL0     O16889   8.808   9.308  10.628 -0.7062  0.0678 -0.2663
  848MOL0     C16890   8.776   9.422  10.558  0.7795 -0.9499  0.6790
  848MOL0     C16891   8.836   9.456  10.429  0.0668 -0.5624 -0.4125
  848MOL0     C16892   8.796   9.573  10.370 -0.6183 -0.1528  0.4353
  848MOL0     C16893   8.701   9.660  10.435  0.5186  0.9377  0.7023
  848MOL0     O16894   8.662   9.778  10.369  0.4065 -0.6740 -0.0330
  848MOL0     C16895   8.527   9.811  10.373 -0.2032  0.1436  0.2916
  848MOL0     C16896   8.469   9.890  10.247  0.1491 -0.7614 -0.9780
  848MOL0     C16897   8.381   9.997  10.295 -0.0118  0.3171 -0.6674
  848MOL0     C16898   8.345  10.085  10.171  0.5343 -0.6907  0.8845
  848MOL0     C16899   8.245  10.199  10.205 -0.1950  0.1966  0.8515
  848MOL0     C16900   8.215  10.284  10.071  0.6249  0.2226 -0.4740
  848MOL0     C16901   8.082  10.348  10.077  0.4619  0.8683 -0.2531
  848MOL0     C16902   8.053  10.453   9.963  0.2261 -0.1935 -0.2992
  848MOL0     N16903   7.913  10.510   9.979  0.3912 -0.1925  0.9896
  848MOL0     C16904   7.855  10.587   9.883 -0.1048  0.7078 -0.5147
  848MOL0     C16905   7.732  10.617   9.942 -0.2422  0.0109 -0.1614
  848MOL0     C16906   7.626  10.703   9.883 -0.2426  0.3007 -1.5106
  848MOL0     C16907   7.663  10.850   9.897 -0.3416  0.5762  0.6495
  848MOL0     C16908   7.548  10.940   9.830  0.8407  0.2080  0.3246
  848MOL0     C16909   7.610  11.082   9.821  0.0948 -1.6029  0.8739
  848MOL0     O16910   7.512  11.182   9.783 -0.2752 -0.6806 -0.1532
  848MOL0     C16911   7.525  11.289   9.873  1.0124  0.1381  0.2092
  848MOL0     C16912   7.633  11.373   9.868  0.3175 -0.3885  0.1884
  848MOL0     C16913   7.639  11.475   9.970  0.2146  0.2589  0.1831
  848MOL0     C16914   7.764  11.562   9.967 -0.9999  0.5767  0.4585
  848MOL0     C16915   7.527  11.501  10.053  1.2451  0.7679  0.5170
  848MOL0     C16916   7.529  11.607  10.164 -0.0540  0.7483  0.7490
  848MOL0     O16917   7.412  11.640  10.218  0.7855  0.8035  0.0936
  848MOL0     C16918   7.419  11.738  10.313  0.5811  0.0505  0.5621
  848MOL0     C16919   7.419  11.879  10.275  0.8549 -0.0019 -0.9761
  848MOL0     C16920   7.457  11.975  10.377  0.0391 -0.9984 -0.6299
  848MOL0     C16921   7.473  11.935  10.513 -0.3149 -0.2693  0.4939
  848MOL0     O16922   7.477  12.016  10.627  0.2274  1.2835  0.1787
  848MOL0     C16923   7.494  12.155  10.619 -0.1475  0.0123  0.3122
  848MOL0     C16924   7.584  12.211  10.729 -0.4328  0.0909  0.1249
  848MOL0     C16925   7.697  12.123  10.781  0.0165 -0.2049  0.8449
  848MOL0     C16926   7.802  12.218  10.851 -0.0908 -0.2714  0.1051
  848MOL0     C16927   7.740  12.318  10.960  0.0085  0.0596 -0.6775
  848MOL0     C16928   7.834  12.439  10.967 -0.3245 -0.1529  0.1446
  848MOL0     C16929   7.886  12.460  11.109 -0.3723 -0.1882  0.2207
  848MOL0     C16930   8.002  12.555  11.108 -0.5514  0.3725  0.1211
  848MOL0    Cl16931   8.020  12.640  11.270 -0.4007  0.4024  0.6478
  848MOL0     C16932   7.475  11.796  10.540  0.4688  0.4390 -0.5299
  848MOL0     C16933   7.451  11.702  10.442 -0.6011 -0.1034 -0.8592
  848MOL0     O16934   7.639  11.644  10.201 -0.3581  0.2416 -0.7518
  848MOL0     C16935   7.420  11.419  10.038  0.9231  0.6457  0.6531
  848MOL0     C16936   7.417  11.309   9.959  0.0784  0.0642  0.1501
  848MOL0     N16937   7.724  10.556  10.072  0.7066  0.5642  0.1752
  848MOL0     N16938   7.830  10.496  10.093 -0.0135 -0.7542  0.4379
  848MOL0     C16939   8.645   9.623  10.557  0.5619  0.0196  0.3307
  848MOL0     C16940   8.679   9.502  10.612 -0.2680 -0.0492  0.0924
  848MOL0     C16941   8.951   9.172  10.774 -0.5478 -0.4865  0.3082
  848MOL0     C16942   9.085   9.137  10.781 -0.5984  0.7060  0.0842
  848MOL0     C16943   9.140   9.035  10.866 -0.3073 -0.3937  0.6394
  848MOL0     C16944   9.040   8.944  10.918 -0.8547  0.5300  0.5430
  848MOL0     O16945   9.082   8.833  10.993 -0.7301 -0.3929  0.7277
  848MOL0     C16946   8.998   8.712  11.002 -0.2787 -0.2077 -0.5861
  848MOL0     C16947   9.055   8.612  10.899  0.0243 -0.3877 -0.8679
  848MOL0     C16948   9.059   8.662  10.747  0.6853 -0.5107  0.0910
  848MOL0     C16949   8.916   8.622  10.687  0.0524 -0.2860  0.2411
  848MOL0     C16950   8.852   8.498  10.725 -0.6518  0.6574  0.4740
  848MOL0     C16951   8.827   8.384  10.763  0.2141 -0.3213  0.3097
  848MOL0     C16952   8.901   8.972  10.915 -0.1444 -0.4304  0.2621
  848MOL0     C16953   8.863   9.091  10.852  1.1180  0.4513  0.2218
  848MOL0     C16954   8.725   9.152  10.865  0.6022 -0.9829 -0.7807
  848MOL0     H16955   8.902   9.385  10.381 -3.9301 -2.5118 -3.6542
  848MOL0     H16956   8.818   9.607  10.269 -1.5427  2.4045  1.0032
  848MOL0     H16957   8.514   9.889  10.448  0.8441  0.6690 -0.0578
  848MOL0     H16958   8.459   9.730  10.402  0.6453 -1.7648 -2.5664
  848MOL0     H16959   8.545   9.942  10.189 -2.1905  3.0484 -0.9738
  848MOL0     H16960   8.404   9.830  10.182  1.1116  2.4587 -5.2891
  848MOL0     H16961   8.288   9.960  10.339  0.7884 -2.7691 -1.3580
  848MOL0     H16962   8.434  10.061  10.366  2.1890 -1.6667 -0.4260
  848MOL0     H16963   8.431  10.124  10.116 -1.5694 -0.0595 -2.2183
  848MOL0     H16964   8.296  10.019  10.099  0.8694 -0.1657  0.1703
  848MOL0     H16965   8.283  10.266  10.282  1.2569 -1.0841  1.3013
  848MOL0     H16966   8.158  10.149  10.248 -0.1880 -0.5136  0.0716
  848MOL0     H16967   8.301  10.351  10.061  2.9215 -2.1084  1.9934
  848MOL0     H16968   8.229  10.227   9.979  2.2818 -1.5420  0.7762
  848MOL0     H16969   8.072  10.409  10.167  0.4656 -0.3985  0.6294
  848MOL0     H16970   8.007  10.269  10.087  0.7950  0.3595 -1.5489
  848MOL0     H16971   8.129  10.530   9.950 -0.5449  0.3035 -2.2605
  848MOL0     H16972   8.049  10.402   9.866 -0.2002  2.4983 -1.7973
  848MOL0     H16973   7.887  10.610   9.782  1.4802 -0.5743 -0.3567
  848MOL0     H16974   7.527  10.680   9.924 -1.2137  3.3197 -1.8950
  848MOL0     H16975   7.609  10.669   9.780 -1.4973 -4.2429 -0.0709
  848MOL0     H16976   7.684  10.886   9.998  2.7218  2.6889 -0.6042
  848MOL0     H16977   7.749  10.853   9.830 -1.2240 -4.8685 -1.2202
  848MOL0     H16978   7.512  10.900   9.734 -1.2378 -0.2708  1.2439
  848MOL0     H16979   7.460  10.952   9.894  0.1393 -2.8392  0.0949
  848MOL0     H16980   7.646  11.102   9.922 -1.6001 -0.4208  1.2973
  848MOL0     H16981   7.696  11.081   9.752  0.6957  1.6396  1.4085
  848MOL0     H16982   7.718  11.361   9.801 -1.6769 -0.6843 -2.4413
  848MOL0     H16983   7.832  11.542  10.050 -1.3506 -1.4629  0.3159
  848MOL0     H16984   7.730  11.666   9.966  0.5908  1.1321 -1.0583
  848MOL0     H16985   7.823  11.558   9.875 -1.9060  0.6461 -0.1466
  848MOL0     H16986   7.403  11.915  10.174 -2.2897 -0.0547 -0.5941
  848MOL0     H16987   7.466  12.079  10.348  2.4015 -0.5898  1.2080
  848MOL0     H16988   7.541  12.182  10.524 -4.9869 -2.1212 -3.1371
  848MOL0     H16989   7.396  12.204  10.611 -0.8015 -0.4828  3.8031
  848MOL0     H16990   7.624  12.304  10.688  0.5980 -1.2302 -2.0443
  848MOL0     H16991   7.526  12.237  10.818  3.1436  4.5838  1.5735
  848MOL0     H16992   7.727  12.059  10.698 -0.2568  4.4280 -3.2508
  848MOL0     H16993   7.661  12.060  10.863  4.3911 -2.2880  1.4502
  848MOL0     H16994   7.861  12.272  10.777 -0.9744  0.9577  0.2650
  848MOL0     H16995   7.871  12.149  10.900 -2.3521 -2.7080  0.1170
  848MOL0     H16996   7.636  12.339  10.934 -0.4346 -3.4769 -2.4398
  848MOL0     H16997   7.727  12.268  11.057 -0.9292  2.9322  0.7617
  848MOL0     H16998   7.788  12.521  10.910 -1.5054 -3.0631 -3.4329
  848MOL0     H16999   7.927  12.422  10.911 -0.0984 -3.6695  1.3650
  848MOL0     H17000   7.922  12.363  11.146  3.7483  1.1940  0.3203
  848MOL0     H17001   7.808  12.504  11.173 -2.8109 -0.9594 -2.0248
  848MOL0     H17002   7.989  12.629  11.028 -2.6932  0.0437  0.1333
  848MOL0     H17003   8.093  12.498  11.085  0.8289  1.8497  1.5794
  848MOL0     H17004   7.515  11.767  10.636  0.3614  3.4118  0.5086
  848MOL0     H17005   7.483  11.598  10.446 -0.2500  0.0180 -0.3577
  848MOL0     H17006   7.327  11.433  10.092  0.2779  3.3555 -1.0084
  848MOL0     H17007   7.333  11.242   9.975  0.6755 -1.0679 -1.2492
  848MOL0     H17008   8.585   9.698  10.608 -0.8437 -0.9191  0.1198
  848MOL0     H17009   8.640   9.473  10.709 -0.6368  1.8655  0.5602
  848MOL0     H17010   9.158   9.190  10.720 -0.8467 -1.2635 -2.0403
  848MOL0     H17011   9.248   9.020  10.860  0.1456  2.2678  0.9950
  848MOL0     H17012   9.007   8.666  11.100  4.8204  0.8810 -0.2977
  848MOL0     H17013   8.891   8.731  10.990 -0.0729  1.7825  0.2914
  848MOL0     H17014   9.005   8.516  10.908 -2.1024  0.7203 -0.1297
  848MOL0     H17015   9.156   8.602  10.939  0.0830 -1.5857 -1.2955
  848MOL0     H17016   9.058   8.771  10.745  1.6140 -0.4551  1.4514
  848MOL0     H17017   9.139   8.618  10.686  0.4117 -3.8487  1.8986
  848MOL0     H17018   8.923   8.629  10.578  3.7567  0.1280  0.3804
  848MOL0     H17019   8.848   8.700  10.723 -4.5739 -3.6299 -0.3494
  848MOL0     H17020   8.792   8.285  10.781  0.7531 -0.5530  0.1194
  848MOL0     H17021   8.831   8.916  10.975 -1.3515  1.4019  0.6561
  848MOL0     H17022   8.716   9.261  10.859 -4.1412 -0.9622  1.8523
  848MOL0     H17023   8.654   9.113  10.792  1.6796 -1.2878 -1.6982
  848MOL0     H17024   8.690   9.129  10.966 -0.3605 -1.9592 -1.3217
  849MOL0     O17025   8.396   1.470   5.051  0.3969  0.8175 -0.2355
  849MOL0     C17026   8.438   1.446   4.943 -0.2978  0.2820 -0.4315
  849MOL0     O17027   8.490   1.537   4.855 -0.0270  0.0167  0.6250
  849MOL0     C17028   8.546   1.650   4.897  0.4579 -1.0774  0.4836
  849MOL0     C17029   8.565   1.750   4.800 -0.0663  0.3917  0.3441
  849MOL0     C17030   8.634   1.871   4.832 -0.0990  0.8345 -0.0003
  849MOL0     C17031   8.688   1.890   4.960 -0.6683 -0.2303 -0.0920
  849MOL0     O17032   8.735   2.018   4.990 -0.0827 -0.1414  1.1375
  849MOL0     C17033   8.786   2.054   5.110 -0.7701 -0.2904 -0.1634
  849MOL0     C17034   8.820   2.209   5.115 -0.1312  0.2159 -0.3476
  849MOL0     C17035   8.707   2.286   5.039 -1.1709  0.3827 -0.5395
  849MOL0     C17036   8.577   2.282   5.133  0.7597 -0.0658  0.3808
  849MOL0     C17037   8.541   2.423   5.181  0.8959 -0.1912  0.6442
  849MOL0     C17038   8.415   2.438   5.269 -0.6542  0.1371  0.5460
  849MOL0     C17039   8.394   2.582   5.305 -0.3523  0.5632 -0.1305
  849MOL0     C17040   8.295   2.643   5.219 -0.2374 -0.8719 -1.0246
  849MOL0     N17041   8.286   2.785   5.253 -0.3910 -0.1237  0.3178
  849MOL0     C17042   8.224   2.828   5.365  0.1991 -0.2828  0.3177
  849MOL0     C17043   8.253   2.958   5.375  0.1298  0.5189  0.3633
  849MOL0     C17044   8.206   3.041   5.499 -0.5621 -0.1524  0.4151
  849MOL0     C17045   8.091   3.141   5.466 -0.0155  0.3819 -0.4509
  849MOL0     C17046   8.144   3.263   5.373 -0.2732  0.8378 -0.9771
  849MOL0     C17047   8.027   3.364   5.365  0.2699 -0.3581 -0.0165
  849MOL0     O17048   8.062   3.458   5.268 -0.5245 -0.5713  0.0541
  849MOL0     C17049   7.983   3.572   5.268 -0.5492 -0.8876 -0.7572
  849MOL0     C17050   7.849   3.586   5.295 -0.0195 -0.5648  0.2066
  849MOL0     C17051   7.780   3.710   5.288  0.6388  1.0286 -0.6539
  849MOL0     C17052   7.635   3.694   5.311 -0.6264  0.4133  0.1216
  849MOL0     C17053   7.848   3.825   5.246  1.3567  0.2657  1.0760
  849MOL0     C17054   7.780   3.951   5.226 -0.4067 -0.4867 -0.2647
  849MOL0     O17055   7.638   3.954   5.215 -0.2967  0.5149 -0.1360
  849MOL0     C17056   7.567   4.065   5.182 -0.0039  0.5207  0.2763
  849MOL0     C17057   7.448   4.028   5.101 -0.9841  0.3666 -0.0990
  849MOL0     C17058   7.352   4.117   5.058  0.4727 -0.4459  0.3279
  849MOL0     C17059   7.381   4.258   5.086 -0.0719  0.4060  1.0970
  849MOL0     O17060   7.294   4.345   5.023 -0.0777  0.2820  0.7201
  849MOL0     C17061   7.224   4.434   5.119  0.1914  0.0120 -0.3213
  849MOL0     C17062   7.150   4.543   5.038  1.2183 -0.1530 -0.0313
  849MOL0     C17063   7.056   4.638   5.112 -0.2720 -0.1654 -1.1527
  849MOL0     C17064   7.132   4.729   5.202 -0.3925 -0.3831  0.3439
  849MOL0     C17065   7.049   4.824   5.288  0.4932  0.5883  0.1349
  849MOL0     C17066   6.977   4.949   5.216  0.7451 -0.5452  0.2844
  849MOL0     C17067   7.059   5.078   5.234 -0.6131  0.0554 -0.0440
  849MOL0     C17068   7.031   5.184   5.123  0.4005  0.2202 -1.8274
  849MOL0    Cl17069   7.015   5.108   4.955 -0.2063 -0.0870  0.2780
  849MOL0     C17070   7.502   4.291   5.156  0.3048 -0.2389 -0.9312
  849MOL0     C17071   7.591   4.200   5.209 -0.4342  0.3154 -0.3812
  849MOL0     O17072   7.854   4.045   5.207 -0.1871 -1.0331  0.2899
  849MOL0     C17073   7.987   3.812   5.213  0.1990 -0.3687 -0.5605
  849MOL0     C17074   8.055   3.687   5.235 -0.5242 -0.5944 -0.2462
  849MOL0     N17075   8.333   2.998   5.271 -0.3771 -0.0342 -0.2201
  849MOL0     N17076   8.352   2.897   5.202 -0.1464 -0.4235 -0.3221
  849MOL0     C17077   8.667   1.791   5.059  0.1143 -0.3524  0.5193
  849MOL0     C17078   8.605   1.669   5.019  0.0169 -0.0262 -0.2470
  849MOL0     C17079   8.460   1.304   4.907 -0.4051  0.1022  0.6668
  849MOL0     C17080   8.565   1.233   4.965  0.4849 -0.6547  0.5733
  849MOL0     C17081   8.616   1.112   4.918  0.7216 -0.2207  0.1871
  849MOL0     C17082   8.547   1.046   4.812 -0.4727  0.0654 -0.3666
  849MOL0     O17083   8.608   0.935   4.755 -0.2175 -0.5061 -0.1062
  849MOL0     C17084   8.514   0.825   4.727  0.1379 -0.8079  0.0701
  849MOL0     C17085   8.609   0.716   4.687 -0.1324 -0.2356 -0.6574
  849MOL0     C17086   8.688   0.673   4.815  0.2072 -0.0669  0.5398
  849MOL0     C17087   8.724   0.523   4.827 -0.5854 -0.3475  0.7468
  849MOL0     C17088   8.611   0.436   4.825  0.8171 -1.1473 -0.1298
  849MOL0     C17089   8.505   0.381   4.825  0.0646 -0.3093 -0.3602
  849MOL0     C17090   8.431   1.107   4.760 -0.6554  0.5011 -0.0226
  849MOL0     C17091   8.400   1.237   4.799  0.6308  0.4668 -0.1534
  849MOL0     C17092   8.271   1.291   4.730 -0.0756  0.5271  0.2794
  849MOL0     H17093   8.517   1.724   4.706 -1.6744  0.6260  1.0867
  849MOL0     H17094   8.624   1.950   4.757 -2.9592  2.4617  1.8891
  849MOL0     H17095   8.878   2.000   5.131 -1.2566 -0.6650  1.0661
  849MOL0     H17096   8.714   2.031   5.189 -0.2918  0.3394  0.4654
  849MOL0     H17097   8.825   2.243   5.218 -0.9871  3.8142 -1.3678
  849MOL0     H17098   8.915   2.236   5.067 -1.0824  0.6080 -2.1123
  849MOL0     H17099   8.747   2.387   5.029  0.7027 -0.2733 -0.0931
  849MOL0     H17100   8.687   2.242   4.941 -1.2120  0.3103 -0.4989
  849MOL0     H17101   8.496   2.248   5.069  1.2027 -0.9253  0.2751
  849MOL0     H17102   8.595   2.212   5.215 -0.6437 -5.5308 -3.4456
  849MOL0     H17103   8.535   2.505   5.109 -2.3214 -0.9003 -0.0051
  849MOL0     H17104   8.627   2.451   5.243  0.2828  1.2659  0.8802
  849MOL0     H17105   8.336   2.394   5.206 -0.4132  2.2305 -1.3377
  849MOL0     H17106   8.437   2.370   5.352 -1.2474 -0.6969  0.0422
  849MOL0     H17107   8.491   2.634   5.303  0.4594 -0.9184 -2.3832
  849MOL0     H17108   8.360   2.588   5.409  0.0503  2.9824 -0.0733
  849MOL0     H17109   8.312   2.616   5.114 -2.0288  0.2236 -1.6526
  849MOL0     H17110   8.195   2.602   5.236 -1.6877  1.8637 -2.2658
  849MOL0     H17111   8.155   2.771   5.426 -0.5315  1.7245  1.4752
  849MOL0     H17112   8.295   3.101   5.522 -1.1702  0.3247  1.5871
  849MOL0     H17113   8.182   2.978   5.584 -4.8169 -0.3834 -0.7273
  849MOL0     H17114   8.010   3.093   5.410 -0.7849 -0.5325  1.3414
  849MOL0     H17115   8.043   3.175   5.559  0.2174 -1.6234  0.4421
  849MOL0     H17116   8.218   3.319   5.431  1.9656 -4.9529  2.7023
  849MOL0     H17117   8.183   3.238   5.274 -1.8276  4.5329 -2.6958
  849MOL0     H17118   7.945   3.302   5.330 -0.5851  0.9518 -0.4266
  849MOL0     H17119   8.001   3.404   5.464  2.0732  0.8024  0.0400
  849MOL0     H17120   7.802   3.489   5.307  0.9552 -1.5311 -2.6954
  849MOL0     H17121   7.594   3.771   5.376  1.6836  0.4418  1.6504
  849MOL0     H17122   7.623   3.598   5.361  1.8325  0.3053  0.6159
  849MOL0     H17123   7.583   3.702   5.214  2.2227  0.1405 -1.5361
  849MOL0     H17124   7.431   3.926   5.070  0.4264 -0.4166  1.5472
  849MOL0     H17125   7.267   4.090   4.996 -1.7586  0.3032  2.8484
  849MOL0     H17126   7.150   4.382   5.180 -0.1149  1.8191  0.9501
  849MOL0     H17127   7.299   4.479   5.185  1.1798 -0.8248 -0.8395
  849MOL0     H17128   7.221   4.602   4.981 -0.5923  1.0086 -1.1839
  849MOL0     H17129   7.093   4.486   4.965 -3.7198  2.2028  1.5522
  849MOL0     H17130   7.020   4.568   5.188  6.3436 -0.7064  2.2245
  849MOL0     H17131   6.975   4.683   5.053 -0.5386 -0.4300 -0.9945
  849MOL0     H17132   7.203   4.782   5.140 -2.7090 -0.3263 -2.4735
  849MOL0     H17133   7.180   4.661   5.273 -0.4553 -1.3069 -0.4773
  849MOL0     H17134   6.968   4.769   5.337 -1.7724  3.2129 -0.3743
  849MOL0     H17135   7.104   4.851   5.379 -4.2360  2.0415  2.9168
  849MOL0     H17136   6.883   4.967   5.270  0.7551  1.7390 -0.3905
  849MOL0     H17137   6.958   4.924   5.112  2.0300 -2.3440  0.4326
  849MOL0     H17138   7.166   5.052   5.234 -0.8043 -1.4753  4.2882
  849MOL0     H17139   7.043   5.107   5.338  0.6731 -3.7822  1.4120
  849MOL0     H17140   7.113   5.256   5.122 -0.3665  1.1312 -3.4280
  849MOL0     H17141   6.930   5.224   5.139 -0.2884 -2.4940  1.8343
  849MOL0     H17142   7.524   4.394   5.183  1.3296 -0.4033 -1.0915
  849MOL0     H17143   7.669   4.238   5.274 -2.1880  0.5170  1.6954
  849MOL0     H17144   8.037   3.891   5.159 -0.7350 -1.0161 -2.4847
  849MOL0     H17145   8.160   3.673   5.210 -0.1500  0.0802  0.8405
  849MOL0     H17146   8.713   1.794   5.157  2.8431  1.2041 -0.6834
  849MOL0     H17147   8.585   1.598   5.099 -1.1653  3.0920  2.4834
  849MOL0     H17148   8.625   1.281   5.041  1.0237  1.2357 -0.9548
  849MOL0     H17149   8.703   1.073   4.970  0.5404 -0.1541  0.5463
  849MOL0     H17150   8.450   0.800   4.813 -2.1218 -1.0324 -1.5791
  849MOL0     H17151   8.448   0.861   4.648  0.8563 -0.1760 -0.2555
  849MOL0     H17152   8.677   0.749   4.607  2.9665 -0.9442  1.5190
  849MOL0     H17153   8.563   0.626   4.645  2.5319 -2.2508  0.4307
  849MOL0     H17154   8.784   0.725   4.828 -0.8086  1.8130  0.9551
  849MOL0     H17155   8.627   0.699   4.903  1.3779 -1.6241  1.8772
  849MOL0     H17156   8.781   0.519   4.920 -0.9556  1.5683  1.1117
  849MOL0     H17157   8.787   0.489   4.745  0.1159  3.6734 -0.6254
  849MOL0     H17158   8.415   0.323   4.829  1.1582 -2.0658  2.8908
  849MOL0     H17159   8.375   1.050   4.687  1.7654 -1.9381 -0.1378
  849MOL0     H17160   8.248   1.396   4.751 -0.1522  0.8834 -1.4271
  849MOL0     H17161   8.295   1.292   4.623  1.3213  3.7461  0.4903
  849MOL0     H17162   8.188   1.221   4.747 -1.3450  1.4238 -1.7722
  850MOL0     O17163   8.022   4.504   1.839  0.2301  0.4820  0.3914
  850MOL0     C17164   7.948   4.592   1.878  0.4227 -0.0526 -0.4883
  850MOL0     O17165   7.807   4.592   1.885  0.3988  0.6887 -0.1093
  850MOL0     C17166   7.740   4.494   1.813 -0.0303 -0.8371  0.1533
  850MOL0     C17167   7.767   4.442   1.685  0.3740  0.3937  0.5487
  850MOL0     C17168   7.699   4.337   1.632 -0.2769  0.3662 -0.3771
  850MOL0     C17169   7.597   4.273   1.715 -0.6971 -0.3141  1.1792
  850MOL0     O17170   7.527   4.169   1.675  0.3648  0.0541  1.5225
  850MOL0     C17171   7.565   4.114   1.550  0.3408 -0.0266  0.2364
  850MOL0     C17172   7.478   3.995   1.518  0.6003 -0.0287 -0.4564
  850MOL0     C17173   7.464   3.905   1.635  0.8063 -0.3544  0.3192
  850MOL0     C17174   7.346   3.813   1.601 -0.4888 -0.1838 -0.4584
  850MOL0     C17175   7.340   3.699   1.706 -0.6533  0.6697 -0.2271
  850MOL0     C17176   7.298   3.744   1.847 -0.6778 -0.0985  0.4702
  850MOL0     C17177   7.266   3.627   1.935  0.1561 -0.7133  0.3991
  850MOL0     C17178   7.384   3.527   1.946  0.3189  0.4583 -0.2320
  850MOL0     N17179   7.368   3.430   2.057 -0.3168 -1.0293 -0.0225
  850MOL0     C17180   7.412   3.443   2.192  0.0640 -0.6830 -0.3431
  850MOL0     C17181   7.400   3.320   2.241  0.1673  0.3779  0.5738
  850MOL0     C17182   7.420   3.280   2.384 -0.3132 -0.2405  0.6165
  850MOL0     C17183   7.559   3.332   2.443 -0.6332 -0.6491  0.4208
  850MOL0     C17184   7.678   3.284   2.361 -0.7548 -0.0438  0.8381
  850MOL0     C17185   7.819   3.329   2.406 -0.3121  0.2177 -0.2307
  850MOL0     O17186   7.811   3.470   2.408  0.0538  0.4553  1.2104
  850MOL0     C17187   7.906   3.532   2.477  0.2428 -0.1529  0.8436
  850MOL0     C17188   8.015   3.475   2.530  0.3144  0.6996  0.2924
  850MOL0     C17189   8.106   3.537   2.616  0.7486 -0.9781  0.8818
  850MOL0     C17190   8.220   3.456   2.668  0.0732  0.4658 -0.1300
  850MOL0     C17191   8.086   3.677   2.647 -0.2615  0.4947  0.5466
  850MOL0     C17192   8.177   3.753   2.738  0.8139  0.2738  0.1385
  850MOL0     O17193   8.141   3.889   2.736  0.4548  0.6532  0.3866
  850MOL0     C17194   8.185   3.966   2.839 -0.1766 -0.2412 -0.8925
  850MOL0     C17195   8.093   4.004   2.934  0.0156 -1.1269 -0.9296
  850MOL0     C17196   8.137   4.070   3.052  0.2844 -0.2123 -0.0388
  850MOL0     C17197   8.278   4.105   3.066  0.6927 -0.2949  0.1674
  850MOL0     O17198   8.325   4.162   3.178 -0.2822 -0.2877  0.8087
  850MOL0     C17199   8.254   4.127   3.292  0.5286  0.9460 -0.6818
  850MOL0     C17200   8.267   3.988   3.337  0.2278  0.0025 -0.9530
  850MOL0     C17201   8.151   3.961   3.443 -0.3151 -0.4520 -0.3151
  850MOL0     C17202   8.194   3.876   3.554  0.7130 -0.5338 -0.0242
  850MOL0     C17203   8.058   3.821   3.625  0.1042  0.8518  0.3661
  850MOL0     C17204   8.079   3.800   3.777 -0.2792  0.8433  0.5291
  850MOL0     C17205   7.956   3.742   3.839 -0.3615  0.2029  1.0654
  850MOL0     C17206   7.978   3.737   3.990 -1.1989  0.1651  0.8010
  850MOL0    Cl17207   7.849   3.643   4.079 -0.1238  0.6146 -0.0329
  850MOL0     C17208   8.370   4.071   2.957 -0.3871  0.6977  0.2942
  850MOL0     C17209   8.320   4.011   2.846  0.5225  0.4685 -0.7331
  850MOL0     O17210   8.252   3.700   2.819  0.0816 -0.1192 -0.7797
  850MOL0     C17211   7.978   3.741   2.583 -0.5208  0.4161 -0.0676
  850MOL0     C17212   7.893   3.672   2.498  0.5341 -0.3620  0.7288
  850MOL0     N17213   7.353   3.240   2.147 -0.1025 -0.2976  1.1468
  850MOL0     N17214   7.335   3.305   2.033 -0.3144 -0.4985 -0.3057
  850MOL0     C17215   7.551   4.342   1.821 -0.1603  1.2188 -0.2251
  850MOL0     C17216   7.621   4.450   1.870  0.2056 -1.4664  0.4206
  850MOL0     C17217   8.021   4.679   1.970  0.0186 -0.1168 -0.9325
  850MOL0     C17218   7.971   4.693   2.105 -1.0721 -0.2158  0.9613
  850MOL0     C17219   8.033   4.782   2.194 -0.0355  0.5473  0.4130
  850MOL0     C17220   8.148   4.858   2.145  0.8030  0.2895  0.6647
  850MOL0     O17221   8.222   4.947   2.218 -0.0669  0.1901 -0.7822
  850MOL0     C17222   8.152   5.003   2.330 -0.5946  0.2573  0.0743
  850MOL0     C17223   8.243   5.083   2.422 -0.2440  0.1605  0.7224
  850MOL0     C17224   8.363   4.996   2.477 -0.0109  0.4612  0.0155
  850MOL0     C17225   8.410   5.048   2.617 -0.4644 -0.2030  0.7465
  850MOL0     C17226   8.540   4.986   2.652  0.5768 -1.2097 -1.0208
  850MOL0     C17227   8.643   4.938   2.679  0.3146 -0.8779 -0.5394
  850MOL0     C17228   8.191   4.854   2.016  1.1950  0.4064 -0.4548
  850MOL0     C17229   8.133   4.762   1.927 -0.0271  0.8800 -1.1494
  850MOL0     C17230   8.191   4.753   1.787  0.6844 -0.1223 -0.3529
  850MOL0     H17231   7.843   4.490   1.623  0.2437 -0.3822 -0.2337
  850MOL0     H17232   7.727   4.301   1.534  0.2540 -0.8341  0.1886
  850MOL0     H17233   7.671   4.088   1.554  0.6237 -0.6618 -4.6764
  850MOL0     H17234   7.546   4.183   1.466 -2.6928 -0.2182  0.6331
  850MOL0     H17235   7.380   4.026   1.483  0.2791  2.5860  2.3132
  850MOL0     H17236   7.530   3.932   1.444  1.5377 -0.3887  0.4763
  850MOL0     H17237   7.557   3.849   1.647  0.1679 -1.8804 -1.4490
  850MOL0     H17238   7.443   3.957   1.729 -1.5594 -0.8732  0.1388
  850MOL0     H17239   7.252   3.865   1.618 -1.0127 -1.6560  1.6022
  850MOL0     H17240   7.339   3.778   1.498  1.7004 -0.3888 -0.5955
  850MOL0     H17241   7.432   3.641   1.716 -2.0086 -1.1657  2.9298
  850MOL0     H17242   7.265   3.629   1.668  0.5262  0.2362 -1.8588
  850MOL0     H17243   7.370   3.813   1.893 -1.4333  0.3640  0.9783
  850MOL0     H17244   7.207   3.802   1.833  1.9621  4.7367  0.9662
  850MOL0     H17245   7.179   3.580   1.888 -1.3590  2.1050  0.1157
  850MOL0     H17246   7.232   3.661   2.033 -1.1777  0.4483 -0.4298
  850MOL0     H17247   7.391   3.473   1.852  2.6053  0.8962 -0.3622
  850MOL0     H17248   7.474   3.587   1.959  0.8462 -0.2473 -0.5791
  850MOL0     H17249   7.446   3.535   2.239  2.4624 -0.5212 -2.1585
  850MOL0     H17250   7.387   3.175   2.389 -0.4859 -0.3662 -2.0220
  850MOL0     H17251   7.344   3.334   2.440  0.3190 -0.6001  1.8740
  850MOL0     H17252   7.550   3.441   2.442 -0.2451 -0.6088  0.9465
  850MOL0     H17253   7.569   3.314   2.550 -2.4645 -1.2644  0.5179
  850MOL0     H17254   7.692   3.175   2.364 -0.3132  0.0260  1.2821
  850MOL0     H17255   7.669   3.317   2.257  0.9635  0.7714  0.9154
  850MOL0     H17256   7.831   3.280   2.503  0.6900  0.2495 -0.3287
  850MOL0     H17257   7.899   3.288   2.344  0.7753 -0.9474  1.8364
  850MOL0     H17258   8.043   3.374   2.503 -0.9497  0.0136  1.3993
  850MOL0     H17259   8.220   3.354   2.629 -2.1272  1.1647 -2.2336
  850MOL0     H17260   8.201   3.459   2.776 -0.8424 -1.6800 -0.1784
  850MOL0     H17261   8.317   3.501   2.647 -0.9336  2.1165 -1.4663
  850MOL0     H17262   7.990   3.983   2.910 -0.4389  1.0193 -1.0928
  850MOL0     H17263   8.068   4.102   3.128  1.4478 -0.4041  1.1361
  850MOL0     H17264   8.304   4.179   3.374  2.0034 -0.5776 -0.5587
  850MOL0     H17265   8.157   4.175   3.309  0.0899 -0.8566  3.0892
  850MOL0     H17266   8.258   3.915   3.255 -0.9107 -0.9988  0.0293
  850MOL0     H17267   8.367   3.969   3.377  0.5173 -0.9818 -2.0612
  850MOL0     H17268   8.064   3.913   3.397 -2.4238 -0.0996  2.9577
  850MOL0     H17269   8.116   4.057   3.484  1.7635  0.4374 -0.4926
  850MOL0     H17270   8.261   3.932   3.620  0.8409 -0.8594  0.1246
  850MOL0     H17271   8.253   3.793   3.515  1.3832 -1.7554  3.2690
  850MOL0     H17272   7.973   3.888   3.607  0.5762  1.0254 -1.5074
  850MOL0     H17273   8.035   3.724   3.582  1.5369  0.0262  1.3774
  850MOL0     H17274   8.100   3.900   3.816 -2.9997  2.0773 -0.8827
  850MOL0     H17275   8.160   3.729   3.794  0.9179  1.5092 -1.9845
  850MOL0     H17276   7.942   3.646   3.787  1.6952  0.6726 -0.5453
  850MOL0     H17277   7.866   3.799   3.818 -0.2811  0.1652  0.5863
  850MOL0     H17278   7.971   3.835   4.038 -2.5967  0.3566  0.2351
  850MOL0     H17279   8.079   3.694   3.997 -0.7115  0.0152 -3.8273
  850MOL0     H17280   8.477   4.087   2.967 -0.3373  0.3579  0.2988
  850MOL0     H17281   8.390   3.980   2.769  0.4502  1.6418 -1.2999
  850MOL0     H17282   7.947   3.838   2.619  0.9715  0.3566  1.5198
  850MOL0     H17283   7.801   3.717   2.461  1.6831  1.9206  0.4607
  850MOL0     H17284   7.463   4.303   1.871  0.1043 -2.7429 -2.4860
  850MOL0     H17285   7.602   4.509   1.958 -0.4585 -1.2292  0.1185
  850MOL0     H17286   7.900   4.622   2.146  2.6768 -5.0462  0.0175
  850MOL0     H17287   7.990   4.804   2.291 -2.4006  1.1137 -0.6963
  850MOL0     H17288   8.069   5.060   2.289  1.1197  3.0575  0.2182
  850MOL0     H17289   8.117   4.926   2.400 -0.0087  1.2667  1.5392
  850MOL0     H17290   8.184   5.117   2.507 -1.2787 -0.2532  0.1810
  850MOL0     H17291   8.273   5.179   2.378 -3.2478  2.0413  2.3799
  850MOL0     H17292   8.336   4.890   2.477  3.6444 -0.6782 -2.6760
  850MOL0     H17293   8.447   5.002   2.409  1.6236 -0.7345  1.8143
  850MOL0     H17294   8.328   5.040   2.688 -0.1697  3.9833  1.8170
  850MOL0     H17295   8.432   5.156   2.614  1.0843 -0.5024 -0.5944
  850MOL0     H17296   8.737   4.891   2.702  0.3139 -0.4942  0.2942
  850MOL0     H17297   8.278   4.912   1.987  0.1184  2.0309 -0.5839
  850MOL0     H17298   8.279   4.816   1.771  1.2815 -0.8225  0.0683
  850MOL0     H17299   8.214   4.647   1.777  1.6784  0.1807 -1.4375
  850MOL0     H17300   8.110   4.791   1.724  0.0786  2.7631  1.9324
  851MOL0     O17301   1.757   0.962  11.471  0.2555  0.3561 -0.7566
  851MOL0     C17302   1.635   0.942  11.500 -0.1893  0.4165 -0.2509
  851MOL0     O17303   1.538   0.900  11.406 -0.0260 -0.3009 -0.1585
  851MOL0     C17304   1.587   0.880  11.268  0.8005 -1.4094 -0.3458
  851MOL0     C17305   1.613   0.999  11.193 -0.2521 -0.9786 -1.0512
  851MOL0     C17306   1.645   0.999  11.054 -0.5326 -0.3572  0.0004
  851MOL0     C17307   1.645   0.883  10.985  1.0408 -0.0621  0.2332
  851MOL0     O17308   1.691   0.895  10.851 -0.0532  0.2007  0.1061
  851MOL0     C17309   1.595   0.965  10.771 -0.5596  0.2089  0.5386
  851MOL0     C17310   1.657   1.085  10.705 -1.1725 -0.4616 -0.4482
  851MOL0     C17311   1.543   1.177  10.656  0.2226 -0.0135  0.0023
  851MOL0     C17312   1.600   1.289  10.564 -0.0208  0.3807 -0.4158
  851MOL0     C17313   1.497   1.376  10.480 -0.1562  0.1409  0.6922
  851MOL0     C17314   1.575   1.491  10.415  0.6220  0.5883 -0.6098
  851MOL0     C17315   1.491   1.601  10.357 -0.0026  0.8926  0.2424
  851MOL0     C17316   1.562   1.734  10.356  0.1894  0.2584  0.7241
  851MOL0     N17317   1.589   1.787  10.488  0.2664  0.3295  0.6880
  851MOL0     C17318   1.710   1.783  10.549  0.4669  0.2234 -0.2239
  851MOL0     C17319   1.698   1.825  10.679 -0.3308 -0.8790  0.0085
  851MOL0     C17320   1.820   1.826  10.768 -0.1334 -0.6943 -0.4763
  851MOL0     C17321   1.866   1.682  10.788  0.2238 -0.8629  1.0940
  851MOL0     C17322   1.765   1.563  10.795 -0.0678 -0.6646  0.3229
  851MOL0     C17323   1.831   1.435  10.842  0.7847  0.3078 -0.5600
  851MOL0     O17324   1.907   1.470  10.967 -0.2244 -0.2435 -0.4849
  851MOL0     C17325   1.966   1.364  11.016 -0.5933 -0.8197 -1.1028
  851MOL0     C17326   2.079   1.310  10.952 -0.2678  0.1089  0.2741
  851MOL0     C17327   2.142   1.195  11.010 -0.7119  0.4236  0.3343
  851MOL0     C17328   2.265   1.150  10.939 -0.4127  0.7382  0.5313
  851MOL0     C17329   2.099   1.145  11.134 -0.7998 -0.5006  0.3122
  851MOL0     C17330   2.166   1.035  11.210  0.0888 -1.3799 -0.3119
  851MOL0     O17331   2.177   1.044  11.345 -0.6709 -0.2473  0.4244
  851MOL0     C17332   2.213   0.927  11.412 -0.1473  0.1820 -0.0992
  851MOL0     C17333   2.340   0.902  11.449  0.0108  0.4519  0.1078
  851MOL0     C17334   2.378   0.800  11.534  0.9896  0.1686  0.6394
  851MOL0     C17335   2.275   0.741  11.616  0.2976  0.3890  0.0540
  851MOL0     O17336   2.308   0.670  11.736  0.2420 -0.5542  0.0605
  851MOL0     C17337   2.358   0.751  11.836 -0.2850 -0.4161  0.2753
  851MOL0     C17338   2.390   0.664  11.957  0.5800 -0.2009 -0.0723
  851MOL0     C17339   2.501   0.565  11.952 -0.8168  0.7364 -0.1234
  851MOL0     C17340   2.505   0.481  12.078 -0.3638 -0.1738  0.3669
  851MOL0     C17341   2.618   0.378  12.054  0.8216  0.6155  0.3470
  851MOL0     C17342   2.644   0.319  12.182 -0.0094  0.2377  0.3374
  851MOL0     C17343   2.750   0.218  12.160 -0.4775 -0.2704  0.2298
  851MOL0     C17344   2.710   0.081  12.090  0.5914 -0.8596 -0.2877
  851MOL0    Cl17345   2.630  -0.013  12.225  0.2029  0.4069  0.2855
  851MOL0     C17346   2.142   0.751  11.562  0.4906  0.3690  1.1665
  851MOL0     C17347   2.114   0.850  11.466  0.0811 -0.3356 -0.2014
  851MOL0     O17348   2.202   0.939  11.149  0.1192 -0.2359 -0.1547
  851MOL0     C17349   2.009   1.221  11.207 -0.0744 -0.1206  0.1482
  851MOL0     C17350   1.933   1.317  11.145  0.3470  0.0725  0.0658
  851MOL0     N17351   1.568   1.871  10.686 -0.5433 -0.0264  0.0864
  851MOL0     N17352   1.505   1.833  10.582  0.6828 -0.1170  1.1233
  851MOL0     C17353   1.615   0.766  11.060  0.3010  0.7342 -1.1079
  851MOL0     C17354   1.583   0.762  11.199 -0.5698  0.3653  0.9057
  851MOL0     C17355   1.599   0.943  11.645  0.1123  0.7573 -0.4049
  851MOL0     C17356   1.684   0.996  11.740  0.0099  0.2467  0.1021
  851MOL0     C17357   1.661   0.990  11.881  0.4642  0.5220  1.8989
  851MOL0     C17358   1.536   0.942  11.934 -0.7548  0.1211 -0.4991
  851MOL0     O17359   1.514   0.948  12.071 -0.4138 -0.2438 -0.3861
  851MOL0     C17360   1.531   1.077  12.144  0.2219 -0.0789 -0.3613
  851MOL0     C17361   1.410   1.170  12.112  0.2114  0.1368  0.8225
  851MOL0     C17362   1.271   1.110  12.164 -1.3621  0.0053  0.0137
  851MOL0     C17363   1.163   1.213  12.136  0.2344  0.2172  0.4304
  851MOL0     C17364   1.036   1.174  12.197  0.0790  0.0304 -0.4531
  851MOL0     C17365   0.932   1.140  12.255 -0.6236  0.4754 -0.0965
  851MOL0     C17366   1.451   0.888  11.840  0.1595  0.1471  0.1448
  851MOL0     C17367   1.481   0.884  11.699 -0.2771 -0.4340  0.9121
  851MOL0     C17368   1.375   0.820  11.608  0.9035 -1.7984  0.4474
  851MOL0     H17369   1.615   1.100  11.232 -2.7654 -0.1282 -2.8618
  851MOL0     H17370   1.661   1.090  10.997  0.7797 -0.3091  0.4075
  851MOL0     H17371   1.507   0.981  10.833 -2.1491 -1.1963 -1.2499
  851MOL0     H17372   1.567   0.893  10.693 -2.2482 -1.5595  2.6503
  851MOL0     H17373   1.720   1.139  10.775  2.3288 -2.5426 -1.7454
  851MOL0     H17374   1.716   1.048  10.621  1.5843  0.8625  0.7950
  851MOL0     H17375   1.473   1.115  10.599  0.5273 -2.5153  2.2092
  851MOL0     H17376   1.485   1.211  10.742 -0.7894 -1.6726  0.0157
  851MOL0     H17377   1.657   1.355  10.630  2.0507 -0.9112 -0.8256
  851MOL0     H17378   1.667   1.252  10.486 -0.6170  0.3269 -0.9104
  851MOL0     H17379   1.416   1.404  10.549 -0.2796 -0.5153  0.8256
  851MOL0     H17380   1.446   1.326  10.397 -0.8560  5.1200 -2.2442
  851MOL0     H17381   1.651   1.526  10.486  2.1848 -1.0145 -1.3971
  851MOL0     H17382   1.628   1.432  10.339  1.6648 -2.0381  1.9637
  851MOL0     H17383   1.401   1.613  10.418 -0.4782 -3.7671  0.8484
  851MOL0     H17384   1.471   1.566  10.255 -1.9181 -1.1781  1.2360
  851MOL0     H17385   1.653   1.719  10.297 -1.1860 -1.4963 -1.0723
  851MOL0     H17386   1.497   1.809  10.309 -1.7443 -0.3785  2.2381
  851MOL0     H17387   1.801   1.745  10.503 -0.8029 -1.1599 -1.7509
  851MOL0     H17388   1.803   1.855  10.872  0.5242 -0.6740 -0.3667
  851MOL0     H17389   1.890   1.898  10.725  0.6141 -0.7041  0.6765
  851MOL0     H17390   1.944   1.654  10.717  0.7232 -1.3743  1.8287
  851MOL0     H17391   1.922   1.693  10.882  0.7839  1.4705  0.5570
  851MOL0     H17392   1.704   1.598  10.879 -2.8092 -1.4659 -1.2252
  851MOL0     H17393   1.709   1.542  10.704  0.5930 -0.8985 -0.0341
  851MOL0     H17394   1.753   1.363  10.866  3.8841 -2.4308  2.5323
  851MOL0     H17395   1.894   1.393  10.763  0.8144 -1.8174  0.5332
  851MOL0     H17396   2.109   1.345  10.854 -0.6928 -1.0089 -0.2708
  851MOL0     H17397   2.335   1.119  11.018  1.4936  1.6666 -0.7096
  851MOL0     H17398   2.309   1.222  10.869  2.5823 -2.1751 -0.8590
  851MOL0     H17399   2.222   1.064  10.889 -3.2774  1.4369  1.6188
  851MOL0     H17400   2.423   0.955  11.402  3.9882 -2.5119  3.0503
  851MOL0     H17401   2.482   0.791  11.561  0.9092  0.1552  0.9484
  851MOL0     H17402   2.452   0.796  11.803  0.1901 -2.1078 -0.8223
  851MOL0     H17403   2.290   0.835  11.852 -0.3716 -0.3238 -0.5036
  851MOL0     H17404   2.420   0.728  12.040  1.9212 -0.4696 -0.3131
  851MOL0     H17405   2.298   0.614  11.988  0.2081  0.0239 -0.7778
  851MOL0     H17406   2.595   0.616  11.927  1.1523 -2.0242  1.0818
  851MOL0     H17407   2.485   0.493  11.871  0.6474  2.7685 -2.3753
  851MOL0     H17408   2.406   0.434  12.089 -1.9109  3.1919  2.4305
  851MOL0     H17409   2.531   0.533  12.171  0.4627 -2.9795  1.8357
  851MOL0     H17410   2.590   0.299  11.984  1.8919 -1.1230  1.7981
  851MOL0     H17411   2.699   0.438  12.011 -0.7232  3.3820  1.0374
  851MOL0     H17412   2.562   0.264  12.229  1.2523 -2.2395 -0.1485
  851MOL0     H17413   2.679   0.399  12.248 -0.7962  1.0547 -0.2196
  851MOL0     H17414   2.782   0.194  12.262 -1.9495  0.0484  0.7909
  851MOL0     H17415   2.831   0.272  12.110  1.4878  1.2978  4.5678
  851MOL0     H17416   2.810   0.045  12.063  1.7787  0.6180  1.7838
  851MOL0     H17417   2.648   0.092  12.001 -1.6251  1.7709  1.4181
  851MOL0     H17418   2.061   0.693  11.606  0.2599 -0.0838  0.1849
  851MOL0     H17419   2.010   0.873  11.446  0.6437  2.5319 -0.2485
  851MOL0     H17420   1.989   1.195  11.310  2.1540  0.6106  0.8259
  851MOL0     H17421   1.860   1.369  11.206  0.1058  0.3152 -0.4139
  851MOL0     H17422   1.618   0.669  11.012  0.1700  0.7601 -1.1696
  851MOL0     H17423   1.582   0.679  11.268  0.6169 -1.1285 -0.7714
  851MOL0     H17424   1.767   1.061  11.717 -0.6073  1.7883  1.9553
  851MOL0     H17425   1.738   1.024  11.951  0.9259 -1.3222  2.3535
  851MOL0     H17426   1.531   1.064  12.253 -0.2096  3.0843  0.1217
  851MOL0     H17427   1.630   1.120  12.125  0.8218 -0.5250  1.4809
  851MOL0     H17428   1.405   1.186  12.004  0.0143 -4.3003  0.0027
  851MOL0     H17429   1.425   1.270  12.153  0.4684  2.2720 -3.8621
  851MOL0     H17430   1.245   1.019  12.109  0.2375  0.5664 -1.8356
  851MOL0     H17431   1.280   1.086  12.270  3.5531  3.7765  0.8457
  851MOL0     H17432   1.145   1.238  12.031  0.4892 -6.5775 -1.7690
  851MOL0     H17433   1.193   1.294  12.203  0.9800 -0.7456  1.2891
  851MOL0     H17434   0.840   1.111  12.302  2.4112 -5.7781  3.1327
  851MOL0     H17435   1.359   0.842  11.873  0.5636 -1.4034 -0.7761
  851MOL0     H17436   1.410   0.729  11.557  0.6598 -2.2151  1.0188
  851MOL0     H17437   1.283   0.796  11.661 -0.6306  0.2227 -1.1197
  851MOL0     H17438   1.347   0.895  11.533  1.5694  0.8204  2.6663
  852MOL0     O17439   2.846   5.645   7.100 -0.1615 -0.5950  0.7272
  852MOL0     C17440   2.763   5.562   7.131 -0.2835 -0.7597 -1.1401
  852MOL0     O17441   2.717   5.544   7.269 -0.0898  0.0555 -0.6881
  852MOL0     C17442   2.784   5.620   7.357 -1.0235 -0.2797  0.1763
  852MOL0     C17443   2.724   5.738   7.406 -0.6184 -0.8764  0.1485
  852MOL0     C17444   2.795   5.820   7.497 -0.0701 -0.4555 -0.3026
  852MOL0     C17445   2.929   5.801   7.528  1.1211 -0.1407 -0.5208
  852MOL0     O17446   3.007   5.867   7.610  0.1374 -0.4261  0.2658
  852MOL0     C17447   2.964   6.004   7.626 -0.5305  0.9786  0.0921
  852MOL0     C17448   3.069   6.082   7.700 -0.4833  0.1862 -1.3443
  852MOL0     C17449   3.185   6.115   7.604  0.7366  0.4660 -0.8946
  852MOL0     C17450   3.275   6.193   7.698  0.5757  0.0894  0.7744
  852MOL0     C17451   3.395   6.269   7.625 -0.0105 -0.7654  0.7532
  852MOL0     C17452   3.515   6.184   7.599  0.2683  0.1104 -0.3882
  852MOL0     C17453   3.640   6.248   7.547 -0.2835  1.1466 -0.2715
  852MOL0     C17454   3.710   6.307   7.670  0.5247 -0.8681  0.0211
  852MOL0     N17455   3.830   6.389   7.640  1.0311 -0.5561  0.1264
  852MOL0     C17456   3.940   6.335   7.573  1.0503 -0.5507 -0.0945
  852MOL0     C17457   4.009   6.448   7.530  0.1372  0.6174  0.1574
  852MOL0     C17458   4.140   6.443   7.453  0.5051  0.3888  0.4076
  852MOL0     C17459   4.247   6.550   7.504 -0.3991 -0.5721  0.5310
  852MOL0     C17460   4.285   6.509   7.649  0.3588  0.1773  0.1002
  852MOL0     C17461   4.353   6.626   7.720  0.1606 -0.3843  0.8320
  852MOL0     O17462   4.455   6.693   7.633  0.2932 -0.4318  0.3637
  852MOL0     C17463   4.435   6.820   7.594 -0.8174  0.5395  0.1583
  852MOL0     C17464   4.428   6.928   7.676  0.1321  0.5044 -0.1798
  852MOL0     C17465   4.426   7.060   7.623  0.3010 -0.1821  0.0549
  852MOL0     C17466   4.416   7.179   7.727 -0.6408 -0.4087  0.8151
  852MOL0     C17467   4.418   7.070   7.481  0.1996  0.0831 -0.1051
  852MOL0     C17468   4.421   7.209   7.417 -0.4291 -0.1304  0.3572
  852MOL0     O17469   4.421   7.316   7.487 -0.4421 -0.4452 -0.1268
  852MOL0     C17470   4.484   7.427   7.429 -0.1331  0.3538  0.1739
  852MOL0     C17471   4.625   7.434   7.442 -0.8036  0.0134 -1.0020
  852MOL0     C17472   4.701   7.543   7.395 -0.5358  1.0704  0.3647
  852MOL0     C17473   4.631   7.644   7.323 -0.1046  0.1861  0.4871
  852MOL0     O17474   4.705   7.755   7.272 -0.0351  0.7824  0.1475
  852MOL0     C17475   4.655   7.829   7.161  0.3153  0.5732 -1.0300
  852MOL0     C17476   4.750   7.954   7.144 -0.2320 -0.7206 -0.2076
  852MOL0     C17477   4.751   8.018   7.001 -0.0832 -0.8931  0.4534
  852MOL0     C17478   4.796   8.163   7.002  0.4220 -0.0540 -0.4758
  852MOL0     C17479   4.756   8.229   6.864 -0.5754  0.1134 -0.3558
  852MOL0     C17480   4.767   8.384   6.868 -0.0269 -0.4040  1.3728
  852MOL0     C17481   4.793   8.457   6.724  0.4122  0.1018 -0.2179
  852MOL0     C17482   4.672   8.452   6.631  0.1094 -0.0514  0.3905
  852MOL0    Cl17483   4.691   8.536   6.476  0.1580  0.3472  0.2735
  852MOL0     C17484   4.490   7.641   7.328  0.5314  0.2247  0.7761
  852MOL0     C17485   4.414   7.535   7.371 -0.3198  0.2041  0.7552
  852MOL0     O17486   4.403   7.212   7.291 -0.9863 -0.7150 -0.0391
  852MOL0     C17487   4.411   6.961   7.401 -0.8277  0.0552 -1.2678
  852MOL0     C17488   4.418   6.832   7.455  0.4981 -0.4659 -0.6073
  852MOL0     N17489   3.938   6.560   7.566 -0.2567 -0.9533 -0.0685
  852MOL0     N17490   3.833   6.531   7.625  0.3616  0.1196 -0.0656
  852MOL0     C17491   2.980   5.676   7.473 -0.4488  0.2743  0.0038
  852MOL0     C17492   2.912   5.579   7.398  0.7506 -0.3254  0.0429
  852MOL0     C17493   2.711   5.470   7.030 -0.0868 -0.6013 -0.9439
  852MOL0     C17494   2.747   5.333   7.033 -0.3479  0.1700  0.8038
  852MOL0     C17495   2.694   5.237   6.941 -0.6589  0.5173  0.2774
  852MOL0     C17496   2.613   5.277   6.837  0.8814 -0.1666 -0.3404
  852MOL0     O17497   2.577   5.178   6.747  0.9525 -0.5278 -0.4282
  852MOL0     C17498   2.444   5.191   6.687 -0.1971  1.2145 -0.9581
  852MOL0     C17499   2.393   5.073   6.596 -0.1600 -0.0774 -1.0067
  852MOL0     C17500   2.366   4.933   6.665  0.6192  0.7541  0.3446
  852MOL0     C17501   2.487   4.857   6.715 -0.1730  0.6230 -0.0178
  852MOL0     C17502   2.567   4.790   6.602  0.4554 -0.2057 -1.1717
  852MOL0     C17503   2.617   4.729   6.513  0.6945 -0.0536 -0.3228
  852MOL0     C17504   2.574   5.414   6.833  0.4238 -0.0713 -0.7644
  852MOL0     C17505   2.623   5.510   6.927 -1.1267 -0.1897 -0.0134
  852MOL0     C17506   2.588   5.660   6.912 -0.4919  0.2474  0.9602
  852MOL0     H17507   2.622   5.753   7.372  0.1922 -1.3378 -2.7685
  852MOL0     H17508   2.731   5.890   7.550 -0.4798 -1.2925  0.3342
  852MOL0     H17509   2.869   6.009   7.680 -0.7164  1.4579 -0.2632
  852MOL0     H17510   2.945   6.050   7.528 -0.9278 -1.1260 -0.8705
  852MOL0     H17511   3.020   6.175   7.731 -0.0041  0.5511 -1.6661
  852MOL0     H17512   3.093   6.016   7.783 -1.7356  0.0599 -1.0517
  852MOL0     H17513   3.235   6.032   7.552 -0.8027 -2.2476  1.6436
  852MOL0     H17514   3.153   6.184   7.525 -0.3223 -2.5537 -3.2999
  852MOL0     H17515   3.222   6.266   7.760  2.6987  0.0362  2.7934
  852MOL0     H17516   3.308   6.118   7.770  2.5556  0.6037  0.4430
  852MOL0     H17517   3.426   6.344   7.699  1.3223 -1.9121  1.3919
  852MOL0     H17518   3.362   6.322   7.535  1.2032  1.4621  1.5343
  852MOL0     H17519   3.541   6.129   7.690 -0.4253 -1.9609 -1.3774
  852MOL0     H17520   3.483   6.115   7.520  1.1460  1.8090 -2.3385
  852MOL0     H17521   3.612   6.323   7.472  0.4052  0.1437 -1.5871
  852MOL0     H17522   3.705   6.168   7.510  0.4956  1.0429  1.2601
  852MOL0     H17523   3.645   6.383   7.715 -0.8805 -1.6062 -0.6948
  852MOL0     H17524   3.738   6.228   7.739 -0.8709 -1.6530 -0.2764
  852MOL0     H17525   3.961   6.230   7.554 -0.0482 -0.5030 -1.8121
  852MOL0     H17526   4.129   6.456   7.345  2.4685  2.0076  0.3524
  852MOL0     H17527   4.190   6.346   7.462 -1.0563 -0.4164  0.8393
  852MOL0     H17528   4.343   6.543   7.452 -0.9449  0.0688 -0.5912
  852MOL0     H17529   4.223   6.655   7.487  3.2333  0.4532  0.8375
  852MOL0     H17530   4.196   6.476   7.705  0.3440  1.6435  0.9910
  852MOL0     H17531   4.339   6.414   7.645  0.3291  0.1906 -0.8227
  852MOL0     H17532   4.294   6.712   7.752  3.8435  1.4940  3.3519
  852MOL0     H17533   4.407   6.591   7.808  3.2494  1.0234 -0.3508
  852MOL0     H17534   4.412   6.898   7.779 -2.9438 -0.3528 -0.8314
  852MOL0     H17535   4.496   7.251   7.713 -0.7098 -0.6065 -0.7706
  852MOL0     H17536   4.407   7.139   7.829  1.2926 -0.7510  0.8887
  852MOL0     H17537   4.323   7.227   7.694  0.1850  1.1721  0.7188
  852MOL0     H17538   4.680   7.344   7.468  3.6121  1.9821 -2.3970
  852MOL0     H17539   4.808   7.557   7.385  0.0101 -2.8168 -0.9753
  852MOL0     H17540   4.662   7.764   7.073 -0.1201 -3.0020  1.3179
  852MOL0     H17541   4.557   7.873   7.180  1.0320  1.0424  2.2377
  852MOL0     H17542   4.731   8.032   7.218 -0.8158 -0.6874 -0.3891
  852MOL0     H17543   4.854   7.923   7.158  0.3658  0.7633 -1.0930
  852MOL0     H17544   4.653   8.003   6.954 -0.0969  0.5318 -0.0069
  852MOL0     H17545   4.819   7.954   6.943  1.4739 -0.4876  1.7412
  852MOL0     H17546   4.905   8.166   6.996  0.4052  0.1846 -0.6727
  852MOL0     H17547   4.754   8.226   7.081 -3.9604  0.2144 -2.6866
  852MOL0     H17548   4.830   8.191   6.794 -1.0188  0.3554 -0.9586
  852MOL0     H17549   4.659   8.191   6.832  0.7340 -1.3849 -2.8746
  852MOL0     H17550   4.845   8.406   6.941  0.6600 -3.4330  1.6795
  852MOL0     H17551   4.682   8.437   6.912 -1.3180 -1.0329 -0.2315
  852MOL0     H17552   4.878   8.415   6.669 -0.7728 -0.3913 -1.7533
  852MOL0     H17553   4.811   8.560   6.756  0.7897 -0.6471  2.1450
  852MOL0     H17554   4.587   8.499   6.680 -0.7776  2.6854 -3.3088
  852MOL0     H17555   4.640   8.348   6.623  0.4255 -0.2910  1.9124
  852MOL0     H17556   4.437   7.729   7.292 -1.9128 -1.0789  1.0164
  852MOL0     H17557   4.307   7.547   7.357 -0.8241 -2.6598  1.4056
  852MOL0     H17558   4.400   6.965   7.293 -1.1183  0.1455 -1.2348
  852MOL0     H17559   4.418   6.748   7.386  1.1873 -0.2971 -0.8209
  852MOL0     H17560   3.084   5.677   7.503 -0.6008  0.4849  0.5309
  852MOL0     H17561   2.946   5.482   7.364  0.0014 -1.4723  2.3504
  852MOL0     H17562   2.815   5.286   7.103 -0.1894 -2.4355 -0.9674
  852MOL0     H17563   2.722   5.132   6.946 -0.5959  0.5868  1.9526
  852MOL0     H17564   2.366   5.187   6.764 -1.5217 -0.2403 -2.2943
  852MOL0     H17565   2.439   5.281   6.627  2.7846  1.4455 -1.0173
  852MOL0     H17566   2.471   5.049   6.524  1.2589 -0.6384  0.6558
  852MOL0     H17567   2.302   5.095   6.539 -0.5500 -2.5672 -1.4621
  852MOL0     H17568   2.296   4.936   6.749  0.2261 -2.1176  0.2342
  852MOL0     H17569   2.316   4.869   6.592  0.6451  1.7875 -0.6143
  852MOL0     H17570   2.450   4.778   6.782 -0.6455 -0.0528 -1.0501
  852MOL0     H17571   2.554   4.925   6.769  2.2721  0.6931 -2.8918
  852MOL0     H17572   2.648   4.664   6.435 -2.3227 -1.4250 -0.5394
  852MOL0     H17573   2.528   5.450   6.741 -2.9547 -2.3129 -0.1684
  852MOL0     H17574   2.503   5.679   6.978 -1.1953 -1.8848  0.7469
  852MOL0     H17575   2.671   5.728   6.936 -0.9046  0.2719  2.4532
  852MOL0     H17576   2.558   5.689   6.812 -2.5298 -1.7576  0.9218
  853MOL0     O17577   6.408   5.153   1.557 -0.4094 -0.2386 -0.3601
  853MOL0     C17578   6.485   5.186   1.466 -0.0303  0.4833 -0.0071
  853MOL0     O17579   6.488   5.133   1.341 -0.2134  0.6345 -0.1594
  853MOL0     C17580   6.383   5.056   1.304 -0.8005  0.0525 -0.2660
  853MOL0     C17581   6.404   4.925   1.267  0.0658  0.0728  0.3832
  853MOL0     C17582   6.311   4.843   1.210  0.0262 -0.9216 -0.4761
  853MOL0     C17583   6.196   4.902   1.174 -0.2465  1.1107  0.4365
  853MOL0     O17584   6.096   4.831   1.101  0.0908  0.8279 -0.2140
  853MOL0     C17585   5.971   4.814   1.168  0.3959 -0.5124 -0.0978
  853MOL0     C17586   5.973   4.677   1.235 -0.2821  0.5853 -0.6244
  853MOL0     C17587   6.008   4.561   1.146  0.0158 -0.2093  0.6105
  853MOL0     C17588   5.980   4.427   1.228  0.7970  0.2762  0.2671
  853MOL0     C17589   5.994   4.300   1.145  0.1439 -0.3614 -0.3199
  853MOL0     C17590   6.127   4.300   1.081 -0.4528  0.6097 -0.3219
  853MOL0     C17591   6.148   4.170   1.018 -0.4389 -0.0340  0.6444
  853MOL0     C17592   6.035   4.116   0.932 -0.2147  1.2789  0.0890
  853MOL0     N17593   6.071   3.982   0.876  0.4209 -0.0796  0.3362
  853MOL0     C17594   6.041   3.856   0.926  0.2736  0.4286 -0.4105
  853MOL0     C17595   6.099   3.774   0.837  0.6119 -0.3161  0.1019
  853MOL0     C17596   6.091   3.627   0.843 -0.0014 -0.2673  0.9815
  853MOL0     C17597   5.957   3.585   0.768  0.3031 -0.6154 -0.7284
  853MOL0     C17598   5.841   3.581   0.871 -0.1621  0.6129  0.7611
  853MOL0     C17599   5.693   3.573   0.818 -0.1638 -0.8285  1.3329
  853MOL0     O17600   5.617   3.632   0.918  0.1016 -1.0966  0.4880
  853MOL0     C17601   5.619   3.771   0.928  0.1689 -0.0678  0.7362
  853MOL0     C17602   5.605   3.818   1.055 -0.5738 -0.9565 -0.5389
  853MOL0     C17603   5.603   3.958   1.075  0.6066 -0.4497  0.7144
  853MOL0     C17604   5.582   4.006   1.209 -0.2997  0.0793 -0.0614
  853MOL0     C17605   5.622   4.047   0.962  0.3140 -0.9702  0.1854
  853MOL0     C17606   5.645   4.199   0.966  0.7145  0.4704  0.7069
  853MOL0     O17607   5.680   4.271   0.852  0.2188 -0.6954  0.3387
  853MOL0     C17608   5.657   4.406   0.830 -0.2539 -0.0392  0.7143
  853MOL0     C17609   5.672   4.447   0.693 -0.0323  0.8006 -0.2002
  853MOL0     C17610   5.656   4.583   0.651 -0.4537 -0.3756 -0.3274
  853MOL0     C17611   5.636   4.686   0.753  0.4187 -0.6637 -1.1230
  853MOL0     O17612   5.615   4.825   0.711 -0.0400  0.2378 -0.8661
  853MOL0     C17613   5.501   4.890   0.768  0.0925 -0.0164  1.2300
  853MOL0     C17614   5.384   4.903   0.659 -0.1376 -0.0133  0.6490
  853MOL0     C17615   5.283   5.004   0.699  0.0184  0.0094 -0.6625
  853MOL0     C17616   5.159   4.987   0.606  0.1941  0.7230 -0.0048
  853MOL0     C17617   5.038   5.070   0.646  0.2345  0.1650 -0.4563
  853MOL0     C17618   5.056   5.225   0.605 -0.3356  0.6641  0.1330
  853MOL0     C17619   4.959   5.319   0.667 -0.7258  0.2392 -1.0577
  853MOL0     C17620   4.978   5.343   0.822 -0.6130  1.1460 -0.3277
  853MOL0    Cl17621   5.121   5.464   0.854 -0.1660  0.5474 -0.2649
  853MOL0     C17622   5.641   4.647   0.884 -0.0288  0.6926 -0.2021
  853MOL0     C17623   5.638   4.511   0.923  0.0916  0.4299  0.3523
  853MOL0     O17624   5.644   4.249   1.076  0.3231 -0.0302 -0.3676
  853MOL0     C17625   5.624   3.996   0.835 -0.4901  0.2549 -0.4062
  853MOL0     C17626   5.624   3.851   0.816  0.1075  1.4861 -0.0640
  853MOL0     N17627   6.154   3.841   0.729  0.0885  0.9373 -0.2808
  853MOL0     N17628   6.144   3.969   0.758 -0.5154  0.1176 -0.1933
  853MOL0     C17629   6.173   5.037   1.198  0.5377  0.8967  0.2517
  853MOL0     C17630   6.261   5.119   1.271 -1.2908  0.7498  0.4501
  853MOL0     C17631   6.595   5.285   1.488 -0.4148  0.2073 -0.2888
  853MOL0     C17632   6.675   5.274   1.604  0.7019 -0.2954 -0.0211
  853MOL0     C17633   6.767   5.367   1.653 -0.6759 -0.2021 -0.2853
  853MOL0     C17634   6.794   5.474   1.560  0.8557  0.3833 -1.0224
  853MOL0     O17635   6.885   5.575   1.579  0.3926  0.7793  0.9628
  853MOL0     C17636   6.988   5.564   1.680  0.1051  0.4855  0.0632
  853MOL0     C17637   7.094   5.469   1.636  0.0101 -0.0479 -0.3883
  853MOL0     C17638   7.226   5.480   1.711 -0.2185  0.1802  0.1205
  853MOL0     C17639   7.232   5.376   1.826 -0.4248  0.0279  0.3236
  853MOL0     C17640   7.129   5.384   1.926  0.8319  0.2445  0.2019
  853MOL0     C17641   7.060   5.377   2.020  0.4519  0.0113 -1.1233
  853MOL0     C17642   6.718   5.487   1.442 -0.1033 -1.2082 -0.8042
  853MOL0     C17643   6.615   5.397   1.408  1.2069 -0.6612 -0.8233
  853MOL0     C17644   6.513   5.440   1.297 -0.7037  1.0104  0.3235
  853MOL0     H17645   6.498   4.876   1.291  0.7360  1.5765  0.9602
  853MOL0     H17646   6.335   4.739   1.189  1.1572 -0.7737 -0.0150
  853MOL0     H17647   5.882   4.818   1.105 -0.4838 -0.3977  1.1285
  853MOL0     H17648   5.954   4.882   1.252 -0.0380 -2.5040  1.4989
  853MOL0     H17649   6.035   4.686   1.325  1.0174  0.3256 -1.4595
  853MOL0     H17650   5.872   4.667   1.275  1.3529 -0.7706  3.8035
  853MOL0     H17651   5.947   4.566   1.055  2.0784 -0.3078 -0.8346
  853MOL0     H17652   6.115   4.567   1.124 -0.4901  1.4919 -1.7927
  853MOL0     H17653   6.054   4.433   1.308 -0.0862  4.3572  1.0233
  853MOL0     H17654   5.881   4.434   1.274  2.1561  0.7050  3.3848
  853MOL0     H17655   5.910   4.298   1.075 -0.0559 -5.2828 -0.2326
  853MOL0     H17656   5.983   4.210   1.205  0.6730  1.2982  2.4373
  853MOL0     H17657   6.122   4.382   1.009  0.1821  1.0262  0.0977
  853MOL0     H17658   6.210   4.310   1.152  1.4150 -4.5698 -1.3620
  853MOL0     H17659   6.166   4.096   1.097 -0.0744 -1.3243 -0.6041
  853MOL0     H17660   6.245   4.175   0.967 -0.2165  1.3485  1.1566
  853MOL0     H17661   5.956   4.096   1.005  3.0577 -1.9456  3.1969
  853MOL0     H17662   5.996   4.179   0.851 -0.4673  2.6698  1.2508
  853MOL0     H17663   5.992   3.820   1.016  2.7056 -1.1352  0.3900
  853MOL0     H17664   6.096   3.594   0.947 -1.7935 -2.2272  0.5351
  853MOL0     H17665   6.165   3.587   0.773 -3.3810 -0.1984 -3.0286
  853MOL0     H17666   5.922   3.650   0.687  0.8581  1.6623  0.7700
  853MOL0     H17667   5.981   3.486   0.727 -0.7756 -0.0594 -2.8191
  853MOL0     H17668   5.867   3.500   0.941  1.8213 -0.1490 -0.7480
  853MOL0     H17669   5.846   3.673   0.930 -5.1516  1.7147 -0.1472
  853MOL0     H17670   5.665   3.625   0.725 -0.7037 -4.6064 -0.8075
  853MOL0     H17671   5.658   3.470   0.805  0.8150 -1.1477  1.1442
  853MOL0     H17672   5.604   3.740   1.131  0.2524 -1.9161 -1.4857
  853MOL0     H17673   5.565   3.919   1.273  1.6014 -1.7717 -1.9050
  853MOL0     H17674   5.500   4.075   1.229  0.3965  0.8364  0.2343
  853MOL0     H17675   5.677   4.047   1.245 -1.0846  0.5055  1.6165
  853MOL0     H17676   5.705   4.369   0.625  3.0684  0.8971  1.0064
  853MOL0     H17677   5.677   4.628   0.555  1.4308 -1.9561 -0.6971
  853MOL0     H17678   5.458   4.847   0.858 -0.2746  0.9089  1.5084
  853MOL0     H17679   5.534   4.993   0.785  0.7340 -0.1908  1.0680
  853MOL0     H17680   5.426   4.922   0.559 -2.8974 -0.1693 -0.6412
  853MOL0     H17681   5.341   4.804   0.643  0.9421 -0.5537  0.9480
  853MOL0     H17682   5.316   5.108   0.689 -0.8830  0.3307 -0.3281
  853MOL0     H17683   5.264   4.995   0.807  2.7436  2.5121  0.1653
  853MOL0     H17684   5.141   4.880   0.591  3.8759  0.1176 -1.3854
  853MOL0     H17685   5.192   5.014   0.506 -0.9438  1.4161 -0.2052
  853MOL0     H17686   4.952   5.033   0.590 -0.0694  2.8271 -1.9088
  853MOL0     H17687   5.029   5.060   0.755 -0.0374  1.4852 -0.3444
  853MOL0     H17688   5.063   5.233   0.496  3.3383  0.6040  0.2539
  853MOL0     H17689   5.149   5.259   0.652  0.8940 -0.4404 -1.4031
  853MOL0     H17690   4.861   5.271   0.658  1.3072 -4.6063 -0.3658
  853MOL0     H17691   4.964   5.416   0.617 -0.5309 -1.4086 -4.4677
  853MOL0     H17692   5.001   5.244   0.862  1.5952  1.1839 -1.3698
  853MOL0     H17693   4.887   5.386   0.865 -1.8072 -0.6076 -1.0008
  853MOL0     H17694   5.621   4.713   0.967 -1.3110 -0.3108  0.3216
  853MOL0     H17695   5.628   4.476   1.026 -1.2385  2.7518  1.1079
  853MOL0     H17696   5.630   4.050   0.741 -0.5636  0.7376 -0.1363
  853MOL0     H17697   5.608   3.812   0.716  2.5318  1.9656 -0.7091
  853MOL0     H17698   6.076   5.074   1.168 -0.3323 -1.2186  0.2846
  853MOL0     H17699   6.234   5.221   1.294  1.3040  2.5726 -3.4476
  853MOL0     H17700   6.658   5.184   1.662 -3.4844 -0.0406 -0.5206
  853MOL0     H17701   6.820   5.364   1.747 -0.8877  1.8517 -0.0704
  853MOL0     H17702   7.038   5.661   1.690 -0.0467  0.6880 -1.0875
  853MOL0     H17703   6.937   5.549   1.776  1.2254  2.1355  0.9778
  853MOL0     H17704   7.123   5.487   1.532 -0.4558  1.5424 -0.2595
  853MOL0     H17705   7.060   5.365   1.642 -1.0188  0.2883 -0.2208
  853MOL0     H17706   7.308   5.464   1.640 -0.6256  0.4327 -0.4164
  853MOL0     H17707   7.244   5.576   1.761  0.8807 -1.2075  2.5219
  853MOL0     H17708   7.329   5.395   1.872  1.7528  1.7413 -4.3990
  853MOL0     H17709   7.241   5.280   1.775  1.9593 -0.5657  1.7041
  853MOL0     H17710   6.994   5.369   2.104  2.0629  2.0393  0.4386
  853MOL0     H17711   6.725   5.578   1.383 -0.5932 -1.9743 -2.0908
  853MOL0     H17712   6.562   5.442   1.199  0.7911  2.9247  1.0469
  853MOL0     H17713   6.432   5.367   1.285  0.3663  0.0612 -1.5371
  853MOL0     H17714   6.489   5.546   1.311  2.3525  1.9643 -0.8636
  854MOL0     O17715   3.349   9.650   8.707 -0.0420 -0.6087  0.5723
  854MOL0     C17716   3.403   9.685   8.807 -0.9156 -0.8944  0.2320
  854MOL0     O17717   3.482   9.798   8.821  0.3977  0.1827 -0.1548
  854MOL0     C17718   3.589   9.803   8.906 -0.2046  0.0551 -0.0766
  854MOL0     C17719   3.693   9.714   8.899  0.0650  0.6145  0.7335
  854MOL0     C17720   3.795   9.728   8.992  0.2023  0.5685  0.7185
  854MOL0     C17721   3.806   9.820   9.087  1.2226  0.0519  0.2613
  854MOL0     O17722   3.908   9.828   9.172 -0.0780 -0.0176 -0.3537
  854MOL0     C17723   3.899   9.789   9.315  0.1817  0.2049 -0.6202
  854MOL0     C17724   4.037   9.726   9.354  0.2653  0.4702  1.1885
  854MOL0     C17725   4.063   9.595   9.274  0.6850  0.4018  0.1942
  854MOL0     C17726   3.953   9.487   9.300  0.1867 -0.2637  0.4002
  854MOL0     C17727   4.028   9.354   9.306  0.3002  0.7063  0.6106
  854MOL0     C17728   3.941   9.234   9.335 -0.3732 -0.0657  0.3419
  854MOL0     C17729   3.821   9.212   9.237 -0.7791 -0.5946  1.0364
  854MOL0     C17730   3.868   9.206   9.096 -0.4600  0.3623 -0.2768
  854MOL0     N17731   3.753   9.182   9.018  0.1460 -0.6698 -0.0747
  854MOL0     C17732   3.671   9.072   9.012 -0.6753 -0.3574 -0.2884
  854MOL0     C17733   3.571   9.105   8.921 -0.1962 -0.4684 -0.5241
  854MOL0     C17734   3.445   9.029   8.890  0.0317 -0.3275  0.6008
  854MOL0     C17735   3.321   9.129   8.897 -1.1903  0.5843 -0.4770
  854MOL0     C17736   3.206   9.052   8.852  0.9158  0.3542 -0.9383
  854MOL0     C17737   3.079   9.125   8.890 -0.0187 -0.5640 -0.0439
  854MOL0     O17738   3.082   9.270   8.855  0.6515  0.2126  0.2338
  854MOL0     C17739   3.001   9.357   8.926  0.4162  0.0134 -0.2086
  854MOL0     C17740   2.903   9.304   9.017 -0.1297 -0.4419  0.1198
  854MOL0     C17741   2.810   9.398   9.074  0.5415 -0.2567 -0.0550
  854MOL0     C17742   2.687   9.357   9.163 -0.1517  0.7686  0.7519
  854MOL0     C17743   2.832   9.539   9.049  0.4886  0.2918  1.1202
  854MOL0     C17744   2.747   9.647   9.114 -0.4097  0.1601 -0.8716
  854MOL0     O17745   2.732   9.636   9.255  0.6003 -0.7043 -0.0977
  854MOL0     C17746   2.640   9.716   9.320  0.0718 -0.0547  0.0864
  854MOL0     C17747   2.682   9.771   9.434  0.0289 -1.2903 -0.3471
  854MOL0     C17748   2.604   9.857   9.511 -0.4021  0.0651 -0.3145
  854MOL0     C17749   2.467   9.880   9.468 -0.3125  0.2088  1.5800
  854MOL0     O17750   2.400   9.984   9.534 -0.0209 -0.1917  0.5330
  854MOL0     C17751   2.268   9.940   9.573  0.6234 -0.9447 -0.9852
  854MOL0     C17752   2.291   9.857   9.708  1.0856  1.1975  0.6537
  854MOL0     C17753   2.316   9.949   9.832 -0.4318  0.0238 -0.1360
  854MOL0     C17754   2.329   9.864   9.956 -0.7243  0.1102 -1.3307
  854MOL0     C17755   2.462   9.853  10.031 -0.4506 -0.5359 -0.9296
  854MOL0     C17756   2.565   9.764   9.961 -0.0097  0.8654  0.5826
  854MOL0     C17757   2.719   9.782   9.999  0.9683  0.8736  1.0959
  854MOL0     C17758   2.745   9.762  10.149  0.6365 -0.6071  0.4346
  854MOL0    Cl17759   2.918   9.754  10.179  0.2215  0.1231 -0.0952
  854MOL0     C17760   2.419   9.810   9.349  0.2757 -1.6888  0.1238
  854MOL0     C17761   2.500   9.724   9.280 -0.3290  0.4955 -0.3801
  854MOL0     O17762   2.709   9.741   9.045 -0.5648  0.8743 -0.6599
  854MOL0     C17763   2.933   9.584   8.963 -0.1824  0.0615  0.0706
  854MOL0     C17764   3.018   9.495   8.909  0.6547 -0.9281  0.1326
  854MOL0     N17765   3.617   9.218   8.846  0.5437 -0.8704  0.0478
  854MOL0     N17766   3.719   9.258   8.913  0.4260  0.4672 -1.1254
  854MOL0     C17767   3.696   9.911   9.096 -0.2027  0.3643  0.4273
  854MOL0     C17768   3.590   9.902   9.008  0.6037  0.5439  0.0359
  854MOL0     C17769   3.377   9.607   8.923 -0.3288 -0.2517  0.0319
  854MOL0     C17770   3.451   9.490   8.951 -0.9893  0.2458 -0.0238
  854MOL0     C17771   3.434   9.410   9.062  0.0728 -0.0232 -0.2847
  854MOL0     C17772   3.329   9.442   9.145  0.2682 -0.0929 -1.2714
  854MOL0     O17773   3.303   9.357   9.254 -0.2373  0.2927  0.1322
  854MOL0     C17774   3.171   9.366   9.322 -0.9224  0.5997  0.7624
  854MOL0     C17775   3.124   9.224   9.357 -0.3373 -0.0901  0.7216
  854MOL0     C17776   3.001   9.237   9.451 -0.0226 -0.0414  1.0902
  854MOL0     C17777   2.920   9.110   9.502 -0.6510  0.1802 -0.1030
  854MOL0     C17778   2.996   9.045   9.606 -0.7666 -0.3698  0.0639
  854MOL0     C17779   3.066   9.002   9.684  0.0753  0.7167  0.4010
  854MOL0     C17780   3.267   9.572   9.134  0.6751  0.3098 -0.6439
  854MOL0     C17781   3.291   9.649   9.017 -0.0999  0.2088 -0.0263
  854MOL0     C17782   3.223   9.786   9.015 -1.0970 -0.5263 -0.1386
  854MOL0     H17783   3.716   9.642   8.820 -0.8060  1.2201 -0.0860
  854MOL0     H17784   3.883   9.665   8.995 -0.6310 -0.5918  2.2445
  854MOL0     H17785   3.823   9.711   9.322  0.9685 -0.5181  0.1778
  854MOL0     H17786   3.889   9.877   9.378 -0.4718 -0.1338 -0.2378
  854MOL0     H17787   4.117   9.786   9.310 -0.6362 -1.3769 -3.6139
  854MOL0     H17788   4.043   9.713   9.462  0.2009  0.1071  1.1509
  854MOL0     H17789   4.071   9.601   9.165 -1.1441 -1.7031 -0.1142
  854MOL0     H17790   4.164   9.560   9.299  0.7315 -0.5573 -1.1955
  854MOL0     H17791   3.909   9.495   9.400  2.5444 -3.3616  1.8646
  854MOL0     H17792   3.883   9.496   9.216  3.9968 -1.2544 -3.2493
  854MOL0     H17793   4.101   9.371   9.385  2.4956  3.2284 -1.7575
  854MOL0     H17794   4.076   9.336   9.209  0.4560 -2.7455  1.2076
  854MOL0     H17795   3.984   9.134   9.337  0.9066  0.4518  3.3245
  854MOL0     H17796   3.899   9.257   9.433  2.3820 -1.8390  2.0483
  854MOL0     H17797   3.747   9.293   9.235 -0.0642  0.0587 -0.1329
  854MOL0     H17798   3.782   9.119   9.278 -0.1810 -0.2933  2.3388
  854MOL0     H17799   3.895   9.301   9.050 -0.1727 -0.3512 -1.6430
  854MOL0     H17800   3.958   9.146   9.078  0.6602  2.0361 -0.4458
  854MOL0     H17801   3.665   8.992   9.086  1.7754 -0.5902 -0.2427
  854MOL0     H17802   3.419   8.945   8.956 -2.5757 -0.7511 -0.7922
  854MOL0     H17803   3.456   8.984   8.791 -0.8145 -0.6300  0.6345
  854MOL0     H17804   3.294   9.161   8.998  0.6444  3.3481 -0.7586
  854MOL0     H17805   3.346   9.220   8.841 -0.2802  0.2255 -0.6697
  854MOL0     H17806   3.208   9.038   8.744 -1.5072  1.2874 -1.1600
  854MOL0     H17807   3.198   8.950   8.890  1.3358 -0.6389 -3.3392
  854MOL0     H17808   2.983   9.083   8.858 -0.5085  0.2658  0.3056
  854MOL0     H17809   3.078   9.108   8.998 -4.6098  0.4829  0.2883
  854MOL0     H17810   2.907   9.200   9.047  1.7405 -0.5806 -0.5327
  854MOL0     H17811   2.646   9.269   9.113  1.3597  1.7069 -2.3680
  854MOL0     H17812   2.599   9.421   9.159  0.1636  1.1465 -2.3037
  854MOL0     H17813   2.710   9.343   9.269 -2.0515  0.9987  1.2337
  854MOL0     H17814   2.786   9.760   9.464  0.4528 -1.6588 -1.8669
  854MOL0     H17815   2.654   9.913   9.590  0.7166 -1.4429  0.1005
  854MOL0     H17816   2.205  10.029   9.584  1.6520 -0.3205  0.2324
  854MOL0     H17817   2.228   9.872   9.498  0.8073 -1.7869 -0.3265
  854MOL0     H17818   2.206   9.789   9.722  0.5351  1.4349 -1.3220
  854MOL0     H17819   2.365   9.777   9.694 -1.4585 -1.3096  0.4828
  854MOL0     H17820   2.233  10.014   9.860 -1.6791 -0.8726 -1.5926
  854MOL0     H17821   2.400  10.016   9.813 -0.2759  0.9967  3.2150
  854MOL0     H17822   2.312   9.759   9.931  1.5291 -0.4324 -0.8740
  854MOL0     H17823   2.249   9.891  10.025 -0.1497  0.1167 -0.6463
  854MOL0     H17824   2.505   9.952  10.043 -1.6704 -0.2505  1.7818
  854MOL0     H17825   2.458   9.797  10.125 -0.8610 -1.5755 -1.5496
  854MOL0     H17826   2.564   9.786   9.854 -1.2131 -0.4523  0.2910
  854MOL0     H17827   2.524   9.663   9.972 -0.9889  1.4113  2.3273
  854MOL0     H17828   2.739   9.889   9.986 -1.2305  1.1338 -0.8553
  854MOL0     H17829   2.788   9.719   9.943 -1.2144 -2.4094  1.8395
  854MOL0     H17830   2.698   9.670  10.186 -1.5291  1.3981  3.1048
  854MOL0     H17831   2.699   9.843  10.206  2.0557 -0.0759  0.8560
  854MOL0     H17832   2.328   9.836   9.296  2.1466  0.4893 -2.3269
  854MOL0     H17833   2.445   9.686   9.194 -2.2539 -0.2753  1.1154
  854MOL0     H17834   2.947   9.687   8.929 -1.8814  0.3230  0.0624
  854MOL0     H17835   3.094   9.523   8.838  0.6115  0.1513  0.4897
  854MOL0     H17836   3.701   9.975   9.183 -1.5707  0.9791  0.0767
  854MOL0     H17837   3.516   9.981   9.016 -0.6232 -0.5920  0.1397
  854MOL0     H17838   3.516   9.454   8.872 -1.2988  1.4756 -0.8602
  854MOL0     H17839   3.488   9.319   9.088 -0.3880 -0.8194 -1.9836
  854MOL0     H17840   3.178   9.431   9.410  0.1176  1.0597  0.3557
  854MOL0     H17841   3.097   9.409   9.254  1.6981  1.1525 -1.9627
  854MOL0     H17842   3.207   9.178   9.411  1.1584  0.0036 -1.3910
  854MOL0     H17843   3.102   9.170   9.264 -1.5739  2.9791 -0.9045
  854MOL0     H17844   3.009   9.299   9.541 -1.1168  1.0457  0.4692
  854MOL0     H17845   2.928   9.294   9.392 -1.5073 -0.0399  2.8064
  854MOL0     H17846   2.893   9.042   9.420 -1.2175 -0.5701  0.6780
  854MOL0     H17847   2.821   9.118   9.547  0.0249 -4.0915  2.7902
  854MOL0     H17848   3.132   8.958   9.756 -0.7374 -0.6235  0.3447
  854MOL0     H17849   3.180   9.590   9.196 -0.2840  0.6954 -2.0433
  854MOL0     H17850   3.137   9.781   9.082 -0.1431  2.1871  1.4597
  854MOL0     H17851   3.294   9.861   9.051 -0.3949 -0.9080 -0.7068
  854MOL0     H17852   3.197   9.831   8.918  1.2710  0.6323 -0.2987
  855MOL0     O17853   6.155  10.569   4.302 -0.1857  0.0155  0.0740
  855MOL0     C17854   6.051  10.505   4.317 -0.0990 -0.3613  2.0943
  855MOL0     O17855   5.932  10.550   4.266 -0.4406  0.2450  0.2616
  855MOL0     C17856   5.919  10.645   4.163 -0.0586  0.1173  0.8101
  855MOL0     C17857   6.022  10.691   4.075 -0.4512 -0.0974 -0.1613
  855MOL0     C17858   5.988  10.752   3.958 -0.6274 -1.0014  0.4150
  855MOL0     C17859   5.853  10.783   3.926  0.9259 -0.5342 -0.1858
  855MOL0     O17860   5.826  10.863   3.810 -0.1017  0.7729  0.0346
  855MOL0     C17861   5.705  10.936   3.823 -0.5863  0.6427  0.8103
  855MOL0     C17862   5.696  11.020   3.700 -0.5686 -0.0215  0.1149
  855MOL0     C17863   5.556  11.083   3.661 -0.9619 -0.5438 -0.8633
  855MOL0     C17864   5.488  10.981   3.569 -0.5790 -0.3408 -0.2536
  855MOL0     C17865   5.352  11.030   3.525  0.2942 -0.2190  0.2845
  855MOL0     C17866   5.275  10.924   3.439  0.2384 -1.2408 -0.5364
  855MOL0     C17867   5.137  10.988   3.397 -0.3362 -0.0001  0.5765
  855MOL0     C17868   5.061  10.909   3.283  0.3528  0.8306  0.5187
  855MOL0     N17869   5.147  10.910   3.170 -0.7787 -0.0110  0.8357
  855MOL0     C17870   5.193  11.019   3.091  0.2374  1.0894  0.7627
  855MOL0     C17871   5.286  10.962   3.005  0.4100  0.9193 -0.0899
  855MOL0     C17872   5.380  11.040   2.914  0.1308  0.3742  0.2576
  855MOL0     C17873   5.337  11.038   2.774 -0.6518  0.4351  1.2346
  855MOL0     C17874   5.203  11.114   2.743 -0.3251  0.2798 -1.5653
  855MOL0     C17875   5.210  11.273   2.746  0.2631 -0.6539 -0.0687
  855MOL0     O17876   5.079  11.310   2.726  0.1363 -0.4460 -0.0325
  855MOL0     C17877   5.034  11.431   2.768 -0.6295  0.3751  0.2433
  855MOL0     C17878   5.113  11.534   2.827 -0.0722  0.6451  0.7556
  855MOL0     C17879   5.056  11.659   2.862 -0.2243 -0.5371 -0.0917
  855MOL0     C17880   5.140  11.756   2.938 -0.9214  0.6953  0.0732
  855MOL0     C17881   4.914  11.678   2.856 -0.8592  0.0104 -1.0156
  855MOL0     C17882   4.834  11.795   2.915  0.2770 -0.3491  0.3201
  855MOL0     O17883   4.696  11.789   2.894 -0.2589  0.6699 -1.2153
  855MOL0     C17884   4.623  11.906   2.907 -0.8492 -0.8053 -0.1424
  855MOL0     C17885   4.644  11.995   2.807  0.2274 -0.0552  0.1783
  855MOL0     C17886   4.588  12.125   2.802 -0.2890  0.0926  0.1564
  855MOL0     C17887   4.485  12.148   2.902 -0.0107 -0.3550  0.8279
  855MOL0     O17888   4.405  12.266   2.919 -0.5631 -0.2741  0.3296
  855MOL0     C17889   4.360  12.332   2.796 -0.3795  0.4049 -0.3921
  855MOL0     C17890   4.331  12.478   2.833 -0.8028 -0.4298 -0.5360
  855MOL0     C17891   4.257  12.560   2.721 -0.0957  0.0966 -0.0258
  855MOL0     C17892   4.343  12.587   2.598  0.3908 -0.4302  0.8173
  855MOL0     C17893   4.297  12.510   2.479 -0.1954  0.5368  0.3894
  855MOL0     C17894   4.348  12.540   2.338 -0.8643 -0.6049 -1.0893
  855MOL0     C17895   4.282  12.429   2.246  0.4200 -0.4825  0.5918
  855MOL0     C17896   4.363  12.428   2.106 -1.2801  0.0657 -0.2903
  855MOL0    Cl17897   4.409  12.595   2.068  0.1935  0.3625  0.3245
  855MOL0     C17898   4.456  12.050   2.995  0.6374  0.9512 -0.2401
  855MOL0     C17899   4.524  11.924   3.000 -0.8185  0.1507  0.3045
  855MOL0     O17900   4.893  11.898   2.958 -0.1213 -0.5211  0.4193
  855MOL0     C17901   4.838  11.573   2.801  0.7162  0.4084  1.0216
  855MOL0     C17902   4.899  11.454   2.766 -0.1719 -1.1731  0.2361
  855MOL0     N17903   5.292  10.822   3.034  0.8631 -0.2634  0.2704
  855MOL0     N17904   5.193  10.790   3.115 -0.2544  0.8533  0.5121
  855MOL0     C17905   5.752  10.724   4.008 -0.5597 -0.3491  0.4484
  855MOL0     C17906   5.788  10.654   4.121 -0.3520 -0.2724 -0.2549
  855MOL0     C17907   6.043  10.403   4.412  0.4417  0.6617 -1.0504
  855MOL0     C17908   5.912  10.372   4.451  0.4078  0.4070 -0.3508
  855MOL0     C17909   5.886  10.294   4.560 -0.7515  0.1788  0.0222
  855MOL0     C17910   5.989  10.255   4.642 -0.2114  0.2605 -0.6482
  855MOL0     O17911   5.975  10.192   4.767  0.0276  0.3221 -0.6924
  855MOL0     C17912   5.840  10.145   4.800  0.0615  0.6110  0.1520
  855MOL0     C17913   5.843  10.048   4.914  0.7692 -0.0684  0.3651
  855MOL0     C17914   5.706  10.006   4.945  0.4027 -0.4619 -0.4292
  855MOL0     C17915   5.688   9.881   5.032  0.2174 -0.5857  0.1456
  855MOL0     C17916   5.547   9.869   5.074 -0.1210 -0.4097  0.6823
  855MOL0     C17917   5.434   9.847   5.103 -0.6372 -0.3437  0.2147
  855MOL0     C17918   6.126  10.276   4.600  0.1519  0.0101  0.1717
  855MOL0     C17919   6.157  10.341   4.478  0.0071 -0.0885 -0.1889
  855MOL0     C17920   6.303  10.370   4.435  0.6058  0.3664 -0.3142
  855MOL0     H17921   6.122  10.658   4.105 -0.8562 -2.6876 -1.3381
  855MOL0     H17922   6.062  10.773   3.881 -0.4987  1.5895  1.1666
  855MOL0     H17923   5.723  10.992   3.915  0.8651 -0.2791  1.1283
  855MOL0     H17924   5.621  10.869   3.841 -1.6640  1.2720 -1.4770
  855MOL0     H17925   5.775  11.090   3.730  0.9293 -1.1468 -1.0833
  855MOL0     H17926   5.739  10.965   3.615  4.7652  1.8633  1.1713
  855MOL0     H17927   5.509  11.106   3.757  2.2593 -0.8617  0.9581
  855MOL0     H17928   5.576  11.176   3.608  0.8355 -0.9500 -0.9706
  855MOL0     H17929   5.541  10.964   3.475 -1.9627 -1.8775 -0.7815
  855MOL0     H17930   5.481  10.887   3.623 -2.2129  0.3458  0.7851
  855MOL0     H17931   5.363  11.122   3.467  2.4014  0.5789  1.8403
  855MOL0     H17932   5.282  11.049   3.607 -1.3676 -2.2102 -0.5448
  855MOL0     H17933   5.325  10.903   3.344 -3.8480  2.6391 -4.0123
  855MOL0     H17934   5.269  10.827   3.490 -1.2813 -0.1933  1.4538
  855MOL0     H17935   5.158  11.090   3.364  0.4619 -0.3058  0.1237
  855MOL0     H17936   5.086  10.994   3.494 -0.6688 -3.5551  0.7271
  855MOL0     H17937   5.048  10.806   3.315  0.3253  0.9255  0.8120
  855MOL0     H17938   4.962  10.954   3.266  0.9841  3.4073  2.9118
  855MOL0     H17939   5.164  11.123   3.103 -1.7112  0.9122 -1.5860
  855MOL0     H17940   5.478  10.993   2.926 -0.5877 -1.6003 -1.1423
  855MOL0     H17941   5.387  11.146   2.939  1.1617  0.4523 -0.3193
  855MOL0     H17942   5.417  11.075   2.710 -1.3423 -0.7757 -0.4008
  855MOL0     H17943   5.333  10.936   2.735  2.0748  1.0456 -0.8987
  855MOL0     H17944   5.175  11.091   2.640  0.6300 -0.3000 -1.7137
  855MOL0     H17945   5.124  11.091   2.814  0.4439  2.8076  0.2776
  855MOL0     H17946   5.243  11.300   2.847  1.2722 -1.2109 -0.2391
  855MOL0     H17947   5.277  11.329   2.681 -0.0403  3.4888  2.8160
  855MOL0     H17948   5.217  11.522   2.853  0.4952  1.6891 -0.8615
  855MOL0     H17949   5.240  11.714   2.936 -0.5125  1.6510 -0.1485
  855MOL0     H17950   5.116  11.776   3.043  3.7889  2.3674  1.0760
  855MOL0     H17951   5.145  11.848   2.878 -0.1979 -0.6324 -2.0197
  855MOL0     H17952   4.716  11.977   2.729 -1.3894  1.0790 -1.6676
  855MOL0     H17953   4.619  12.197   2.727 -4.6190  0.7504 -1.2490
  855MOL0     H17954   4.431  12.334   2.713 -1.5518 -0.1688 -1.4245
  855MOL0     H17955   4.267  12.284   2.766 -1.5137  1.7887  0.7766
  855MOL0     H17956   4.275  12.481   2.927 -3.4977 -7.1077 -1.4327
  855MOL0     H17957   4.432  12.520   2.846 -1.2167  1.1274 -2.0392
  855MOL0     H17958   4.233  12.659   2.763 -3.0105 -0.4264 -0.2390
  855MOL0     H17959   4.164  12.508   2.697  1.1031 -0.7773 -3.2903
  855MOL0     H17960   4.449  12.574   2.622  0.4347  2.0884  2.2742
  855MOL0     H17961   4.338  12.694   2.578  1.2726 -1.0053 -3.3330
  855MOL0     H17962   4.331  12.406   2.492  0.0289  0.7277  1.4071
  855MOL0     H17963   4.189  12.521   2.474 -0.4964 -1.2335  1.9047
  855MOL0     H17964   4.457  12.544   2.333 -0.5431  3.0056  2.8761
  855MOL0     H17965   4.308  12.637   2.307 -0.5284 -0.3599 -0.7664
  855MOL0     H17966   4.178  12.461   2.238  1.1240  1.5086 -3.2803
  855MOL0     H17967   4.287  12.326   2.282 -1.6455 -1.3880 -1.4758
  855MOL0     H17968   4.304  12.388   2.024  0.8746 -0.4754 -1.6452
  855MOL0     H17969   4.455  12.368   2.103 -3.0562 -2.7808 -1.6724
  855MOL0     H17970   4.389  12.087   3.072  2.1100  0.6740  1.2162
  855MOL0     H17971   4.497  11.855   3.078  1.0786 -0.4400  0.4846
  855MOL0     H17972   4.732  11.578   2.779  1.2062  0.7419 -1.7197
  855MOL0     H17973   4.850  11.362   2.735  2.0121 -1.6985 -2.0605
  855MOL0     H17974   5.648  10.751   3.997 -0.0349  1.4791 -0.3294
  855MOL0     H17975   5.706  10.617   4.182 -0.9648  3.3373  1.3796
  855MOL0     H17976   5.825  10.414   4.403  0.5733  0.4320 -0.6329
  855MOL0     H17977   5.782  10.290   4.591 -0.0261 -0.1826  2.6896
  855MOL0     H17978   5.772  10.228   4.821 -2.0368 -1.4282  2.0199
  855MOL0     H17979   5.813  10.091   4.709  1.9497 -1.9954  0.9989
  855MOL0     H17980   5.899  10.087   4.999 -0.3455  1.8536  0.2705
  855MOL0     H17981   5.890   9.963   4.863  1.2056 -0.2095  0.9977
  855MOL0     H17982   5.660  10.090   4.999  0.9391 -1.5035  1.7557
  855MOL0     H17983   5.656   9.994   4.848  0.4665 -0.1905 -0.4965
  855MOL0     H17984   5.744   9.878   5.126  0.3148  1.9159  0.2179
  855MOL0     H17985   5.713   9.791   4.974  2.2686  0.3162 -0.4596
  855MOL0     H17986   5.329   9.842   5.127 -0.4470  1.0859  1.3944
  855MOL0     H17987   6.211  10.262   4.666  1.3796  0.5828 -1.2396
  855MOL0     H17988   6.362  10.281   4.460  0.0254 -0.7078 -2.5072
  855MOL0     H17989   6.303  10.389   4.327 -0.3828  2.3049 -0.0019
  855MOL0     H17990   6.346  10.461   4.477  2.7089 -1.3493  1.5350
  856MOL0     O17991  10.724   4.039   7.782 -0.3452 -0.3822 -0.5517
  856MOL0     C17992  10.788   4.088   7.876 -0.6807  0.7887  0.3885
  856MOL0     O17993  10.813   4.021   7.989 -0.0232  0.9602 -0.0613
  856MOL0     C17994  10.755   3.901   8.028 -1.0126  0.3110 -0.4345
  856MOL0     C17995  10.757   3.871   8.166  0.1355 -0.3044  0.4655
  856MOL0     C17996  10.731   3.738   8.201 -0.0163 -0.9222  0.0847
  856MOL0     C17997  10.694   3.636   8.117  0.2308 -0.0169 -0.0505
  856MOL0     O17998  10.665   3.507   8.156 -1.1091 -0.4573  0.9790
  856MOL0     C17999  10.724   3.443   8.272  0.0334 -0.0534  0.3394
  856MOL0     C18000  10.647   3.334   8.334 -0.3703 -0.4786 -0.3460
  856MOL0     C18001  10.724   3.267   8.457  0.1392 -0.3643  0.3019
  856MOL0     C18002  10.674   3.136   8.504  0.6885  0.6165  0.6221
  856MOL0     C18003  10.771   3.050   8.569 -0.0866  0.7064  0.1300
  856MOL0     C18004  10.816   3.108   8.702  0.1304 -0.1703 -0.3441
  856MOL0     C18005  10.896   3.022   8.795  0.1033 -0.2390  0.1959
  856MOL0     C18006  11.050   3.026   8.743 -0.6055 -0.3839 -0.3100
  856MOL0     N18007  11.132   2.922   8.810 -0.0298  0.7324 -0.1687
  856MOL0     C18008  11.138   2.784   8.800  0.2528 -0.0615  0.5865
  856MOL0     C18009  11.222   2.755   8.898  0.0956  1.0418 -0.1035
  856MOL0     C18010  11.265   2.618   8.935 -0.4174  0.8459  0.3218
  856MOL0     C18011  11.226   2.584   9.075 -0.4852 -0.5515 -0.1368
  856MOL0     C18012  11.270   2.455   9.138  0.3992  0.3759 -0.3792
  856MOL0     C18013  11.405   2.394   9.092 -0.3203 -0.6403  1.2886
  856MOL0     O18014  11.399   2.331   8.963 -0.1412 -0.9431  0.5265
  856MOL0     C18015  11.517   2.338   8.882  0.0667  0.0898 -0.4824
  856MOL0     C18016  11.505   2.308   8.745  0.4495  0.1680 -0.5790
  856MOL0     C18017  11.612   2.322   8.655 -0.2130 -0.4397 -1.3730
  856MOL0     C18018  11.575   2.317   8.503  0.0075 -0.1900 -0.1209
  856MOL0     C18019  11.739   2.352   8.698 -0.3634  0.6466 -0.3533
  856MOL0     C18020  11.855   2.353   8.608  0.1806  0.5053  0.1392
  856MOL0     O18021  11.859   2.264   8.506  1.1120 -0.6891  0.4483
  856MOL0     C18022  11.971   2.269   8.433 -0.1020  0.1770 -0.8149
  856MOL0     C18023  12.098   2.223   8.493  0.0206  0.9765 -0.4508
  856MOL0     C18024  12.221   2.255   8.438  0.1372  0.2045 -0.3444
  856MOL0     C18025  12.219   2.307   8.307 -0.6381  0.7080 -0.5594
  856MOL0     O18026  12.346   2.323   8.246 -0.1702  0.3825  0.1597
  856MOL0     C18027  12.345   2.345   8.103 -0.6442 -0.1779  0.2751
  856MOL0     C18028  12.483   2.366   8.067 -0.7099 -0.6271 -0.2025
  856MOL0     C18029  12.512   2.401   7.923 -0.2769  0.5004 -0.3913
  856MOL0     C18030  12.646   2.355   7.872  0.2010  1.1034 -0.0517
  856MOL0     C18031  12.684   2.432   7.751 -1.2739 -0.5520 -0.2118
  856MOL0     C18032  12.786   2.352   7.667  0.9377  0.0806  1.1488
  856MOL0     C18033  12.920   2.352   7.736 -0.2420  1.2876  0.6138
  856MOL0     C18034  13.015   2.270   7.658 -0.0327 -0.3566 -0.4181
  856MOL0    Cl18035  13.068   2.366   7.508  0.4217  0.3305 -0.1397
  856MOL0     C18036  12.097   2.349   8.244  0.3354  1.1443 -0.5035
  856MOL0     C18037  11.976   2.331   8.307  0.8969 -0.5537 -0.0591
  856MOL0     O18038  11.929   2.444   8.625  0.1322 -0.7963 -0.3756
  856MOL0     C18039  11.753   2.375   8.840  0.7898 -0.2719 -0.9750
  856MOL0     C18040  11.648   2.375   8.931 -0.2547 -0.0829  0.3497
  856MOL0     N18041  11.265   2.858   8.969  0.8596  0.1947 -0.8644
  856MOL0     N18042  11.213   2.958   8.910 -0.0259 -0.4593 -0.4381
  856MOL0     C18043  10.688   3.663   7.986 -0.3514 -0.1575  0.5167
  856MOL0     C18044  10.728   3.790   7.941  0.2066 -0.7047  0.0960
  856MOL0     C18045  10.830   4.234   7.872  0.1274 -0.6122  0.2051
  856MOL0     C18046  10.857   4.291   7.748  0.8038  0.0684 -0.6204
  856MOL0     C18047  10.889   4.427   7.736  0.3835 -0.2385 -0.5415
  856MOL0     C18048  10.912   4.505   7.847  1.3135  0.1014 -0.4800
  856MOL0     O18049  10.964   4.622   7.841 -0.2569 -0.1582  1.1215
  856MOL0     C18050  10.877   4.722   7.775 -0.2320  0.2879  0.3625
  856MOL0     C18051  10.787   4.773   7.877  0.4950 -0.5515  0.4431
  856MOL0     C18052  10.866   4.804   8.005  0.8918  0.4127 -0.3319
  856MOL0     C18053  10.794   4.898   8.095 -0.0526 -0.0486 -0.6883
  856MOL0     C18054  10.789   5.036   8.046  0.5476 -0.3483 -0.0038
  856MOL0     C18055  10.783   5.154   7.998  0.0434  0.5849 -0.7488
  856MOL0     C18056  10.882   4.447   7.968 -0.2762 -0.7166  0.2369
  856MOL0     C18057  10.828   4.314   7.985  1.2154 -0.1395  0.3396
  856MOL0     C18058  10.772   4.277   8.123 -0.0655 -0.6581 -0.9878
  856MOL0     H18059  10.803   3.934   8.241  2.0430 -3.4657  2.2186
  856MOL0     H18060  10.738   3.724   8.309  3.0626 -2.4407 -0.2094
  856MOL0     H18061  10.709   3.524   8.343 -0.1712 -0.2812  0.5604
  856MOL0     H18062  10.826   3.405   8.272  0.1559 -0.1495  4.3876
  856MOL0     H18063  10.556   3.374   8.378  1.3408  0.8108  2.2570
  856MOL0     H18064  10.622   3.258   8.260 -1.1678 -0.2907 -0.2815
  856MOL0     H18065  10.830   3.260   8.434  0.5507  0.2943  1.8375
  856MOL0     H18066  10.731   3.336   8.542  0.3929 -0.2810  0.2151
  856MOL0     H18067  10.587   3.152   8.568  1.0426 -0.4372  1.4032
  856MOL0     H18068  10.649   3.089   8.408  1.6476  1.9015 -0.3031
  856MOL0     H18069  10.863   3.045   8.510 -0.1239  0.4192  0.0923
  856MOL0     H18070  10.724   2.953   8.591 -3.5015  1.8476 -1.4549
  856MOL0     H18071  10.879   3.192   8.673 -1.0852 -0.0881 -3.0234
  856MOL0     H18072  10.732   3.138   8.766  0.4608 -1.8463  0.9552
  856MOL0     H18073  10.856   2.920   8.801  3.9996 -1.8848  2.1786
  856MOL0     H18074  10.904   3.061   8.897  1.4977  1.1152 -0.4035
  856MOL0     H18075  11.056   3.008   8.635  0.6532 -0.6398 -0.2109
  856MOL0     H18076  11.086   3.126   8.767 -0.6192 -0.2889 -0.6791
  856MOL0     H18077  11.097   2.727   8.717 -1.8724  0.8556  0.9353
  856MOL0     H18078  11.373   2.609   8.917 -0.1830 -1.8689  2.4340
  856MOL0     H18079  11.215   2.550   8.865 -3.8760  3.6117 -0.1618
  856MOL0     H18080  11.281   2.654   9.140 -3.1309 -0.9918  2.8247
  856MOL0     H18081  11.120   2.604   9.089 -0.3150  1.0274 -0.9415
  856MOL0     H18082  11.258   2.465   9.246  0.4911 -0.3341 -0.2962
  856MOL0     H18083  11.187   2.396   9.098  0.2689  2.8166 -4.2753
  856MOL0     H18084  11.471   2.481   9.090  0.2863 -1.0147 -2.6557
  856MOL0     H18085  11.430   2.324   9.172 -1.3300 -0.9456  1.3530
  856MOL0     H18086  11.410   2.284   8.697  0.7250 -0.8271 -0.6500
  856MOL0     H18087  11.467   2.309   8.490 -0.0704  1.2539 -0.5103
  856MOL0     H18088  11.607   2.229   8.446 -4.4968 -2.5363  0.5189
  856MOL0     H18089  11.606   2.406   8.448 -3.1225  1.1574  0.0939
  856MOL0     H18090  12.080   2.167   8.584 -2.5665  0.7737 -1.0269
  856MOL0     H18091  12.315   2.226   8.484  0.3816 -2.2334 -2.1713
  856MOL0     H18092  12.289   2.261   8.061 -2.6950  1.0887  0.3597
  856MOL0     H18093  12.287   2.436   8.092 -1.5856 -0.3872  2.8239
  856MOL0     H18094  12.521   2.446   8.131 -1.5503  0.0645 -0.5515
  856MOL0     H18095  12.548   2.280   8.088  3.3028  2.8828  3.7083
  856MOL0     H18096  12.517   2.510   7.929 -1.0798  0.4528  3.2951
  856MOL0     H18097  12.433   2.356   7.861  0.4666 -3.0678  0.9981
  856MOL0     H18098  12.634   2.248   7.858  0.1914  1.0281  0.5141
  856MOL0     H18099  12.710   2.373   7.959 -2.4334  0.8530  2.0619
  856MOL0     H18100  12.588   2.441   7.697 -1.9422 -1.5012  0.7877
  856MOL0     H18101  12.734   2.523   7.785  0.5033 -2.1995  1.7743
  856MOL0     H18102  12.807   2.400   7.571  3.4049 -2.7855  0.1107
  856MOL0     H18103  12.760   2.251   7.637 -0.1552  0.8957 -0.8204
  856MOL0     H18104  12.916   2.309   7.837  3.5620  0.8648  0.7567
  856MOL0     H18105  12.962   2.452   7.748  1.3550  1.0718 -2.1980
  856MOL0     H18106  12.963   2.177   7.629 -0.1035 -0.7416  0.9014
  856MOL0     H18107  13.105   2.243   7.714  0.5178  0.8232 -0.7116
  856MOL0     H18108  12.095   2.406   8.151 -3.2928  1.0096 -0.6543
  856MOL0     H18109  11.888   2.366   8.255  0.0425 -0.0836  1.6017
  856MOL0     H18110  11.850   2.405   8.879 -0.4735 -0.2783  2.5399
  856MOL0     H18111  11.662   2.400   9.035 -1.1451 -1.6237  0.8796
  856MOL0     H18112  10.673   3.581   7.916 -0.4314  1.8072 -1.8606
  856MOL0     H18113  10.731   3.799   7.833 -0.7514 -2.7903 -0.1431
  856MOL0     H18114  10.845   4.228   7.660  1.2321 -1.3840  0.3154
  856MOL0     H18115  10.895   4.474   7.638  0.3430  0.5225 -0.1866
  856MOL0     H18116  10.945   4.798   7.735 -0.6578  1.2629  1.4742
  856MOL0     H18117  10.817   4.680   7.693 -1.0284 -0.2496  1.2100
  856MOL0     H18118  10.714   4.697   7.906  2.6529 -1.8369  2.9881
  856MOL0     H18119  10.730   4.863   7.850  0.3004 -1.3081 -1.8294
  856MOL0     H18120  10.887   4.710   8.057  2.4409  0.7071 -0.3691
  856MOL0     H18121  10.965   4.842   7.978  1.8282 -1.6971 -0.0369
  856MOL0     H18122  10.850   4.896   8.189  0.3123 -2.0707 -0.8928
  856MOL0     H18123  10.693   4.865   8.120  0.6328 -0.3357  1.9757
  856MOL0     H18124  10.767   5.246   7.945  0.0772  0.5536 -0.8142
  856MOL0     H18125  10.889   4.505   8.059  2.4044 -2.0017  0.9676
  856MOL0     H18126  10.717   4.364   8.160  1.9836 -0.4642  1.9640
  856MOL0     H18127  10.700   4.194   8.119  1.1797 -1.9967  1.6200
  856MOL0     H18128  10.866   4.256   8.175 -0.4193  0.0002 -0.0421
  857MOL0     O18129   6.916   2.027   8.787  0.3239 -0.0789  0.6732
  857MOL0     C18130   6.958   2.051   8.674  0.3958 -0.5000 -0.4584
  857MOL0     O18131   6.892   2.010   8.561 -0.6312 -0.0081 -0.0371
  857MOL0     C18132   6.779   1.933   8.581 -0.4364 -1.1219 -0.4187
  857MOL0     C18133   6.781   1.810   8.643 -0.3857  0.2539 -0.2676
  857MOL0     C18134   6.675   1.726   8.653  0.5048 -1.3682 -0.6975
  857MOL0     C18135   6.549   1.778   8.602 -0.6564  0.3519  0.6433
  857MOL0     O18136   6.441   1.692   8.585 -0.1150  0.6058  0.4305
  857MOL0     C18137   6.435   1.587   8.676  1.1494  0.5817  0.1438
  857MOL0     C18138   6.285   1.533   8.667  0.4968  0.5829  0.8185
  857MOL0     C18139   6.272   1.402   8.722  0.5162  0.2769 -0.5548
  857MOL0     C18140   6.288   1.409   8.881 -0.5636 -0.0785  1.0101
  857MOL0     C18141   6.278   1.268   8.950 -0.2678 -0.6121  0.2227
  857MOL0     C18142   6.411   1.190   8.921 -0.3803 -0.0042  0.6011
  857MOL0     C18143   6.419   1.050   8.995 -0.9984 -0.5789  0.9399
  857MOL0     C18144   6.541   0.970   8.928 -0.1037 -1.2273  0.2666
  857MOL0     N18145   6.569   0.854   9.011  0.0778 -0.8714  0.4519
  857MOL0     C18146   6.654   0.848   9.119 -0.9474 -0.6360 -0.6039
  857MOL0     C18147   6.648   0.721   9.165  0.9717  1.0122 -0.5774
  857MOL0     C18148   6.735   0.638   9.265 -0.0554 -0.0271 -0.8159
  857MOL0     C18149   6.824   0.535   9.184 -0.5363 -0.3003  0.2233
  857MOL0     C18150   6.905   0.454   9.288 -0.8949 -0.2506 -0.4424
  857MOL0     C18151   6.829   0.383   9.395 -0.1938  0.7590  0.2975
  857MOL0     O18152   6.914   0.275   9.453  0.6416 -0.1505  0.0451
  857MOL0     C18153   6.843   0.182   9.529 -0.1618  0.8555 -0.2599
  857MOL0     C18154   6.693   0.169   9.550  0.4564 -1.0071 -0.0639
  857MOL0     C18155   6.640   0.073   9.635  1.0399  0.0558  0.1196
  857MOL0     C18156   6.483   0.079   9.654 -0.1567 -0.4514  0.5858
  857MOL0     C18157   6.722  -0.012   9.713  0.3190 -0.4599  0.0495
  857MOL0     C18158   6.669  -0.094   9.823 -0.0628  1.0071  0.1551
  857MOL0     O18159   6.722  -0.219   9.802  0.1290  0.9226 -0.6801
  857MOL0     C18160   6.717  -0.308   9.908  0.9269  0.0618  0.8292
  857MOL0     C18161   6.702  -0.444   9.872  0.6184 -0.4334 -1.0375
  857MOL0     C18162   6.682  -0.551   9.964 -0.0782 -0.6740  0.3287
  857MOL0     C18163   6.644  -0.511  10.095 -0.4981 -0.1435  1.0577
  857MOL0     O18164   6.620  -0.614  10.180  0.2944 -0.9581 -0.5309
  857MOL0     C18165   6.538  -0.596  10.292  0.5734 -0.1989  0.1519
  857MOL0     C18166   6.495  -0.731  10.342  0.2811  0.5140 -0.7204
  857MOL0     C18167   6.614  -0.771  10.436 -0.9259  0.0003  0.5550
  857MOL0     C18168   6.713  -0.861  10.344 -1.2786  0.5511 -0.8862
  857MOL0     C18169   6.850  -0.899  10.403  0.2804  0.6129 -0.5533
  857MOL0     C18170   6.924  -0.995  10.305 -0.6148  0.5595 -1.2347
  857MOL0     C18171   7.053  -1.044  10.373 -0.4672  0.0466 -0.6546
  857MOL0     C18172   7.127  -1.138  10.274  0.0252  0.0027  0.2399
  857MOL0    Cl18173   7.184  -1.026  10.142 -0.1240 -0.2384 -0.2352
  857MOL0     C18174   6.657  -0.377  10.135 -0.0403  0.3075  0.3669
  857MOL0     C18175   6.709  -0.278  10.043  0.4325 -0.7472  0.6473
  857MOL0     O18176   6.573  -0.074   9.895 -0.1925 -0.2446  0.6477
  857MOL0     C18177   6.864  -0.010   9.678  0.2163 -0.7548  0.0567
  857MOL0     C18178   6.917   0.078   9.584 -0.9261 -0.0955  0.2163
  857MOL0     N18179   6.551   0.654   9.089 -0.4816  0.1781 -0.7523
  857MOL0     N18180   6.497   0.735   9.003  0.0316  0.4318  0.7670
  857MOL0     C18181   6.547   1.910   8.546 -0.8847 -0.3403  0.2273
  857MOL0     C18182   6.662   1.984   8.526  0.2750 -0.1870 -0.3507
  857MOL0     C18183   7.078   2.137   8.662  0.6228  0.4478 -0.6724
  857MOL0     C18184   7.163   2.159   8.771 -0.0154 -0.3593  0.1270
  857MOL0     C18185   7.290   2.230   8.760 -0.5158 -0.4134  0.6507
  857MOL0     C18186   7.343   2.266   8.633 -1.3627  0.8005  0.7349
  857MOL0     O18187   7.470   2.321   8.600  1.2037  0.3581  0.3345
  857MOL0     C18188   7.575   2.299   8.683  0.9017 -0.3214  0.2618
  857MOL0     C18189   7.618   2.160   8.658 -0.6566  0.7641 -0.3840
  857MOL0     C18190   7.742   2.124   8.745  0.3526  0.4162 -0.1572
  857MOL0     C18191   7.786   1.978   8.724  0.6191  0.4546  1.3932
  857MOL0     C18192   7.815   1.946   8.581  0.9134 -1.0004  0.3061
  857MOL0     C18193   7.808   1.926   8.462  0.5915  0.3005  0.3760
  857MOL0     C18194   7.255   2.226   8.523 -0.1261 -0.4609 -0.6668
  857MOL0     C18195   7.124   2.182   8.537 -0.0489  0.3951  0.3223
  857MOL0     C18196   7.040   2.193   8.406  0.3508 -0.0060  0.1049
  857MOL0     H18197   6.881   1.773   8.665 -0.2197 -1.6907 -3.6722
  857MOL0     H18198   6.674   1.623   8.686 -0.4600 -1.1418  0.0355
  857MOL0     H18199   6.446   1.615   8.781  1.2747  5.0442 -0.8518
  857MOL0     H18200   6.509   1.512   8.645  0.3395 -0.4452  0.6509
  857MOL0     H18201   6.218   1.593   8.729  1.9974  2.4161  0.7425
  857MOL0     H18202   6.241   1.546   8.568  2.5071 -0.0747 -0.2120
  857MOL0     H18203   6.168   1.370   8.710  0.6101 -1.4476  2.3236
  857MOL0     H18204   6.342   1.342   8.663 -0.4508 -1.7848  0.2968
  857MOL0     H18205   6.386   1.455   8.901  2.0537 -3.0301 -3.3339
  857MOL0     H18206   6.217   1.474   8.933 -1.1796 -1.4606  1.9792
  857MOL0     H18207   6.198   1.205   8.911  0.2728 -1.6218  0.7175
  857MOL0     H18208   6.272   1.283   9.058  4.1646 -2.2847  0.9240
  857MOL0     H18209   6.417   1.174   8.813  3.8663 -0.7853  0.7768
  857MOL0     H18210   6.497   1.257   8.930 -2.5344  3.1115 -0.3466
  857MOL0     H18211   6.322   1.001   8.982 -1.7331  0.7551  1.2285
  857MOL0     H18212   6.445   1.059   9.100 -3.5882  0.9408  1.5460
  857MOL0     H18213   6.502   0.940   8.830 -0.5515  0.2864 -0.0517
  857MOL0     H18214   6.627   1.032   8.901 -1.0727 -0.8406 -2.2432
  857MOL0     H18215   6.733   0.916   9.146 -3.6190  2.0210  1.2254
  857MOL0     H18216   6.673   0.592   9.342  1.1297  0.4758  0.4878
  857MOL0     H18217   6.798   0.702   9.328 -2.2578 -0.2926  1.8793
  857MOL0     H18218   6.769   0.467   9.118  1.1223 -1.5614  0.0931
  857MOL0     H18219   6.889   0.591   9.116 -2.1884 -2.4374 -3.3750
  857MOL0     H18220   6.944   0.374   9.224 -0.2414 -1.7759  1.7568
  857MOL0     H18221   6.983   0.514   9.335  0.0698 -0.5213 -1.6389
  857MOL0     H18222   6.805   0.450   9.477 -2.0282 -0.4558  0.8096
  857MOL0     H18223   6.736   0.348   9.350 -1.6284  2.5680  1.7314
  857MOL0     H18224   6.627   0.243   9.505 -0.1765 -1.3235  0.3282
  857MOL0     H18225   6.452   0.128   9.561 -0.1565 -1.8481 -0.1738
  857MOL0     H18226   6.463   0.135   9.746  2.1773  2.7709 -0.6859
  857MOL0     H18227   6.442  -0.022   9.656 -1.1056 -0.1059  3.3403
  857MOL0     H18228   6.675  -0.443   9.767 -1.5529  3.3407 -0.6162
  857MOL0     H18229   6.660  -0.656   9.951 -0.4923 -0.8869  2.3358
  857MOL0     H18230   6.576  -0.528  10.369 -2.1535  0.6668  0.8405
  857MOL0     H18231   6.442  -0.556  10.258  0.4478 -0.9745 -0.4222
  857MOL0     H18232   6.405  -0.739  10.403  1.1808  1.6290  0.8291
  857MOL0     H18233   6.493  -0.806  10.262  1.3826  1.2677 -1.4933
  857MOL0     H18234   6.578  -0.837  10.516 -1.0890 -0.1000  0.4010
  857MOL0     H18235   6.666  -0.688  10.485  0.9803 -0.8923  0.1127
  857MOL0     H18236   6.721  -0.807  10.249  0.9861  0.6537 -0.7008
  857MOL0     H18237   6.660  -0.956  10.334 -1.3829  0.7031 -1.8563
  857MOL0     H18238   6.906  -0.808  10.427  4.2474 -1.2002 -1.8702
  857MOL0     H18239   6.841  -0.962  10.491  3.2503 -3.3723 -2.7425
  857MOL0     H18240   6.959  -0.931  10.223 -2.4334  0.8115 -1.8635
  857MOL0     H18241   6.869  -1.082  10.269 -0.8057  0.1998 -0.0918
  857MOL0     H18242   7.029  -1.098  10.465 -1.3348  0.3435 -0.7001
  857MOL0     H18243   7.120  -0.962  10.401  1.0558 -0.4114 -2.7086
  857MOL0     H18244   7.051  -1.210  10.244  2.8305 -3.1054  0.0886
  857MOL0     H18245   7.215  -1.183  10.321 -0.0822  0.5045  0.9446
  857MOL0     H18246   6.641  -0.355  10.240 -5.0925 -1.7599  0.2933
  857MOL0     H18247   6.702  -0.173  10.069 -3.1016 -0.7434  0.1360
  857MOL0     H18248   6.934  -0.068   9.737  1.7216 -0.2466 -1.1771
  857MOL0     H18249   7.023   0.095   9.572 -1.0596  0.7068  0.1010
  857MOL0     H18250   6.453   1.952   8.514  0.0551 -0.0748 -2.3944
  857MOL0     H18251   6.655   2.076   8.468  0.6259 -0.3757 -0.6923
  857MOL0     H18252   7.141   2.117   8.869  1.8497 -1.8725 -0.0391
  857MOL0     H18253   7.337   2.251   8.856 -2.8683  1.0039  1.5685
  857MOL0     H18254   7.653   2.374   8.666 -0.1182  0.6104 -0.3926
  857MOL0     H18255   7.549   2.314   8.788 -1.8642 -4.6281  0.4847
  857MOL0     H18256   7.649   2.150   8.553  0.6419 -0.9659  0.1310
  857MOL0     H18257   7.539   2.087   8.680 -0.0163  0.2946  0.3718
  857MOL0     H18258   7.819   2.200   8.728 -0.2856  0.5931 -2.6740
  857MOL0     H18259   7.710   2.120   8.849 -0.5255 -2.8809 -0.4426
  857MOL0     H18260   7.700   1.918   8.756 -1.0831  1.0684 -1.5552
  857MOL0     H18261   7.860   1.963   8.803  0.7608 -1.4024  0.9594
  857MOL0     H18262   7.787   1.925   8.357  1.1868 -0.1143  0.2546
  857MOL0     H18263   7.290   2.242   8.421 -1.2228  0.3941 -0.9286
  857MOL0     H18264   7.100   2.255   8.338 -0.9759 -0.4152 -1.5075
  857MOL0     H18265   7.019   2.095   8.364  0.0221 -0.6000  1.6069
  857MOL0     H18266   6.939   2.234   8.417  0.1553  0.3246 -2.3215
  858MOL0     O18267  10.474   4.741  10.413  0.5809 -0.8057 -0.0291
  858MOL0     C18268  10.549   4.782  10.326  0.3120  0.6202 -0.2536
  858MOL0     O18269  10.677   4.756  10.312 -0.7006 -0.8167 -0.2351
  858MOL0     C18270  10.727   4.652  10.401  0.1185 -0.5861  0.7166
  858MOL0     C18271  10.835   4.667  10.489 -0.4998 -0.0036 -0.2991
  858MOL0     C18272  10.883   4.555  10.568 -0.7378  0.4266  0.5285
  858MOL0     C18273  10.818   4.428  10.558 -0.3085 -0.1883 -0.5832
  858MOL0     O18274  10.834   4.309  10.628 -0.2377 -0.3261  0.7862
  858MOL0     C18275  10.959   4.292  10.702 -0.5061 -0.4669  0.2842
  858MOL0     C18276  10.935   4.273  10.849 -0.6822  0.2685  0.1057
  858MOL0     C18277  10.988   4.387  10.927 -0.2611  0.0033  1.1045
  858MOL0     C18278  10.980   4.377  11.079  0.6817  0.4617  0.1941
  858MOL0     C18279  11.083   4.286  11.133  0.4585  0.6480 -0.3381
  858MOL0     C18280  11.075   4.279  11.284  0.9463  0.1199  0.0089
  858MOL0     C18281  11.068   4.414  11.354  0.0661 -0.0629  0.2901
  858MOL0     C18282  11.098   4.403  11.493  0.2458  0.1519 -0.5839
  858MOL0     N18283  11.114   4.532  11.560 -0.5849  0.3768  1.2502
  858MOL0     C18284  11.224   4.613  11.552  0.4109 -0.0182  0.2674
  858MOL0     C18285  11.199   4.713  11.641 -0.0789  0.7801  0.5922
  858MOL0     C18286  11.307   4.812  11.689  1.3120 -0.8072  0.0296
  858MOL0     C18287  11.286   4.940  11.604 -0.5352 -0.1432 -1.1022
  858MOL0     C18288  11.401   5.044  11.656  0.5146 -0.1596  0.0775
  858MOL0     C18289  11.367   5.117  11.789 -0.3579  0.1158  0.7310
  858MOL0     O18290  11.272   5.225  11.761 -0.1519  0.9293 -0.6816
  858MOL0     C18291  11.187   5.262  11.861  0.9177  0.2046  0.0153
  858MOL0     C18292  11.121   5.383  11.831 -0.6690 -1.3852 -0.3451
  858MOL0     C18293  11.013   5.429  11.903 -0.1039  0.2721 -0.7169
  858MOL0     C18294  10.972   5.576  11.869 -0.2815 -0.3589 -0.9897
  858MOL0     C18295  10.964   5.334  12.005  0.0419 -0.2258  0.5443
  858MOL0     C18296  10.840   5.372  12.083  0.1342 -0.3553 -0.2126
  858MOL0     O18297  10.820   5.291  12.193  0.1357  0.7418  0.6965
  858MOL0     C18298  10.704   5.265  12.257  0.6056  0.3689  0.3874
  858MOL0     C18299  10.585   5.342  12.241 -1.1525 -0.0555  0.3402
  858MOL0     C18300  10.491   5.338  12.345 -0.3876 -0.1351  1.4208
  858MOL0     C18301  10.507   5.254  12.458  0.3837 -0.2375 -0.3570
  858MOL0     O18302  10.402   5.244  12.555  0.5183 -0.0780  0.5218
  858MOL0     C18303  10.412   5.249  12.699 -1.2297  0.1559 -1.1977
  858MOL0     C18304  10.392   5.111  12.764 -0.5608  0.0735 -0.8645
  858MOL0     C18305  10.242   5.067  12.809  0.0030  1.1469  0.1685
  858MOL0     C18306  10.168   4.988  12.697 -0.5781 -0.2289 -0.2623
  858MOL0     C18307  10.099   5.086  12.599 -0.2011  0.4308  0.4721
  858MOL0     C18308   9.973   5.033  12.527 -0.3947 -0.1992 -0.0124
  858MOL0     C18309  10.012   4.924  12.426 -0.0349 -0.5052 -0.4714
  858MOL0     C18310   9.899   4.884  12.342  0.4250 -0.8411  0.1958
  858MOL0    Cl18311   9.886   4.991  12.198  0.3401 -0.0376 -0.0393
  858MOL0     C18312  10.632   5.176  12.477  1.3210 -0.5429  0.4119
  858MOL0     C18313  10.718   5.183  12.371 -0.7685 -0.5330 -0.1028
  858MOL0     O18314  10.769   5.470  12.054  1.0825  0.2076 -0.5208
  858MOL0     C18315  11.025   5.225  12.041 -0.0451 -0.3799  0.3342
  858MOL0     C18316  11.138   5.189  11.973  0.2017  0.6873  0.5738
  858MOL0     N18317  11.068   4.692  11.695  0.6309 -0.3836  0.8893
  858MOL0     N18318  11.024   4.584  11.646 -0.3912  1.2927  1.4161
  858MOL0     C18319  10.703   4.414  10.474 -1.2522  0.1563 -0.5596
  858MOL0     C18320  10.663   4.520  10.393 -0.0777  0.8838  0.4945
  858MOL0     C18321  10.483   4.872  10.231  0.7763 -0.0100  0.0978
  858MOL0     C18322  10.337   4.875  10.216  0.3675 -0.2552 -1.2366
  858MOL0     C18323  10.270   4.946  10.110 -0.1270 -0.1775 -0.2820
  858MOL0     C18324  10.359   5.021  10.024  1.4935 -0.0456 -0.0956
  858MOL0     O18325  10.308   5.108   9.930 -0.4671  0.5184  0.3461
  858MOL0     C18326  10.164   5.119   9.899  0.5070  0.3918  0.1759
  858MOL0     C18327  10.123   5.177   9.763 -0.8813  0.6718  0.0681
  858MOL0     C18328  10.130   5.330   9.740 -0.5457  0.1792 -0.7524
  858MOL0     C18329  10.086   5.366   9.595 -0.1946 -0.2989  0.1463
  858MOL0     C18330  10.154   5.484   9.536  0.1288  0.8486 -0.6859
  858MOL0     C18331  10.195   5.574   9.470 -0.6822  0.1479  0.5095
  858MOL0     C18332  10.494   5.009  10.029 -0.3899 -0.3035 -0.1828
  858MOL0     C18333  10.553   4.937  10.127 -0.1498 -0.7196  0.6193
  858MOL0     C18334  10.709   4.943  10.118 -1.1752 -0.5600 -0.2692
  858MOL0     H18335  10.891   4.759  10.494  1.1214 -0.7691 -2.3570
  858MOL0     H18336  10.971   4.555  10.631  1.3986 -2.7892 -2.1507
  858MOL0     H18337  11.032   4.373  10.698  0.3102 -1.0435  2.1303
  858MOL0     H18338  11.003   4.204  10.655 -1.5974 -0.2073 -1.3020
  858MOL0     H18339  10.828   4.273  10.875 -0.7221  2.2065  0.0904
  858MOL0     H18340  10.973   4.180  10.891  2.0165 -0.3640 -3.3065
  858MOL0     H18341  11.093   4.418  10.919 -0.9639  2.3292 -0.0790
  858MOL0     H18342  10.933   4.472  10.885 -1.9074 -0.6075  1.9126
  858MOL0     H18343  11.006   4.474  11.124  3.3308  0.5411 -1.2659
  858MOL0     H18344  10.877   4.346  11.096 -0.1868  1.8604 -2.0609
  858MOL0     H18345  11.181   4.328  11.109 -0.2127  2.0345 -0.7641
  858MOL0     H18346  11.089   4.187  11.088 -0.6508  0.8442 -0.9446
  858MOL0     H18347  10.981   4.223  11.295 -0.2941  1.4529 -2.7702
  858MOL0     H18348  11.160   4.229  11.332  1.3132  0.2347 -0.5142
  858MOL0     H18349  10.975   4.470  11.342 -0.5424 -1.0213  0.4203
  858MOL0     H18350  11.146   4.475  11.308  1.2222 -1.8819 -0.3117
  858MOL0     H18351  11.010   4.356  11.538 -1.8718  0.6550 -3.8685
  858MOL0     H18352  11.181   4.339  11.523 -1.7486 -1.9561  0.8199
  858MOL0     H18353  11.312   4.585  11.495  0.1210 -1.5330  0.5282
  858MOL0     H18354  11.412   4.783  11.683  1.5114 -0.0109 -0.3562
  858MOL0     H18355  11.294   4.832  11.796  2.0956 -0.3879  0.0515
  858MOL0     H18356  11.301   4.918  11.498 -1.9798  3.5862 -2.2076
  858MOL0     H18357  11.186   4.981  11.617 -0.8516 -1.6244  2.0167
  858MOL0     H18358  11.494   4.986  11.663 -0.9834 -3.1573 -2.1744
  858MOL0     H18359  11.424   5.115  11.575  2.7141  0.6555  1.3309
  858MOL0     H18360  11.336   5.044  11.864  2.1066  0.1933  1.9166
  858MOL0     H18361  11.451   5.172  11.832 -1.0021  2.5522 -0.8899
  858MOL0     H18362  11.157   5.447  11.752  1.9010 -0.2670  1.5848
  858MOL0     H18363  10.867   5.598  11.892 -1.1777 -3.1684 -1.9382
  858MOL0     H18364  10.983   5.597  11.762  0.3934  1.9532 -0.5147
  858MOL0     H18365  11.041   5.642  11.922  0.8477 -2.0858 -0.2242
  858MOL0     H18366  10.577   5.412  12.158  3.4706  0.6734  0.2553
  858MOL0     H18367  10.404   5.402  12.352 -0.4576 -0.1238  0.5474
  858MOL0     H18368  10.500   5.298  12.742 -0.4997  2.3110 -4.7386
  858MOL0     H18369  10.325   5.297  12.746 -1.0264  1.0946 -1.7488
  858MOL0     H18370  10.440   5.032  12.706  1.7330 -2.2283  3.5906
  858MOL0     H18371  10.446   5.119  12.859 -2.0480 -0.6593  0.0938
  858MOL0     H18372  10.178   5.128  12.873 -0.2625 -1.3904  2.4929
  858MOL0     H18373  10.257   4.985  12.879  1.8841  1.7917  0.5684
  858MOL0     H18374  10.101   4.918  12.749  1.2104 -1.6586  0.1970
  858MOL0     H18375  10.242   4.934  12.638 -0.6194 -0.3520 -0.2022
  858MOL0     H18376  10.071   5.175  12.658 -1.2012  0.0367  0.5995
  858MOL0     H18377  10.168   5.127  12.524 -0.6407  0.7456  0.2376
  858MOL0     H18378   9.922   5.108  12.466 -0.2728 -0.0959  0.0134
  858MOL0     H18379   9.906   4.991  12.602 -1.1619  0.4433 -0.3311
  858MOL0     H18380  10.047   4.834  12.478  2.0227  1.6696  2.2623
  858MOL0     H18381  10.106   4.954  12.377  0.1814 -1.1882 -0.4839
  858MOL0     H18382   9.816   4.885  12.413  1.0586  2.7348  1.0968
  858MOL0     H18383   9.924   4.785  12.303  1.5405 -0.2980 -0.5154
  858MOL0     H18384  10.651   5.128  12.572  0.8501 -1.1338  0.2083
  858MOL0     H18385  10.815   5.136  12.388 -0.7149 -0.6101 -0.6200
  858MOL0     H18386  10.991   5.162  12.122  0.9559 -1.4183 -0.0273
  858MOL0     H18387  11.192   5.096  11.989 -0.0957  0.3303 -0.3981
  858MOL0     H18388  10.661   4.314  10.478  1.9329 -1.3013 -0.3348
  858MOL0     H18389  10.585   4.488  10.325  0.7419 -1.1073  0.3985
  858MOL0     H18390  10.274   4.811  10.277 -0.4443  0.4788 -1.2844
  858MOL0     H18391  10.163   4.944  10.094  0.0166  0.6302 -1.4467
  858MOL0     H18392  10.112   5.023   9.894 -0.8235  1.1388 -2.8453
  858MOL0     H18393  10.124   5.186   9.975  2.0029  2.4327 -0.7356
  858MOL0     H18394  10.021   5.153   9.732 -0.5217  0.0764 -0.7085
  858MOL0     H18395  10.194   5.134   9.692 -1.6011  1.2646 -1.0408
  858MOL0     H18396  10.070   5.389   9.810  0.9029  1.9768 -0.9482
  858MOL0     H18397  10.235   5.356   9.759 -0.6944  0.6781 -0.5920
  858MOL0     H18398   9.978   5.381   9.593 -0.2443 -0.1833  1.9342
  858MOL0     H18399  10.102   5.286   9.522  1.6886  0.0683  0.0932
  858MOL0     H18400  10.239   5.657   9.418 -1.7596 -0.1487 -0.9342
  858MOL0     H18401  10.558   5.061   9.958  0.8133  0.5337  1.4315
  858MOL0     H18402  10.746   4.841  10.107 -2.4802 -1.0573 -0.2077
  858MOL0     H18403  10.752   5.010  10.043  4.1149 -1.9133  1.1373
  858MOL0     H18404  10.735   4.986  10.216 -0.9670  1.0323 -0.9870
  859MOL0     O18405   8.565  10.386   2.382 -1.1520 -0.4740 -1.1299
  859MOL0     C18406   8.465  10.386   2.318  0.7045 -0.6747  0.7430
  859MOL0     O18407   8.373  10.283   2.317 -0.3930 -1.1304 -0.7562
  859MOL0     C18408   8.413  10.148   2.301 -0.9236 -1.2717 -0.9211
  859MOL0     C18409   8.321  10.049   2.340 -1.2193 -0.8817 -1.1389
  859MOL0     C18410   8.359   9.914   2.320  0.2946 -0.0568 -0.3405
  859MOL0     C18411   8.478   9.874   2.268  0.0004  0.4375 -0.2669
  859MOL0     O18412   8.515   9.744   2.242 -0.4851 -0.6540  0.6093
  859MOL0     C18413   8.424   9.635   2.250 -0.1220  0.3534  0.0544
  859MOL0     C18414   8.353   9.607   2.126 -0.4998  0.2525  1.3650
  859MOL0     C18415   8.425   9.636   1.995  0.4320  0.6119  0.9851
  859MOL0     C18416   8.574   9.588   1.989  0.3523  0.5158 -1.1845
  859MOL0     C18417   8.630   9.551   1.847  0.1118  0.4899 -0.3944
  859MOL0     C18418   8.780   9.528   1.870 -1.0197  0.1138 -0.0451
  859MOL0     C18419   8.841   9.519   1.730  1.2532  0.6218  1.0760
  859MOL0     C18420   8.859   9.653   1.644 -0.3144 -0.0062  0.3002
  859MOL0     N18421   8.994   9.653   1.589  0.3315  0.5319 -0.0719
  859MOL0     C18422   9.091   9.738   1.638  0.4367 -0.1710  0.8675
  859MOL0     C18423   9.205   9.698   1.579 -0.0788 -1.1462  1.1167
  859MOL0     C18424   9.348   9.757   1.594 -0.0587  0.4966 -0.1173
  859MOL0     C18425   9.356   9.898   1.528 -0.2654  0.0465  0.1180
  859MOL0     C18426   9.335   9.903   1.374  0.2534 -0.6979  0.6681
  859MOL0     C18427   9.303  10.035   1.318  0.2332 -0.5226  0.2777
  859MOL0     O18428   9.373  10.132   1.406 -0.3209 -0.0118 -0.2241
  859MOL0     C18429   9.362  10.267   1.383 -1.3363 -0.1309  0.3228
  859MOL0     C18430   9.417  10.350   1.483 -0.6995  0.8656 -0.0042
  859MOL0     C18431   9.431  10.492   1.451 -0.8530  0.1106  0.7410
  859MOL0     C18432   9.497  10.565   1.559 -1.5313  0.3962  0.8399
  859MOL0     C18433   9.378  10.543   1.336  0.4870 -0.9731  0.4108
  859MOL0     C18434   9.386  10.694   1.294  1.1361 -0.2394 -0.1010
  859MOL0     O18435   9.416  10.783   1.389 -1.0018  0.3102 -0.0026
  859MOL0     C18436   9.455  10.910   1.342 -0.0221  0.3877 -0.2150
  859MOL0     C18437   9.375  11.024   1.381 -0.9818  0.4949  0.3860
  859MOL0     C18438   9.429  11.154   1.358  1.1119  0.7853 -0.7095
  859MOL0     C18439   9.555  11.170   1.310  0.1647 -1.2831 -0.3850
  859MOL0     O18440   9.583  11.302   1.308 -0.3442 -0.1784 -0.2345
  859MOL0     C18441   9.702  11.334   1.242 -0.0797 -0.7520  0.3396
  859MOL0     C18442   9.713  11.492   1.253 -0.2475  0.5851  0.4665
  859MOL0     C18443   9.621  11.559   1.148 -0.1376 -0.4896  0.5473
  859MOL0     C18444   9.723  11.654   1.066  0.3820  0.0599 -0.9095
  859MOL0     C18445   9.797  11.570   0.954  0.8925  0.3184 -0.4625
  859MOL0     C18446   9.916  11.650   0.900 -0.6132  0.0809 -0.1852
  859MOL0     C18447   9.987  11.582   0.780  0.7237 -1.2221 -1.4114
  859MOL0     C18448  10.075  11.466   0.837  0.6198 -0.3133 -0.1789
  859MOL0    Cl18449  10.241  11.528   0.876 -0.0581  0.0101  0.3759
  859MOL0     C18450   9.630  11.060   1.270  1.0332  0.2173  0.3404
  859MOL0     C18451   9.584  10.930   1.291  0.2252  0.2604  0.4989
  859MOL0     O18452   9.384  10.715   1.174 -0.9449 -0.4720  0.7781
  859MOL0     C18453   9.309  10.459   1.244  0.4627  0.7372  0.1968
  859MOL0     C18454   9.296  10.324   1.272  0.3730 -0.2957  0.7624
  859MOL0     N18455   9.170   9.587   1.502 -0.1376  0.5627  0.9099
  859MOL0     N18456   9.044   9.564   1.505  0.5888 -0.4324  0.2417
  859MOL0     C18457   8.567   9.974   2.222  0.1319  0.7401 -0.5896
  859MOL0     C18458   8.536  10.110   2.249  0.3107  0.2775 -0.3064
  859MOL0     C18459   8.427  10.517   2.254  0.1250 -0.3607 -0.6335
  859MOL0     C18460   8.387  10.633   2.331  0.3230  0.1229 -0.1895
  859MOL0     C18461   8.327  10.743   2.264 -0.2903  0.0322 -0.5239
  859MOL0     C18462   8.308  10.739   2.119 -0.6529 -0.3300  0.5021
  859MOL0     O18463   8.235  10.836   2.056  0.0107  0.1561 -0.5650
  859MOL0     C18464   8.176  10.802   1.934 -0.6295 -0.8979 -0.4045
  859MOL0     C18465   8.051  10.714   1.958 -1.0304 -1.1435 -0.3613
  859MOL0     C18466   7.947  10.723   1.846  0.5710  1.0927  0.3571
  859MOL0     C18467   8.000  10.739   1.697  0.9377 -0.1170 -0.2329
  859MOL0     C18468   8.101  10.635   1.670  0.7369 -0.6092 -0.3681
  859MOL0     C18469   8.185  10.553   1.659 -0.5328  0.1802 -0.1835
  859MOL0     C18470   8.376  10.633   2.047 -0.3553 -0.4320  0.4504
  859MOL0     C18471   8.428  10.529   2.121 -0.3526  0.5667  0.0768
  859MOL0     C18472   8.483  10.411   2.047  0.1589 -0.5904  0.0440
  859MOL0     H18473   8.223  10.083   2.373 -2.1194 -2.6509 -1.8823
  859MOL0     H18474   8.278   9.844   2.340 -1.5079  1.5495 -1.5627
  859MOL0     H18475   8.353   9.643   2.333  0.2343 -0.5736  0.4695
  859MOL0     H18476   8.479   9.541   2.262  0.8729  1.0199  0.8389
  859MOL0     H18477   8.338   9.499   2.124  2.7031 -0.3718 -2.4827
  859MOL0     H18478   8.258   9.661   2.116  0.1691  1.5211  1.5999
  859MOL0     H18479   8.370   9.598   1.908 -1.2930  4.7213  0.0921
  859MOL0     H18480   8.417   9.744   1.984 -1.1352  0.4395  0.2698
  859MOL0     H18481   8.645   9.661   2.029 -0.7163  0.7948  0.2781
  859MOL0     H18482   8.571   9.494   2.045 -0.7712  1.1978 -0.0476
  859MOL0     H18483   8.610   9.628   1.773  0.7801  1.3913  0.3410
  859MOL0     H18484   8.592   9.459   1.801  0.9567  0.1029 -0.3411
  859MOL0     H18485   8.815   9.608   1.936  0.1072  1.0364 -1.6886
  859MOL0     H18486   8.792   9.433   1.923 -0.9971  0.5678  0.7751
  859MOL0     H18487   8.772   9.463   1.666 -0.0685  4.1395 -0.8951
  859MOL0     H18488   8.933   9.461   1.738  1.3580  0.6750  0.3481
  859MOL0     H18489   8.785   9.642   1.564 -0.2901  1.1802  0.0997
  859MOL0     H18490   8.826   9.736   1.707  0.0776 -0.4030  1.0550
  859MOL0     H18491   9.069   9.821   1.704 -0.4826  0.0707  0.2782
  859MOL0     H18492   9.413   9.692   1.534 -2.3086 -1.8861 -0.1796
  859MOL0     H18493   9.406   9.750   1.686  1.0518 -0.0397 -0.8298
  859MOL0     H18494   9.276   9.962   1.567 -1.6623 -0.3496 -1.9553
  859MOL0     H18495   9.448   9.956   1.544 -0.1344 -0.3774  1.0041
  859MOL0     H18496   9.419   9.864   1.317 -0.2660  1.3245 -1.6710
  859MOL0     H18497   9.254   9.830   1.362 -0.9532  0.2164  2.6812
  859MOL0     H18498   9.340  10.045   1.216  3.3475 -4.8035  0.6895
  859MOL0     H18499   9.194  10.034   1.316  0.1043 -3.9252  1.4758
  859MOL0     H18500   9.463  10.310   1.573  0.8571 -2.2668 -2.0233
  859MOL0     H18501   9.545  10.496   1.628 -0.0477 -1.8384 -2.1560
  859MOL0     H18502   9.450  10.652   1.607  1.2205  1.8848  1.0054
  859MOL0     H18503   9.580  10.615   1.508 -0.7709  0.0268  1.6978
  859MOL0     H18504   9.285  10.984   1.427  0.2007 -2.2666  0.4906
  859MOL0     H18505   9.376  11.232   1.411  0.7065  0.7280 -1.0311
  859MOL0     H18506   9.789  11.285   1.288 -1.4048  0.5035  4.6497
  859MOL0     H18507   9.692  11.304   1.138 -0.2467  1.9273 -0.4827
  859MOL0     H18508   9.687  11.528   1.353 -1.5414  2.9944 -0.6480
  859MOL0     H18509   9.820  11.513   1.237  0.7468 -3.5754  0.4547
  859MOL0     H18510   9.553  11.622   1.206 -0.4990  0.2180 -0.6175
  859MOL0     H18511   9.563  11.494   1.083 -1.4110  0.7931  0.3521
  859MOL0     H18512   9.790  11.704   1.136 -1.4929  1.8510 -0.2725
  859MOL0     H18513   9.665  11.735   1.021 -0.7607 -1.1359 -1.6828
  859MOL0     H18514   9.834  11.478   1.000 -0.7724 -0.1537  0.0064
  859MOL0     H18515   9.726  11.541   0.876 -0.9060 -0.4034  1.3481
  859MOL0     H18516   9.995  11.662   0.973 -2.8444 -1.2066  2.6425
  859MOL0     H18517   9.879  11.749   0.873  2.8802  1.9739  1.3885
  859MOL0     H18518  10.043  11.660   0.727  0.6478  1.0026  1.4945
  859MOL0     H18519   9.905  11.549   0.714 -0.7754  1.6533 -1.1712
  859MOL0     H18520  10.070  11.388   0.761  0.8419  1.0910 -1.7059
  859MOL0     H18521  10.020  11.445   0.929  0.1636  5.0256  1.1293
  859MOL0     H18522   9.730  11.072   1.229  2.1027  0.4399  2.8351
  859MOL0     H18523   9.644  10.846   1.258 -1.1028  1.1824 -5.4666
  859MOL0     H18524   9.264  10.493   1.151  1.1326 -0.5960 -0.6385
  859MOL0     H18525   9.232  10.279   1.197  2.2283 -0.2923 -0.9146
  859MOL0     H18526   8.660   9.943   2.175 -0.8541 -2.7200 -0.5971
  859MOL0     H18527   8.602  10.190   2.218  1.8257  0.2189  2.4399
  859MOL0     H18528   8.389  10.635   2.439 -0.9525  3.9482 -0.1003
  859MOL0     H18529   8.296  10.829   2.322 -1.0122 -1.2001  0.9802
  859MOL0     H18530   8.156  10.900   1.890  0.8932  0.3359  1.4830
  859MOL0     H18531   8.247  10.759   1.863 -0.7359  2.0396 -2.4529
  859MOL0     H18532   8.002  10.747   2.050  0.9160 -0.5961  0.5221
  859MOL0     H18533   8.085  10.611   1.974 -0.1222 -1.3001 -2.7931
  859MOL0     H18534   7.888  10.631   1.856  1.5486  0.3849 -0.1894
  859MOL0     H18535   7.879  10.803   1.874 -0.4581 -0.2354  1.8367
  859MOL0     H18536   8.048  10.832   1.668  0.6495 -0.0893 -0.6290
  859MOL0     H18537   7.912  10.727   1.633  1.1062 -0.5386 -0.3889
  859MOL0     H18538   8.243  10.468   1.628 -3.4448 -1.2955 -2.1351
  859MOL0     H18539   8.383  10.624   1.939 -1.7343 -1.7457  0.4359
  859MOL0     H18540   8.586  10.400   2.082  0.6732  3.1334  0.1573
  859MOL0     H18541   8.424  10.320   2.060  1.0668 -1.0914  0.7521
  859MOL0     H18542   8.492  10.427   1.939  0.7464  0.5505  0.2404
  860MOL0     O18543   1.415   5.745   4.800 -0.3161 -0.1301  0.1062
  860MOL0     C18544   1.434   5.665   4.896 -1.3026 -0.2172  0.3965
  860MOL0     O18545   1.507   5.691   5.003  0.1251  0.0521 -0.2191
  860MOL0     C18546   1.542   5.814   5.025 -0.2066 -1.1230 -0.0911
  860MOL0     C18547   1.662   5.868   4.975 -0.9585 -1.7837  0.0264
  860MOL0     C18548   1.725   5.989   5.025 -0.0379 -0.5378 -0.4382
  860MOL0     C18549   1.670   6.052   5.138  0.0655  1.9811  0.4540
  860MOL0     O18550   1.692   6.183   5.175  0.4016  0.2050 -1.4672
  860MOL0     C18551   1.827   6.194   5.222  0.1296 -0.0526 -0.3173
  860MOL0     C18552   1.841   6.323   5.303  0.4929  0.4577 -1.1549
  860MOL0     C18553   1.981   6.345   5.365  0.9075  0.0682 -0.0304
  860MOL0     C18554   2.094   6.342   5.265  0.0951 -0.4092  0.0756
  860MOL0     C18555   2.223   6.418   5.304 -0.3329 -0.2082 -0.6716
  860MOL0     C18556   2.314   6.334   5.400  0.5375  0.3763  0.7156
  860MOL0     C18557   2.459   6.392   5.419  0.1745 -0.2602 -0.1159
  860MOL0     C18558   2.538   6.305   5.511  1.0596  0.7796 -0.6564
  860MOL0     N18559   2.679   6.342   5.507  0.0074  0.4335  1.3829
  860MOL0     C18560   2.765   6.348   5.608 -1.3170 -0.0480 -0.0886
  860MOL0     C18561   2.882   6.390   5.558 -0.6828 -0.3740  0.3497
  860MOL0     C18562   3.003   6.410   5.645  0.6199  0.2356  0.4748
  860MOL0     C18563   3.142   6.410   5.583 -0.6473  0.7070  0.3807
  860MOL0     C18564   3.176   6.536   5.513  0.7942  0.2724  0.2003
  860MOL0     C18565   3.319   6.537   5.467 -0.7909  0.3350  0.2381
  860MOL0     O18566   3.337   6.650   5.380 -0.0662 -0.3870  0.7977
  860MOL0     C18567   3.459   6.676   5.325 -1.0231 -0.3046 -0.0539
  860MOL0     C18568   3.469   6.711   5.195  0.3894  0.3720 -0.1006
  860MOL0     C18569   3.592   6.735   5.133 -0.4506  0.4796  0.6721
  860MOL0     C18570   3.594   6.745   4.988  0.1371 -0.0715 -0.2447
  860MOL0     C18571   3.721   6.732   5.202  0.2197  0.9053  0.6123
  860MOL0     C18572   3.843   6.754   5.134 -0.8682 -0.1344 -0.5384
  860MOL0     O18573   3.848   6.885   5.086 -0.3223 -0.2526  0.0641
  860MOL0     C18574   3.935   6.923   4.984  0.7227  0.0640 -0.4381
  860MOL0     C18575   4.042   6.851   4.927 -0.2069 -0.6688  0.4157
  860MOL0     C18576   4.120   6.910   4.822 -0.0433  0.7705  0.5899
  860MOL0     C18577   4.110   7.041   4.786 -0.3712 -0.7882 -0.1214
  860MOL0     O18578   4.203   7.102   4.690  0.5475  0.9198 -0.3703
  860MOL0     C18579   4.163   7.213   4.614 -0.1232 -0.6317 -0.2834
  860MOL0     C18580   4.041   7.189   4.525  0.3473  1.0147 -0.8006
  860MOL0     C18581   3.984   7.321   4.459  0.4538  0.6508  0.4989
  860MOL0     C18582   3.858   7.278   4.365 -0.2092 -0.3945  0.0650
  860MOL0     C18583   3.823   7.400   4.279  1.1122  0.2366  0.2569
  860MOL0     C18584   3.727   7.367   4.158 -0.3402  0.2089  0.5730
  860MOL0     C18585   3.802   7.296   4.047 -0.2274  0.0459 -0.3090
  860MOL0     C18586   3.715   7.225   3.944 -0.0880  0.4780 -0.0254
  860MOL0    Cl18587   3.656   7.067   4.012  0.9246 -0.3596 -0.8575
  860MOL0     C18588   4.013   7.119   4.849 -0.0653  0.8275  0.8201
  860MOL0     C18589   3.928   7.058   4.941  0.1271  0.0309 -1.4826
  860MOL0     O18590   3.929   6.666   5.121 -0.8110 -0.6125 -0.1934
  860MOL0     C18591   3.706   6.700   5.336 -0.4399  0.4910  1.2551
  860MOL0     C18592   3.580   6.675   5.395  0.5977  0.4873  0.3920
  860MOL0     N18593   2.872   6.385   5.418  0.2700 -1.3541 -0.7678
  860MOL0     N18594   2.747   6.370   5.391 -0.0114  0.4071 -0.0570
  860MOL0     C18595   1.551   5.999   5.192 -0.1220 -0.1146  0.1238
  860MOL0     C18596   1.499   5.883   5.129  0.0856  0.0131 -0.5697
  860MOL0     C18597   1.369   5.528   4.874  0.9437 -0.3239 -0.7743
  860MOL0     C18598   1.269   5.513   4.775  0.0329  0.1979 -0.6925
  860MOL0     C18599   1.221   5.380   4.750  0.1398 -0.2459  0.9018
  860MOL0     C18600   1.262   5.263   4.823 -0.1216  0.2838  0.5419
  860MOL0     O18601   1.215   5.139   4.807 -0.3775  0.6269 -0.3138
  860MOL0     C18602   1.127   5.112   4.694 -0.6254  0.0229 -0.4366
  860MOL0     C18603   1.081   4.980   4.714 -0.5787 -0.1249 -0.3595
  860MOL0     C18604   1.188   4.868   4.684  0.5403 -0.2194  0.3477
  860MOL0     C18605   1.122   4.732   4.714 -0.0558  0.1427  0.2808
  860MOL0     C18606   1.005   4.700   4.627  0.3089 -0.3969 -0.2200
  860MOL0     C18607   0.901   4.664   4.577 -0.4583  0.1735 -0.4346
  860MOL0     C18608   1.367   5.288   4.912 -0.1220 -0.3912 -0.8570
  860MOL0     C18609   1.419   5.420   4.942  0.2670  0.1599 -0.8885
  860MOL0     C18610   1.508   5.422   5.067  0.3856  0.6103  0.4470
  860MOL0     H18611   1.717   5.825   4.893  2.0242 -0.7296  1.3408
  860MOL0     H18612   1.813   6.029   4.976 -0.8966  3.4721  0.9199
  860MOL0     H18613   1.896   6.185   5.137  0.9308  0.1089  0.3105
  860MOL0     H18614   1.858   6.118   5.294  2.1112  0.6398 -0.3787
  860MOL0     H18615   1.800   6.407   5.246 -0.1820  2.4397  2.0313
  860MOL0     H18616   1.765   6.315   5.381 -0.2456 -0.7666 -1.9690
  860MOL0     H18617   1.964   6.431   5.430  0.2606  0.6445 -0.9301
  860MOL0     H18618   1.990   6.261   5.434 -0.0666 -0.7635 -0.8737
  860MOL0     H18619   2.114   6.239   5.236 -4.1451 -0.6946 -2.8841
  860MOL0     H18620   2.060   6.375   5.166 -1.4719 -0.7003  0.4871
  860MOL0     H18621   2.198   6.510   5.357  0.8429  0.1951 -0.7781
  860MOL0     H18622   2.282   6.446   5.216 -2.3088  1.7864 -1.4616
  860MOL0     H18623   2.267   6.332   5.499  1.9114  2.1652  1.4594
  860MOL0     H18624   2.329   6.234   5.358  1.5660  0.3337  1.1587
  860MOL0     H18625   2.444   6.484   5.475 -2.8876 -1.5312  1.3787
  860MOL0     H18626   2.516   6.403   5.326  1.3152 -1.7194  0.3616
  860MOL0     H18627   2.505   6.336   5.611  0.4926  0.1893 -0.6548
  860MOL0     H18628   2.512   6.203   5.483 -0.4488  2.0082 -4.2818
  860MOL0     H18629   2.746   6.341   5.715  0.5072  1.5073  0.3988
  860MOL0     H18630   2.993   6.342   5.731 -2.2113 -1.8858 -1.3201
  860MOL0     H18631   2.987   6.508   5.691  0.0378 -0.2715  1.3872
  860MOL0     H18632   3.220   6.383   5.654 -0.6036  1.4902  0.6334
  860MOL0     H18633   3.148   6.324   5.516 -2.9042  0.7286  0.0593
  860MOL0     H18634   3.100   6.551   5.435  1.3926 -5.0643 -1.8408
  860MOL0     H18635   3.166   6.615   5.587 -0.7692 -0.3297  0.6855
  860MOL0     H18636   3.391   6.535   5.549 -0.6842 -4.2989  0.2788
  860MOL0     H18637   3.338   6.442   5.416 -0.8740  0.9665 -0.9901
  860MOL0     H18638   3.381   6.706   5.132 -0.5015 -0.2131  1.1516
  860MOL0     H18639   3.646   6.836   4.957 -1.9563  0.0627 -3.7915
  860MOL0     H18640   3.499   6.740   4.934 -0.1065 -0.2277  0.1842
  860MOL0     H18641   3.638   6.659   4.936 -1.8766 -3.2008  2.8005
  860MOL0     H18642   4.071   6.749   4.953 -1.4180 -0.8407  1.1709
  860MOL0     H18643   4.198   6.848   4.778  1.2865 -0.1616  3.9721
  860MOL0     H18644   4.149   7.306   4.669  1.7146 -0.6980  0.3461
  860MOL0     H18645   4.244   7.239   4.544  0.8790  2.2746  1.7547
  860MOL0     H18646   4.056   7.109   4.452  0.9399  1.5002 -1.2166
  860MOL0     H18647   3.959   7.153   4.589  1.3105  0.5746  0.2116
  860MOL0     H18648   4.055   7.383   4.403  1.2916 -1.3231 -0.7247
  860MOL0     H18649   3.941   7.389   4.533 -2.8192 -0.5477 -0.1495
  860MOL0     H18650   3.780   7.245   4.434  0.2715  0.3862  1.0047
  860MOL0     H18651   3.880   7.186   4.309 -4.5199 -2.0031  0.6415
  860MOL0     H18652   3.770   7.479   4.335 -3.2663 -1.6006 -0.8630
  860MOL0     H18653   3.916   7.438   4.235  1.9190  0.0046  1.7077
  860MOL0     H18654   3.675   7.455   4.121 -0.1269  1.2125  2.5554
  860MOL0     H18655   3.655   7.297   4.201 -0.6799 -0.7236 -1.3999
  860MOL0     H18656   3.854   7.211   4.092 -0.4137  0.1118  0.0349
  860MOL0     H18657   3.875   7.368   4.008  0.7474 -0.3910  0.6616
  860MOL0     H18658   3.760   7.212   3.845 -1.2918  3.4309 -1.0901
  860MOL0     H18659   3.628   7.289   3.926  0.1004  0.7326 -0.0367
  860MOL0     H18660   3.998   7.221   4.815  0.0616  0.7344  0.4783
  860MOL0     H18661   3.863   7.125   4.996 -0.4588 -2.7398  1.5108
  860MOL0     H18662   3.789   6.694   5.406  0.4934  0.7488  0.1933
  860MOL0     H18663   3.587   6.638   5.497  1.4413  1.4239  0.6844
  860MOL0     H18664   1.502   6.046   5.277  1.2382  2.5890 -0.4823
  860MOL0     H18665   1.409   5.839   5.172  1.3356 -1.6541  0.4856
  860MOL0     H18666   1.232   5.596   4.716  1.6046  0.2529 -1.6716
  860MOL0     H18667   1.139   5.375   4.680  0.2114  1.0795  0.7022
  860MOL0     H18668   1.039   5.178   4.694  1.1895  2.6473  1.4018
  860MOL0     H18669   1.185   5.123   4.602  0.6741  2.0876  0.5468
  860MOL0     H18670   0.993   4.979   4.649 -1.5283 -0.6399  0.8907
  860MOL0     H18671   1.054   4.960   4.818  0.9889 -0.6140 -0.0249
  860MOL0     H18672   1.227   4.886   4.583 -2.1684 -1.0085 -0.9269
  860MOL0     H18673   1.279   4.871   4.745  1.2377  2.3058 -0.7075
  860MOL0     H18674   1.100   4.724   4.821  4.7923 -0.4731  1.4776
  860MOL0     H18675   1.206   4.667   4.687  0.1885  0.6468 -0.1922
  860MOL0     H18676   0.820   4.617   4.526 -0.5270  0.0260 -0.1924
  860MOL0     H18677   1.401   5.203   4.969 -1.1836  0.3948  1.0674
  860MOL0     H18678   1.612   5.442   5.040  0.0764 -0.0440 -1.3444
  860MOL0     H18679   1.453   5.472   5.148 -2.1121 -0.8185 -0.2513
  860MOL0     H18680   1.500   5.327   5.121 -0.3014  0.1224 -0.4726
  861MOL0     O18681   4.246   7.542   4.594  1.3028  0.0919  0.0234
  861MOL0     C18682   4.324   7.545   4.692 -0.0366  0.0269  1.5001
  861MOL0     O18683   4.284   7.557   4.823  0.0300 -0.2136 -0.1895
  861MOL0     C18684   4.153   7.533   4.860  0.6421  0.3658 -0.0162
  861MOL0     C18685   4.036   7.573   4.790 -0.7712 -0.7111 -0.3758
  861MOL0     C18686   3.906   7.538   4.837 -0.2091 -0.2740  0.3682
  861MOL0     C18687   3.893   7.465   4.959 -0.6286 -0.1835  0.2127
  861MOL0     O18688   3.782   7.403   5.008  0.8590  0.2101 -0.0828
  861MOL0     C18689   3.660   7.473   5.011  0.2570  0.1783 -0.1696
  861MOL0     C18690   3.589   7.430   5.138  0.0049  0.1843  0.0753
  861MOL0     C18691   3.529   7.281   5.116 -0.0427  0.4718  0.2120
  861MOL0     C18692   3.426   7.242   5.210 -0.4598  0.1925 -0.2694
  861MOL0     C18693   3.373   7.101   5.173 -0.7673  0.7736  0.4710
  861MOL0     C18694   3.321   7.011   5.292  0.3326 -0.1657 -0.4579
  861MOL0     C18695   3.230   7.093   5.399 -1.0050  1.3138 -0.8408
  861MOL0     C18696   3.125   6.985   5.435  0.0508  0.6744 -0.2896
  861MOL0     N18697   3.036   6.956   5.317  0.3886  0.2593 -1.0422
  861MOL0     C18698   3.032   6.840   5.253  0.3417  0.7236 -0.1512
  861MOL0     C18699   2.938   6.848   5.158  0.1435  0.1076 -0.4356
  861MOL0     C18700   2.899   6.753   5.060  0.9182 -0.5577  0.5988
  861MOL0     C18701   2.985   6.626   5.030 -0.1206  0.3482 -1.4740
  861MOL0     C18702   2.949   6.514   5.127  1.2873 -0.0230  0.3636
  861MOL0     C18703   3.047   6.394   5.116  0.0712 -0.3097  1.0520
  861MOL0     O18704   3.194   6.412   5.096  0.1469 -0.3660  1.1043
  861MOL0     C18705   3.268   6.294   5.117  0.3656  0.0202  1.0730
  861MOL0     C18706   3.405   6.320   5.119 -0.4108 -0.3972  0.0334
  861MOL0     C18707   3.502   6.216   5.119 -0.3304  0.4772  0.0381
  861MOL0     C18708   3.655   6.264   5.120 -0.0480  0.1145 -0.4287
  861MOL0     C18709   3.459   6.087   5.133  0.3707  0.9298 -0.9305
  861MOL0     C18710   3.542   5.971   5.162  0.7588 -0.6183  0.8425
  861MOL0     O18711   3.669   5.980   5.106 -0.2346 -0.2018  0.1918
  861MOL0     C18712   3.772   5.902   5.156 -0.2126 -0.9669 -0.4594
  861MOL0     C18713   3.760   5.768   5.182  0.9845 -0.6002 -0.3091
  861MOL0     C18714   3.873   5.702   5.224  0.3473  0.6956  1.4694
  861MOL0     C18715   3.996   5.759   5.235  0.2867 -0.4752 -0.2564
  861MOL0     O18716   4.099   5.688   5.287  0.3365 -0.9496 -0.3884
  861MOL0     C18717   4.077   5.610   5.405  1.1480  0.2868  0.5423
  861MOL0     C18718   4.214   5.598   5.468 -0.4806 -0.2769 -1.1380
  861MOL0     C18719   4.304   5.497   5.407  0.1829 -0.2182  0.5773
  861MOL0     C18720   4.265   5.357   5.437  0.5135 -0.3096  0.0196
  861MOL0     C18721   4.373   5.261   5.371  0.3670 -0.3573 -0.0354
  861MOL0     C18722   4.331   5.115   5.402 -0.7047 -0.5568  0.2553
  861MOL0     C18723   4.301   5.089   5.557  0.6977 -0.1383  0.0479
  861MOL0     C18724   4.345   4.940   5.587  0.6263  0.2893  0.1463
  861MOL0    Cl18725   4.270   4.891   5.744  0.4422  0.6998  0.2264
  861MOL0     C18726   4.015   5.891   5.205 -0.4146  0.1502  1.0403
  861MOL0     C18727   3.902   5.966   5.165 -0.1051  0.0238 -1.5269
  861MOL0     O18728   3.505   5.893   5.251  1.7134 -0.1908  0.5361
  861MOL0     C18729   3.315   6.063   5.135  1.2843  0.4150 -0.8709
  861MOL0     C18730   3.219   6.164   5.115 -0.2408  0.7246 -0.2036
  861MOL0     N18731   2.880   6.971   5.167  0.2158  0.6054  0.1477
  861MOL0     N18732   2.943   7.032   5.264  0.7350 -0.0997 -0.0955
  861MOL0     C18733   4.008   7.434   5.033  0.5602 -0.2424  0.6043
  861MOL0     C18734   4.137   7.474   4.985 -0.3697  0.3114 -0.7558
  861MOL0     C18735   4.472   7.537   4.657  1.2673 -0.1871 -0.3237
  861MOL0     C18736   4.524   7.611   4.549 -0.2309  0.5331 -0.0155
  861MOL0     C18737   4.663   7.605   4.525  0.4620 -0.0164 -0.6091
  861MOL0     C18738   4.741   7.525   4.608  0.2859  0.3556  0.2319
  861MOL0     O18739   4.878   7.513   4.574  0.3258 -0.3811  0.1321
  861MOL0     C18740   4.970   7.454   4.671 -0.2535  0.4522 -0.3179
  861MOL0     C18741   5.117   7.487   4.640  0.5757 -0.6391  0.4956
  861MOL0     C18742   5.167   7.450   4.500 -0.9802  0.2630  0.2894
  861MOL0     C18743   5.206   7.301   4.494 -0.6496 -0.8477 -0.2053
  861MOL0     C18744   5.312   7.268   4.599  1.3573  0.1186  0.5376
  861MOL0     C18745   5.392   7.243   4.685 -0.1944 -0.5352  0.9769
  861MOL0     C18746   4.686   7.456   4.712  0.5493 -0.0439 -1.0851
  861MOL0     C18747   4.550   7.458   4.742 -1.3407 -0.8999  0.5198
  861MOL0     C18748   4.507   7.389   4.866  0.0688 -0.4642  0.6122
  861MOL0     H18749   4.060   7.628   4.700  1.6745 -1.4916 -0.2895
  861MOL0     H18750   3.814   7.564   4.786 -0.8707  0.3122  1.8179
  861MOL0     H18751   3.611   7.451   4.916  1.3912  0.0975 -0.7505
  861MOL0     H18752   3.675   7.581   5.015  5.4922 -0.3333  0.1313
  861MOL0     H18753   3.651   7.441   5.228 -3.3028  2.0472  2.3072
  861MOL0     H18754   3.504   7.497   5.144 -2.1936 -2.5549  2.1350
  861MOL0     H18755   3.495   7.270   5.013 -0.6600  1.5804  0.2820
  861MOL0     H18756   3.619   7.220   5.129 -0.4996 -0.2594 -0.0039
  861MOL0     H18757   3.459   7.237   5.314 -1.7768 -0.4852  0.1449
  861MOL0     H18758   3.339   7.308   5.205 -1.5948 -0.7934  3.1769
  861MOL0     H18759   3.448   7.040   5.122  1.7751  4.3394 -0.4060
  861MOL0     H18760   3.289   7.105   5.103 -0.7740  0.9290  0.4867
  861MOL0     H18761   3.270   6.930   5.240  0.4785  0.3604 -1.4320
  861MOL0     H18762   3.411   6.972   5.342 -1.3474  0.8632  3.8912
  861MOL0     H18763   3.177   7.174   5.348 -3.1566  0.9372  0.6890
  861MOL0     H18764   3.297   7.116   5.482  0.3033 -2.6860 -0.5353
  861MOL0     H18765   3.174   6.898   5.480  0.1086  1.5711  1.4950
  861MOL0     H18766   3.071   7.018   5.525  2.6793  1.6329  1.0485
  861MOL0     H18767   3.095   6.753   5.269 -0.4294  0.3623  1.0898
  861MOL0     H18768   2.894   6.817   4.972 -1.7671  0.1127  1.1579
  861MOL0     H18769   2.795   6.726   5.080  0.6492  1.7235  2.8316
  861MOL0     H18770   2.985   6.600   4.924  1.9897 -0.5871 -1.3088
  861MOL0     H18771   3.089   6.658   5.043 -0.9529  3.3903 -1.5089
  861MOL0     H18772   2.957   6.549   5.231 -2.1084 -0.6852  0.9658
  861MOL0     H18773   2.849   6.473   5.108  1.2679 -1.6003  3.2482
  861MOL0     H18774   3.028   6.338   5.208  0.5285 -0.2636  1.1767
  861MOL0     H18775   3.009   6.338   5.030  0.5806 -0.7244  1.0957
  861MOL0     H18776   3.441   6.421   5.107 -0.6724 -0.3555 -0.4542
  861MOL0     H18777   3.693   6.268   5.222  2.2943  0.2675 -1.2655
  861MOL0     H18778   3.668   6.367   5.086  1.4836  0.2967  0.5860
  861MOL0     H18779   3.725   6.200   5.067  2.8002 -0.1650  3.3089
  861MOL0     H18780   3.668   5.713   5.168  0.4536  0.4392 -1.0423
  861MOL0     H18781   3.852   5.597   5.239  1.5561 -0.2068 -2.1836
  861MOL0     H18782   4.003   5.661   5.467  1.3715 -0.3916  1.3947
  861MOL0     H18783   4.039   5.511   5.381  3.4390 -0.8214  1.2327
  861MOL0     H18784   4.267   5.688   5.435  1.4153 -1.8221 -2.5294
  861MOL0     H18785   4.198   5.590   5.576 -2.8597  4.3038 -0.8745
  861MOL0     H18786   4.400   5.518   5.454 -1.2207 -0.0178  3.6224
  861MOL0     H18787   4.309   5.503   5.298  1.1634  0.9586  0.6605
  861MOL0     H18788   4.165   5.339   5.397 -0.2758  0.2215  1.6948
  861MOL0     H18789   4.255   5.342   5.545  2.3549  0.5516  0.3421
  861MOL0     H18790   4.376   5.263   5.261 -2.0623 -0.2824 -0.1506
  861MOL0     H18791   4.475   5.280   5.404  1.1239  0.4704 -2.5732
  861MOL0     H18792   4.417   5.054   5.372  0.6791  1.7012 -0.7152
  861MOL0     H18793   4.249   5.097   5.333 -0.5633 -1.9737  0.4371
  861MOL0     H18794   4.192   5.085   5.556  0.6357 -3.8655  2.3112
  861MOL0     H18795   4.352   5.160   5.622  0.5745 -1.8094  2.0613
  861MOL0     H18796   4.453   4.926   5.600  0.4768 -0.2073  0.8764
  861MOL0     H18797   4.321   4.869   5.508  2.0395 -3.1897  2.6141
  861MOL0     H18798   4.116   5.930   5.195  0.5906 -2.5816 -0.5150
  861MOL0     H18799   3.914   6.068   5.129  1.0627  2.6793  5.0431
  861MOL0     H18800   3.296   5.962   5.168  0.6659  0.4886 -0.9910
  861MOL0     H18801   3.111   6.154   5.106 -0.6260 -0.1041  3.5652
  861MOL0     H18802   3.993   7.380   5.125 -0.6221 -0.0289  0.5581
  861MOL0     H18803   4.214   7.441   5.055 -1.5845  0.2681  0.5973
  861MOL0     H18804   4.469   7.675   4.480  1.9880 -1.6743 -4.2689
  861MOL0     H18805   4.714   7.658   4.445  2.9433 -0.8328  0.3350
  861MOL0     H18806   4.956   7.486   4.775 -2.4385 -2.6351  0.4971
  861MOL0     H18807   4.954   7.346   4.667  0.9415  0.2805 -1.0835
  861MOL0     H18808   5.182   7.458   4.723 -0.0344 -3.0768  0.1889
  861MOL0     H18809   5.120   7.596   4.649 -2.9098 -0.3799  0.1168
  861MOL0     H18810   5.105   7.483   4.416 -0.5122  2.1975  0.6669
  861MOL0     H18811   5.260   7.507   4.495  0.1384 -1.2730  2.1192
  861MOL0     H18812   5.250   7.280   4.396  2.4357 -2.1476  1.3185
  861MOL0     H18813   5.117   7.239   4.506 -2.1757  0.6103 -2.9620
  861MOL0     H18814   5.459   7.230   4.768  2.0567 -1.9717 -0.9372
  861MOL0     H18815   4.743   7.402   4.787 -0.7248 -2.4413 -1.7136
  861MOL0     H18816   4.420   7.325   4.848 -2.0577  1.6711  2.5438
  861MOL0     H18817   4.588   7.329   4.910  1.6879  1.1079 -0.0808
  861MOL0     H18818   4.481   7.474   4.930  2.4857  1.1265 -0.3766
  862MOL0     O18819  10.202   2.242   8.168  0.0722 -0.5080  0.0721
  862MOL0     C18820  10.216   2.199   8.285  0.2400  0.6224  0.0939
  862MOL0     O18821  10.164   2.261   8.394 -0.8015 -0.3269  0.2171
  862MOL0     C18822  10.092   2.374   8.371  0.0688 -0.3928  0.0458
  862MOL0     C18823  10.143   2.499   8.383 -0.4711 -0.0549 -0.4663
  862MOL0     C18824  10.051   2.601   8.379  1.0074 -0.0265 -0.8062
  862MOL0     C18825   9.919   2.580   8.360 -0.4637  0.5582 -0.0959
  862MOL0     O18826   9.824   2.678   8.359  0.9952  0.4472 -0.3472
  862MOL0     C18827   9.856   2.803   8.297 -0.5160  0.6334  0.5070
  862MOL0     C18828   9.732   2.861   8.231  0.3457 -0.0321 -1.0792
  862MOL0     C18829   9.632   2.912   8.344  0.8033  0.4871  0.1428
  862MOL0     C18830   9.671   3.035   8.431 -0.1986 -0.2778 -0.0976
  862MOL0     C18831   9.716   3.152   8.348 -0.1387  0.5533 -0.2478
  862MOL0     C18832   9.761   3.268   8.436  0.6354  0.7022  1.1728
  862MOL0     C18833   9.820   3.381   8.344  1.3170  0.5441  1.1890
  862MOL0     C18834   9.719   3.432   8.231 -0.0262  0.3551 -0.2061
  862MOL0     N18835   9.586   3.454   8.275 -0.5797 -0.2107  0.3625
  862MOL0     C18836   9.553   3.532   8.381 -0.0662  0.1102  0.2962
  862MOL0     C18837   9.422   3.512   8.409  0.4993  0.4541 -0.1004
  862MOL0     C18838   9.366   3.596   8.520 -0.0792  0.3121 -0.9514
  862MOL0     C18839   9.249   3.522   8.587 -0.0915  0.2390  0.1522
  862MOL0     C18840   9.278   3.385   8.649  0.3142 -0.7009 -0.8481
  862MOL0     C18841   9.370   3.400   8.773  0.3394 -0.4788 -0.0354
  862MOL0     O18842   9.313   3.471   8.885  0.4908 -0.1588  0.4542
  862MOL0     C18843   9.259   3.405   8.985 -0.1230 -0.4663  0.5304
  862MOL0     C18844   9.265   3.464   9.115 -0.2449 -0.0450 -0.4548
  862MOL0     C18845   9.210   3.412   9.229  0.4248 -0.0579  0.7951
  862MOL0     C18846   9.241   3.474   9.361 -0.5388 -0.1378 -0.6598
  862MOL0     C18847   9.141   3.294   9.215 -1.1028  0.6007  0.3516
  862MOL0     C18848   9.066   3.220   9.324 -0.4975  0.6525  0.4307
  862MOL0     O18849   9.017   3.098   9.281  0.1627  0.7410  0.5433
  862MOL0     C18850   8.985   3.004   9.383  0.6992  0.0656  0.3423
  862MOL0     C18851   8.854   2.992   9.439 -0.4683 -0.3906  0.9661
  862MOL0     C18852   8.831   2.909   9.550 -0.0924  0.6106  0.9388
  862MOL0     C18853   8.936   2.822   9.596  0.8484 -0.1111  1.0627
  862MOL0     O18854   8.914   2.719   9.690 -0.6554 -0.4603  0.9793
  862MOL0     C18855   8.801   2.715   9.770 -0.4843 -0.0178 -0.1212
  862MOL0     C18856   8.722   2.599   9.734 -0.1201  0.0943 -0.0017
  862MOL0     C18857   8.811   2.465   9.720  0.8113  0.2492 -0.0615
  862MOL0     C18858   8.719   2.344   9.720 -0.5017  0.3508 -0.1482
  862MOL0     C18859   8.796   2.216   9.745  0.0380  0.0187 -0.5118
  862MOL0     C18860   8.870   2.166   9.624 -0.4203 -0.0625 -0.2089
  862MOL0     C18861   9.004   2.101   9.674 -0.7528  0.5591 -0.0084
  862MOL0     C18862   9.058   1.981   9.599  0.3439 -0.0102 -0.1480
  862MOL0    Cl18863   9.062   2.038   9.431 -0.0336 -0.2479  0.6673
  862MOL0     C18864   9.062   2.837   9.536  1.5118 -0.0614 -1.0980
  862MOL0     C18865   9.090   2.926   9.434 -1.2580 -0.1863  0.0537
  862MOL0     O18866   9.062   3.265   9.438  0.7942 -0.5497  0.7219
  862MOL0     C18867   9.144   3.224   9.082  0.6053 -0.6359  0.6398
  862MOL0     C18868   9.206   3.276   8.971 -0.7891 -0.2592  1.3816
  862MOL0     N18869   9.374   3.429   8.309  0.3098  0.5424  0.7910
  862MOL0     N18870   9.469   3.388   8.237 -0.4559  0.1323  0.0669
  862MOL0     C18871   9.872   2.454   8.348 -0.5015  0.0772 -0.4357
  862MOL0     C18872   9.959   2.342   8.355  0.4082 -0.8752 -0.5028
  862MOL0     C18873  10.305   2.085   8.308  0.3037 -0.1404  0.3413
  862MOL0     C18874  10.301   1.985   8.216 -0.1194  0.8842  0.8277
  862MOL0     C18875  10.370   1.861   8.231  0.0850  0.6024 -0.9989
  862MOL0     C18876  10.445   1.839   8.345 -0.5596  0.4047  0.4141
  862MOL0     O18877  10.511   1.721   8.366  0.2361 -0.7839  0.2782
  862MOL0     C18878  10.650   1.723   8.341  0.1333  0.6057 -0.0472
  862MOL0     C18879  10.734   1.672   8.462  1.1035  0.6199 -0.6450
  862MOL0     C18880  10.862   1.597   8.425 -0.6633  1.0764 -0.0182
  862MOL0     C18881  10.964   1.677   8.343 -0.9546 -0.1119  0.0049
  862MOL0     C18882  11.066   1.570   8.297 -1.3393 -0.8452 -0.1033
  862MOL0     C18883  11.155   1.490   8.278 -0.8874 -0.3877  0.5642
  862MOL0     C18884  10.470   1.946   8.425 -0.1070 -0.7486 -0.3129
  862MOL0     C18885  10.388   2.063   8.430 -0.6419  0.0659  0.5162
  862MOL0     C18886  10.414   2.169   8.544  1.2723  0.3891  0.1195
  862MOL0     H18887  10.250   2.514   8.383  0.0469 -3.0184 -1.4711
  862MOL0     H18888  10.082   2.705   8.382  1.3437 -0.0205  4.5280
  862MOL0     H18889   9.911   2.782   8.205  0.3218  0.9366  0.9351
  862MOL0     H18890   9.903   2.877   8.362 -2.3314  2.7200 -0.4088
  862MOL0     H18891   9.749   2.944   8.161 -3.6770  1.2767 -0.7941
  862MOL0     H18892   9.681   2.779   8.181  2.9542 -2.3142 -0.2333
  862MOL0     H18893   9.536   2.933   8.296  1.6779 -0.4700 -2.1727
  862MOL0     H18894   9.623   2.826   8.411  1.6370  1.8252  2.0603
  862MOL0     H18895   9.586   3.069   8.491  1.1580  2.1423  0.6236
  862MOL0     H18896   9.749   3.011   8.504 -1.2575 -3.5401  0.0896
  862MOL0     H18897   9.651   3.188   8.268 -1.2544  1.0292  0.8357
  862MOL0     H18898   9.802   3.119   8.289 -1.7520  0.5271 -2.7156
  862MOL0     H18899   9.678   3.312   8.493  0.5475  0.7685  0.9931
  862MOL0     H18900   9.835   3.230   8.507  1.4632 -1.5528 -0.7776
  862MOL0     H18901   9.896   3.325   8.289 -0.9124 -1.6841  0.1494
  862MOL0     H18902   9.852   3.471   8.397 -1.3467  0.6753  2.7575
  862MOL0     H18903   9.754   3.528   8.191 -1.1189  0.8384 -0.0527
  862MOL0     H18904   9.725   3.353   8.157 -0.4207 -2.1088  2.2151
  862MOL0     H18905   9.625   3.599   8.427  0.3319  1.4213 -2.0481
  862MOL0     H18906   9.325   3.688   8.478 -1.8535  0.3335  0.6502
  862MOL0     H18907   9.443   3.618   8.594 -2.0110 -1.6160  1.8587
  862MOL0     H18908   9.202   3.586   8.662  0.5668 -0.5678  1.2934
  862MOL0     H18909   9.171   3.500   8.514 -0.0045 -0.5669  0.2876
  862MOL0     H18910   9.191   3.327   8.680 -1.3964  2.0965 -0.0429
  862MOL0     H18911   9.333   3.322   8.578  0.0266  0.4970 -2.1970
  862MOL0     H18912   9.416   3.302   8.790  3.7535  0.8610 -0.7976
  862MOL0     H18913   9.454   3.461   8.740 -0.3313 -0.1061 -1.1293
  862MOL0     H18914   9.328   3.552   9.128  1.3692 -0.9401 -1.8233
  862MOL0     H18915   9.269   3.406   9.442 -1.5353  0.7161  0.4286
  862MOL0     H18916   9.156   3.534   9.395  0.5728  0.6025  0.8868
  862MOL0     H18917   9.319   3.547   9.338  0.1149 -1.0676 -1.4789
  862MOL0     H18918   8.773   3.051   9.399  0.2075 -0.0174  0.1330
  862MOL0     H18919   8.728   2.900   9.583 -0.0678 -1.3947  0.5923
  862MOL0     H18920   8.842   2.704   9.871 -0.9366  1.2099  0.2019
  862MOL0     H18921   8.743   2.807   9.772 -2.2333 -1.0814  1.8402
  862MOL0     H18922   8.649   2.594   9.815  0.9131 -0.8706  0.8893
  862MOL0     H18923   8.668   2.608   9.639 -0.3767  0.3652  0.1675
  862MOL0     H18924   8.885   2.470   9.800 -0.4815  0.2763  1.1636
  862MOL0     H18925   8.859   2.470   9.621  1.8523  1.7486  0.4748
  862MOL0     H18926   8.664   2.340   9.626 -3.1604 -0.5184  1.3337
  862MOL0     H18927   8.643   2.354   9.798 -0.8254  1.6309 -0.5986
  862MOL0     H18928   8.866   2.240   9.825 -3.0145  0.8995  2.0951
  862MOL0     H18929   8.728   2.138   9.779  1.3474 -0.0877  2.1118
  862MOL0     H18930   8.902   2.253   9.565  0.6812  1.2081  2.1328
  862MOL0     H18931   8.810   2.095   9.566 -0.7017 -0.6943  0.8305
  862MOL0     H18932   8.999   2.082   9.782  2.8745  2.1114  0.5652
  862MOL0     H18933   9.077   2.182   9.668 -0.2502  0.0332 -1.3812
  862MOL0     H18934   9.005   1.886   9.609 -1.8747  1.3826  2.9530
  862MOL0     H18935   9.162   1.957   9.623  0.0874 -1.3523 -0.3202
  862MOL0     H18936   9.136   2.766   9.570 -0.3429 -0.2024  3.2833
  862MOL0     H18937   9.187   2.928   9.386 -1.8697  4.2797 -1.4676
  862MOL0     H18938   9.069   3.148   9.062  1.9683 -1.8500 -0.0341
  862MOL0     H18939   9.180   3.237   8.873 -0.2527  1.3624  0.5598
  862MOL0     H18940   9.765   2.432   8.343 -0.3142 -1.8681  1.9564
  862MOL0     H18941   9.920   2.240   8.356 -0.6583 -0.5220  2.2163
  862MOL0     H18942  10.228   2.004   8.136 -1.2068  0.3206  1.6595
  862MOL0     H18943  10.373   1.782   8.157  1.6042 -0.4979  0.1617
  862MOL0     H18944  10.659   1.653   8.257 -2.0830  0.3438 -0.1263
  862MOL0     H18945  10.679   1.821   8.302 -1.9718  1.4030  0.2831
  862MOL0     H18946  10.660   1.609   8.514 -1.2476  2.6449 -1.3529
  862MOL0     H18947  10.756   1.761   8.521 -1.3471  0.2297  1.0093
  862MOL0     H18948  10.920   1.557   8.509  3.0664  0.6550 -2.5668
  862MOL0     H18949  10.840   1.515   8.355  1.9320  1.1971 -1.0926
  862MOL0     H18950  11.016   1.749   8.406  0.4145 -2.1781  1.3672
  862MOL0     H18951  10.924   1.727   8.254 -1.9770  0.0861  0.5652
  862MOL0     H18952  11.229   1.413   8.270 -0.5389 -0.0833  0.8602
  862MOL0     H18953  10.543   1.935   8.505 -0.1430 -1.6790 -0.3985
  862MOL0     H18954  10.328   2.198   8.604  1.0155 -1.9481  0.9847
  862MOL0     H18955  10.484   2.122   8.615 -0.9405 -0.0751  2.1087
  862MOL0     H18956  10.470   2.250   8.498  0.5551  1.1789  0.6235
  863MOL0     O18957   9.576   9.246   1.795 -0.7190 -0.0224  0.1433
  863MOL0     C18958   9.622   9.269   1.911  0.8467  0.8575 -0.4559
  863MOL0     O18959   9.716   9.199   1.982 -0.0598  0.0790  0.2611
  863MOL0     C18960   9.741   9.066   1.957 -0.4952  0.2994 -0.0153
  863MOL0     C18961   9.641   8.973   1.932 -0.1630 -0.0977 -0.8613
  863MOL0     C18962   9.656   8.841   1.909 -0.8176 -0.1834  0.0240
  863MOL0     C18963   9.790   8.787   1.929  0.8253 -0.0252 -0.7481
  863MOL0     O18964   9.827   8.653   1.916  0.3933  0.8396  0.3080
  863MOL0     C18965   9.710   8.565   1.899  0.4214 -0.4803 -0.8777
  863MOL0     C18966   9.759   8.418   1.908 -0.4677 -0.3081 -0.4889
  863MOL0     C18967   9.651   8.315   1.900  0.0331 -0.0873  0.0113
  863MOL0     C18968   9.710   8.167   1.902 -0.1219  0.5793  0.5467
  863MOL0     C18969   9.614   8.058   1.839  0.3977  0.6335  0.0769
  863MOL0     C18970   9.643   7.898   1.868  0.5447  0.6972  0.4315
  863MOL0     C18971   9.680   7.813   1.747  0.5344 -0.1843  1.6192
  863MOL0     C18972   9.706   7.672   1.779 -0.2855  0.1572 -1.2745
  863MOL0     N18973   9.710   7.582   1.672  0.3521 -0.1535  1.1748
  863MOL0     C18974   9.753   7.609   1.540 -0.3027  0.4279 -0.4735
  863MOL0     C18975   9.734   7.501   1.469  0.8350  0.5694  0.0430
  863MOL0     C18976   9.786   7.481   1.333 -1.5567  0.9035 -0.3313
  863MOL0     C18977   9.878   7.348   1.341  0.8899 -0.2126 -0.3977
  863MOL0     C18978   9.938   7.325   1.205 -0.1475 -0.9277 -0.5949
  863MOL0     C18979  10.036   7.422   1.152  0.2462  0.0072  0.4016
  863MOL0     O18980   9.964   7.497   1.051 -0.4832 -0.1126 -0.2842
  863MOL0     C18981  10.001   7.497   0.918  0.6860  0.0479  0.0700
  863MOL0     C18982   9.936   7.591   0.835  0.0196  0.0874 -0.5034
  863MOL0     C18983   9.959   7.604   0.697  0.3158 -0.3365  0.1067
  863MOL0     C18984   9.869   7.709   0.631 -0.2759 -0.9762 -0.0497
  863MOL0     C18985  10.052   7.522   0.634  0.6447 -0.1482 -0.4709
  863MOL0     C18986  10.086   7.517   0.491  0.3022 -0.2869  0.2334
  863MOL0     O18987  10.196   7.453   0.467  0.0968  0.5575  0.2990
  863MOL0     C18988  10.265   7.471   0.351  0.5364  1.0350  0.1853
  863MOL0     C18989  10.269   7.584   0.282 -0.8150  0.5480  0.0654
  863MOL0     C18990  10.329   7.585   0.151 -0.0092  0.1921  0.0087
  863MOL0     C18991  10.363   7.463   0.090 -0.0533 -0.7362  0.1294
  863MOL0     O18992  10.411   7.460  -0.040  0.0245 -0.8497  0.5842
  863MOL0     C18993  10.532   7.407  -0.072 -0.2812 -0.6558  0.0924
  863MOL0     C18994  10.647   7.480  -0.010  0.3665 -0.3695  0.2463
  863MOL0     C18995  10.725   7.548  -0.122 -0.3467 -0.0902 -0.4808
  863MOL0     C18996  10.870   7.555  -0.082 -0.5143  0.8603  0.9083
  863MOL0     C18997  10.968   7.629  -0.174  0.0587 -0.6122  0.0116
  863MOL0     C18998  11.006   7.557  -0.306  0.4144 -0.2426  0.4057
  863MOL0     C18999  11.132   7.487  -0.303  0.8661  0.6895  0.4710
  863MOL0     C19000  11.147   7.401  -0.423 -0.8037  0.9248  0.2036
  863MOL0    Cl19001  11.318   7.340  -0.404 -0.1940  0.0739 -0.0200
  863MOL0     C19002  10.365   7.345   0.163  1.2957 -0.2610  1.1734
  863MOL0     C19003  10.318   7.352   0.294 -0.1056  1.6514 -0.3513
  863MOL0     O19004  10.010   7.568   0.406  0.5949 -0.7416 -0.1122
  863MOL0     C19005  10.123   7.438   0.721 -0.4616 -0.3277  0.2142
  863MOL0     C19006  10.101   7.423   0.860 -0.9125  0.1967  1.5037
  863MOL0     N19007   9.667   7.407   1.548  0.3386  0.3756  0.0334
  863MOL0     N19008   9.657   7.449   1.673 -0.4836  0.1492 -0.0884
  863MOL0     C19009   9.902   8.879   1.956 -1.0867  0.6206  0.4112
  863MOL0     C19010   9.876   9.016   1.968 -1.0381 -0.9366 -0.3239
  863MOL0     C19011   9.591   9.403   1.979 -1.0434 -0.4109  0.6602
  863MOL0     C19012   9.667   9.449   2.085  0.5565 -0.0360  0.4051
  863MOL0     C19013   9.655   9.576   2.139 -0.8228 -0.7865 -0.5775
  863MOL0     C19014   9.558   9.663   2.091  0.4698  0.3691 -1.1030
  863MOL0     O19015   9.538   9.787   2.148  0.8015 -0.2427  0.3547
  863MOL0     C19016   9.624   9.826   2.256 -0.3223 -0.6914  0.6530
  863MOL0     C19017   9.573   9.973   2.302  0.9924  0.3921 -0.3159
  863MOL0     C19018   9.671  10.051   2.387 -0.6140  1.0521  0.0746
  863MOL0     C19019   9.618  10.147   2.500  0.4239 -0.4743 -0.3049
  863MOL0     C19020   9.577  10.274   2.456 -0.2171 -0.0225 -0.4023
  863MOL0     C19021   9.554  10.387   2.431  0.1640  0.1007  0.2307
  863MOL0     C19022   9.473   9.614   1.993 -0.5703 -0.7448 -0.0261
  863MOL0     C19023   9.486   9.492   1.935 -0.6882  0.8913 -0.2770
  863MOL0     C19024   9.396   9.460   1.822  1.1149  0.6956  0.9109
  863MOL0     H19025   9.542   9.015   1.923 -0.4155 -0.8457 -1.7698
  863MOL0     H19026   9.584   8.773   1.864  0.1651 -2.5451  1.8077
  863MOL0     H19027   9.660   8.588   1.804 -0.3211  3.3515  0.2678
  863MOL0     H19028   9.630   8.587   1.970 -2.3686 -4.0981 -2.5571
  863MOL0     H19029   9.837   8.399   1.835 -0.7103  1.8014 -1.3660
  863MOL0     H19030   9.808   8.400   2.004 -2.1466 -3.7478 -0.1081
  863MOL0     H19031   9.577   8.330   1.979 -0.8056  0.2022 -0.8030
  863MOL0     H19032   9.590   8.317   1.810 -2.4907  0.7203  1.6423
  863MOL0     H19033   9.803   8.153   1.847 -0.3709  1.3414 -0.0828
  863MOL0     H19034   9.738   8.134   2.003  3.2199  2.5251  0.4097
  863MOL0     H19035   9.634   8.072   1.733  2.9531 -1.6086  0.1447
  863MOL0     H19036   9.513   8.085   1.870 -0.7441 -2.7438 -0.2574
  863MOL0     H19037   9.730   7.885   1.933 -0.3658 -2.1069  1.2376
  863MOL0     H19038   9.559   7.842   1.910  2.3634 -1.4345  1.3916
  863MOL0     H19039   9.770   7.856   1.702 -1.3173  2.0700 -0.1726
  863MOL0     H19040   9.601   7.821   1.672  1.5003 -0.7135  0.5015
  863MOL0     H19041   9.798   7.667   1.838 -0.8111  1.1007 -0.3486
  863MOL0     H19042   9.621   7.640   1.840 -0.5535  0.6126 -1.4066
  863MOL0     H19043   9.804   7.698   1.503 -0.6843  0.6853 -0.3961
  863MOL0     H19044   9.851   7.560   1.293  1.3989 -1.8012 -1.2525
  863MOL0     H19045   9.705   7.463   1.261  0.4308 -0.6287 -2.3129
  863MOL0     H19046   9.955   7.359   1.418 -0.6786  2.9048  0.8949
  863MOL0     H19047   9.815   7.262   1.365 -1.5898  1.2479 -1.3423
  863MOL0     H19048  10.000   7.236   1.223  2.3634  0.5825 -1.2743
  863MOL0     H19049   9.863   7.317   1.126  2.3155  1.0657 -3.3598
  863MOL0     H19050  10.067   7.491   1.232  0.0880  0.4409  0.0951
  863MOL0     H19051  10.127   7.377   1.112 -0.0305 -0.5370  0.3859
  863MOL0     H19052   9.866   7.665   0.871  0.6353  0.5475 -0.2435
  863MOL0     H19053   9.943   7.759   0.568  2.1896  1.1332  4.0198
  863MOL0     H19054   9.844   7.792   0.697  0.7483  1.0113 -2.0351
  863MOL0     H19055   9.780   7.667   0.584 -1.7171  1.2941  0.5352
  863MOL0     H19056  10.217   7.675   0.312 -2.4527  0.3799 -2.0660
  863MOL0     H19057  10.319   7.674   0.090  1.0228  0.6337  0.4471
  863MOL0     H19058  10.536   7.300  -0.047 -0.9980 -1.3126 -2.3083
  863MOL0     H19059  10.544   7.390  -0.180 -1.1568 -0.2793 -0.0686
  863MOL0     H19060  10.621   7.546   0.073  0.9727 -1.3420  1.2477
  863MOL0     H19061  10.713   7.400   0.026  1.4193  0.9784  1.4482
  863MOL0     H19062  10.677   7.645  -0.143 -1.2547 -0.3927  0.1404
  863MOL0     H19063  10.718   7.490  -0.214 -1.3835  0.6757 -0.9147
  863MOL0     H19064  10.909   7.453  -0.087  1.3456  1.5720 -0.9064
  863MOL0     H19065  10.891   7.585   0.021  0.5464 -1.0045  1.2793
  863MOL0     H19066  10.914   7.721  -0.196 -0.5131 -0.9781 -0.1434
  863MOL0     H19067  11.063   7.654  -0.126 -1.3562  1.6349  1.8703
  863MOL0     H19068  11.043   7.634  -0.373  0.8590 -0.0558  0.8656
  863MOL0     H19069  10.926   7.497  -0.352 -1.4410  0.5905  2.3560
  863MOL0     H19070  11.120   7.423  -0.216 -0.1930 -1.1857 -0.9872
  863MOL0     H19071  11.216   7.557  -0.303 -0.0480  1.8336 -0.1382
  863MOL0     H19072  11.144   7.453  -0.520 -2.1153 -2.2814 -1.6324
  863MOL0     H19073  11.085   7.312  -0.416  0.2025 -0.2161 -3.3492
  863MOL0     H19074  10.389   7.246   0.126  1.9677 -0.3507  1.8234
  863MOL0     H19075  10.324   7.266   0.359 -1.1743  2.6765  1.1939
  863MOL0     H19076  10.210   7.381   0.689 -0.9533 -0.8549 -0.2044
  863MOL0     H19077  10.177   7.362   0.907  0.1361 -0.7793 -1.2843
  863MOL0     H19078   9.995   8.822   1.960 -0.5107  1.2019 -2.4742
  863MOL0     H19079   9.956   9.078   2.006 -1.8511  0.2142 -0.4304
  863MOL0     H19080   9.749   9.387   2.121  0.2418 -0.9154 -0.3816
  863MOL0     H19081   9.729   9.591   2.217 -1.1374 -0.9681 -0.2411
  863MOL0     H19082   9.615   9.754   2.338  2.4147 -1.5810  0.2600
  863MOL0     H19083   9.722   9.845   2.212 -1.8823  3.6416 -1.5516
  863MOL0     H19084   9.479   9.962   2.357  1.4848  1.7099  0.8598
  863MOL0     H19085   9.552  10.043   2.220 -2.0878 -0.4063 -0.3095
  863MOL0     H19086   9.735   9.974   2.431 -0.3229 -1.7239 -4.4548
  863MOL0     H19087   9.735  10.103   2.315 -2.5714  1.1764 -1.6867
  863MOL0     H19088   9.710  10.160   2.558  0.6936  2.0882 -1.1688
  863MOL0     H19089   9.541  10.105   2.565  1.7357  2.2456  3.2950
  863MOL0     H19090   9.535  10.486   2.395 -1.1442 -0.9995 -2.4328
  863MOL0     H19091   9.390   9.681   1.976  1.3564  1.6593 -0.4093
  863MOL0     H19092   9.447   9.463   1.725 -0.3236  2.1083  0.1502
  863MOL0     H19093   9.357   9.359   1.839 -3.9269  1.9157 -1.4037
  863MOL0     H19094   9.311   9.528   1.819 -0.1019 -0.7690 -1.6928
  864MOL0     O19095   2.103   8.611  10.791 -0.0810  0.5836 -0.7775
  864MOL0     C19096   2.210   8.634  10.735 -0.3819  0.4984  0.7882
  864MOL0     O19097   2.227   8.628  10.599 -0.5120  0.1142 -0.0727
  864MOL0     C19098   2.116   8.589  10.532  0.0511 -0.3353  0.1705
  864MOL0     C19099   2.042   8.476  10.554  0.1033  0.1075 -0.8026
  864MOL0     C19100   1.919   8.445  10.496  0.9232 -0.5665  0.3857
  864MOL0     C19101   1.871   8.530  10.396  0.1087  0.2805 -0.0248
  864MOL0     O19102   1.755   8.515  10.331  0.2059  0.6876  1.4642
  864MOL0     C19103   1.641   8.454  10.387 -0.7022  0.0822 -0.1189
  864MOL0     C19104   1.620   8.298  10.343 -0.2226 -0.7570 -0.5351
  864MOL0     C19105   1.641   8.271  10.196  0.3051  0.4749 -1.4780
  864MOL0     C19106   1.642   8.118  10.169  1.3059  0.0094  0.1209
  864MOL0     C19107   1.596   8.075  10.025  1.5761 -0.3512 -0.2697
  864MOL0     C19108   1.721   8.105   9.937 -0.1276 -0.0428 -0.0287
  864MOL0     C19109   1.708   8.060   9.797 -1.1995  0.0481  0.3560
  864MOL0     C19110   1.649   8.176   9.710  1.0571 -0.6037  0.0649
  864MOL0     N19111   1.642   8.137   9.571  0.0858  0.0927  0.4140
  864MOL0     C19112   1.725   8.190   9.474 -0.4869 -0.6968  0.0764
  864MOL0     C19113   1.687   8.128   9.360 -0.1673 -0.2598  0.8521
  864MOL0     C19114   1.752   8.176   9.228  0.3216  0.1399 -0.2799
  864MOL0     C19115   1.762   8.059   9.126 -0.6886  0.0121 -0.0879
  864MOL0     C19116   1.851   8.085   9.012  0.1490 -0.2950  0.0390
  864MOL0     C19117   1.806   8.028   8.880  0.5560  0.4086 -0.6838
  864MOL0     O19118   1.878   7.907   8.858  0.1615  0.5227 -0.4916
  864MOL0     C19119   1.841   7.836   8.747  0.0482  0.5386  0.7045
  864MOL0     C19120   1.723   7.860   8.664 -0.0832  0.2348 -0.7514
  864MOL0     C19121   1.685   7.759   8.578  0.0711 -0.5060  0.7540
  864MOL0     C19122   1.582   7.801   8.472 -0.1045 -0.6228  0.3080
  864MOL0     C19123   1.751   7.634   8.560 -0.2566 -0.9561 -0.2347
  864MOL0     C19124   1.709   7.508   8.481 -0.4326 -0.4118  0.0277
  864MOL0     O19125   1.792   7.395   8.490  0.4215  0.4125 -0.0452
  864MOL0     C19126   1.779   7.309   8.384  0.1340  0.8583 -0.2337
  864MOL0     C19127   1.806   7.362   8.257 -0.5250  0.0647 -0.5540
  864MOL0     C19128   1.833   7.273   8.150  0.1116 -0.1144  0.8325
  864MOL0     C19129   1.822   7.134   8.165  0.0340  0.5979  0.2649
  864MOL0     O19130   1.843   7.031   8.075 -0.4676 -0.1447  0.5703
  864MOL0     C19131   1.899   7.053   7.941  1.8749 -0.4809 -0.0032
  864MOL0     C19132   1.942   6.922   7.880 -0.1021 -1.2329 -0.0037
  864MOL0     C19133   2.079   6.885   7.924  0.5034  0.5560 -0.2868
  864MOL0     C19134   2.088   6.740   7.968  0.1177 -0.4765 -0.6664
  864MOL0     C19135   2.232   6.714   8.014 -0.3789  0.3697 -0.9925
  864MOL0     C19136   2.255   6.565   8.056 -0.0559  0.2145 -0.6394
  864MOL0     C19137   2.238   6.458   7.944  0.1730  1.2631  1.1216
  864MOL0     C19138   2.327   6.486   7.827 -0.5289  0.0517  1.0024
  864MOL0    Cl19139   2.494   6.530   7.882 -0.2316  0.3819 -0.8136
  864MOL0     C19140   1.768   7.095   8.280 -0.4454  0.3078 -0.4547
  864MOL0     C19141   1.741   7.176   8.389  0.6559  0.4805 -0.0519
  864MOL0     O19142   1.606   7.507   8.424 -0.1959 -0.5712  0.2878
  864MOL0     C19143   1.866   7.621   8.641  0.2088  0.1011  0.1345
  864MOL0     C19144   1.913   7.721   8.725 -0.3853  0.2414 -0.0129
  864MOL0     N19145   1.591   8.035   9.391  0.5210 -0.9287  0.4539
  864MOL0     N19146   1.568   8.046   9.511  0.2754  0.6759 -1.2742
  864MOL0     C19147   1.949   8.636  10.344 -0.1148 -0.1101  0.1695
  864MOL0     C19148   2.065   8.670  10.418 -0.0911 -0.1696 -0.8584
  864MOL0     C19149   2.326   8.672  10.815  0.0523 -0.8700 -1.2461
  864MOL0     C19150   2.446   8.691  10.751 -0.6337 -0.8165  0.0196
  864MOL0     C19151   2.573   8.721  10.817  0.0399 -0.7280 -0.3628
  864MOL0     C19152   2.574   8.725  10.958 -0.5659 -0.4349  0.6677
  864MOL0     O19153   2.697   8.734  11.014  1.0279 -0.3224  0.7618
  864MOL0     C19154   2.712   8.633  11.110 -0.3232 -0.2508 -0.6750
  864MOL0     C19155   2.853   8.584  11.095 -0.5551  0.2317  0.4582
  864MOL0     C19156   2.880   8.515  10.964 -0.2351  0.0071  0.1078
  864MOL0     C19157   2.987   8.406  10.981  0.8598 -0.1195 -0.1550
  864MOL0     C19158   3.025   8.350  10.850  0.0185 -0.9203 -0.2160
  864MOL0     C19159   3.066   8.308  10.740  0.1750  1.3531  0.1400
  864MOL0     C19160   2.458   8.722  11.028 -0.5298  0.1206 -0.4481
  864MOL0     C19161   2.335   8.691  10.967  0.4808  0.0468 -0.5386
  864MOL0     C19162   2.222   8.653  11.060 -0.8637  0.7435  0.3681
  864MOL0     H19163   2.072   8.411  10.636  0.0140  0.7679 -0.2328
  864MOL0     H19164   1.865   8.359  10.535  0.3105 -0.8223 -0.9614
  864MOL0     H19165   1.552   8.515  10.370 -0.0005  1.6699  1.6973
  864MOL0     H19166   1.649   8.451  10.496 -0.8658  0.7974 -0.0851
  864MOL0     H19167   1.701   8.244  10.393 -0.0223 -0.4239 -0.4946
  864MOL0     H19168   1.517   8.270  10.366 -0.8333  0.4688 -1.6555
  864MOL0     H19169   1.549   8.311  10.152 -2.0261 -0.1900  2.3990
  864MOL0     H19170   1.730   8.314  10.150  1.3732  0.2514  0.2953
  864MOL0     H19171   1.735   8.072  10.204  0.5132 -2.0954 -0.4022
  864MOL0     H19172   1.558   8.073  10.222  1.2769 -2.9860 -2.1968
  864MOL0     H19173   1.506   8.130   9.998  2.4870  0.9435 -0.7838
  864MOL0     H19174   1.561   7.971  10.020  2.3723 -0.6309 -0.2354
  864MOL0     H19175   1.738   8.213   9.942 -1.1553  0.0795  1.5328
  864MOL0     H19176   1.809   8.057   9.981 -1.4501 -3.9258 -1.2362
  864MOL0     H19177   1.653   7.967   9.809  2.0395 -1.8355  1.7562
  864MOL0     H19178   1.805   8.035   9.753 -1.4447 -2.5193  1.1325
  864MOL0     H19179   1.554   8.210   9.752  0.4804 -0.3723 -1.3869
  864MOL0     H19180   1.714   8.263   9.699  2.4381 -1.6579 -0.3844
  864MOL0     H19181   1.801   8.268   9.472  1.0293 -2.0931 -2.8199
  864MOL0     H19182   1.849   8.224   9.242  0.8870 -1.1469  0.3818
  864MOL0     H19183   1.690   8.255   9.184 -1.0702  0.5499  2.1829
  864MOL0     H19184   1.784   7.964   9.175 -4.7994  0.7370  3.9002
  864MOL0     H19185   1.658   8.049   9.093 -1.4987  2.2773  1.5396
  864MOL0     H19186   1.853   8.193   8.995  0.7480 -0.3323 -0.1427
  864MOL0     H19187   1.948   8.042   9.041 -0.2168 -0.3216  1.2916
  864MOL0     H19188   1.698   8.012   8.879  0.4664  0.9879 -0.8934
  864MOL0     H19189   1.840   8.089   8.796  0.3117 -0.3692 -1.3614
  864MOL0     H19190   1.676   7.958   8.664 -0.6002  0.0420  1.7276
  864MOL0     H19191   1.500   7.731   8.452 -0.0130 -0.4562 -0.7028
  864MOL0     H19192   1.630   7.812   8.374  0.0816 -2.3723  0.1717
  864MOL0     H19193   1.539   7.898   8.500  1.0369 -0.3264  1.0872
  864MOL0     H19194   1.821   7.468   8.241 -3.3676  0.3562 -1.8450
  864MOL0     H19195   1.865   7.312   8.054 -0.1893  1.2419  1.2741
  864MOL0     H19196   1.826   7.101   7.875  0.5445 -0.7498  1.2151
  864MOL0     H19197   1.983   7.123   7.943  0.2607  1.5872 -0.6001
  864MOL0     H19198   1.874   6.844   7.915  0.4724 -1.3219  0.9673
  864MOL0     H19199   1.931   6.919   7.771  1.6055  0.8950 -0.3108
  864MOL0     H19200   2.108   6.944   8.012  0.4889  1.4947 -0.8972
  864MOL0     H19201   2.161   6.904   7.854  0.3874  2.8777  0.1168
  864MOL0     H19202   2.079   6.678   7.879  1.3958  0.3697 -1.4028
  864MOL0     H19203   2.019   6.712   8.049  0.4129  0.7192  0.0344
  864MOL0     H19204   2.306   6.737   7.938  0.1578 -0.1303 -0.6320
  864MOL0     H19205   2.257   6.769   8.105  0.2680 -0.6564 -0.5359
  864MOL0     H19206   2.192   6.548   8.145  1.6925  1.1965  0.8402
  864MOL0     H19207   2.352   6.547   8.102  0.2609 -4.6326 -2.5926
  864MOL0     H19208   2.133   6.448   7.914  0.9875 -2.2864 -1.2700
  864MOL0     H19209   2.255   6.356   7.980  2.3799  1.7298  1.5289
  864MOL0     H19210   2.288   6.575   7.775  3.4683  3.0203  2.5822
  864MOL0     H19211   2.332   6.395   7.766 -2.7292 -1.3776  2.7984
  864MOL0     H19212   1.758   6.989   8.304 -1.4163  0.7207  1.1570
  864MOL0     H19213   1.707   7.139   8.485 -0.8214  2.3327  0.2046
  864MOL0     H19214   1.932   7.536   8.636  0.4802  0.3693 -1.4112
  864MOL0     H19215   2.007   7.702   8.776  0.5266  1.0477 -1.3113
  864MOL0     H19216   1.927   8.691  10.254  0.1540  1.1024  0.8209
  864MOL0     H19217   2.124   8.755  10.386 -0.2426 -0.1643 -1.1353
  864MOL0     H19218   2.442   8.684  10.643  1.1919 -3.9598  0.0416
  864MOL0     H19219   2.665   8.740  10.762  1.1375  1.6035  2.0599
  864MOL0     H19220   2.698   8.686  11.204  3.0212 -0.4137  0.0431
  864MOL0     H19221   2.647   8.546  11.096  1.3841 -2.0041  1.4521
  864MOL0     H19222   2.872   8.521  11.183 -5.7249 -0.6996  1.2151
  864MOL0     H19223   2.931   8.661  11.096  2.4720 -2.5329 -1.0383
  864MOL0     H19224   2.791   8.469  10.919 -1.2578  0.1470  1.8904
  864MOL0     H19225   2.916   8.591  10.894 -1.2278 -0.7056 -1.2409
  864MOL0     H19226   2.946   8.319  11.034 -1.3433 -0.6208 -2.4642
  864MOL0     H19227   3.075   8.435  11.039  3.1270 -6.8415  0.6537
  864MOL0     H19228   3.101   8.274  10.645  0.3192  1.2483  0.2309
  864MOL0     H19229   2.476   8.732  11.134  4.1290 -4.9635 -0.3420
  864MOL0     H19230   2.131   8.604  11.024 -1.0226 -0.2065  1.9776
  864MOL0     H19231   2.277   8.592  11.132 -1.1199  2.4188  2.0870
  864MOL0     H19232   2.187   8.747  11.105 -0.8336  2.1053 -2.2413
  865MOL0     O19233   9.531   8.994   0.875 -0.8521 -0.2225  0.4162
  865MOL0     C19234   9.557   8.897   0.798  0.6840  0.3442  0.0706
  865MOL0     O19235   9.569   8.903   0.660 -0.4030 -1.3051 -0.2322
  865MOL0     C19236   9.541   9.015   0.600 -0.5639 -0.1022 -0.1752
  865MOL0     C19237   9.639   9.113   0.584  0.5091  0.2417  0.5228
  865MOL0     C19238   9.620   9.219   0.490  0.2727 -0.2859 -0.8109
  865MOL0     C19239   9.495   9.229   0.414 -0.4876  0.2847 -0.4441
  865MOL0     O19240   9.479   9.332   0.321 -0.4691 -0.2969  0.2809
  865MOL0     C19241   9.605   9.382   0.261  0.6596  0.3193  0.3295
  865MOL0     C19242   9.654   9.515   0.324 -1.4555  0.9971 -0.9093
  865MOL0     C19243   9.546   9.621   0.299  0.6749 -0.3114 -0.8757
  865MOL0     C19244   9.588   9.768   0.301  0.3878  0.2206 -1.0346
  865MOL0     C19245   9.464   9.848   0.338  0.3071 -0.9704  0.6614
  865MOL0     C19246   9.370   9.855   0.211 -1.0325  0.3796 -0.2738
  865MOL0     C19247   9.236   9.896   0.276  0.4455 -0.1263 -0.0194
  865MOL0     C19248   9.228  10.047   0.309 -0.4136 -0.2406  0.0496
  865MOL0     N19249   9.102  10.099   0.268  0.1880  0.2061  0.1962
  865MOL0     C19250   9.064  10.170   0.159 -0.0540 -0.1297  0.5643
  865MOL0     C19251   8.932  10.207   0.174 -0.0540  1.2710  0.4797
  865MOL0     C19252   8.842  10.274   0.070  0.6833 -0.4254  0.1181
  865MOL0     C19253   8.710  10.188   0.047  0.2737  0.5156  0.5077
  865MOL0     C19254   8.615  10.246  -0.055 -0.7010  0.2945 -0.5106
  865MOL0     C19255   8.503  10.151  -0.107 -0.2347 -0.2055  0.2287
  865MOL0     O19256   8.552  10.027  -0.160 -0.6750  0.2031  0.5182
  865MOL0     C19257   8.560   9.911  -0.095 -0.1349  0.2973 -0.2526
  865MOL0     C19258   8.532   9.895   0.033  0.9922  0.3058 -0.9955
  865MOL0     C19259   8.551   9.778   0.110 -0.4435  0.8699 -0.6334
  865MOL0     C19260   8.484   9.773   0.243 -1.1316 -0.0541  0.9160
  865MOL0     C19261   8.612   9.656   0.047 -0.3248 -0.6269  0.1068
  865MOL0     C19262   8.631   9.524   0.116  0.4557 -0.0042 -0.1617
  865MOL0     O19263   8.541   9.493   0.216 -0.2301 -0.4391 -0.1659
  865MOL0     C19264   8.563   9.375   0.279  0.1145  0.3843  1.2201
  865MOL0     C19265   8.475   9.269   0.249  1.0324  0.2420  0.8648
  865MOL0     C19266   8.499   9.145   0.311  0.2892  0.1391  0.6314
  865MOL0     C19267   8.603   9.126   0.406 -0.0348  0.4621  1.1337
  865MOL0     O19268   8.625   9.004   0.468 -0.1860 -0.6843 -0.2038
  865MOL0     C19269   8.546   8.890   0.435  0.4726  0.0327 -0.3061
  865MOL0     C19270   8.605   8.779   0.520  0.2480  1.1765 -0.0411
  865MOL0     C19271   8.618   8.826   0.671  0.2826  0.5125  0.4580
  865MOL0     C19272   8.644   8.702   0.762 -0.6088 -0.9634 -0.2399
  865MOL0     C19273   8.634   8.728   0.913  0.3240 -0.0832 -0.4852
  865MOL0     C19274   8.638   8.598   0.987 -0.4148  0.3247 -0.3617
  865MOL0     C19275   8.599   8.607   1.135  0.5987  0.2124  0.0311
  865MOL0     C19276   8.643   8.492   1.228  0.3733  0.0682  0.1230
  865MOL0    Cl19277   8.816   8.509   1.270  0.3532 -0.1555 -0.0050
  865MOL0     C19278   8.687   9.230   0.434 -0.1733  0.0423  0.6082
  865MOL0     C19279   8.661   9.357   0.378  0.3060 -0.6560 -0.5613
  865MOL0     O19280   8.703   9.441   0.062 -0.0366  0.1754 -0.1880
  865MOL0     C19281   8.652   9.678  -0.080  0.8075  0.6465  0.1497
  865MOL0     C19282   8.628   9.805  -0.150 -0.4651  0.3521  0.1767
  865MOL0     N19283   8.895  10.162   0.304  0.9388  0.4267 -1.0491
  865MOL0     N19284   8.993  10.085   0.351 -0.4240 -0.8405  0.1199
  865MOL0     C19285   9.400   9.126   0.436 -0.4140 -0.1535 -0.0335
  865MOL0     C19286   9.425   9.020   0.521  1.0166 -0.1150  0.8384
  865MOL0     C19287   9.617   8.782   0.867 -0.9215 -0.7972  0.1442
  865MOL0     C19288   9.757   8.759   0.837  0.3984  0.2860 -0.5241
  865MOL0     C19289   9.808   8.627   0.871  0.4624 -0.4866  0.1319
  865MOL0     C19290   9.728   8.538   0.942 -0.5661 -0.0692  1.1079
  865MOL0     O19291   9.786   8.409   0.952 -0.1708 -0.0420 -0.4860
  865MOL0     C19292   9.829   8.384   1.088 -0.4915 -0.4050  0.0631
  865MOL0     C19293   9.930   8.263   1.085  1.3066 -0.3731 -0.2923
  865MOL0     C19294  10.072   8.301   1.046 -0.3835 -0.6342 -0.6386
  865MOL0     C19295  10.167   8.270   1.170  0.3805 -0.3447  0.0701
  865MOL0     C19296  10.297   8.337   1.163  0.5110  0.2011  0.2928
  865MOL0     C19297  10.392   8.399   1.152 -0.0648  0.2607  0.2147
  865MOL0     C19298   9.602   8.569   0.985 -1.3168 -0.4542 -0.0348
  865MOL0     C19299   9.537   8.692   0.958 -0.5075  0.3648 -0.0268
  865MOL0     C19300   9.402   8.719   1.015 -0.0494  0.1110  0.1513
  865MOL0     H19301   9.731   9.094   0.638  1.2738 -3.4049 -1.6733
  865MOL0     H19302   9.699   9.289   0.465 -1.7732  1.5436 -2.4582
  865MOL0     H19303   9.578   9.403   0.157 -3.4826 -1.6170  0.7800
  865MOL0     H19304   9.684   9.306   0.256 -0.9344 -1.3458 -1.3557
  865MOL0     H19305   9.670   9.507   0.432 -1.1166  1.4846 -0.9208
  865MOL0     H19306   9.748   9.540   0.275  0.1818 -0.8453  1.0775
  865MOL0     H19307   9.511   9.604   0.197  1.3477  1.4473 -1.4321
  865MOL0     H19308   9.467   9.601   0.372  0.6665 -1.6601 -1.2335
  865MOL0     H19309   9.652   9.772   0.390 -3.3850 -3.7087  2.3564
  865MOL0     H19310   9.625   9.793   0.202 -2.4368  0.1043 -2.2068
  865MOL0     H19311   9.490   9.951   0.363  0.0903 -0.6058 -0.5632
  865MOL0     H19312   9.414   9.799   0.423 -3.6644 -0.3017 -1.0739
  865MOL0     H19313   9.411   9.928   0.141  0.9303 -0.2206  0.2013
  865MOL0     H19314   9.362   9.754   0.170 -1.0952 -0.1535  1.0060
  865MOL0     H19315   9.224   9.835   0.365  2.9407 -1.9886 -0.8456
  865MOL0     H19316   9.162   9.868   0.200 -1.3874  1.8504  0.9247
  865MOL0     H19317   9.227  10.065   0.417  0.3043 -0.9897  0.1902
  865MOL0     H19318   9.311  10.109   0.273 -1.2379  1.6390  1.2074
  865MOL0     H19319   9.117  10.173   0.064 -0.9250  1.7151  0.0793
  865MOL0     H19320   8.893  10.289  -0.025 -0.4498 -0.4351 -0.4999
  865MOL0     H19321   8.808  10.365   0.121 -0.7497  0.0841 -1.6557
  865MOL0     H19322   8.751  10.097   0.002 -1.1332 -0.0843  0.4134
  865MOL0     H19323   8.664  10.170   0.145 -0.5170  1.8945  0.4138
  865MOL0     H19324   8.577  10.339  -0.013 -0.9312  0.7212 -1.6305
  865MOL0     H19325   8.671  10.287  -0.139  0.4381  3.6002  1.6611
  865MOL0     H19326   8.432  10.136  -0.026  1.6812  2.5542  2.6400
  865MOL0     H19327   8.458  10.219  -0.181 -1.6122  0.9416  2.0343
  865MOL0     H19328   8.485   9.979   0.084  3.2445  1.1235 -0.1573
  865MOL0     H19329   8.410   9.693   0.246  1.6262 -3.0511 -2.1534
  865MOL0     H19330   8.436   9.868   0.269 -2.2002 -0.1961 -0.4221
  865MOL0     H19331   8.556   9.760   0.324 -1.5875  2.8567  1.8932
  865MOL0     H19332   8.399   9.271   0.171  3.1444  1.1717 -1.2944
  865MOL0     H19333   8.416   9.082   0.283 -0.7199  2.2992 -1.6497
  865MOL0     H19334   8.439   8.900   0.453  0.5807 -0.1257  0.4279
  865MOL0     H19335   8.564   8.874   0.328 -0.5384  3.0308 -1.0377
  865MOL0     H19336   8.549   8.685   0.515  2.8307 -0.4850  0.1338
  865MOL0     H19337   8.704   8.756   0.480  0.7830  2.3805  0.5365
  865MOL0     H19338   8.528   8.883   0.698  1.2323  1.6426  1.3478
  865MOL0     H19339   8.705   8.890   0.687  2.3545 -0.6815 -4.3921
  865MOL0     H19340   8.739   8.652   0.740 -0.3731 -1.4734  1.7649
  865MOL0     H19341   8.553   8.642   0.754 -1.2382 -0.3829  1.9738
  865MOL0     H19342   8.714   8.794   0.949 -0.6474  0.6461  0.3984
  865MOL0     H19343   8.539   8.781   0.926 -0.2866 -0.5080 -2.8071
  865MOL0     H19344   8.732   8.542   0.987 -1.1862 -1.0302 -0.0942
  865MOL0     H19345   8.579   8.518   0.939 -0.3438  0.5279 -0.7984
  865MOL0     H19346   8.490   8.610   1.143  0.6189 -2.3443  4.2344
  865MOL0     H19347   8.646   8.696   1.179 -0.2144  0.9898 -0.6130
  865MOL0     H19348   8.628   8.393   1.185 -1.9974  0.7528 -0.8017
  865MOL0     H19349   8.574   8.476   1.312  1.1008 -0.2592  0.6705
  865MOL0     H19350   8.770   9.227   0.503  2.4878  1.3994 -2.2525
  865MOL0     H19351   8.715   9.445   0.413 -1.0635  0.6352 -1.5596
  865MOL0     H19352   8.692   9.590  -0.128 -0.5878 -0.5281  1.0824
  865MOL0     H19353   8.670   9.799  -0.250  2.5390 -0.8582  1.4000
  865MOL0     H19354   9.304   9.121   0.386  0.0934 -3.0767 -0.8622
  865MOL0     H19355   9.344   8.950   0.539 -0.6255  2.0524  2.4709
  865MOL0     H19356   9.819   8.823   0.777  2.4947 -2.2031 -1.1947
  865MOL0     H19357   9.904   8.606   0.825  1.4533  1.6088  1.1026
  865MOL0     H19358   9.870   8.472   1.139 -4.1741  0.5499  1.7454
  865MOL0     H19359   9.755   8.355   1.162  0.8921 -2.7751  0.5946
  865MOL0     H19360   9.893   8.184   1.019  0.8470  1.1640 -1.9571
  865MOL0     H19361   9.930   8.219   1.185 -0.4946  0.3499  0.0666
  865MOL0     H19362  10.108   8.239   0.964 -0.6837 -1.0629 -0.4463
  865MOL0     H19363  10.078   8.405   1.011 -0.8026 -0.3544  0.0887
  865MOL0     H19364  10.181   8.163   1.182 -2.7506 -0.7947  0.4829
  865MOL0     H19365  10.129   8.304   1.267 -0.8349 -3.6262  0.8629
  865MOL0     H19366  10.480   8.459   1.150 -0.6706  1.1938  0.7354
  865MOL0     H19367   9.556   8.490   1.044 -1.6412 -0.8907 -0.8640
  865MOL0     H19368   9.351   8.805   0.970 -1.2197 -0.3407  0.5769
  865MOL0     H19369   9.338   8.631   1.000  1.7129 -1.2593  0.2297
  865MOL0     H19370   9.389   8.746   1.120 -0.5999 -0.2117  0.1693
  866MOL0     O19371   3.540  11.354   1.272  0.9068 -0.2285 -0.4326
  866MOL0     C19372   3.547  11.453   1.344 -0.2698  0.1627  0.8397
  866MOL0     O19373   3.633  11.474   1.446 -0.0737  0.2453 -0.6186
  866MOL0     C19374   3.756  11.409   1.444 -0.4706  0.7335 -0.4235
  866MOL0     C19375   3.876  11.483   1.427  1.4669 -0.2061 -0.4738
  866MOL0     C19376   3.999  11.425   1.446 -0.3660 -0.6107 -0.7725
  866MOL0     C19377   4.017  11.285   1.465  0.3884 -0.2899 -0.1535
  866MOL0     O19378   4.142  11.236   1.480 -0.2072  0.6263 -0.3471
  866MOL0     C19379   4.165  11.093   1.468 -0.1278 -0.0828 -0.1381
  866MOL0     C19380   4.304  11.075   1.520  0.9668 -0.0166 -0.3638
  866MOL0     C19381   4.410  11.135   1.433 -0.8728 -0.0809  0.0996
  866MOL0     C19382   4.403  11.089   1.282  0.0434 -0.3864 -1.8208
  866MOL0     C19383   4.493  11.185   1.209 -0.1566  0.1217 -0.1824
  866MOL0     C19384   4.547  11.135   1.078 -0.2119  0.1657  0.1166
  866MOL0     C19385   4.628  11.238   0.980  0.8927  0.1416 -1.0504
  866MOL0     C19386   4.545  11.365   0.969 -0.1706  0.2937  0.3189
  866MOL0     N19387   4.628  11.448   0.885  0.7026 -0.7606  0.8736
  866MOL0     C19388   4.712  11.540   0.936  0.1508  0.1702 -0.3455
  866MOL0     C19389   4.774  11.591   0.826 -0.0265  0.7591  0.8230
  866MOL0     C19390   4.895  11.676   0.835 -1.0831 -0.0082 -0.9798
  866MOL0     C19391   4.881  11.783   0.935  0.3371 -0.5330  0.7293
  866MOL0     C19392   5.022  11.862   0.948  0.0705 -0.0471 -0.1988
  866MOL0     C19393   5.033  11.942   1.078  0.0165  0.5050  0.3298
  866MOL0     O19394   5.049  11.863   1.205 -1.1195 -0.0285  1.0956
  866MOL0     C19395   5.182  11.840   1.238 -0.0491 -0.0875 -0.1896
  866MOL0     C19396   5.199  11.720   1.309 -1.1792  0.1774 -0.9921
  866MOL0     C19397   5.333  11.699   1.363  0.3142  0.7098 -0.1863
  866MOL0     C19398   5.352  11.572   1.449  0.2756 -0.1140 -0.0280
  866MOL0     C19399   5.438  11.780   1.327 -0.1014  0.3159 -0.1680
  866MOL0     C19400   5.580  11.759   1.356  1.0896 -0.1609 -0.3359
  866MOL0     O19401   5.649  11.870   1.379 -0.1249  0.5843  0.0059
  866MOL0     C19402   5.748  11.862   1.477 -0.1123  1.1621 -0.0235
  866MOL0     C19403   5.861  11.776   1.473 -0.1915 -0.3795  0.6281
  866MOL0     C19404   5.965  11.790   1.559  0.1142  0.8616  0.5619
  866MOL0     C19405   5.946  11.866   1.672  0.2113  0.1634 -0.4853
  866MOL0     O19406   6.051  11.858   1.763 -0.6075  0.2822  0.3304
  866MOL0     C19407   6.030  11.823   1.901 -0.2046  0.1440  0.2852
  866MOL0     C19408   6.168  11.831   1.956 -1.2320  0.2485  0.6055
  866MOL0     C19409   6.230  11.977   1.951  0.1286 -0.0219 -1.3649
  866MOL0     C19410   6.382  11.971   1.948  0.2560 -0.1466  0.0696
  866MOL0     C19411   6.432  11.930   2.082  1.5364 -0.5911 -0.4330
  866MOL0     C19412   6.588  11.906   2.075  0.3938 -0.2472  0.0744
  866MOL0     C19413   6.661  12.034   2.063 -0.4541 -0.2150 -0.4063
  866MOL0     C19414   6.794  12.038   2.144 -0.5764  0.2427  0.8681
  866MOL0    Cl19415   6.739  12.030   2.324 -0.6457 -0.4258  0.0902
  866MOL0     C19416   5.830  11.946   1.692  0.8737  0.3477  0.7341
  866MOL0     C19417   5.740  11.951   1.587  0.2732 -0.2148  0.2197
  866MOL0     O19418   5.623  11.649   1.381 -0.0182  0.2932  0.0441
  866MOL0     C19419   5.417  11.896   1.257  0.9573 -0.5368 -1.0583
  866MOL0     C19420   5.287  11.935   1.221 -0.5887  0.2273  1.0942
  866MOL0     N19421   4.718  11.532   0.711  0.4194  0.5121 -0.3887
  866MOL0     N19422   4.627  11.452   0.750  0.3237 -0.5788  0.1264
  866MOL0     C19423   3.901  11.211   1.474 -0.4141 -0.0822  0.8036
  866MOL0     C19424   3.773  11.264   1.470 -0.4645 -0.7587  0.6624
  866MOL0     C19425   3.447  11.561   1.334  0.6217 -0.1734  1.2975
  866MOL0     C19426   3.477  11.685   1.380  0.2334 -0.5139  0.0999
  866MOL0     C19427   3.375  11.791   1.381  0.2164  0.5051 -0.0306
  866MOL0     C19428   3.251  11.768   1.325 -0.0983 -0.4372  0.3824
  866MOL0     O19429   3.153  11.861   1.323 -0.3470  0.5647 -0.5124
  866MOL0     C19430   3.177  11.989   1.396  0.4947 -0.2830  0.2883
  866MOL0     C19431   3.038  12.075   1.384 -0.7513 -0.3509 -0.9168
  866MOL0     C19432   2.984  12.101   1.238 -0.9624 -0.2217  1.1230
  866MOL0     C19433   2.851  12.176   1.231  1.1271  0.1935 -0.7882
  866MOL0     C19434   2.871  12.320   1.219 -0.1855 -0.6679  1.0708
  866MOL0     C19435   2.862  12.440   1.215 -0.7980  1.4250  0.3340
  866MOL0     C19436   3.217  11.639   1.289 -0.4384  0.7054  0.5943
  866MOL0     C19437   3.314  11.540   1.288 -0.1925 -0.6075  0.1924
  866MOL0     C19438   3.268  11.405   1.247 -0.1108  0.2722 -0.5282
  866MOL0     H19439   3.881  11.591   1.413  1.4757  0.5007  3.6179
  866MOL0     H19440   4.076  11.501   1.433 -2.4576  1.9681  0.9522
  866MOL0     H19441   4.154  11.062   1.364 -1.0681 -1.7222  0.3936
  866MOL0     H19442   4.094  11.042   1.535 -0.0688  0.3471  0.2576
  866MOL0     H19443   4.298  11.106   1.624  0.8784  2.7254 -1.1226
  866MOL0     H19444   4.320  10.967   1.524 -2.4976 -0.6224  2.9034
  866MOL0     H19445   4.388  11.242   1.428 -1.5492 -0.0204  2.6768
  866MOL0     H19446   4.509  11.137   1.480 -0.4904  2.1973 -0.7125
  866MOL0     H19447   4.440  10.986   1.279  1.5777  0.1192 -1.2288
  866MOL0     H19448   4.306  11.087   1.232 -0.9937  0.2295  0.0752
  866MOL0     H19449   4.582  11.212   1.267 -0.2268 -1.4637  0.7007
  866MOL0     H19450   4.427  11.271   1.189  0.7638  0.4955 -1.7247
  866MOL0     H19451   4.623  11.058   1.095  0.6666  1.3709  2.0744
  866MOL0     H19452   4.463  11.091   1.024 -0.3504 -1.6134  1.6674
  866MOL0     H19453   4.647  11.190   0.883 -1.2933  2.4133 -2.7220
  866MOL0     H19454   4.725  11.256   1.027  0.9119 -0.6845 -0.7483
  866MOL0     H19455   4.448  11.352   0.920 -0.4888  0.5375  0.8724
  866MOL0     H19456   4.532  11.411   1.067  2.4517 -1.2627  1.4868
  866MOL0     H19457   4.742  11.556   1.039  0.2262  0.1607 -0.3665
  866MOL0     H19458   4.932  11.713   0.739  1.2108 -1.3376 -0.7024
  866MOL0     H19459   4.975  11.611   0.872  0.8380  1.0941 -2.9694
  866MOL0     H19460   4.797  11.852   0.924 -0.6239 -2.0466 -3.0848
  866MOL0     H19461   4.866  11.729   1.029 -4.9912 -0.8023  0.0245
  866MOL0     H19462   5.099  11.785   0.947  0.8707  0.7283 -0.1216
  866MOL0     H19463   5.040  11.924   0.860  0.2511 -0.2909 -0.3351
  866MOL0     H19464   5.112  12.011   1.047 -0.4178  0.5897 -0.6187
  866MOL0     H19465   4.940  11.998   1.088 -0.4909 -0.5486  1.8097
  866MOL0     H19466   5.116  11.655   1.337 -1.5840  2.1081  3.0582
  866MOL0     H19467   5.329  11.476   1.404  2.1537  0.2618 -1.9017
  866MOL0     H19468   5.279  11.589   1.529  1.5672  0.9386  0.9753
  866MOL0     H19469   5.444  11.579   1.508  0.4390  3.2930 -0.4593
  866MOL0     H19470   5.871  11.715   1.384 -0.7724  0.4918 -0.0501
  866MOL0     H19471   6.050  11.732   1.523 -1.4496  0.5699 -3.0793
  866MOL0     H19472   5.967  11.892   1.958 -1.9199 -2.0194  1.1321
  866MOL0     H19473   5.981  11.726   1.911  0.4177 -0.0608  1.4603
  866MOL0     H19474   6.182  11.788   2.056  0.3567  0.9460  0.7201
  866MOL0     H19475   6.220  11.775   1.878 -0.9561  0.9174  0.2994
  866MOL0     H19476   6.192  12.028   2.040  1.7651 -1.9103  0.5469
  866MOL0     H19477   6.201  12.027   1.859  2.4581  1.3552 -1.4213
  866MOL0     H19478   6.414  12.070   1.915 -1.0140 -0.3988 -2.1198
  866MOL0     H19479   6.429  11.906   1.874  2.2620  0.7520  0.4924
  866MOL0     H19480   6.403  12.012   2.149 -4.7429  0.9641 -4.2227
  866MOL0     H19481   6.390  11.843   2.132 -2.8450  2.9269  2.8527
  866MOL0     H19482   6.593  11.832   1.994 -0.7321 -0.6388  0.3414
  866MOL0     H19483   6.623  11.854   2.164 -0.5662 -1.2354 -0.1011
  866MOL0     H19484   6.593  12.113   2.095 -0.0912  0.6086 -1.5704
  866MOL0     H19485   6.688  12.053   1.958 -0.6956  0.7044 -0.3163
  866MOL0     H19486   6.848  12.133   2.133 -0.4123  0.3828  2.7070
  866MOL0     H19487   6.869  11.966   2.110 -0.1427  1.9683 -2.2150
  866MOL0     H19488   5.802  12.005   1.779  1.1838  2.4765 -0.5155
  866MOL0     H19489   5.657  12.021   1.596  1.8083  1.4993  1.8060
  866MOL0     H19490   5.487  11.973   1.227  1.0276  1.4431  3.4722
  866MOL0     H19491   5.274  12.027   1.166  0.5098 -0.7635 -0.9632
  866MOL0     H19492   3.903  11.104   1.486 -2.7635 -0.2249  0.2637
  866MOL0     H19493   3.681  11.208   1.482 -0.7996 -0.6572 -1.0882
  866MOL0     H19494   3.572  11.708   1.427  0.6208  1.2881 -1.4460
  866MOL0     H19495   3.404  11.881   1.434  2.6227 -1.4635  2.2953
  866MOL0     H19496   3.202  11.962   1.500  1.0684  0.1817  0.2806
  866MOL0     H19497   3.264  12.045   1.360  1.1917  0.3662  2.7522
  866MOL0     H19498   3.057  12.166   1.442  2.3016 -1.8441  0.6266
  866MOL0     H19499   2.967  12.025   1.449  0.7142  1.1941  2.0845
  866MOL0     H19500   3.066  12.144   1.180  0.1402  0.2077  2.9279
  866MOL0     H19501   2.971  11.997   1.206  0.2818 -1.3608  3.9751
  866MOL0     H19502   2.793  12.155   1.321  0.0784 -0.9499 -1.6930
  866MOL0     H19503   2.797  12.139   1.143  0.2273 -1.1575  0.2791
  866MOL0     H19504   2.862  12.547   1.221 -0.4318  1.3978  0.9930
  866MOL0     H19505   3.115  11.632   1.252  0.0172  2.6330 -1.2123
  866MOL0     H19506   3.293  11.337   1.329  0.7604  1.2708  0.0580
  866MOL0     H19507   3.160  11.414   1.234 -0.2951  2.6158  1.9376
  866MOL0     H19508   3.322  11.361   1.162  4.2693  1.5085  1.3396
  867MOL0     O19509   3.052   1.389   4.188  0.0399  0.3120 -1.0144
  867MOL0     C19510   3.048   1.426   4.313  0.3707  0.7259  0.2328
  867MOL0     O19511   3.144   1.397   4.408  0.4743  0.4898  0.6789
  867MOL0     C19512   3.241   1.304   4.370 -0.7938  0.8395  0.5331
  867MOL0     C19513   3.236   1.175   4.423  0.0137 -0.4407  0.6937
  867MOL0     C19514   3.329   1.081   4.391 -0.8115  0.3458 -1.0546
  867MOL0     C19515   3.436   1.109   4.301  0.0571  0.2762 -0.8622
  867MOL0     O19516   3.526   1.010   4.262  0.0897 -0.5362 -0.0272
  867MOL0     C19517   3.617   1.029   4.155  0.5630  0.3747 -0.9235
  867MOL0     C19518   3.699   0.896   4.136  0.1088  0.3863 -0.4767
  867MOL0     C19519   3.795   0.855   4.255  0.6366  0.2610  0.7204
  867MOL0     C19520   3.926   0.932   4.232  0.0345 -0.7311 -0.5907
  867MOL0     C19521   4.031   0.854   4.132 -0.2824  0.4287  0.0949
  867MOL0     C19522   4.168   0.907   4.136 -0.0077  0.1932 -0.5514
  867MOL0     C19523   4.261   0.812   4.066  0.6441  0.4236  0.1807
  867MOL0     C19524   4.406   0.824   4.096  0.1096  0.1002 -0.1632
  867MOL0     N19525   4.472   0.936   4.023  0.1724 -0.1499 -0.0481
  867MOL0     C19526   4.461   1.061   4.056  0.4641 -0.4454 -0.4210
  867MOL0     C19527   4.537   1.131   3.968  0.4716 -0.0597 -0.4511
  867MOL0     C19528   4.577   1.279   3.971 -0.0282 -0.3651 -0.7224
  867MOL0     C19529   4.641   1.328   4.096  0.6214  0.0239  0.5081
  867MOL0     C19530   4.670   1.474   4.114  0.9273  0.4393 -0.2889
  867MOL0     C19531   4.791   1.509   4.204 -0.1948 -0.0792  0.2786
  867MOL0     O19532   4.807   1.656   4.176  0.2069  0.6036  0.1983
  867MOL0     C19533   4.719   1.740   4.236 -0.2882 -0.1423 -0.0167
  867MOL0     C19534   4.720   1.754   4.375 -0.0515  0.0373 -1.0195
  867MOL0     C19535   4.628   1.844   4.441 -0.6077  0.7074  0.8379
  867MOL0     C19536   4.618   1.850   4.594 -0.5762 -0.7643 -0.1564
  867MOL0     C19537   4.555   1.940   4.362 -0.1894 -0.7779  0.1964
  867MOL0     C19538   4.488   2.065   4.415 -0.8145  0.2409 -0.1555
  867MOL0     O19539   4.389   2.119   4.342 -0.2778 -0.1463  0.4546
  867MOL0     C19540   4.332   2.243   4.371 -0.6252 -0.2884 -0.1454
  867MOL0     C19541   4.401   2.353   4.415  1.4016 -0.6871  0.3492
  867MOL0     C19542   4.341   2.456   4.479 -0.5810 -0.2469 -0.4552
  867MOL0     C19543   4.204   2.468   4.480  0.0228  0.4376  0.3363
  867MOL0     O19544   4.140   2.577   4.532  0.1965 -0.1940 -0.3587
  867MOL0     C19545   4.135   2.695   4.457 -0.1626 -0.0120  0.3557
  867MOL0     C19546   4.002   2.688   4.365 -0.1347 -0.3334 -0.0978
  867MOL0     C19547   3.884   2.641   4.454 -0.2740  0.0415 -0.1045
  867MOL0     C19548   3.861   2.711   4.585  0.1642  0.4446 -0.2070
  867MOL0     C19549   3.848   2.863   4.596  0.4012 -0.4424  0.3852
  867MOL0     C19550   3.773   2.908   4.718 -0.2114 -0.1755  0.7656
  867MOL0     C19551   3.764   3.061   4.710 -0.7065  0.2451 -0.1427
  867MOL0     C19552   3.636   3.120   4.635 -0.3187 -0.5339 -1.2664
  867MOL0    Cl19553   3.651   3.300   4.625  0.0793  0.1545 -0.4161
  867MOL0     C19554   4.131   2.362   4.431  0.6173 -0.6723 -0.1691
  867MOL0     C19555   4.196   2.259   4.372  0.6760 -0.1509  0.0265
  867MOL0     O19556   4.509   2.097   4.532 -0.4795  0.6195 -0.3825
  867MOL0     C19557   4.559   1.920   4.222  0.0924 -0.8234  0.9651
  867MOL0     C19558   4.643   1.826   4.162 -0.0674  0.6199  0.5803
  867MOL0     N19559   4.594   1.045   3.876  0.3811 -0.2127 -0.2531
  867MOL0     N19560   4.552   0.924   3.908 -0.6663  0.3391  0.4213
  867MOL0     C19561   3.449   1.244   4.244 -0.4437  0.5384  0.3644
  867MOL0     C19562   3.348   1.333   4.286  0.4112 -0.5278  0.6166
  867MOL0     C19563   2.941   1.507   4.359  1.1101  0.0746  0.1773
  867MOL0     C19564   2.873   1.583   4.261 -0.3702 -0.7102  0.6032
  867MOL0     C19565   2.769   1.670   4.296 -0.1124 -0.0631  0.3865
  867MOL0     C19566   2.719   1.663   4.421  0.1663 -0.2155 -0.2339
  867MOL0     O19567   2.626   1.768   4.440 -0.8147  0.4769  0.2273
  867MOL0     C19568   2.526   1.756   4.545 -0.3339 -1.5773 -1.1159
  867MOL0     C19569   2.512   1.889   4.623  0.5830 -0.4205 -0.0499
  867MOL0     C19570   2.643   1.950   4.661  0.0300 -0.1925 -0.1148
  867MOL0     C19571   2.717   1.885   4.778  0.1562 -0.0967  0.1979
  867MOL0     C19572   2.677   1.918   4.911 -0.2547  0.8531  0.0400
  867MOL0     C19573   2.612   1.935   5.009  0.5373  0.0464 -0.3390
  867MOL0     C19574   2.769   1.571   4.525 -0.2335  0.4237  0.6600
  867MOL0     C19575   2.878   1.490   4.492  0.2703  0.2815  0.0626
  867MOL0     C19576   2.921   1.388   4.590 -0.3085  0.2038  0.3632
  867MOL0     H19577   3.154   1.153   4.491 -1.7621  1.3617 -0.7317
  867MOL0     H19578   3.318   0.998   4.460 -0.5641  1.2009  0.0445
  867MOL0     H19579   3.686   1.110   4.176  0.4409  1.3926 -3.9530
  867MOL0     H19580   3.550   1.049   4.071 -1.5041 -0.6490  0.4022
  867MOL0     H19581   3.640   0.805   4.130  1.6358 -0.8127  1.2855
  867MOL0     H19582   3.754   0.924   4.046  0.4314  3.4253  0.5252
  867MOL0     H19583   3.759   0.855   4.358 -1.1699 -1.0411  0.1401
  867MOL0     H19584   3.814   0.748   4.242  1.0453 -0.0969  3.7035
  867MOL0     H19585   3.904   1.030   4.188 -0.9391 -0.7497 -0.1621
  867MOL0     H19586   3.971   0.942   4.331 -2.3954 -2.4546  0.7750
  867MOL0     H19587   4.003   0.855   4.027  4.8710 -1.1763 -1.6227
  867MOL0     H19588   4.029   0.750   4.165 -1.1815  0.4573  0.1556
  867MOL0     H19589   4.171   0.998   4.075  1.3955  0.5973  0.0644
  867MOL0     H19590   4.206   0.915   4.239 -0.1273 -2.3272 -0.2597
  867MOL0     H19591   4.241   0.837   3.962  1.2963  3.4065  0.6925
  867MOL0     H19592   4.233   0.710   4.097  3.1655 -0.2278  0.4950
  867MOL0     H19593   4.416   0.834   4.204 -3.0013 -5.1557  0.9438
  867MOL0     H19594   4.443   0.722   4.081 -0.3315 -0.6490  3.0973
  867MOL0     H19595   4.407   1.121   4.129  2.6900  0.9187  0.1914
  867MOL0     H19596   4.490   1.343   3.955  1.1873  1.4990 -0.3371
  867MOL0     H19597   4.644   1.298   3.887  3.5649 -2.0198  1.5186
  867MOL0     H19598   4.581   1.286   4.177  1.6563  0.0530  1.3122
  867MOL0     H19599   4.738   1.278   4.104  0.2442 -0.8876 -0.3261
  867MOL0     H19600   4.683   1.513   4.012 -1.6639 -0.3611 -0.9894
  867MOL0     H19601   4.584   1.530   4.150  0.3877 -0.2176 -0.5489
  867MOL0     H19602   4.766   1.496   4.310  1.1052  1.3215  0.8060
  867MOL0     H19603   4.888   1.459   4.197  0.0181  0.4488 -0.6427
  867MOL0     H19604   4.787   1.691   4.433  1.2149 -0.4429 -2.9250
  867MOL0     H19605   4.517   1.877   4.625  0.3624  1.7952  1.0019
  867MOL0     H19606   4.692   1.927   4.616  1.9433 -2.8192 -0.8877
  867MOL0     H19607   4.646   1.750   4.631  0.6548 -1.0567 -1.7615
  867MOL0     H19608   4.509   2.352   4.406  1.2357 -0.1149 -2.1644
  867MOL0     H19609   4.395   2.542   4.516 -1.4009  0.2833 -0.4548
  867MOL0     H19610   4.117   2.781   4.522  0.0512 -1.0503  1.8136
  867MOL0     H19611   4.215   2.721   4.387 -1.8749  1.5743 -1.1342
  867MOL0     H19612   3.987   2.788   4.323  0.8601 -1.4004 -3.2160
  867MOL0     H19613   4.031   2.617   4.287 -3.2038 -2.2505  0.3513
  867MOL0     H19614   3.889   2.535   4.477  0.0188  0.5481  2.5040
  867MOL0     H19615   3.789   2.658   4.402 -0.2270  2.0135  0.3604
  867MOL0     H19616   3.937   2.673   4.655  1.3682 -1.8452 -2.5967
  867MOL0     H19617   3.759   2.681   4.613 -0.0149  1.2512  0.0338
  867MOL0     H19618   3.944   2.914   4.593  1.1382 -1.8336 -0.2676
  867MOL0     H19619   3.787   2.880   4.506  0.7887 -3.2000 -0.4860
  867MOL0     H19620   3.831   2.871   4.803  0.3128  2.3919  1.6113
  867MOL0     H19621   3.679   2.852   4.727  1.0581 -2.3951  0.9707
  867MOL0     H19622   3.844   3.102   4.647 -0.6829  1.3252  0.5568
  867MOL0     H19623   3.771   3.096   4.814 -0.6233 -2.8879  1.0067
  867MOL0     H19624   3.551   3.100   4.702 -1.0032 -3.5708 -2.8507
  867MOL0     H19625   3.617   3.078   4.536  2.4482 -5.0877 -0.1503
  867MOL0     H19626   4.025   2.362   4.456  0.7722  2.7532  1.0307
  867MOL0     H19627   4.130   2.178   4.343 -1.2895  1.7683 -1.1099
  867MOL0     H19628   4.509   1.986   4.153  0.6092 -0.5921  0.8141
  867MOL0     H19629   4.639   1.825   4.053 -1.0141 -0.2231  0.6047
  867MOL0     H19630   3.521   1.273   4.169 -0.3520  2.5396  1.1633
  867MOL0     H19631   3.352   1.430   4.238  5.7356 -0.5092  0.5241
  867MOL0     H19632   2.905   1.587   4.157 -1.4140 -0.0162  0.2923
  867MOL0     H19633   2.719   1.737   4.227 -1.8955  0.3706  2.0011
  867MOL0     H19634   2.432   1.712   4.510 -0.8234 -0.5363 -1.1567
  867MOL0     H19635   2.547   1.678   4.618  1.6760 -0.8471 -0.8554
  867MOL0     H19636   2.452   1.877   4.713 -0.5493 -1.5131 -0.9144
  867MOL0     H19637   2.463   1.953   4.549  1.2296 -2.0792 -2.0299
  867MOL0     H19638   2.714   1.949   4.577  0.1009  0.1802 -0.0609
  867MOL0     H19639   2.630   2.055   4.688  1.9884 -0.1527  0.8470
  867MOL0     H19640   2.823   1.909   4.769 -0.2449  1.3936 -0.9776
  867MOL0     H19641   2.725   1.776   4.764 -0.0887 -0.3328  1.7035
  867MOL0     H19642   2.550   1.965   5.091  0.0632 -0.7192 -0.4073
  867MOL0     H19643   2.713   1.566   4.617  2.0079  0.2558  2.0995
  867MOL0     H19644   3.023   1.420   4.613  0.4725 -2.1201  0.3724
  867MOL0     H19645   2.851   1.373   4.673 -0.4506  0.2805  0.2571
  867MOL0     H19646   2.927   1.290   4.542  1.8184  0.6491 -0.4111
  868MOL0     O19647   7.493   6.929   3.050  0.0922 -0.0325  0.1489
  868MOL0     C19648   7.564   6.901   2.953 -0.7155  0.0795 -0.0660
  868MOL0     O19649   7.544   6.803   2.860  0.0902 -0.2273  0.3727
  868MOL0     C19650   7.474   6.690   2.875 -0.0944 -0.1694  0.1168
  868MOL0     C19651   7.535   6.585   2.810 -0.1794  0.1759  0.5717
  868MOL0     C19652   7.473   6.454   2.821 -0.5644 -1.0126 -0.6013
  868MOL0     C19653   7.341   6.438   2.868  1.2770 -0.5446  1.6436
  868MOL0     O19654   7.278   6.318   2.843  0.3019  0.1014 -0.6636
  868MOL0     C19655   7.145   6.302   2.844  1.5123 -0.4098 -0.1965
  868MOL0     C19656   7.082   6.215   2.725  0.5661  0.0095 -0.4853
  868MOL0     C19657   7.162   6.097   2.700 -0.6020  0.6466  0.3975
  868MOL0     C19658   7.097   6.030   2.579 -0.5958  0.1426 -0.7316
  868MOL0     C19659   7.158   5.897   2.541 -0.2195  0.3518 -0.1134
  868MOL0     C19660   7.072   5.841   2.421 -0.0315  0.1285 -0.1279
  868MOL0     C19661   7.123   5.697   2.390 -0.0445  1.3142 -0.4052
  868MOL0     C19662   7.165   5.669   2.246 -0.2706  0.1302 -0.5765
  868MOL0     N19663   7.051   5.688   2.163  0.4765  0.5850  0.4003
  868MOL0     C19664   6.917   5.666   2.196 -0.4938 -1.2914  0.8370
  868MOL0     C19665   6.845   5.706   2.087  0.2454  1.1471  0.0074
  868MOL0     C19666   6.696   5.695   2.084 -0.2550  0.5064  0.2124
  868MOL0     C19667   6.620   5.782   2.184  0.7838 -0.4490 -0.0497
  868MOL0     C19668   6.645   5.925   2.159  0.5922  0.5827 -0.0262
  868MOL0     C19669   6.577   6.006   2.270 -0.6049  0.4787 -0.3280
  868MOL0     O19670   6.448   5.971   2.310  0.5413  1.0628 -0.1813
  868MOL0     C19671   6.383   6.034   2.416 -0.4139 -0.6984 -1.0331
  868MOL0     C19672   6.261   5.988   2.457  0.7610  1.0788  0.3935
  868MOL0     C19673   6.193   6.038   2.565 -0.6083  0.1994  0.2264
  868MOL0     C19674   6.071   5.974   2.597  0.6099  0.1360 -0.5519
  868MOL0     C19675   6.261   6.136   2.649  0.5625  0.3543  0.4052
  868MOL0     C19676   6.206   6.174   2.784 -0.2351  0.5556 -1.2081
  868MOL0     O19677   6.204   6.305   2.810 -1.9068  0.0745  0.4212
  868MOL0     C19678   6.180   6.364   2.929 -1.0991 -0.4821  0.3025
  868MOL0     C19679   6.141   6.491   2.907  0.2140  0.9444  0.3688
  868MOL0     C19680   6.113   6.576   3.018 -0.5174  0.5002 -0.3897
  868MOL0     C19681   6.118   6.542   3.149 -0.4026 -0.2172 -0.1988
  868MOL0     O19682   6.080   6.621   3.256 -0.2238  0.6243  0.5878
  868MOL0     C19683   6.056   6.759   3.241 -0.7997  0.1009 -0.8552
  868MOL0     C19684   6.075   6.845   3.370  0.2082  0.2715  0.5249
  868MOL0     C19685   6.099   6.990   3.339 -0.6599 -0.3199 -0.0301
  868MOL0     C19686   6.016   7.080   3.429  1.1890 -0.6392 -0.0885
  868MOL0     C19687   6.068   7.217   3.434 -0.3138  0.3457 -0.5362
  868MOL0     C19688   6.060   7.286   3.290  0.2329 -0.9717 -0.4122
  868MOL0     C19689   6.132   7.423   3.293  0.0796  0.1440 -0.7552
  868MOL0     C19690   6.094   7.527   3.198 -0.5327 -0.9012 -0.6314
  868MOL0    Cl19691   6.116   7.480   3.042 -0.1753  0.3848  0.6324
  868MOL0     C19692   6.172   6.410   3.173  0.6860 -0.8222 -0.0691
  868MOL0     C19693   6.198   6.326   3.066 -0.2900 -0.5305 -0.1523
  868MOL0     O19694   6.188   6.081   2.871 -0.2294 -1.0821 -0.1279
  868MOL0     C19695   6.382   6.184   2.601  0.5817 -0.3416  0.5155
  868MOL0     C19696   6.447   6.123   2.498  0.8115 -0.0653 -0.1259
  868MOL0     N19697   6.934   5.732   1.992 -0.6220  0.4391  0.2178
  868MOL0     N19698   7.060   5.722   2.033  0.2713  0.1219 -0.4715
  868MOL0     C19699   7.280   6.558   2.936 -0.5779 -0.1773  1.2494
  868MOL0     C19700   7.361   6.677   2.944  0.0869  0.6678  0.9499
  868MOL0     C19701   7.670   7.004   2.923 -0.5870 -0.1236 -0.2765
  868MOL0     C19702   7.722   7.007   2.790  0.3881 -0.1372  0.1601
  868MOL0     C19703   7.819   7.105   2.754  0.8729 -0.0660 -0.6438
  868MOL0     C19704   7.878   7.180   2.846 -0.5736  0.1202  0.3739
  868MOL0     O19705   7.995   7.251   2.816 -0.7429 -0.1095  0.4642
  868MOL0     C19706   8.108   7.243   2.903  0.4959  0.1525 -0.0838
  868MOL0     C19707   8.229   7.250   2.813 -0.2911  0.6923 -0.9439
  868MOL0     C19708   8.241   7.371   2.728 -0.9446  0.4560  0.5688
  868MOL0     C19709   8.336   7.353   2.600 -0.8505  0.6064  0.0846
  868MOL0     C19710   8.478   7.335   2.649  1.3953 -0.7347 -0.4270
  868MOL0     C19711   8.588   7.320   2.680 -0.7021  0.0131 -0.1079
  868MOL0     C19712   7.827   7.180   2.976  0.1204  0.0774  0.5067
  868MOL0     C19713   7.726   7.096   3.013 -0.1462  1.8767 -0.0639
  868MOL0     C19714   7.685   7.104   3.165  0.1422  0.0990 -1.4256
  868MOL0     H19715   7.626   6.610   2.756  0.1849  1.0671  1.5731
  868MOL0     H19716   7.526   6.367   2.782  1.8740  0.5728 -1.0536
  868MOL0     H19717   7.091   6.397   2.848  1.9658 -0.1114 -1.0251
  868MOL0     H19718   7.114   6.246   2.933  1.7493  0.6435  0.5694
  868MOL0     H19719   6.982   6.195   2.763  2.0827 -1.2393  3.3773
  868MOL0     H19720   7.062   6.276   2.636 -3.1648  2.0935  1.5361
  868MOL0     H19721   7.263   6.124   2.668 -0.0029 -0.6657  1.1015
  868MOL0     H19722   7.168   6.024   2.781 -2.8345 -0.4871 -0.3772
  868MOL0     H19723   6.996   6.003   2.610 -0.1332 -1.9245 -0.8814
  868MOL0     H19724   7.094   6.105   2.500 -0.9916  0.3758 -0.5018
  868MOL0     H19725   7.149   5.828   2.625 -1.8651  3.3071  2.3434
  868MOL0     H19726   7.260   5.914   2.506 -0.1877  0.9315  0.2394
  868MOL0     H19727   6.967   5.832   2.450 -0.8118 -0.8283 -2.9434
  868MOL0     H19728   7.077   5.903   2.332  0.9591 -2.0940 -1.7210
  868MOL0     H19729   7.054   5.617   2.414  1.6268 -0.0651  0.0108
  868MOL0     H19730   7.203   5.674   2.461 -0.2723 -2.4841 -1.1606
  868MOL0     H19731   7.233   5.752   2.224 -0.9392  1.9283  3.2749
  868MOL0     H19732   7.224   5.577   2.246  3.9143  2.5334 -0.0043
  868MOL0     H19733   6.878   5.643   2.295 -4.8263 -0.5410 -0.4649
  868MOL0     H19734   6.678   5.590   2.109 -0.4638  0.7504  1.1095
  868MOL0     H19735   6.675   5.716   1.978  2.3927  1.6926 -0.1780
  868MOL0     H19736   6.519   5.758   2.151  0.1343  1.2488  0.6110
  868MOL0     H19737   6.642   5.754   2.287  1.1319 -0.5003 -0.1366
  868MOL0     H19738   6.752   5.944   2.169  0.3400  1.7476  0.6071
  868MOL0     H19739   6.613   5.958   2.059 -0.8434 -0.7117 -0.0392
  868MOL0     H19740   6.645   5.982   2.352  0.0927 -0.6504 -1.2050
  868MOL0     H19741   6.587   6.114   2.258  1.4674  0.2696 -0.7569
  868MOL0     H19742   6.223   5.916   2.385  1.1009  0.4556  0.8312
  868MOL0     H19743   6.089   5.924   2.692  5.8626 -1.4622 -2.0179
  868MOL0     H19744   6.037   5.911   2.514 -1.0892  2.1905 -1.4965
  868MOL0     H19745   5.999   6.056   2.608 -3.3906 -2.8911 -1.7651
  868MOL0     H19746   6.116   6.531   2.809  0.7769  1.7034  0.5285
  868MOL0     H19747   6.069   6.672   2.994  0.1405  0.5087 -1.7080
  868MOL0     H19748   6.144   6.789   3.182  1.6728 -1.9156  1.5686
  868MOL0     H19749   5.973   6.800   3.182 -1.5591  0.3493  0.3570
  868MOL0     H19750   5.991   6.832   3.440  0.9707  0.4332  1.5005
  868MOL0     H19751   6.163   6.810   3.426 -2.3837 -2.9584  3.0078
  868MOL0     H19752   6.082   7.016   3.234 -0.3213  1.7462  0.3731
  868MOL0     H19753   6.204   7.012   3.364 -0.7653  1.4403 -0.9726
  868MOL0     H19754   6.012   7.050   3.534 -0.4934  3.4274  1.1664
  868MOL0     H19755   5.912   7.079   3.397 -0.4561 -2.9805  4.4610
  868MOL0     H19756   6.017   7.285   3.503 -0.9717 -1.4319  0.7824
  868MOL0     H19757   6.170   7.207   3.470 -0.8254  0.5529  1.0535
  868MOL0     H19758   5.957   7.311   3.266 -0.5626 -2.6995  1.0001
  868MOL0     H19759   6.109   7.227   3.212  3.7681 -0.1494  0.9827
  868MOL0     H19760   6.230   7.395   3.252  0.1418 -2.0658  0.7378
  868MOL0     H19761   6.135   7.474   3.389 -1.8219 -1.3558  0.1649
  868MOL0     H19762   6.165   7.608   3.217 -1.1115 -0.5398  0.0315
  868MOL0     H19763   5.996   7.564   3.227 -0.9207 -0.7506 -2.0630
  868MOL0     H19764   6.191   6.379   3.275  2.3623  0.8786  0.1692
  868MOL0     H19765   6.231   6.224   3.083  1.9172  0.0333 -0.7436
  868MOL0     H19766   6.440   6.251   2.664 -0.9198  1.0811  0.4570
  868MOL0     H19767   6.538   6.177   2.477 -0.0877  1.1647 -1.0394
  868MOL0     H19768   7.180   6.547   2.977 -1.1214  1.1963  0.3839
  868MOL0     H19769   7.312   6.761   2.993  0.8910  2.7005 -1.5156
  868MOL0     H19770   7.681   6.935   2.720 -2.8908 -1.3226  2.9499
  868MOL0     H19771   7.852   7.124   2.652 -0.7963  0.5888 -1.1035
  868MOL0     H19772   8.109   7.339   2.957  0.2686  1.4194 -2.2189
  868MOL0     H19773   8.096   7.166   2.980 -0.2329  2.0411  1.8151
  868MOL0     H19774   8.230   7.156   2.756 -3.0233  0.0311 -0.0557
  868MOL0     H19775   8.315   7.251   2.881 -0.9441  0.5714 -0.1024
  868MOL0     H19776   8.147   7.400   2.681  1.8952  4.3584 -3.7236
  868MOL0     H19777   8.275   7.457   2.787  2.5749  0.3922 -1.0648
  868MOL0     H19778   8.335   7.440   2.535  0.1990 -0.3380 -1.2346
  868MOL0     H19779   8.304   7.270   2.537  1.1051  0.4516 -0.7752
  868MOL0     H19780   8.691   7.312   2.711 -0.7614  3.9310  1.6471
  868MOL0     H19781   7.872   7.252   3.044 -2.0067  1.5786  0.4165
  868MOL0     H19782   7.598   7.170   3.175 -1.1445 -1.7592  0.3397
  868MOL0     H19783   7.665   7.010   3.216  1.3862  1.4327  1.7872
  868MOL0     H19784   7.767   7.159   3.212  0.8673 -0.5824 -1.8580
  869MOL0     O19785   4.366   7.165  10.539  0.1858  0.2259 -0.3225
  869MOL0     C19786   4.446   7.069  10.540  1.0533 -0.5658 -0.4587
  869MOL0     O19787   4.499   7.018  10.420  0.1756  0.0983 -0.5116
  869MOL0     C19788   4.421   7.038  10.306 -0.9833  0.8510 -0.1549
  869MOL0     C19789   4.280   7.024  10.293 -0.2923  0.0506 -0.0663
  869MOL0     C19790   4.209   7.037  10.171  0.2244 -0.5568  0.0281
  869MOL0     C19791   4.283   7.044  10.054 -0.5951  0.3619  0.0967
  869MOL0     O19792   4.231   7.058   9.923 -0.5428  0.7145 -0.1039
  869MOL0     C19793   4.117   6.986   9.895 -0.9233 -0.1220 -0.0543
  869MOL0     C19794   4.117   6.964   9.742  0.2770  0.7076 -0.0318
  869MOL0     C19795   4.095   7.105   9.681 -0.3083  0.7147  0.8056
  869MOL0     C19796   4.077   7.092   9.534 -0.6458 -0.0761 -0.6861
  869MOL0     C19797   3.948   7.017   9.489  0.1903 -0.7427 -0.7352
  869MOL0     C19798   3.908   7.030   9.345  0.1865 -0.1289  0.3807
  869MOL0     C19799   3.788   6.950   9.300  0.1406  0.4033 -0.4363
  869MOL0     C19800   3.642   6.988   9.334  0.2940  1.0446 -0.9903
  869MOL0     N19801   3.598   7.115   9.276 -0.5177 -0.1346 -0.1066
  869MOL0     C19802   3.586   7.144   9.137 -0.2676  0.0706 -1.2497
  869MOL0     C19803   3.563   7.277   9.130 -0.3539  0.1387 -0.9745
  869MOL0     C19804   3.551   7.351   9.002  0.8258  0.9672  0.2026
  869MOL0     C19805   3.674   7.395   8.942 -0.1460  0.2021  0.3209
  869MOL0     C19806   3.676   7.402   8.786  0.0921  0.1756  0.2311
  869MOL0     C19807   3.564   7.478   8.723 -0.1402 -0.1946  0.9654
  869MOL0     O19808   3.542   7.603   8.799  1.0460 -0.0054 -0.1759
  869MOL0     C19809   3.576   7.714   8.726 -0.3163  0.2455  0.1470
  869MOL0     C19810   3.474   7.803   8.733 -0.2545 -0.8850  1.5868
  869MOL0     C19811   3.491   7.940   8.672  0.6972  0.7856  0.4502
  869MOL0     C19812   3.371   8.035   8.682  0.1072  0.3527 -0.5692
  869MOL0     C19813   3.621   7.975   8.625  0.6395  1.0061  0.4067
  869MOL0     C19814   3.642   8.096   8.554 -0.1790 -0.7093 -0.4902
  869MOL0     O19815   3.777   8.137   8.534  0.1160  0.7690 -0.4883
  869MOL0     C19816   3.815   8.220   8.436 -0.0814 -0.4400 -1.0291
  869MOL0     C19817   3.754   8.232   8.312  0.1145  0.6318  0.8751
  869MOL0     C19818   3.815   8.310   8.211 -0.3144  0.8353 -1.2696
  869MOL0     C19819   3.942   8.371   8.234  0.1047 -0.5990  0.2592
  869MOL0     O19820   4.005   8.422   8.122 -0.4681  0.4243 -0.0713
  869MOL0     C19821   3.944   8.541   8.069 -0.3050 -0.7108  0.0075
  869MOL0     C19822   4.030   8.591   7.953  0.0974  0.4938  0.6930
  869MOL0     C19823   3.939   8.685   7.872 -0.8564 -0.6469  0.9603
  869MOL0     C19824   4.027   8.788   7.796  0.4522 -0.6916 -1.4912
  869MOL0     C19825   3.939   8.890   7.712 -1.2795 -0.1384  0.2504
  869MOL0     C19826   3.965   8.866   7.559 -0.1565  0.0889 -0.4540
  869MOL0     C19827   3.901   8.973   7.471  0.2905  0.0460 -0.6275
  869MOL0     C19828   3.865   8.938   7.335  0.8862 -0.4718  0.8772
  869MOL0    Cl19829   3.792   9.082   7.279  0.0559  0.1004  0.2791
  869MOL0     C19830   4.005   8.362   8.360  0.4205 -0.2843 -0.2562
  869MOL0     C19831   3.935   8.285   8.457  0.7831  0.2240  0.3154
  869MOL0     O19832   3.549   8.166   8.518  0.3402  0.7934  0.2730
  869MOL0     C19833   3.727   7.876   8.643  0.8958  0.1280  0.7971
  869MOL0     C19834   3.704   7.749   8.681 -0.7953  1.0296 -0.6288
  869MOL0     N19835   3.550   7.319   9.268 -0.0166 -0.1423 -0.1961
  869MOL0     N19836   3.581   7.226   9.348  0.4118 -0.3500  0.6135
  869MOL0     C19837   4.423   7.043  10.069  0.1172  0.7526  0.5556
  869MOL0     C19838   4.484   7.028  10.184 -0.2511 -0.2164 -0.7539
  869MOL0     C19839   4.510   7.018  10.661  0.4449  0.4442 -0.3634
  869MOL0     C19840   4.637   6.958  10.645  0.3472  0.8421 -0.1820
  869MOL0     C19841   4.695   6.884  10.752  0.7136 -0.3066 -0.1046
  869MOL0     C19842   4.641   6.892  10.877 -0.2833  0.0631  0.6472
  869MOL0     O19843   4.723   6.847  10.979  0.9565  0.4584 -0.4526
  869MOL0     C19844   4.659   6.833  11.110 -0.0060 -0.6439  0.5861
  869MOL0     C19845   4.735   6.801  11.223 -1.2879  1.0984 -0.7640
  869MOL0     C19846   4.825   6.928  11.238  0.2116  0.3473 -1.1182
  869MOL0     C19847   4.950   6.895  11.321  0.7144 -0.4299  0.0379
  869MOL0     C19848   5.043   7.009  11.320 -0.4720 -0.0442  0.2910
  869MOL0     C19849   5.119   7.104  11.318 -0.3012  0.3721  0.4642
  869MOL0     C19850   4.507   6.946  10.889  0.6402  0.3581 -0.1696
  869MOL0     C19851   4.432   6.991  10.782 -0.0718  0.0304  0.5006
  869MOL0     C19852   4.289   7.036  10.816 -0.2534 -0.1941 -0.0948
  869MOL0     H19853   4.221   7.017  10.384  0.0265 -0.5308  0.1005
  869MOL0     H19854   4.101   7.052  10.166 -0.0410 -1.4633  1.9745
  869MOL0     H19855   4.030   7.047   9.922 -0.8631 -1.0175  2.4177
  869MOL0     H19856   4.110   6.886   9.938  2.7628 -0.0814  0.9047
  869MOL0     H19857   4.217   6.939   9.705  1.4214  0.6452  2.8357
  869MOL0     H19858   4.043   6.890   9.710  0.4337  1.2381 -1.7324
  869MOL0     H19859   4.004   7.156   9.714 -0.8760  0.2210  0.0344
  869MOL0     H19860   4.184   7.166   9.698 -1.5493  1.9282  3.5224
  869MOL0     H19861   4.081   7.193   9.491 -2.0003  1.3599  2.2432
  869MOL0     H19862   4.168   7.047   9.494 -0.1278  0.2223  0.1224
  869MOL0     H19863   3.867   7.035   9.559  1.2162  1.8189 -0.0911
  869MOL0     H19864   3.959   6.910   9.510 -2.0137 -0.5301  2.0026
  869MOL0     H19865   3.882   7.136   9.334 -0.2850 -0.2355  0.4676
  869MOL0     H19866   3.996   7.002   9.287  0.7087  2.5784 -0.2777
  869MOL0     H19867   3.813   6.849   9.333 -0.4725  0.3276 -0.1863
  869MOL0     H19868   3.772   6.941   9.192 -3.0400 -1.8454  0.0611
  869MOL0     H19869   3.570   6.916   9.295  0.6094 -1.3802  2.5381
  869MOL0     H19870   3.624   6.994   9.441 -0.8726  0.5926 -1.1455
  869MOL0     H19871   3.612   7.077   9.055  0.6398 -2.8721  1.2568
  869MOL0     H19872   3.485   7.438   9.002  0.6811  0.8680 -0.6302
  869MOL0     H19873   3.505   7.283   8.930 -0.6223  3.4808 -1.4261
  869MOL0     H19874   3.708   7.489   8.987 -0.5920  1.2719 -1.4421
  869MOL0     H19875   3.755   7.324   8.961  0.4482  0.9492  0.6786
  869MOL0     H19876   3.769   7.453   8.757  0.6490 -0.9009  0.0597
  869MOL0     H19877   3.685   7.306   8.734 -0.2040  2.5196 -4.8387
  869MOL0     H19878   3.594   7.506   8.621 -0.9511 -0.1187  0.7401
  869MOL0     H19879   3.482   7.406   8.728  2.6598 -3.6213  1.8630
  869MOL0     H19880   3.378   7.772   8.772 -1.4646  1.4715  0.7058
  869MOL0     H19881   3.397   8.124   8.740 -0.2386 -0.7376  1.3384
  869MOL0     H19882   3.290   7.983   8.732 -2.5392  0.6678 -4.1226
  869MOL0     H19883   3.334   8.056   8.581  1.4742 -0.0046 -1.1608
  869MOL0     H19884   3.656   8.188   8.294 -1.4213  3.2407  2.1842
  869MOL0     H19885   3.774   8.313   8.110 -3.1744 -0.1935 -0.2384
  869MOL0     H19886   3.846   8.513   8.029 -0.5846  2.5165 -1.9712
  869MOL0     H19887   3.941   8.622   8.142 -1.2555  0.6096 -1.4270
  869MOL0     H19888   4.121   8.641   7.987 -0.9500  0.2161  4.4600
  869MOL0     H19889   4.071   8.510   7.892 -0.5862  0.2409  0.5629
  869MOL0     H19890   3.868   8.742   7.933  1.1560 -1.1959  4.0922
  869MOL0     H19891   3.877   8.630   7.800  0.4306  1.4175 -1.9182
  869MOL0     H19892   4.091   8.724   7.735  2.3983 -2.4241  2.0259
  869MOL0     H19893   4.086   8.835   7.876 -0.1682 -2.7947  0.3054
  869MOL0     H19894   3.835   8.859   7.726 -1.5030 -1.5369 -3.3409
  869MOL0     H19895   3.945   8.995   7.739 -1.7240 -0.1806  0.5231
  869MOL0     H19896   3.907   8.779   7.527  0.2908 -1.1755  1.9473
  869MOL0     H19897   4.072   8.865   7.538 -0.1390  2.5384 -0.7723
  869MOL0     H19898   3.963   9.062   7.462  1.0265 -0.5175 -1.3588
  869MOL0     H19899   3.810   9.012   7.516  1.4705  1.8285  0.3215
  869MOL0     H19900   3.800   8.850   7.325  2.5470 -1.9352  2.2156
  869MOL0     H19901   3.951   8.918   7.271 -0.6598  1.8979 -2.2190
  869MOL0     H19902   4.104   8.407   8.363  0.0029  0.6303  0.3136
  869MOL0     H19903   3.979   8.269   8.555  0.2673  4.1073  1.3381
  869MOL0     H19904   3.825   7.912   8.613  2.0826 -0.5193  3.5955
  869MOL0     H19905   3.782   7.674   8.689 -1.8623 -0.0387  0.0625
  869MOL0     H19906   4.486   7.049   9.981 -1.1131  1.9621 -0.2807
  869MOL0     H19907   4.591   7.045  10.193 -0.5510  0.5974  3.0459
  869MOL0     H19908   4.684   6.963  10.548 -2.4921 -1.1592 -1.8002
  869MOL0     H19909   4.790   6.834  10.736  1.3444  1.5488 -2.9004
  869MOL0     H19910   4.610   6.929  11.133  0.3155  0.5758 -3.1277
  869MOL0     H19911   4.576   6.762  11.116  0.7372 -1.4161  2.1980
  869MOL0     H19912   4.809   6.721  11.215 -2.2715  0.1193 -0.3632
  869MOL0     H19913   4.678   6.797  11.316  0.4930  4.0317  0.6044
  869MOL0     H19914   4.869   6.968  11.147  2.6626 -0.5160 -0.3796
  869MOL0     H19915   4.763   7.002  11.289 -0.3587 -0.8956  0.0588
  869MOL0     H19916   5.013   6.822  11.269  2.7106  1.6277 -0.5770
  869MOL0     H19917   4.930   6.860  11.422  1.1186 -3.6915 -0.8890
  869MOL0     H19918   5.187   7.184  11.296 -2.4471  2.7114  1.7473
  869MOL0     H19919   4.452   6.938  10.982 -1.5066 -2.3872 -1.5299
  869MOL0     H19920   4.220   6.986  10.748 -2.5879 -0.8215  2.5534
  869MOL0     H19921   4.261   7.010  10.919 -1.6251 -2.7522 -1.0391
  869MOL0     H19922   4.273   7.142  10.797  1.0056  0.3252  1.4308
  870MOL0     O19923   5.464   1.051   5.110 -0.7868  0.8602 -0.5327
  870MOL0     C19924   5.439   1.173   5.115  0.1967  0.1881  0.4295
  870MOL0     O19925   5.500   1.269   5.042 -0.3506 -0.6128  0.0097
  870MOL0     C19926   5.439   1.302   4.924  0.5791 -0.5756  0.8725
  870MOL0     C19927   5.391   1.434   4.911 -0.0933 -0.4374 -0.5992
  870MOL0     C19928   5.341   1.485   4.788 -0.0778 -0.3843  0.7547
  870MOL0     C19929   5.365   1.413   4.669  0.2577  0.0913 -0.0691
  870MOL0     O19930   5.341   1.467   4.543  0.6351 -0.5372 -0.2248
  870MOL0     C19931   5.432   1.569   4.511  1.2549  0.4629 -0.1288
  870MOL0     C19932   5.408   1.608   4.362  0.2030  0.7626  0.0079
  870MOL0     C19933   5.491   1.728   4.318  0.8546  0.2671  0.0377
  870MOL0     C19934   5.645   1.708   4.327 -0.6115  0.0031  0.0969
  870MOL0     C19935   5.721   1.829   4.283  0.3755 -0.3531 -0.5307
  870MOL0     C19936   5.870   1.818   4.307 -0.4169  0.3713 -0.0531
  870MOL0     C19937   5.909   1.864   4.455 -0.4086 -0.2072 -0.0643
  870MOL0     C19938   6.061   1.863   4.467 -0.5655 -0.3895  0.1593
  870MOL0     N19939   6.141   1.737   4.426 -0.2362 -0.6005 -0.3338
  870MOL0     C19940   6.250   1.724   4.341  1.0775 -0.3412  0.1376
  870MOL0     C19941   6.260   1.590   4.318 -0.3973  0.1445 -0.5214
  870MOL0     C19942   6.362   1.510   4.240  0.3728 -0.8990  0.0429
  870MOL0     C19943   6.423   1.609   4.133  0.8013 -0.0440  0.5818
  870MOL0     C19944   6.516   1.526   4.030  0.1523 -0.2937 -0.1442
  870MOL0     C19945   6.598   1.608   3.931  0.2887 -0.4306  0.6113
  870MOL0     O19946   6.672   1.708   3.997 -0.0147  0.5911  0.1752
  870MOL0     C19947   6.747   1.805   3.926  0.3936  0.2976 -0.4362
  870MOL0     C19948   6.802   1.913   3.989 -0.4384  0.6238 -0.3511
  870MOL0     C19949   6.887   2.007   3.917 -0.6799  0.5165 -0.2640
  870MOL0     C19950   6.965   2.105   4.014  0.6664 -0.6179  0.2343
  870MOL0     C19951   6.913   1.991   3.781  0.0093 -0.5511 -0.1448
  870MOL0     C19952   6.986   2.098   3.707  0.0891  0.5335  0.9191
  870MOL0     O19953   7.005   2.061   3.577  0.1912 -0.5437 -0.5435
  870MOL0     C19954   7.051   2.163   3.495  0.6881  0.5467  0.5432
  870MOL0     C19955   6.959   2.254   3.438 -0.1569 -0.5419  0.6845
  870MOL0     C19956   7.012   2.358   3.362 -0.2708  0.1936  0.0975
  870MOL0     C19957   7.155   2.385   3.348  0.4170  0.3307  0.5571
  870MOL0     O19958   7.215   2.495   3.293  0.4479 -0.4018  1.1538
  870MOL0     C19959   7.132   2.606   3.248 -0.3757  1.3678 -0.5843
  870MOL0     C19960   7.081   2.577   3.102 -0.8002  0.1004  0.5101
  870MOL0     C19961   7.200   2.589   3.005 -0.1020 -0.1444  0.6149
  870MOL0     C19962   7.160   2.542   2.858 -0.3307 -0.1422  0.3150
  870MOL0     C19963   7.160   2.648   2.754  0.2034 -0.1887  1.5374
  870MOL0     C19964   7.296   2.706   2.718  0.3753 -0.7303 -0.7121
  870MOL0     C19965   7.274   2.803   2.598 -0.1793  0.6036 -0.2354
  870MOL0     C19966   7.406   2.876   2.564  0.0263 -0.3039  0.7299
  870MOL0    Cl19967   7.540   2.755   2.546 -0.1328 -0.2552  0.4177
  870MOL0     C19968   7.240   2.288   3.406 -0.3501 -0.4379 -0.2709
  870MOL0     C19969   7.191   2.180   3.481 -0.7199 -0.2083  1.1445
  870MOL0     O19970   7.002   2.210   3.753  0.2501 -0.0225 -0.5247
  870MOL0     C19971   6.865   1.879   3.726 -0.6009 -0.8951 -0.5996
  870MOL0     C19972   6.801   1.778   3.800  0.3508 -0.1940  0.5647
  870MOL0     N19973   6.161   1.529   4.390  0.4267  0.1560 -0.0401
  870MOL0     N19974   6.102   1.615   4.460  0.1313 -0.4652 -0.1728
  870MOL0     C19975   5.415   1.279   4.675  0.5467 -0.5899 -0.1390
  870MOL0     C19976   5.449   1.223   4.802  0.6427  0.6620  0.2271
  870MOL0     C19977   5.354   1.211   5.236  0.2277 -0.0101 -0.6328
  870MOL0     C19978   5.258   1.124   5.288  0.0118  0.2993 -0.5511
  870MOL0     C19979   5.184   1.144   5.401 -0.3590  0.2318  0.6614
  870MOL0     C19980   5.190   1.268   5.470 -0.2712  0.8720 -1.1205
  870MOL0     O19981   5.115   1.281   5.589 -0.3533 -0.7591 -0.1840
  870MOL0     C19982   5.114   1.407   5.661 -0.7130  0.3200  0.2922
  870MOL0     C19983   4.978   1.433   5.720 -0.2208  0.3815 -0.8595
  870MOL0     C19984   4.869   1.448   5.608  1.4293  0.0846  0.9149
  870MOL0     C19985   4.838   1.603   5.588 -0.0068 -0.0279 -0.1038
  870MOL0     C19986   4.713   1.607   5.513 -0.0872 -0.0485 -0.2905
  870MOL0     C19987   4.617   1.603   5.451  0.3995 -0.3241 -0.6611
  870MOL0     C19988   5.275   1.356   5.426  0.5933 -0.2368  0.8498
  870MOL0     C19989   5.364   1.334   5.313 -0.5316  0.1571  0.0961
  870MOL0     C19990   5.467   1.444   5.293 -0.4908  0.4546  0.1149
  870MOL0     H19991   5.383   1.482   5.008 -2.6351 -2.0282  0.0709
  870MOL0     H19992   5.290   1.580   4.776  0.1683 -0.3582 -0.1550
  870MOL0     H19993   5.540   1.557   4.527  1.2255  0.1866 -0.1344
  870MOL0     H19994   5.396   1.650   4.575  1.1790  2.5793 -2.6825
  870MOL0     H19995   5.449   1.525   4.304  1.8497  0.0236  2.0631
  870MOL0     H19996   5.306   1.625   4.328 -0.1097 -2.1701 -0.8169
  870MOL0     H19997   5.469   1.760   4.216  2.7625  1.3643 -0.0801
  870MOL0     H19998   5.475   1.816   4.379 -2.6723  1.5633 -2.4545
  870MOL0     H19999   5.679   1.673   4.425 -1.6627  1.1084  0.9008
  870MOL0     H20000   5.662   1.627   4.257  2.2061 -2.9369  3.7849
  870MOL0     H20001   5.689   1.918   4.338  0.2308  1.1235 -2.8594
  870MOL0     H20002   5.705   1.850   4.177  1.8198 -0.5409 -0.8003
  870MOL0     H20003   5.911   1.722   4.275  3.5241  1.6392  0.5852
  870MOL0     H20004   5.931   1.876   4.238  2.9367 -3.4700 -0.7075
  870MOL0     H20005   5.857   1.793   4.519 -2.3769  0.8592 -0.4039
  870MOL0     H20006   5.862   1.960   4.476 -2.5725 -0.4633 -3.0658
  870MOL0     H20007   6.116   1.942   4.416  1.7133 -1.0813  1.3814
  870MOL0     H20008   6.082   1.880   4.573  0.7398 -1.2015  0.0539
  870MOL0     H20009   6.311   1.803   4.297 -0.4723 -0.1670 -1.8638
  870MOL0     H20010   6.324   1.428   4.179  0.5548  0.5220 -2.0828
  870MOL0     H20011   6.438   1.468   4.307 -0.5173  0.5711  2.0463
  870MOL0     H20012   6.340   1.660   4.083 -0.1239 -1.3650  0.7317
  870MOL0     H20013   6.490   1.670   4.196 -1.3325  1.5701  1.4041
  870MOL0     H20014   6.593   1.489   4.099  0.4391  0.7028  0.0906
  870MOL0     H20015   6.458   1.445   3.984 -1.4445  0.0910  1.1199
  870MOL0     H20016   6.647   1.533   3.869 -2.9159 -1.6788 -0.6611
  870MOL0     H20017   6.544   1.661   3.852  0.6382 -1.0208 -0.0327
  870MOL0     H20018   6.773   1.935   4.092  1.1069 -4.6414  1.4863
  870MOL0     H20019   6.926   2.206   3.997 -0.5437 -0.7027  2.2354
  870MOL0     H20020   7.073   2.108   3.998  0.5531  0.1890 -0.4420
  870MOL0     H20021   6.949   2.073   4.117 -3.1484  2.0112  0.6885
  870MOL0     H20022   6.852   2.241   3.454 -0.7436  1.3621 -1.1876
  870MOL0     H20023   6.938   2.430   3.328  1.8039  1.9729 -0.9391
  870MOL0     H20024   7.054   2.616   3.324 -0.9521 -0.2327 -0.9440
  870MOL0     H20025   7.175   2.707   3.249 -0.7632  1.6218  2.9033
  870MOL0     H20026   7.052   2.472   3.094 -2.4687  0.5768 -0.2580
  870MOL0     H20027   7.004   2.646   3.065 -0.6081 -0.0329 -0.1567
  870MOL0     H20028   7.271   2.510   3.030  1.0397 -0.4622 -2.9462
  870MOL0     H20029   7.253   2.685   3.002 -0.8153  0.3658  2.8510
  870MOL0     H20030   7.056   2.508   2.868 -1.1787  2.3020  0.5464
  870MOL0     H20031   7.238   2.474   2.823 -0.8775  0.1359 -1.5676
  870MOL0     H20032   7.109   2.604   2.668  0.9603  1.7092  0.0288
  870MOL0     H20033   7.100   2.734   2.786 -1.4713 -0.9696  0.6415
  870MOL0     H20034   7.364   2.622   2.699 -1.0114 -1.9434 -0.5663
  870MOL0     H20035   7.335   2.759   2.805 -0.3099 -2.5669  0.8083
  870MOL0     H20036   7.193   2.872   2.622  0.0362  0.4121  1.1209
  870MOL0     H20037   7.249   2.740   2.512 -2.6699  0.8438  0.2413
  870MOL0     H20038   7.423   2.956   2.636  0.1268  0.2742  0.0694
  870MOL0     H20039   7.395   2.923   2.467  2.4628  2.0494  1.4737
  870MOL0     H20040   7.347   2.304   3.407 -0.2831 -0.7408  1.7471
  870MOL0     H20041   7.262   2.110   3.524 -1.6940 -2.5745 -0.8441
  870MOL0     H20042   6.875   1.876   3.618 -3.8133 -4.0685 -1.0020
  870MOL0     H20043   6.770   1.692   3.742 -1.9330 -0.0672  1.4735
  870MOL0     H20044   5.434   1.226   4.583  2.3314 -1.1637  0.5069
  870MOL0     H20045   5.475   1.118   4.812 -3.2168 -0.4521  0.0292
  870MOL0     H20046   5.261   1.033   5.230  1.5084  0.1902 -0.3577
  870MOL0     H20047   5.133   1.055   5.438 -0.2336  0.5161  1.5527
  870MOL0     H20048   5.186   1.409   5.743  0.5227 -0.8740 -0.7235
  870MOL0     H20049   5.136   1.485   5.587 -0.6557 -1.8388 -2.1416
  870MOL0     H20050   4.992   1.517   5.788 -1.2833 -0.0660 -0.0749
  870MOL0     H20051   4.949   1.350   5.784 -3.0133 -0.2428 -2.7230
  870MOL0     H20052   4.891   1.397   5.514  1.5285  2.4708 -0.4303
  870MOL0     H20053   4.780   1.396   5.642  3.1730 -3.9671 -0.1573
  870MOL0     H20054   4.915   1.663   5.538  1.7039 -1.5865  0.5490
  870MOL0     H20055   4.836   1.647   5.688  0.1411  0.7436 -0.4282
  870MOL0     H20056   4.517   1.602   5.413  0.4148  1.6448 -0.8291
  870MOL0     H20057   5.293   1.454   5.471 -3.1550  0.7179  0.6084
  870MOL0     H20058   5.567   1.402   5.307 -0.8222  0.4477  3.1791
  870MOL0     H20059   5.447   1.481   5.192 -4.9116 -0.7525  0.3104
  870MOL0     H20060   5.456   1.527   5.363 -1.6462  2.0261 -1.8535
  871MOL0     O20061  11.209   0.608   0.772 -0.5011 -0.3143 -0.7869
  871MOL0     C20062  11.109   0.652   0.736  1.5332  0.5657 -0.3349
  871MOL0     O20063  11.081   0.788   0.732  0.1490  0.0153 -0.1533
  871MOL0     C20064  11.177   0.878   0.793  0.6308  0.3464  0.3340
  871MOL0     C20065  11.309   0.892   0.767  0.3807  0.7178  0.2128
  871MOL0     C20066  11.392   0.974   0.840 -0.5679  0.0948 -0.5040
  871MOL0     C20067  11.337   1.045   0.946 -0.7083 -0.6216  0.5043
  871MOL0     O20068  11.403   1.133   1.025 -0.1633 -0.6018  0.1548
  871MOL0     C20069  11.521   1.196   0.974  0.2951 -0.1896 -0.6078
  871MOL0     C20070  11.508   1.282   0.849  0.1104  0.4467  0.2003
  871MOL0     C20071  11.421   1.403   0.868  0.3826 -0.0032  0.2492
  871MOL0     C20072  11.308   1.402   0.969  1.4504  0.1116 -0.3284
  871MOL0     C20073  11.248   1.541   0.980  0.3889  0.5367  0.0212
  871MOL0     C20074  11.102   1.559   1.029  0.5188  0.3070 -0.2883
  871MOL0     C20075  11.043   1.705   0.996  0.2380  0.1186 -0.2951
  871MOL0     C20076  11.030   1.741   0.844 -0.2197 -0.1779 -0.5458
  871MOL0     N20077  10.952   1.858   0.804 -0.0726  0.6650 -0.4527
  871MOL0     C20078  10.837   1.907   0.867  1.2240  0.4190  0.4075
  871MOL0     C20079  10.795   2.014   0.787  0.8717 -0.6862 -0.2827
  871MOL0     C20080  10.685   2.117   0.794  0.1361  0.0341  0.5380
  871MOL0     C20081  10.554   2.062   0.734  0.1776 -0.3631 -0.2929
  871MOL0     C20082  10.531   2.100   0.584 -0.3210  0.6461 -0.0855
  871MOL0     C20083  10.418   2.031   0.509  0.2371 -0.3684  1.4310
  871MOL0     O20084  10.299   2.076   0.569  0.0686 -0.1011 -0.3029
  871MOL0     C20085  10.237   2.012   0.673  0.2875 -0.2362 -0.9152
  871MOL0     C20086  10.141   2.088   0.742  0.0328  1.1503 -0.1167
  871MOL0     C20087  10.068   2.031   0.844 -0.5132 -1.3730 -0.2248
  871MOL0     C20088   9.958   2.120   0.880  0.0946  0.6464 -0.0396
  871MOL0     C20089  10.091   1.902   0.893 -0.3533  0.1735 -0.6317
  871MOL0     C20090  10.020   1.855   1.006 -0.2196 -0.1962 -0.7310
  871MOL0     O20091   9.988   1.723   0.994  0.5013  0.7068 -0.3411
  871MOL0     C20092   9.923   1.638   1.081  0.1342 -0.3808 -0.7454
  871MOL0     C20093   9.940   1.498   1.054  0.3289 -0.0625  0.0321
  871MOL0     C20094   9.889   1.401   1.150 -1.0852 -0.3614  0.0593
  871MOL0     C20095   9.841   1.434   1.281  0.7237  0.0493  0.3480
  871MOL0     O20096   9.810   1.333   1.372  0.0943  0.1773  0.2529
  871MOL0     C20097   9.726   1.366   1.481 -0.2009  0.0295 -0.6770
  871MOL0     C20098   9.743   1.272   1.607 -1.2247  0.2341 -0.3075
  871MOL0     C20099   9.878   1.297   1.685 -1.0097 -0.2157 -0.7782
  871MOL0     C20100  10.003   1.216   1.638 -0.5685  0.1847 -1.1389
  871MOL0     C20101  10.117   1.313   1.601 -0.2763  1.1880 -0.3468
  871MOL0     C20102  10.209   1.232   1.505  0.0923 -0.1562 -0.4237
  871MOL0     C20103  10.313   1.333   1.461 -0.0962  0.6003 -0.4299
  871MOL0     C20104  10.427   1.263   1.382 -0.1448  0.0595  0.2850
  871MOL0    Cl20105  10.533   1.165   1.468  0.3607  0.2425  0.3417
  871MOL0     C20106   9.819   1.575   1.296 -0.2508 -0.4189 -0.2747
  871MOL0     C20107   9.858   1.674   1.205 -0.1378 -0.3082 -0.4300
  871MOL0     O20108  10.001   1.935   1.105  0.5801 -0.4082  0.0962
  871MOL0     C20109  10.190   1.831   0.831  0.0642 -0.5923 -0.5187
  871MOL0     C20110  10.265   1.881   0.728 -0.0389  0.1892  0.4977
  871MOL0     N20111  10.886   2.016   0.681 -0.0199 -0.0001 -0.5649
  871MOL0     N20112  10.970   1.922   0.692 -0.3618 -0.1921 -0.3425
  871MOL0     C20113  11.204   1.022   0.978  0.0531  0.0541 -0.1565
  871MOL0     C20114  11.124   0.948   0.901 -0.0559 -0.1550  0.1948
  871MOL0     C20115  11.002   0.564   0.667 -0.9809 -0.5552  0.0349
  871MOL0     C20116  10.895   0.628   0.607 -0.3119  0.4063  0.9000
  871MOL0     C20117  10.801   0.555   0.537 -0.6854 -0.2613  0.5880
  871MOL0     C20118  10.820   0.425   0.515  0.3875  0.8500  0.6354
  871MOL0     O20119  10.735   0.342   0.441  0.2701  0.3750  0.3357
  871MOL0     C20120  10.647   0.390   0.337  0.3642 -0.8047 -0.0863
  871MOL0     C20121  10.647   0.298   0.211 -0.2488  0.3264  0.2841
  871MOL0     C20122  10.797   0.264   0.176  1.1846 -1.2388 -0.1321
  871MOL0     C20123  10.889   0.387   0.148  0.1118 -0.1662  0.0522
  871MOL0     C20124  10.972   0.377   0.024  0.9370 -0.0438  0.5479
  871MOL0     C20125  11.046   0.375  -0.071  0.0394  0.7604  0.0563
  871MOL0     C20126  10.921   0.360   0.577  1.3800 -0.6342 -0.4794
  871MOL0     C20127  11.015   0.425   0.651 -0.5230 -0.2571 -0.7097
  871MOL0     C20128  11.115   0.336   0.729 -0.0039 -0.3742  0.2121
  871MOL0     H20129  11.340   0.837   0.678  1.7482  1.7525  0.0096
  871MOL0     H20130  11.496   0.990   0.813 -0.9471  0.7393 -1.6537
  871MOL0     H20131  11.598   1.120   0.953  1.6640 -0.1876  3.5856
  871MOL0     H20132  11.571   1.258   1.049  1.7152 -0.0693 -1.5998
  871MOL0     H20133  11.608   1.325   0.836  0.1179  0.2932 -0.2702
  871MOL0     H20134  11.480   1.225   0.760  2.8946 -0.9187  0.0716
  871MOL0     H20135  11.497   1.480   0.888  1.1518 -0.7587  0.3240
  871MOL0     H20136  11.390   1.441   0.770  2.4633 -0.3920 -0.6221
  871MOL0     H20137  11.224   1.340   0.937  0.2553  1.7481 -0.4789
  871MOL0     H20138  11.344   1.369   1.067  0.7854  1.3376  0.3536
  871MOL0     H20139  11.255   1.590   0.882 -0.4358 -0.1589 -0.4051
  871MOL0     H20140  11.307   1.581   1.062 -2.1708  3.6417  0.5231
  871MOL0     H20141  11.035   1.487   0.981 -1.4488  0.5569  1.8764
  871MOL0     H20142  11.099   1.551   1.138 -1.3456  0.4622 -0.2866
  871MOL0     H20143  11.112   1.770   1.050  3.7222 -4.3563  1.2493
  871MOL0     H20144  10.951   1.721   1.053  0.5335 -2.0552  0.8910
  871MOL0     H20145  11.133   1.751   0.811  0.1205  0.0861  0.5455
  871MOL0     H20146  10.974   1.657   0.801  2.4325 -1.5642 -1.4824
  871MOL0     H20147  10.802   1.889   0.968  1.6868  0.4313  0.5687
  871MOL0     H20148  10.709   2.210   0.742 -5.1902  0.7087 -1.2153
  871MOL0     H20149  10.659   2.147   0.896 -1.4915  1.9233 -0.3762
  871MOL0     H20150  10.556   1.952   0.740  0.4171 -0.4308 -1.3832
  871MOL0     H20151  10.472   2.085   0.802  0.2007 -1.2500  0.0565
  871MOL0     H20152  10.504   2.206   0.593 -0.1682  0.5018  3.5382
  871MOL0     H20153  10.623   2.090   0.527 -1.3043 -0.0371 -1.6210
  871MOL0     H20154  10.417   2.059   0.403 -1.8068 -1.4411  1.1132
  871MOL0     H20155  10.436   1.924   0.521 -0.0509 -0.2789  2.8132
  871MOL0     H20156  10.138   2.190   0.704  4.9765  2.4231  2.0944
  871MOL0     H20157   9.951   2.146   0.986  0.8295 -1.6745  0.6507
  871MOL0     H20158   9.870   2.059   0.857  2.1129 -2.7359  0.3702
  871MOL0     H20159   9.960   2.209   0.818  1.8137  0.5988 -0.0957
  871MOL0     H20160  10.004   1.493   0.967  1.0170  3.4383  0.2023
  871MOL0     H20161   9.901   1.294   1.138  0.9910 -0.5621  2.9650
  871MOL0     H20162   9.750   1.458   1.535 -0.5895 -0.0526 -0.3643
  871MOL0     H20163   9.622   1.378   1.449 -0.1725 -0.5887 -1.0086
  871MOL0     H20164   9.672   1.298   1.686  0.7633 -1.0786  2.0820
  871MOL0     H20165   9.728   1.165   1.588  1.0704 -0.3669  0.8835
  871MOL0     H20166   9.862   1.258   1.786 -1.8810  0.5201 -0.6188
  871MOL0     H20167   9.889   1.406   1.684  0.8903 -0.3680 -2.4090
  871MOL0     H20168   9.975   1.137   1.568 -0.0587 -0.0240 -1.1091
  871MOL0     H20169  10.047   1.151   1.714  0.4490 -0.1913 -2.0265
  871MOL0     H20170  10.071   1.400   1.554 -0.8051  0.8456 -0.4774
  871MOL0     H20171  10.164   1.348   1.693  0.8298 -0.1529 -0.3685
  871MOL0     H20172  10.157   1.182   1.423  1.7706  0.2070 -1.7564
  871MOL0     H20173  10.248   1.147   1.561 -1.0158 -0.5285 -0.1825
  871MOL0     H20174  10.359   1.374   1.551  0.3191 -0.9380  0.0908
  871MOL0     H20175  10.259   1.401   1.394 -1.3075  0.5667  0.4697
  871MOL0     H20176  10.480   1.341   1.327  0.4426 -0.7159 -0.2859
  871MOL0     H20177  10.380   1.196   1.309  2.6155 -0.1106 -1.5130
  871MOL0     H20178   9.770   1.616   1.384 -0.2052 -1.5494  0.3042
  871MOL0     H20179   9.846   1.771   1.252 -0.4739  0.0446 -1.2359
  871MOL0     H20180  10.209   1.726   0.849  2.4334 -0.7730 -3.2667
  871MOL0     H20181  10.354   1.826   0.698 -0.5651 -1.6395  2.1193
  871MOL0     H20182  11.148   1.073   1.056 -1.9269  1.2776 -2.2435
  871MOL0     H20183  11.017   0.937   0.912 -0.7809  0.2562 -4.5371
  871MOL0     H20184  10.867   0.733   0.607 -0.5666  0.3760  2.9184
  871MOL0     H20185  10.719   0.614   0.498 -1.2112 -1.3264  0.0362
  871MOL0     H20186  10.544   0.406   0.369  0.8487  1.9996  0.3469
  871MOL0     H20187  10.672   0.486   0.291 -2.6567  0.4374  0.6360
  871MOL0     H20188  10.600   0.357   0.131 -0.7083  3.6117  2.7649
  871MOL0     H20189  10.584   0.211   0.232  1.2492 -1.4945 -2.2880
  871MOL0     H20190  10.849   0.201   0.249  2.4487 -0.4563 -0.3309
  871MOL0     H20191  10.794   0.202   0.086  2.4773 -0.9286 -0.4091
  871MOL0     H20192  10.963   0.396   0.229 -0.1508 -1.2605  0.4335
  871MOL0     H20193  10.834   0.480   0.161  1.3790  0.4064  1.7323
  871MOL0     H20194  11.111   0.353  -0.154  0.6039  1.2061  0.3675
  871MOL0     H20195  10.911   0.252   0.577 -0.6077 -0.5051 -1.2580
  871MOL0     H20196  11.091   0.229   0.731  0.7747 -0.5734 -0.3150
  871MOL0     H20197  11.214   0.341   0.681  0.4714  0.6284  1.2650
  871MOL0     H20198  11.107   0.370   0.832 -3.0580  0.1362 -0.1149
  872MOL0     O20199   0.493   4.788   9.676  0.0490 -0.2908  0.0827
  872MOL0     C20200   0.609   4.799   9.631 -0.0466  0.4961 -0.7358
  872MOL0     O20201   0.698   4.693   9.620  1.0416 -0.5802  0.5625
  872MOL0     C20202   0.656   4.559   9.622  0.6080  0.1535 -0.2509
  872MOL0     C20203   0.732   4.457   9.686  0.6470  0.6758 -0.6471
  872MOL0     C20204   0.689   4.326   9.703 -0.0173  0.4732 -0.1861
  872MOL0     C20205   0.558   4.299   9.657  0.2187  0.1887  0.1610
  872MOL0     O20206   0.517   4.163   9.666 -0.1646 -0.4630  0.5720
  872MOL0     C20207   0.523   4.084   9.547 -0.7200 -0.2516  0.0317
  872MOL0     C20208   0.411   3.977   9.551 -0.0084  0.0940 -0.2180
  872MOL0     C20209   0.270   4.040   9.563  0.1318  0.3319 -0.1803
  872MOL0     C20210   0.172   3.931   9.603 -0.1594 -0.6243  0.3896
  872MOL0     C20211   0.040   3.945   9.529  0.2547 -0.4357  0.3402
  872MOL0     C20212  -0.078   3.879   9.631 -0.1088  0.3472  0.9596
  872MOL0     C20213  -0.073   3.723   9.626  0.0403  0.0464  0.0328
  872MOL0     C20214  -0.187   3.649   9.698  0.4472 -0.8699 -0.6717
  872MOL0     N20215  -0.161   3.613   9.838 -0.1750  0.0496 -0.8806
  872MOL0     C20216  -0.080   3.675   9.927 -0.3435 -0.7083 -0.3516
  872MOL0     C20217  -0.090   3.606  10.043 -0.3046  0.6694  0.0840
  872MOL0     C20218  -0.040   3.659  10.181 -0.0422  1.4469  0.8056
  872MOL0     C20219   0.118   3.664  10.188 -0.3330 -0.2874 -0.1173
  872MOL0     C20220   0.166   3.764  10.291 -0.6872  0.5440  0.3650
  872MOL0     C20221   0.314   3.770  10.298  0.1338  0.1027 -0.0848
  872MOL0     O20222   0.361   3.885  10.373  0.1902  0.8071 -0.2569
  872MOL0     C20223   0.384   3.999  10.308 -1.3048 -0.7405 -0.3832
  872MOL0     C20224   0.337   4.025  10.182 -0.6568  0.0576  0.5268
  872MOL0     C20225   0.378   4.141  10.109  0.9764 -0.5216 -0.7310
  872MOL0     C20226   0.353   4.160   9.955 -1.0791  0.2757  0.5207
  872MOL0     C20227   0.463   4.238  10.166 -0.0990 -0.1467 -0.3441
  872MOL0     C20228   0.501   4.371  10.103 -0.3636 -0.4055  1.1455
  872MOL0     O20229   0.618   4.433  10.158  0.0061  0.1798  0.3970
  872MOL0     C20230   0.668   4.559  10.125  0.9312 -0.6413 -0.0055
  872MOL0     C20231   0.723   4.627  10.232 -0.6622  0.3181 -0.1561
  872MOL0     C20232   0.784   4.752  10.216  0.9965  0.6116  0.1395
  872MOL0     C20233   0.782   4.807  10.091 -0.5799  0.0845 -0.4394
  872MOL0     O20234   0.835   4.932  10.077 -0.8289 -0.3170 -0.4478
  872MOL0     C20235   0.746   5.030  10.015  0.3976  0.3994  0.0878
  872MOL0     C20236   0.832   5.154   9.968  1.4065  0.4760  0.7062
  872MOL0     C20237   0.866   5.251  10.078 -0.1035  0.9103  0.0039
  872MOL0     C20238   0.998   5.323  10.028  0.4339 -0.0858  0.1720
  872MOL0     C20239   1.015   5.463  10.071  1.0914 -0.0480 -0.6265
  872MOL0     C20240   1.151   5.528  10.047 -0.7640  0.9359 -0.0716
  872MOL0     C20241   1.169   5.552   9.899  1.2572  0.0773  0.0610
  872MOL0     C20242   1.288   5.639   9.894 -1.1682 -0.4959 -0.2772
  872MOL0    Cl20243   1.345   5.645   9.722 -0.1750 -0.1312 -0.1666
  872MOL0     C20244   0.739   4.733   9.981  0.1259  0.2414  0.0090
  872MOL0     C20245   0.680   4.607  10.003  0.4378 -0.5976  0.6612
  872MOL0     O20246   0.436   4.420  10.011  0.4470 -0.3481  0.2431
  872MOL0     C20247   0.505   4.212  10.302 -0.4471  1.3197 -1.2365
  872MOL0     C20248   0.469   4.094  10.369 -0.6108 -0.3964 -0.4231
  872MOL0     N20249  -0.183   3.505  10.023  0.7477  0.0875  0.6445
  872MOL0     N20250  -0.229   3.517   9.895  0.1241  0.1559  0.0262
  872MOL0     C20251   0.474   4.394   9.582 -0.4218 -0.4470 -0.2395
  872MOL0     C20252   0.528   4.525   9.565  0.3699  0.8018 -0.1988
  872MOL0     C20253   0.654   4.941   9.600 -0.2116  0.0743  0.1173
  872MOL0     C20254   0.550   5.030   9.559  0.3790  0.8107  0.2967
  872MOL0     C20255   0.586   5.152   9.496 -0.5532 -0.3004  0.2013
  872MOL0     C20256   0.717   5.198   9.472 -0.7293  1.4335  0.1156
  872MOL0     O20257   0.736   5.320   9.419  0.1443  0.2904 -0.5687
  872MOL0     C20258   0.742   5.331   9.275  0.5857  0.4255  0.9848
  872MOL0     C20259   0.665   5.448   9.222 -0.5032 -0.3757 -0.4045
  872MOL0     C20260   0.585   5.516   9.324  0.5363 -0.5684  0.3061
  872MOL0     C20261   0.497   5.634   9.276  0.3286 -0.0233  0.4330
  872MOL0     C20262   0.387   5.651   9.374 -0.0943 -0.8044 -1.3581
  872MOL0     C20263   0.294   5.663   9.447  0.6472 -0.9497 -0.1948
  872MOL0     C20264   0.823   5.109   9.514  0.3737  0.0975  0.6443
  872MOL0     C20265   0.792   4.974   9.568 -0.3316  0.8336  0.4732
  872MOL0     C20266   0.914   4.878   9.586 -0.5992  0.0703  0.3953
  872MOL0     H20267   0.825   4.479   9.738  0.6784 -0.4119 -0.2350
  872MOL0     H20268   0.744   4.246   9.751  0.2733 -0.7616 -2.4267
  872MOL0     H20269   0.624   4.042   9.553 -0.0224  1.5176  2.1347
  872MOL0     H20270   0.524   4.145   9.456  0.9995  0.6180  0.5893
  872MOL0     H20271   0.429   3.923   9.458  0.5426  1.8424 -1.1725
  872MOL0     H20272   0.421   3.911   9.638  1.6564  0.2771 -0.2465
  872MOL0     H20273   0.256   4.125   9.631 -2.4367  1.7574 -2.2966
  872MOL0     H20274   0.249   4.085   9.466 -0.5538  1.5160  0.4838
  872MOL0     H20275   0.213   3.831   9.586  3.3376  0.7049  0.1183
  872MOL0     H20276   0.146   3.944   9.709  1.0639  1.7042  0.4663
  872MOL0     H20277   0.047   3.902   9.428  1.5080  1.3699 -0.4058
  872MOL0     H20278   0.034   4.053   9.512  1.4526 -0.1436  1.5489
  872MOL0     H20279  -0.075   3.921   9.732  1.8153  1.1765  0.5935
  872MOL0     H20280  -0.176   3.901   9.587  0.3855 -1.4862 -1.2106
  872MOL0     H20281   0.027   3.692   9.659  0.0196 -0.5873 -0.4818
  872MOL0     H20282  -0.086   3.702   9.520  0.4464 -0.7133  0.1285
  872MOL0     H20283  -0.288   3.691   9.694  0.0565 -1.7695 -0.3151
  872MOL0     H20284  -0.202   3.558   9.641 -3.0293 -3.0438  3.1513
  872MOL0     H20285  -0.023   3.766   9.916 -0.8238 -0.5399 -1.7449
  872MOL0     H20286  -0.093   3.599  10.255  1.1050 -2.7127 -1.4037
  872MOL0     H20287  -0.077   3.761  10.190 -0.0439  1.3995  1.3417
  872MOL0     H20288   0.155   3.565  10.216  1.3258  0.8760  2.1130
  872MOL0     H20289   0.165   3.703  10.097 -0.1964  0.5871  0.3245
  872MOL0     H20290   0.125   3.860  10.257  1.1287  1.4169  0.5461
  872MOL0     H20291   0.118   3.730  10.383 -1.3789 -1.6696 -0.7440
  872MOL0     H20292   0.338   3.685  10.363  1.9970  0.9887  0.4555
  872MOL0     H20293   0.373   3.755  10.207 -1.0349 -1.8834 -0.5822
  872MOL0     H20294   0.274   3.957  10.126  0.7250  1.3194 -2.8738
  872MOL0     H20295   0.324   4.059   9.926 -0.4054 -0.5418  2.4719
  872MOL0     H20296   0.446   4.199   9.914  0.1072 -0.5258  2.2799
  872MOL0     H20297   0.272   4.228   9.929 -0.9000 -0.4637 -2.2530
  872MOL0     H20298   0.720   4.570  10.324  0.4864 -1.7984 -1.3366
  872MOL0     H20299   0.831   4.796  10.304  0.2141 -1.9300  1.9487
  872MOL0     H20300   0.698   4.993   9.924 -1.7531 -3.2606  2.4623
  872MOL0     H20301   0.663   5.059  10.080  0.2827 -1.9376  1.0767
  872MOL0     H20302   0.920   5.120   9.912  1.1971  0.1996  0.5385
  872MOL0     H20303   0.758   5.190   9.896  1.8021 -3.1698 -1.7935
  872MOL0     H20304   0.894   5.194  10.167  2.1934  0.8442 -0.6845
  872MOL0     H20305   0.781   5.317  10.095  0.4629  2.0361 -1.3390
  872MOL0     H20306   1.010   5.316   9.920  1.1355 -1.0360  0.2999
  872MOL0     H20307   1.074   5.257  10.071 -1.0698 -1.6160  0.6177
  872MOL0     H20308   0.941   5.528  10.024  3.0493  2.0088 -1.0971
  872MOL0     H20309   0.997   5.463  10.179  0.7498  0.4585 -0.6784
  872MOL0     H20310   1.227   5.451  10.064  0.4419  1.6304 -2.0319
  872MOL0     H20311   1.168   5.617  10.108  3.3933  1.3342 -1.4962
  872MOL0     H20312   1.083   5.613   9.869 -0.4624  0.6773  5.1634
  872MOL0     H20313   1.173   5.453   9.853 -2.3576  0.5035 -1.5883
  872MOL0     H20314   1.361   5.623   9.974 -1.4867 -1.1813 -0.1161
  872MOL0     H20315   1.261   5.745   9.892 -0.3994 -0.2916 -0.3171
  872MOL0     H20316   0.761   4.790   9.891  1.6074  0.5246  0.5209
  872MOL0     H20317   0.656   4.550   9.914 -0.5055  4.3260 -2.6366
  872MOL0     H20318   0.557   4.291  10.355 -1.2493  1.7041 -1.0104
  872MOL0     H20319   0.485   4.077  10.475  0.5810  0.3961 -0.4615
  872MOL0     H20320   0.389   4.359   9.524 -0.9846  0.4363  0.0330
  872MOL0     H20321   0.474   4.590   9.496 -1.4562 -0.1908  0.2388
  872MOL0     H20322   0.444   5.011   9.577  0.4833  1.7273  2.0621
  872MOL0     H20323   0.514   5.232   9.479 -2.5368 -2.1007 -0.2432
  872MOL0     H20324   0.846   5.342   9.243  0.7808  2.7243  2.2200
  872MOL0     H20325   0.703   5.241   9.226 -1.7352  2.5961 -1.5057
  872MOL0     H20326   0.594   5.406   9.150 -2.0408 -2.0643  1.9440
  872MOL0     H20327   0.730   5.522   9.174 -0.3861  0.9046  1.6100
  872MOL0     H20328   0.526   5.434   9.365  0.6616  0.6793  3.3079
  872MOL0     H20329   0.655   5.546   9.403  1.9933 -2.1941 -0.3041
  872MOL0     H20330   0.462   5.617   9.174  0.3324 -0.2330  0.4669
  872MOL0     H20331   0.560   5.724   9.283  0.1194  0.1369  0.2864
  872MOL0     H20332   0.230   5.667   9.533  0.2224  1.3900 -0.5445
  872MOL0     H20333   0.922   5.151   9.501  0.4106 -0.6144 -1.8601
  872MOL0     H20334   0.917   4.839   9.688  0.0696 -1.6503 -0.2492
  872MOL0     H20335   0.897   4.786   9.530 -2.3814 -0.7457  2.1622
  872MOL0     H20336   1.006   4.931   9.558  0.8638 -2.5692 -0.1195
  873MOL0     O20337  10.978   7.846   8.946  0.3828  0.1263  0.3040
  873MOL0     C20338  11.042   7.898   9.035 -0.1658 -0.3884 -0.0408
  873MOL0     O20339  10.996   7.932   9.151 -0.4976  0.2570  0.4623
  873MOL0     C20340  10.870   7.964   9.193  0.1206  1.0060 -0.2098
  873MOL0     C20341  10.856   7.953   9.328  0.6300 -0.0330 -0.3368
  873MOL0     C20342  10.730   7.971   9.390 -0.1770 -1.0307 -0.2139
  873MOL0     C20343  10.620   8.013   9.309 -0.0726  0.6365  0.4409
  873MOL0     O20344  10.492   8.034   9.350  1.0951 -0.0995 -0.5058
  873MOL0     C20345  10.459   8.042   9.489  0.5181 -1.0662  0.0162
  873MOL0     C20346  10.315   8.056   9.511 -0.3824 -0.1158  0.0123
  873MOL0     C20347  10.276   8.076   9.662  0.6439  0.2211  0.3132
  873MOL0     C20348  10.359   8.183   9.738  0.1141  0.1829  0.8899
  873MOL0     C20349  10.323   8.212   9.883  0.2648  0.4650  0.0746
  873MOL0     C20350  10.202   8.296   9.921 -0.5003 -0.0165  0.0931
  873MOL0     C20351  10.214   8.440   9.863 -0.3496 -0.4815  0.4228
  873MOL0     C20352  10.340   8.516   9.908  0.4017  0.5974 -0.3100
  873MOL0     N20353  10.333   8.665   9.897  0.9829  0.1384 -0.9735
  873MOL0     C20354  10.436   8.756   9.857  1.0538  0.1368  0.0993
  873MOL0     C20355  10.377   8.869   9.830 -0.0986 -0.2639 -0.3134
  873MOL0     C20356  10.446   8.985   9.769 -0.4930  0.0807  0.4085
  873MOL0     C20357  10.428   8.971   9.616  1.0470 -0.0618 -0.1144
  873MOL0     C20358  10.289   9.013   9.561  0.5247 -0.0086 -0.4862
  873MOL0     C20359  10.264   9.163   9.572  0.9917  0.1374 -0.1956
  873MOL0     O20360  10.360   9.232   9.499  1.3291 -0.1356  0.2231
  873MOL0     C20361  10.339   9.236   9.364 -0.9318  0.2647 -0.5430
  873MOL0     C20362  10.240   9.321   9.306  0.0809 -0.6900  0.7963
  873MOL0     C20363  10.229   9.336   9.167 -1.1109 -0.1988  0.0806
  873MOL0     C20364  10.134   9.438   9.109  0.4741  0.7478  0.3637
  873MOL0     C20365  10.308   9.251   9.078 -0.7888 -0.6813 -0.0347
  873MOL0     C20366  10.307   9.247   8.925  1.3712  0.3586  0.4276
  873MOL0     O20367  10.322   9.121   8.872  0.9805 -0.0448  0.2371
  873MOL0     C20368  10.378   9.103   8.749  0.4512 -0.5648  0.6405
  873MOL0     C20369  10.479   9.014   8.735  0.2287  0.6282 -0.4727
  873MOL0     C20370  10.528   8.977   8.607  0.1200 -0.3820 -0.4282
  873MOL0     C20371  10.462   9.028   8.487 -0.9083  0.6530 -0.3367
  873MOL0     O20372  10.505   8.997   8.360  0.6895  0.2106  0.1497
  873MOL0     C20373  10.601   8.891   8.351  0.5579  0.3965 -0.2730
  873MOL0     C20374  10.614   8.828   8.212  0.1394 -0.9505 -0.0654
  873MOL0     C20375  10.607   8.923   8.076  0.8171  0.4958  0.3058
  873MOL0     C20376  10.561   8.840   7.950 -0.5499 -0.2900  0.5425
  873MOL0     C20377  10.652   8.729   7.928 -1.0838  0.6449 -0.4627
  873MOL0     C20378  10.809   8.760   7.938 -0.5190 -0.9926 -0.2515
  873MOL0     C20379  10.904   8.650   7.898  0.0672  0.2491 -0.3332
  873MOL0     C20380  10.951   8.553   8.014 -0.7439 -0.6581  0.6399
  873MOL0    Cl20381  10.834   8.474   8.118 -0.1835 -0.0438  0.2098
  873MOL0     C20382  10.344   9.098   8.505  0.3492 -0.5463  1.2151
  873MOL0     C20383  10.303   9.134   8.630  0.4752 -0.2868 -1.2606
  873MOL0     O20384  10.291   9.348   8.857 -0.1338  0.2509  0.9869
  873MOL0     C20385  10.400   9.158   9.147  0.6437  0.6506  1.5839
  873MOL0     C20386  10.427   9.156   9.283  0.4683 -0.1441 -0.1139
  873MOL0     N20387  10.237   8.848   9.847  0.1316  0.0774 -0.1773
  873MOL0     N20388  10.215   8.729   9.884 -1.1828  0.4551 -0.4809
  873MOL0     C20389  10.642   8.035   9.177  0.5806 -0.9757  0.4413
  873MOL0     C20390  10.752   7.999   9.121  0.1811  0.0132 -0.6099
  873MOL0     C20391  11.197   7.913   9.002  0.7245 -0.2108  1.3934
  873MOL0     C20392  11.233   7.891   8.863 -0.1808  0.4393  0.3949
  873MOL0     C20393  11.368   7.901   8.827  0.3105 -0.7723  0.0375
  873MOL0     C20394  11.469   7.947   8.913 -0.1374  0.1231  0.5142
  873MOL0     O20395  11.595   7.962   8.891 -0.2069 -0.4829  0.2156
  873MOL0     C20396  11.644   7.984   8.758  0.6263 -0.6081 -0.1988
  873MOL0     C20397  11.677   7.855   8.675  0.3002  0.6560  0.3815
  873MOL0     C20398  11.795   7.779   8.736 -0.1482  0.0227 -0.5375
  873MOL0     C20399  11.933   7.829   8.683 -0.3156 -1.3509 -0.6567
  873MOL0     C20400  11.992   7.922   8.774 -0.3926 -0.0981  0.3906
  873MOL0     C20401  12.045   7.988   8.860  0.1829 -0.6609  0.4332
  873MOL0     C20402  11.434   7.972   9.044 -0.2582  0.2735 -0.1912
  873MOL0     C20403  11.304   7.954   9.091  0.5485 -0.4679  0.0844
  873MOL0     C20404  11.274   7.985   9.236  0.0247  0.4017 -0.2949
  873MOL0     H20405  10.940   7.916   9.386 -0.3487  1.9972  2.6378
  873MOL0     H20406  10.715   7.938   9.492  0.9376  3.1180  1.4767
  873MOL0     H20407  10.517   8.125   9.530  0.1531 -1.8730  2.2934
  873MOL0     H20408  10.494   7.953   9.541  2.1269  0.1564  1.1504
  873MOL0     H20409  10.287   8.149   9.460  1.8214  1.0301  0.8006
  873MOL0     H20410  10.252   7.969   9.487 -1.4164  0.4057  0.7405
  873MOL0     H20411  10.170   8.099   9.675 -0.0872 -3.1583  1.2762
  873MOL0     H20412  10.298   7.982   9.713 -1.0679  0.5071  1.6800
  873MOL0     H20413  10.464   8.155   9.728 -0.8487 -3.1291 -1.6953
  873MOL0     H20414  10.358   8.271   9.673 -0.0965  1.2597  2.2846
  873MOL0     H20415  10.403   8.261   9.940  2.4173  0.8255 -3.0070
  873MOL0     H20416  10.319   8.113   9.929  0.9348 -0.0989 -1.0182
  873MOL0     H20417  10.113   8.242   9.887  0.8561 -0.4385 -3.0551
  873MOL0     H20418  10.195   8.319  10.028 -0.3718  3.5876 -0.5530
  873MOL0     H20419  10.113   8.479   9.882 -0.2203 -1.0657  2.5745
  873MOL0     H20420  10.222   8.433   9.754  2.7028 -0.3764  0.5776
  873MOL0     H20421  10.352   8.478  10.010 -1.1441 -6.3068 -2.1559
  873MOL0     H20422  10.414   8.476   9.838  1.8164 -1.1714  2.0291
  873MOL0     H20423  10.543   8.735   9.858  1.6089  2.4151  3.3541
  873MOL0     H20424  10.552   8.993   9.796 -0.0315 -0.4865 -1.1110
  873MOL0     H20425  10.404   9.082   9.800 -1.4710 -0.1240 -0.2353
  873MOL0     H20426  10.499   9.028   9.555 -0.3473 -0.2079 -1.9452
  873MOL0     H20427  10.454   8.871   9.582  1.7278 -1.1721  3.2811
  873MOL0     H20428  10.250   8.968   9.469 -5.1549 -2.6150  2.6152
  873MOL0     H20429  10.219   8.962   9.629  1.2336 -0.0188  0.2515
  873MOL0     H20430  10.167   9.180   9.523  0.0438 -3.1017  0.3288
  873MOL0     H20431  10.271   9.199   9.675 -0.7107  0.5251 -0.1842
  873MOL0     H20432  10.179   9.390   9.364  0.5233  0.5545 -0.1750
  873MOL0     H20433  10.078   9.476   9.195  2.1214 -0.8716  2.2414
  873MOL0     H20434  10.055   9.390   9.051  0.1790 -1.8699  2.7170
  873MOL0     H20435  10.188   9.517   9.056  0.3091 -0.9689 -2.6103
  873MOL0     H20436  10.539   8.979   8.818  0.2599  2.0308  0.1213
  873MOL0     H20437  10.618   8.916   8.606 -0.3410 -1.2227  1.9851
  873MOL0     H20438  10.700   8.930   8.375 -0.3014  2.8796 -0.4540
  873MOL0     H20439  10.570   8.817   8.425 -2.4585  1.0069 -0.7630
  873MOL0     H20440  10.689   8.749   8.202 -1.3633 -2.2411 -2.4480
  873MOL0     H20441  10.523   8.767   8.207 -0.1668 -0.6301  1.1913
  873MOL0     H20442  10.706   8.968   8.066  1.2380 -0.0596  1.7193
  873MOL0     H20443  10.539   9.007   8.092  0.7589  0.4609  0.2417
  873MOL0     H20444  10.553   8.906   7.863  0.9485  1.5440  1.7228
  873MOL0     H20445  10.457   8.811   7.967 -0.2906 -0.5088  1.8598
  873MOL0     H20446  10.625   8.641   7.985 -3.1079 -0.9362 -3.5622
  873MOL0     H20447  10.633   8.692   7.826  0.7751 -1.2683 -0.1804
  873MOL0     H20448  10.832   8.792   8.040 -1.8816  1.1637 -0.5420
  873MOL0     H20449  10.825   8.841   7.867 -1.0470  1.6841  2.4835
  873MOL0     H20450  10.996   8.677   7.847 -0.0590 -1.8300 -1.8129
  873MOL0     H20451  10.837   8.589   7.836  1.4256 -0.3348 -1.2756
  873MOL0     H20452  10.997   8.627   8.081 -3.1674  1.8108 -0.2387
  873MOL0     H20453  11.026   8.488   7.969 -0.3093  0.2657 -0.0156
  873MOL0     H20454  10.281   9.128   8.422  3.5174  1.3960 -0.6972
  873MOL0     H20455  10.207   9.184   8.639  1.1061  0.6341  1.0200
  873MOL0     H20456  10.465   9.098   9.085  3.3836  2.1785  2.7935
  873MOL0     H20457  10.502   9.089   9.324  0.5086 -0.2460 -0.3516
  873MOL0     H20458  10.553   8.065   9.122  0.4326  1.9447  2.1240
  873MOL0     H20459  10.759   7.995   9.012  0.5199  1.9857 -0.6907
  873MOL0     H20460  11.156   7.868   8.789  0.2079  2.7138 -0.7853
  873MOL0     H20461  11.384   7.860   8.727  1.7103 -1.6599  0.6044
  873MOL0     H20462  11.566   8.033   8.698  3.3312 -1.2972 -4.7787
  873MOL0     H20463  11.726   8.057   8.754  0.1352 -0.0497 -0.2730
  873MOL0     H20464  11.706   7.868   8.571  2.1582  0.9246  0.9010
  873MOL0     H20465  11.587   7.793   8.673  0.9456 -0.2839 -0.2624
  873MOL0     H20466  11.798   7.790   8.845  4.5627 -1.6522 -0.2713
  873MOL0     H20467  11.774   7.674   8.713 -4.6251 -0.5345  4.1736
  873MOL0     H20468  11.932   7.879   8.586  0.9758 -1.8760 -0.9641
  873MOL0     H20469  12.001   7.743   8.680 -1.4975 -2.3853  0.6074
  873MOL0     H20470  12.078   8.059   8.933 -2.0864  0.6777  0.2732
  873MOL0     H20471  11.510   8.000   9.116 -0.9497  1.9346 -0.0505
  873MOL0     H20472  11.271   7.892   9.293  1.9191  0.6623  0.2973
  873MOL0     H20473  11.353   8.048   9.277 -1.4315  3.0496 -1.2947
  873MOL0     H20474  11.185   8.048   9.245 -0.9503 -0.9189 -0.3372
  874MOL0     O20475  10.485   5.206   4.890  0.4802 -0.0908 -0.3241
  874MOL0     C20476  10.466   5.257   4.777 -0.7501 -0.0998  0.0591
  874MOL0     O20477  10.450   5.177   4.667 -0.4418  0.0550  0.2094
  874MOL0     C20478  10.539   5.069   4.656 -0.4436  0.3913 -0.1428
  874MOL0     C20479  10.667   5.084   4.597  0.2286 -0.6480  0.2367
  874MOL0     C20480  10.752   4.978   4.579  0.7396 -0.5724  0.0933
  874MOL0     C20481  10.716   4.847   4.624 -0.5327  0.6482 -0.3895
  874MOL0     O20482  10.803   4.742   4.598  0.0637 -0.1111 -0.0203
  874MOL0     C20483  10.764   4.623   4.653  0.1315 -1.1998 -0.4648
  874MOL0     C20484  10.896   4.540   4.640 -0.2030  0.0618 -1.2240
  874MOL0     C20485  11.018   4.619   4.694 -0.3132  0.1234 -0.1455
  874MOL0     C20486  11.145   4.530   4.712 -0.5807  0.2206 -0.5342
  874MOL0     C20487  11.289   4.607   4.721  0.2437 -0.1213  0.2412
  874MOL0     C20488  11.287   4.708   4.839 -1.0817 -0.1086 -0.5466
  874MOL0     C20489  11.392   4.824   4.818  0.6600 -0.4144 -0.7399
  874MOL0     C20490  11.419   4.926   4.941 -0.7231 -0.4704 -0.4798
  874MOL0     N20491  11.482   4.869   5.055 -1.0277  0.9626 -0.9502
  874MOL0     C20492  11.441   4.864   5.190  0.9021  0.0129 -0.8642
  874MOL0     C20493  11.530   4.788   5.255 -0.5752 -1.0764  0.1318
  874MOL0     C20494  11.534   4.762   5.406  0.9912  0.8991 -0.2923
  874MOL0     C20495  11.450   4.635   5.448  0.0381 -0.4652 -0.1511
  874MOL0     C20496  11.508   4.501   5.407 -0.1309 -1.1848 -0.2459
  874MOL0     C20497  11.650   4.470   5.460 -0.1763  0.4814 -0.2681
  874MOL0     O20498  11.677   4.499   5.601 -0.0224  0.1628  0.7553
  874MOL0     C20499  11.615   4.435   5.702  0.6184  1.0163  0.2953
  874MOL0     C20500  11.628   4.499   5.828  0.4783 -0.1435  0.2051
  874MOL0     C20501  11.574   4.446   5.941  0.8303  0.0872  0.6287
  874MOL0     C20502  11.590   4.522   6.068  0.7826 -0.9067 -0.0114
  874MOL0     C20503  11.503   4.325   5.931 -0.9373  0.5229  0.7004
  874MOL0     C20504  11.422   4.264   6.046  0.6062 -0.4663 -0.5723
  874MOL0     O20505  11.397   4.136   6.032 -0.1546 -0.4079 -0.5686
  874MOL0     C20506  11.323   4.067   6.125  1.4649 -0.3922  0.4800
  874MOL0     C20507  11.379   4.031   6.246 -0.1687 -0.6614  0.5826
  874MOL0     C20508  11.305   3.976   6.355 -1.4400 -0.1206  1.0237
  874MOL0     C20509  11.183   3.927   6.333  0.8853 -1.1399  0.1206
  874MOL0     O20510  11.115   3.868   6.439  0.4920  0.1671  1.0857
  874MOL0     C20511  10.984   3.822   6.410  0.0809 -0.5562  0.5130
  874MOL0     C20512  10.937   3.739   6.532 -0.5080  0.1695 -0.3395
  874MOL0     C20513  10.802   3.675   6.527  0.2293 -0.4701 -0.2340
  874MOL0     C20514  10.763   3.628   6.669  0.5714 -0.7965  0.3106
  874MOL0     C20515  10.813   3.486   6.699 -0.4540  0.3461  1.4363
  874MOL0     C20516  10.737   3.435   6.825 -0.1383  0.7945  0.6109
  874MOL0     C20517  10.788   3.286   6.852 -0.1179  0.4867  0.3253
  874MOL0     C20518  10.764   3.245   6.990 -0.0849  0.3159  0.2753
  874MOL0    Cl20519  10.587   3.291   7.025  0.2447 -0.0158  0.5397
  874MOL0     C20520  11.133   3.927   6.198  1.0829  1.4009  0.1935
  874MOL0     C20521  11.193   3.999   6.097 -0.4814  0.4482  0.7167
  874MOL0     O20522  11.381   4.337   6.136 -0.2316  1.0495 -0.4344
  874MOL0     C20523  11.494   4.255   5.805 -0.1386 -0.9464  0.5670
  874MOL0     C20524  11.548   4.310   5.689  0.2055 -0.6042  0.8256
  874MOL0     N20525  11.636   4.749   5.165  0.1248  0.0694  0.7647
  874MOL0     N20526  11.597   4.797   5.053  0.3422  0.0556  0.5295
  874MOL0     C20527  10.587   4.833   4.673  0.8333  0.8000  0.4587
  874MOL0     C20528  10.497   4.941   4.695  1.0345  0.3300  0.6694
  874MOL0     C20529  10.462   5.404   4.766 -0.1744 -0.4473  0.3536
  874MOL0     C20530  10.384   5.451   4.661 -0.0824  0.2625  0.2459
  874MOL0     C20531  10.376   5.586   4.627 -0.5205  0.6945 -0.2759
  874MOL0     C20532  10.449   5.681   4.695  0.2713 -0.0155 -0.5949
  874MOL0     O20533  10.453   5.812   4.678  0.5465 -0.2687  0.5970
  874MOL0     C20534  10.391   5.881   4.573  0.7084 -0.8423 -0.7629
  874MOL0     C20535  10.459   6.014   4.547 -0.7267  0.1457 -0.9006
  874MOL0     C20536  10.443   6.129   4.648 -0.0337  0.0800 -0.1576
  874MOL0     C20537  10.560   6.159   4.740 -0.0549 -0.2429  0.0607
  874MOL0     C20538  10.676   6.222   4.677  0.6070 -0.1837 -0.4848
  874MOL0     C20539  10.774   6.277   4.637 -0.4660 -0.0259 -0.7595
  874MOL0     C20540  10.516   5.642   4.810  0.1892  0.2869 -0.0590
  874MOL0     C20541  10.527   5.503   4.843  1.4722 -0.0334 -0.3108
  874MOL0     C20542  10.607   5.474   4.970  1.1577 -0.1152 -0.1732
  874MOL0     H20543  10.705   5.178   4.557 -1.3257  0.3023  0.8999
  874MOL0     H20544  10.853   4.991   4.541  2.1433 -1.3970  3.1873
  874MOL0     H20545  10.682   4.569   4.603 -1.2372 -1.0521  1.5181
  874MOL0     H20546  10.747   4.646   4.758 -0.5864  0.1768 -0.8522
  874MOL0     H20547  10.907   4.446   4.695  2.5903 -0.0670 -1.8558
  874MOL0     H20548  10.912   4.513   4.536  2.3788  4.1064 -2.1195
  874MOL0     H20549  11.055   4.692   4.621  1.8225 -1.3767 -0.6638
  874MOL0     H20550  10.990   4.674   4.784  2.2404  0.3571  0.5599
  874MOL0     H20551  11.124   4.477   4.805 -1.9877  0.4513 -0.7013
  874MOL0     H20552  11.151   4.459   4.629 -2.7277 -2.0243  1.0882
  874MOL0     H20553  11.315   4.660   4.629 -0.7006  3.6082  1.9352
  874MOL0     H20554  11.356   4.521   4.733  0.1940 -0.4090 -1.2739
  874MOL0     H20555  11.190   4.756   4.844 -1.4757 -1.0313  1.4514
  874MOL0     H20556  11.316   4.652   4.928 -0.0003  1.4961  0.1596
  874MOL0     H20557  11.349   4.885   4.738 -0.5051 -1.0564 -0.6305
  874MOL0     H20558  11.495   4.791   4.800  1.5936  1.3223  0.9815
  874MOL0     H20559  11.473   5.015   4.908 -1.9642 -0.6506 -3.2459
  874MOL0     H20560  11.324   4.964   4.980 -0.5579  1.1222 -1.5479
  874MOL0     H20561  11.344   4.885   5.232  0.7327  1.5064 -1.9043
  874MOL0     H20562  11.502   4.847   5.468  0.1312  1.7601 -1.8609
  874MOL0     H20563  11.639   4.757   5.436  1.1848  0.8469 -0.9600
  874MOL0     H20564  11.435   4.649   5.555 -0.0152  4.2661 -0.5366
  874MOL0     H20565  11.347   4.649   5.412 -0.8701 -0.7595  2.1754
  874MOL0     H20566  11.445   4.417   5.439 -0.5970 -0.5210  0.5969
  874MOL0     H20567  11.506   4.497   5.298  3.0393 -2.4689 -0.3819
  874MOL0     H20568  11.685   4.372   5.427 -1.7291  1.1012 -4.4403
  874MOL0     H20569  11.714   4.533   5.397 -2.4430  2.0408 -1.1476
  874MOL0     H20570  11.654   4.604   5.836 -1.8855  0.3399  3.2674
  874MOL0     H20571  11.635   4.462   6.148 -1.3318 -0.2961  1.7377
  874MOL0     H20572  11.496   4.558   6.109  1.8471  1.1615  0.7938
  874MOL0     H20573  11.662   4.605   6.061  0.6936 -0.7676  0.6821
  874MOL0     H20574  11.478   4.066   6.273  1.0618 -2.8420 -0.8614
  874MOL0     H20575  11.347   3.965   6.454  0.3767 -0.8851  0.2002
  874MOL0     H20576  10.911   3.902   6.400  0.4893  0.0550  2.1450
  874MOL0     H20577  10.995   3.758   6.321  0.9542  0.8565 -0.4345
  874MOL0     H20578  11.003   3.654   6.549 -0.8817  0.0986  0.8672
  874MOL0     H20579  10.953   3.799   6.622  0.5152 -0.1581 -0.2940
  874MOL0     H20580  10.807   3.585   6.465 -0.2584  0.2179 -1.2821
  874MOL0     H20581  10.730   3.751   6.497 -1.2536 -1.1706  1.3878
  874MOL0     H20582  10.654   3.629   6.671  0.4000  1.7623 -2.4861
  874MOL0     H20583  10.793   3.703   6.743  0.3619  0.8775 -1.2333
  874MOL0     H20584  10.791   3.413   6.621 -0.7244 -1.3367  3.0043
  874MOL0     H20585  10.921   3.479   6.715  0.0867  1.9269 -1.0601
  874MOL0     H20586  10.629   3.442   6.813 -0.6355 -0.5299  3.4479
  874MOL0     H20587  10.765   3.487   6.918  0.1981 -1.8825  2.1055
  874MOL0     H20588  10.893   3.269   6.827 -0.4381  2.7183 -3.2761
  874MOL0     H20589  10.732   3.224   6.781  2.3409 -1.6310  0.0797
  874MOL0     H20590  10.829   3.297   7.060  0.2328 -2.1684  1.9677
  874MOL0     H20591  10.774   3.136   6.982  3.9848  0.6068 -0.6464
  874MOL0     H20592  11.040   3.882   6.164  2.1957  0.9195 -2.4784
  874MOL0     H20593  11.160   4.015   5.995 -0.1053 -1.8515  0.1784
  874MOL0     H20594  11.433   4.167   5.792 -2.3125  0.1666  2.4864
  874MOL0     H20595  11.560   4.257   5.595  1.4627  1.3241 -0.1630
  874MOL0     H20596  10.539   4.746   4.717 -2.5956  1.9620 -0.6845
  874MOL0     H20597  10.397   4.919   4.729  0.5144  0.6411 -0.5843
  874MOL0     H20598  10.328   5.378   4.603 -0.4144  1.5915 -1.1892
  874MOL0     H20599  10.314   5.620   4.545 -1.2857  1.9225  0.7756
  874MOL0     H20600  10.404   5.822   4.481 -2.8675 -2.6443 -0.2877
  874MOL0     H20601  10.285   5.881   4.598  0.4217 -0.6195 -1.9221
  874MOL0     H20602  10.452   6.053   4.445  3.4319  0.5639 -1.1755
  874MOL0     H20603  10.564   5.983   4.552 -1.5318 -2.6028  1.7879
  874MOL0     H20604  10.423   6.227   4.604 -2.3905 -0.8675 -1.3625
  874MOL0     H20605  10.347   6.112   4.699  0.5781  0.4529  1.1679
  874MOL0     H20606  10.590   6.069   4.794 -3.1647 -0.9417  0.8192
  874MOL0     H20607  10.536   6.225   4.823  0.1354  0.8846 -0.7486
  874MOL0     H20608  10.842   6.337   4.580 -0.9089 -1.7988 -3.3213
  874MOL0     H20609  10.565   5.723   4.863  0.7026 -0.0075 -0.0809
  874MOL0     H20610  10.569   5.385   5.021  0.7639  0.3150  0.2985
  874MOL0     H20611  10.713   5.469   4.945  1.5743 -0.8448  1.5767
  874MOL0     H20612  10.584   5.562   5.030 -1.9782 -1.0883  0.2370
  875MOL0     O20613   0.601   9.050   5.964 -0.0156  0.4324 -0.1142
  875MOL0     C20614   0.670   9.030   5.861  1.0632  0.0240 -1.0827
  875MOL0     O20615   0.693   9.122   5.765  0.7575  0.4283  0.2791
  875MOL0     C20616   0.631   9.247   5.772 -0.1529  0.0693 -0.8524
  875MOL0     C20617   0.705   9.348   5.832  0.0515  0.7483  0.3553
  875MOL0     C20618   0.668   9.477   5.818  0.3487  0.3177 -0.1522
  875MOL0     C20619   0.551   9.514   5.755  0.0822 -0.0979 -0.1389
  875MOL0     O20620   0.526   9.642   5.729 -0.2640  0.1027 -0.0168
  875MOL0     C20621   0.566   9.746   5.820 -0.6535 -0.9333  0.2210
  875MOL0     C20622   0.686   9.824   5.778 -0.5520 -0.8797  0.1439
  875MOL0     C20623   0.699   9.967   5.828  0.6009  0.7256 -0.4323
  875MOL0     C20624   0.691   9.977   5.984 -0.7169 -0.1766  0.3525
  875MOL0     C20625   0.735  10.116   6.034  0.4885  0.3410 -0.9385
  875MOL0     C20626   0.738  10.095   6.192  0.3407  0.0207 -0.0069
  875MOL0     C20627   0.820  10.216   6.236 -1.2715 -0.4517  0.2634
  875MOL0     C20628   0.824  10.229   6.386 -0.5286  0.4790  0.4107
  875MOL0     N20629   0.945  10.288   6.437 -0.4477  0.1082 -0.4722
  875MOL0     C20630   1.025  10.232   6.539  0.1257 -0.5373  0.1952
  875MOL0     C20631   1.122  10.318   6.558 -0.6884 -0.5205  0.3273
  875MOL0     C20632   1.240  10.309   6.661 -0.2924  0.9800  0.4384
  875MOL0     C20633   1.314  10.446   6.659 -0.2630  0.3027  0.4959
  875MOL0     C20634   1.388  10.480   6.795 -0.2918 -0.3279 -0.5931
  875MOL0     C20635   1.509  10.379   6.810  0.6320  0.4398 -0.5504
  875MOL0     O20636   1.570  10.385   6.943 -0.0854  0.9999 -0.5426
  875MOL0     C20637   1.520  10.313   7.046  0.6791 -0.1381 -0.2962
  875MOL0     C20638   1.392  10.261   7.040 -0.9004  0.5863  0.0230
  875MOL0     C20639   1.323  10.220   7.156  0.0869  0.3145 -0.6166
  875MOL0     C20640   1.174  10.184   7.139 -0.0626 -0.7377 -0.4595
  875MOL0     C20641   1.387  10.222   7.282  0.9406 -1.0958  0.2722
  875MOL0     C20642   1.335  10.183   7.409 -0.1979  0.1888 -0.2523
  875MOL0     O20643   1.415  10.219   7.511 -0.6905  0.6463  0.3373
  875MOL0     C20644   1.372  10.209   7.644 -1.0516 -0.6259 -0.6186
  875MOL0     C20645   1.393  10.086   7.706 -0.0753  0.4996  0.6046
  875MOL0     C20646   1.355  10.072   7.842 -0.0666  0.2402  0.1602
  875MOL0     C20647   1.295  10.174   7.914 -0.6084 -0.1879  0.4949
  875MOL0     O20648   1.247  10.128   8.038  0.4435 -0.3649  0.0447
  875MOL0     C20649   1.151  10.213   8.105  0.0750 -0.4498 -0.2416
  875MOL0     C20650   1.090  10.168   8.240  0.2655 -0.2776 -1.0010
  875MOL0     C20651   1.196  10.154   8.358 -0.3921 -0.4628 -0.4175
  875MOL0     C20652   1.313  10.053   8.322 -1.1785 -0.0900 -0.2844
  875MOL0     C20653   1.388  10.004   8.446 -0.3512  0.5502  0.1438
  875MOL0     C20654   1.370  10.102   8.568 -0.3823 -0.7224  1.1333
  875MOL0     C20655   1.464  10.076   8.687 -0.4862 -0.3832  0.3768
  875MOL0     C20656   1.431   9.957   8.776  0.9982 -0.3244 -0.3668
  875MOL0    Cl20657   1.480   9.794   8.708  0.1357 -0.4676 -0.8504
  875MOL0     C20658   1.268  10.298   7.852  0.3153  0.8421 -0.1562
  875MOL0     C20659   1.306  10.316   7.717  0.0023 -0.7660  0.1902
  875MOL0     O20660   1.232  10.120   7.428 -0.1301  0.5997 -0.9979
  875MOL0     C20661   1.523  10.271   7.280 -0.7778 -0.7154 -0.3706
  875MOL0     C20662   1.582  10.327   7.173 -0.9889 -0.5974 -0.3828
  875MOL0     N20663   1.088  10.431   6.476  0.5863  0.3228 -0.2023
  875MOL0     N20664   0.985  10.410   6.405  0.0238 -0.0710  0.2905
  875MOL0     C20665   0.469   9.414   5.699 -0.5430  0.1592 -0.8758
  875MOL0     C20666   0.514   9.283   5.708  0.6501 -0.3132 -0.3907
  875MOL0     C20667   0.741   8.900   5.883  0.3339  0.1717  0.3856
  875MOL0     C20668   0.700   8.818   5.992 -0.0519 -0.2159 -0.0563
  875MOL0     C20669   0.768   8.696   6.011  0.4563 -0.1199  0.0853
  875MOL0     C20670   0.867   8.644   5.926 -0.1938 -0.1338 -0.0085
  875MOL0     O20671   0.931   8.518   5.936  0.3035  0.4595 -0.1181
  875MOL0     C20672   0.894   8.416   6.029  0.3015  0.4471 -1.0330
  875MOL0     C20673   0.833   8.297   5.954  0.3212  0.3686 -0.6079
  875MOL0     C20674   0.811   8.157   6.041  0.0947  0.2893 -0.2524
  875MOL0     C20675   0.768   8.047   5.947  0.4312 -0.0824 -0.0811
  875MOL0     C20676   0.795   7.917   5.994  0.7808  0.1062 -0.5383
  875MOL0     C20677   0.809   7.802   6.031 -0.2436 -1.4417 -0.3400
  875MOL0     C20678   0.885   8.713   5.806  0.0654  0.0604 -1.2106
  875MOL0     C20679   0.828   8.839   5.787 -0.3430  0.2729 -0.1987
  875MOL0     C20680   0.865   8.909   5.654  0.0592  0.3648 -0.8803
  875MOL0     H20681   0.801   9.321   5.876  0.0626 -0.7727 -0.5222
  875MOL0     H20682   0.742   9.547   5.856  0.7459 -0.0560 -0.2286
  875MOL0     H20683   0.589   9.718   5.923  0.2072  0.2634  0.3679
  875MOL0     H20684   0.487   9.821   5.826  1.0013  0.8376  0.8706
  875MOL0     H20685   0.775   9.768   5.807  1.1684  0.1744 -2.6610
  875MOL0     H20686   0.693   9.816   5.669  0.0048 -1.0950  0.1908
  875MOL0     H20687   0.802   9.999   5.811  1.7242 -2.4976 -0.4575
  875MOL0     H20688   0.638  10.035   5.768 -0.5129 -0.8074 -1.1076
  875MOL0     H20689   0.592   9.945   6.016  1.0373 -3.5141  3.0223
  875MOL0     H20690   0.757   9.899   6.021 -2.2952 -1.9168 -0.3726
  875MOL0     H20691   0.662  10.195   6.012 -2.0203 -1.4085  0.5071
  875MOL0     H20692   0.828  10.145   5.986  0.1015 -1.1308 -2.6752
  875MOL0     H20693   0.636  10.084   6.230  1.6162 -3.1956  2.9972
  875MOL0     H20694   0.791  10.006   6.225 -1.4825 -1.8128 -1.7153
  875MOL0     H20695   0.788  10.308   6.187 -1.5319 -1.3451 -1.2986
  875MOL0     H20696   0.919  10.211   6.190 -1.4944  1.7718 -0.5713
  875MOL0     H20697   0.731  10.284   6.402 -1.1176 -0.2012 -0.6027
  875MOL0     H20698   0.797  10.137   6.438 -1.3428  0.2454 -0.4004
  875MOL0     H20699   1.014  10.143   6.600 -3.0615  0.0920  0.6925
  875MOL0     H20700   1.308  10.225   6.648 -1.3100  0.4663 -2.0379
  875MOL0     H20701   1.189  10.284   6.754  0.5819 -3.8797 -0.1523
  875MOL0     H20702   1.385  10.441   6.576 -1.5893  1.7048 -0.7772
  875MOL0     H20703   1.240  10.523   6.639 -2.0185 -1.5978 -0.7635
  875MOL0     H20704   1.424  10.583   6.796  2.9760 -1.3414  1.0660
  875MOL0     H20705   1.316  10.462   6.876  1.3875  0.2205  1.0827
  875MOL0     H20706   1.483  10.276   6.784  1.1351 -0.5744  2.5264
  875MOL0     H20707   1.581  10.416   6.736  0.3000  3.0354  0.3006
  875MOL0     H20708   1.348  10.235   6.944  0.0044 -0.5859 -0.1069
  875MOL0     H20709   1.150  10.143   7.040  0.2736 -0.1446 -0.7918
  875MOL0     H20710   1.117  10.272   7.171  2.0584  0.6874 -0.4000
  875MOL0     H20711   1.129  10.115   7.211 -0.2720  0.8529  1.0029
  875MOL0     H20712   1.448  10.012   7.647  0.1704 -0.9460  2.5299
  875MOL0     H20713   1.385   9.982   7.895  0.4671  0.6134  0.5064
  875MOL0     H20714   1.203  10.308   8.115  4.4666 -2.7711  1.9567
  875MOL0     H20715   1.066  10.231   8.038  1.3911 -0.2475 -1.9120
  875MOL0     H20716   1.006  10.231   8.269 -0.1685 -1.6772  1.0318
  875MOL0     H20717   1.046  10.070   8.221 -0.6909  0.1603 -1.1087
  875MOL0     H20718   1.137  10.131   8.448  5.1355  0.9138  4.1238
  875MOL0     H20719   1.222  10.258   8.378 -1.6490 -0.1841 -0.1198
  875MOL0     H20720   1.392  10.111   8.274 -1.4884  2.1806  1.7404
  875MOL0     H20721   1.272   9.969   8.265 -3.2936  0.1024  0.8302
  875MOL0     H20722   1.356   9.903   8.474  2.1670  0.3282  2.6202
  875MOL0     H20723   1.497  10.004   8.437 -0.0221  0.0469  3.0662
  875MOL0     H20724   1.279  10.115   8.627 -0.0323  2.0947  1.2092
  875MOL0     H20725   1.386  10.202   8.527  4.0955 -1.4181  0.6841
  875MOL0     H20726   1.463  10.166   8.749 -0.1070  0.6904 -1.1066
  875MOL0     H20727   1.570  10.069   8.661 -0.6715 -0.9450 -0.2444
  875MOL0     H20728   1.326   9.951   8.807  1.3213  2.0429  1.4829
  875MOL0     H20729   1.484   9.959   8.872 -0.2031 -0.0875  0.3141
  875MOL0     H20730   1.207  10.377   7.896 -1.8709  2.5142 -5.3368
  875MOL0     H20731   1.282  10.412   7.673  1.0589 -1.4688 -2.0460
  875MOL0     H20732   1.585  10.284   7.368  1.9429  5.1822 -2.5923
  875MOL0     H20733   1.684  10.361   7.179  0.0844 -3.6643  0.7461
  875MOL0     H20734   0.381   9.444   5.643 -3.0565 -2.1061  1.5871
  875MOL0     H20735   0.454   9.196   5.683 -0.3425  0.3344 -0.3233
  875MOL0     H20736   0.635   8.845   6.074  0.7713 -0.8882  0.8382
  875MOL0     H20737   0.748   8.621   6.087  0.8064 -1.0999 -0.7614
  875MOL0     H20738   0.974   8.381   6.095 -0.7855  0.8043  0.5188
  875MOL0     H20739   0.816   8.445   6.100  0.4455 -0.8384 -0.3156
  875MOL0     H20740   0.895   8.270   5.868  0.4668  2.4215 -1.1947
  875MOL0     H20741   0.734   8.320   5.915 -0.4059 -2.1700 -0.4306
  875MOL0     H20742   0.900   8.136   6.100  0.0562  0.5282 -0.1094
  875MOL0     H20743   0.735   8.169   6.119  0.0160  0.8915 -0.4142
  875MOL0     H20744   0.826   8.061   5.856  0.1738  0.9226 -0.1070
  875MOL0     H20745   0.665   8.049   5.910  0.3945 -0.0444  0.0205
  875MOL0     H20746   0.827   7.707   6.078 -1.7836 -0.7808  1.7026
  875MOL0     H20747   0.958   8.670   5.739  2.4197 -0.4258  1.4980
  875MOL0     H20748   0.788   8.904   5.576  1.2164 -3.8787 -2.0479
  875MOL0     H20749   0.897   9.011   5.675 -0.7201  1.4339 -4.2689
  875MOL0     H20750   0.951   8.862   5.605  0.7054  1.8334 -1.2192
  876MOL0     O20751   0.810   3.092   7.009  0.1093 -1.0079  0.2194
  876MOL0     C20752   0.786   3.047   7.121 -0.5359  0.1037  0.4775
  876MOL0     O20753   0.837   3.096   7.238  0.5555  0.0316 -0.5106
  876MOL0     C20754   0.919   3.208   7.232 -0.6431  1.1169  0.3695
  876MOL0     C20755   1.048   3.198   7.177  0.6453 -0.7802 -0.1719
  876MOL0     C20756   1.140   3.303   7.178 -0.6977 -0.8012  0.1801
  876MOL0     C20757   1.099   3.423   7.246  0.4074  0.7894 -0.3619
  876MOL0     O20758   1.180   3.534   7.225  0.5786 -0.0152 -1.6958
  876MOL0     C20759   1.245   3.579   7.348  0.7285 -0.3244 -0.8072
  876MOL0     C20760   1.398   3.626   7.323 -0.6027  0.5951 -0.1181
  876MOL0     C20761   1.414   3.760   7.255  0.4527 -0.3631  0.0290
  876MOL0     C20762   1.394   3.886   7.341 -0.4670  0.2800  0.2183
  876MOL0     C20763   1.348   3.994   7.251  0.3861 -0.4856  0.1369
  876MOL0     C20764   1.369   4.135   7.306  0.0099  0.0232  0.4310
  876MOL0     C20765   1.303   4.253   7.248  1.2637 -0.8475  0.1588
  876MOL0     C20766   1.380   4.294   7.122 -0.2694  0.7022 -0.1678
  876MOL0     N20767   1.344   4.428   7.069  0.0721  0.4434 -0.1657
  876MOL0     C20768   1.392   4.533   7.136 -0.0418 -0.5114 -0.5062
  876MOL0     C20769   1.320   4.634   7.079 -0.5540  0.5803  0.2309
  876MOL0     C20770   1.332   4.778   7.108  0.6241 -0.1777  0.5717
  876MOL0     C20771   1.206   4.839   7.184 -0.2215  0.0339  0.1482
  876MOL0     C20772   1.225   4.823   7.339  0.6561  0.4726  0.4470
  876MOL0     C20773   1.125   4.897   7.417  0.5347  0.4614  0.7797
  876MOL0     O20774   1.180   5.006   7.492  0.2671  0.3134 -0.9282
  876MOL0     C20775   1.105   5.068   7.588  0.4330  0.9584  0.3774
  876MOL0     C20776   0.979   5.026   7.625  0.2818 -0.3738 -0.8344
  876MOL0     C20777   0.916   5.087   7.731 -0.0593 -0.0873  0.7199
  876MOL0     C20778   0.783   5.035   7.764  0.0962 -0.7716 -0.8571
  876MOL0     C20779   0.985   5.196   7.791 -0.4338  0.5352  0.0271
  876MOL0     C20780   0.922   5.261   7.905  0.5472 -0.7376  0.6374
  876MOL0     O20781   0.904   5.211   8.033 -0.2916 -0.2675  0.4522
  876MOL0     C20782   0.969   5.098   8.061  0.6832  0.4624 -0.2464
  876MOL0     C20783   0.888   4.986   8.098 -0.4169 -1.2819 -0.7860
  876MOL0     C20784   0.944   4.868   8.135 -0.3658  0.4374  0.1565
  876MOL0     C20785   1.085   4.846   8.119 -0.1135  0.0365  0.1358
  876MOL0     O20786   1.129   4.720   8.138  0.6772  0.1409  0.4225
  876MOL0     C20787   1.260   4.688   8.078  0.5097 -0.8515  0.0122
  876MOL0     C20788   1.263   4.532   8.066  0.3612 -0.1816 -0.0457
  876MOL0     C20789   1.304   4.457   8.195  0.7392  0.0817 -0.5797
  876MOL0     C20790   1.452   4.469   8.233  0.7349  0.6794 -0.6010
  876MOL0     C20791   1.519   4.330   8.255  0.2348  0.8031  0.6775
  876MOL0     C20792   1.670   4.342   8.273 -0.2694  0.1153  0.7362
  876MOL0     C20793   1.715   4.428   8.384 -0.5461 -0.7630 -0.3209
  876MOL0     C20794   1.874   4.426   8.399  0.5930  0.4967  0.1210
  876MOL0    Cl20795   1.932   4.260   8.463  0.1763  0.1154 -0.1399
  876MOL0     C20796   1.166   4.953   8.084 -0.5463 -1.2371 -0.4425
  876MOL0     C20797   1.105   5.081   8.054 -0.4385 -0.0168 -0.3715
  876MOL0     O20798   0.875   5.371   7.877  0.2797  0.4829  0.6878
  876MOL0     C20799   1.112   5.238   7.746  0.1511 -0.3227 -0.6848
  876MOL0     C20800   1.169   5.180   7.639  1.2468  0.1140  0.0626
  876MOL0     N20801   1.241   4.573   6.981 -0.2419 -0.6001 -0.2798
  876MOL0     N20802   1.253   4.450   6.970  0.1492 -0.5336 -0.4032
  876MOL0     C20803   0.975   3.427   7.320  0.6135 -0.2671  0.1550
  876MOL0     C20804   0.879   3.318   7.301  0.7175 -1.5658 -0.5659
  876MOL0     C20805   0.723   2.915   7.119  0.3449  0.4917 -0.3648
  876MOL0     C20806   0.723   2.851   7.245  0.3021  0.3184 -0.2907
  876MOL0     C20807   0.655   2.736   7.265 -0.2742  0.9200 -1.0718
  876MOL0     C20808   0.582   2.669   7.168  0.1966 -0.1769 -0.0704
  876MOL0     O20809   0.506   2.555   7.202 -0.3117  1.1888  0.1560
  876MOL0     C20810   0.517   2.451   7.100  0.7861 -0.5910  0.8718
  876MOL0     C20811   0.657   2.396   7.092  0.4319  0.3789 -0.6644
  876MOL0     C20812   0.651   2.250   7.016  0.3295  0.1852 -0.5190
  876MOL0     C20813   0.787   2.179   7.017 -1.0018 -0.3798  1.0423
  876MOL0     C20814   0.887   2.259   6.940  0.8176 -0.1394  0.0225
  876MOL0     C20815   0.971   2.325   6.883  0.5745  0.3792  0.2973
  876MOL0     C20816   0.585   2.722   7.031 -1.0425 -0.5871 -0.8994
  876MOL0     C20817   0.656   2.843   7.008 -0.1515 -0.5244  0.1479
  876MOL0     C20818   0.632   2.906   6.873 -0.9754 -0.6257 -0.5452
  876MOL0     H20819   1.066   3.102   7.130  1.5311 -1.4620  1.4784
  876MOL0     H20820   1.232   3.305   7.119 -1.9207  0.4618 -1.8049
  876MOL0     H20821   1.250   3.505   7.428 -1.1525 -2.5684 -2.6082
  876MOL0     H20822   1.180   3.659   7.384 -1.6854 -1.6593 -1.9581
  876MOL0     H20823   1.465   3.619   7.408  1.9110 -1.9434 -2.1187
  876MOL0     H20824   1.438   3.545   7.261  2.1254  0.7387  1.3213
  876MOL0     H20825   1.517   3.769   7.220 -0.2269  3.7635 -1.3711
  876MOL0     H20826   1.344   3.764   7.171  1.0512 -0.5902 -0.4889
  876MOL0     H20827   1.321   3.866   7.420  0.4334  0.5056  1.1307
  876MOL0     H20828   1.482   3.908   7.404 -0.9328  1.5406  0.4595
  876MOL0     H20829   1.243   3.997   7.223 -0.5451 -2.5667  2.9121
  876MOL0     H20830   1.414   3.994   7.164 -0.0802  3.5974 -0.3984
  876MOL0     H20831   1.329   4.135   7.408  1.5159 -5.3784  1.3574
  876MOL0     H20832   1.473   4.148   7.336  0.8734 -3.4413 -0.5198
  876MOL0     H20833   1.297   4.336   7.319  0.5363 -1.7306  1.1505
  876MOL0     H20834   1.200   4.227   7.225  1.5046  0.3572 -2.6653
  876MOL0     H20835   1.489   4.300   7.127  0.0609  0.5834 -4.1528
  876MOL0     H20836   1.353   4.215   7.052 -1.5079  0.0219  1.0283
  876MOL0     H20837   1.459   4.541   7.221  1.7557 -3.4491 -1.4843
  876MOL0     H20838   1.336   4.835   7.015  1.5902  1.5856  1.6136
  876MOL0     H20839   1.417   4.798   7.174 -0.1236  1.6108  1.0737
  876MOL0     H20840   1.196   4.947   7.169  1.1543  0.3168  1.0866
  876MOL0     H20841   1.116   4.796   7.139 -0.8605  2.3018 -0.9105
  876MOL0     H20842   1.225   4.715   7.353 -1.9425  0.3191 -0.2431
  876MOL0     H20843   1.319   4.866   7.377 -0.9279  2.0462  2.8214
  876MOL0     H20844   1.054   4.936   7.343  0.7204 -0.3097  0.1802
  876MOL0     H20845   1.075   4.826   7.483 -2.2672  0.9171 -0.6935
  876MOL0     H20846   0.930   4.939   7.582  0.5287 -1.8556  1.7053
  876MOL0     H20847   0.775   4.934   7.722 -1.8023  0.0697 -2.7258
  876MOL0     H20848   0.720   5.099   7.701  1.3513 -1.8076 -3.3138
  876MOL0     H20849   0.755   5.031   7.870  0.6441 -1.8562 -0.7330
  876MOL0     H20850   0.781   4.998   8.112 -0.0763  2.0381 -0.2067
  876MOL0     H20851   0.873   4.798   8.178 -3.5983  1.6478 -2.7426
  876MOL0     H20852   1.289   4.744   7.988  2.5389  1.9586  2.2306
  876MOL0     H20853   1.339   4.713   8.149  0.8127  0.2858 -0.6866
  876MOL0     H20854   1.167   4.483   8.048  0.6558 -0.9060  0.3246
  876MOL0     H20855   1.329   4.495   7.987 -0.2740 -2.6055  0.4749
  876MOL0     H20856   1.282   4.350   8.184 -2.5554  0.7142 -1.1779
  876MOL0     H20857   1.254   4.502   8.282  3.1650 -0.2798  1.0881
  876MOL0     H20858   1.462   4.535   8.320 -1.4745 -0.4173  0.5658
  876MOL0     H20859   1.501   4.522   8.151  2.3535 -1.5702 -1.1881
  876MOL0     H20860   1.477   4.280   8.342 -3.2802  1.7226 -0.3285
  876MOL0     H20861   1.489   4.277   8.163  1.1435 -1.0996  1.4210
  876MOL0     H20862   1.697   4.397   8.182  1.3305  0.5867  1.4446
  876MOL0     H20863   1.728   4.250   8.273  0.2498  0.3234  3.9032
  876MOL0     H20864   1.677   4.403   8.483 -3.0191  4.9066  0.5378
  876MOL0     H20865   1.678   4.530   8.372  0.9362  0.0924  1.6959
  876MOL0     H20866   1.910   4.512   8.457  1.7721 -0.4621  0.8500
  876MOL0     H20867   1.912   4.430   8.297 -3.2920 -2.4826 -1.6939
  876MOL0     H20868   1.275   4.962   8.085 -0.6274 -0.1565 -0.1752
  876MOL0     H20869   1.162   5.172   8.037 -2.4417  0.9924 -2.2420
  876MOL0     H20870   1.171   5.314   7.796 -0.5949  0.5637 -1.1300
  876MOL0     H20871   1.269   5.215   7.615  1.3448  0.7201  1.2760
  876MOL0     H20872   0.947   3.521   7.367  1.2334  0.6170 -1.1519
  876MOL0     H20873   0.781   3.335   7.344  3.0760  3.6635  3.9657
  876MOL0     H20874   0.757   2.889   7.341 -0.0527 -3.3559  1.4483
  876MOL0     H20875   0.660   2.691   7.363 -1.7403 -1.3850 -1.9625
  876MOL0     H20876   0.440   2.374   7.110 -0.1960  0.2127 -0.2189
  876MOL0     H20877   0.483   2.490   7.003  1.5090 -0.4589  0.6692
  876MOL0     H20878   0.709   2.395   7.188 -0.2284  2.4823 -0.2220
  876MOL0     H20879   0.716   2.455   7.021  1.2117 -0.2149 -0.5317
  876MOL0     H20880   0.591   2.182   7.078  2.7493 -1.9140 -0.3210
  876MOL0     H20881   0.599   2.272   6.923 -1.3833  2.5703  0.8949
  876MOL0     H20882   0.781   2.080   6.971  1.9731  0.6429 -1.9637
  876MOL0     H20883   0.821   2.175   7.121  0.0175  1.7408  0.8456
  876MOL0     H20884   1.057   2.373   6.841 -0.7036  0.5867 -2.2560
  876MOL0     H20885   0.530   2.681   6.947 -0.9787 -1.2477 -0.6233
  876MOL0     H20886   0.616   3.014   6.883 -0.9472 -0.7044  0.4816
  876MOL0     H20887   0.717   2.882   6.809  2.1924  1.8026  2.3628
  876MOL0     H20888   0.534   2.866   6.843 -0.8270 -2.4997  1.2314
  877MOL0     O20889   8.343   9.729   4.261 -0.5541 -0.0474 -0.1756
  877MOL0     C20890   8.419   9.716   4.157 -0.0434 -0.1058 -0.9633
  877MOL0     O20891   8.488   9.600   4.119 -0.0503 -0.2600 -0.0883
  877MOL0     C20892   8.480   9.487   4.192 -0.1395  0.2636 -0.1614
  877MOL0     C20893   8.501   9.494   4.331 -0.3141 -0.4936 -0.0343
  877MOL0     C20894   8.499   9.375   4.405  0.5218  0.5425  0.0053
  877MOL0     C20895   8.506   9.255   4.333 -0.3970 -1.7568  1.4427
  877MOL0     O20896   8.530   9.134   4.398  0.5386  0.6288 -0.4922
  877MOL0     C20897   8.641   9.128   4.497 -0.5558  0.1212 -1.0544
  877MOL0     C20898   8.636   8.991   4.559  0.2540 -0.3920  0.1028
  877MOL0     C20899   8.762   8.967   4.650  0.2956  0.0176  0.0427
  877MOL0     C20900   8.743   8.846   4.748  0.5711  0.8130  0.3450
  877MOL0     C20901   8.876   8.783   4.796 -0.2879 -0.1277  0.0984
  877MOL0     C20902   8.970   8.889   4.864 -0.1687 -0.5085  0.5313
  877MOL0     C20903   9.070   8.815   4.960  1.0394 -0.7481  0.6700
  877MOL0     C20904   9.198   8.906   4.981  0.5388 -0.1820  0.2675
  877MOL0     N20905   9.280   8.854   5.098 -0.3696 -0.9471 -0.1939
  877MOL0     C20906   9.261   8.872   5.234  0.3570  0.6223  0.3029
  877MOL0     C20907   9.350   8.785   5.291  0.1975 -0.5379 -0.3138
  877MOL0     C20908   9.379   8.754   5.431 -0.1241 -0.9773 -1.0146
  877MOL0     C20909   9.258   8.691   5.494  0.1303 -0.8954 -0.2515
  877MOL0     C20910   9.276   8.631   5.634 -0.0598 -0.7436  0.2127
  877MOL0     C20911   9.147   8.567   5.686  0.0130 -0.4222  0.3654
  877MOL0     O20912   9.185   8.516   5.818 -0.1629 -0.7985  0.2057
  877MOL0     C20913   9.089   8.466   5.900  0.2414 -0.5192 -0.0911
  877MOL0     C20914   8.982   8.548   5.950  0.0660 -0.2165 -0.1107
  877MOL0     C20915   8.897   8.502   6.052 -1.0309 -0.0069  0.5534
  877MOL0     C20916   8.774   8.579   6.078  0.2476  0.6522  0.2959
  877MOL0     C20917   8.921   8.369   6.103 -0.0498 -0.3982 -0.1812
  877MOL0     C20918   8.822   8.297   6.182  0.5353  0.1580 -0.6351
  877MOL0     O20919   8.846   8.161   6.200 -0.2137  0.0901 -0.1737
  877MOL0     C20920   8.780   8.102   6.306  0.1172 -0.0770 -0.3204
  877MOL0     C20921   8.716   7.981   6.278  0.2958  0.2824 -1.0248
  877MOL0     C20922   8.613   7.928   6.365 -0.1215  0.4009 -0.0848
  877MOL0     C20923   8.614   7.972   6.491  0.0002  0.3202 -1.1542
  877MOL0     O20924   8.537   7.892   6.578  0.0163 -0.0371  0.7963
  877MOL0     C20925   8.607   7.832   6.688 -0.2641 -0.7783 -0.2114
  877MOL0     C20926   8.548   7.695   6.714 -0.8924  1.0011 -0.2417
  877MOL0     C20927   8.551   7.587   6.600 -0.9649 -0.1391  0.9058
  877MOL0     C20928   8.692   7.573   6.533 -0.1405  0.4548 -0.2689
  877MOL0     C20929   8.707   7.465   6.432 -0.5148 -0.8390  0.0871
  877MOL0     C20930   8.622   7.509   6.311  0.0302 -0.7062 -0.1309
  877MOL0     C20931   8.654   7.429   6.179  0.4930 -0.5490 -0.3789
  877MOL0     C20932   8.795   7.462   6.118 -0.2425 -0.0603  0.6018
  877MOL0    Cl20933   8.821   7.635   6.074 -0.1123  0.1126 -0.0181
  877MOL0     C20934   8.692   8.080   6.535 -0.1530 -0.1636  0.0282
  877MOL0     C20935   8.777   8.147   6.437  0.8288 -0.2980 -1.4785
  877MOL0     O20936   8.749   8.365   6.252 -0.3917  0.6004 -0.5390
  877MOL0     C20937   9.032   8.298   6.057  0.2476 -0.2433  0.2988
  877MOL0     C20938   9.116   8.347   5.963  0.3650  0.1042  0.4526
  877MOL0     N20939   9.411   8.717   5.191 -0.1476  0.3655  0.1274
  877MOL0     N20940   9.376   8.754   5.080  0.0983 -0.3746 -0.1934
  877MOL0     C20941   8.482   9.251   4.202  0.4961 -0.4442  0.9205
  877MOL0     C20942   8.463   9.368   4.130 -0.6596  0.0767  0.3349
  877MOL0     C20943   8.451   9.847   4.080 -0.2914 -0.3499  0.1308
  877MOL0     C20944   8.548   9.831   3.977  0.0911 -0.6479  0.2219
  877MOL0     C20945   8.586   9.948   3.901  0.9466  0.0430  1.2980
  877MOL0     C20946   8.510  10.064   3.910 -0.2705 -0.5054  0.4176
  877MOL0     O20947   8.546  10.166   3.837  0.3329 -0.7606  0.2145
  877MOL0     C20948   8.494  10.158   3.702 -0.3395  0.8842  0.0079
  877MOL0     C20949   8.595  10.229   3.616 -0.3471  0.4823  0.1958
  877MOL0     C20950   8.540  10.250   3.472 -0.8583 -0.6326  1.1473
  877MOL0     C20951   8.625  10.344   3.386 -0.6990 -0.1897 -0.3610
  877MOL0     C20952   8.772  10.319   3.398  1.1252 -0.1650  0.4701
  877MOL0     C20953   8.883  10.310   3.411 -1.2577  0.0741  0.2694
  877MOL0     C20954   8.417  10.079   4.008  0.6397  0.3789 -0.1936
  877MOL0     C20955   8.381   9.969   4.091 -0.0876 -0.7206  0.2321
  877MOL0     C20956   8.278   9.995   4.192 -0.4407  0.2885  0.4793
  877MOL0     H20957   8.511   9.587   4.386  1.2889  0.2338 -1.4544
  877MOL0     H20958   8.498   9.369   4.513 -3.1993 -3.5062  0.0107
  877MOL0     H20959   8.632   9.201   4.578  1.0428 -1.5612  0.7556
  877MOL0     H20960   8.741   9.136   4.453  0.1468 -0.1791  0.4256
  877MOL0     H20961   8.536   8.984   4.602 -0.1242  2.0274 -0.2827
  877MOL0     H20962   8.647   8.926   4.471 -0.7438  1.0496 -1.1538
  877MOL0     H20963   8.855   8.956   4.593 -1.2249 -3.0872 -2.1461
  877MOL0     H20964   8.776   9.049   4.721  0.8631 -0.3557  0.3691
  877MOL0     H20965   8.682   8.884   4.830  2.7466  0.5913  2.1487
  877MOL0     H20966   8.686   8.769   4.695 -0.4767 -0.3407  2.9663
  877MOL0     H20967   8.927   8.724   4.720 -0.7943 -1.6075  0.8710
  877MOL0     H20968   8.858   8.710   4.876  4.2736 -2.0762 -0.3509
  877MOL0     H20969   9.019   8.948   4.786 -0.6010 -1.5277 -0.5500
  877MOL0     H20970   8.906   8.965   4.909 -0.6522 -0.1050 -0.7882
  877MOL0     H20971   9.114   8.728   4.910  0.3073 -0.7644  0.0459
  877MOL0     H20972   9.030   8.786   5.057  0.3396  2.7224  1.5531
  877MOL0     H20973   9.268   8.903   4.897  0.6908 -5.6759  0.2269
  877MOL0     H20974   9.161   9.007   4.999  0.8752 -0.1453  0.7678
  877MOL0     H20975   9.203   8.940   5.296  0.1414  0.0155  0.7798
  877MOL0     H20976   9.407   8.844   5.486  1.4558 -1.4805 -0.9445
  877MOL0     H20977   9.473   8.700   5.446  0.9291  1.4477  2.0044
  877MOL0     H20978   9.194   8.773   5.526  1.9119 -0.3444  2.1663
  877MOL0     H20979   9.203   8.629   5.423 -2.5967  0.9995  0.0602
  877MOL0     H20980   9.353   8.553   5.626  1.5723  0.2626  3.8945
  877MOL0     H20981   9.321   8.694   5.711  1.0855  1.1958 -1.9120
  877MOL0     H20982   9.059   8.632   5.691  0.1270  0.2267 -3.4088
  877MOL0     H20983   9.119   8.485   5.619 -2.8420  0.1480  0.6983
  877MOL0     H20984   8.964   8.643   5.901 -3.8979 -1.8606 -2.3310
  877MOL0     H20985   8.699   8.500   6.075 -0.1772  1.0692 -0.2378
  877MOL0     H20986   8.750   8.644   5.993  5.3764  3.5729  0.6720
  877MOL0     H20987   8.776   8.655   6.157  0.9930  1.0696 -0.1094
  877MOL0     H20988   8.721   7.936   6.179 -1.1252  0.7645 -1.3418
  877MOL0     H20989   8.561   7.835   6.346  1.6745 -0.9758  1.3899
  877MOL0     H20990   8.716   7.832   6.679 -0.2212 -2.7718 -0.2386
  877MOL0     H20991   8.577   7.889   6.776 -1.2607 -0.6953 -0.5912
  877MOL0     H20992   8.604   7.664   6.803 -3.2628  0.5284  1.1667
  877MOL0     H20993   8.443   7.705   6.743 -0.6893  1.0358  0.4913
  877MOL0     H20994   8.489   7.622   6.517  3.2944 -0.0133 -2.5887
  877MOL0     H20995   8.518   7.489   6.637 -0.0452 -1.9350 -2.6039
  877MOL0     H20996   8.763   7.546   6.611 -2.0206 -2.0383  0.7385
  877MOL0     H20997   8.723   7.669   6.493 -2.2607  3.1146  3.7849
  877MOL0     H20998   8.815   7.453   6.416 -0.7381  0.5715 -3.3705
  877MOL0     H20999   8.666   7.377   6.482 -1.2071 -0.2825  0.5236
  877MOL0     H21000   8.639   7.614   6.284  2.6169 -1.3260 -1.2273
  877MOL0     H21001   8.514   7.506   6.329 -0.5796  0.8799 -2.8599
  877MOL0     H21002   8.573   7.444   6.106  0.1395 -3.8216 -0.7877
  877MOL0     H21003   8.646   7.321   6.194  1.6303 -0.7143 -0.8717
  877MOL0     H21004   8.814   7.411   6.023 -0.7621  2.4761 -0.9937
  877MOL0     H21005   8.870   7.418   6.183  0.2791  1.6015  1.1765
  877MOL0     H21006   8.671   8.108   6.638 -2.4159 -0.1677 -0.3660
  877MOL0     H21007   8.835   8.230   6.476 -0.3277 -0.3560  0.4767
  877MOL0     H21008   9.055   8.196   6.088  1.1151 -1.4802 -3.7482
  877MOL0     H21009   9.191   8.283   5.917 -0.3294 -1.7926  1.8475
  877MOL0     H21010   8.472   9.151   4.161  2.0186 -0.0730 -0.4952
  877MOL0     H21011   8.437   9.360   4.025 -0.7468  1.1649  0.2624
  877MOL0     H21012   8.609   9.748   3.944  0.5729  1.0429 -3.8409
  877MOL0     H21013   8.664   9.940   3.826 -1.1946 -0.5709 -0.9949
  877MOL0     H21014   8.477  10.057   3.663  4.6872 -0.1415 -0.2284
  877MOL0     H21015   8.397  10.208   3.708 -0.3514  0.6989  2.0641
  877MOL0     H21016   8.692  10.180   3.609  0.8272  2.5476  1.2061
  877MOL0     H21017   8.603  10.327   3.664 -2.8646  0.8456  0.0537
  877MOL0     H21018   8.536  10.147   3.435 -2.5906 -0.5506  0.9981
  877MOL0     H21019   8.432  10.271   3.474 -0.8018  0.0193 -0.8400
  877MOL0     H21020   8.613  10.449   3.416 -1.3847 -0.4077  0.1500
  877MOL0     H21021   8.610  10.338   3.277 -0.0169  2.2110 -0.6417
  877MOL0     H21022   8.990  10.302   3.414 -1.2707 -0.6540 -0.6901
  877MOL0     H21023   8.357  10.167   4.027  0.4569  0.4353 -1.0192
  877MOL0     H21024   8.317   9.990   4.294 -0.9618 -3.6850  0.6772
  877MOL0     H21025   8.215  10.083   4.176 -2.1018 -0.9501 -0.1168
  877MOL0     H21026   8.201   9.917   4.194 -0.0698 -0.0806  0.4566
  878MOL0     O21027   7.132  10.568   5.554  0.3582  0.3923  0.5963
  878MOL0     C21028   7.083  10.454   5.583  0.0213 -0.9850  0.0119
  878MOL0     O21029   7.143  10.357   5.647 -0.2997 -0.1861 -0.5551
  878MOL0     C21030   7.281  10.350   5.643  0.1288  0.0906  0.3750
  878MOL0     C21031   7.332  10.296   5.524  0.0056 -0.7715 -1.5496
  878MOL0     C21032   7.466  10.273   5.511  0.4816 -0.2548 -0.5263
  878MOL0     C21033   7.557  10.322   5.605  0.1938 -0.3257 -0.3384
  878MOL0     O21034   7.694  10.309   5.567 -0.1551  0.5746 -0.2826
  878MOL0     C21035   7.796  10.359   5.662 -0.2024  0.6378  0.4773
  878MOL0     C21036   7.821  10.502   5.647  0.4866 -0.7178  0.7550
  878MOL0     C21037   7.838  10.553   5.508  0.0125 -0.3428 -0.4159
  878MOL0     C21038   7.871  10.704   5.521  0.1989 -0.2419 -0.7766
  878MOL0     C21039   7.836  10.782   5.388  0.4784 -0.3640 -0.9070
  878MOL0     C21040   7.928  10.739   5.274 -0.1134  1.0384 -0.3253
  878MOL0     C21041   7.948  10.853   5.175 -0.5099 -0.6104  0.1319
  878MOL0     C21042   8.033  10.816   5.053 -0.0820 -0.7568 -0.3590
  878MOL0     N21043   8.163  10.773   5.099 -0.9305 -0.2349  0.2111
  878MOL0     C21044   8.210  10.649   5.072  0.0616  1.3668  0.0236
  878MOL0     C21045   8.344  10.657   5.082 -0.5012 -0.9809  0.0401
  878MOL0     C21046   8.427  10.548   5.038 -0.7396  0.5907  0.1809
  878MOL0     C21047   8.573  10.578   5.073 -0.4952  0.9699 -0.2586
  878MOL0     C21048   8.661  10.462   5.034  0.4923  0.4259 -0.7422
  878MOL0     C21049   8.713  10.484   4.888 -0.6707  0.1586  0.1294
  878MOL0     O21050   8.612  10.465   4.795 -0.9081  0.1552  0.1742
  878MOL0     C21051   8.630  10.520   4.668  1.7998  0.0951  0.3589
  878MOL0     C21052   8.520  10.506   4.580  0.2511  0.5079 -0.4380
  878MOL0     C21053   8.522  10.550   4.451 -0.5758 -0.8630  0.5717
  878MOL0     C21054   8.385  10.556   4.386  0.2428  0.1625  0.2398
  878MOL0     C21055   8.628  10.629   4.404 -0.8599 -0.0883  0.9194
  878MOL0     C21056   8.637  10.703   4.282  0.0551 -0.4739  0.9894
  878MOL0     O21057   8.734  10.807   4.282 -0.4675  0.9520 -0.5884
  878MOL0     C21058   8.735  10.904   4.184 -0.9416  0.5626  0.5950
  878MOL0     C21059   8.617  10.952   4.124  0.2669  0.1810  0.0298
  878MOL0     C21060   8.625  11.028   4.004  1.4551 -1.2159 -0.9916
  878MOL0     C21061   8.745  11.067   3.957 -0.5029 -0.0627  0.4110
  878MOL0     O21062   8.756  11.145   3.841 -0.2089  0.2763  0.5242
  878MOL0     C21063   8.867  11.110   3.759 -0.5126  0.2377 -0.2681
  878MOL0     C21064   8.855  11.174   3.617 -0.0758  0.0789 -0.6990
  878MOL0     C21065   8.760  11.085   3.529 -1.2943 -0.5941  0.3287
  878MOL0     C21066   8.747  11.157   3.389  0.4252  0.0164 -1.0055
  878MOL0     C21067   8.696  11.066   3.277 -0.1117  0.1639 -0.7459
  878MOL0     C21068   8.801  10.969   3.230  0.3893  0.6957 -0.1797
  878MOL0     C21069   8.766  10.883   3.111 -0.0340 -0.1509  0.3782
  878MOL0     C21070   8.861  10.764   3.087 -0.6320 -0.3515  1.0024
  878MOL0    Cl21071   8.843  10.695   2.921 -0.0889 -0.1886 -0.0622
  878MOL0     C21072   8.869  11.024   4.022  0.3792  0.2810 -0.2058
  878MOL0     C21073   8.865  10.938   4.127 -0.4623  0.0937 -0.5992
  878MOL0     O21074   8.548  10.691   4.200  0.3362 -0.4814 -0.4465
  878MOL0     C21075   8.744  10.632   4.495  0.9441  0.1849  0.4553
  878MOL0     C21076   8.742  10.580   4.623  0.1030 -0.1824 -0.3609
  878MOL0     N21077   8.370  10.773   5.151 -0.0477 -0.2946 -0.3679
  878MOL0     N21078   8.265  10.851   5.141 -0.5341  0.1108  1.0685
  878MOL0     C21079   7.506  10.374   5.729  0.3925  0.9950 -0.1020
  878MOL0     C21080   7.367  10.381   5.746  1.1337  0.2342  0.2689
  878MOL0     C21081   6.952  10.412   5.526 -0.2386 -0.4023  0.0665
  878MOL0     C21082   6.933  10.274   5.487  0.0054 -0.2100  0.9105
  878MOL0     C21083   6.820  10.225   5.413  0.4272  0.8736 -0.7253
  878MOL0     C21084   6.730  10.314   5.355 -0.1965 -0.1592 -0.8757
  878MOL0     O21085   6.628  10.265   5.269 -0.1312  0.2303 -0.7238
  878MOL0     C21086   6.547  10.362   5.199  0.6829  0.0140  0.6842
  878MOL0     C21087   6.498  10.292   5.072 -0.1033 -0.4241 -0.7878
  878MOL0     C21088   6.406  10.388   5.015 -0.6860  0.7220 -0.1412
  878MOL0     C21089   6.370  10.379   4.860  0.3464 -0.0504  0.3307
  878MOL0     C21090   6.465  10.417   4.751 -0.2752  0.0603 -0.5831
  878MOL0     C21091   6.541  10.436   4.659  0.3859 -0.1377 -0.7851
  878MOL0     C21092   6.746  10.448   5.396  0.5573 -0.6264  0.5340
  878MOL0     C21093   6.852  10.501   5.476  0.0403  0.0699 -0.6343
  878MOL0     C21094   6.841  10.638   5.504  0.7167  0.0712  0.1615
  878MOL0     H21095   7.258  10.283   5.445 -1.8345  3.2806 -0.7516
  878MOL0     H21096   7.506  10.226   5.422 -0.0907  0.1316 -0.9968
  878MOL0     H21097   7.888  10.306   5.634 -0.5619 -0.1655  0.7935
  878MOL0     H21098   7.772  10.338   5.766 -0.4638  3.4391  1.0777
  878MOL0     H21099   7.741  10.554   5.702  1.4794  3.7738 -1.5456
  878MOL0     H21100   7.913  10.524   5.703 -0.8774  0.1136  2.7850
  878MOL0     H21101   7.931  10.513   5.465  1.0162  0.8365  0.5852
  878MOL0     H21102   7.756  10.537   5.437  1.6061 -3.4095 -1.7735
  878MOL0     H21103   7.798  10.745   5.591  0.1586  0.5433 -1.2765
  878MOL0     H21104   7.978  10.709   5.544  0.7652 -2.7042 -2.3971
  878MOL0     H21105   7.863  10.886   5.407  0.3826 -0.2805 -1.2337
  878MOL0     H21106   7.730  10.778   5.361  0.0630  0.1453  0.5730
  878MOL0     H21107   8.019  10.698   5.318 -0.1506  1.9810  0.6853
  878MOL0     H21108   7.878  10.654   5.227 -0.4053  0.2042  1.4228
  878MOL0     H21109   7.995  10.934   5.231 -3.5482  1.9306 -0.6522
  878MOL0     H21110   7.847  10.875   5.137 -0.4451  1.6434  1.1407
  878MOL0     H21111   7.997  10.733   4.991 -0.4733 -0.7518 -0.1454
  878MOL0     H21112   8.046  10.898   4.983  3.2920 -0.7437  0.1530
  878MOL0     H21113   8.155  10.569   5.023 -0.7379  1.4790  0.7158
  878MOL0     H21114   8.422  10.528   4.930  0.5663 -1.6840  0.4719
  878MOL0     H21115   8.402  10.459   5.095 -0.2185  0.7288  0.6305
  878MOL0     H21116   8.599  10.662   5.008  2.9304  0.4157  0.2113
  878MOL0     H21117   8.595  10.604   5.177 -1.4578  1.1023 -0.0780
  878MOL0     H21118   8.744  10.447   5.102 -1.5868 -5.6457  1.1234
  878MOL0     H21119   8.609  10.366   5.048  1.6140  0.2837  3.6893
  878MOL0     H21120   8.758  10.584   4.883  0.5726 -0.1151  3.5543
  878MOL0     H21121   8.796  10.413   4.878 -1.8845 -1.2048 -0.6569
  878MOL0     H21122   8.426  10.471   4.620  0.4799  0.9227  0.4818
  878MOL0     H21123   8.349  10.658   4.378 -3.9042 -1.1520 -0.3755
  878MOL0     H21124   8.311  10.504   4.448 -0.5530 -0.4007 -1.1354
  878MOL0     H21125   8.390  10.512   4.285  1.1027  0.2279  0.2524
  878MOL0     H21126   8.517  10.948   4.167  1.7419 -2.6094  3.6393
  878MOL0     H21127   8.532  11.054   3.955  0.9684 -2.0401 -0.5203
  878MOL0     H21128   8.958  11.147   3.808 -0.8654  0.3630  0.3053
  878MOL0     H21129   8.869  11.001   3.745  0.4392  0.2285 -0.1174
  878MOL0     H21130   8.808  11.272   3.630  0.3771 -0.1082  4.7261
  878MOL0     H21131   8.953  11.196   3.575  0.3396 -1.2894 -0.4813
  878MOL0     H21132   8.660  11.071   3.572 -1.3632  2.3807  1.3658
  878MOL0     H21133   8.803  10.986   3.511 -0.8959 -0.2800 -0.5025
  878MOL0     H21134   8.843  11.200   3.360  0.9167 -1.3286 -1.4317
  878MOL0     H21135   8.682  11.245   3.401 -0.7793 -0.3060 -4.0939
  878MOL0     H21136   8.613  11.007   3.316  0.5691 -0.1090  0.3459
  878MOL0     H21137   8.654  11.129   3.198 -3.1848 -0.1552  0.4998
  878MOL0     H21138   8.817  10.898   3.312 -0.1658  2.2382  1.3083
  878MOL0     H21139   8.901  11.014   3.228  0.4288  0.8168  2.1828
  878MOL0     H21140   8.757  10.940   3.017  0.0964  0.9608  1.0196
  878MOL0     H21141   8.667  10.838   3.123  1.5810 -4.2005 -0.1607
  878MOL0     H21142   8.847  10.680   3.155 -1.0562 -2.9024 -2.0057
  878MOL0     H21143   8.964  10.801   3.094 -0.1228 -1.3203 -0.6425
  878MOL0     H21144   8.971  11.036   3.988  0.4340 -0.1108 -0.1863
  878MOL0     H21145   8.950  10.891   4.176 -2.1352 -1.6026  0.8402
  878MOL0     H21146   8.829  10.683   4.451  0.8015 -0.9996 -1.2928
  878MOL0     H21147   8.840  10.590   4.670  0.0189 -1.6497  0.2016
  878MOL0     H21148   7.564  10.406   5.815  2.4647 -1.7022 -0.3439
  878MOL0     H21149   7.334  10.430   5.837  0.1413  0.8707 -0.4105
  878MOL0     H21150   7.012  10.201   5.504  1.4905  0.2160 -3.1540
  878MOL0     H21151   6.813  10.117   5.421 -0.5686  1.0067  0.5374
  878MOL0     H21152   6.463  10.407   5.252  1.7123  1.7783  0.8754
  878MOL0     H21153   6.618  10.438   5.167 -0.0123  0.3237 -0.1529
  878MOL0     H21154   6.453  10.197   5.101 -1.0777  0.5101  0.8985
  878MOL0     H21155   6.575  10.271   4.997 -0.0344  1.2399 -1.2202
  878MOL0     H21156   6.311  10.370   5.065  0.6077 -1.1952  1.7995
  878MOL0     H21157   6.423  10.491   5.048 -2.4852 -0.1974  4.4720
  878MOL0     H21158   6.282  10.442   4.845  1.7153  2.2609  1.3615
  878MOL0     H21159   6.341  10.277   4.836  0.5052 -0.2588  1.0267
  878MOL0     H21160   6.595  10.461   4.570 -2.8694  0.5581 -2.7034
  878MOL0     H21161   6.674  10.517   5.353  2.3089  1.9473  1.5712
  878MOL0     H21162   6.742  10.674   5.475  0.9760  0.8321  0.1923
  878MOL0     H21163   6.867  10.679   5.602  2.0185  0.8343 -0.4768
  878MOL0     H21164   6.904  10.687   5.429 -0.5528  2.7532  0.6920
  879MOL0     O21165  10.676   7.554   4.625  0.1947 -0.4021  0.1143
  879MOL0     C21166  10.747   7.453   4.621 -0.1713 -0.1116  0.3037
  879MOL0     O21167  10.758   7.357   4.719 -0.7809 -0.0631 -0.6995
  879MOL0     C21168  10.695   7.373   4.839  0.3743  0.2627  0.8467
  879MOL0     C21169  10.557   7.367   4.831 -0.2840  0.8143  0.3182
  879MOL0     C21170  10.488   7.404   4.948  0.0972 -0.0568 -0.4820
  879MOL0     C21171  10.554   7.452   5.063  0.3521  0.1056 -1.0797
  879MOL0     O21172  10.479   7.492   5.168  0.2991 -0.0068  0.0627
  879MOL0     C21173  10.393   7.411   5.252 -0.5389  0.5851  0.0545
  879MOL0     C21174  10.261   7.481   5.285  0.4526  0.7510 -0.8749
  879MOL0     C21175  10.157   7.407   5.369  0.8761  1.1259 -0.5295
  879MOL0     C21176  10.067   7.492   5.445 -0.3376 -0.3601 -0.2509
  879MOL0     C21177   9.989   7.400   5.543  0.1053  0.9372  0.1546
  879MOL0     C21178   9.862   7.468   5.603  0.9782  0.0985 -0.3225
  879MOL0     C21179   9.796   7.378   5.714  0.5936  1.0227 -0.7956
  879MOL0     C21180   9.832   7.226   5.714 -1.4983 -0.1950  0.3419
  879MOL0     N21181   9.753   7.148   5.803  0.1873 -0.5041  1.0770
  879MOL0     C21182   9.796   7.043   5.873  0.2933 -1.2727 -0.1904
  879MOL0     C21183   9.687   7.004   5.939  0.2272 -0.1888 -0.5364
  879MOL0     C21184   9.694   6.891   6.042 -0.2967  0.3624  0.3397
  879MOL0     C21185   9.673   6.760   5.962  0.2747  0.9321  0.1495
  879MOL0     C21186   9.610   6.653   6.043  0.0159  0.7360 -1.0252
  879MOL0     C21187   9.655   6.635   6.183 -0.4696  0.2816 -0.5436
  879MOL0     O21188   9.589   6.519   6.235  0.6384 -0.1849 -0.2743
  879MOL0     C21189   9.640   6.447   6.340  0.2772  0.6582  0.4090
  879MOL0     C21190   9.742   6.494   6.430 -0.1788 -0.4644 -0.7635
  879MOL0     C21191   9.774   6.429   6.551  0.4319 -0.2889 -0.4963
  879MOL0     C21192   9.879   6.491   6.636 -0.0724 -0.1955 -0.7041
  879MOL0     C21193   9.711   6.307   6.576 -0.3133  0.1994  0.7837
  879MOL0     C21194   9.738   6.232   6.698  1.0057 -0.8180  0.6342
  879MOL0     O21195   9.785   6.103   6.692 -0.2053 -0.1721  0.6790
  879MOL0     C21196   9.695   6.011   6.726  0.0687  0.2064  0.5207
  879MOL0     C21197   9.693   5.977   6.864 -0.0572 -0.4286 -0.0237
  879MOL0     C21198   9.622   5.851   6.900 -0.0094  0.3243 -0.8312
  879MOL0     C21199   9.558   5.765   6.804 -0.7589 -0.2887 -0.0582
  879MOL0     O21200   9.503   5.646   6.829  0.3504 -0.2378  0.4239
  879MOL0     C21201   9.559   5.562   6.930  0.1009  0.4969  0.8014
  879MOL0     C21202   9.480   5.575   7.070 -0.1906  0.0727 -0.6082
  879MOL0     C21203   9.550   5.471   7.162 -0.4125  0.2686 -0.6179
  879MOL0     C21204   9.460   5.458   7.291  0.3096  0.6918  0.2848
  879MOL0     C21205   9.489   5.335   7.377  1.2924  0.3604 -0.8859
  879MOL0     C21206   9.499   5.355   7.524  0.1193  0.1557  0.6395
  879MOL0     C21207   9.367   5.352   7.603  1.3129 -0.1257 -0.4947
  879MOL0     C21208   9.298   5.489   7.621  0.8599 -0.8349 -0.6290
  879MOL0    Cl21209   9.173   5.473   7.745 -0.3339  0.4529  0.3167
  879MOL0     C21210   9.567   5.802   6.661  0.6829 -0.5625 -0.9220
  879MOL0     C21211   9.632   5.924   6.628 -0.1456  0.1347  1.1587
  879MOL0     O21212   9.705   6.285   6.809  0.2954  0.5916  0.4692
  879MOL0     C21213   9.614   6.255   6.493  0.5929  0.3671 -0.1717
  879MOL0     C21214   9.579   6.321   6.375  1.1684  0.5600 -1.0235
  879MOL0     N21215   9.567   7.084   5.917 -0.7381  0.4114 -1.1827
  879MOL0     N21216   9.618   7.173   5.835  0.2311 -0.5147  0.2794
  879MOL0     C21217  10.690   7.447   5.068 -0.2903 -0.3075  0.1186
  879MOL0     C21218  10.762   7.406   4.953  0.0957  0.2944  1.0464
  879MOL0     C21219  10.830   7.431   4.501 -0.2924 -0.0542 -1.4910
  879MOL0     C21220  10.897   7.318   4.488 -0.1677  1.3806  0.0907
  879MOL0     C21221  10.971   7.278   4.372 -0.9904  0.5813  1.0279
  879MOL0     C21222  10.983   7.372   4.275  0.2945 -0.0013  0.5344
  879MOL0     O21223  11.050   7.335   4.165 -0.2466 -0.0002  0.7576
  879MOL0     C21224  11.139   7.421   4.093 -0.5940 -0.8205  0.3645
  879MOL0     C21225  11.152   7.370   3.947 -0.6943  0.0006 -0.2087
  879MOL0     C21226  11.028   7.396   3.860 -1.0371  0.2989 -0.4082
  879MOL0     C21227  11.035   7.327   3.715 -0.6308  0.2448 -0.1781
  879MOL0     C21228  10.907   7.314   3.648  0.2496  0.2390  0.3619
  879MOL0     C21229  10.796   7.318   3.595  0.4123  0.4436 -0.5161
  879MOL0     C21230  10.923   7.499   4.287  0.4845  0.6838 -0.3540
  879MOL0     C21231  10.841   7.526   4.401 -0.3205 -0.3945  0.4473
  879MOL0     C21232  10.764   7.650   4.391  0.0192  0.0823 -0.5490
  879MOL0     H21233  10.508   7.341   4.738  2.4350 -2.6241 -0.3554
  879MOL0     H21234  10.380   7.411   4.955  0.2351  2.1665 -0.0694
  879MOL0     H21235  10.451   7.394   5.344 -4.1130  0.8334  2.5762
  879MOL0     H21236  10.382   7.310   5.210  2.3899 -0.0149  0.4910
  879MOL0     H21237  10.290   7.573   5.336  3.1391 -1.3651  1.7893
  879MOL0     H21238  10.210   7.496   5.190 -0.7793 -1.2419 -0.5804
  879MOL0     H21239  10.103   7.342   5.300  0.6088 -1.9781  2.3469
  879MOL0     H21240  10.222   7.357   5.441  0.6998  1.9364  0.2130
  879MOL0     H21241  10.132   7.557   5.504 -0.6621 -0.0617 -0.2199
  879MOL0     H21242  10.002   7.556   5.386 -0.7801 -0.6155 -0.0439
  879MOL0     H21243  10.042   7.375   5.636 -2.4760 -1.1855  1.1737
  879MOL0     H21244   9.960   7.313   5.484  1.5626  0.5214  0.0037
  879MOL0     H21245   9.886   7.562   5.655  2.1072  1.3328 -2.8742
  879MOL0     H21246   9.786   7.484   5.527 -0.2780 -4.0817 -0.1618
  879MOL0     H21247   9.687   7.391   5.710  0.0765 -1.5664  1.6261
  879MOL0     H21248   9.824   7.422   5.811 -3.7652 -1.8040  2.1143
  879MOL0     H21249   9.804   7.183   5.618 -1.6346 -1.0703  0.7685
  879MOL0     H21250   9.940   7.228   5.736 -1.9051  0.0995  2.5094
  879MOL0     H21251   9.898   7.007   5.884 -0.4356 -2.6111  3.4112
  879MOL0     H21252   9.614   6.916   6.112 -2.2933 -0.8046 -1.3739
  879MOL0     H21253   9.790   6.886   6.093  0.6023  4.8857 -0.5524
  879MOL0     H21254   9.612   6.784   5.874  2.0772  0.7966 -1.1803
  879MOL0     H21255   9.770   6.721   5.930  0.5528 -0.4506  2.4447
  879MOL0     H21256   9.504   6.680   6.051 -0.0854  0.1392 -0.2932
  879MOL0     H21257   9.627   6.558   5.993  1.0847  0.1542  0.3743
  879MOL0     H21258   9.763   6.627   6.171 -0.5581 -1.3935 -0.4280
  879MOL0     H21259   9.626   6.718   6.248  0.4174 -0.1897  0.4853
  879MOL0     H21260   9.797   6.585   6.406 -1.4336  0.3024 -0.8571
  879MOL0     H21261   9.842   6.490   6.739  2.3095  0.7001  0.2460
  879MOL0     H21262   9.893   6.599   6.621 -3.1656  0.5741  0.9767
  879MOL0     H21263   9.975   6.440   6.629  1.3603  2.2945 -0.4893
  879MOL0     H21264   9.742   6.040   6.938 -0.9388  0.6028 -0.2924
  879MOL0     H21265   9.624   5.829   7.006 -0.3505 -0.2988 -0.9497
  879MOL0     H21266   9.553   5.462   6.887  2.8874  0.5231  0.1472
  879MOL0     H21267   9.668   5.565   6.928  0.1355 -0.6403  0.2224
  879MOL0     H21268   9.491   5.674   7.115 -2.1608 -0.0610  0.2814
  879MOL0     H21269   9.372   5.563   7.056 -0.2036  1.4880 -2.2143
  879MOL0     H21270   9.647   5.506   7.197 -1.5217  2.3646  0.5748
  879MOL0     H21271   9.571   5.371   7.121  2.2286  0.4916  0.0541
  879MOL0     H21272   9.352   5.449   7.277  0.2648 -2.9581  1.7352
  879MOL0     H21273   9.490   5.542   7.353  1.1546 -0.9113  2.1720
  879MOL0     H21274   9.420   5.252   7.356 -0.9082  1.3762  1.7546
  879MOL0     H21275   9.593   5.306   7.358  1.3506 -3.1198  3.1748
  879MOL0     H21276   9.547   5.447   7.559  5.1904 -0.1106 -4.2250
  879MOL0     H21277   9.567   5.276   7.557  0.9236 -0.0155 -1.3211
  879MOL0     H21278   9.386   5.318   7.706  1.8345  2.8351  0.4672
  879MOL0     H21279   9.301   5.274   7.563  2.1115  0.7600 -3.7978
  879MOL0     H21280   9.251   5.523   7.528  0.5555  0.5663  0.0113
  879MOL0     H21281   9.360   5.576   7.645  0.9032 -0.9380 -0.3749
  879MOL0     H21282   9.513   5.739   6.591 -1.1532 -2.4600  1.9693
  879MOL0     H21283   9.649   5.935   6.522  2.0538 -2.2141  1.1683
  879MOL0     H21284   9.561   6.161   6.508  2.9104 -0.6444  2.6213
  879MOL0     H21285   9.510   6.271   6.307 -1.4057  1.8203  0.4950
  879MOL0     H21286  10.739   7.488   5.156 -1.7868 -1.0289  1.3482
  879MOL0     H21287  10.867   7.423   4.932  0.4556 -1.7220  1.0025
  879MOL0     H21288  10.909   7.240   4.563  1.3383  0.3124 -1.1734
  879MOL0     H21289  11.026   7.185   4.360 -0.0833  1.3862 -2.2714
  879MOL0     H21290  11.108   7.525   4.077  2.1434  0.0664  0.2143
  879MOL0     H21291  11.232   7.410   4.150 -1.0419  0.0568  1.2867
  879MOL0     H21292  11.157   7.261   3.943 -0.5795  0.0271 -0.9395
  879MOL0     H21293  11.245   7.404   3.901  0.2412 -3.3128 -1.0541
  879MOL0     H21294  10.932   7.362   3.899 -0.1029 -3.0216 -0.7588
  879MOL0     H21295  11.014   7.504   3.846 -2.1561  0.3345  0.7955
  879MOL0     H21296  11.084   7.231   3.733 -0.0649  0.6583  0.5804
  879MOL0     H21297  11.089   7.400   3.655  0.6303  1.5014  2.3409
  879MOL0     H21298  10.698   7.305   3.553  0.0688  1.5054 -0.0562
  879MOL0     H21299  10.926   7.584   4.220 -0.6671  1.2508  0.2668
  879MOL0     H21300  10.779   7.707   4.299 -1.2765  1.7570  0.2223
  879MOL0     H21301  10.659   7.621   4.389 -0.1232 -0.1096  2.8958
  879MOL0     H21302  10.782   7.713   4.479  1.6193  0.9312 -1.4374
  880MOL0     O21303   8.136   4.877   9.085 -0.6463  0.5641 -0.0520
  880MOL0     C21304   8.103   4.990   9.108  0.6544 -1.4238  0.2777
  880MOL0     O21305   8.032   5.073   9.015 -0.8278  0.4740  0.1223
  880MOL0     C21306   7.991   5.008   8.892  1.0831  0.6220  0.1682
  880MOL0     C21307   8.083   4.950   8.799  0.3258 -1.2675  0.8162
  880MOL0     C21308   8.042   4.887   8.680  0.2775  0.8397  0.1225
  880MOL0     C21309   7.907   4.854   8.659 -1.4945  0.3654 -0.2199
  880MOL0     O21310   7.869   4.772   8.553  0.0905 -0.0486  0.1976
  880MOL0     C21311   7.784   4.833   8.452  0.1850 -0.0083  0.0244
  880MOL0     C21312   7.848   4.955   8.380  1.2087  0.5884 -1.8714
  880MOL0     C21313   7.996   4.947   8.332 -0.7237  0.3060 -0.2659
  880MOL0     C21314   8.018   5.026   8.197  1.0716  0.1013 -0.1764
  880MOL0     C21315   8.127   4.973   8.103  0.0496 -0.1979  0.1999
  880MOL0     C21316   8.121   4.822   8.062  0.4977 -0.5711 -0.2215
  880MOL0     C21317   8.219   4.804   7.942  1.0783  0.1327  1.3283
  880MOL0     C21318   8.173   4.697   7.837  0.1692 -0.2572  0.1119
  880MOL0     N21319   8.046   4.730   7.779  0.5126 -0.9795  0.1665
  880MOL0     C21320   8.004   4.857   7.745  0.2212 -0.2850 -0.5763
  880MOL0     C21321   7.879   4.840   7.690 -0.3167 -0.0382 -0.3657
  880MOL0     C21322   7.785   4.953   7.652  0.6055  0.2280  0.3428
  880MOL0     C21323   7.658   4.961   7.741  0.1142 -0.4075  0.5563
  880MOL0     C21324   7.680   4.981   7.890 -0.2491  0.8717 -0.5386
  880MOL0     C21325   7.649   4.857   7.971 -1.0746  0.2617  0.1722
  880MOL0     O21326   7.515   4.886   8.005 -0.2581  0.3991  0.1044
  880MOL0     C21327   7.487   4.938   8.138  0.2792 -0.1576 -0.0193
  880MOL0     C21328   7.516   5.073   8.173 -0.5525  0.2953  1.2074
  880MOL0     C21329   7.511   5.109   8.310 -0.2715 -0.0209 -0.0788
  880MOL0     C21330   7.546   5.246   8.350 -0.0566 -0.9977  0.7539
  880MOL0     C21331   7.456   5.022   8.400  0.4060  0.5855  0.0946
  880MOL0     C21332   7.441   5.046   8.545  0.2243 -0.7762  0.5492
  880MOL0     O21333   7.517   5.146   8.599  0.0142 -0.6464 -0.4305
  880MOL0     C21334   7.521   5.169   8.740 -0.3371  1.1300  1.0043
  880MOL0     C21335   7.619   5.264   8.778 -0.2016  0.1086 -0.8666
  880MOL0     C21336   7.639   5.299   8.916 -0.5938  0.5714  0.5947
  880MOL0     C21337   7.569   5.235   9.018  0.4775  0.4151 -0.2840
  880MOL0     O21338   7.589   5.266   9.150  0.3758  0.6569 -0.3443
  880MOL0     C21339   7.611   5.141   9.225  0.6383 -0.2091 -0.7904
  880MOL0     C21340   7.610   5.187   9.375  1.1088  1.2688  0.7979
  880MOL0     C21341   7.751   5.215   9.418  0.0896  0.6001  0.1001
  880MOL0     C21342   7.758   5.235   9.571  0.0570  0.3809  0.8224
  880MOL0     C21343   7.898   5.297   9.603  0.7695 -0.0616  0.0846
  880MOL0     C21344   7.919   5.306   9.752 -0.2899  0.3214  0.0153
  880MOL0     C21345   7.919   5.165   9.818  0.3195  0.9905 -0.3244
  880MOL0     C21346   7.799   5.124   9.908 -0.2827 -0.7812  0.3273
  880MOL0    Cl21347   7.833   4.991  10.007 -0.0861 -0.1460  0.1136
  880MOL0     C21348   7.471   5.141   8.968  0.3347  0.7295  0.0446
  880MOL0     C21349   7.442   5.106   8.837 -0.9068  0.4215 -0.0032
  880MOL0     O21350   7.383   4.958   8.612 -1.3773 -0.4746  0.1133
  880MOL0     C21351   7.414   4.890   8.356  0.4935 -0.7403  0.8019
  880MOL0     C21352   7.431   4.848   8.228  0.0684 -0.0609 -0.3412
  880MOL0     N21353   7.862   4.699   7.685 -0.0714 -1.0024  0.1326
  880MOL0     N21354   7.955   4.634   7.744  0.0536  0.2434  0.4320
  880MOL0     C21355   7.819   4.908   8.755 -0.9158  0.1890  0.4616
  880MOL0     C21356   7.853   4.984   8.860  0.4781  0.4875  0.7542
  880MOL0     C21357   8.165   5.053   9.226 -0.1228  0.1814  0.0597
  880MOL0     C21358   8.196   5.189   9.217  0.2261  0.8598  0.4497
  880MOL0     C21359   8.252   5.263   9.313  0.7164 -0.5091 -0.0775
  880MOL0     C21360   8.299   5.200   9.425 -0.2215  0.2267  0.5265
  880MOL0     O21361   8.345   5.279   9.524 -0.9078 -0.7126 -0.2947
  880MOL0     C21362   8.382   5.226   9.652 -0.6471 -0.1334  0.4189
  880MOL0     C21363   8.450   5.327   9.741  0.0788  0.4734 -0.8515
  880MOL0     C21364   8.541   5.247   9.842 -0.0501  0.6422  0.5543
  880MOL0     C21365   8.583   5.329   9.963 -0.0428  0.4791  0.1836
  880MOL0     C21366   8.473   5.389  10.037  0.8704  0.6057  0.1121
  880MOL0     C21367   8.392   5.449  10.105 -0.0539  0.5665  1.0400
  880MOL0     C21368   8.276   5.059   9.443 -0.0957  0.2583  0.5796
  880MOL0     C21369   8.207   4.983   9.347 -0.8743  0.9539 -0.1072
  880MOL0     C21370   8.177   4.839   9.367  1.0655 -0.2052 -0.7954
  880MOL0     H21371   8.190   4.972   8.802 -0.5099  4.2368  0.7907
  880MOL0     H21372   8.114   4.856   8.606 -0.0597  1.4907 -0.4976
  880MOL0     H21373   7.691   4.867   8.499 -0.2996  0.0038 -0.9242
  880MOL0     H21374   7.746   4.760   8.380  3.4432 -0.6383 -1.2458
  880MOL0     H21375   7.788   4.990   8.295  0.0100 -1.2678 -1.8382
  880MOL0     H21376   7.850   5.027   8.462  0.6428 -2.9640  1.5751
  880MOL0     H21377   8.053   4.996   8.412 -0.1830  0.8845 -0.9881
  880MOL0     H21378   8.033   4.846   8.311 -5.0146 -0.9017 -3.1643
  880MOL0     H21379   7.929   5.022   8.133 -2.2884  3.0418  3.7445
  880MOL0     H21380   8.039   5.132   8.209 -0.9383  0.6195 -0.7613
  880MOL0     H21381   8.224   4.976   8.153 -0.2671 -1.6899  0.9340
  880MOL0     H21382   8.134   5.032   8.010 -2.0273 -1.9788 -1.1718
  880MOL0     H21383   8.153   4.749   8.138 -0.2374 -3.5709 -2.6068
  880MOL0     H21384   8.027   4.779   8.027  0.7319 -3.8308  2.6028
  880MOL0     H21385   8.318   4.773   7.975  2.2744  0.4119 -1.6801
  880MOL0     H21386   8.238   4.896   7.887  0.4302  0.6130  1.8862
  880MOL0     H21387   8.254   4.691   7.764  0.4702 -0.0044  0.4202
  880MOL0     H21388   8.164   4.600   7.887 -2.7428 -0.7491 -1.1943
  880MOL0     H21389   8.053   4.952   7.761  0.8987 -0.3810 -1.9264
  880MOL0     H21390   7.739   4.928   7.555  2.1002  0.0782 -0.3606
  880MOL0     H21391   7.839   5.049   7.654 -2.0841  1.8471  2.6289
  880MOL0     H21392   7.614   5.056   7.710  2.8693  0.2575 -1.7082
  880MOL0     H21393   7.579   4.889   7.719  0.0376  0.0029 -0.5697
  880MOL0     H21394   7.788   4.993   7.906 -0.4563  1.3735  0.5662
  880MOL0     H21395   7.617   5.063   7.927  0.3582  1.4178 -0.6969
  880MOL0     H21396   7.648   4.762   7.917  0.1265 -0.4805  1.4007
  880MOL0     H21397   7.698   4.844   8.067 -0.0930  1.0875 -0.2010
  880MOL0     H21398   7.530   5.143   8.092  0.5584 -2.4127 -1.0804
  880MOL0     H21399   7.558   5.304   8.258 -0.7539 -3.0432 -0.7015
  880MOL0     H21400   7.644   5.248   8.398  1.9951  2.0061 -3.0057
  880MOL0     H21401   7.473   5.298   8.414  1.2306  3.3888 -0.9857
  880MOL0     H21402   7.684   5.316   8.708 -1.9101  0.9816 -1.9043
  880MOL0     H21403   7.726   5.360   8.937 -1.7416  1.6341  2.5709
  880MOL0     H21404   7.539   5.059   9.221  0.7191 -0.9061  4.3677
  880MOL0     H21405   7.711   5.106   9.199  0.7461 -0.7418  0.2705
  880MOL0     H21406   7.544   5.271   9.393 -0.4059  0.0710  1.0373
  880MOL0     H21407   7.564   5.112   9.441  2.0990 -0.8960 -0.8369
  880MOL0     H21408   7.791   5.298   9.359 -0.8383  1.2875  0.4215
  880MOL0     H21409   7.809   5.126   9.393 -0.6170  0.2991 -0.5223
  880MOL0     H21410   7.746   5.142   9.625 -1.1161 -1.1768 -1.9059
  880MOL0     H21411   7.675   5.301   9.599 -1.3718 -0.3169 -1.5077
  880MOL0     H21412   7.966   5.223   9.559 -3.4154 -2.8472 -2.3980
  880MOL0     H21413   7.902   5.393   9.551  1.8880  0.7783  1.6558
  880MOL0     H21414   7.848   5.376   9.798  0.3924  3.1309 -2.8771
  880MOL0     H21415   8.016   5.352   9.774 -0.1827 -1.7130  5.4854
  880MOL0     H21416   8.003   5.166   9.888  0.2596 -1.1701 -0.1371
  880MOL0     H21417   7.942   5.078   9.756  0.3674 -0.5218  1.7146
  880MOL0     H21418   7.710   5.107   9.847 -0.3112  0.7431 -0.0962
  880MOL0     H21419   7.776   5.207   9.975 -0.3906 -1.5260  1.2242
  880MOL0     H21420   7.397   5.109   9.042  3.0294 -1.7073  1.9051
  880MOL0     H21421   7.356   5.042   8.823 -2.9265  2.5880  1.8109
  880MOL0     H21422   7.372   4.817   8.425  0.8517 -1.1373  0.6027
  880MOL0     H21423   7.406   4.745   8.206 -2.3095  0.6666 -1.3242
  880MOL0     H21424   7.713   4.891   8.742 -1.0372  0.8776  0.5131
  880MOL0     H21425   7.779   5.025   8.928  1.1147  0.1259  1.6909
  880MOL0     H21426   8.173   5.242   9.126 -4.2818 -0.1775  0.7585
  880MOL0     H21427   8.272   5.369   9.297  0.1399 -0.4523 -0.4476
  880MOL0     H21428   8.301   5.191   9.716  1.8958  0.0526  4.0217
  880MOL0     H21429   8.455   5.146   9.635 -0.2346  0.2176  0.5222
  880MOL0     H21430   8.380   5.389   9.798  1.3546 -0.2748  1.6715
  880MOL0     H21431   8.516   5.394   9.686 -0.9662  0.6767 -1.8964
  880MOL0     H21432   8.479   5.162   9.872  0.0792  0.0099 -0.8656
  880MOL0     H21433   8.634   5.210   9.798  0.8736  3.7854 -0.4185
  880MOL0     H21434   8.642   5.412   9.924  2.1240  0.5462  3.2236
  880MOL0     H21435   8.648   5.276  10.033  0.6019  0.1860 -0.6262
  880MOL0     H21436   8.321   5.510  10.157 -0.2369 -0.5033  2.0899
  880MOL0     H21437   8.310   5.006   9.531  3.0982  1.9895  0.5066
  880MOL0     H21438   8.191   4.813   9.472  0.5017 -0.5219 -0.7960
  880MOL0     H21439   8.073   4.823   9.336  0.1372  0.2000  1.7979
  880MOL0     H21440   8.235   4.773   9.303 -1.8969 -2.5616 -1.2832
  881MOL0     O21441   6.930   3.464   1.582 -0.1206  0.7738 -0.1821
  881MOL0     C21442   6.936   3.425   1.700  1.0930  0.0120 -0.7113
  881MOL0     O21443   7.018   3.328   1.750 -0.2887 -0.2447  1.1609
  881MOL0     C21444   7.096   3.251   1.664 -1.4077 -0.5558  0.7884
  881MOL0     C21445   7.060   3.213   1.531  0.1137 -0.3858  0.3557
  881MOL0     C21446   7.134   3.106   1.466 -0.3186  0.5382  0.5109
  881MOL0     C21447   7.251   3.050   1.521  0.9441  0.1315  1.0730
  881MOL0     O21448   7.343   2.968   1.454  0.4614 -0.2538  0.5076
  881MOL0     C21449   7.366   3.014   1.317  0.0990  0.4240 -0.0204
  881MOL0     C21450   7.485   2.930   1.251  1.1945  0.8896 -0.8282
  881MOL0     C21451   7.469   2.779   1.267 -0.1145 -0.9308  0.4451
  881MOL0     C21452   7.546   2.713   1.147 -0.1048  0.1319  0.3759
  881MOL0     C21453   7.561   2.565   1.168  0.4346 -0.3969 -0.4985
  881MOL0     C21454   7.656   2.510   1.059  0.7017  0.2185  0.6434
  881MOL0     C21455   7.698   2.366   1.112 -0.6889 -0.7873 -0.4003
  881MOL0     C21456   7.815   2.322   1.027  0.2398 -0.0688 -0.3235
  881MOL0     N21457   7.764   2.252   0.911  0.0000 -0.1484 -0.5405
  881MOL0     C21458   7.777   2.300   0.783  0.4643  0.1385 -0.8815
  881MOL0     C21459   7.715   2.205   0.712 -1.0618 -0.0517 -0.1288
  881MOL0     C21460   7.696   2.212   0.566  0.7103  0.1384  0.0933
  881MOL0     C21461   7.571   2.294   0.535 -1.1900 -0.5906 -0.2829
  881MOL0     C21462   7.602   2.455   0.519  0.5974  1.1460  0.2519
  881MOL0     C21463   7.487   2.519   0.432  0.7709  0.1940  0.4812
  881MOL0     O21464   7.349   2.498   0.470  0.1619  0.7317 -0.3657
  881MOL0     C21465   7.314   2.573   0.568 -0.0228 -1.2502  0.3253
  881MOL0     C21466   7.238   2.686   0.531 -0.7005 -0.1523  0.0602
  881MOL0     C21467   7.186   2.776   0.629 -0.2126 -1.4337  0.0848
  881MOL0     C21468   7.087   2.879   0.577  0.3603  0.6852  0.3204
  881MOL0     C21469   7.226   2.762   0.762 -0.1407  0.1646  0.0236
  881MOL0     C21470   7.187   2.851   0.874 -0.2989  0.2024 -0.2920
  881MOL0     O21471   7.103   2.958   0.843 -0.6742  0.2488 -0.5960
  881MOL0     C21472   7.051   3.037   0.945  0.4742  0.5564 -0.3368
  881MOL0     C21473   6.908   3.053   0.970 -0.1771 -0.1279  0.6052
  881MOL0     C21474   6.850   3.147   1.064 -1.2522  1.2335  1.3182
  881MOL0     C21475   6.936   3.228   1.130  0.1055  0.4539 -0.3620
  881MOL0     O21476   6.905   3.310   1.222  0.0298  0.7765 -0.6307
  881MOL0     C21477   6.795   3.397   1.189  0.1954  0.8697 -0.7529
  881MOL0     C21478   6.793   3.526   1.260 -0.7458 -0.1536  0.1168
  881MOL0     C21479   6.857   3.636   1.174 -0.7888  0.1787 -0.0485
  881MOL0     C21480   6.859   3.782   1.240  1.0101  0.7230  0.2933
  881MOL0     C21481   6.925   3.887   1.150 -0.9910  0.2564  0.3701
  881MOL0     C21482   7.071   3.876   1.105  0.2459  0.6704 -0.5192
  881MOL0     C21483   7.161   3.884   1.232 -0.5205 -0.6653 -0.8583
  881MOL0     C21484   7.302   3.880   1.186 -0.0679  0.3996 -0.4401
  881MOL0    Cl21485   7.346   4.037   1.109  0.1289  0.7835 -0.2235
  881MOL0     C21486   7.070   3.197   1.122  1.3175 -0.2160 -0.8249
  881MOL0     C21487   7.128   3.109   1.031 -0.2062 -0.0244 -0.3496
  881MOL0     O21488   7.234   2.837   0.988  1.1423 -0.0875 -0.9216
  881MOL0     C21489   7.303   2.657   0.795 -0.8065  0.1227 -0.0876
  881MOL0     C21490   7.352   2.568   0.703 -0.1189  0.2333  1.0468
  881MOL0     N21491   7.666   2.106   0.796 -0.0715  0.5453 -0.4173
  881MOL0     N21492   7.690   2.134   0.915 -0.6661  0.1944 -0.8049
  881MOL0     C21493   7.289   3.090   1.650  0.2653  0.1881 -0.1347
  881MOL0     C21494   7.213   3.193   1.722  0.6320  0.1792 -0.2802
  881MOL0     C21495   6.840   3.497   1.789 -0.1851 -0.0999 -0.4205
  881MOL0     C21496   6.758   3.411   1.859 -0.0167  0.8970 -0.4959
  881MOL0     C21497   6.662   3.456   1.944  0.2023  0.3106 -0.2808
  881MOL0     C21498   6.644   3.594   1.954  0.0011 -1.2519  1.0128
  881MOL0     O21499   6.560   3.633   2.055 -0.3584 -0.3322 -0.4437
  881MOL0     C21500   6.462   3.732   2.016  0.3988 -0.5650  0.1608
  881MOL0     C21501   6.426   3.835   2.114 -0.2989  0.1860 -0.1640
  881MOL0     C21502   6.540   3.914   2.189 -0.1254 -0.9499  0.4601
  881MOL0     C21503   6.559   4.063   2.125  0.3782  0.2148  0.5693
  881MOL0     C21504   6.670   4.065   2.021 -0.3767 -1.0374 -0.9223
  881MOL0     C21505   6.742   4.076   1.925  0.7577 -0.0580 -0.2151
  881MOL0     C21506   6.732   3.691   1.890 -0.4567  0.8515 -0.0938
  881MOL0     C21507   6.828   3.642   1.804 -1.0717  0.8533  0.5824
  881MOL0     C21508   6.915   3.751   1.734 -0.3612 -0.2300  0.3717
  881MOL0     H21509   6.971   3.249   1.481 -0.0903  0.5626  1.3483
  881MOL0     H21510   7.103   3.062   1.372 -0.2153  1.6502 -0.0612
  881MOL0     H21511   7.395   3.120   1.313  4.5590 -0.6366 -0.4826
  881MOL0     H21512   7.283   3.005   1.245 -0.1191 -0.3290  0.3198
  881MOL0     H21513   7.479   2.954   1.144 -3.3210 -3.9323 -2.1151
  881MOL0     H21514   7.578   2.967   1.293 -0.2011  2.0185  1.4253
  881MOL0     H21515   7.497   2.748   1.368 -2.1566  3.5417  2.6650
  881MOL0     H21516   7.361   2.758   1.260 -0.4782 -0.6226  3.6871
  881MOL0     H21517   7.494   2.720   1.051  0.9461 -1.9744 -0.4194
  881MOL0     H21518   7.646   2.750   1.124 -0.0345  0.7095  1.5517
  881MOL0     H21519   7.460   2.525   1.152 -0.5947  2.2337 -1.0895
  881MOL0     H21520   7.596   2.536   1.267 -0.4346 -2.5812 -0.7738
  881MOL0     H21521   7.608   2.505   0.961  0.4761  0.0852  0.7582
  881MOL0     H21522   7.745   2.572   1.043  2.5470 -3.1955 -5.4576
  881MOL0     H21523   7.616   2.294   1.112  0.6116 -2.5088  3.2921
  881MOL0     H21524   7.736   2.362   1.214 -1.0160  0.6060 -0.1975
  881MOL0     H21525   7.883   2.407   1.014 -2.3766  2.8648  3.0420
  881MOL0     H21526   7.864   2.251   1.094  1.0061  1.1001  0.3772
  881MOL0     H21527   7.831   2.391   0.759  2.7820 -0.6406  0.9323
  881MOL0     H21528   7.693   2.110   0.526  0.2030 -0.2206  1.0131
  881MOL0     H21529   7.783   2.256   0.517  0.1068  0.4320 -0.7443
  881MOL0     H21530   7.520   2.256   0.446  1.1818  5.2416 -4.7431
  881MOL0     H21531   7.497   2.296   0.616 -2.1715  0.3629 -1.1781
  881MOL0     H21532   7.604   2.497   0.620 -0.0031  0.5668  0.5083
  881MOL0     H21533   7.703   2.460   0.477  0.6218 -0.5388  0.0449
  881MOL0     H21534   7.509   2.626   0.426 -2.3086  1.2149  3.6719
  881MOL0     H21535   7.495   2.486   0.328 -1.9830  1.3260 -0.1849
  881MOL0     H21536   7.229   2.687   0.423  1.1597  0.3153 -0.1246
  881MOL0     H21537   6.989   2.861   0.623 -0.2915  1.7636 -0.5899
  881MOL0     H21538   7.066   2.865   0.471  0.3503 -1.2328  0.5329
  881MOL0     H21539   7.116   2.983   0.593  0.8585  0.3871  1.4764
  881MOL0     H21540   6.838   2.984   0.922  2.9679 -2.1227 -1.5366
  881MOL0     H21541   6.744   3.150   1.090 -1.1617  3.0197  1.5959
  881MOL0     H21542   6.789   3.410   1.080  0.2583  0.6230 -0.7858
  881MOL0     H21543   6.699   3.344   1.197  1.7885 -2.2478 -0.8547
  881MOL0     H21544   6.691   3.560   1.277 -0.9642  0.3825 -1.9258
  881MOL0     H21545   6.856   3.500   1.345 -1.4413  0.1574  0.7369
  881MOL0     H21546   6.803   3.660   1.082 -1.3157 -2.9914 -0.6949
  881MOL0     H21547   6.962   3.612   1.153 -0.6512 -0.1754  1.0297
  881MOL0     H21548   6.910   3.779   1.337  0.3823  2.0880  0.6892
  881MOL0     H21549   6.759   3.821   1.258  1.3135  2.2364 -1.0568
  881MOL0     H21550   6.875   3.882   1.053 -1.4154  1.4646  0.5164
  881MOL0     H21551   6.902   3.986   1.190  0.5756  0.6847  0.2762
  881MOL0     H21552   7.100   3.961   1.042 -1.7030  0.7565 -1.3629
  881MOL0     H21553   7.082   3.781   1.053 -1.2625 -0.7291  1.5562
  881MOL0     H21554   7.143   3.792   1.289  0.7363 -0.9623 -0.8991
  881MOL0     H21555   7.146   3.971   1.297 -0.6698 -0.8714 -0.6160
  881MOL0     H21556   7.326   3.793   1.124 -2.4594  0.6714 -1.8562
  881MOL0     H21557   7.378   3.867   1.264 -0.5378 -0.9351 -0.1787
  881MOL0     H21558   7.120   3.255   1.198 -1.3388  2.8607 -1.1682
  881MOL0     H21559   7.235   3.092   1.034 -0.5802 -2.7819  0.1634
  881MOL0     H21560   7.327   2.637   0.899 -0.1192 -1.4626 -0.5170
  881MOL0     H21561   7.404   2.484   0.747  0.0929  1.0002  2.3081
  881MOL0     H21562   7.366   3.043   1.711 -1.2086  1.8922  3.3100
  881MOL0     H21563   7.233   3.218   1.826  0.4821 -0.4724 -0.0868
  881MOL0     H21564   6.768   3.308   1.826  0.1909  0.5997  0.4645
  881MOL0     H21565   6.604   3.395   2.012  4.1051 -1.2831  1.9509
  881MOL0     H21566   6.515   3.788   1.938  3.4224 -2.2697  0.8425
  881MOL0     H21567   6.369   3.691   1.977 -0.1473  2.0363 -1.4962
  881MOL0     H21568   6.367   3.779   2.187  0.0162  0.9929  0.7354
  881MOL0     H21569   6.351   3.898   2.066  0.0791 -0.2125 -1.3079
  881MOL0     H21570   6.509   3.912   2.294  0.0973  2.1396  0.6669
  881MOL0     H21571   6.631   3.855   2.180 -0.2627 -0.8161 -3.3599
  881MOL0     H21572   6.575   4.140   2.202  1.5389  0.7446 -0.1602
  881MOL0     H21573   6.463   4.096   2.084  0.9298 -0.8329 -1.7474
  881MOL0     H21574   6.818   4.096   1.852  3.6571  2.9247  3.2167
  881MOL0     H21575   6.719   3.797   1.912  0.9673  0.5132  2.8606
  881MOL0     H21576   6.996   3.709   1.673  0.3073 -2.0241  2.3973
  881MOL0     H21577   6.853   3.811   1.666  3.1088  1.8446 -1.2900
  881MOL0     H21578   6.964   3.818   1.806 -0.0025 -1.7554  1.5944
  882MOL0     O21579   5.602   2.623   9.936 -0.3683  1.0155  0.5317
  882MOL0     C21580   5.671   2.700   9.869  0.5746 -0.4188 -0.8322
  882MOL0     O21581   5.707   2.823   9.912 -0.1781 -0.1769 -0.1298
  882MOL0     C21582   5.650   2.876  10.029 -0.8985 -0.4103 -0.6548
  882MOL0     C21583   5.530   2.947  10.044  0.0893 -0.2157  1.0327
  882MOL0     C21584   5.493   3.006  10.165  0.3776  0.9059  1.2976
  882MOL0     C21585   5.574   3.009  10.275 -0.0372  0.7045  0.5893
  882MOL0     O21586   5.547   3.090  10.382  0.3150  0.5904 -0.1180
  882MOL0     C21587   5.478   3.028  10.494  0.6015 -0.6138  0.2987
  882MOL0     C21588   5.427   3.133  10.593 -0.1977  0.4948 -0.4371
  882MOL0     C21589   5.324   3.231  10.542 -0.4688  0.0053  0.3113
  882MOL0     C21590   5.317   3.358  10.614  0.5654 -0.1224  0.0564
  882MOL0     C21591   5.235   3.465  10.527  1.4060  0.0006  0.3336
  882MOL0     C21592   5.333   3.525  10.424  0.1039 -0.0172 -0.5111
  882MOL0     C21593   5.254   3.624  10.335 -0.9936  0.1641  0.3146
  882MOL0     C21594   5.213   3.562  10.205 -0.2258  0.3990 -0.9319
  882MOL0     N21595   5.316   3.529  10.098  0.6759  0.0576 -0.2421
  882MOL0     C21596   5.389   3.411  10.087 -0.4635 -0.0720  0.5883
  882MOL0     C21597   5.466   3.432   9.975  0.2866 -0.2759 -1.7996
  882MOL0     C21598   5.570   3.360   9.924 -0.7130 -0.3848 -0.4375
  882MOL0     C21599   5.702   3.439   9.920 -0.8298 -0.7153 -0.2393
  882MOL0     C21600   5.820   3.352   9.899  0.2566  0.6825  0.4350
  882MOL0     C21601   5.957   3.415   9.938 -0.7634  0.4347 -1.1062
  882MOL0     O21602   6.049   3.307   9.965  0.2881 -0.3814  0.1348
  882MOL0     C21603   6.129   3.301  10.082  0.8288 -0.5636 -0.6698
  882MOL0     C21604   6.165   3.414  10.148  0.3014 -0.2613 -0.2421
  882MOL0     C21605   6.254   3.401  10.258  0.0187 -0.2510 -0.3261
  882MOL0     C21606   6.315   3.514  10.331 -0.2961  0.6579  1.2005
  882MOL0     C21607   6.300   3.267  10.295  1.0408  0.2669  0.5094
  882MOL0     C21608   6.385   3.220  10.413 -0.5943 -0.2480 -0.1537
  882MOL0     O21609   6.445   3.099  10.419 -0.7530  0.2681 -0.1617
  882MOL0     C21610   6.509   3.060  10.540  2.1312  0.6885  0.9649
  882MOL0     C21611   6.575   3.140  10.629  0.3262 -0.1184  0.4587
  882MOL0     C21612   6.644   3.090  10.743  0.2738  0.1820  0.2922
  882MOL0     C21613   6.627   2.960  10.779 -0.1700  0.0546 -0.3511
  882MOL0     O21614   6.699   2.906  10.886  0.7061 -0.3230  0.0720
  882MOL0     C21615   6.694   2.767  10.915 -0.3025  0.5725  0.0108
  882MOL0     C21616   6.781   2.750  11.036  0.0478 -0.7021 -0.8946
  882MOL0     C21617   6.734   2.846  11.155 -0.1996 -0.4175 -0.5727
  882MOL0     C21618   6.598   2.792  11.197 -0.0398 -0.5076 -0.2881
  882MOL0     C21619   6.552   2.855  11.327 -0.2226  0.5929 -0.2398
  882MOL0     C21620   6.405   2.809  11.362  0.4154 -0.2496 -0.4044
  882MOL0     C21621   6.358   2.870  11.492 -0.1122 -0.8502  0.6280
  882MOL0     C21622   6.453   2.862  11.615  1.4880 -0.0577  0.4620
  882MOL0    Cl21623   6.552   3.018  11.608  0.4514 -0.1134  0.0602
  882MOL0     C21624   6.569   2.872  10.685 -0.1442 -0.5367  0.6991
  882MOL0     C21625   6.507   2.923  10.564  0.3720 -0.2303  0.0217
  882MOL0     O21626   6.380   3.306  10.501 -0.5557  0.2039 -0.0055
  882MOL0     C21627   6.272   3.166  10.201  0.2838  0.6891 -0.4557
  882MOL0     C21628   6.185   3.180  10.100  0.3335  0.0952  0.8799
  882MOL0     N21629   5.429   3.551   9.914 -0.2756 -0.3813  0.3855
  882MOL0     N21630   5.338   3.603   9.987  0.3470 -0.2368 -0.3538
  882MOL0     C21631   5.702   2.943  10.253 -0.1306  0.1386  0.3329
  882MOL0     C21632   5.732   2.868  10.144  0.8739  0.5811  0.9626
  882MOL0     C21633   5.690   2.668   9.728 -0.1183 -0.2146  0.8142
  882MOL0     C21634   5.666   2.529   9.672  0.0544 -1.0456 -0.4655
  882MOL0     C21635   5.686   2.492   9.539 -0.6957 -0.5777 -0.5590
  882MOL0     C21636   5.738   2.584   9.450  0.4410 -0.3996  0.0488
  882MOL0     O21637   5.743   2.563   9.315  0.0442 -0.7797  0.3353
  882MOL0     C21638   5.726   2.436   9.260 -0.5516  0.1205 -0.6342
  882MOL0     C21639   5.838   2.336   9.304  0.3633 -0.0553  0.0981
  882MOL0     C21640   5.976   2.393   9.293  1.0516  0.1305  0.0634
  882MOL0     C21641   6.084   2.318   9.375  0.7941  0.4588 -0.1059
  882MOL0     C21642   6.131   2.208   9.298 -0.6843  0.0463 -0.2693
  882MOL0     C21643   6.191   2.112   9.249 -0.7905 -0.2144 -0.5099
  882MOL0     C21644   5.765   2.716   9.498  1.1660  0.6938 -0.2353
  882MOL0     C21645   5.750   2.753   9.636  1.4986 -0.0143  0.3113
  882MOL0     C21646   5.816   2.886   9.657 -0.5371 -0.8183  0.0066
  882MOL0     H21647   5.477   2.966   9.952  1.2815  2.5288  0.7990
  882MOL0     H21648   5.408   3.072  10.179  1.3871  2.0195  2.4313
  882MOL0     H21649   5.547   2.968  10.553  0.1775  2.0535  3.8126
  882MOL0     H21650   5.400   2.957  10.463 -0.5263  0.1762  1.2560
  882MOL0     H21651   5.364   3.094  10.673 -3.7700  4.3622 -1.0009
  882MOL0     H21652   5.510   3.178  10.647  1.1245 -0.8152 -1.3088
  882MOL0     H21653   5.329   3.255  10.435 -1.3948 -1.3075 -0.0560
  882MOL0     H21654   5.230   3.176  10.551  0.9042 -3.1092 -2.1665
  882MOL0     H21655   5.269   3.338  10.711 -1.5694  1.1086 -0.6680
  882MOL0     H21656   5.418   3.393  10.635  2.1644 -3.7665 -0.8470
  882MOL0     H21657   5.187   3.532  10.599  2.2536  2.5806 -1.3538
  882MOL0     H21658   5.151   3.416  10.476  0.4790  1.7089  0.1467
  882MOL0     H21659   5.413   3.577  10.478 -2.0978  3.2336 -0.0822
  882MOL0     H21660   5.378   3.448  10.361 -0.2631 -1.1048  0.5133
  882MOL0     H21661   5.316   3.704  10.294 -2.2530  1.0865  0.1778
  882MOL0     H21662   5.171   3.679  10.380 -0.2700  3.5916 -2.1695
  882MOL0     H21663   5.152   3.475  10.232  2.8882 -2.2294 -1.6498
  882MOL0     H21664   5.155   3.638  10.152 -2.6893 -0.2113  0.7058
  882MOL0     H21665   5.384   3.318  10.142 -0.4004 -0.5031 -0.1283
  882MOL0     H21666   5.546   3.333   9.821 -0.8843  1.3320 -0.8823
  882MOL0     H21667   5.582   3.265   9.976 -0.9840  0.3291  0.9746
  882MOL0     H21668   5.709   3.519   9.846 -0.9086  2.5021  2.9014
  882MOL0     H21669   5.721   3.485  10.018  1.2467  0.8677 -1.3158
  882MOL0     H21670   5.801   3.258   9.950  0.0494  0.1711 -0.5701
  882MOL0     H21671   5.817   3.335   9.791  0.0338 -4.9590  1.0470
  882MOL0     H21672   5.988   3.476   9.853 -1.9543  2.4237 -0.1820
  882MOL0     H21673   5.951   3.487  10.020  2.3738 -0.8313  0.3872
  882MOL0     H21674   6.123   3.510  10.118 -1.0133 -0.3682  1.1723
  882MOL0     H21675   6.420   3.494  10.356  1.1472  6.3977  0.9815
  882MOL0     H21676   6.261   3.548  10.420  1.4188  1.1196  2.1213
  882MOL0     H21677   6.324   3.599  10.263 -0.0776 -2.9007 -3.7285
  882MOL0     H21678   6.579   3.245  10.602 -1.8350 -0.7920 -3.0678
  882MOL0     H21679   6.696   3.144  10.822  0.8496 -2.7452  2.0780
  882MOL0     H21680   6.593   2.725  10.927 -1.0517  2.1474 -0.3842
  882MOL0     H21681   6.742   2.699  10.845 -2.4661 -4.3214  2.7779
  882MOL0     H21682   6.791   2.643  11.060  0.7863  0.1041  3.2703
  882MOL0     H21683   6.879   2.788  11.007 -0.0949 -0.7953 -1.5048
  882MOL0     H21684   6.734   2.953  11.135 -1.2141 -0.5131 -1.1315
  882MOL0     H21685   6.813   2.832  11.230  0.3673  0.3687 -1.0176
  882MOL0     H21686   6.588   2.683  11.205  1.4824 -1.0055 -3.7332
  882MOL0     H21687   6.523   2.817  11.122  0.4032  0.4750 -0.4134
  882MOL0     H21688   6.614   2.821  11.410 -2.6835 -1.6769  0.8000
  882MOL0     H21689   6.562   2.964  11.334  1.6626  0.4327 -0.0682
  882MOL0     H21690   6.390   2.702  11.349  1.8635 -0.1881 -3.0668
  882MOL0     H21691   6.330   2.856  11.298 -1.8219  1.0544  2.8521
  882MOL0     H21692   6.266   2.826  11.531 -0.8620 -0.7962 -0.9791
  882MOL0     H21693   6.338   2.977  11.487 -0.3884 -0.7993  2.3223
  882MOL0     H21694   6.527   2.784  11.594  2.0192 -0.1931  2.6366
  882MOL0     H21695   6.395   2.846  11.706  1.1729 -0.1611  0.2468
  882MOL0     H21696   6.546   2.766  10.699  1.2016 -0.8313  0.8171
  882MOL0     H21697   6.435   2.865  10.507 -0.5928  0.3442  0.6298
  882MOL0     H21698   6.312   3.070  10.232 -0.9395  0.0415 -0.7887
  882MOL0     H21699   6.163   3.096  10.036 -0.7481  0.6868  0.4509
  882MOL0     H21700   5.768   2.945  10.340  0.2182  0.8729  0.0637
  882MOL0     H21701   5.825   2.813  10.153 -0.8951 -2.7004  0.8370
  882MOL0     H21702   5.629   2.454   9.742  3.1157 -2.4086 -0.1419
  882MOL0     H21703   5.650   2.393   9.512  1.1388 -1.6195  0.5794
  882MOL0     H21704   5.629   2.389   9.278  1.5832 -3.2588  4.0726
  882MOL0     H21705   5.742   2.447   9.153  3.7632 -0.6673 -0.2516
  882MOL0     H21706   5.831   2.254   9.232 -0.4790  0.7178 -0.7257
  882MOL0     H21707   5.819   2.287   9.399 -1.8493 -2.3369 -1.3889
  882MOL0     H21708   5.998   2.379   9.187  1.0787  1.9233 -0.1934
  882MOL0     H21709   5.971   2.496   9.330  3.5902 -1.0678  4.4139
  882MOL0     H21710   6.052   2.284   9.474 -0.3922 -0.0903 -0.6536
  882MOL0     H21711   6.165   2.389   9.396 -0.5680  1.8137  0.7928
  882MOL0     H21712   6.248   2.029   9.213 -0.7560  1.3959 -4.6946
  882MOL0     H21713   5.818   2.788   9.437  0.1505  0.9548 -0.8197
  882MOL0     H21714   5.893   2.913   9.584  0.5030 -2.8257  0.3001
  882MOL0     H21715   5.736   2.960   9.665  0.5049  0.2441  1.0558
  882MOL0     H21716   5.881   2.898   9.744  0.6271  1.0127 -1.0248
  883MOL0     O21717   8.470   7.124   3.682 -0.3655 -0.3276  0.3528
  883MOL0     C21718   8.353   7.109   3.620  0.1842 -0.6342  0.5522
  883MOL0     O21719   8.333   7.113   3.478  0.2226  0.1031 -0.4141
  883MOL0     C21720   8.441   7.092   3.389 -0.5183  0.2210 -0.2894
  883MOL0     C21721   8.414   7.121   3.259  0.1230 -0.7613  0.1307
  883MOL0     C21722   8.506   7.107   3.152 -0.2671  0.1790 -0.0919
  883MOL0     C21723   8.639   7.067   3.183  0.9349  0.5616  0.1631
  883MOL0     O21724   8.723   7.046   3.079 -0.4573 -0.4538 -0.4280
  883MOL0     C21725   8.739   7.147   2.980 -0.5596  0.2645 -0.2497
  883MOL0     C21726   8.871   7.121   2.900 -0.2997 -0.1568 -1.1356
  883MOL0     C21727   9.004   7.102   2.985 -0.2694  0.6783  0.3081
  883MOL0     C21728   9.139   7.067   2.915  0.9915  0.8367  0.0606
  883MOL0     C21729   9.218   6.933   2.951 -0.5555  0.1982  0.1025
  883MOL0     C21730   9.363   6.926   2.917 -1.0454 -0.2253 -1.5487
  883MOL0     C21731   9.392   6.937   2.763  0.4623  0.1216 -1.0423
  883MOL0     C21732   9.552   6.939   2.728  0.9767  1.1292 -0.3779
  883MOL0     N21733   9.614   7.075   2.698  0.0016 -0.5382  0.3330
  883MOL0     C21734   9.703   7.093   2.588  0.8415 -1.4174 -0.3045
  883MOL0     C21735   9.696   7.228   2.559  0.1033 -0.6999  0.6468
  883MOL0     C21736   9.796   7.296   2.458  0.4220 -0.1374  1.2945
  883MOL0     C21737   9.737   7.380   2.348 -0.5800  0.2018  0.2973
  883MOL0     C21738   9.863   7.430   2.264  0.1141 -0.4439  0.2570
  883MOL0     C21739   9.856   7.386   2.110  0.4551 -0.3988 -0.4318
  883MOL0     O21740   9.858   7.247   2.118 -0.0417 -0.1459 -0.1853
  883MOL0     C21741   9.866   7.182   1.997 -1.1311  0.4746 -0.3644
  883MOL0     C21742   9.897   7.046   1.997  0.2558 -0.0014  0.1765
  883MOL0     C21743   9.892   6.973   1.883 -0.1945  0.2694 -0.4546
  883MOL0     C21744   9.910   6.822   1.901  0.2315  0.4420 -0.4979
  883MOL0     C21745   9.846   7.018   1.757  0.2325 -0.2387  0.1731
  883MOL0     C21746   9.815   6.956   1.636 -0.1893 -0.0815  0.5946
  883MOL0     O21747   9.841   7.026   1.519 -1.0495  0.5166 -0.8946
  883MOL0     C21748   9.837   6.947   1.405  0.2208 -0.3173 -0.0875
  883MOL0     C21749   9.937   6.852   1.374 -0.5462 -0.2159  0.5096
  883MOL0     C21750   9.914   6.778   1.256 -0.5173  1.1215  0.1039
  883MOL0     C21751   9.804   6.782   1.171  0.5654  0.3609 -0.7554
  883MOL0     O21752   9.794   6.686   1.072  0.3842  0.5833 -0.0260
  883MOL0     C21753   9.660   6.646   1.045  0.3184  0.7044 -1.4128
  883MOL0     C21754   9.646   6.599   0.904 -0.1152  0.5171  0.0016
  883MOL0     C21755   9.750   6.489   0.870  0.8284  0.1883  0.4989
  883MOL0     C21756   9.703   6.373   0.782  0.1853  0.4315 -0.8102
  883MOL0     C21757   9.604   6.278   0.853 -0.9848 -0.3878 -0.2103
  883MOL0     C21758   9.651   6.199   0.974 -1.2454 -0.7149  0.5159
  883MOL0     C21759   9.545   6.098   1.001  0.9740 -0.0527  0.2265
  883MOL0     C21760   9.552   5.983   0.906 -0.3539  0.4459 -0.2153
  883MOL0    Cl21761   9.468   5.841   0.996  0.1391  0.0973  0.1743
  883MOL0     C21762   9.700   6.871   1.212 -0.0284 -0.2740 -0.3068
  883MOL0     C21763   9.715   6.956   1.331 -1.2539 -0.0409 -0.3763
  883MOL0     O21764   9.760   6.846   1.632  0.3239 -0.2928 -0.1007
  883MOL0     C21765   9.826   7.156   1.753 -0.8593 -0.7369 -0.0577
  883MOL0     C21766   9.839   7.233   1.871  0.0786  0.4553  0.0103
  883MOL0     N21767   9.602   7.295   2.633 -0.4058 -0.5310  0.7419
  883MOL0     N21768   9.562   7.200   2.721  0.4666 -0.7069  0.0071
  883MOL0     C21769   8.677   7.060   3.321  0.2632 -0.4620 -1.1407
  883MOL0     C21770   8.576   7.065   3.415  0.6035 -0.1780 -1.0735
  883MOL0     C21771   8.234   7.090   3.721 -0.1155 -0.4360  0.1156
  883MOL0     C21772   8.110   7.054   3.656  0.0292  0.0264  0.0297
  883MOL0     C21773   7.993   7.033   3.724  0.0902  0.4019 -0.2473
  883MOL0     C21774   7.982   7.040   3.860 -0.4291  0.4535 -0.3570
  883MOL0     O21775   7.869   7.005   3.925  0.1114 -0.1446 -0.6672
  883MOL0     C21776   7.821   6.872   3.903  0.0185  1.2915 -0.0088
  883MOL0     C21777   7.686   6.833   3.964  0.7273 -0.0436  0.1134
  883MOL0     C21778   7.660   6.683   3.949 -0.6375  0.4087 -0.1250
  883MOL0     C21779   7.526   6.639   3.994  0.6767 -0.4133 -0.3161
  883MOL0     C21780   7.493   6.500   3.989 -0.4353 -0.0557 -0.1350
  883MOL0     C21781   7.465   6.381   3.985  0.9240 -0.3992  0.0608
  883MOL0     C21782   8.099   7.093   3.925  0.1299 -0.0969  0.5214
  883MOL0     C21783   8.225   7.117   3.860 -0.3974  0.1661 -0.4962
  883MOL0     C21784   8.346   7.142   3.944 -0.7749  0.1276  0.3876
  883MOL0     H21785   8.316   7.152   3.222  2.5329  5.0518 -2.7166
  883MOL0     H21786   8.476   7.147   3.056 -2.5070  1.3705  1.0400
  883MOL0     H21787   8.735   7.243   3.033  1.0955  0.6548 -0.7780
  883MOL0     H21788   8.658   7.143   2.906  0.5456 -0.6360 -1.4516
  883MOL0     H21789   8.856   7.041   2.828 -0.0099  0.4404 -1.8726
  883MOL0     H21790   8.893   7.214   2.846 -4.6861  0.7189 -1.8028
  883MOL0     H21791   9.028   7.189   3.047 -0.3335  0.3390  0.8167
  883MOL0     H21792   8.987   7.016   3.050  0.1115  2.4609  2.9230
  883MOL0     H21793   9.119   7.064   2.807 -0.3148  2.4567  0.2057
  883MOL0     H21794   9.206   7.152   2.929  2.1154 -0.3520  2.3863
  883MOL0     H21795   9.170   6.850   2.898 -3.4867  1.5087  0.5477
  883MOL0     H21796   9.210   6.910   3.057  0.2390  1.9828  0.5943
  883MOL0     H21797   9.409   7.015   2.960  0.2667 -0.8962 -1.5106
  883MOL0     H21798   9.409   6.834   2.954 -0.0421 -0.0162 -2.2402
  883MOL0     H21799   9.355   7.035   2.729 -1.5184 -0.1441  0.1796
  883MOL0     H21800   9.343   6.847   2.724  1.6338 -0.7275 -0.5909
  883MOL0     H21801   9.607   6.901   2.815  0.0146  4.5379  1.9561
  883MOL0     H21802   9.562   6.885   2.634  0.7437  1.8379 -0.8142
  883MOL0     H21803   9.778   7.023   2.554  0.0780 -1.5741 -1.7488
  883MOL0     H21804   9.850   7.213   2.410  2.6072  1.6282  0.4908
  883MOL0     H21805   9.866   7.352   2.520  2.1215 -0.5072 -0.1964
  883MOL0     H21806   9.661   7.321   2.295 -0.2514 -0.4736  0.5669
  883MOL0     H21807   9.681   7.467   2.383  0.6406  1.6053 -1.0802
  883MOL0     H21808   9.874   7.539   2.265  0.6835 -0.4341 -2.2943
  883MOL0     H21809   9.957   7.402   2.314 -0.7721  0.9971  2.9091
  883MOL0     H21810   9.762   7.424   2.069  0.4802  2.0119  1.5072
  883MOL0     H21811   9.942   7.426   2.055  2.2920 -0.4927  2.1557
  883MOL0     H21812   9.921   7.005   2.095 -1.5498 -0.8899  0.2756
  883MOL0     H21813   9.965   6.811   1.994  0.2005  0.9168 -0.4189
  883MOL0     H21814   9.960   6.772   1.818  0.9784  0.5527 -0.1162
  883MOL0     H21815   9.806   6.786   1.905  0.4797 -0.9005 -3.5588
  883MOL0     H21816  10.031   6.848   1.428 -1.4163 -3.5660  2.0228
  883MOL0     H21817   9.999   6.716   1.229 -1.8108 -0.1389 -1.2778
  883MOL0     H21818   9.635   6.562   1.110  3.5500  0.7952  0.1098
  883MOL0     H21819   9.599   6.737   1.038  4.8910  4.0583 -2.2014
  883MOL0     H21820   9.547   6.560   0.881 -0.7031  1.5988  0.6441
  883MOL0     H21821   9.663   6.673   0.826  0.9211 -2.2495 -2.6146
  883MOL0     H21822   9.765   6.455   0.973 -2.5727  2.5077  1.9753
  883MOL0     H21823   9.848   6.526   0.840  1.1239 -0.6828  0.3751
  883MOL0     H21824   9.786   6.310   0.750  1.5052  0.6762  1.8952
  883MOL0     H21825   9.654   6.410   0.691 -3.5370  1.6421  1.4560
  883MOL0     H21826   9.526   6.345   0.892  0.9243  1.6430  0.3543
  883MOL0     H21827   9.557   6.213   0.779 -3.2647  1.2133 -0.2897
  883MOL0     H21828   9.675   6.269   1.056 -0.4601 -1.4664  0.9412
  883MOL0     H21829   9.736   6.138   0.944  0.1205  1.0585  0.6125
  883MOL0     H21830   9.446   6.145   0.994 -0.4771 -2.6163  1.8812
  883MOL0     H21831   9.544   6.059   1.104 -1.6372  1.3956  0.8246
  883MOL0     H21832   9.656   5.959   0.881 -0.7882 -3.4280  1.1402
  883MOL0     H21833   9.486   6.006   0.822 -3.0007  2.4453  2.2040
  883MOL0     H21834   9.604   6.886   1.164 -1.9179 -1.7676  2.7315
  883MOL0     H21835   9.641   7.028   1.367  1.0121  2.3053 -0.1282
  883MOL0     H21836   9.794   7.206   1.662 -1.7907 -0.5448  0.3686
  883MOL0     H21837   9.808   7.337   1.865  3.3084  1.6644  1.9001
  883MOL0     H21838   8.781   7.035   3.340  0.7901  2.5070  0.3973
  883MOL0     H21839   8.626   7.050   3.510  0.3777 -2.9593 -1.3237
  883MOL0     H21840   8.103   7.050   3.548  1.4940 -0.8602 -0.0540
  883MOL0     H21841   7.912   6.997   3.660  0.7588 -0.7857 -0.4546
  883MOL0     H21842   7.819   6.852   3.795  0.2146 -0.3168  0.2539
  883MOL0     H21843   7.895   6.806   3.950 -0.7789  1.1018  1.0082
  883MOL0     H21844   7.608   6.894   3.916 -2.3105 -2.0429  2.1505
  883MOL0     H21845   7.693   6.860   4.070 -2.3347 -2.4702  1.0677
  883MOL0     H21846   7.671   6.666   3.841  1.1411  4.2435 -0.7052
  883MOL0     H21847   7.744   6.636   4.001  1.0202  0.0675 -2.9111
  883MOL0     H21848   7.455   6.696   3.934  0.9608 -1.4350 -1.6816
  883MOL0     H21849   7.512   6.669   4.098 -0.2030 -3.4248  0.5415
  883MOL0     H21850   7.436   6.278   3.992  2.0998 -0.8209 -0.8997
  883MOL0     H21851   8.093   7.117   4.031  0.6650  1.5649  0.1996
  883MOL0     H21852   8.424   7.199   3.892 -1.7695  0.8237 -0.3839
  883MOL0     H21853   8.333   7.197   4.038  0.1834  1.3903 -0.1812
  883MOL0     H21854   8.397   7.046   3.953  2.7933  2.0184  3.2243
  884MOL0     O21855   7.642   7.404   1.302  0.0278  0.7451  0.8163
  884MOL0     C21856   7.646   7.284   1.316 -0.5356  0.3293 -0.6586
  884MOL0     O21857   7.605   7.195   1.226  0.6156  0.6617 -0.0159
  884MOL0     C21858   7.573   7.239   1.096 -0.9288  0.7174 -0.4302
  884MOL0     C21859   7.650   7.330   1.024 -0.3688  0.0791 -0.4130
  884MOL0     C21860   7.591   7.386   0.905  0.3284  0.0152 -0.6602
  884MOL0     C21861   7.468   7.344   0.857 -0.5935 -0.5981 -0.9459
  884MOL0     O21862   7.418   7.407   0.743  0.1924 -1.1289 -0.7003
  884MOL0     C21863   7.314   7.337   0.668  0.2470 -0.0861 -0.4983
  884MOL0     C21864   7.291   7.375   0.522 -0.6545 -0.0963 -0.3331
  884MOL0     C21865   7.283   7.528   0.503 -0.7129  0.4563 -0.1774
  884MOL0     C21866   7.270   7.579   0.351 -0.5873  1.0155 -1.2700
  884MOL0     C21867   7.274   7.729   0.349 -0.4089 -0.6460 -0.0316
  884MOL0     C21868   7.251   7.782   0.201  0.3800  0.1199  0.3668
  884MOL0     C21869   7.349   7.728   0.104 -0.2699 -0.3260 -1.1417
  884MOL0     C21870   7.330   7.780  -0.042 -0.6410 -0.4645  0.1865
  884MOL0     N21871   7.405   7.688  -0.131  0.7511 -0.9057  0.9677
  884MOL0     C21872   7.349   7.614  -0.238 -0.3003  0.1991  1.5207
  884MOL0     C21873   7.448   7.517  -0.258  0.8257 -0.6109 -1.0766
  884MOL0     C21874   7.440   7.409  -0.368  1.1767 -0.6121  0.4077
  884MOL0     C21875   7.433   7.468  -0.516  0.3570 -0.1827  0.3424
  884MOL0     C21876   7.569   7.495  -0.589  0.4552  0.3474 -0.4073
  884MOL0     C21877   7.660   7.594  -0.509  0.1283  0.2474 -0.1590
  884MOL0     O21878   7.585   7.710  -0.496 -0.1763 -0.5145 -0.0067
  884MOL0     C21879   7.637   7.814  -0.431 -0.8905  0.4423  0.3571
  884MOL0     C21880   7.568   7.933  -0.438 -0.3740 -0.8153  0.4760
  884MOL0     C21881   7.607   8.046  -0.359  0.2795 -0.4239 -0.1100
  884MOL0     C21882   7.530   8.167  -0.385  0.1479 -0.6453  1.0403
  884MOL0     C21883   7.727   8.039  -0.285 -1.5143 -0.5822  0.4205
  884MOL0     C21884   7.788   8.151  -0.209  0.2014  0.2122 -0.2222
  884MOL0     O21885   7.703   8.229  -0.142 -0.6004 -0.3101  0.2646
  884MOL0     C21886   7.745   8.349  -0.087 -0.2483 -0.5856 -0.9170
  884MOL0     C21887   7.726   8.375   0.052 -0.0170 -0.6788 -0.4797
  884MOL0     C21888   7.757   8.502   0.107 -0.1362  0.0254  0.1837
  884MOL0     C21889   7.818   8.607   0.042  0.3974 -0.3765  1.0745
  884MOL0     O21890   7.843   8.735   0.085 -0.2339  0.0193 -0.7602
  884MOL0     C21891   7.783   8.768   0.212  0.3228  1.0315 -1.1057
  884MOL0     C21892   7.781   8.917   0.232  1.0520  0.9460 -0.1972
  884MOL0     C21893   7.914   8.999   0.216 -0.5342  0.0051  0.3577
  884MOL0     C21894   7.905   9.118   0.304  0.9450  1.4135 -0.8426
  884MOL0     C21895   8.032   9.197   0.319 -0.4780 -0.2278  0.0186
  884MOL0     C21896   8.008   9.327   0.401  1.2664 -0.0655 -0.1013
  884MOL0     C21897   8.148   9.392   0.421 -0.4197  0.6562  0.0366
  884MOL0     C21898   8.158   9.470   0.555 -1.0350 -0.1839 -0.1248
  884MOL0    Cl21899   8.323   9.543   0.579 -0.6011  0.7512  0.6371
  884MOL0     C21900   7.843   8.576  -0.092 -0.6329  0.5349 -0.1674
  884MOL0     C21901   7.813   8.457  -0.154  0.7704  0.5817  0.2543
  884MOL0     O21902   7.910   8.166  -0.210  0.0219  0.1974 -0.5344
  884MOL0     C21903   7.801   7.917  -0.286  0.5615 -0.1357  0.1398
  884MOL0     C21904   7.754   7.802  -0.353  0.2682  0.4949  0.3440
  884MOL0     N21905   7.550   7.530  -0.169 -0.0709  1.1987 -0.3794
  884MOL0     N21906   7.523   7.633  -0.098 -0.6821  0.2927  0.8582
  884MOL0     C21907   7.390   7.262   0.937 -0.8748  0.8070 -0.5354
  884MOL0     C21908   7.449   7.202   1.048  1.2100 -1.0900 -0.1694
  884MOL0     C21909   7.683   7.221   1.451  0.3976  0.5921 -0.0952
  884MOL0     C21910   7.761   7.105   1.441 -0.4363 -0.2565  0.3631
  884MOL0     C21911   7.785   7.024   1.547  0.0709 -0.7594 -1.0830
  884MOL0     C21912   7.741   7.064   1.679 -0.1395 -0.5030 -0.0009
  884MOL0     O21913   7.762   6.988   1.786  0.1218  0.4067 -0.0799
  884MOL0     C21914   7.653   6.903   1.816 -0.0945 -0.2025 -1.4869
  884MOL0     C21915   7.722   6.802   1.913  0.0774 -0.7624 -0.1435
  884MOL0     C21916   7.617   6.698   1.973 -0.5196 -0.2576  0.0380
  884MOL0     C21917   7.537   6.604   1.879  0.6375 -0.1799 -0.4793
  884MOL0     C21918   7.432   6.533   1.963  0.8679 -0.0866  0.4115
  884MOL0     C21919   7.372   6.470   2.048  0.3917 -0.2728 -0.8763
  884MOL0     C21920   7.668   7.183   1.690 -0.2864  0.0439  0.2767
  884MOL0     C21921   7.631   7.261   1.575 -1.0132 -0.9308 -0.5039
  884MOL0     C21922   7.538   7.366   1.600  0.1937 -0.2765  0.5749
  884MOL0     H21923   7.740   7.365   1.075 -0.6793 -0.1266  0.2824
  884MOL0     H21924   7.631   7.471   0.850  2.8592 -1.1749 -0.7920
  884MOL0     H21925   7.216   7.353   0.713 -0.7001 -0.4439 -2.3298
  884MOL0     H21926   7.338   7.231   0.660  1.2780 -0.0054  1.0969
  884MOL0     H21927   7.374   7.338   0.461  1.9040  6.3131 -1.5305
  884MOL0     H21928   7.192   7.352   0.482 -0.1027  1.3998 -2.7138
  884MOL0     H21929   7.209   7.566   0.573 -2.9008 -2.7723 -0.5280
  884MOL0     H21930   7.381   7.568   0.530 -0.5624  0.1685 -0.2945
  884MOL0     H21931   7.355   7.535   0.297 -0.4471  0.3119 -0.4913
  884MOL0     H21932   7.181   7.549   0.295  0.3029  1.0983 -2.7993
  884MOL0     H21933   7.374   7.756   0.384 -0.6516 -0.3385  0.4322
  884MOL0     H21934   7.202   7.777   0.416 -0.3254  1.0231 -1.0704
  884MOL0     H21935   7.149   7.753   0.174  0.5916 -0.8438  0.5747
  884MOL0     H21936   7.270   7.890   0.200 -0.6334  0.3225  1.0511
  884MOL0     H21937   7.338   7.619   0.111  2.9749 -0.6760  0.4323
  884MOL0     H21938   7.451   7.753   0.134 -0.2932 -1.2075 -0.2662
  884MOL0     H21939   7.223   7.777  -0.064 -1.0519  1.1446  1.7316
  884MOL0     H21940   7.384   7.875  -0.041 -1.0920 -0.1934  1.4825
  884MOL0     H21941   7.263   7.632  -0.302  1.5305 -1.0525 -1.5034
  884MOL0     H21942   7.356   7.339  -0.361  1.1396 -0.3643  3.3732
  884MOL0     H21943   7.527   7.342  -0.370  2.7785  1.3325  1.7629
  884MOL0     H21944   7.372   7.402  -0.579  0.9225  0.5004 -0.9606
  884MOL0     H21945   7.378   7.562  -0.513  0.3367 -0.2268  1.4562
  884MOL0     H21946   7.635   7.409  -0.600  0.9221  0.5109  1.0275
  884MOL0     H21947   7.539   7.527  -0.690  1.9256 -1.9012 -1.6416
  884MOL0     H21948   7.672   7.555  -0.407 -2.4335 -0.7955 -0.1686
  884MOL0     H21949   7.756   7.616  -0.555  2.0747 -0.0175  3.4428
  884MOL0     H21950   7.485   7.951  -0.506  0.2643  1.3856  0.2247
  884MOL0     H21951   7.583   8.258  -0.355 -0.8891  0.1433  0.4959
  884MOL0     H21952   7.444   8.152  -0.319 -0.5820  1.4902  0.6393
  884MOL0     H21953   7.482   8.172  -0.483 -1.8842  1.0348  2.0388
  884MOL0     H21954   7.672   8.305   0.114 -3.4260  2.5755  0.5776
  884MOL0     H21955   7.723   8.501   0.211  2.2926 -1.6023  1.0360
  884MOL0     H21956   7.684   8.723   0.211  1.6656 -2.7415  2.6241
  884MOL0     H21957   7.831   8.727   0.302 -0.0390  3.7981  0.4818
  884MOL0     H21958   7.707   8.956   0.162 -0.8269 -1.3990  0.3673
  884MOL0     H21959   7.735   8.939   0.329  2.1864  2.1589  0.0844
  884MOL0     H21960   7.935   9.025   0.112 -0.2584  1.8634  0.8325
  884MOL0     H21961   8.005   8.943   0.240  1.4548  3.0357  0.5067
  884MOL0     H21962   7.889   9.073   0.403  0.3588 -1.6803 -2.2335
  884MOL0     H21963   7.818   9.182   0.286 -0.0342 -0.0504 -1.4487
  884MOL0     H21964   8.102   9.128   0.368  0.8259  2.6872  2.6331
  884MOL0     H21965   8.074   9.227   0.223  0.5624 -4.3088 -0.9873
  884MOL0     H21966   7.953   9.309   0.494  1.2284  1.0356  0.1033
  884MOL0     H21967   7.948   9.389   0.335  1.3430  0.0584 -0.0555
  884MOL0     H21968   8.166   9.456   0.335 -2.7388  0.8198 -0.3760
  884MOL0     H21969   8.238   9.329   0.419  0.7746  2.0720  2.8866
  884MOL0     H21970   8.155   9.402   0.640  2.7101 -0.2435  0.1597
  884MOL0     H21971   8.087   9.553   0.549  0.9672  1.6791  0.5416
  884MOL0     H21972   7.911   8.639  -0.149  0.0153 -0.5435 -0.6278
  884MOL0     H21973   7.839   8.442  -0.258 -0.7994  1.2809 -0.2585
  884MOL0     H21974   7.896   7.906  -0.234  0.5690  1.9142  0.6654
  884MOL0     H21975   7.813   7.711  -0.358 -0.9222 -0.2990 -4.2401
  884MOL0     H21976   7.294   7.221   0.908 -1.0135 -0.3167  1.3518
  884MOL0     H21977   7.385   7.134   1.104  1.6393  0.8979  2.9446
  884MOL0     H21978   7.813   7.084   1.348  0.5464 -1.3714  1.1407
  884MOL0     H21979   7.845   6.935   1.531  1.6403  0.5664 -3.0252
  884MOL0     H21980   7.582   6.970   1.865  0.4467 -0.3484 -0.4782
  884MOL0     H21981   7.601   6.849   1.736 -3.3292 -1.6908  1.3667
  884MOL0     H21982   7.767   6.864   1.991 -0.9369  0.7859 -0.7436
  884MOL0     H21983   7.804   6.744   1.867  3.5193  1.7273  2.3107
  884MOL0     H21984   7.665   6.648   2.058  4.1068  1.8758 -1.0209
  884MOL0     H21985   7.545   6.753   2.035  0.7339 -0.3011  1.5882
  884MOL0     H21986   7.602   6.538   1.821  1.6996  0.1129  0.3267
  884MOL0     H21987   7.477   6.662   1.809  0.2423 -0.6952 -0.5714
  884MOL0     H21988   7.334   6.423   2.137  1.4861 -0.8399 -0.6864
  884MOL0     H21989   7.627   7.219   1.783 -2.9648  0.2663 -0.8897
  884MOL0     H21990   7.499   7.399   1.503  1.8866 -1.9924 -0.7565
  884MOL0     H21991   7.451   7.336   1.660  1.0388  0.5719  2.2729
  884MOL0     H21992   7.589   7.446   1.653 -0.4342 -0.4342  1.4370
  885MOL0     O21993   3.065   0.235   0.993 -0.8426  0.1831 -0.3204
  885MOL0     C21994   3.150   0.273   0.915  0.7594 -0.4821  0.2152
  885MOL0     O21995   3.141   0.367   0.816 -1.0309  0.3694 -0.2211
  885MOL0     C21996   3.051   0.469   0.850  0.9311  0.7807  0.0667
  885MOL0     C21997   2.914   0.454   0.828  1.0835  0.2618 -1.1097
  885MOL0     C21998   2.831   0.563   0.863 -0.4655 -0.4200  0.6931
  885MOL0     C21999   2.886   0.693   0.890  0.0489  0.3256 -0.6544
  885MOL0     O22000   2.793   0.795   0.894 -0.0420 -0.6976 -0.7972
  885MOL0     C22001   2.830   0.919   0.828  0.0714 -0.1258 -0.2900
  885MOL0     C22002   2.863   1.024   0.932  0.0368  0.0183  0.1103
  885MOL0     C22003   2.865   1.169   0.879 -0.8182  0.8102 -1.2889
  885MOL0     C22004   2.906   1.263   0.991  0.0278 -1.1152 -1.0754
  885MOL0     C22005   2.957   1.400   0.928 -0.1506 -0.8364 -0.4066
  885MOL0     C22006   2.874   1.484   0.844  0.2351  1.0762 -0.0314
  885MOL0     C22007   2.952   1.600   0.799 -0.0675 -1.0733 -0.1066
  885MOL0     C22008   2.870   1.698   0.719  0.7210 -0.2720  0.7021
  885MOL0     N22009   2.931   1.814   0.669 -0.1952 -0.0291  0.4168
  885MOL0     C22010   3.020   1.812   0.561  0.2253 -0.4924  0.3336
  885MOL0     C22011   3.062   1.935   0.551 -0.5454  0.8337  0.2206
  885MOL0     C22012   3.170   1.969   0.454 -0.6519 -0.2869  0.8566
  885MOL0     C22013   3.125   2.099   0.375  0.2836 -0.3332  0.5945
  885MOL0     C22014   3.190   2.107   0.235  1.4518  0.3224  0.3706
  885MOL0     C22015   3.348   2.115   0.260  0.8758  0.2168  0.6882
  885MOL0     O22016   3.428   2.122   0.144 -0.6212  0.1775  0.6751
  885MOL0     C22017   3.467   2.250   0.107  0.0624  0.7140  0.4373
  885MOL0     C22018   3.449   2.283  -0.029  1.4639 -0.1113 -0.5662
  885MOL0     C22019   3.494   2.405  -0.074 -0.6717 -0.3508 -0.6516
  885MOL0     C22020   3.479   2.423  -0.218  0.6814  0.7797  1.3442
  885MOL0     C22021   3.564   2.491   0.006  0.1507  0.0778 -0.8006
  885MOL0     C22022   3.604   2.626  -0.040 -0.1504  1.4384 -0.0748
  885MOL0     O22023   3.639   2.647  -0.177 -0.5224  0.3384  0.0760
  885MOL0     C22024   3.656   2.776  -0.218  0.2132  0.6708 -0.3766
  885MOL0     C22025   3.750   2.860  -0.164 -0.4347 -0.0968  0.2199
  885MOL0     C22026   3.769   2.992  -0.197  0.3371 -0.8034  0.0037
  885MOL0     C22027   3.696   3.042  -0.310  1.0850 -0.1089 -0.2385
  885MOL0     O22028   3.702   3.178  -0.327 -0.2893  0.2765  0.1769
  885MOL0     C22029   3.582   3.249  -0.334  0.0131 -1.2150  0.1982
  885MOL0     C22030   3.530   3.311  -0.197 -0.0137  0.1229  0.2723
  885MOL0     C22031   3.646   3.398  -0.153 -0.6200  0.0040 -0.0352
  885MOL0     C22032   3.626   3.489  -0.026  0.6644 -0.6613  1.0969
  885MOL0     C22033   3.758   3.544   0.008 -0.2290 -0.1451  0.0928
  885MOL0     C22034   3.738   3.663   0.103  0.0594  0.4912 -0.4888
  885MOL0     C22035   3.870   3.733   0.133  0.4474  0.5810 -0.1416
  885MOL0     C22036   3.852   3.822   0.261 -0.7123  0.8980  0.4844
  885MOL0    Cl22037   3.729   3.950   0.222  0.1487  0.4933 -0.2722
  885MOL0     C22038   3.615   2.953  -0.377  0.9158  0.1267 -0.0195
  885MOL0     C22039   3.585   2.830  -0.326  0.3489  0.7255 -1.1917
  885MOL0     O22040   3.585   2.720   0.036 -0.3292  0.1587 -0.2318
  885MOL0     C22041   3.579   2.461   0.150  0.2546  0.4631  0.6457
  885MOL0     C22042   3.540   2.335   0.197  1.5551 -0.6818  0.8380
  885MOL0     N22043   3.010   2.009   0.651 -0.4647  0.1180 -0.0528
  885MOL0     N22044   2.936   1.938   0.724 -0.1709  0.3636  0.2279
  885MOL0     C22045   3.017   0.708   0.895 -0.0168 -0.0417  0.3216
  885MOL0     C22046   3.105   0.603   0.886 -0.4515 -0.0700  0.5691
  885MOL0     C22047   3.283   0.212   0.930  0.1294 -0.8751  0.7394
  885MOL0     C22048   3.288   0.079   0.970 -0.6284 -1.3113 -0.6639
  885MOL0     C22049   3.417   0.011   0.983 -0.2194 -0.2872 -0.2313
  885MOL0     C22050   3.534   0.087   0.969  0.3342  0.2947  0.4556
  885MOL0     O22051   3.649   0.013   0.998 -0.2860  0.5752  0.1958
  885MOL0     C22052   3.769   0.086   0.972 -1.0532  1.0623  0.4180
  885MOL0     C22053   3.896  -0.005   0.991  0.6889  0.1420  0.3934
  885MOL0     C22054   3.894  -0.117   0.887  0.3827  0.3689  0.4630
  885MOL0     C22055   4.019  -0.203   0.895 -0.2203 -0.1794 -0.4806
  885MOL0     C22056   4.040  -0.278   1.016  1.3835  0.8856  0.8326
  885MOL0     C22057   4.065  -0.341   1.117  0.9710 -0.8830 -0.2188
  885MOL0     C22058   3.520   0.217   0.938 -0.0622  0.1315 -0.1882
  885MOL0     C22059   3.407   0.284   0.921 -0.4525 -0.4127  0.1224
  885MOL0     C22060   3.418   0.432   0.896  0.2332 -1.1113 -0.1230
  885MOL0     H22061   2.869   0.367   0.781 -1.7665  0.2535  1.3513
  885MOL0     H22062   2.725   0.558   0.840 -0.3127  1.9979 -0.9045
  885MOL0     H22063   2.743   0.934   0.763 -0.9210 -3.1181  0.1582
  885MOL0     H22064   2.920   0.904   0.768 -0.3645 -1.0580 -0.7247
  885MOL0     H22065   2.781   1.022   1.005 -0.1310 -1.7599 -0.0851
  885MOL0     H22066   2.960   1.007   0.978  0.6404  1.2606 -0.6327
  885MOL0     H22067   2.948   1.161   0.808  0.6112  2.1499  0.1452
  885MOL0     H22068   2.769   1.206   0.843 -1.2777  2.5580  1.4348
  885MOL0     H22069   2.810   1.286   1.039  0.2538  0.0772 -1.1476
  885MOL0     H22070   2.976   1.214   1.059 -0.7413 -0.7160  0.0289
  885MOL0     H22071   3.052   1.382   0.877 -0.6753  0.3861 -1.9123
  885MOL0     H22072   2.984   1.476   1.002 -2.5290  0.8683 -1.1776
  885MOL0     H22073   2.834   1.426   0.760  1.2230 -2.2448  1.6416
  885MOL0     H22074   2.791   1.519   0.906 -2.2417 -0.2011 -2.3920
  885MOL0     H22075   3.034   1.562   0.737  0.0133 -1.0391 -0.0194
  885MOL0     H22076   2.996   1.652   0.884 -1.4261 -2.9707  1.8869
  885MOL0     H22077   2.840   1.636   0.634  3.2777 -3.4365  1.8821
  885MOL0     H22078   2.780   1.725   0.775 -0.6251 -1.8895 -0.5910
  885MOL0     H22079   3.035   1.726   0.496 -1.1992  0.2463 -1.0344
  885MOL0     H22080   3.172   1.889   0.379  2.0350  0.6463 -0.1734
  885MOL0     H22081   3.270   1.974   0.499 -0.0951 -3.1390  0.1236
  885MOL0     H22082   3.018   2.086   0.359  0.5531 -0.4525 -1.4916
  885MOL0     H22083   3.148   2.188   0.434  0.4729 -0.4667  0.7237
  885MOL0     H22084   3.168   2.016   0.179  1.7696  0.0779  0.6377
  885MOL0     H22085   3.159   2.197   0.180 -1.3991 -1.6417 -1.4982
  885MOL0     H22086   3.373   2.195   0.330  1.9514  0.7088 -0.2177
  885MOL0     H22087   3.376   2.024   0.314  0.5410 -0.0437  0.4188
  885MOL0     H22088   3.390   2.202  -0.070 -1.1260 -1.4215  4.7819
  885MOL0     H22089   3.397   2.361  -0.256  0.5519  3.1035 -2.7119
  885MOL0     H22090   3.565   2.396  -0.281  0.1108 -0.1393  0.9278
  885MOL0     H22091   3.444   2.524  -0.239  1.2526  1.2759  2.7186
  885MOL0     H22092   3.796   2.813  -0.078 -0.6586  0.7419  0.8085
  885MOL0     H22093   3.818   3.068  -0.136 -1.1436  0.9959 -0.9269
  885MOL0     H22094   3.608   3.331  -0.402  0.0793 -0.2264  1.3814
  885MOL0     H22095   3.502   3.186  -0.374 -2.9076  1.9878  0.5237
  885MOL0     H22096   3.439   3.366  -0.220 -0.2803 -1.4872 -3.1819
  885MOL0     H22097   3.504   3.225  -0.135 -5.3657 -1.3427 -3.3518
  885MOL0     H22098   3.671   3.458  -0.241 -1.9305 -1.7931 -1.7282
  885MOL0     H22099   3.735   3.337  -0.138 -0.4111 -0.4196 -2.5953
  885MOL0     H22100   3.585   3.436   0.060  0.0931  1.0898  1.9550
  885MOL0     H22101   3.555   3.569  -0.048  0.8813 -0.5263  0.8724
  885MOL0     H22102   3.836   3.483   0.056  0.8363  0.0236 -1.3526
  885MOL0     H22103   3.820   3.573  -0.077  1.3239  1.9786  1.8543
  885MOL0     H22104   3.701   3.627   0.199  1.0509  1.5398  0.3267
  885MOL0     H22105   3.681   3.743   0.055  1.1085  2.4213  1.2587
  885MOL0     H22106   3.896   3.791   0.044 -0.4811  0.1564 -0.7053
  885MOL0     H22107   3.942   3.655   0.160 -1.6709 -1.0712  1.0798
  885MOL0     H22108   3.950   3.863   0.289 -0.4187 -0.4212  1.4831
  885MOL0     H22109   3.817   3.768   0.349 -2.9963  1.9429  0.2887
  885MOL0     H22110   3.573   2.973  -0.476  0.8938 -3.1866 -0.7861
  885MOL0     H22111   3.512   2.763  -0.371  1.4101 -1.1586 -0.2532
  885MOL0     H22112   3.627   2.531   0.217 -2.4146  1.2623  1.8302
  885MOL0     H22113   3.551   2.299   0.299  2.1988 -1.0977  0.6246
  885MOL0     H22114   3.067   0.801   0.923 -0.3017  0.4212 -0.6557
  885MOL0     H22115   3.212   0.623   0.886  0.0986 -2.5897  0.1207
  885MOL0     H22116   3.192   0.033   0.990 -1.4797  0.4355 -0.5344
  885MOL0     H22117   3.423  -0.096   0.998 -1.2447 -0.4851 -1.1117
  885MOL0     H22118   3.760   0.126   0.871 -0.8093 -1.6528 -0.7450
  885MOL0     H22119   3.782   0.168   1.043  0.5835 -1.7065  3.6114
  885MOL0     H22120   3.907  -0.037   1.095  0.5703 -0.2084  0.2986
  885MOL0     H22121   3.987   0.055   0.984  1.3801 -1.0982 -2.3337
  885MOL0     H22122   3.807  -0.183   0.884 -1.0836  1.8498  3.8650
  885MOL0     H22123   3.898  -0.061   0.793 -4.9121 -0.3458 -0.5096
  885MOL0     H22124   4.111  -0.144   0.883 -1.1721  2.1233  2.3687
  885MOL0     H22125   4.004  -0.281   0.820  1.0202 -3.1551  2.0982
  885MOL0     H22126   4.089  -0.395   1.207  0.2473 -2.6334 -1.0345
  885MOL0     H22127   3.604   0.283   0.917 -1.3339  2.3221  1.1823
  885MOL0     H22128   3.391   0.456   0.793  0.0320 -0.7614  0.0085
  885MOL0     H22129   3.350   0.479   0.967  1.7058 -0.3327  0.8299
  885MOL0     H22130   3.515   0.472   0.928  0.8399 -1.2811 -1.6393
  886MOL0     O22131   8.174   4.020   9.143 -0.6135  0.1504 -0.3572
  886MOL0     C22132   8.154   3.900   9.131  0.0245  1.4226 -0.0604
  886MOL0     O22133   8.240   3.799   9.169  0.4043 -0.8027  0.1867
  886MOL0     C22134   8.351   3.820   9.251  0.8889  0.8155 -0.5101
  886MOL0     C22135   8.334   3.880   9.383  0.0587  0.0811 -0.4337
  886MOL0     C22136   8.447   3.886   9.464 -1.7357  0.7982 -0.2877
  886MOL0     C22137   8.577   3.830   9.426 -0.0286 -1.0436  0.4033
  886MOL0     O22138   8.693   3.834   9.502  0.1009 -0.3413  0.3495
  886MOL0     C22139   8.698   3.884   9.644 -0.1104 -0.1099  0.2205
  886MOL0     C22140   8.825   3.853   9.714 -0.5315  0.6588 -0.6846
  886MOL0     C22141   8.854   3.700   9.734 -0.3080  0.4665  0.1213
  886MOL0     C22142   8.740   3.643   9.810  0.2683 -0.0886  0.2620
  886MOL0     C22143   8.658   3.538   9.731  0.1793  0.0245  0.5541
  886MOL0     C22144   8.740   3.417   9.695 -0.5940  0.2777  0.3776
  886MOL0     C22145   8.657   3.301   9.618 -1.4633  0.6161 -1.0492
  886MOL0     C22146   8.560   3.224   9.706 -0.9287 -0.0563  0.9102
  886MOL0     N22147   8.486   3.120   9.618  0.6715 -0.3362  0.8316
  886MOL0     C22148   8.477   2.984   9.632 -0.8789  0.8677 -1.0815
  886MOL0     C22149   8.429   2.935   9.511 -0.5316 -0.7634 -1.1583
  886MOL0     C22150   8.438   2.797   9.482  0.2428 -0.0688  0.5080
  886MOL0     C22151   8.355   2.711   9.581 -0.5871  1.0489  0.0163
  886MOL0     C22152   8.351   2.549   9.549  1.1440  1.5360 -0.3186
  886MOL0     C22153   8.236   2.479   9.623 -0.1635 -0.3923  0.4576
  886MOL0     O22154   8.243   2.521   9.761  0.2692  0.7484 -0.6102
  886MOL0     C22155   8.297   2.429   9.853  0.8184 -1.6638 -0.3063
  886MOL0     C22156   8.407   2.484   9.919 -1.6241 -0.0834 -0.1927
  886MOL0     C22157   8.492   2.415  10.009  1.8571 -0.7565  0.0210
  886MOL0     C22158   8.605   2.495  10.073 -0.6078 -0.0109 -0.1197
  886MOL0     C22159   8.458   2.282  10.031 -0.4513  0.4176 -0.4929
  886MOL0     C22160   8.545   2.189  10.116  0.4585  0.6486  0.3370
  886MOL0     O22161   8.469   2.079  10.154 -0.0311  0.0696 -0.0646
  886MOL0     C22162   8.513   2.006  10.263  0.4572  0.3178 -0.7071
  886MOL0     C22163   8.428   1.998  10.382  0.4083 -0.1074  0.5082
  886MOL0     C22164   8.466   1.927  10.491 -0.9398 -0.8225 -0.8475
  886MOL0     C22165   8.597   1.853  10.491  0.2127 -0.4277  0.3577
  886MOL0     O22166   8.628   1.783  10.609  0.4398 -1.0660  0.0176
  886MOL0     C22167   8.699   1.661  10.590 -0.6161  0.8304  0.0341
  886MOL0     C22168   8.833   1.662  10.665 -0.5132  0.0634 -0.2766
  886MOL0     C22169   8.916   1.785  10.633  0.9730 -0.0376  0.8970
  886MOL0     C22170   9.006   1.822  10.755  0.0732 -1.6818  0.0987
  886MOL0     C22171   9.091   1.944  10.727 -0.0546  0.1272 -0.2171
  886MOL0     C22172   9.186   1.928  10.612 -0.2370 -0.1043  0.5439
  886MOL0     C22173   9.288   2.051  10.613  0.0444  0.0321  0.2367
  886MOL0     C22174   9.238   2.198  10.603 -0.2574  0.5501 -0.3370
  886MOL0    Cl22175   9.185   2.225  10.434  0.0607 -0.0878 -0.1544
  886MOL0     C22176   8.676   1.867  10.377 -0.2505  0.1700 -0.0786
  886MOL0     C22177   8.636   1.945  10.265  0.0577  0.2421  0.4964
  886MOL0     O22178   8.668   2.201  10.134  0.6012  0.5724 -1.0243
  886MOL0     C22179   8.335   2.238   9.979 -0.3768  1.2085  0.3679
  886MOL0     C22180   8.252   2.301   9.887  0.7238 -0.4930  0.3024
  886MOL0     N22181   8.415   3.049   9.435 -0.0439 -0.4104 -0.8429
  886MOL0     N22182   8.445   3.158   9.488  0.3055  0.0948 -0.8535
  886MOL0     C22183   8.588   3.776   9.296 -0.0395  0.7470  0.2989
  886MOL0     C22184   8.483   3.769   9.207  0.1760 -0.5750 -0.3645
  886MOL0     C22185   8.034   3.851   9.050 -0.4789  0.9879 -0.1101
  886MOL0     C22186   7.999   3.917   8.936 -0.6774 -0.7615 -0.2459
  886MOL0     C22187   7.904   3.877   8.842 -0.1897  0.0964  0.0496
  886MOL0     C22188   7.841   3.751   8.857  0.1379  0.2420  0.0579
  886MOL0     O22189   7.753   3.678   8.778  0.8926 -0.9053  0.2334
  886MOL0     C22190   7.724   3.742   8.648 -0.0234  0.4767 -0.2838
  886MOL0     C22191   7.652   3.655   8.538 -0.5954  0.4200 -0.0253
  886MOL0     C22192   7.751   3.551   8.476  0.4772  0.3725 -0.1184
  886MOL0     C22193   7.688   3.452   8.380  1.2839 -1.0363  0.4658
  886MOL0     C22194   7.588   3.372   8.446 -0.3429  0.6438  0.2363
  886MOL0     C22195   7.500   3.315   8.510 -0.9526  0.3115 -0.1845
  886MOL0     C22196   7.871   3.678   8.976  0.2529  0.0921  0.1752
  886MOL0     C22197   7.959   3.727   9.073 -0.4464 -0.9622 -0.1317
  886MOL0     C22198   7.989   3.644   9.193  0.3762 -0.0030 -0.0187
  886MOL0     H22199   8.243   3.932   9.412  0.5989  1.3310 -0.9334
  886MOL0     H22200   8.452   3.945   9.554 -0.9586 -2.0195  1.6460
  886MOL0     H22201   8.613   3.854   9.705 -0.4563 -2.6524 -1.3304
  886MOL0     H22202   8.676   3.991   9.639  0.7520  0.1014  0.7302
  886MOL0     H22203   8.915   3.879   9.657  1.2146 -1.0080  1.1897
  886MOL0     H22204   8.823   3.909   9.808 -0.5194 -1.5514  0.7041
  886MOL0     H22205   8.877   3.647   9.641  4.9178 -1.1886  1.9906
  886MOL0     H22206   8.946   3.688   9.791 -1.7153 -1.7985  2.0814
  886MOL0     H22207   8.782   3.598   9.901 -0.8638 -0.2390  0.7207
  886MOL0     H22208   8.674   3.724   9.839  3.9046  3.6474 -0.8632
  886MOL0     H22209   8.625   3.584   9.638  0.8772 -3.9593 -1.8992
  886MOL0     H22210   8.577   3.507   9.798  0.6987 -0.4364  0.9781
  886MOL0     H22211   8.824   3.446   9.631  0.1137  2.6214  2.1777
  886MOL0     H22212   8.782   3.368   9.784  0.8955 -0.2745 -0.5834
  886MOL0     H22213   8.732   3.230   9.582  0.3752  1.0319  1.6140
  886MOL0     H22214   8.606   3.349   9.535  0.5539  1.8542 -1.6195
  886MOL0     H22215   8.609   3.173   9.790 -0.4549 -2.1945 -0.5824
  886MOL0     H22216   8.502   3.304   9.751 -0.5936 -0.5308  2.2243
  886MOL0     H22217   8.513   2.912   9.704  0.4438 -0.9014 -3.3616
  886MOL0     H22218   8.540   2.765   9.506 -0.0373 -4.7318 -3.0448
  886MOL0     H22219   8.416   2.785   9.375  3.1893 -1.9528 -0.0069
  886MOL0     H22220   8.397   2.726   9.681 -0.9787  0.1567  0.3288
  886MOL0     H22221   8.254   2.750   9.592 -1.9898 -2.3739  0.7355
  886MOL0     H22222   8.327   2.543   9.442 -3.3660 -0.1608  0.5379
  886MOL0     H22223   8.445   2.499   9.572 -0.1252 -1.5137 -1.3191
  886MOL0     H22224   8.135   2.496   9.583  0.2892  0.3768 -0.4099
  886MOL0     H22225   8.249   2.371   9.612 -3.4133 -0.6638 -2.9756
  886MOL0     H22226   8.433   2.586   9.895 -0.5114 -0.9154 -2.9797
  886MOL0     H22227   8.589   2.484  10.181  0.4325 -0.2132  0.0215
  886MOL0     H22228   8.618   2.598  10.038  1.4938  0.5347  2.0400
  886MOL0     H22229   8.697   2.444  10.046 -0.5344 -0.6274  1.1959
  886MOL0     H22230   8.328   2.039  10.383 -0.5473 -2.2488  1.9910
  886MOL0     H22231   8.402   1.920  10.578 -0.8833  0.7206 -0.6490
  886MOL0     H22232   8.630   1.580  10.613  0.2463 -0.2046 -0.9156
  886MOL0     H22233   8.742   1.651  10.490 -0.3242  2.4985 -0.0477
  886MOL0     H22234   8.807   1.663  10.772 -1.0265  0.1999 -0.4014
  886MOL0     H22235   8.895   1.576  10.639  0.4104  0.9152 -0.9813
  886MOL0     H22236   8.858   1.876  10.614  0.7722 -0.4553 -0.6608
  886MOL0     H22237   8.979   1.767  10.545 -0.6023 -1.4288 -0.0077
  886MOL0     H22238   9.064   1.735  10.785 -2.1406 -2.2543  3.1373
  886MOL0     H22239   8.946   1.842  10.844  0.3387  0.0933 -0.0695
  886MOL0     H22240   9.012   2.017  10.709 -0.8370 -0.7084 -0.2531
  886MOL0     H22241   9.143   1.959  10.822  0.0521  0.6381 -0.3529
  886MOL0     H22242   9.134   1.924  10.515 -0.1621 -3.4821  0.5287
  886MOL0     H22243   9.260   1.848  10.618  0.6649  0.6171 -0.4829
  886MOL0     H22244   9.367   2.051  10.537  0.7366  5.0089  0.6420
  886MOL0     H22245   9.344   2.040  10.707  1.1912  2.4608 -0.0904
  886MOL0     H22246   9.320   2.265  10.633  0.6555 -0.7472  0.1511
  886MOL0     H22247   9.156   2.225  10.670  0.6775  0.6390  0.8093
  886MOL0     H22248   8.776   1.825  10.380 -0.5190 -0.4995 -0.3668
  886MOL0     H22249   8.703   1.956  10.180 -3.9375  1.4096 -2.8162
  886MOL0     H22250   8.305   2.135   9.993  0.1034  1.0249  0.0762
  886MOL0     H22251   8.168   2.260   9.832 -1.4597  2.8261  0.8591
  886MOL0     H22252   8.685   3.732   9.274 -0.2570 -1.0474  2.5322
  886MOL0     H22253   8.510   3.728   9.110  0.4067  1.4242 -1.1945
  886MOL0     H22254   8.045   4.015   8.923 -2.5891  0.0546 -1.2160
  886MOL0     H22255   7.881   3.929   8.750  1.3424 -1.5775 -1.3503
  886MOL0     H22256   7.649   3.821   8.658  1.1771  1.8980 -1.8662
  886MOL0     H22257   7.811   3.789   8.601 -1.3198 -0.4267 -3.9016
  886MOL0     H22258   7.603   3.713   8.459  1.0219 -1.6694 -2.7204
  886MOL0     H22259   7.575   3.603   8.596 -0.2018 -2.5120 -1.9213
  886MOL0     H22260   7.844   3.594   8.438 -0.4404  2.4024 -0.2155
  886MOL0     H22261   7.774   3.495   8.567 -4.1004 -2.5075 -0.4063
  886MOL0     H22262   7.765   3.382   8.345  0.3126 -2.5579  1.2536
  886MOL0     H22263   7.639   3.501   8.296 -2.6286  0.6318  3.3720
  886MOL0     H22264   7.436   3.269   8.583  2.7496 -1.4212  2.2988
  886MOL0     H22265   7.835   3.576   8.984  0.3165 -0.3079 -3.1375
  886MOL0     H22266   8.066   3.577   9.154  1.5246  3.1170 -3.7583
  886MOL0     H22267   8.024   3.694   9.284 -1.7993  0.6344  0.5106
  886MOL0     H22268   7.900   3.596   9.233  0.3765  0.0045 -0.0088
  887MOL0     O22269   6.915  10.337  11.505 -0.0735 -0.2116 -0.6320
  887MOL0     C22270   7.021  10.369  11.551 -0.9359 -0.5762 -0.6452
  887MOL0     O22271   7.151  10.372  11.490  0.1693  0.3863 -0.2237
  887MOL0     C22272   7.178  10.307  11.373 -0.1653  0.1907 -0.8113
  887MOL0     C22273   7.102  10.202  11.327  0.5915 -0.6964  0.3757
  887MOL0     C22274   7.117  10.155  11.197  0.1100 -0.1847  0.0701
  887MOL0     C22275   7.223  10.202  11.115 -0.0846  0.4063  0.2321
  887MOL0     O22276   7.246  10.151  10.991 -0.1137 -0.4138  0.0076
  887MOL0     C22277   7.357  10.194  10.912 -0.0374 -0.1734  0.3738
  887MOL0     C22278   7.367  10.109  10.783  0.7882 -0.6244 -0.9724
  887MOL0     C22279   7.467  10.168  10.676 -0.6957  0.7959 -0.0333
  887MOL0     C22280   7.426  10.295  10.615 -0.0207  0.4303  0.0387
  887MOL0     C22281   7.502  10.324  10.475 -0.1566 -0.3117 -0.6188
  887MOL0     C22282   7.456  10.225  10.369  0.0601  0.5595  1.1676
  887MOL0     C22283   7.539  10.259  10.238  0.6212  0.1581  0.0017
  887MOL0     C22284   7.688  10.245  10.229  0.0670 -0.6622  0.2478
  887MOL0     N22285   7.729  10.103  10.258  0.0221  0.0452  0.4683
  887MOL0     C22286   7.785  10.041  10.372 -0.1207  0.0644  1.0710
  887MOL0     C22287   7.831   9.919  10.327  0.1176  0.2353 -0.5345
  887MOL0     C22288   7.927   9.814  10.392  0.6543 -0.4956  0.2619
  887MOL0     C22289   7.848   9.701  10.435  0.4859 -0.6260  0.1834
  887MOL0     C22290   7.771   9.727  10.563  0.6764  0.5167  0.9676
  887MOL0     C22291   7.666   9.616  10.567  0.2471  0.8782 -0.3973
  887MOL0     O22292   7.562   9.635  10.667  0.3942  0.3983 -0.0537
  887MOL0     C22293   7.450   9.707  10.635  0.3798 -0.7097  0.7197
  887MOL0     C22294   7.356   9.704  10.736  1.1423  0.2253 -0.9296
  887MOL0     C22295   7.235   9.781  10.718  0.6686 -0.0755 -0.7082
  887MOL0     C22296   7.128   9.746  10.818  0.0296 -1.0680  0.2564
  887MOL0     C22297   7.223   9.862  10.607 -0.0096  0.4665  0.4048
  887MOL0     C22298   7.103   9.943  10.575 -0.0265  0.5275  0.0469
  887MOL0     O22299   7.124  10.077  10.547 -0.3295 -0.0416  0.0535
  887MOL0     C22300   7.011  10.151  10.508  0.0659 -0.2015 -0.9409
  887MOL0     C22301   6.947  10.123  10.392  0.1562  0.1533 -0.3158
  887MOL0     C22302   6.841  10.209  10.357 -0.2875  0.0771 -0.7792
  887MOL0     C22303   6.799  10.320  10.434 -1.3376  0.3084  1.1305
  887MOL0     O22304   6.707  10.422  10.396  0.4625  0.5089 -1.0511
  887MOL0     C22305   6.604  10.388  10.302 -0.3181 -1.1922  0.7850
  887MOL0     C22306   6.476  10.462  10.323  0.5279  0.1491  0.5350
  887MOL0     C22307   6.381  10.381  10.406  0.4958  0.0163  0.9918
  887MOL0     C22308   6.438  10.315  10.539  0.3872 -0.7390 -1.2972
  887MOL0     C22309   6.477  10.424  10.641  0.2890  0.2477 -0.0828
  887MOL0     C22310   6.360  10.447  10.739  0.7597  0.0768  0.6101
  887MOL0     C22311   6.411  10.508  10.865  0.6579 -0.2903 -0.2223
  887MOL0     C22312   6.433  10.648  10.858  0.6432  0.2701 -0.6908
  887MOL0    Cl22313   6.483  10.701  11.027  0.4268 -0.1567  0.3887
  887MOL0     C22314   6.868  10.334  10.558 -0.1904 -0.1565  0.4275
  887MOL0     C22315   6.961  10.236  10.602 -0.0905  0.4692  1.0098
  887MOL0     O22316   6.991   9.887  10.580 -0.2931 -0.8232 -0.0980
  887MOL0     C22317   7.318   9.855  10.502 -0.9249  0.4173 -0.8657
  887MOL0     C22318   7.432   9.774  10.516 -0.7103 -0.1721 -0.2980
  887MOL0     N22319   7.786   9.903  10.198 -0.1935  0.4238 -0.5228
  887MOL0     N22320   7.736  10.011  10.158 -0.6275  0.9396 -0.2913
  887MOL0     C22321   7.304  10.297  11.165  0.2941  0.0024 -0.9327
  887MOL0     C22322   7.278  10.348  11.292 -1.3446 -0.7718 -0.1832
  887MOL0     C22323   7.025  10.407  11.693 -0.0757 -0.3892  0.3029
  887MOL0     C22324   7.144  10.465  11.738 -0.2808 -0.0860  0.5157
  887MOL0     C22325   7.162  10.516  11.868  0.1562 -0.4730  0.5356
  887MOL0     C22326   7.045  10.509  11.957  0.0955 -1.2090 -0.0947
  887MOL0     O22327   7.044  10.552  12.086  0.7837 -0.2004  0.0097
  887MOL0     C22328   7.168  10.552  12.153  0.2477 -0.0222 -0.1247
  887MOL0     C22329   7.134  10.561  12.302 -0.9141 -0.8811 -1.0101
  887MOL0     C22330   7.074  10.698  12.345  0.3341  0.9862  0.8364
  887MOL0     C22331   7.069  10.718  12.498  1.1980  0.4491  0.4513
  887MOL0     C22332   6.927  10.735  12.549  0.3693 -0.6523 -0.4368
  887MOL0     C22333   6.810  10.763  12.578  0.3472  0.2366 -1.2636
  887MOL0     C22334   6.923  10.451  11.921  0.1187  0.3874  0.8291
  887MOL0     C22335   6.912  10.397  11.785 -0.3343 -0.0416 -0.9891
  887MOL0     C22336   6.761  10.361  11.746  0.4127  0.1082 -1.2308
  887MOL0     H22337   7.023  10.160  11.388  1.2790 -3.8742 -0.7302
  887MOL0     H22338   7.043  10.083  11.166 -0.7924  1.1199 -0.9364
  887MOL0     H22339   7.457  10.181  10.955  1.4249 -0.1560 -2.7703
  887MOL0     H22340   7.324  10.292  10.876 -2.5935 -1.6532 -1.6157
  887MOL0     H22341   7.393  10.010  10.821  0.5102  0.4098  2.2540
  887MOL0     H22342   7.267  10.111  10.738  0.6235  1.9601 -0.6305
  887MOL0     H22343   7.564  10.180  10.726  0.5692 -1.2822 -1.8349
  887MOL0     H22344   7.492  10.095  10.599 -1.2669  0.2214  0.3142
  887MOL0     H22345   7.318  10.299  10.599 -0.4385  4.0545  2.5480
  887MOL0     H22346   7.443  10.375  10.687  1.6032 -1.3540  1.7546
  887MOL0     H22347   7.611  10.315  10.478 -0.0041  1.4181 -0.3160
  887MOL0     H22348   7.473  10.423  10.441 -0.8099 -0.7952 -1.5127
  887MOL0     H22349   7.486  10.124  10.398 -0.4142 -0.7960 -2.5412
  887MOL0     H22350   7.349  10.231  10.348  0.3214  2.5041  0.2026
  887MOL0     H22351   7.518  10.363  10.213 -0.7223  0.4864  2.2313
  887MOL0     H22352   7.489  10.198  10.162 -1.4756 -1.4268  2.4973
  887MOL0     H22353   7.737  10.263  10.133  0.3158 -3.7261 -0.3021
  887MOL0     H22354   7.731  10.309  10.306  0.1794 -2.0098  1.3370
  887MOL0     H22355   7.799  10.074  10.474 -1.1170 -4.4389  2.9110
  887MOL0     H22356   7.965   9.860  10.484  0.7915  0.6398 -0.3436
  887MOL0     H22357   8.010   9.781  10.329  0.2920  0.5142 -0.7889
  887MOL0     H22358   7.776   9.678  10.356 -2.3427  2.0365  1.7413
  887MOL0     H22359   7.907   9.613  10.462 -3.6928 -3.9781 -0.5869
  887MOL0     H22360   7.833   9.730  10.653 -0.3169 -0.2180  1.6815
  887MOL0     H22361   7.712   9.817  10.545  1.9268  1.2717  0.4465
  887MOL0     H22362   7.622   9.592  10.469  0.1460 -0.7955  0.0331
  887MOL0     H22363   7.709   9.518  10.590 -2.3623 -0.9262 -2.4980
  887MOL0     H22364   7.387   9.661  10.830 -0.8474  1.0016  0.1374
  887MOL0     H22365   7.113   9.827  10.889  0.8211  3.8290 -4.5077
  887MOL0     H22366   7.151   9.652  10.869  1.8105 -0.7585  0.0834
  887MOL0     H22367   7.034   9.726  10.765  0.9711 -1.3823 -1.3539
  887MOL0     H22368   6.987  10.048  10.324  1.9335 -0.1735  1.0168
  887MOL0     H22369   6.806  10.191  10.256 -3.2366 -0.7163  0.2787
  887MOL0     H22370   6.646  10.432  10.211 -0.3265  0.8641  1.7054
  887MOL0     H22371   6.582  10.282  10.291 -0.3890 -1.0645 -0.4821
  887MOL0     H22372   6.486  10.562  10.365  1.2563  0.0092  0.7005
  887MOL0     H22373   6.428  10.490  10.228  0.9818  0.0993  0.2875
  887MOL0     H22374   6.344  10.305  10.337  0.9560  0.6942 -0.0167
  887MOL0     H22375   6.289  10.439  10.424  0.8434  0.8428  0.1795
  887MOL0     H22376   6.521  10.248  10.513  1.0534 -0.6809  0.5186
  887MOL0     H22377   6.354  10.256  10.574  0.4121  0.5307  1.0746
  887MOL0     H22378   6.568  10.389  10.689 -0.8557  0.1237  2.1046
  887MOL0     H22379   6.510  10.513  10.587  3.0671 -1.3540 -1.2549
  887MOL0     H22380   6.318  10.352  10.772 -0.3007  0.1972 -0.3260
  887MOL0     H22381   6.276  10.502  10.694  0.7737  0.2568  0.8027
  887MOL0     H22382   6.494  10.456  10.913  0.1839 -1.0243 -0.1793
  887MOL0     H22383   6.328  10.493  10.935 -0.3518 -2.8379 -1.7978
  887MOL0     H22384   6.352  10.705  10.814 -0.6465 -1.2020 -0.3039
  887MOL0     H22385   6.511  10.646  10.781  1.0124 -3.4724 -0.3998
  887MOL0     H22386   6.850  10.409  10.635  2.7252  0.2594  0.8268
  887MOL0     H22387   7.004  10.254  10.700 -2.0444  2.6881  1.5638
  887MOL0     H22388   7.290   9.902  10.409 -1.5385  0.0432 -0.8788
  887MOL0     H22389   7.508   9.775  10.438 -0.9529 -1.4146 -0.5835
  887MOL0     H22390   7.391  10.345  11.121  2.1144 -1.1341  1.2178
  887MOL0     H22391   7.343  10.422  11.338  1.1158 -1.7559 -1.9053
  887MOL0     H22392   7.232  10.466  11.674  0.4083 -1.5481  1.3744
  887MOL0     H22393   7.259  10.557  11.896  0.7051 -0.0877 -1.7870
  887MOL0     H22394   7.228  10.464  12.127  1.6521  1.0933 -0.7553
  887MOL0     H22395   7.235  10.634  12.125  2.2654 -1.5002  0.0860
  887MOL0     H22396   7.229  10.557  12.356 -1.9170 -0.7393  0.8262
  887MOL0     H22397   7.059  10.488  12.333 -2.0860  1.0938  1.0805
  887MOL0     H22398   7.131  10.773  12.291  1.0550 -1.4743 -2.0519
  887MOL0     H22399   6.973  10.704  12.304 -1.2139 -1.5584  3.7948
  887MOL0     H22400   7.127  10.809  12.515  4.7117 -1.7646  1.1933
  887MOL0     H22401   7.126  10.639  12.548  0.2826 -1.6057 -1.5792
  887MOL0     H22402   6.704  10.764  12.595  0.4877 -3.0265  0.6552
  887MOL0     H22403   6.839  10.466  11.989  0.9014  1.4223  1.5964
  887MOL0     H22404   6.746  10.253  11.734 -1.8408 -0.3494  3.3998
  887MOL0     H22405   6.699  10.410  11.821  0.4052 -1.5119 -0.1277
  887MOL0     H22406   6.724  10.402  11.652 -1.6995  1.6262  0.1711
  888MOL0     O22407   4.881   9.688   1.600 -0.4265 -0.6306  0.2761
  888MOL0     C22408   4.949   9.603   1.549  0.4256 -0.5717 -0.5630
  888MOL0     O22409   5.053   9.538   1.613 -0.0216  0.1921  0.1825
  888MOL0     C22410   5.108   9.606   1.720 -0.4687  0.0439  1.0649
  888MOL0     C22411   5.044   9.640   1.834  0.1772  0.4884 -0.3858
  888MOL0     C22412   5.112   9.704   1.937  0.0553  0.6911 -0.7036
  888MOL0     C22413   5.248   9.731   1.923 -0.7327 -0.2041 -2.0001
  888MOL0     O22414   5.316   9.799   2.019  0.1140 -0.5354  0.3194
  888MOL0     C22415   5.235   9.899   2.095 -0.8738 -1.6263  0.5937
  888MOL0     C22416   5.330   9.957   2.207  0.0486 -0.5489  0.3027
  888MOL0     C22417   5.267  10.062   2.297 -0.1543 -1.1719 -0.1181
  888MOL0     C22418   5.233  10.193   2.231 -0.7074 -0.5393 -1.2992
  888MOL0     C22419   5.156  10.284   2.326 -0.2274  0.2499 -0.1017
  888MOL0     C22420   5.133  10.410   2.255  0.4676 -0.2385  0.0327
  888MOL0     C22421   5.039  10.495   2.334 -0.5399 -0.6104 -0.4553
  888MOL0     C22422   5.013  10.616   2.248  0.4162  0.0600  0.0854
  888MOL0     N22423   4.904  10.702   2.304  0.6579  0.3547 -0.5555
  888MOL0     C22424   4.915  10.773   2.429 -0.2233 -0.2918 -0.9129
  888MOL0     C22425   4.808  10.854   2.428  0.0984  0.2095 -0.2430
  888MOL0     C22426   4.769  10.948   2.539  0.2312  0.1435  0.0976
  888MOL0     C22427   4.855  11.077   2.539  0.6044  0.1748 -0.2181
  888MOL0     C22428   4.873  11.146   2.409 -0.5235 -0.4889 -0.7614
  888MOL0     C22429   5.017  11.180   2.375  0.1341  0.2687 -0.2534
  888MOL0     O22430   5.084  11.052   2.375  0.0877 -0.5720  0.1116
  888MOL0     C22431   5.226  11.045   2.367  0.5291  0.1030  0.6603
  888MOL0     C22432   5.325  11.144   2.351  0.5002 -0.1141  0.1818
  888MOL0     C22433   5.462  11.120   2.353  0.8055  0.3862  0.4375
  888MOL0     C22434   5.552  11.244   2.336 -0.5261  0.0589  0.9325
  888MOL0     C22435   5.499  10.986   2.362 -0.4447 -0.6361  0.3489
  888MOL0     C22436   5.633  10.948   2.302 -0.8065  0.3288 -0.8866
  888MOL0     O22437   5.747  10.946   2.368  0.2887  0.2436  0.5315
  888MOL0     C22438   5.744  10.965   2.499  0.6874 -0.2918 -0.7158
  888MOL0     C22439   5.730  10.864   2.592  0.4013 -0.2896  0.6915
  888MOL0     C22440   5.733  10.880   2.724 -0.3024  0.1578  0.1854
  888MOL0     C22441   5.767  11.007   2.780 -0.7943 -0.3518  0.1662
  888MOL0     O22442   5.800  11.005   2.915 -0.7082  0.3853  0.2037
  888MOL0     C22443   5.924  11.070   2.954 -0.4845 -0.6173  0.5442
  888MOL0     C22444   5.933  11.081   3.113 -0.5304  0.2582  0.8087
  888MOL0     C22445   5.843  11.192   3.177  0.6704  0.2009  1.2067
  888MOL0     C22446   5.882  11.208   3.331  0.6149  0.4662  0.6003
  888MOL0     C22447   5.791  11.312   3.394  0.2998  0.5968 -0.1068
  888MOL0     C22448   5.826  11.351   3.534  0.2499  0.0523 -0.3130
  888MOL0     C22449   5.935  11.461   3.542 -0.2103 -0.5764  0.1096
  888MOL0     C22450   5.906  11.586   3.465 -0.0452  0.8447  0.4704
  888MOL0    Cl22451   5.742  11.663   3.493 -0.0260 -0.3943  0.1862
  888MOL0     C22452   5.786  11.112   2.694  0.5675  0.1516 -0.1407
  888MOL0     C22453   5.772  11.091   2.557 -0.1242  0.1079  0.6018
  888MOL0     O22454   5.612  10.884   2.196 -0.4102 -0.5415  1.0208
  888MOL0     C22455   5.406  10.886   2.388  0.3479 -1.5469  1.4136
  888MOL0     C22456   5.271  10.916   2.391  0.0109  1.1405 -0.8449
  888MOL0     N22457   4.737  10.844   2.307 -0.8244  0.7467 -0.4661
  888MOL0     N22458   4.797  10.753   2.236  0.3794 -0.4910  0.4307
  888MOL0     C22459   5.315   9.690   1.806  1.2769 -0.8032  0.0230
  888MOL0     C22460   5.246   9.630   1.706  0.6561 -0.4903  0.2856
  888MOL0     C22461   4.902   9.533   1.423  0.1514  0.6823 -0.6241
  888MOL0     C22462   4.955   9.409   1.378 -0.0286 -0.8016  0.4212
  888MOL0     C22463   4.908   9.359   1.254 -0.2000 -0.0529 -1.5312
  888MOL0     C22464   4.811   9.422   1.180  0.1384  0.0013  0.7105
  888MOL0     O22465   4.756   9.379   1.065  0.8144 -0.3590  0.0149
  888MOL0     C22466   4.760   9.243   1.017 -0.0422  0.0395 -0.3774
  888MOL0     C22467   4.869   9.216   0.912 -0.3178  0.2474 -0.2737
  888MOL0     C22468   4.888   9.065   0.900 -0.6286 -1.1356  0.0691
  888MOL0     C22469   4.986   9.035   0.779  0.1245  1.0800  0.5024
  888MOL0     C22470   5.124   9.101   0.783  0.6076  0.6689  0.8167
  888MOL0     C22471   5.239   9.152   0.763  0.9352  0.3962 -1.2107
  888MOL0     C22472   4.758   9.541   1.232 -0.6750 -0.7053  0.7947
  888MOL0     C22473   4.794   9.597   1.353 -0.8900 -0.1233 -0.4483
  888MOL0     C22474   4.710   9.725   1.386  0.1477  0.5329 -0.1130
  888MOL0     H22475   4.937   9.627   1.848  0.5279 -1.9254  0.4978
  888MOL0     H22476   5.054   9.734   2.024  0.6134  2.0164 -0.7674
  888MOL0     H22477   5.153   9.845   2.142 -1.2372 -2.3729 -0.8290
  888MOL0     H22478   5.205   9.981   2.029  2.0999 -1.1917 -0.3672
  888MOL0     H22479   5.358   9.871   2.269 -2.1579 -0.9543  0.8026
  888MOL0     H22480   5.422  10.000   2.165  1.4830 -0.0139  3.6866
  888MOL0     H22481   5.173  10.026   2.340 -1.3163 -1.9158 -2.9957
  888MOL0     H22482   5.340  10.091   2.372 -1.1703  1.4336 -0.0341
  888MOL0     H22483   5.326  10.244   2.204 -1.3947  1.6848  0.2803
  888MOL0     H22484   5.172  10.174   2.142 -2.3586  0.7555 -0.5085
  888MOL0     H22485   5.209  10.295   2.421  1.0986 -0.6951 -0.7046
  888MOL0     H22486   5.058  10.236   2.340 -0.2486  0.5739  0.9576
  888MOL0     H22487   5.226  10.467   2.249  0.8504 -0.6055  1.8734
  888MOL0     H22488   5.083  10.378   2.163 -3.9039 -2.6521  2.8955
  888MOL0     H22489   5.095  10.520   2.425  0.4706 -1.6146 -0.7716
  888MOL0     H22490   4.952  10.434   2.359  0.5792 -2.0367  0.0682
  888MOL0     H22491   5.110  10.666   2.237  0.9948  0.1754  4.1300
  888MOL0     H22492   4.985  10.591   2.145 -2.6646 -0.1261  0.8619
  888MOL0     H22493   4.984  10.756   2.511 -1.1256  0.1115 -0.0561
  888MOL0     H22494   4.776  10.888   2.631 -0.1561  1.5696  1.0893
  888MOL0     H22495   4.663  10.970   2.521 -0.2380  0.3376  2.6399
  888MOL0     H22496   4.814  11.149   2.610 -2.0630 -2.2420  0.8725
  888MOL0     H22497   4.956  11.049   2.571  0.8895  0.7870 -0.5605
  888MOL0     H22498   4.825  11.083   2.332 -1.7255 -1.0008  0.3690
  888MOL0     H22499   4.813  11.237   2.406  1.5326  0.9938  0.7644
  888MOL0     H22500   5.030  11.241   2.286 -1.1429  0.7461 -0.1264
  888MOL0     H22501   5.053  11.241   2.458  0.9488 -0.2827 -0.1848
  888MOL0     H22502   5.301  11.249   2.359 -3.4076 -0.9647  3.0055
  888MOL0     H22503   5.551  11.313   2.421  2.5369  2.1511 -0.5708
  888MOL0     H22504   5.508  11.310   2.260  0.8420 -0.9736 -0.8500
  888MOL0     H22505   5.656  11.219   2.316 -0.5891 -0.3265  1.0744
  888MOL0     H22506   5.708  10.761   2.567 -0.9905 -0.8465  3.7645
  888MOL0     H22507   5.726  10.787   2.779 -0.2620 -0.9587 -1.6171
  888MOL0     H22508   6.012  11.019   2.914  0.0775  1.5355 -1.1423
  888MOL0     H22509   5.931  11.176   2.928  1.7272 -1.2356 -1.7491
  888MOL0     H22510   5.913  10.986   3.163 -3.7179  0.8123  0.8375
  888MOL0     H22511   6.038  11.104   3.133 -0.6871  0.6060  1.2715
  888MOL0     H22512   5.738  11.160   3.184 -0.7435  4.4443  3.4384
  888MOL0     H22513   5.846  11.290   3.129  1.1600  0.2011  1.2363
  888MOL0     H22514   5.990  11.225   3.340  0.5772  3.6059 -2.6533
  888MOL0     H22515   5.867  11.105   3.367  5.5033 -0.0533  1.8858
  888MOL0     H22516   5.805  11.399   3.329 -0.5451  0.4440 -0.4991
  888MOL0     H22517   5.686  11.286   3.377  0.5743 -1.5066  1.1174
  888MOL0     H22518   5.847  11.255   3.582 -1.6333 -0.9765 -1.3973
  888MOL0     H22519   5.729  11.382   3.574 -0.2289 -2.2086  0.4258
  888MOL0     H22520   6.030  11.420   3.505  0.9250  1.1332  0.9994
  888MOL0     H22521   5.962  11.479   3.646 -0.8052 -0.5294  0.2576
  888MOL0     H22522   5.918  11.572   3.357 -2.9045  0.6388  0.1135
  888MOL0     H22523   5.984  11.657   3.497  0.0155  0.2720  1.6745
  888MOL0     H22524   5.830  11.201   2.737  0.5848 -0.5893  1.4270
  888MOL0     H22525   5.789  11.169   2.483  2.1999 -0.4034  0.5296
  888MOL0     H22526   5.438  10.783   2.395 -0.5029 -1.9807 -0.6028
  888MOL0     H22527   5.199  10.837   2.403  2.5948 -1.3219 -0.5873
  888MOL0     H22528   5.421   9.715   1.805  0.8652  1.3680 -2.7527
  888MOL0     H22529   5.294   9.604   1.613 -0.6921  0.4336 -0.7109
  888MOL0     H22530   5.034   9.350   1.425 -0.0645 -2.3501 -1.3050
  888MOL0     H22531   4.937   9.259   1.223  0.2239 -0.0894 -1.0352
  888MOL0     H22532   4.773   9.172   1.099  2.2497 -1.4160 -1.8509
  888MOL0     H22533   4.664   9.207   0.977 -0.2798 -2.6164  2.2219
  888MOL0     H22534   4.966   9.254   0.946 -0.1227  1.3918 -1.9991
  888MOL0     H22535   4.840   9.255   0.814  0.0076  0.6279 -0.2229
  888MOL0     H22536   4.932   9.028   0.994 -0.7608  0.7815  0.9300
  888MOL0     H22537   4.791   9.015   0.895 -2.1750  1.7740 -1.5185
  888MOL0     H22538   4.935   9.061   0.686 -2.0399 -1.6736  0.7822
  888MOL0     H22539   5.001   8.927   0.770  0.7926  1.2371 -0.4273
  888MOL0     H22540   5.338   9.193   0.756  1.3060 -0.6867 -2.8351
  888MOL0     H22541   4.685   9.586   1.165 -0.0705  1.3008  1.4090
  888MOL0     H22542   4.656   9.716   1.481 -1.5005 -0.3803 -1.0819
  888MOL0     H22543   4.777   9.812   1.391  0.9591  0.0761 -2.1325
  888MOL0     H22544   4.633   9.744   1.310 -0.1105  0.6759  0.1796
  889MOL0     O22545   4.919   0.591  10.692  0.1048  0.2015 -0.3933
  889MOL0     C22546   4.838   0.668  10.754 -0.4009  0.4677 -0.0057
  889MOL0     O22547   4.739   0.632  10.831 -0.2222  0.7318  0.2411
  889MOL0     C22548   4.775   0.547  10.930 -0.5244  0.5106  0.1037
  889MOL0     C22549   4.903   0.542  10.989 -1.1652  0.0042  0.1109
  889MOL0     C22550   4.946   0.457  11.085  0.3077 -0.5340 -0.3187
  889MOL0     C22551   4.859   0.352  11.116 -0.2153 -0.1079  0.0442
  889MOL0     O22552   4.898   0.247  11.194  0.0098 -0.3254 -0.7963
  889MOL0     C22553   4.838   0.115  11.186  0.6797  0.2832  0.6247
  889MOL0     C22554   4.936   0.023  11.248 -0.4104 -0.6440 -0.6315
  889MOL0     C22555   4.996  -0.092  11.157 -0.2035  0.6938  0.5937
  889MOL0     C22556   4.893  -0.191  11.112 -0.3050  0.7191 -0.1596
  889MOL0     C22557   4.951  -0.296  11.008 -0.1690 -0.5386 -0.3670
  889MOL0     C22558   4.854  -0.396  10.945 -0.1293 -0.5371 -0.1878
  889MOL0     C22559   4.924  -0.495  10.850  0.0836  0.2238 -0.3581
  889MOL0     C22560   4.904  -0.439  10.707  0.2259 -0.6989  0.5351
  889MOL0     N22561   4.965  -0.513  10.606 -0.4043  0.3458 -0.2967
  889MOL0     C22562   4.905  -0.522  10.482 -0.6449 -0.2288  0.7868
  889MOL0     C22563   4.979  -0.607  10.408 -0.1585  0.6410  0.0089
  889MOL0     C22564   4.959  -0.651  10.269  0.4022 -1.0544 -0.1614
  889MOL0     C22565   4.831  -0.614  10.189  0.0966 -0.1630 -0.0088
  889MOL0     C22566   4.815  -0.703  10.067 -0.2583  0.0908 -0.2955
  889MOL0     C22567   4.691  -0.654   9.998  0.3109 -0.2681 -0.8282
  889MOL0     O22568   4.670  -0.741   9.883  0.1730  0.0590 -0.7279
  889MOL0     C22569   4.586  -0.683   9.789  0.6357  0.2351  0.4473
  889MOL0     C22570   4.570  -0.546   9.759 -0.6183 -0.5561  0.5561
  889MOL0     C22571   4.481  -0.502   9.664  0.6897  0.6608  0.5500
  889MOL0     C22572   4.447  -0.354   9.666 -0.5631  0.6135 -0.1203
  889MOL0     C22573   4.403  -0.596   9.597  0.4789  0.6599 -0.0807
  889MOL0     C22574   4.299  -0.559   9.493  0.3714 -0.3177 -0.9366
  889MOL0     O22575   4.193  -0.641   9.494  0.0561 -0.0509  0.8771
  889MOL0     C22576   4.094  -0.627   9.402  0.7257 -0.3659  0.2532
  889MOL0     C22577   3.981  -0.550   9.420 -0.8444 -0.6151  0.3673
  889MOL0     C22578   3.885  -0.531   9.317 -0.0849  0.0010  0.6899
  889MOL0     C22579   3.892  -0.606   9.206 -0.5049  0.3396  0.6551
  889MOL0     O22580   3.803  -0.584   9.104 -0.5667  0.2605 -0.4743
  889MOL0     C22581   3.809  -0.471   9.024 -0.0419 -0.2800 -0.5601
  889MOL0     C22582   3.690  -0.466   8.923 -0.0824 -0.0488  0.3012
  889MOL0     C22583   3.709  -0.329   8.848 -0.1556 -0.3452  0.2165
  889MOL0     C22584   3.596  -0.286   8.762  0.5953  0.5499  0.5898
  889MOL0     C22585   3.632  -0.150   8.692 -0.0310 -0.6886  0.5938
  889MOL0     C22586   3.520  -0.081   8.614  1.1614  0.1643 -0.1528
  889MOL0     C22587   3.479  -0.163   8.492  0.6275 -1.4685  0.5795
  889MOL0     C22588   3.363  -0.086   8.423 -0.3848  0.1153  0.4188
  889MOL0    Cl22589   3.298  -0.192   8.291 -0.2766  0.2807  0.1808
  889MOL0     C22590   3.999  -0.699   9.194 -1.3866 -0.3061  0.0287
  889MOL0     C22591   4.102  -0.702   9.281 -1.2342  0.4833  0.2101
  889MOL0     O22592   4.309  -0.465   9.419  0.4262 -0.0121 -0.0671
  889MOL0     C22593   4.423  -0.736   9.615  0.3723 -0.6301  0.2379
  889MOL0     C22594   4.517  -0.774   9.710 -0.0806 -0.7041  0.4440
  889MOL0     N22595   5.087  -0.643  10.485  0.6807  1.1703  0.2265
  889MOL0     N22596   5.081  -0.586  10.596  0.1450  0.6117  0.7151
  889MOL0     C22597   4.724   0.351  11.074 -0.5903  0.0036 -0.0833
  889MOL0     C22598   4.680   0.446  10.983  0.0619 -0.4935 -0.1140
  889MOL0     C22599   4.823   0.815  10.714 -0.3480 -0.3982 -0.4310
  889MOL0     C22600   4.780   0.853  10.581  0.4344 -1.2093  0.4318
  889MOL0     C22601   4.734   0.977  10.562  0.0828  0.4034 -0.7888
  889MOL0     C22602   4.730   1.076  10.655  0.3330 -0.1340 -0.3977
  889MOL0     O22603   4.692   1.209  10.625  0.3159 -0.7141  0.3154
  889MOL0     C22604   4.637   1.246  10.500  0.0823  0.6641  0.6001
  889MOL0     C22605   4.742   1.239  10.383 -0.2617  0.0423  0.1545
  889MOL0     C22606   4.671   1.273  10.250 -0.8670 -0.9163  1.5002
  889MOL0     C22607   4.657   1.429  10.220 -0.2421 -0.1648  0.6447
  889MOL0     C22608   4.596   1.454  10.083  0.0351  0.5947 -0.1945
  889MOL0     C22609   4.551   1.469   9.968 -0.5883  0.9705  0.3409
  889MOL0     C22610   4.786   1.047  10.780  0.6515 -0.0197 -0.2982
  889MOL0     C22611   4.826   0.914  10.816  1.6120 -0.7508 -0.7210
  889MOL0     C22612   4.854   0.884  10.962  0.3525 -0.0435  0.1218
  889MOL0     H22613   4.991   0.595  10.954  2.0769 -0.3057  6.3445
  889MOL0     H22614   5.044   0.458  11.133 -1.4767 -3.4036  4.0540
  889MOL0     H22615   4.823   0.094  11.080 -0.0980  1.4582  0.4817
  889MOL0     H22616   4.746   0.109  11.245  0.4504  2.9924  0.6593
  889MOL0     H22617   5.025   0.068  11.292 -0.7469  2.6520 -3.0263
  889MOL0     H22618   4.881  -0.021  11.332  0.5609  0.4634  0.6201
  889MOL0     H22619   5.031  -0.042  11.066 -0.1780  1.0121  0.7768
  889MOL0     H22620   5.079  -0.142  11.207  0.3162  0.9513 -0.0009
  889MOL0     H22621   4.857  -0.234  11.205  0.2116 -0.4349 -0.4746
  889MOL0     H22622   4.799  -0.149  11.075 -0.5398  1.0525  0.7860
  889MOL0     H22623   5.035  -0.345  11.058  3.3745  2.7661 -2.5117
  889MOL0     H22624   5.004  -0.233  10.936 -1.3073  0.7304 -0.1507
  889MOL0     H22625   4.804  -0.454  11.022  0.5091  0.6812  1.1935
  889MOL0     H22626   4.766  -0.340  10.913  0.2777  0.0683 -0.2838
  889MOL0     H22627   4.879  -0.594  10.845  0.8960 -0.1616 -5.3824
  889MOL0     H22628   5.028  -0.520  10.873 -0.6007 -3.4876 -0.6751
  889MOL0     H22629   4.799  -0.444  10.679  0.7612 -3.8507 -1.3737
  889MOL0     H22630   4.942  -0.337  10.703 -1.5936  0.0685  1.5659
  889MOL0     H22631   4.811  -0.474  10.454 -1.9670 -2.5371  0.9728
  889MOL0     H22632   4.954  -0.760  10.272  1.3052 -1.1040 -0.2145
  889MOL0     H22633   5.048  -0.623  10.213  0.0593 -2.5368 -1.5140
  889MOL0     H22634   4.742  -0.627  10.251  0.2904 -0.3803  0.2268
  889MOL0     H22635   4.834  -0.509  10.161 -0.0860 -0.6645 -2.0662
  889MOL0     H22636   4.892  -0.689   9.990 -1.2773 -0.7000 -1.5153
  889MOL0     H22637   4.817  -0.810  10.092 -2.0558  0.2074  0.5163
  889MOL0     H22638   4.602  -0.669  10.060  2.3281 -1.1190  2.0996
  889MOL0     H22639   4.706  -0.549   9.970  1.7715  0.6933  2.9438
  889MOL0     H22640   4.624  -0.466   9.809 -2.3036 -0.6750  2.7509
  889MOL0     H22641   4.474  -0.315   9.567 -0.4893  1.0821  0.0815
  889MOL0     H22642   4.505  -0.293   9.736 -1.0864  0.7533  0.1981
  889MOL0     H22643   4.344  -0.340   9.698  0.5347  1.0490  3.7128
  889MOL0     H22644   3.958  -0.500   9.513 -0.4064 -1.4916  0.9610
  889MOL0     H22645   3.797  -0.469   9.326  0.7180  1.0408  1.7036
  889MOL0     H22646   3.805  -0.371   9.068 -4.0199 -1.5877  2.7835
  889MOL0     H22647   3.896  -0.488   8.961  0.7452  1.6449 -0.0742
  889MOL0     H22648   3.691  -0.550   8.854  1.4885 -0.0877  0.3430
  889MOL0     H22649   3.592  -0.468   8.972 -2.2252 -1.2218 -3.5615
  889MOL0     H22650   3.799  -0.335   8.787 -2.1702 -1.9561 -2.9197
  889MOL0     H22651   3.718  -0.246   8.918  0.0202  0.1074 -0.3359
  889MOL0     H22652   3.495  -0.273   8.803 -0.3984  0.7977 -1.7392
  889MOL0     H22653   3.578  -0.365   8.689 -1.1290 -0.1632  1.7015
  889MOL0     H22654   3.666  -0.083   8.772 -0.7654  0.5453 -0.0810
  889MOL0     H22655   3.715  -0.164   8.623 -0.3053 -2.4752  0.5940
  889MOL0     H22656   3.560   0.017   8.588 -3.1418  2.9499  2.3512
  889MOL0     H22657   3.430  -0.065   8.675  2.1986  0.9543  1.2471
  889MOL0     H22658   3.440  -0.259   8.526  1.2108 -0.8465  3.2026
  889MOL0     H22659   3.569  -0.178   8.431  0.4485  3.5522 -1.3759
  889MOL0     H22660   3.379   0.013   8.380 -1.8384  0.4285  0.5565
  889MOL0     H22661   3.281  -0.079   8.496  0.9651 -0.8737  2.1236
  889MOL0     H22662   4.024  -0.759   9.107  1.2117 -3.2892  2.5763
  889MOL0     H22663   4.187  -0.765   9.256 -1.5120  0.3641 -0.4543
  889MOL0     H22664   4.369  -0.812   9.559 -2.7285  1.3692  0.2902
  889MOL0     H22665   4.536  -0.879   9.728 -0.9444 -0.9024  0.2572
  889MOL0     H22666   4.654   0.284  11.122  1.9916 -2.9392 -0.0833
  889MOL0     H22667   4.579   0.445  10.944  0.2824  2.1298 -0.8970
  889MOL0     H22668   4.767   0.780  10.502  0.2199  1.6208 -2.3261
  889MOL0     H22669   4.678   0.995  10.471 -0.3643 -1.6266 -0.9664
  889MOL0     H22670   4.558   1.174  10.480  1.9942 -1.6859  1.0820
  889MOL0     H22671   4.592   1.346  10.498  0.5698  0.8858 -0.8677
  889MOL0     H22672   4.792   1.142  10.382 -1.5761 -0.7228 -2.5580
  889MOL0     H22673   4.819   1.316  10.393 -0.4936  0.4723 -1.1489
  889MOL0     H22674   4.733   1.252  10.163 -3.5712  1.5791 -1.2880
  889MOL0     H22675   4.574   1.225  10.233  0.0253 -1.9914 -0.8658
  889MOL0     H22676   4.755   1.478  10.221 -0.7675  0.9513  2.3840
  889MOL0     H22677   4.593   1.475  10.296  1.8609 -2.6808  4.2513
  889MOL0     H22678   4.523   1.498   9.868  0.6456  0.0741 -0.2856
  889MOL0     H22679   4.786   1.124  10.856  2.2696 -1.6866  1.5532
  889MOL0     H22680   4.952   0.835  10.965  0.8230 -0.2624 -5.9537
  889MOL0     H22681   4.869   0.977  11.019 -1.8404  1.0961 -1.0388
  889MOL0     H22682   4.776   0.824  11.007  1.6068 -3.2570 -1.6858
  890MOL0     O22683   9.058   4.008   0.920 -0.6749  0.3492 -0.0704
  890MOL0     C22684   9.160   3.994   0.988 -0.4016 -1.8109  0.1939
  890MOL0     O22685   9.172   3.909   1.091 -0.5071  0.4620 -0.2180
  890MOL0     C22686   9.070   3.818   1.103 -0.3526  0.2467 -0.1309
  890MOL0     C22687   8.945   3.851   1.149  0.1240 -0.8762 -0.0143
  890MOL0     C22688   8.845   3.759   1.163  0.2762 -0.5504 -0.4280
  890MOL0     C22689   8.868   3.625   1.117  0.6065 -0.3749  1.1818
  890MOL0     O22690   8.773   3.528   1.107  0.1927 -0.3666  0.1336
  890MOL0     C22691   8.636   3.576   1.102  1.2683  0.1098 -0.2795
  890MOL0     C22692   8.530   3.467   1.073 -1.1587 -0.1579 -0.1378
  890MOL0     C22693   8.521   3.402   0.936  0.0904 -0.6589 -0.1519
  890MOL0     C22694   8.381   3.364   0.903  0.7342  0.1779  0.7547
  890MOL0     C22695   8.325   3.228   0.970 -0.5472  0.0746 -0.6728
  890MOL0     C22696   8.181   3.198   0.925 -0.0701  0.3031 -0.3240
  890MOL0     C22697   8.158   3.166   0.777 -0.2364  0.7972  1.8394
  890MOL0     C22698   8.006   3.138   0.739  0.3931 -0.6682  0.6828
  890MOL0     N22699   7.909   3.227   0.810  0.7980  0.3427 -0.8328
  890MOL0     C22700   7.893   3.363   0.799 -1.0355  0.4350 -0.0375
  890MOL0     C22701   7.789   3.398   0.880  0.1505 -0.2675  1.0892
  890MOL0     C22702   7.726   3.532   0.897 -0.7459 -0.7388 -0.8670
  890MOL0     C22703   7.667   3.575   0.765 -0.4320  0.5739  0.4045
  890MOL0     C22704   7.626   3.720   0.751 -0.2729  1.0515  0.2084
  890MOL0     C22705   7.579   3.737   0.609 -0.2933  1.0652 -0.2130
  890MOL0     O22706   7.439   3.773   0.590  0.2464 -0.5060 -0.8909
  890MOL0     C22707   7.374   3.871   0.660 -0.0031 -0.1339 -1.0670
  890MOL0     C22708   7.236   3.869   0.656 -0.0517 -0.7316  0.4458
  890MOL0     C22709   7.160   3.974   0.714 -0.2471 -0.3329  0.9309
  890MOL0     C22710   7.003   3.956   0.698  0.3737  0.1194  0.6386
  890MOL0     C22711   7.222   4.079   0.784  0.1145  0.5272  1.1067
  890MOL0     C22712   7.150   4.199   0.827 -0.4334 -0.1967  0.1943
  890MOL0     O22713   7.234   4.308   0.846 -0.3408  1.0864 -0.0717
  890MOL0     C22714   7.190   4.436   0.857  0.4894  0.6506  0.5148
  890MOL0     C22715   7.256   4.517   0.773 -0.8622  0.2388  0.4339
  890MOL0     C22716   7.238   4.653   0.782  0.0387  0.2517 -0.4842
  890MOL0     C22717   7.156   4.712   0.875 -0.1162 -0.2213 -0.4565
  890MOL0     O22718   7.167   4.855   0.866 -0.5611 -0.6411  0.6252
  890MOL0     C22719   7.193   4.912   0.988 -0.8075  0.5353  0.2113
  890MOL0     C22720   7.343   4.912   1.009 -0.0740  0.1916  0.3731
  890MOL0     C22721   7.374   4.985   1.139 -0.0688  0.9696 -1.2663
  890MOL0     C22722   7.528   5.000   1.153 -0.4649  0.1064 -0.0462
  890MOL0     C22723   7.591   4.877   1.230 -0.0876  0.2581  0.4468
  890MOL0     C22724   7.710   4.922   1.308  0.8456  1.1363  0.0959
  890MOL0     C22725   7.796   4.795   1.346 -0.1704 -0.3264  0.4576
  890MOL0     C22726   7.927   4.835   1.386 -0.5966 -0.3742 -0.1425
  890MOL0    Cl22727   8.035   4.681   1.419  0.5531 -0.4527 -0.0694
  890MOL0     C22728   7.084   4.633   0.968  0.1746  0.1938 -0.4079
  890MOL0     C22729   7.106   4.491   0.960  0.1408  0.2436 -0.3628
  890MOL0     O22730   7.026   4.201   0.852 -0.0887  0.7073 -0.2062
  890MOL0     C22731   7.358   4.064   0.807  0.1600  0.0078  0.3055
  890MOL0     C22732   7.431   3.962   0.748  0.0887  0.3104 -0.1932
  890MOL0     N22733   7.752   3.286   0.950 -0.1713 -0.4050 -0.2108
  890MOL0     N22734   7.828   3.184   0.913 -0.2008 -0.3970  0.4029
  890MOL0     C22735   9.001   3.584   1.075  0.5519 -0.5718 -0.4635
  890MOL0     C22736   9.098   3.689   1.073 -0.3420 -0.3608 -0.3155
  890MOL0     C22737   9.273   4.100   0.951  0.2640  0.5437 -0.0164
  890MOL0     C22738   9.410   4.068   0.993  0.8023 -0.0991  0.0620
  890MOL0     C22739   9.520   4.135   0.954 -0.5991  0.0693 -0.8855
  890MOL0     C22740   9.503   4.234   0.856  0.4070 -0.1425 -0.1084
  890MOL0     O22741   9.615   4.296   0.816  0.3912  0.6069 -0.3852
  890MOL0     C22742   9.602   4.423   0.756 -0.2045 -0.3021 -0.6054
  890MOL0     C22743   9.567   4.542   0.850  0.8635 -0.0498  0.7828
  890MOL0     C22744   9.675   4.588   0.952  0.0638 -0.3205 -0.4203
  890MOL0     C22745   9.616   4.705   1.029  0.0998 -0.1544  1.5080
  890MOL0     C22746   9.708   4.750   1.123  0.2924 -0.2422 -0.3767
  890MOL0     C22747   9.795   4.808   1.185 -0.3790  0.6570  0.4810
  890MOL0     C22748   9.371   4.270   0.815 -0.4376  0.7414 -0.8679
  890MOL0     C22749   9.254   4.205   0.859 -0.5115 -0.5790 -0.3773
  890MOL0     C22750   9.115   4.260   0.815 -0.6396  0.0442  0.1949
  890MOL0     H22751   8.926   3.957   1.160  0.3235 -0.8897  0.4988
  890MOL0     H22752   8.748   3.803   1.182  1.4063  1.1953  1.8240
  890MOL0     H22753   8.620   3.653   1.026  2.7466 -0.7886 -1.5742
  890MOL0     H22754   8.605   3.607   1.201  2.2501  0.5028 -0.0865
  890MOL0     H22755   8.549   3.379   1.135 -1.3416  1.5426  2.4905
  890MOL0     H22756   8.430   3.502   1.104 -0.7049  1.5338 -0.4578
  890MOL0     H22757   8.550   3.479   0.864 -0.1971 -1.3114 -0.9722
  890MOL0     H22758   8.578   3.309   0.925 -2.2008 -1.9267 -1.9763
  890MOL0     H22759   8.309   3.442   0.928 -0.0191 -0.4759  0.6660
  890MOL0     H22760   8.387   3.351   0.794  1.1123  0.7067  0.7060
  890MOL0     H22761   8.352   3.235   1.076  1.4994 -0.1532 -1.1324
  890MOL0     H22762   8.375   3.146   0.917  0.6783  0.2342  0.1886
  890MOL0     H22763   8.148   3.111   0.983  0.5710 -0.3875 -0.9793
  890MOL0     H22764   8.114   3.278   0.957  0.6270  0.2270  1.3849
  890MOL0     H22765   8.220   3.079   0.750 -1.3813  1.0174 -2.1153
  890MOL0     H22766   8.197   3.250   0.720  3.7764 -1.4012  0.9338
  890MOL0     H22767   7.994   3.149   0.631 -0.0931  1.1850  0.8974
  890MOL0     H22768   7.977   3.034   0.760  0.1753 -0.7062  0.2101
  890MOL0     H22769   7.947   3.422   0.725  0.4408 -1.6046 -0.7038
  890MOL0     H22770   7.805   3.603   0.924  0.0474 -1.2415 -1.7889
  890MOL0     H22771   7.660   3.519   0.983  3.6026 -3.2229  2.5690
  890MOL0     H22772   7.752   3.570   0.695 -0.3726  1.2049  0.4204
  890MOL0     H22773   7.597   3.504   0.720  2.9568 -1.6083 -1.9756
  890MOL0     H22774   7.553   3.737   0.831 -1.0624 -1.6103  0.1352
  890MOL0     H22775   7.711   3.786   0.771  0.5001 -0.2506  1.4271
  890MOL0     H22776   7.642   3.811   0.559  0.7280  0.5078  0.2166
  890MOL0     H22777   7.610   3.649   0.551  1.4418 -0.4448  2.7871
  890MOL0     H22778   7.185   3.793   0.598 -2.9986  1.9401 -0.7564
  890MOL0     H22779   6.983   3.872   0.631  0.1307  1.5803 -1.2128
  890MOL0     H22780   6.942   4.036   0.655  0.0293  0.1408  1.1621
  890MOL0     H22781   6.965   3.933   0.798  0.8532 -3.3541  0.1474
  890MOL0     H22782   7.327   4.474   0.703  1.5089 -0.1657  2.9119
  890MOL0     H22783   7.292   4.726   0.724 -0.2630 -0.6707 -1.9811
  890MOL0     H22784   7.150   5.011   1.005  0.8312  0.8205  3.7414
  890MOL0     H22785   7.157   4.845   1.066  0.4537 -0.6797 -0.2151
  890MOL0     H22786   7.370   4.808   1.032 -0.7782  0.2099  1.3485
  890MOL0     H22787   7.399   4.942   0.920  2.7940 -0.3847  1.8742
  890MOL0     H22788   7.326   4.933   1.223  0.0129  0.4723 -1.5185
  890MOL0     H22789   7.326   5.083   1.130 -2.1516  0.2405  0.8999
  890MOL0     H22790   7.558   5.091   1.206 -0.4569  0.1957 -0.2032
  890MOL0     H22791   7.567   5.016   1.052  0.4661 -0.8473  0.1427
  890MOL0     H22792   7.514   4.842   1.301 -0.2693  0.3977  0.3182
  890MOL0     H22793   7.615   4.793   1.164 -3.4702 -0.8829  0.4667
  890MOL0     H22794   7.680   4.980   1.395 -0.5882 -0.5228  0.7680
  890MOL0     H22795   7.765   4.991   1.243  1.7638  0.7045  0.3944
  890MOL0     H22796   7.817   4.734   1.258  0.3143 -2.4624  1.9684
  890MOL0     H22797   7.736   4.720   1.398  0.3033 -1.2900 -0.3515
  890MOL0     H22798   7.919   4.886   1.482  0.5997 -4.3753  2.3279
  890MOL0     H22799   7.973   4.893   1.305  0.8818 -3.8555 -2.0220
  890MOL0     H22800   7.021   4.687   1.039 -1.5570 -0.2048 -1.5646
  890MOL0     H22801   7.065   4.420   1.031  0.0157 -1.5316 -2.1261
  890MOL0     H22802   7.420   4.134   0.862  0.7324 -1.9012  2.2134
  890MOL0     H22803   7.537   3.955   0.767 -0.4155  0.9984  3.5931
  890MOL0     H22804   9.015   3.480   1.048 -3.4978 -1.2793 -0.4885
  890MOL0     H22805   9.203   3.666   1.056  0.1513  0.4363  1.4976
  890MOL0     H22806   9.434   3.986   1.059 -0.7841 -0.4180  0.2963
  890MOL0     H22807   9.619   4.115   0.992  0.0848  0.3169 -2.4578
  890MOL0     H22808   9.701   4.453   0.719  2.1574 -1.9700  3.6108
  890MOL0     H22809   9.540   4.412   0.666  0.6604 -1.4893 -1.0826
  890MOL0     H22810   9.486   4.503   0.913  1.5765 -0.8294  1.2215
  890MOL0     H22811   9.555   4.628   0.783  0.8823 -1.1062 -0.6150
  890MOL0     H22812   9.704   4.504   1.016  0.1302 -0.7033 -0.9478
  890MOL0     H22813   9.761   4.622   0.894  0.7954 -2.3801 -0.6087
  890MOL0     H22814   9.513   4.685   1.060 -0.6410 -1.4170 -1.3944
  890MOL0     H22815   9.595   4.783   0.955 -0.9493 -1.1250  0.7307
  890MOL0     H22816   9.875   4.836   1.250  1.6144 -0.4777 -1.3217
  890MOL0     H22817   9.347   4.349   0.744 -1.8986  4.1398  2.9290
  890MOL0     H22818   9.125   4.362   0.778  4.3169  0.6655  2.3639
  890MOL0     H22819   9.069   4.191   0.744 -0.0957 -2.8958  2.4838
  890MOL0     H22820   9.039   4.262   0.894  1.4256  1.5046  2.3283
  891MOL0     O22821   0.964   3.350   5.891 -0.6786 -0.1437  0.1316
  891MOL0     C22822   0.937   3.465   5.928 -0.3487 -0.2967  0.3021
  891MOL0     O22823   0.827   3.536   5.886  0.0672 -0.2118 -0.4631
  891MOL0     C22824   0.717   3.467   5.840 -0.8024  0.5342 -0.5831
  891MOL0     C22825   0.733   3.401   5.717  0.4431  0.5387 -0.3827
  891MOL0     C22826   0.624   3.332   5.665 -0.4569  0.6901 -0.2439
  891MOL0     C22827   0.504   3.326   5.732 -0.1252  1.0852  0.2064
  891MOL0     O22828   0.384   3.252   5.700 -0.7505 -0.4046  0.0853
  891MOL0     C22829   0.402   3.148   5.603  0.9749 -0.7561 -0.1416
  891MOL0     C22830   0.296   3.039   5.620 -0.6667  0.2694  1.3359
  891MOL0     C22831   0.269   2.986   5.755  0.3730 -0.2055 -0.0680
  891MOL0     C22832   0.144   2.894   5.755 -0.1691  0.2091  0.7613
  891MOL0     C22833   0.164   2.773   5.664  0.5241 -0.1879 -0.5396
  891MOL0     C22834   0.051   2.681   5.693 -0.2346  0.0536 -1.9174
  891MOL0     C22835   0.031   2.595   5.573  0.0107 -0.5901 -0.5269
  891MOL0     C22836   0.137   2.487   5.544  0.4576  1.3105  0.4058
  891MOL0     N22837   0.092   2.415   5.429 -0.3747  1.4992  0.8181
  891MOL0     C22838   0.005   2.309   5.442  0.0780  0.0720 -0.0712
  891MOL0     C22839   0.017   2.236   5.332  1.0145 -0.8323  0.3433
  891MOL0     C22840  -0.037   2.097   5.305  0.0242  0.2892  0.3759
  891MOL0     C22841  -0.111   2.059   5.176 -0.7137  0.6541  0.0862
  891MOL0     C22842  -0.235   2.137   5.151  0.3150 -0.4684 -0.8547
  891MOL0     C22843  -0.314   2.086   5.032  0.7044 -0.5106 -0.5162
  891MOL0     O22844  -0.222   2.126   4.922 -0.9892  0.3996  0.2732
  891MOL0     C22845  -0.254   2.064   4.803  1.4557 -0.3598  1.1574
  891MOL0     C22846  -0.381   2.010   4.763 -0.5096 -0.2719  0.9100
  891MOL0     C22847  -0.404   1.962   4.634  0.3969 -0.9077  0.0987
  891MOL0     C22848  -0.539   1.893   4.609 -0.3145  0.0482  0.0361
  891MOL0     C22849  -0.302   1.969   4.545  0.3112 -0.0405  0.5846
  891MOL0     C22850  -0.314   1.914   4.407 -0.2665  0.8687 -0.0500
  891MOL0     O22851  -0.277   2.003   4.317 -0.7811  0.6880 -0.2400
  891MOL0     C22852  -0.309   1.986   4.187  0.4164  0.5723 -0.0569
  891MOL0     C22853  -0.236   2.052   4.085  0.7591 -0.2045  1.3678
  891MOL0     C22854  -0.255   2.017   3.948  0.5146  0.5154 -0.6151
  891MOL0     C22855  -0.341   1.921   3.916  0.4851 -0.8771  0.3126
  891MOL0     O22856  -0.350   1.871   3.784  0.2165  0.4208  0.8909
  891MOL0     C22857  -0.233   1.872   3.701 -0.7885 -1.0356 -0.4268
  891MOL0     C22858  -0.272   1.797   3.578 -0.6317  0.6884 -0.2084
  891MOL0     C22859  -0.183   1.824   3.464 -0.2148 -0.2041 -0.3392
  891MOL0     C22860  -0.182   1.737   3.328 -0.5661  0.0898 -1.6112
  891MOL0     C22861  -0.077   1.793   3.222  0.5924 -0.0918  0.6979
  891MOL0     C22862  -0.071   1.713   3.091 -0.1664 -0.6574  0.2111
  891MOL0     C22863  -0.201   1.709   3.006 -0.2701  0.1085  0.6304
  891MOL0     C22864  -0.169   1.622   2.877 -0.7947 -0.3140 -1.0825
  891MOL0    Cl22865  -0.298   1.635   2.765 -0.0998  0.1034  0.2841
  891MOL0     C22866  -0.423   1.862   4.010  0.0196 -0.7292 -0.4221
  891MOL0     C22867  -0.405   1.889   4.146  0.0643  0.1211  0.3896
  891MOL0     O22868  -0.300   1.791   4.391 -0.0194 -0.0703 -0.5055
  891MOL0     C22869  -0.177   2.033   4.579  0.3876  0.2668  0.0900
  891MOL0     C22870  -0.156   2.078   4.713 -0.4337 -0.1477 -0.0256
  891MOL0     N22871   0.108   2.310   5.238  0.4439  1.2587 -0.6593
  891MOL0     N22872   0.162   2.404   5.312 -0.6524  0.5111 -0.4274
  891MOL0     C22873   0.486   3.408   5.840 -0.3573  0.1245 -0.8088
  891MOL0     C22874   0.598   3.474   5.901  0.2404  0.9185  0.4237
  891MOL0     C22875   1.058   3.536   5.985  0.3742 -0.0202  0.3467
  891MOL0     C22876   1.082   3.662   5.935 -0.0317  0.5900 -0.4948
  891MOL0     C22877   1.181   3.742   6.002 -0.5623 -0.7119  0.8410
  891MOL0     C22878   1.251   3.702   6.113  0.5678  0.4392  0.9490
  891MOL0     O22879   1.328   3.793   6.179 -0.8500  0.5866 -0.5121
  891MOL0     C22880   1.338   3.777   6.325 -0.1957 -0.4580 -0.2910
  891MOL0     C22881   1.192   3.803   6.380 -0.1469 -0.8327  0.0154
  891MOL0     C22882   1.168   3.957   6.368  0.2360  0.4351  0.0476
  891MOL0     C22883   1.050   4.003   6.442  0.5656 -1.0669 -0.9032
  891MOL0     C22884   1.043   4.150   6.434  1.5260 -0.5570 -0.1017
  891MOL0     C22885   1.051   4.268   6.450 -0.0350 -1.2997 -0.2268
  891MOL0     C22886   1.231   3.568   6.154 -0.0215 -0.0905 -0.2543
  891MOL0     C22887   1.138   3.483   6.091  0.9474  0.9782  0.4157
  891MOL0     C22888   1.123   3.348   6.154  0.1342  0.1309 -0.6769
  891MOL0     H22889   0.836   3.400   5.682  1.2797  1.4057  1.8673
  891MOL0     H22890   0.640   3.266   5.580 -0.0574 -4.3129  3.3073
  891MOL0     H22891   0.504   3.109   5.607  2.9054  3.4282 -2.2385
  891MOL0     H22892   0.388   3.182   5.500  1.3695 -1.3463 -0.3957
  891MOL0     H22893   0.196   3.072   5.590 -0.5829  0.8484  1.6739
  891MOL0     H22894   0.339   2.950   5.574 -0.3427  1.2554 -0.3519
  891MOL0     H22895   0.354   2.941   5.806 -0.8320 -0.0853  2.1434
  891MOL0     H22896   0.253   3.073   5.820 -2.0966 -1.2928  0.9070
  891MOL0     H22897   0.123   2.849   5.853  1.0510  1.5295  1.6770
  891MOL0     H22898   0.061   2.952   5.713 -0.9084  0.1196  2.0298
  891MOL0     H22899   0.263   2.728   5.678  1.7615  2.3943 -0.2071
  891MOL0     H22900   0.160   2.797   5.557  0.4951 -2.8994 -1.2134
  891MOL0     H22901   0.087   2.622   5.778  0.2107  2.3180 -0.4326
  891MOL0     H22902  -0.041   2.737   5.713  0.0846 -0.5467  2.0185
  891MOL0     H22903   0.026   2.652   5.480 -2.3175  1.2130  0.5825
  891MOL0     H22904  -0.065   2.552   5.602 -0.5701 -1.1841 -3.1220
  891MOL0     H22905   0.229   2.544   5.531  1.8698 -0.2086  2.9079
  891MOL0     H22906   0.156   2.413   5.622  1.9458 -0.9567 -1.9694
  891MOL0     H22907  -0.057   2.284   5.528 -0.1303 -0.0916 -0.2685
  891MOL0     H22908  -0.122   2.089   5.373 -2.6369 -0.5608 -2.7758
  891MOL0     H22909   0.035   2.017   5.326  1.7339  0.5089 -3.5919
  891MOL0     H22910  -0.046   2.079   5.090 -0.2545  1.2803  0.5731
  891MOL0     H22911  -0.129   1.951   5.170 -4.5056  1.2168 -2.1806
  891MOL0     H22912  -0.305   2.113   5.231 -1.3567  1.6182 -1.5738
  891MOL0     H22913  -0.222   2.246   5.155  2.2498 -0.7000  0.3664
  891MOL0     H22914  -0.322   1.977   5.037  0.5990 -0.6852 -3.0501
  891MOL0     H22915  -0.415   2.128   5.023  0.3702 -1.3668 -0.8444
  891MOL0     H22916  -0.455   1.988   4.840 -1.9911  1.7709  0.1652
  891MOL0     H22917  -0.588   1.945   4.526 -0.9175 -0.8461 -0.1884
  891MOL0     H22918  -0.604   1.910   4.695  0.6460  1.3285  0.5345
  891MOL0     H22919  -0.534   1.785   4.596 -1.8264 -0.1800  1.1309
  891MOL0     H22920  -0.159   2.119   4.123  0.3722 -0.7911  3.3144
  891MOL0     H22921  -0.217   2.083   3.871 -3.7134  2.5170 -1.2731
  891MOL0     H22922  -0.217   1.975   3.666 -0.8848 -1.2687 -1.1735
  891MOL0     H22923  -0.157   1.831   3.767 -1.4480  1.1018  1.7865
  891MOL0     H22924  -0.288   1.689   3.589  0.6949  0.3426 -1.3356
  891MOL0     H22925  -0.370   1.834   3.547 -1.8989 -0.4635  2.1308
  891MOL0     H22926  -0.080   1.815   3.501  0.2060  0.1252 -1.3828
  891MOL0     H22927  -0.191   1.930   3.436  1.1454  0.1580  0.5284
  891MOL0     H22928  -0.283   1.743   3.286 -1.3790  1.4623  0.3609
  891MOL0     H22929  -0.160   1.634   3.359  1.5476  0.9379 -0.0169
  891MOL0     H22930  -0.097   1.899   3.208 -1.3061 -0.4908  0.0946
  891MOL0     H22931   0.022   1.786   3.267  0.7034  1.3463  0.6956
  891MOL0     H22932  -0.046   1.610   3.118  0.6096 -0.7049 -0.6247
  891MOL0     H22933   0.007   1.761   3.032 -1.6736  0.7553 -0.6980
  891MOL0     H22934  -0.250   1.806   2.996  1.5940  1.1445  1.0181
  891MOL0     H22935  -0.284   1.658   3.055 -0.3340  0.0245  0.4364
  891MOL0     H22936  -0.140   1.522   2.907 -3.8270 -0.2868  2.7379
  891MOL0     H22937  -0.078   1.662   2.831 -0.0445 -1.3068 -0.4717
  891MOL0     H22938  -0.503   1.789   3.999 -0.6795 -0.5830  2.7108
  891MOL0     H22939  -0.469   1.847   4.222  3.2332  1.3660  4.0754
  891MOL0     H22940  -0.098   2.029   4.505 -1.9059  1.9326 -2.6670
  891MOL0     H22941  -0.073   2.139   4.746 -4.3752  5.0373  1.7136
  891MOL0     H22942   0.392   3.392   5.891 -1.4091 -1.7153 -3.1201
  891MOL0     H22943   0.595   3.532   5.993  3.0911  1.2202  0.4261
  891MOL0     H22944   1.030   3.710   5.852 -4.0646 -0.4772  1.1725
  891MOL0     H22945   1.187   3.842   5.959  1.4438 -1.6232 -1.2476
  891MOL0     H22946   1.380   3.687   6.370  2.2009  0.5019 -0.4589
  891MOL0     H22947   1.393   3.863   6.364 -0.5838 -0.6926  0.7817
  891MOL0     H22948   1.186   3.778   6.487 -0.6284 -0.8852 -0.0211
  891MOL0     H22949   1.117   3.735   6.339  1.3526 -4.2863  2.4783
  891MOL0     H22950   1.258   4.011   6.400  1.6009  0.3643 -3.2678
  891MOL0     H22951   1.146   3.978   6.263 -2.6878 -2.3761 -0.0485
  891MOL0     H22952   1.057   3.972   6.547  0.3293  2.0146  0.1180
  891MOL0     H22953   0.963   3.966   6.389 -0.2438  4.5923 -4.3957
  891MOL0     H22954   1.082   4.368   6.475 -1.1528 -0.6760 -1.1617
  891MOL0     H22955   1.282   3.514   6.233  1.2515  0.1713 -0.8713
  891MOL0     H22956   1.176   3.338   6.249  4.5419  0.0230 -2.9010
  891MOL0     H22957   1.021   3.311   6.162  0.9088 -2.2179 -1.0338
  891MOL0     H22958   1.171   3.285   6.078  1.5057 -0.4880  0.6515
  892MOL0     O22959   8.327   6.852   0.652 -0.1925 -0.9030  0.0432
  892MOL0     C22960   8.215   6.905   0.625 -0.4081  0.7840  0.3490
  892MOL0     O22961   8.098   6.870   0.676 -0.0670 -0.3084 -0.1106
  892MOL0     C22962   8.108   6.768   0.765 -0.0486  1.2075  0.5515
  892MOL0     C22963   8.136   6.788   0.900  0.1990  0.7854 -0.0804
  892MOL0     C22964   8.131   6.679   0.988 -0.1923  0.1663  0.3068
  892MOL0     C22965   8.091   6.554   0.941  0.3953  0.0238 -0.5464
  892MOL0     O22966   8.069   6.453   1.029 -0.1756 -0.0183 -0.0029
  892MOL0     C22967   7.939   6.465   1.084 -0.5275  0.0831  0.4261
  892MOL0     C22968   7.894   6.331   1.133  0.4732  0.5602 -0.0727
  892MOL0     C22969   7.992   6.260   1.227 -0.0954  0.2799 -0.3420
  892MOL0     C22970   7.953   6.113   1.244  0.3592 -0.4078 -0.5881
  892MOL0     C22971   7.864   6.089   1.365 -0.2129 -0.8700  0.1648
  892MOL0     C22972   7.860   5.953   1.428  0.4670  0.9720  0.3887
  892MOL0     C22973   7.820   5.843   1.334  0.2014 -0.0851 -0.0886
  892MOL0     C22974   7.673   5.855   1.274  0.6351 -0.3086 -0.5476
  892MOL0     N22975   7.577   5.841   1.383  0.3189 -0.6666 -0.4381
  892MOL0     C22976   7.513   5.941   1.463  1.1122  0.0286  0.4184
  892MOL0     C22977   7.409   5.888   1.521  0.7126  0.5555 -1.2456
  892MOL0     C22978   7.293   5.960   1.582  0.0218  0.0020  0.2950
  892MOL0     C22979   7.333   6.090   1.661  0.2608 -0.0271 -0.5647
  892MOL0     C22980   7.322   6.215   1.569  0.5752 -0.0853  0.0532
  892MOL0     C22981   7.348   6.344   1.642 -0.0483 -0.4254  1.1000
  892MOL0     O22982   7.343   6.458   1.542 -0.3825 -0.1985 -0.3973
  892MOL0     C22983   7.462   6.516   1.502 -0.3441  0.3236 -0.3426
  892MOL0     C22984   7.447   6.629   1.423 -0.7018 -0.5828  0.2043
  892MOL0     C22985   7.561   6.697   1.377 -0.0673 -0.0350 -0.0365
  892MOL0     C22986   7.528   6.820   1.288  0.0643  0.7910  0.3248
  892MOL0     C22987   7.696   6.659   1.427  0.4782 -0.1019  0.5040
  892MOL0     C22988   7.816   6.725   1.378 -0.7727  0.4754  0.3046
  892MOL0     O22989   7.802   6.790   1.264  0.1252 -0.0530  0.4120
  892MOL0     C22990   7.884   6.894   1.209  0.1713  0.0514  0.5380
  892MOL0     C22991   7.825   6.967   1.106  0.5770 -0.5378  0.1641
  892MOL0     C22992   7.893   7.070   1.028  0.1858  0.4256 -1.1966
  892MOL0     C22993   8.025   7.104   1.070  0.0901  1.2818 -0.8896
  892MOL0     O22994   8.094   7.206   1.007  0.1219 -0.8134 -0.5093
  892MOL0     C22995   8.125   7.312   1.090  0.2911 -0.6543 -0.7005
  892MOL0     C22996   8.074   7.445   1.034 -1.1719  0.6773  0.3817
  892MOL0     C22997   8.166   7.504   0.927 -0.1054  1.1040  0.2853
  892MOL0     C22998   8.298   7.558   0.978  0.1737  0.5670 -0.8721
  892MOL0     C22999   8.380   7.616   0.862  0.8556  0.5283 -0.0428
  892MOL0     C23000   8.507   7.682   0.912  0.0153  0.5201 -0.5352
  892MOL0     C23001   8.574   7.767   0.801 -0.0355 -0.5589  0.1435
  892MOL0     C23002   8.622   7.671   0.687  0.8003  0.0570  0.5332
  892MOL0    Cl23003   8.662   7.763   0.537  0.0742  0.1946 -0.2761
  892MOL0     C23004   8.088   7.030   1.176  0.9360 -0.3460 -0.8352
  892MOL0     C23005   8.017   6.926   1.242  0.3775  0.8846  0.1285
  892MOL0     O23006   7.921   6.726   1.448  0.2361  0.8935  0.1969
  892MOL0     C23007   7.703   6.558   1.515 -0.4032 -0.5495  0.6968
  892MOL0     C23008   7.593   6.476   1.546  0.4827  0.1630  1.1689
  892MOL0     N23009   7.417   5.754   1.499 -0.9303 -0.2667 -0.4041
  892MOL0     N23010   7.517   5.732   1.418 -0.9515 -0.3203  0.1536
  892MOL0     C23011   8.048   6.534   0.805  0.0576 -0.2898  1.4712
  892MOL0     C23012   8.054   6.645   0.717 -0.8053 -0.3317  0.3897
  892MOL0     C23013   8.209   7.033   0.550 -0.6615  0.4237  0.4593
  892MOL0     C23014   8.104   7.120   0.569  0.4052  1.1353 -1.0610
  892MOL0     C23015   8.083   7.244   0.496 -0.8128  0.7970 -0.1963
  892MOL0     C23016   8.177   7.278   0.397 -0.2024 -0.0991 -0.3554
  892MOL0     O23017   8.177   7.395   0.324  0.5434  0.0112  0.6136
  892MOL0     C23018   8.142   7.520   0.385 -0.7621  0.3866 -0.0669
  892MOL0     C23019   8.016   7.592   0.326  0.4607  0.6202 -0.2423
  892MOL0     C23020   7.883   7.523   0.333  0.2760 -0.1448 -0.1440
  892MOL0     C23021   7.829   7.546   0.473 -0.1252 -0.2004  1.0758
  892MOL0     C23022   7.740   7.436   0.507 -0.5011  0.0328 -0.5880
  892MOL0     C23023   7.669   7.337   0.534  1.1608 -1.0734  0.3332
  892MOL0     C23024   8.294   7.199   0.390  0.1804 -0.2319 -0.5330
  892MOL0     C23025   8.300   7.067   0.447 -0.4496 -0.4063  0.0160
  892MOL0     C23026   8.424   6.990   0.411 -0.5448 -1.1719  0.7093
  892MOL0     H23027   8.159   6.892   0.921  3.1553  0.7820 -2.6099
  892MOL0     H23028   8.142   6.680   1.096  3.1862  0.6225  0.0740
  892MOL0     H23029   7.869   6.519   1.020  0.9435  1.6580  0.0558
  892MOL0     H23030   7.942   6.523   1.177  0.6926  0.0422  0.4288
  892MOL0     H23031   7.808   6.345   1.199  2.9526  0.4148  3.4363
  892MOL0     H23032   7.878   6.265   1.047  0.0701  0.2940  0.2023
  892MOL0     H23033   8.091   6.285   1.187  1.3764 -0.0422  2.8178
  892MOL0     H23034   8.002   6.311   1.324 -0.0098 -1.9719  0.8971
  892MOL0     H23035   7.913   6.082   1.147 -1.3822  2.4376 -0.8895
  892MOL0     H23036   8.043   6.057   1.270  1.0102  0.0804 -1.7151
  892MOL0     H23037   7.764   6.132   1.349  0.5748  0.5900 -1.1078
  892MOL0     H23038   7.917   6.137   1.448 -1.0958 -1.4612  1.0914
  892MOL0     H23039   7.963   5.930   1.457 -0.0071  0.7470  1.9528
  892MOL0     H23040   7.815   5.951   1.527  0.1920  0.2483  0.2525
  892MOL0     H23041   7.840   5.742   1.372 -0.2083  0.5518  1.9287
  892MOL0     H23042   7.886   5.841   1.246  1.0600  2.1183  0.4632
  892MOL0     H23043   7.663   5.948   1.217 -1.9550  0.5978  1.1972
  892MOL0     H23044   7.662   5.781   1.194  1.0221 -0.6204 -0.3178
  892MOL0     H23045   7.524   6.048   1.449  0.7863 -0.0041 -0.1236
  892MOL0     H23046   7.254   5.889   1.656 -2.2837 -0.5677 -1.3245
  892MOL0     H23047   7.218   5.983   1.505  1.2323  2.4341 -0.2578
  892MOL0     H23048   7.279   6.111   1.754  1.3808  3.4141 -0.5419
  892MOL0     H23049   7.438   6.078   1.692  0.6768 -0.7595 -2.1764
  892MOL0     H23050   7.395   6.213   1.488  0.5572  1.5555 -0.0260
  892MOL0     H23051   7.218   6.205   1.539 -0.1209  0.6532  2.0450
  892MOL0     H23052   7.265   6.363   1.710 -1.0362 -0.4806 -0.0446
  892MOL0     H23053   7.434   6.344   1.708  1.1584  2.7291 -0.2525
  892MOL0     H23054   7.346   6.648   1.388 -0.2439 -0.8122 -1.3097
  892MOL0     H23055   7.419   6.827   1.284 -0.1423 -2.0600 -1.8802
  892MOL0     H23056   7.582   6.807   1.193 -1.4959 -1.2651 -0.3423
  892MOL0     H23057   7.575   6.907   1.336  0.0092  1.6546 -1.1102
  892MOL0     H23058   7.718   6.957   1.091  0.5360  1.0547 -0.8632
  892MOL0     H23059   7.845   7.138   0.959 -0.8317  2.6939  1.5468
  892MOL0     H23060   8.081   7.306   1.190 -0.3870  2.4442 -0.7133
  892MOL0     H23061   8.232   7.311   1.112  0.2689 -0.6479 -0.5869
  892MOL0     H23062   7.980   7.425   0.982  0.0828 -0.7702 -1.4564
  892MOL0     H23063   8.060   7.505   1.125 -0.2624 -1.8987  2.3509
  892MOL0     H23064   8.116   7.577   0.863 -4.5380 -2.6363 -1.1000
  892MOL0     H23065   8.202   7.429   0.856 -0.5884  1.9031 -0.8227
  892MOL0     H23066   8.349   7.472   1.023 -0.7745  1.3021  1.7979
  892MOL0     H23067   8.293   7.638   1.052 -3.7264 -0.6207  0.4060
  892MOL0     H23068   8.400   7.531   0.796  1.9419  0.7661 -0.0414
  892MOL0     H23069   8.316   7.683   0.803  0.2433  0.3317  0.3870
  892MOL0     H23070   8.582   7.607   0.939 -0.0189 -0.1182 -2.1173
  892MOL0     H23071   8.497   7.737   1.006  0.9135  0.8265 -0.6129
  892MOL0     H23072   8.652   7.828   0.849 -0.0581  0.4007 -1.0096
  892MOL0     H23073   8.499   7.835   0.762 -2.2566 -3.3126 -0.6943
  892MOL0     H23074   8.532   7.614   0.660  0.9399 -0.2110  0.6259
  892MOL0     H23075   8.703   7.606   0.720  0.9201  0.9177  2.0307
  892MOL0     H23076   8.186   7.054   1.215 -0.9164  2.0112  3.0442
  892MOL0     H23077   8.070   6.855   1.305 -0.9204 -0.9540 -0.7782
  892MOL0     H23078   7.795   6.541   1.570 -0.4367  0.9581  1.2807
  892MOL0     H23079   7.605   6.387   1.607 -0.4180  0.6315  2.0477
  892MOL0     H23080   8.004   6.436   0.787  1.8608 -1.0472  0.9216
  892MOL0     H23081   8.026   6.647   0.612 -0.6245 -0.2676  0.3412
  892MOL0     H23082   8.032   7.089   0.645  2.4321  1.4077  1.0664
  892MOL0     H23083   7.997   7.308   0.515 -0.5982  1.2201 -0.6321
  892MOL0     H23084   8.136   7.502   0.493  0.4237 -0.0676 -0.0583
  892MOL0     H23085   8.225   7.590   0.371 -0.1790 -0.0764  0.9499
  892MOL0     H23086   8.036   7.586   0.219  0.2585 -0.7397 -0.2117
  892MOL0     H23087   8.015   7.700   0.346  2.1700  0.4491  0.9444
  892MOL0     H23088   7.819   7.565   0.255  0.0087  1.1690  0.7591
  892MOL0     H23089   7.898   7.414   0.327  1.7687  0.1111 -3.5426
  892MOL0     H23090   7.777   7.642   0.469  1.3965  0.6626 -2.5290
  892MOL0     H23091   7.900   7.559   0.555  2.1495 -0.8198 -0.6875
  892MOL0     H23092   7.594   7.262   0.550 -2.4871  1.7053 -2.2316
  892MOL0     H23093   8.372   7.214   0.317 -1.2766 -1.5084 -2.4383
  892MOL0     H23094   8.504   7.017   0.482  2.2295 -0.7780 -2.3430
  892MOL0     H23095   8.419   6.881   0.415  1.7866 -1.3843 -0.2880
  892MOL0     H23096   8.462   7.013   0.311 -0.7108 -0.6907  0.7517
  893MOL0     O23097   2.076   3.016   0.675 -0.4569  0.1186 -0.4375
  893MOL0     C23098   2.024   3.095   0.756  0.1860 -0.2736 -0.7279
  893MOL0     O23099   1.899   3.124   0.764 -0.0040  0.2806  0.7588
  893MOL0     C23100   1.806   3.048   0.711 -1.6901 -0.0895  0.2848
  893MOL0     C23101   1.708   3.101   0.628  0.4673 -0.2654  0.0192
  893MOL0     C23102   1.626   3.018   0.558  0.7050  0.8572  0.5304
  893MOL0     C23103   1.631   2.875   0.570 -0.2597 -0.2606 -0.2155
  893MOL0     O23104   1.542   2.817   0.486 -0.1972  0.2285 -0.3790
  893MOL0     C23105   1.518   2.677   0.485  0.1010 -0.4255 -0.4564
  893MOL0     C23106   1.408   2.654   0.385 -0.8717  1.1999  0.1165
  893MOL0     C23107   1.265   2.666   0.418 -0.2889  0.1579 -0.0253
  893MOL0     C23108   1.225   2.780   0.502  0.3972 -0.0168 -0.0560
  893MOL0     C23109   1.088   2.775   0.570  0.9308 -0.3585 -0.1656
  893MOL0     C23110   1.054   2.913   0.628  0.2102 -0.3767 -0.5825
  893MOL0     C23111   1.149   2.947   0.739  0.2627  0.4597 -0.3194
  893MOL0     C23112   1.143   3.101   0.761  0.1157  0.5579  0.7937
  893MOL0     N23113   1.232   3.151   0.865 -0.1878  0.2164  0.3537
  893MOL0     C23114   1.359   3.111   0.891  0.4711  0.3568 -0.1685
  893MOL0     C23115   1.378   3.142   1.024 -0.1302 -0.9432 -0.3191
  893MOL0     C23116   1.511   3.116   1.102  0.1481 -0.5960  0.1085
  893MOL0     C23117   1.611   3.217   1.047 -0.4102  0.5687 -0.5995
  893MOL0     C23118   1.751   3.175   1.099  0.7332 -0.5926 -0.0804
  893MOL0     C23119   1.850   3.291   1.115  0.0690 -0.2766  0.1334
  893MOL0     O23120   1.832   3.369   0.992 -1.0191 -0.4368 -0.2776
  893MOL0     C23121   1.852   3.504   0.995 -0.6227 -1.0615 -0.9928
  893MOL0     C23122   1.789   3.572   0.892  0.1766  0.5436 -0.3515
  893MOL0     C23123   1.809   3.712   0.870  1.2998  0.5347 -0.2854
  893MOL0     C23124   1.731   3.761   0.754 -0.3995  0.6877 -1.1170
  893MOL0     C23125   1.871   3.791   0.977 -0.0063  0.4841  0.7116
  893MOL0     C23126   1.865   3.937   0.994 -0.5404 -1.4068 -0.0199
  893MOL0     O23127   1.918   3.988   1.107 -0.1881 -0.0774  0.5539
  893MOL0     C23128   1.926   4.129   1.115  0.5231  0.5510  0.3040
  893MOL0     C23129   1.815   4.206   1.162 -0.5599  0.5768  0.2599
  893MOL0     C23130   1.828   4.341   1.188 -0.7858  0.4991 -0.8051
  893MOL0     C23131   1.946   4.411   1.163  0.3405  0.4846 -0.2992
  893MOL0     O23132   1.969   4.547   1.177  0.4498 -0.2417  0.2197
  893MOL0     C23133   1.889   4.611   1.273  0.1286  0.3608  0.2341
  893MOL0     C23134   1.979   4.688   1.375  0.5066 -0.3485 -0.1536
  893MOL0     C23135   2.044   4.591   1.482  0.1521 -0.1864 -0.2895
  893MOL0     C23136   1.982   4.583   1.618 -0.7078 -0.6862  0.0911
  893MOL0     C23137   1.909   4.452   1.623  0.3941  0.5273  0.3336
  893MOL0     C23138   1.830   4.455   1.758 -0.8361 -0.3592  0.1814
  893MOL0     C23139   1.756   4.315   1.778 -0.3298  0.3823  0.4023
  893MOL0     C23140   1.708   4.307   1.921 -0.9632  0.1139 -1.1883
  893MOL0    Cl23141   1.595   4.173   1.961 -0.5174  0.1521 -0.1191
  893MOL0     C23142   2.055   4.331   1.116  0.7465  0.0105 -0.0745
  893MOL0     C23143   2.047   4.190   1.094  0.9519 -0.9394 -0.3204
  893MOL0     O23144   1.838   4.003   0.898 -0.1309 -0.2526  0.8366
  893MOL0     C23145   1.931   3.719   1.089  1.4264 -0.0708  0.7071
  893MOL0     C23146   1.920   3.577   1.094  0.0149 -0.2821 -0.3249
  893MOL0     N23147   1.271   3.209   1.071 -0.3709 -0.2942 -0.4891
  893MOL0     N23148   1.183   3.211   0.983  0.1443 -0.1569  0.3357
  893MOL0     C23149   1.733   2.823   0.648  0.0451  0.7864  0.0087
  893MOL0     C23150   1.809   2.899   0.725  1.0993 -0.4094 -0.2018
  893MOL0     C23151   2.108   3.174   0.850 -0.9223  0.2331  0.1742
  893MOL0     C23152   2.181   3.114   0.954  0.5309  0.4701  0.4945
  893MOL0     C23153   2.247   3.197   1.042  0.1382  0.0555  0.1606
  893MOL0     C23154   2.247   3.339   1.026 -0.4209  0.1751  0.3746
  893MOL0     O23155   2.315   3.419   1.120  0.9257 -0.3213  0.0881
  893MOL0     C23156   2.296   3.388   1.266 -0.3897 -1.4714 -0.1426
  893MOL0     C23157   2.173   3.439   1.325  0.7134  0.2455  0.2162
  893MOL0     C23158   2.186   3.465   1.473  0.9803  0.2157  0.0982
  893MOL0     C23159   2.065   3.449   1.551  0.3489 -0.3355 -0.1310
  893MOL0     C23160   1.976   3.559   1.525  0.9799  0.5712 -0.4721
  893MOL0     C23161   1.909   3.650   1.500  1.1262  0.4393 -0.0945
  893MOL0     C23162   2.197   3.392   0.914  0.5243 -0.4504  0.7752
  893MOL0     C23163   2.119   3.313   0.829 -1.2945  0.1786 -1.3154
  893MOL0     C23164   2.055   3.383   0.717 -0.2230  0.8698 -0.2165
  893MOL0     H23165   1.698   3.206   0.603 -1.4961 -0.6151 -0.8273
  893MOL0     H23166   1.542   3.055   0.500  0.3951  3.2877  2.4022
  893MOL0     H23167   1.497   2.634   0.584  0.7402 -1.6162 -0.8183
  893MOL0     H23168   1.604   2.620   0.451 -0.0245 -0.2429 -1.0907
  893MOL0     H23169   1.433   2.713   0.297  1.4674  0.4418  0.2184
  893MOL0     H23170   1.418   2.546   0.368 -1.9485  0.7089  2.2366
  893MOL0     H23171   1.208   2.682   0.326  0.5253 -1.1572 -0.7761
  893MOL0     H23172   1.223   2.576   0.465 -1.1926 -0.3195 -1.6779
  893MOL0     H23173   1.295   2.793   0.585 -0.7043 -0.4870  0.9671
  893MOL0     H23174   1.242   2.874   0.448  1.5502  1.4555  2.6591
  893MOL0     H23175   1.086   2.698   0.647 -1.3103  0.5160  0.7404
  893MOL0     H23176   1.004   2.760   0.502 -0.6717  0.8467  1.4522
  893MOL0     H23177   1.057   2.986   0.546 -4.6441  2.6147  1.4394
  893MOL0     H23178   0.951   2.922   0.663  0.7408  0.4180  0.8716
  893MOL0     H23179   1.252   2.920   0.715 -0.2569 -0.9108 -1.1527
  893MOL0     H23180   1.115   2.899   0.831 -0.0301  1.2413 -0.0160
  893MOL0     H23181   1.168   3.154   0.668  0.5149  0.5876  0.9161
  893MOL0     H23182   1.044   3.138   0.791 -0.0557  2.5188 -1.8305
  893MOL0     H23183   1.416   3.054   0.818  1.6395  1.7739 -0.4147
  893MOL0     H23184   1.548   3.014   1.084 -2.2323 -1.7500  1.3560
  893MOL0     H23185   1.495   3.121   1.210  0.8465 -2.7118  0.3667
  893MOL0     H23186   1.606   3.214   0.938 -0.0981 -0.3897 -0.5961
  893MOL0     H23187   1.565   3.311   1.080 -0.2513  0.3038  0.4267
  893MOL0     H23188   1.732   3.123   1.193 -0.4082 -0.5518 -0.2843
  893MOL0     H23189   1.789   3.104   1.025 -3.1628 -3.7827  0.6630
  893MOL0     H23190   1.834   3.353   1.203 -2.3025 -1.2154  0.4425
  893MOL0     H23191   1.951   3.250   1.125  1.5496  2.9517 -0.2012
  893MOL0     H23192   1.758   3.503   0.814 -1.5048 -2.4029  2.6680
  893MOL0     H23193   1.753   3.864   0.726  2.1494  0.5456  0.0872
  893MOL0     H23194   1.623   3.759   0.766 -0.5977 -1.3880 -2.7824
  893MOL0     H23195   1.743   3.697   0.666  0.0572 -0.5456 -0.1921
  893MOL0     H23196   1.723   4.150   1.172  1.9127 -4.4197 -1.5176
  893MOL0     H23197   1.740   4.397   1.217  0.1932  0.3257  2.9237
  893MOL0     H23198   1.833   4.695   1.230  2.2513  0.8736 -1.7155
  893MOL0     H23199   1.826   4.541   1.329 -0.2610  2.5726  2.7836
  893MOL0     H23200   2.055   4.750   1.326 -1.1033 -0.6621 -3.3039
  893MOL0     H23201   1.912   4.758   1.427  0.8764 -0.4105  0.4086
  893MOL0     H23202   2.140   4.639   1.504  0.3058 -1.8864  3.4263
  893MOL0     H23203   2.064   4.498   1.428  0.7103  0.3430 -1.0236
  893MOL0     H23204   1.917   4.669   1.635 -1.0626 -1.2709  1.9826
  893MOL0     H23205   2.064   4.581   1.690  1.8476 -2.0782 -2.6478
  893MOL0     H23206   1.836   4.436   1.543  0.9686 -5.0518  0.5565
  893MOL0     H23207   1.976   4.367   1.611  0.1186  0.3524  0.0312
  893MOL0     H23208   1.767   4.543   1.772  1.5356  1.0775  3.2100
  893MOL0     H23209   1.896   4.458   1.845 -4.5934 -1.8570  3.3648
  893MOL0     H23210   1.830   4.236   1.764  2.2928  3.1202 -2.7473
  893MOL0     H23211   1.663   4.300   1.723 -1.5281 -2.9070  3.0174
  893MOL0     H23212   1.661   4.400   1.956 -0.6838 -0.1866  0.0392
  893MOL0     H23213   1.803   4.297   1.975 -1.3042 -1.9937 -0.9170
  893MOL0     H23214   2.155   4.372   1.106  0.3825  1.0201  0.2866
  893MOL0     H23215   2.134   4.135   1.061  2.4329 -1.6062  4.0683
  893MOL0     H23216   1.970   3.771   1.176  1.0445 -2.3304  2.3398
  893MOL0     H23217   1.986   3.523   1.161 -0.0039 -0.9156 -0.8074
  893MOL0     H23218   1.759   2.718   0.651  1.4764  1.1319  0.3918
  893MOL0     H23219   1.887   2.849   0.781  0.0270  0.7717  2.5396
  893MOL0     H23220   2.189   3.006   0.968 -1.3787 -0.1481 -2.3007
  893MOL0     H23221   2.289   3.157   1.134 -0.8668 -1.1283  0.1328
  893MOL0     H23222   2.306   3.283   1.294 -1.4931 -1.9511 -1.4044
  893MOL0     H23223   2.376   3.443   1.318 -0.2302 -2.0975  0.2788
  893MOL0     H23224   2.103   3.363   1.289 -2.2998  2.2961  1.3028
  893MOL0     H23225   2.154   3.540   1.285  2.0014 -0.1914 -1.6456
  893MOL0     H23226   2.262   3.398   1.515  1.0492 -0.1929 -0.6521
  893MOL0     H23227   2.221   3.567   1.488 -0.3521  0.9961 -1.7044
  893MOL0     H23228   2.104   3.444   1.653 -0.9085  0.2760  0.3995
  893MOL0     H23229   2.014   3.354   1.531  4.1114 -2.5042 -0.2974
  893MOL0     H23230   1.859   3.743   1.480 -1.1312 -0.6306  0.2555
  893MOL0     H23231   2.212   3.497   0.894 -0.1623 -0.8075 -1.9903
  893MOL0     H23232   2.130   3.380   0.638  0.1291 -0.1951  0.1439
  893MOL0     H23233   1.966   3.337   0.673 -0.7934 -2.9881  4.1850
  893MOL0     H23234   2.024   3.484   0.744  0.1863  0.8121  0.4826
  894MOL0     O23235  11.399   4.381   2.136 -0.9167  0.1887 -0.0327
  894MOL0     C23236  11.521   4.386   2.128  0.7840 -1.2065 -0.2289
  894MOL0     O23237  11.606   4.291   2.083  0.1730 -0.1038  0.6588
  894MOL0     C23238  11.576   4.160   2.059  1.2526 -0.7504  0.3413
  894MOL0     C23239  11.454   4.099   2.071  0.2173  0.8210 -0.5523
  894MOL0     C23240  11.428   3.959   2.054 -1.4437 -0.3427  0.2835
  894MOL0     C23241  11.534   3.882   2.004  0.4869  0.3044  0.7489
  894MOL0     O23242  11.539   3.745   1.993 -0.0752  0.7740 -0.3170
  894MOL0     C23243  11.415   3.676   1.979 -0.3980  0.3780 -0.7994
  894MOL0     C23244  11.343   3.711   1.856  0.3731  0.3412  0.4199
  894MOL0     C23245  11.192   3.771   1.888  0.1730  0.3958 -0.1998
  894MOL0     C23246  11.087   3.724   1.793  0.6934  0.0205 -0.2122
  894MOL0     C23247  10.944   3.779   1.833 -0.4675 -0.5883  0.9791
  894MOL0     C23248  10.873   3.708   1.941  0.2685 -0.3266 -0.2616
  894MOL0     C23249  10.800   3.578   1.889  0.2077  1.0329  0.4706
  894MOL0     C23250  10.702   3.530   1.993 -0.0086  0.1468  0.1443
  894MOL0     N23251  10.622   3.417   1.943 -0.5649  0.2155 -0.2696
  894MOL0     C23252  10.508   3.385   2.003  0.9532 -0.0654  0.3911
  894MOL0     C23253  10.429   3.305   1.921 -0.7120 -0.4763 -0.5506
  894MOL0     C23254  10.277   3.270   1.939 -0.5312  0.8926 -0.0016
  894MOL0     C23255  10.172   3.350   1.863  0.2157  0.3517 -0.8618
  894MOL0     C23256  10.166   3.491   1.924  1.5892 -0.5177 -0.7292
  894MOL0     C23257  10.045   3.557   1.860  0.4060  0.1358 -0.2334
  894MOL0     O23258  10.016   3.698   1.894 -0.6223  0.2294  0.1025
  894MOL0     C23259  10.088   3.806   1.853 -1.1325 -0.0404  0.7651
  894MOL0     C23260  10.050   3.932   1.900 -0.1656 -0.6809  0.1125
  894MOL0     C23261  10.109   4.047   1.849 -1.0981  0.1208  0.4029
  894MOL0     C23262  10.090   4.172   1.922  0.8823  0.2611 -0.4522
  894MOL0     C23263  10.198   4.051   1.736 -0.9105 -0.1650 -0.6189
  894MOL0     C23264  10.247   4.175   1.661 -0.2947  0.0860 -0.1561
  894MOL0     O23265  10.290   4.145   1.530  0.3675 -0.4006 -0.6345
  894MOL0     C23266  10.362   4.242   1.459 -0.2094  0.1125 -0.1984
  894MOL0     C23267  10.380   4.216   1.316 -0.0233 -0.8693  0.1733
  894MOL0     C23268  10.475   4.291   1.244  0.3076 -0.2855  0.1819
  894MOL0     C23269  10.551   4.393   1.302 -0.7671 -0.1554 -0.3952
  894MOL0     O23270  10.658   4.463   1.238 -0.0667  0.0036  0.4699
  894MOL0     C23271  10.731   4.380   1.148 -0.1492  0.3933  0.8372
  894MOL0     C23272  10.863   4.437   1.100  0.1053 -0.6283  0.2632
  894MOL0     C23273  10.981   4.462   1.194 -0.0726 -0.0811 -0.7737
  894MOL0     C23274  11.093   4.516   1.102  0.3332 -0.1079 -0.5196
  894MOL0     C23275  11.210   4.541   1.195  0.0494 -1.0330 -0.1214
  894MOL0     C23276  11.286   4.418   1.231  0.0238 -0.1639 -0.6934
  894MOL0     C23277  11.425   4.442   1.288 -0.9058  0.0557  0.3577
  894MOL0     C23278  11.459   4.360   1.411  0.5579 -0.8543  0.1237
  894MOL0    Cl23279  11.634   4.356   1.426 -0.1052  0.3144 -0.7874
  894MOL0     C23280  10.543   4.419   1.443 -0.3491 -0.9303 -0.2625
  894MOL0     C23281  10.445   4.344   1.518 -1.0413 -0.3433  0.2524
  894MOL0     O23282  10.224   4.294   1.702 -0.5331  0.2240 -0.0351
  894MOL0     C23283  10.228   3.923   1.693  0.0317 -0.1757  0.5322
  894MOL0     C23284  10.188   3.809   1.754 -0.1086  0.0579 -0.1783
  894MOL0     N23285  10.498   3.302   1.804  0.4307 -0.6036  0.0000
  894MOL0     N23286  10.616   3.367   1.822  0.1222 -0.0572 -0.1010
  894MOL0     C23287  11.655   3.942   1.970  0.7564  0.4008 -0.0323
  894MOL0     C23288  11.674   4.080   1.997 -0.3055 -0.8069 -0.0871
  894MOL0     C23289  11.576   4.514   2.172 -0.0886  0.0550 -1.3207
  894MOL0     C23290  11.679   4.510   2.263  0.1709  0.6508 -1.0976
  894MOL0     C23291  11.750   4.627   2.305  0.6713 -1.0857 -0.2190
  894MOL0     C23292  11.719   4.752   2.255 -0.0766  1.8276 -0.6577
  894MOL0     O23293  11.781   4.857   2.312 -0.5653  0.7193  0.3283
  894MOL0     C23294  11.712   4.939   2.409 -0.3569 -0.2515 -0.4375
  894MOL0     C23295  11.691   4.852   2.536 -0.1780  0.3946 -0.8492
  894MOL0     C23296  11.711   4.925   2.678 -0.1796  0.0041  1.0361
  894MOL0     C23297  11.656   5.069   2.688 -0.2503  0.2867  0.0293
  894MOL0     C23298  11.529   5.080   2.619 -0.2319 -0.0798  0.3148
  894MOL0     C23299  11.418   5.075   2.557 -0.6582 -0.1750  0.3904
  894MOL0     C23300  11.614   4.756   2.163 -0.1398 -0.2745  0.3578
  894MOL0     C23301  11.545   4.640   2.117 -0.5032 -0.5572 -0.0707
  894MOL0     C23302  11.448   4.647   2.004 -0.0562 -0.7623  0.9329
  894MOL0     H23303  11.368   4.154   2.107 -1.1037 -1.6604  0.3044
  894MOL0     H23304  11.330   3.925   2.085  0.3032 -2.9728  3.5757
  894MOL0     H23305  11.356   3.702   2.067  0.0299  1.6784 -0.8783
  894MOL0     H23306  11.433   3.569   1.990 -2.8462 -0.2891 -2.2907
  894MOL0     H23307  11.407   3.784   1.806  1.6533 -0.3099  1.0579
  894MOL0     H23308  11.339   3.621   1.794  0.3244 -0.4800  1.5832
  894MOL0     H23309  11.167   3.745   1.992 -0.8457 -0.6203 -0.6860
  894MOL0     H23310  11.206   3.879   1.889  1.1012  0.2864 -0.8430
  894MOL0     H23311  11.106   3.755   1.690  0.3598  0.8220 -0.0399
  894MOL0     H23312  11.072   3.616   1.785 -0.6352  0.2252 -0.7583
  894MOL0     H23313  10.890   3.767   1.739  1.6260 -0.1752 -0.3434
  894MOL0     H23314  10.953   3.886   1.855  0.8242 -0.8947  2.0229
  894MOL0     H23315  10.937   3.687   2.027 -2.0121 -0.3587  1.5170
  894MOL0     H23316  10.796   3.765   1.994  0.1774 -2.5182  2.1955
  894MOL0     H23317  10.866   3.491   1.880 -3.2126 -1.7585 -0.3268
  894MOL0     H23318  10.753   3.606   1.794  0.5513 -1.6111 -0.5617
  894MOL0     H23319  10.766   3.493   2.074  3.7529 -0.1881 -2.6852
  894MOL0     H23320  10.641   3.611   2.034 -0.4300 -1.7230  3.5885
  894MOL0     H23321  10.475   3.398   2.106 -2.3737  0.2442 -0.5887
  894MOL0     H23322  10.256   3.274   2.047 -0.1491 -0.2028  0.1268
  894MOL0     H23323  10.265   3.171   1.894  3.3020  0.4419 -0.3985
  894MOL0     H23324  10.199   3.365   1.758  0.8871  0.1661 -0.7164
  894MOL0     H23325  10.075   3.300   1.871  0.1000  0.6746 -0.2088
  894MOL0     H23326  10.155   3.498   2.032  2.0838 -0.6039 -0.6721
  894MOL0     H23327  10.260   3.544   1.907  1.4954  0.7830  2.3311
  894MOL0     H23328  10.055   3.546   1.751 -1.8837 -0.9009 -0.4079
  894MOL0     H23329   9.957   3.494   1.881  0.3981  0.4545  0.7467
  894MOL0     H23330   9.970   3.936   1.973  1.8264  1.7785  2.3559
  894MOL0     H23331  10.052   4.145   2.021  0.1745 -0.7677 -0.9860
  894MOL0     H23332  10.005   4.237   1.902  0.2357  1.0729  3.9458
  894MOL0     H23333  10.183   4.228   1.932  1.8008 -1.4944  1.9281
  894MOL0     H23334  10.313   4.146   1.268 -2.1861  1.5130 -0.4789
  894MOL0     H23335  10.497   4.262   1.141 -1.1034 -0.9172  0.0383
  894MOL0     H23336  10.744   4.289   1.207 -3.3477  0.0774  1.2380
  894MOL0     H23337  10.670   4.372   1.058 -0.3020 -3.4266  1.1146
  894MOL0     H23338  10.905   4.373   1.023  0.3008 -0.5789  0.3295
  894MOL0     H23339  10.828   4.536   1.070 -0.6506 -0.5910  1.1887
  894MOL0     H23340  11.004   4.366   1.241 -4.0008 -0.2497  1.1911
  894MOL0     H23341  10.965   4.538   1.270  1.1968  0.5667 -1.1288
  894MOL0     H23342  11.067   4.608   1.050 -1.7434 -1.1566 -1.4845
  894MOL0     H23343  11.117   4.440   1.027 -2.7807 -1.8261  0.0361
  894MOL0     H23344  11.264   4.617   1.136 -2.2841  1.8832  1.2259
  894MOL0     H23345  11.182   4.589   1.289 -2.3964 -0.3846 -1.1213
  894MOL0     H23346  11.304   4.360   1.140 -0.2730  0.0179 -0.8703
  894MOL0     H23347  11.230   4.354   1.299  2.0320 -0.3141  0.9150
  894MOL0     H23348  11.428   4.547   1.319 -4.5524 -0.7161  4.0819
  894MOL0     H23349  11.491   4.421   1.203 -2.0677 -0.6305 -0.4138
  894MOL0     H23350  11.429   4.256   1.395  2.5993 -1.0970 -3.2888
  894MOL0     H23351  11.400   4.393   1.497  1.7622 -0.0667  0.6772
  894MOL0     H23352  10.607   4.494   1.486 -0.2238  0.0103 -1.9942
  894MOL0     H23353  10.437   4.370   1.623 -0.6365 -3.0477  1.0413
  894MOL0     H23354  10.299   3.921   1.611  0.4326 -0.2295  0.8723
  894MOL0     H23355  10.217   3.716   1.704 -3.1233  0.4380 -2.9762
  894MOL0     H23356  11.736   3.880   1.931  1.6397  2.8842 -2.4654
  894MOL0     H23357  11.766   4.129   1.969 -1.4583  1.7943  0.3487
  894MOL0     H23358  11.697   4.419   2.319 -0.8805  0.3907 -1.1627
  894MOL0     H23359  11.830   4.620   2.378  0.3425 -1.9580  0.0671
  894MOL0     H23360  11.783   5.016   2.438  0.1323 -0.5225 -0.8872
  894MOL0     H23361  11.613   4.976   2.380 -1.2995 -2.3461 -0.1352
  894MOL0     H23362  11.762   4.769   2.538 -1.0396 -0.3542 -0.9225
  894MOL0     H23363  11.587   4.818   2.527 -0.1955 -0.3129  1.4169
  894MOL0     H23364  11.659   4.853   2.742 -3.9188 -1.6956 -3.3077
  894MOL0     H23365  11.818   4.923   2.698  0.0350 -2.3954 -0.0746
  894MOL0     H23366  11.735   5.133   2.647 -1.3897  4.1416  3.1996
  894MOL0     H23367  11.632   5.098   2.791 -0.4886 -1.4522  0.4980
  894MOL0     H23368  11.328   5.073   2.497 -0.4112  1.5713 -0.1212
  894MOL0     H23369  11.587   4.856   2.132 -2.3713 -0.9114  0.0572
  894MOL0     H23370  11.506   4.632   1.912 -0.5080  1.3890  0.2472
  894MOL0     H23371  11.366   4.575   2.013 -1.5570  0.9183  1.2681
  894MOL0     H23372  11.402   4.746   2.005  1.6558  0.1282 -1.4283
  895MOL0     O23373   0.363   9.694   3.269  0.3212 -0.9715  0.1151
  895MOL0     C23374   0.422   9.776   3.196  1.0514  0.8850 -0.2652
  895MOL0     O23375   0.443   9.904   3.222  0.4988  0.3550  0.1609
  895MOL0     C23376   0.430   9.947   3.348  0.2729 -0.6869  0.8927
  895MOL0     C23377   0.541   9.974   3.429 -0.4965  0.7409 -0.4700
  895MOL0     C23378   0.522  10.029   3.560 -0.1640 -2.1352 -0.2769
  895MOL0     C23379   0.397  10.060   3.607 -0.4485 -1.0453 -0.4896
  895MOL0     O23380   0.391  10.116   3.733  0.1171 -0.5740  0.5466
  895MOL0     C23381   0.272  10.182   3.786 -0.7162 -0.1815  0.4011
  895MOL0     C23382   0.296  10.214   3.927 -0.7997  0.0016  0.6686
  895MOL0     C23383   0.161  10.243   3.990 -0.5714 -0.3415 -0.0906
  895MOL0     C23384   0.174  10.245   4.144 -0.6283 -0.4871 -0.1156
  895MOL0     C23385   0.049  10.294   4.225  0.5088 -0.7188 -0.1332
  895MOL0     C23386   0.070  10.286   4.383 -0.0221 -0.0357  0.1489
  895MOL0     C23387  -0.045  10.372   4.452  0.1638 -0.2882  0.5565
  895MOL0     C23388  -0.076  10.308   4.587  0.2509  1.5125 -0.1108
  895MOL0     N23389  -0.183  10.380   4.648  0.1998  0.8226  0.5937
  895MOL0     C23390  -0.174  10.405   4.778  0.4516  1.1825  0.1218
  895MOL0     C23391  -0.277  10.484   4.807 -0.1737 -0.0825  0.8119
  895MOL0     C23392  -0.309  10.566   4.918 -0.8415  0.0464 -0.1092
  895MOL0     C23393  -0.200  10.583   5.025 -0.9268  0.0502 -0.1079
  895MOL0     C23394  -0.233  10.698   5.116 -0.4405  0.1890 -0.4462
  895MOL0     C23395  -0.294  10.646   5.246  0.6290  1.3111 -0.7062
  895MOL0     O23396  -0.211  10.556   5.316  0.7623 -0.2717 -0.4569
  895MOL0     C23397  -0.215  10.562   5.446  0.7622  0.0288 -0.7020
  895MOL0     C23398  -0.313  10.496   5.521 -0.0955 -0.1974  1.4012
  895MOL0     C23399  -0.329  10.499   5.659 -0.8170 -0.9575  0.0638
  895MOL0     C23400  -0.447  10.436   5.723  0.2820 -0.3985  0.6516
  895MOL0     C23401  -0.221  10.555   5.728  0.1933 -0.2787 -1.0236
  895MOL0     C23402  -0.227  10.566   5.876  0.4059 -1.1794 -0.3889
  895MOL0     O23403  -0.153  10.660   5.939 -0.7490 -0.3913  0.0213
  895MOL0     C23404  -0.169  10.699   6.070 -0.5060  0.0544  0.1707
  895MOL0     C23405  -0.274  10.662   6.162 -1.0432 -0.0688 -0.5356
  895MOL0     C23406  -0.263  10.714   6.296 -0.2352 -0.4828 -0.0296
  895MOL0     C23407  -0.179  10.818   6.338 -0.2374 -0.6595 -0.0582
  895MOL0     O23408  -0.203  10.871   6.464 -0.0623 -0.2927 -0.0237
  895MOL0     C23409  -0.101  10.950   6.520 -0.0487 -0.3263  0.8804
  895MOL0     C23410  -0.128  10.952   6.667 -0.3146 -0.0104  0.4297
  895MOL0     C23411  -0.015  11.033   6.739  0.5947  0.6451  0.6869
  895MOL0     C23412  -0.026  11.020   6.893  0.2871  0.1265 -0.0460
  895MOL0     C23413  -0.152  11.095   6.936  1.1043  0.0767 -0.2542
  895MOL0     C23414  -0.112  11.160   7.067 -0.4031  0.8184 -0.2203
  895MOL0     C23415  -0.120  11.036   7.177  0.0710 -0.5641  0.4812
  895MOL0     C23416  -0.091  11.093   7.314  0.0826  0.6661 -0.6018
  895MOL0    Cl23417  -0.147  10.971   7.431  0.1455 -0.1190 -0.3747
  895MOL0     C23418  -0.082  10.859   6.245 -0.5101  0.4742  0.2164
  895MOL0     C23419  -0.077  10.804   6.115 -0.3150  0.0156  0.2498
  895MOL0     O23420  -0.288  10.478   5.939  0.5887 -1.1478 -0.3405
  895MOL0     C23421  -0.111  10.618   5.657  0.7143 -0.7947 -0.8510
  895MOL0     C23422  -0.117  10.635   5.517  0.3488  0.7451  1.0076
  895MOL0     N23423  -0.340  10.510   4.689 -0.5366  0.0269  0.4208
  895MOL0     N23424  -0.279  10.459   4.589 -0.0055  0.9536 -1.0816
  895MOL0     C23425   0.285  10.026   3.525 -0.8932 -0.3748  0.5396
  895MOL0     C23426   0.306   9.954   3.409  0.3606 -0.8186  0.6250
  895MOL0     C23427   0.473   9.727   3.054  0.1678  0.2022  0.1813
  895MOL0     C23428   0.503   9.827   2.951  1.2729 -0.5578 -0.1361
  895MOL0     C23429   0.510   9.790   2.821 -1.0411  0.3889 -0.7357
  895MOL0     C23430   0.490   9.662   2.772 -0.5905  0.3633 -0.8012
  895MOL0     O23431   0.475   9.627   2.645  0.4048 -0.2359 -0.5626
  895MOL0     C23432   0.510   9.719   2.544 -0.9438 -0.8669 -0.9125
  895MOL0     C23433   0.496   9.643   2.416  0.6804 -0.4376 -0.1763
  895MOL0     C23434   0.340   9.614   2.377  0.3819 -0.0413  1.1735
  895MOL0     C23435   0.255   9.733   2.374 -0.1855 -0.5306  0.6121
  895MOL0     C23436   0.301   9.840   2.279 -0.3781 -0.8952  0.7767
  895MOL0     C23437   0.338   9.921   2.198  1.4368 -0.3770 -0.0301
  895MOL0     C23438   0.477   9.551   2.868 -0.7511 -0.3842  0.2089
  895MOL0     C23439   0.471   9.582   3.014  0.4375  1.1356 -0.5185
  895MOL0     C23440   0.452   9.459   3.114 -0.3086 -0.3528  0.6947
  895MOL0     H23441   0.633   9.950   3.378 -2.2906 -0.3246 -3.5165
  895MOL0     H23442   0.611  10.028   3.622 -0.7733 -3.3837  0.6563
  895MOL0     H23443   0.187  10.115   3.774  0.3389 -1.4448 -0.2566
  895MOL0     H23444   0.248  10.270   3.725 -3.0259 -0.7647  0.3622
  895MOL0     H23445   0.347  10.133   3.980  4.5285  3.0873  0.9546
  895MOL0     H23446   0.351  10.306   3.947 -1.8382  0.0502  3.7708
  895MOL0     H23447   0.127  10.336   3.944  1.5674 -0.2928 -1.7024
  895MOL0     H23448   0.095  10.159   3.964 -1.1419 -0.0685  0.4601
  895MOL0     H23449   0.220  10.152   4.180  2.5647  1.8727  2.6108
  895MOL0     H23450   0.262  10.306   4.164 -0.3320 -1.5749  2.3021
  895MOL0     H23451  -0.034  10.233   4.190  1.9014 -3.8960  1.6609
  895MOL0     H23452   0.032  10.396   4.188 -3.1476 -1.7855 -1.8973
  895MOL0     H23453   0.081  10.185   4.423  1.4391 -0.4868 -1.2766
  895MOL0     H23454   0.162  10.338   4.412 -0.8797  3.1786 -2.3137
  895MOL0     H23455  -0.135  10.365   4.391 -0.0551 -3.4432  1.0554
  895MOL0     H23456  -0.007  10.470   4.483  0.8347 -1.1361  2.6248
  895MOL0     H23457  -0.103  10.204   4.567 -3.0872  2.1032  0.6908
  895MOL0     H23458   0.021  10.313   4.637  3.3321  1.0895 -5.3041
  895MOL0     H23459  -0.092  10.362   4.836 -1.4145 -6.0440 -1.5181
  895MOL0     H23460  -0.397  10.516   4.958 -3.1904  0.8045 -3.8178
  895MOL0     H23461  -0.327  10.667   4.881 -1.2590  0.6849  1.7820
  895MOL0     H23462  -0.193  10.492   5.086 -2.8695  1.6492  2.7044
  895MOL0     H23463  -0.104  10.595   4.975  1.0184 -4.4949  1.9396
  895MOL0     H23464  -0.141  10.747   5.148 -1.0528  1.1642 -0.1559
  895MOL0     H23465  -0.299  10.766   5.063  0.5350  1.3515 -0.2064
  895MOL0     H23466  -0.304  10.738   5.304  1.0627  2.3864 -2.2451
  895MOL0     H23467  -0.396  10.608   5.246  0.7007  1.0134  1.4300
  895MOL0     H23468  -0.381  10.439   5.459  0.1879 -1.5864  2.3279
  895MOL0     H23469  -0.420  10.354   5.789  2.3008 -0.0183  0.3559
  895MOL0     H23470  -0.522  10.395   5.654 -0.8210 -0.2266  1.7127
  895MOL0     H23471  -0.488  10.516   5.786  1.1241  0.2737  0.3633
  895MOL0     H23472  -0.362  10.603   6.139 -0.6880 -0.3907 -1.1049
  895MOL0     H23473  -0.340  10.694   6.369 -2.8846  3.0061 -1.6095
  895MOL0     H23474  -0.005  10.903   6.497 -0.2147 -0.0329 -0.4821
  895MOL0     H23475  -0.106  11.055   6.488 -0.9131  0.0544  2.1823
  895MOL0     H23476  -0.227  10.988   6.695 -0.9694 -1.6266  0.2910
  895MOL0     H23477  -0.133  10.850   6.705 -2.9902 -0.4056 -0.7921
  895MOL0     H23478  -0.022  11.140   6.720  2.8628  0.6215 -0.8186
  895MOL0     H23479   0.084  11.001   6.703 -0.8273 -1.2286 -1.9511
  895MOL0     H23480   0.070  11.058   6.928 -0.0221  0.0563  0.9005
  895MOL0     H23481  -0.037  10.915   6.922  1.5055  0.6360  2.5047
  895MOL0     H23482  -0.184  11.165   6.858  2.2368 -0.6320 -1.3993
  895MOL0     H23483  -0.235  11.028   6.963  1.7092 -0.6100 -0.0610
  895MOL0     H23484  -0.180  11.243   7.091  1.5824  2.7492 -0.9591
  895MOL0     H23485  -0.014  11.208   7.064 -0.1475  0.2561 -1.4075
  895MOL0     H23486  -0.047  10.958   7.155  1.0553 -0.0211  1.6943
  895MOL0     H23487  -0.224  11.002   7.182 -0.4216  0.6615 -0.5913
  895MOL0     H23488  -0.123  11.197   7.329  1.3589  1.0424 -0.3457
  895MOL0     H23489   0.018  11.090   7.317  0.1276  1.9351  0.0315
  895MOL0     H23490  -0.017  10.943   6.266 -1.0979  1.3428 -1.2587
  895MOL0     H23491  -0.005  10.834   6.039 -0.3573 -0.3862  0.0490
  895MOL0     H23492  -0.034  10.679   5.704 -0.3235  0.3015 -0.5411
  895MOL0     H23493  -0.044  10.690   5.457 -1.6310  1.8060 -0.5510
  895MOL0     H23494   0.180  10.044   3.544 -0.7273  0.9731  0.3073
  895MOL0     H23495   0.218   9.939   3.347  0.2058  4.0973 -0.7855
  895MOL0     H23496   0.503   9.930   2.986  4.6717 -1.1943  2.3684
  895MOL0     H23497   0.522   9.874   2.753  0.0109  0.6542 -0.2496
  895MOL0     H23498   0.465   9.817   2.561  3.0889  1.1581 -0.8798
  895MOL0     H23499   0.615   9.732   2.570 -0.9950 -1.6610 -0.2774
  895MOL0     H23500   0.547   9.548   2.435  1.0284 -0.6895 -2.1671
  895MOL0     H23501   0.552   9.688   2.333  0.6746 -1.2652 -0.6417
  895MOL0     H23502   0.344   9.577   2.274 -2.3113 -0.7076  1.2324
  895MOL0     H23503   0.286   9.543   2.439 -1.1271  0.4678  0.4835
  895MOL0     H23504   0.254   9.787   2.470 -1.2499  3.0961 -1.2651
  895MOL0     H23505   0.149   9.713   2.358 -1.1564  3.0736  1.5425
  895MOL0     H23506   0.353   9.994   2.121 -0.5883 -3.1278 -3.3088
  895MOL0     H23507   0.482   9.445   2.846  0.8130  0.0988 -2.1916
  895MOL0     H23508   0.467   9.490   3.218  1.2265  1.9759 -0.1338
  895MOL0     H23509   0.357   9.413   3.088  0.5586 -2.4129  1.0243
  895MOL0     H23510   0.519   9.374   3.098  1.2116  0.5450  1.9666
  896MOL0     O23511  10.187  11.502   5.010  1.2457  0.7206  0.8423
  896MOL0     C23512  10.283  11.524   5.082  0.2853  0.4617 -0.1270
  896MOL0     O23513  10.328  11.648   5.116  0.3690  0.1109 -0.7183
  896MOL0     C23514  10.233  11.750   5.111  0.3048 -0.1702  0.1117
  896MOL0     C23515  10.165  11.793   4.995 -0.3442 -0.0497 -0.2877
  896MOL0     C23516  10.099  11.915   4.997  0.6971  0.0140 -0.5735
  896MOL0     C23517  10.079  11.992   5.110 -0.4878 -0.0433 -0.6809
  896MOL0     O23518  10.019  12.115   5.097  0.1160 -0.5728  0.6431
  896MOL0     C23519   9.963  12.187   5.208  0.3008  0.5017 -0.4542
  896MOL0     C23520   9.851  12.104   5.276 -0.0152  0.7597  1.0772
  896MOL0     C23521   9.778  12.197   5.361  0.6282 -0.8294 -0.1084
  896MOL0     C23522   9.661  12.135   5.449 -0.3140  0.1650 -0.7222
  896MOL0     C23523   9.540  12.226   5.457 -0.3073 -0.0559  0.5356
  896MOL0     C23524   9.419  12.141   5.516 -0.4003  0.2012 -0.8272
  896MOL0     C23525   9.308  12.236   5.567  0.8476 -0.3127  0.2033
  896MOL0     C23526   9.294  12.226   5.723  0.2946 -0.2397 -0.0187
  896MOL0     N23527   9.424  12.257   5.783 -0.3335 -0.2196  0.0447
  896MOL0     C23528   9.479  12.384   5.798 -0.5218 -0.0148 -0.1471
  896MOL0     C23529   9.591  12.352   5.870 -0.1007 -0.2476 -0.5870
  896MOL0     C23530   9.707  12.441   5.903  0.0131  0.5083  0.6376
  896MOL0     C23531   9.843  12.392   5.873 -1.7758  0.0045  0.1185
  896MOL0     C23532   9.855  12.338   5.720 -0.0456  0.1796  0.3383
  896MOL0     C23533   9.996  12.324   5.686 -0.2241 -0.0500 -0.3884
  896MOL0     O23534  10.037  12.202   5.753 -0.5120  0.2662  0.7292
  896MOL0     C23535  10.169  12.164   5.728  0.1990  0.0917 -0.4291
  896MOL0     C23536  10.244  12.108   5.838  0.3384  1.1555 -0.1026
  896MOL0     C23537  10.378  12.071   5.830  0.3928 -0.1380  0.2280
  896MOL0     C23538  10.448  12.018   5.956  0.1840  0.2211 -0.7044
  896MOL0     C23539  10.443  12.081   5.704 -0.6148 -0.2443  0.8846
  896MOL0     C23540  10.590  12.049   5.677  0.9466 -0.6044 -1.0422
  896MOL0     O23541  10.682  12.057   5.781  0.0622 -0.0426 -0.0444
  896MOL0     C23542  10.811  12.079   5.748 -1.2662 -0.8205 -0.1262
  896MOL0     C23543  10.854  12.209   5.762  0.9503  0.3565 -0.6101
  896MOL0     C23544  10.987  12.239   5.741  0.4546 -0.6864  0.3976
  896MOL0     C23545  11.076  12.147   5.686  0.6774  0.0744  0.5684
  896MOL0     O23546  11.211  12.158   5.663 -0.3311 -0.8206 -0.4034
  896MOL0     C23547  11.295  12.256   5.719 -1.0833  0.2702 -0.7329
  896MOL0     C23548  11.426  12.178   5.755 -0.7850 -0.1585 -0.2247
  896MOL0     C23549  11.403  12.073   5.860 -0.7024  0.0073  1.6577
  896MOL0     C23550  11.533  12.013   5.897 -0.3655  0.2611  0.3687
  896MOL0     C23551  11.521  11.887   5.989  0.0784 -0.3917 -0.1227
  896MOL0     C23552  11.660  11.837   6.032  0.8756  0.1130  0.6421
  896MOL0     C23553  11.637  11.716   6.120 -0.0293 -0.1516  0.5802
  896MOL0     C23554  11.619  11.751   6.272  0.1869 -0.7506 -0.2100
  896MOL0    Cl23555  11.583  11.591   6.346 -0.1005 -0.7966  0.3692
  896MOL0     C23556  11.029  12.015   5.654 -0.3194 -0.4899  0.2948
  896MOL0     C23557  10.896  11.984   5.687  0.7434 -0.2334  0.5147
  896MOL0     O23558  10.614  12.020   5.567 -0.0134 -0.0246 -0.4477
  896MOL0     C23559  10.361  12.123   5.589 -0.5158 -0.4188 -0.3936
  896MOL0     C23560  10.225  12.164   5.599  0.4040  0.1611  1.1088
  896MOL0     N23561   9.595  12.217   5.913  0.1607  0.1809 -0.4696
  896MOL0     N23562   9.498  12.162   5.858  0.3850  1.0630 -0.2947
  896MOL0     C23563  10.139  11.936   5.229  0.4873  0.2968 -0.0147
  896MOL0     C23564  10.205  11.815   5.230  0.3199  0.9988  0.0599
  896MOL0     C23565  10.371  11.403   5.112 -0.6471 -0.4628  0.3271
  896MOL0     C23566  10.351  11.283   5.037  0.5256  0.6299 -0.9015
  896MOL0     C23567  10.435  11.171   5.036  0.0387 -0.3089  0.2882
  896MOL0     C23568  10.534  11.164   5.132 -0.1247 -0.1053  0.0744
  896MOL0     O23569  10.628  11.062   5.137 -0.9226  1.0210 -0.7872
  896MOL0     C23570  10.613  10.928   5.087 -0.1439  0.0474  0.4571
  896MOL0     C23571  10.694  10.825   5.160 -0.1788 -0.0482 -0.5111
  896MOL0     C23572  10.839  10.828   5.103  0.3502 -0.6979 -0.1386
  896MOL0     C23573  10.937  10.752   5.184 -0.1966  0.1016  1.4242
  896MOL0     C23574  10.897  10.612   5.192  0.2895 -0.0797 -0.3215
  896MOL0     C23575  10.832  10.506   5.197  0.1728 -0.5901  0.3246
  896MOL0     C23576  10.564  11.282   5.202  0.7725 -0.0982  0.4928
  896MOL0     C23577  10.483  11.403   5.199 -0.6591  0.3021  0.4863
  896MOL0     C23578  10.528  11.520   5.276 -0.3198  0.2811  0.1328
  896MOL0     H23579  10.174  11.738   4.902  1.8832  0.2415 -0.2938
  896MOL0     H23580  10.047  11.953   4.910 -0.8112  1.9859  1.0723
  896MOL0     H23581   9.920  12.282   5.175  0.5349  0.7894  0.0632
  896MOL0     H23582  10.030  12.214   5.290 -0.8946  0.9367  0.4059
  896MOL0     H23583   9.785  12.058   5.202  3.4102  0.5659 -2.1238
  896MOL0     H23584   9.892  12.020   5.332 -0.6630 -0.1417  0.2387
  896MOL0     H23585   9.839  12.256   5.429 -1.5664 -1.2385  2.4147
  896MOL0     H23586   9.724  12.261   5.290  1.6681 -2.0731 -2.1271
  896MOL0     H23587   9.638  12.029   5.432 -2.4807  0.2249  1.2721
  896MOL0     H23588   9.701  12.125   5.550  1.2296  1.3731 -1.1821
  896MOL0     H23589   9.515  12.255   5.355 -2.0356 -1.7691  0.4321
  896MOL0     H23590   9.573  12.310   5.520 -0.1027 -1.1504  1.9274
  896MOL0     H23591   9.393  12.077   5.431 -1.2078  0.2655 -0.6369
  896MOL0     H23592   9.470  12.087   5.597  2.8933  1.2028 -2.0781
  896MOL0     H23593   9.218  12.212   5.509  2.3693  2.3203 -3.6796
  896MOL0     H23594   9.329  12.339   5.538 -1.0206  0.5509  1.6989
  896MOL0     H23595   9.219  12.292   5.767 -0.4547 -0.6107 -0.7016
  896MOL0     H23596   9.269  12.125   5.758  1.7631  0.0605  2.0305
  896MOL0     H23597   9.449  12.482   5.763 -0.1633  1.7126  3.8908
  896MOL0     H23598   9.690  12.469   6.007 -2.9857  1.5814 -0.0428
  896MOL0     H23599   9.702  12.533   5.843 -2.8027  1.3466  2.0082
  896MOL0     H23600   9.917  12.471   5.892 -0.7193 -1.1768  1.0426
  896MOL0     H23601   9.856  12.320   5.954  1.1834  1.7063  1.3210
  896MOL0     H23602   9.802  12.243   5.708  1.7870 -1.1274  1.9291
  896MOL0     H23603   9.808  12.415   5.658 -0.7368  0.7964  1.5709
  896MOL0     H23604  10.008  12.319   5.577  4.0240 -1.8529 -0.0387
  896MOL0     H23605  10.046  12.418   5.713 -2.7014  1.6151 -1.2528
  896MOL0     H23606  10.180  12.085   5.923  0.5334 -2.2172 -0.7042
  896MOL0     H23607  10.478  12.107   6.013 -1.4716  2.2883 -2.8679
  896MOL0     H23608  10.538  11.958   5.937 -1.2870 -1.4633 -2.7653
  896MOL0     H23609  10.374  11.971   6.021 -1.6595 -1.4926 -3.8297
  896MOL0     H23610  10.785  12.289   5.789  1.7319  0.7240  0.3643
  896MOL0     H23611  11.028  12.336   5.769 -1.4004  0.2037  0.1786
  896MOL0     H23612  11.309  12.337   5.647 -1.9111  3.0110  1.9761
  896MOL0     H23613  11.246  12.315   5.798 -1.9859  2.4640 -2.8189
  896MOL0     H23614  11.455  12.131   5.662  0.5223  1.9923 -0.9892
  896MOL0     H23615  11.506  12.244   5.790 -0.6197  1.6592 -3.6193
  896MOL0     H23616  11.331  11.998   5.827  0.9557 -0.1062 -2.2029
  896MOL0     H23617  11.350  12.113   5.947 -1.8604  0.2980  0.8311
  896MOL0     H23618  11.587  12.090   5.953  0.2683  0.5833 -0.6558
  896MOL0     H23619  11.585  11.984   5.806 -1.4120 -1.6423  0.3186
  896MOL0     H23620  11.474  11.913   6.084 -1.5104 -1.9209 -0.4409
  896MOL0     H23621  11.465  11.811   5.934 -1.8719  0.7165  0.2564
  896MOL0     H23622  11.717  11.920   6.073 -0.4353  2.3205 -1.6936
  896MOL0     H23623  11.702  11.826   5.932 -1.8677  1.4535 -0.7721
  896MOL0     H23624  11.720  11.650   6.091 -1.6255 -0.9355 -2.7282
  896MOL0     H23625  11.552  11.660   6.080  3.9091 -3.3022 -4.7296
  896MOL0     H23626  11.529  11.806   6.300 -1.3748 -3.2314 -0.0245
  896MOL0     H23627  11.699  11.796   6.332 -2.4948  1.3903  2.0410
  896MOL0     H23628  11.078  11.934   5.601 -3.7011 -1.7744 -1.2025
  896MOL0     H23629  10.861  11.882   5.678 -0.8860  0.3298  0.0799
  896MOL0     H23630  10.410  12.143   5.494 -0.6928  2.3940  0.0188
  896MOL0     H23631  10.174  12.198   5.509  2.0932 -0.0304  0.0350
  896MOL0     H23632  10.141  11.990   5.323  5.9068 -1.6695  1.3421
  896MOL0     H23633  10.246  11.771   5.320  0.0047  2.0856  0.7540
  896MOL0     H23634  10.265  11.274   4.972  1.8567 -2.8181 -2.4071
  896MOL0     H23635  10.409  11.086   4.973  4.4577 -0.1251 -2.1380
  896MOL0     H23636  10.513  10.895   5.116  0.9759 -2.8416  1.4121
  896MOL0     H23637  10.626  10.915   4.980 -1.2112 -5.3289  0.7014
  896MOL0     H23638  10.656  10.724   5.142  0.3331 -0.2823 -0.2904
  896MOL0     H23639  10.691  10.847   5.267 -0.9346 -0.3543 -0.4687
  896MOL0     H23640  10.841  10.822   4.993 -0.2026  3.1819 -0.5157
  896MOL0     H23641  10.877  10.930   5.114 -1.3455  0.0098 -0.4437
  896MOL0     H23642  10.926  10.775   5.290 -1.9400 -1.6726  1.6658
  896MOL0     H23643  11.028  10.755   5.122 -2.1204 -0.8928 -1.6833
  896MOL0     H23644  10.772  10.418   5.194 -0.9809  0.1244  1.3619
  896MOL0     H23645  10.656  11.289   5.259  0.0650  1.4247  1.5138
  896MOL0     H23646  10.443  11.575   5.317 -3.8667 -3.4108 -1.6100
  896MOL0     H23647  10.600  11.508   5.358 -2.5836  3.4929  2.8872
  896MOL0     H23648  10.589  11.578   5.205 -1.9616  1.5037 -0.3601
  897MOL0     O23649   5.408   2.558   7.277  0.1594  0.3869 -0.0145
  897MOL0     C23650   5.435   2.498   7.169  0.1559  0.9461  0.0018
  897MOL0     O23651   5.358   2.483   7.068  0.4583 -0.5797 -0.0927
  897MOL0     C23652   5.259   2.576   7.053  1.1210 -0.4121  0.7907
  897MOL0     C23653   5.127   2.545   7.010 -0.2361 -0.4809 -0.3919
  897MOL0     C23654   5.034   2.647   6.997  0.4038  0.3469 -1.6188
  897MOL0     C23655   5.066   2.779   6.999 -0.1961  0.0569  0.8302
  897MOL0     O23656   4.968   2.872   6.964  0.6304  0.0938 -0.8846
  897MOL0     C23657   5.003   2.981   6.877  0.0550  0.7863  0.3282
  897MOL0     C23658   4.933   3.106   6.914  1.3110 -0.6965 -1.2829
  897MOL0     C23659   4.958   3.143   7.062 -0.0534  0.2874  0.6136
  897MOL0     C23660   4.851   3.082   7.154  1.3692 -0.8932 -0.0034
  897MOL0     C23661   4.919   3.042   7.281  0.7463 -0.3070  0.2307
  897MOL0     C23662   4.954   3.164   7.366 -0.4172 -0.9791 -0.7100
  897MOL0     C23663   4.993   3.127   7.513  0.4154 -0.3796  0.7056
  897MOL0     C23664   5.051   3.243   7.591  0.8433  0.1965  0.2208
  897MOL0     N23665   4.965   3.341   7.647 -0.3470 -0.4185 -0.2396
  897MOL0     C23666   4.829   3.348   7.635 -0.0903 -0.3427 -0.0243
  897MOL0     C23667   4.794   3.458   7.710 -0.3026  0.4394 -0.0552
  897MOL0     C23668   4.666   3.520   7.747  0.1926 -0.5400  0.0603
  897MOL0     C23669   4.641   3.659   7.679  0.1893 -0.2929 -0.1135
  897MOL0     C23670   4.487   3.674   7.671  0.0864 -1.4212 -0.0094
  897MOL0     C23671   4.458   3.832   7.641 -0.6724  1.3022  0.2536
  897MOL0     O23672   4.504   3.914   7.747  0.1596 -0.5866 -0.8218
  897MOL0     C23673   4.489   4.051   7.735 -0.2925  0.0565  0.7177
  897MOL0     C23674   4.441   4.111   7.626  0.3937 -1.3241 -0.4132
  897MOL0     C23675   4.415   4.250   7.633  0.8449  0.3952  0.8385
  897MOL0     C23676   4.333   4.306   7.508 -0.8783  0.6889 -0.0320
  897MOL0     C23677   4.427   4.332   7.757  0.1408  0.7151  0.4464
  897MOL0     C23678   4.407   4.481   7.772  0.2038  0.6032  0.1416
  897MOL0     O23679   4.390   4.533   7.897 -0.1880 -0.6987 -0.4069
  897MOL0     C23680   4.365   4.666   7.911 -0.5127 -0.9635  0.0059
  897MOL0     C23681   4.479   4.741   7.953 -0.0003  0.0017 -0.3294
  897MOL0     C23682   4.474   4.885   7.961  0.0255  0.4665 -0.3222
  897MOL0     C23683   4.351   4.958   7.943  0.0652 -0.3060  0.8223
  897MOL0     O23684   4.339   5.096   7.951 -0.1643  0.6011 -0.1928
  897MOL0     C23685   4.450   5.188   7.977 -0.3706 -0.7018  0.1484
  897MOL0     C23686   4.410   5.331   7.965  0.1011 -0.2834 -0.0975
  897MOL0     C23687   4.313   5.355   8.084  0.0229  0.2242  0.1204
  897MOL0     C23688   4.358   5.441   8.200  0.4766 -0.7516  0.0379
  897MOL0     C23689   4.251   5.433   8.306  0.1116 -0.3367 -0.4667
  897MOL0     C23690   4.322   5.462   8.444  0.8781 -0.2481 -0.6253
  897MOL0     C23691   4.243   5.445   8.577 -0.4179  0.3425 -0.9886
  897MOL0     C23692   4.320   5.497   8.698  0.1530 -0.5837 -0.3599
  897MOL0    Cl23693   4.242   5.452   8.851  0.1923  0.4213  0.0325
  897MOL0     C23694   4.236   4.884   7.902  0.1303 -0.5203 -0.7856
  897MOL0     C23695   4.245   4.742   7.880  0.0251 -0.2435 -0.7278
  897MOL0     O23696   4.408   4.548   7.666 -0.0922 -0.4885 -0.7725
  897MOL0     C23697   4.488   4.261   7.864 -0.0941 -0.2972 -0.6326
  897MOL0     C23698   4.517   4.124   7.849 -0.8020 -0.0874  0.6075
  897MOL0     N23699   4.909   3.512   7.763 -1.3429  0.9923 -0.4900
  897MOL0     N23700   5.010   3.435   7.728  0.3633 -0.0730 -0.2048
  897MOL0     C23701   5.194   2.812   7.051 -0.2381  0.3810 -0.1792
  897MOL0     C23702   5.288   2.711   7.076 -0.6120  0.1636 -0.1092
  897MOL0     C23703   5.572   2.446   7.147  0.4343  0.4862 -0.2418
  897MOL0     C23704   5.624   2.428   7.013 -1.0520 -0.7253  0.0074
  897MOL0     C23705   5.754   2.390   6.986 -0.4376 -1.0605  0.6235
  897MOL0     C23706   5.842   2.345   7.084  1.6202  0.0412 -0.2933
  897MOL0     O23707   5.966   2.301   7.037  0.7292 -0.1138  0.3693
  897MOL0     C23708   6.072   2.265   7.128  0.0172 -0.0764  0.4131
  897MOL0     C23709   6.204   2.305   7.053 -0.6592 -0.0441 -0.0736
  897MOL0     C23710   6.216   2.459   7.013 -0.0206 -1.0886 -1.1833
  897MOL0     C23711   6.364   2.498   7.048 -0.0239  0.0432  0.3968
  897MOL0     C23712   6.453   2.441   6.949 -0.1060 -0.3852 -1.0020
  897MOL0     C23713   6.523   2.382   6.869  0.5146  0.1877  0.1583
  897MOL0     C23714   5.789   2.337   7.220  0.0404  0.1139  0.4413
  897MOL0     C23715   5.654   2.391   7.247  0.3896  1.3666  0.3269
  897MOL0     C23716   5.625   2.414   7.394 -0.8299  0.9453 -0.2347
  897MOL0     H23717   5.097   2.442   6.991  0.7498 -0.9804  0.6285
  897MOL0     H23718   4.929   2.619   6.988  0.2940  0.2713 -0.3107
  897MOL0     H23719   4.976   2.951   6.775 -1.6334  0.9841  0.6777
  897MOL0     H23720   5.109   3.001   6.889  1.0267 -3.6661  0.7946
  897MOL0     H23721   4.949   3.195   6.853 -0.9185  2.9495  2.8988
  897MOL0     H23722   4.824   3.097   6.907  1.1316  0.4149 -0.2025
  897MOL0     H23723   5.062   3.115   7.083 -0.0492  1.5456  2.5524
  897MOL0     H23724   4.968   3.251   7.073  1.8234  0.2519 -0.3430
  897MOL0     H23725   4.772   3.155   7.174  2.8274  1.4992 -2.2365
  897MOL0     H23726   4.802   2.998   7.103  1.5911 -0.6501 -0.6381
  897MOL0     H23727   4.997   2.966   7.276 -0.5376 -2.0653  3.5630
  897MOL0     H23728   4.847   2.979   7.334 -0.0187 -1.5329 -2.1404
  897MOL0     H23729   5.041   3.211   7.319  0.7339 -2.7292 -0.4152
  897MOL0     H23730   4.876   3.240   7.369  1.8904  1.6457  3.6867
  897MOL0     H23731   5.075   3.054   7.518  0.2331 -0.5500  1.3675
  897MOL0     H23732   4.904   3.083   7.559 -0.7945 -0.7297 -1.7876
  897MOL0     H23733   5.095   3.200   7.681  0.3973 -0.4009  0.1566
  897MOL0     H23734   5.132   3.284   7.529  1.0357 -1.0576 -0.3730
  897MOL0     H23735   4.767   3.284   7.574  0.0212 -0.3944 -0.0846
  897MOL0     H23736   4.655   3.546   7.853  0.2129 -2.3073  0.5270
  897MOL0     H23737   4.585   3.450   7.721 -0.6299  0.3059  0.3076
  897MOL0     H23738   4.685   3.735   7.744 -0.8763 -0.8642  1.3104
  897MOL0     H23739   4.684   3.669   7.579  0.6588  0.0650  0.1219
  897MOL0     H23740   4.445   3.611   7.592 -0.2158 -0.8129 -0.3391
  897MOL0     H23741   4.446   3.644   7.768 -0.6211 -0.3953  0.0210
  897MOL0     H23742   4.499   3.864   7.545 -4.1506  0.1885 -1.7743
  897MOL0     H23743   4.350   3.843   7.629 -1.0755 -1.3793  0.7405
  897MOL0     H23744   4.409   4.063   7.534  1.7296  0.5982 -1.9827
  897MOL0     H23745   4.254   4.376   7.536  2.3986  5.2745 -1.1871
  897MOL0     H23746   4.307   4.230   7.433 -1.4868 -0.4746  1.3056
  897MOL0     H23747   4.401   4.377   7.460  0.3728 -1.6315 -1.9388
  897MOL0     H23748   4.572   4.690   7.978 -0.2682 -0.2866  0.0815
  897MOL0     H23749   4.558   4.948   7.990 -1.2928  1.6286  1.1680
  897MOL0     H23750   4.471   5.174   8.083  0.1435  3.6961  0.8324
  897MOL0     H23751   4.536   5.162   7.914 -1.9207 -0.9399 -1.9861
  897MOL0     H23752   4.493   5.402   7.958  0.7103 -1.0816 -1.4689
  897MOL0     H23753   4.348   5.343   7.876 -0.7255 -0.4372  0.4454
  897MOL0     H23754   4.282   5.259   8.125  2.0752 -0.3728  0.4041
  897MOL0     H23755   4.227   5.410   8.045 -2.1176 -2.8961  0.1041
  897MOL0     H23756   4.392   5.545   8.188  0.4680 -0.7057  0.4029
  897MOL0     H23757   4.450   5.394   8.236  0.3630  0.3561  1.9260
  897MOL0     H23758   4.158   5.490   8.291 -1.5112 -2.5331  0.6582
  897MOL0     H23759   4.207   5.334   8.319 -0.5158  0.2429  2.8193
  897MOL0     H23760   4.346   5.568   8.442 -1.5957  0.3797  0.0482
  897MOL0     H23761   4.411   5.398   8.443 -0.1741 -1.8882  1.5619
  897MOL0     H23762   4.222   5.339   8.594  0.2944 -0.4669 -4.3425
  897MOL0     H23763   4.150   5.502   8.571  0.0857  1.1866 -1.0402
  897MOL0     H23764   4.320   5.606   8.707 -3.0148 -0.5070  0.0112
  897MOL0     H23765   4.420   5.455   8.704 -0.1886 -1.6167 -1.4863
  897MOL0     H23766   4.140   4.933   7.889  0.7454  0.8076 -0.3987
  897MOL0     H23767   4.159   4.682   7.850  0.4436 -0.6909 -1.0408
  897MOL0     H23768   4.509   4.318   7.954 -0.4090  1.6117 -1.7123
  897MOL0     H23769   4.567   4.073   7.930 -1.0989 -0.5153  0.5226
  897MOL0     H23770   5.227   2.914   7.063  0.4950  0.4053 -1.9928
  897MOL0     H23771   5.385   2.746   7.112 -0.5933 -0.4205  0.4353
  897MOL0     H23772   5.561   2.451   6.928 -3.0139 -3.1841  0.6475
  897MOL0     H23773   5.790   2.409   6.885  1.4251  1.5102  1.6536
  897MOL0     H23774   6.071   2.319   7.224 -3.8396 -0.5592  0.8023
  897MOL0     H23775   6.062   2.157   7.133 -1.7020 -0.0090 -1.0555
  897MOL0     H23776   6.217   2.255   6.956  2.9623  0.2034  0.1444
  897MOL0     H23777   6.302   2.273   7.091  0.3348 -0.5950 -2.8426
  897MOL0     H23778   6.214   2.460   6.904  0.0178 -1.9625 -1.2055
  897MOL0     H23779   6.143   2.525   7.060 -0.1210 -1.2923 -1.0505
  897MOL0     H23780   6.396   2.461   7.145  2.1877  2.0560  0.5321
  897MOL0     H23781   6.372   2.607   7.039 -0.7340  0.1546  0.9945
  897MOL0     H23782   6.565   2.340   6.779 -0.5812 -0.1063 -0.2352
  897MOL0     H23783   5.844   2.287   7.299  1.1006  0.1223 -0.2681
  897MOL0     H23784   5.523   2.379   7.413 -0.3535 -2.0920 -2.5461
  897MOL0     H23785   5.696   2.363   7.460 -0.4987  0.9479 -0.5869
  897MOL0     H23786   5.640   2.518   7.422 -0.2684  0.8586 -0.1906
  898MOL0     O23787   9.597  10.692   6.236  0.5862 -1.2987 -0.2685
  898MOL0     C23788   9.571  10.723   6.120 -0.1089  0.2778  1.0214
  898MOL0     O23789   9.578  10.850   6.065  0.4473 -0.6154  0.6066
  898MOL0     C23790   9.569  10.957   6.155  0.3804 -0.0083  0.4272
  898MOL0     C23791   9.490  10.960   6.276 -0.1639  0.6636 -0.0515
  898MOL0     C23792   9.479  11.071   6.358  0.0143  0.2949  0.7702
  898MOL0     C23793   9.568  11.178   6.328  0.1218 -0.4471 -0.1136
  898MOL0     O23794   9.583  11.303   6.398 -1.1491 -0.2831 -0.4172
  898MOL0     C23795   9.556  11.283   6.539  0.1308 -0.8225 -0.9489
  898MOL0     C23796   9.627  11.390   6.613 -0.0202 -0.6749 -0.4512
  898MOL0     C23797   9.705  11.343   6.739  0.0057 -0.2035  0.1813
  898MOL0     C23798   9.783  11.457   6.792 -0.2573  0.7102 -0.3427
  898MOL0     C23799   9.854  11.434   6.928  0.1762 -0.2862  1.1526
  898MOL0     C23800   9.741  11.398   7.028  0.1273 -0.2571  0.0386
  898MOL0     C23801   9.783  11.454   7.165  0.1681 -0.6110  0.6448
  898MOL0     C23802   9.696  11.411   7.280  0.3867  0.2444 -0.0195
  898MOL0     N23803   9.659  11.270   7.287  0.3385 -0.3700 -0.8917
  898MOL0     C23804   9.734  11.172   7.348  0.3993  0.9537  1.1470
  898MOL0     C23805   9.651  11.066   7.348  0.6127 -0.4533 -0.9083
  898MOL0     C23806   9.690  10.923   7.391  0.4468  0.4748  0.8697
  898MOL0     C23807   9.685  10.827   7.262  0.2578 -0.3060  0.0672
  898MOL0     C23808   9.696  10.676   7.282  0.5090 -0.1182  0.4140
  898MOL0     C23809   9.579  10.619   7.358  0.4979  0.2789  0.1619
  898MOL0     O23810   9.570  10.483   7.338  0.6447  0.2866  0.5258
  898MOL0     C23811   9.515  10.441   7.217 -0.4781 -0.3740  0.1588
  898MOL0     C23812   9.510  10.300   7.188  0.6137  0.2808 -0.9440
  898MOL0     C23813   9.467  10.251   7.060  0.0895  1.2511 -0.0776
  898MOL0     C23814   9.466  10.101   7.044 -0.1616 -0.6340  0.4907
  898MOL0     C23815   9.458  10.336   6.954  0.1046  0.6765  0.1265
  898MOL0     C23816   9.450  10.293   6.812 -0.4957 -0.6378  0.0127
  898MOL0     O23817   9.458  10.157   6.778  0.5053  0.5455  0.0427
  898MOL0     C23818   9.499  10.135   6.644  0.1108 -0.2754 -1.3695
  898MOL0     C23819   9.638  10.117   6.609  0.1068 -0.5137  0.2843
  898MOL0     C23820   9.683  10.082   6.478 -0.1072 -0.4443 -0.5933
  898MOL0     C23821   9.587  10.069   6.376  0.8703 -0.3583  0.0431
  898MOL0     O23822   9.629  10.043   6.248  0.8167  0.5758  0.4247
  898MOL0     C23823   9.533  10.084   6.143  0.3894  0.2052  0.2066
  898MOL0     C23824   9.587  10.072   6.005  0.4727 -0.0566 -0.7967
  898MOL0     C23825   9.470  10.061   5.891 -0.2415 -0.8821  0.2234
  898MOL0     C23826   9.519  10.000   5.759 -0.9562  0.5613  0.3494
  898MOL0     C23827   9.423   9.945   5.657 -0.3016 -1.0380  0.2933
  898MOL0     C23828   9.323   9.840   5.704 -0.6572  0.6977  0.0926
  898MOL0     C23829   9.375   9.712   5.777  0.2691 -0.5600  1.1275
  898MOL0     C23830   9.486   9.634   5.708  0.2880  0.5289 -0.5294
  898MOL0    Cl23831   9.459   9.479   5.798 -0.0804 -0.1592  0.1312
  898MOL0     C23832   9.442  10.082   6.411 -0.3124  0.5485  0.2578
  898MOL0     C23833   9.407  10.121   6.541  0.0139  0.3918  0.1995
  898MOL0     O23834   9.454  10.382   6.731  1.5362 -0.2432  0.6216
  898MOL0     C23835   9.458  10.473   6.982 -0.0992 -1.0555  0.0864
  898MOL0     C23836   9.487  10.525   7.107  0.4745  0.5516  0.8072
  898MOL0     N23837   9.525  11.103   7.292  0.5274 -0.3431  0.5381
  898MOL0     N23838   9.530  11.230   7.265 -0.4297 -1.0069 -0.2612
  898MOL0     C23839   9.639  11.180   6.204  0.1647 -0.2279 -0.5922
  898MOL0     C23840   9.645  11.070   6.122 -0.1007  0.1337  0.0017
  898MOL0     C23841   9.524  10.617   6.021  0.5537  0.0539 -0.0788
  898MOL0     C23842   9.554  10.636   5.889 -0.2447  0.0063 -0.1102
  898MOL0     C23843   9.489  10.560   5.785 -0.4584 -0.2716 -0.8066
  898MOL0     C23844   9.399  10.465   5.817  0.7722  0.8151  0.2262
  898MOL0     O23845   9.334  10.391   5.729 -0.2671  0.5528 -0.3977
  898MOL0     C23846   9.358  10.409   5.588 -0.0087  0.4015  0.3937
  898MOL0     C23847   9.240  10.341   5.504 -0.2930 -0.2885 -0.5821
  898MOL0     C23848   9.214  10.418   5.371  1.8528  0.6203 -0.6167
  898MOL0     C23849   9.331  10.408   5.276  0.3478  0.3635 -0.1656
  898MOL0     C23850   9.339  10.281   5.215  0.0695 -0.1251  0.6112
  898MOL0     C23851   9.356  10.177   5.149 -0.2144  0.1512  0.9323
  898MOL0     C23852   9.369  10.448   5.955  0.2496  0.3622  0.1600
  898MOL0     C23853   9.431  10.521   6.061  0.5470  0.2232  0.8796
  898MOL0     C23854   9.382  10.491   6.204  0.0759 -0.4778 -0.2909
  898MOL0     H23855   9.439  10.874   6.318  0.1537  1.3965  1.9475
  898MOL0     H23856   9.417  11.063   6.447 -1.4166  0.9095 -0.1276
  898MOL0     H23857   9.588  11.189   6.585  1.6782  0.3568  0.5037
  898MOL0     H23858   9.449  11.294   6.554  0.7577  3.3854  2.2697
  898MOL0     H23859   9.697  11.445   6.550  0.0331  0.3440  0.4781
  898MOL0     H23860   9.550  11.461   6.645  3.6968  1.7628  4.2386
  898MOL0     H23861   9.625  11.308   6.805 -0.6235 -0.3927 -0.6632
  898MOL0     H23862   9.767  11.257   6.711 -0.1406  0.0099 -0.8359
  898MOL0     H23863   9.853  11.497   6.719  1.6857  0.2465  1.1855
  898MOL0     H23864   9.710  11.538   6.807 -0.0289  0.6753  1.1817
  898MOL0     H23865   9.899  11.527   6.965 -2.1634  1.2137  0.4482
  898MOL0     H23866   9.935  11.360   6.920  1.9548  1.5271  1.5405
  898MOL0     H23867   9.643  11.435   6.994  0.2134  0.7142  0.7838
  898MOL0     H23868   9.722  11.291   7.033 -3.9024  0.3471  3.7957
  898MOL0     H23869   9.780  11.563   7.169  2.2383 -0.4465 -0.7544
  898MOL0     H23870   9.887  11.428   7.185  0.1486 -0.2295  1.2694
  898MOL0     H23871   9.733  11.436   7.380 -2.3712 -0.0652  1.1868
  898MOL0     H23872   9.601  11.466   7.275 -1.0649 -1.8108  2.3675
  898MOL0     H23873   9.840  11.170   7.369  0.3809 -1.1068  1.2747
  898MOL0     H23874   9.609  10.877   7.448  2.9282 -2.4151  2.3833
  898MOL0     H23875   9.779  10.919   7.454  0.6610  0.4584  0.5698
  898MOL0     H23876   9.597  10.852   7.203  1.0813  2.4715 -0.1557
  898MOL0     H23877   9.770  10.859   7.201 -0.5283  0.7853 -0.4818
  898MOL0     H23878   9.698  10.629   7.184 -0.4871  2.1753 -0.7829
  898MOL0     H23879   9.793  10.661   7.329  1.8684 -0.0366 -2.2051
  898MOL0     H23880   9.583  10.632   7.467  1.7076 -4.3848  0.9122
  898MOL0     H23881   9.483  10.665   7.333 -2.3524 -2.9775  3.7431
  898MOL0     H23882   9.531  10.221   7.259 -2.0849  1.1592  1.0225
  898MOL0     H23883   9.550  10.068   6.982 -0.6604 -1.4786  0.2358
  898MOL0     H23884   9.365  10.067   7.016 -1.0658  0.3660  2.3651
  898MOL0     H23885   9.479  10.063   7.146  1.5865 -1.4775 -0.0074
  898MOL0     H23886   9.715  10.120   6.684 -1.4628 -3.1907  2.2012
  898MOL0     H23887   9.788  10.061   6.464 -0.0564  0.6705 -2.2062
  898MOL0     H23888   9.438  10.030   6.138  0.6637 -0.2155 -0.6282
  898MOL0     H23889   9.505  10.187   6.166  1.6888  1.5777 -3.6888
  898MOL0     H23890   9.655  10.157   5.998  1.3379 -0.8646 -4.0490
  898MOL0     H23891   9.648   9.982   5.993 -0.2218 -0.6225 -0.2441
  898MOL0     H23892   9.436  10.164   5.873  0.6479 -0.8906 -1.8243
  898MOL0     H23893   9.385  10.006   5.931 -1.5764  2.2407  2.0724
  898MOL0     H23894   9.572   9.908   5.788 -2.5170 -0.3755  0.3192
  898MOL0     H23895   9.584  10.073   5.710 -1.6092  1.2850  0.5412
  898MOL0     H23896   9.374  10.022   5.597 -2.4306  0.4506  3.6391
  898MOL0     H23897   9.484   9.884   5.590  3.0036  0.1730  1.9817
  898MOL0     H23898   9.270   9.815   5.612  0.9037 -2.7800  0.0059
  898MOL0     H23899   9.245   9.883   5.768 -0.7195 -1.1775  1.3463
  898MOL0     H23900   9.284   9.652   5.788 -1.5375  1.5534 -1.3187
  898MOL0     H23901   9.396   9.747   5.879 -1.3298  0.5188  1.1206
  898MOL0     H23902   9.584   9.674   5.736  2.0270 -1.2848 -3.4965
  898MOL0     H23903   9.483   9.626   5.599 -1.5400  0.2998 -0.4854
  898MOL0     H23904   9.354  10.056   6.354 -1.8661  1.6243  2.0658
  898MOL0     H23905   9.302  10.137   6.564 -0.3534  0.8694 -1.6729
  898MOL0     H23906   9.437  10.547   6.905  1.5121 -2.0916 -1.4376
  898MOL0     H23907   9.501  10.633   7.112  3.0338  0.3000  0.4705
  898MOL0     H23908   9.699  11.266   6.175 -2.5986  0.7744 -4.1428
  898MOL0     H23909   9.708  11.081   6.034  2.5474 -2.7321  1.3550
  898MOL0     H23910   9.626  10.715   5.869  1.0544 -0.6309  1.7998
  898MOL0     H23911   9.518  10.576   5.682 -2.3195  1.4133 -1.1476
  898MOL0     H23912   9.371  10.513   5.558  2.6684  0.3238  1.0083
  898MOL0     H23913   9.447  10.353   5.556  1.7109  1.5211  2.8725
  898MOL0     H23914   9.147  10.339   5.562  0.9077  1.6365  1.5291
  898MOL0     H23915   9.261  10.236   5.480 -3.5418 -1.6179  1.7070
  898MOL0     H23916   9.118  10.384   5.331 -0.1673  1.3674  3.0737
  898MOL0     H23917   9.207  10.522   5.405  2.4785  0.8872 -1.2906
  898MOL0     H23918   9.426  10.421   5.330  0.7249 -4.1480  0.6586
  898MOL0     H23919   9.333  10.485   5.199  0.0622 -2.5082 -3.2656
  898MOL0     H23920   9.395  10.086   5.108  2.8224  2.0073 -0.6298
  898MOL0     H23921   9.278  10.394   5.977 -0.1115  0.4306 -1.1199
  898MOL0     H23922   9.388  10.580   6.268 -1.9751 -0.5324  0.0501
  898MOL0     H23923   9.275  10.465   6.205  0.8397 -4.0469  1.3725
  898MOL0     H23924   9.438  10.409   6.248 -2.1787 -0.6305  2.6060
  899MOL0     O23925   7.889  11.310   6.647 -0.3403  0.3792  0.3278
  899MOL0     C23926   7.832  11.198   6.645  0.8280 -0.4290  0.1516
  899MOL0     O23927   7.841  11.115   6.749  0.1235  0.0905  0.6524
  899MOL0     C23928   7.936  11.131   6.845  0.1532 -0.5559 -0.1801
  899MOL0     C23929   7.938  11.232   6.939  0.4224 -0.6171 -0.8977
  899MOL0     C23930   8.029  11.237   7.043  0.8498  0.1377 -0.2841
  899MOL0     C23931   8.123  11.139   7.051 -0.5635  0.5194  0.2861
  899MOL0     O23932   8.224  11.132   7.145  0.3978 -1.0422  0.0856
  899MOL0     C23933   8.271  11.250   7.208 -0.6706 -0.3980  0.5064
  899MOL0     C23934   8.384  11.191   7.299  0.0079  0.4618  0.7407
  899MOL0     C23935   8.318  11.108   7.408 -0.2646 -0.5288 -0.0281
  899MOL0     C23936   8.426  11.021   7.465  0.2680 -0.4685  0.6034
  899MOL0     C23937   8.387  10.914   7.571 -0.0326  0.4791 -0.1619
  899MOL0     C23938   8.315  10.789   7.507  0.2482 -0.9253 -0.3343
  899MOL0     C23939   8.305  10.677   7.611 -0.9246 -1.3724 -0.3693
  899MOL0     C23940   8.428  10.579   7.619 -0.0845 -0.0573  0.6275
  899MOL0     N23941   8.428  10.489   7.501 -0.2645  0.7404 -0.2047
  899MOL0     C23942   8.366  10.370   7.489  0.0425  0.2901 -0.4757
  899MOL0     C23943   8.379  10.328   7.359 -1.0050  0.6692 -0.2625
  899MOL0     C23944   8.321  10.194   7.311 -0.7198  0.7794  0.5981
  899MOL0     C23945   8.172  10.205   7.310  0.0626 -0.9066  0.3049
  899MOL0     C23946   8.101  10.081   7.236 -0.6961  0.6693  0.2431
  899MOL0     C23947   7.951  10.090   7.214  0.3432  0.1628  0.2959
  899MOL0     O23948   7.942  10.166   7.098 -0.2643  0.0518  0.4978
  899MOL0     C23949   7.952  10.101   6.976  0.5959 -0.4883 -0.7977
  899MOL0     C23950   8.030  10.155   6.870  0.1268  0.4927 -0.5364
  899MOL0     C23951   8.034  10.109   6.747  0.2469  0.5586  0.2453
  899MOL0     C23952   8.111  10.197   6.652  0.1763 -0.1546 -0.4102
  899MOL0     C23953   7.967   9.987   6.719 -0.9120 -0.6015 -0.1292
  899MOL0     C23954   7.969   9.925   6.581  0.7376  1.0630  0.0938
  899MOL0     O23955   8.025   9.998   6.478  0.0057  0.4548 -0.5458
  899MOL0     C23956   8.046   9.933   6.355 -0.6452 -0.1504  0.4675
  899MOL0     C23957   7.965   9.948   6.242  0.8110 -0.4810  0.3980
  899MOL0     C23958   7.999   9.891   6.122  0.6572 -0.0041  1.2646
  899MOL0     C23959   8.105   9.803   6.101 -0.4238  0.1866 -0.1426
  899MOL0     O23960   8.129   9.753   5.976 -0.6519  0.4293 -0.4070
  899MOL0     C23961   8.242   9.676   5.946 -1.1052  0.8187 -0.5210
  899MOL0     C23962   8.359   9.761   5.928 -0.7456 -0.0569 -0.2854
  899MOL0     C23963   8.485   9.669   5.927  0.0357 -0.0787  0.6020
  899MOL0     C23964   8.620   9.742   5.922  0.9208 -0.1895  0.4162
  899MOL0     C23965   8.679   9.785   6.051 -0.1103 -0.7978  0.9597
  899MOL0     C23966   8.824   9.845   6.031 -0.2645 -0.1066 -0.5069
  899MOL0     C23967   8.895   9.865   6.172 -0.2027 -0.3295  0.2374
  899MOL0     C23968   9.039   9.904   6.181 -0.0973  1.0300  0.7137
  899MOL0    Cl23969   9.175   9.813   6.075 -0.2420  0.0049  0.5913
  899MOL0     C23970   8.189   9.785   6.216  0.6953  0.2872 -1.1865
  899MOL0     C23971   8.166   9.857   6.335  0.1154 -0.8297 -0.1582
  899MOL0     O23972   7.951   9.800   6.576 -0.8843 -0.1656 -0.5251
  899MOL0     C23973   7.901   9.921   6.825 -0.0479 -0.0821  0.0080
  899MOL0     C23974   7.875   9.990   6.940 -0.3492 -0.2996  0.0519
  899MOL0     N23975   8.429  10.436   7.294 -0.9106  1.2064  0.2640
  899MOL0     N23976   8.470  10.527   7.375 -0.0832  0.1673  0.1333
  899MOL0     C23977   8.121  11.028   6.971 -0.6368  0.0431 -0.3442
  899MOL0     C23978   8.032  11.027   6.861  0.1338 -0.3613 -0.5199
  899MOL0     C23979   7.721  11.154   6.545  0.0521  0.0671 -0.5999
  899MOL0     C23980   7.689  11.013   6.530 -0.0549  0.2803 -0.6099
  899MOL0     C23981   7.582  10.979   6.455 -0.8321 -0.2724  0.2509
  899MOL0     C23982   7.508  11.066   6.377 -1.0086 -0.0924 -1.1453
  899MOL0     O23983   7.415  11.013   6.288  0.1298 -0.3324 -0.8056
  899MOL0     C23984   7.404  10.876   6.254  0.0481  0.6486 -0.3245
  899MOL0     C23985   7.506  10.831   6.156  0.2808 -0.3591 -0.4475
  899MOL0     C23986   7.492  10.675   6.124 -0.6684 -0.1983  0.8635
  899MOL0     C23987   7.553  10.639   5.987  0.1211 -0.3024  0.8669
  899MOL0     C23988   7.701  10.649   5.985  0.2673  1.7567 -0.7091
  899MOL0     C23989   7.823  10.656   5.979  1.0065 -0.0583  0.7982
  899MOL0     C23990   7.547  11.201   6.359  0.0739 -0.4969 -0.1300
  899MOL0     C23991   7.649  11.246   6.454 -0.2620 -0.6710  0.3382
  899MOL0     C23992   7.698  11.386   6.442 -0.0744  0.3105  0.4815
  899MOL0     H23993   7.866  11.307   6.910  0.8044 -0.6434 -1.9468
  899MOL0     H23994   8.014  11.305   7.126 -4.9874 -1.1158  0.1710
  899MOL0     H23995   8.206  11.303   7.279  1.9163 -0.8565  3.4637
  899MOL0     H23996   8.321  11.312   7.133  0.4625 -0.2286  1.3621
  899MOL0     H23997   8.452  11.139   7.231  0.3520  1.5304  0.2502
  899MOL0     H23998   8.438  11.274   7.345 -0.6285  1.0118  0.5005
  899MOL0     H23999   8.272  11.176   7.480 -1.7146  0.8649 -2.1747
  899MOL0     H24000   8.235  11.053   7.364  0.9286 -4.9628  2.6217
  899MOL0     H24001   8.471  10.973   7.377  0.5428  0.4821  0.2133
  899MOL0     H24002   8.510  11.073   7.511 -1.1144 -0.6717  3.5631
  899MOL0     H24003   8.322  10.964   7.644  0.9074 -1.1392  1.8897
  899MOL0     H24004   8.474  10.880   7.628 -1.5360 -3.4833  0.0511
  899MOL0     H24005   8.214  10.823   7.479 -0.2047 -2.2711 -0.4030
  899MOL0     H24006   8.366  10.747   7.420 -1.2131 -3.0914 -0.2379
  899MOL0     H24007   8.211  10.626   7.587 -2.1276  0.0556  1.1194
  899MOL0     H24008   8.281  10.723   7.707  1.8260 -1.0572  0.2407
  899MOL0     H24009   8.523  10.634   7.623  0.7596 -1.3724 -0.2952
  899MOL0     H24010   8.417  10.521   7.711  1.5927  0.7282  1.3776
  899MOL0     H24011   8.320  10.306   7.563  3.2026 -0.6186  0.8836
  899MOL0     H24012   8.356  10.110   7.372  1.9226  1.7553  0.5685
  899MOL0     H24013   8.362  10.171   7.212  0.9837  2.1797  0.9188
  899MOL0     H24014   8.140  10.208   7.415 -1.0132 -2.0832  0.0348
  899MOL0     H24015   8.145  10.298   7.259  0.3474 -0.3629  1.1122
  899MOL0     H24016   8.162  10.058   7.148  1.0677  3.5209  0.5878
  899MOL0     H24017   8.122  10.001   7.307 -1.2995  2.2213  2.2490
  899MOL0     H24018   7.903   9.993   7.199  3.0113 -1.4999  1.7715
  899MOL0     H24019   7.901  10.135   7.301  0.7078  0.7506  0.2097
  899MOL0     H24020   8.069  10.254   6.890  1.8003  0.1964 -2.0056
  899MOL0     H24021   8.039  10.223   6.574 -2.0515 -2.7589  0.6381
  899MOL0     H24022   8.187  10.132   6.606 -1.4002 -2.4762  0.1343
  899MOL0     H24023   8.143  10.296   6.686 -0.2681  0.7206 -2.3644
  899MOL0     H24024   7.885  10.021   6.253  1.2462 -0.2112  2.0289
  899MOL0     H24025   7.952   9.931   6.033 -3.0223  1.4515  3.6488
  899MOL0     H24026   8.251   9.594   6.018 -0.9532 -0.0003 -1.4549
  899MOL0     H24027   8.227   9.623   5.852  1.7271 -3.4030  1.0908
  899MOL0     H24028   8.359   9.828   5.841  2.1107 -0.8332 -0.9963
  899MOL0     H24029   8.371   9.831   6.011  0.5504 -0.0225 -0.4918
  899MOL0     H24030   8.472   9.610   5.835 -1.7237 -1.1563  1.4862
  899MOL0     H24031   8.485   9.594   6.006  0.9044  0.5652  1.2373
  899MOL0     H24032   8.602   9.828   5.857 -1.0217 -0.5246  0.4433
  899MOL0     H24033   8.694   9.680   5.870 -0.1562  0.9168 -2.6980
  899MOL0     H24034   8.614   9.860   6.097 -0.9248  0.5661 -2.1565
  899MOL0     H24035   8.671   9.706   6.127 -0.3649 -2.8622 -1.1213
  899MOL0     H24036   8.817   9.936   5.970 -0.5486  1.4602  1.7451
  899MOL0     H24037   8.889   9.778   5.973  0.8435  0.0530  0.5053
  899MOL0     H24038   8.877   9.765   6.212 -0.7027 -1.6358 -2.9592
  899MOL0     H24039   8.831   9.935   6.227 -0.1190  0.0967 -0.1958
  899MOL0     H24040   9.063   9.897   6.288  0.4177  0.7533  0.5799
  899MOL0     H24041   9.043  10.011   6.158 -1.3082  0.3785 -3.1696
  899MOL0     H24042   8.287   9.740   6.207  0.2138 -0.8451 -0.9260
  899MOL0     H24043   8.233   9.864   6.420  1.2634 -1.0937 -1.0179
  899MOL0     H24044   7.846   9.831   6.800  1.8084 -0.6147 -2.3915
  899MOL0     H24045   7.809   9.949   7.016 -2.0807  2.2823  0.0609
  899MOL0     H24046   8.182  10.940   6.989 -1.6994 -0.4162  1.1329
  899MOL0     H24047   8.025  10.934   6.805 -0.9508 -0.7287  0.1864
  899MOL0     H24048   7.742  10.944   6.595 -0.3419  1.6769  1.1755
  899MOL0     H24049   7.553  10.876   6.474  1.5722 -1.3520 -1.3791
  899MOL0     H24050   7.410  10.824   6.350 -1.1555  0.5932 -0.2702
  899MOL0     H24051   7.304  10.849   6.219  0.7164 -7.3124  1.9794
  899MOL0     H24052   7.611  10.848   6.181  0.5235  1.2332 -2.3043
  899MOL0     H24053   7.493  10.879   6.059  0.7085 -1.3326 -1.0043
  899MOL0     H24054   7.553  10.626   6.200  2.0217  2.3688  0.5386
  899MOL0     H24055   7.391  10.633   6.113  0.1633 -1.9556 -0.6971
  899MOL0     H24056   7.515  10.723   5.928  3.0897 -0.5583 -1.6850
  899MOL0     H24057   7.517  10.542   5.952 -0.3414  0.7748 -1.8496
  899MOL0     H24058   7.928  10.668   5.958  1.1764 -1.6622  0.6108
  899MOL0     H24059   7.504  11.254   6.275 -0.6446 -3.9413 -2.1173
  899MOL0     H24060   7.794  11.377   6.389 -1.4724  1.9109 -2.6071
  899MOL0     H24061   7.639  11.450   6.376  3.1258  3.2137  0.1109
  899MOL0     H24062   7.710  11.433   6.540  2.8859  0.8396 -0.0259
  900MOL0     O24063   6.088   4.749   3.979 -0.4390 -0.2540 -1.0125
  900MOL0     C24064   6.088   4.644   3.916 -1.1732 -0.5349  0.4712
  900MOL0     O24065   6.205   4.562   3.904 -0.6865 -0.3332  0.0848
  900MOL0     C24066   6.307   4.589   3.995 -0.7073 -0.2862 -0.1827
  900MOL0     C24067   6.435   4.582   3.940 -0.3709  0.2894  0.9032
  900MOL0     C24068   6.538   4.621   4.015 -1.2018  2.0283 -0.0711
  900MOL0     C24069   6.534   4.662   4.148  0.9975 -0.2840 -0.2254
  900MOL0     O24070   6.660   4.694   4.187  0.7012 -0.1817  0.2295
  900MOL0     C24071   6.685   4.771   4.308 -0.3409  0.1511 -0.0653
  900MOL0     C24072   6.685   4.920   4.315 -0.5550  0.8757  0.0894
  900MOL0     C24073   6.556   4.987   4.311  1.2024  0.4611 -0.4783
  900MOL0     C24074   6.492   5.002   4.444  0.3439 -0.5094  0.2573
  900MOL0     C24075   6.381   5.113   4.436 -0.2295  0.7234  0.2868
  900MOL0     C24076   6.245   5.076   4.366  0.4182 -0.2619  0.1427
  900MOL0     C24077   6.179   4.942   4.418  0.8526 -0.0947 -0.8103
  900MOL0     C24078   6.062   4.910   4.327 -0.0251 -1.0885  0.7175
  900MOL0     N24079   5.959   5.015   4.331 -0.2446 -0.5197 -0.0990
  900MOL0     C24080   5.859   5.020   4.426  0.4620  0.1485  0.0173
  900MOL0     C24081   5.810   5.146   4.422  0.1290 -0.3107 -0.8742
  900MOL0     C24082   5.713   5.204   4.519  0.0980 -0.2646  0.4856
  900MOL0     C24083   5.787   5.268   4.635  0.4530 -0.0475 -0.3310
  900MOL0     C24084   5.687   5.258   4.751 -1.2941  0.2172  0.9368
  900MOL0     C24085   5.716   5.127   4.842  0.1751 -0.6706  0.3314
  900MOL0     O24086   5.848   5.106   4.892  0.1824 -0.3806  0.0794
  900MOL0     C24087   5.865   4.995   4.958  0.5399  0.3696  0.7649
  900MOL0     C24088   5.873   5.014   5.102  0.9078 -0.5094  1.4553
  900MOL0     C24089   5.905   4.891   5.175 -0.9355 -0.8598 -0.2935
  900MOL0     C24090   5.907   4.919   5.316  0.5496  0.8030 -0.2753
  900MOL0     C24091   5.933   4.767   5.101 -1.5145  0.1830 -0.6942
  900MOL0     C24092   5.968   4.646   5.178  0.3060 -1.2757 -0.1324
  900MOL0     O24093   5.970   4.536   5.096 -0.1966  0.3036 -0.0026
  900MOL0     C24094   5.960   4.410   5.162 -0.5328 -0.5195  0.0160
  900MOL0     C24095   6.080   4.356   5.229  0.3237 -0.6848 -0.3181
  900MOL0     C24096   6.064   4.244   5.301 -0.3661  0.3355 -0.1602
  900MOL0     C24097   5.943   4.170   5.299  0.6723  1.0521 -1.1184
  900MOL0     O24098   5.919   4.066   5.386  0.0926 -0.3770  0.0917
  900MOL0     C24099   6.024   3.964   5.389 -0.3018  0.8384  0.1301
  900MOL0     C24100   5.974   3.848   5.298 -0.1346  1.0375  0.3335
  900MOL0     C24101   5.980   3.707   5.349  0.1941  0.9396 -0.5365
  900MOL0     C24102   5.950   3.606   5.249  0.7749  0.5817  0.0709
  900MOL0     C24103   5.797   3.596   5.215 -0.8680 -0.2274 -0.0159
  900MOL0     C24104   5.700   3.540   5.323 -0.7839 -0.7908 -0.5409
  900MOL0     C24105   5.579   3.473   5.261 -0.0270 -0.2101 -0.0222
  900MOL0     C24106   5.537   3.349   5.338  0.2470  0.5640 -1.4862
  900MOL0    Cl24107   5.661   3.223   5.332  0.2819  0.3282  0.1538
  900MOL0     C24108   5.833   4.214   5.228  1.1380 -0.6766  0.6235
  900MOL0     C24109   5.842   4.340   5.165 -0.1145  0.1022  0.2630
  900MOL0     O24110   5.997   4.647   5.297  0.2127 -0.4114 -0.1476
  900MOL0     C24111   5.920   4.756   4.972 -0.3647 -0.4300  0.9837
  900MOL0     C24112   5.893   4.871   4.898 -0.2807 -0.7078  0.1817
  900MOL0     N24113   5.864   5.206   4.314 -0.0651 -0.4307 -0.5430
  900MOL0     N24114   5.959   5.134   4.261 -1.1323  0.9737  0.2383
  900MOL0     C24115   6.408   4.669   4.212 -0.4363  0.1401  0.4410
  900MOL0     C24116   6.296   4.623   4.136  0.4633 -0.1725  0.6451
  900MOL0     C24117   5.986   4.632   3.821 -0.3619  0.7801 -0.7521
  900MOL0     C24118   6.028   4.607   3.693 -0.5485  0.3408  0.3995
  900MOL0     C24119   5.943   4.625   3.595 -0.4681 -0.6649  0.6886
  900MOL0     C24120   5.805   4.640   3.615  0.7133 -0.2158 -0.3446
  900MOL0     O24121   5.703   4.663   3.518  0.2456 -0.5243 -0.4506
  900MOL0     C24122   5.721   4.639   3.381 -0.5391  0.6131  0.4418
  900MOL0     C24123   5.727   4.484   3.348  0.3387  0.2520  0.5752
  900MOL0     C24124   5.741   4.466   3.195 -0.4651 -0.0225  0.5392
  900MOL0     C24125   5.729   4.313   3.162 -0.7183 -0.7427 -0.7329
  900MOL0     C24126   5.743   4.310   3.014 -0.8485 -0.6443  0.8247
  900MOL0     C24127   5.757   4.296   2.889  1.1242  0.1503 -0.2788
  900MOL0     C24128   5.761   4.650   3.748 -0.0646  1.1813 -0.6333
  900MOL0     C24129   5.852   4.651   3.849  0.2103  0.4324 -0.4068
  900MOL0     C24130   5.805   4.652   3.994 -0.8299 -0.1907  0.7708
  900MOL0     H24131   6.457   4.551   3.838  1.1572 -0.3894  1.4008
  900MOL0     H24132   6.639   4.611   3.976 -1.1199  1.1002  0.3300
  900MOL0     H24133   6.793   4.756   4.323 -0.1735 -0.4592 -1.6734
  900MOL0     H24134   6.632   4.726   4.393 -1.1898  0.4447 -0.4365
  900MOL0     H24135   6.749   4.966   4.391 -2.1285  1.1698  1.2899
  900MOL0     H24136   6.739   4.942   4.222 -1.6127  1.2519 -0.4633
  900MOL0     H24137   6.571   5.083   4.260  2.9263  1.4195  1.6215
  900MOL0     H24138   6.485   4.934   4.247  1.1129  1.8452 -1.5710
  900MOL0     H24139   6.444   4.916   4.491 -0.5866  0.0029  0.2753
  900MOL0     H24140   6.562   5.039   4.519 -2.7860 -1.1817  3.8825
  900MOL0     H24141   6.428   5.199   4.388  0.7840  1.3247  2.2850
  900MOL0     H24142   6.368   5.160   4.533  1.7347  2.5348 -0.2555
  900MOL0     H24143   6.182   5.159   4.399  0.5954 -0.2220  0.3816
  900MOL0     H24144   6.250   5.078   4.257 -0.0583  0.2239  0.1281
  900MOL0     H24145   6.142   4.964   4.518 -1.4360  2.1365 -2.0204
  900MOL0     H24146   6.244   4.854   4.415  3.0867  1.4751 -1.0753
  900MOL0     H24147   6.095   4.895   4.224 -3.0258  0.0057 -0.5239
  900MOL0     H24148   6.017   4.818   4.367 -4.0185  1.1059  1.8237
  900MOL0     H24149   5.848   4.949   4.508  0.5196  1.2139  0.9679
  900MOL0     H24150   5.643   5.124   4.546  0.4237 -0.2130  1.5361
  900MOL0     H24151   5.642   5.279   4.483  1.2181 -0.2830 -1.9752
  900MOL0     H24152   5.881   5.216   4.652  2.1698  1.8465 -3.0702
  900MOL0     H24153   5.817   5.371   4.614 -1.3800  0.9651  1.5512
  900MOL0     H24154   5.708   5.347   4.812 -0.4791  0.4710  0.3030
  900MOL0     H24155   5.584   5.263   4.714 -1.3468  1.7639  1.2306
  900MOL0     H24156   5.657   5.146   4.933 -0.0126  0.1442  0.0504
  900MOL0     H24157   5.685   5.033   4.794  0.3287 -1.0385  0.9412
  900MOL0     H24158   5.842   5.111   5.139 -2.0665  0.1788 -2.2425
  900MOL0     H24159   5.849   4.844   5.371 -0.5727  0.8365 -1.3627
  900MOL0     H24160   5.870   5.020   5.335 -0.5618  0.5641 -1.0788
  900MOL0     H24161   6.007   4.930   5.360  0.2754  4.6150 -0.2786
  900MOL0     H24162   6.171   4.416   5.234  1.8384 -2.7340 -1.8263
  900MOL0     H24163   6.145   4.228   5.372 -2.5119 -0.4535  2.2940
  900MOL0     H24164   6.122   3.999   5.356  0.2611 -1.8143 -1.2931
  900MOL0     H24165   6.041   3.927   5.490  1.8591 -0.4010 -0.6092
  900MOL0     H24166   5.867   3.866   5.280 -1.3124 -1.6485  3.6013
  900MOL0     H24167   6.023   3.865   5.202  0.6353 -0.3381  0.4609
  900MOL0     H24168   5.902   3.697   5.425 -0.1219  2.6351 -0.5980
  900MOL0     H24169   6.080   3.693   5.392  0.2076  0.0025 -0.8539
  900MOL0     H24170   5.982   3.511   5.292  2.8308  0.6635 -1.1333
  900MOL0     H24171   6.008   3.612   5.156  0.3071 -2.6552 -0.5393
  900MOL0     H24172   5.761   3.694   5.182  1.0389  1.0794  1.5558
  900MOL0     H24173   5.803   3.518   5.138  0.8350  1.6617 -1.9422
  900MOL0     H24174   5.663   3.612   5.396  0.0379 -1.4478  0.5537
  900MOL0     H24175   5.764   3.469   5.377 -0.0385 -0.6873 -1.2726
  900MOL0     H24176   5.607   3.439   5.161  1.4744  3.1477 -0.8907
  900MOL0     H24177   5.498   3.546   5.250  0.8434  1.2517  2.4040
  900MOL0     H24178   5.443   3.300   5.313 -0.8422  1.5826  0.3924
  900MOL0     H24179   5.543   3.386   5.441 -0.7694  0.0781 -1.2475
  900MOL0     H24180   5.733   4.173   5.240  0.6309  0.5597  0.8125
  900MOL0     H24181   5.761   4.383   5.107  1.3012  3.7247  0.6746
  900MOL0     H24182   5.937   4.664   4.916  0.1539  0.9589 -1.2880
  900MOL0     H24183   5.882   4.860   4.790 -0.9478  3.7791 -0.3994
  900MOL0     H24184   6.410   4.707   4.313  1.5764 -0.0689  0.5144
  900MOL0     H24185   6.197   4.614   4.181  0.1898  0.0830  0.1104
  900MOL0     H24186   6.133   4.597   3.669 -1.1592 -2.3208 -1.7239
  900MOL0     H24187   5.973   4.612   3.492 -2.5040 -1.5722  0.1661
  900MOL0     H24188   5.653   4.699   3.320  0.5186 -0.2801 -1.7129
  900MOL0     H24189   5.818   4.685   3.356  0.3067 -1.4056 -0.1581
  900MOL0     H24190   5.643   4.424   3.387  0.6875 -2.0100 -1.8784
  900MOL0     H24191   5.823   4.456   3.393  1.4052  0.9868 -1.1445
  900MOL0     H24192   5.664   4.524   3.143  1.6932  2.7194  0.1217
  900MOL0     H24193   5.839   4.504   3.164 -0.2018  0.3341  1.7877
  900MOL0     H24194   5.632   4.272   3.193 -0.6961  1.1717  2.3806
  900MOL0     H24195   5.812   4.262   3.211 -0.6965  0.1686  0.2151
  900MOL0     H24196   5.778   4.276   2.786  0.2172 -2.8248  0.0236
  900MOL0     H24197   5.658   4.644   3.782  0.8133  1.2181  2.3069
  900MOL0     H24198   5.875   4.609   4.065 -0.6909  0.3838  0.9818
  900MOL0     H24199   5.800   4.761   4.005 -1.6114 -0.1029 -0.2054
  900MOL0     H24200   5.704   4.609   4.000 -0.5389 -0.9444  0.4343
  901MOL0     O24201   8.557   4.444   9.222 -0.2478 -0.4903  0.6221
  901MOL0     C24202   8.452   4.500   9.202  0.2098 -0.0198 -0.4942
  901MOL0     O24203   8.387   4.585   9.292 -0.5172 -0.7351  0.1423
  901MOL0     C24204   8.454   4.623   9.409  0.1125  0.4923  0.0953
  901MOL0     C24205   8.475   4.536   9.512 -0.3968 -0.0101 -0.0049
  901MOL0     C24206   8.549   4.575   9.630 -0.9343 -0.4389  0.4657
  901MOL0     C24207   8.600   4.705   9.640 -0.4915 -0.1750  0.2863
  901MOL0     O24208   8.675   4.743   9.755 -0.5820  0.0259  0.7559
  901MOL0     C24209   8.708   4.671   9.861 -0.2847  0.7878 -1.4714
  901MOL0     C24210   8.720   4.761   9.985  0.0571  0.7367 -0.9219
  901MOL0     C24211   8.824   4.873   9.983 -0.2825 -0.1385 -1.1980
  901MOL0     C24212   8.949   4.856  10.070 -0.3679 -0.8509 -1.1918
  901MOL0     C24213   9.038   4.981  10.066  0.5956  0.0522  0.8817
  901MOL0     C24214   8.995   5.087  10.167 -0.5746  0.0891  0.7573
  901MOL0     C24215   8.965   5.041  10.316  0.3156 -0.4457  0.7970
  901MOL0     C24216   8.948   5.155  10.413 -0.3593 -0.2530 -0.1262
  901MOL0     N24217   8.838   5.244  10.395  0.0274  0.4261  0.0736
  901MOL0     C24218   8.719   5.239  10.461 -0.2934  0.0697 -0.0933
  901MOL0     C24219   8.649   5.347  10.414 -1.1809 -0.4307  0.0080
  901MOL0     C24220   8.519   5.376  10.474 -0.6244  0.7246  0.0641
  901MOL0     C24221   8.501   5.523  10.492  0.2157 -1.2683  0.4989
  901MOL0     C24222   8.389   5.550  10.589  0.2209 -0.3349 -0.1854
  901MOL0     C24223   8.366   5.703  10.566 -1.5306  0.2528  1.1761
  901MOL0     O24224   8.484   5.785  10.595  0.3032  0.2591 -0.1945
  901MOL0     C24225   8.459   5.914  10.609 -0.2705 -0.6952  0.2749
  901MOL0     C24226   8.336   5.981  10.583 -0.9584  1.3236 -0.4997
  901MOL0     C24227   8.322   6.117  10.627  0.1547  0.3643 -0.2800
  901MOL0     C24228   8.181   6.162  10.602 -0.0133  0.0120 -0.9069
  901MOL0     C24229   8.432   6.190  10.691 -0.3698 -0.9229 -0.0434
  901MOL0     C24230   8.429   6.331  10.719  0.0550 -0.3998  0.1062
  901MOL0     O24231   8.437   6.369  10.847  0.6451 -0.0832  0.5659
  901MOL0     C24232   8.463   6.502  10.879 -0.3269  0.2394 -0.0030
  901MOL0     C24233   8.443   6.538  11.014 -1.2584 -0.0077 -0.9481
  901MOL0     C24234   8.458   6.664  11.057  0.8903 -0.8713 -0.7560
  901MOL0     C24235   8.482   6.769  10.974 -0.2068 -0.0017  1.1509
  901MOL0     O24236   8.460   6.900  11.021  0.5007 -0.0855 -0.3487
  901MOL0     C24237   8.395   6.934  11.145  0.5815 -0.7668  0.4732
  901MOL0     C24238   8.398   7.090  11.158 -0.5428 -0.8378 -0.7794
  901MOL0     C24239   8.521   7.162  11.109  0.8567  0.3180  0.7690
  901MOL0     C24240   8.519   7.306  11.161 -0.6672  0.2805  0.4752
  901MOL0     C24241   8.408   7.390  11.107  0.4287  0.0021 -0.2571
  901MOL0     C24242   8.427   7.433  10.960  0.6469 -0.6377 -0.4824
  901MOL0     C24243   8.307   7.514  10.906  0.4584  0.2177  0.6075
  901MOL0     C24244   8.261   7.474  10.758  0.8455 -0.1678  1.0263
  901MOL0    Cl24245   8.120   7.574  10.695  0.2186 -0.4210  0.0418
  901MOL0     C24246   8.506   6.744  10.833 -0.1945 -0.9402  0.4361
  901MOL0     C24247   8.507   6.610  10.792  0.6089 -0.6126  0.5775
  901MOL0     O24248   8.405   6.410  10.627  0.6540  0.6520  0.4807
  901MOL0     C24249   8.548   6.116  10.705 -0.2830  0.3283 -0.8575
  901MOL0     C24250   8.559   5.984  10.672 -0.0269 -0.3881  0.5348
  901MOL0     N24251   8.719   5.430  10.326 -0.8948 -0.1510  0.4441
  901MOL0     N24252   8.832   5.363  10.321 -0.6095 -0.1744  0.3492
  901MOL0     C24253   8.575   4.795   9.539 -0.3725  0.1047 -0.2890
  901MOL0     C24254   8.494   4.753   9.427 -0.8189  0.0719 -0.9572
  901MOL0     C24255   8.367   4.474   9.076  0.6825 -0.4788 -0.0455
  901MOL0     C24256   8.269   4.562   9.053  0.7547 -0.5960 -0.2380
  901MOL0     C24257   8.196   4.571   8.937  1.0213  0.7872  0.0260
  901MOL0     C24258   8.210   4.457   8.846  0.7884 -0.7575 -0.5812
  901MOL0     O24259   8.137   4.429   8.740  0.2092  0.3959 -0.2487
  901MOL0     C24260   8.077   4.526   8.653 -0.7249 -0.4829 -0.3466
  901MOL0     C24261   8.115   4.496   8.511  0.1933 -0.0533  0.3746
  901MOL0     C24262   8.257   4.456   8.489  0.2669 -0.1152 -0.2652
  901MOL0     C24263   8.353   4.573   8.529  0.1443  0.4130  0.7376
  901MOL0     C24264   8.349   4.700   8.447  0.6953 -0.1483 -0.0439
  901MOL0     C24265   8.346   4.799   8.371 -0.0494 -0.2313  0.3283
  901MOL0     C24266   8.298   4.355   8.874 -0.3854 -1.1761  0.6028
  901MOL0     C24267   8.383   4.370   8.982 -0.9756  1.0230  0.9074
  901MOL0     C24268   8.481   4.258   9.015 -0.7736 -0.1664  0.1505
  901MOL0     H24269   8.451   4.431   9.502 -0.9862  0.1646 -0.4937
  901MOL0     H24270   8.574   4.490   9.691  4.5412 -0.5189 -1.3120
  901MOL0     H24271   8.803   4.619   9.847 -2.0942 -2.4303 -2.9293
  901MOL0     H24272   8.644   4.584   9.882 -0.6942  1.4715  0.2608
  901MOL0     H24273   8.620   4.795  10.013 -1.1086 -0.4387 -3.3365
  901MOL0     H24274   8.757   4.693  10.063 -1.2505 -0.9471 -1.7008
  901MOL0     H24275   8.861   4.880   9.880 -0.2531 -1.0256 -1.2538
  901MOL0     H24276   8.762   4.961  10.003 -0.8466 -1.0588  1.5377
  901MOL0     H24277   8.924   4.827  10.173  1.3891  1.7875  0.0717
  901MOL0     H24278   9.018   4.781  10.030  1.2017  1.3639 -2.8675
  901MOL0     H24279   9.045   5.027   9.967  3.1254  1.6461  1.7088
  901MOL0     H24280   9.141   4.951  10.089  0.6839 -0.0330  0.3925
  901MOL0     H24281   9.068   5.169  10.167 -0.5955  0.1206 -0.1502
  901MOL0     H24282   8.904   5.137  10.132 -1.0664 -2.5292 -2.1551
  901MOL0     H24283   9.041   4.970  10.350 -0.5955 -0.7906  2.2260
  901MOL0     H24284   8.874   4.981  10.315  1.8251 -2.8716  0.0984
  901MOL0     H24285   8.940   5.097  10.505  1.8072  0.6236  0.6795
  901MOL0     H24286   9.042   5.211  10.409 -1.6250  2.0345 -4.1660
  901MOL0     H24287   8.684   5.160  10.526  2.0265  0.4218  1.7193
  901MOL0     H24288   8.514   5.331  10.573 -0.4630 -1.8062 -1.0002
  901MOL0     H24289   8.438   5.329  10.417 -0.5961  1.5583 -0.6831
  901MOL0     H24290   8.594   5.562  10.533  0.0618  0.9505 -1.0295
  901MOL0     H24291   8.478   5.568  10.395  0.5564  0.1340  1.0439
  901MOL0     H24292   8.307   5.483  10.563 -0.2290  0.6205 -1.3099
  901MOL0     H24293   8.422   5.534  10.692 -0.6514  4.5760  1.1101
  901MOL0     H24294   8.325   5.723  10.466  2.3090  0.8786 -0.4330
  901MOL0     H24295   8.293   5.730  10.643 -2.4695 -1.7587  1.0609
  901MOL0     H24296   8.244   5.926  10.566 -2.2968  3.1848  0.3115
  901MOL0     H24297   8.113   6.081  10.575 -2.4102  1.5916  0.0144
  901MOL0     H24298   8.172   6.217  10.508 -0.8355  0.9499 -0.3028
  901MOL0     H24299   8.138   6.208  10.692  0.7221 -2.2893  0.7221
  901MOL0     H24300   8.420   6.458  11.083 -0.2377 -0.5647 -1.2386
  901MOL0     H24301   8.448   6.686  11.163 -1.7452  0.5689 -1.2247
  901MOL0     H24302   8.292   6.899  11.136 -1.1576  3.7701  0.1654
  901MOL0     H24303   8.442   6.886  11.232  1.3088  0.6507  0.9073
  901MOL0     H24304   8.310   7.132  11.107  0.3710 -1.2024 -2.7590
  901MOL0     H24305   8.396   7.110  11.265 -2.2162  2.9399 -1.3498
  901MOL0     H24306   8.530   7.160  11.000  2.6903 -1.4165  0.8946
  901MOL0     H24307   8.604   7.117  11.163  2.7501  3.3742  0.6768
  901MOL0     H24308   8.610   7.363  11.141  0.2493 -1.3209 -0.1182
  901MOL0     H24309   8.513   7.300  11.270 -0.5295  2.7298  0.6653
  901MOL0     H24310   8.308   7.355  11.135 -0.5626  1.2689 -2.0218
  901MOL0     H24311   8.416   7.486  11.158 -1.2837  0.2938 -0.4471
  901MOL0     H24312   8.443   7.344  10.898  1.0734 -0.5184 -0.5537
  901MOL0     H24313   8.518   7.495  10.962 -0.3481  0.8657  0.4554
  901MOL0     H24314   8.342   7.616  10.888  1.6762 -0.3376 -0.3918
  901MOL0     H24315   8.220   7.507  10.971  0.1731 -0.8934  0.1426
  901MOL0     H24316   8.214   7.376  10.748  2.0559 -0.6520 -0.1637
  901MOL0     H24317   8.347   7.473  10.691  0.0484  0.0088 -0.0150
  901MOL0     H24318   8.531   6.821  10.761  1.8095 -2.3293 -0.4571
  901MOL0     H24319   8.540   6.596  10.689 -0.4253  1.9578 -0.2083
  901MOL0     H24320   8.636   6.162  10.749  1.1159 -2.9535  0.0222
  901MOL0     H24321   8.648   5.927  10.699  1.0518 -0.3062 -2.5173
  901MOL0     H24322   8.619   4.892   9.555  0.6448 -0.5115  0.7981
  901MOL0     H24323   8.466   4.816   9.343 -1.1447  0.6574 -0.4250
  901MOL0     H24324   8.243   4.646   9.117 -3.9085 -1.4885 -0.6378
  901MOL0     H24325   8.114   4.641   8.923  1.6284  1.4269 -0.3508
  901MOL0     H24326   7.971   4.542   8.673 -0.0960  0.7349  2.6764
  901MOL0     H24327   8.118   4.623   8.683 -0.4532 -0.5747 -0.4200
  901MOL0     H24328   8.079   4.577   8.448 -4.1489 -0.4962  1.9325
  901MOL0     H24329   8.054   4.412   8.477 -0.8614 -0.2523  2.5767
  901MOL0     H24330   8.278   4.364   8.545 -4.3946 -1.2294  0.0213
  901MOL0     H24331   8.286   4.422   8.390  1.2548 -0.2024  0.0419
  901MOL0     H24332   8.455   4.535   8.523  1.0868  2.7816  0.7545
  901MOL0     H24333   8.333   4.587   8.635 -2.2915  1.4350  0.2278
  901MOL0     H24334   8.356   4.888   8.313  1.6936 -1.9508 -2.2487
  901MOL0     H24335   8.298   4.269   8.808 -1.3820  0.0418 -1.0572
  901MOL0     H24336   8.458   4.177   8.944 -2.7452  2.2943 -2.2499
  901MOL0     H24337   8.580   4.294   8.986 -0.1072  0.0563  2.5398
  901MOL0     H24338   8.471   4.233   9.121 -0.6590 -2.3092 -0.3078
  902MOL0     O24339   2.215   3.874  10.066  0.5898 -0.2601  0.3656
  902MOL0     C24340   2.233   3.952  10.156 -0.2741  0.6745  0.7849
  902MOL0     O24341   2.169   3.945  10.273  0.3595 -0.4885 -0.1431
  902MOL0     C24342   2.086   3.845  10.313 -0.2231 -0.0326  0.2837
  902MOL0     C24343   2.126   3.715  10.315 -0.2172  0.7729 -0.9305
  902MOL0     C24344   2.041   3.621  10.357 -1.3493  0.0874 -1.0504
  902MOL0     C24345   1.913   3.647  10.408  0.2620  0.4753  0.2197
  902MOL0     O24346   1.829   3.551  10.471 -0.4051 -0.3125  0.5926
  902MOL0     C24347   1.873   3.420  10.498  0.6706  0.6129 -0.0276
  902MOL0     C24348   1.834   3.330  10.379  0.1510  0.2128 -0.1005
  902MOL0     C24349   1.949   3.233  10.357  0.2678 -0.2810 -0.8334
  902MOL0     C24350   1.929   3.156  10.230 -0.1890  0.0462  0.1991
  902MOL0     C24351   1.943   3.000  10.228  0.1874  0.0657 -0.2042
  902MOL0     C24352   1.880   2.930  10.349  0.2540 -0.0640  0.2679
  902MOL0     C24353   1.854   2.781  10.318 -0.6914  0.5941 -0.4468
  902MOL0     C24354   1.799   2.711  10.445 -0.5820  0.3388 -0.8893
  902MOL0     N24355   1.737   2.579  10.418 -0.0859  0.1113 -0.4605
  902MOL0     C24356   1.607   2.562  10.382  0.3375 -0.6162  0.4051
  902MOL0     C24357   1.573   2.443  10.445  0.4423 -0.2985 -0.0258
  902MOL0     C24358   1.432   2.394  10.478 -0.0793 -0.8548  0.0410
  902MOL0     C24359   1.431   2.292  10.598  0.2868 -0.5196 -0.2069
  902MOL0     C24360   1.287   2.260  10.641 -0.1381 -0.9467  0.1277
  902MOL0     C24361   1.266   2.115  10.685  0.0789  0.6055 -0.7145
  902MOL0     O24362   1.141   2.107  10.741  0.7432 -0.1661 -0.3786
  902MOL0     C24363   1.111   1.986  10.784 -0.3805  0.5316 -0.6649
  902MOL0     C24364   1.163   1.863  10.743 -0.1933  0.8118 -0.2882
  902MOL0     C24365   1.110   1.737  10.789  0.4742 -0.4700  0.1757
  902MOL0     C24366   1.165   1.612  10.721 -0.7186 -0.2046 -0.2033
  902MOL0     C24367   1.028   1.735  10.902 -0.1685  0.6906 -0.3236
  902MOL0     C24368   0.977   1.609  10.971  0.0071 -0.3399 -0.5654
  902MOL0     O24369   0.956   1.622  11.109 -0.2840 -0.2912  0.1768
  902MOL0     C24370   0.950   1.510  11.191  0.0784 -0.1148  0.0804
  902MOL0     C24371   0.849   1.403  11.164  0.3316  0.3578 -0.0336
  902MOL0     C24372   0.830   1.298  11.251  0.2483 -0.0210 -0.4828
  902MOL0     C24373   0.919   1.275  11.357  0.0800 -0.3512 -0.6550
  902MOL0     O24374   0.905   1.165  11.441  0.0676 -0.1551 -0.8830
  902MOL0     C24375   0.878   1.194  11.578  0.1754  0.0176 -0.3112
  902MOL0     C24376   0.936   1.078  11.660 -0.2944 -0.6518 -0.2599
  902MOL0     C24377   0.882   1.056  11.801  0.3692 -0.1199 -0.6877
  902MOL0     C24378   0.978   0.986  11.899 -0.1488 -0.4205  1.1533
  902MOL0     C24379   0.936   0.841  11.916 -0.7300  0.2685 -0.5179
  902MOL0     C24380   0.828   0.827  12.028 -0.9122 -0.4820  0.3411
  902MOL0     C24381   0.806   0.675  12.068 -0.4754 -1.2964  0.5136
  902MOL0     C24382   0.686   0.677  12.176 -0.4160  1.6374  0.7520
  902MOL0    Cl24383   0.709   0.783  12.320  0.3499  0.3878  0.5612
  902MOL0     C24384   1.017   1.368  11.379  0.2479 -0.7185  0.0876
  902MOL0     C24385   1.034   1.488  11.294 -0.0270  0.3129 -0.3907
  902MOL0     O24386   0.968   1.504  10.906  0.1574  0.5277 -0.9955
  902MOL0     C24387   0.988   1.858  10.952 -0.7046 -0.9138 -0.0488
  902MOL0     C24388   1.027   1.984  10.894  0.8618  0.2434  0.1644
  902MOL0     N24389   1.686   2.386  10.499  0.4288 -0.8614  0.4756
  902MOL0     N24390   1.780   2.469  10.481 -0.0462 -0.0550 -0.3241
  902MOL0     C24391   1.873   3.781  10.420 -0.3238 -0.5465  0.2694
  902MOL0     C24392   1.961   3.881  10.369  0.2146  0.3574  0.5079
  902MOL0     C24393   2.327   4.066  10.153 -0.2242  0.1656  0.0723
  902MOL0     C24394   2.425   4.072  10.252  0.1718 -0.0521  0.5526
  902MOL0     C24395   2.539   4.149  10.228 -0.3069  0.1813  0.0056
  902MOL0     C24396   2.563   4.229  10.119 -0.0671 -0.6510 -0.2822
  902MOL0     O24397   2.683   4.299  10.128 -0.0223  0.7983 -0.6397
  902MOL0     C24398   2.701   4.406  10.034 -0.0528 -0.8591 -0.3067
  902MOL0     C24399   2.848   4.453  10.047  0.2210  0.4086  0.8703
  902MOL0     C24400   2.866   4.581   9.969 -0.2639  0.5560  0.6300
  902MOL0     C24401   3.005   4.640   9.956 -0.3037  0.4858 -1.4581
  902MOL0     C24402   3.052   4.692  10.091  0.2490 -0.4671 -0.0398
  902MOL0     C24403   3.096   4.735  10.198  0.7903  0.6294  0.6893
  902MOL0     C24404   2.464   4.230  10.023  0.2179 -0.2205 -0.7266
  902MOL0     C24405   2.351   4.144  10.033  0.2978 -0.5002  0.2216
  902MOL0     C24406   2.252   4.166   9.926  1.0542  1.2553 -0.7815
  902MOL0     H24407   2.230   3.696  10.288 -0.5823 -2.0294 -0.7537
  902MOL0     H24408   2.084   3.522  10.353 -0.8728  0.2806 -0.7954
  902MOL0     H24409   1.820   3.384  10.587  1.8182  1.9699  1.2610
  902MOL0     H24410   1.980   3.407  10.514  0.7275  1.5952  0.4178
  902MOL0     H24411   1.742   3.275  10.401 -0.5162  0.5377 -1.9404
  902MOL0     H24412   1.820   3.386  10.287 -2.4767  1.3838  0.9178
  902MOL0     H24413   2.051   3.273  10.349  0.6168 -1.4071 -2.6821
  902MOL0     H24414   1.958   3.166  10.442  0.8558  0.5536 -0.2148
  902MOL0     H24415   1.822   3.173  10.218 -0.7629 -0.7128  3.3420
  902MOL0     H24416   1.988   3.197  10.147 -1.1911  0.6242 -0.2513
  902MOL0     H24417   2.044   2.960  10.214 -0.5230 -1.9654  0.1521
  902MOL0     H24418   1.882   2.973  10.141 -2.8816 -1.5005  2.2484
  902MOL0     H24419   1.953   2.948  10.429  1.4473  2.3114 -1.2445
  902MOL0     H24420   1.786   2.978  10.378  0.8046  0.4205  1.3210
  902MOL0     H24421   1.949   2.732  10.292 -1.4796 -1.1221 -0.2840
  902MOL0     H24422   1.788   2.772  10.231 -0.5583 -1.0145 -0.4154
  902MOL0     H24423   1.887   2.710  10.510  0.0999  0.5590 -1.7766
  902MOL0     H24424   1.721   2.776  10.486 -2.4203 -3.3395  2.0675
  902MOL0     H24425   1.533   2.623  10.331  1.0634  0.7020  0.9030
  902MOL0     H24426   1.391   2.333  10.397 -1.5700 -0.2511  0.3041
  902MOL0     H24427   1.368   2.482  10.492  1.0635 -0.1734  1.2525
  902MOL0     H24428   1.481   2.201  10.561  0.4537 -1.2076  1.6262
  902MOL0     H24429   1.473   2.335  10.689  1.8720  0.8590 -1.5264
  902MOL0     H24430   1.254   2.321  10.725  3.3941 -0.0724  1.0381
  902MOL0     H24431   1.227   2.286  10.553 -1.1336 -2.8702  0.1833
  902MOL0     H24432   1.275   2.048  10.599 -0.3081 -0.4350  0.0394
  902MOL0     H24433   1.344   2.090  10.758  0.9435  0.2314 -1.7385
  902MOL0     H24434   1.232   1.840  10.663 -0.1121 -1.6529  0.4023
  902MOL0     H24435   1.234   1.563  10.790 -2.7632  1.3980  3.2567
  902MOL0     H24436   1.215   1.633  10.626 -1.4991  4.6628  0.2035
  902MOL0     H24437   1.084   1.543  10.696  0.5455 -0.9060 -2.7586
  902MOL0     H24438   0.774   1.421  11.088 -3.2614  0.5511  3.2475
  902MOL0     H24439   0.748   1.228  11.241  1.1001 -1.3211  1.0497
  902MOL0     H24440   0.920   1.292  11.602 -1.5133  0.6738  0.1228
  902MOL0     H24441   0.771   1.204  11.597  0.8618  0.4939  4.4786
  902MOL0     H24442   0.932   0.981  11.609  0.0049 -2.2010  2.4655
  902MOL0     H24443   1.037   1.120  11.667 -0.0839 -0.9183 -1.4421
  902MOL0     H24444   0.789   0.999  11.806  0.9826 -1.0440  1.1706
  902MOL0     H24445   0.864   1.155  11.842  2.9641  1.4957 -3.0039
  902MOL0     H24446   1.004   1.048  11.985  3.0202 -1.8599  1.3825
  902MOL0     H24447   1.080   0.995  11.859  2.6505  2.1139  7.4474
  902MOL0     H24448   0.910   0.797  11.819 -2.3998  0.9469 -0.4143
  902MOL0     H24449   1.023   0.786  11.953 -1.8074 -1.6184 -0.7035
  902MOL0     H24450   0.743   0.892  12.007 -0.6433 -0.1546  0.2547
  902MOL0     H24451   0.873   0.871  12.118  1.4620 -0.6286 -0.6828
  902MOL0     H24452   0.899   0.635  12.111 -0.4211 -0.5670  1.0943
  902MOL0     H24453   0.760   0.613  11.990 -0.4607 -0.1735 -0.4042
  902MOL0     H24454   0.677   0.570  12.197  0.5710  0.8140 -2.4712
  902MOL0     H24455   0.593   0.710  12.129 -0.2664 -0.2766 -1.0125
  902MOL0     H24456   1.086   1.355  11.461  2.0623 -2.6548 -1.6295
  902MOL0     H24457   1.105   1.563  11.327 -0.9649  0.5548  1.2134
  902MOL0     H24458   0.931   1.871  11.043  2.6533 -0.0364  2.0766
  902MOL0     H24459   0.989   2.076  10.935  2.1390  2.2990 -2.8683
  902MOL0     H24460   1.770   3.807  10.442  0.1158  1.1230  0.5221
  902MOL0     H24461   1.933   3.985  10.352 -0.4776 -0.0693 -1.2393
  902MOL0     H24462   2.426   3.995  10.329  0.2919 -3.1263 -2.2986
  902MOL0     H24463   2.612   4.151  10.309  1.5630 -0.9708 -1.5605
  902MOL0     H24464   2.693   4.372   9.930 -1.8765  1.6188 -1.0699
  902MOL0     H24465   2.635   4.492  10.049  2.2103  1.3430 -2.0555
  902MOL0     H24466   2.911   4.373  10.008  2.0126  2.5815 -0.9610
  902MOL0     H24467   2.876   4.462  10.153  2.0558  0.5958  0.4094
  902MOL0     H24468   2.819   4.571   9.871  1.2611  1.0057 -0.1779
  902MOL0     H24469   2.820   4.659  10.031  3.8258  1.6521  2.6247
  902MOL0     H24470   3.008   4.728   9.892 -1.5030  2.2534  0.7640
  902MOL0     H24471   3.075   4.559   9.933  0.4831 -0.5816  3.5068
  902MOL0     H24472   3.134   4.795  10.278  2.6681  0.2491  0.1396
  902MOL0     H24473   2.461   4.299   9.940  1.4199 -0.3231 -0.8832
  902MOL0     H24474   2.293   4.134   9.829  2.2471 -0.7782  0.3335
  902MOL0     H24475   2.162   4.105   9.936  1.3347  0.7695 -1.1733
  902MOL0     H24476   2.231   4.273   9.922  1.0894  1.2463 -1.2520
  903MOL0     O24477  11.353  11.255   6.191  0.0758  0.4181 -0.5013
  903MOL0     C24478  11.370  11.289   6.077  1.3554 -0.2058 -1.0599
  903MOL0     O24479  11.262  11.315   5.992  0.0402 -0.2420 -0.1555
  903MOL0     C24480  11.137  11.274   6.033 -0.9073 -0.3598  0.0311
  903MOL0     C24481  11.070  11.201   5.940 -0.2952  0.4804 -0.4733
  903MOL0     C24482  10.934  11.168   5.949 -0.0633 -0.5619  0.3784
  903MOL0     C24483  10.855  11.205   6.064  0.2561  0.3427  0.6730
  903MOL0     O24484  10.722  11.175   6.067 -0.3115  0.5365  0.4984
  903MOL0     C24485  10.641  11.233   5.959  0.3244  0.2453 -0.5277
  903MOL0     C24486  10.500  11.246   6.015  0.3913 -0.0055 -0.3151
  903MOL0     C24487  10.486  11.370   6.104 -0.8072 -0.4288  0.1657
  903MOL0     C24488  10.466  11.501   6.025 -0.6833 -0.1348 -0.4133
  903MOL0     C24489  10.482  11.624   6.113 -0.4775  0.0016  0.2922
  903MOL0     C24490  10.634  11.664   6.152 -0.2228  0.8292  1.4343
  903MOL0     C24491  10.632  11.785   6.254  0.5932 -0.0304  0.0095
  903MOL0     C24492  10.770  11.836   6.304 -0.8104 -0.3420 -0.0850
  903MOL0     N24493  10.838  11.724   6.381 -1.4358  0.7566 -0.5160
  903MOL0     C24494  10.784  11.672   6.494 -0.3359  0.6712 -0.3623
  903MOL0     C24495  10.842  11.556   6.504 -0.4404 -0.2704 -0.4321
  903MOL0     C24496  10.822  11.450   6.608 -0.8008  0.1326 -0.0366
  903MOL0     C24497  10.793  11.320   6.553  0.1496 -0.0354  0.0530
  903MOL0     C24498  10.665  11.300   6.468  0.1556 -0.2113  0.0130
  903MOL0     C24499  10.650  11.152   6.430  0.1773 -0.0631 -1.5557
  903MOL0     O24500  10.620  11.088   6.564  0.5621  0.2740 -0.7082
  903MOL0     C24501  10.581  10.960   6.571 -0.0696  0.6104 -0.8581
  903MOL0     C24502  10.509  10.917   6.688 -1.1111 -0.1333 -0.4079
  903MOL0     C24503  10.455  10.787   6.683  0.0744  0.0778  0.5775
  903MOL0     C24504  10.368  10.743   6.800 -0.0987  0.7696  0.7390
  903MOL0     C24505  10.462  10.706   6.575 -0.3364  0.0048  0.3113
  903MOL0     C24506  10.409  10.560   6.573  0.2482  0.3276  0.2896
  903MOL0     O24507  10.281  10.535   6.602 -0.0217 -0.1435  0.1641
  903MOL0     C24508  10.245  10.404   6.617 -0.5828  0.0955  0.2629
  903MOL0     C24509  10.209  10.350   6.743 -0.4076 -0.3376  1.0305
  903MOL0     C24510  10.167  10.216   6.748 -0.7641  0.0265 -0.8802
  903MOL0     C24511  10.168  10.142   6.631 -0.5209  1.2278  0.2512
  903MOL0     O24512  10.150  10.008   6.634 -0.1430 -0.5522  0.1567
  903MOL0     C24513  10.026   9.968   6.682  0.2699 -0.1253 -0.2495
  903MOL0     C24514   9.980   9.824   6.657 -0.2448 -0.3664 -0.1099
  903MOL0     C24515   9.934   9.786   6.516  0.5833 -0.2571  1.3702
  903MOL0     C24516   9.783   9.745   6.506 -0.2619  0.0299 -0.1468
  903MOL0     C24517   9.738   9.737   6.371  0.4299 -0.3480  0.2588
  903MOL0     C24518   9.606   9.663   6.364 -0.2717  0.4068 -0.5774
  903MOL0     C24519   9.534   9.677   6.231  0.3454 -0.2050 -0.0885
  903MOL0     C24520   9.449   9.542   6.219  0.5931 -0.6670  0.1790
  903MOL0    Cl24521   9.554   9.399   6.187 -0.1083  0.1350  0.8512
  903MOL0     C24522  10.198  10.198   6.505  0.3214  0.3539 -0.4122
  903MOL0     C24523  10.239  10.328   6.501 -1.2194  0.0247 -0.3458
  903MOL0     O24524  10.500  10.471   6.558  0.2437  0.1824 -0.1392
  903MOL0     C24525  10.545  10.744   6.472 -0.1638  0.2684  0.7146
  903MOL0     C24526  10.601  10.870   6.469  0.1552 -0.7189  0.4777
  903MOL0     N24527  10.946  11.541   6.411  0.5508  1.1592  0.1128
  903MOL0     N24528  10.946  11.644   6.340 -0.1367 -0.3406 -0.2332
  903MOL0     C24529  10.923  11.278   6.162 -0.2203 -0.0877 -0.2008
  903MOL0     C24530  11.059  11.321   6.146  0.6643  0.8492 -0.7325
  903MOL0     C24531  11.509  11.305   6.032 -0.0664  0.0822  0.7127
  903MOL0     C24532  11.613  11.235   6.097 -0.5348 -0.1976  0.1278
  903MOL0     C24533  11.742  11.235   6.055 -0.9664  0.1037  0.6449
  903MOL0     C24534  11.776  11.313   5.942  0.4638 -0.5822  0.8232
  903MOL0     O24535  11.900  11.310   5.883 -0.6274 -1.0214  0.4961
  903MOL0     C24536  11.986  11.198   5.910 -0.6699 -1.1872 -0.3236
  903MOL0     C24537  12.097  11.207   5.808 -0.8712  0.2562 -0.0747
  903MOL0     C24538  12.213  11.116   5.857 -0.3078  0.7101 -0.1016
  903MOL0     C24539  12.203  10.966   5.812  0.4038 -1.0560  0.5837
  903MOL0     C24540  12.226  10.972   5.665  0.2120 -0.5221 -0.8070
  903MOL0     C24541  12.238  10.965   5.550  0.4729  0.1856  1.1238
  903MOL0     C24542  11.681  11.385   5.874 -0.1234  0.0282 -0.2800
  903MOL0     C24543  11.547  11.384   5.917 -0.1111  0.8029  0.6894
  903MOL0     C24544  11.452  11.471   5.836  0.4034 -1.3001  0.2038
  903MOL0     H24545  11.128  11.166   5.855  0.4835  0.8329 -0.0963
  903MOL0     H24546  10.887  11.093   5.886 -1.8280 -0.6397  1.6933
  903MOL0     H24547  10.637  11.161   5.876 -3.1836 -1.1867  0.7150
  903MOL0     H24548  10.662  11.332   5.916 -0.6133  2.9573  4.4547
  903MOL0     H24549  10.411  11.240   5.951 -0.1989  3.5330 -0.0746
  903MOL0     H24550  10.481  11.163   6.083  0.3735  0.8286  0.7392
  903MOL0     H24551  10.405  11.352   6.175 -1.1236  0.2505 -0.0085
  903MOL0     H24552  10.579  11.382   6.161 -0.9756 -1.7629  0.7600
  903MOL0     H24553  10.527  11.510   5.936  1.1419 -2.5894  0.4746
  903MOL0     H24554  10.366  11.510   5.982 -0.9176  0.5531  0.2407
  903MOL0     H24555  10.448  11.592   6.212  5.5140  0.3706  2.8763
  903MOL0     H24556  10.426  11.708   6.070 -0.1804 -0.6640 -1.4896
  903MOL0     H24557  10.681  11.575   6.196 -0.2236 -0.5498 -1.1159
  903MOL0     H24558  10.699  11.689   6.068  0.5126 -0.2975  1.6329
  903MOL0     H24559  10.568  11.766   6.341  2.2616 -0.8090  1.1258
  903MOL0     H24560  10.573  11.865   6.207  0.2771 -0.1979  0.1193
  903MOL0     H24561  10.836  11.857   6.219 -1.9810 -1.0474 -1.2020
  903MOL0     H24562  10.753  11.923   6.367  1.1195  0.0187  0.0121
  903MOL0     H24563  10.708  11.704   6.565  1.5373 -0.8031  2.4990
  903MOL0     H24564  10.734  11.474   6.670 -0.8107 -2.2324  0.9840
  903MOL0     H24565  10.917  11.445   6.662  1.6511  2.5525 -3.7190
  903MOL0     H24566  10.878  11.274   6.500  0.5068  1.4482 -0.7013
  903MOL0     H24567  10.783  11.267   6.648 -1.7847  1.9197  0.9954
  903MOL0     H24568  10.582  11.345   6.525 -0.3132 -1.8578  0.6851
  903MOL0     H24569  10.673  11.360   6.377 -3.8335 -1.1080 -1.1226
  903MOL0     H24570  10.565  11.140   6.362 -0.2563  0.2222 -1.0716
  903MOL0     H24571  10.736  11.098   6.389  0.4544 -3.1708  2.4854
  903MOL0     H24572  10.485  10.992   6.763  1.8189  2.6800 -1.9768
  903MOL0     H24573  10.260  10.747   6.783 -0.2029  3.2636  1.6693
  903MOL0     H24574  10.378  10.817   6.880 -2.2830  0.7348  1.1006
  903MOL0     H24575  10.408  10.645   6.828  0.7516  0.5245 -1.2000
  903MOL0     H24576  10.213  10.408   6.834  1.8967  0.5862  0.3939
  903MOL0     H24577  10.159  10.170   6.846 -1.6353  0.5047 -0.7211
  903MOL0     H24578  10.035   9.972   6.791  5.3796 -0.5296 -0.4545
  903MOL0     H24579   9.942  10.032   6.653  0.0401 -0.6745 -0.8413
  903MOL0     H24580  10.064   9.760   6.685 -0.5689  0.3481  2.8474
  903MOL0     H24581   9.900   9.805   6.730 -0.1042 -0.5878 -0.0134
  903MOL0     H24582   9.989   9.703   6.470 -1.2767  0.6463 -3.0924
  903MOL0     H24583   9.956   9.873   6.453  2.1961 -0.8121  1.1163
  903MOL0     H24584   9.721   9.812   6.567 -2.3365 -1.4755 -0.4610
  903MOL0     H24585   9.771   9.648   6.556  1.6643  0.8432  2.0879
  903MOL0     H24586   9.720   9.830   6.318  4.1267 -0.0935 -0.8545
  903MOL0     H24587   9.805   9.685   6.302  0.2768  1.3703 -1.2463
  903MOL0     H24588   9.550   9.704   6.448  1.2948  0.3315  0.5506
  903MOL0     H24589   9.631   9.561   6.394 -0.0640  1.2161  2.2751
  903MOL0     H24590   9.605   9.666   6.149 -0.6863 -3.7367 -0.6575
  903MOL0     H24591   9.473   9.767   6.225 -0.5745 -0.7619  0.6235
  903MOL0     H24592   9.380   9.551   6.135 -1.1167 -1.8266  1.3946
  903MOL0     H24593   9.398   9.524   6.314 -0.4037 -1.2726 -0.4634
  903MOL0     H24594  10.196  10.140   6.413 -1.6095  0.6293 -0.5902
  903MOL0     H24595  10.276  10.376   6.410 -0.8312 -0.0673 -0.2395
  903MOL0     H24596  10.564  10.679   6.387 -1.2688 -1.1578  1.4963
  903MOL0     H24597  10.637  10.898   6.371 -3.7826 -1.5801 -1.4261
  903MOL0     H24598  10.875  11.298   6.257 -0.1860  1.2478 -0.4496
  903MOL0     H24599  11.099  11.387   6.222 -0.0748 -2.1923  2.5778
  903MOL0     H24600  11.598  11.156   6.170  4.8258 -2.2689 -0.5410
  903MOL0     H24601  11.823  11.177   6.098  0.5044  1.2355 -0.4877
  903MOL0     H24602  12.017  11.209   6.015 -2.5511  0.9350  0.0965
  903MOL0     H24603  11.938  11.100   5.911  0.1746 -1.7118  2.8929
  903MOL0     H24604  12.145  11.305   5.801  3.1805 -1.0210  4.2285
  903MOL0     H24605  12.058  11.186   5.708 -1.0330  2.2624 -0.4768
  903MOL0     H24606  12.311  11.131   5.811  2.0759 -2.4146  3.3841
  903MOL0     H24607  12.233  11.133   5.963  0.9331  1.3843 -0.4268
  903MOL0     H24608  12.100  10.939   5.835 -0.0497  0.3522  0.3151
  903MOL0     H24609  12.283  10.905   5.856 -0.6744 -0.9410  2.8434
  903MOL0     H24610  12.261  10.964   5.445  2.0546 -1.8267  1.4249
  903MOL0     H24611  11.709  11.443   5.787  0.9654  3.1111  1.9463
  903MOL0     H24612  11.371  11.510   5.898  1.8615  1.8843  0.2983
  903MOL0     H24613  11.496  11.557   5.785  0.5609 -1.5203 -0.0345
  903MOL0     H24614  11.398  11.417   5.758 -1.7424  1.1142 -0.1092
  904MOL0     O24615  10.956   2.748   0.655 -0.0302 -0.5995  0.4027
  904MOL0     C24616  11.018   2.693   0.563  0.5143 -1.5455 -0.0995
  904MOL0     O24617  11.137   2.748   0.513 -0.1587 -0.7270 -0.1049
  904MOL0     C24618  11.165   2.877   0.551 -0.5397 -0.5545  0.1269
  904MOL0     C24619  11.180   2.916   0.682 -0.1889  0.2679 -0.3284
  904MOL0     C24620  11.207   3.042   0.712  0.3095 -0.5000  0.1525
  904MOL0     C24621  11.208   3.140   0.611  0.9173 -0.5083  0.1671
  904MOL0     O24622  11.238   3.274   0.641  0.5035  0.2706  0.4635
  904MOL0     C24623  11.151   3.377   0.589 -0.6569 -0.3727 -0.6400
  904MOL0     C24624  11.038   3.436   0.690 -0.1034 -0.0447 -0.1091
  904MOL0     C24625  11.086   3.450   0.831  0.1485  1.1469 -0.7341
  904MOL0     C24626  11.048   3.327   0.908  0.6697 -0.4429  0.9698
  904MOL0     C24627  10.901   3.341   0.972 -0.0627 -0.3861 -0.7674
  904MOL0     C24628  10.894   3.238   1.077 -0.0506 -0.7440 -0.3791
  904MOL0     C24629  10.750   3.211   1.103  0.9465 -0.5506  0.5587
  904MOL0     C24630  10.678   3.326   1.182  1.0064 -0.7564 -0.1460
  904MOL0     N24631  10.534   3.326   1.156 -0.1484  0.9395 -0.2134
  904MOL0     C24632  10.443   3.267   1.241 -0.4375  0.8675 -0.7619
  904MOL0     C24633  10.327   3.290   1.171 -0.0455 -0.0061 -0.1886
  904MOL0     C24634  10.186   3.250   1.221 -0.8199 -0.1229  0.5693
  904MOL0     C24635  10.133   3.358   1.326 -0.8436  0.9414  0.5667
  904MOL0     C24636  10.026   3.304   1.422  0.5150 -0.4379 -1.2067
  904MOL0     C24637   9.890   3.271   1.366  1.3327  0.3454  0.4034
  904MOL0     O24638   9.877   3.176   1.264  0.8231  0.0613  0.5063
  904MOL0     C24639   9.921   3.050   1.286 -0.0879  0.3932  1.0200
  904MOL0     C24640   9.993   2.984   1.192 -0.5280  1.3742  0.2400
  904MOL0     C24641  10.055   2.857   1.210  0.1806 -0.7251  0.0065
  904MOL0     C24642  10.160   2.816   1.104  0.6899  0.5152  0.1927
  904MOL0     C24643  10.044   2.783   1.329  0.4833 -0.0379  0.0044
  904MOL0     C24644  10.127   2.669   1.362  1.1020 -0.0486  0.7391
  904MOL0     O24645  10.138   2.639   1.495 -0.2474 -0.7848  0.8629
  904MOL0     C24646  10.209   2.524   1.526  0.4227  0.5589  0.4013
  904MOL0     C24647  10.171   2.390   1.500 -0.2709 -0.4215  0.2602
  904MOL0     C24648  10.250   2.284   1.539  0.1262  0.8593  0.0824
  904MOL0     C24649  10.378   2.295   1.597  0.7268 -0.5829  0.9427
  904MOL0     O24650  10.455   2.188   1.628  0.2701  0.1439 -1.5377
  904MOL0     C24651  10.598   2.198   1.639  0.5191 -0.7160  0.1977
  904MOL0     C24652  10.652   2.061   1.688 -0.3739  0.8008  0.0506
  904MOL0     C24653  10.577   1.938   1.632  0.6897 -0.5854 -0.2653
  904MOL0     C24654  10.628   1.801   1.684  0.3061 -0.3950  0.2404
  904MOL0     C24655  10.581   1.684   1.598 -0.2433  0.6374  0.1487
  904MOL0     C24656  10.627   1.547   1.672 -0.5229 -0.5947  0.6960
  904MOL0     C24657  10.782   1.523   1.655  0.0138 -0.1902 -1.3658
  904MOL0     C24658  10.824   1.376   1.697  0.4593 -0.2667  0.4851
  904MOL0    Cl24659  10.754   1.340   1.859 -0.4584  0.0638 -0.0089
  904MOL0     C24660  10.415   2.434   1.626 -0.0783  0.2275 -0.2751
  904MOL0     C24661  10.326   2.537   1.587 -0.4830 -0.1017 -0.5623
  904MOL0     O24662  10.175   2.595   1.270  0.4290  0.1664 -0.2081
  904MOL0     C24663   9.961   2.848   1.424  0.2302  0.7851 -0.6502
  904MOL0     C24664   9.902   2.975   1.399 -0.1401  0.2840 -0.2129
  904MOL0     N24665  10.355   3.372   1.066  0.5505  0.1624 -0.7168
  904MOL0     N24666  10.485   3.397   1.058 -0.1867 -0.1333  0.0429
  904MOL0     C24667  11.191   3.107   0.477  0.2974  0.0346 -0.3666
  904MOL0     C24668  11.162   2.978   0.448 -0.1798  0.6816 -0.3423
  904MOL0     C24669  10.966   2.575   0.516 -0.0145 -0.0945 -0.1726
  904MOL0     C24670  11.022   2.515   0.401  0.9581  0.0936  0.6964
  904MOL0     C24671  10.987   2.379   0.365  0.5137  0.0716  0.4686
  904MOL0     C24672  10.886   2.309   0.428 -0.6274  0.4307  0.7911
  904MOL0     O24673  10.847   2.188   0.376  0.5641  0.5832  0.0720
  904MOL0     C24674  10.762   2.189   0.271  1.0711 -0.1676  0.3793
  904MOL0     C24675  10.805   2.093   0.155 -0.7384  0.8489 -1.0523
  904MOL0     C24676  10.735   1.965   0.162 -0.4795  0.3745 -0.0987
  904MOL0     C24677  10.820   1.853   0.098 -0.5266 -0.3759 -0.2691
  904MOL0     C24678  10.943   1.823   0.173  0.6858  0.1716 -0.0383
  904MOL0     C24679  11.044   1.809   0.239 -0.7854 -0.0489  0.2472
  904MOL0     C24680  10.803   2.388   0.517 -0.6346 -0.4211  0.5689
  904MOL0     C24681  10.841   2.517   0.567  0.6889  0.1817 -0.5501
  904MOL0     C24682  10.741   2.555   0.670 -0.6314  0.7669  0.3200
  904MOL0     H24683  11.163   2.836   0.754  1.7412 -1.2608 -1.4583
  904MOL0     H24684  11.218   3.077   0.814  1.8606 -0.3158 -0.0564
  904MOL0     H24685  11.105   3.335   0.499 -1.0636  0.3334 -0.7701
  904MOL0     H24686  11.213   3.462   0.559  1.2144 -1.9356 -1.3971
  904MOL0     H24687  11.000   3.527   0.643 -0.3600 -0.6887 -1.1960
  904MOL0     H24688  10.953   3.366   0.692 -0.7332  0.6794  2.6845
  904MOL0     H24689  11.187   3.490   0.843  0.3739  0.9432 -1.8139
  904MOL0     H24690  11.033   3.533   0.879 -1.9932 -0.1884 -0.6946
  904MOL0     H24691  11.067   3.240   0.845 -1.7158 -1.4477  1.5098
  904MOL0     H24692  11.115   3.339   0.994 -0.6327  2.5794  1.7049
  904MOL0     H24693  10.833   3.319   0.889  0.8269 -1.6234 -1.2013
  904MOL0     H24694  10.893   3.446   1.003  0.8293 -0.7383  0.7479
  904MOL0     H24695  10.949   3.146   1.055  0.4367 -1.2303  2.5250
  904MOL0     H24696  10.933   3.279   1.170 -0.2814  0.0796 -0.6331
  904MOL0     H24697  10.737   3.122   1.165  3.3711  0.1454  2.1875
  904MOL0     H24698  10.700   3.184   1.010  0.9693 -0.4349  0.5122
  904MOL0     H24699  10.703   3.318   1.288 -1.5658 -1.6348  0.4540
  904MOL0     H24700  10.724   3.419   1.148 -0.3236 -1.0418 -3.0399
  904MOL0     H24701  10.480   3.198   1.316  3.5764  1.0789 -2.2837
  904MOL0     H24702  10.187   3.155   1.275  1.0308  0.1890  1.1811
  904MOL0     H24703  10.112   3.250   1.140  0.0887  3.6356 -0.4723
  904MOL0     H24704  10.210   3.395   1.394 -1.6739  0.6190  1.7063
  904MOL0     H24705  10.103   3.443   1.264 -0.5381  0.2921 -0.4920
  904MOL0     H24706  10.078   3.228   1.481 -2.0296  0.0972  1.9639
  904MOL0     H24707  10.009   3.379   1.500  2.3432 -2.4843  1.2963
  904MOL0     H24708   9.819   3.251   1.447 -3.7167  1.0708 -3.3925
  904MOL0     H24709   9.859   3.364   1.318 -0.1094  0.3003  1.1711
  904MOL0     H24710  10.003   3.041   1.100 -1.9033 -0.5538 -1.1765
  904MOL0     H24711  10.162   2.897   1.030  4.1427  1.4576  1.1008
  904MOL0     H24712  10.129   2.723   1.056 -0.9541  1.9252 -1.6449
  904MOL0     H24713  10.262   2.821   1.143  0.6140  1.3508  0.3018
  904MOL0     H24714  10.067   2.384   1.467 -0.7132  0.0670  1.5044
  904MOL0     H24715  10.211   2.183   1.550 -1.3090  1.2759 -0.8859
  904MOL0     H24716  10.650   2.230   1.548 -1.0937 -0.9529 -0.8417
  904MOL0     H24717  10.634   2.266   1.717  3.0718 -1.6489 -0.0571
  904MOL0     H24718  10.759   2.054   1.667 -0.5732  0.3623 -0.8919
  904MOL0     H24719  10.644   2.059   1.797 -5.2565 -0.8586 -0.0850
  904MOL0     H24720  10.575   1.951   1.524 -2.5013 -1.6884 -0.4398
  904MOL0     H24721  10.471   1.938   1.657  0.7219 -0.5793 -0.1252
  904MOL0     H24722  10.593   1.774   1.784 -3.8643 -1.9195 -1.4447
  904MOL0     H24723  10.738   1.801   1.678  0.2111 -0.6006 -3.0581
  904MOL0     H24724  10.472   1.670   1.593 -0.0451 -0.6325 -2.1212
  904MOL0     H24725  10.626   1.690   1.499 -2.9870  1.8223 -1.1276
  904MOL0     H24726  10.587   1.462   1.616 -0.9019  0.5066 -0.7574
  904MOL0     H24727  10.588   1.554   1.774  2.1674  0.4114  1.7650
  904MOL0     H24728  10.841   1.599   1.708  1.7651 -0.5117 -2.7734
  904MOL0     H24729  10.817   1.535   1.552  5.2434 -1.2974  0.0178
  904MOL0     H24730  10.932   1.361   1.695  0.3140 -1.3944 -0.9119
  904MOL0     H24731  10.773   1.307   1.629  3.4806 -1.8440 -0.3909
  904MOL0     H24732  10.509   2.452   1.679  0.3257 -0.7834 -0.6229
  904MOL0     H24733  10.356   2.639   1.609 -1.5555  0.9986 -3.5862
  904MOL0     H24734   9.954   2.796   1.519  1.6461  0.5838 -0.6404
  904MOL0     H24735   9.822   3.000   1.468 -2.2778 -1.3402 -1.9577
  904MOL0     H24736  11.188   3.187   0.404 -1.8210  0.8612  0.5257
  904MOL0     H24737  11.129   2.937   0.353 -0.0344 -0.2808  0.0197
  904MOL0     H24738  11.110   2.555   0.351 -0.4693  0.5321 -1.6000
  904MOL0     H24739  11.036   2.328   0.282 -0.2478  1.5680 -0.9493
  904MOL0     H24740  10.658   2.167   0.297  1.2681 -0.6994  0.7394
  904MOL0     H24741  10.762   2.291   0.232 -1.9840 -0.4312 -0.5870
  904MOL0     H24742  10.912   2.072   0.161 -1.2443 -1.4483  2.3572
  904MOL0     H24743  10.776   2.142   0.061  0.5170  1.9854 -0.8707
  904MOL0     H24744  10.718   1.935   0.266 -4.4813  0.9746 -0.4139
  904MOL0     H24745  10.633   1.964   0.121 -1.8687 -1.2864  2.9874
  904MOL0     H24746  10.844   1.886  -0.004 -2.5966 -1.7803 -1.3008
  904MOL0     H24747  10.768   1.756   0.104 -0.8070 -0.1665  0.9130
  904MOL0     H24748  11.133   1.788   0.296  0.2656  3.6048  0.2227
  904MOL0     H24749  10.710   2.341   0.547 -0.9326 -0.9690 -1.0874
  904MOL0     H24750  10.766   2.511   0.766 -1.8391  1.1846  0.8439
  904MOL0     H24751  10.732   2.664   0.678 -1.1043  0.9314 -1.8460
  904MOL0     H24752  10.645   2.526   0.627 -0.1453  1.3742 -1.2658
  905MOL0     O24753   8.510   8.987   3.957 -0.2395  0.0820  0.0402
  905MOL0     C24754   8.567   9.002   3.853  0.6835 -0.3179  0.8111
  905MOL0     O24755   8.689   8.956   3.813 -0.0422 -0.1454 -1.4449
  905MOL0     C24756   8.760   8.884   3.905 -0.0118 -0.1261 -0.3257
  905MOL0     C24757   8.854   8.944   3.993  0.7722  1.1479 -0.5403
  905MOL0     C24758   8.937   8.865   4.077  0.8145 -0.0645 -0.5184
  905MOL0     C24759   8.917   8.728   4.073  0.6015  0.0260  0.0266
  905MOL0     O24760   8.993   8.638   4.146 -0.3844  0.3759  0.7289
  905MOL0     C24761   9.111   8.663   4.208 -0.7310 -0.6337 -1.0844
  905MOL0     C24762   9.104   8.724   4.343  0.3413 -0.2287  0.2000
  905MOL0     C24763   9.244   8.757   4.410 -0.2155  0.2146 -0.6556
  905MOL0     C24764   9.288   8.634   4.495  0.1560  0.2628 -0.5129
  905MOL0     C24765   9.440   8.625   4.506 -0.4216 -0.1385  0.9761
  905MOL0     C24766   9.469   8.517   4.613  0.6090  0.7431 -0.7458
  905MOL0     C24767   9.620   8.506   4.660 -0.2161  0.3477 -0.4321
  905MOL0     C24768   9.728   8.487   4.555  0.7873 -0.4428 -0.4863
  905MOL0     N24769   9.707   8.358   4.481  0.2743  0.2775  0.3650
  905MOL0     C24770   9.769   8.324   4.361  0.3904 -0.1142 -0.2603
  905MOL0     C24771   9.766   8.186   4.359  1.1580 -0.3875  0.6875
  905MOL0     C24772   9.834   8.098   4.259  0.0509 -0.3679  0.3981
  905MOL0     C24773   9.874   7.956   4.323 -0.4456 -0.3594  0.2758
  905MOL0     C24774   9.958   7.956   4.448  0.6969 -0.2160 -0.4020
  905MOL0     C24775  10.051   7.839   4.476 -0.4346 -0.0485  0.4353
  905MOL0     O24776  10.143   7.824   4.370  0.0515  1.1970  0.5492
  905MOL0     C24777  10.280   7.865   4.386  0.4482  0.3210 -0.0679
  905MOL0     C24778  10.344   7.920   4.500  0.7838  0.6630 -0.3881
  905MOL0     C24779  10.476   7.959   4.491  0.6448 -1.1705 -0.2130
  905MOL0     C24780  10.537   8.018   4.617 -0.3030 -0.6383 -0.7433
  905MOL0     C24781  10.540   7.964   4.364  0.3124  0.2237 -0.9648
  905MOL0     C24782  10.677   8.007   4.334 -0.4009  1.1963  0.3014
  905MOL0     O24783  10.682   8.069   4.210  0.0273  0.7671  0.3142
  905MOL0     C24784  10.786   8.150   4.173 -0.2593 -0.1708 -0.1335
  905MOL0     C24785  10.923   8.139   4.206 -0.4050 -1.0905  0.9568
  905MOL0     C24786  11.007   8.237   4.150  0.0915 -0.3427  0.2461
  905MOL0     C24787  10.970   8.340   4.066  0.1185 -0.7028  0.8653
  905MOL0     O24788  11.039   8.442   4.020  0.1547  0.1990 -1.2286
  905MOL0     C24789  11.181   8.440   4.029  0.0750 -1.1843  0.4157
  905MOL0     C24790  11.252   8.336   3.941  0.1836  0.0852 -0.0537
  905MOL0     C24791  11.405   8.354   3.947  0.1951  0.1600  0.3768
  905MOL0     C24792  11.478   8.244   3.868  0.5431 -0.4817  0.1705
  905MOL0     C24793  11.631   8.263   3.862  0.6994  0.4687  0.4285
  905MOL0     C24794  11.676   8.354   3.758  0.7003 -0.1668 -0.3173
  905MOL0     C24795  11.826   8.372   3.730 -0.3534 -0.0315 -0.9377
  905MOL0     C24796  11.858   8.450   3.606 -0.4916 -0.6685 -0.0330
  905MOL0    Cl24797  12.013   8.531   3.631 -0.2420  0.0238  0.2612
  905MOL0     C24798  10.834   8.354   4.040 -0.7708  0.1237 -0.7378
  905MOL0     C24799  10.749   8.261   4.091 -0.0091  0.4977 -1.0093
  905MOL0     O24800  10.770   7.991   4.417  0.0817 -0.6503  0.3476
  905MOL0     C24801  10.465   7.906   4.260 -0.3330  1.0063  0.9433
  905MOL0     C24802  10.339   7.857   4.265 -0.0692  0.2115 -0.3156
  905MOL0     N24803   9.701   8.142   4.479 -0.0260  0.9260  0.1467
  905MOL0     N24804   9.669   8.244   4.555 -0.1327 -0.3637  0.7179
  905MOL0     C24805   8.801   8.670   4.002 -0.9655  0.6935 -0.5527
  905MOL0     C24806   8.733   8.748   3.914  0.5127 -0.1285  0.4886
  905MOL0     C24807   8.505   9.099   3.751 -1.0469  0.4479 -1.8122
  905MOL0     C24808   8.597   9.179   3.676  0.2164  0.1405  0.0812
  905MOL0     C24809   8.553   9.286   3.596 -0.2642  0.2252  0.1733
  905MOL0     C24810   8.416   9.294   3.573 -0.7463  0.7337  0.8002
  905MOL0     O24811   8.381   9.383   3.467 -0.5198 -0.4445 -0.1853
  905MOL0     C24812   8.421   9.521   3.499 -0.3234 -1.2024  0.8587
  905MOL0     C24813   8.350   9.578   3.629 -0.2641  0.0323 -0.0473
  905MOL0     C24814   8.350   9.729   3.647  0.8394 -0.1417  0.1413
  905MOL0     C24815   8.325   9.814   3.526  0.4275 -0.5058 -0.0685
  905MOL0     C24816   8.201   9.772   3.460 -0.6736  0.5159 -0.4942
  905MOL0     C24817   8.101   9.736   3.420  0.3878 -0.1984  0.6889
  905MOL0     C24818   8.328   9.221   3.646  0.3042  0.1620 -0.3731
  905MOL0     C24819   8.371   9.130   3.749  0.6661  0.5169  0.2587
  905MOL0     C24820   8.256   9.067   3.829 -0.9124  0.8829 -0.6846
  905MOL0     H24821   8.860   9.052   3.989 -0.0014  1.3840  2.2580
  905MOL0     H24822   9.009   8.901   4.150  0.1435 -1.2633  0.7789
  905MOL0     H24823   9.173   8.732   4.152  1.4562  0.5716  2.5067
  905MOL0     H24824   9.152   8.562   4.202 -0.0654 -0.4009 -0.5929
  905MOL0     H24825   9.043   8.815   4.340 -0.0434 -0.5002 -0.4641
  905MOL0     H24826   9.041   8.652   4.397 -0.4290  0.5210  0.3219
  905MOL0     H24827   9.310   8.778   4.325  0.4997  2.1145  0.3087
  905MOL0     H24828   9.239   8.850   4.467 -1.3660  0.4883 -1.1723
  905MOL0     H24829   9.245   8.643   4.595  2.4774  1.2247  0.4849
  905MOL0     H24830   9.241   8.542   4.460  3.7511 -2.6547  1.5489
  905MOL0     H24831   9.487   8.720   4.533  0.8585 -0.7175  0.8243
  905MOL0     H24832   9.475   8.596   4.407  0.5470 -1.6862  1.7305
  905MOL0     H24833   9.406   8.556   4.694  0.9798  3.1762 -1.5487
  905MOL0     H24834   9.440   8.419   4.575  0.5898  0.2889  0.4018
  905MOL0     H24835   9.610   8.414   4.718  0.1199 -0.1313 -1.1164
  905MOL0     H24836   9.660   8.591   4.715  4.6886 -1.5109 -0.6710
  905MOL0     H24837   9.740   8.573   4.488  2.1834 -1.1157 -1.1465
  905MOL0     H24838   9.817   8.473   4.617 -0.0076 -0.1709  0.7308
  905MOL0     H24839   9.815   8.396   4.293  1.3794  0.0770  0.5857
  905MOL0     H24840   9.910   8.152   4.202 -1.0906  1.4805  0.5393
  905MOL0     H24841   9.749   8.067   4.198 -1.1663  2.6554  0.3990
  905MOL0     H24842   9.785   7.896   4.346  0.3533 -1.5017  0.5181
  905MOL0     H24843   9.914   7.896   4.240 -4.6927  1.2195 -3.2955
  905MOL0     H24844  10.012   8.051   4.435 -0.2461  0.3747 -0.0927
  905MOL0     H24845   9.894   7.970   4.535 -2.6181 -3.4653 -2.0548
  905MOL0     H24846  10.101   7.862   4.571 -2.2048  0.5395  1.2594
  905MOL0     H24847   9.997   7.745   4.480 -0.0036 -0.4357 -1.5244
  905MOL0     H24848  10.298   7.905   4.597  1.4882  0.0448 -0.1396
  905MOL0     H24849  10.537   8.126   4.632 -1.1757 -1.0964  4.1759
  905MOL0     H24850  10.640   7.993   4.641 -0.9043 -2.2933  0.3026
  905MOL0     H24851  10.479   7.982   4.703  1.5261 -0.3858  0.6584
  905MOL0     H24852  10.950   8.052   4.265  2.9285 -1.4458 -0.8537
  905MOL0     H24853  11.108   8.231   4.189  1.7565 -2.7655 -3.7857
  905MOL0     H24854  11.207   8.538   3.987 -0.4940 -2.3054 -2.8743
  905MOL0     H24855  11.214   8.428   4.132  1.2631  3.6690  0.8894
  905MOL0     H24856  11.228   8.243   3.994  1.9131  0.4751  1.5377
  905MOL0     H24857  11.200   8.335   3.845  0.0639  3.9558 -0.2120
  905MOL0     H24858  11.435   8.359   4.052 -0.9822  0.7092  0.6973
  905MOL0     H24859  11.419   8.452   3.899 -2.3860 -0.0682 -0.9597
  905MOL0     H24860  11.438   8.243   3.766 -0.1789 -2.4522  0.4398
  905MOL0     H24861  11.449   8.148   3.912 -0.9658 -0.7520 -1.2895
  905MOL0     H24862  11.649   8.294   3.965 -0.5377 -1.7541  1.3830
  905MOL0     H24863  11.674   8.163   3.851  1.8372  0.3311  4.4924
  905MOL0     H24864  11.618   8.445   3.773 -0.5717 -1.2199  1.5902
  905MOL0     H24865  11.640   8.320   3.660  0.6097  0.5321 -0.5350
  905MOL0     H24866  11.864   8.270   3.717  2.5576  0.9755 -1.1339
  905MOL0     H24867  11.859   8.403   3.830 -0.4576 -1.6887 -0.3574
  905MOL0     H24868  11.777   8.521   3.587  0.3556  0.9533  1.9871
  905MOL0     H24869  11.868   8.388   3.516 -0.0757 -0.8783  0.1550
  905MOL0     H24870  10.806   8.437   3.976 -1.4911 -3.3142 -5.3813
  905MOL0     H24871  10.642   8.277   4.078 -0.5094  1.9591  3.2802
  905MOL0     H24872  10.508   7.915   4.161 -3.6349  4.1683 -0.4388
  905MOL0     H24873  10.294   7.806   4.181  3.4644 -2.3240 -0.9394
  905MOL0     H24874   8.786   8.564   4.019 -3.8937  1.1532  0.3368
  905MOL0     H24875   8.662   8.706   3.844 -1.7329  1.0811  1.9468
  905MOL0     H24876   8.704   9.160   3.679  0.9774  3.4131 -1.2809
  905MOL0     H24877   8.619   9.330   3.521  0.3954 -2.2234 -0.7856
  905MOL0     H24878   8.528   9.532   3.518  0.1098 -2.2396 -0.8029
  905MOL0     H24879   8.401   9.584   3.411 -2.4627 -1.0582  1.3797
  905MOL0     H24880   8.407   9.543   3.716 -1.2062 -1.5315 -0.0266
  905MOL0     H24881   8.248   9.539   3.633 -1.1313  2.2385  1.0899
  905MOL0     H24882   8.275   9.768   3.717 -1.5298  3.1870 -3.7641
  905MOL0     H24883   8.448   9.763   3.680  1.0191  1.1057 -1.5341
  905MOL0     H24884   8.407   9.803   3.454  1.0294  3.4019 -0.2441
  905MOL0     H24885   8.309   9.921   3.541  3.2218  0.2052 -1.3569
  905MOL0     H24886   8.006   9.728   3.371  1.2201 -1.5933 -0.8002
  905MOL0     H24887   8.225   9.248   3.628  0.7321  3.2347  1.0745
  905MOL0     H24888   8.240   9.131   3.917 -2.0629 -0.0637 -0.1771
  905MOL0     H24889   8.163   9.071   3.772 -2.4230  0.4734  1.5970
  905MOL0     H24890   8.276   8.964   3.859  2.2481  1.9102  1.2512
  906MOL0     O24891   9.213   9.128   4.465  0.0322  0.7756  0.0643
  906MOL0     C24892   9.227   9.219   4.388  0.7214 -0.2812  0.0136
  906MOL0     O24893   9.335   9.298   4.365  0.6771  0.2711  0.1294
  906MOL0     C24894   9.457   9.260   4.412  0.9301 -0.1608  0.1991
  906MOL0     C24895   9.507   9.341   4.517  0.0044 -0.3033 -0.0452
  906MOL0     C24896   9.638   9.334   4.558 -2.0662 -0.1821 -0.4908
  906MOL0     C24897   9.726   9.237   4.494 -1.4676 -1.0284 -0.4969
  906MOL0     O24898   9.852   9.220   4.530 -0.2944  0.3385 -0.2616
  906MOL0     C24899   9.952   9.264   4.430  1.0478 -0.4372 -0.5773
  906MOL0     C24900  10.099   9.223   4.465  0.2166  0.6626  0.1480
  906MOL0     C24901  10.123   9.077   4.448 -0.5625 -0.4791 -0.6774
  906MOL0     C24902  10.265   9.037   4.468 -0.1277 -0.7304  0.4302
  906MOL0     C24903  10.281   8.899   4.419 -0.7298 -0.4490 -0.7351
  906MOL0     C24904  10.418   8.833   4.454 -0.0130  0.8853  0.0914
  906MOL0     C24905  10.426   8.775   4.595 -0.0379 -0.5450 -0.6651
  906MOL0     C24906  10.533   8.672   4.633 -0.0182 -0.6790 -0.0279
  906MOL0     N24907  10.669   8.704   4.582 -0.6228  0.0320 -0.6371
  906MOL0     C24908  10.721   8.680   4.457 -0.1267  0.9795 -0.7598
  906MOL0     C24909  10.834   8.758   4.446  0.4575 -0.3745  0.4067
  906MOL0     C24910  10.937   8.748   4.341  0.6905  0.4299 -0.0295
  906MOL0     C24911  11.050   8.666   4.400 -0.9115 -0.5496 -0.2219
  906MOL0     C24912  11.156   8.743   4.482 -0.4812  0.0264 -0.0997
  906MOL0     C24913  11.250   8.645   4.546 -0.2704  0.2882  0.6366
  906MOL0     O24914  11.323   8.708   4.650 -0.1546 -0.2375 -0.4347
  906MOL0     C24915  11.431   8.634   4.701 -0.9577 -0.8525 -1.1394
  906MOL0     C24916  11.511   8.716   4.773 -0.3698 -0.6034 -0.3182
  906MOL0     C24917  11.604   8.659   4.867  0.3192 -1.0733 -0.8316
  906MOL0     C24918  11.678   8.755   4.962 -0.6579  0.0995 -0.9256
  906MOL0     C24919  11.625   8.517   4.872  0.8315 -0.5151 -0.3691
  906MOL0     C24920  11.719   8.452   4.967 -0.0931 -1.2435 -0.0078
  906MOL0     O24921  11.676   8.347   5.041 -0.2759 -0.1778  0.2662
  906MOL0     C24922  11.757   8.260   5.110  0.0713  1.6757  0.4117
  906MOL0     C24923  11.887   8.276   5.147 -0.8764 -1.1755  0.6584
  906MOL0     C24924  11.971   8.178   5.211  0.3559  0.0055 -1.0332
  906MOL0     C24925  11.909   8.055   5.244 -1.3319 -0.4417  0.3522
  906MOL0     O24926  11.975   7.973   5.329  0.2543  0.0070 -0.3323
  906MOL0     C24927  11.962   8.021   5.470  0.0545 -1.0165  0.0510
  906MOL0     C24928  12.104   8.003   5.529 -0.2140 -0.8933 -0.5267
  906MOL0     C24929  12.145   7.848   5.531 -0.3050  0.0062 -0.4468
  906MOL0     C24930  12.247   7.806   5.651  1.3955 -0.4933  0.3070
  906MOL0     C24931  12.312   7.667   5.630 -0.2078  0.5089  0.0138
  906MOL0     C24932  12.222   7.562   5.686  0.1855 -0.0023 -0.1343
  906MOL0     C24933  12.222   7.436   5.589  0.7098 -0.2567  0.1976
  906MOL0     C24934  12.099   7.346   5.629  0.9529  0.5884  0.3699
  906MOL0    Cl24935  12.099   7.211   5.503 -0.2207  0.3487 -0.1027
  906MOL0     C24936  11.768   8.036   5.203 -1.6353 -0.5812 -0.1962
  906MOL0     C24937  11.701   8.134   5.130 -0.4716 -0.3742  0.6528
  906MOL0     O24938  11.825   8.502   4.975 -0.1316  0.3599  0.2418
  906MOL0     C24939  11.531   8.439   4.807  0.3413 -1.1044  0.8374
  906MOL0     C24940  11.441   8.499   4.716 -0.2409  0.8068 -0.6067
  906MOL0     N24941  10.850   8.840   4.557  0.1303  0.8919  0.0202
  906MOL0     N24942  10.747   8.808   4.635 -0.8653 -0.5277  0.1745
  906MOL0     C24943   9.679   9.169   4.383  0.8170 -0.4906 -0.2113
  906MOL0     C24944   9.542   9.183   4.343 -0.4847  0.0784  0.6978
  906MOL0     C24945   9.117   9.245   4.301  0.0294  0.2225 -0.4265
  906MOL0     C24946   9.126   9.210   4.171 -0.1655 -0.7664  0.1238
  906MOL0     C24947   9.030   9.247   4.079  0.0031  0.3262  0.8551
  906MOL0     C24948   8.905   9.304   4.120  0.3732  0.6044  0.0680
  906MOL0     O24949   8.792   9.320   4.050 -0.7227  0.7737  0.7207
  906MOL0     C24950   8.793   9.347   3.903 -0.1896 -0.4941 -0.2557
  906MOL0     C24951   8.822   9.500   3.885 -0.4022  0.9572  0.1787
  906MOL0     C24952   8.777   9.532   3.737  0.6310  0.2843 -0.2357
  906MOL0     C24953   8.849   9.655   3.682 -0.2360  0.3033  0.6990
  906MOL0     C24954   8.784   9.719   3.572  0.3305  0.2604  0.1062
  906MOL0     C24955   8.742   9.774   3.473 -0.4905 -0.9865 -0.9276
  906MOL0     C24956   8.899   9.328   4.256 -0.1102 -0.4190 -0.4443
  906MOL0     C24957   8.997   9.310   4.347 -0.6143 -0.1836 -1.5529
  906MOL0     C24958   8.978   9.352   4.495  0.0239 -0.4430 -0.4246
  906MOL0     H24959   9.436   9.414   4.555  2.4379  0.8316  2.6224
  906MOL0     H24960   9.669   9.392   4.644 -2.5023  0.0933 -0.5160
  906MOL0     H24961   9.943   9.372   4.445  2.0672  0.2008 -3.7628
  906MOL0     H24962   9.930   9.230   4.328  0.4554 -1.1958 -0.2089
  906MOL0     H24963  10.175   9.271   4.403  1.4079 -2.4965 -1.0433
  906MOL0     H24964  10.124   9.255   4.567  2.6020 -0.7843  0.0757
  906MOL0     H24965  10.059   9.039   4.529 -1.4482  5.3079  1.8424
  906MOL0     H24966  10.100   9.053   4.344 -1.1075  2.0328 -1.1966
  906MOL0     H24967  10.344   9.095   4.421 -0.4973 -0.5496  0.0304
  906MOL0     H24968  10.282   9.051   4.576  2.0708 -0.3444  0.0820
  906MOL0     H24969  10.259   8.915   4.313 -2.1378  4.3285  0.0310
  906MOL0     H24970  10.201   8.846   4.471 -1.3629 -0.7498 -1.9792
  906MOL0     H24971  10.422   8.745   4.390 -0.5795 -0.5611  1.9562
  906MOL0     H24972  10.495   8.908   4.431 -0.1314  0.8878 -0.2990
  906MOL0     H24973  10.335   8.723   4.624  1.6926 -3.6046 -0.3316
  906MOL0     H24974  10.453   8.851   4.668 -2.8230 -1.5052  1.5390
  906MOL0     H24975  10.532   8.679   4.742 -2.0749  3.0806 -0.1175
  906MOL0     H24976  10.502   8.571   4.604 -0.4634 -1.1362  1.9012
  906MOL0     H24977  10.675   8.619   4.379  1.2243 -0.8393 -0.2255
  906MOL0     H24978  10.976   8.840   4.296 -0.2699  0.2720 -1.2469
  906MOL0     H24979  10.894   8.691   4.258 -1.5913  1.6186  0.2433
  906MOL0     H24980  11.005   8.598   4.474  0.2292 -0.1131  0.9045
  906MOL0     H24981  11.089   8.602   4.320  0.2049 -0.8670  0.5559
  906MOL0     H24982  11.207   8.809   4.411  2.1701 -0.0654  1.6134
  906MOL0     H24983  11.110   8.805   4.559 -1.1315 -0.2315 -0.2664
  906MOL0     H24984  11.198   8.559   4.589 -0.6765  1.0148  1.6392
  906MOL0     H24985  11.321   8.616   4.467  0.5848  2.8375  0.3970
  906MOL0     H24986  11.494   8.823   4.772  0.1418 -0.4461  1.9429
  906MOL0     H24987  11.637   8.761   5.063  1.6222 -1.9581  0.2345
  906MOL0     H24988  11.657   8.858   4.931  0.4541  0.6425  0.0722
  906MOL0     H24989  11.785   8.731   4.955 -0.3955  0.6944  0.7065
  906MOL0     H24990  11.932   8.375   5.150 -0.7402 -1.1993 -0.3295
  906MOL0     H24991  12.068   8.203   5.254 -0.9024  1.7687  0.9889
  906MOL0     H24992  11.935   8.127   5.474  1.4599 -0.6346 -0.0548
  906MOL0     H24993  11.885   7.970   5.529 -0.9591 -0.4857 -0.7850
  906MOL0     H24994  12.178   8.057   5.470 -1.9519  1.7027 -0.4881
  906MOL0     H24995  12.108   8.050   5.628 -0.1175 -0.6896 -0.6286
  906MOL0     H24996  12.172   7.809   5.432  1.4511  1.2583 -0.5090
  906MOL0     H24997  12.053   7.799   5.564  1.7523 -2.1824  2.5774
  906MOL0     H24998  12.215   7.820   5.755  0.1964  2.2347 -0.3424
  906MOL0     H24999  12.327   7.878   5.632  1.9713 -1.4475 -1.0435
  906MOL0     H25000  12.342   7.655   5.525  0.4646  1.8388  0.0415
  906MOL0     H25001  12.413   7.656   5.672 -0.0152  0.9694 -0.3263
  906MOL0     H25002  12.122   7.606   5.691  0.2696  0.0792  1.7307
  906MOL0     H25003  12.236   7.530   5.790 -2.7360  2.5358  1.2030
  906MOL0     H25004  12.311   7.373   5.600  1.5980  0.7581 -0.8975
  906MOL0     H25005  12.210   7.468   5.485  0.9427  2.0623  0.8317
  906MOL0     H25006  11.999   7.389   5.625  0.4124 -0.2731  2.9564
  906MOL0     H25007  12.108   7.308   5.731 -1.9750  4.3631  2.2574
  906MOL0     H25008  11.740   7.932   5.217  0.2246 -0.7918  2.9858
  906MOL0     H25009  11.609   8.106   5.079  0.2331  1.8252 -2.0313
  906MOL0     H25010  11.550   8.332   4.802  2.3647 -0.7445 -2.6111
  906MOL0     H25011  11.369   8.428   4.676  0.3350 -0.6335  0.8141
  906MOL0     H25012   9.743   9.106   4.323  0.5082  0.0396 -1.1165
  906MOL0     H25013   9.502   9.127   4.258 -3.8094  0.5929  1.7904
  906MOL0     H25014   9.202   9.160   4.112  0.8392  2.6071 -1.6509
  906MOL0     H25015   9.041   9.224   3.974 -0.2069  4.2994 -0.2125
  906MOL0     H25016   8.854   9.281   3.841 -0.1921 -1.7172  0.9894
  906MOL0     H25017   8.691   9.327   3.872 -0.9479 -0.5788  2.0537
  906MOL0     H25018   8.931   9.509   3.893 -0.2406 -0.3863 -0.1412
  906MOL0     H25019   8.766   9.569   3.948 -5.1319 -0.7175 -1.7565
  906MOL0     H25020   8.799   9.449   3.669  3.1915 -2.3883  3.4449
  906MOL0     H25021   8.669   9.545   3.743  0.2513 -2.8256  1.5701
  906MOL0     H25022   8.955   9.637   3.660 -0.4085  0.8236 -0.5939
  906MOL0     H25023   8.856   9.729   3.763  1.6715  1.2011 -0.2280
  906MOL0     H25024   8.718   9.839   3.391  0.0432  1.5869  0.8407
  906MOL0     H25025   8.810   9.362   4.308  1.3464  0.4020  1.7107
  906MOL0     H25026   9.041   9.440   4.513  1.6135 -1.4163 -1.0984
  906MOL0     H25027   8.880   9.387   4.529  1.5987  2.0226  2.1333
  906MOL0     H25028   9.010   9.272   4.562  3.4573  0.4019 -0.8450
  907MOL0     O25029   1.855   6.701   5.382  0.5657 -0.4620 -0.3663
  907MOL0     C25030   1.947   6.772   5.401 -0.3218  0.5554  1.1948
  907MOL0     O25031   1.964   6.853   5.508 -0.0341  0.1538 -0.5837
  907MOL0     C25032   1.910   6.840   5.631 -0.2268 -1.0012  0.8046
  907MOL0     C25033   1.827   6.730   5.668 -0.5833 -0.5680  0.4547
  907MOL0     C25034   1.797   6.706   5.805 -0.2247 -0.5244  0.7749
  907MOL0     C25035   1.840   6.799   5.898  0.8443  1.0229 -0.3617
  907MOL0     O25036   1.795   6.772   6.024 -0.4620 -0.2552 -0.4009
  907MOL0     C25037   1.794   6.874   6.130 -0.0903  0.0040 -0.5042
  907MOL0     C25038   1.927   6.875   6.200 -0.8430 -0.9814 -0.5826
  907MOL0     C25039   1.938   6.987   6.316  0.2331  0.2022  0.5567
  907MOL0     C25040   1.958   7.135   6.268 -0.2787  1.0120 -0.2476
  907MOL0     C25041   2.049   7.209   6.365 -0.2269 -0.7063 -0.1273
  907MOL0     C25042   2.102   7.340   6.309 -0.7066  0.6826  0.1512
  907MOL0     C25043   2.186   7.411   6.420 -0.0543  0.1240  0.7708
  907MOL0     C25044   2.097   7.537   6.465 -0.2295 -0.1382  0.6090
  907MOL0     N25045   2.143   7.650   6.378 -0.2886  0.3138  0.4808
  907MOL0     C25046   2.111   7.670   6.244  0.1402  0.2939 -0.1597
  907MOL0     C25047   2.168   7.785   6.221  0.5526 -0.1920 -0.5112
  907MOL0     C25048   2.159   7.839   6.079  0.9879 -0.5457  0.6498
  907MOL0     C25049   2.053   7.957   6.053  0.3615 -0.0318 -0.2687
  907MOL0     C25050   2.023   7.988   5.900 -0.0796 -0.0176 -0.3054
  907MOL0     C25051   1.899   7.912   5.851  0.1924 -0.4251 -0.7370
  907MOL0     O25052   1.935   7.772   5.835 -0.4766 -0.3099 -0.6352
  907MOL0     C25053   1.836   7.682   5.855  0.1091  1.2040  1.0382
  907MOL0     C25054   1.847   7.564   5.923  1.2192 -0.3394 -0.1147
  907MOL0     C25055   1.740   7.481   5.945  0.3886  0.0187 -0.1116
  907MOL0     C25056   1.779   7.353   6.016 -0.0909  1.0910 -0.3011
  907MOL0     C25057   1.610   7.519   5.903 -0.1600 -0.0696 -0.3384
  907MOL0     C25058   1.485   7.449   5.943 -0.0173  0.0384 -0.2808
  907MOL0     O25059   1.373   7.497   5.882 -0.9387  0.1474 -0.4475
  907MOL0     C25060   1.251   7.453   5.922  0.2134  0.9642 -0.0732
  907MOL0     C25061   1.169   7.420   5.807 -0.1641  0.0281 -0.4710
  907MOL0     C25062   1.044   7.375   5.834  0.3926 -0.6020 -0.3657
  907MOL0     C25063   1.000   7.343   5.963  0.0066  0.4248  0.1872
  907MOL0     O25064   0.879   7.290   5.987 -0.3493 -0.4739  0.1110
  907MOL0     C25065   0.882   7.144   6.003 -0.0049  1.1580  0.7029
  907MOL0     C25066   0.746   7.079   5.982  0.8595  0.2848 -0.1423
  907MOL0     C25067   0.704   7.066   5.842  0.0055 -0.5128 -0.3110
  907MOL0     C25068   0.569   6.992   5.833 -0.4994  0.4594  0.2398
  907MOL0     C25069   0.584   6.876   5.731  0.0460  0.0903 -0.1985
  907MOL0     C25070   0.453   6.815   5.695  0.4803  1.0861  0.5974
  907MOL0     C25071   0.477   6.691   5.604 -0.3036 -0.5639  0.0402
  907MOL0     C25072   0.349   6.614   5.586  0.2578  0.0283 -0.0852
  907MOL0    Cl25073   0.393   6.490   5.469  0.0568  0.0901  0.1974
  907MOL0     C25074   1.091   7.362   6.069  0.2947  0.0293  0.7948
  907MOL0     C25075   1.214   7.416   6.051  0.2848 -0.5340  0.0602
  907MOL0     O25076   1.495   7.357   6.020 -0.3099 -0.0060 -0.5170
  907MOL0     C25077   1.601   7.635   5.837  0.1590 -0.6658  0.6760
  907MOL0     C25078   1.703   7.717   5.800 -1.0036 -0.1974  0.6716
  907MOL0     N25079   2.239   7.829   6.331  0.3371  0.1649 -0.6866
  907MOL0     N25080   2.232   7.747   6.433  0.5279  0.7174  0.3971
  907MOL0     C25081   1.903   6.919   5.862  0.1773 -0.2766  0.5816
  907MOL0     C25082   1.938   6.943   5.723 -0.6077  1.0807  0.0706
  907MOL0     C25083   2.053   6.789   5.296 -0.3576  0.8160 -0.1249
  907MOL0     C25084   2.183   6.813   5.343  0.0312  0.1988 -0.8968
  907MOL0     C25085   2.291   6.834   5.252 -0.3485 -0.3218  0.6261
  907MOL0     C25086   2.278   6.809   5.117 -0.0354 -0.1872 -0.0780
  907MOL0     O25087   2.378   6.798   5.028 -0.2758  0.8181 -0.0878
  907MOL0     C25088   2.511   6.839   5.067  0.2820  0.1092 -0.3309
  907MOL0     C25089   2.533   6.992   5.082 -0.8483  0.4270 -0.3260
  907MOL0     C25090   2.515   7.062   4.946  0.1551 -0.3903 -0.2015
  907MOL0     C25091   2.511   7.219   4.962  0.2914 -0.1288 -0.2849
  907MOL0     C25092   2.644   7.255   5.007  0.3353 -0.7147 -0.6838
  907MOL0     C25093   2.748   7.297   5.058 -0.6831 -0.5171 -0.9501
  907MOL0     C25094   2.144   6.781   5.069  0.1910 -0.1028 -0.3387
  907MOL0     C25095   2.033   6.778   5.153 -0.3812 -0.6385 -0.2359
  907MOL0     C25096   1.898   6.770   5.097 -0.0591  0.3523  0.3131
  907MOL0     H25097   1.806   6.650   5.598  0.5803  0.5759 -1.2629
  907MOL0     H25098   1.738   6.617   5.821 -1.8528  0.1818 -1.0166
  907MOL0     H25099   1.718   6.853   6.206  0.9729 -1.1347  0.2960
  907MOL0     H25100   1.779   6.973   6.086 -0.9006 -0.1875 -0.6836
  907MOL0     H25101   1.940   6.780   6.254  0.0285  1.3572  3.7831
  907MOL0     H25102   2.016   6.880   6.137 -1.1343 -1.2582 -1.0190
  907MOL0     H25103   1.850   6.983   6.381  0.1221  1.9220  0.5554
  907MOL0     H25104   2.027   6.962   6.374 -0.2375  0.0581  1.2270
  907MOL0     H25105   2.018   7.127   6.177  2.1556 -1.8754  1.3951
  907MOL0     H25106   1.857   7.175   6.275 -0.5443  0.1378  1.4965
  907MOL0     H25107   2.138   7.152   6.393 -0.8564  0.1277  4.1729
  907MOL0     H25108   2.016   7.213   6.469  3.0617 -1.8745  1.1075
  907MOL0     H25109   2.170   7.324   6.225 -0.6995  1.4429  0.0077
  907MOL0     H25110   2.025   7.399   6.258  2.7065  3.5726 -2.1534
  907MOL0     H25111   2.280   7.430   6.366 -1.0290 -0.8427 -1.4119
  907MOL0     H25112   2.211   7.349   6.506  1.5781 -0.5947 -0.1792
  907MOL0     H25113   1.990   7.530   6.444  0.0675  0.9039 -1.6770
  907MOL0     H25114   2.113   7.564   6.569 -0.4504  1.5392  0.2364
  907MOL0     H25115   2.065   7.600   6.175  1.3263 -0.7399  0.0639
  907MOL0     H25116   2.125   7.756   6.016  1.1527 -1.1578  1.3637
  907MOL0     H25117   2.255   7.875   6.041  0.0082  1.6370  0.0558
  907MOL0     H25118   1.968   7.940   6.120  0.7789  3.3558  1.3171
  907MOL0     H25119   2.110   8.038   6.098 -0.4060  0.4485 -0.1423
  907MOL0     H25120   2.015   8.097   5.906 -0.3460 -0.1039  3.2286
  907MOL0     H25121   2.106   7.966   5.833 -1.6825 -1.3355 -1.9634
  907MOL0     H25122   1.816   7.929   5.921  0.4373 -0.7202 -0.3706
  907MOL0     H25123   1.875   7.958   5.755 -2.1847  0.7229  0.2993
  907MOL0     H25124   1.944   7.526   5.952  1.3652 -1.3395 -1.7393
  907MOL0     H25125   1.887   7.335   6.011  0.0694  2.2364 -2.1432
  907MOL0     H25126   1.728   7.269   5.967  1.5722  0.0872 -0.3977
  907MOL0     H25127   1.754   7.364   6.121 -0.5511  1.5531 -0.4544
  907MOL0     H25128   1.205   7.451   5.709  5.0816 -0.0844  1.1198
  907MOL0     H25129   0.981   7.364   5.746 -0.7492  1.0669  0.1833
  907MOL0     H25130   0.950   7.091   5.936 -2.9401 -1.9158 -0.0989
  907MOL0     H25131   0.913   7.139   6.107  0.1681 -0.4547  0.5893
  907MOL0     H25132   0.755   6.983   6.034 -2.6032  0.6230  1.3627
  907MOL0     H25133   0.676   7.130   6.049  1.6322 -2.6089  3.1607
  907MOL0     H25134   0.775   7.009   5.782 -0.7363 -1.3226 -0.4239
  907MOL0     H25135   0.712   7.165   5.795  0.2109  1.2230  3.0460
  907MOL0     H25136   0.497   7.068   5.803  1.1637  1.7495 -0.5997
  907MOL0     H25137   0.527   6.955   5.927  0.3263  1.5109  1.0474
  907MOL0     H25138   0.627   6.906   5.635  1.2149 -2.5604 -0.5827
  907MOL0     H25139   0.651   6.800   5.771  1.2960  0.2938 -1.7949
  907MOL0     H25140   0.379   6.875   5.640  1.5171 -0.5387 -2.8786
  907MOL0     H25141   0.403   6.788   5.789 -3.2013  1.3052 -1.0859
  907MOL0     H25142   0.535   6.619   5.662  2.0442 -0.4617 -1.9992
  907MOL0     H25143   0.527   6.728   5.514 -1.1263  0.7380  0.0939
  907MOL0     H25144   0.272   6.674   5.538  2.9449  0.5253 -4.3771
  907MOL0     H25145   0.315   6.566   5.678  0.9247  0.4779  0.4037
  907MOL0     H25146   1.047   7.341   6.166 -1.1563  0.9586  0.3733
  907MOL0     H25147   1.280   7.419   6.137 -0.0093  0.9898  0.2604
  907MOL0     H25148   1.505   7.673   5.803 -2.3169 -5.5071  1.4016
  907MOL0     H25149   1.672   7.801   5.737 -0.5124 -0.1043  0.5487
  907MOL0     H25150   1.937   6.993   5.934  0.9666  1.0812 -1.1148
  907MOL0     H25151   1.997   7.031   5.699  3.5256 -0.4252  3.5006
  907MOL0     H25152   2.213   6.831   5.445 -2.8902 -1.2931  0.3360
  907MOL0     H25153   2.392   6.855   5.287  0.1242 -0.8360 -0.3601
  907MOL0     H25154   2.537   6.777   5.153  0.7082 -1.1171 -1.3153
  907MOL0     H25155   2.581   6.810   4.988 -1.0131  1.9096 -2.2254
  907MOL0     H25156   2.635   7.016   5.113 -0.9790  0.3747  0.1609
  907MOL0     H25157   2.460   7.033   5.153 -0.8101  2.3282 -1.3181
  907MOL0     H25158   2.589   7.035   4.870  1.7764  1.3678  0.6959
  907MOL0     H25159   2.418   7.031   4.905 -0.3270  0.9978 -0.1274
  907MOL0     H25160   2.437   7.244   5.039  1.7103  4.6451 -0.1472
  907MOL0     H25161   2.488   7.273   4.870  0.1584 -2.6323 -1.8202
  907MOL0     H25162   2.841   7.326   5.103  0.0996  0.2689 -2.9643
  907MOL0     H25163   2.123   6.766   4.964 -0.8660 -1.1193 -0.0135
  907MOL0     H25164   1.898   6.793   4.990 -2.7833 -1.7556 -0.2509
  907MOL0     H25165   1.859   6.669   5.113  1.4049 -0.5655 -1.5334
  907MOL0     H25166   1.837   6.846   5.147 -0.7677 -0.4145  0.6414
  908MOL0     O25167  11.358  10.780  11.140  0.0966 -0.0779  0.1121
  908MOL0     C25168  11.334  10.851  11.241 -0.7530  0.4537  0.8539
  908MOL0     O25169  11.318  10.984  11.237  0.0130 -0.7196 -0.0929
  908MOL0     C25170  11.334  11.051  11.113  0.4249  0.0627 -0.0342
  908MOL0     C25171  11.234  11.125  11.054  0.2406 -0.3045 -0.6839
  908MOL0     C25172  11.275  11.214  10.952  1.1518 -0.0717  0.4657
  908MOL0     C25173  11.401  11.193  10.890 -1.5895  0.1927  0.7211
  908MOL0     O25174  11.433  11.265  10.782  0.6209 -0.3572  0.0734
  908MOL0     C25175  11.461  11.213  10.651 -0.4487 -0.0175 -0.0404
  908MOL0     C25176  11.345  11.196  10.560 -0.6119  0.6647 -0.2674
  908MOL0     C25177  11.279  11.325  10.508  0.0321  1.2685  0.0183
  908MOL0     C25178  11.230  11.428  10.616 -0.0297 -0.2676  0.3038
  908MOL0     C25179  11.161  11.553  10.555 -0.4325  0.0801 -0.0314
  908MOL0     C25180  11.039  11.597  10.645 -0.3696 -0.8088 -0.3599
  908MOL0     C25181  10.982  11.736  10.602  0.1992 -0.4920 -0.3169
  908MOL0     C25182  11.086  11.862  10.580 -0.0545  0.6708 -0.1300
  908MOL0     N25183  11.013  11.986  10.549  0.2007 -1.0410 -0.9866
  908MOL0     C25184  11.024  12.093  10.630 -0.9849 -0.3225 -0.4722
  908MOL0     C25185  10.956  12.182  10.565 -0.8587 -1.0842 -0.4526
  908MOL0     C25186  10.951  12.329  10.594  0.0537  0.8016 -0.2664
  908MOL0     C25187  11.074  12.416  10.538 -0.4672  0.5052 -0.4049
  908MOL0     C25188  11.036  12.481  10.397 -0.5017  0.5024 -1.7387
  908MOL0     C25189  11.161  12.535  10.320  0.4397  0.9513  1.0020
  908MOL0     O25190  11.245  12.622  10.394  0.2370 -0.0588 -0.6137
  908MOL0     C25191  11.310  12.715  10.322  0.6685  0.0766 -0.2019
  908MOL0     C25192  11.346  12.822  10.406  0.3339 -0.2683  1.1757
  908MOL0     C25193  11.414  12.932  10.345  0.5882 -0.2030  0.5462
  908MOL0     C25194  11.450  13.047  10.444 -0.3427  0.2385  0.2683
  908MOL0     C25195  11.445  12.925  10.207  0.2012  0.1885 -0.4917
  908MOL0     C25196  11.491  13.046  10.135  0.2093  0.1741  1.2907
  908MOL0     O25197  11.539  13.145  10.203 -0.5937 -0.5528 -0.5880
  908MOL0     C25198  11.596  13.247  10.134 -0.9825 -0.7779  0.7919
  908MOL0     C25199  11.706  13.232  10.048 -0.0260 -0.9364 -0.5040
  908MOL0     C25200  11.771  13.347  10.000  0.2934 -0.4440  0.2635
  908MOL0     C25201  11.734  13.485  10.033  0.6762  0.0908  1.0249
  908MOL0     O25202  11.804  13.597   9.987  0.5318  0.3982  0.9796
  908MOL0     C25203  11.885  13.607   9.866  0.9619  0.5326  0.9188
  908MOL0     C25204  11.943  13.745   9.870 -0.2771 -0.2223  0.2861
  908MOL0     C25205  11.834  13.848   9.821  0.0427 -0.5525  0.3011
  908MOL0     C25206  11.885  13.999   9.832 -0.5005  0.1813 -0.2829
  908MOL0     C25207  11.899  14.050   9.968  0.1048  1.4376 -0.0708
  908MOL0     C25208  11.932  14.206   9.963 -0.5575  0.7180  0.1837
  908MOL0     C25209  11.918  14.262  10.108 -0.6325 -0.3976 -0.2710
  908MOL0     C25210  11.929  14.418  10.114  0.4889 -0.2787 -0.1605
  908MOL0    Cl25211  11.870  14.489  10.272 -0.2064 -0.0516  0.9107
  908MOL0     C25212  11.617  13.496  10.114 -0.6161 -0.0876 -0.4852
  908MOL0     C25213  11.561  13.377  10.173 -0.9763 -1.3348 -0.8216
  908MOL0     O25214  11.468  13.045  10.011  0.3105 -0.2948 -0.3754
  908MOL0     C25215  11.395  12.812  10.133  0.5018 -0.2329 -0.1828
  908MOL0     C25216  11.335  12.709  10.186  0.1773 -0.6663 -0.7385
  908MOL0     N25217  10.903  12.140  10.443  0.8956  0.0262 -0.3501
  908MOL0     N25218  10.933  12.019  10.444 -0.0626 -0.5541  0.3546
  908MOL0     C25219  11.492  11.097  10.929  1.0605 -0.0603  0.5936
  908MOL0     C25220  11.463  11.032  11.049 -0.5429 -0.4724  0.1425
  908MOL0     C25221  11.314  10.786  11.365 -0.3427  0.0786 -0.8435
  908MOL0     C25222  11.225  10.850  11.461 -0.3662  0.3042  0.0443
  908MOL0     C25223  11.208  10.800  11.588 -0.3264  0.7830  0.3414
  908MOL0     C25224  11.285  10.691  11.634  0.9313  0.4404  0.1761
  908MOL0     O25225  11.255  10.656  11.763 -0.8518 -0.3805 -0.3744
  908MOL0     C25226  11.300  10.526  11.808  0.4272 -0.8337 -0.2358
  908MOL0     C25227  11.287  10.512  11.960 -0.6157  0.0356 -1.5871
  908MOL0     C25228  11.410  10.551  12.034  0.3433  0.3955 -0.0416
  908MOL0     C25229  11.384  10.538  12.187  0.1044 -0.4287  0.5822
  908MOL0     C25230  11.377  10.398  12.239 -0.3656 -0.8169  1.0772
  908MOL0     C25231  11.373  10.281  12.277  0.0899 -1.2857  0.1349
  908MOL0     C25232  11.366  10.623  11.541  0.6414  0.3682 -0.6726
  908MOL0     C25233  11.384  10.662  11.406  0.1402 -0.5074  0.1693
  908MOL0     C25234  11.454  10.569  11.309  0.4917  0.4406 -0.2977
  908MOL0     H25235  11.129  11.114  11.081  0.4032 -1.1857 -0.3614
  908MOL0     H25236  11.206  11.284  10.906  1.3742 -1.0526 -1.4636
  908MOL0     H25237  11.513  11.118  10.666 -4.0667 -2.2485 -0.5276
  908MOL0     H25238  11.540  11.281  10.619  2.9086 -0.1778  6.3109
  908MOL0     H25239  11.369  11.134  10.473 -0.9453  2.2119 -1.5139
  908MOL0     H25240  11.274  11.141  10.621  1.1437 -1.8319 -0.3126
  908MOL0     H25241  11.345  11.367  10.432  2.0621 -0.6460  0.6146
  908MOL0     H25242  11.181  11.290  10.472 -1.4455  0.1999  4.4765
  908MOL0     H25243  11.167  11.381  10.692 -1.6835  2.6483  0.8429
  908MOL0     H25244  11.325  11.442  10.670 -1.2463 -1.8025  3.0411
  908MOL0     H25245  11.133  11.531  10.452  1.9901 -1.7156 -0.4072
  908MOL0     H25246  11.240  11.628  10.545 -1.5076  1.0241 -1.9534
  908MOL0     H25247  10.967  11.516  10.645 -0.5003 -0.6990 -0.8441
  908MOL0     H25248  11.081  11.601  10.746 -1.5081 -1.4001  0.1482
  908MOL0     H25249  10.907  11.776  10.670  1.3563  2.6210 -0.6922
  908MOL0     H25250  10.924  11.730  10.510  0.3018 -1.1626 -0.3441
  908MOL0     H25251  11.143  11.865  10.673 -1.7162 -4.7378  1.3968
  908MOL0     H25252  11.154  11.834  10.499 -1.0326 -2.8741  0.1127
  908MOL0     H25253  11.100  12.096  10.708 -0.4389 -1.7565 -0.9075
  908MOL0     H25254  10.947  12.345  10.703  2.3804 -0.1986  0.0137
  908MOL0     H25255  10.851  12.358  10.561 -1.6670 -1.1404  2.7207
  908MOL0     H25256  11.095  12.505  10.598  1.6442  1.7118 -2.7477
  908MOL0     H25257  11.162  12.353  10.524 -1.8422 -1.4484 -0.6232
  908MOL0     H25258  10.992  12.406  10.332  2.0498 -2.2874 -0.4755
  908MOL0     H25259  10.972  12.563  10.432 -0.9366 -0.1190 -1.0646
  908MOL0     H25260  11.222  12.449  10.289 -1.9268 -1.0053  1.4771
  908MOL0     H25261  11.118  12.581  10.230 -2.3405  2.4797  2.9545
  908MOL0     H25262  11.324  12.842  10.510  4.7699  0.5714  2.1735
  908MOL0     H25263  11.555  13.074  10.457  0.2182 -0.8195 -1.7361
  908MOL0     H25264  11.406  13.035  10.544 -0.5101  0.8624  0.2725
  908MOL0     H25265  11.405  13.136  10.401  0.1157  0.7126  0.7556
  908MOL0     H25266  11.732  13.128  10.035 -0.6360 -1.5490  2.4661
  908MOL0     H25267  11.854  13.343   9.929  0.9712  2.3877  0.7704
  908MOL0     H25268  11.957  13.526   9.882 -1.2070 -1.1185  3.0197
  908MOL0     H25269  11.828  13.592   9.774 -0.2185 -3.2458  2.0883
  908MOL0     H25270  11.980  13.778   9.967 -0.7058 -0.6228  0.5891
  908MOL0     H25271  12.029  13.752   9.802 -0.2382  2.2658  0.5008
  908MOL0     H25272  11.740  13.842   9.876 -1.3811  0.7754 -1.7984
  908MOL0     H25273  11.806  13.839   9.715 -1.4225  0.8675  0.5246
  908MOL0     H25274  11.807  14.058   9.782  0.8995  0.5360 -2.1678
  908MOL0     H25275  11.978  14.001   9.774  1.2058 -4.7126  1.7237
  908MOL0     H25276  11.805  14.035  10.022  0.3322 -0.4836 -0.1641
  908MOL0     H25277  11.984  14.012  10.025 -0.8322  0.7757  0.9265
  908MOL0     H25278  11.857  14.265   9.910  0.7125  3.7120  1.4745
  908MOL0     H25279  12.027  14.222   9.911 -0.6568 -0.9767 -0.5812
  908MOL0     H25280  12.000  14.223  10.168  0.2561  0.1907 -1.0706
  908MOL0     H25281  11.829  14.221  10.157  1.4260 -1.2382  3.0505
  908MOL0     H25282  11.879  14.468  10.030  1.6922  3.0027  0.9214
  908MOL0     H25283  12.036  14.439  10.111  0.8320 -1.4634  1.8385
  908MOL0     H25284  11.573  13.594  10.129  3.3154  1.5301  2.2514
  908MOL0     H25285  11.483  13.396  10.246  0.0716  0.8666 -0.1734
  908MOL0     H25286  11.387  12.827  10.025 -2.3082  2.4085  0.2317
  908MOL0     H25287  11.291  12.623  10.137 -0.1432 -0.4830 -0.7747
  908MOL0     H25288  11.590  11.085  10.883  1.5317 -2.2351  2.0057
  908MOL0     H25289  11.541  10.985  11.108  0.3686  1.1072  0.2401
  908MOL0     H25290  11.188  10.949  11.438 -0.2970  0.5316  0.9054
  908MOL0     H25291  11.138  10.851  11.653 -1.0360 -0.7442  0.8313
  908MOL0     H25292  11.244  10.451  11.751 -2.0103 -0.9407  2.0687
  908MOL0     H25293  11.406  10.514  11.787  1.2714  2.0632  1.6899
  908MOL0     H25294  11.284  10.404  11.977 -0.1118  0.3592  0.8872
  908MOL0     H25295  11.199  10.550  12.011 -0.6840 -3.6568  1.4968
  908MOL0     H25296  11.489  10.484  11.998 -1.0967 -0.9427 -0.8277
  908MOL0     H25297  11.424  10.658  12.013 -0.4002  0.0450 -2.8137
  908MOL0     H25298  11.294  10.597  12.201 -0.1558 -0.8149  0.5464
  908MOL0     H25299  11.477  10.583  12.224  1.1491 -2.1077  0.1427
  908MOL0     H25300  11.379  10.185  12.323  0.9103 -2.6108 -2.5830
  908MOL0     H25301  11.419  10.536  11.578 -0.6478 -0.7641 -1.3891
  908MOL0     H25302  11.436  10.468  11.347  3.1855 -0.6461 -1.6105
  908MOL0     H25303  11.415  10.562  11.207  2.3621 -1.4153 -0.9826
  908MOL0     H25304  11.562  10.588  11.308  0.1601  2.7612  0.7004
  909MOL0     O25305   2.104  10.680   0.504  0.3960 -0.3543  0.2710
  909MOL0     C25306   2.040  10.576   0.526 -0.5302 -1.1650  0.1878
  909MOL0     O25307   1.996  10.492   0.425  0.1755  0.9052 -0.2353
  909MOL0     C25308   2.015  10.527   0.295  0.4820 -0.7396  0.5636
  909MOL0     C25309   2.139  10.551   0.228 -0.1738  0.6507  1.2931
  909MOL0     C25310   2.148  10.575   0.093 -0.0713  0.7257  0.0192
  909MOL0     C25311   2.036  10.576   0.018  0.3124  0.5610  0.6273
  909MOL0     O25312   2.062  10.604  -0.118  0.2004  0.0016  0.5269
  909MOL0     C25313   1.966  10.676  -0.190  0.2557 -0.7650 -0.5706
  909MOL0     C25314   2.026  10.801  -0.244  0.4084  0.5011 -0.3741
  909MOL0     C25315   2.012  10.930  -0.170  0.7450 -0.2354 -0.7537
  909MOL0     C25316   2.094  10.923  -0.046 -0.2353 -1.3848  0.7219
  909MOL0     C25317   2.122  11.061   0.019 -0.7110 -0.7438  0.5654
  909MOL0     C25318   2.226  11.049   0.138  0.5959  1.0268 -0.1772
  909MOL0     C25319   2.245  11.183   0.211  0.4333 -0.1068 -0.2823
  909MOL0     C25320   2.294  11.306   0.117  0.1855  1.0612 -1.0250
  909MOL0     N25321   2.326  11.431   0.184 -1.0377  0.3597  0.2398
  909MOL0     C25322   2.259  11.488   0.284  0.5455 -0.4960  0.2790
  909MOL0     C25323   2.340  11.603   0.317  0.6091  0.0085 -0.0171
  909MOL0     C25324   2.295  11.710   0.419 -1.2258  0.3105 -0.1979
  909MOL0     C25325   2.279  11.661   0.566  0.0937  0.8762 -0.1716
  909MOL0     C25326   2.263  11.788   0.647 -0.0761 -0.4835 -0.0849
  909MOL0     C25327   2.134  11.869   0.632 -0.3418  0.2609 -0.0279
  909MOL0     O25328   2.021  11.787   0.645  0.3088  0.0285 -1.1130
  909MOL0     C25329   1.907  11.826   0.583 -0.7695 -0.2372  0.3203
  909MOL0     C25330   1.831  11.716   0.553 -0.0776 -0.3465  0.4218
  909MOL0     C25331   1.692  11.726   0.518 -0.0621  1.4373 -1.1976
  909MOL0     C25332   1.627  11.593   0.501 -0.1606 -0.0831 -0.0543
  909MOL0     C25333   1.642  11.857   0.484  0.1380  0.0252 -0.2313
  909MOL0     C25334   1.506  11.887   0.422 -0.1653 -0.6803  0.4572
  909MOL0     O25335   1.477  12.019   0.403 -0.4174 -0.5843  0.0306
  909MOL0     C25336   1.359  12.053   0.348 -1.0433  1.0048  0.6611
  909MOL0     C25337   1.368  12.101   0.208  0.8455 -0.7719  0.3192
  909MOL0     C25338   1.249  12.143   0.144  0.2116 -0.0010  0.3486
  909MOL0     C25339   1.124  12.110   0.202 -0.0673 -0.9381  0.4964
  909MOL0     O25340   1.003  12.128   0.132  0.2099  0.8947 -0.8303
  909MOL0     C25341   1.004  12.123  -0.006 -1.7252  0.2152  0.1387
  909MOL0     C25342   0.850  12.101  -0.051 -0.0243  0.5421  0.1653
  909MOL0     C25343   0.742  12.203  -0.038  0.0179  0.5080 -0.6083
  909MOL0     C25344   0.596  12.131  -0.050 -0.0508 -0.9699 -0.3859
  909MOL0     C25345   0.510  12.226   0.035 -0.7327  0.2822 -0.5422
  909MOL0     C25346   0.359  12.183   0.046 -0.4585 -0.0024 -0.0648
  909MOL0     C25347   0.275  12.290   0.129 -0.6052  0.7372 -0.5115
  909MOL0     C25348   0.126  12.276   0.086 -0.4189 -0.0652 -0.5296
  909MOL0    Cl25349   0.094  12.368  -0.064  0.0058  0.1799  0.2854
  909MOL0     C25350   1.122  12.063   0.334  0.1517  0.2968 -0.4302
  909MOL0     C25351   1.237  12.027   0.404 -0.2916 -0.9127 -0.7748
  909MOL0     O25352   1.432  11.790   0.386  0.2504  0.1436  0.2536
  909MOL0     C25353   1.733  11.970   0.511  0.6984 -0.0754 -0.1113
  909MOL0     C25354   1.858  11.952   0.565  0.0484 -0.2819  0.0814
  909MOL0     N25355   2.457  11.600   0.241  0.3519 -0.0402  0.5199
  909MOL0     N25356   2.444  11.493   0.172 -0.9002  0.9910  0.9001
  909MOL0     C25357   1.909  10.570   0.081 -0.5694 -0.8867  0.3756
  909MOL0     C25358   1.899  10.550   0.218  0.0499 -0.2534 -0.6657
  909MOL0     C25359   2.041  10.520   0.665  0.4551  0.7574 -0.0903
  909MOL0     C25360   2.008  10.385   0.686  0.4283  1.0361  0.1760
  909MOL0     C25361   2.030  10.319   0.812  0.4481 -0.7958  0.3723
  909MOL0     C25362   2.058  10.401   0.921  0.3298 -1.2655 -0.6160
  909MOL0     O25363   2.066  10.357   1.049  0.4710 -0.4839 -0.2918
  909MOL0     C25364   2.059  10.222   1.092 -1.5357  0.1999  0.4489
  909MOL0     C25365   2.144  10.183   1.209  0.4348 -1.4488  0.7894
  909MOL0     C25366   2.106  10.244   1.343  0.0912  0.4149  1.6376
  909MOL0     C25367   2.194  10.204   1.458  0.4836 -0.0319  0.1909
  909MOL0     C25368   2.302  10.304   1.481  0.1496 -0.2893 -0.3254
  909MOL0     C25369   2.381  10.389   1.529 -0.1535 -0.3190  0.5631
  909MOL0     C25370   2.068  10.536   0.908 -0.9325  0.7715  0.2358
  909MOL0     C25371   2.064  10.595   0.779  0.0515 -0.2313 -0.7249
  909MOL0     C25372   2.107  10.738   0.790  0.6539 -0.0111  0.1199
  909MOL0     H25373   2.223  10.559   0.296 -0.4769 -0.8777  1.8967
  909MOL0     H25374   2.239  10.605   0.041  0.6416 -0.7672  0.3622
  909MOL0     H25375   1.886  10.722  -0.131  1.0774  2.1544 -1.5289
  909MOL0     H25376   1.918  10.613  -0.265 -0.1541  2.9861 -3.7699
  909MOL0     H25377   2.132  10.794  -0.272  0.9492  2.7532  0.8358
  909MOL0     H25378   1.965  10.819  -0.334 -2.4037  4.8778  2.0305
  909MOL0     H25379   2.053  11.009  -0.233  2.8796 -0.0931  0.7141
  909MOL0     H25380   1.906  10.949  -0.154  0.9618  4.0578 -2.9416
  909MOL0     H25381   2.044  10.862   0.030  2.1881  2.5832  6.1685
  909MOL0     H25382   2.195  10.881  -0.053  1.2333  1.3922  2.8549
  909MOL0     H25383   2.028  11.088   0.067 -0.5087  1.8488 -0.3556
  909MOL0     H25384   2.146  11.142  -0.050 -2.4417 -3.5069 -3.6986
  909MOL0     H25385   2.205  10.966   0.206 -0.3221  0.0825 -1.5517
  909MOL0     H25386   2.323  11.024   0.092 -0.0353  2.0071 -2.1203
  909MOL0     H25387   2.319  11.167   0.290 -0.7586 -1.0596  0.6683
  909MOL0     H25388   2.156  11.225   0.258  0.3624 -1.8151  1.1897
  909MOL0     H25389   2.381  11.278   0.058 -0.6222 -2.2257 -0.9091
  909MOL0     H25390   2.204  11.314   0.055 -0.1727  1.2635 -0.4886
  909MOL0     H25391   2.158  11.464   0.317  0.7413 -1.1751  0.4001
  909MOL0     H25392   2.195  11.746   0.394 -2.2105 -1.6658  0.6602
  909MOL0     H25393   2.358  11.799   0.409 -1.5826  0.5654 -0.1753
  909MOL0     H25394   2.190  11.598   0.559  1.5063 -1.1815 -0.6439
  909MOL0     H25395   2.368  11.606   0.598 -1.3602 -1.5309  0.0378
  909MOL0     H25396   2.282  11.762   0.751  1.9331 -2.1366 -0.8005
  909MOL0     H25397   2.340  11.858   0.613 -0.4770  2.3064  3.9776
  909MOL0     H25398   2.134  11.947   0.708  1.4035  1.4941 -1.2217
  909MOL0     H25399   2.140  11.918   0.534  1.2344 -0.0399 -0.1240
  909MOL0     H25400   1.875  11.620   0.574  1.7419  0.8396  2.3787
  909MOL0     H25401   1.688  11.504   0.519  1.3848 -0.1410 -4.4676
  909MOL0     H25402   1.589  11.595   0.399  0.8802  1.1076 -0.4330
  909MOL0     H25403   1.541  11.579   0.568  1.7301 -0.7536  2.3722
  909MOL0     H25404   1.461  12.105   0.153  0.1415 -1.0442 -0.9369
  909MOL0     H25405   1.250  12.184   0.044 -1.5334 -0.2158  0.2020
  909MOL0     H25406   1.053  12.211  -0.049  3.1008 -1.8884  0.5901
  909MOL0     H25407   1.071  12.038  -0.023 -1.8763  0.0481  0.3718
  909MOL0     H25408   0.855  12.084  -0.159  0.8039  2.8339 -0.2093
  909MOL0     H25409   0.813  12.021   0.013  0.0004  0.5057  0.1335
  909MOL0     H25410   0.747  12.285  -0.111  0.3498  3.6608  2.6597
  909MOL0     H25411   0.755  12.237   0.065  0.3601 -3.8323  0.9646
  909MOL0     H25412   0.594  12.033  -0.000  2.9779  0.1367  2.2535
  909MOL0     H25413   0.563  12.118  -0.154 -0.1691 -3.1882 -0.1233
  909MOL0     H25414   0.559  12.230   0.133  0.1719  1.8984 -1.0082
  909MOL0     H25415   0.520  12.329  -0.003  1.4103  0.2232 -0.2953
  909MOL0     H25416   0.360  12.088   0.100 -0.2919  0.6485  1.1041
  909MOL0     H25417   0.323  12.167  -0.056 -1.3064 -2.6132  0.5527
  909MOL0     H25418   0.307  12.393   0.107 -1.9326  0.6949 -2.9583
  909MOL0     H25419   0.285  12.270   0.236  1.7747  0.3614 -0.7525
  909MOL0     H25420   0.055  12.328   0.151  2.9944  5.1908 -0.4253
  909MOL0     H25421   0.107  12.168   0.076  2.5904 -0.8394  0.9903
  909MOL0     H25422   1.030  12.039   0.386  1.6198 -2.6322  1.0627
  909MOL0     H25423   1.235  11.994   0.507 -0.4622  0.9591 -0.1428
  909MOL0     H25424   1.704  12.074   0.497 -0.0986 -0.0691  1.3872
  909MOL0     H25425   1.906  12.040   0.607  1.2901 -0.5666 -0.6818
  909MOL0     H25426   1.821  10.599   0.026  0.4604  1.1324 -0.2955
  909MOL0     H25427   1.806  10.530   0.271 -0.8032 -3.4268 -3.0838
  909MOL0     H25428   1.972  10.328   0.601 -4.3305  3.7903 -0.0139
  909MOL0     H25429   2.006  10.216   0.835 -1.1988 -0.6773 -0.7239
  909MOL0     H25430   1.954  10.206   1.118 -0.7493 -0.9277  3.3462
  909MOL0     H25431   2.089  10.149   1.016  2.5844  1.6120  0.4830
  909MOL0     H25432   2.243  10.221   1.184 -0.7209 -0.6359 -3.1575
  909MOL0     H25433   2.130  10.074   1.216 -0.3342 -1.3949  0.2012
  909MOL0     H25434   2.100  10.353   1.331  0.0665  0.1249 -1.9309
  909MOL0     H25435   2.006  10.211   1.371 -0.0812  0.7312  1.3998
  909MOL0     H25436   2.227  10.102   1.434 -1.4507 -1.2306  2.1830
  909MOL0     H25437   2.138  10.194   1.552 -1.5556 -3.2282 -1.1907
  909MOL0     H25438   2.457  10.464   1.538 -0.3285  0.0027 -0.4447
  909MOL0     H25439   2.075  10.584   1.005 -1.0482 -0.6139  0.9522
  909MOL0     H25440   2.037  10.805   0.739  0.4433 -0.4228 -0.1466
  909MOL0     H25441   2.107  10.769   0.894  0.0560  1.1354 -0.2098
  909MOL0     H25442   2.203  10.752   0.741  1.8925 -2.8886  1.4994
  910MOL0     O25443  10.987   1.031   2.001  0.2284 -0.1693  0.0984
  910MOL0     C25444  11.106   1.063   1.997 -0.2038  0.0484 -0.0919
  910MOL0     O25445  11.197   1.029   2.089 -0.0567  0.3527 -0.5774
  910MOL0     C25446  11.171   0.920   2.174  0.1669 -0.3931 -0.2827
  910MOL0     C25447  11.122   0.797   2.123 -0.1499 -0.8850  0.5981
  910MOL0     C25448  11.110   0.685   2.204  0.4762 -0.0861  0.2118
  910MOL0     C25449  11.140   0.689   2.342 -0.0156 -1.0682 -0.4557
  910MOL0     O25450  11.150   0.585   2.424 -0.4501  0.0232  0.2881
  910MOL0     C25451  11.038   0.497   2.404  1.0740 -0.3628 -0.1708
  910MOL0     C25452  11.013   0.411   2.527  0.3560 -0.5950  0.2069
  910MOL0     C25453  10.955   0.496   2.638 -1.0153  0.6219  0.2346
  910MOL0     C25454  11.033   0.468   2.774  0.2187  0.0409  0.4069
  910MOL0     C25455  11.187   0.511   2.798  0.0307  0.2025 -1.3391
  910MOL0     C25456  11.199   0.656   2.761 -0.0390 -0.2282 -0.6510
  910MOL0     C25457  11.145   0.749   2.870 -1.1539 -0.1996  1.0424
  910MOL0     C25458  11.146   0.895   2.818 -0.6708  0.6311 -0.4984
  910MOL0     N25459  11.269   0.950   2.772  0.5558 -0.0871 -0.4073
  910MOL0     C25460  11.279   1.058   2.684  0.4184 -0.6550 -0.3247
  910MOL0     C25461  11.417   1.094   2.700  0.1231 -0.3662  0.6620
  910MOL0     C25462  11.487   1.203   2.619  0.2923  0.5096  0.4132
  910MOL0     C25463  11.526   1.142   2.476 -0.7797 -0.4097  0.3910
  910MOL0     C25464  11.672   1.127   2.452 -0.9494 -0.9936 -0.5764
  910MOL0     C25465  11.728   1.003   2.516 -0.5952 -0.4872 -0.4173
  910MOL0     O25466  11.868   1.008   2.505 -0.0961  0.3447  0.2622
  910MOL0     C25467  11.926   0.972   2.385  0.6008 -0.4655  0.0528
  910MOL0     C25468  11.938   0.843   2.335  0.4607  0.0101  0.6893
  910MOL0     C25469  11.995   0.821   2.205 -1.0601  0.4616 -0.7296
  910MOL0     C25470  12.017   0.677   2.147  0.2022 -0.5391  0.2548
  910MOL0     C25471  12.029   0.938   2.134 -0.3284 -1.0064  0.2078
  910MOL0     C25472  12.082   0.946   1.992  0.7106 -0.4769 -0.7514
  910MOL0     O25473  12.025   1.054   1.915 -0.7768  0.2215  0.3607
  910MOL0     C25474  12.056   1.040   1.783  0.3929 -0.6793  0.7112
  910MOL0     C25475  12.160   1.125   1.740 -0.3280  0.0318 -0.1751
  910MOL0     C25476  12.208   1.104   1.610  0.4352  0.2724 -1.3815
  910MOL0     C25477  12.156   1.013   1.522  0.0221 -0.4405  0.9373
  910MOL0     O25478  12.197   0.995   1.390 -0.6111 -0.5986 -0.2294
  910MOL0     C25479  12.336   0.981   1.377 -0.2632  0.8322  0.3107
  910MOL0     C25480  12.371   0.931   1.226  0.2715 -0.0834  0.0650
  910MOL0     C25481  12.317   0.792   1.211  0.3086 -0.0527  0.8490
  910MOL0     C25482  12.363   0.720   1.084  0.7018  0.6134 -0.0371
  910MOL0     C25483  12.272   0.594   1.077 -0.4411  0.5670 -0.6438
  910MOL0     C25484  12.332   0.471   1.004  0.3554 -0.3628  1.3226
  910MOL0     C25485  12.244   0.345   0.996  0.2699 -0.0179  0.9242
  910MOL0     C25486  12.293   0.248   0.888 -0.0036 -0.4587  0.0838
  910MOL0    Cl25487  12.227   0.081   0.896 -0.1317  0.6013  0.0388
  910MOL0     C25488  12.047   0.935   1.565  0.8090 -0.7308  0.9029
  910MOL0     C25489  12.003   0.940   1.695  0.3810  0.7242 -0.5294
  910MOL0     O25490  12.163   0.859   1.955 -0.4591 -0.0334  0.2995
  910MOL0     C25491  12.025   1.063   2.183  0.3901  0.8048 -0.6772
  910MOL0     C25492  11.980   1.080   2.314  0.2348  0.7232  0.5320
  910MOL0     N25493  11.479   1.025   2.794 -0.6854 -0.1952  0.1947
  910MOL0     N25494  11.399   0.926   2.825  0.3690 -0.4297 -0.2538
  910MOL0     C25495  11.201   0.807   2.393  0.6280 -0.2861 -0.6417
  910MOL0     C25496  11.202   0.914   2.314 -1.1952  0.1448  1.3765
  910MOL0     C25497  11.156   1.146   1.886 -0.6181  0.9347 -0.3868
  910MOL0     C25498  11.107   1.274   1.872 -0.2580 -0.0464 -0.3319
  910MOL0     C25499  11.172   1.357   1.776 -0.1846  0.1992 -0.6961
  910MOL0     C25500  11.269   1.308   1.692  0.8792 -0.1686 -1.0331
  910MOL0     O25501  11.333   1.396   1.603  0.0254  0.6761  0.4452
  910MOL0     C25502  11.383   1.341   1.480 -0.9984 -0.3713 -0.2127
  910MOL0     C25503  11.279   1.253   1.397 -0.4672 -0.4565 -0.7968
  910MOL0     C25504  11.176   1.347   1.332 -0.0762 -0.2341  0.4611
  910MOL0     C25505  11.060   1.375   1.420  0.4246  0.7299  0.0091
  910MOL0     C25506  10.949   1.439   1.344  1.4584  0.2884 -0.6019
  910MOL0     C25507  10.843   1.483   1.295 -0.2061  0.3839 -0.4841
  910MOL0     C25508  11.301   1.169   1.704 -0.7506 -0.9912 -0.4386
  910MOL0     C25509  11.250   1.087   1.797 -0.5926 -0.0714  0.1645
  910MOL0     C25510  11.307   0.941   1.806  0.2638 -0.0915 -0.1281
  910MOL0     H25511  11.117   0.790   2.015 -2.2257 -0.0997  0.6018
  910MOL0     H25512  11.070   0.600   2.148  2.3631 -1.2342  0.5215
  910MOL0     H25513  11.064   0.423   2.328  0.9734 -0.1893 -0.3755
  910MOL0     H25514  10.946   0.546   2.373  1.9018 -1.1517 -4.5613
  910MOL0     H25515  10.933   0.341   2.499 -2.1609  2.4948 -0.9667
  910MOL0     H25516  11.107   0.369   2.564 -0.4331 -3.4314 -0.6995
  910MOL0     H25517  10.968   0.599   2.605  1.3042  0.2459 -0.2175
  910MOL0     H25518  10.850   0.479   2.664 -0.9518 -0.5756 -0.1988
  910MOL0     H25519  10.977   0.532   2.843 -0.6721  0.5789 -0.7715
  910MOL0     H25520  11.020   0.365   2.808 -0.6059  0.7126  2.2686
  910MOL0     H25521  11.242   0.438   2.738 -3.0982 -1.0943 -2.8832
  910MOL0     H25522  11.228   0.502   2.899 -0.6331  1.7560 -0.9084
  910MOL0     H25523  11.307   0.671   2.749 -0.0139 -0.6017 -0.9134
  910MOL0     H25524  11.171   0.665   2.656 -0.1264 -0.2797 -0.6323
  910MOL0     H25525  11.209   0.747   2.958  2.2927  0.8603 -1.2320
  910MOL0     H25526  11.039   0.727   2.886 -2.4387  2.7018 -2.2315
  910MOL0     H25527  11.066   0.878   2.745  0.6676 -2.0685 -1.4642
  910MOL0     H25528  11.112   0.964   2.896 -0.3187 -2.3284  2.4401
  910MOL0     H25529  11.199   1.100   2.624 -1.2346 -2.2229  0.6894
  910MOL0     H25530  11.567   1.245   2.680  0.9790 -2.2741  1.6054
  910MOL0     H25531  11.418   1.284   2.596 -0.1549 -0.3235 -1.3941
  910MOL0     H25532  11.471   1.049   2.463 -2.8061  0.8169 -0.2904
  910MOL0     H25533  11.497   1.212   2.396  2.0683  1.4535  0.8333
  910MOL0     H25534  11.703   1.121   2.347  1.3191 -1.0708  0.0508
  910MOL0     H25535  11.728   1.217   2.479  0.0413 -1.0102 -2.4200
  910MOL0     H25536  11.697   0.996   2.621 -1.1540  0.5879 -0.4921
  910MOL0     H25537  11.681   0.910   2.483 -2.4058 -1.8873  4.9273
  910MOL0     H25538  11.923   0.751   2.389  3.8113  1.1928  4.0483
  910MOL0     H25539  11.954   0.606   2.201  0.9346 -1.6790 -0.3333
  910MOL0     H25540  12.120   0.643   2.158  0.6137  0.0847 -1.3423
  910MOL0     H25541  11.987   0.683   2.042  0.7855  4.1453  0.1474
  910MOL0     H25542  12.178   1.217   1.795  0.5014  0.5135 -1.2086
  910MOL0     H25543  12.283   1.173   1.572  1.1870  1.0998  1.4187
  910MOL0     H25544  12.382   1.080   1.380  2.2428 -0.1896 -1.0423
  910MOL0     H25545  12.369   0.911   1.454 -3.1945 -1.8772 -0.6660
  910MOL0     H25546  12.321   0.998   1.154  1.9379 -0.3166 -1.3656
  910MOL0     H25547  12.478   0.944   1.213  0.6399 -0.6047  2.2280
  910MOL0     H25548  12.209   0.801   1.206 -0.0430 -2.0163  2.9961
  910MOL0     H25549  12.337   0.730   1.300  0.7995 -1.1740 -0.0063
  910MOL0     H25550  12.469   0.700   1.103  1.0006  2.5634  0.5204
  910MOL0     H25551  12.360   0.779   0.992  0.3961  0.1549 -0.3295
  910MOL0     H25552  12.254   0.551   1.176 -3.3670 -1.0311 -1.7442
  910MOL0     H25553  12.175   0.620   1.034 -2.1538 -1.2162  1.8152
  910MOL0     H25554  12.427   0.445   1.052 -0.0138 -1.1832  1.6192
  910MOL0     H25555  12.339   0.509   0.902 -1.6918 -0.4487  1.1162
  910MOL0     H25556  12.147   0.381   0.960  0.3013 -0.2876  0.5677
  910MOL0     H25557  12.223   0.293   1.090 -2.7825 -0.6007  0.0285
  910MOL0     H25558  12.400   0.234   0.905  0.0603 -1.2206 -0.9208
  910MOL0     H25559  12.290   0.290   0.787  0.6029 -1.1279 -0.2155
  910MOL0     H25560  12.001   0.864   1.497  0.4797  0.5010 -0.2142
  910MOL0     H25561  11.925   0.870   1.726  0.4716  0.5725 -0.6457
  910MOL0     H25562  12.056   1.153   2.131 -1.2848  1.6026 -0.3786
  910MOL0     H25563  11.977   1.184   2.346 -0.1836  1.0918 -0.6131
  910MOL0     H25564  11.229   0.812   2.497 -1.0734 -3.0831  0.0503
  910MOL0     H25565  11.250   1.004   2.351  1.3752 -0.2408 -0.6769
  910MOL0     H25566  11.026   1.301   1.938 -0.9960 -3.6769  0.4818
  910MOL0     H25567  11.151   1.463   1.788  2.8625  0.7164  1.4192
  910MOL0     H25568  11.400   1.430   1.419  0.0417 -1.8708 -2.2577
  910MOL0     H25569  11.483   1.301   1.500 -0.2791  1.6567  0.4556
  910MOL0     H25570  11.228   1.174   1.453  0.5509  0.6577  1.8975
  910MOL0     H25571  11.340   1.217   1.313 -1.3847 -0.5841 -1.4203
  910MOL0     H25572  11.221   1.439   1.294 -3.0357  0.3144 -2.1468
  910MOL0     H25573  11.142   1.280   1.253  0.5477  0.9042 -0.8101
  910MOL0     H25574  11.096   1.451   1.490  2.7330  1.4813 -1.8414
  910MOL0     H25575  11.030   1.283   1.469  0.6348  0.2371 -0.7650
  910MOL0     H25576  10.757   1.517   1.241 -3.0781 -2.0861  2.1372
  910MOL0     H25577  11.366   1.122   1.631 -1.9611 -1.3401 -1.3150
  910MOL0     H25578  11.383   0.941   1.884  0.1976 -0.8023 -0.0540
  910MOL0     H25579  11.235   0.874   1.854 -0.6151  1.0027  0.1275
  910MOL0     H25580  11.344   0.899   1.712  0.4406 -1.6562  0.6134
  911MOL0     O25581   3.279   6.013   1.293  0.1829  0.3045 -0.2749
  911MOL0     C25582   3.202   6.095   1.326  0.5511  0.4259  0.2166
  911MOL0     O25583   3.191   6.217   1.273  0.7787 -0.5749  0.2091
  911MOL0     C25584   3.234   6.234   1.143 -0.0942  1.5029 -0.3172
  911MOL0     C25585   3.205   6.135   1.035  0.1758 -0.8192 -0.1508
  911MOL0     C25586   3.248   6.162   0.903  0.5779 -0.7476  0.1980
  911MOL0     C25587   3.320   6.287   0.872 -0.5194 -0.6388 -0.2548
  911MOL0     O25588   3.364   6.336   0.752  0.5245 -0.2624  0.4085
  911MOL0     C25589   3.266   6.329   0.652 -0.6090  0.8194  0.0569
  911MOL0     C25590   3.310   6.351   0.513 -0.0660  0.9870  0.3491
  911MOL0     C25591   3.403   6.472   0.490 -0.5364  0.8530 -0.4800
  911MOL0     C25592   3.359   6.602   0.556 -0.8000  0.4960 -0.4946
  911MOL0     C25593   3.443   6.719   0.507  1.0405 -0.9910  0.3946
  911MOL0     C25594   3.385   6.855   0.582  0.6253 -0.2911  0.7111
  911MOL0     C25595   3.236   6.877   0.561  0.8464  0.1654  0.4942
  911MOL0     C25596   3.204   7.014   0.610  0.2805 -0.1963 -0.4769
  911MOL0     N25597   3.276   7.126   0.548  0.3224  0.7055  0.0932
  911MOL0     C25598   3.302   7.135   0.415 -0.0303 -0.7675  0.4564
  911MOL0     C25599   3.364   7.252   0.400 -0.7930 -0.2625 -0.0237
  911MOL0     C25600   3.398   7.326   0.277 -0.1785 -0.3763  1.2428
  911MOL0     C25601   3.271   7.344   0.193  1.1762 -0.3760  0.1255
  911MOL0     C25602   3.307   7.401   0.058  0.6340  0.0120 -0.1211
  911MOL0     C25603   3.389   7.534   0.058  0.7480 -0.3524  0.8001
  911MOL0     O25604   3.294   7.633   0.118  0.0344 -0.0261 -1.3966
  911MOL0     C25605   3.195   7.705   0.053 -0.3434  0.9523  0.2355
  911MOL0     C25606   3.104   7.775   0.120 -0.9009  1.0234 -0.1395
  911MOL0     C25607   3.000   7.833   0.050  0.0035 -0.6076 -0.9154
  911MOL0     C25608   2.895   7.903   0.140 -0.2004 -0.0114 -0.0206
  911MOL0     C25609   2.986   7.821  -0.094  0.1577 -0.5313  0.3941
  911MOL0     C25610   2.894   7.911  -0.181 -0.8213  0.3519  0.3008
  911MOL0     O25611   2.944   7.968  -0.298 -0.1165 -0.2428  0.4508
  911MOL0     C25612   2.865   8.021  -0.390 -0.3584 -0.1878 -0.8811
  911MOL0     C25613   2.760   8.109  -0.365 -0.2926  0.2770  0.4926
  911MOL0     C25614   2.683   8.147  -0.475  1.2285 -0.3429 -0.5975
  911MOL0     C25615   2.716   8.126  -0.602 -0.1938  0.1875  0.2432
  911MOL0     O25616   2.662   8.185  -0.711  0.3661 -0.0557 -0.2368
  911MOL0     C25617   2.539   8.249  -0.714  0.2804 -0.2433  0.1062
  911MOL0     C25618   2.544   8.376  -0.806 -1.1631 -0.7196  0.1112
  911MOL0     C25619   2.638   8.373  -0.929 -0.3877 -0.6402  0.2652
  911MOL0     C25620   2.601   8.271  -1.036  0.4750 -0.8823  0.4024
  911MOL0     C25621   2.456   8.284  -1.093 -0.3684  0.2370  0.1115
  911MOL0     C25622   2.426   8.414  -1.169  0.2098 -0.5131 -0.0161
  911MOL0     C25623   2.509   8.448  -1.297  0.3512 -0.4045 -0.5094
  911MOL0     C25624   2.482   8.596  -1.340 -0.6957  0.5214 -0.5009
  911MOL0    Cl25625   2.335   8.587  -1.430  0.2234  0.0717  0.1649
  911MOL0     C25626   2.814   8.031  -0.628 -0.2245  0.6406  0.3578
  911MOL0     C25627   2.891   7.979  -0.519  0.0526 -0.3111  0.0637
  911MOL0     O25628   2.783   7.925  -0.133 -0.1267 -0.5272 -0.5111
  911MOL0     C25629   3.085   7.756  -0.157  1.0958  1.3233 -0.4577
  911MOL0     C25630   3.190   7.697  -0.088  0.3955  0.2500  0.3633
  911MOL0     N25631   3.394   7.298   0.531  0.6952 -0.6343  0.2333
  911MOL0     N25632   3.340   7.226   0.622 -0.0022  0.4048 -0.4538
  911MOL0     C25633   3.356   6.360   0.982 -0.2840  0.5595  1.0382
  911MOL0     C25634   3.312   6.342   1.114 -0.9983 -0.9263  0.0202
  911MOL0     C25635   3.125   6.057   1.444 -1.1180 -0.4282 -0.2948
  911MOL0     C25636   3.189   6.067   1.566  0.6929  1.0531  0.4579
  911MOL0     C25637   3.121   6.025   1.684  0.2278 -0.0984  0.4085
  911MOL0     C25638   2.993   5.978   1.681  0.2460  0.7439  1.4481
  911MOL0     O25639   2.935   5.932   1.799 -0.8323  0.5154 -0.2501
  911MOL0     C25640   2.827   5.844   1.819 -0.0608  0.2545  0.3410
  911MOL0     C25641   2.880   5.703   1.862 -0.8411  0.1563 -0.1964
  911MOL0     C25642   2.885   5.674   2.011  0.2209 -0.8951 -0.4953
  911MOL0     C25643   2.974   5.765   2.092  0.5780 -0.0816 -0.8674
  911MOL0     C25644   3.110   5.792   2.037  1.0682 -0.4833 -0.3152
  911MOL0     C25645   3.229   5.817   2.007 -0.1520  0.3843  0.3021
  911MOL0     C25646   2.921   5.992   1.561 -0.0039  0.3395  0.1804
  911MOL0     C25647   2.988   6.022   1.442 -0.8527  0.2151 -0.9143
  911MOL0     C25648   2.914   6.026   1.315  0.2733  0.6423  1.0736
  911MOL0     H25649   3.150   6.042   1.048  1.9958 -2.0737 -1.0819
  911MOL0     H25650   3.237   6.096   0.818  0.4302  3.6766 -3.6115
  911MOL0     H25651   3.190   6.404   0.673 -1.0162  0.3641  0.2387
  911MOL0     H25652   3.206   6.238   0.662  2.7583 -1.5068  0.8096
  911MOL0     H25653   3.364   6.262   0.480  2.7364  1.6787  2.7313
  911MOL0     H25654   3.222   6.356   0.448  0.1432  0.6528  0.0333
  911MOL0     H25655   3.498   6.436   0.531 -1.2410 -1.7037 -0.9548
  911MOL0     H25656   3.411   6.487   0.382 -0.1025  0.0691 -0.5610
  911MOL0     H25657   3.252   6.621   0.542 -0.7729 -0.6110 -2.5690
  911MOL0     H25658   3.371   6.597   0.664  1.0678  1.2386 -0.6441
  911MOL0     H25659   3.438   6.723   0.398 -0.3423  0.5036  0.4579
  911MOL0     H25660   3.549   6.714   0.530  1.2567  2.6155  0.8742
  911MOL0     H25661   3.410   6.858   0.689  0.8945  4.2297  0.7149
  911MOL0     H25662   3.438   6.937   0.532 -3.8609  1.5933 -1.4507
  911MOL0     H25663   3.172   6.802   0.610 -0.1188 -0.6340 -1.8133
  911MOL0     H25664   3.220   6.879   0.452  1.3626  2.2211  0.4301
  911MOL0     H25665   3.098   7.033   0.595 -0.6539 -4.5097 -0.6573
  911MOL0     H25666   3.236   7.024   0.714  0.0013  0.2331 -0.4316
  911MOL0     H25667   3.277   7.070   0.331 -1.3790  1.9109 -1.3759
  911MOL0     H25668   3.467   7.258   0.226 -1.8797  0.4799 -2.5571
  911MOL0     H25669   3.458   7.415   0.298  0.6267 -1.3313  3.2038
  911MOL0     H25670   3.231   7.244   0.175  1.9206 -0.5557 -0.5915
  911MOL0     H25671   3.183   7.391   0.238 -2.5821 -1.7003 -4.9159
  911MOL0     H25672   3.370   7.329   0.004  1.9442  1.0078  0.0405
  911MOL0     H25673   3.209   7.409   0.010 -1.6169 -4.4404  2.9383
  911MOL0     H25674   3.483   7.526   0.113  2.2150  1.7637 -1.2053
  911MOL0     H25675   3.418   7.560  -0.044  0.5134 -2.8670  0.0335
  911MOL0     H25676   3.108   7.789   0.227 -1.6101  3.9564 -0.4133
  911MOL0     H25677   2.887   8.008   0.109 -5.0735 -0.4595 -1.1507
  911MOL0     H25678   2.903   7.900   0.249 -0.2471 -2.6910 -0.0196
  911MOL0     H25679   2.798   7.856   0.123 -1.6863  3.0675 -0.7599
  911MOL0     H25680   2.724   8.142  -0.268  2.5516 -1.3135  2.2599
  911MOL0     H25681   2.590   8.201  -0.458  0.0075 -1.5009 -3.1397
  911MOL0     H25682   2.475   8.183  -0.774 -1.1519  0.8069  0.4361
  911MOL0     H25683   2.483   8.277  -0.624 -2.4210  0.1090 -1.5588
  911MOL0     H25684   2.443   8.404  -0.837 -0.2439  3.6969  0.4964
  911MOL0     H25685   2.587   8.448  -0.735  1.5422 -1.6949 -0.4299
  911MOL0     H25686   2.742   8.369  -0.895  1.1999  4.5093 -2.8262
  911MOL0     H25687   2.633   8.476  -0.963  2.7064 -0.1296  1.0696
  911MOL0     H25688   2.616   8.170  -0.997  0.1750 -0.8656  0.5647
  911MOL0     H25689   2.668   8.266  -1.122  0.4616 -3.4365  0.4718
  911MOL0     H25690   2.453   8.195  -1.156  1.3598  1.2846 -1.5601
  911MOL0     H25691   2.380   8.266  -1.016  0.1504 -2.5375  0.0875
  911MOL0     H25692   2.412   8.501  -1.104 -2.5440 -0.3888 -0.6192
  911MOL0     H25693   2.333   8.401  -1.225  0.1316  3.2720 -1.0680
  911MOL0     H25694   2.485   8.384  -1.383  2.7580  0.5285 -1.9953
  911MOL0     H25695   2.615   8.444  -1.271  0.5546  2.7180 -0.4815
  911MOL0     H25696   2.558   8.644  -1.403 -0.3845 -0.9991 -1.3261
  911MOL0     H25697   2.467   8.656  -1.250 -0.3738 -2.7279  1.9133
  911MOL0     H25698   2.854   8.014  -0.727 -1.6968 -0.0063 -0.1515
  911MOL0     H25699   2.976   7.924  -0.557  1.5456  2.4139 -0.8411
  911MOL0     H25700   3.089   7.745  -0.265  0.3018 -0.2224 -0.3585
  911MOL0     H25701   3.256   7.636  -0.149 -0.7835 -1.0789  0.3850
  911MOL0     H25702   3.420   6.444   0.956  0.3221  0.2428  1.4994
  911MOL0     H25703   3.346   6.412   1.190  0.4282  1.5883 -2.7378
  911MOL0     H25704   3.288   6.109   1.580 -0.6919  4.2774  1.4202
  911MOL0     H25705   3.175   6.040   1.777  4.4633  0.5849 -1.9289
  911MOL0     H25706   2.754   5.885   1.890  0.9710 -0.1487  1.6771
  911MOL0     H25707   2.780   5.825   1.722 -2.5255 -0.3400  1.5709
  911MOL0     H25708   2.977   5.682   1.815  0.1998  0.9920  1.4788
  911MOL0     H25709   2.805   5.636   1.819 -0.9288  1.7203 -2.6784
  911MOL0     H25710   2.780   5.683   2.039 -0.1167  4.3339 -2.3251
  911MOL0     H25711   2.918   5.571   2.029 -0.0182 -1.2712 -2.0386
  911MOL0     H25712   2.973   5.711   2.187 -0.6263  2.5855  0.7559
  911MOL0     H25713   2.922   5.860   2.108 -3.2100 -2.1447  0.3287
  911MOL0     H25714   3.335   5.822   1.989 -0.7898  1.6558 -4.4862
  911MOL0     H25715   2.813   5.982   1.561 -0.0444  0.4183 -1.4460
  911MOL0     H25716   2.929   6.125   1.271  0.1861  1.0696  1.9929
  911MOL0     H25717   2.951   5.947   1.248 -0.2392  0.1731  1.3339
  911MOL0     H25718   2.809   5.995   1.322  0.1990  1.1298  2.1903
  912MOL0     O25719   2.841  11.340   5.094  0.2782  0.0248 -0.6420
  912MOL0     C25720   2.719  11.301   5.092 -0.5545 -0.2005 -0.5218
  912MOL0     O25721   2.661  11.243   5.197  0.0956  0.1837  0.0849
  912MOL0     C25722   2.737  11.185   5.302 -0.1799 -0.4873 -0.7530
  912MOL0     C25723   2.856  11.123   5.289 -1.3515 -0.8669 -1.4729
  912MOL0     C25724   2.923  11.085   5.408 -0.7037  0.4419 -0.3290
  912MOL0     C25725   2.859  11.087   5.538 -0.1448 -0.2559  0.1533
  912MOL0     O25726   2.928  11.019   5.641 -0.3382  0.2548 -0.1925
  912MOL0     C25727   2.865  11.022   5.771  0.1875  0.6203 -0.4463
  912MOL0     C25728   2.945  10.940   5.873  0.3270  0.1243 -0.6394
  912MOL0     C25729   2.845  10.917   5.991 -0.7075 -0.3561  0.2227
  912MOL0     C25730   2.788  10.779   6.004 -0.2496  0.2603 -0.1927
  912MOL0     C25731   2.737  10.760   6.154  0.2694  0.0309 -0.1707
  912MOL0     C25732   2.694  10.615   6.185  0.3917  0.0632 -0.3851
  912MOL0     C25733   2.580  10.560   6.089  0.0460  0.0204 -0.8618
  912MOL0     C25734   2.442  10.626   6.113  0.0194 -0.5266  0.1518
  912MOL0     N25735   2.337  10.561   6.037  0.5910 -0.5057  0.5118
  912MOL0     C25736   2.340  10.482   5.929  0.5178  0.7143  0.2771
  912MOL0     C25737   2.210  10.446   5.902  0.0658 -0.5078 -1.4724
  912MOL0     C25738   2.147  10.356   5.801  0.0688 -0.1379  0.0692
  912MOL0     C25739   2.073  10.232   5.878  0.5370  0.3896 -0.6553
  912MOL0     C25740   2.016  10.132   5.775 -0.0994 -0.6365 -0.7723
  912MOL0     C25741   1.884  10.178   5.714 -0.3341  0.4654  0.2877
  912MOL0     O25742   1.778  10.195   5.811  0.3870 -0.1917  0.3196
  912MOL0     C25743   1.756  10.103   5.909  0.5896 -1.2478  0.8369
  912MOL0     C25744   1.707   9.979   5.876  0.0777  0.1903 -0.1154
  912MOL0     C25745   1.657   9.889   5.969  0.3110  0.6436 -0.7841
  912MOL0     C25746   1.594   9.764   5.917  0.0636  0.7100 -0.1914
  912MOL0     C25747   1.667   9.926   6.107 -0.4597 -0.5320 -0.3249
  912MOL0     C25748   1.629   9.839   6.223 -0.1122 -0.5694 -0.1321
  912MOL0     O25749   1.652   9.713   6.201  0.3454  0.0227  0.1982
  912MOL0     C25750   1.591   9.623   6.286 -0.1870 -0.1092  0.7506
  912MOL0     C25751   1.646   9.581   6.411  1.5020  0.5388  0.5378
  912MOL0     C25752   1.569   9.499   6.496 -0.2980 -1.0173 -0.7503
  912MOL0     C25753   1.451   9.443   6.448  0.1726  0.8169 -0.2969
  912MOL0     O25754   1.391   9.367   6.549 -0.6117 -1.3369  0.5873
  912MOL0     C25755   1.264   9.315   6.525  0.2922  0.1714 -0.2933
  912MOL0     C25756   1.153   9.404   6.565 -0.0051  0.4677 -0.1209
  912MOL0     C25757   1.015   9.346   6.523 -0.2618 -0.6964  0.3303
  912MOL0     C25758   0.891   9.437   6.557 -0.5026  0.3223 -0.1102
  912MOL0     C25759   0.907   9.583   6.507 -1.1759  0.6353 -0.3978
  912MOL0     C25760   0.762   9.643   6.516  0.2453  0.7550 -0.1129
  912MOL0     C25761   0.768   9.782   6.462 -0.1815  0.8630  0.1212
  912MOL0     C25762   0.626   9.830   6.448  0.3986  0.0526 -0.9203
  912MOL0    Cl25763   0.542   9.794   6.295 -0.1304 -0.1835  0.3719
  912MOL0     C25764   1.398   9.477   6.324 -0.5982 -0.1158 -0.2314
  912MOL0     C25765   1.466   9.567   6.244 -0.3918 -0.2526  0.3732
  912MOL0     O25766   1.571   9.875   6.326 -0.7434 -0.0640 -0.1362
  912MOL0     C25767   1.726  10.050   6.149  0.1527 -0.6087 -0.9476
  912MOL0     C25768   1.766  10.139   6.049  0.1659  0.3620  0.0729
  912MOL0     N25769   2.131  10.510   6.001 -0.8886 -0.7548 -0.1632
  912MOL0     N25770   2.207  10.588   6.073 -0.7478  0.6368  0.3288
  912MOL0     C25771   2.739  11.159   5.542  0.1835 -1.3572 -0.4026
  912MOL0     C25772   2.668  11.202   5.428 -0.0811  0.7909  0.2952
  912MOL0     C25773   2.646  11.339   4.965 -0.2246 -0.1299  0.2466
  912MOL0     C25774   2.509  11.368   4.979 -1.2920  0.8648 -0.2720
  912MOL0     C25775   2.436  11.395   4.861 -0.5150  1.4296  0.2600
  912MOL0     C25776   2.495  11.422   4.742  1.0258 -0.8704  0.0432
  912MOL0     O25777   2.415  11.456   4.631  0.7579  0.2094  0.9724
  912MOL0     C25778   2.295  11.531   4.664 -0.8800 -0.5893  1.2125
  912MOL0     C25779   2.168  11.444   4.652 -0.4542  0.5128  0.2685
  912MOL0     C25780   2.049  11.532   4.667 -0.6107  0.0676 -0.6181
  912MOL0     C25781   1.926  11.449   4.680 -0.7493 -0.3032  0.1728
  912MOL0     C25782   1.813  11.529   4.732  0.4231  0.6657  0.4089
  912MOL0     C25783   1.718  11.597   4.767  0.4677 -0.1384  0.7059
  912MOL0     C25784   2.629  11.394   4.728  1.2041 -0.0549  0.8772
  912MOL0     C25785   2.702  11.350   4.840 -0.9960 -0.7317  0.4742
  912MOL0     C25786   2.839  11.305   4.816 -0.2463  0.2625 -0.3005
  912MOL0     H25787   2.888  11.120   5.185 -1.0514  1.4162 -1.4926
  912MOL0     H25788   3.027  11.056   5.394 -0.9209 -1.8536  2.2062
  912MOL0     H25789   2.762  10.991   5.753  0.1892  0.4713 -0.2112
  912MOL0     H25790   2.846  11.123   5.809 -6.8989 -0.5827  0.6468
  912MOL0     H25791   2.989  10.850   5.828  1.0214  0.1926 -0.1150
  912MOL0     H25792   3.025  11.005   5.909  0.3447  0.2597 -0.9122
  912MOL0     H25793   2.888  10.948   6.087 -0.3680 -2.4291  0.7926
  912MOL0     H25794   2.763  10.988   5.983 -1.6117 -1.0384  2.4749
  912MOL0     H25795   2.706  10.760   5.934  0.7313 -2.5611 -0.7292
  912MOL0     H25796   2.859  10.697   5.990  1.3918  0.7085  3.9977
  912MOL0     H25797   2.662  10.832   6.188  1.0494  1.0789 -0.5955
  912MOL0     H25798   2.825  10.776   6.218 -0.0343  3.4126 -0.4355
  912MOL0     H25799   2.777  10.547   6.164 -1.9268 -2.5793 -1.4562
  912MOL0     H25800   2.667  10.617   6.291  3.7979 -2.5153  0.7366
  912MOL0     H25801   2.556  10.457   6.117 -0.9581  1.1733  3.1651
  912MOL0     H25802   2.617  10.575   5.987 -0.6004 -0.4832 -1.1783
  912MOL0     H25803   2.422  10.628   6.220  0.7919 -2.3000  0.3659
  912MOL0     H25804   2.442  10.729   6.075 -2.3914 -0.6564 -0.3735
  912MOL0     H25805   2.416  10.424   5.877  1.1071 -1.8033  3.5837
  912MOL0     H25806   2.236  10.329   5.744  0.6335  0.4480  0.6570
  912MOL0     H25807   2.077  10.422   5.748  1.3255  2.4325  1.4040
  912MOL0     H25808   2.150  10.192   5.944  1.0575  1.5743 -0.5089
  912MOL0     H25809   1.982  10.268   5.927  1.2099  0.1467  0.8177
  912MOL0     H25810   2.096  10.102   5.707  1.5160  1.5688  0.0497
  912MOL0     H25811   1.993  10.037   5.825 -0.5553 -0.3496 -0.4214
  912MOL0     H25812   1.903  10.272   5.661 -0.0937 -0.3653 -1.1568
  912MOL0     H25813   1.858  10.106   5.636 -0.3021 -0.4296  1.0871
  912MOL0     H25814   1.700   9.949   5.772 -0.4014 -0.8393  0.2038
  912MOL0     H25815   1.492   9.749   5.953  0.3806  0.3609  0.5765
  912MOL0     H25816   1.658   9.678   5.933 -0.6843  0.6068  2.6505
  912MOL0     H25817   1.586   9.774   5.808 -1.2423 -2.2397 -0.4595
  912MOL0     H25818   1.739   9.624   6.446  1.1307  0.1169  2.1766
  912MOL0     H25819   1.627   9.467   6.582  1.0817  0.1145 -1.2371
  912MOL0     H25820   1.246   9.262   6.430 -2.8915  0.1459  0.2336
  912MOL0     H25821   1.257   9.229   6.592  0.9319  0.0820 -0.3327
  912MOL0     H25822   1.167   9.426   6.672 -0.5666  0.2930 -0.0099
  912MOL0     H25823   1.172   9.496   6.510  0.9471  1.6569  2.0379
  912MOL0     H25824   1.007   9.252   6.580 -0.2968  0.6846  2.7533
  912MOL0     H25825   1.023   9.340   6.414 -0.0477  0.7382  0.2511
  912MOL0     H25826   0.886   9.445   6.666  1.1141  2.9063 -0.1406
  912MOL0     H25827   0.800   9.383   6.530 -0.2032 -1.6290  2.4203
  912MOL0     H25828   0.982   9.649   6.553 -0.2079  0.7491 -2.0401
  912MOL0     H25829   0.923   9.564   6.400 -4.3508 -0.1287 -0.8257
  912MOL0     H25830   0.719   9.652   6.616  2.3533  2.4507  0.7191
  912MOL0     H25831   0.692   9.582   6.457  0.5635  1.2069 -0.9843
  912MOL0     H25832   0.811   9.776   6.362  0.5579 -0.8458  0.5045
  912MOL0     H25833   0.819   9.846   6.534  1.7277  0.2135 -0.5976
  912MOL0     H25834   0.622   9.938   6.463 -2.6280 -0.2944  1.8192
  912MOL0     H25835   0.555   9.790   6.521 -0.4205  1.4416 -0.9311
  912MOL0     H25836   1.299   9.436   6.305 -1.0211  1.1549 -0.8487
  912MOL0     H25837   1.418   9.606   6.155  1.0804  4.2043  1.2635
  912MOL0     H25838   1.725  10.083   6.252 -0.3185  0.8999 -1.4143
  912MOL0     H25839   1.775  10.246   6.063 -2.2203  0.3531  2.5312
  912MOL0     H25840   2.704  11.174   5.643  3.8296  3.3771  0.4994
  912MOL0     H25841   2.564  11.233   5.431 -0.0298  0.8843  1.5389
  912MOL0     H25842   2.467  11.357   5.078  0.7805 -0.9730  0.4898
  912MOL0     H25843   2.332  11.410   4.886 -1.1646 -0.6667 -1.0277
  912MOL0     H25844   2.303  11.577   4.763  4.8000  1.0442  0.3403
  912MOL0     H25845   2.308  11.619   4.601  2.8798 -0.5511  1.7969
  912MOL0     H25846   2.171  11.354   4.715 -1.5892  0.2887  0.0153
  912MOL0     H25847   2.184  11.415   4.548  0.0219 -0.6278  0.6455
  912MOL0     H25848   2.059  11.595   4.756 -1.2745 -1.6525  0.7351
  912MOL0     H25849   2.047  11.594   4.577  0.8032  2.6752  1.0415
  912MOL0     H25850   1.926  11.365   4.750  0.6182 -1.7219 -1.4053
  912MOL0     H25851   1.890  11.406   4.586 -2.1918 -0.2878  0.6910
  912MOL0     H25852   1.640  11.656   4.811  4.0051  2.5925  4.0256
  912MOL0     H25853   2.679  11.387   4.631  0.8337  3.3255  0.3341
  912MOL0     H25854   2.919  11.367   4.857  2.0310 -0.0876 -3.7240
  912MOL0     H25855   2.837  11.204   4.857 -3.7066  0.0139 -0.7447
  912MOL0     H25856   2.875  11.297   4.713 -0.5501 -0.1286 -0.3806
  913MOL0     O25857   3.603   7.297   6.327  0.6407  0.5485  0.3220
  913MOL0     C25858   3.587   7.415   6.311 -0.4870 -0.3333  0.6219
  913MOL0     O25859   3.608   7.516   6.401  0.8512  0.3162  0.2815
  913MOL0     C25860   3.618   7.499   6.539 -0.5208 -0.4844  0.3644
  913MOL0     C25861   3.535   7.584   6.625 -0.3727  0.2020  1.0044
  913MOL0     C25862   3.534   7.556   6.760  0.6358 -0.3165 -0.5264
  913MOL0     C25863   3.599   7.446   6.813  0.8895 -0.1130 -0.8761
  913MOL0     O25864   3.577   7.414   6.938  0.7648 -0.2513  0.7004
  913MOL0     C25865   3.681   7.340   7.015  0.4386  0.0134  0.6105
  913MOL0     C25866   3.646   7.362   7.157 -0.2948  0.2123 -1.0125
  913MOL0     C25867   3.718   7.268   7.248 -0.0101 -0.5139 -0.3637
  913MOL0     C25868   3.868   7.309   7.262 -0.2459 -0.2744 -0.2551
  913MOL0     C25869   3.960   7.264   7.390  0.4318 -0.4870  0.2824
  913MOL0     C25870   3.998   7.121   7.382  0.0840  0.3177 -0.2116
  913MOL0     C25871   4.017   7.077   7.525  0.1103  0.0124  0.5759
  913MOL0     C25872   4.026   6.923   7.537 -0.8216 -0.0574 -0.3676
  913MOL0     N25873   4.003   6.884   7.678  0.2919  0.4471 -0.1710
  913MOL0     C25874   3.879   6.848   7.728 -0.2940  0.3010 -0.3448
  913MOL0     C25875   3.900   6.832   7.862  0.1866 -0.4752 -0.0350
  913MOL0     C25876   3.811   6.790   7.972 -0.6289 -0.3753 -0.9714
  913MOL0     C25877   3.754   6.651   7.955 -0.8073  0.3775 -0.4093
  913MOL0     C25878   3.698   6.592   8.083 -0.1257 -0.7538  1.0875
  913MOL0     C25879   3.639   6.453   8.050  0.5457 -0.7391  0.3266
  913MOL0     O25880   3.551   6.418   8.162 -0.0421  0.9754 -0.5824
  913MOL0     C25881   3.473   6.304   8.141  0.1546 -0.0525  0.6814
  913MOL0     C25882   3.367   6.299   8.230  0.3784  0.1530  0.1632
  913MOL0     C25883   3.264   6.208   8.217  0.8075 -0.8627 -0.0581
  913MOL0     C25884   3.158   6.215   8.333  0.1384  0.0514 -0.1491
  913MOL0     C25885   3.271   6.117   8.106 -0.9113  0.4016 -0.4219
  913MOL0     C25886   3.163   6.013   8.090 -0.0748  0.1500  0.1272
  913MOL0     O25887   3.039   6.043   8.107 -0.2556 -0.3992  1.5291
  913MOL0     C25888   2.930   5.959   8.056 -0.2697  0.0380 -0.1848
  913MOL0     C25889   2.934   5.884   7.938  0.7795 -0.1471 -0.1550
  913MOL0     C25890   2.812   5.821   7.909 -0.3793  0.2737  0.4355
  913MOL0     C25891   2.692   5.832   7.974  0.7099  0.2592  0.0374
  913MOL0     O25892   2.586   5.755   7.934 -0.6819  0.3140  0.6840
  913MOL0     C25893   2.606   5.614   7.911  0.4073 -0.5652  1.2657
  913MOL0     C25894   2.591   5.567   7.759 -0.2830  0.6057  0.4264
  913MOL0     C25895   2.608   5.415   7.740 -0.0435  0.0087 -0.1048
  913MOL0     C25896   2.664   5.367   7.607  0.7521 -0.0952 -0.5521
  913MOL0     C25897   2.663   5.220   7.616 -0.0877  0.5839  0.3711
  913MOL0     C25898   2.707   5.158   7.483  0.1560 -0.2296 -0.6722
  913MOL0     C25899   2.829   5.066   7.502  0.5101 -0.5552 -0.0914
  913MOL0     C25900   2.891   5.034   7.360  0.6636 -0.1676  0.3854
  913MOL0    Cl25901   2.774   4.935   7.257 -0.1551 -0.1274 -0.0398
  913MOL0     C25902   2.695   5.909   8.083  1.0105 -0.0814 -0.4134
  913MOL0     C25903   2.806   5.979   8.124  0.1976 -0.8674 -1.0052
  913MOL0     O25904   3.203   5.898   8.066 -0.3596 -0.1899  0.0390
  913MOL0     C25905   3.385   6.115   8.024  0.8724 -0.4208  0.2345
  913MOL0     C25906   3.482   6.220   8.026 -0.4217 -1.0287  0.1348
  913MOL0     N25907   4.028   6.870   7.889  0.1872  0.1267 -0.0767
  913MOL0     N25908   4.086   6.911   7.782 -0.3010  0.6431 -0.0587
  913MOL0     C25909   3.675   7.370   6.730  0.8481 -0.3209 -0.2798
  913MOL0     C25910   3.690   7.396   6.590 -0.2506  0.9217 -0.6003
  913MOL0     C25911   3.571   7.455   6.169  1.1517 -0.3903  0.0147
  913MOL0     C25912   3.543   7.343   6.088 -0.1066 -1.2743  1.1014
  913MOL0     C25913   3.513   7.372   5.953 -0.3091  0.1809 -0.2427
  913MOL0     C25914   3.510   7.499   5.897  0.1264 -0.3240  0.9581
  913MOL0     O25915   3.483   7.534   5.768 -0.1691 -0.4437  0.4934
  913MOL0     C25916   3.392   7.450   5.696  0.0979  0.2761 -0.6748
  913MOL0     C25917   3.247   7.504   5.694 -0.4818 -1.0066 -0.1451
  913MOL0     C25918   3.187   7.528   5.839 -0.3424 -0.6771 -0.5272
  913MOL0     C25919   3.041   7.550   5.817 -0.2102  0.6511 -0.6513
  913MOL0     C25920   2.980   7.573   5.953 -0.9659 -0.4120 -0.7821
  913MOL0     C25921   2.925   7.600   6.064 -0.0949  0.1202  1.2432
  913MOL0     C25922   3.521   7.597   5.986  0.4955  0.5328 -0.6276
  913MOL0     C25923   3.554   7.588   6.117 -0.9922 -0.3783 -0.3477
  913MOL0     C25924   3.568   7.717   6.198 -0.3757 -0.5298 -0.1281
  913MOL0     H25925   3.495   7.670   6.572 -0.4602 -1.9366 -2.7405
  913MOL0     H25926   3.494   7.633   6.825  2.1355  1.4902 -1.6314
  913MOL0     H25927   3.777   7.385   6.988  0.6571 -0.6445  0.2879
  913MOL0     H25928   3.687   7.233   6.994 -0.1430 -0.3872  2.3511
  913MOL0     H25929   3.682   7.465   7.166  0.3586 -0.0677 -0.2211
  913MOL0     H25930   3.538   7.368   7.178 -0.0715 -1.9735  1.2099
  913MOL0     H25931   3.670   7.266   7.346  2.3002 -0.6159  0.8432
  913MOL0     H25932   3.718   7.161   7.224  2.6411 -0.3334 -1.6311
  913MOL0     H25933   3.911   7.268   7.170  1.8587 -2.0570  1.4181
  913MOL0     H25934   3.866   7.419   7.266 -0.4216 -0.3034  0.5672
  913MOL0     H25935   3.907   7.289   7.483  0.7307  1.2579  0.0193
  913MOL0     H25936   4.053   7.319   7.403 -0.9254  1.1797  5.6520
  913MOL0     H25937   3.920   7.062   7.333  2.8879 -4.9468  0.9179
  913MOL0     H25938   4.094   7.120   7.328  1.9115  1.7235  2.7583
  913MOL0     H25939   3.922   7.095   7.577  0.3091  2.4283  0.2163
  913MOL0     H25940   4.099   7.135   7.567  0.1569 -0.1136  0.6619
  913MOL0     H25941   3.952   6.869   7.477  1.5559 -2.1753 -1.6190
  913MOL0     H25942   4.120   6.884   7.494 -0.1945 -1.5426  2.1639
  913MOL0     H25943   3.788   6.834   7.671 -0.7518  1.5481  0.0465
  913MOL0     H25944   3.727   6.860   7.970  0.5508  1.2146  0.9214
  913MOL0     H25945   3.865   6.815   8.064 -1.2090  0.4444 -0.8489
  913MOL0     H25946   3.678   6.644   7.876 -3.2682 -0.3106  1.8708
  913MOL0     H25947   3.839   6.592   7.920  2.4526  3.2183  2.0163
  913MOL0     H25948   3.778   6.582   8.157 -0.0845 -1.8926  0.8987
  913MOL0     H25949   3.628   6.662   8.131 -0.5460  0.3688 -1.0593
  913MOL0     H25950   3.575   6.476   7.964  0.0120  2.1338  1.3495
  913MOL0     H25951   3.720   6.388   8.017  1.0218  0.6171 -1.3577
  913MOL0     H25952   3.372   6.369   8.312 -1.6782  1.7306 -0.9633
  913MOL0     H25953   3.102   6.121   8.339  0.6804 -0.3398 -1.0328
  913MOL0     H25954   3.078   6.288   8.317 -0.6235 -0.3708  1.4802
  913MOL0     H25955   3.217   6.226   8.425  1.0461  0.4536 -0.7665
  913MOL0     H25956   3.024   5.836   7.900 -0.7067 -3.8222  0.5128
  913MOL0     H25957   2.813   5.756   7.822 -0.9581  0.5153  0.2472
  913MOL0     H25958   2.707   5.590   7.946  1.4559  2.5718  0.7238
  913MOL0     H25959   2.551   5.540   7.970 -1.5974 -4.3350 -4.4596
  913MOL0     H25960   2.494   5.598   7.717 -0.4896  0.4568  0.7892
  913MOL0     H25961   2.674   5.613   7.705 -0.7732  0.2689 -0.6523
  913MOL0     H25962   2.507   5.373   7.749 -0.0256 -0.2719 -1.0640
  913MOL0     H25963   2.668   5.371   7.820 -1.6344 -5.1349 -1.3322
  913MOL0     H25964   2.765   5.407   7.593  0.8922 -0.5985 -0.9918
  913MOL0     H25965   2.607   5.403   7.521  0.0435 -2.3254 -1.0648
  913MOL0     H25966   2.746   5.191   7.681  0.1264  0.5173  0.0721
  913MOL0     H25967   2.569   5.170   7.641  0.4168 -0.6541 -0.1504
  913MOL0     H25968   2.725   5.246   7.420 -1.8068  2.0596  1.7280
  913MOL0     H25969   2.624   5.095   7.450  0.6066 -2.8009  2.5461
  913MOL0     H25970   2.804   4.968   7.544 -0.8557  0.2400  1.0334
  913MOL0     H25971   2.911   5.119   7.551  0.6636  1.1764 -2.0604
  913MOL0     H25972   2.971   4.962   7.381  0.4745 -0.3117  0.6252
  913MOL0     H25973   2.936   5.117   7.306 -3.2604  2.9312  1.3516
  913MOL0     H25974   2.596   5.909   8.128 -0.4196 -0.5480 -3.3110
  913MOL0     H25975   2.809   6.054   8.203  0.2789 -0.3783 -1.4721
  913MOL0     H25976   3.406   6.031   7.959  2.3914  0.4677 -0.4582
  913MOL0     H25977   3.562   6.214   7.953  1.2126  1.0245  1.6056
  913MOL0     H25978   3.719   7.280   6.770 -1.4639 -0.7909  1.3985
  913MOL0     H25979   3.755   7.321   6.545 -0.9154 -0.5329  0.7751
  913MOL0     H25980   3.558   7.240   6.117  0.6388 -0.8180  2.4772
  913MOL0     H25981   3.509   7.283   5.891  2.3612 -2.9453  3.6185
  913MOL0     H25982   3.424   7.454   5.591  0.6820  0.8843 -0.4735
  913MOL0     H25983   3.393   7.346   5.730  0.2042 -0.4143 -2.6340
  913MOL0     H25984   3.187   7.427   5.644 -2.4617  1.1006 -1.1844
  913MOL0     H25985   3.231   7.597   5.639 -3.6410 -0.2102  1.8199
  913MOL0     H25986   3.194   7.433   5.892 -0.9754 -0.2627  0.3115
  913MOL0     H25987   3.237   7.606   5.897 -0.9796  3.2615 -4.7558
  913MOL0     H25988   2.982   7.469   5.773  1.0746 -0.9977  0.5251
  913MOL0     H25989   3.008   7.630   5.750 -1.8635 -0.3114 -1.0523
  913MOL0     H25990   2.849   7.624   6.135  1.6206  2.0166  2.5707
  913MOL0     H25991   3.505   7.699   5.953  2.6172  0.7454 -1.1893
  913MOL0     H25992   3.573   7.793   6.120  1.7830  0.6563  1.0981
  913MOL0     H25993   3.490   7.731   6.274 -1.1784  1.3103 -1.2197
  913MOL0     H25994   3.667   7.728   6.244 -0.4801  0.6579 -0.1736
  914MOL0     O25995   0.842   0.431   6.468  0.2327 -0.4695  0.2349
  914MOL0     C25996   0.773   0.330   6.460  0.8052 -0.5973 -0.2192
  914MOL0     O25997   0.631   0.329   6.440 -0.2178 -0.4030  0.1120
  914MOL0     C25998   0.561   0.435   6.495 -0.2927  0.0564 -0.3334
  914MOL0     C25999   0.501   0.429   6.630 -0.6596  0.2470 -0.4216
  914MOL0     C26000   0.407   0.526   6.672  1.0657 -0.6154  0.3088
  914MOL0     C26001   0.377   0.634   6.602  0.0570 -0.2444  0.0763
  914MOL0     O26002   0.295   0.722   6.660  0.0868 -0.7120  0.5197
  914MOL0     C26003   0.239   0.840   6.594 -0.8965  0.2794 -0.6999
  914MOL0     C26004   0.342   0.959   6.597  0.6836  0.2229 -0.4246
  914MOL0     C26005   0.298   1.087   6.678 -0.6663  0.5903 -0.0911
  914MOL0     C26006   0.188   1.165   6.617  0.1685 -0.2169 -0.7386
  914MOL0     C26007   0.216   1.316   6.583 -1.1326  0.4935 -0.0714
  914MOL0     C26008   0.252   1.393   6.713 -0.7528 -0.9750  0.3159
  914MOL0     C26009   0.292   1.534   6.677  0.3532  0.4231  0.5889
  914MOL0     C26010   0.339   1.615   6.801  0.1544 -0.4367  0.8524
  914MOL0     N26011   0.365   1.757   6.765 -0.6281  0.1667  0.7188
  914MOL0     C26012   0.266   1.852   6.776  0.5762 -0.4208 -0.0361
  914MOL0     C26013   0.332   1.972   6.776 -0.3802  0.1346 -0.2650
  914MOL0     C26014   0.266   2.105   6.785  0.7625  0.8444  0.0633
  914MOL0     C26015   0.291   2.188   6.914  0.4156  0.2026  0.7836
  914MOL0     C26016   0.199   2.132   7.022  0.3406 -0.9414 -0.8036
  914MOL0     C26017   0.234   2.149   7.178 -0.1574 -0.7941  0.3307
  914MOL0     O26018   0.355   2.085   7.206  0.4368  0.1941  0.0595
  914MOL0     C26019   0.366   1.948   7.191  0.8905 -0.6328  0.6210
  914MOL0     C26020   0.270   1.864   7.242 -0.3208  1.5130  0.1198
  914MOL0     C26021   0.292   1.722   7.235 -0.1162 -0.3919  0.7080
  914MOL0     C26022   0.188   1.636   7.308 -1.0205  0.5753 -0.1447
  914MOL0     C26023   0.406   1.674   7.169  0.6174  0.1918  0.2978
  914MOL0     C26024   0.447   1.529   7.161 -0.3395  0.0418 -0.3772
  914MOL0     O26025   0.349   1.443   7.120 -0.6613 -0.1453  1.0635
  914MOL0     C26026   0.376   1.308   7.103  0.3561 -1.4111  0.1273
  914MOL0     C26027   0.271   1.223   7.116  0.2618  0.3172  0.0452
  914MOL0     C26028   0.287   1.085   7.096  1.1044 -0.3222  0.7338
  914MOL0     C26029   0.403   1.021   7.048  0.2505 -0.4899 -0.8637
  914MOL0     O26030   0.401   0.891   7.007 -0.3173  0.6954 -0.4824
  914MOL0     C26031   0.506   0.810   7.068 -0.1495  0.4193 -0.0503
  914MOL0     C26032   0.463   0.669   7.065  0.1727 -1.0829  0.0272
  914MOL0     C26033   0.331   0.621   7.144 -0.0335  0.2314  0.8041
  914MOL0     C26034   0.352   0.596   7.292  0.5233  0.4259  0.3005
  914MOL0     C26035   0.223   0.559   7.372 -0.0520  0.7673 -0.3111
  914MOL0     C26036   0.161   0.429   7.324 -0.0512  0.3685  0.6710
  914MOL0     C26037   0.048   0.363   7.405  0.1316  0.3053  0.9943
  914MOL0     C26038   0.009   0.222   7.345  0.0405 -0.0804 -0.5598
  914MOL0    Cl26039   0.141   0.093   7.345  0.5648 -0.3053  0.0765
  914MOL0     C26040   0.518   1.105   7.048 -0.1213 -0.5628  0.6107
  914MOL0     C26041   0.497   1.246   7.072 -0.3313 -0.1615  0.0895
  914MOL0     O26042   0.568   1.504   7.184  0.0253 -0.0625  0.9831
  914MOL0     C26043   0.503   1.758   7.120  0.0285 -0.9994  0.1987
  914MOL0     C26044   0.480   1.899   7.133 -0.5191  0.0934  0.4203
  914MOL0     N26045   0.470   1.945   6.760  0.1938  0.1782 -0.0010
  914MOL0     N26046   0.485   1.822   6.747 -0.1257  0.6943 -0.7868
  914MOL0     C26047   0.423   0.647   6.473 -0.2917 -0.7443 -0.5071
  914MOL0     C26048   0.511   0.544   6.420  0.5586  0.3069 -0.7965
  914MOL0     C26049   0.833   0.196   6.470 -0.2246 -0.1256 -0.1231
  914MOL0     C26050   0.759   0.089   6.420  0.1272  0.4457  0.0750
  914MOL0     C26051   0.793  -0.040   6.453 -0.1494 -0.4118  0.6050
  914MOL0     C26052   0.914  -0.078   6.525  0.6327 -0.2921  0.6302
  914MOL0     O26053   0.936  -0.207   6.559  0.3553  0.0513 -0.1728
  914MOL0     C26054   1.022  -0.262   6.661  0.3488 -0.8782  0.1370
  914MOL0     C26055   1.158  -0.275   6.589  0.2230  1.2642  0.3830
  914MOL0     C26056   1.167  -0.379   6.480  0.4930 -0.1505  0.8632
  914MOL0     C26057   1.316  -0.422   6.449  0.2867  0.3903 -0.3669
  914MOL0     C26058   1.370  -0.319   6.367 -0.4035 -1.0823  0.0587
  914MOL0     C26059   1.416  -0.214   6.330  0.2981 -1.3601  1.7813
  914MOL0     C26060   0.986   0.028   6.571 -0.1922  0.4700 -1.1437
  914MOL0     C26061   0.952   0.169   6.550 -0.9919  0.0940 -0.0497
  914MOL0     C26062   1.029   0.282   6.620 -0.5249 -0.3540  0.4338
  914MOL0     H26063   0.526   0.339   6.685 -1.8067 -1.1867 -2.1172
  914MOL0     H26064   0.349   0.527   6.764  1.8560  0.1580  0.8096
  914MOL0     H26065   0.140   0.867   6.633 -1.7499 -1.4134 -1.6105
  914MOL0     H26066   0.212   0.814   6.491 -2.4982  0.9001 -0.4739
  914MOL0     H26067   0.438   0.919   6.632 -0.3912 -2.6713 -0.4397
  914MOL0     H26068   0.362   0.996   6.496  0.3509  2.1913  0.1950
  914MOL0     H26069   0.279   1.049   6.779 -0.0751 -1.1415 -0.5956
  914MOL0     H26070   0.383   1.155   6.692  1.2287 -1.6415 -0.2471
  914MOL0     H26071   0.151   1.113   6.528  3.3929 -1.5468 -1.4455
  914MOL0     H26072   0.103   1.170   6.685  0.1580 -1.2804 -0.6563
  914MOL0     H26073   0.126   1.363   6.542 -2.5352 -1.8816  0.1176
  914MOL0     H26074   0.291   1.317   6.503  0.1769 -0.3631  1.0922
  914MOL0     H26075   0.180   1.400   6.796  0.9043  2.6589  1.6479
  914MOL0     H26076   0.333   1.349   6.771 -2.7597 -1.0663  3.3155
  914MOL0     H26077   0.210   1.595   6.637  0.1332 -0.0160  0.3599
  914MOL0     H26078   0.365   1.530   6.595 -0.8942  0.7524 -0.5874
  914MOL0     H26079   0.256   1.606   6.871 -1.1978  0.8950 -0.4808
  914MOL0     H26080   0.430   1.569   6.842  0.3647 -0.7314  0.0901
  914MOL0     H26081   0.160   1.850   6.798  0.9429  1.8252  2.4660
  914MOL0     H26082   0.157   2.091   6.777  0.4292  1.0210  3.1411
  914MOL0     H26083   0.294   2.163   6.697 -1.9765 -0.4091 -1.7921
  914MOL0     H26084   0.395   2.177   6.945  0.2068  2.7902  2.7217
  914MOL0     H26085   0.270   2.293   6.892 -1.8849 -0.7373 -2.1373
  914MOL0     H26086   0.094   2.160   7.010  0.4101 -1.3173 -2.3991
  914MOL0     H26087   0.204   2.024   7.010 -1.8440 -1.3550  1.2329
  914MOL0     H26088   0.247   2.256   7.195  3.3361 -0.3195 -3.5270
  914MOL0     H26089   0.150   2.113   7.238 -0.8122 -0.8308 -0.5871
  914MOL0     H26090   0.189   1.920   7.289 -1.2615  0.0463  0.3176
  914MOL0     H26091   0.192   1.530   7.280  0.4112  0.1947  1.3617
  914MOL0     H26092   0.084   1.671   7.301 -0.3302  3.2376  1.5352
  914MOL0     H26093   0.200   1.636   7.417  0.6300  0.8861 -0.3056
  914MOL0     H26094   0.172   1.258   7.143  1.0572  0.9840  2.4323
  914MOL0     H26095   0.198   1.025   7.117 -1.3424  3.4093  2.0784
  914MOL0     H26096   0.592   0.819   7.001  0.2380 -1.8566  0.0532
  914MOL0     H26097   0.526   0.841   7.171  0.4370  0.8393 -0.2883
  914MOL0     H26098   0.437   0.647   6.961 -2.8079  1.6000  0.0406
  914MOL0     H26099   0.550   0.610   7.097  0.2056 -1.8633 -1.4022
  914MOL0     H26100   0.301   0.534   7.085  0.9226  0.8520 -0.6396
  914MOL0     H26101   0.258   0.703   7.135  1.7978  1.9156  0.5324
  914MOL0     H26102   0.403   0.682   7.334 -3.7718  1.6979  3.5476
  914MOL0     H26103   0.410   0.503   7.291 -1.5669 -0.9884 -2.0561
  914MOL0     H26104   0.233   0.558   7.481 -4.8458 -2.0808  0.4473
  914MOL0     H26105   0.146   0.634   7.351  0.8140  1.3410 -1.5258
  914MOL0     H26106   0.241   0.354   7.319 -1.5472 -1.2301 -3.8160
  914MOL0     H26107   0.114   0.454   7.229 -0.5306 -1.2366  0.4581
  914MOL0     H26108  -0.040   0.429   7.404 -0.2477 -0.1376  2.7473
  914MOL0     H26109   0.079   0.345   7.508  2.2663  0.6401  0.4685
  914MOL0     H26110  -0.027   0.227   7.242 -0.7265 -0.2965 -0.3050
  914MOL0     H26111  -0.074   0.184   7.405  2.3582 -1.1346  2.2126
  914MOL0     H26112   0.615   1.062   7.026 -1.2306 -2.7935 -0.3133
  914MOL0     H26113   0.593   1.297   7.070  0.8426 -1.8998  3.5326
  914MOL0     H26114   0.590   1.710   7.075 -0.8888 -0.4831 -2.2564
  914MOL0     H26115   0.557   1.971   7.109  0.0115 -1.4046 -3.0754
  914MOL0     H26116   0.396   0.729   6.407 -1.7321 -0.9361 -0.1843
  914MOL0     H26117   0.549   0.550   6.318  2.3072  0.3093 -0.1674
  914MOL0     H26118   0.679   0.115   6.352  0.2876  0.9690  0.0807
  914MOL0     H26119   0.723  -0.117   6.423  1.0913 -1.4460  0.2387
  914MOL0     H26120   1.029  -0.207   6.755  0.7625  0.2839 -0.5590
  914MOL0     H26121   0.974  -0.360   6.671  2.0814 -1.9409 -1.2277
  914MOL0     H26122   1.237  -0.293   6.662 -0.0862 -2.4644  0.0020
  914MOL0     H26123   1.178  -0.177   6.544 -1.8423  0.7472 -1.9060
  914MOL0     H26124   1.114  -0.468   6.516  1.5353 -1.1417 -0.0108
  914MOL0     H26125   1.120  -0.336   6.391  4.0414  2.5200  0.0615
  914MOL0     H26126   1.307  -0.519   6.400 -2.8742 -1.0538  2.6339
  914MOL0     H26127   1.376  -0.441   6.538 -1.5719  1.5368  1.2227
  914MOL0     H26128   1.455  -0.121   6.294  0.4790 -1.1592  2.4816
  914MOL0     H26129   1.064   0.005   6.643  2.3400  0.6587 -3.6228
  914MOL0     H26130   1.099   0.337   6.557 -1.0588 -0.1597  0.0041
  914MOL0     H26131   0.960   0.354   6.664  2.2267  2.8401 -0.1437
  914MOL0     H26132   1.080   0.246   6.710  0.2640  0.5250  0.3469
  915MOL0     O26133   7.083   8.687   6.795  0.2902 -0.2513 -0.5068
  915MOL0     C26134   7.121   8.788   6.861 -0.2186  0.0884  0.3743
  915MOL0     O26135   7.188   8.893   6.806  0.4850  0.4709 -0.4370
  915MOL0     C26136   7.199   8.896   6.667 -0.0099  0.3780 -0.5305
  915MOL0     C26137   7.159   9.011   6.598  0.2276 -0.3940 -1.2064
  915MOL0     C26138   7.169   9.033   6.464 -0.7346  0.1900  0.4761
  915MOL0     C26139   7.237   8.937   6.388 -0.6621  0.2265  0.0272
  915MOL0     O26140   7.236   8.962   6.258 -0.1258  0.9977  0.0592
  915MOL0     C26141   7.294   8.880   6.152  0.8034  0.5413  0.5495
  915MOL0     C26142   7.365   8.987   6.052  0.5356  0.6610 -0.5499
  915MOL0     C26143   7.497   9.018   6.123 -0.0296 -0.6172  0.2345
  915MOL0     C26144   7.559   9.145   6.062 -0.9107  0.6218  0.4263
  915MOL0     C26145   7.588   9.255   6.166 -0.1384 -0.2193  0.3767
  915MOL0     C26146   7.695   9.349   6.111 -0.7084 -0.9354  0.6586
  915MOL0     C26147   7.705   9.477   6.182 -0.7629 -0.2243 -0.4144
  915MOL0     C26148   7.831   9.556   6.129  0.1598  0.2008 -0.1550
  915MOL0     N26149   7.962   9.511   6.191  0.2457 -0.6624 -0.3660
  915MOL0     C26150   7.988   9.506   6.319 -0.2052 -0.3035  0.1485
  915MOL0     C26151   8.083   9.421   6.343 -0.6577 -0.2032  0.3087
  915MOL0     C26152   8.129   9.397   6.477  1.0889 -0.0330 -0.6597
  915MOL0     C26153   8.153   9.251   6.525  0.8912  1.1182  1.5841
  915MOL0     C26154   8.267   9.169   6.459  0.2604 -0.3981 -0.4465
  915MOL0     C26155   8.291   9.033   6.534 -0.3143 -0.5026  0.8759
  915MOL0     O26156   8.388   8.963   6.461 -0.2318  0.0136  0.4635
  915MOL0     C26157   8.522   8.976   6.506  0.0887 -0.4850 -0.8385
  915MOL0     C26158   8.564   9.063   6.606 -0.0839 -0.3353  0.3172
  915MOL0     C26159   8.692   9.067   6.653  1.3235 -0.3441 -0.8032
  915MOL0     C26160   8.717   9.146   6.777  0.2803 -0.1530  0.8386
  915MOL0     C26161   8.781   8.986   6.585 -0.5850 -0.1281  0.8031
  915MOL0     C26162   8.924   8.994   6.613 -0.6914 -0.5732 -0.4230
  915MOL0     O26163   8.979   9.117   6.589  0.2206 -0.3004  0.2576
  915MOL0     C26164   9.118   9.153   6.613  0.7838  0.0514 -0.4812
  915MOL0     C26165   9.209   9.179   6.510  0.2800  0.2866  0.0034
  915MOL0     C26166   9.336   9.233   6.525  0.8068 -0.1361 -0.1782
  915MOL0     C26167   9.390   9.248   6.649  1.0262 -0.5057  0.4089
  915MOL0     O26168   9.514   9.302   6.682 -0.3202  0.5992  0.1174
  915MOL0     C26169   9.600   9.349   6.573 -0.1566  0.3142 -0.1077
  915MOL0     C26170   9.750   9.350   6.606  0.5578  0.3635  0.2432
  915MOL0     C26171   9.829   9.328   6.484 -1.0353 -0.0816  0.7033
  915MOL0     C26172   9.981   9.319   6.518  0.6064  0.2054 -0.3005
  915MOL0     C26173  10.066   9.311   6.388 -0.6190  0.5513 -0.4766
  915MOL0     C26174  10.208   9.264   6.417 -0.4485  0.3351  0.1533
  915MOL0     C26175  10.300   9.370   6.460 -0.5789  0.5496  0.4437
  915MOL0     C26176  10.319   9.481   6.359 -0.6124 -0.3662 -0.1186
  915MOL0    Cl26177  10.286   9.425   6.190  0.1208  0.5424 -0.2316
  915MOL0     C26178   9.307   9.211   6.760  0.4177 -0.2432  0.7341
  915MOL0     C26179   9.173   9.153   6.737 -0.4779  0.2329 -0.5004
  915MOL0     O26180   8.992   8.901   6.661 -1.2295 -0.1740  0.4860
  915MOL0     C26181   8.741   8.888   6.506  0.0637  0.8765  0.2572
  915MOL0     C26182   8.607   8.876   6.469 -0.0867 -0.7904 -0.5543
  915MOL0     N26183   8.113   9.364   6.226 -0.5193 -0.3876 -0.2954
  915MOL0     N26184   8.043   9.428   6.130 -0.5389  0.0124  0.5508
  915MOL0     C26185   7.291   8.827   6.459 -0.2720 -0.2000 -0.2711
  915MOL0     C26186   7.264   8.802   6.591  1.1417 -0.4637  0.2600
  915MOL0     C26187   7.061   8.802   6.991  0.1776 -0.2996 -0.1053
  915MOL0     C26188   7.007   8.929   7.012 -0.1678  1.3485 -0.6845
  915MOL0     C26189   6.961   8.954   7.140  0.1329 -0.1231 -0.3455
  915MOL0     C26190   6.978   8.860   7.246  0.0384  1.3164 -0.1727
  915MOL0     O26191   6.938   8.901   7.367 -0.1660  0.2529  1.2837
  915MOL0     C26192   6.965   8.823   7.478 -0.3300  0.0532 -0.6243
  915MOL0     C26193   6.905   8.883   7.609 -0.7706 -0.5309  0.1857
  915MOL0     C26194   6.768   8.962   7.592 -0.2003 -0.5884  0.5852
  915MOL0     C26195   6.696   8.965   7.734  0.7140 -0.0178 -0.2686
  915MOL0     C26196   6.752   9.051   7.841  0.8988 -1.2176  0.4247
  915MOL0     C26197   6.789   9.130   7.924 -0.1694  0.0497 -0.1884
  915MOL0     C26198   7.029   8.729   7.219 -0.1431 -1.0030 -0.0521
  915MOL0     C26199   7.072   8.702   7.095 -0.7076 -0.1120  0.3821
  915MOL0     C26200   7.145   8.569   7.072 -0.1825  0.6182 -0.0126
  915MOL0     H26201   7.098   9.079   6.656  0.8130  0.9713 -2.1295
  915MOL0     H26202   7.121   9.120   6.421  3.4975  2.2808 -0.4327
  915MOL0     H26203   7.211   8.824   6.106  0.6294 -2.2817  3.9240
  915MOL0     H26204   7.376   8.818   6.189  1.5621  0.5942 -0.9438
  915MOL0     H26205   7.386   8.947   5.953  0.7231  1.9983 -1.0746
  915MOL0     H26206   7.306   9.080   6.047  0.9222  1.3604  3.6803
  915MOL0     H26207   7.465   9.035   6.226 -0.1206  1.9854 -0.1454
  915MOL0     H26208   7.561   8.930   6.115 -1.1269 -1.3304 -1.1612
  915MOL0     H26209   7.657   9.114   6.025 -1.9009  1.8965 -3.8693
  915MOL0     H26210   7.492   9.175   5.981 -0.7888  3.0575  1.1360
  915MOL0     H26211   7.619   9.201   6.256 -1.0934 -2.7249 -0.7056
  915MOL0     H26212   7.491   9.301   6.184 -0.6989  0.2343 -3.1653
  915MOL0     H26213   7.795   9.304   6.116 -1.0700 -2.0128 -1.0513
  915MOL0     H26214   7.660   9.378   6.011 -0.0751  1.5141  1.0610
  915MOL0     H26215   7.720   9.459   6.289 -2.0963  1.5173  0.1242
  915MOL0     H26216   7.621   9.543   6.158 -1.6147 -1.1705 -0.0487
  915MOL0     H26217   7.832   9.535   6.021  0.2421 -1.5187  0.1537
  915MOL0     H26218   7.811   9.663   6.143  2.1367  0.4100  1.5626
  915MOL0     H26219   7.949   9.570   6.398  1.0466 -1.7438  2.0461
  915MOL0     H26220   8.055   9.442   6.543  0.4685  0.4953 -1.6801
  915MOL0     H26221   8.222   9.447   6.505 -0.1566  0.8576  2.1808
  915MOL0     H26222   8.172   9.255   6.633  1.2206  0.8256  1.5365
  915MOL0     H26223   8.058   9.201   6.502  1.3707  1.7042 -2.3676
  915MOL0     H26224   8.244   9.160   6.352 -0.1719  0.6066 -0.4499
  915MOL0     H26225   8.353   9.236   6.469  0.6231 -0.9822  0.4243
  915MOL0     H26226   8.313   9.066   6.636  1.8677  1.8346 -0.2395
  915MOL0     H26227   8.196   8.978   6.533 -0.9814  0.5999 -0.7576
  915MOL0     H26228   8.496   9.125   6.664 -2.3541 -1.9277 -0.4518
  915MOL0     H26229   8.704   9.254   6.766  3.6278  0.3281  0.6405
  915MOL0     H26230   8.817   9.125   6.817  1.9173  0.7105 -2.4373
  915MOL0     H26231   8.648   9.110   6.854  0.7455 -0.8635  0.9419
  915MOL0     H26232   9.168   9.171   6.410 -0.4447 -0.2297  0.3348
  915MOL0     H26233   9.388   9.271   6.437  1.5073 -0.6075  0.0250
  915MOL0     H26234   9.588   9.303   6.475  1.0742 -1.9394  0.7174
  915MOL0     H26235   9.565   9.450   6.551 -2.6623 -0.5309 -0.3215
  915MOL0     H26236   9.772   9.446   6.653 -2.6203  2.2730 -1.7458
  915MOL0     H26237   9.776   9.269   6.674 -0.9004 -0.7744 -0.4904
  915MOL0     H26238   9.814   9.412   6.416 -1.9397 -2.5832 -2.3738
  915MOL0     H26239   9.802   9.237   6.431  0.5059 -0.6025  0.7439
  915MOL0     H26240  10.006   9.230   6.578  0.4380  1.4925  1.7918
  915MOL0     H26241  10.009   9.398   6.588  0.3045 -2.6070  3.3081
  915MOL0     H26242  10.026   9.233   6.323  0.7874 -1.4192  0.8972
  915MOL0     H26243  10.064   9.406   6.334 -0.4063 -0.7061 -2.8683
  915MOL0     H26244  10.250   9.222   6.325  0.3764 -0.0517  0.6913
  915MOL0     H26245  10.205   9.177   6.483 -0.4118 -0.4037 -0.7940
  915MOL0     H26246  10.395   9.315   6.462  0.0225  1.4631 -1.0806
  915MOL0     H26247  10.267   9.410   6.556 -0.7256 -0.3208  0.7604
  915MOL0     H26248  10.418   9.528   6.364 -0.2164 -1.2117  0.1839
  915MOL0     H26249  10.240   9.555   6.379 -1.5866 -0.9997 -1.4951
  915MOL0     H26250   9.347   9.224   6.860 -0.6963 -0.4018  1.2135
  915MOL0     H26251   9.131   9.112   6.829  0.6737  0.0880 -0.0270
  915MOL0     H26252   8.812   8.817   6.464 -0.0217  1.4344 -0.8703
  915MOL0     H26253   8.567   8.789   6.419  0.3887 -1.3442  0.0018
  915MOL0     H26254   7.356   8.758   6.407  0.1594 -0.0545  0.0648
  915MOL0     H26255   7.280   8.701   6.628 -0.1735 -0.3669  1.1620
  915MOL0     H26256   6.987   9.002   6.934 -2.1065 -0.9719 -2.5223
  915MOL0     H26257   6.917   9.051   7.159 -0.9066 -0.5222 -0.5804
  915MOL0     H26258   6.920   8.724   7.467  1.8288 -1.1398  0.6041
  915MOL0     H26259   7.072   8.802   7.483 -0.4973 -1.3259 -2.0693
  915MOL0     H26260   6.982   8.957   7.633 -0.3053 -0.1271 -2.2867
  915MOL0     H26261   6.901   8.813   7.693  0.5001  0.3043  0.9884
  915MOL0     H26262   6.785   9.063   7.554 -0.2049 -0.5996  0.5509
  915MOL0     H26263   6.697   8.917   7.521 -1.7241  0.6060  1.2933
  915MOL0     H26264   6.681   8.865   7.776 -0.9138 -0.8001 -2.5554
  915MOL0     H26265   6.598   9.009   7.719  0.4252  0.2732  2.0320
  915MOL0     H26266   6.846   9.194   7.988 -0.5080  0.0683  0.0944
  915MOL0     H26267   7.045   8.647   7.288 -0.3742 -4.2065 -3.4371
  915MOL0     H26268   7.190   8.554   6.973 -0.6823  3.6644 -0.7934
  915MOL0     H26269   7.232   8.554   7.136  1.0792 -1.8742 -2.0994
  915MOL0     H26270   7.070   8.493   7.097  0.2120  1.1438  3.2059
  916MOL0     O26271   9.157   0.507   8.298  0.2710 -0.0613  0.2193
  916MOL0     C26272   9.212   0.613   8.291  0.1736 -0.4638  0.4894
  916MOL0     O26273   9.147   0.733   8.314  0.6235 -0.1121 -0.5419
  916MOL0     C26274   9.002   0.735   8.296 -0.2766 -0.0872 -1.3843
  916MOL0     C26275   8.924   0.821   8.384 -0.0372  0.2930  1.5154
  916MOL0     C26276   8.783   0.827   8.369  0.2260 -0.2549 -0.7095
  916MOL0     C26277   8.724   0.757   8.263 -0.3733  1.4697  0.3834
  916MOL0     O26278   8.592   0.752   8.229 -0.3800 -0.5899 -0.7027
  916MOL0     C26279   8.500   0.822   8.320 -0.7169  0.0832  0.6739
  916MOL0     C26280   8.355   0.812   8.256 -0.0048  0.1917  0.0554
  916MOL0     C26281   8.256   0.893   8.339 -0.3198 -0.4363  0.4770
  916MOL0     C26282   8.281   1.047   8.346 -0.2325 -0.1549 -0.8191
  916MOL0     C26283   8.178   1.126   8.427  0.0297 -0.3277  0.8080
  916MOL0     C26284   8.038   1.130   8.364  0.2204  0.3331 -0.6119
  916MOL0     C26285   7.991   1.282   8.344 -0.9369  0.9854  0.4113
  916MOL0     C26286   7.936   1.336   8.477  1.0214 -0.4942  0.7121
  916MOL0     N26287   7.805   1.261   8.503 -0.4671 -0.2917  0.2554
  916MOL0     C26288   7.786   1.187   8.611  0.0347  0.4368  0.0603
  916MOL0     C26289   7.659   1.143   8.600  0.4491 -0.5166 -0.5013
  916MOL0     C26290   7.594   1.043   8.689  0.2327  0.4117  0.7333
  916MOL0     C26291   7.449   1.069   8.731 -0.7126  0.4200  0.5280
  916MOL0     C26292   7.357   0.998   8.649  0.8346 -0.0509  0.2553
  916MOL0     C26293   7.211   1.022   8.703  0.2960  0.2822 -0.3941
  916MOL0     O26294   7.167   1.149   8.647  0.1402  0.5155  0.9038
  916MOL0     C26295   7.096   1.228   8.731 -0.2425  0.0159  1.0059
  916MOL0     C26296   7.114   1.364   8.746  0.1739  0.4610 -0.7937
  916MOL0     C26297   7.026   1.439   8.828 -0.4320 -0.3251  0.6488
  916MOL0     C26298   7.058   1.585   8.822 -0.5300  0.3366 -0.5907
  916MOL0     C26299   6.920   1.381   8.904 -0.5384 -0.2052 -0.8753
  916MOL0     C26300   6.840   1.455   9.004  0.2623  0.0426 -0.2074
  916MOL0     O26301   6.710   1.416   9.030 -0.3851 -0.9158 -0.1864
  916MOL0     C26302   6.640   1.481   9.126  0.5820  0.2328 -0.9635
  916MOL0     C26303   6.547   1.583   9.101 -0.4337 -0.0828 -0.9428
  916MOL0     C26304   6.470   1.640   9.204  0.0162 -1.2208  0.9133
  916MOL0     C26305   6.479   1.586   9.332 -0.0142  0.1675 -0.9909
  916MOL0     O26306   6.421   1.627   9.449 -0.4089 -0.0428 -0.9068
  916MOL0     C26307   6.371   1.759   9.456 -0.2911 -0.7753  0.2742
  916MOL0     C26308   6.342   1.803   9.603 -1.5711 -0.0552  0.1327
  916MOL0     C26309   6.233   1.911   9.617  0.1440  0.3380 -0.0035
  916MOL0     C26310   6.158   1.914   9.749  0.5553  0.7373 -0.4341
  916MOL0     C26311   6.043   2.012   9.744 -1.1076 -0.5165 -0.7539
  916MOL0     C26312   5.928   1.972   9.658  1.1964  0.0053  0.5288
  916MOL0     C26313   5.805   2.060   9.683  0.3876 -0.0441  0.3801
  916MOL0     C26314   5.672   2.014   9.615 -0.5122 -0.3859  0.3141
  916MOL0    Cl26315   5.666   2.016   9.430 -0.1572  0.3687 -0.2640
  916MOL0     C26316   6.573   1.491   9.357  0.5670  0.6515  1.0035
  916MOL0     C26317   6.655   1.433   9.257  0.3406  0.1056  0.3071
  916MOL0     O26318   6.900   1.554   9.049 -0.1887 -0.4449 -0.5362
  916MOL0     C26319   6.897   1.239   8.880  0.1857 -0.8445 -0.3927
  916MOL0     C26320   6.989   1.173   8.801  0.4305  1.2587  0.0226
  916MOL0     N26321   7.595   1.205   8.489  0.2627  0.2477 -0.3515
  916MOL0     N26322   7.693   1.276   8.430  0.6201 -0.1211  0.2460
  916MOL0     C26323   8.802   0.680   8.179 -0.0288  0.2481  0.3511
  916MOL0     C26324   8.936   0.666   8.192  0.9110 -0.5783 -0.1380
  916MOL0     C26325   9.353   0.622   8.247  0.7796  0.7086 -0.5988
  916MOL0     C26326   9.413   0.507   8.192 -0.2412 -0.4825 -0.1097
  916MOL0     C26327   9.550   0.521   8.146 -0.5214  0.2004 -0.4688
  916MOL0     C26328   9.618   0.635   8.156  0.7956 -0.5548  0.0553
  916MOL0     O26329   9.755   0.647   8.131 -1.2808 -0.1146 -0.0035
  916MOL0     C26330   9.833   0.544   8.073 -0.0149  0.6917  0.6250
  916MOL0     C26331   9.891   0.448   8.190  0.2783 -0.4365  0.3424
  916MOL0     C26332  10.040   0.447   8.167  0.4047  0.0368 -0.0189
  916MOL0     C26333  10.081   0.369   8.042  0.1546  0.7542  1.0530
  916MOL0     C26334  10.229   0.349   8.031 -0.0174 -0.5664  0.1689
  916MOL0     C26335  10.348   0.326   8.023  0.4573 -0.0383  0.6701
  916MOL0     C26336   9.560   0.739   8.216  0.3261  0.4722 -0.7171
  916MOL0     C26337   9.432   0.740   8.268 -0.0097  0.1471 -0.4483
  916MOL0     C26338   9.386   0.854   8.358 -0.2261  0.1484  0.0614
  916MOL0     H26339   8.986   0.876   8.455 -0.8302  2.9488  0.3085
  916MOL0     H26340   8.725   0.884   8.441  2.4897 -0.8750  1.7921
  916MOL0     H26341   8.528   0.928   8.325 -1.1706  0.1773  1.2440
  916MOL0     H26342   8.491   0.775   8.418 -1.7034 -0.6540  0.2460
  916MOL0     H26343   8.350   0.848   8.153  1.2723  1.1897  0.3133
  916MOL0     H26344   8.333   0.705   8.263 -0.6867  0.2960 -0.3996
  916MOL0     H26345   8.162   0.872   8.288 -0.0874 -2.9444  0.9586
  916MOL0     H26346   8.269   0.842   8.435  2.5387 -2.0315 -0.6186
  916MOL0     H26347   8.379   1.069   8.391 -1.5329 -1.0350  2.8276
  916MOL0     H26348   8.299   1.082   8.244 -0.0172 -2.7891 -1.7662
  916MOL0     H26349   8.212   1.228   8.444  3.0278 -1.5737  3.2524
  916MOL0     H26350   8.162   1.070   8.520  0.2190 -0.6473  0.6512
  916MOL0     H26351   8.031   1.080   8.267  1.9643  0.4779 -0.8463
  916MOL0     H26352   7.969   1.062   8.416  3.0084 -2.5845 -0.4164
  916MOL0     H26353   7.913   1.283   8.267  1.5435 -0.6910 -2.3017
  916MOL0     H26354   8.082   1.332   8.310  0.6367 -2.1831 -0.4063
  916MOL0     H26355   8.000   1.315   8.563 -0.4149  1.8789  2.4658
  916MOL0     H26356   7.901   1.439   8.478 -3.4898 -1.7972  0.1484
  916MOL0     H26357   7.854   1.171   8.694 -3.2165  1.8132  3.2479
  916MOL0     H26358   7.652   1.046   8.782  0.0084  1.9021  0.8540
  916MOL0     H26359   7.588   0.945   8.641 -1.9746  0.3171  1.0976
  916MOL0     H26360   7.435   1.040   8.836  0.2546  0.1861  0.5974
  916MOL0     H26361   7.437   1.177   8.723 -4.6657  0.2685  2.1745
  916MOL0     H26362   7.368   1.027   8.544  3.1400 -0.8515  0.2096
  916MOL0     H26363   7.377   0.890   8.650 -0.8555 -0.4784 -2.2250
  916MOL0     H26364   7.139   0.960   8.649 -0.0581  1.9896 -2.0052
  916MOL0     H26365   7.194   1.012   8.810 -2.4699 -0.4446 -0.8287
  916MOL0     H26366   7.197   1.401   8.688  0.4998  1.2137  0.1267
  916MOL0     H26367   6.978   1.645   8.866  0.1664 -0.9261  2.7099
  916MOL0     H26368   7.075   1.632   8.725 -2.0138  2.1087 -0.0448
  916MOL0     H26369   7.145   1.588   8.889 -0.0631  0.4006 -1.1951
  916MOL0     H26370   6.526   1.629   9.005 -1.9211  2.7891  0.6268
  916MOL0     H26371   6.402   1.724   9.190  1.3324  0.2808  2.9655
  916MOL0     H26372   6.443   1.831   9.416  0.7033 -2.4451 -1.1021
  916MOL0     H26373   6.278   1.776   9.401  1.0969  1.4949 -1.5507
  916MOL0     H26374   6.320   1.713   9.662  0.0890 -1.0482 -0.6987
  916MOL0     H26375   6.442   1.836   9.630 -0.3715 -3.0181 -0.2980
  916MOL0     H26376   6.165   1.889   9.534  0.5839  0.5364 -0.4235
  916MOL0     H26377   6.281   2.007   9.596  1.6601  0.9341  4.9118
  916MOL0     H26378   6.222   1.945   9.832  2.0035  1.6111 -1.8153
  916MOL0     H26379   6.122   1.814   9.776 -2.1345  2.1182  1.5123
  916MOL0     H26380   6.012   2.012   9.849 -0.6005 -0.0874 -0.6004
  916MOL0     H26381   6.083   2.112   9.725  4.8037 -2.5549 -0.9024
  916MOL0     H26382   5.901   1.867   9.677 -4.9844  1.6306  3.3596
  916MOL0     H26383   5.966   1.977   9.556 -1.8452  2.0884 -0.6233
  916MOL0     H26384   5.831   2.155   9.634 -1.6185  0.8261  0.8774
  916MOL0     H26385   5.792   2.088   9.788  0.9181  1.0084  0.1818
  916MOL0     H26386   5.587   2.069   9.656 -0.3179 -1.4219  2.2337
  916MOL0     H26387   5.665   1.910   9.648 -1.8792 -0.7280 -0.9252
  916MOL0     H26388   6.581   1.444   9.454 -0.7121 -1.1296  0.3052
  916MOL0     H26389   6.724   1.358   9.293  3.3725  3.0661  1.1214
  916MOL0     H26390   6.836   1.175   8.943 -0.5676 -0.5627 -0.8280
  916MOL0     H26391   6.976   1.066   8.812  0.7654  1.3265  1.2072
  916MOL0     H26392   8.753   0.639   8.091  3.3613 -0.8247 -1.2034
  916MOL0     H26393   8.986   0.602   8.121  2.4810  0.1337  0.2630
  916MOL0     H26394   9.366   0.411   8.172 -0.8106 -0.3533  0.5689
  916MOL0     H26395   9.604   0.434   8.111  0.2743 -0.2841  1.8070
  916MOL0     H26396   9.768   0.487   8.006 -1.8549 -0.6564  3.3408
  916MOL0     H26397   9.917   0.587   8.017  0.5263 -2.2126 -0.9726
  916MOL0     H26398   9.858   0.344   8.187  0.2239 -0.5249  2.4577
  916MOL0     H26399   9.866   0.494   8.286 -2.6504  2.2534 -1.5296
  916MOL0     H26400  10.081   0.548   8.160 -0.8775  0.4917 -1.8624
  916MOL0     H26401  10.069   0.386   8.253  0.0872 -3.8817 -2.4512
  916MOL0     H26402  10.050   0.431   7.958  0.4947 -2.3064 -1.5347
  916MOL0     H26403  10.037   0.269   8.040  2.2260 -0.2115  1.3264
  916MOL0     H26404  10.451   0.302   8.011  0.0060 -1.1685 -1.3518
  916MOL0     H26405   9.638   0.809   8.244  1.7422 -0.4235 -2.2347
  916MOL0     H26406   9.326   0.923   8.299 -0.8099 -0.4803 -0.0911
  916MOL0     H26407   9.323   0.813   8.438 -2.2746 -3.4360 -3.0225
  916MOL0     H26408   9.469   0.917   8.392 -0.7069  1.2440 -0.7589
  917MOL0     O26409   1.143   8.213   2.247  0.4876 -0.6891  0.1461
  917MOL0     C26410   1.100   8.173   2.352  0.3569  0.1493 -0.8392
  917MOL0     O26411   1.030   8.243   2.436  0.3114  1.0305  0.3559
  917MOL0     C26412   1.014   8.377   2.419  0.5283  1.6191  0.1780
  917MOL0     C26413   1.099   8.460   2.497 -0.4593  0.5139 -0.6249
  917MOL0     C26414   1.064   8.597   2.528  0.1626  0.3929 -0.1453
  917MOL0     C26415   0.936   8.642   2.490  0.2284 -0.1995  0.2405
  917MOL0     O26416   0.889   8.760   2.557 -0.6393  1.2882 -0.1157
  917MOL0     C26417   0.922   8.880   2.487 -0.7850  0.4429  0.0635
  917MOL0     C26418   0.805   8.968   2.465  0.6506 -0.5003 -0.6270
  917MOL0     C26419   0.741   9.003   2.598  0.2832 -0.7239  0.1570
  917MOL0     C26420   0.644   9.126   2.589 -0.6296 -0.0043 -0.0403
  917MOL0     C26421   0.526   9.110   2.685 -0.8593  0.1809  0.5886
  917MOL0     C26422   0.562   9.080   2.828 -0.8649  0.4502 -0.0874
  917MOL0     C26423   0.477   9.135   2.947  0.8556 -0.8920  0.8741
  917MOL0     C26424   0.491   9.053   3.079  0.6631  0.7013  0.2775
  917MOL0     N26425   0.402   9.117   3.179  0.7512 -0.0327  0.3663
  917MOL0     C26426   0.433   9.133   3.312 -0.6781 -0.4794  0.7951
  917MOL0     C26427   0.319   9.180   3.359 -0.0518  0.5832  0.0212
  917MOL0     C26428   0.299   9.213   3.510  0.0453  0.2223  0.7420
  917MOL0     C26429   0.300   9.102   3.610 -0.5389  0.6991  0.8699
  917MOL0     C26430   0.160   9.078   3.664 -0.3639  0.1351  0.3813
  917MOL0     C26431   0.160   8.956   3.756  1.1213 -1.1999 -0.4357
  917MOL0     O26432   0.020   8.938   3.807  0.2059  0.4625  0.1738
  917MOL0     C26433  -0.069   8.855   3.751  0.1682  0.0819  1.3968
  917MOL0     C26434  -0.066   8.813   3.617 -0.0053 -0.3033  0.0754
  917MOL0     C26435  -0.155   8.715   3.570 -0.1613 -0.7795 -0.3526
  917MOL0     C26436  -0.135   8.654   3.432  0.4389  0.1954  1.0111
  917MOL0     C26437  -0.272   8.683   3.649 -0.6843  0.5508  0.0099
  917MOL0     C26438  -0.363   8.576   3.616  0.8102 -0.2210 -1.2170
  917MOL0     O26439  -0.491   8.603   3.657  0.7807 -1.0158  0.3103
  917MOL0     C26440  -0.589   8.538   3.586  0.5299  0.6914  0.4807
  917MOL0     C26441  -0.604   8.540   3.445  0.0549 -0.4623  0.4521
  917MOL0     C26442  -0.710   8.462   3.375  0.2950  0.3060 -0.6168
  917MOL0     C26443  -0.789   8.383   3.457 -0.3847  0.2683 -0.7751
  917MOL0     O26444  -0.893   8.306   3.417  0.3019 -0.0184 -0.3920
  917MOL0     C26445  -0.909   8.282   3.280  0.1326 -0.3490  0.1344
  917MOL0     C26446  -1.042   8.204   3.272 -0.5614  0.6371  0.4405
  917MOL0     C26447  -1.056   8.066   3.333 -0.0229  0.0388 -0.3950
  917MOL0     C26448  -1.189   8.042   3.397 -0.3636 -0.7167 -0.4434
  917MOL0     C26449  -1.219   7.898   3.407  1.5555  0.6270 -0.7022
  917MOL0     C26450  -1.147   7.814   3.504  0.3328  0.4211 -0.7113
  917MOL0     C26451  -1.170   7.662   3.484  0.7130 -0.4110  0.7971
  917MOL0     C26452  -1.049   7.601   3.415  0.8495  0.4448  0.0690
  917MOL0    Cl26453  -1.024   7.675   3.260 -0.3116  0.3998 -0.0318
  917MOL0     C26454  -0.770   8.381   3.601  0.2315 -0.6107  0.1295
  917MOL0     C26455  -0.675   8.463   3.659  0.4952  0.0523 -0.4044
  917MOL0     O26456  -0.327   8.478   3.563 -0.1953  0.1315  0.2649
  917MOL0     C26457  -0.285   8.749   3.769 -0.2321  0.3536  0.9505
  917MOL0     C26458  -0.193   8.834   3.821  0.4637 -0.8101 -0.1193
  917MOL0     N26459   0.210   9.173   3.266 -0.1335  0.6983  0.8870
  917MOL0     N26460   0.269   9.128   3.157 -0.1519  1.5558  0.2146
  917MOL0     C26461   0.859   8.572   2.401  1.3209 -0.5558 -0.3001
  917MOL0     C26462   0.895   8.442   2.363 -0.5485 -0.7034  0.4339
  917MOL0     C26463   1.111   8.026   2.395 -0.3602 -0.6756  1.6949
  917MOL0     C26464   1.032   7.977   2.493 -0.3603  0.2812  0.5651
  917MOL0     C26465   1.046   7.849   2.551 -0.6801  0.0912  0.2236
  917MOL0     C26466   1.143   7.760   2.486 -0.0176 -0.1090  0.1511
  917MOL0     O26467   1.158   7.629   2.520  0.5135 -0.2032 -0.9262
  917MOL0     C26468   1.038   7.557   2.527  0.9075 -0.4751  0.8471
  917MOL0     C26469   1.050   7.429   2.441  0.2851  0.7908 -0.4713
  917MOL0     C26470   1.059   7.443   2.297 -0.1590  0.3639 -0.1901
  917MOL0     C26471   0.920   7.509   2.247 -0.2713 -0.7829  0.6296
  917MOL0     C26472   0.898   7.472   2.110 -0.1827  0.7862 -0.0554
  917MOL0     C26473   0.876   7.417   2.006 -0.2974 -0.0716  0.1720
  917MOL0     C26474   1.228   7.804   2.388 -0.3330 -0.3779  0.1152
  917MOL0     C26475   1.210   7.938   2.338  0.4215  1.2514  0.7616
  917MOL0     C26476   1.307   7.981   2.222 -0.1494 -0.9153 -0.5584
  917MOL0     H26477   1.185   8.419   2.548 -2.0459 -4.4107 -1.4151
  917MOL0     H26478   1.117   8.651   2.606  1.3689 -2.3504  1.0441
  917MOL0     H26479   0.981   8.859   2.397  2.9724 -2.2531  2.8742
  917MOL0     H26480   0.996   8.929   2.550  1.1716  1.2085 -2.6374
  917MOL0     H26481   0.830   9.054   2.402 -3.3497 -0.3225 -2.2921
  917MOL0     H26482   0.735   8.905   2.410 -0.4114  1.4082 -1.5726
  917MOL0     H26483   0.676   8.922   2.633 -0.5079  0.9188  2.7217
  917MOL0     H26484   0.813   9.015   2.679 -1.2327 -1.1486  1.6309
  917MOL0     H26485   0.697   9.213   2.628 -2.6766  0.6382  1.4834
  917MOL0     H26486   0.623   9.128   2.482  3.9031 -1.3267 -1.1743
  917MOL0     H26487   0.465   9.028   2.647 -0.2257 -0.5752  1.1664
  917MOL0     H26488   0.463   9.199   2.687  0.1975  0.9636  0.2991
  917MOL0     H26489   0.560   8.971   2.828 -0.7298  0.4064 -1.9988
  917MOL0     H26490   0.666   9.111   2.843 -0.6966 -0.2475  0.2302
  917MOL0     H26491   0.376   9.115   2.911  1.0849  0.6982 -0.8260
  917MOL0     H26492   0.507   9.240   2.954 -0.3080 -0.4845 -0.0811
  917MOL0     H26493   0.463   8.951   3.051 -0.2316  1.4701 -1.7990
  917MOL0     H26494   0.592   9.050   3.119  0.5268  0.7707  0.6323
  917MOL0     H26495   0.529   9.121   3.361  1.7622  1.6439 -2.9420
  917MOL0     H26496   0.201   9.259   3.519  0.0557  0.4695 -0.2629
  917MOL0     H26497   0.380   9.276   3.547  5.0532 -3.2457 -2.8293
  917MOL0     H26498   0.345   9.007   3.581 -1.1092  0.3550  1.0910
  917MOL0     H26499   0.355   9.142   3.696 -2.3945 -1.0584  3.0195
  917MOL0     H26500   0.126   9.166   3.720 -2.9403 -1.6915  1.8890
  917MOL0     H26501   0.084   9.068   3.585 -0.1434 -3.5675  0.4984
  917MOL0     H26502   0.186   8.868   3.697 -0.3216 -1.4797 -0.7111
  917MOL0     H26503   0.236   8.967   3.834  1.9428 -1.8168 -1.1419
  917MOL0     H26504   0.012   8.855   3.554 -1.1257  0.9862 -0.5172
  917MOL0     H26505  -0.224   8.606   3.391  0.7875 -2.2015  2.8241
  917MOL0     H26506  -0.057   8.578   3.443  1.1181  0.5578 -0.8165
  917MOL0     H26507  -0.084   8.720   3.361  1.8926  1.0192  2.7421
  917MOL0     H26508  -0.535   8.594   3.380 -1.4735  2.9880  1.4446
  917MOL0     H26509  -0.703   8.453   3.267 -0.5471 -2.2342 -0.5341
  917MOL0     H26510  -0.909   8.377   3.225 -1.2895 -0.3016  0.1892
  917MOL0     H26511  -0.824   8.230   3.235  2.6170  5.0939 -2.5336
  917MOL0     H26512  -1.122   8.268   3.311 -1.2773  0.6287 -0.9380
  917MOL0     H26513  -1.060   8.198   3.164 -0.9984  2.9771  0.3229
  917MOL0     H26514  -0.974   8.049   3.403 -0.4295  1.5395  0.4849
  917MOL0     H26515  -1.039   7.993   3.253  2.7722 -3.3239  2.9015
  917MOL0     H26516  -1.268   8.079   3.331 -2.0247 -1.0490  1.2701
  917MOL0     H26517  -1.194   8.096   3.492  3.1031  1.0593 -1.1064
  917MOL0     H26518  -1.325   7.883   3.428  1.4247  1.8044 -0.4784
  917MOL0     H26519  -1.198   7.850   3.310  1.9398  0.4239 -0.5193
  917MOL0     H26520  -1.174   7.849   3.604  4.0988 -0.6890  0.9056
  917MOL0     H26521  -1.043   7.848   3.493  0.6006  0.1538  0.7264
  917MOL0     H26522  -1.256   7.631   3.424  1.1078  0.4364 -0.2519
  917MOL0     H26523  -1.183   7.616   3.582 -1.4384  2.3612  1.9353
  917MOL0     H26524  -1.071   7.495   3.400 -4.4361  1.0749  1.3142
  917MOL0     H26525  -0.960   7.607   3.478  0.5840  1.1195  0.3838
  917MOL0     H26526  -0.838   8.325   3.664 -1.5911  1.0660 -0.2525
  917MOL0     H26527  -0.671   8.471   3.767 -2.7191 -0.0731 -0.2013
  917MOL0     H26528  -0.375   8.719   3.822  0.8954  0.4214  3.0110
  917MOL0     H26529  -0.200   8.882   3.918 -0.1153 -0.0087 -0.5453
  917MOL0     H26530   0.773   8.627   2.363  3.0288  1.5583 -1.3393
  917MOL0     H26531   0.829   8.384   2.299 -0.4016 -0.7041  0.2844
  917MOL0     H26532   0.954   8.044   2.527  0.5657  2.0374 -0.6088
  917MOL0     H26533   0.986   7.810   2.632 -1.6412  2.1167  0.5402
  917MOL0     H26534   1.024   7.528   2.632  0.4962  2.5379  1.7092
  917MOL0     H26535   0.954   7.614   2.488  1.7601 -0.6217 -1.3257
  917MOL0     H26536   0.974   7.357   2.474 -0.5208  2.5265  1.6422
  917MOL0     H26537   1.146   7.382   2.464  0.3378 -0.5562 -3.0158
  917MOL0     H26538   1.143   7.507   2.268 -0.8786  1.7669  0.7108
  917MOL0     H26539   1.065   7.349   2.242 -1.1623  0.2255 -0.0734
  917MOL0     H26540   0.932   7.617   2.258  1.6064 -0.6659 -1.6702
  917MOL0     H26541   0.847   7.471   2.319 -1.7127 -2.3804 -1.5619
  917MOL0     H26542   0.871   7.347   1.926 -0.7605  0.6498 -0.4471
  917MOL0     H26543   1.300   7.735   2.345 -1.8581 -0.2853 -2.8219
  917MOL0     H26544   1.389   8.040   2.265 -1.3721  1.3223 -1.1391
  917MOL0     H26545   1.340   7.884   2.184 -0.3531 -2.0232  1.8793
  917MOL0     H26546   1.246   8.040   2.152  0.1365  2.7796  1.9774
  918MOL0     O26547   8.940   1.162  10.057  0.0585  0.5507 -0.5003
  918MOL0     C26548   8.990   1.246   9.985 -0.2575 -0.5282  0.3735
  918MOL0     O26549   9.088   1.222   9.888 -0.0054  0.5902  0.1959
  918MOL0     C26550   9.160   1.108   9.877 -0.0764 -0.2231 -0.9868
  918MOL0     C26551   9.298   1.116   9.871  0.1234  0.0929 -0.4684
  918MOL0     C26552   9.376   1.004   9.862 -0.3970  0.0334  0.0727
  918MOL0     C26553   9.324   0.876   9.851  0.1528 -0.1512 -0.6866
  918MOL0     O26554   9.403   0.763   9.825  0.9681  0.3783 -0.0633
  918MOL0     C26555   9.532   0.760   9.873  0.2158 -0.7672  0.2798
  918MOL0     C26556   9.572   0.615   9.886 -0.2175  1.5218  0.3617
  918MOL0     C26557   9.585   0.526   9.756 -0.2774  0.0482  0.3414
  918MOL0     C26558   9.610   0.375   9.790 -0.4623 -0.1026 -0.3334
  918MOL0     C26559   9.495   0.307   9.854 -0.4500  0.9646 -0.6277
  918MOL0     C26560   9.499   0.151   9.844 -0.7402  1.0166  0.8013
  918MOL0     C26561   9.633   0.087   9.895  0.1829  0.0489  0.6929
  918MOL0     C26562   9.644   0.087  10.048  1.3892 -0.7538  0.8471
  918MOL0     N26563   9.764   0.018  10.085  0.6763  0.1767  0.0072
  918MOL0     C26564   9.778  -0.118  10.105 -0.2554  0.1531  0.6125
  918MOL0     C26565   9.906  -0.139  10.127 -0.8739  1.0480 -0.2820
  918MOL0     C26566   9.965  -0.275  10.150  1.7997  0.5497  0.7238
  918MOL0     C26567   9.930  -0.334  10.292  0.3657  0.1845  0.4619
  918MOL0     C26568   9.986  -0.257  10.413  0.2342  0.1332  0.2885
  918MOL0     C26569   9.979  -0.320  10.547  0.2586 -0.2279  1.0463
  918MOL0     O26570   9.838  -0.362  10.557 -0.3352 -0.1928  0.6471
  918MOL0     C26571   9.754  -0.313  10.658  0.3804  0.4091 -0.5416
  918MOL0     C26572   9.771  -0.202  10.745  0.1380 -0.4592  0.3068
  918MOL0     C26573   9.682  -0.171  10.850  0.2194  0.4752 -0.0542
  918MOL0     C26574   9.725  -0.058  10.937  0.7548  0.3457  0.0165
  918MOL0     C26575   9.561  -0.249  10.866 -0.9730 -0.1848  0.2999
  918MOL0     C26576   9.460  -0.219  10.969  0.5948  0.6749 -0.0906
  918MOL0     O26577   9.333  -0.276  10.949 -0.1125 -0.2616 -0.1029
  918MOL0     C26578   9.247  -0.282  11.057  0.3058 -0.4577 -0.2884
  918MOL0     C26579   9.133  -0.194  11.052 -0.2099  0.1563  0.2000
  918MOL0     C26580   9.045  -0.188  11.153 -0.7300  1.8105  0.0097
  918MOL0     C26581   9.064  -0.265  11.267  0.2851  1.0370  0.3423
  918MOL0     O26582   8.973  -0.265  11.372 -0.1004  0.6692  0.5395
  918MOL0     C26583   9.022  -0.251  11.507 -0.0115 -1.7487  0.2142
  918MOL0     C26584   9.100  -0.128  11.529  0.0373  0.5246  0.9053
  918MOL0     C26585   9.200  -0.145  11.648  0.2984  1.3742  0.9942
  918MOL0     C26586   9.257  -0.011  11.689  0.0056 -1.0994  0.9589
  918MOL0     C26587   9.369   0.036  11.587  1.1638 -1.1575  1.2808
  918MOL0     C26588   9.492  -0.041  11.625  0.0971 -0.6143  0.8396
  918MOL0     C26589   9.598  -0.008  11.515 -0.0590 -0.0944 -0.4081
  918MOL0     C26590   9.601  -0.105  11.399 -0.5269  0.2450  0.1605
  918MOL0    Cl26591   9.648  -0.276  11.467  0.0399  0.6821  0.1610
  918MOL0     C26592   9.178  -0.353  11.269  0.3555  1.0158 -0.4313
  918MOL0     C26593   9.269  -0.365  11.165 -0.5507  0.1632 -0.5857
  918MOL0     O26594   9.495  -0.182  11.080 -0.3776  0.1206 -0.1281
  918MOL0     C26595   9.549  -0.358  10.787 -0.3106 -1.0076  0.7745
  918MOL0     C26596   9.642  -0.400  10.691 -1.2905  0.0579  0.2312
  918MOL0     N26597   9.972  -0.019  10.117  0.8881 -0.1771 -0.5297
  918MOL0     N26598   9.885   0.070  10.088  0.9235  0.3382 -0.2545
  918MOL0     C26599   9.183   0.863   9.851 -0.0302 -0.5399  0.7705
  918MOL0     C26600   9.103   0.981   9.866 -0.0922  0.6259 -0.7124
  918MOL0     C26601   8.941   1.393   9.976 -0.9879 -0.3480 -0.1132
  918MOL0     C26602   8.970   1.466   9.851  0.9051  0.8143  0.0085
  918MOL0     C26603   8.922   1.595   9.836 -0.2804  0.6965 -0.8959
  918MOL0     C26604   8.837   1.652   9.927  0.5484  0.9104  0.4502
  918MOL0     O26605   8.791   1.775   9.898 -0.8347 -0.5528  0.0017
  918MOL0     C26606   8.660   1.775   9.940 -0.3572  0.1232  0.3582
  918MOL0     C26607   8.561   1.861   9.864  0.3960 -0.6399  0.0818
  918MOL0     C26608   8.563   1.851   9.709  0.0472  0.2152  0.5140
  918MOL0     C26609   8.482   1.958   9.639  0.5425 -0.0907  0.1064
  918MOL0     C26610   8.339   1.932   9.656 -0.4163  0.4980 -0.0740
  918MOL0     C26611   8.223   1.927   9.673  0.1207  0.2578  0.5160
  918MOL0     C26612   8.817   1.589  10.051 -0.6893  1.2091 -0.5963
  918MOL0     C26613   8.863   1.458  10.074  0.6928 -0.2164 -0.3196
  918MOL0     C26614   8.823   1.386  10.203  0.1953 -0.7138 -0.0068
  918MOL0     H26615   9.340   1.216   9.883 -2.9723  1.2297  2.5362
  918MOL0     H26616   9.483   1.021   9.855 -0.0613 -2.1348 -1.2560
  918MOL0     H26617   9.531   0.810   9.970 -0.0779  1.6726 -0.8957
  918MOL0     H26618   9.605   0.818   9.816  0.8306  1.3754  3.0016
  918MOL0     H26619   9.669   0.614   9.937 -0.4821  0.9007  0.8807
  918MOL0     H26620   9.503   0.558   9.950 -0.4869  1.7172  0.2413
  918MOL0     H26621   9.503   0.530   9.684  3.3530 -0.6175 -4.2840
  918MOL0     H26622   9.671   0.574   9.709 -2.3173  2.8992 -0.8322
  918MOL0     H26623   9.645   0.320   9.703 -1.6441 -3.0759  0.9221
  918MOL0     H26624   9.680   0.362   9.873 -2.1588 -7.5751  0.6260
  918MOL0     H26625   9.408   0.335   9.795 -0.4882 -0.8250 -1.4927
  918MOL0     H26626   9.479   0.339   9.958 -0.0228  1.6382 -0.7648
  918MOL0     H26627   9.415   0.101   9.892 -1.5492 -1.9655 -3.1438
  918MOL0     H26628   9.499   0.120   9.739 -1.3102  0.0483  1.0807
  918MOL0     H26629   9.720   0.137   9.852 -0.7185 -0.5550 -2.0685
  918MOL0     H26630   9.652  -0.012   9.853 -1.3091 -0.5472  1.3366
  918MOL0     H26631   9.636   0.192  10.078  0.7170 -0.2749 -0.8981
  918MOL0     H26632   9.562   0.029  10.089 -0.0177 -1.7570 -2.9556
  918MOL0     H26633   9.699  -0.193  10.112 -1.5646  1.6482  3.6722
  918MOL0     H26634  10.071  -0.286  10.126  1.2855  0.3312 -1.6679
  918MOL0     H26635   9.909  -0.333  10.076 -3.5659  3.6938  1.7589
  918MOL0     H26636   9.822  -0.340  10.309 -0.3537  0.1296 -3.3341
  918MOL0     H26637   9.964  -0.437  10.276 -0.4818  0.3364 -3.2450
  918MOL0     H26638  10.084  -0.230  10.372 -0.9625  0.6201 -2.5425
  918MOL0     H26639   9.922  -0.169  10.417  1.2185  1.1470 -2.8181
  918MOL0     H26640  10.054  -0.399  10.560 -0.0632 -0.3715  2.1261
  918MOL0     H26641   9.999  -0.248  10.626  0.1016 -1.0774  1.8843
  918MOL0     H26642   9.847  -0.126  10.732 -3.7617  3.9069  0.7175
  918MOL0     H26643   9.794   0.012  10.890  1.4069 -1.1195 -1.3107
  918MOL0     H26644   9.764  -0.091  11.034  1.1284  1.4098  0.2403
  918MOL0     H26645   9.638   0.004  10.960  1.2895  0.7787  0.9135
  918MOL0     H26646   9.124  -0.141  10.958  1.1648  0.5354  0.2539
  918MOL0     H26647   8.947  -0.143  11.137 -0.3387  2.9286  0.6147
  918MOL0     H26648   8.937  -0.258  11.576 -3.9913  2.0796 -3.6478
  918MOL0     H26649   9.098  -0.328  11.523  0.6375 -1.5267 -1.5994
  918MOL0     H26650   9.164  -0.109  11.442 -1.1825 -0.5238 -0.2589
  918MOL0     H26651   9.035  -0.040  11.533 -2.7289 -1.4018  1.4992
  918MOL0     H26652   9.272  -0.224  11.623 -1.2918 -0.5679  2.1994
  918MOL0     H26653   9.150  -0.181  11.738 -0.5103 -0.3079 -0.0776
  918MOL0     H26654   9.299  -0.007  11.790  2.7688 -1.2007 -0.0797
  918MOL0     H26655   9.176   0.062  11.681 -0.5249 -1.8627 -3.8231
  918MOL0     H26656   9.350   0.029  11.480  0.4999 -1.4210  1.4150
  918MOL0     H26657   9.379   0.144  11.606  1.8296 -1.1699  1.0187
  918MOL0     H26658   9.464  -0.146  11.630 -3.7663  0.2521  0.9621
  918MOL0     H26659   9.527  -0.004  11.722 -0.1797 -1.1317  1.1414
  918MOL0     H26660   9.693  -0.004  11.569 -0.0295 -1.2106 -0.3568
  918MOL0     H26661   9.572   0.090  11.473 -0.8312  0.0406  0.3315
  918MOL0     H26662   9.689  -0.080  11.338  0.4417  2.4044  2.2873
  918MOL0     H26663   9.508  -0.098  11.342  0.8974 -0.7873 -2.4887
  918MOL0     H26664   9.194  -0.426  11.347  0.6546 -0.7757 -2.1004
  918MOL0     H26665   9.347  -0.440  11.170 -2.3911 -1.7806  1.6438
  918MOL0     H26666   9.459  -0.413  10.809 -0.6555 -0.2859  1.2143
  918MOL0     H26667   9.617  -0.487  10.631 -0.0486 -1.1233  1.3762
  918MOL0     H26668   9.136   0.769   9.824  3.6197 -1.9104 -1.5792
  918MOL0     H26669   8.995   0.983   9.872 -0.2611 -2.5618 -0.7042
  918MOL0     H26670   9.022   1.412   9.773 -3.4393 -2.3784 -1.0463
  918MOL0     H26671   8.935   1.645   9.741  1.4931  2.5584  0.2450
  918MOL0     H26672   8.608   1.680   9.952 -0.7034  0.2075 -0.3951
  918MOL0     H26673   8.652   1.823  10.038  0.0108  4.0311 -1.3280
  918MOL0     H26674   8.581   1.966   9.888  2.4427 -0.8692 -0.3832
  918MOL0     H26675   8.463   1.835   9.905 -1.0738  1.3386 -1.9154
  918MOL0     H26676   8.665   1.850   9.669 -0.2557 -1.7347 -0.3196
  918MOL0     H26677   8.514   1.760   9.675 -4.0348  2.3147  0.1511
  918MOL0     H26678   8.524   1.972   9.539  1.0689 -2.2505 -0.0278
  918MOL0     H26679   8.504   2.052   9.691  2.0632  0.4083 -1.3424
  918MOL0     H26680   8.116   1.924   9.683  0.2741 -0.3613  2.3503
  918MOL0     H26681   8.772   1.635  10.138 -0.0813  1.3347 -0.3430
  918MOL0     H26682   8.746   1.448  10.251 -0.0414  1.2874 -2.7477
  918MOL0     H26683   8.775   1.297  10.163  0.2592 -0.8756  0.2802
  918MOL0     H26684   8.901   1.352  10.271  0.9975  2.4092  0.8022
  919MOL0     O26685   4.035   2.721   5.779  0.0042  0.3363  0.2651
  919MOL0     C26686   4.015   2.835   5.829 -0.2090  0.2469 -0.2468
  919MOL0     O26687   4.100   2.913   5.897 -0.3712 -0.3201  0.1984
  919MOL0     C26688   4.230   2.862   5.915  0.5943  0.2206 -0.0211
  919MOL0     C26689   4.272   2.865   6.049  0.2249 -0.6646  0.3870
  919MOL0     C26690   4.386   2.813   6.088 -0.5556 -0.5488 -0.0271
  919MOL0     C26691   4.471   2.756   5.996  0.0937  0.1384  0.1574
  919MOL0     O26692   4.582   2.700   6.046 -0.3598 -0.6591  0.5453
  919MOL0     C26693   4.692   2.706   5.951  0.7857 -0.5728 -0.1752
  919MOL0     C26694   4.802   2.801   6.009 -0.0019 -0.3315 -0.5077
  919MOL0     C26695   4.848   2.786   6.162 -0.6692 -0.8905  0.2166
  919MOL0     C26696   4.952   2.893   6.212 -0.6851  0.5824 -0.2708
  919MOL0     C26697   4.917   3.035   6.151 -0.0169  0.1038  0.0659
  919MOL0     C26698   4.965   3.144   6.243 -0.2104  0.5859  0.5994
  919MOL0     C26699   4.908   3.284   6.208  0.9761  0.3902  0.4590
  919MOL0     C26700   4.937   3.390   6.313  0.1282 -0.7559  0.6850
  919MOL0     N26701   4.863   3.380   6.436 -0.4000 -0.2932  0.6375
  919MOL0     C26702   4.732   3.421   6.457  0.5039 -0.1196  0.1625
  919MOL0     C26703   4.718   3.396   6.591  0.3855 -0.1307  0.2211
  919MOL0     C26704   4.596   3.382   6.674  1.0584  0.5671  0.4419
  919MOL0     C26705   4.569   3.482   6.776 -0.0550  0.3845 -0.2566
  919MOL0     C26706   4.481   3.437   6.898  0.1563  0.0169 -0.1202
  919MOL0     C26707   4.322   3.454   6.890  0.9083  0.3484  0.3613
  919MOL0     O26708   4.295   3.586   6.854 -0.0136 -0.4199 -0.4719
  919MOL0     C26709   4.286   3.667   6.960 -0.1083 -0.4579  0.2880
  919MOL0     C26710   4.392   3.746   6.996  0.7048 -0.0257 -0.2868
  919MOL0     C26711   4.386   3.833   7.109  0.7244  0.3758  1.2833
  919MOL0     C26712   4.512   3.904   7.144  0.2343  0.3147 -0.6163
  919MOL0     C26713   4.264   3.862   7.168  0.2556 -0.0794 -0.8517
  919MOL0     C26714   4.238   3.969   7.271 -0.1010  0.1097  1.4832
  919MOL0     O26715   4.123   3.939   7.351 -0.5691 -0.0202 -0.5694
  919MOL0     C26716   4.074   4.038   7.429 -0.0000 -1.2867  0.9184
  919MOL0     C26717   4.119   4.049   7.565  0.7261  0.0019 -0.8356
  919MOL0     C26718   4.052   4.139   7.659 -0.3017 -0.0290 -0.0188
  919MOL0     C26719   3.955   4.224   7.610  0.3546 -0.0938  0.6516
  919MOL0     O26720   3.892   4.319   7.698 -0.5227 -0.1398  0.1576
  919MOL0     C26721   3.984   4.419   7.749  0.3662 -0.2415 -0.2161
  919MOL0     C26722   3.978   4.538   7.656 -0.9397 -0.3890 -1.2572
  919MOL0     C26723   3.844   4.603   7.624  1.1417  0.2915  0.0134
  919MOL0     C26724   3.777   4.663   7.749  0.4092 -0.1855  0.0764
  919MOL0     C26725   3.632   4.696   7.726  1.1087  0.2712 -1.0580
  919MOL0     C26726   3.630   4.842   7.677 -0.3841 -0.2605  0.9083
  919MOL0     C26727   3.486   4.886   7.658 -0.6358  0.3583  0.3310
  919MOL0     C26728   3.474   5.038   7.657 -0.2198 -0.2988 -0.3464
  919MOL0    Cl26729   3.306   5.072   7.615  0.2904 -0.3715  0.5124
  919MOL0     C26730   3.926   4.229   7.475 -1.3774  0.4020 -0.5475
  919MOL0     C26731   3.975   4.128   7.388 -0.5502 -0.6234 -0.1198
  919MOL0     O26732   4.291   4.076   7.248 -0.2615  0.3211 -0.1140
  919MOL0     C26733   4.151   3.778   7.132 -0.4613  0.4081 -0.3243
  919MOL0     C26734   4.165   3.677   7.032  0.9234 -0.4304  0.5312
  919MOL0     N26735   4.841   3.363   6.644  0.3657 -0.1858 -0.7928
  919MOL0     N26736   4.935   3.362   6.554  0.0067  0.0868 -0.5845
  919MOL0     C26737   4.431   2.756   5.859  0.0825  0.5796  0.4996
  919MOL0     C26738   4.311   2.804   5.817 -0.4554  0.0837  0.7089
  919MOL0     C26739   3.894   2.905   5.791 -0.5349  0.1799  0.1231
  919MOL0     C26740   3.903   3.054   5.777 -0.1956 -0.5410 -0.4899
  919MOL0     C26741   3.786   3.134   5.744  0.2399 -0.0373  0.7840
  919MOL0     C26742   3.670   3.065   5.705 -0.0409 -0.2776  0.1765
  919MOL0     O26743   3.568   3.148   5.655  0.2824  0.1316 -0.4267
  919MOL0     C26744   3.433   3.104   5.678 -0.2770  0.2142  0.2327
  919MOL0     C26745   3.342   3.215   5.635  0.6898 -0.6736 -0.3411
  919MOL0     C26746   3.320   3.204   5.482  0.2413 -0.6814  0.1006
  919MOL0     C26747   3.187   3.266   5.425 -0.2320  0.5545  0.2383
  919MOL0     C26748   3.139   3.402   5.483  0.4766 -0.3868  1.8344
  919MOL0     C26749   3.104   3.492   5.545  0.2466 -1.0746 -0.3800
  919MOL0     C26750   3.658   2.924   5.714 -0.1776  0.3988  0.4970
  919MOL0     C26751   3.763   2.843   5.761  0.2961  0.1198  1.2271
  919MOL0     C26752   3.732   2.695   5.764  0.2233 -0.7333 -0.2131
  919MOL0     H26753   4.197   2.904   6.117  0.2833  1.1956 -0.5580
  919MOL0     H26754   4.425   2.814   6.189  1.7143 -2.0834 -0.8145
  919MOL0     H26755   4.670   2.717   5.844  1.8726 -0.3415 -0.3905
  919MOL0     H26756   4.740   2.607   5.954  5.2249  1.3872  1.7286
  919MOL0     H26757   4.888   2.777   5.946 -0.8700 -4.7240 -0.3182
  919MOL0     H26758   4.765   2.903   5.991 -2.2365 -0.4791  2.5592
  919MOL0     H26759   4.762   2.794   6.229 -1.1870 -4.9086  0.2407
  919MOL0     H26760   4.879   2.686   6.192  0.3217 -0.1849  1.7052
  919MOL0     H26761   4.955   2.891   6.321  2.1753  0.1620 -0.2977
  919MOL0     H26762   5.053   2.863   6.185 -0.9618 -1.5656  0.8691
  919MOL0     H26763   4.809   3.043   6.135 -0.5382 -2.1300  1.8760
  919MOL0     H26764   4.977   3.047   6.060 -0.2381 -0.8784 -0.2330
  919MOL0     H26765   4.916   3.111   6.335 -2.4492  0.9010 -0.3987
  919MOL0     H26766   5.074   3.149   6.250 -0.3082 -0.0801  4.0442
  919MOL0     H26767   4.798   3.281   6.200  1.0697 -1.4383 -1.1682
  919MOL0     H26768   4.941   3.322   6.111 -0.9335  0.8312 -0.0636
  919MOL0     H26769   5.043   3.391   6.338 -0.1122  2.8054  2.1574
  919MOL0     H26770   4.912   3.483   6.262  1.1403  0.3464  2.1210
  919MOL0     H26771   4.661   3.460   6.384  1.3036 -0.2710 -0.7197
  919MOL0     H26772   4.613   3.287   6.726 -0.5567 -1.8040 -3.0139
  919MOL0     H26773   4.505   3.368   6.616  1.8620  0.6385 -0.8906
  919MOL0     H26774   4.661   3.535   6.804 -0.7489  1.3686  0.2116
  919MOL0     H26775   4.515   3.564   6.727  1.4529  1.6452  0.1086
  919MOL0     H26776   4.496   3.330   6.916  0.6155 -0.3695 -2.4153
  919MOL0     H26777   4.520   3.495   6.982  2.0873 -2.4315  0.7812
  919MOL0     H26778   4.286   3.388   6.810 -0.2002  1.3828 -0.0304
  919MOL0     H26779   4.264   3.431   6.980  2.6488  0.0658  1.4481
  919MOL0     H26780   4.488   3.743   6.945  3.6586  1.7322  4.5350
  919MOL0     H26781   4.595   3.834   7.131  1.8523  2.2065 -0.8745
  919MOL0     H26782   4.518   3.925   7.252  1.9738 -2.9774  0.0566
  919MOL0     H26783   4.535   4.002   7.101 -1.3647  3.4572  4.7527
  919MOL0     H26784   4.198   3.981   7.593 -0.1471 -1.3237 -1.5005
  919MOL0     H26785   4.073   4.140   7.765  1.0364  0.4661 -0.2770
  919MOL0     H26786   3.952   4.447   7.850 -1.3139  1.1011 -1.0783
  919MOL0     H26787   4.089   4.387   7.752  1.7788  3.8150  0.3040
  919MOL0     H26788   4.058   4.611   7.670 -2.7332  2.1552 -3.3378
  919MOL0     H26789   4.005   4.490   7.562 -0.4339 -3.1453  0.1864
  919MOL0     H26790   3.780   4.529   7.575 -0.6329  1.8473 -0.1332
  919MOL0     H26791   3.864   4.681   7.550 -3.2643  1.3429 -0.3082
  919MOL0     H26792   3.846   4.743   7.781 -0.3397  0.3615  0.3635
  919MOL0     H26793   3.770   4.602   7.840 -1.3139 -0.8990 -0.4955
  919MOL0     H26794   3.587   4.629   7.653 -1.2187 -1.9619  2.1441
  919MOL0     H26795   3.577   4.682   7.820  2.6339 -0.3839 -0.2210
  919MOL0     H26796   3.689   4.858   7.586 -1.5747  0.6007  0.2617
  919MOL0     H26797   3.668   4.913   7.752  1.0477 -0.7465  0.6766
  919MOL0     H26798   3.408   4.857   7.729 -1.1456 -1.2272 -0.8037
  919MOL0     H26799   3.450   4.858   7.558  0.9024  1.5918 -0.6135
  919MOL0     H26800   3.529   5.082   7.573 -1.6318 -0.2524 -1.2898
  919MOL0     H26801   3.502   5.078   7.755  1.5116 -1.9576 -0.1158
  919MOL0     H26802   3.855   4.301   7.437  1.0451  3.7766  0.8705
  919MOL0     H26803   3.947   4.136   7.283  3.6609 -0.9133 -1.4522
  919MOL0     H26804   4.059   3.786   7.189 -0.4833 -2.8566  0.2802
  919MOL0     H26805   4.079   3.626   6.988  0.0623 -0.1810  1.8761
  919MOL0     H26806   4.487   2.699   5.786 -4.0046 -3.9769  0.4557
  919MOL0     H26807   4.282   2.799   5.713  3.2761  2.1879 -0.6096
  919MOL0     H26808   3.998   3.100   5.802 -1.2681 -0.0596  3.3073
  919MOL0     H26809   3.799   3.242   5.739  2.7163 -0.3303 -1.4295
  919MOL0     H26810   3.402   3.012   5.627  3.3075 -1.4557  0.7312
  919MOL0     H26811   3.418   3.100   5.786 -3.0814  2.2279  0.0206
  919MOL0     H26812   3.379   3.310   5.674  0.6787 -1.4415  1.7019
  919MOL0     H26813   3.245   3.195   5.683  0.8354 -1.1884 -0.2529
  919MOL0     H26814   3.394   3.268   5.432 -2.2575  3.1869  1.0027
  919MOL0     H26815   3.330   3.103   5.441 -0.7499  0.7349 -4.1485
  919MOL0     H26816   3.111   3.194   5.455  0.5876 -0.4277 -0.0137
  919MOL0     H26817   3.184   3.275   5.316 -0.9348 -0.0802  0.1948
  919MOL0     H26818   3.077   3.572   5.612  2.6153 -0.8615  0.4174
  919MOL0     H26819   3.562   2.879   5.690  0.7849 -0.4416 -2.0930
  919MOL0     H26820   3.776   2.642   5.679  0.7345  2.7624 -2.3677
  919MOL0     H26821   3.766   2.647   5.856 -1.7513 -2.0541 -0.1278
  919MOL0     H26822   3.624   2.690   5.752 -0.4809  4.2500  1.5920
  920MOL0     O26823   6.448   3.155   9.717 -0.8955  0.3280  0.4496
  920MOL0     C26824   6.475   3.238   9.629  0.4530  0.4739 -0.5310
  920MOL0     O26825   6.598   3.277   9.584 -0.5537  0.0452 -1.1526
  920MOL0     C26826   6.714   3.233   9.651  0.0668 -0.9471 -0.3639
  920MOL0     C26827   6.751   3.099   9.652 -0.0524  0.4398 -0.0554
  920MOL0     C26828   6.879   3.055   9.701 -0.1464 -0.6434 -1.1337
  920MOL0     C26829   6.971   3.146   9.752 -0.8264 -0.4171 -0.2286
  920MOL0     O26830   7.093   3.102   9.808  0.0916  0.0844  0.0347
  920MOL0     C26831   7.162   2.992   9.751  0.2082 -0.4848  0.5736
  920MOL0     C26832   7.218   3.033   9.616 -0.3291 -0.4322 -0.6420
  920MOL0     C26833   7.292   3.170   9.620  0.7364 -0.1375 -0.0750
  920MOL0     C26834   7.356   3.220   9.486 -0.0850 -0.5044 -0.1238
  920MOL0     C26835   7.257   3.259   9.372  0.4597 -0.1057 -0.6973
  920MOL0     C26836   7.146   3.346   9.429  0.6159 -0.3728  0.2396
  920MOL0     C26837   7.208   3.487   9.476  0.3076  0.2283  0.6478
  920MOL0     C26838   7.092   3.567   9.534  0.2902  0.4215 -0.3336
  920MOL0     N26839   7.080   3.696   9.460  0.7205  0.2802  0.1332
  920MOL0     C26840   7.089   3.816   9.518  0.1041 -0.2395 -0.6447
  920MOL0     C26841   7.032   3.900   9.432  0.5839 -0.1106 -0.3355
  920MOL0     C26842   6.997   4.040   9.452 -0.1597  0.5784 -0.0986
  920MOL0     C26843   6.847   4.058   9.486 -0.0771  0.7454 -0.1527
  920MOL0     C26844   6.818   4.183   9.560  0.6727 -0.7281 -0.8999
  920MOL0     C26845   6.882   4.201   9.702  0.2805 -0.2912 -0.0709
  920MOL0     O26846   6.830   4.316   9.769  0.7045  0.1102 -0.0688
  920MOL0     C26847   6.699   4.330   9.813  0.1964  0.4952 -0.4207
  920MOL0     C26848   6.607   4.227   9.818  1.2889  0.2815  0.1257
  920MOL0     C26849   6.467   4.245   9.854 -0.4762  0.1557  0.2465
  920MOL0     C26850   6.395   4.105   9.866 -0.0695  0.0258  0.6181
  920MOL0     C26851   6.414   4.378   9.871  1.3496  0.9011 -0.5066
  920MOL0     C26852   6.277   4.409   9.913  1.7328 -0.8615 -0.7923
  920MOL0     O26853   6.186   4.313   9.916  0.4249 -0.1613  0.7325
  920MOL0     C26854   6.046   4.331   9.939 -0.4339  0.9069 -0.0400
  920MOL0     C26855   5.974   4.248   9.859  1.4332 -0.0363  0.5939
  920MOL0     C26856   5.838   4.274   9.868 -0.0865 -0.0542 -0.5656
  920MOL0     C26857   5.777   4.366   9.960  0.2921  0.9544 -0.1750
  920MOL0     O26858   5.643   4.401   9.945  0.4972  0.1410 -0.0062
  920MOL0     C26859   5.562   4.343  10.047 -1.2471 -0.2958  0.3129
  920MOL0     C26860   5.447   4.425  10.097  0.5364 -0.2565 -0.2034
  920MOL0     C26861   5.496   4.559  10.139 -0.7076  0.5104 -1.0659
  920MOL0     C26862   5.379   4.634  10.198  0.2876  0.6459  0.0333
  920MOL0     C26863   5.390   4.784  10.208 -0.6503 -0.2216  0.1607
  920MOL0     C26864   5.280   4.839  10.293  0.5198 -0.7122 -0.9658
  920MOL0     C26865   5.263   4.986  10.297  0.1080 -0.0165  0.4755
  920MOL0     C26866   5.132   5.027  10.350 -1.3692  0.1051 -0.6425
  920MOL0    Cl26867   5.106   5.189  10.314 -0.0985 -0.1778 -0.0872
  920MOL0     C26868   5.863   4.439  10.042  0.2604  0.6869 -0.5903
  920MOL0     C26869   5.995   4.423  10.032  0.2271  1.2566  1.0636
  920MOL0     O26870   6.262   4.524   9.963  0.2073 -0.1761  0.4059
  920MOL0     C26871   6.508   4.475   9.864 -0.9157 -0.0774  0.6011
  920MOL0     C26872   6.648   4.449   9.838  0.6922  0.5793 -0.8817
  920MOL0     N26873   6.997   3.831   9.326 -0.4635 -0.0366  0.6103
  920MOL0     N26874   7.026   3.703   9.332 -0.1322  0.0711 -0.1613
  920MOL0     C26875   6.928   3.284   9.757  0.5860  0.0365 -0.3238
  920MOL0     C26876   6.806   3.328   9.704  0.9097 -0.2826  0.3230
  920MOL0     C26877   6.351   3.301   9.555  0.0683 -0.3254  0.1546
  920MOL0     C26878   6.376   3.410   9.473  0.3834 -0.8244 -0.0190
  920MOL0     C26879   6.279   3.474   9.403  0.3147  0.4246  0.4074
  920MOL0     C26880   6.142   3.439   9.410 -0.0167  0.5847  1.1793
  920MOL0     O26881   6.062   3.514   9.338  0.1945 -1.0250 -0.1640
  920MOL0     C26882   5.939   3.465   9.290 -0.4748  0.0517  0.1404
  920MOL0     C26883   5.881   3.539   9.168  0.5769 -0.7872  0.6763
  920MOL0     C26884   5.870   3.693   9.201  0.3735  0.6504 -0.9192
  920MOL0     C26885   5.746   3.724   9.290  0.6023 -0.1162 -1.0468
  920MOL0     C26886   5.762   3.676   9.424  0.4349  0.0878 -0.4628
  920MOL0     C26887   5.782   3.637   9.538 -0.5018  0.0395 -0.2589
  920MOL0     C26888   6.103   3.341   9.501 -0.3819  0.4756  0.0546
  920MOL0     C26889   6.210   3.268   9.567 -0.7246 -1.0851 -0.0834
  920MOL0     C26890   6.172   3.152   9.647  0.0102  0.7935  0.6474
  920MOL0     H26891   6.665   3.040   9.623 -0.8240  0.5925  1.7558
  920MOL0     H26892   6.891   2.947   9.693 -0.5362 -0.6763 -1.3158
  920MOL0     H26893   7.091   2.911   9.734 -1.8259  1.6664 -2.0216
  920MOL0     H26894   7.239   2.947   9.815 -0.6638 -0.6418  1.5478
  920MOL0     H26895   7.280   2.946   9.593  0.2900 -0.6051  1.4668
  920MOL0     H26896   7.131   3.032   9.549 -4.0893 -1.0659  3.7364
  920MOL0     H26897   7.230   3.252   9.658  1.4508  0.1419  0.5318
  920MOL0     H26898   7.379   3.159   9.686  2.1022  4.3720 -0.7278
  920MOL0     H26899   7.430   3.298   9.507  0.2865 -1.4515  2.5938
  920MOL0     H26900   7.419   3.139   9.447  2.1320  1.4001 -0.6826
  920MOL0     H26901   7.207   3.166   9.345  2.8427 -1.5104 -0.4916
  920MOL0     H26902   7.305   3.308   9.287  3.1629  1.2271  1.4527
  920MOL0     H26903   7.071   3.362   9.351 -1.4282  1.1589  2.3595
  920MOL0     H26904   7.088   3.285   9.500 -1.9430  0.0597 -1.3459
  920MOL0     H26905   7.255   3.527   9.386  1.5649 -0.9013  0.7626
  920MOL0     H26906   7.289   3.469   9.547  0.6613 -3.3830 -0.4488
  920MOL0     H26907   7.003   3.505   9.551  1.1777 -0.7021  0.3686
  920MOL0     H26908   7.140   3.595   9.628  1.4041 -1.7252 -0.1921
  920MOL0     H26909   7.136   3.837   9.614 -2.6365  3.0596  0.1800
  920MOL0     H26910   7.020   4.098   9.362  1.0577 -0.5939 -0.5688
  920MOL0     H26911   7.059   4.086   9.530  1.0125  2.3197 -1.9785
  920MOL0     H26912   6.796   4.052   9.390  0.5520 -0.0130 -0.4429
  920MOL0     H26913   6.819   3.975   9.551 -1.2764  2.0654  1.0989
  920MOL0     H26914   6.836   4.275   9.504  0.9201 -1.7853 -2.6383
  920MOL0     H26915   6.709   4.185   9.570  0.7412 -1.1857  0.1317
  920MOL0     H26916   6.861   4.108   9.757  0.9542 -1.9016 -2.3976
  920MOL0     H26917   6.989   4.211   9.687  0.3881 -1.8959 -0.5547
  920MOL0     H26918   6.634   4.122   9.809 -1.9357 -0.7153  0.9641
  920MOL0     H26919   6.464   4.021   9.873  0.4680  0.5143  1.2755
  920MOL0     H26920   6.335   4.076   9.779  2.8593  1.0239 -1.9330
  920MOL0     H26921   6.336   4.107   9.958 -2.0667  0.3653 -0.6063
  920MOL0     H26922   6.007   4.163   9.800 -1.5563 -2.7300  2.5042
  920MOL0     H26923   5.765   4.218   9.809 -2.4071  1.4135  0.7355
  920MOL0     H26924   5.525   4.260   9.986  0.3956 -1.2950  0.6118
  920MOL0     H26925   5.628   4.307  10.126  1.1994  0.4050 -1.2881
  920MOL0     H26926   5.369   4.454  10.026 -0.0490  1.2374  1.0021
  920MOL0     H26927   5.399   4.370  10.178 -0.5759 -1.3134 -1.5430
  920MOL0     H26928   5.538   4.620  10.059 -2.7126  5.4626  1.2756
  920MOL0     H26929   5.575   4.544  10.214  0.2740 -0.6333 -2.2726
  920MOL0     H26930   5.365   4.597  10.300 -3.7182 -0.3334 -0.7037
  920MOL0     H26931   5.290   4.607  10.140  1.9718 -4.2052 -0.7944
  920MOL0     H26932   5.490   4.808  10.246 -0.0455 -1.7625 -0.3998
  920MOL0     H26933   5.374   4.832  10.110 -0.0413  1.9014  1.0332
  920MOL0     H26934   5.294   4.804  10.396 -0.8824 -0.1303 -0.5636
  920MOL0     H26935   5.190   4.785  10.262  1.2458 -2.3290 -0.3591
  920MOL0     H26936   5.265   5.016  10.191 -1.7552  2.8857  1.1529
  920MOL0     H26937   5.340   5.032  10.359 -2.3496  0.6869  3.2032
  920MOL0     H26938   5.131   5.030  10.460  0.5483  1.7770 -0.6211
  920MOL0     H26939   5.051   4.959  10.320 -0.5426 -0.6334 -1.2462
  920MOL0     H26940   5.812   4.511  10.105 -1.7335 -1.5824  0.5721
  920MOL0     H26941   6.056   4.495  10.085 -0.0270  1.2796  1.3245
  920MOL0     H26942   6.475   4.578   9.868  0.7440  0.4536  2.8397
  920MOL0     H26943   6.710   4.538   9.833  1.6008  0.0983  0.9235
  920MOL0     H26944   6.992   3.367   9.785  0.0119  0.4379 -0.1807
  920MOL0     H26945   6.782   3.429   9.675 -2.7161 -1.4282 -1.2353
  920MOL0     H26946   6.471   3.458   9.452  0.4018 -1.1965 -0.8277
  920MOL0     H26947   6.308   3.547   9.327  0.2311  0.3957  0.3481
  920MOL0     H26948   5.959   3.368   9.243  1.1057  0.7631 -0.7507
  920MOL0     H26949   5.859   3.460   9.365 -0.1373 -0.7175  0.4651
  920MOL0     H26950   5.779   3.502   9.158 -0.8438  0.5197  6.3397
  920MOL0     H26951   5.945   3.517   9.083 -2.9506  2.0634 -3.1101
  920MOL0     H26952   5.958   3.735   9.251 -0.3509 -0.6779  1.6804
  920MOL0     H26953   5.867   3.740   9.102  2.7521  3.2978  0.1460
  920MOL0     H26954   5.652   3.706   9.236  0.0013  3.1299 -1.2878
  920MOL0     H26955   5.745   3.831   9.313 -1.1073 -0.6889  2.2169
  920MOL0     H26956   5.809   3.586   9.629 -1.1416 -5.2177 -2.6059
  920MOL0     H26957   6.002   3.300   9.509 -0.6059  0.9017 -0.5199
  920MOL0     H26958   6.246   3.072   9.632 -0.7514  0.3187 -0.7255
  920MOL0     H26959   6.172   3.178   9.753  2.7943  0.9871  0.6849
  920MOL0     H26960   6.082   3.103   9.609 -0.0394  2.5423 -1.7220
  921MOL0     O26961   9.248   5.298   1.128 -0.2318 -0.1599  0.5263
  921MOL0     C26962   9.189   5.297   1.238  0.0654 -0.0289 -0.1048
  921MOL0     O26963   9.144   5.182   1.298  0.6425  0.0220  0.6413
  921MOL0     C26964   9.156   5.057   1.244  0.5632  0.1368  0.1862
  921MOL0     C26965   9.049   4.973   1.276 -0.0416  0.4999 -0.8122
  921MOL0     C26966   9.047   4.840   1.238  0.4328 -0.6891 -0.3240
  921MOL0     C26967   9.150   4.786   1.165  0.0287 -0.0482 -1.7775
  921MOL0     O26968   9.155   4.663   1.126 -0.0118  0.2880 -0.3153
  921MOL0     C26969   9.210   4.567   1.222 -0.4478  0.1959  0.3461
  921MOL0     C26970   9.216   4.435   1.146  0.0756  1.0799 -0.1008
  921MOL0     C26971   9.221   4.317   1.247 -1.1399 -0.4542 -0.1321
  921MOL0     C26972   9.365   4.285   1.279 -0.2567 -0.6870  0.1942
  921MOL0     C26973   9.401   4.210   1.403  0.0769  0.7123 -0.6049
  921MOL0     C26974   9.552   4.165   1.404  0.1882  1.1167  0.3274
  921MOL0     C26975   9.665   4.266   1.377  0.3548 -0.2203 -1.2077
  921MOL0     C26976   9.804   4.203   1.368 -0.1933  0.2201  0.6756
  921MOL0     N26977   9.899   4.303   1.321  0.2682 -0.1638  0.5056
  921MOL0     C26978   9.999   4.365   1.399 -0.0439  0.3912  0.9350
  921MOL0     C26979  10.085   4.422   1.318  0.1869 -0.3173  0.3557
  921MOL0     C26980  10.199   4.517   1.360 -0.0056 -0.9235 -0.0410
  921MOL0     C26981  10.156   4.669   1.370 -0.0275 -0.4663 -0.1605
  921MOL0     C26982  10.261   4.744   1.454  0.0510 -0.1694  0.0430
  921MOL0     C26983  10.389   4.754   1.377 -0.1647 -0.4019 -0.0480
  921MOL0     O26984  10.463   4.842   1.453 -0.4901  0.0199 -1.2207
  921MOL0     C26985  10.598   4.846   1.432 -0.7368  0.9203  0.0714
  921MOL0     C26986  10.665   4.909   1.539  0.4903  0.8397 -0.2361
  921MOL0     C26987  10.800   4.923   1.548 -0.1531 -1.4472 -0.2007
  921MOL0     C26988  10.862   4.974   1.672 -0.0521  0.0326 -0.0439
  921MOL0     C26989  10.877   4.888   1.438  0.4729  0.9689  0.4211
  921MOL0     C26990  11.024   4.895   1.440  0.0434  0.6548 -0.2964
  921MOL0     O26991  11.084   5.014   1.448  0.7380  0.2629  0.0205
  921MOL0     C26992  11.215   5.017   1.467  0.6135  0.4056  0.1749
  921MOL0     C26993  11.264   4.999   1.594  0.3624  1.1195 -0.8851
  921MOL0     C26994  11.396   5.017   1.629  0.2645 -0.3931  0.3791
  921MOL0     C26995  11.492   5.033   1.526  0.3723  0.4204  0.2102
  921MOL0     O26996  11.629   5.016   1.547 -0.2117 -0.0331 -0.3501
  921MOL0     C26997  11.691   4.928   1.447 -0.4084 -0.1001 -1.1010
  921MOL0     C26998  11.816   4.858   1.486  0.1593  0.6782  0.1624
  921MOL0     C26999  11.817   4.780   1.619  0.1780  0.4342 -0.0015
  921MOL0     C27000  11.736   4.645   1.608 -0.4384  0.2739 -0.4684
  921MOL0     C27001  11.742   4.572   1.742 -0.5148  0.5469 -0.2523
  921MOL0     C27002  11.875   4.494   1.758  0.3991  1.2524 -0.2108
  921MOL0     C27003  11.871   4.424   1.890 -0.4852  0.5692 -0.1287
  921MOL0     C27004  11.997   4.337   1.895 -0.9342  0.2894  0.4471
  921MOL0    Cl27005  12.031   4.226   1.767  0.4515  0.3078  0.3919
  921MOL0     C27006  11.444   5.061   1.398 -0.1895 -0.3248 -0.2780
  921MOL0     C27007  11.312   5.051   1.368  0.6477 -0.1177 -0.8543
  921MOL0     O27008  11.082   4.782   1.455  0.4090  0.2980 -0.1164
  921MOL0     C27009  10.810   4.825   1.321 -0.8364  0.5316  0.0127
  921MOL0     C27010  10.672   4.819   1.315  0.2600 -0.2972 -0.2255
  921MOL0     N27011  10.041   4.393   1.191 -0.3295 -0.1192  0.6187
  921MOL0     N27012   9.925   4.326   1.188 -0.0024 -0.3356  1.1182
  921MOL0     C27013   9.264   4.868   1.138 -0.1152 -0.2848  0.1821
  921MOL0     C27014   9.261   5.003   1.172  0.4907 -0.8007 -0.0513
  921MOL0     C27015   9.147   5.424   1.297 -0.3109 -1.0788 -0.2428
  921MOL0     C27016   9.027   5.426   1.374  0.1184 -0.3032 -1.1345
  921MOL0     C27017   8.983   5.545   1.422 -0.1700 -0.0026  0.6112
  921MOL0     C27018   9.048   5.665   1.404 -0.7649 -0.4490  0.1074
  921MOL0     O27019   8.998   5.786   1.447 -0.1101  1.0655  0.6192
  921MOL0     C27020   8.855   5.779   1.473 -0.1076 -0.6639  0.4396
  921MOL0     C27021   8.785   5.909   1.445  0.3538 -0.3594  0.4227
  921MOL0     C27022   8.632   5.890   1.460  0.0458  0.2812 -0.4035
  921MOL0     C27023   8.569   5.763   1.392  0.2915 -0.0277  0.5759
  921MOL0     C27024   8.566   5.766   1.246 -0.4579  0.4689  0.0021
  921MOL0     C27025   8.577   5.771   1.129 -0.0367 -0.4623 -0.0315
  921MOL0     C27026   9.179   5.671   1.349 -0.2073 -0.7667  0.8075
  921MOL0     C27027   9.227   5.547   1.293 -0.3340 -0.1310 -1.1393
  921MOL0     C27028   9.363   5.559   1.228 -0.5285 -0.9791  0.0820
  921MOL0     H27029   8.964   5.014   1.330  2.4932  1.9552  2.3875
  921MOL0     H27030   8.972   4.769   1.272 -2.2975  1.6230 -1.1125
  921MOL0     H27031   9.155   4.546   1.313 -0.2333  1.0310  0.6820
  921MOL0     H27032   9.313   4.577   1.257 -0.4464 -0.3558  0.4975
  921MOL0     H27033   9.119   4.425   1.096 -0.1298 -1.5386  0.6684
  921MOL0     H27034   9.294   4.445   1.070  0.0975  1.5914 -0.0154
  921MOL0     H27035   9.163   4.336   1.338  0.6162 -1.9355  1.3571
  921MOL0     H27036   9.178   4.227   1.204 -0.4972 -0.4764 -0.7487
  921MOL0     H27037   9.406   4.242   1.187 -1.0825  1.1810 -1.1089
  921MOL0     H27038   9.407   4.385   1.293 -0.5138 -0.6499  0.7203
  921MOL0     H27039   9.342   4.117   1.403 -0.1649  0.8655 -0.9138
  921MOL0     H27040   9.369   4.262   1.493 -3.0428 -2.1012  0.1351
  921MOL0     H27041   9.566   4.117   1.501 -3.4978 -1.4971 -0.1846
  921MOL0     H27042   9.561   4.074   1.343  0.8343  0.9405  0.6802
  921MOL0     H27043   9.668   4.336   1.461  2.2525 -1.9598  0.2725
  921MOL0     H27044   9.647   4.320   1.283 -1.3479 -1.6314 -1.7415
  921MOL0     H27045   9.833   4.163   1.466  0.0204 -0.5339  0.3066
  921MOL0     H27046   9.800   4.119   1.298 -3.5562  1.8924 -1.4312
  921MOL0     H27047   9.993   4.376   1.507 -2.2593 -0.4675  0.9486
  921MOL0     H27048  10.292   4.488   1.309  1.2261 -0.7228  1.9809
  921MOL0     H27049  10.217   4.499   1.467 -0.4996  1.7953  0.5769
  921MOL0     H27050  10.156   4.700   1.265  0.4223 -2.0300 -0.6604
  921MOL0     H27051  10.056   4.679   1.411  1.3759  0.9524  3.3343
  921MOL0     H27052  10.223   4.847   1.456  0.2027 -0.1065 -0.2500
  921MOL0     H27053  10.266   4.703   1.555  1.5005 -0.9827 -0.3272
  921MOL0     H27054  10.434   4.655   1.368  0.3842 -0.1058 -0.6876
  921MOL0     H27055  10.374   4.790   1.275 -0.9559  0.3135  0.3070
  921MOL0     H27056  10.603   4.937   1.623  1.1468  2.1872 -0.1787
  921MOL0     H27057  10.795   5.045   1.722 -1.0325  0.1027 -1.4001
  921MOL0     H27058  10.961   5.020   1.668  1.1919 -2.1865  1.9587
  921MOL0     H27059  10.875   4.889   1.740  1.5160  1.5812  1.7031
  921MOL0     H27060  11.192   4.978   1.673 -0.4942 -0.4847 -2.0438
  921MOL0     H27061  11.426   5.019   1.734 -0.2814 -0.4783  0.5418
  921MOL0     H27062  11.616   4.853   1.422 -2.2533  0.9979  0.8638
  921MOL0     H27063  11.719   4.996   1.365  2.2168 -1.6259 -1.5748
  921MOL0     H27064  11.836   4.775   1.417  2.8359 -1.6423  3.3772
  921MOL0     H27065  11.886   4.942   1.485 -0.9725  1.6714  1.4475
  921MOL0     H27066  11.786   4.845   1.701  1.1438  3.1323 -1.6457
  921MOL0     H27067  11.919   4.754   1.650 -0.4427  1.0968  2.8447
  921MOL0     H27068  11.775   4.575   1.535  0.8052 -1.7684  2.0083
  921MOL0     H27069  11.636   4.678   1.578  0.4786  2.4284 -1.3802
  921MOL0     H27070  11.754   4.647   1.820  3.0189 -2.0978  2.0232
  921MOL0     H27071  11.658   4.502   1.755 -0.2322  0.0629 -0.9818
  921MOL0     H27072  11.970   4.547   1.746  2.3411 -1.7508  0.7462
  921MOL0     H27073  11.866   4.424   1.675 -1.4165 -0.4219  1.2964
  921MOL0     H27074  11.777   4.369   1.903  1.1696 -2.3308  0.5709
  921MOL0     H27075  11.896   4.497   1.968  1.4651  0.5199 -0.6636
  921MOL0     H27076  11.992   4.277   1.987  1.3080 -0.7576 -0.0484
  921MOL0     H27077  12.085   4.402   1.901 -1.3512  0.7533  1.7853
  921MOL0     H27078  11.511   5.083   1.316 -0.9636  3.2772 -0.0992
  921MOL0     H27079  11.276   5.051   1.266 -3.2782 -3.0214  0.2749
  921MOL0     H27080  10.868   4.797   1.234 -1.0697  1.0168 -0.3030
  921MOL0     H27081  10.631   4.770   1.228 -1.2043  0.2857  0.1114
  921MOL0     H27082   9.351   4.821   1.092  1.3699  1.3574  1.1766
  921MOL0     H27083   9.352   5.057   1.147  0.9128 -0.7525  1.4823
  921MOL0     H27084   8.973   5.332   1.371  0.1959 -0.3363 -1.5391
  921MOL0     H27085   8.888   5.529   1.472  0.7736  1.1460  2.9063
  921MOL0     H27086   8.813   5.706   1.403 -2.0114  0.2363  0.5920
  921MOL0     H27087   8.840   5.736   1.573 -0.8810 -0.2064  0.5214
  921MOL0     H27088   8.822   5.941   1.347  3.3159  1.2269  1.9196
  921MOL0     H27089   8.820   5.975   1.526  4.0863 -0.9610 -0.4984
  921MOL0     H27090   8.601   5.892   1.565  0.1087  1.4100 -0.3920
  921MOL0     H27091   8.592   5.979   1.411  0.6215 -0.1790 -1.7744
  921MOL0     H27092   8.464   5.756   1.420  0.0365  0.2173 -0.2943
  921MOL0     H27093   8.624   5.675   1.427  0.7280  0.2622  0.6194
  921MOL0     H27094   8.585   5.766   1.022 -0.3630 -3.2483 -0.0156
  921MOL0     H27095   9.219   5.771   1.347 -0.4518 -0.6697  0.7543
  921MOL0     H27096   9.346   5.567   1.120 -0.0452 -2.0421 -0.0767
  921MOL0     H27097   9.410   5.652   1.262 -0.2246  0.3983 -3.6457
  921MOL0     H27098   9.427   5.473   1.248  1.6125 -0.2916 -3.0472
  922MOL0     O27099   8.097  10.951   6.389 -0.3289 -0.2592  0.0284
  922MOL0     C27100   8.069  10.930   6.267 -0.0933 -0.2818  0.5796
  922MOL0     O27101   8.008  10.823   6.214  0.3119  0.3716 -0.2067
  922MOL0     C27102   7.966  10.715   6.303  0.8204 -0.5307  0.8665
  922MOL0     C27103   8.045  10.607   6.315  0.8928  0.9106 -0.5568
  922MOL0     C27104   8.029  10.522   6.423  0.7506  0.2962 -0.7912
  922MOL0     C27105   7.926  10.531   6.510 -0.1162  0.2322 -0.4780
  922MOL0     O27106   7.926  10.442   6.613  0.0072  0.5197 -0.9065
  922MOL0     C27107   7.795  10.403   6.664  0.0280 -0.5108 -0.2995
  922MOL0     C27108   7.719  10.322   6.555  0.3719 -0.2049 -0.3885
  922MOL0     C27109   7.628  10.223   6.610  0.6050  0.2408  1.3923
  922MOL0     C27110   7.640  10.088   6.528 -0.2919 -0.4966  0.0104
  922MOL0     C27111   7.578   9.973   6.606 -0.4176  0.6848 -0.3072
  922MOL0     C27112   7.583   9.841   6.521 -0.4194  0.0370  0.6090
  922MOL0     C27113   7.495   9.733   6.594  0.9816 -0.7883  1.9963
  922MOL0     C27114   7.543   9.686   6.726  0.3123  0.0922 -0.4737
  922MOL0     N27115   7.522   9.538   6.725  0.9890  0.6220  0.0036
  922MOL0     C27116   7.572   9.444   6.632  0.2685 -0.1050 -0.1457
  922MOL0     C27117   7.503   9.328   6.665 -0.7351  0.0880  0.4476
  922MOL0     C27118   7.477   9.211   6.583  0.7394  0.0188 -0.4570
  922MOL0     C27119   7.608   9.137   6.552 -0.5736  0.6904 -0.2315
  922MOL0     C27120   7.592   8.993   6.500  1.0973 -0.6809  0.3008
  922MOL0     C27121   7.726   8.937   6.451 -0.0145  0.3648  0.0196
  922MOL0     O27122   7.763   8.980   6.316 -0.3372  0.0352  0.1062
  922MOL0     C27123   7.897   8.964   6.280 -0.0074  0.6468 -0.3866
  922MOL0     C27124   7.960   8.842   6.309 -0.1859  0.0703 -0.4123
  922MOL0     C27125   8.087   8.810   6.280 -0.0088 -0.6916  0.0357
  922MOL0     C27126   8.138   8.674   6.335 -0.5022 -0.3951 -0.4124
  922MOL0     C27127   8.158   8.903   6.203 -1.1389  0.2140 -0.1982
  922MOL0     C27128   8.297   8.875   6.153  0.0806 -0.4020 -0.7824
  922MOL0     O27129   8.362   8.989   6.118 -0.6322  0.5138  0.0536
  922MOL0     C27130   8.492   8.976   6.073  0.5481  0.9886 -0.0622
  922MOL0     C27131   8.591   9.021   6.153 -0.2860 -0.1570  0.1526
  922MOL0     C27132   8.724   9.001   6.114  0.3487  0.0470  0.3504
  922MOL0     C27133   8.758   8.932   5.999  0.8194  1.0611 -0.1107
  922MOL0     O27134   8.882   8.921   5.946 -0.1869  0.4946 -0.4836
  922MOL0     C27135   8.970   9.037   5.966 -0.3191 -0.0058 -0.9562
  922MOL0     C27136   9.119   8.993   5.966 -0.7405 -0.5972 -0.8729
  922MOL0     C27137   9.158   8.879   6.071  0.4537  0.2471  0.8803
  922MOL0     C27138   9.123   8.918   6.221  0.3815  0.3599 -0.0819
  922MOL0     C27139   9.148   8.818   6.326 -0.1319  0.0296 -0.1457
  922MOL0     C27140   9.051   8.703   6.316  0.5196  0.2827 -0.3822
  922MOL0     C27141   9.044   8.610   6.444  0.0235  0.5421 -0.2968
  922MOL0     C27142   9.097   8.468   6.411  0.1425  0.3772 -0.2991
  922MOL0    Cl27143   9.085   8.352   6.540 -0.2017 -0.4145  0.1150
  922MOL0     C27144   8.646   8.886   5.926  0.2129 -0.2986  0.2421
  922MOL0     C27145   8.510   8.903   5.965  1.2145  1.1846  0.0513
  922MOL0     O27146   8.342   8.762   6.145  0.6208  1.0454 -0.3440
  922MOL0     C27147   8.095   9.033   6.176 -0.1995 -0.4593 -0.3064
  922MOL0     C27148   7.959   9.056   6.203  0.3194 -0.9184 -0.1655
  922MOL0     N27149   7.424   9.350   6.775  0.0430 -0.9095 -0.4313
  922MOL0     N27150   7.430   9.475   6.800  0.5232 -0.8082 -0.4231
  922MOL0     C27151   7.841  10.647   6.497  0.1812  0.6207  0.1651
  922MOL0     C27152   7.863  10.740   6.388  0.1224  0.4117 -0.1541
  922MOL0     C27153   8.120  11.026   6.179  0.3986  1.1983  0.2390
  922MOL0     C27154   8.119  11.161   6.215 -0.5870 -0.5628 -0.5591
  922MOL0     C27155   8.159  11.265   6.135  0.1314  0.8330  0.2337
  922MOL0     C27156   8.218  11.231   6.005  0.7383 -0.0327  0.3916
  922MOL0     O27157   8.265  11.322   5.917  0.7557 -0.1636  0.2047
  922MOL0     C27158   8.168  11.354   5.814  0.5148 -0.5843 -0.1410
  922MOL0     C27159   8.234  11.465   5.725  0.1792  0.1266 -0.3761
  922MOL0     C27160   8.128  11.518   5.627 -1.2356  0.6160  0.7282
  922MOL0     C27161   8.188  11.601   5.513  0.2537  0.0208 -0.2121
  922MOL0     C27162   8.090  11.680   5.447 -0.0656 -0.3125 -0.3207
  922MOL0     C27163   8.011  11.724   5.366 -0.1233 -0.6547 -0.3390
  922MOL0     C27164   8.224  11.098   5.968 -0.5976  0.3639  0.6053
  922MOL0     C27165   8.177  10.994   6.049 -0.4884 -0.0834 -0.7873
  922MOL0     C27166   8.205  10.850   5.999 -0.2452 -0.4713 -0.6203
  922MOL0     H27167   8.132  10.606   6.249  0.9221  1.0079 -0.5183
  922MOL0     H27168   8.092  10.436   6.439  0.4957  0.5461  2.1049
  922MOL0     H27169   7.744  10.495   6.696  1.4322 -0.2294  1.2376
  922MOL0     H27170   7.817  10.342   6.752 -2.2500 -0.9287  0.0555
  922MOL0     H27171   7.674  10.386   6.480 -1.4338 -0.0425  0.7765
  922MOL0     H27172   7.793  10.274   6.491  0.8668  1.3306 -1.0039
  922MOL0     H27173   7.662  10.197   6.711 -0.4943 -0.6897  1.5420
  922MOL0     H27174   7.524  10.255   6.619  0.5078 -0.0430  1.2625
  922MOL0     H27175   7.595  10.095   6.428  1.2718 -0.7732 -0.7323
  922MOL0     H27176   7.744  10.067   6.502 -1.3505 -1.7796 -4.0958
  922MOL0     H27177   7.478  10.003   6.642 -0.2585 -0.8273  1.5512
  922MOL0     H27178   7.636   9.941   6.693  0.1819  0.5617 -0.7481
  922MOL0     H27179   7.539   9.858   6.423 -1.1536 -1.0275  0.7331
  922MOL0     H27180   7.687   9.810   6.508 -0.2807 -0.2467  2.1719
  922MOL0     H27181   7.475   9.647   6.531  0.2482 -0.0209  1.1443
  922MOL0     H27182   7.395   9.774   6.614  0.9543  0.9162 -1.0200
  922MOL0     H27183   7.648   9.715   6.729 -0.3566  2.9730 -2.0019
  922MOL0     H27184   7.502   9.734   6.816  1.9132  0.1532  0.2684
  922MOL0     H27185   7.636   9.470   6.548  2.9899 -0.6714  1.6052
  922MOL0     H27186   7.426   9.244   6.492  0.7703  3.9926  0.7697
  922MOL0     H27187   7.411   9.149   6.644 -0.3753  4.5284  3.5218
  922MOL0     H27188   7.679   9.193   6.490  0.8518 -1.9374 -1.1017
  922MOL0     H27189   7.641   9.111   6.654 -0.5135 -0.9828 -0.6525
  922MOL0     H27190   7.550   8.933   6.581 -0.9717 -0.5448 -0.6004
  922MOL0     H27191   7.512   8.986   6.425 -0.6988  2.3760  1.7252
  922MOL0     H27192   7.794   8.961   6.532 -2.1392  1.2389  1.6345
  922MOL0     H27193   7.701   8.831   6.442 -3.7493  1.2219 -2.0096
  922MOL0     H27194   7.887   8.778   6.357 -1.6338  1.6672 -0.3944
  922MOL0     H27195   8.202   8.621   6.263  0.0599  0.5182 -0.6074
  922MOL0     H27196   8.064   8.597   6.357 -1.6117  0.8655  0.3615
  922MOL0     H27197   8.206   8.692   6.419  0.2915  3.3938 -1.6624
  922MOL0     H27198   8.577   9.078   6.244 -0.6547 -2.9493  1.9586
  922MOL0     H27199   8.801   9.046   6.176 -0.4352  0.7078  0.8776
  922MOL0     H27200   8.965   9.103   5.879  2.8601  2.6775  0.6739
  922MOL0     H27201   8.954   9.103   6.052  2.4480 -0.1841 -0.2218
  922MOL0     H27202   9.123   8.954   5.864 -5.3398  1.2660 -2.0326
  922MOL0     H27203   9.176   9.085   5.978 -1.4678 -0.3244  0.7661
  922MOL0     H27204   9.267   8.875   6.068  0.4122 -0.8426 -0.3252
  922MOL0     H27205   9.123   8.776   6.055  0.1496 -0.4206  4.8157
  922MOL0     H27206   9.019   8.943   6.241  1.6466  2.9911  4.7646
  922MOL0     H27207   9.190   9.004   6.233  0.4439  0.0748  1.9833
  922MOL0     H27208   9.250   8.783   6.311 -0.8645 -1.4023 -2.3750
  922MOL0     H27209   9.139   8.864   6.425  2.8007  1.2011 -0.3256
  922MOL0     H27210   9.088   8.645   6.231  0.6882 -2.5140  1.4658
  922MOL0     H27211   8.952   8.741   6.287 -0.0254 -0.8737 -0.0932
  922MOL0     H27212   8.939   8.603   6.474 -0.0470 -3.5385 -0.9734
  922MOL0     H27213   9.101   8.651   6.528 -0.9956  1.3620  0.0097
  922MOL0     H27214   9.200   8.474   6.375 -0.0671  0.6426 -0.8662
  922MOL0     H27215   9.054   8.422   6.322  1.2752 -2.6241  0.5866
  922MOL0     H27216   8.666   8.831   5.834 -0.8608  0.4313 -0.4491
  922MOL0     H27217   8.434   8.847   5.911  0.6284 -1.3105  3.1424
  922MOL0     H27218   8.160   9.109   6.133  2.7767 -2.2106  0.7232
  922MOL0     H27219   7.905   9.150   6.211 -1.1201 -1.6072 -1.1624
  922MOL0     H27220   7.764  10.671   6.570  1.2739 -1.9773  2.3110
  922MOL0     H27221   7.808  10.834   6.383  1.1483  1.0448  0.1407
  922MOL0     H27222   8.091  11.177   6.319  1.4847  2.4145 -0.3235
  922MOL0     H27223   8.146  11.370   6.159 -1.7825  0.7759 -0.3781
  922MOL0     H27224   8.146  11.263   5.757 -0.0708 -1.0753  0.8460
  922MOL0     H27225   8.077  11.389   5.863  0.8444 -2.9069  2.3632
  922MOL0     H27226   8.318  11.426   5.666  0.4769  1.8071 -1.1339
  922MOL0     H27227   8.267  11.533   5.805 -1.5233 -0.9498  1.3310
  922MOL0     H27228   8.081  11.429   5.584  1.3238 -0.1201 -0.7521
  922MOL0     H27229   8.058  11.578   5.687 -2.2283  0.4918 -0.2638
  922MOL0     H27230   8.248  11.539   5.446  0.5100 -0.6028  0.5724
  922MOL0     H27231   8.263  11.669   5.553  0.8506  0.2019 -1.5911
  922MOL0     H27232   7.928  11.762   5.310 -0.8917  1.3885  1.9806
  922MOL0     H27233   8.269  11.067   5.874  2.0149 -1.6081  2.3710
  922MOL0     H27234   8.110  10.809   5.963  0.3134 -2.1443 -0.2843
  922MOL0     H27235   8.280  10.856   5.920  0.4327 -0.8099 -0.0132
  922MOL0     H27236   8.242  10.781   6.076 -1.7498 -0.1070  0.4941
  923MOL0     O27237   7.087   2.661   7.105  0.0802  0.0363  0.4732
  923MOL0     C27238   7.047   2.739   7.195  1.0786 -0.9888  0.6333
  923MOL0     O27239   7.127   2.811   7.265  0.1354 -0.2077 -0.4920
  923MOL0     C27240   7.252   2.762   7.301 -0.6541  0.7021 -0.0009
  923MOL0     C27241   7.335   2.851   7.368 -0.2677  0.0995 -0.7755
  923MOL0     C27242   7.464   2.821   7.417 -0.2857  0.9003 -0.6036
  923MOL0     C27243   7.519   2.693   7.379 -0.8907 -1.6608  1.5381
  923MOL0     O27244   7.651   2.664   7.395 -0.5433 -0.1761 -0.0524
  923MOL0     C27245   7.724   2.716   7.272 -0.0846  0.6814  0.4069
  923MOL0     C27246   7.869   2.730   7.308 -0.6885 -0.4988 -0.3968
  923MOL0     C27247   7.914   2.860   7.376 -0.3301 -0.6246  0.4755
  923MOL0     C27248   7.877   2.991   7.300  0.4388 -0.4170  0.2669
  923MOL0     C27249   7.980   3.103   7.333 -0.0536  0.4942  0.3492
  923MOL0     C27250   7.940   3.233   7.262 -0.7165 -0.6162 -0.9114
  923MOL0     C27251   8.037   3.348   7.299 -0.6540 -0.1205  0.6616
  923MOL0     C27252   8.016   3.427   7.423 -0.0683  0.2016  0.4299
  923MOL0     N27253   8.121   3.527   7.451 -0.2882  0.0386 -0.2253
  923MOL0     C27254   8.214   3.592   7.368 -0.1463  0.1257  0.6383
  923MOL0     C27255   8.262   3.694   7.438  0.1992  0.8382 -0.4336
  923MOL0     C27256   8.343   3.805   7.381  0.5645 -0.4031 -0.4632
  923MOL0     C27257   8.254   3.925   7.336 -0.0624 -0.3134  0.6402
  923MOL0     C27258   8.181   3.897   7.206  1.0714 -0.8951 -0.0860
  923MOL0     C27259   8.132   4.034   7.161  0.0230  0.4127 -0.4697
  923MOL0     O27260   8.238   4.104   7.102  0.3534 -0.0681 -0.1926
  923MOL0     C27261   8.282   4.093   6.974 -1.3631  0.0988 -0.1876
  923MOL0     C27262   8.199   4.052   6.867 -0.2311  0.5226  0.3756
  923MOL0     C27263   8.254   4.035   6.740 -0.1552 -0.5741 -0.5750
  923MOL0     C27264   8.165   3.981   6.637 -0.3767  1.0312  0.7627
  923MOL0     C27265   8.395   4.059   6.726 -0.6096  0.2724  0.4016
  923MOL0     C27266   8.474   4.060   6.597 -0.1080 -0.0917  0.3858
  923MOL0     O27267   8.606   4.078   6.603  0.3116 -0.1731  0.1670
  923MOL0     C27268   8.689   4.052   6.489  0.8377  0.4311 -0.4203
  923MOL0     C27269   8.655   4.034   6.356 -0.9798  0.7709  0.5822
  923MOL0     C27270   8.745   3.996   6.251  0.0464 -0.1701 -0.5339
  923MOL0     C27271   8.884   3.982   6.279  0.0534  0.5465  1.0980
  923MOL0     O27272   8.968   3.964   6.168  0.1865 -0.3713 -0.1628
  923MOL0     C27273   9.108   3.952   6.203 -0.6332  0.1821 -0.2034
  923MOL0     C27274   9.174   3.958   6.076 -0.2418  0.1519 -0.2898
  923MOL0     C27275   9.323   3.936   6.111  0.6462  0.7360  0.1926
  923MOL0     C27276   9.410   3.890   5.993  0.3855  0.5661 -0.1035
  923MOL0     C27277   9.552   3.852   6.021 -0.6691 -0.7116 -0.2830
  923MOL0     C27278   9.623   3.962   6.099 -0.9479 -0.2056 -0.2813
  923MOL0     C27279   9.633   4.096   6.018 -0.4395  0.0598 -0.4806
  923MOL0     C27280   9.710   4.206   6.091 -0.1645 -0.1298  0.0518
  923MOL0    Cl27281   9.877   4.137   6.133 -0.1308  0.4071 -0.4381
  923MOL0     C27282   8.915   3.987   6.419 -0.7529  0.6288  0.0518
  923MOL0     C27283   8.823   4.027   6.518 -0.2049 -0.8820 -0.1294
  923MOL0     O27284   8.408   4.045   6.495 -0.6883  0.5686 -1.1201
  923MOL0     C27285   8.470   4.102   6.837 -0.2037 -0.5069 -0.6033
  923MOL0     C27286   8.414   4.118   6.957 -0.4975 -0.2853  0.2940
  923MOL0     N27287   8.220   3.677   7.567 -0.6365 -0.0009 -0.3390
  923MOL0     N27288   8.122   3.587   7.577 -0.9359 -0.2975  0.1079
  923MOL0     C27289   7.432   2.602   7.324  0.0885 -0.0664 -0.6352
  923MOL0     C27290   7.299   2.633   7.288  0.1631  0.0661 -0.4141
  923MOL0     C27291   6.902   2.777   7.237  1.9139  0.2840 -0.2704
  923MOL0     C27292   6.886   2.869   7.343  0.3348  0.1868  0.0624
  923MOL0     C27293   6.751   2.903   7.374  0.4243 -0.1973  0.5732
  923MOL0     C27294   6.639   2.845   7.315  0.8302 -0.3714 -0.6675
  923MOL0     O27295   6.509   2.875   7.361  0.4926  0.2236 -0.0229
  923MOL0     C27296   6.479   2.847   7.497 -0.1442  0.4074 -0.0365
  923MOL0     C27297   6.353   2.922   7.527 -1.2369 -0.0198  0.1822
  923MOL0     C27298   6.319   2.912   7.677  0.2032  0.4802  0.2865
  923MOL0     C27299   6.259   2.767   7.720  0.1288  0.2424 -0.7231
  923MOL0     C27300   6.201   2.767   7.856  0.2413 -0.2408  0.6234
  923MOL0     C27301   6.147   2.785   7.964  0.2522 -0.1720 -0.3272
  923MOL0     C27302   6.660   2.748   7.218  0.2305 -0.4680  0.0011
  923MOL0     C27303   6.786   2.715   7.178 -0.5396 -0.5038  0.8839
  923MOL0     C27304   6.789   2.618   7.069 -0.4771 -0.4779 -0.8867
  923MOL0     H27305   7.306   2.953   7.392 -1.3189  0.8371 -4.5484
  923MOL0     H27306   7.519   2.902   7.464 -1.2337  1.1989  0.0236
  923MOL0     H27307   7.688   2.810   7.230  2.5749  2.4513  1.7633
  923MOL0     H27308   7.731   2.636   7.197  2.1320  0.5352  0.7092
  923MOL0     H27309   7.896   2.650   7.378  1.6105  0.5009 -0.0333
  923MOL0     H27310   7.932   2.721   7.219 -0.3710  1.1333 -0.3637
  923MOL0     H27311   7.869   2.859   7.476 -4.2225  1.8139 -1.0277
  923MOL0     H27312   8.022   2.861   7.391 -0.3018  0.8189  0.3466
  923MOL0     H27313   7.864   2.969   7.193 -1.8141 -0.5392  0.5117
  923MOL0     H27314   7.774   3.027   7.313 -0.8081 -1.0968 -5.1135
  923MOL0     H27315   8.081   3.073   7.305  0.9673  3.0689  0.9720
  923MOL0     H27316   7.976   3.126   7.440 -1.8778  0.9751  0.2175
  923MOL0     H27317   7.934   3.218   7.154  0.9368  3.2766 -1.7176
  923MOL0     H27318   7.844   3.257   7.309 -0.9523 -1.4198 -0.9617
  923MOL0     H27319   8.035   3.416   7.213  1.7273  1.1972  1.5441
  923MOL0     H27320   8.140   3.314   7.300  0.3228  2.4294  3.3787
  923MOL0     H27321   7.922   3.483   7.422 -0.0592  0.4502  3.4512
  923MOL0     H27322   8.010   3.356   7.505  1.7119  0.4850  0.8629
  923MOL0     H27323   8.232   3.566   7.264 -0.0052  0.4429  0.5832
  923MOL0     H27324   8.414   3.768   7.307  2.3133  0.7964  0.5343
  923MOL0     H27325   8.411   3.830   7.464  1.0151 -3.7890  0.3652
  923MOL0     H27326   8.177   3.949   7.410 -0.4455 -0.4065  0.2731
  923MOL0     H27327   8.318   4.010   7.313  0.5619 -0.8281  0.4450
  923MOL0     H27328   8.256   3.857   7.138 -0.4908 -0.1381 -2.3651
  923MOL0     H27329   8.093   3.832   7.219  0.4272 -0.4285 -1.8404
  923MOL0     H27330   8.046   4.017   7.096 -1.8037  0.8268  1.7077
  923MOL0     H27331   8.093   4.091   7.246 -3.6550  1.3318 -2.5690
  923MOL0     H27332   8.094   4.028   6.880  0.1801 -0.6461  1.8634
  923MOL0     H27333   8.212   3.894   6.592 -0.5728 -0.0875  2.5909
  923MOL0     H27334   8.149   4.058   6.561  1.7102  0.3988 -0.3821
  923MOL0     H27335   8.075   3.957   6.695  0.8650  2.3963  3.4751
  923MOL0     H27336   8.557   4.069   6.325 -0.4347  0.2138 -2.0038
  923MOL0     H27337   8.712   3.983   6.149  0.4531 -1.8087 -0.4864
  923MOL0     H27338   9.147   4.037   6.259 -0.5241  0.0165 -0.0268
  923MOL0     H27339   9.131   3.854   6.246 -0.6973 -0.4986 -1.6405
  923MOL0     H27340   9.147   3.878   6.006  2.2568 -1.0594  0.0094
  923MOL0     H27341   9.166   4.058   6.031 -0.9037 -0.7703 -2.3042
  923MOL0     H27342   9.335   3.865   6.194 -1.5704  2.0322  1.7219
  923MOL0     H27343   9.363   4.032   6.142  1.8625  0.9309 -1.7961
  923MOL0     H27344   9.410   3.970   5.918 -0.0932 -0.9230 -1.7494
  923MOL0     H27345   9.355   3.806   5.950  0.8509 -0.5720  1.4301
  923MOL0     H27346   9.538   3.763   6.082  0.0709  0.5481  1.8031
  923MOL0     H27347   9.605   3.835   5.927 -3.7368 -3.1629 -1.7463
  923MOL0     H27348   9.721   3.915   6.110 -0.4850  1.0059  1.1535
  923MOL0     H27349   9.584   3.983   6.199  2.8001  3.0996  0.7357
  923MOL0     H27350   9.535   4.137   5.990 -0.8300 -1.4690 -1.4505
  923MOL0     H27351   9.680   4.065   5.924  1.7849 -2.2029  1.2365
  923MOL0     H27352   9.646   4.245   6.171  0.0615  2.5750 -0.9677
  923MOL0     H27353   9.730   4.295   6.032  3.5778 -1.6283 -1.2450
  923MOL0     H27354   9.017   3.965   6.449 -0.9625 -0.8438 -0.2414
  923MOL0     H27355   8.867   4.021   6.617  1.6571  2.5599 -0.6116
  923MOL0     H27356   8.574   4.130   6.827 -0.4492  1.8205  2.1181
  923MOL0     H27357   8.466   4.158   7.043 -1.0504 -1.6477  1.3094
  923MOL0     H27358   7.470   2.502   7.305  3.2735  0.7820  0.5879
  923MOL0     H27359   7.239   2.558   7.237  1.3158  0.3429 -2.3151
  923MOL0     H27360   6.971   2.897   7.403  0.8205 -0.2371 -0.4208
  923MOL0     H27361   6.726   2.978   7.449 -1.8979 -0.8863  0.5577
  923MOL0     H27362   6.478   2.739   7.518 -0.4665  0.6131  1.0367
  923MOL0     H27363   6.567   2.879   7.553 -2.2191  1.5944  2.8325
  923MOL0     H27364   6.271   2.876   7.471 -0.6152 -0.3180 -0.4855
  923MOL0     H27365   6.372   3.025   7.499  1.9786 -0.9024 -1.3223
  923MOL0     H27366   6.415   2.932   7.724  0.6735  0.4389 -0.6377
  923MOL0     H27367   6.252   2.995   7.703  1.1437  1.5466 -0.5590
  923MOL0     H27368   6.336   2.690   7.708  0.6609  0.7290 -0.4652
  923MOL0     H27369   6.182   2.754   7.644  2.3010  1.9132 -3.4059
  923MOL0     H27370   6.104   2.791   8.062  2.1780 -2.1245  0.7264
  923MOL0     H27371   6.575   2.712   7.160 -0.4624  1.9896 -0.6404
  923MOL0     H27372   6.821   2.518   7.099 -0.5291 -0.2605 -0.0952
  923MOL0     H27373   6.694   2.601   7.018 -0.0152 -0.3740 -1.8039
  923MOL0     H27374   6.850   2.656   6.986 -1.4893  0.0247 -1.4204
  924MOL0     O27375  10.119   1.027  10.671  0.1432 -0.0738  0.9952
  924MOL0     C27376   9.995   1.019  10.650 -0.0226  0.5128 -0.0792
  924MOL0     O27377   9.936   1.001  10.534 -0.6354 -0.4654 -0.4143
  924MOL0     C27378  10.003   0.918  10.440 -0.5616 -0.4336  0.1526
  924MOL0     C27379  10.036   0.975  10.322  1.0411 -0.6170  0.8427
  924MOL0     C27380  10.110   0.912  10.217 -0.6193 -0.1060 -0.2087
  924MOL0     C27381  10.152   0.776  10.237 -0.3031  1.0243  1.1638
  924MOL0     O27382  10.221   0.709  10.138 -0.3032 -0.2402  0.0096
  924MOL0     C27383  10.335   0.789  10.075 -0.1217 -0.6150  0.1692
  924MOL0     C27384  10.327   0.813   9.922 -0.9464 -0.2121 -0.9475
  924MOL0     C27385  10.228   0.914   9.889  0.2658  0.3351  0.8450
  924MOL0     C27386  10.215   0.922   9.729 -0.2995 -0.4969 -0.0459
  924MOL0     C27387  10.277   1.049   9.679 -0.0865  0.7538  0.4791
  924MOL0     C27388  10.265   1.069   9.529  0.3270  0.2300 -0.3078
  924MOL0     C27389  10.121   1.057   9.465 -0.2719  0.6148 -0.8520
  924MOL0     C27390  10.026   1.171   9.511  0.7001  0.5182 -0.5042
  924MOL0     N27391   9.895   1.179   9.444  0.3084 -0.1198 -0.5018
  924MOL0     C27392   9.780   1.111   9.494  0.3112 -0.0814 -0.2382
  924MOL0     C27393   9.677   1.175   9.436  0.3156 -0.4601  0.9380
  924MOL0     C27394   9.520   1.160   9.448  0.2383  0.2823 -0.2539
  924MOL0     C27395   9.452   1.229   9.567  0.4217 -0.3476  0.9835
  924MOL0     C27396   9.403   1.364   9.514  0.3497 -0.0845 -1.2782
  924MOL0     C27397   9.302   1.430   9.610  0.9130 -0.3766  0.1071
  924MOL0     O27398   9.356   1.452   9.741 -0.7998  0.3904 -0.1958
  924MOL0     C27399   9.370   1.581   9.773 -0.1545 -1.0959 -1.1734
  924MOL0     C27400   9.441   1.673   9.688 -0.0811 -0.6757 -0.2220
  924MOL0     C27401   9.445   1.815   9.713  0.5067  0.1742 -0.1658
  924MOL0     C27402   9.550   1.897   9.632 -0.1219 -0.3846  0.0331
  924MOL0     C27403   9.377   1.863   9.814  0.3002  0.0285 -0.0220
  924MOL0     C27404   9.384   1.991   9.876 -0.4780  0.1581  0.0801
  924MOL0     O27405   9.499   2.016   9.942  0.3394 -0.7457 -0.3807
  924MOL0     C27406   9.516   2.151   9.985  0.0871  0.0604  0.1661
  924MOL0     C27407   9.449   2.211  10.092 -0.6930 -0.8691  0.8383
  924MOL0     C27408   9.475   2.345  10.138 -0.0521 -0.2081 -0.3041
  924MOL0     C27409   9.571   2.419  10.064  0.0676  1.0205 -0.4718
  924MOL0     O27410   9.593   2.552  10.093 -0.0432  0.3475  0.4730
  924MOL0     C27411   9.639   2.580  10.222 -0.9149  0.4569 -1.0434
  924MOL0     C27412   9.655   2.724  10.246  0.1151 -0.8907 -0.1994
  924MOL0     C27413   9.674   2.773  10.395  0.0282  0.0244 -0.2071
  924MOL0     C27414   9.545   2.766  10.488  0.0376 -0.3931 -0.2134
  924MOL0     C27415   9.586   2.827  10.629  0.4594 -0.4463 -0.5433
  924MOL0     C27416   9.691   2.736  10.709  1.0811 -0.4136  0.0408
  924MOL0     C27417   9.696   2.766  10.856 -1.3582  0.0035 -0.1788
  924MOL0     C27418   9.765   2.652  10.920  0.2520  1.0688 -0.5570
  924MOL0    Cl27419   9.815   2.700  11.085 -0.3131 -0.0378 -0.1404
  924MOL0     C27420   9.630   2.352   9.954  0.2613 -0.0263  0.4913
  924MOL0     C27421   9.607   2.224   9.909  0.2809  0.4230  0.6182
  924MOL0     O27422   9.282   2.063   9.869 -0.2628  0.2800 -1.0924
  924MOL0     C27423   9.318   1.770   9.903  0.7905 -0.2723  0.4819
  924MOL0     C27424   9.308   1.634   9.882 -0.4933  0.4844  0.0179
  924MOL0     N27425   9.727   1.279   9.356  0.2926 -0.6408  0.4811
  924MOL0     N27426   9.855   1.277   9.364 -0.0298 -0.2819  0.5463
  924MOL0     C27427  10.111   0.711  10.358  0.1646 -1.3893 -0.2687
  924MOL0     C27428  10.050   0.788  10.462 -0.2707  0.4893 -0.6699
  924MOL0     C27429   9.923   1.091  10.759 -0.6637 -0.3307  0.7937
  924MOL0     C27430   9.857   1.206  10.723 -0.3833  0.5777 -0.8019
  924MOL0     C27431   9.789   1.281  10.821  0.0137 -0.5385  0.3051
  924MOL0     C27432   9.782   1.246  10.958 -0.8884 -0.6040 -0.1393
  924MOL0     O27433   9.723   1.334  11.051  0.0511  0.6601  0.6207
  924MOL0     C27434   9.744   1.321  11.194 -0.2019  0.0866 -0.1793
  924MOL0     C27435   9.640   1.223  11.260 -0.2311 -0.0264  0.2152
  924MOL0     C27436   9.498   1.288  11.270  0.4865  0.0246  0.7774
  924MOL0     C27437   9.409   1.278  11.145 -1.1195  0.1239 -0.6515
  924MOL0     C27438   9.274   1.277  11.182 -0.5298  0.6685 -0.5743
  924MOL0     C27439   9.160   1.281  11.216 -0.2108 -0.0368 -0.2053
  924MOL0     C27440   9.863   1.135  10.996  0.3739 -0.3380  0.5904
  924MOL0     C27441   9.917   1.045  10.899  0.3970 -0.9543  0.1354
  924MOL0     C27442   9.990   0.917  10.944 -0.0780  0.1937  0.4927
  924MOL0     H27443   9.995   1.073  10.298 -2.8143 -2.9036 -3.4267
  924MOL0     H27444  10.129   0.972  10.128 -1.8616  0.7901  0.0923
  924MOL0     H27445  10.429   0.737  10.095  0.8343  1.3242  0.9639
  924MOL0     H27446  10.343   0.885  10.127  1.0248  0.2386 -1.5016
  924MOL0     H27447  10.430   0.841   9.896 -0.9087  0.4106 -0.1766
  924MOL0     H27448  10.308   0.716   9.876  0.5956 -0.0240 -2.0359
  924MOL0     H27449  10.128   0.892   9.927  0.3216 -0.1772  0.6987
  924MOL0     H27450  10.260   1.011   9.928  2.3310  1.1202 -2.4359
  924MOL0     H27451  10.257   0.831   9.686 -1.2441 -1.0690  0.1979
  924MOL0     H27452  10.107   0.927   9.709 -0.6365 -1.2934  1.4175
  924MOL0     H27453  10.383   1.048   9.704 -0.3699 -1.2137  1.8964
  924MOL0     H27454  10.221   1.135   9.716 -2.4699  0.6368 -2.4787
  924MOL0     H27455  10.311   1.166   9.511  1.8177 -0.4540 -0.3289
  924MOL0     H27456  10.333   0.994   9.487 -0.2418  1.1511 -3.0780
  924MOL0     H27457  10.076   0.965   9.504 -1.4100  0.4957 -2.3386
  924MOL0     H27458  10.132   1.043   9.357  3.5748 -0.0848 -0.5165
  924MOL0     H27459  10.008   1.172   9.619  1.7251 -4.7832 -0.0221
  924MOL0     H27460  10.092   1.254   9.484  5.8499 -2.8919  0.1324
  924MOL0     H27461   9.778   1.033   9.569  0.4848 -1.8581 -2.0030
  924MOL0     H27462   9.507   1.054   9.473 -0.2035  0.8051  1.9503
  924MOL0     H27463   9.474   1.178   9.351 -2.5521  0.8359  1.0807
  924MOL0     H27464   9.370   1.160   9.592 -0.0656 -0.1594 -0.0592
  924MOL0     H27465   9.518   1.236   9.654 -1.4621  1.0639  2.3998
  924MOL0     H27466   9.471   1.438   9.470  2.8264 -0.7928  1.0692
  924MOL0     H27467   9.339   1.333   9.431 -0.8118 -0.8570 -0.1263
  924MOL0     H27468   9.247   1.513   9.565 -5.6956 -3.2868  1.6054
  924MOL0     H27469   9.222   1.358   9.625  0.8755 -0.7527 -1.7059
  924MOL0     H27470   9.487   1.638   9.596  1.5733  2.3628 -0.6996
  924MOL0     H27471   9.654   1.879   9.662  0.0284  2.3848  1.4123
  924MOL0     H27472   9.531   2.003   9.650  2.9218  0.1811  0.4183
  924MOL0     H27473   9.550   1.886   9.523  1.2875  3.2281 -0.4522
  924MOL0     H27474   9.369   2.157  10.142 -2.4794 -0.3244 -1.2983
  924MOL0     H27475   9.441   2.384  10.233 -1.0660 -3.9425  1.0373
  924MOL0     H27476   9.584   2.544  10.309  0.2243  3.2578  1.0130
  924MOL0     H27477   9.736   2.528  10.223 -1.9970 -1.6948  1.2483
  924MOL0     H27478   9.737   2.761  10.182 -0.9640 -1.3580 -1.9287
  924MOL0     H27479   9.570   2.780  10.206  2.3752  2.9946 -0.0578
  924MOL0     H27480   9.699   2.880  10.385 -2.8003  0.7588 -0.2636
  924MOL0     H27481   9.757   2.730  10.451  1.4892  2.5304 -0.2535
  924MOL0     H27482   9.514   2.663  10.511 -3.5126  0.6480  0.2687
  924MOL0     H27483   9.454   2.813  10.448 -1.5899 -1.5072  1.9607
  924MOL0     H27484   9.631   2.927  10.631  0.3878 -0.4175  1.3769
  924MOL0     H27485   9.497   2.835  10.691  0.6428 -0.3090 -0.2944
  924MOL0     H27486   9.790   2.748  10.665  3.0322  1.0771  4.3038
  924MOL0     H27487   9.642   2.638  10.704 -0.8301  0.5315 -0.6460
  924MOL0     H27488   9.601   2.786  10.906 -1.2071  1.6777 -0.5038
  924MOL0     H27489   9.750   2.861  10.858 -1.9178  0.3084  1.0028
  924MOL0     H27490   9.853   2.624  10.860  1.6196  0.7597  1.4932
  924MOL0     H27491   9.710   2.557  10.911  3.5434 -0.8988 -1.9389
  924MOL0     H27492   9.711   2.405   9.906 -1.1734  0.7624 -1.1832
  924MOL0     H27493   9.672   2.178   9.835 -0.0752  1.3142 -0.2660
  924MOL0     H27494   9.282   1.820   9.992 -0.4088 -0.7902  0.3222
  924MOL0     H27495   9.255   1.564   9.946 -0.7644  1.6970  1.1694
  924MOL0     H27496  10.131   0.604  10.362 -3.7508 -2.2422  0.4180
  924MOL0     H27497  10.032   0.736  10.556  0.6409  0.9791 -0.2075
  924MOL0     H27498   9.866   1.232  10.618  1.0034 -1.8759 -1.3702
  924MOL0     H27499   9.747   1.375  10.787  0.2438 -0.5728 -0.0778
  924MOL0     H27500   9.844   1.280  11.213 -0.4129 -0.0285  0.6924
  924MOL0     H27501   9.742   1.421  11.237  1.3289  0.6799 -1.3792
  924MOL0     H27502   9.674   1.194  11.360 -1.0155 -1.8097  0.0119
  924MOL0     H27503   9.656   1.139  11.191  1.8997  1.4677 -1.2149
  924MOL0     H27504   9.443   1.241  11.353 -0.1533  0.2317  0.4755
  924MOL0     H27505   9.511   1.396  11.285 -2.9819  0.6696  0.1230
  924MOL0     H27506   9.428   1.186  11.089 -2.8032 -1.2944  0.9623
  924MOL0     H27507   9.426   1.370  11.090  3.5375  0.7147  1.2670
  924MOL0     H27508   9.057   1.299  11.243 -0.3893  0.4017 -1.1348
  924MOL0     H27509   9.862   1.113  11.102  0.4773  3.1521  1.4333
  924MOL0     H27510  10.091   0.901  10.907  0.4979 -1.1005  2.4936
  924MOL0     H27511   9.999   0.917  11.053  2.1894  0.4434  0.3551
  924MOL0     H27512   9.941   0.827  10.906 -0.7886  1.3553 -1.5226
  925MOL0     O27513   6.849   6.131   1.555 -0.4495 -0.2906  0.1286
  925MOL0     C27514   6.843   6.025   1.500  0.7505  1.2988 -0.0180
  925MOL0     O27515   6.746   5.922   1.533 -0.1846  0.2078  0.0350
  925MOL0     C27516   6.643   5.946   1.627 -0.2494  0.2291  1.0640
  925MOL0     C27517   6.558   6.053   1.623  0.4459 -0.8582 -0.3992
  925MOL0     C27518   6.452   6.063   1.718 -0.8058  0.3282 -0.1586
  925MOL0     C27519   6.441   5.975   1.821  0.4161 -0.5762  0.5659
  925MOL0     O27520   6.329   5.976   1.902 -0.8201 -0.5804  0.9556
  925MOL0     C27521   6.311   6.097   1.974 -0.3838  0.4757  0.5697
  925MOL0     C27522   6.205   6.093   2.080 -0.1295  0.0619 -0.2414
  925MOL0     C27523   6.065   6.054   2.028  0.4398  1.0519  0.0788
  925MOL0     C27524   5.978   6.026   2.150  0.0110 -0.1601 -0.2119
  925MOL0     C27525   5.844   5.977   2.098  0.2849 -0.0207  0.3966
  925MOL0     C27526   5.769   5.925   2.233 -0.0379  0.2521 -0.6981
  925MOL0     C27527   5.811   5.777   2.266 -0.3343 -0.2730 -0.1757
  925MOL0     C27528   5.702   5.725   2.365 -0.6470  0.7451  0.4777
  925MOL0     N27529   5.715   5.792   2.492 -0.4528  0.4461  0.2068
  925MOL0     C27530   5.639   5.891   2.542 -0.5592 -0.8525 -0.7387
  925MOL0     C27531   5.673   5.911   2.677 -0.5142 -0.1418 -0.2344
  925MOL0     C27532   5.609   6.008   2.773 -0.4953  0.5972  1.4240
  925MOL0     C27533   5.540   5.943   2.889  1.4517  0.2548  0.7089
  925MOL0     C27534   5.439   6.041   2.958  0.2080 -0.1093  0.1066
  925MOL0     C27535   5.348   5.977   3.062  0.3151 -0.5884  0.8941
  925MOL0     O27536   5.294   5.862   2.995 -0.3334 -0.0244  0.0481
  925MOL0     C27537   5.165   5.816   3.020 -0.2451 -0.9170  0.3234
  925MOL0     C27538   5.109   5.721   2.939  0.1951  1.0759  0.3289
  925MOL0     C27539   4.973   5.676   2.949  0.1938  0.3477 -1.0373
  925MOL0     C27540   4.925   5.571   2.853 -1.1559  0.2763  0.0191
  925MOL0     C27541   4.897   5.726   3.055  0.1252  0.0243  0.2346
  925MOL0     C27542   4.752   5.689   3.075 -0.2441 -0.3053  0.5357
  925MOL0     O27543   4.670   5.785   3.115 -0.0263  0.2026 -0.7965
  925MOL0     C27544   4.574   5.739   3.197  0.7628 -0.4160  0.5468
  925MOL0     C27545   4.460   5.672   3.158 -0.7951  0.1596  0.8733
  925MOL0     C27546   4.352   5.669   3.244 -0.6949 -0.1064  0.6342
  925MOL0     C27547   4.351   5.719   3.371  0.2882  0.8211 -0.6115
  925MOL0     O27548   4.240   5.739   3.448  0.7606  0.6450 -0.3546
  925MOL0     C27549   4.123   5.673   3.388  0.8344 -0.3850  0.2438
  925MOL0     C27550   3.996   5.672   3.474 -0.6991  0.2360  0.8962
  925MOL0     C27551   4.019   5.589   3.601  0.3253  0.1544  0.4360
  925MOL0     C27552   3.879   5.540   3.655 -0.1167 -1.1629  0.0181
  925MOL0     C27553   3.896   5.440   3.771 -0.6820 -0.8416  0.0822
  925MOL0     C27554   3.761   5.429   3.841  0.2284  0.0456 -0.3588
  925MOL0     C27555   3.755   5.313   3.932 -0.0985  0.8656 -0.5378
  925MOL0     C27556   3.742   5.179   3.852 -0.8507 -0.2153 -0.5679
  925MOL0    Cl27557   3.790   5.055   3.960 -0.3953  0.0982 -0.1598
  925MOL0     C27558   4.472   5.778   3.415  0.1902 -0.7296 -0.0978
  925MOL0     C27559   4.583   5.782   3.329  0.0633  0.5701 -0.7048
  925MOL0     O27560   4.723   5.565   3.057 -0.9632  0.1588  0.2729
  925MOL0     C27561   4.953   5.813   3.144  0.7088  0.1038  0.0915
  925MOL0     C27562   5.082   5.861   3.126  0.1792 -0.4197 -0.0071
  925MOL0     N27563   5.773   5.817   2.708 -0.0444  0.2212  0.4219
  925MOL0     N27564   5.799   5.755   2.596 -0.0354  0.1706 -0.0171
  925MOL0     C27565   6.520   5.863   1.818 -0.9041 -0.0190  1.3522
  925MOL0     C27566   6.611   5.843   1.711  0.3028 -0.9560 -0.1646
  925MOL0     C27567   6.946   6.003   1.399  0.1400 -0.7602  0.2054
  925MOL0     C27568   6.975   5.874   1.361 -0.4953 -0.0734  0.5722
  925MOL0     C27569   7.069   5.836   1.266  0.0212  0.9587  0.7537
  925MOL0     C27570   7.139   5.930   1.205  0.1412 -1.2964  0.1566
  925MOL0     O27571   7.235   5.886   1.121 -0.0365  0.1793  0.7851
  925MOL0     C27572   7.253   5.960   0.993 -0.1348 -0.4273 -0.0463
  925MOL0     C27573   7.342   5.880   0.892  0.2633 -0.0805  0.5585
  925MOL0     C27574   7.277   5.732   0.879 -0.4747 -0.4390 -0.1547
  925MOL0     C27575   7.131   5.732   0.834 -0.2623  0.2681 -0.0653
  925MOL0     C27576   7.113   5.781   0.694  1.4984 -0.2965  0.2536
  925MOL0     C27577   7.118   5.825   0.577  0.6187  0.8216  0.5789
  925MOL0     C27578   7.115   6.074   1.237 -0.0022  0.3000  0.7822
  925MOL0     C27579   7.014   6.114   1.325 -0.2992  0.7070 -0.5116
  925MOL0     C27580   6.988   6.259   1.336 -0.1868  1.1150 -0.8219
  925MOL0     H27581   6.567   6.127   1.544 -3.0531  0.6894  0.4760
  925MOL0     H27582   6.411   6.163   1.719  1.2346  1.2466 -1.1802
  925MOL0     H27583   6.294   6.181   1.906  1.4273 -1.2268 -2.2194
  925MOL0     H27584   6.407   6.127   2.018  0.6812  0.4993 -1.6221
  925MOL0     H27585   6.238   6.016   2.151  1.8533  2.8962  2.1580
  925MOL0     H27586   6.205   6.185   2.139  1.5462  0.0228 -0.1263
  925MOL0     H27587   6.011   6.123   1.963 -2.1678 -1.5321 -0.7126
  925MOL0     H27588   6.068   5.961   1.971 -2.9398  0.7268  0.2087
  925MOL0     H27589   6.029   5.954   2.214 -1.2940 -0.8603  0.0529
  925MOL0     H27590   5.965   6.118   2.208  0.6624 -0.0384 -0.2483
  925MOL0     H27591   5.858   5.900   2.022  0.0220  1.6304 -1.3910
  925MOL0     H27592   5.792   6.064   2.056 -0.8612  0.4893  2.6729
  925MOL0     H27593   5.788   5.996   2.314 -0.5871  0.8737 -1.1024
  925MOL0     H27594   5.662   5.930   2.211  0.1835 -0.9662 -2.2738
  925MOL0     H27595   5.908   5.771   2.314 -1.2352 -0.4544  1.7214
  925MOL0     H27596   5.818   5.718   2.175  4.1888 -0.4711  0.0893
  925MOL0     H27597   5.603   5.734   2.319  0.1411 -2.1522 -2.1431
  925MOL0     H27598   5.706   5.617   2.382  0.1096  0.4727 -1.2214
  925MOL0     H27599   5.564   5.955   2.498  1.8015  2.0713 -0.8828
  925MOL0     H27600   5.547   6.086   2.728 -1.7507 -1.2642 -0.2047
  925MOL0     H27601   5.696   6.065   2.810  0.6768  2.0813 -3.0120
  925MOL0     H27602   5.487   5.858   2.844  1.9365  0.3726 -0.1034
  925MOL0     H27603   5.617   5.926   2.964  2.1914  2.0386  0.4196
  925MOL0     H27604   5.497   6.108   3.021 -0.0131 -0.3018  0.5148
  925MOL0     H27605   5.376   6.101   2.892 -0.4819 -0.1824  0.6939
  925MOL0     H27606   5.403   5.965   3.155  1.1341  2.9036  1.0137
  925MOL0     H27607   5.271   6.051   3.087  0.1395  0.6237 -2.6698
  925MOL0     H27608   5.174   5.688   2.858 -1.7358  0.6605 -1.1308
  925MOL0     H27609   5.010   5.545   2.788  0.8559  0.8256  2.2805
  925MOL0     H27610   4.834   5.587   2.795  1.1848  1.5106 -3.7272
  925MOL0     H27611   4.902   5.473   2.896 -3.4246 -1.2068 -3.9622
  925MOL0     H27612   4.458   5.644   3.053  0.6376  1.2167  0.5294
  925MOL0     H27613   4.266   5.638   3.187 -1.6930  0.8846  1.5617
  925MOL0     H27614   4.104   5.724   3.293  4.2603 -4.1873 -2.8124
  925MOL0     H27615   4.146   5.568   3.369 -2.5668 -1.3739  0.7739
  925MOL0     H27616   3.967   5.776   3.492 -0.5253  0.2436  1.1243
  925MOL0     H27617   3.913   5.631   3.415 -0.1832  1.4030 -0.7266
  925MOL0     H27618   4.071   5.645   3.679  0.3239  2.8537 -1.3592
  925MOL0     H27619   4.071   5.501   3.561 -0.4557  0.9579 -2.5626
  925MOL0     H27620   3.824   5.510   3.566 -0.1011  0.6900 -0.6620
  925MOL0     H27621   3.832   5.633   3.689  1.8967  0.0792 -0.4576
  925MOL0     H27622   3.932   5.343   3.738  3.1591  0.6762 -0.6405
  925MOL0     H27623   3.974   5.470   3.841 -3.8217  1.9249  2.7828
  925MOL0     H27624   3.679   5.432   3.768  1.1145  0.6487 -1.3628
  925MOL0     H27625   3.754   5.520   3.900 -2.4042 -0.8499  0.8581
  925MOL0     H27626   3.664   5.321   3.992  0.3343  2.2078 -0.0212
  925MOL0     H27627   3.847   5.332   3.990 -0.8611 -0.3656  1.1633
  925MOL0     H27628   3.799   5.197   3.761  0.4497  3.1104  0.7235
  925MOL0     H27629   3.641   5.165   3.813  0.0409 -0.4034 -2.9852
  925MOL0     H27630   4.486   5.823   3.513  1.9038  2.6924 -1.7215
  925MOL0     H27631   4.676   5.828   3.362  0.5116 -1.1444  0.5983
  925MOL0     H27632   4.892   5.850   3.226 -0.9132 -2.7773  0.3209
  925MOL0     H27633   5.118   5.936   3.196 -1.5629 -0.9617  1.5680
  925MOL0     H27634   6.491   5.778   1.879  1.1721 -2.7807 -1.2477
  925MOL0     H27635   6.672   5.757   1.730  3.6811  1.3299  0.1703
  925MOL0     H27636   6.935   5.793   1.422 -2.3680  0.5655  0.2713
  925MOL0     H27637   7.076   5.728   1.257 -0.5552  0.9280  0.6025
  925MOL0     H27638   7.160   5.984   0.941  0.2061 -0.3212 -0.6173
  925MOL0     H27639   7.310   6.050   1.016 -2.7290  1.1590  0.5234
  925MOL0     H27640   7.443   5.861   0.930 -0.0497 -0.1049  1.4075
  925MOL0     H27641   7.348   5.934   0.797  1.0673  0.2822  0.8088
  925MOL0     H27642   7.333   5.674   0.806 -1.0865 -0.6756 -0.4460
  925MOL0     H27643   7.302   5.689   0.976  2.8160  0.7750 -0.3308
  925MOL0     H27644   7.073   5.795   0.902  0.2678  0.7102 -0.0198
  925MOL0     H27645   7.092   5.630   0.832  0.6708 -0.0883 -1.0558
  925MOL0     H27646   7.125   5.855   0.474  0.1964 -0.3604  0.1905
  925MOL0     H27647   7.182   6.150   1.197 -0.4196 -0.7096 -2.0934
  925MOL0     H27648   7.032   6.315   1.253  4.0091 -0.1506  0.3263
  925MOL0     H27649   6.880   6.277   1.341 -0.9667 -2.7542 -0.1879
  925MOL0     H27650   7.037   6.295   1.427  0.8305  0.4268 -1.0756
  926MOL0     O27651   9.383  10.800  10.552 -0.6159 -0.0656 -0.1167
  926MOL0     C27652   9.421  10.681  10.576 -0.5009 -0.5809 -0.0460
  926MOL0     O27653   9.462  10.642  10.704  0.0457 -0.1889  0.8265
  926MOL0     C27654   9.430  10.710  10.816 -0.6261  0.2506  0.5647
  926MOL0     C27655   9.516  10.677  10.927  0.1586  0.2090 -0.1509
  926MOL0     C27656   9.498  10.732  11.043  1.0100 -1.1527 -0.2377
  926MOL0     C27657   9.392  10.818  11.069  0.4594  0.2354 -0.2395
  926MOL0     O27658   9.367  10.894  11.180  0.2990 -0.3302 -0.2113
  926MOL0     C27659   9.446  10.883  11.297 -0.4459  1.0941 -0.5010
  926MOL0     C27660   9.409  10.997  11.394  0.7317 -0.5230 -0.2571
  926MOL0     C27661   9.505  11.011  11.513  0.7837  0.5428 -0.2589
  926MOL0     C27662   9.446  11.098  11.626  1.2038  0.9827  0.4286
  926MOL0     C27663   9.537  11.134  11.722 -0.1790  0.1265 -1.0652
  926MOL0     C27664   9.624  11.017  11.778  0.0296  0.1426 -0.9677
  926MOL0     C27665   9.708  11.060  11.898 -0.0716 -0.3375  0.2197
  926MOL0     C27666   9.624  11.087  12.021  0.5751  0.6667  0.4538
  926MOL0     N27667   9.716  11.134  12.122  0.3053  0.3755 -0.8996
  926MOL0     C27668   9.817  11.059  12.178 -0.0001 -0.0845  0.8435
  926MOL0     C27669   9.863  11.124  12.284 -0.1536  0.3593 -0.5327
  926MOL0     C27670   9.989  11.092  12.372  0.1337  0.0238  0.8285
  926MOL0     C27671   9.961  11.092  12.518 -0.8037 -0.4130  0.4943
  926MOL0     C27672  10.077  11.036  12.600  0.5759 -0.2482 -0.7416
  926MOL0     C27673  10.145  11.153  12.656 -0.0914  0.2966 -0.4713
  926MOL0     O27674  10.254  11.116  12.736  0.2642 -0.2890 -0.2279
  926MOL0     C27675  10.359  11.207  12.750 -1.1768  0.1248 -0.0363
  926MOL0     C27676  10.407  11.284  12.652 -0.3853  0.0885  0.6371
  926MOL0     C27677  10.505  11.382  12.665  0.3617 -0.6935  0.1491
  926MOL0     C27678  10.547  11.448  12.538 -0.1596 -0.1526  0.0760
  926MOL0     C27679  10.570  11.408  12.799  0.5628 -0.3555  0.0854
  926MOL0     C27680  10.685  11.495  12.834  0.6889 -0.4524  0.3603
  926MOL0     O27681  10.706  11.521  12.964 -0.0582  0.5841  0.3475
  926MOL0     C27682  10.832  11.551  12.999 -0.4879 -0.7161  0.1818
  926MOL0     C27683  10.847  11.641  13.102  0.2671  0.3181 -0.4910
  926MOL0     C27684  10.973  11.690  13.142 -0.7350 -0.1409 -0.0740
  926MOL0     C27685  11.091  11.626  13.085 -1.1138 -0.8930  0.0932
  926MOL0     O27686  11.221  11.664  13.112 -0.2303  0.6475 -0.6033
  926MOL0     C27687  11.243  11.748  13.225  0.0124 -0.6068 -0.1523
  926MOL0     C27688  11.394  11.785  13.236 -0.5013  0.1904  0.4065
  926MOL0     C27689  11.415  11.846  13.369  0.1675  1.3429 -0.3201
  926MOL0     C27690  11.567  11.856  13.401 -0.5310  0.5517  1.3903
  926MOL0     C27691  11.615  11.992  13.349  0.2213  0.0688  0.7974
  926MOL0     C27692  11.758  12.030  13.361 -0.3179  0.1371 -0.3342
  926MOL0     C27693  11.818  12.048  13.506  0.9683  0.1625  0.8556
  926MOL0     C27694  11.893  11.918  13.554 -0.1989  0.7448  0.2946
  926MOL0    Cl27695  11.905  11.919  13.722  0.1860 -0.1917  0.2711
  926MOL0     C27696  11.073  11.522  12.995  0.8331  0.3951  0.1015
  926MOL0     C27697  10.946  11.485  12.946 -0.0263  0.4043 -0.0755
  926MOL0     O27698  10.748  11.542  12.741  0.3848 -0.1624  0.2245
  926MOL0     C27699  10.515  11.319  12.902  0.3174 -0.5333  0.4992
  926MOL0     C27700  10.416  11.222  12.873  0.2129 -0.4122  1.6975
  926MOL0     N27701   9.803  11.249  12.298  0.4010 -0.4338  0.2615
  926MOL0     N27702   9.706  11.246  12.204  0.6597 -0.5086 -0.7882
  926MOL0     C27703   9.306  10.840  10.969  0.3846  1.0853  1.0781
  926MOL0     C27704   9.327  10.793  10.835  1.3348  0.5125 -0.1709
  926MOL0     C27705   9.461  10.603  10.460  0.1497  0.2104 -0.1845
  926MOL0     C27706   9.588  10.549  10.460  0.2208  0.6342  0.3752
  926MOL0     C27707   9.632  10.485  10.345  0.3927 -0.2089  0.5305
  926MOL0     C27708   9.547  10.443  10.244 -0.8739  0.7702  0.8606
  926MOL0     O27709   9.602  10.345  10.169 -0.0962 -0.2237 -0.0186
  926MOL0     C27710   9.534  10.274  10.064 -0.3759 -0.9274 -0.7063
  926MOL0     C27711   9.446  10.169  10.137  0.8234  0.0026  0.3005
  926MOL0     C27712   9.348  10.100  10.041  0.6913  0.4346 -1.2130
  926MOL0     C27713   9.215  10.172  10.003  0.3809 -0.3663  0.2263
  926MOL0     C27714   9.173  10.129   9.864 -0.6127 -0.1337 -0.2244
  926MOL0     C27715   9.119  10.104   9.763  0.7965 -0.4242 -0.1743
  926MOL0     C27716   9.422  10.495  10.245 -0.8406 -0.8865  0.7397
  926MOL0     C27717   9.382  10.588  10.343 -0.0214  0.1092  0.4570
  926MOL0     C27718   9.246  10.660  10.327 -0.4386 -0.5296  1.1108
  926MOL0     H27719   9.581  10.591  10.914  0.4216  0.0572  1.7703
  926MOL0     H27720   9.569  10.722  11.125 -1.5425  0.0908  2.2710
  926MOL0     H27721   9.554  10.897  11.287 -0.3870  0.3872 -0.9675
  926MOL0     H27722   9.415  10.789  11.345  0.2083  0.5410 -1.1422
  926MOL0     H27723   9.429  11.084  11.331 -0.7702  0.1320  0.1010
  926MOL0     H27724   9.307  10.988  11.433  1.9500  1.8355  4.2253
  926MOL0     H27725   9.531  10.910  11.547  1.9581  0.2735 -1.8024
  926MOL0     H27726   9.594  11.052  11.464  1.2395  0.2278  0.2934
  926MOL0     H27727   9.400  11.188  11.584  0.0874 -0.6003 -1.9396
  926MOL0     H27728   9.372  11.039  11.680  2.0875 -0.3364  0.2458
  926MOL0     H27729   9.498  11.174  11.816  2.5702  2.4184 -0.7501
  926MOL0     H27730   9.597  11.223  11.697 -0.2355  0.7303  0.7665
  926MOL0     H27731   9.557  10.932  11.797  0.8490 -0.7800 -2.1050
  926MOL0     H27732   9.690  10.975  11.702  0.2974  0.4229 -0.8938
  926MOL0     H27733   9.763  11.147  11.862  3.4145 -1.7794  1.6358
  926MOL0     H27734   9.775  10.979  11.927 -0.9351 -1.4955 -0.8878
  926MOL0     H27735   9.551  11.168  12.009 -2.1787 -1.8898 -1.3099
  926MOL0     H27736   9.568  10.996  12.045  1.9019  0.5282  3.3992
  926MOL0     H27737   9.854  10.964  12.139  0.0083 -1.3197  3.6348
  926MOL0     H27738  10.067  11.166  12.350 -0.6224  0.7816  0.6408
  926MOL0     H27739  10.027  10.996  12.336  0.6501  1.5925 -3.3489
  926MOL0     H27740   9.926  11.188  12.556  0.4781 -0.7356  2.6293
  926MOL0     H27741   9.888  11.013  12.536  2.2046 -3.1683  1.7979
  926MOL0     H27742  10.021  10.988  12.681 -0.5183  3.3152  0.8167
  926MOL0     H27743  10.130  10.963  12.539 -1.6149 -0.1256 -2.9169
  926MOL0     H27744  10.172  11.223  12.576  4.0558 -1.1945 -0.5751
  926MOL0     H27745  10.071  11.199  12.723  1.7393  0.6189  1.4185
  926MOL0     H27746  10.375  11.263  12.551  2.3453 -1.3982 -0.0075
  926MOL0     H27747  10.492  11.407  12.453 -0.4539 -2.0891  1.1432
  926MOL0     H27748  10.656  11.445  12.524  0.2066  2.2669  1.7683
  926MOL0     H27749  10.515  11.552  12.541  1.3668  0.4306 -1.8671
  926MOL0     H27750  10.754  11.674  13.150 -0.5512 -1.7550 -0.5655
  926MOL0     H27751  10.985  11.767  13.218  0.0778  2.1218 -2.3760
  926MOL0     H27752  11.179  11.836  13.233  0.2613 -0.0404 -3.2365
  926MOL0     H27753  11.212  11.684  13.308 -1.0947  0.8269  0.5857
  926MOL0     H27754  11.455  11.695  13.223 -4.0344 -2.1649 -1.6438
  926MOL0     H27755  11.402  11.858  13.155 -2.8468  0.7608  0.6291
  926MOL0     H27756  11.367  11.789  13.449  1.9655  1.3399  0.8114
  926MOL0     H27757  11.376  11.948  13.364  2.6688  2.5352  1.7445
  926MOL0     H27758  11.629  11.772  13.367  1.0100  1.0480  2.7964
  926MOL0     H27759  11.566  11.851  13.510  1.3302  1.8341  1.5288
  926MOL0     H27760  11.586  12.002  13.244  5.4608  2.2046 -0.7660
  926MOL0     H27761  11.565  12.065  13.414 -0.0249  0.1120  0.5596
  926MOL0     H27762  11.774  12.117  13.297  0.5381 -0.4944 -1.0041
  926MOL0     H27763  11.826  11.953  13.322  2.1808  1.0792  1.8722
  926MOL0     H27764  11.743  12.090  13.574  0.8556 -0.1846  0.9478
  926MOL0     H27765  11.887  12.132  13.496  0.9152 -0.0271 -2.0376
  926MOL0     H27766  11.993  11.899  13.512 -0.8453  1.2661 -1.5667
  926MOL0     H27767  11.836  11.829  13.527 -1.3545  0.9880  1.8176
  926MOL0     H27768  11.154  11.473  12.942  0.2186 -2.5956  1.7041
  926MOL0     H27769  10.938  11.412  12.866 -0.9821 -1.1669  1.3781
  926MOL0     H27770  10.538  11.315  13.008  0.0073  0.6336  0.6180
  926MOL0     H27771  10.391  11.156  12.956 -1.8858  3.7749  4.7863
  926MOL0     H27772   9.217  10.896  10.995 -1.1097 -1.4014  1.6917
  926MOL0     H27773   9.255  10.817  10.758  0.6242 -0.5445  0.1446
  926MOL0     H27774   9.645  10.573  10.549 -0.7936 -1.2199  1.5673
  926MOL0     H27775   9.734  10.459  10.320  0.4625 -0.1770  0.7806
  926MOL0     H27776   9.467  10.344  10.013 -2.3657 -1.7082  0.7341
  926MOL0     H27777   9.609  10.224  10.002  1.0932 -0.0858  0.3170
  926MOL0     H27778   9.394  10.221  10.218  1.6439 -0.0199  0.8413
  926MOL0     H27779   9.518  10.096  10.174 -0.5207 -1.1318  0.7720
  926MOL0     H27780   9.404  10.072   9.952  5.0273 -0.8514  1.5843
  926MOL0     H27781   9.316  10.005  10.085  2.0477 -0.1380 -1.4273
  926MOL0     H27782   9.226  10.281  10.001  2.0751 -0.5332 -0.6123
  926MOL0     H27783   9.135  10.142  10.072 -0.7926  0.8188 -0.5550
  926MOL0     H27784   9.067  10.093   9.670  2.1442  0.7014 -1.0918
  926MOL0     H27785   9.350  10.468  10.168  0.4657 -0.9492 -0.5058
  926MOL0     H27786   9.178  10.653  10.413  1.1729  1.0801  2.6028
  926MOL0     H27787   9.286  10.759  10.303 -1.1914 -1.0834 -3.1769
  926MOL0     H27788   9.194  10.627  10.237 -2.0097  3.6403  0.2614
  927MOL0     O27789   3.998   0.997   3.527  0.1664  0.1591 -0.2224
  927MOL0     C27790   4.118   1.015   3.573  0.7288 -0.3986  0.5184
  927MOL0     O27791   4.153   1.046   3.702 -0.1095  0.3146 -0.2602
  927MOL0     C27792   4.068   1.088   3.803 -1.1728  0.4107 -0.7198
  927MOL0     C27793   4.131   1.181   3.881 -0.4773  0.0669  0.3707
  927MOL0     C27794   4.059   1.245   3.981 -0.1209 -0.8026 -0.1455
  927MOL0     C27795   3.915   1.223   3.994 -0.5151 -0.4646 -0.2768
  927MOL0     O27796   3.839   1.269   4.095  0.0884 -0.3193  0.4463
  927MOL0     C27797   3.903   1.362   4.191 -0.0618  0.2007  0.4419
  927MOL0     C27798   3.809   1.410   4.298 -0.3800 -0.6282 -0.2752
  927MOL0     C27799   3.865   1.447   4.443  0.1717 -0.1136 -0.5441
  927MOL0     C27800   3.743   1.445   4.540 -0.5339  0.0592  0.1495
  927MOL0     C27801   3.673   1.573   4.533  1.3623  0.0512 -0.3405
  927MOL0     C27802   3.519   1.562   4.575 -0.7623 -0.9569  0.3489
  927MOL0     C27803   3.434   1.686   4.578 -0.3399  0.3584 -1.0115
  927MOL0     C27804   3.294   1.644   4.628 -0.6873  0.3606  0.6861
  927MOL0     N27805   3.183   1.735   4.594 -0.7814 -0.5315 -0.8889
  927MOL0     C27806   3.144   1.756   4.470  0.1994 -0.7438  0.6058
  927MOL0     C27807   3.065   1.872   4.465 -0.0814 -0.5320 -0.3320
  927MOL0     C27808   3.009   1.940   4.340  0.7488  0.3516 -0.4528
  927MOL0     C27809   3.124   1.948   4.239  0.5742  0.3755  0.2720
  927MOL0     C27810   3.211   2.074   4.244 -0.0574  0.3902 -0.7000
  927MOL0     C27811   3.282   2.101   4.367 -0.1691  0.0846  0.7002
  927MOL0     O27812   3.415   2.158   4.345  0.6175 -0.3491 -0.3669
  927MOL0     C27813   3.436   2.289   4.385 -0.4520  0.4664 -0.4089
  927MOL0     C27814   3.360   2.362   4.475 -0.9735  0.7875 -0.2719
  927MOL0     C27815   3.391   2.500   4.506  0.5832  0.0236  0.7877
  927MOL0     C27816   3.314   2.556   4.622  0.3726 -0.8603  0.6051
  927MOL0     C27817   3.495   2.565   4.435  0.2375 -0.4187  0.0309
  927MOL0     C27818   3.514   2.713   4.437  0.8564  0.1952 -0.1872
  927MOL0     O27819   3.590   2.753   4.336 -0.4830 -0.9434 -0.3420
  927MOL0     C27820   3.580   2.878   4.284 -0.0180  0.4356 -0.9423
  927MOL0     C27821   3.449   2.940   4.262 -0.1461  0.0525  0.1656
  927MOL0     C27822   3.436   3.080   4.235 -1.1988  1.2598  0.7548
  927MOL0     C27823   3.547   3.162   4.203 -0.1100 -0.4288  0.5163
  927MOL0     O27824   3.526   3.296   4.161 -0.3774  0.5346 -0.6249
  927MOL0     C27825   3.454   3.381   4.262  0.5479  0.8702 -0.0380
  927MOL0     C27826   3.437   3.532   4.201  0.2453 -0.2951 -0.4513
  927MOL0     C27827   3.538   3.632   4.239 -1.0958 -0.0612  0.4139
  927MOL0     C27828   3.471   3.770   4.221  0.2908  0.3413 -0.4240
  927MOL0     C27829   3.591   3.878   4.246  1.0500 -0.4812  0.2653
  927MOL0     C27830   3.531   4.018   4.271  0.4549 -0.9844 -0.7409
  927MOL0     C27831   3.618   4.129   4.242  0.7417  0.1083 -0.7383
  927MOL0     C27832   3.562   4.258   4.292  0.8481 -0.2704 -0.2733
  927MOL0    Cl27833   3.566   4.247   4.478 -0.0393  0.3011  0.6878
  927MOL0     C27834   3.669   3.094   4.208 -0.4311 -1.6368 -0.0800
  927MOL0     C27835   3.684   2.961   4.251  1.2092 -0.1985 -0.2072
  927MOL0     O27836   3.465   2.797   4.514 -0.0640  0.1594  0.9062
  927MOL0     C27837   3.574   2.487   4.339  0.4006  0.6953 -0.2726
  927MOL0     C27838   3.545   2.351   4.329  0.6575  1.0366  0.8145
  927MOL0     N27839   3.072   1.918   4.600 -0.2528  0.3301  0.3163
  927MOL0     N27840   3.138   1.835   4.674 -0.0006  0.1334 -0.2510
  927MOL0     C27841   3.860   1.141   3.901 -0.0499 -0.5795  0.5963
  927MOL0     C27842   3.933   1.065   3.808  0.4379  0.0413  0.3578
  927MOL0     C27843   4.242   0.952   3.507  0.9126  1.0295 -0.0546
  927MOL0     C27844   4.371   0.949   3.571 -0.2622 -0.4013  0.9234
  927MOL0     C27845   4.483   0.913   3.502 -0.7438  0.3618  0.4379
  927MOL0     C27846   4.478   0.860   3.374  0.1776 -0.3194  0.6912
  927MOL0     O27847   4.598   0.844   3.300 -0.4302  0.1799  0.2520
  927MOL0     C27848   4.606   0.794   3.172  0.3045 -0.6612 -0.0922
  927MOL0     C27849   4.748   0.766   3.138  0.4513  0.4168 -0.1010
  927MOL0     C27850   4.831   0.892   3.125 -0.2327  0.0719  0.1991
  927MOL0     C27851   4.778   0.985   3.006  1.0402  0.1947 -0.2673
  927MOL0     C27852   4.789   0.916   2.875  0.1435 -0.1069 -0.0007
  927MOL0     C27853   4.774   0.860   2.770  0.1052 -0.4337  0.6843
  927MOL0     C27854   4.350   0.845   3.310  0.0960 -0.8377 -1.0423
  927MOL0     C27855   4.238   0.888   3.381  0.5707 -0.0732  0.5455
  927MOL0     C27856   4.117   0.850   3.311 -0.0082 -0.5154 -0.1708
  927MOL0     H27857   4.226   1.212   3.838 -2.2537  0.2295 -4.0212
  927MOL0     H27858   4.105   1.299   4.063 -0.7889 -1.4108  0.6418
  927MOL0     H27859   3.950   1.448   4.142  3.1167 -0.1752  2.5792
  927MOL0     H27860   3.980   1.300   4.238  0.2678 -0.9945 -1.5486
  927MOL0     H27861   3.764   1.497   4.249 -2.4382 -0.4623  1.7052
  927MOL0     H27862   3.738   1.327   4.301 -0.2019 -0.7545  0.6696
  927MOL0     H27863   3.948   1.383   4.474 -1.7061 -2.0488  0.8382
  927MOL0     H27864   3.913   1.543   4.422 -0.6513  0.2364 -0.8919
  927MOL0     H27865   3.679   1.359   4.519  0.9227 -1.1729  0.5608
  927MOL0     H27866   3.781   1.423   4.640  3.0962 -2.1775 -1.4862
  927MOL0     H27867   3.665   1.624   4.437 -1.6254  0.7178  0.1562
  927MOL0     H27868   3.725   1.638   4.604 -1.7834 -1.9995  4.4047
  927MOL0     H27869   3.471   1.500   4.499 -0.5013 -0.9244  0.1583
  927MOL0     H27870   3.509   1.505   4.669  1.1146 -2.2489 -0.1685
  927MOL0     H27871   3.441   1.724   4.475  0.9586 -1.1900 -1.5330
  927MOL0     H27872   3.476   1.768   4.637  1.5892 -0.9180 -0.5055
  927MOL0     H27873   3.270   1.541   4.600  0.3193  0.4521 -0.6079
  927MOL0     H27874   3.301   1.638   4.737  0.6513 -0.9515  0.5494
  927MOL0     H27875   3.179   1.692   4.390 -0.2167 -0.5567  0.2680
  927MOL0     H27876   2.971   2.039   4.366 -2.0014 -0.0952 -2.3836
  927MOL0     H27877   2.923   1.893   4.292  0.6681  0.6337 -0.5881
  927MOL0     H27878   3.194   1.864   4.248  4.3882  3.4270  2.3156
  927MOL0     H27879   3.081   1.951   4.139 -0.4291  2.6602  0.7166
  927MOL0     H27880   3.285   2.069   4.164  0.8201  1.5395  0.0059
  927MOL0     H27881   3.160   2.167   4.217  1.0436  2.0771  2.4786
  927MOL0     H27882   3.213   2.174   4.412  0.9227  0.4235  1.9092
  927MOL0     H27883   3.289   2.011   4.429  0.2312  1.0850  2.1674
  927MOL0     H27884   3.281   2.317   4.536 -4.3378  2.8209 -2.8065
  927MOL0     H27885   3.388   2.579   4.699  2.5814  0.7574 -1.8309
  927MOL0     H27886   3.237   2.491   4.664 -2.0645 -0.2061 -2.4576
  927MOL0     H27887   3.259   2.646   4.590 -3.2226 -3.8328 -2.6308
  927MOL0     H27888   3.356   2.888   4.285 -0.3989 -0.0192 -0.9280
  927MOL0     H27889   3.338   3.122   4.252 -1.3162  1.6811 -0.8179
  927MOL0     H27890   3.353   3.345   4.278  0.8760  0.5077  1.3143
  927MOL0     H27891   3.506   3.388   4.358  0.8199  0.1844 -0.1296
  927MOL0     H27892   3.420   3.525   4.093  2.4532 -1.7761 -0.7554
  927MOL0     H27893   3.347   3.565   4.254  0.1639  0.5994 -1.1374
  927MOL0     H27894   3.633   3.613   4.188 -0.1979 -1.1430  2.3607
  927MOL0     H27895   3.569   3.619   4.344  3.0238 -0.3367 -0.6554
  927MOL0     H27896   3.403   3.778   4.307 -2.4958  3.1554 -2.6659
  927MOL0     H27897   3.421   3.784   4.125  1.6929 -1.2631 -1.4351
  927MOL0     H27898   3.646   3.845   4.335  1.0994  0.6176  0.6593
  927MOL0     H27899   3.653   3.882   4.156 -4.0025 -3.0096 -3.8728
  927MOL0     H27900   3.504   4.019   4.376 -0.9860  0.3770 -1.0982
  927MOL0     H27901   3.442   4.025   4.208  1.8313  0.5204 -2.6563
  927MOL0     H27902   3.634   4.126   4.133  2.1577 -2.4083 -0.5562
  927MOL0     H27903   3.712   4.109   4.294 -0.6985 -1.3913  1.4734
  927MOL0     H27904   3.457   4.285   4.276  0.7731  0.5344  1.3338
  927MOL0     H27905   3.630   4.339   4.265 -0.1042  1.5082  2.2572
  927MOL0     H27906   3.761   3.140   4.172 -0.4324 -0.6884  1.0591
  927MOL0     H27907   3.784   2.920   4.256  1.2921  0.0840  0.4854
  927MOL0     H27908   3.654   2.525   4.276  0.9256  0.9942  0.5573
  927MOL0     H27909   3.605   2.285   4.267 -0.1365  0.1535  0.9662
  927MOL0     H27910   3.752   1.140   3.896 -0.0492  1.4110 -0.9279
  927MOL0     H27911   3.900   0.983   3.745 -0.0068 -0.8556  1.7148
  927MOL0     H27912   4.382   0.987   3.672  1.8362  0.6591  0.3649
  927MOL0     H27913   4.575   0.951   3.546 -0.1912  0.8083 -1.0357
  927MOL0     H27914   4.560   0.695   3.167 -0.2929 -0.3409 -1.0364
  927MOL0     H27915   4.556   0.860   3.100  1.6028  0.5660  0.0801
  927MOL0     H27916   4.748   0.696   3.054 -1.9130 -2.1729  1.8406
  927MOL0     H27917   4.795   0.700   3.211  1.0041 -1.3072 -1.9178
  927MOL0     H27918   4.836   0.954   3.216 -0.1654 -1.0855  1.0015
  927MOL0     H27919   4.934   0.862   3.105  0.5967  1.0317  2.6041
  927MOL0     H27920   4.843   1.073   3.001  1.5478 -0.1799 -0.2618
  927MOL0     H27921   4.678   1.025   3.025 -0.0877 -1.0239 -3.0380
  927MOL0     H27922   4.747   0.815   2.676 -1.1041 -0.9387  1.2419
  927MOL0     H27923   4.339   0.808   3.209 -2.1326 -0.9572 -0.8033
  927MOL0     H27924   4.058   0.941   3.297  1.8562  0.6787 -0.5175
  927MOL0     H27925   4.130   0.800   3.215  2.6778  0.1599 -0.2389
  927MOL0     H27926   4.062   0.783   3.378 -0.1655  1.6293  1.9594
  928MOL0     O27927   7.359   4.429  11.057  0.7472  0.0635 -1.3893
  928MOL0     C27928   7.462   4.469  11.025 -0.4529 -0.9873  0.3668
  928MOL0     O27929   7.546   4.409  10.935 -0.5612  0.2395  0.4101
  928MOL0     C27930   7.513   4.282  10.896  0.8826  0.7516  0.4017
  928MOL0     C27931   7.501   4.178  10.979  0.3594 -0.0137  0.1496
  928MOL0     C27932   7.528   4.049  10.936  0.3406 -0.3984 -0.1362
  928MOL0     C27933   7.542   4.022  10.799 -0.2309  0.3344 -0.2469
  928MOL0     O27934   7.566   3.888  10.762 -0.3206 -0.7650  0.8113
  928MOL0     C27935   7.672   3.811  10.830 -0.3926  1.1738  0.5424
  928MOL0     C27936   7.610   3.689  10.906  0.1563  0.0256 -0.2119
  928MOL0     C27937   7.722   3.588  10.938 -0.0887  0.1991 -0.6189
  928MOL0     C27938   7.670   3.480  11.047 -1.0552 -0.1075  0.0141
  928MOL0     C27939   7.787   3.373  11.061  0.2411  0.0399  0.3776
  928MOL0     C27940   7.774   3.271  11.184  0.3212  1.6899  1.2598
  928MOL0     C27941   7.649   3.195  11.190 -0.8233  0.5259 -0.3870
  928MOL0     C27942   7.649   3.087  11.302 -0.1009  0.3536  1.7536
  928MOL0     N27943   7.727   2.973  11.264  0.2546  0.5816 -0.1374
  928MOL0     C27944   7.720   2.889  11.159 -0.6584 -0.0104  0.8994
  928MOL0     C27945   7.825   2.810  11.161 -0.1156 -0.1781  0.3832
  928MOL0     C27946   7.857   2.714  11.043  0.1359  0.9373 -1.0411
  928MOL0     C27947   7.898   2.572  11.111 -0.3049  0.8470 -0.7147
  928MOL0     C27948   7.783   2.504  11.195  0.4355 -0.3603 -0.0718
  928MOL0     C27949   7.807   2.356  11.220  0.5982 -0.6455  0.2975
  928MOL0     O27950   7.688   2.318  11.291 -0.3469 -0.1891  0.4251
  928MOL0     C27951   7.685   2.190  11.344  0.3076 -0.3782  0.1741
  928MOL0     C27952   7.573   2.163  11.422 -0.2584  0.4098  0.1187
  928MOL0     C27953   7.553   2.040  11.486 -0.2477  0.0671 -1.3753
  928MOL0     C27954   7.455   2.044  11.606 -0.4167 -0.3741 -0.5349
  928MOL0     C27955   7.638   1.932  11.459 -1.1341  0.5625 -0.1633
  928MOL0     C27956   7.611   1.786  11.484 -0.0169  0.0447 -0.2682
  928MOL0     O27957   7.718   1.690  11.480  0.2852  0.3302  0.0113
  928MOL0     C27958   7.703   1.558  11.502  1.1571  0.1452 -0.7952
  928MOL0     C27959   7.678   1.510  11.638 -0.1909 -0.2916  0.6548
  928MOL0     C27960   7.656   1.376  11.661 -0.1440  0.1366  0.3608
  928MOL0     C27961   7.651   1.283  11.558  0.1014 -0.0424 -0.4481
  928MOL0     O27962   7.639   1.143  11.563  0.0706  0.4263 -0.8097
  928MOL0     C27963   7.679   1.072  11.683 -0.2356 -1.0089 -0.0780
  928MOL0     C27964   7.715   0.930  11.653 -0.3431  1.0303 -0.1677
  928MOL0     C27965   7.606   0.850  11.573  0.5608  0.5993 -0.9952
  928MOL0     C27966   7.669   0.717  11.523 -0.0328 -0.6625 -0.2667
  928MOL0     C27967   7.566   0.622  11.451 -0.3786  0.6771 -0.2162
  928MOL0     C27968   7.638   0.493  11.411 -0.2681 -0.6998  0.0423
  928MOL0     C27969   7.535   0.419  11.323 -0.0614  0.2556  0.3656
  928MOL0     C27970   7.545   0.439  11.168  0.3096 -0.3981  0.7668
  928MOL0    Cl27971   7.479   0.599  11.119  0.0592 -0.3432 -0.3839
  928MOL0     C27972   7.670   1.323  11.421 -0.0173  0.4456 -0.8794
  928MOL0     C27973   7.691   1.465  11.397 -0.1732 -0.0749  1.1242
  928MOL0     O27974   7.499   1.760  11.521 -0.7207  0.3698  0.3141
  928MOL0     C27975   7.762   1.958  11.395  0.3649  0.1634  0.0311
  928MOL0     C27976   7.783   2.087  11.337  0.0897 -0.0505  0.0166
  928MOL0     N27977   7.911   2.854  11.263 -0.3331  0.0060 -0.0580
  928MOL0     N27978   7.849   2.949  11.316 -0.4712  0.1280  0.4256
  928MOL0     C27979   7.533   4.124  10.707  0.8439 -0.9491 -0.8628
  928MOL0     C27980   7.523   4.255  10.759  0.6004  0.0334  1.1352
  928MOL0     C27981   7.506   4.599  11.083  1.0364  0.2851 -0.6457
  928MOL0     C27982   7.411   4.688  11.145 -0.8079  0.2315 -0.6714
  928MOL0     C27983   7.451   4.820  11.169  0.6664  0.2511  1.1164
  928MOL0     C27984   7.581   4.860  11.169 -0.2355  1.0710 -0.1949
  928MOL0     O27985   7.634   4.983  11.203  0.1384  0.0117 -1.4214
  928MOL0     C27986   7.594   5.014  11.342 -0.1372  0.5268 -0.1251
  928MOL0     C27987   7.647   5.142  11.372 -1.0698 -0.2475  0.5063
  928MOL0     C27988   7.606   5.184  11.512  0.0060 -0.0191 -0.4953
  928MOL0     C27989   7.719   5.138  11.606 -0.2870  0.3079 -0.4162
  928MOL0     C27990   7.686   5.183  11.735 -0.8764  0.8608 -0.2493
  928MOL0     C27991   7.637   5.228  11.840  0.6900  0.4608 -0.5836
  928MOL0     C27992   7.672   4.774  11.118  0.7497 -0.2969  0.0030
  928MOL0     C27993   7.638   4.655  11.066  0.6080 -0.6823  0.6952
  928MOL0     C27994   7.747   4.593  10.982  0.2489  0.4897  0.5568
  928MOL0     H27995   7.510   4.200  11.085 -0.1667 -1.6546  0.5534
  928MOL0     H27996   7.530   3.964  11.004  2.6466 -1.5199 -1.4796
  928MOL0     H27997   7.727   3.876  10.899 -0.0600  0.3320  1.0897
  928MOL0     H27998   7.748   3.774  10.760  0.6967  2.6038  0.9190
  928MOL0     H27999   7.558   3.728  10.994 -1.7968 -2.3168 -0.2096
  928MOL0     H28000   7.531   3.634  10.853 -0.7309 -2.8692  3.6780
  928MOL0     H28001   7.745   3.537  10.844 -0.3368  2.5555 -2.0424
  928MOL0     H28002   7.808   3.640  10.983 -1.0098  0.0065  1.4735
  928MOL0     H28003   7.652   3.537  11.139  1.5056 -0.5246  0.8606
  928MOL0     H28004   7.581   3.434  11.004 -0.5163 -2.1246  0.9347
  928MOL0     H28005   7.880   3.430  11.069  0.0869  0.7715 -2.3752
  928MOL0     H28006   7.783   3.312  10.970 -0.9175 -2.2247  1.8402
  928MOL0     H28007   7.858   3.202  11.174  0.1586  1.5496  0.8532
  928MOL0     H28008   7.779   3.322  11.281 -0.0467 -1.2039  2.8959
  928MOL0     H28009   7.640   3.147  11.092  0.2364  1.0676 -0.7600
  928MOL0     H28010   7.566   3.262  11.212 -1.2395  0.0434 -0.4733
  928MOL0     H28011   7.702   3.128  11.388  2.5641 -1.0846  0.9091
  928MOL0     H28012   7.543   3.065  11.319 -0.6939  2.2866  0.7435
  928MOL0     H28013   7.641   2.874  11.086  0.6829 -0.0368 -0.5836
  928MOL0     H28014   7.934   2.752  10.975 -0.7264  2.1473 -1.3826
  928MOL0     H28015   7.760   2.705  10.992 -1.6363  0.0147  2.2073
  928MOL0     H28016   7.922   2.498  11.034  1.1083  0.1338  0.3544
  928MOL0     H28017   7.987   2.593  11.171  0.3783  1.8189 -2.0227
  928MOL0     H28018   7.770   2.567  11.283 -1.6954  1.3826 -1.5396
  928MOL0     H28019   7.687   2.510  11.143 -0.5342 -2.6545  1.2902
  928MOL0     H28020   7.805   2.300  11.125 -0.5104  0.8679 -0.6118
  928MOL0     H28021   7.894   2.339  11.283 -0.7185 -4.3994  1.3869
  928MOL0     H28022   7.502   2.245  11.431  0.1014  0.6701  0.6401
  928MOL0     H28023   7.479   2.127  11.673 -2.9025 -1.0395  1.3128
  928MOL0     H28024   7.458   1.960  11.677 -3.3542 -0.8832 -0.8987
  928MOL0     H28025   7.357   2.065  11.564 -0.1411 -1.4203 -1.7586
  928MOL0     H28026   7.673   1.567  11.730  4.1545 -3.2693  3.1103
  928MOL0     H28027   7.637   1.353  11.765  0.0240  0.2590  0.4184
  928MOL0     H28028   7.760   1.130  11.728  0.9822 -2.4451 -0.3012
  928MOL0     H28029   7.591   1.067  11.748  0.2251 -0.8443  0.5745
  928MOL0     H28030   7.798   0.938  11.583 -0.4660 -0.1596 -0.4654
  928MOL0     H28031   7.752   0.881  11.743  3.3504  0.0969 -2.0275
  928MOL0     H28032   7.576   0.919  11.494 -1.2912  0.0574 -0.8201
  928MOL0     H28033   7.515   0.848  11.635  0.1596  1.9224 -1.5189
  928MOL0     H28034   7.703   0.662  11.611  1.1850  0.0394 -0.2690
  928MOL0     H28035   7.754   0.729  11.456  0.3424 -0.0766  0.2987
  928MOL0     H28036   7.498   0.593  11.532  0.6950  0.4466  0.6289
  928MOL0     H28037   7.531   0.669  11.359 -0.3844 -0.6821 -0.9354
  928MOL0     H28038   7.663   0.421  11.489  0.9877  0.6973  0.9839
  928MOL0     H28039   7.722   0.517  11.344 -0.6856 -0.3862 -0.3800
  928MOL0     H28040   7.429   0.433  11.350 -0.1910 -1.9195  1.2005
  928MOL0     H28041   7.546   0.311  11.330 -1.3015 -0.2136 -2.9132
  928MOL0     H28042   7.486   0.358  11.123 -1.6292  1.9051 -1.0858
  928MOL0     H28043   7.650   0.434  11.138  0.1891 -0.2774  0.3241
  928MOL0     H28044   7.671   1.243  11.347  0.3400  0.1860 -0.5970
  928MOL0     H28045   7.697   1.504  11.296  1.3033 -0.7008  0.9393
  928MOL0     H28046   7.837   1.883  11.371  0.7583  0.9793 -1.4154
  928MOL0     H28047   7.877   2.107  11.287  0.0362  4.2170  1.2208
  928MOL0     H28048   7.570   4.106  10.606 -0.2217 -1.2439 -1.2152
  928MOL0     H28049   7.545   4.337  10.691  0.4561  0.4066  1.5388
  928MOL0     H28050   7.310   4.653  11.163 -1.5784  2.6666  0.1342
  928MOL0     H28051   7.381   4.896  11.205  0.8922 -0.2595  2.7465
  928MOL0     H28052   7.486   5.019  11.355 -0.0097  0.8843  0.8317
  928MOL0     H28053   7.634   4.944  11.415 -0.8532 -0.1843 -0.4012
  928MOL0     H28054   7.608   5.215  11.300 -1.1694 -0.7083  0.0903
  928MOL0     H28055   7.754   5.154  11.352 -1.0002 -0.2627  0.8624
  928MOL0     H28056   7.600   5.293  11.517 -0.6047 -0.1027  0.8318
  928MOL0     H28057   7.511   5.138  11.540  0.4100 -0.3141  0.4160
  928MOL0     H28058   7.813   5.192  11.585 -1.2138  2.5458  0.9005
  928MOL0     H28059   7.735   5.031  11.618  3.2658  0.6225 -1.1053
  928MOL0     H28060   7.599   5.279  11.926 -0.2621  1.3415 -1.5033
  928MOL0     H28061   7.765   4.822  11.089  0.8582 -0.2792  0.3744
  928MOL0     H28062   7.839   4.651  10.980 -1.1405  2.9199  2.0574
  928MOL0     H28063   7.768   4.495  11.026 -0.1240  0.2029  0.1088
  928MOL0     H28064   7.727   4.570  10.877 -0.2611 -1.7724  1.0797
  929MOL0     O28065   7.749   6.880   5.483 -0.1197  0.3462 -0.6241
  929MOL0     C28066   7.686   6.781   5.502  0.2219  0.0862 -0.4762
  929MOL0     O28067   7.551   6.772   5.507 -0.0957  0.5736  0.1911
  929MOL0     C28068   7.476   6.869   5.442 -1.0970  1.0599 -0.2380
  929MOL0     C28069   7.402   6.964   5.502 -0.4510 -0.1689  0.8246
  929MOL0     C28070   7.346   7.080   5.451  0.6353 -0.4399 -0.2957
  929MOL0     C28071   7.357   7.094   5.310  0.1745 -0.2139 -0.8305
  929MOL0     O28072   7.292   7.205   5.256  0.3223  0.3778  1.1416
  929MOL0     C28073   7.149   7.211   5.290  0.0368  0.6902 -0.7529
  929MOL0     C28074   7.067   7.229   5.158  0.1421  0.5638 -0.4359
  929MOL0     C28075   7.040   7.096   5.087  1.0268 -0.0203  0.4015
  929MOL0     C28076   6.912   7.025   5.152 -1.0893  0.2684 -0.3451
  929MOL0     C28077   6.867   6.896   5.080 -0.3622 -0.2338  0.1212
  929MOL0     C28078   6.972   6.778   5.076 -0.3948 -0.7029 -1.3063
  929MOL0     C28079   6.913   6.639   5.027 -0.2639 -0.3602 -0.3562
  929MOL0     C28080   7.025   6.539   4.988 -0.0413 -1.1996 -0.1211
  929MOL0     N28081   7.120   6.512   5.092  0.2061  0.1778 -0.8590
  929MOL0     C28082   7.089   6.462   5.216  0.1922 -0.0028  1.0957
  929MOL0     C28083   7.209   6.455   5.270 -0.5120 -0.2394 -0.3935
  929MOL0     C28084   7.227   6.420   5.415 -0.2672 -0.0572 -0.5303
  929MOL0     C28085   7.279   6.285   5.449 -0.2627  0.1217  1.0857
  929MOL0     C28086   7.271   6.255   5.600 -0.5496  0.3180 -0.0047
  929MOL0     C28087   7.342   6.128   5.642  0.0501 -0.4542 -0.6782
  929MOL0     O28088   7.336   6.123   5.786  0.5338 -0.7295 -0.4473
  929MOL0     C28089   7.434   6.056   5.853 -0.0052  0.3271 -0.2155
  929MOL0     C28090   7.420   6.031   5.987 -0.0691  0.3871  0.4745
  929MOL0     C28091   7.516   5.972   6.066  0.3623  0.2383 -0.7152
  929MOL0     C28092   7.496   5.966   6.219  0.0802 -0.6557 -0.3358
  929MOL0     C28093   7.636   5.924   6.002 -0.8459  0.4677 -0.1633
  929MOL0     C28094   7.748   5.858   6.085 -0.8251  0.8317 -0.8262
  929MOL0     O28095   7.823   5.768   6.019  0.4196 -0.5674 -0.2446
  929MOL0     C28096   7.920   5.698   6.092 -0.0940  0.1004  0.4906
  929MOL0     C28097   7.884   5.560   6.105 -0.4322  0.4566  0.1665
  929MOL0     C28098   7.969   5.471   6.173  0.9201 -0.9018 -0.0364
  929MOL0     C28099   8.098   5.524   6.210 -0.3810 -0.8020 -0.5367
  929MOL0     O28100   8.165   5.428   6.279 -0.1727 -0.2848  0.2891
  929MOL0     C28101   8.306   5.448   6.295  0.1502 -0.5635  0.6276
  929MOL0     C28102   8.372   5.318   6.342  0.0340 -0.4016  0.0264
  929MOL0     C28103   8.309   5.262   6.473 -0.5956 -0.4467  0.0889
  929MOL0     C28104   8.407   5.156   6.538 -1.0386  0.0941 -0.8558
  929MOL0     C28105   8.336   5.067   6.650 -0.3665 -0.1716  0.2148
  929MOL0     C28106   8.282   5.143   6.770 -0.3320  0.8544 -0.2128
  929MOL0     C28107   8.398   5.202   6.866 -0.0425 -0.3460 -0.3470
  929MOL0     C28108   8.314   5.260   6.989 -0.4620 -0.5343  0.1827
  929MOL0    Cl28109   8.198   5.385   6.945  0.0032 -0.0629  0.5896
  929MOL0     C28110   8.130   5.662   6.203  0.0733 -0.6214 -0.2271
  929MOL0     C28111   8.041   5.749   6.134  0.4116 -0.2796  0.3982
  929MOL0     O28112   7.783   5.911   6.189 -0.3136 -0.1823 -0.1864
  929MOL0     C28113   7.656   5.940   5.870  0.4099  0.5708  0.5556
  929MOL0     C28114   7.560   6.016   5.800  0.5668  0.3530 -0.4055
  929MOL0     N28115   7.306   6.505   5.185 -0.1034 -0.4023  1.0736
  929MOL0     N28116   7.252   6.542   5.072 -0.3578  0.1902  0.6021
  929MOL0     C28117   7.407   6.980   5.235 -0.1413 -0.3711 -1.0473
  929MOL0     C28118   7.467   6.870   5.299 -0.6163 -0.2236  0.1744
  929MOL0     C28119   7.765   6.659   5.529  0.3148 -0.2084 -0.2226
  929MOL0     C28120   7.900   6.684   5.567  0.8050  0.5515 -0.9923
  929MOL0     C28121   7.988   6.581   5.602 -0.1615  0.5605 -0.4464
  929MOL0     C28122   7.964   6.450   5.579 -0.0716  0.9599  1.3041
  929MOL0     O28123   8.067   6.355   5.586  0.8509  0.4345  0.0429
  929MOL0     C28124   8.055   6.221   5.531 -0.1087  0.5382  0.5351
  929MOL0     C28125   8.022   6.126   5.643 -0.3139  1.2475 -0.2603
  929MOL0     C28126   8.111   6.126   5.767 -0.0478 -0.2176 -0.4861
  929MOL0     C28127   8.063   6.029   5.873  0.0121  0.1594 -0.3135
  929MOL0     C28128   8.050   5.892   5.834 -0.1358 -0.5432 -0.3346
  929MOL0     C28129   8.037   5.770   5.814  0.0114  0.1349 -0.3194
  929MOL0     C28130   7.833   6.421   5.527  0.6135  0.2737  0.3107
  929MOL0     C28131   7.731   6.521   5.503 -0.2304 -0.3955  0.1364
  929MOL0     C28132   7.602   6.486   5.446  1.0056 -0.0689  0.6352
  929MOL0     H28133   7.407   6.961   5.610  0.5330  2.1087  0.8977
  929MOL0     H28134   7.299   7.156   5.513  0.6382 -1.2852  0.7840
  929MOL0     H28135   7.127   7.286   5.366 -3.6990 -2.2925  1.4291
  929MOL0     H28136   7.107   7.125   5.343  3.4524  0.5359  2.0363
  929MOL0     H28137   6.978   7.283   5.192 -0.4125 -1.3419  1.3439
  929MOL0     H28138   7.116   7.301   5.092  0.1045 -1.6327 -3.0008
  929MOL0     H28139   7.021   7.107   4.980  0.3522 -0.4207  0.4729
  929MOL0     H28140   7.129   7.034   5.097  1.7937  0.5357 -2.2037
  929MOL0     H28141   6.950   7.011   5.254  0.6082  2.0931 -0.6647
  929MOL0     H28142   6.831   7.098   5.149  0.9127  2.6343 -0.7238
  929MOL0     H28143   6.848   6.919   4.975 -0.1700 -0.6896 -0.0129
  929MOL0     H28144   6.779   6.856   5.131  0.7315 -2.7266  0.1661
  929MOL0     H28145   7.062   6.810   5.023  0.6572 -1.9978 -0.3759
  929MOL0     H28146   7.002   6.760   5.180 -2.3764 -1.7662 -0.8652
  929MOL0     H28147   6.831   6.647   4.954  0.3746 -1.9326 -1.3017
  929MOL0     H28148   6.875   6.593   5.118 -0.8326 -0.7950 -0.7998
  929MOL0     H28149   6.983   6.445   4.952  1.4466 -1.3760 -1.5509
  929MOL0     H28150   7.077   6.588   4.905 -2.7191 -0.8482 -1.6909
  929MOL0     H28151   6.995   6.425   5.255 -0.7159 -1.8580 -2.4333
  929MOL0     H28152   7.130   6.422   5.466 -1.2114  0.9413 -2.2388
  929MOL0     H28153   7.296   6.499   5.445  2.5201 -0.5849 -4.6701
  929MOL0     H28154   7.223   6.209   5.394  1.3035 -0.7795  0.6625
  929MOL0     H28155   7.384   6.292   5.419 -0.3660  1.3021  0.9398
  929MOL0     H28156   7.324   6.336   5.650  1.4507 -1.9798  1.8392
  929MOL0     H28157   7.170   6.253   5.641 -0.7908  0.9402 -0.5420
  929MOL0     H28158   7.277   6.044   5.613  0.3703 -0.9345 -0.0382
  929MOL0     H28159   7.443   6.121   5.602 -0.0486  1.3279 -1.3268
  929MOL0     H28160   7.333   6.055   6.047 -0.8587 -1.7158  0.2560
  929MOL0     H28161   7.547   5.877   6.258 -0.4117 -0.7326  0.1471
  929MOL0     H28162   7.388   5.970   6.238 -0.3411 -0.3494 -2.5163
  929MOL0     H28163   7.546   6.047   6.273  0.2004 -2.1084  1.8604
  929MOL0     H28164   7.790   5.524   6.065  0.2890 -0.6094 -0.6468
  929MOL0     H28165   7.926   5.372   6.185  0.9141 -0.8106  0.7144
  929MOL0     H28166   8.361   5.485   6.208  0.4023 -0.3423  0.8778
  929MOL0     H28167   8.309   5.518   6.379 -1.0847 -2.7347  2.5939
  929MOL0     H28168   8.352   5.248   6.260  0.3293  1.7046 -1.9297
  929MOL0     H28169   8.481   5.327   6.349 -0.0210 -0.8018  2.3051
  929MOL0     H28170   8.205   5.234   6.454 -0.4283 -0.3935 -0.9611
  929MOL0     H28171   8.296   5.349   6.538 -2.3442 -0.5081 -0.1229
  929MOL0     H28172   8.489   5.208   6.589 -2.1918  3.5990 -2.3272
  929MOL0     H28173   8.435   5.084   6.460 -1.3104  0.9874 -1.7931
  929MOL0     H28174   8.263   5.004   6.599 -0.5634 -0.0312  0.3246
  929MOL0     H28175   8.411   5.003   6.697 -1.9112 -2.1119  0.1408
  929MOL0     H28176   8.223   5.066   6.819 -0.1443 -1.0572 -2.8064
  929MOL0     H28177   8.225   5.230   6.735 -0.1682  1.5800  1.2411
  929MOL0     H28178   8.439   5.293   6.823 -0.4250  1.3823  2.6916
  929MOL0     H28179   8.471   5.129   6.901 -0.6524 -0.5128  0.5899
  929MOL0     H28180   8.386   5.294   7.064 -0.9493 -1.9639  1.3573
  929MOL0     H28181   8.261   5.175   7.034  0.2967 -0.0846  2.0216
  929MOL0     H28182   8.221   5.706   6.240  1.5225 -2.3778 -1.5156
  929MOL0     H28183   8.060   5.856   6.133  1.4100 -0.4473 -0.0189
  929MOL0     H28184   7.744   5.900   5.820 -0.4739  1.1545 -1.5717
  929MOL0     H28185   7.597   6.044   5.701  0.7170  0.5428 -0.2962
  929MOL0     H28186   7.379   6.995   5.131  0.2365  3.5310 -0.7416
  929MOL0     H28187   7.507   6.788   5.240  2.1748  0.4556  0.9810
  929MOL0     H28188   7.935   6.785   5.584  1.1698  0.1294  1.0174
  929MOL0     H28189   8.086   6.606   5.643 -0.4421 -1.6718  1.7775
  929MOL0     H28190   7.984   6.214   5.448  0.9350 -1.2103 -0.2685
  929MOL0     H28191   8.152   6.194   5.488 -0.8228  0.3414 -1.0438
  929MOL0     H28192   8.040   6.027   5.599 -0.5267  0.0771  2.1463
  929MOL0     H28193   7.918   6.130   5.675  0.3210  4.2748  1.8066
  929MOL0     H28194   8.218   6.112   5.750  0.1183  1.0066 -0.5662
  929MOL0     H28195   8.108   6.220   5.823 -0.9555 -0.4842 -0.0785
  929MOL0     H28196   7.969   6.060   5.919  1.3715  4.8014 -0.1899
  929MOL0     H28197   8.127   6.022   5.962 -2.1503 -2.5651  1.1654
  929MOL0     H28198   8.024   5.666   5.794 -2.3503 -0.5706  3.8426
  929MOL0     H28199   7.805   6.318   5.514 -0.1721  0.6129 -0.8143
  929MOL0     H28200   7.601   6.378   5.432  3.6461 -0.1793  0.6678
  929MOL0     H28201   7.521   6.514   5.513 -0.5517  1.1888 -1.6513
  929MOL0     H28202   7.596   6.539   5.351 -0.8304  0.3600  0.9638
  930MOL0     O28203   2.913   4.872   3.474 -0.7099 -0.5336 -0.7739
  930MOL0     C28204   3.022   4.938   3.477  0.0653  0.1785  0.4984
  930MOL0     O28205   3.102   4.947   3.366  0.1216  0.5473 -0.6873
  930MOL0     C28206   3.080   4.860   3.258  0.7133 -0.0530 -1.3866
  930MOL0     C28207   3.066   4.915   3.133  1.1117 -0.5954 -0.3739
  930MOL0     C28208   3.042   4.821   3.025 -0.6084  0.5532  0.2280
  930MOL0     C28209   3.044   4.688   3.043 -0.1199  0.5312 -0.5525
  930MOL0     O28210   3.020   4.593   2.951 -1.0890  0.1313  0.0627
  930MOL0     C28211   3.113   4.586   2.839 -0.0263 -0.6502 -1.3832
  930MOL0     C28212   3.243   4.527   2.902  0.3458 -0.2308  0.1224
  930MOL0     C28213   3.227   4.388   2.967  0.2103 -0.1746  0.6504
  930MOL0     C28214   3.360   4.332   3.022 -0.2049 -0.0710 -0.5367
  930MOL0     C28215   3.338   4.207   3.115  0.4676 -0.4196 -0.9515
  930MOL0     C28216   3.373   4.235   3.269 -0.6050  0.3577  0.1374
  930MOL0     C28217   3.343   4.119   3.372  0.3407  0.6181 -0.4997
  930MOL0     C28218   3.402   4.145   3.511  0.3547 -0.0516  0.1725
  930MOL0     N28219   3.394   4.019   3.583  1.0388  0.6705  0.8142
  930MOL0     C28220   3.493   3.929   3.595  0.5382 -0.4681 -0.4436
  930MOL0     C28221   3.436   3.824   3.665 -0.1593  0.7108 -0.0599
  930MOL0     C28222   3.514   3.699   3.714 -0.6515 -0.2212 -0.3647
  930MOL0     C28223   3.598   3.636   3.591  0.3514 -0.1116  0.7550
  930MOL0     C28224   3.493   3.567   3.496  0.0236 -0.3562  1.0428
  930MOL0     C28225   3.543   3.444   3.411 -0.3102 -0.3080 -0.2807
  930MOL0     O28226   3.434   3.379   3.345 -0.4469 -0.6046 -0.0452
  930MOL0     C28227   3.450   3.269   3.259  0.5577 -0.0459  0.2259
  930MOL0     C28228   3.329   3.212   3.210 -0.1946 -0.1397 -0.1753
  930MOL0     C28229   3.334   3.113   3.114 -1.1572  0.1730 -0.4763
  930MOL0     C28230   3.202   3.066   3.060  0.8041  0.6660  0.7782
  930MOL0     C28231   3.455   3.064   3.073 -0.2928 -0.3270 -0.3267
  930MOL0     C28232   3.470   2.956   2.968 -0.6247 -0.4366 -0.1325
  930MOL0     O28233   3.573   2.969   2.875 -0.5526  0.1655 -0.2163
  930MOL0     C28234   3.580   2.888   2.766  0.8819 -0.1602  0.0732
  930MOL0     C28235   3.626   2.949   2.645  0.2767 -0.1105  1.7871
  930MOL0     C28236   3.627   2.866   2.525  0.4157 -0.5694  0.2808
  930MOL0     C28237   3.615   2.736   2.528  0.1654  0.3454  0.1119
  930MOL0     O28238   3.621   2.656   2.409 -0.5995 -0.2371 -0.3972
  930MOL0     C28239   3.586   2.516   2.401  0.4377  0.1080  0.0647
  930MOL0     C28240   3.435   2.486   2.388  0.5019  0.0003 -0.2827
  930MOL0     C28241   3.392   2.340   2.422 -0.3280  0.1111 -0.0804
  930MOL0     C28242   3.480   2.233   2.358  0.3333  0.5685 -0.3607
  930MOL0     C28243   3.451   2.093   2.381  0.1609 -0.6734 -0.8520
  930MOL0     C28244   3.394   2.053   2.522  0.1554 -0.5192 -2.4303
  930MOL0     C28245   3.497   2.075   2.642 -0.4302 -0.7744 -0.2624
  930MOL0     C28246   3.458   2.044   2.782 -0.6566  0.2787  0.3950
  930MOL0    Cl28247   3.436   1.862   2.819  0.1817  0.0707  0.5204
  930MOL0     C28248   3.575   2.677   2.649  0.7960  0.3829 -0.3606
  930MOL0     C28249   3.550   2.749   2.762 -0.3856  0.0715 -0.6501
  930MOL0     O28250   3.377   2.878   2.958  0.4177  0.7407  0.2437
  930MOL0     C28251   3.573   3.123   3.114  0.3942 -0.1135  0.1018
  930MOL0     C28252   3.575   3.239   3.197  0.3411  0.2338 -0.8162
  930MOL0     N28253   3.310   3.858   3.693 -0.2708 -0.0320  0.3472
  930MOL0     N28254   3.283   3.965   3.631 -0.0032 -0.1475  0.6933
  930MOL0     C28255   3.054   4.635   3.171 -0.3054  1.2157  0.1305
  930MOL0     C28256   3.064   4.717   3.273 -0.5502 -0.8309 -0.0770
  930MOL0     C28257   3.084   4.998   3.609  0.5942  0.2403 -0.2104
  930MOL0     C28258   3.195   5.083   3.601 -0.4405  0.3600  0.8955
  930MOL0     C28259   3.254   5.134   3.716 -0.6457 -0.1114  0.5141
  930MOL0     C28260   3.205   5.127   3.844  0.7893  0.0978  0.0005
  930MOL0     O28261   3.281   5.178   3.948 -0.0227 -0.2887  0.6616
  930MOL0     C28262   3.227   5.170   4.084 -0.5811 -0.3100 -0.0014
  930MOL0     C28263   3.273   5.044   4.158  0.0752  0.0792 -0.5585
  930MOL0     C28264   3.429   5.038   4.140 -0.1493 -0.0166 -0.4522
  930MOL0     C28265   3.497   4.955   4.252  0.3548 -0.4439  0.7223
  930MOL0     C28266   3.442   4.822   4.259 -0.8120 -0.2483 -0.4455
  930MOL0     C28267   3.406   4.711   4.293  0.5457 -0.2450 -0.6723
  930MOL0     C28268   3.084   5.055   3.861  0.2396  0.0636  1.1205
  930MOL0     C28269   3.031   4.982   3.747  0.6633 -0.1614 -0.8774
  930MOL0     C28270   2.903   4.907   3.783 -0.2612  0.1836  0.9622
  930MOL0     H28271   3.056   5.022   3.120 -0.1895 -0.2108  2.8816
  930MOL0     H28272   3.027   4.859   2.924  2.4563 -2.6866 -1.6680
  930MOL0     H28273   3.121   4.677   2.779 -2.0140  0.0912 -0.6113
  930MOL0     H28274   3.059   4.515   2.775 -0.9611 -2.7640  1.5513
  930MOL0     H28275   3.315   4.517   2.820 -0.3712  1.5280 -0.7744
  930MOL0     H28276   3.295   4.597   2.967 -1.4329 -2.5066  4.3430
  930MOL0     H28277   3.157   4.398   3.051  1.5216 -0.7804  1.8479
  930MOL0     H28278   3.203   4.304   2.902  1.4141 -2.5148  3.0456
  930MOL0     H28279   3.421   4.308   2.935  0.8755  1.1180 -0.1373
  930MOL0     H28280   3.423   4.399   3.081 -0.3614 -1.2544  1.0477
  930MOL0     H28281   3.405   4.128   3.079 -1.5725 -3.1668  0.8337
  930MOL0     H28282   3.233   4.176   3.116 -0.3927  2.2227  0.8226
  930MOL0     H28283   3.479   4.263   3.269 -0.3277 -0.6196 -0.0862
  930MOL0     H28284   3.320   4.328   3.290  0.7206  1.2629 -0.3345
  930MOL0     H28285   3.373   4.020   3.338 -1.4185  0.4399 -1.6046
  930MOL0     H28286   3.234   4.119   3.375  0.2941 -1.8487  0.0347
  930MOL0     H28287   3.507   4.174   3.497  0.9635 -1.2569  1.8346
  930MOL0     H28288   3.344   4.221   3.564  3.2880  3.8241 -1.7007
  930MOL0     H28289   3.596   3.930   3.561 -0.3899 -0.5105 -3.5347
  930MOL0     H28290   3.453   3.618   3.754  4.0758 -3.6663  0.8586
  930MOL0     H28291   3.576   3.729   3.799  1.1939 -0.2719 -1.6275
  930MOL0     H28292   3.665   3.698   3.531 -0.0207  0.7493  1.2070
  930MOL0     H28293   3.660   3.555   3.631  1.6507  0.1290 -0.6761
  930MOL0     H28294   3.404   3.544   3.555 -0.9313 -3.5817 -1.3467
  930MOL0     H28295   3.466   3.643   3.422  2.6882 -1.1440 -0.9177
  930MOL0     H28296   3.614   3.471   3.333  0.0921 -1.4372 -0.3225
  930MOL0     H28297   3.579   3.373   3.486 -1.0706 -2.3892 -1.7756
  930MOL0     H28298   3.230   3.243   3.244 -0.6101 -3.4644  2.1626
  930MOL0     H28299   3.205   3.046   2.953 -2.3362  0.3838  0.6474
  930MOL0     H28300   3.118   3.132   3.088  0.1601  0.2924 -0.2277
  930MOL0     H28301   3.181   2.964   3.093  4.7956 -0.5220  0.1184
  930MOL0     H28302   3.644   3.055   2.629  1.6175 -0.1258  2.9511
  930MOL0     H28303   3.655   2.914   2.432 -0.3216 -0.6836 -0.0090
  930MOL0     H28304   3.633   2.476   2.310  0.7040 -0.6703  0.5318
  930MOL0     H28305   3.622   2.455   2.485 -1.2057 -1.3079 -0.2016
  930MOL0     H28306   3.379   2.551   2.456  1.0631  0.3266 -0.1292
  930MOL0     H28307   3.407   2.498   2.283  1.2693  0.7059 -0.4183
  930MOL0     H28308   3.290   2.323   2.388 -0.9183  2.6044  0.2773
  930MOL0     H28309   3.392   2.334   2.531  0.7832 -0.5691 -0.0911
  930MOL0     H28310   3.579   2.252   2.402  0.3824  0.2848 -0.3449
  930MOL0     H28311   3.484   2.245   2.249 -0.3731  1.4781 -0.3044
  930MOL0     H28312   3.365   2.072   2.316 -1.7651 -0.2630  1.4397
  930MOL0     H28313   3.544   2.039   2.362  1.0759  0.2994  0.6741
  930MOL0     H28314   3.365   1.948   2.522  1.4610 -0.9775  0.2144
  930MOL0     H28315   3.304   2.113   2.541 -0.4795 -1.8672 -0.8610
  930MOL0     H28316   3.548   2.172   2.645 -2.9730  0.6601 -0.7348
  930MOL0     H28317   3.574   2.002   2.615  1.0093  1.0603 -1.3059
  930MOL0     H28318   3.366   2.102   2.798 -0.3859  1.6379 -2.4210
  930MOL0     H28319   3.539   2.066   2.853 -1.4653 -1.2048  1.8546
  930MOL0     H28320   3.546   2.573   2.646  2.1846 -0.0434  0.3313
  930MOL0     H28321   3.517   2.702   2.854  1.9427  0.9680  0.7410
  930MOL0     H28322   3.667   3.080   3.081  1.7550  1.3536  1.7812
  930MOL0     H28323   3.670   3.288   3.211  0.8333 -0.6982 -0.8242
  930MOL0     H28324   3.054   4.531   3.201  2.3943  2.1588  4.2670
  930MOL0     H28325   3.083   4.674   3.371  1.8359  2.7999  1.2388
  930MOL0     H28326   3.237   5.105   3.504  0.2832  2.8076  1.6947
  930MOL0     H28327   3.337   5.196   3.687 -1.0677  0.9129  1.4451
  930MOL0     H28328   3.253   5.249   4.154  2.1529 -0.9517 -0.1591
  930MOL0     H28329   3.120   5.191   4.078 -1.1958 -2.5032  1.8136
  930MOL0     H28330   3.222   4.958   4.114 -0.7971 -0.5953  1.6258
  930MOL0     H28331   3.243   5.063   4.261 -1.1867  1.2838 -1.1132
  930MOL0     H28332   3.446   5.011   4.036  0.8688 -1.6916  0.1140
  930MOL0     H28333   3.492   5.124   4.164 -1.9664  0.6875  2.2472
  930MOL0     H28334   3.479   5.005   4.347 -2.1324  0.4333 -0.1298
  930MOL0     H28335   3.600   4.944   4.216  0.1949  0.3989 -0.0052
  930MOL0     H28336   3.377   4.620   4.341 -0.7466  1.3277  1.7487
  930MOL0     H28337   3.025   5.048   3.952 -2.1802  0.9047 -0.2919
  930MOL0     H28338   2.874   4.906   3.888  3.1573 -1.3524  2.0361
  930MOL0     H28339   2.822   4.955   3.729 -0.5874  0.5272  1.7506
  930MOL0     H28340   2.919   4.800   3.763 -0.9671  0.2847 -0.2117
  931MOL0     O28341  10.934   6.076  10.708  0.0622  1.2632 -0.3154
  931MOL0     C28342  10.869   6.168  10.672  0.3063  0.0769 -0.2296
  931MOL0     O28343  10.749   6.216  10.723  0.6722  0.0128 -1.3290
  931MOL0     C28344  10.665   6.152  10.815 -1.0593 -0.1948 -0.6323
  931MOL0     C28345  10.675   6.024  10.882 -1.1275 -1.3783 -0.0074
  931MOL0     C28346  10.607   5.987  10.995 -0.3943  0.1985 -1.4364
  931MOL0     C28347  10.529   6.088  11.057  0.1002 -0.1463  0.4643
  931MOL0     O28348  10.451   6.072  11.175 -0.2581  0.2282  0.1365
  931MOL0     C28349  10.469   5.957  11.257  0.5803  0.4381 -0.4245
  931MOL0     C28350  10.362   5.943  11.362  0.6817 -0.1735  0.1759
  931MOL0     C28351  10.411   5.832  11.466  0.0242 -0.8959  0.1637
  931MOL0     C28352  10.301   5.752  11.534  0.3924 -0.8615 -0.4640
  931MOL0     C28353  10.249   5.650  11.441 -0.3053 -0.8358  0.1829
  931MOL0     C28354  10.135   5.567  11.500  0.0470  0.2897  0.0218
  931MOL0     C28355  10.184   5.470  11.610  0.2644 -0.1744 -0.7415
  931MOL0     C28356  10.064   5.414  11.683 -0.7560 -0.2404  1.0670
  931MOL0     N28357  10.004   5.495  11.789  0.3093 -0.2397  0.6495
  931MOL0     C28358   9.896   5.584  11.785  0.9065  0.0505 -0.2366
  931MOL0     C28359   9.890   5.628  11.916  1.3007 -0.0882 -0.3595
  931MOL0     C28360   9.794   5.738  11.963 -0.2653 -0.5107 -0.7180
  931MOL0     C28361   9.858   5.830  12.071 -0.0449 -0.2247 -0.3454
  931MOL0     C28362   9.789   5.966  12.084 -0.3392 -0.1936 -0.2144
  931MOL0     C28363   9.641   5.952  12.123 -0.4460  0.1891 -0.5305
  931MOL0     O28364   9.582   6.077  12.141  0.7154  0.0915 -0.8604
  931MOL0     C28365   9.564   6.156  12.033 -0.7913 -0.4106 -0.2006
  931MOL0     C28366   9.551   6.111  11.894  0.6042  0.9134  0.5193
  931MOL0     C28367   9.553   6.201  11.785 -0.3587  0.4602  0.0434
  931MOL0     C28368   9.551   6.128  11.642 -0.2267 -0.2404 -0.7023
  931MOL0     C28369   9.551   6.344  11.818  0.3856  0.1601 -0.4175
  931MOL0     C28370   9.562   6.457  11.719  0.2254 -0.3104 -0.1256
  931MOL0     O28371   9.554   6.418  11.591 -0.1805 -0.0319 -0.1225
  931MOL0     C28372   9.538   6.501  11.488 -0.5434 -0.2171 -0.3468
  931MOL0     C28373   9.591   6.469  11.362  0.1472 -0.2516 -0.1105
  931MOL0     C28374   9.572   6.558  11.252  0.2147 -0.3455  0.4241
  931MOL0     C28375   9.494   6.678  11.266 -0.1110  0.1227  0.0745
  931MOL0     O28376   9.477   6.731  11.148  0.0958 -0.6203 -0.0464
  931MOL0     C28377   9.373   6.826  11.138  0.0931 -0.3503  0.3949
  931MOL0     C28378   9.426   6.963  11.186  0.5207  0.8638  0.4474
  931MOL0     C28379   9.296   7.045  11.210 -0.5316 -0.0200 -0.4840
  931MOL0     C28380   9.308   7.159  11.304  0.0897 -0.2353 -0.1436
  931MOL0     C28381   9.249   7.122  11.440  0.0311 -0.4583 -0.6089
  931MOL0     C28382   9.091   7.114  11.446 -0.1616 -0.4593 -0.0677
  931MOL0     C28383   9.036   7.125  11.592  0.4106 -0.2351 -0.6873
  931MOL0     C28384   8.896   7.155  11.590  0.5709  0.8145  0.8333
  931MOL0    Cl28385   8.872   7.332  11.582  0.1011  0.4537  0.0148
  931MOL0     C28386   9.446   6.708  11.390 -0.3096  0.0198 -0.2841
  931MOL0     C28387   9.463   6.622  11.501 -0.4006  0.2169  0.3073
  931MOL0     O28388   9.605   6.569  11.759  0.2967  0.1873 -1.0094
  931MOL0     C28389   9.552   6.377  11.958  0.0615  1.1003  0.6284
  931MOL0     C28390   9.551   6.290  12.058  0.6352  1.0031 -0.5111
  931MOL0     N28391   9.984   5.566  11.994  0.3753  0.0202 -0.1876
  931MOL0     N28392  10.052   5.483  11.920 -0.1386 -1.1873  0.4485
  931MOL0     C28393  10.510   6.212  10.989  0.3758 -1.0867 -0.4088
  931MOL0     C28394  10.573   6.242  10.873  0.5670 -0.2574  0.8623
  931MOL0     C28395  10.900   6.241  10.546 -0.2621 -0.4104 -0.6656
  931MOL0     C28396  10.798   6.296  10.468  0.0243 -0.2765  0.1907
  931MOL0     C28397  10.825   6.365  10.347  0.1654 -0.3396 -0.9946
  931MOL0     C28398  10.957   6.385  10.305 -1.1485  0.1420  0.2126
  931MOL0     O28399  10.985   6.430  10.181  0.0111  0.7016 -0.3063
  931MOL0     C28400  11.041   6.557  10.174  0.1500 -0.5197  0.2641
  931MOL0     C28401  10.945   6.664  10.227 -0.3725  0.0159  0.3011
  931MOL0     C28402  10.837   6.705  10.119  0.2385  0.4967 -0.4340
  931MOL0     C28403  10.715   6.768  10.181  0.3486  0.1280 -1.1879
  931MOL0     C28404  10.630   6.666  10.268 -0.6975 -0.0960  0.7620
  931MOL0     C28405  10.558   6.605  10.351  0.0268  0.0489  0.7484
  931MOL0     C28406  11.066   6.328  10.381  0.1242 -0.4864 -0.7416
  931MOL0     C28407  11.036   6.255  10.504 -0.4530 -0.1231  0.7504
  931MOL0     C28408  11.153   6.189  10.569  0.7086  0.3537 -0.2991
  931MOL0     H28409  10.753   5.957  10.847 -0.1035  0.1864 -0.8122
  931MOL0     H28410  10.626   5.895  11.049 -3.1555  0.0202 -0.5710
  931MOL0     H28411  10.565   5.961  11.309 -0.9345 -1.0541  2.7520
  931MOL0     H28412  10.459   5.865  11.198 -3.6526 -1.2131  2.4279
  931MOL0     H28413  10.361   6.040  11.414  1.1516 -0.7669  1.3215
  931MOL0     H28414  10.267   5.924  11.312  0.7117  2.2440 -0.9323
  931MOL0     H28415  10.478   5.763  11.414  4.0244  3.7736 -1.7607
  931MOL0     H28416  10.473   5.891  11.535  0.7237 -1.6627  0.1957
  931MOL0     H28417  10.347   5.706  11.622 -0.7779 -2.5259 -0.6680
  931MOL0     H28418  10.234   5.835  11.560  2.4957 -0.4569  4.9481
  931MOL0     H28419  10.328   5.578  11.418  1.4126  0.7266  0.9557
  931MOL0     H28420  10.214   5.699  11.350 -1.5578 -0.3302  0.9085
  931MOL0     H28421  10.052   5.631  11.532  0.4862  0.2834  1.2415
  931MOL0     H28422  10.093   5.514  11.414  1.1116  0.8808 -0.8854
  931MOL0     H28423  10.261   5.518  11.671  0.6128 -0.5275 -0.8955
  931MOL0     H28424  10.242   5.384  11.573  0.1368 -0.7230  0.3224
  931MOL0     H28425   9.987   5.387  11.610 -1.0561  0.5479  1.0819
  931MOL0     H28426  10.090   5.322  11.735  0.5776  0.7135  2.1658
  931MOL0     H28427   9.835   5.606  11.698 -1.1819 -0.4935  1.0084
  931MOL0     H28428   9.706   5.688  12.004  0.3949 -0.5760  0.6690
  931MOL0     H28429   9.774   5.796  11.872 -1.0080  0.0683 -0.1953
  931MOL0     H28430   9.855   5.777  12.167  4.1709 -1.1788 -0.5355
  931MOL0     H28431   9.964   5.840  12.045  0.1135  0.0347  0.3667
  931MOL0     H28432   9.837   6.013  12.170  0.6270 -0.5411 -0.5601
  931MOL0     H28433   9.805   6.024  11.993  0.8393 -2.0518 -1.2417
  931MOL0     H28434   9.586   5.895  12.047  0.0086  0.1396 -0.8232
  931MOL0     H28435   9.641   5.884  12.209 -3.0774 -2.3916 -2.3561
  931MOL0     H28436   9.558   6.004  11.876 -2.5681  0.5287  1.0769
  931MOL0     H28437   9.648   6.077  11.630  0.6160  1.8191 -3.6891
  931MOL0     H28438   9.522   6.194  11.560 -1.3976 -2.2734 -2.0259
  931MOL0     H28439   9.474   6.050  11.651 -0.7942  0.2624 -1.1325
  931MOL0     H28440   9.639   6.371  11.362 -0.4813 -0.5684 -0.4665
  931MOL0     H28441   9.586   6.512  11.155 -0.2333  0.6501 -0.1234
  931MOL0     H28442   9.341   6.824  11.033  0.0386 -3.5578  0.3939
  931MOL0     H28443   9.283   6.802  11.195  0.2430  0.6300  1.0759
  931MOL0     H28444   9.471   6.951  11.285  0.8884 -0.7916  0.1074
  931MOL0     H28445   9.501   7.015  11.126  1.8144 -0.8284  0.5231
  931MOL0     H28446   9.206   6.986  11.228  2.2487 -4.1334  1.7441
  931MOL0     H28447   9.273   7.088  11.112 -2.5632 -1.9487 -0.9441
  931MOL0     H28448   9.268   7.254  11.266 -3.9054 -1.4670  0.5544
  931MOL0     H28449   9.412   7.183  11.331 -0.5408  3.6712 -0.5526
  931MOL0     H28450   9.286   7.024  11.472 -1.4318 -0.1880  2.2772
  931MOL0     H28451   9.279   7.195  11.517 -2.3677 -0.7955  0.7570
  931MOL0     H28452   9.074   7.012  11.413  3.9197 -1.6930  1.0419
  931MOL0     H28453   9.054   7.194  11.381 -0.8135 -0.8764 -0.2109
  931MOL0     H28454   9.090   7.207  11.641  0.4544  0.7130 -2.2891
  931MOL0     H28455   9.063   7.032  11.644  1.1067  1.5007  2.3481
  931MOL0     H28456   8.849   7.113  11.679  1.9417 -0.6317  0.9209
  931MOL0     H28457   8.850   7.118  11.498  1.9983  2.8315 -0.7826
  931MOL0     H28458   9.396   6.798  11.422  0.3664  0.1156  0.5365
  931MOL0     H28459   9.408   6.644  11.592  0.2763  0.4141  0.6727
  931MOL0     H28460   9.544   6.478  11.997  0.0070  0.6228  1.9067
  931MOL0     H28461   9.548   6.331  12.159  4.4249  0.7017 -0.1162
  931MOL0     H28462  10.458   6.293  11.038  0.4129 -1.0408 -0.4451
  931MOL0     H28463  10.573   6.337  10.822 -0.4758 -1.0837 -0.7442
  931MOL0     H28464  10.694   6.300  10.500 -0.1102  0.2984 -0.2878
  931MOL0     H28465  10.744   6.409  10.289 -0.5450 -0.5386 -0.1823
  931MOL0     H28466  11.135   6.554  10.230  1.1622 -0.0033 -1.3112
  931MOL0     H28467  11.063   6.578  10.068 -1.0254  1.4148  0.3667
  931MOL0     H28468  11.006   6.752  10.251  0.7199 -0.8966  0.9570
  931MOL0     H28469  10.893   6.627  10.316 -0.8915  0.7906  0.3244
  931MOL0     H28470  10.868   6.771  10.037 -2.9433 -0.9820 -3.1008
  931MOL0     H28471  10.806   6.618  10.059 -3.7284  1.6315 -0.2970
  931MOL0     H28472  10.637   6.795  10.110 -1.7259 -2.4122 -0.0428
  931MOL0     H28473  10.751   6.855  10.237  1.8236  0.9653 -3.3061
  931MOL0     H28474  10.516   6.548  10.432 -1.9218 -0.0846 -0.2970
  931MOL0     H28475  11.168   6.337  10.345  1.3027  0.8925  2.5823
  931MOL0     H28476  11.248   6.200  10.516  0.6577 -3.1035 -1.3940
  931MOL0     H28477  11.171   6.217  10.673 -1.6187 -0.9097  0.5405
  931MOL0     H28478  11.137   6.081  10.582 -0.0202  0.5286  0.3533
  932MOL0     O28479   5.132  10.172   9.027 -0.1129  0.1424 -0.1417
  932MOL0     C28480   5.128  10.110   9.133 -0.1612 -0.0313 -0.7028
  932MOL0     O28481   5.237  10.041   9.179  1.0405 -0.2841 -0.7199
  932MOL0     C28482   5.349  10.005   9.099 -0.1631  0.0810  0.3263
  932MOL0     C28483   5.331   9.886   9.020 -0.2817  0.2486  0.8798
  932MOL0     C28484   5.441   9.851   8.943 -0.0151 -0.7180  0.4839
  932MOL0     C28485   5.572   9.903   8.951  1.0547 -0.0239 -0.4408
  932MOL0     O28486   5.670   9.849   8.871 -0.1636  0.1919 -0.4669
  932MOL0     C28487   5.801   9.902   8.881 -0.1097 -0.3640 -0.1986
  932MOL0     C28488   5.847   9.949   8.736  1.0158  0.4851 -0.3624
  932MOL0     C28489   5.930  10.080   8.750  0.0366 -1.1549 -0.5287
  932MOL0     C28490   5.932  10.146   8.618  1.1482 -0.4823  0.2139
  932MOL0     C28491   6.044  10.095   8.529  0.0446  0.0571 -0.7528
  932MOL0     C28492   6.080  10.201   8.422  0.0243 -0.1793 -0.2958
  932MOL0     C28493   6.166  10.129   8.312 -0.4701 -1.0627 -0.1667
  932MOL0     C28494   6.077  10.071   8.202  0.3949 -0.1240 -0.1641
  932MOL0     N28495   5.987  10.166   8.146  0.2306  0.0229  0.7638
  932MOL0     C28496   5.850  10.157   8.161  0.4773  0.0560  0.0535
  932MOL0     C28497   5.799  10.266   8.107  0.1481  0.0392  0.0001
  932MOL0     C28498   5.658  10.310   8.114  0.8723 -0.9019  0.5286
  932MOL0     C28499   5.619  10.382   8.255  0.0333 -0.7117  0.3611
  932MOL0     C28500   5.465  10.401   8.275  0.0663 -0.6295 -0.0378
  932MOL0     C28501   5.394  10.495   8.182  0.2643 -0.9143 -0.1353
  932MOL0     O28502   5.417  10.639   8.203 -0.8277 -0.7677  0.5418
  932MOL0     C28503   5.374  10.692   8.320 -0.8250 -0.2030 -0.3478
  932MOL0     C28504   5.253  10.668   8.371  0.3781 -0.0726 -0.2170
  932MOL0     C28505   5.217  10.710   8.496  0.8268 -0.4664 -0.0978
  932MOL0     C28506   5.074  10.670   8.533  0.3691 -0.0102 -0.2120
  932MOL0     C28507   5.309  10.782   8.580  0.4231  0.5070  0.9210
  932MOL0     C28508   5.280  10.840   8.714  0.4379  1.4982  0.4492
  932MOL0     O28509   5.356  10.941   8.763  0.1280 -0.2851  0.2301
  932MOL0     C28510   5.307  11.021   8.858  0.7427 -0.6231 -0.3286
  932MOL0     C28511   5.221  11.128   8.820 -0.2359 -0.9770 -0.6714
  932MOL0     C28512   5.165  11.202   8.928  0.8112  0.4742  0.6725
  932MOL0     C28513   5.208  11.186   9.065  0.0354 -0.0590 -0.0887
  932MOL0     O28514   5.147  11.276   9.154  0.1439  0.0404  0.0661
  932MOL0     C28515   5.176  11.257   9.297 -0.0980 -0.5652  0.3982
  932MOL0     C28516   5.164  11.379   9.378  0.3944  0.0692 -0.9072
  932MOL0     C28517   5.016  11.426   9.401 -0.0283 -0.2598 -0.3264
  932MOL0     C28518   4.936  11.347   9.507  0.1507  0.8781 -0.5552
  932MOL0     C28519   4.794  11.392   9.518 -1.1336  1.0305 -0.0943
  932MOL0     C28520   4.770  11.536   9.572 -0.0805  0.7843  0.2168
  932MOL0     C28521   4.624  11.573   9.593  0.5733  0.4411 -0.5874
  932MOL0     C28522   4.587  11.707   9.527  0.3101 -0.3243  0.9057
  932MOL0    Cl28523   4.671  11.841   9.603 -0.2342  0.0545 -0.0036
  932MOL0     C28524   5.300  11.082   9.084 -0.8597  0.1164 -0.4124
  932MOL0     C28525   5.334  10.990   8.990 -1.0149 -0.7027 -0.6391
  932MOL0     O28526   5.200  10.767   8.784 -0.5325 -0.2472 -0.2132
  932MOL0     C28527   5.431  10.813   8.525  0.3718 -0.0942 -0.0469
  932MOL0     C28528   5.460  10.773   8.391 -0.4454 -0.4085  0.1913
  932MOL0     N28529   5.910  10.343   8.062  0.5828  0.3085 -1.3795
  932MOL0     N28530   6.018  10.278   8.077 -0.2247 -0.0092 -0.0036
  932MOL0     C28531   5.585  10.010   9.047  0.7895 -0.8969 -0.4015
  932MOL0     C28532   5.474  10.059   9.112 -0.7104 -0.3837 -1.1789
  932MOL0     C28533   5.009  10.102   9.217 -0.2046  0.4090  0.9574
  932MOL0     C28534   4.953  10.226   9.242 -0.1167 -0.7518  0.2332
  932MOL0     C28535   4.836  10.235   9.325  0.0536 -0.5059  0.2159
  932MOL0     C28536   4.779  10.124   9.377  0.3216 -0.7252 -0.5175
  932MOL0     O28537   4.662  10.125   9.454 -0.4100 -0.1654  1.2677
  932MOL0     C28538   4.613  10.237   9.529  0.0591 -0.1863 -0.5242
  932MOL0     C28539   4.700  10.274   9.654  0.1681 -0.0735  0.1023
  932MOL0     C28540   4.681  10.201   9.781 -0.4128  0.6095  0.1203
  932MOL0     C28541   4.540  10.236   9.838 -0.4010 -0.8868 -0.2508
  932MOL0     C28542   4.533  10.371   9.900  0.7816  0.0439  1.1481
  932MOL0     C28543   4.526  10.477   9.954  0.3219  0.3550  0.3599
  932MOL0     C28544   4.845  10.008   9.356 -0.5823  0.3657 -0.1667
  932MOL0     C28545   4.960   9.995   9.281 -0.3379  0.1340  0.6502
  932MOL0     C28546   5.021   9.854   9.249 -0.2463 -0.1601 -0.1514
  932MOL0     H28547   5.233   9.844   9.004 -1.3845  1.9197  2.7508
  932MOL0     H28548   5.436   9.783   8.859  4.2742  0.8629 -1.3494
  932MOL0     H28549   5.862   9.812   8.894  0.0542 -0.0756  1.1400
  932MOL0     H28550   5.821   9.981   8.954 -3.4061 -2.1327  2.9448
  932MOL0     H28551   5.895   9.863   8.690  0.4548  0.0859 -0.2125
  932MOL0     H28552   5.750   9.974   8.692  0.4127  1.2254  1.2866
  932MOL0     H28553   5.867  10.143   8.812 -0.9304 -1.5128 -1.1245
  932MOL0     H28554   6.034  10.072   8.785  0.8366  3.1206 -1.3795
  932MOL0     H28555   5.837  10.127   8.566  1.7081 -0.9942 -0.6356
  932MOL0     H28556   5.948  10.254   8.631  0.4643 -0.4459  0.8614
  932MOL0     H28557   6.022   9.998   8.484  1.7344 -0.8521  0.2840
  932MOL0     H28558   6.138  10.080   8.583  1.2253 -0.2771 -2.7646
  932MOL0     H28559   5.983  10.241   8.391  0.7813  1.4681 -0.6597
  932MOL0     H28560   6.155  10.270   8.461  0.3535 -1.0654  0.6880
  932MOL0     H28561   6.244  10.068   8.357 -0.6344 -0.4041  1.0528
  932MOL0     H28562   6.227  10.210   8.270  3.8579 -4.6661 -1.5413
  932MOL0     H28563   6.155  10.043   8.130  1.2880 -2.6575  1.6439
  932MOL0     H28564   6.029   9.986   8.252  3.7775 -2.1249 -0.0006
  932MOL0     H28565   5.787  10.074   8.193  0.3417  1.0311  2.5189
  932MOL0     H28566   5.591  10.224   8.108 -0.0649 -0.0672 -2.9011
  932MOL0     H28567   5.635  10.366   8.024 -0.7441  1.9946  2.5983
  932MOL0     H28568   5.646  10.314   8.336  1.6028 -0.3583  0.1626
  932MOL0     H28569   5.677  10.474   8.261 -1.5326  0.4421 -1.3679
  932MOL0     H28570   5.416  10.303   8.266 -0.7836 -0.1173 -1.2072
  932MOL0     H28571   5.455  10.414   8.383 -0.4174 -3.4362  0.3350
  932MOL0     H28572   5.424  10.459   8.083 -0.9293 -3.0402  0.1995
  932MOL0     H28573   5.285  10.489   8.182  0.0527  0.4573 -3.4566
  932MOL0     H28574   5.175  10.636   8.303 -1.0256 -0.9887  1.7087
  932MOL0     H28575   5.010  10.756   8.512 -0.2687 -0.5101 -0.3475
  932MOL0     H28576   5.067  10.628   8.634  0.6745  0.6076  0.0717
  932MOL0     H28577   5.039  10.587   8.470  2.4713 -0.9575 -0.2272
  932MOL0     H28578   5.201  11.150   8.716 -0.8369  0.4513 -0.2887
  932MOL0     H28579   5.093  11.278   8.903  1.1348  0.4056 -0.5160
  932MOL0     H28580   5.112  11.177   9.335 -5.4614  1.5373 -3.0979
  932MOL0     H28581   5.283  11.236   9.306 -0.1994 -0.4389  2.4012
  932MOL0     H28582   5.204  11.339   9.471 -0.8671  1.4021  0.2525
  932MOL0     H28583   5.232  11.453   9.335  2.6844 -0.9846  0.7367
  932MOL0     H28584   4.971  11.421   9.301  1.5803 -2.9953 -1.0209
  932MOL0     H28585   5.012  11.528   9.440  4.4804 -1.1123  3.1879
  932MOL0     H28586   4.985  11.366   9.603  1.4053  4.2229 -1.7398
  932MOL0     H28587   4.933  11.241   9.477  0.2527 -0.2199  2.8267
  932MOL0     H28588   4.754  11.383   9.417 -0.2942  2.4727 -0.5689
  932MOL0     H28589   4.736  11.330   9.588  0.0420 -0.7214 -0.5978
  932MOL0     H28590   4.826  11.609   9.513 -3.0998  3.7253  0.7179
  932MOL0     H28591   4.817  11.554   9.669  3.6429  0.1750 -1.2991
  932MOL0     H28592   4.585  11.582   9.695  1.5739  1.9663 -0.3108
  932MOL0     H28593   4.555  11.501   9.548  0.3115 -1.1850  2.1526
  932MOL0     H28594   4.478  11.715   9.514  0.5642 -1.4813 -4.0631
  932MOL0     H28595   4.633  11.701   9.428  2.3654  1.7926  1.6483
  932MOL0     H28596   5.327  11.076   9.189  2.9212  4.1846 -0.8217
  932MOL0     H28597   5.399  10.912   9.028 -1.2385 -0.9070 -0.6748
  932MOL0     H28598   5.496  10.882   8.577 -0.9259  0.3504  1.0455
  932MOL0     H28599   5.551  10.809   8.346  1.0139 -3.6227  0.2903
  932MOL0     H28600   5.682  10.053   9.067  1.4508 -1.4002 -2.3253
  932MOL0     H28601   5.476  10.123   9.200 -2.5200 -3.3266  1.2244
  932MOL0     H28602   5.003  10.311   9.198 -0.0587 -2.2092 -2.7801
  932MOL0     H28603   4.803  10.337   9.341  4.4563  1.1181  0.2712
  932MOL0     H28604   4.604  10.325   9.465  2.5782  0.6613  0.1531
  932MOL0     H28605   4.513  10.205   9.557  0.3678 -0.4924  0.2551
  932MOL0     H28606   4.673  10.380   9.663  1.6212  0.5859 -2.2423
  932MOL0     H28607   4.805  10.275   9.622  0.2703  4.6641 -0.2101
  932MOL0     H28608   4.695  10.097   9.750 -2.1646 -0.3429  2.3312
  932MOL0     H28609   4.750  10.216   9.865 -2.2039  1.1364  1.5561
  932MOL0     H28610   4.523  10.171   9.924  3.4784  0.1500  1.5387
  932MOL0     H28611   4.462  10.248   9.763 -0.0724  3.8098 -0.1319
  932MOL0     H28612   4.522  10.577   9.991  3.0649  0.6150  0.1203
  932MOL0     H28613   4.786   9.924   9.393 -0.6277 -0.8530 -2.7681
  932MOL0     H28614   4.944   9.778   9.262  1.7313 -1.8810  2.9772
  932MOL0     H28615   5.067   9.863   9.150 -1.9684  2.4015 -0.8340
  932MOL0     H28616   5.097   9.832   9.325 -1.5945  2.2897  2.1000
  933MOL0     O28617   9.703  11.121   9.520  0.3682 -0.0835  0.5156
  933MOL0     C28618   9.801  11.173   9.566  0.3114 -0.3070 -0.5063
  933MOL0     O28619   9.812  11.290   9.630  0.1479 -0.6556  0.0964
  933MOL0     C28620   9.692  11.329   9.682  0.2812  0.9918 -0.2252
  933MOL0     C28621   9.637  11.437   9.624 -0.7050 -0.2503  0.1466
  933MOL0     C28622   9.504  11.477   9.649  1.1545  0.1379  1.3133
  933MOL0     C28623   9.434  11.425   9.762 -0.6365  1.3674  0.1427
  933MOL0     O28624   9.307  11.470   9.805 -0.5669 -0.8650  0.0622
  933MOL0     C28625   9.198  11.405   9.743  0.5255  0.2625  0.0040
  933MOL0     C28626   9.079  11.497   9.766 -0.6904  0.1798  0.2693
  933MOL0     C28627   9.061  11.597   9.650 -0.8642  0.1184  1.0351
  933MOL0     C28628   9.170  11.692   9.632 -0.2559 -0.8099 -0.1952
  933MOL0     C28629   9.140  11.789   9.523  0.4857 -1.2245  0.2537
  933MOL0     C28630   9.056  11.917   9.579 -0.7196 -0.3094  0.2098
  933MOL0     C28631   9.043  12.031   9.483  0.4299  0.8829 -0.1837
  933MOL0     C28632   8.915  12.105   9.489 -0.0963  0.1164 -0.0624
  933MOL0     N28633   8.864  12.131   9.619  0.2879  0.7829 -0.2572
  933MOL0     C28634   8.929  12.209   9.708  1.0948  0.1667 -0.3866
  933MOL0     C28635   8.849  12.204   9.817  1.1348  0.3794  0.1991
  933MOL0     C28636   8.883  12.279   9.936 -0.6943  0.6922  0.4102
  933MOL0     C28637   8.832  12.210  10.062  0.2359  0.0099  0.5788
  933MOL0     C28638   8.848  12.292  10.184  1.3228  0.6508  0.3380
  933MOL0     C28639   8.858  12.209  10.308  0.1729  0.3369  0.2090
  933MOL0     O28640   8.841  12.293  10.428  0.7034  0.6322 -0.6121
  933MOL0     C28641   8.830  12.231  10.554  0.1335  0.8586  0.3872
  933MOL0     C28642   8.794  12.316  10.654  0.1713 -1.0741 -0.4335
  933MOL0     C28643   8.772  12.272  10.786 -0.5423 -0.1548  0.2066
  933MOL0     C28644   8.705  12.377  10.877 -0.3063  1.5062 -0.3937
  933MOL0     C28645   8.796  12.140  10.813 -0.4461  0.4308 -0.1983
  933MOL0     C28646   8.781  12.074  10.944 -0.1924 -0.0765 -0.7867
  933MOL0     O28647   8.749  11.945  10.942  0.2283  0.4059 -0.0453
  933MOL0     C28648   8.702  11.889  11.053 -0.2645 -0.3222 -0.3426
  933MOL0     C28649   8.747  11.766  11.093 -0.5193  0.4340  0.0902
  933MOL0     C28650   8.701  11.708  11.217 -0.5024  0.6873 -0.9976
  933MOL0     C28651   8.592  11.761  11.285  0.5802  0.1296 -0.7221
  933MOL0     O28652   8.550  11.682  11.381  0.2366 -0.1024 -0.3047
  933MOL0     C28653   8.470  11.730  11.490  0.1379  0.8385 -0.1498
  933MOL0     C28654   8.421  11.613  11.574 -0.0826  0.5009 -0.2580
  933MOL0     C28655   8.367  11.492  11.496  0.1180  0.1171 -1.0415
  933MOL0     C28656   8.347  11.379  11.600 -0.4345  0.1835 -0.3950
  933MOL0     C28657   8.468  11.325  11.672  0.0056  0.3100 -0.2026
  933MOL0     C28658   8.590  11.283  11.585  0.5055  0.7872 -0.3911
  933MOL0     C28659   8.695  11.225  11.673 -1.1064  0.5099 -0.4056
  933MOL0     C28660   8.661  11.084  11.712  0.5510 -0.2012 -0.1126
  933MOL0    Cl28661   8.777  11.025  11.822  0.0737 -0.8931  0.0533
  933MOL0     C28662   8.552  11.888  11.248 -0.1762  0.2149  0.6546
  933MOL0     C28663   8.600  11.948  11.130  0.0043  0.2887  0.1576
  933MOL0     O28664   8.789  12.143  11.043  0.2756  0.5865  0.3963
  933MOL0     C28665   8.833  12.057  10.709 -0.1766  0.7637  0.4184
  933MOL0     C28666   8.855  12.100  10.578 -0.7294 -0.0140 -0.3287
  933MOL0     N28667   8.745  12.122   9.794 -0.2263  0.3359 -0.5600
  933MOL0     N28668   8.753  12.078   9.679  0.5074 -0.5838 -0.2972
  933MOL0     C28669   9.504  11.330   9.839 -0.3716  0.3590  0.0170
  933MOL0     C28670   9.628  11.278   9.796  0.5130  0.2570  0.0870
  933MOL0     C28671   9.921  11.089   9.543  1.0926 -0.4680 -1.2806
  933MOL0     C28672  10.030  11.160   9.497 -0.0165  0.2117 -0.7112
  933MOL0     C28673  10.149  11.103   9.477 -0.1568 -0.4279 -0.4755
  933MOL0     C28674  10.176  10.970   9.523 -0.5862 -0.5970  0.5272
  933MOL0     O28675  10.299  10.921   9.499 -0.2731  0.8011 -0.0792
  933MOL0     C28676  10.324  10.776   9.474 -0.1649 -1.2512  0.0677
  933MOL0     C28677  10.479  10.761   9.462 -0.3115 -0.2162 -0.5392
  933MOL0     C28678  10.517  10.653   9.352 -0.6248  0.3156  0.2161
  933MOL0     C28679  10.659  10.673   9.315 -0.7098  0.0204 -0.2123
  933MOL0     C28680  10.754  10.646   9.419  0.0931  0.2404  1.2584
  933MOL0     C28681  10.843  10.602   9.486 -0.0830  0.8839  0.3166
  933MOL0     C28682  10.059  10.890   9.556 -1.1835  0.0992  0.5189
  933MOL0     C28683   9.935  10.947   9.588  0.1591 -0.3990  0.2618
  933MOL0     C28684   9.834  10.857   9.658  0.5107  0.3098  0.1625
  933MOL0     H28685   9.686  11.476   9.535 -1.0494 -2.3551 -1.0138
  933MOL0     H28686   9.443  11.539   9.584 -0.2905 -1.5901  0.9255
  933MOL0     H28687   9.180  11.304   9.783 -2.9182 -0.6006 -3.1159
  933MOL0     H28688   9.201  11.380   9.636 -2.4632 -1.8422  0.2836
  933MOL0     H28689   8.986  11.443   9.780 -1.4997  1.7962  1.4298
  933MOL0     H28690   9.096  11.569   9.847 -0.0883  1.0262 -0.5708
  933MOL0     H28691   9.062  11.543   9.555 -0.4332  0.2301  0.9743
  933MOL0     H28692   8.966  11.651   9.651 -0.2156  1.3678 -0.6106
  933MOL0     H28693   9.191  11.741   9.728  1.0901  0.1223 -0.9252
  933MOL0     H28694   9.255  11.633   9.595  0.5273 -1.4780  2.4421
  933MOL0     H28695   9.103  11.733   9.437 -1.0647  0.7672 -0.4719
  933MOL0     H28696   9.239  11.822   9.490  0.4376 -0.1131  1.1582
  933MOL0     H28697   8.958  11.868   9.586 -0.1883 -1.7992 -1.8953
  933MOL0     H28698   9.086  11.967   9.672  0.0301 -0.0131 -0.1853
  933MOL0     H28699   9.038  11.995   9.380  2.2099 -0.5277  0.1838
  933MOL0     H28700   9.136  12.089   9.488  0.9936  0.4096 -3.1664
  933MOL0     H28701   8.928  12.200   9.437 -1.3111  0.4186  0.1529
  933MOL0     H28702   8.834  12.050   9.440 -0.4324 -0.4331  1.0750
  933MOL0     H28703   9.016  12.273   9.696  0.5405  0.6915 -1.8831
  933MOL0     H28704   8.829  12.374   9.928  0.4107  1.2988 -0.1953
  933MOL0     H28705   8.990  12.302   9.938 -0.9158  1.9681 -0.7129
  933MOL0     H28706   8.734  12.164  10.043  0.2882 -0.5363  1.5254
  933MOL0     H28707   8.905  12.130  10.073  2.7378  1.6622 -2.5111
  933MOL0     H28708   8.931  12.362  10.171 -0.5210  2.6514 -1.6290
  933MOL0     H28709   8.761  12.359  10.188  0.1977 -0.5855 -1.7891
  933MOL0     H28710   8.779  12.133  10.320 -0.2749  0.9321  1.1317
  933MOL0     H28711   8.954  12.158  10.311 -0.5218 -1.1643 -1.0657
  933MOL0     H28712   8.766  12.414  10.617 -0.3018 -1.1875 -0.3862
  933MOL0     H28713   8.730  12.364  10.982 -0.0235 -4.9436 -0.8572
  933MOL0     H28714   8.597  12.377  10.861 -0.5108 -3.6818 -0.7373
  933MOL0     H28715   8.758  12.469  10.850  2.3774  1.7169  4.4435
  933MOL0     H28716   8.815  11.719  11.023  0.5718  2.6346 -0.4304
  933MOL0     H28717   8.738  11.615  11.259 -2.0562  0.6225  0.3123
  933MOL0     H28718   8.532  11.796  11.552  1.4405  0.6900 -1.2449
  933MOL0     H28719   8.385  11.784  11.446 -0.9376 -0.9095 -0.3320
  933MOL0     H28720   8.503  11.577  11.636 -1.3441  0.0034  1.1717
  933MOL0     H28721   8.345  11.655  11.642  0.3062  1.8532 -0.6198
  933MOL0     H28722   8.434  11.447  11.422  0.4978 -0.7465 -0.1763
  933MOL0     H28723   8.277  11.524  11.442 -0.1663 -0.2825 -0.8026
  933MOL0     H28724   8.317  11.286  11.549  0.5715 -0.9670  1.0361
  933MOL0     H28725   8.267  11.414  11.666 -2.4472  0.3576 -2.7801
  933MOL0     H28726   8.514  11.399  11.738  1.2140  1.9512 -2.7538
  933MOL0     H28727   8.434  11.252  11.747 -2.1029  3.7212  2.5036
  933MOL0     H28728   8.619  11.360  11.513  0.7731 -1.0863 -2.4240
  933MOL0     H28729   8.562  11.201  11.518 -0.5348 -1.4575  2.5590
  933MOL0     H28730   8.716  11.294  11.755  0.9246 -3.2948  2.6743
  933MOL0     H28731   8.792  11.213  11.624 -1.4894 -0.2572 -0.9974
  933MOL0     H28732   8.644  11.018  11.626 -1.4596  2.0733 -1.5755
  933MOL0     H28733   8.566  11.071  11.764 -0.6570 -4.6665 -2.8591
  933MOL0     H28734   8.478  11.946  11.302  1.2338  1.9059  0.8532
  933MOL0     H28735   8.555  12.045  11.110 -1.2926  0.0856  1.8639
  933MOL0     H28736   8.865  11.957  10.735 -0.0670  1.3698  2.8508
  933MOL0     H28737   8.879  12.041  10.490 -3.0289 -1.0017 -0.3455
  933MOL0     H28738   9.455  11.301   9.931 -0.3353 -0.2461 -0.1535
  933MOL0     H28739   9.687  11.208   9.854  1.5944 -1.2604 -2.6732
  933MOL0     H28740  10.023  11.266   9.472  5.3167  1.3369  1.2965
  933MOL0     H28741  10.228  11.167   9.439  1.0615  0.0516  2.5677
  933MOL0     H28742  10.279  10.716   9.553  0.6677  0.7632  2.2270
  933MOL0     H28743  10.304  10.748   9.371  0.0314 -1.0296 -0.0337
  933MOL0     H28744  10.524  10.750   9.561  0.2226 -2.5729 -0.9870
  933MOL0     H28745  10.521  10.857   9.427 -0.8869  0.1981 -0.0983
  933MOL0     H28746  10.512  10.554   9.397  1.6595  1.6286  3.8152
  933MOL0     H28747  10.460  10.653   9.259  2.2063  0.3376 -1.6324
  933MOL0     H28748  10.673  10.774   9.276 -0.1010  1.4068  3.2065
  933MOL0     H28749  10.678  10.608   9.230  3.3966 -1.3170  1.4962
  933MOL0     H28750  10.926  10.583   9.550  1.2101  1.6913 -1.0596
  933MOL0     H28751  10.073  10.791   9.599  0.4083 -0.6493 -1.5240
  933MOL0     H28752   9.867  10.829   9.759  0.8827  0.4614  0.0862
  933MOL0     H28753   9.748  10.925   9.663  2.2331  2.5394  1.8376
  933MOL0     H28754   9.824  10.765   9.600  3.2070  0.9128 -1.4335
  934MOL0     O28755   0.006   9.181   2.364  0.5570  0.2515  0.3214
  934MOL0     C28756  -0.020   9.137   2.256 -0.0937 -0.2654  0.1602
  934MOL0     O28757   0.051   9.157   2.142  0.0232  0.5689 -0.4626
  934MOL0     C28758  -0.009   9.123   2.023 -0.1308 -0.0383  1.0028
  934MOL0     C28759   0.044   9.019   1.940 -0.1210 -0.5808 -0.2221
  934MOL0     C28760  -0.015   8.993   1.814 -0.7265 -0.7734  0.6153
  934MOL0     C28761  -0.131   9.063   1.767 -0.7371  1.1004  0.0280
  934MOL0     O28762  -0.190   9.050   1.647  0.1868 -0.2400  1.1384
  934MOL0     C28763  -0.206   8.911   1.601 -0.7240 -0.7444  0.9301
  934MOL0     C28764  -0.281   8.916   1.468 -0.2128  0.1995 -0.2015
  934MOL0     C28765  -0.292   8.764   1.421 -0.4077  0.1070  0.5500
  934MOL0     C28766  -0.351   8.756   1.289 -0.1106 -0.1077  0.4822
  934MOL0     C28767  -0.404   8.612   1.262 -0.1514  0.4892  0.0192
  934MOL0     C28768  -0.451   8.580   1.118 -0.5879 -0.3084  0.6689
  934MOL0     C28769  -0.344   8.544   1.007  0.4729  0.1867 -0.0581
  934MOL0     C28770  -0.406   8.475   0.887  0.2014 -0.8471 -0.7763
  934MOL0     N28771  -0.324   8.477   0.761 -0.9021  0.2284 -0.8498
  934MOL0     C28772  -0.190   8.459   0.756 -0.1441 -0.7559 -0.3929
  934MOL0     C28773  -0.161   8.440   0.622  0.0346 -0.4050 -0.2086
  934MOL0     C28774  -0.034   8.379   0.558  0.5740 -0.0378 -1.6302
  934MOL0     C28775   0.043   8.480   0.468 -0.3656 -0.2546  0.2297
  934MOL0     C28776   0.194   8.464   0.455 -0.2211  0.4975  0.6777
  934MOL0     C28777   0.253   8.426   0.595 -0.0620  0.5903  0.2026
  934MOL0     O28778   0.401   8.427   0.582 -0.2646  0.4885 -0.9045
  934MOL0     C28779   0.466   8.543   0.591  0.0090 -1.3968  0.1450
  934MOL0     C28780   0.589   8.554   0.537  0.1627 -0.3103  0.3055
  934MOL0     C28781   0.661   8.673   0.534 -0.2940 -0.8298  0.7147
  934MOL0     C28782   0.794   8.668   0.481 -0.3147 -0.4211 -0.3062
  934MOL0     C28783   0.603   8.783   0.598 -0.5481 -0.7585 -0.5646
  934MOL0     C28784   0.668   8.923   0.611 -0.2231 -0.5592 -0.3463
  934MOL0     O28785   0.612   9.001   0.702  0.2533 -0.4213  0.5374
  934MOL0     C28786   0.656   9.131   0.724  0.1921  0.2200 -0.4570
  934MOL0     C28787   0.558   9.225   0.720 -0.3769  0.1230  1.4672
  934MOL0     C28788   0.583   9.363   0.715  0.3050  0.2851  0.6205
  934MOL0     C28789   0.709   9.415   0.758 -0.1335 -0.3751 -0.4059
  934MOL0     O28790   0.730   9.553   0.766 -0.7557 -0.7233 -0.1671
  934MOL0     C28791   0.673   9.612   0.885  0.2649  0.3054 -0.4936
  934MOL0     C28792   0.724   9.750   0.930  0.1187  0.6244 -0.1178
  934MOL0     C28793   0.875   9.746   0.965  0.2588 -0.6346 -0.1685
  934MOL0     C28794   0.922   9.883   0.964 -0.6312 -0.9611 -0.3573
  934MOL0     C28795   1.071   9.903   1.005  0.4771  0.4201  0.3783
  934MOL0     C28796   1.107  10.048   1.025 -0.3275  0.2982  0.8144
  934MOL0     C28797   1.230  10.062   1.125 -0.0863  0.3192  0.6243
  934MOL0     C28798   1.204  10.026   1.263 -1.0785 -0.0778  0.3604
  934MOL0    Cl28799   1.184  10.164   1.374  0.2651  0.3772  0.3144
  934MOL0     C28800   0.811   9.314   0.780 -0.6563  0.2946 -0.1086
  934MOL0     C28801   0.784   9.171   0.762  0.4698 -0.4139  0.3229
  934MOL0     O28802   0.786   8.948   0.559  0.0737 -0.2672  0.2170
  934MOL0     C28803   0.481   8.767   0.661  0.9325 -0.3978  0.1120
  934MOL0     C28804   0.411   8.653   0.663 -0.0420  0.4747 -0.2584
  934MOL0     N28805  -0.274   8.460   0.557  0.0898 -0.3528  0.7414
  934MOL0     N28806  -0.374   8.466   0.635  0.4784 -0.1949  0.0873
  934MOL0     C28807  -0.182   9.158   1.857  1.2462 -0.5502 -0.7212
  934MOL0     C28808  -0.119   9.193   1.971  0.2485  0.2011 -0.1243
  934MOL0     C28809  -0.138   9.047   2.272  0.0600 -0.1946 -0.3730
  934MOL0     C28810  -0.264   9.088   2.244  0.2939 -0.2120 -0.1308
  934MOL0     C28811  -0.370   9.000   2.254 -0.2226  0.9176 -0.0164
  934MOL0     C28812  -0.346   8.854   2.281 -1.0253 -0.1840  0.3160
  934MOL0     O28813  -0.446   8.760   2.296 -0.2104  0.1540  0.0037
  934MOL0     C28814  -0.546   8.799   2.387  0.3107 -0.2324 -0.1484
  934MOL0     C28815  -0.663   8.699   2.384 -0.0161 -0.7857 -0.2387
  934MOL0     C28816  -0.786   8.751   2.473  0.9084  0.4293  0.1744
  934MOL0     C28817  -0.888   8.834   2.391 -0.2940  0.2789  0.0787
  934MOL0     C28818  -0.978   8.888   2.497 -0.1895  0.4025 -0.6073
  934MOL0     C28819  -1.058   8.945   2.571 -0.9572  0.4703 -0.3386
  934MOL0     C28820  -0.211   8.817   2.290 -0.7730 -0.4258  0.9751
  934MOL0     C28821  -0.109   8.909   2.296 -0.7981 -0.4887  0.6423
  934MOL0     C28822   0.032   8.863   2.320 -0.9130 -0.2702 -0.1583
  934MOL0     H28823   0.122   8.954   1.978 -0.0317 -0.4388 -0.1629
  934MOL0     H28824   0.030   8.915   1.754  0.2208 -1.2150  1.8449
  934MOL0     H28825  -0.269   8.870   1.681 -1.5134  2.8879  2.3646
  934MOL0     H28826  -0.114   8.853   1.588 -1.6555 -1.6271 -2.7812
  934MOL0     H28827  -0.380   8.960   1.478 -0.2536 -0.2918  2.1525
  934MOL0     H28828  -0.214   8.968   1.399  0.8608  2.1205  2.1539
  934MOL0     H28829  -0.192   8.718   1.422 -0.4717 -0.0356  0.3814
  934MOL0     H28830  -0.361   8.706   1.482 -1.9644 -1.0813 -2.1970
  934MOL0     H28831  -0.434   8.825   1.269  0.9819  0.8628 -0.9417
  934MOL0     H28832  -0.273   8.788   1.219  0.7447 -5.8152 -1.6946
  934MOL0     H28833  -0.498   8.591   1.316 -0.8270 -1.5341 -1.7935
  934MOL0     H28834  -0.337   8.536   1.304  2.0051  2.9737  1.3589
  934MOL0     H28835  -0.523   8.498   1.125 -0.6462 -0.1263  2.7294
  934MOL0     H28836  -0.509   8.667   1.084 -2.4008 -0.9649  1.9416
  934MOL0     H28837  -0.287   8.471   1.065  0.5074  1.1083  1.1082
  934MOL0     H28838  -0.281   8.629   0.981 -2.2145  2.1773 -0.5469
  934MOL0     H28839  -0.436   8.373   0.911 -1.4685  0.0257  1.1564
  934MOL0     H28840  -0.499   8.528   0.865  0.2303 -1.3873 -2.3336
  934MOL0     H28841  -0.116   8.451   0.835  1.5736 -2.4591 -2.0456
  934MOL0     H28842  -0.049   8.282   0.510  4.0755 -2.3363  1.3151
  934MOL0     H28843   0.022   8.363   0.651 -0.4110  2.7107 -0.4475
  934MOL0     H28844   0.002   8.494   0.368  3.1168 -0.6069 -1.3726
  934MOL0     H28845   0.039   8.574   0.524  1.2182  0.5814 -0.9887
  934MOL0     H28846   0.216   8.386   0.381 -3.0502  1.2580 -1.1486
  934MOL0     H28847   0.223   8.566   0.428 -1.1590  0.9824  1.4770
  934MOL0     H28848   0.211   8.494   0.669 -0.5941  0.6916 -0.1952
  934MOL0     H28849   0.220   8.327   0.629 -1.2942  0.1583 -2.0755
  934MOL0     H28850   0.629   8.466   0.487 -2.6711 -1.6502  0.1557
  934MOL0     H28851   0.790   8.732   0.393  3.0900  0.0317 -0.2673
  934MOL0     H28852   0.815   8.563   0.457 -0.6183 -0.4770 -0.3255
  934MOL0     H28853   0.858   8.697   0.565 -0.4547 -0.9726 -0.0017
  934MOL0     H28854   0.452   9.208   0.701 -0.0063 -1.4779  0.6677
  934MOL0     H28855   0.492   9.421   0.711 -1.9645 -2.9596  1.2515
  934MOL0     H28856   0.565   9.623   0.868 -0.1772 -0.9574  1.2135
  934MOL0     H28857   0.684   9.548   0.973 -3.8336 -1.0316 -0.7291
  934MOL0     H28858   0.713   9.816   0.844 -2.2943 -2.9699 -2.8621
  934MOL0     H28859   0.670   9.776   1.022  0.7549  0.2888  0.3647
  934MOL0     H28860   0.937   9.682   0.901  1.1644 -1.9675  1.9250
  934MOL0     H28861   0.890   9.711   1.067 -0.7957  0.1903  0.2910
  934MOL0     H28862   0.846   9.932   1.026 -2.5280 -2.2656 -1.5500
  934MOL0     H28863   0.911   9.924   0.864  1.1692  2.9092  0.8460
  934MOL0     H28864   1.098   9.833   1.084  0.5213  2.2979  2.1208
  934MOL0     H28865   1.127   9.871   0.918  1.2095  2.2040  0.1479
  934MOL0     H28866   1.023  10.097   1.075 -1.2884 -1.5223  1.0546
  934MOL0     H28867   1.134  10.094   0.929 -0.2579  4.5007  2.6447
  934MOL0     H28868   1.278  10.160   1.113  3.0812 -1.0980  0.7325
  934MOL0     H28869   1.300   9.989   1.083 -1.2509 -1.1312  1.1178
  934MOL0     H28870   1.291   9.964   1.289 -1.0958 -2.1379 -3.7537
  934MOL0     H28871   1.117   9.960   1.266  0.1179 -1.7349  2.7846
  934MOL0     H28872   0.912   9.343   0.809 -0.9896  2.8520 -1.2601
  934MOL0     H28873   0.862   9.099   0.785  1.3498  0.9607  1.8800
  934MOL0     H28874   0.448   8.851   0.721  1.7805  0.6538 -0.8392
  934MOL0     H28875   0.318   8.648   0.719  1.0620 -0.9140  1.6069
  934MOL0     H28876  -0.279   9.197   1.829  0.5279  0.0110  2.2026
  934MOL0     H28877  -0.150   9.281   2.026 -0.7303  1.3920 -2.4608
  934MOL0     H28878  -0.268   9.193   2.216  0.7570 -0.4972 -1.2798
  934MOL0     H28879  -0.473   9.033   2.242 -1.0819 -1.7351 -0.5267
  934MOL0     H28880  -0.496   8.812   2.483  0.8659  2.2383 -0.6780
  934MOL0     H28881  -0.591   8.895   2.359  0.7683 -0.7523 -2.9868
  934MOL0     H28882  -0.633   8.611   2.440 -2.1807  0.7194  3.6791
  934MOL0     H28883  -0.710   8.678   2.287 -0.8339 -0.6337  0.1205
  934MOL0     H28884  -0.845   8.662   2.495  2.2214 -0.7443 -0.8582
  934MOL0     H28885  -0.750   8.793   2.568 -1.7356  0.6970  1.1301
  934MOL0     H28886  -0.945   8.758   2.336 -3.1869  1.1606  1.6463
  934MOL0     H28887  -0.845   8.911   2.327 -0.2372  1.7501  1.8070
  934MOL0     H28888  -1.129   8.974   2.646 -0.3417 -1.6259  1.1282
  934MOL0     H28889  -0.190   8.713   2.312 -2.4065 -0.3821  2.9881
  934MOL0     H28890   0.048   8.756   2.333 -0.2244 -0.0732  0.6711
  934MOL0     H28891   0.095   8.903   2.240  0.1354  1.8936  1.6461
  934MOL0     H28892   0.073   8.903   2.413  2.3178 -3.2613 -0.0812
  935MOL0     O28893   5.868   8.364   2.506  0.1716 -0.3040  0.0735
  935MOL0     C28894   5.861   8.361   2.632 -0.3500 -0.5930 -0.1529
  935MOL0     O28895   5.754   8.414   2.703  0.1427  0.9857  0.2149
  935MOL0     C28896   5.685   8.514   2.642 -0.1509  0.4547  0.8373
  935MOL0     C28897   5.555   8.518   2.691  1.4004  0.2520 -0.1444
  935MOL0     C28898   5.471   8.633   2.662 -0.3527 -0.3878 -0.9041
  935MOL0     C28899   5.520   8.740   2.590 -0.1754  1.0284 -0.2466
  935MOL0     O28900   5.434   8.839   2.565  1.2227 -0.4477 -0.8257
  935MOL0     C28901   5.482   8.976   2.572  0.1294  0.3676 -1.1800
  935MOL0     C28902   5.478   9.057   2.446 -0.2089 -0.8674  0.1795
  935MOL0     C28903   5.531   9.206   2.464  0.0762 -0.2349 -0.0926
  935MOL0     C28904   5.680   9.222   2.503  0.2078  0.4040 -1.0117
  935MOL0     C28905   5.723   9.364   2.491 -0.2958 -1.0879  0.4698
  935MOL0     C28906   5.859   9.397   2.558  0.1012  0.1512  0.1392
  935MOL0     C28907   5.987   9.332   2.496  0.2381  0.0871  0.0431
  935MOL0     C28908   6.106   9.363   2.584  0.1802 -0.1805 -0.2801
  935MOL0     N28909   6.114   9.510   2.623 -0.3221  0.9156 -0.4060
  935MOL0     C28910   6.136   9.604   2.541 -0.6121  0.7013 -0.0305
  935MOL0     C28911   6.114   9.717   2.609 -0.2594  0.2813 -0.4316
  935MOL0     C28912   6.149   9.860   2.570  0.3312  1.0003 -0.1685
  935MOL0     C28913   6.265   9.920   2.643  0.0410 -0.4454  0.9323
  935MOL0     C28914   6.283  10.071   2.625 -0.2321  0.5361 -0.1779
  935MOL0     C28915   6.403  10.133   2.692 -0.3219 -0.1141 -1.3576
  935MOL0     O28916   6.396  10.274   2.694 -0.9823 -1.2391 -1.4579
  935MOL0     C28917   6.344  10.320   2.816  0.8127 -1.0506 -1.1592
  935MOL0     C28918   6.264  10.235   2.906  0.1207  0.1972 -0.1094
  935MOL0     C28919   6.197  10.281   3.009  0.3934 -0.5146 -0.0610
  935MOL0     C28920   6.109  10.180   3.072 -0.5322 -0.3031  0.9848
  935MOL0     C28921   6.227  10.412   3.059  0.7981 -0.3330 -0.2292
  935MOL0     C28922   6.151  10.466   3.186 -0.3372 -0.3979  0.6480
  935MOL0     O28923   6.137  10.603   3.176  0.2561  0.4612  0.1139
  935MOL0     C28924   6.174  10.675   3.287  1.2529  0.7735  1.2538
  935MOL0     C28925   6.107  10.655   3.411 -0.1731  0.2908 -0.6416
  935MOL0     C28926   6.100  10.764   3.507  0.6529  0.6062 -0.4460
  935MOL0     C28927   6.157  10.888   3.462  0.7163  0.2938  0.2388
  935MOL0     O28928   6.139  11.009   3.531 -0.1688 -1.0537 -0.2220
  935MOL0     C28929   6.085  11.020   3.665  0.2049 -0.8723  0.2204
  935MOL0     C28930   6.103  11.151   3.736  0.3040  0.2641 -1.0536
  935MOL0     C28931   6.067  11.164   3.886  0.7719  1.2962 -0.3936
  935MOL0     C28932   6.041  11.309   3.920 -0.0623 -0.0350  0.0454
  935MOL0     C28933   6.179  11.376   3.946  0.0492  0.6541 -0.9450
  935MOL0     C28934   6.179  11.530   3.970  0.4018 -0.3504  0.0976
  935MOL0     C28935   6.310  11.577   4.018  0.3806 -0.8411  0.3758
  935MOL0     C28936   6.431  11.553   3.927 -0.4715 -0.6155  0.0417
  935MOL0    Cl28937   6.417  11.616   3.763  0.1466  0.3771 -0.0773
  935MOL0     C28938   6.234  10.898   3.344  0.2000  0.7272  0.7031
  935MOL0     C28939   6.239  10.792   3.253 -0.6796  1.1074  0.2555
  935MOL0     O28940   6.113  10.394   3.279  1.2916 -0.4404  0.2508
  935MOL0     C28941   6.300  10.499   2.977  0.0263 -0.4421  0.4351
  935MOL0     C28942   6.361  10.453   2.855  1.2200 -0.2742 -0.1766
  935MOL0     N28943   6.053   9.688   2.728  1.4553  0.1992 -0.2253
  935MOL0     N28944   6.049   9.560   2.731  0.3344  0.0839 -0.5530
  935MOL0     C28945   5.665   8.740   2.568 -0.4527  0.1444 -0.2728
  935MOL0     C28946   5.740   8.626   2.582 -0.0258  0.2569  0.1730
  935MOL0     C28947   5.959   8.283   2.710 -0.6265 -0.3115 -0.8072
  935MOL0     C28948   5.991   8.325   2.843 -0.1093  0.4171 -0.2135
  935MOL0     C28949   6.094   8.268   2.923  0.4309 -0.0370  0.9223
  935MOL0     C28950   6.176   8.162   2.868  0.4711  0.1079 -0.8173
  935MOL0     O28951   6.261   8.100   2.958  0.4003  0.0711  0.6229
  935MOL0     C28952   6.395   8.137   2.945 -0.1668  0.1395 -0.1327
  935MOL0     C28953   6.475   8.015   2.896 -0.3046 -0.3986  0.2221
  935MOL0     C28954   6.613   8.042   2.902 -0.4065 -0.2519  0.1609
  935MOL0     C28955   6.689   7.917   2.848 -0.2674 -0.4001 -0.1524
  935MOL0     C28956   6.768   7.965   2.736  0.3908  1.2786  0.4960
  935MOL0     C28957   6.831   8.001   2.634  0.4468 -0.3535  0.2849
  935MOL0     C28958   6.138   8.111   2.742  1.3482 -0.3021 -0.6314
  935MOL0     C28959   6.027   8.166   2.666 -0.7293  0.6635 -0.1383
  935MOL0     C28960   5.997   8.104   2.532 -0.2276  0.1567  0.9181
  935MOL0     H28961   5.513   8.426   2.730  1.0622 -0.7620 -2.7299
  935MOL0     H28962   5.370   8.640   2.701  0.6811 -0.5321  2.1472
  935MOL0     H28963   5.583   8.987   2.614 -1.3751  2.7977  2.2907
  935MOL0     H28964   5.415   9.033   2.636 -1.2252  0.5540 -2.7023
  935MOL0     H28965   5.543   9.007   2.373  1.6489  0.0587  1.1319
  935MOL0     H28966   5.377   9.069   2.407  0.0838  0.2643 -0.2727
  935MOL0     H28967   5.517   9.257   2.368  1.9964 -1.8570 -1.3160
  935MOL0     H28968   5.472   9.259   2.540  2.5713 -2.4047  3.6973
  935MOL0     H28969   5.687   9.188   2.606 -1.9065  1.2688 -0.5368
  935MOL0     H28970   5.751   9.171   2.438  2.5861  0.9663  0.9932
  935MOL0     H28971   5.655   9.427   2.550 -0.9756 -1.4218  0.0570
  935MOL0     H28972   5.719   9.409   2.391  0.3127 -0.5964  0.6564
  935MOL0     H28973   5.871   9.501   2.528 -0.2614 -0.3639 -1.9198
  935MOL0     H28974   5.854   9.375   2.665 -1.0582 -2.6392 -0.3976
  935MOL0     H28975   6.013   9.379   2.401 -1.2300 -2.2932 -1.6278
  935MOL0     H28976   5.968   9.226   2.481  0.2074  0.2632 -1.1991
  935MOL0     H28977   6.099   9.304   2.676 -0.3786  0.2167 -0.0611
  935MOL0     H28978   6.197   9.327   2.536  1.3789  1.0331  0.9870
  935MOL0     H28979   6.160   9.600   2.436 -0.7451  0.0161 -0.0370
  935MOL0     H28980   6.069   9.933   2.572  2.9609  4.2448 -2.2776
  935MOL0     H28981   6.172   9.848   2.463 -2.5512 -0.3220 -0.7329
  935MOL0     H28982   6.254   9.893   2.748  1.6236 -1.9288  0.7629
  935MOL0     H28983   6.353   9.868   2.603 -0.7620 -0.9893 -0.1879
  935MOL0     H28984   6.275  10.099   2.520  1.0668  4.2087  0.5395
  935MOL0     H28985   6.195  10.126   2.658 -0.2689  0.4946 -0.2071
  935MOL0     H28986   6.428  10.095   2.792 -1.9441 -0.0801 -0.9019
  935MOL0     H28987   6.492  10.101   2.638  1.0717  3.3162 -1.3244
  935MOL0     H28988   6.264  10.127   2.899  1.1182  0.1601  0.2159
  935MOL0     H28989   6.139  10.163   3.175  1.6245  3.3177  1.1313
  935MOL0     H28990   6.106  10.086   3.016  0.9049  0.1235  0.1476
  935MOL0     H28991   6.009  10.225   3.081  1.2631  4.3705  0.6888
  935MOL0     H28992   6.067  10.557   3.434  4.0619 -1.1166  1.8933
  935MOL0     H28993   6.031  10.765   3.591  0.0828  1.4783 -0.9193
  935MOL0     H28994   5.978  10.998   3.667  0.0776 -0.6986 -1.9138
  935MOL0     H28995   6.125  10.941   3.729 -2.8933 -1.4920  1.5552
  935MOL0     H28996   6.209  11.171   3.722  0.1157  1.1241 -1.3162
  935MOL0     H28997   6.041  11.221   3.679 -2.9838  0.3662  2.2522
  935MOL0     H28998   6.153  11.138   3.947 -0.8634  1.8568  2.2971
  935MOL0     H28999   5.978  11.109   3.921  3.1631 -0.2008  4.0709
  935MOL0     H29000   5.979  11.323   4.009  0.1228 -4.0967  0.9765
  935MOL0     H29001   5.982  11.347   3.836 -2.1973 -0.9588  1.0389
  935MOL0     H29002   6.231  11.331   4.031 -2.0868 -1.9582 -0.8804
  935MOL0     H29003   6.235  11.357   3.853  3.2256 -2.9154  1.3845
  935MOL0     H29004   6.105  11.549   4.048 -0.7698  4.1948 -1.8071
  935MOL0     H29005   6.148  11.582   3.879  0.4141  0.0866  0.3429
  935MOL0     H29006   6.331  11.526   4.112  2.1850 -0.0374  0.4546
  935MOL0     H29007   6.309  11.686   4.028  0.2082 -0.6006 -1.6849
  935MOL0     H29008   6.450  11.445   3.922 -2.0327 -0.8695 -0.9074
  935MOL0     H29009   6.524  11.596   3.965  0.3311 -1.2427 -1.1675
  935MOL0     H29010   6.272  10.997   3.319 -3.3607  2.5115  1.6443
  935MOL0     H29011   6.279  10.796   3.152  1.5022 -2.2297  0.8588
  935MOL0     H29012   6.305  10.603   3.009 -2.7612 -0.6495  1.8899
  935MOL0     H29013   6.405  10.529   2.792 -1.7304  0.2586 -1.7918
  935MOL0     H29014   5.710   8.833   2.534  1.4859 -0.9533 -0.8670
  935MOL0     H29015   5.841   8.660   2.563  0.1077  0.0426  0.5091
  935MOL0     H29016   5.932   8.413   2.868 -1.8098 -0.4757 -0.9487
  935MOL0     H29017   6.093   8.296   3.028  0.4534 -2.6873  1.6862
  935MOL0     H29018   6.426   8.223   2.885  0.6818 -0.1440 -0.1123
  935MOL0     H29019   6.422   8.178   3.043  0.6394  2.3638 -1.2165
  935MOL0     H29020   6.442   7.994   2.794 -0.1819 -0.5990  0.2239
  935MOL0     H29021   6.449   7.932   2.963  4.2770 -1.6307  0.7800
  935MOL0     H29022   6.637   8.133   2.847  1.7985  0.7577  2.5634
  935MOL0     H29023   6.650   8.055   3.004  0.2500  2.5130 -0.3605
  935MOL0     H29024   6.618   7.841   2.812 -2.8686  2.1725 -0.8388
  935MOL0     H29025   6.753   7.871   2.923 -0.7100 -1.7895 -0.5846
  935MOL0     H29026   6.881   8.038   2.547  0.1035  2.8935  1.3198
  935MOL0     H29027   6.184   8.017   2.715  2.7540 -0.4591  1.9449
  935MOL0     H29028   5.892   8.099   2.504 -0.8931 -2.4798  3.3504
  935MOL0     H29029   6.063   8.148   2.457  0.7012 -3.5520 -0.6895
  935MOL0     H29030   6.027   7.999   2.547  0.3980  0.4956  2.2146
  936MOL0     O29031   1.325  11.075  10.069  0.9552  0.0373  0.2830
  936MOL0     C29032   1.296  11.183  10.012  0.0703  0.0185 -0.1908
  936MOL0     O29033   1.332  11.209   9.888  0.3186 -0.3267 -0.7573
  936MOL0     C29034   1.385  11.109   9.809  0.0528  0.1725 -0.8678
  936MOL0     C29035   1.505  11.045   9.845 -0.9279 -1.1579  0.3829
  936MOL0     C29036   1.558  10.952   9.763  0.7145  0.0478  0.3425
  936MOL0     C29037   1.495  10.908   9.649  1.0280 -0.0267 -0.2231
  936MOL0     O29038   1.556  10.803   9.575  0.4041  0.3011  0.2892
  936MOL0     C29039   1.470  10.731   9.476  0.1366 -0.0433 -0.1947
  936MOL0     C29040   1.554  10.598   9.470  0.2615 -0.5250  0.2868
  936MOL0     C29041   1.515  10.492   9.374 -0.5779 -0.2811 -0.5953
  936MOL0     C29042   1.519  10.520   9.227 -0.8844 -0.6088 -0.1079
  936MOL0     C29043   1.465  10.407   9.144 -0.2123  0.4980  0.0437
  936MOL0     C29044   1.315  10.392   9.161 -0.4108 -1.0517 -1.1331
  936MOL0     C29045   1.273  10.253   9.125  0.4782  0.1099  0.4207
  936MOL0     C29046   1.125  10.232   9.166  0.6396 -1.0878 -0.0373
  936MOL0     N29047   1.078  10.100   9.111  0.2876  0.1332 -0.5083
  936MOL0     C29048   0.998  10.064   8.997  1.1463 -0.1630 -0.3684
  936MOL0     C29049   0.963   9.936   9.015 -0.4959 -0.1907  0.2257
  936MOL0     C29050   0.896   9.847   8.917  0.8162  0.4581 -0.2719
  936MOL0     C29051   0.879   9.884   8.767  0.1712  0.6859  0.4647
  936MOL0     C29052   0.825   9.766   8.685  0.4529 -0.0724 -0.6907
  936MOL0     C29053   0.913   9.644   8.678  0.5712 -0.4717 -0.2110
  936MOL0     O29054   1.042   9.690   8.629 -0.1413 -0.8680 -0.0765
  936MOL0     C29055   1.080   9.655   8.502  0.5482 -1.2991 -0.2291
  936MOL0     C29056   1.221   9.660   8.479  0.9648  1.2858 -0.5365
  936MOL0     C29057   1.280   9.666   8.350  0.1877  0.5335  0.5193
  936MOL0     C29058   1.431   9.664   8.343 -0.6291  0.0585  0.3910
  936MOL0     C29059   1.186   9.668   8.246 -0.4785  1.4643 -0.2517
  936MOL0     C29060   1.222   9.676   8.094  0.1322 -0.4442 -0.3070
  936MOL0     O29061   1.137   9.621   8.004  0.5930 -0.0806  0.4622
  936MOL0     C29062   1.166   9.642   7.869 -0.3694  0.7701  0.5455
  936MOL0     C29063   1.216   9.537   7.794  0.2109  0.8565 -0.3529
  936MOL0     C29064   1.273   9.552   7.665 -0.2292 -0.1252 -0.0422
  936MOL0     C29065   1.269   9.672   7.598 -0.3033 -0.8319 -0.6005
  936MOL0     O29066   1.342   9.720   7.486 -0.1489 -0.5003 -0.1841
  936MOL0     C29067   1.367   9.628   7.385 -0.6505  0.1490 -0.2636
  936MOL0     C29068   1.384   9.715   7.264  1.2451 -0.1391 -0.6695
  936MOL0     C29069   1.523   9.789   7.246  0.1855 -0.9574  0.0709
  936MOL0     C29070   1.602   9.841   7.377  0.0599  0.6077  0.5524
  936MOL0     C29071   1.718   9.927   7.337  0.2072 -1.6285  0.1688
  936MOL0     C29072   1.816   9.953   7.444  0.9432 -0.5433  0.6406
  936MOL0     C29073   1.754  10.011   7.571 -0.0617 -0.6427 -0.2396
  936MOL0     C29074   1.857  10.084   7.658 -0.4351  1.0492  0.1460
  936MOL0    Cl29075   1.900  10.243   7.590  0.0633 -0.5541  0.2514
  936MOL0     C29076   1.212   9.788   7.673  0.3727 -0.5310  0.4581
  936MOL0     C29077   1.165   9.766   7.801 -1.2952  0.1320  0.7197
  936MOL0     O29078   1.320   9.743   8.069  0.6902 -0.5514  0.5197
  936MOL0     C29079   1.045   9.640   8.272 -0.9320  0.3667  0.3159
  936MOL0     C29080   0.993   9.642   8.398  0.3437  0.4835 -0.3638
  936MOL0     N29081   1.005   9.902   9.143 -0.0503  0.3032  0.2063
  936MOL0     N29082   1.077   9.989   9.200  0.7852 -0.7853  0.9189
  936MOL0     C29083   1.367  10.952   9.631 -0.2069 -0.0835 -0.1444
  936MOL0     C29084   1.312  11.056   9.704 -0.2972 -0.0573 -0.0544
  936MOL0     C29085   1.241  11.287  10.097  0.0064 -1.2665  0.0093
  936MOL0     C29086   1.252  11.273  10.242 -0.4355 -0.1778  0.0673
  936MOL0     C29087   1.197  11.365  10.331 -0.1139  0.9408 -0.1244
  936MOL0     C29088   1.121  11.467  10.288  0.4490 -0.0419  0.2380
  936MOL0     O29089   1.076  11.565  10.366 -0.5508  0.4023  0.1607
  936MOL0     C29090   1.170  11.679  10.382  0.5831 -0.4228 -0.2716
  936MOL0     C29091   1.119  11.778  10.490 -0.6896  0.6589  1.0720
  936MOL0     C29092   1.072  11.710  10.614 -0.4744  0.2734  1.3287
  936MOL0     C29093   1.038  11.824  10.708  0.6692  0.5356  0.2764
  936MOL0     C29094   1.026  11.762  10.840  0.1440  0.0588  0.6680
  936MOL0     C29095   1.023  11.717  10.950  0.1552 -0.0725 -0.3385
  936MOL0     C29096   1.089  11.474  10.147  0.3433  0.3307  0.1269
  936MOL0     C29097   1.147  11.387  10.051  0.1031 -0.0317  0.1007
  936MOL0     C29098   1.108  11.419   9.910  0.1216 -0.5426  0.4101
  936MOL0     H29099   1.558  11.074   9.935  0.8329  0.3764 -1.0487
  936MOL0     H29100   1.648  10.893   9.780  0.7037 -0.3486 -0.9082
  936MOL0     H29101   1.465  10.781   9.379  1.1452 -1.2281 -0.8897
  936MOL0     H29102   1.373  10.697   9.513  0.9397 -0.5413  1.6001
  936MOL0     H29103   1.660  10.616   9.450 -0.1128  1.2889 -0.2603
  936MOL0     H29104   1.553  10.552   9.569 -2.2061 -0.5322  0.3077
  936MOL0     H29105   1.586  10.410   9.387 -0.2877 -0.1469 -1.2803
  936MOL0     H29106   1.412  10.461   9.397 -0.4331 -0.4488 -0.1743
  936MOL0     H29107   1.464  10.612   9.206 -1.9630 -0.7905  1.6813
  936MOL0     H29108   1.624  10.544   9.206 -0.2609  1.1254  4.0017
  936MOL0     H29109   1.522  10.319   9.177  0.2359  0.6627 -0.2872
  936MOL0     H29110   1.489  10.424   9.039 -1.7361 -2.3387 -0.8980
  936MOL0     H29111   1.265  10.400   9.258 -2.4729 -0.7793 -2.1677
  936MOL0     H29112   1.274  10.477   9.105  3.9032  3.8283  2.1389
  936MOL0     H29113   1.333  10.177   9.177  0.3979 -0.3307 -0.1183
  936MOL0     H29114   1.298  10.244   9.019  0.2827  0.5765  0.3350
  936MOL0     H29115   1.099  10.232   9.272 -0.3628 -0.4120 -0.2615
  936MOL0     H29116   1.068  10.315   9.124 -2.2975 -2.1103  1.6296
  936MOL0     H29117   0.977  10.127   8.911  4.4112 -1.5935 -2.4346
  936MOL0     H29118   0.795   9.823   8.951 -0.1327  1.0320 -2.4853
  936MOL0     H29119   0.946   9.751   8.928 -1.5090 -0.7077  0.9785
  936MOL0     H29120   0.799   9.957   8.758 -0.7320  0.1462  3.2271
  936MOL0     H29121   0.975   9.920   8.728  0.7642  0.7068  1.8790
  936MOL0     H29122   0.729   9.742   8.732  0.9266 -1.5269 -0.4287
  936MOL0     H29123   0.809   9.798   8.581 -2.0780  2.8462  0.4085
  936MOL0     H29124   0.919   9.593   8.774 -0.8946 -1.0867 -0.4077
  936MOL0     H29125   0.860   9.567   8.619  0.0222  0.4079 -0.8925
  936MOL0     H29126   1.284   9.676   8.566  1.8054  0.6406 -1.0165
  936MOL0     H29127   1.471   9.709   8.434 -0.5126 -0.4097  0.5698
  936MOL0     H29128   1.471   9.720   8.258 -0.0904 -0.3120  0.3985
  936MOL0     H29129   1.468   9.562   8.333 -2.0055 -1.0484  4.7005
  936MOL0     H29130   1.244   9.454   7.859 -0.6462  1.3401  0.6617
  936MOL0     H29131   1.332   9.470   7.626  0.6490 -0.3755  1.7394
  936MOL0     H29132   1.460   9.572   7.401 -0.5182  0.5866  0.5176
  936MOL0     H29133   1.290   9.551   7.374  0.5037 -1.6580  2.9205
  936MOL0     H29134   1.379   9.641   7.184  0.5744 -1.0717  0.2079
  936MOL0     H29135   1.301   9.782   7.239  0.7371 -1.6370 -3.4298
  936MOL0     H29136   1.503   9.883   7.192 -0.5189 -1.2379 -0.1636
  936MOL0     H29137   1.592   9.725   7.191  0.3615 -1.0282  0.3756
  936MOL0     H29138   1.635   9.755   7.437 -0.8804  1.2730  2.0769
  936MOL0     H29139   1.535   9.901   7.439 -2.4735 -1.7679  0.3239
  936MOL0     H29140   1.776   9.883   7.255 -0.9641  0.8155 -2.1543
  936MOL0     H29141   1.685  10.021   7.291 -2.8811 -3.5332 -1.7765
  936MOL0     H29142   1.889  10.024   7.405  1.6142 -2.2089 -1.2828
  936MOL0     H29143   1.877   9.864   7.461  0.5091 -1.0637 -0.4442
  936MOL0     H29144   1.711   9.928   7.627  0.6592  0.8417  2.7268
  936MOL0     H29145   1.670  10.079   7.556 -1.1288 -1.8830 -0.1022
  936MOL0     H29146   1.953  10.032   7.655 -0.6876  0.5160 -3.4678
  936MOL0     H29147   1.818  10.098   7.759 -3.4491  1.4725 -0.9835
  936MOL0     H29148   1.212   9.888   7.632 -0.7662 -1.2436 -1.4248
  936MOL0     H29149   1.122   9.856   7.844  2.1611  3.4014 -1.9540
  936MOL0     H29150   0.973   9.636   8.190  0.5350  2.1587 -1.1814
  936MOL0     H29151   0.886   9.636   8.415  0.7229 -3.6695  2.2670
  936MOL0     H29152   1.310  10.919   9.544  1.0912  0.8539 -1.4056
  936MOL0     H29153   1.210  11.092   9.698 -0.8335 -1.2112  1.5058
  936MOL0     H29154   1.311  11.188  10.275 -3.0610 -0.8819  3.6932
  936MOL0     H29155   1.232  11.357  10.434  1.9896 -3.3811 -0.9287
  936MOL0     H29156   1.268  11.643  10.416  0.5376  1.0808  1.6771
  936MOL0     H29157   1.180  11.749  10.299 -0.8108 -1.0836 -1.0201
  936MOL0     H29158   1.041  11.831  10.434 -0.1520 -0.3477 -0.7245
  936MOL0     H29159   1.211  11.834  10.508  0.4807 -0.9583  0.3214
  936MOL0     H29160   0.984  11.649  10.596 -0.5111  0.6058  0.2945
  936MOL0     H29161   1.143  11.639  10.657 -3.1995 -2.7242  1.2306
  936MOL0     H29162   0.949  11.880  10.679  0.5727 -0.3686 -1.3340
  936MOL0     H29163   1.122  11.894  10.713  1.0869  0.1383 -0.8678
  936MOL0     H29164   1.033  11.683  11.051 -3.3315 -1.0040 -0.1586
  936MOL0     H29165   1.033  11.560  10.111  0.8203 -0.1272 -1.8484
  936MOL0     H29166   1.012  11.470   9.916  0.8917  0.8920  1.0630
  936MOL0     H29167   1.172  11.493   9.860 -1.4561 -0.1648 -1.1498
  936MOL0     H29168   1.094  11.330   9.848 -2.0059  0.4071 -0.5803
  937MOL0     O29169   3.135   5.493   6.540  0.2558 -0.6608  1.5237
  937MOL0     C29170   3.064   5.572   6.594 -0.0785 -0.1423  0.8347
  937MOL0     O29171   2.948   5.621   6.545 -0.0634 -0.4049 -0.5509
  937MOL0     C29172   2.908   5.602   6.414  0.4316  0.7651  0.1469
  937MOL0     C29173   2.989   5.582   6.296 -0.5521 -0.2178 -0.1014
  937MOL0     C29174   2.934   5.563   6.162 -0.0451 -0.9049 -0.6388
  937MOL0     C29175   2.794   5.574   6.145  0.4151  0.5204  0.4980
  937MOL0     O29176   2.721   5.572   6.032 -0.1536  0.4575  0.0779
  937MOL0     C29177   2.732   5.446   5.970 -0.1117  0.9116  0.5724
  937MOL0     C29178   2.610   5.419   5.888 -0.0026  0.4165  0.2114
  937MOL0     C29179   2.642   5.297   5.795 -0.2754 -0.0032  0.3731
  937MOL0     C29180   2.563   5.303   5.661 -0.3899 -1.0758  0.0793
  937MOL0     C29181   2.539   5.169   5.608  0.5477  0.5941 -0.3964
  937MOL0     C29182   2.667   5.083   5.576  0.1201  0.3900  0.6547
  937MOL0     C29183   2.701   4.974   5.677 -0.6753 -0.0079  0.0480
  937MOL0     C29184   2.596   4.855   5.687 -0.6160  0.2418  0.9470
  937MOL0     N29185   2.653   4.733   5.635  1.0522 -0.5200 -0.1178
  937MOL0     C29186   2.595   4.661   5.531  0.1498 -0.2955  1.1704
  937MOL0     C29187   2.694   4.569   5.499 -0.0905 -0.1545  0.3686
  937MOL0     C29188   2.683   4.459   5.397  0.6217 -0.4038  0.4381
  937MOL0     C29189   2.768   4.481   5.271  0.1166  0.5575 -0.0203
  937MOL0     C29190   2.917   4.478   5.301  0.1634  0.4924  0.5237
  937MOL0     C29191   3.003   4.484   5.167  0.1233  0.4823 -0.7596
  937MOL0     O29192   2.989   4.367   5.086 -0.1471  0.1863 -0.2525
  937MOL0     C29193   3.045   4.383   4.964 -0.6141  0.7237 -0.2938
  937MOL0     C29194   3.182   4.398   4.933 -0.4233 -1.0626 -1.0938
  937MOL0     C29195   3.234   4.405   4.802  0.5517  0.2244 -1.2686
  937MOL0     C29196   3.387   4.402   4.792  0.1431 -0.8214  0.2447
  937MOL0     C29197   3.139   4.387   4.694 -0.3916  0.3577  0.0050
  937MOL0     C29198   3.175   4.397   4.554 -0.1975  0.6302  0.1517
  937MOL0     O29199   3.109   4.305   4.476  0.7837 -0.2312  0.2924
  937MOL0     C29200   3.144   4.303   4.336  1.1088 -0.2955 -0.6397
  937MOL0     C29201   3.142   4.416   4.249 -0.1633  0.0270  0.9270
  937MOL0     C29202   3.157   4.392   4.116  0.6209 -1.4313 -0.1160
  937MOL0     C29203   3.193   4.281   4.055  0.0912  1.5199 -0.1328
  937MOL0     O29204   3.221   4.278   3.918 -0.1119  0.2045 -0.2468
  937MOL0     C29205   3.355   4.232   3.897  0.3031  0.1361  0.5437
  937MOL0     C29206   3.454   4.340   3.911  0.4244  0.2290 -0.0521
  937MOL0     C29207   3.582   4.287   3.858 -0.5233  0.5936  1.1304
  937MOL0     C29208   3.694   4.395   3.877 -0.2551  0.0421 -0.7704
  937MOL0     C29209   3.662   4.536   3.823  0.6545 -0.4360  0.4134
  937MOL0     C29210   3.796   4.627   3.792 -0.5457  0.8212  0.2223
  937MOL0     C29211   3.889   4.620   3.915  0.0334 -0.0408  0.0619
  937MOL0     C29212   3.998   4.731   3.912  0.9157 -0.2200 -0.3781
  937MOL0    Cl29213   4.062   4.743   4.084  0.5372 -0.2261 -0.1532
  937MOL0     C29214   3.182   4.163   4.134  0.4963 -0.5121 -0.3288
  937MOL0     C29215   3.151   4.174   4.276 -0.4918  0.3213 -1.2532
  937MOL0     O29216   3.263   4.478   4.519 -0.4719 -0.8291 -0.2524
  937MOL0     C29217   3.004   4.361   4.723 -0.3813 -0.1561  0.5471
  937MOL0     C29218   2.963   4.349   4.851  0.2690 -0.3192 -0.3973
  937MOL0     N29219   2.792   4.582   5.584  0.4236  0.0413 -0.5505
  937MOL0     N29220   2.766   4.679   5.668  0.1397 -0.3454  0.0794
  937MOL0     C29221   2.721   5.592   6.260  0.0913 -0.8641 -1.2364
  937MOL0     C29222   2.765   5.611   6.391 -0.0442  0.3693 -0.0547
  937MOL0     C29223   3.103   5.588   6.738 -0.4155 -0.4301 -0.1343
  937MOL0     C29224   3.219   5.524   6.790 -0.2090  0.3193  0.3604
  937MOL0     C29225   3.285   5.568   6.903  0.1331 -0.1549 -0.0860
  937MOL0     C29226   3.223   5.648   6.996  0.7990 -0.5842  0.5374
  937MOL0     O29227   3.281   5.680   7.118  0.1843 -0.6757 -0.0552
  937MOL0     C29228   3.222   5.788   7.201 -0.3385  0.5414 -0.2245
  937MOL0     C29229   3.312   5.804   7.323  0.4723  0.1010  0.2328
  937MOL0     C29230   3.361   5.676   7.370  0.5184  0.1533 -0.5571
  937MOL0     C29231   3.463   5.717   7.482  0.0507 -0.6451  0.3459
  937MOL0     C29232   3.582   5.768   7.404 -0.2246  1.2339  0.8353
  937MOL0     C29233   3.650   5.825   7.333  0.4501 -1.0064 -0.7037
  937MOL0     C29234   3.101   5.702   6.950  0.3741 -0.2329  0.2924
  937MOL0     C29235   3.041   5.678   6.826  0.4966 -0.5030 -0.9282
  937MOL0     C29236   2.928   5.765   6.784  0.1053 -0.1245 -0.6758
  937MOL0     H29237   3.096   5.584   6.312 -1.0174  2.2459  4.0437
  937MOL0     H29238   2.999   5.549   6.077  0.4872 -0.8488 -0.2515
  937MOL0     H29239   2.739   5.362   6.040 -0.7767 -0.8648 -1.3785
  937MOL0     H29240   2.821   5.425   5.910 -1.8138 -2.0908 -1.1519
  937MOL0     H29241   2.531   5.389   5.957  1.7919 -1.4276  1.5790
  937MOL0     H29242   2.571   5.504   5.831 -0.5484  0.7815  1.1006
  937MOL0     H29243   2.749   5.279   5.783  0.3165  0.6284  3.7664
  937MOL0     H29244   2.596   5.210   5.843 -1.9829  0.7151  0.1047
  937MOL0     H29245   2.464   5.340   5.691  1.2123  3.2406  0.7228
  937MOL0     H29246   2.608   5.377   5.594  0.9124 -1.8237  0.1028
  937MOL0     H29247   2.479   5.172   5.516 -0.5427 -1.0024  0.2097
  937MOL0     H29248   2.471   5.116   5.676  1.6575  0.7393  0.8605
  937MOL0     H29249   2.647   5.048   5.475  2.2410  2.2317 -0.5014
  937MOL0     H29250   2.750   5.154   5.575  0.3638  0.1072 -0.7859
  937MOL0     H29251   2.699   5.021   5.776 -3.5951  2.2844 -0.9221
  937MOL0     H29252   2.804   4.949   5.652 -0.9228 -0.1195 -0.9084
  937MOL0     H29253   2.558   4.833   5.787  0.1033 -2.0214  0.7849
  937MOL0     H29254   2.510   4.884   5.625  2.2900  3.3354 -2.0555
  937MOL0     H29255   2.503   4.676   5.476 -0.2632 -2.4984  1.1757
  937MOL0     H29256   2.577   4.463   5.371  0.0963  1.2044  2.5675
  937MOL0     H29257   2.715   4.377   5.463  4.3444 -1.8263 -2.7223
  937MOL0     H29258   2.752   4.410   5.190  0.0833  0.4824  0.0514
  937MOL0     H29259   2.752   4.582   5.233 -0.0140 -0.1751 -1.9923
  937MOL0     H29260   2.952   4.554   5.371  3.2599 -1.1981  1.0309
  937MOL0     H29261   2.944   4.388   5.357  0.4255  1.8031  2.6202
  937MOL0     H29262   2.985   4.577   5.114  0.7429  0.1261 -1.6270
  937MOL0     H29263   3.112   4.487   5.180  0.5164 -1.4948 -2.9372
  937MOL0     H29264   3.259   4.407   5.009 -0.5582  3.4435 -1.1734
  937MOL0     H29265   3.415   4.333   4.712 -3.4618 -1.6551 -0.4740
  937MOL0     H29266   3.436   4.399   4.890 -1.3012  0.3337  1.0580
  937MOL0     H29267   3.429   4.489   4.740  0.6772 -0.2662  1.5596
  937MOL0     H29268   3.134   4.512   4.298  0.0054  0.2168  0.5884
  937MOL0     H29269   3.148   4.481   4.053  2.2322 -1.4660 -0.4262
  937MOL0     H29270   3.384   4.152   3.965  0.8629  0.2916  0.4864
  937MOL0     H29271   3.346   4.190   3.796 -1.4509  0.5311  0.4871
  937MOL0     H29272   3.427   4.425   3.848  2.6972  1.0833  0.0227
  937MOL0     H29273   3.460   4.375   4.015  0.8468 -0.0879  0.0351
  937MOL0     H29274   3.561   4.288   3.750  1.9945 -0.4394  0.5597
  937MOL0     H29275   3.603   4.182   3.881  1.0128 -0.9061 -5.0492
  937MOL0     H29276   3.793   4.368   3.842  0.6390 -0.7396  2.1060
  937MOL0     H29277   3.706   4.395   3.985 -1.2381 -0.5989 -0.6458
  937MOL0     H29278   3.599   4.534   3.734  0.1022  5.1678  0.2947
  937MOL0     H29279   3.592   4.577   3.897 -2.0019 -3.3110 -0.2767
  937MOL0     H29280   3.764   4.730   3.778  3.7704  2.8809  3.1120
  937MOL0     H29281   3.851   4.592   3.704 -0.5158 -0.4034  0.7122
  937MOL0     H29282   3.933   4.521   3.923  2.0453  0.9022  1.6826
  937MOL0     H29283   3.835   4.640   4.008 -2.6218 -2.3296 -0.8715
  937MOL0     H29284   3.955   4.829   3.886 -0.4210 -1.0186 -1.3250
  937MOL0     H29285   4.072   4.719   3.832  4.3583  2.2822  2.1488
  937MOL0     H29286   3.215   4.069   4.091  2.8873 -0.8263  1.9069
  937MOL0     H29287   3.145   4.092   4.347 -3.2336  2.9241  1.8582
  937MOL0     H29288   2.941   4.357   4.635 -0.0887 -1.1604  0.3759
  937MOL0     H29289   2.866   4.306   4.872 -0.2796  1.0759  0.0416
  937MOL0     H29290   2.613   5.599   6.252  0.0964  0.2613 -0.5132
  937MOL0     H29291   2.688   5.624   6.467 -1.2688  2.0569 -1.4827
  937MOL0     H29292   3.271   5.451   6.729 -1.3595 -2.1341  2.1517
  937MOL0     H29293   3.384   5.526   6.920  0.1918  0.4087  1.0728
  937MOL0     H29294   3.230   5.885   7.152  0.2947  1.5706  1.8033
  937MOL0     H29295   3.120   5.767   7.236  0.0816  0.7968  1.1807
  937MOL0     H29296   3.251   5.843   7.405  1.0205 -0.4354  0.9066
  937MOL0     H29297   3.394   5.873   7.300 -1.0069  1.3483 -1.4924
  937MOL0     H29298   3.274   5.629   7.416 -0.3826  2.2975  0.0052
  937MOL0     H29299   3.412   5.613   7.296  0.4130  0.7529 -1.1518
  937MOL0     H29300   3.501   5.632   7.540 -1.7400  0.1091  2.8065
  937MOL0     H29301   3.430   5.793   7.552  0.3144 -0.2926  0.0893
  937MOL0     H29302   3.713   5.892   7.278 -1.2241  2.9204  1.7299
  937MOL0     H29303   3.050   5.777   7.010  0.3598 -1.6218  2.1272
  937MOL0     H29304   2.957   5.833   6.703 -0.3901 -0.6727 -1.3216
  937MOL0     H29305   2.839   5.706   6.759 -1.0787  0.3914  1.9036
  937MOL0     H29306   2.891   5.833   6.862  0.2153  1.2124 -1.7414
  938MOL0     O29307   0.260   2.285   3.522  0.0324  0.2014  0.9977
  938MOL0     C29308   0.216   2.323   3.629  0.9695 -1.1636 -0.3196
  938MOL0     O29309   0.185   2.247   3.738 -0.5193 -0.3899 -0.0132
  938MOL0     C29310   0.253   2.132   3.761  0.2437 -0.4210  0.1952
  938MOL0     C29311   0.174   2.027   3.823 -0.4745 -0.9874  1.0017
  938MOL0     C29312   0.239   1.909   3.837  0.5969  0.4819 -0.0699
  938MOL0     C29313   0.372   1.886   3.806 -0.1629  0.2823 -0.3752
  938MOL0     O29314   0.443   1.771   3.840 -0.6959  0.4371 -0.4411
  938MOL0     C29315   0.476   1.772   3.982  0.0106 -0.4196  0.6244
  938MOL0     C29316   0.527   1.636   4.034 -0.1283 -1.5415 -0.9034
  938MOL0     C29317   0.602   1.651   4.174  0.1126  0.0584  0.0174
  938MOL0     C29318   0.689   1.528   4.204 -0.0130 -0.4285 -0.4290
  938MOL0     C29319   0.744   1.540   4.347 -0.2110  1.0098  0.6771
  938MOL0     C29320   0.830   1.420   4.390 -1.1348  0.2183 -0.5380
  938MOL0     C29321   0.973   1.449   4.337  0.7269 -0.1374  0.8458
  938MOL0     C29322   1.051   1.561   4.402  0.1173  0.1596 -0.6195
  938MOL0     N29323   1.192   1.572   4.362  0.8556  0.4502  0.3641
  938MOL0     C29324   1.298   1.556   4.443 -0.3263  0.6901 -1.5532
  938MOL0     C29325   1.396   1.634   4.392 -0.7579 -0.7184  0.4631
  938MOL0     C29326   1.531   1.659   4.458 -0.4280 -0.9441 -0.2233
  938MOL0     C29327   1.631   1.681   4.341 -1.0195  0.7965 -0.8990
  938MOL0     C29328   1.678   1.546   4.279 -0.2993 -0.3120 -0.1269
  938MOL0     C29329   1.802   1.499   4.372 -0.6304  0.3298  0.0269
  938MOL0     O29330   1.845   1.372   4.339  0.0011 -0.2616 -0.6125
  938MOL0     C29331   1.973   1.343   4.381 -0.1050  0.6942  0.2310
  938MOL0     C29332   2.003   1.339   4.522  1.1322 -0.2584  0.2800
  938MOL0     C29333   2.132   1.303   4.576 -0.0523 -0.8008 -0.5981
  938MOL0     C29334   2.156   1.304   4.722  0.9461 -0.5442 -0.2435
  938MOL0     C29335   2.235   1.279   4.483 -0.2678  0.1539  0.6369
  938MOL0     C29336   2.373   1.246   4.530 -0.2648  0.1968 -0.1409
  938MOL0     O29337   2.375   1.146   4.615  0.0546 -0.0604 -0.3323
  938MOL0     C29338   2.494   1.102   4.673  0.5666 -0.3988  0.8344
  938MOL0     C29339   2.476   0.976   4.732 -0.0830  0.5248 -0.3506
  938MOL0     C29340   2.585   0.919   4.806  0.5178 -0.3458 -0.3322
  938MOL0     C29341   2.712   0.973   4.808 -0.4431 -0.4017  0.1126
  938MOL0     O29342   2.823   0.929   4.873  0.5866 -0.7382 -0.6443
  938MOL0     C29343   2.851   0.793   4.841  0.5216 -0.5765 -0.3646
  938MOL0     C29344   2.814   0.693   4.960  0.3885  0.2056 -0.7116
  938MOL0     C29345   2.850   0.743   5.107 -0.0382 -0.5006  0.3544
  938MOL0     C29346   2.998   0.780   5.129 -0.0500 -0.5037 -0.3427
  938MOL0     C29347   3.018   0.831   5.274  0.1531  0.0613  0.4903
  938MOL0     C29348   3.169   0.860   5.298  0.4533 -0.8064 -0.9058
  938MOL0     C29349   3.193   0.926   5.428  0.6194  0.6081  0.2608
  938MOL0     C29350   3.223   0.832   5.540 -0.2226 -0.5183 -0.6780
  938MOL0    Cl29351   3.235   0.938   5.681  0.1552 -0.0089 -0.6884
  938MOL0     C29352   2.730   1.096   4.741 -0.4134 -0.4398  0.3685
  938MOL0     C29353   2.624   1.158   4.670  0.3049  0.8303  0.6430
  938MOL0     O29354   2.459   1.327   4.504  0.2453 -0.1111 -0.1114
  938MOL0     C29355   2.202   1.274   4.347 -0.1083 -0.5413 -0.3252
  938MOL0     C29356   2.072   1.310   4.297  0.5936  0.4558  1.1938
  938MOL0     N29357   1.349   1.686   4.274 -0.1135  0.6515 -0.4995
  938MOL0     N29358   1.233   1.657   4.260 -0.4504  0.1361 -0.3026
  938MOL0     C29359   0.448   1.997   3.751 -0.2188  0.0961 -0.1528
  938MOL0     C29360   0.387   2.117   3.723  0.0498 -1.2554  0.1645
  938MOL0     C29361   0.157   2.458   3.629  0.7610  0.4957 -1.0475
  938MOL0     C29362   0.065   2.511   3.524 -0.5563  0.6716  0.7602
  938MOL0     C29363   0.028   2.643   3.516 -0.2308 -0.9860 -0.1297
  938MOL0     C29364   0.059   2.733   3.618 -0.7064 -0.7240  0.8855
  938MOL0     O29365   0.036   2.868   3.616  0.0118  0.1936  0.0931
  938MOL0     C29366  -0.060   2.922   3.528  0.6461  0.3024 -0.1632
  938MOL0     C29367  -0.210   2.874   3.555  0.9975 -1.1644 -0.2359
  938MOL0     C29368  -0.264   2.964   3.672  0.6602  0.0372 -0.7877
  938MOL0     C29369  -0.275   2.884   3.804  0.0385  1.6591 -0.7593
  938MOL0     C29370  -0.383   2.781   3.811  1.3104 -0.3941 -0.0904
  938MOL0     C29371  -0.464   2.686   3.804  0.0104  0.0499 -0.9660
  938MOL0     C29372   0.134   2.682   3.724  0.0657 -0.4007 -0.4556
  938MOL0     C29373   0.188   2.551   3.734 -0.1430 -0.9736 -0.1561
  938MOL0     C29374   0.281   2.529   3.848  0.8540 -1.0026  0.3128
  938MOL0     H29375   0.069   2.036   3.848 -0.2112  0.6527  1.6701
  938MOL0     H29376   0.194   1.822   3.885  0.2839  2.1822  2.9112
  938MOL0     H29377   0.395   1.810   4.045  0.4091  0.7710  0.4467
  938MOL0     H29378   0.559   1.842   4.000 -0.1007 -0.6577  2.1873
  938MOL0     H29379   0.452   1.556   4.027 -0.3166 -1.6949  1.7032
  938MOL0     H29380   0.607   1.613   3.964 -0.9785 -5.2902 -0.8297
  938MOL0     H29381   0.666   1.740   4.173  0.3779 -0.0526  2.0269
  938MOL0     H29382   0.527   1.657   4.253 -0.3787  0.2844 -0.4630
  938MOL0     H29383   0.621   1.442   4.195 -0.6582 -0.0714  0.8287
  938MOL0     H29384   0.769   1.530   4.129 -1.4479  0.2767 -2.0008
  938MOL0     H29385   0.657   1.544   4.412 -0.3053  2.6389  0.4943
  938MOL0     H29386   0.798   1.633   4.370 -2.4081  2.6021 -0.1821
  938MOL0     H29387   0.837   1.419   4.499  1.6675 -0.3579 -0.6512
  938MOL0     H29388   0.779   1.331   4.353 -0.7636 -0.3498  0.2938
  938MOL0     H29389   0.965   1.465   4.229  1.9237  1.7668  0.9879
  938MOL0     H29390   1.026   1.354   4.346 -0.8463 -1.6887 -3.5769
  938MOL0     H29391   1.015   1.664   4.397  5.2095  2.4840  2.5398
  938MOL0     H29392   1.050   1.544   4.510  3.3164  0.5612 -0.4173
  938MOL0     H29393   1.305   1.504   4.538 -0.1694  0.3686 -1.7380
  938MOL0     H29394   1.567   1.581   4.525 -2.5685 -2.5449 -0.8345
  938MOL0     H29395   1.517   1.748   4.520  0.2608 -1.1254  0.2038
  938MOL0     H29396   1.602   1.755   4.267  0.1936 -0.0942 -2.3202
  938MOL0     H29397   1.721   1.717   4.391 -0.6961 -1.7929  0.5614
  938MOL0     H29398   1.605   1.465   4.294 -0.2535  0.0042  2.1682
  938MOL0     H29399   1.720   1.562   4.180  0.3113  2.6522  0.5226
  938MOL0     H29400   1.879   1.578   4.368  0.5452 -0.8216 -1.7749
  938MOL0     H29401   1.757   1.502   4.471 -5.5440  2.3845 -1.9394
  938MOL0     H29402   1.923   1.361   4.591  0.0546 -0.9204 -0.7183
  938MOL0     H29403   2.250   1.350   4.754  0.0621  1.5117 -0.4659
  938MOL0     H29404   2.159   1.198   4.750 -0.4444 -0.5440  0.0043
  938MOL0     H29405   2.070   1.341   4.779 -0.2683 -3.1773 -0.2341
  938MOL0     H29406   2.379   0.929   4.727  0.7350 -1.1506 -1.7334
  938MOL0     H29407   2.554   0.839   4.872  0.2839  0.5631  0.6952
  938MOL0     H29408   2.798   0.756   4.753  0.4682  1.6375 -1.3422
  938MOL0     H29409   2.955   0.799   4.809  0.4458  2.1781 -0.4025
  938MOL0     H29410   2.707   0.674   4.954 -0.1416  1.7548  1.9843
  938MOL0     H29411   2.870   0.600   4.953  0.4423  0.0551  1.1331
  938MOL0     H29412   2.823   0.662   5.176  0.3766  0.0050  1.1261
  938MOL0     H29413   2.799   0.837   5.127 -1.5871 -1.1219 -0.4853
  938MOL0     H29414   3.037   0.854   5.059  1.1951 -1.8621 -1.1298
  938MOL0     H29415   3.055   0.686   5.131 -0.0210 -0.5449  2.9202
  938MOL0     H29416   2.961   0.924   5.284 -0.8076 -0.3385 -0.8835
  938MOL0     H29417   2.979   0.753   5.340 -1.3873  1.6765  1.5945
  938MOL0     H29418   3.200   0.917   5.210  0.2264 -0.3096 -0.6636
  938MOL0     H29419   3.224   0.765   5.295  1.8700 -0.0488  0.0772
  938MOL0     H29420   3.110   0.993   5.455  1.9164  2.5278 -0.2654
  938MOL0     H29421   3.274   1.000   5.424  1.0404  0.1122 -2.5525
  938MOL0     H29422   3.318   0.779   5.530  1.1652  1.4652  1.1518
  938MOL0     H29423   3.146   0.756   5.558 -1.6196  1.0515  0.1960
  938MOL0     H29424   2.826   1.147   4.743 -0.4648 -0.3586  0.6904
  938MOL0     H29425   2.644   1.254   4.623 -1.7932  0.1322 -1.9059
  938MOL0     H29426   2.284   1.261   4.278 -0.5279  0.1712 -0.9752
  938MOL0     H29427   2.040   1.319   4.194 -3.6480 -1.3174  2.1729
  938MOL0     H29428   0.551   1.974   3.725 -0.5976 -0.9975 -0.7652
  938MOL0     H29429   0.434   2.186   3.653 -1.0329 -1.9187 -1.2545
  938MOL0     H29430   0.044   2.433   3.452  1.0783 -1.4308  2.3940
  938MOL0     H29431  -0.029   2.683   3.432 -3.6840  0.6036  2.6839
  938MOL0     H29432  -0.048   3.031   3.534  3.7773  0.0484 -0.6041
  938MOL0     H29433  -0.033   2.889   3.428 -1.1633  0.9181 -0.9142
  938MOL0     H29434  -0.214   2.765   3.564  2.5581 -1.3695 -1.5659
  938MOL0     H29435  -0.264   2.907   3.466  1.6487  1.1189  0.1325
  938MOL0     H29436  -0.201   3.049   3.702  0.1634 -0.0245  0.5049
  938MOL0     H29437  -0.364   2.998   3.643  0.8302  0.5361 -0.7991
  938MOL0     H29438  -0.289   2.950   3.890  0.5792  1.8920 -0.8508
  938MOL0     H29439  -0.182   2.831   3.827  0.1565  1.4922 -1.5879
  938MOL0     H29440  -0.545   2.616   3.805 -1.9332  2.1653 -1.3874
  938MOL0     H29441   0.170   2.758   3.793  1.0657  0.3572 -1.7685
  938MOL0     H29442   0.364   2.467   3.813  0.6470 -0.4157 -1.2911
  938MOL0     H29443   0.308   2.628   3.886 -4.3318 -1.1712  6.1586
  938MOL0     H29444   0.225   2.474   3.924 -2.7034 -0.3577 -1.6146
  939MOL0     O29445   4.724   6.606   3.378 -0.2700  0.2641  0.8817
  939MOL0     C29446   4.801   6.564   3.466  0.0834 -0.2984  0.5517
  939MOL0     O29447   4.763   6.536   3.592 -0.4793  0.0381  0.3268
  939MOL0     C29448   4.647   6.591   3.626 -0.3919 -0.4656  0.0037
  939MOL0     C29449   4.523   6.532   3.609 -0.0400  1.0050 -1.1942
  939MOL0     C29450   4.406   6.595   3.639  0.1392 -0.7155  0.7849
  939MOL0     C29451   4.410   6.722   3.699  0.4061 -0.4027 -0.2208
  939MOL0     O29452   4.292   6.793   3.727  0.0400  0.5166 -0.1699
  939MOL0     C29453   4.168   6.730   3.721  0.0082 -0.0388  0.3351
  939MOL0     C29454   4.054   6.801   3.793  0.1320  0.5567  0.2232
  939MOL0     C29455   4.071   6.816   3.944 -0.9303  0.4879  0.1003
  939MOL0     C29456   3.954   6.905   4.002 -0.6795 -0.5572  0.6620
  939MOL0     C29457   3.935   6.879   4.151 -0.4593 -0.8560 -0.2391
  939MOL0     C29458   3.881   6.743   4.187  0.3644 -0.0430 -0.2714
  939MOL0     C29459   3.736   6.730   4.139  0.8663  0.6547 -0.2468
  939MOL0     C29460   3.665   6.611   4.207 -0.3403 -0.2132  0.3393
  939MOL0     N29461   3.518   6.615   4.193 -0.0579  0.8571  0.0523
  939MOL0     C29462   3.425   6.722   4.192  0.1349  0.6803 -0.1058
  939MOL0     C29463   3.306   6.674   4.197 -0.8350 -0.6418  0.2974
  939MOL0     C29464   3.180   6.753   4.192  0.7089  0.6704  0.5666
  939MOL0     C29465   3.167   6.829   4.058 -0.5244 -0.7356 -0.6567
  939MOL0     C29466   3.091   6.969   4.058  0.9187  0.0603 -0.5551
  939MOL0     C29467   2.942   6.953   4.083  0.0201 -0.1546 -0.4213
  939MOL0     O29468   2.875   7.082   4.069 -0.1093  0.1881  0.3447
  939MOL0     C29469   2.739   7.082   4.089  0.5214  0.2843 -0.0421
  939MOL0     C29470   2.661   6.969   4.106 -1.1315  0.7957 -0.4325
  939MOL0     C29471   2.528   6.965   4.120 -0.1740  0.1389 -0.0516
  939MOL0     C29472   2.463   6.838   4.147  0.0854  0.5119 -0.6961
  939MOL0     C29473   2.462   7.093   4.109 -0.7283  1.0263  0.1747
  939MOL0     C29474   2.312   7.117   4.119 -0.0965 -0.1043 -0.0212
  939MOL0     O29475   2.269   7.250   4.106 -0.3604 -0.2249  0.1742
  939MOL0     C29476   2.144   7.297   4.135  0.2191  0.1763 -0.7078
  939MOL0     C29477   2.074   7.259   4.256 -0.1049 -1.5114 -0.3001
  939MOL0     C29478   1.953   7.318   4.294 -0.8063  0.5639  0.5082
  939MOL0     C29479   1.892   7.424   4.221  1.0099  0.1467 -0.0748
  939MOL0     O29480   1.770   7.475   4.260  0.7195  0.3226  1.1325
  939MOL0     C29481   1.762   7.538   4.387 -0.1365 -0.2988 -0.2025
  939MOL0     C29482   1.840   7.672   4.382 -0.8091 -0.3880 -0.5164
  939MOL0     C29483   1.782   7.776   4.278  1.0581  0.2438  0.0132
  939MOL0     C29484   1.877   7.895   4.250 -0.6788  0.4372 -0.4149
  939MOL0     C29485   1.849   7.959   4.113 -0.0737 -0.1866  0.3422
  939MOL0     C29486   1.947   7.902   4.015  0.5152 -0.5962  0.2509
  939MOL0     C29487   1.924   7.964   3.877 -0.6609 -0.0131 -0.3691
  939MOL0     C29488   2.020   7.907   3.780 -0.9256  0.5141  0.1666
  939MOL0    Cl29489   2.194   7.952   3.818 -0.1498  0.1355  0.0315
  939MOL0     C29490   1.964   7.464   4.114  0.1844 -0.2956  0.2921
  939MOL0     C29491   2.089   7.398   4.072  0.9460 -0.1193 -0.4193
  939MOL0     O29492   2.238   7.024   4.156  0.3893  0.4229 -0.5710
  939MOL0     C29493   2.541   7.204   4.089  0.2059  0.4393  0.4485
  939MOL0     C29494   2.679   7.201   4.078  0.0599  0.0335 -0.5655
  939MOL0     N29495   3.320   6.535   4.178 -0.0013 -0.2567 -0.3033
  939MOL0     N29496   3.441   6.497   4.173 -0.8609 -0.4095 -0.2485
  939MOL0     C29497   4.527   6.787   3.717  0.2262  0.3178  0.1694
  939MOL0     C29498   4.643   6.715   3.690 -0.4326  0.4924  0.1364
  939MOL0     C29499   4.951   6.558   3.443 -0.5762 -0.2424  0.0262
  939MOL0     C29500   5.031   6.556   3.556  0.4001 -0.7574 -0.7716
  939MOL0     C29501   5.171   6.575   3.560 -0.8877  0.5273  0.1562
  939MOL0     C29502   5.240   6.569   3.443  0.1804 -0.8158  1.1852
  939MOL0     O29503   5.378   6.568   3.440  0.5827  0.4303 -0.1909
  939MOL0     C29504   5.443   6.491   3.336  0.5823 -0.6396 -0.3102
  939MOL0     C29505   5.579   6.562   3.294 -0.8859 -0.0007 -0.5959
  939MOL0     C29506   5.558   6.708   3.262 -0.1263  1.0559  0.0835
  939MOL0     C29507   5.682   6.777   3.231  0.1473 -0.9574  0.6390
  939MOL0     C29508   5.743   6.743   3.095 -0.9339 -0.5768 -0.4807
  939MOL0     C29509   5.802   6.722   2.987  0.3089  0.5322  0.6950
  939MOL0     C29510   5.170   6.571   3.321 -0.2394 -0.0252  0.2885
  939MOL0     C29511   5.021   6.564   3.321 -0.4839 -1.5543 -0.2734
  939MOL0     C29512   4.947   6.557   3.187  0.7641 -0.1084 -0.0214
  939MOL0     H29513   4.522   6.428   3.577 -0.1497 -0.1954  2.3426
  939MOL0     H29514   4.306   6.558   3.616 -1.2263  2.9959 -0.0283
  939MOL0     H29515   4.178   6.627   3.759  2.1315 -0.5727 -1.4522
  939MOL0     H29516   4.149   6.701   3.617 -1.6685 -1.0359  0.8569
  939MOL0     H29517   4.026   6.900   3.756  4.0510  3.3048  3.7104
  939MOL0     H29518   3.967   6.737   3.777  0.5804 -0.0861  0.3290
  939MOL0     H29519   4.073   6.714   3.983  3.7656 -0.1834 -1.2885
  939MOL0     H29520   4.158   6.872   3.978 -1.3397 -0.1493  2.3966
  939MOL0     H29521   3.973   7.009   3.973 -4.6149  0.9019  2.6202
  939MOL0     H29522   3.869   6.878   3.940  0.1684 -0.4754 -0.5786
  939MOL0     H29523   3.870   6.954   4.198  1.3399  0.6846 -0.1045
  939MOL0     H29524   4.036   6.895   4.190  1.1734 -0.2605 -4.2714
  939MOL0     H29525   3.952   6.673   4.143 -0.0792  0.0147 -1.1196
  939MOL0     H29526   3.880   6.741   4.296 -1.0776  2.4283 -0.1512
  939MOL0     H29527   3.739   6.698   4.034 -1.3511 -1.5144  0.2666
  939MOL0     H29528   3.675   6.818   4.160  1.7290  1.8244 -2.3021
  939MOL0     H29529   3.700   6.517   4.163 -4.6566 -2.8783  1.9330
  939MOL0     H29530   3.698   6.606   4.311  3.5283  0.2101 -0.7247
  939MOL0     H29531   3.426   6.831   4.187 -4.2423  1.0376  2.1830
  939MOL0     H29532   3.183   6.830   4.270  0.7390  1.4753 -0.2079
  939MOL0     H29533   3.098   6.683   4.208  1.9526 -1.2351 -0.9840
  939MOL0     H29534   3.266   6.853   4.019  0.7545 -1.0938  2.1145
  939MOL0     H29535   3.111   6.765   3.990 -2.3691  1.6346 -1.5387
  939MOL0     H29536   3.141   7.041   4.124 -0.5336  0.7682 -0.1868
  939MOL0     H29537   3.099   6.999   3.953  1.2611 -1.7765 -1.0820
  939MOL0     H29538   2.912   6.870   4.019  1.2332  0.6329 -2.0704
  939MOL0     H29539   2.921   6.922   4.186 -3.5012 -1.2636 -1.3131
  939MOL0     H29540   2.709   6.872   4.104 -1.2425  0.7360 -2.8459
  939MOL0     H29541   2.532   6.758   4.176  1.3709  0.9327 -2.3792
  939MOL0     H29542   2.403   6.791   4.068 -1.1906 -0.4902  0.8219
  939MOL0     H29543   2.394   6.848   4.230 -2.5889 -1.2399 -2.5411
  939MOL0     H29544   2.124   7.189   4.322  2.7708  1.4370  0.9118
  939MOL0     H29545   1.901   7.253   4.364 -0.7520  1.1787  1.1326
  939MOL0     H29546   1.657   7.559   4.410  0.2532  0.1064  1.3318
  939MOL0     H29547   1.802   7.464   4.457  0.1690 -0.1195 -0.1868
  939MOL0     H29548   1.843   7.720   4.480 -2.9817 -1.5009  0.1757
  939MOL0     H29549   1.942   7.644   4.354 -1.0894 -3.3720  1.0851
  939MOL0     H29550   1.686   7.807   4.321 -0.1070 -5.7858  2.7872
  939MOL0     H29551   1.754   7.711   4.195  3.5661 -1.9947  0.7778
  939MOL0     H29552   1.986   7.883   4.255 -0.4730  1.8097  5.1254
  939MOL0     H29553   1.868   7.970   4.329  1.1065 -0.1596  0.4271
  939MOL0     H29554   1.742   7.941   4.100 -1.0347  2.0349  3.8244
  939MOL0     H29555   1.870   8.066   4.124 -1.2181  0.1802 -0.7604
  939MOL0     H29556   1.946   7.793   4.014  0.1395 -0.6546 -2.6375
  939MOL0     H29557   2.049   7.934   4.041  0.5610  0.1089 -0.7330
  939MOL0     H29558   1.950   8.070   3.881  0.2393 -0.1627 -1.7359
  939MOL0     H29559   1.816   7.963   3.859 -1.0294  1.3968  1.3809
  939MOL0     H29560   1.990   7.950   3.684 -2.4148 -0.4645  0.1640
  939MOL0     H29561   2.013   7.798   3.784 -1.5086  0.5800  1.4662
  939MOL0     H29562   1.918   7.537   4.049 -2.2515 -2.5886 -0.7595
  939MOL0     H29563   2.151   7.432   3.989  1.3964  1.9847  0.6976
  939MOL0     H29564   2.484   7.296   4.080 -5.2175 -2.5278  0.1380
  939MOL0     H29565   2.733   7.287   4.039  1.5257 -0.8876 -0.6212
  939MOL0     H29566   4.539   6.888   3.754  1.0974  1.3423 -2.6195
  939MOL0     H29567   4.737   6.757   3.725 -1.3136  0.4841  2.8031
  939MOL0     H29568   4.998   6.560   3.659  3.1682  0.3200  0.1678
  939MOL0     H29569   5.228   6.569   3.652 -0.5673  2.1975  0.0931
  939MOL0     H29570   5.462   6.388   3.366 -0.0453 -1.2220 -1.8384
  939MOL0     H29571   5.392   6.491   3.239 -0.2798  0.8577  0.1058
  939MOL0     H29572   5.630   6.515   3.210  0.9728  3.1792 -1.3837
  939MOL0     H29573   5.653   6.523   3.365 -1.4372 -0.4127 -0.2386
  939MOL0     H29574   5.501   6.710   3.169  2.5643 -0.5316 -1.7443
  939MOL0     H29575   5.505   6.757   3.344  0.7830  0.4925  1.0424
  939MOL0     H29576   5.750   6.777   3.317 -1.2746  0.2303  1.8370
  939MOL0     H29577   5.647   6.881   3.236 -1.9296 -1.6192  0.6469
  939MOL0     H29578   5.854   6.702   2.895 -1.9468 -1.6201 -0.2381
  939MOL0     H29579   5.209   6.570   3.220 -1.1481  0.5722 -0.0857
  939MOL0     H29580   4.871   6.479   3.189 -1.2589  1.7811  0.8282
  939MOL0     H29581   4.891   6.650   3.176 -1.3570 -1.0393  2.0382
  939MOL0     H29582   5.006   6.541   3.096 -1.3344 -3.2992 -0.9707
  940MOL0     O29583  11.571   6.114   7.749  0.4737  0.1323 -0.0811
  940MOL0     C29584  11.610   6.100   7.864  0.1300 -0.1747  0.7904
  940MOL0     O29585  11.605   5.978   7.927 -0.6847 -0.3800 -0.0434
  940MOL0     C29586  11.524   5.880   7.879 -0.0771 -0.3241 -0.1467
  940MOL0     C29587  11.394   5.902   7.831  0.4816 -0.2904 -0.3848
  940MOL0     C29588  11.316   5.792   7.792  0.2195 -0.3566  0.9381
  940MOL0     C29589  11.369   5.672   7.765 -0.8233 -0.0560  0.0481
  940MOL0     O29590  11.300   5.567   7.698  0.9574 -0.5818 -0.1878
  940MOL0     C29591  11.154   5.577   7.706  0.5938  0.3530 -0.8932
  940MOL0     C29592  11.105   5.428   7.681  0.1358  1.3127  0.2315
  940MOL0     C29593  11.098   5.385   7.531  0.2652 -0.7397  0.0020
  940MOL0     C29594  10.967   5.421   7.463  0.4582 -0.0426  0.0280
  940MOL0     C29595  10.965   5.354   7.320  0.3160  0.7130 -0.2833
  940MOL0     C29596  10.840   5.391   7.254 -0.4214  0.8920  0.5897
  940MOL0     C29597  10.799   5.261   7.165  0.0715 -0.2088 -0.1249
  940MOL0     C29598  10.687   5.281   7.075 -0.5062  0.2691 -0.2069
  940MOL0     N29599  10.553   5.310   7.136 -1.0464  0.0008  0.3044
  940MOL0     C29600  10.482   5.226   7.216 -0.2841 -0.2704  0.9775
  940MOL0     C29601  10.362   5.284   7.228  0.6272 -0.1753 -0.0915
  940MOL0     C29602  10.244   5.222   7.285  0.6942 -0.1546 -1.3646
  940MOL0     C29603  10.208   5.284   7.429  0.3644  0.8270  0.4585
  940MOL0     C29604  10.089   5.222   7.498 -0.4109  0.4065 -0.8110
  940MOL0     C29605   9.963   5.295   7.454 -0.2740 -0.4361  0.3780
  940MOL0     O29606   9.964   5.417   7.530 -0.7788  0.0282 -1.2902
  940MOL0     C29607   9.876   5.513   7.486 -0.6651 -0.4161  0.2178
  940MOL0     C29608   9.907   5.592   7.372 -0.3186  0.3046 -0.1794
  940MOL0     C29609   9.818   5.691   7.332 -0.2347  0.2217  0.5208
  940MOL0     C29610   9.842   5.754   7.188  0.3399 -0.5874 -0.5915
  940MOL0     C29611   9.713   5.729   7.420 -0.7842  0.6032  0.4569
  940MOL0     C29612   9.627   5.846   7.392 -1.0680  0.2138 -0.0549
  940MOL0     O29613   9.698   5.962   7.371 -0.2504  0.1357 -0.1106
  940MOL0     C29614   9.635   6.070   7.325  0.1337 -0.5291 -0.1702
  940MOL0     C29615   9.629   6.183   7.409  0.2403 -0.0803  0.4231
  940MOL0     C29616   9.567   6.303   7.371 -0.2236 -0.4749  0.8614
  940MOL0     C29617   9.529   6.315   7.237  0.3358 -0.3895  0.6471
  940MOL0     O29618   9.482   6.425   7.171  0.4850  0.1258  0.1030
  940MOL0     C29619   9.420   6.531   7.253 -1.6861  0.1797 -0.4447
  940MOL0     C29620   9.380   6.642   7.172  0.0712  0.3876  0.8146
  940MOL0     C29621   9.300   6.747   7.250 -0.3941 -0.3873 -0.3287
  940MOL0     C29622   9.249   6.853   7.169  1.3751 -0.0302  1.0162
  940MOL0     C29623   9.092   6.850   7.152  0.0218 -0.1118  0.1852
  940MOL0     C29624   9.040   6.986   7.102  0.5776 -0.4766 -0.0781
  940MOL0     C29625   9.080   7.007   6.951 -0.9571 -0.8346 -0.2379
  940MOL0     C29626   8.972   7.086   6.895  0.6082  0.1622  0.5435
  940MOL0    Cl29627   9.003   7.121   6.722  0.0520  0.2804  0.5336
  940MOL0     C29628   9.536   6.203   7.146 -0.8416  0.6979 -0.0712
  940MOL0     C29629   9.589   6.087   7.197  0.2708 -0.1976  0.4372
  940MOL0     O29630   9.504   5.836   7.393  0.3199  0.2967 -0.1500
  940MOL0     C29631   9.698   5.669   7.544  0.1058 -0.3384  0.4390
  940MOL0     C29632   9.780   5.562   7.573 -0.0875  1.0711 -0.4438
  940MOL0     N29633  10.364   5.410   7.172 -0.9665  0.5799  0.0490
  940MOL0     N29634  10.479   5.410   7.114  0.7165 -0.4568 -0.3855
  940MOL0     C29635  11.507   5.652   7.791  0.0584 -0.0100  0.3886
  940MOL0     C29636  11.579   5.754   7.858  0.6880  0.5286  1.5743
  940MOL0     C29637  11.675   6.211   7.937  0.2108  1.0840  0.7067
  940MOL0     C29638  11.794   6.170   8.004  0.3931  0.2257 -0.6359
  940MOL0     C29639  11.870   6.256   8.084 -0.0946 -1.3837  0.5536
  940MOL0     C29640  11.841   6.394   8.081  0.3507 -1.1318 -1.1275
  940MOL0     O29641  11.918   6.479   8.154  0.2529 -0.8582  0.8024
  940MOL0     C29642  11.964   6.600   8.098 -0.5295  0.5272  0.5010
  940MOL0     C29643  12.094   6.571   8.021  1.3237 -0.0070  0.2608
  940MOL0     C29644  12.202   6.682   8.044 -0.8555  0.2305  0.3147
  940MOL0     C29645  12.169   6.834   8.077 -0.0622  0.7931  0.3148
  940MOL0     C29646  12.112   6.892   7.952 -0.2793 -0.5849  0.2599
  940MOL0     C29647  12.067   6.952   7.857 -0.2740 -1.2999 -0.8217
  940MOL0     C29648  11.730   6.448   8.015  0.1586  0.7840  0.4870
  940MOL0     C29649  11.653   6.353   7.938  1.5250  0.1219  0.4206
  940MOL0     C29650  11.540   6.406   7.863 -0.2022  0.1853 -0.3497
  940MOL0     H29651  11.350   5.999   7.854 -1.2785 -0.7384 -1.7018
  940MOL0     H29652  11.215   5.807   7.755  1.0189  0.6943 -0.9801
  940MOL0     H29653  11.112   5.637   7.625 -2.2299 -0.0989  0.1253
  940MOL0     H29654  11.113   5.633   7.790  3.3660 -0.3417  1.0891
  940MOL0     H29655  11.162   5.352   7.734 -2.0647 -1.9843 -1.7569
  940MOL0     H29656  11.006   5.405   7.721  0.8965 -1.0656  0.9224
  940MOL0     H29657  11.176   5.448   7.486  0.9367 -1.5895 -0.0436
  940MOL0     H29658  11.114   5.278   7.515  1.9008 -0.5572  0.3186
  940MOL0     H29659  10.879   5.382   7.516 -0.6651 -0.4411 -2.0046
  940MOL0     H29660  10.936   5.525   7.455 -2.4545 -0.6513  1.6980
  940MOL0     H29661  10.984   5.246   7.325  1.9320  1.0371  1.8106
  940MOL0     H29662  11.035   5.420   7.269 -0.4495  4.6238  3.1626
  940MOL0     H29663  10.754   5.420   7.314 -2.0099 -0.8119 -0.7598
  940MOL0     H29664  10.869   5.469   7.183 -0.8536 -0.4545 -1.1235
  940MOL0     H29665  10.790   5.170   7.225 -0.0317  1.0123  1.7943
  940MOL0     H29666  10.890   5.252   7.105 -0.0713 -1.1470 -0.2238
  940MOL0     H29667  10.711   5.368   7.013 -0.3863 -1.1222 -2.2101
  940MOL0     H29668  10.682   5.194   7.010 -0.6463 -0.6628  1.0053
  940MOL0     H29669  10.522   5.129   7.243  0.2830 -0.8824 -1.7293
  940MOL0     H29670  10.257   5.116   7.306 -1.3731  0.3290  4.3608
  940MOL0     H29671  10.160   5.242   7.218 -2.8519 -2.5561  1.9361
  940MOL0     H29672  10.293   5.287   7.497 -0.3693  2.7204  1.3371
  940MOL0     H29673  10.210   5.389   7.400 -2.7598 -0.0251 -3.8500
  940MOL0     H29674  10.094   5.114   7.482 -0.5348 -0.0713  1.9579
  940MOL0     H29675  10.103   5.233   7.606 -2.0150  1.8848 -0.7029
  940MOL0     H29676   9.969   5.287   7.345 -0.8471 -1.5305  0.4167
  940MOL0     H29677   9.870   5.242   7.474 -0.1319 -3.4388 -5.1587
  940MOL0     H29678   9.980   5.556   7.301 -1.4238 -0.7173 -0.8472
  940MOL0     H29679   9.945   5.765   7.153 -1.1193  2.0694 -4.9202
  940MOL0     H29680   9.788   5.849   7.190  1.8626  0.2933 -0.3083
  940MOL0     H29681   9.803   5.702   7.100 -1.9838  0.6951 -0.4214
  940MOL0     H29682   9.660   6.174   7.512 -1.4924 -5.0249  0.7890
  940MOL0     H29683   9.560   6.390   7.435 -1.6246 -1.1059  1.5941
  940MOL0     H29684   9.335   6.497   7.312 -0.9546 -2.2270 -0.6687
  940MOL0     H29685   9.504   6.564   7.315 -2.7555  3.5035 -0.5691
  940MOL0     H29686   9.474   6.676   7.127  1.5567  0.7058  3.8825
  940MOL0     H29687   9.313   6.608   7.092  0.0822 -3.3525  2.1881
  940MOL0     H29688   9.363   6.780   7.333  1.7310 -3.5371 -0.5059
  940MOL0     H29689   9.212   6.702   7.297 -1.3587  1.5013 -0.2466
  940MOL0     H29690   9.296   6.862   7.071 -1.0210 -0.7583 -0.2990
  940MOL0     H29691   9.263   6.951   7.215  1.5983  0.2463  0.3782
  940MOL0     H29692   9.066   6.766   7.087  1.9721  0.1097 -0.9723
  940MOL0     H29693   9.038   6.840   7.246 -1.8609  2.6464 -0.4612
  940MOL0     H29694   9.084   7.069   7.158 -0.0211  0.9464 -1.6535
  940MOL0     H29695   8.932   6.983   7.117  0.7972 -1.6480  1.5110
  940MOL0     H29696   9.108   6.919   6.893 -0.2355 -4.2022  4.5779
  940MOL0     H29697   9.167   7.074   6.948 -1.8793  0.4244  0.2515
  940MOL0     H29698   8.962   7.175   6.958  0.0938  0.3864  0.1561
  940MOL0     H29699   8.878   7.030   6.895 -0.4292  1.6434 -2.7975
  940MOL0     H29700   9.500   6.201   7.044  1.1817  2.1138 -0.8680
  940MOL0     H29701   9.582   6.001   7.131  0.7716  0.3116 -0.2966
  940MOL0     H29702   9.613   5.699   7.603  0.2855 -1.8833  1.5554
  940MOL0     H29703   9.746   5.514   7.664 -1.6949  4.0049  0.6332
  940MOL0     H29704  11.564   5.562   7.772  0.3769  0.2458  0.1350
  940MOL0     H29705  11.683   5.732   7.881  0.2582 -3.0922  0.6560
  940MOL0     H29706  11.820   6.065   8.003 -1.7875 -0.3760 -1.0147
  940MOL0     H29707  11.945   6.215   8.151  0.1568 -1.4919  0.2093
  940MOL0     H29708  11.903   6.658   8.029 -0.1174 -1.3482 -1.5769
  940MOL0     H29709  11.994   6.665   8.180 -1.7818  0.0012  1.3957
  940MOL0     H29710  12.067   6.568   7.915 -1.8012  2.4582  0.8493
  940MOL0     H29711  12.144   6.477   8.044  3.5627  1.1379  0.3604
  940MOL0     H29712  12.267   6.651   8.127  0.1978 -1.3544 -1.0524
  940MOL0     H29713  12.279   6.679   7.967 -0.9510  0.1910  0.2209
  940MOL0     H29714  12.258   6.882   8.118 -1.7338  1.6437  3.2569
  940MOL0     H29715  12.094   6.846   8.156 -0.1229 -1.1337  0.6048
  940MOL0     H29716  12.029   7.009   7.775  2.9803  0.9327 -1.0069
  940MOL0     H29717  11.711   6.554   8.026  1.8205  1.1079  0.4557
  940MOL0     H29718  11.566   6.389   7.759  1.4300  2.5521 -0.3858
  940MOL0     H29719  11.443   6.363   7.890 -0.2786  1.4290  1.5552
  940MOL0     H29720  11.541   6.515   7.872 -4.5957  0.3760  0.4288
  941MOL0     O29721  11.094   5.806  11.232 -0.5263 -0.2566  0.6019
  941MOL0     C29722  11.016   5.732  11.178 -0.4953  0.9479 -0.2749
  941MOL0     O29723  11.022   5.697  11.043 -0.5003 -0.6326 -1.1966
  941MOL0     C29724  11.134   5.736  10.976  0.1333  0.3265  0.3400
  941MOL0     C29725  11.128   5.833  10.877 -0.0309 -0.4413  0.1345
  941MOL0     C29726  11.243   5.877  10.815  1.0089 -0.4401 -0.3563
  941MOL0     C29727  11.361   5.817  10.826  0.0840 -0.4228  0.1228
  941MOL0     O29728  11.469   5.859  10.742 -0.7502  0.6935  0.5727
  941MOL0     C29729  11.600   5.828  10.786  0.3699 -0.1506 -0.1167
  941MOL0     C29730  11.671   5.951  10.774 -1.1488  1.0182 -0.2489
  941MOL0     C29731  11.821   5.960  10.814  1.0927 -0.1594  0.0597
  941MOL0     C29732  11.901   5.861  10.734  1.0635  0.7644  0.8783
  941MOL0     C29733  12.056   5.871  10.751  0.6383 -1.2409 -0.1932
  941MOL0     C29734  12.109   6.004  10.680 -0.2201 -0.2168  0.5283
  941MOL0     C29735  12.258   6.008  10.662  0.4513  0.6132  0.6693
  941MOL0     C29736  12.306   6.143  10.613  0.2335  0.5607 -0.5453
  941MOL0     N29737  12.449   6.142  10.613  0.8029 -0.3387 -0.3185
  941MOL0     C29738  12.519   6.110  10.498 -0.1942  0.6196  0.6004
  941MOL0     C29739  12.652   6.104  10.539 -1.0912 -0.9566  1.1812
  941MOL0     C29740  12.770   6.068  10.452 -0.5350  0.4625  0.9950
  941MOL0     C29741  12.785   5.914  10.456 -0.3551 -1.0387 -0.5302
  941MOL0     C29742  12.679   5.835  10.368 -0.4148  0.2150 -1.2075
  941MOL0     C29743  12.662   5.691  10.423 -0.1201 -0.4879  0.5822
  941MOL0     O29744  12.788   5.618  10.440 -0.2383 -0.1459  0.5181
  941MOL0     C29745  12.788   5.483  10.447  0.2041  0.1885  0.4094
  941MOL0     C29746  12.675   5.398  10.471 -0.2634 -0.7834  0.1352
  941MOL0     C29747  12.685   5.260  10.455  0.4244  0.5908  0.7234
  941MOL0     C29748  12.557   5.183  10.480  1.0375 -0.1895  0.0092
  941MOL0     C29749  12.809   5.199  10.416 -0.1564  0.2979  0.1072
  941MOL0     C29750  12.834   5.051  10.408  0.3019 -1.0008  0.1368
  941MOL0     O29751  12.957   5.019  10.342  0.2591 -0.1892  0.6264
  941MOL0     C29752  12.967   4.882  10.331 -0.1602  0.4730  0.0371
  941MOL0     C29753  12.893   4.800  10.235  0.7689 -0.7023  0.9536
  941MOL0     C29754  12.932   4.669  10.205  0.0382 -1.3148 -0.7876
  941MOL0     C29755  13.027   4.610  10.294 -0.2779 -0.2204  0.4589
  941MOL0     O29756  13.039   4.481  10.280  0.3663 -0.7125  0.5779
  941MOL0     C29757  12.977   4.398  10.385  0.0894 -0.8624 -0.8096
  941MOL0     C29758  12.825   4.416  10.404  0.6047 -0.3913 -0.3351
  941MOL0     C29759  12.770   4.331  10.518  0.2695  0.6508  0.6747
  941MOL0     C29760  12.623   4.338  10.539 -0.3831 -0.7600 -0.2179
  941MOL0     C29761  12.551   4.474  10.572  0.0141  0.3858 -0.0607
  941MOL0     C29762  12.617   4.540  10.699 -0.0037  0.0971 -0.0338
  941MOL0     C29763  12.611   4.688  10.662 -0.3585  0.4222 -0.3318
  941MOL0     C29764  12.673   4.769  10.777 -0.0674 -0.2530  1.2984
  941MOL0    Cl29765  12.860   4.756  10.766 -0.2145 -0.1950 -0.3953
  941MOL0     C29766  13.080   4.681  10.398  0.2383 -0.5626 -0.4697
  941MOL0     C29767  13.052   4.817  10.419 -0.2326 -0.1449 -0.2398
  941MOL0     O29768  12.759   4.967  10.445 -0.2251  0.7424  0.4175
  941MOL0     C29769  12.917   5.282  10.405 -0.5553 -0.6257  0.5229
  941MOL0     C29770  12.910   5.419  10.423  0.6153 -0.2720 -0.4942
  941MOL0     N29771  12.650   6.114  10.681 -0.2354  0.0739 -0.1182
  941MOL0     N29772  12.528   6.131  10.726  0.0925 -0.2334  0.3907
  941MOL0     C29773  11.360   5.693  10.900 -0.5964 -0.3490  1.2022
  941MOL0     C29774  11.248   5.652  10.972  0.4562  0.9119  0.5087
  941MOL0     C29775  10.920   5.659  11.271  0.2964 -0.3367 -0.0269
  941MOL0     C29776  10.848   5.545  11.214 -0.4122  0.3693  0.8193
  941MOL0     C29777  10.741   5.476  11.283 -0.0367  0.4190 -0.2982
  941MOL0     C29778  10.715   5.527  11.410 -0.5490  0.5619  0.9829
  941MOL0     O29779  10.611   5.469  11.475  0.2322 -0.0758 -0.0920
  941MOL0     C29780  10.638   5.423  11.612 -0.0788 -0.4384  1.2459
  941MOL0     C29781  10.547   5.310  11.641  0.6144  0.0897  0.5016
  941MOL0     C29782  10.557   5.278  11.784 -0.2932  0.0652 -0.9250
  941MOL0     C29783  10.457   5.183  11.835 -0.1823  0.6371 -0.4740
  941MOL0     C29784  10.461   5.057  11.762  0.2153  0.0441 -0.1061
  941MOL0     C29785  10.434   4.951  11.704  0.1444 -0.1976 -1.4479
  941MOL0     C29786  10.783   5.640  11.466  0.7412 -0.6085 -0.4229
  941MOL0     C29787  10.886   5.706  11.399  0.4719 -0.3192 -0.0048
  941MOL0     C29788  10.954   5.821  11.476 -0.0401  0.4561  0.5684
  941MOL0     H29789  11.036   5.887  10.856  0.7081  0.2685 -1.4714
  941MOL0     H29790  11.235   5.967  10.754  3.2242  1.8495  2.4134
  941MOL0     H29791  11.645   5.747  10.728  0.5931  2.1399 -3.3977
  941MOL0     H29792  11.594   5.798  10.891 -0.9825  1.2562  0.2379
  941MOL0     H29793  11.669   5.991  10.672  2.1005  0.0106 -0.8118
  941MOL0     H29794  11.628   6.027  10.841  1.5044  4.0055 -1.6507
  941MOL0     H29795  11.865   6.056  10.787 -1.6008  0.7738 -1.3133
  941MOL0     H29796  11.840   5.935  10.919  3.4820  0.4021 -0.1725
  941MOL0     H29797  11.863   5.761  10.758 -1.6317  1.3970 -0.3752
  941MOL0     H29798  11.877   5.869  10.628 -0.4925 -0.7570  1.0833
  941MOL0     H29799  12.097   5.776  10.714  1.4323 -1.4438  1.1487
  941MOL0     H29800  12.089   5.880  10.855  3.3478  0.7546 -1.1043
  941MOL0     H29801  12.051   6.018  10.588  0.2008  1.7472  0.5357
  941MOL0     H29802  12.083   6.092  10.739 -0.5871 -0.5788  0.9081
  941MOL0     H29803  12.279   5.917  10.604 -0.9799  0.0971  0.9147
  941MOL0     H29804  12.303   5.994  10.761 -0.8980  1.3518  1.4194
  941MOL0     H29805  12.268   6.164  10.512  0.7942 -2.0082 -1.3584
  941MOL0     H29806  12.270   6.227  10.673 -1.9897 -0.7092  0.0099
  941MOL0     H29807  12.485   6.084  10.398  2.7826 -1.9828  0.1081
  941MOL0     H29808  12.868   6.098  10.489  1.5611 -2.9028 -1.1724
  941MOL0     H29809  12.757   6.094  10.346 -3.0487 -2.9536  0.2853
  941MOL0     H29810  12.886   5.893  10.422 -0.3913 -0.3171 -1.1197
  941MOL0     H29811  12.781   5.874  10.557 -1.2945 -3.8061 -1.5622
  941MOL0     H29812  12.588   5.893  10.386  0.5354  0.8148  2.5436
  941MOL0     H29813  12.707   5.836  10.263  3.9628 -0.3655 -0.2636
  941MOL0     H29814  12.618   5.687  10.523  0.1672 -1.7142  0.6761
  941MOL0     H29815  12.601   5.634  10.352  3.6069  1.2041 -4.5751
  941MOL0     H29816  12.583   5.442  10.506 -0.6008 -0.0661 -1.5401
  941MOL0     H29817  12.520   5.138  10.387 -1.3001 -1.2834  1.3590
  941MOL0     H29818  12.476   5.242  10.523  0.6220 -0.1604 -0.8002
  941MOL0     H29819  12.580   5.104  10.552  1.4639 -1.0851 -1.0690
  941MOL0     H29820  12.823   4.844  10.164  0.1604  0.4250  2.1963
  941MOL0     H29821  12.882   4.620  10.121 -0.0201  1.4072 -2.4450
  941MOL0     H29822  12.992   4.290  10.383 -1.4964 -1.1400  0.3823
  941MOL0     H29823  13.021   4.443  10.474  0.7740 -0.6348 -1.2597
  941MOL0     H29824  12.801   4.520  10.429 -0.5804 -0.5534 -0.7415
  941MOL0     H29825  12.773   4.367  10.322 -0.0108 -0.3716  0.0413
  941MOL0     H29826  12.833   4.345  10.606  4.5489  1.6403 -2.2188
  941MOL0     H29827  12.784   4.224  10.502  1.4022  0.3708  3.0908
  941MOL0     H29828  12.609   4.270  10.623 -0.7580 -2.4844 -1.6194
  941MOL0     H29829  12.569   4.289  10.458  0.7716  2.6565 -3.3562
  941MOL0     H29830  12.561   4.526  10.476 -0.0066  0.3904 -0.0606
  941MOL0     H29831  12.443   4.474  10.590 -0.0352  0.8224 -0.3455
  941MOL0     H29832  12.720   4.510  10.716 -0.2728 -0.3939  0.7780
  941MOL0     H29833  12.564   4.519  10.792 -1.6513  1.0372 -0.7144
  941MOL0     H29834  12.513   4.720  10.625  0.5598  1.3301 -2.1139
  941MOL0     H29835  12.675   4.690  10.574 -0.0344 -1.8685 -0.2282
  941MOL0     H29836  12.630   4.746  10.875 -0.6035  0.7282  1.3029
  941MOL0     H29837  12.631   4.869  10.771 -0.5812 -0.5804 -1.8219
  941MOL0     H29838  13.144   4.625  10.465  1.8752  0.1695 -1.3693
  941MOL0     H29839  13.111   4.871  10.492  0.9544 -1.4079 -0.2196
  941MOL0     H29840  13.018   5.247  10.388  0.4766  2.4694 -0.5141
  941MOL0     H29841  13.001   5.477  10.412  0.3789  0.3460  0.6074
  941MOL0     H29842  11.445   5.626  10.903  0.2284  0.6011 -0.0819
  941MOL0     H29843  11.247   5.570  11.043 -0.2597  0.6714  0.2349
  941MOL0     H29844  10.870   5.503  11.116 -3.7378 -2.8553  1.1913
  941MOL0     H29845  10.676   5.391  11.265  1.0040 -0.4696 -0.0070
  941MOL0     H29846  10.744   5.399  11.624  0.2357  1.8309  3.9142
  941MOL0     H29847  10.623   5.515  11.669 -0.8194 -0.3554  0.9374
  941MOL0     H29848  10.577   5.225  11.579 -0.1622 -0.3475  0.7104
  941MOL0     H29849  10.444   5.338  11.616  1.9441  3.9190 -1.6318
  941MOL0     H29850  10.657   5.236  11.803 -0.5306 -0.2659 -0.3764
  941MOL0     H29851  10.558   5.363  11.853 -0.9402 -1.6051  1.2593
  941MOL0     H29852  10.359   5.230  11.835  0.2954  1.7020  0.4622
  941MOL0     H29853  10.484   5.154  11.937 -0.4936  0.7998 -0.3442
  941MOL0     H29854  10.406   4.870  11.639 -2.7329 -0.4159 -0.1111
  941MOL0     H29855  10.759   5.676  11.565  0.3999  1.1578 -1.1095
  941MOL0     H29856  11.058   5.799  11.499 -0.1930 -0.1235  0.7201
  941MOL0     H29857  10.955   5.915  11.420  2.5300  0.1167 -0.0488
  941MOL0     H29858  10.894   5.840  11.566 -0.1048 -0.2342  0.6752
  942MOL0     O29859   4.925   9.115   7.078 -0.0794  0.1620  0.5877
  942MOL0     C29860   4.817   9.154   7.027 -0.7964 -0.3034 -0.1479
  942MOL0     O29861   4.778   9.284   7.025 -0.0224 -0.7511  0.5908
  942MOL0     C29862   4.865   9.379   7.065  0.0195  0.5686  0.6218
  942MOL0     C29863   4.844   9.437   7.191  0.1132  0.0991  1.3271
  942MOL0     C29864   4.948   9.518   7.244  0.4067 -0.2808 -0.4574
  942MOL0     C29865   5.058   9.564   7.165 -0.1825  0.2178 -0.2926
  942MOL0     O29866   5.141   9.657   7.222  0.8572 -0.2586  0.6521
  942MOL0     C29867   5.232   9.730   7.139 -0.0988  0.6521 -0.2026
  942MOL0     C29868   5.265   9.869   7.203 -0.2442  0.3448 -0.2553
  942MOL0     C29869   5.354   9.952   7.112 -0.2347  0.8930 -0.3684
  942MOL0     C29870   5.440  10.055   7.186 -0.4276  0.2941  0.1101
  942MOL0     C29871   5.353  10.157   7.271  0.0983 -0.0648  0.2897
  942MOL0     C29872   5.441  10.248   7.363  0.6717  0.7058 -0.0255
  942MOL0     C29873   5.361  10.344   7.449  0.0700 -0.3668 -0.0203
  942MOL0     C29874   5.285  10.446   7.356 -0.3435  0.5829  0.1888
  942MOL0     N29875   5.224  10.549   7.427 -0.5233  0.0012 -0.4347
  942MOL0     C29876   5.203  10.674   7.364 -0.2495  0.2254 -0.7893
  942MOL0     C29877   5.108  10.731   7.432  0.4753  0.6045 -0.9735
  942MOL0     C29878   5.044  10.862   7.395 -0.8453 -0.0531  0.2395
  942MOL0     C29879   5.006  10.867   7.246  0.2366  0.6825 -0.7524
  942MOL0     C29880   4.855  10.848   7.218 -0.3853 -0.7795  0.5504
  942MOL0     C29881   4.832  10.804   7.079 -0.1621 -0.4246 -0.4519
  942MOL0     O29882   4.886  10.892   6.982  0.4193  0.4108 -0.0061
  942MOL0     C29883   4.808  11.000   6.939  0.0675  0.6379  0.2812
  942MOL0     C29884   4.806  11.117   7.009  0.2848  0.5528 -0.3583
  942MOL0     C29885   4.729  11.222   6.960  0.6402  0.0067 -0.0371
  942MOL0     C29886   4.729  11.340   7.052 -0.5012 -0.0689  0.9154
  942MOL0     C29887   4.661  11.209   6.841  0.6456  0.4614  1.3011
  942MOL0     C29888   4.584  11.315   6.774 -1.2779  0.4855 -0.7242
  942MOL0     O29889   4.489  11.276   6.686 -0.9935  0.4987 -0.2134
  942MOL0     C29890   4.406  11.366   6.634 -0.5008 -0.0638 -0.6038
  942MOL0     C29891   4.290  11.403   6.693  0.2445 -0.0180  0.3446
  942MOL0     C29892   4.195  11.476   6.619  0.2086 -0.2567 -0.5408
  942MOL0     C29893   4.206  11.521   6.494  0.3075 -0.1265  0.0801
  942MOL0     O29894   4.099  11.592   6.445 -0.2936 -0.0444 -0.1041
  942MOL0     C29895   4.120  11.689   6.341 -0.0824 -0.2129 -0.6608
  942MOL0     C29896   4.182  11.817   6.393  0.4090 -1.1975  0.2391
  942MOL0     C29897   4.065  11.891   6.473 -0.4266 -0.0696 -0.6232
  942MOL0     C29898   4.080  12.044   6.476 -0.6931 -0.1153  1.1720
  942MOL0     C29899   4.204  12.096   6.552 -0.4170  0.4780 -0.6427
  942MOL0     C29900   4.195  12.086   6.699  1.0864 -0.0652  0.6943
  942MOL0     C29901   4.288  12.165   6.777 -0.1006  0.2438 -0.7888
  942MOL0     C29902   4.263  12.139   6.923 -0.1084 -0.1832 -0.1143
  942MOL0    Cl29903   4.124  12.247   6.974  0.0215  0.4451  0.1760
  942MOL0     C29904   4.342  11.491   6.437  0.8236 -0.3333  0.3226
  942MOL0     C29905   4.444  11.419   6.510  0.6124 -1.0596  0.3555
  942MOL0     O29906   4.616  11.426   6.811  0.9333  0.3078  0.3727
  942MOL0     C29907   4.666  11.085   6.768 -1.5322 -0.2440 -0.2380
  942MOL0     C29908   4.744  10.983   6.824 -0.3387  0.1639  0.0198
  942MOL0     N29909   5.076  10.657   7.545 -0.3736 -0.8196  0.2132
  942MOL0     N29910   5.140  10.542   7.536  0.8277  0.0668 -0.0345
  942MOL0     C29911   5.076   9.505   7.040  0.5550 -0.1609 -0.0959
  942MOL0     C29912   4.982   9.409   6.990  0.4654  0.3027  0.2181
  942MOL0     C29913   4.712   9.057   6.989 -0.1450  0.0780  0.0213
  942MOL0     C29914   4.578   9.088   6.991 -0.2824  0.0783 -0.0580
  942MOL0     C29915   4.477   9.000   6.950 -0.1601 -0.1200  0.3229
  942MOL0     C29916   4.514   8.874   6.889  0.5061 -0.2667 -0.5637
  942MOL0     O29917   4.425   8.782   6.834 -0.5920 -0.1832  0.0998
  942MOL0     C29918   4.440   8.755   6.695 -0.2323 -0.6276 -0.1394
  942MOL0     C29919   4.360   8.854   6.609 -0.1409 -0.0740 -1.1176
  942MOL0     C29920   4.213   8.821   6.604 -0.9142 -0.3486  0.3362
  942MOL0     C29921   4.121   8.935   6.544  0.2613  0.7727  0.1964
  942MOL0     C29922   4.131   9.056   6.605  0.1717 -0.2086  0.8967
  942MOL0     C29923   4.153   9.149   6.673 -0.2101 -0.5645 -0.0831
  942MOL0     C29924   4.648   8.841   6.894  0.0027 -0.3136 -1.1004
  942MOL0     C29925   4.745   8.929   6.943  0.2014 -0.4779  0.8740
  942MOL0     C29926   4.890   8.872   6.924  0.3208 -0.4701  0.9387
  942MOL0     H29927   4.761   9.403   7.251 -3.1348  3.2872 -0.9341
  942MOL0     H29928   4.935   9.541   7.349 -0.8027 -0.6776 -0.5037
  942MOL0     H29929   5.191   9.761   7.043  1.0976  2.7684 -0.0907
  942MOL0     H29930   5.319   9.664   7.128 -1.7146 -1.5743 -0.2889
  942MOL0     H29931   5.171   9.920   7.228 -1.0664 -0.5673 -1.3822
  942MOL0     H29932   5.323   9.850   7.293 -1.8077  4.2593  1.8408
  942MOL0     H29933   5.426   9.891   7.056 -1.0867  0.9586 -1.5728
  942MOL0     H29934   5.292   9.993   7.032 -2.4468  2.7616  2.1138
  942MOL0     H29935   5.505   9.990   7.245 -0.7760  0.5564  0.7896
  942MOL0     H29936   5.493  10.106   7.105 -2.0381  1.1448 -0.4634
  942MOL0     H29937   5.291  10.101   7.342  1.7699 -1.3678  0.7920
  942MOL0     H29938   5.300  10.209   7.191  0.5603 -1.4635 -0.9698
  942MOL0     H29939   5.486  10.176   7.432 -2.2793  2.2338  3.8985
  942MOL0     H29940   5.530  10.291   7.316  0.0285  1.1630 -0.8477
  942MOL0     H29941   5.434  10.407   7.501  1.0800 -0.6631 -1.0368
  942MOL0     H29942   5.293  10.285   7.512 -0.0993 -0.2113 -0.0552
  942MOL0     H29943   5.359  10.480   7.283  1.9747  0.9052  2.5709
  942MOL0     H29944   5.201  10.404   7.299  1.3809  2.6383 -4.3085
  942MOL0     H29945   5.251  10.706   7.272  1.1977  3.5189  0.9420
  942MOL0     H29946   5.132  10.925   7.406  0.6773 -2.1724  0.9458
  942MOL0     H29947   4.974  10.889   7.474 -0.7344 -2.5573  1.3118
  942MOL0     H29948   5.048  10.962   7.212  1.4677  0.5759  0.3575
  942MOL0     H29949   5.063  10.788   7.196 -0.9164 -0.8187  0.2453
  942MOL0     H29950   4.813  10.771   7.284 -0.1990 -4.1048 -2.8455
  942MOL0     H29951   4.802  10.941   7.241  0.8925 -0.3930  2.1636
  942MOL0     H29952   4.886  10.709   7.071  0.6234  0.0176 -0.5381
  942MOL0     H29953   4.723  10.804   7.069 -0.4167  2.5410  1.3355
  942MOL0     H29954   4.866  11.115   7.099 -0.3441 -1.4859  0.0584
  942MOL0     H29955   4.630  11.354   7.096 -1.2188  1.7689 -1.0699
  942MOL0     H29956   4.746  11.428   6.989 -0.0709 -1.6271 -1.3022
  942MOL0     H29957   4.791  11.348   7.141  1.5521  2.5181 -0.6260
  942MOL0     H29958   4.267  11.357   6.788 -3.0161  0.5098 -0.1005
  942MOL0     H29959   4.103  11.484   6.677  1.5086  1.5747  1.3985
  942MOL0     H29960   4.177  11.666   6.250 -2.5061  0.3500 -2.4031
  942MOL0     H29961   4.020  11.706   6.300  0.5104  0.5243 -1.8614
  942MOL0     H29962   4.275  11.796   6.447  2.1142  2.7221 -0.7815
  942MOL0     H29963   4.192  11.875   6.301 -2.8214  1.1075  1.1670
  942MOL0     H29964   4.067  11.852   6.575 -1.8957  3.7487  1.0694
  942MOL0     H29965   3.966  11.862   6.437 -0.8004  1.9833 -1.4331
  942MOL0     H29966   3.994  12.092   6.522 -1.7409 -0.9959  0.1792
  942MOL0     H29967   4.095  12.075   6.372  0.6673  0.1347  1.4152
  942MOL0     H29968   4.301  12.061   6.516  0.7889  0.6901  2.1111
  942MOL0     H29969   4.197  12.201   6.520 -0.7494  0.3766 -0.9034
  942MOL0     H29970   4.212  11.983   6.729 -1.7781 -0.4257  1.3639
  942MOL0     H29971   4.093  12.116   6.722  1.6488  0.7235  2.3051
  942MOL0     H29972   4.272  12.271   6.754 -1.1085 -0.0369 -1.4165
  942MOL0     H29973   4.392  12.136   6.761  0.0550  0.2247  0.1875
  942MOL0     H29974   4.349  12.167   6.986 -0.4550  0.0198  0.2706
  942MOL0     H29975   4.235  12.035   6.936 -1.3945  0.3946  2.1684
  942MOL0     H29976   4.364  11.535   6.340 -1.0288  1.7075  0.7261
  942MOL0     H29977   4.539  11.418   6.459  1.8540 -3.2792  2.4789
  942MOL0     H29978   4.619  11.067   6.672  3.2038  1.3720 -3.2533
  942MOL0     H29979   4.763  10.888   6.776  2.0405 -1.6483  4.0338
  942MOL0     H29980   5.154   9.537   6.972  1.2058  0.4307  0.9046
  942MOL0     H29981   5.001   9.360   6.896 -2.4499 -0.7444  0.0740
  942MOL0     H29982   4.555   9.186   7.033 -1.1865  0.1275 -0.6353
  942MOL0     H29983   4.369   9.016   6.948 -0.1008  0.4162  1.1339
  942MOL0     H29984   4.542   8.754   6.655 -1.0777 -0.9996 -2.4559
  942MOL0     H29985   4.411   8.651   6.683  3.0173 -1.9358  1.9510
  942MOL0     H29986   4.405   8.864   6.510  0.8305  1.2633 -0.5695
  942MOL0     H29987   4.377   8.954   6.649  2.4253 -0.1764 -1.8255
  942MOL0     H29988   4.192   8.741   6.533  0.0751  0.8873 -1.4376
  942MOL0     H29989   4.179   8.801   6.705  0.6384 -1.3191  0.6994
  942MOL0     H29990   4.016   8.905   6.555  1.2594 -2.9176  0.8299
  942MOL0     H29991   4.135   8.938   6.435  0.1718 -4.1176 -0.1610
  942MOL0     H29992   4.155   9.233   6.739  3.2732 -0.1600 -0.5319
  942MOL0     H29993   4.674   8.744   6.852  0.8956 -0.5681 -0.0087
  942MOL0     H29994   4.914   8.859   7.029  0.5086  1.5061  1.1892
  942MOL0     H29995   4.905   8.777   6.872  0.3809  0.1799 -0.2737
  942MOL0     H29996   4.955   8.947   6.875 -0.2900  0.2576  1.2225
  943MOL0     O29997   7.317   1.462   4.558 -0.0180 -0.4414 -0.2423
  943MOL0     C29998   7.235   1.381   4.594 -0.0966  0.2726  0.1157
  943MOL0     O29999   7.205   1.264   4.520  0.0815 -0.8928 -0.2495
  943MOL0     C30000   7.275   1.214   4.413  0.6787  0.8644 -0.1296
  943MOL0     C30001   7.200   1.136   4.324  0.7846 -0.0295  0.0531
  943MOL0     C30002   7.264   1.047   4.240  0.5099 -0.1420  0.1002
  943MOL0     C30003   7.400   1.060   4.210  0.4215  0.3043  0.2534
  943MOL0     O30004   7.458   0.976   4.123 -0.4374 -0.3016 -0.8699
  943MOL0     C30005   7.484   0.841   4.172  0.4071 -0.7847 -0.3008
  943MOL0     C30006   7.531   0.760   4.053 -0.4814  0.1217  0.9315
  943MOL0     C30007   7.677   0.810   4.016 -0.6180  0.4055 -0.3941
  943MOL0     C30008   7.756   0.712   3.938  0.3349  0.4879 -0.5689
  943MOL0     C30009   7.904   0.755   3.914 -0.6923  0.2013 -0.0440
  943MOL0     C30010   7.973   0.836   4.033  0.2630  1.0834 -0.1347
  943MOL0     C30011   8.117   0.882   4.008 -0.0705  0.5283 -0.0444
  943MOL0     C30012   8.216   0.758   4.047  0.4688 -0.3513 -0.0110
  943MOL0     N30013   8.217   0.733   4.192  0.5517  0.4191  0.3930
  943MOL0     C30014   8.144   0.631   4.257  0.0332 -0.9025 -0.0784
  943MOL0     C30015   8.200   0.627   4.376  0.9896 -0.9373  0.3241
  943MOL0     C30016   8.190   0.511   4.473  0.1549 -0.3972 -0.0185
  943MOL0     C30017   8.314   0.416   4.469 -0.3688 -0.8713  0.2435
  943MOL0     C30018   8.273   0.288   4.534  0.4604 -0.1437 -0.1490
  943MOL0     C30019   8.393   0.191   4.534  0.6097  0.4692  0.1502
  943MOL0     O30020   8.332   0.075   4.602  0.0506 -0.5120 -0.3473
  943MOL0     C30021   8.412  -0.011   4.671 -0.9747  0.7641 -0.4365
  943MOL0     C30022   8.541   0.026   4.727  0.5063  0.7204  0.8689
  943MOL0     C30023   8.631  -0.068   4.781  0.3515 -0.1172  0.2601
  943MOL0     C30024   8.767  -0.016   4.812 -1.1413 -0.6827  0.1830
  943MOL0     C30025   8.590  -0.200   4.801 -1.2741  0.3773  0.4080
  943MOL0     C30026   8.672  -0.299   4.877 -0.8905 -0.0028  1.1876
  943MOL0     O30027   8.618  -0.425   4.893 -0.6887 -0.4297 -0.3971
  943MOL0     C30028   8.679  -0.499   5.001 -0.0446 -0.1376 -0.1280
  943MOL0     C30029   8.793  -0.577   4.986  0.1309 -0.2277 -0.0547
  943MOL0     C30030   8.837  -0.671   5.083 -0.2739  0.5618 -0.2694
  943MOL0     C30031   8.757  -0.700   5.195 -1.4255 -1.2581  0.2333
  943MOL0     O30032   8.761  -0.802   5.290 -0.6941 -0.7781  0.1713
  943MOL0     C30033   8.869  -0.895   5.279  0.6187  0.3405  0.1704
  943MOL0     C30034   8.898  -0.989   5.391 -0.3589 -0.0564 -0.0444
  943MOL0     C30035   8.778  -1.055   5.451 -0.3400 -0.7327 -0.0914
  943MOL0     C30036   8.819  -1.165   5.562  0.9457 -0.7202  1.0551
  943MOL0     C30037   8.701  -1.190   5.665 -0.6001  0.8092 -0.1843
  943MOL0     C30038   8.670  -1.063   5.742 -0.2245 -0.6391  0.1925
  943MOL0     C30039   8.556  -1.090   5.839  0.5552  0.3570  0.4591
  943MOL0     C30040   8.490  -0.970   5.904 -0.2867  0.0868 -0.6694
  943MOL0    Cl30041   8.600  -0.834   5.953  0.0056 -0.2408 -0.4548
  943MOL0     C30042   8.650  -0.609   5.211  0.0771 -0.4425 -0.4165
  943MOL0     C30043   8.612  -0.502   5.123 -0.0487  1.0565  0.1303
  943MOL0     O30044   8.786  -0.270   4.910  0.0132  0.0419  0.2911
  943MOL0     C30045   8.462  -0.233   4.748 -0.1161  0.3920  0.1853
  943MOL0     C30046   8.374  -0.140   4.694  0.3356  0.4103  0.4935
  943MOL0     N30047   8.277   0.744   4.388 -0.1928 -0.1700 -0.4503
  943MOL0     N30048   8.284   0.810   4.283  0.6537  0.0729  0.5882
  943MOL0     C30049   7.483   1.145   4.284  0.5444  0.6296 -1.9143
  943MOL0     C30050   7.421   1.217   4.396  0.3222  0.0266  0.1850
  943MOL0     C30051   7.171   1.407   4.730  0.2380 -1.2860 -0.3645
  943MOL0     C30052   7.160   1.300   4.820 -0.6865 -0.2535 -0.3070
  943MOL0     C30053   7.157   1.319   4.957  0.0657 -0.0516 -0.1842
  943MOL0     C30054   7.163   1.445   5.011 -0.0304  0.0883  0.2785
  943MOL0     O30055   7.170   1.450   5.149 -0.6771 -0.1225  0.2050
  943MOL0     C30056   7.226   1.569   5.219  0.6733  0.9947 -0.1031
  943MOL0     C30057   7.234   1.515   5.362 -0.9593 -0.1641  0.3366
  943MOL0     C30058   7.246   1.630   5.467 -0.2975  0.9134  0.0466
  943MOL0     C30059   7.365   1.598   5.555  0.0240 -0.5179  0.4594
  943MOL0     C30060   7.344   1.503   5.665  0.5618 -0.6231 -0.2419
  943MOL0     C30061   7.330   1.430   5.760  0.1057 -0.4908 -1.2390
  943MOL0     C30062   7.161   1.552   4.926  0.6803 -1.0597 -0.0091
  943MOL0     C30063   7.157   1.543   4.781  0.0747  0.0095  0.5738
  943MOL0     C30064   7.176   1.670   4.699  0.2785  0.7170  0.2573
  943MOL0     H30065   7.093   1.143   4.335  0.6150  0.6343 -1.6926
  943MOL0     H30066   7.208   0.976   4.179 -1.1346  0.3349  0.9854
  943MOL0     H30067   7.392   0.803   4.219  2.1236 -3.4833  1.1548
  943MOL0     H30068   7.567   0.831   4.242 -0.2053 -2.2199  0.2560
  943MOL0     H30069   7.536   0.657   4.090  1.8356  0.1747  0.9075
  943MOL0     H30070   7.464   0.768   3.967  0.4982 -2.5811 -0.1804
  943MOL0     H30071   7.679   0.906   3.965  1.6767 -0.6432 -2.5025
  943MOL0     H30072   7.733   0.829   4.108 -0.9350  2.5593 -0.5946
  943MOL0     H30073   7.760   0.630   4.011 -1.2744  1.6987  0.9481
  943MOL0     H30074   7.707   0.673   3.848 -1.0975  0.9358 -0.0108
  943MOL0     H30075   7.900   0.818   3.825  1.6977 -0.3881 -0.6360
  943MOL0     H30076   7.970   0.670   3.895  0.4384  1.0597 -0.0635
  943MOL0     H30077   7.926   0.936   4.037  0.0025  1.0942 -2.3842
  943MOL0     H30078   7.960   0.784   4.128  1.9020 -1.1758 -1.0691
  943MOL0     H30079   8.148   0.974   4.061  1.2654 -0.7069  1.4271
  943MOL0     H30080   8.132   0.903   3.902  3.6552  3.5933  0.8251
  943MOL0     H30081   8.192   0.668   3.989 -0.4207  1.0849 -1.9679
  943MOL0     H30082   8.319   0.780   4.018  0.4211 -0.9417 -0.6513
  943MOL0     H30083   8.082   0.559   4.204  2.0480 -1.5032 -1.7893
  943MOL0     H30084   8.102   0.452   4.444 -1.5422  2.0133 -0.1399
  943MOL0     H30085   8.165   0.535   4.577 -1.8442 -1.3505 -0.2305
  943MOL0     H30086   8.353   0.393   4.369 -0.7098 -0.5079  0.0268
  943MOL0     H30087   8.398   0.464   4.520  0.5112 -2.4571  0.3857
  943MOL0     H30088   8.242   0.312   4.636 -1.9616 -2.2094 -0.3075
  943MOL0     H30089   8.193   0.251   4.469  1.0592 -0.2107 -0.8545
  943MOL0     H30090   8.433   0.165   4.436  2.5456  1.2437  0.6969
  943MOL0     H30091   8.468   0.243   4.594  1.3517  0.9652 -1.1720
  943MOL0     H30092   8.577   0.128   4.723  1.6206  0.4582  3.1616
  943MOL0     H30093   8.754   0.091   4.829 -1.6673 -0.9007  1.2005
  943MOL0     H30094   8.841  -0.031   4.732 -2.0584 -4.4407 -0.1860
  943MOL0     H30095   8.806  -0.054   4.907  2.6218  1.6403 -0.2055
  943MOL0     H30096   8.839  -0.565   4.889  0.6545 -0.2225  0.1946
  943MOL0     H30097   8.921  -0.733   5.051 -1.0673  0.8021 -3.1367
  943MOL0     H30098   8.833  -0.957   5.197  2.8205  0.9543 -1.3648
  943MOL0     H30099   8.960  -0.845   5.244  1.4798 -0.8081  0.6995
  943MOL0     H30100   8.961  -1.066   5.345 -1.3188 -0.0295 -1.4686
  943MOL0     H30101   8.957  -0.937   5.467  0.2573 -0.7539 -0.0286
  943MOL0     H30102   8.722  -1.106   5.372  0.2638 -0.1580 -0.9189
  943MOL0     H30103   8.705  -0.989   5.498 -0.4452 -2.0281  1.6924
  943MOL0     H30104   8.900  -1.123   5.622  1.5362  2.4889 -1.6660
  943MOL0     H30105   8.854  -1.257   5.516 -1.9211 -2.4610  2.0629
  943MOL0     H30106   8.610  -1.217   5.610 -0.8461  3.0068 -0.9399
  943MOL0     H30107   8.723  -1.270   5.737  0.9418  1.6724  0.3340
  943MOL0     H30108   8.646  -0.979   5.676 -0.8912  3.2860  4.8669
  943MOL0     H30109   8.753  -1.029   5.806 -0.6118 -0.8689  0.8233
  943MOL0     H30110   8.589  -1.161   5.915  0.5597  0.3044  0.4080
  943MOL0     H30111   8.476  -1.140   5.783  0.4514 -2.6139  2.9710
  943MOL0     H30112   8.446  -0.992   6.002  3.2620 -0.3956  0.9701
  943MOL0     H30113   8.410  -0.928   5.842  1.7398  1.7795 -2.2904
  943MOL0     H30114   8.573  -0.629   5.285  2.3025 -1.1923  1.8356
  943MOL0     H30115   8.517  -0.451   5.130 -1.3694 -1.0872 -1.0304
  943MOL0     H30116   8.433  -0.337   4.760  0.4053  0.0916 -0.9975
  943MOL0     H30117   8.272  -0.165   4.665  0.8926 -2.2459  0.5874
  943MOL0     H30118   7.586   1.167   4.261  1.6169  0.2700  1.7820
  943MOL0     H30119   7.483   1.277   4.462 -0.5881 -1.6485  2.7414
  943MOL0     H30120   7.180   1.204   4.773 -0.9298  1.2729 -3.8732
  943MOL0     H30121   7.129   1.235   5.020 -1.3970  0.6810  0.1973
  943MOL0     H30122   7.325   1.607   5.192  1.0468 -0.2189 -0.5398
  943MOL0     H30123   7.155   1.652   5.209  1.9579  1.8787 -2.8048
  943MOL0     H30124   7.323   1.452   5.366 -1.7353 -1.3104  0.0489
  943MOL0     H30125   7.148   1.449   5.373 -2.2037  0.7417 -2.8788
  943MOL0     H30126   7.238   1.732   5.428 -3.1669  0.9502  0.5104
  943MOL0     H30127   7.157   1.630   5.530  0.7466  3.6757  1.6985
  943MOL0     H30128   7.384   1.701   5.588 -3.0166  0.4070 -0.3630
  943MOL0     H30129   7.442   1.553   5.492 -0.6544 -1.3292  0.1918
  943MOL0     H30130   7.316   1.370   5.848  0.8593 -0.7371 -1.2838
  943MOL0     H30131   7.142   1.644   4.980 -3.8517 -2.4720  1.1989
  943MOL0     H30132   7.091   1.735   4.725  0.7552  1.4425  0.0488
  943MOL0     H30133   7.271   1.716   4.728  0.5761 -0.0329  0.4910
  943MOL0     H30134   7.176   1.650   4.591  2.7901 -0.3125  0.3947
  944MOL0     O30135  10.332   9.919   9.661 -0.6858  0.8532  0.5403
  944MOL0     C30136  10.444   9.937   9.617  0.0718  0.5611  0.4014
  944MOL0     O30137  10.531  10.020   9.669 -0.6578  0.0781  0.7199
  944MOL0     C30138  10.510  10.144   9.714  0.2498 -0.1910 -0.6221
  944MOL0     C30139  10.581  10.249   9.654 -1.1666 -0.3367 -0.5420
  944MOL0     C30140  10.563  10.384   9.687 -0.5411  0.0755 -0.7719
  944MOL0     C30141  10.464  10.417   9.777  0.5394 -0.1749  0.7222
  944MOL0     O30142  10.459  10.550   9.805 -0.6084  0.0023  0.3398
  944MOL0     C30143  10.354  10.612   9.872  0.7066 -0.4359 -0.6560
  944MOL0     C30144  10.361  10.762   9.878 -0.6163 -1.5103 -0.5080
  944MOL0     C30145  10.263  10.825   9.984  1.2365  0.3512  0.7702
  944MOL0     C30146  10.288  10.967  10.023 -0.1050 -0.4392  1.2761
  944MOL0     C30147  10.286  11.065   9.910 -0.2914 -0.7970 -0.2235
  944MOL0     C30148  10.309  11.206   9.954 -0.4494 -0.2828 -0.2918
  944MOL0     C30149  10.307  11.312   9.840 -0.1988 -0.2776  0.7376
  944MOL0     C30150  10.162  11.346   9.797  0.2505  0.3790 -0.6057
  944MOL0     N30151  10.151  11.457   9.716 -0.1168  0.5341  0.4673
  944MOL0     C30152  10.117  11.580   9.763  0.2944  0.5035 -0.3620
  944MOL0     C30153  10.087  11.657   9.654  0.6221 -0.2416 -0.0228
  944MOL0     C30154  10.017  11.794   9.670 -0.2028  0.2350 -0.2371
  944MOL0     C30155  10.110  11.909   9.634 -0.2688  0.3933 -0.8900
  944MOL0     C30156  10.056  12.038   9.696 -0.1478  0.4213  0.0321
  944MOL0     C30157  10.154  12.160   9.665  0.1896 -1.0873 -0.8966
  944MOL0     O30158  10.169  12.168   9.524  0.2906 -0.1384  0.8462
  944MOL0     C30159  10.292  12.192   9.470  0.0316  0.0576  1.3728
  944MOL0     C30160  10.396  12.107   9.486 -1.0102  0.4034  0.0446
  944MOL0     C30161  10.522  12.148   9.435  0.1950 -0.0242  0.8639
  944MOL0     C30162  10.628  12.038   9.444  0.7977 -1.0556  0.0136
  944MOL0     C30163  10.540  12.276   9.374  0.1219 -0.4223  0.1081
  944MOL0     C30164  10.674  12.320   9.327  0.1569  0.4237  0.7356
  944MOL0     O30165  10.673  12.436   9.254 -0.7778 -0.4367 -0.9372
  944MOL0     C30166  10.782  12.470   9.171 -0.5422  0.3234  0.6333
  944MOL0     C30167  10.764  12.484   9.039 -0.1713 -0.1606  0.4148
  944MOL0     C30168  10.868  12.524   8.946 -0.7182  0.4617 -0.2184
  944MOL0     C30169  10.998  12.549   8.998  0.5524  0.4389 -0.1071
  944MOL0     O30170  11.097  12.595   8.905 -0.4942 -0.6438 -0.4606
  944MOL0     C30171  11.202  12.670   8.979  0.8900 -0.7345  0.8628
  944MOL0     C30172  11.292  12.738   8.875  0.3346  0.5225 -0.0996
  944MOL0     C30173  11.396  12.829   8.945 -0.8772 -0.2716 -0.7249
  944MOL0     C30174  11.523  12.847   8.857  0.4060 -0.7576 -0.4282
  944MOL0     C30175  11.643  12.914   8.933  0.3396 -0.4024  0.0481
  944MOL0     C30176  11.765  12.887   8.845 -1.7145 -0.7217 -0.3572
  944MOL0     C30177  11.900  12.960   8.895 -1.1037 -0.1982 -0.6981
  944MOL0     C30178  12.038  12.922   8.831 -0.1599  0.9145 -1.0692
  944MOL0    Cl30179  12.034  12.727   8.840 -0.1033  0.2974  0.0124
  944MOL0     C30180  11.011  12.528   9.139 -0.1834  1.2369  0.5901
  944MOL0     C30181  10.912  12.483   9.223 -0.8509 -0.6650 -0.0252
  944MOL0     O30182  10.779  12.268   9.369 -0.5366 -0.4294 -0.8094
  944MOL0     C30183  10.425  12.358   9.366  0.3356 -0.6694 -0.0497
  944MOL0     C30184  10.300  12.318   9.414 -0.2700 -0.5662  0.0142
  944MOL0     N30185  10.120  11.582   9.545  0.7712  0.5132 -0.0016
  944MOL0     N30186  10.174  11.469   9.578  0.5220  0.4001  0.3883
  944MOL0     C30187  10.393  10.316   9.847 -0.3839  0.1994  0.5946
  944MOL0     C30188  10.417  10.177   9.811 -0.0548 -0.4128  0.4249
  944MOL0     C30189  10.493   9.839   9.516  0.3618  0.3450 -0.2594
  944MOL0     C30190  10.555   9.887   9.402 -0.2386 -0.2708  0.0211
  944MOL0     C30191  10.611   9.810   9.298 -0.0875 -0.4877 -0.2421
  944MOL0     C30192  10.616   9.672   9.318 -0.2030  0.3212  0.1287
  944MOL0     O30193  10.672   9.586   9.232  0.2580  0.2360 -0.1053
  944MOL0     C30194  10.571   9.507   9.172  0.1678 -0.4752 -0.4614
  944MOL0     C30195  10.642   9.416   9.070 -0.4467 -1.4435 -0.7760
  944MOL0     C30196  10.695   9.494   8.948  0.3821  0.2831 -0.4541
  944MOL0     C30197  10.750   9.404   8.842 -0.2685 -0.3235 -0.0751
  944MOL0     C30198  10.874   9.329   8.882 -0.1322 -0.8465  0.0645
  944MOL0     C30199  10.964   9.264   8.933  0.1111 -1.0085 -0.0820
  944MOL0     C30200  10.553   9.619   9.445 -0.0879 -1.0979  0.8877
  944MOL0     C30201  10.490   9.702   9.535 -0.5644 -0.0901  0.4718
  944MOL0     C30202  10.428   9.644   9.655 -0.8515 -1.2778  0.5406
  944MOL0     H30203  10.645  10.221   9.571 -0.1784  3.7617 -1.4164
  944MOL0     H30204  10.624  10.466   9.648 -0.2450  1.7898  2.8606
  944MOL0     H30205  10.349  10.570   9.973  0.6525 -0.3243 -0.6118
  944MOL0     H30206  10.267  10.583   9.813 -0.7208  1.1694  0.5442
  944MOL0     H30207  10.465  10.776   9.910 -0.0607 -1.4677 -2.2283
  944MOL0     H30208  10.349  10.815   9.784  0.5928  3.6287  1.8591
  944MOL0     H30209  10.170  10.819   9.928  1.3660 -0.0966  0.5966
  944MOL0     H30210  10.265  10.760  10.072 -2.3348  1.0402  1.5123
  944MOL0     H30211  10.203  11.001  10.083 -0.2388 -1.6482  1.8058
  944MOL0     H30212  10.382  10.972  10.079  1.2535 -0.3120 -0.8907
  944MOL0     H30213  10.192  11.046   9.859 -1.6286 -2.1837  2.5839
  944MOL0     H30214  10.377  11.038   9.855  1.2871 -0.3284  2.0116
  944MOL0     H30215  10.243  11.231  10.037  2.0546 -2.1800  2.4730
  944MOL0     H30216  10.403  11.195  10.008 -1.6408  0.3036  2.0185
  944MOL0     H30217  10.369  11.267   9.761  1.0134 -0.5357  1.8130
  944MOL0     H30218  10.364  11.393   9.884  2.5712 -2.4975  1.5536
  944MOL0     H30219  10.124  11.252   9.754  1.2213  0.4773 -1.7099
  944MOL0     H30220  10.097  11.365   9.884 -0.0829 -2.2949 -0.1711
  944MOL0     H30221  10.110  11.612   9.866 -1.3263 -0.7467 -0.0422
  944MOL0     H30222   9.990  11.800   9.776 -0.7660  1.2972 -0.4366
  944MOL0     H30223   9.925  11.801   9.611 -0.1739 -0.3260 -0.3594
  944MOL0     H30224  10.208  11.879   9.672 -0.5868 -1.3900 -1.3824
  944MOL0     H30225  10.120  11.916   9.525  0.3231 -1.0856 -0.9553
  944MOL0     H30226   9.956  12.057   9.655 -0.3186 -0.5803 -0.0403
  944MOL0     H30227  10.042  12.042   9.804 -0.1058  1.7135  0.0060
  944MOL0     H30228  10.120  12.256   9.703  3.5496 -0.0617 -0.1058
  944MOL0     H30229  10.246  12.146   9.722 -1.4734  0.0310  2.2883
  944MOL0     H30230  10.389  12.010   9.534  3.6360 -3.1501 -5.1266
  944MOL0     H30231  10.699  12.051   9.527  0.2784 -1.4429  0.5295
  944MOL0     H30232  10.677  12.026   9.347 -1.3323 -0.1789 -1.2331
  944MOL0     H30233  10.589  11.936   9.454 -1.0516 -0.2125  2.5369
  944MOL0     H30234  10.665  12.458   9.003 -0.6329  1.4893  0.3980
  944MOL0     H30235  10.846  12.526   8.839 -0.3189 -1.8093 -0.3924
  944MOL0     H30236  11.160  12.749   9.043  1.5638  1.6053 -1.4450
  944MOL0     H30237  11.255  12.596   9.040  1.7306  0.8061  2.0913
  944MOL0     H30238  11.356  12.667   8.822 -0.3511 -1.3468  1.4628
  944MOL0     H30239  11.223  12.781   8.802 -1.8652 -2.2576  0.1994
  944MOL0     H30240  11.417  12.791   9.045  1.0224 -1.9414 -1.6680
  944MOL0     H30241  11.349  12.925   8.967  0.3599  0.1397  0.2751
  944MOL0     H30242  11.495  12.911   8.773 -1.6315  0.2150  0.9025
  944MOL0     H30243  11.559  12.749   8.824 -0.7294 -1.9359  1.5882
  944MOL0     H30244  11.631  13.018   8.965 -1.7908 -0.6685  0.2640
  944MOL0     H30245  11.671  12.850   9.018  0.9219 -0.7486 -0.3906
  944MOL0     H30246  11.749  12.917   8.741  2.5332  0.9107 -0.7469
  944MOL0     H30247  11.787  12.780   8.839  0.1005 -0.5691  1.8986
  944MOL0     H30248  11.897  12.936   9.002 -0.9142  0.1796 -0.6075
  944MOL0     H30249  11.878  13.066   8.881 -0.0014  0.4438  1.9532
  944MOL0     H30250  12.124  12.965   8.883 -0.7218  2.2613 -1.2274
  944MOL0     H30251  12.038  12.951   8.726  0.2417 -1.9184 -1.9260
  944MOL0     H30252  11.116  12.533   9.166 -0.1701  1.2368  0.5377
  944MOL0     H30253  10.941  12.441   9.318 -3.3132 -1.0891  0.5978
  944MOL0     H30254  10.446  12.458   9.328 -0.6985 -0.0743  0.8945
  944MOL0     H30255  10.220  12.391   9.420 -2.5244 -2.9562  1.2790
  944MOL0     H30256  10.325  10.316   9.932 -0.0338 -0.9926  0.8891
  944MOL0     H30257  10.364  10.093   9.857 -2.3619 -0.4531 -2.0723
  944MOL0     H30258  10.562   9.995   9.394 -2.2930 -0.0607  0.4426
  944MOL0     H30259  10.649   9.866   9.212  1.2289 -1.8401 -0.5671
  944MOL0     H30260  10.510   9.452   9.245  1.5745 -0.8127  0.5001
  944MOL0     H30261  10.509   9.573   9.111  1.2239  0.2005 -0.8188
  944MOL0     H30262  10.577   9.338   9.030 -0.0359 -1.2894 -1.7786
  944MOL0     H30263  10.735   9.367   9.102 -0.4454  0.0558  1.7870
  944MOL0     H30264  10.619   9.560   8.904 -0.0422 -0.8181 -1.4272
  944MOL0     H30265  10.779   9.559   8.972  0.6032  0.9957 -2.9090
  944MOL0     H30266  10.767   9.477   8.762  2.1128  1.2713  1.7651
  944MOL0     H30267  10.668   9.341   8.806 -0.3890 -0.4239  0.3757
  944MOL0     H30268  11.053   9.221   8.974  1.9981  0.4528 -2.3985
  944MOL0     H30269  10.561   9.515   9.475 -0.5830 -1.0678  1.1295
  944MOL0     H30270  10.442   9.535   9.660 -0.3970 -1.4825 -2.7719
  944MOL0     H30271  10.465   9.677   9.752 -1.9322 -1.5086  1.0435
  944MOL0     H30272  10.321   9.664   9.649 -0.5773  1.3438  2.5492
  945MOL0     O30273  11.494  10.128   8.296  0.6098 -0.3608 -0.6792
  945MOL0     C30274  11.490  10.103   8.413  0.0303  0.3385 -0.4949
  945MOL0     O30275  11.580  10.137   8.507 -1.2457  1.3996 -0.1131
  945MOL0     C30276  11.689  10.209   8.471  0.4118 -1.4023 -0.5410
  945MOL0     C30277  11.693  10.321   8.379  1.7757 -0.0723  0.4668
  945MOL0     C30278  11.804  10.405   8.372  1.0304  0.6850  0.7073
  945MOL0     C30279  11.927  10.379   8.442 -0.2182 -0.8921 -0.4275
  945MOL0     O30280  12.042  10.450   8.446 -0.1202  0.2472 -0.4488
  945MOL0     C30281  12.064  10.564   8.358  0.2193 -0.3660 -0.4873
  945MOL0     C30282  12.204  10.617   8.374  1.4027  0.3541  0.3192
  945MOL0     C30283  12.235  10.746   8.290 -0.7243 -0.0483 -1.1860
  945MOL0     C30284  12.231  10.722   8.137 -0.0070  0.5309  0.4323
  945MOL0     C30285  12.253  10.851   8.055  0.0345  0.2976 -0.5019
  945MOL0     C30286  12.246  10.838   7.894  0.3009 -0.6010  0.9642
  945MOL0     C30287  12.243  10.687   7.848 -0.2641  1.3207  0.2992
  945MOL0     C30288  12.245  10.658   7.700  0.2527 -0.3086  0.0480
  945MOL0     N30289  12.356  10.717   7.630 -0.3941 -0.2385  0.0716
  945MOL0     C30290  12.491  10.713   7.654  0.7166  0.4647 -0.5027
  945MOL0     C30291  12.546  10.803   7.561  0.3952  0.0092 -0.0742
  945MOL0     C30292  12.686  10.827   7.534  0.2413  0.2785  0.2860
  945MOL0     C30293  12.769  10.800   7.658  0.1750 -0.9156 -1.0098
  945MOL0     C30294  12.916  10.834   7.628  0.8450 -0.9899  0.7799
  945MOL0     C30295  12.945  10.990   7.586 -0.2884  0.8327  0.1499
  945MOL0     O30296  12.943  11.058   7.707  0.2846  0.3673  0.5558
  945MOL0     C30297  13.055  11.087   7.772  0.0761 -0.0808 -0.1497
  945MOL0     C30298  13.040  11.173   7.882  0.0546 -0.5805  0.2311
  945MOL0     C30299  13.144  11.227   7.963 -0.2219 -0.5820  0.1540
  945MOL0     C30300  13.112  11.304   8.080 -0.3897  0.2373  0.2453
  945MOL0     C30301  13.276  11.201   7.920 -0.3964 -0.7885 -0.1747
  945MOL0     C30302  13.403  11.253   7.992  0.4566  0.9399  0.6569
  945MOL0     O30303  13.389  11.343   8.098 -0.3983 -0.2520  0.8613
  945MOL0     C30304  13.497  11.391   8.164  0.0331 -0.5783  0.2637
  945MOL0     C30305  13.499  11.517   8.224  0.6184  0.7353  0.1571
  945MOL0     C30306  13.610  11.569   8.306  1.3671  0.4680  0.5618
  945MOL0     C30307  13.705  11.478   8.339  0.7431 -0.9025  0.2769
  945MOL0     O30308  13.786  11.525   8.440 -0.1411 -0.3113 -0.1749
  945MOL0     C30309  13.864  11.445   8.528  0.3692  0.1497  0.2732
  945MOL0     C30310  13.850  11.507   8.668  1.4240 -0.0942 -0.5323
  945MOL0     C30311  13.916  11.643   8.701  0.3381  0.7811 -0.5376
  945MOL0     C30312  13.878  11.700   8.831  0.7983  0.1533 -0.3592
  945MOL0     C30313  13.889  11.853   8.829 -0.4619  0.3836  0.3658
  945MOL0     C30314  14.028  11.912   8.784 -0.0449  0.7822 -0.3992
  945MOL0     C30315  14.044  12.064   8.796  0.2376 -0.8722  0.3536
  945MOL0     C30316  13.944  12.156   8.738  0.1249  0.5372  0.4893
  945MOL0    Cl30317  13.944  12.329   8.801  0.1696 -0.2201 -0.5617
  945MOL0     C30318  13.709  11.356   8.284  0.0564  1.4579 -0.2297
  945MOL0     C30319  13.611  11.306   8.201  0.8756 -0.4864  0.0414
  945MOL0     O30320  13.512  11.203   7.949  0.1323 -1.0142 -0.3662
  945MOL0     C30321  13.293  11.116   7.804 -0.2778  0.7390  0.0928
  945MOL0     C30322  13.187  11.061   7.736 -0.0874  0.8399  0.4378
  945MOL0     N30323  12.451  10.852   7.475 -0.6635  0.3121  0.2982
  945MOL0     N30324  12.337  10.789   7.514  0.3918 -0.0235  0.0310
  945MOL0     C30325  11.927  10.265   8.523  0.1966  0.1446  0.2056
  945MOL0     C30326  11.812  10.181   8.531 -0.6347 -0.0774  0.0891
  945MOL0     C30327  11.382  10.015   8.461 -0.3407  0.2357  0.9773
  945MOL0     C30328  11.352  10.011   8.601 -0.3277  0.0614  0.2527
  945MOL0     C30329  11.235   9.947   8.639  0.2443  0.6536 -0.0629
  945MOL0     C30330  11.160   9.868   8.553  0.2253 -0.6965 -0.6821
  945MOL0     O30331  11.042   9.813   8.611 -0.6300  0.5430  0.4979
  945MOL0     C30332  10.951   9.902   8.667  0.4218 -0.0780 -0.5677
  945MOL0     C30333  10.943   9.895   8.818  0.1831 -0.4652 -0.1777
  945MOL0     C30334  10.967   9.754   8.877  0.7140 -0.4042 -0.2608
  945MOL0     C30335  10.950   9.764   9.031 -0.1662 -0.8935  0.1297
  945MOL0     C30336  10.997   9.646   9.099 -0.1395 -0.4530 -0.3098
  945MOL0     C30337  11.036   9.556   9.169 -0.4307 -0.3029 -1.1064
  945MOL0     C30338  11.209   9.855   8.424  0.4695  0.8400 -0.6099
  945MOL0     C30339  11.317   9.923   8.374  0.4196 -0.1462  0.5391
  945MOL0     C30340  11.333   9.912   8.219 -0.3325  0.0663 -0.8832
  945MOL0     H30341  11.605  10.371   8.339  2.3200  1.5637  1.1945
  945MOL0     H30342  11.785  10.492   8.310  0.1116  0.0335  0.0609
  945MOL0     H30343  11.994  10.646   8.376 -0.1812 -0.8627  0.3079
  945MOL0     H30344  12.045  10.531   8.256 -0.7587  1.3874 -0.9167
  945MOL0     H30345  12.230  10.625   8.480  2.7718  3.0878 -0.1236
  945MOL0     H30346  12.268  10.535   8.340 -3.0827 -2.0088 -3.5169
  945MOL0     H30347  12.177  10.831   8.326 -1.3930 -2.3705  4.1832
  945MOL0     H30348  12.340  10.773   8.306 -0.7973  0.0146 -0.8080
  945MOL0     H30349  12.308  10.648   8.113 -0.0902  1.6852 -4.4513
  945MOL0     H30350  12.132  10.686   8.108  1.0516 -1.5395 -0.7985
  945MOL0     H30351  12.357  10.882   8.069  0.8447 -2.6620  0.9212
  945MOL0     H30352  12.188  10.931   8.092  2.5160  1.5933  1.2945
  945MOL0     H30353  12.154  10.882   7.856  0.8330 -1.3708 -1.3467
  945MOL0     H30354  12.329  10.889   7.844  0.3009  1.2594  2.7402
  945MOL0     H30355  12.159  10.627   7.885 -1.2619  2.1866 -0.4988
  945MOL0     H30356  12.335  10.644   7.889 -0.8592  0.3573  0.6473
  945MOL0     H30357  12.234  10.551   7.684 -0.2341 -0.4862  1.4084
  945MOL0     H30358  12.160  10.704   7.648 -0.7839 -2.2732 -0.0707
  945MOL0     H30359  12.532  10.659   7.738 -1.3225  0.6411  0.6686
  945MOL0     H30360  12.696  10.929   7.497  0.9524 -0.5036 -1.7887
  945MOL0     H30361  12.724  10.770   7.449  1.2824  0.9879  0.2459
  945MOL0     H30362  12.753  10.867   7.743  1.1098  0.5038 -1.9158
  945MOL0     H30363  12.763  10.693   7.679 -0.3908 -1.0956 -2.0255
  945MOL0     H30364  12.979  10.800   7.711 -1.6409 -1.0720  2.7684
  945MOL0     H30365  12.947  10.802   7.528 -1.5206  0.6487 -0.5680
  945MOL0     H30366  13.046  10.997   7.546 -0.5427 -1.6431 -1.1227
  945MOL0     H30367  12.863  11.034   7.528 -0.5629  1.3127  0.8891
  945MOL0     H30368  12.940  11.192   7.921  0.5988 -0.5702  1.6778
  945MOL0     H30369  13.004  11.307   8.093 -0.3152  0.4461  0.8727
  945MOL0     H30370  13.146  11.408   8.081  1.2350 -0.2670  0.6594
  945MOL0     H30371  13.146  11.253   8.171 -1.9064 -0.0291  0.6974
  945MOL0     H30372  13.412  11.577   8.199 -0.4673 -1.0549 -0.5748
  945MOL0     H30373  13.606  11.664   8.358 -2.9713  0.2910  0.8712
  945MOL0     H30374  13.836  11.340   8.539  1.7323 -0.4448 -1.5166
  945MOL0     H30375  13.967  11.445   8.493  0.7061 -3.7524  0.7851
  945MOL0     H30376  13.744  11.531   8.684  1.1379 -0.1493 -2.1713
  945MOL0     H30377  13.904  11.435   8.730  2.4603  1.2548  0.1733
  945MOL0     H30378  13.881  11.705   8.618 -1.6404 -0.3993 -0.6333
  945MOL0     H30379  14.025  11.641   8.691  0.4203 -3.2561 -0.2391
  945MOL0     H30380  13.952  11.663   8.903 -2.5417 -2.8189  1.8756
  945MOL0     H30381  13.778  11.665   8.858 -0.9689  2.1488 -3.6253
  945MOL0     H30382  13.817  11.893   8.757  1.7798  2.9272 -0.6616
  945MOL0     H30383  13.867  11.916   8.915 -2.1611  1.8478 -1.0743
  945MOL0     H30384  14.049  11.880   8.681  2.6135  1.1499 -0.0579
  945MOL0     H30385  14.100  11.866   8.853 -1.5246 -0.1294  0.5906
  945MOL0     H30386  14.141  12.095   8.758 -0.7502  0.9367 -0.8774
  945MOL0     H30387  14.041  12.078   8.905 -4.3081 -1.6019  0.5124
  945MOL0     H30388  13.837  12.136   8.749 -0.9025  2.1167 -4.2695
  945MOL0     H30389  13.950  12.154   8.629 -1.5534  1.9287  0.3207
  945MOL0     H30390  13.782  11.288   8.328  1.8818  2.4179 -1.6191
  945MOL0     H30391  13.592  11.203   8.172 -1.6808 -0.3942  1.0538
  945MOL0     H30392  13.386  11.076   7.764 -0.5260  1.5121 -1.3555
  945MOL0     H30393  13.205  10.994   7.653 -1.7145  2.2187 -1.0889
  945MOL0     H30394  12.007  10.236   8.590 -0.2259 -0.8302  0.3022
  945MOL0     H30395  11.831  10.102   8.603  0.3014 -0.1686 -0.2398
  945MOL0     H30396  11.410  10.067   8.674  0.8713 -0.3107 -0.3934
  945MOL0     H30397  11.209   9.969   8.743 -1.1166 -0.1141 -0.2118
  945MOL0     H30398  10.973  10.005   8.638  1.7475 -0.4130 -0.8251
  945MOL0     H30399  10.860   9.870   8.614  1.2070 -3.9494  0.1207
  945MOL0     H30400  10.847   9.942   8.844  0.2145 -1.1437  1.2811
  945MOL0     H30401  11.012   9.967   8.863  1.3917  0.0827 -2.7256
  945MOL0     H30402  10.896   9.683   8.834 -2.9596  2.3882  0.6959
  945MOL0     H30403  11.068   9.729   8.845 -0.0623 -4.0364 -0.3097
  945MOL0     H30404  10.844   9.768   9.059 -0.2125 -1.0834 -0.0176
  945MOL0     H30405  11.013   9.845   9.068  1.3250 -1.5010 -0.9690
  945MOL0     H30406  11.084   9.478   9.225 -1.6076 -1.0563 -1.1070
  945MOL0     H30407  11.157   9.788   8.356 -1.0472 -0.3908  1.6039
  945MOL0     H30408  11.297   9.997   8.161 -3.1166 -1.1137 -1.0635
  945MOL0     H30409  11.441   9.909   8.203 -0.3006  0.9122 -0.8327
  945MOL0     H30410  11.280   9.824   8.180  1.0738 -0.1223 -2.5052
  946MOL0     O30411   7.884   9.185   3.764  0.7583  0.1088 -0.8094
  946MOL0     C30412   7.917   9.281   3.695 -0.0948 -0.1887  0.7574
  946MOL0     O30413   7.946   9.409   3.756 -0.0286  0.8568  0.3341
  946MOL0     C30414   7.965   9.413   3.892  0.4247 -0.2458  0.6890
  946MOL0     C30415   7.854   9.407   3.979 -0.0772  0.3991  0.0156
  946MOL0     C30416   7.872   9.420   4.121  0.2958 -0.7464  0.4122
  946MOL0     C30417   7.999   9.435   4.176  0.4860  0.2991  0.6167
  946MOL0     O30418   8.011   9.461   4.312  0.3739 -0.1150 -0.0561
  946MOL0     C30419   8.114   9.553   4.354 -0.5166 -0.3617  0.3377
  946MOL0     C30420   8.139   9.568   4.507 -1.1814  0.5584 -0.6204
  946MOL0     C30421   8.169   9.429   4.562 -0.1676 -0.2837 -0.3216
  946MOL0     C30422   8.251   9.442   4.690  0.1972  0.7924 -0.6712
  946MOL0     C30423   8.186   9.545   4.791 -0.1387  0.2575 -0.0392
  946MOL0     C30424   8.040   9.509   4.841  0.1526 -0.8446 -0.3844
  946MOL0     C30425   8.024   9.371   4.904  0.8854  0.8479  0.3974
  946MOL0     C30426   7.893   9.298   4.851  1.2102 -0.8424  0.2489
  946MOL0     N30427   7.906   9.156   4.826  0.0324 -0.0774 -0.7301
  946MOL0     C30428   7.972   9.063   4.897 -1.6168  0.5181  0.1019
  946MOL0     C30429   7.932   8.943   4.837 -0.4187 -0.3335  0.8243
  946MOL0     C30430   7.987   8.815   4.888  0.4639  0.5064 -0.3547
  946MOL0     C30431   7.893   8.748   4.987  0.5592  0.3066  0.1281
  946MOL0     C30432   7.934   8.587   5.000  0.3435  0.0535  1.2440
  946MOL0     C30433   7.836   8.514   5.092  0.0796 -0.7703 -0.7178
  946MOL0     O30434   7.888   8.385   5.143 -0.1706 -0.9700 -0.2186
  946MOL0     C30435   7.850   8.278   5.075 -0.3284 -0.8356  0.1463
  946MOL0     C30436   7.922   8.170   5.113 -0.6081  1.1294 -0.4603
  946MOL0     C30437   7.885   8.048   5.061  0.2581  0.6973 -0.3395
  946MOL0     C30438   7.967   7.931   5.113  0.0291 -0.0344 -0.4487
  946MOL0     C30439   7.785   8.030   4.965  0.1273 -0.2465  0.0113
  946MOL0     C30440   7.744   7.898   4.910 -0.1595  0.6919  0.3797
  946MOL0     O30441   7.612   7.882   4.897  1.0649  0.7183 -0.4644
  946MOL0     C30442   7.564   7.757   4.853  0.2640  0.3840  0.4953
  946MOL0     C30443   7.468   7.679   4.929  0.5306  1.0003 -0.4527
  946MOL0     C30444   7.419   7.554   4.887  0.2185 -0.2371  0.5973
  946MOL0     C30445   7.457   7.502   4.766 -0.8483 -0.3245 -0.0015
  946MOL0     O30446   7.405   7.383   4.724  0.2404 -0.1361 -0.6936
  946MOL0     C30447   7.415   7.286   4.826  0.5755 -0.7552  0.2310
  946MOL0     C30448   7.416   7.147   4.759  0.5651 -0.8032 -0.7354
  946MOL0     C30449   7.264   7.098   4.737 -0.6921  0.3769 -0.2892
  946MOL0     C30450   7.258   6.957   4.670  1.0058 -0.0665  0.0590
  946MOL0     C30451   7.118   6.938   4.623  0.2235  0.5184 -0.3144
  946MOL0     C30452   7.085   6.782   4.644 -0.1576 -0.6194 -0.5464
  946MOL0     C30453   6.933   6.768   4.603 -1.0980 -0.2338 -0.7786
  946MOL0     C30454   6.892   6.629   4.594 -0.2625  1.0326  0.5902
  946MOL0    Cl30455   6.711   6.616   4.545  0.1693 -0.1831 -0.1826
  946MOL0     C30456   7.544   7.574   4.684 -0.6957  0.5055 -0.2931
  946MOL0     C30457   7.593   7.703   4.726 -0.1219 -0.1360  0.9571
  946MOL0     O30458   7.839   7.821   4.877 -0.4978  0.1572 -0.0395
  946MOL0     C30459   7.705   8.145   4.938  0.5997 -0.3086 -0.6038
  946MOL0     C30460   7.742   8.271   4.986 -0.6275  0.6518  0.0513
  946MOL0     N30461   7.840   8.972   4.738  0.2030  0.4337 -0.5109
  946MOL0     N30462   7.826   9.099   4.733  0.1703  0.1455  0.7893
  946MOL0     C30463   8.108   9.434   4.086  0.3297 -0.6472  0.0737
  946MOL0     C30464   8.090   9.425   3.949  0.4220 -0.1545  0.1779
  946MOL0     C30465   7.927   9.289   3.545  0.2122  0.4716 -0.3682
  946MOL0     C30466   8.006   9.376   3.483  0.6563 -0.2032  0.2225
  946MOL0     C30467   8.039   9.365   3.352  0.4570 -0.0545 -0.1162
  946MOL0     C30468   8.004   9.256   3.276 -0.6170  0.6646 -0.1280
  946MOL0     O30469   8.085   9.217   3.164  0.3889 -0.3769 -0.8829
  946MOL0     C30470   8.186   9.127   3.209  0.2153  1.0422 -0.0136
  946MOL0     C30471   8.314   9.143   3.120 -0.2223 -0.6074 -1.1695
  946MOL0     C30472   8.373   9.286   3.137 -0.2642 -0.2418 -0.8678
  946MOL0     C30473   8.494   9.294   3.045 -0.7759 -0.1048  0.5396
  946MOL0     C30474   8.591   9.391   3.085  0.3408 -0.5899 -0.1685
  946MOL0     C30475   8.672   9.478   3.113 -0.0745 -0.6804  0.1364
  946MOL0     C30476   7.906   9.183   3.329  0.8367 -0.1930  0.3824
  946MOL0     C30477   7.857   9.199   3.463  0.4332 -1.5077  1.1741
  946MOL0     C30478   7.729   9.121   3.517 -1.0676  0.8021 -0.3030
  946MOL0     H30479   7.755   9.390   3.937 -0.3284  2.6543 -0.4245
  946MOL0     H30480   7.788   9.445   4.186  2.0044  0.2136  2.3495
  946MOL0     H30481   8.094   9.653   4.316  0.0793  0.2095  1.4675
  946MOL0     H30482   8.209   9.521   4.309 -0.1024  0.5683  0.5158
  946MOL0     H30483   8.218   9.639   4.533 -2.7592  2.8333 -1.7006
  946MOL0     H30484   8.049   9.604   4.558 -1.0838 -2.2793  1.8362
  946MOL0     H30485   8.074   9.381   4.587 -0.3399  0.1017 -0.2209
  946MOL0     H30486   8.219   9.369   4.486 -0.0375 -1.4785  0.6844
  946MOL0     H30487   8.265   9.340   4.727  1.4087  0.3512 -2.2363
  946MOL0     H30488   8.351   9.475   4.662  1.0087 -1.2680 -0.3822
  946MOL0     H30489   8.205   9.645   4.753  4.0770 -0.5299 -0.5089
  946MOL0     H30490   8.242   9.528   4.884 -1.2272  1.6444  0.8967
  946MOL0     H30491   7.997   9.590   4.902  1.8318  0.1340 -0.4240
  946MOL0     H30492   7.978   9.513   4.751  0.2598  3.4750 -0.4622
  946MOL0     H30493   8.006   9.390   5.010  1.8774 -3.4641  1.5656
  946MOL0     H30494   8.115   9.309   4.907  1.4547  1.5862 -0.8063
  946MOL0     H30495   7.819   9.297   4.931  3.1441 -0.7076  2.1108
  946MOL0     H30496   7.854   9.338   4.757 -2.8607 -2.4810  1.0295
  946MOL0     H30497   8.037   9.067   4.984 -3.4760  1.6076  1.5122
  946MOL0     H30498   8.082   8.834   4.939  1.2094 -0.4429 -1.3189
  946MOL0     H30499   7.998   8.739   4.810  0.7236 -2.1425  2.1016
  946MOL0     H30500   7.899   8.804   5.080 -0.5167 -1.4016  1.2995
  946MOL0     H30501   7.787   8.753   4.958 -0.5757 -0.5740  3.6547
  946MOL0     H30502   7.933   8.541   4.901  2.4821  2.1422  0.1816
  946MOL0     H30503   8.038   8.574   5.031  0.9690 -0.8960 -1.0550
  946MOL0     H30504   7.823   8.577   5.180 -0.4868  0.7974 -1.8749
  946MOL0     H30505   7.731   8.523   5.061  0.3783  1.8703 -1.1468
  946MOL0     H30506   8.005   8.174   5.183  1.7053 -1.2043 -2.8023
  946MOL0     H30507   7.919   7.834   5.129 -0.0303 -0.4492 -2.8314
  946MOL0     H30508   8.000   7.965   5.211 -1.5604  1.3326 -0.3394
  946MOL0     H30509   8.049   7.929   5.040  1.7311  1.1619  1.3379
  946MOL0     H30510   7.427   7.716   5.023  1.3677  2.0980 -0.5079
  946MOL0     H30511   7.349   7.505   4.953 -0.7489  1.0923  0.6089
  946MOL0     H30512   7.506   7.298   4.886 -0.1218  4.2549  0.7504
  946MOL0     H30513   7.325   7.295   4.886 -0.3382 -0.3522 -1.1420
  946MOL0     H30514   7.463   7.156   4.660  0.8972  0.8146 -0.4544
  946MOL0     H30515   7.470   7.072   4.817 -1.1525 -0.3059  1.6413
  946MOL0     H30516   7.210   7.174   4.679 -1.4186  0.4272  0.4480
  946MOL0     H30517   7.213   7.099   4.834 -0.2882  0.8295 -0.0774
  946MOL0     H30518   7.279   6.878   4.743  1.7440 -0.2426 -0.3277
  946MOL0     H30519   7.333   6.950   4.591 -0.8865  2.1524 -2.1008
  946MOL0     H30520   7.052   6.991   4.692  0.7486  2.2733 -1.1182
  946MOL0     H30521   7.096   6.981   4.525  1.8600  0.4507 -0.7354
  946MOL0     H30522   7.098   6.762   4.750 -1.7356 -0.7955 -0.3646
  946MOL0     H30523   7.156   6.720   4.588 -1.9473 -0.6683 -2.9294
  946MOL0     H30524   6.923   6.815   4.505 -1.9019  0.3120 -0.4479
  946MOL0     H30525   6.862   6.823   4.665 -1.7329 -0.4340 -1.3154
  946MOL0     H30526   6.907   6.585   4.693  0.2426  4.6628  2.2664
  946MOL0     H30527   6.948   6.586   4.510 -0.2947 -0.7968  1.4522
  946MOL0     H30528   7.569   7.535   4.585 -1.7757 -1.5315  0.1686
  946MOL0     H30529   7.655   7.768   4.665  0.5498 -0.7499  0.9702
  946MOL0     H30530   7.617   8.133   4.876 -0.0135 -0.8327  0.3420
  946MOL0     H30531   7.691   8.359   4.948 -1.2412  0.8777  1.3594
  946MOL0     H30532   8.213   9.421   4.111  0.6559  1.6382  0.1011
  946MOL0     H30533   8.184   9.436   3.894  0.5810 -0.1108  0.4562
  946MOL0     H30534   8.046   9.457   3.544  0.9878  1.5901 -2.2220
  946MOL0     H30535   8.115   9.431   3.312  1.0816 -1.2693 -0.9901
  946MOL0     H30536   8.209   9.144   3.314  2.0342  0.7080 -0.3197
  946MOL0     H30537   8.139   9.031   3.185 -1.7163  2.0506 -0.4727
  946MOL0     H30538   8.289   9.119   3.016  0.4988  2.2958 -2.1131
  946MOL0     H30539   8.382   9.064   3.153 -2.0714 -0.8002  2.6614
  946MOL0     H30540   8.302   9.362   3.103 -0.8302 -0.1928  0.3804
  946MOL0     H30541   8.399   9.304   3.241  0.3184 -2.2637 -0.6191
  946MOL0     H30542   8.470   9.332   2.945  1.2002 -0.1790 -0.0042
  946MOL0     H30543   8.533   9.193   3.027 -1.1385 -0.1510 -0.0296
  946MOL0     H30544   8.727   9.562   3.148 -0.6698 -1.4709  3.2974
  946MOL0     H30545   7.848   9.117   3.265 -2.0966  2.5778 -0.0477
  946MOL0     H30546   7.661   9.182   3.577  1.4363  2.0910  1.3833
  946MOL0     H30547   7.673   9.069   3.438  0.9796 -2.8528  0.4124
  946MOL0     H30548   7.769   9.050   3.590 -3.4336  0.2975  0.6013
  947MOL0     O30549  10.289  10.263   0.494  0.5075  0.8308  0.0575
  947MOL0     C30550  10.390  10.229   0.554  0.0397 -0.0067 -0.0946
  947MOL0     O30551  10.497  10.173   0.489 -0.1279  0.4690 -0.1120
  947MOL0     C30552  10.505  10.156   0.348  0.6736 -0.6355 -0.2013
  947MOL0     C30553  10.550  10.036   0.296  0.1247  0.1907  0.0831
  947MOL0     C30554  10.565  10.021   0.156 -0.3065 -0.3868 -1.3819
  947MOL0     C30555  10.543  10.131   0.078 -0.5154  0.6568 -1.1505
  947MOL0     O30556  10.571  10.136  -0.054 -0.1801 -0.1951  0.1519
  947MOL0     C30557  10.632  10.030  -0.127  0.9898  0.0095 -0.4271
  947MOL0     C30558  10.685  10.064  -0.268 -0.1674 -0.3113 -0.4290
  947MOL0     C30559  10.823  10.122  -0.272 -0.8318  0.0207 -0.4343
  947MOL0     C30560  10.921  10.014  -0.220 -0.6820  1.0777 -0.0189
  947MOL0     C30561  11.056  10.031  -0.291  0.4027 -0.8286  0.2754
  947MOL0     C30562  11.120   9.889  -0.298 -0.2143  0.1073 -0.0370
  947MOL0     C30563  11.265   9.888  -0.353  0.3080  0.3426 -0.5681
  947MOL0     C30564  11.360   9.953  -0.253  0.3125  0.8495 -0.3263
  947MOL0     N30565  11.475   9.872  -0.230 -0.6281  0.1831 -0.2182
  947MOL0     C30566  11.495   9.789  -0.123  0.5173 -0.2436 -0.0919
  947MOL0     C30567  11.622   9.746  -0.140  0.5669  0.1625 -0.1280
  947MOL0     C30568  11.685   9.623  -0.074 -0.7500 -0.5272 -0.3590
  947MOL0     C30569  11.787   9.660   0.021 -0.4600  0.2140 -1.3592
  947MOL0     C30570  11.906   9.714  -0.054 -0.4090 -0.3427  0.6163
  947MOL0     C30571  12.023   9.781   0.028 -0.6322 -0.0175  0.6725
  947MOL0     O30572  12.128   9.836  -0.049  0.1564  0.2983  0.5999
  947MOL0     C30573  12.239   9.897   0.011  0.5853  0.0279  0.2697
  947MOL0     C30574  12.307   9.994  -0.069 -0.2560  0.6150  0.8590
  947MOL0     C30575  12.396  10.082  -0.003  0.0037  0.3641  0.4504
  947MOL0     C30576  12.474  10.170  -0.108  0.7429  1.4385  0.0641
  947MOL0     C30577  12.422  10.092   0.137 -0.0495 -0.2245 -0.1363
  947MOL0     C30578  12.505  10.197   0.205 -0.0872  0.0269  0.3734
  947MOL0     O30579  12.561  10.172   0.329  0.7147  0.0867 -0.0879
  947MOL0     C30580  12.668  10.253   0.361  0.4021  0.9227 -0.0684
  947MOL0     C30581  12.773  10.188   0.435  0.7194  0.6599 -1.1225
  947MOL0     C30582  12.881  10.267   0.480 -0.1611 -0.2336 -1.3409
  947MOL0     C30583  12.878  10.399   0.465  0.3975  0.0004  0.0139
  947MOL0     O30584  12.983  10.481   0.487 -0.9357 -0.0337 -0.1762
  947MOL0     C30585  13.113  10.415   0.473  0.1570  0.2823 -0.1777
  947MOL0     C30586  13.219  10.518   0.484  0.0871 -0.5421 -0.5130
  947MOL0     C30587  13.229  10.570   0.633 -0.1078 -0.2756 -0.4342
  947MOL0     C30588  13.332  10.688   0.637  0.0775 -0.8396  0.1693
  947MOL0     C30589  13.352  10.721   0.786  0.4565 -0.4776  0.3435
  947MOL0     C30590  13.230  10.755   0.874  0.5883  0.5601  0.6409
  947MOL0     C30591  13.157  10.882   0.837  0.2998 -1.2283 -0.1113
  947MOL0     C30592  13.096  10.964   0.951  0.1216 -0.0666 -0.8801
  947MOL0    Cl30593  12.996  10.846   1.049 -0.1741 -0.2279  0.4339
  947MOL0     C30594  12.778  10.463   0.403 -0.6440 -1.0358 -0.2546
  947MOL0     C30595  12.669  10.392   0.360  0.2216  0.0417 -0.1961
  947MOL0     O30596  12.511  10.304   0.145 -0.2681 -0.3293 -0.0642
  947MOL0     C30597  12.354  10.001   0.212  0.0917 -0.3288 -0.0519
  947MOL0     C30598  12.264   9.906   0.151  0.5481 -0.2990  0.5959
  947MOL0     N30599  11.665   9.812  -0.254 -0.6522 -0.1398  0.1699
  947MOL0     N30600  11.583   9.881  -0.315  0.1949 -0.2213  0.4971
  947MOL0     C30601  10.510  10.255   0.125 -0.0265 -0.1379  0.9025
  947MOL0     C30602  10.491  10.272   0.261  0.1254 -0.0852 -0.6728
  947MOL0     C30603  10.391  10.234   0.704 -0.5904  1.1522  0.5881
  947MOL0     C30604  10.506  10.176   0.769 -0.0870  0.2678  0.1582
  947MOL0     C30605  10.519  10.192   0.908  0.6514 -0.8941  0.8106
  947MOL0     C30606  10.443  10.256   0.993 -1.2572 -0.6936 -0.6098
  947MOL0     O30607  10.476  10.258   1.127  0.1242 -0.0036 -0.8938
  947MOL0     C30608  10.357  10.247   1.212 -0.3679 -0.7541 -0.7992
  947MOL0     C30609  10.314  10.379   1.283 -0.4665  0.6801  0.4615
  947MOL0     C30610  10.231  10.367   1.407 -1.1221  0.6305 -0.3068
  947MOL0     C30611  10.297  10.287   1.531 -1.0585  0.8645  0.1760
  947MOL0     C30612  10.309  10.143   1.527 -0.2808 -0.2107 -0.9829
  947MOL0     C30613  10.327  10.026   1.527  0.4237  0.4348  0.6579
  947MOL0     C30614  10.321  10.308   0.928  0.2908  0.0521  0.0620
  947MOL0     C30615  10.311  10.307   0.789  0.3968  0.0327  0.4632
  947MOL0     C30616  10.193  10.369   0.732  1.0890 -0.2112  0.1786
  947MOL0     H30617  10.581   9.958   0.364 -0.4455 -3.1238 -3.1537
  947MOL0     H30618  10.582   9.920   0.120  1.0616 -0.1412 -1.4553
  947MOL0     H30619  10.553   9.955  -0.136 -0.6359  1.7035 -0.8767
  947MOL0     H30620  10.707   9.978  -0.068 -2.2420 -3.4994  1.0139
  947MOL0     H30621  10.696   9.969  -0.320  0.4796  1.6491 -4.2296
  947MOL0     H30622  10.610  10.126  -0.319  0.6782 -0.0163 -1.3286
  947MOL0     H30623  10.840  10.147  -0.378  4.9946  2.6071  0.7140
  947MOL0     H30624  10.830  10.213  -0.213  1.6211 -1.1497  1.2265
  947MOL0     H30625  10.936  10.023  -0.112  1.9164  0.2927 -0.2385
  947MOL0     H30626  10.892   9.915  -0.255  1.3116 -0.2087  1.7194
  947MOL0     H30627  11.117  10.102  -0.233  4.2076 -2.2272 -1.6345
  947MOL0     H30628  11.034  10.078  -0.387 -5.7576 -0.3936  1.4830
  947MOL0     H30629  11.126   9.860  -0.193  2.0365 -1.8463 -0.6320
  947MOL0     H30630  11.066   9.819  -0.363  1.2278  0.7454 -2.0542
  947MOL0     H30631  11.267   9.930  -0.454 -1.1043 -2.7587 -2.0119
  947MOL0     H30632  11.291   9.782  -0.359 -1.7373 -0.2736  0.6294
  947MOL0     H30633  11.387  10.050  -0.296 -0.6434  0.3080 -2.3055
  947MOL0     H30634  11.319   9.981  -0.155  1.3853 -0.3157  0.4804
  947MOL0     H30635  11.425   9.772  -0.042  1.2299  2.0498  1.1170
  947MOL0     H30636  11.738   9.562  -0.148  2.2422  2.3135 -0.7951
  947MOL0     H30637  11.596   9.569  -0.040 -3.4340  2.7380 -1.6315
  947MOL0     H30638  11.748   9.745   0.077 -1.7360  1.2441 -3.6817
  947MOL0     H30639  11.824   9.578   0.084  2.7288  2.7351  0.3635
  947MOL0     H30640  11.952   9.634  -0.112  1.3862  1.9016 -1.2300
  947MOL0     H30641  11.885   9.793  -0.126  4.6051  1.9447  1.2276
  947MOL0     H30642  11.988   9.859   0.096  3.4692  0.2345  2.8149
  947MOL0     H30643  12.081   9.711   0.089  2.4423  0.6874 -1.2245
  947MOL0     H30644  12.294   9.995  -0.177 -2.0448  1.8784  1.0298
  947MOL0     H30645  12.464  10.132  -0.210 -2.8820  0.3987  0.6474
  947MOL0     H30646  12.575  10.171  -0.067 -0.1255  0.9945  2.3576
  947MOL0     H30647  12.442  10.274  -0.113  0.6810  1.3587 -2.8360
  947MOL0     H30648  12.780  10.079   0.438  1.4122  0.6972 -1.2554
  947MOL0     H30649  12.965  10.218   0.526  0.0651  2.8236  1.9367
  947MOL0     H30650  13.139  10.337   0.545 -4.4896  0.2217  1.8002
  947MOL0     H30651  13.111  10.377   0.371 -2.8421  0.0356 -0.1281
  947MOL0     H30652  13.318  10.474   0.468  1.1789  1.3886  0.4656
  947MOL0     H30653  13.212  10.603   0.416 -0.6952 -1.8967 -2.1813
  947MOL0     H30654  13.257  10.485   0.695  0.4867  1.2653  1.5049
  947MOL0     H30655  13.132  10.604   0.671  0.0754 -3.2412  3.2864
  947MOL0     H30656  13.295  10.782   0.595  0.6415 -0.0055  1.4723
  947MOL0     H30657  13.429  10.663   0.593  0.0686 -0.7785  0.1148
  947MOL0     H30658  13.407  10.633   0.819  1.7041 -0.1487 -0.8190
  947MOL0     H30659  13.424  10.803   0.786 -0.2817  0.1998 -0.6603
  947MOL0     H30660  13.265  10.766   0.977 -0.2532  1.2108  0.8603
  947MOL0     H30661  13.155  10.676   0.870  0.5074  0.6789 -2.3281
  947MOL0     H30662  13.079  10.864   0.763  0.0406 -0.2438 -0.0978
  947MOL0     H30663  13.228  10.947   0.785 -3.2216  2.4048 -0.8621
  947MOL0     H30664  13.030  11.037   0.905 -1.8546 -0.9857  0.3685
  947MOL0     H30665  13.175  11.019   1.005 -0.3922  0.9287 -1.1262
  947MOL0     H30666  12.784  10.571   0.392  0.1583 -1.0805 -0.3005
  947MOL0     H30667  12.579  10.444   0.330  1.4671 -0.0524 -4.9146
  947MOL0     H30668  12.371   9.988   0.319  0.4487 -1.9091 -0.2855
  947MOL0     H30669  12.222   9.840   0.227 -1.0572  0.4675  0.4017
  947MOL0     H30670  10.499  10.329   0.047 -4.6538 -1.0121  0.4262
  947MOL0     H30671  10.473  10.373   0.295  0.4660  0.0582 -0.9157
  947MOL0     H30672  10.565  10.117   0.700 -1.8647 -4.1948  2.0849
  947MOL0     H30673  10.612  10.158   0.955  1.4145  1.5225  1.1937
  947MOL0     H30674  10.275  10.195   1.162 -2.8183  0.0747  2.0309
  947MOL0     H30675  10.389  10.171   1.284 -2.1197 -2.3583 -1.6450
  947MOL0     H30676  10.257  10.437   1.210  0.9286 -0.4900 -1.6801
  947MOL0     H30677  10.411  10.425   1.308  0.0062  0.2712 -0.5704
  947MOL0     H30678  10.228  10.465   1.455 -0.2627  1.6950 -2.3329
  947MOL0     H30679  10.134  10.320   1.393 -1.5527 -0.3306  4.2523
  947MOL0     H30680  10.221  10.301   1.608 -0.8756  0.5493  0.4179
  947MOL0     H30681  10.389  10.337   1.564 -1.9586  1.3223  2.1264
  947MOL0     H30682  10.359   9.925   1.545 -0.6916 -0.1416 -0.3911
  947MOL0     H30683  10.242  10.358   0.983 -1.4432  1.0223 -3.0919
  947MOL0     H30684  10.132  10.306   0.667  1.5019 -2.6747  2.0286
  947MOL0     H30685  10.122  10.404   0.807  1.6946 -0.7916  1.0388
  947MOL0     H30686  10.225  10.459   0.679 -1.2289  1.0480  0.7631
  948MOL0     O30687   1.430   9.572  10.108  0.5928 -0.3940 -1.2934
  948MOL0     C30688   1.318   9.611  10.154 -0.8353  0.2609  0.0780
  948MOL0     O30689   1.194   9.587  10.103 -0.3462  0.0528  0.3858
  948MOL0     C30690   1.182   9.559   9.967  0.3248  0.4316 -0.5546
  948MOL0     C30691   1.269   9.614   9.864 -0.3438  0.5469 -0.5405
  948MOL0     C30692   1.251   9.587   9.730  0.3487  1.0996  0.4793
  948MOL0     C30693   1.160   9.492   9.684 -0.0220 -0.0298 -0.5242
  948MOL0     O30694   1.143   9.447   9.559  0.1671  0.5459  1.3136
  948MOL0     C30695   1.251   9.439   9.475  0.7778  0.6251  0.5666
  948MOL0     C30696   1.220   9.367   9.338  0.8580  0.4349  0.0314
  948MOL0     C30697   1.207   9.218   9.345 -0.3219  0.1844  0.0133
  948MOL0     C30698   1.181   9.149   9.207 -0.1881 -0.0723 -0.1117
  948MOL0     C30699   1.273   9.025   9.201  1.4803 -0.5085 -1.2045
  948MOL0     C30700   1.273   8.963   9.059 -0.3875 -0.1821 -0.0620
  948MOL0     C30701   1.150   8.881   9.029 -0.8310  0.0835 -0.2263
  948MOL0     C30702   1.152   8.850   8.877  0.6154  0.2896  0.4604
  948MOL0     N30703   1.250   8.746   8.840 -0.1299  0.7119  0.3486
  948MOL0     C30704   1.386   8.771   8.805 -0.9781 -0.7394 -0.2190
  948MOL0     C30705   1.430   8.650   8.758  0.8704  0.0403 -0.4764
  948MOL0     C30706   1.571   8.621   8.743  0.4702  0.9032  0.0453
  948MOL0     C30707   1.624   8.478   8.728 -0.3727 -0.5655 -0.2969
  948MOL0     C30708   1.753   8.464   8.655 -0.2093 -0.8337 -0.8081
  948MOL0     C30709   1.776   8.320   8.595  0.2258 -0.3263 -1.9006
  948MOL0     O30710   1.910   8.320   8.544  0.6173 -0.3410  0.1476
  948MOL0     C30711   1.941   8.206   8.481  1.1057 -0.5670  0.1782
  948MOL0     C30712   1.899   8.189   8.345  0.5149  1.0302  0.6287
  948MOL0     C30713   1.901   8.062   8.281 -0.0549  0.5711 -0.5582
  948MOL0     C30714   1.844   8.048   8.133 -0.0652  0.5766 -0.4794
  948MOL0     C30715   1.964   7.956   8.360 -0.4232  0.0739  0.2398
  948MOL0     C30716   1.959   7.822   8.314  0.4286  0.5697  0.1776
  948MOL0     O30717   2.043   7.738   8.365 -0.2109  0.8289 -0.2797
  948MOL0     C30718   2.087   7.626   8.307 -0.3193  0.1320 -0.3452
  948MOL0     C30719   2.148   7.522   8.390  0.9141 -0.8268  0.5225
  948MOL0     C30720   2.198   7.409   8.321  0.1781  0.7862  0.3590
  948MOL0     C30721   2.200   7.400   8.190 -0.2091 -0.4207 -0.0044
  948MOL0     O30722   2.253   7.284   8.145 -1.0469  0.6074 -0.1648
  948MOL0     C30723   2.342   7.294   8.034  0.8453  0.2905  0.0689
  948MOL0     C30724   2.306   7.180   7.942  0.3296  0.0960  0.1897
  948MOL0     C30725   2.397   7.186   7.814  0.6957 -1.1567 -0.3155
  948MOL0     C30726   2.341   7.081   7.716 -0.3010  0.6482  1.2474
  948MOL0     C30727   2.407   7.102   7.578  0.2404 -0.3298 -0.5371
  948MOL0     C30728   2.365   7.017   7.456  0.1555 -0.4448 -0.1958
  948MOL0     C30729   2.320   6.874   7.484  1.5449 -0.5353  0.7388
  948MOL0     C30730   2.311   6.787   7.355 -0.9544 -0.0800  0.0831
  948MOL0    Cl30731   2.205   6.855   7.223 -0.1304  0.4976  0.4812
  948MOL0     C30732   2.137   7.496   8.114 -0.2586 -0.4719 -1.1514
  948MOL0     C30733   2.091   7.617   8.172 -0.2576 -0.4248  0.4347
  948MOL0     O30734   1.864   7.784   8.238 -0.8357 -0.3991 -0.7334
  948MOL0     C30735   2.008   7.983   8.490  0.3945  0.7404  0.7040
  948MOL0     C30736   1.988   8.102   8.550  0.2422  0.6642  0.3126
  948MOL0     N30737   1.331   8.559   8.774  0.8683 -0.1472 -0.1677
  948MOL0     N30738   1.221   8.612   8.815  0.4442 -0.7337 -0.1285
  948MOL0     C30739   1.073   9.438   9.782 -0.6194 -0.2873 -0.0055
  948MOL0     C30740   1.086   9.470   9.921  1.0182  0.5722 -0.4181
  948MOL0     C30741   1.323   9.702  10.276  0.1068  1.2498  0.8011
  948MOL0     C30742   1.414   9.809  10.276 -0.5612 -0.3540  0.0391
  948MOL0     C30743   1.409   9.909  10.381  0.1402 -0.2645 -0.4611
  948MOL0     C30744   1.328   9.887  10.493  0.1068 -0.4404  0.5453
  948MOL0     O30745   1.322   9.981  10.594  0.2750  0.2049  0.4242
  948MOL0     C30746   1.204  10.014  10.662 -0.4348 -0.1043  0.5143
  948MOL0     C30747   1.109  10.109  10.576  0.0604 -0.2935 -0.7301
  948MOL0     C30748   1.023  10.203  10.653 -0.3200  0.5879 -0.7970
  948MOL0     C30749   0.945  10.126  10.773  0.5296 -0.1648  0.9037
  948MOL0     C30750   0.829  10.214  10.786  0.5763 -0.3192  0.0201
  948MOL0     C30751   0.728  10.286  10.785 -0.5503  0.1480  0.1977
  948MOL0     C30752   1.252   9.773  10.506 -0.4063  0.8368  0.5869
  948MOL0     C30753   1.256   9.677  10.396 -0.4412 -0.5159 -0.1879
  948MOL0     C30754   1.171   9.562  10.398 -0.9429 -0.0379  1.5786
  948MOL0     H30755   1.351   9.668   9.909 -0.9588 -0.3907  1.8970
  948MOL0     H30756   1.324   9.609   9.653  0.3001 -0.9850 -0.2270
  948MOL0     H30757   1.333   9.375   9.511  1.2847  0.8171 -0.2047
  948MOL0     H30758   1.295   9.538   9.459 -0.2713  0.5479 -4.3176
  948MOL0     H30759   1.138   9.428   9.298  2.5662  1.3897 -2.2814
  948MOL0     H30760   1.295   9.389   9.261 -0.5043  0.3907 -1.3573
  948MOL0     H30761   1.302   9.186   9.390  0.6856  0.9590 -1.4685
  948MOL0     H30762   1.120   9.197   9.407  0.5660  0.3505  1.3578
  948MOL0     H30763   1.074   9.143   9.185 -0.9570  3.1555  2.1717
  948MOL0     H30764   1.221   9.217   9.131 -1.5539 -3.5896 -4.4139
  948MOL0     H30765   1.252   8.950   9.278  2.1430  1.2925  0.8077
  948MOL0     H30766   1.376   9.061   9.212  0.6833  2.5443 -2.6786
  948MOL0     H30767   1.298   9.037   8.983 -1.1326 -1.1396 -1.2879
  948MOL0     H30768   1.349   8.886   9.070  1.9179  2.1594  1.4833
  948MOL0     H30769   1.063   8.937   9.065  0.5817  0.7698  2.4685
  948MOL0     H30770   1.153   8.788   9.087 -3.0062  0.4463  0.5737
  948MOL0     H30771   1.057   8.799   8.865  0.7317  0.4741 -1.6001
  948MOL0     H30772   1.159   8.935   8.809  2.6837  0.6314  1.0150
  948MOL0     H30773   1.433   8.869   8.796  0.0524 -0.8873  2.6745
  948MOL0     H30774   1.623   8.656   8.833  0.1542 -0.3792  0.7634
  948MOL0     H30775   1.605   8.681   8.658 -0.6901  0.3905 -0.8001
  948MOL0     H30776   1.616   8.422   8.821 -3.2792  1.0927  0.5859
  948MOL0     H30777   1.547   8.442   8.659 -3.2465  0.3155  2.2569
  948MOL0     H30778   1.752   8.532   8.569 -1.4038  1.4101  0.8606
  948MOL0     H30779   1.836   8.496   8.720  0.4813 -1.3270 -1.4298
  948MOL0     H30780   1.780   8.243   8.673  0.2997  0.0939 -1.4882
  948MOL0     H30781   1.706   8.293   8.515 -0.4277  1.6115 -2.0301
  948MOL0     H30782   1.893   8.281   8.289  0.6887 -0.4143 -1.9042
  948MOL0     H30783   1.760   7.978   8.140  1.4568 -1.2228  4.5355
  948MOL0     H30784   1.930   8.016   8.073 -0.5527 -1.6711 -0.0454
  948MOL0     H30785   1.813   8.146   8.097  0.7637  0.3205 -1.9745
  948MOL0     H30786   2.161   7.543   8.496 -3.3738  3.1114  0.6174
  948MOL0     H30787   2.229   7.328   8.387 -2.2041  1.8200  2.9493
  948MOL0     H30788   2.331   7.385   7.974  3.4391  1.5387  1.3604
  948MOL0     H30789   2.444   7.287   8.073  0.3037 -3.4285  1.1867
  948MOL0     H30790   2.309   7.084   7.995  2.4705 -0.0098 -0.0291
  948MOL0     H30791   2.201   7.196   7.916 -0.1622 -1.4307  1.1173
  948MOL0     H30792   2.503   7.160   7.824  0.7378 -0.2919  1.9659
  948MOL0     H30793   2.402   7.290   7.782  0.0997 -0.7613  0.8372
  948MOL0     H30794   2.233   7.098   7.714 -0.6068 -0.9554 -0.9816
  948MOL0     H30795   2.361   6.983   7.760 -0.0743  0.9229  1.7545
  948MOL0     H30796   2.398   7.209   7.554 -0.0279 -0.1274  0.4185
  948MOL0     H30797   2.513   7.090   7.602  0.6252 -0.0376 -1.9825
  948MOL0     H30798   2.457   7.013   7.396  0.2529 -1.9380  0.0241
  948MOL0     H30799   2.292   7.076   7.399 -1.9103 -1.4891  1.2423
  948MOL0     H30800   2.222   6.876   7.533  0.9597 -1.4788 -0.3484
  948MOL0     H30801   2.397   6.833   7.550 -1.2122  0.2930  4.8783
  948MOL0     H30802   2.274   6.686   7.378  0.4551 -1.1304 -1.9198
  948MOL0     H30803   2.410   6.762   7.316 -0.8435 -0.1698  0.4129
  948MOL0     H30804   2.123   7.486   8.006 -1.1175 -0.6049 -1.0395
  948MOL0     H30805   2.056   7.701   8.113 -1.8126 -1.0309  0.4528
  948MOL0     H30806   2.053   7.905   8.551 -1.1922 -0.7640  0.0274
  948MOL0     H30807   2.023   8.129   8.649 -0.3444  3.5544 -0.1839
  948MOL0     H30808   1.003   9.363   9.747  2.5400 -2.2126 -2.9100
  948MOL0     H30809   1.015   9.422   9.988  0.0116 -2.7330 -3.5471
  948MOL0     H30810   1.469   9.827  10.184  0.3288 -0.8415  0.4652
  948MOL0     H30811   1.458  10.005  10.369  0.4016 -0.4257 -0.6872
  948MOL0     H30812   1.146   9.934  10.709 -6.3798  1.0406 -3.6580
  948MOL0     H30813   1.238  10.080  10.742  1.2495  1.5971 -1.4754
  948MOL0     H30814   1.045  10.045  10.514 -0.1362 -2.3132  1.4144
  948MOL0     H30815   1.170  10.183  10.523 -2.7996  0.4585 -3.2492
  948MOL0     H30816   1.077  10.290  10.691 -0.5601  0.2793  0.2980
  948MOL0     H30817   0.948  10.243  10.584 -1.0471  0.6581  0.0146
  948MOL0     H30818   1.006  10.123  10.864 -0.2385 -0.8208  1.4124
  948MOL0     H30819   0.905  10.026  10.753  0.2207  0.0073  0.6643
  948MOL0     H30820   0.631  10.329  10.771  0.0008  0.9690 -1.3401
  948MOL0     H30821   1.195   9.745  10.594  1.3105  0.7372  1.6971
  948MOL0     H30822   1.099   9.562  10.315 -0.2802 -1.0068  0.9836
  948MOL0     H30823   1.247   9.484  10.382  0.6763  1.8130 -0.2617
  948MOL0     H30824   1.121   9.558  10.495 -3.5230 -0.6875  0.3225
  949MOL0     O30825   1.894   2.319   6.353 -0.6139 -0.0296  0.0924
  949MOL0     C30826   1.836   2.223   6.299  1.1111 -0.5148  0.5732
  949MOL0     O30827   1.901   2.115   6.244  0.1336 -0.2366  0.7168
  949MOL0     C30828   2.033   2.120   6.208 -0.1673 -0.3755  0.5327
  949MOL0     C30829   2.089   2.225   6.127  0.1182  0.3257 -0.1915
  949MOL0     C30830   2.225   2.210   6.082  0.5038 -0.0059  0.2107
  949MOL0     C30831   2.294   2.093   6.091 -1.1189  0.4092  0.1851
  949MOL0     O30832   2.429   2.077   6.058 -0.1334  0.2873  0.3626
  949MOL0     C30833   2.515   2.190   6.050  0.6892 -0.3132  0.1246
  949MOL0     C30834   2.635   2.167   6.134 -0.0886 -0.0295  0.5059
  949MOL0     C30835   2.718   2.292   6.138  0.1339  0.0042 -0.9184
  949MOL0     C30836   2.842   2.275   6.215 -0.0951  0.5390 -0.0696
  949MOL0     C30837   2.967   2.282   6.125 -0.4822  0.4935 -0.7618
  949MOL0     C30838   3.097   2.243   6.208 -0.0751 -0.4941  0.3299
  949MOL0     C30839   3.224   2.282   6.108 -0.5026  1.2630 -0.9665
  949MOL0     C30840   3.205   2.214   5.966 -0.3931 -0.5549  0.1596
  949MOL0     N30841   3.331   2.227   5.894  0.8372  0.0157 -0.2399
  949MOL0     C30842   3.438   2.139   5.909 -0.2175  0.2840 -0.8404
  949MOL0     C30843   3.541   2.216   5.887  0.7509 -1.0754 -0.8384
  949MOL0     C30844   3.683   2.172   5.896 -0.2531  0.3420  0.6282
  949MOL0     C30845   3.791   2.255   5.831  0.3914  0.3864  0.5250
  949MOL0     C30846   3.829   2.201   5.691 -0.6915 -0.4908  0.4218
  949MOL0     C30847   3.946   2.289   5.623 -0.1551 -1.0085  0.1159
  949MOL0     O30848   4.069   2.279   5.697 -0.3363  0.2191 -0.1176
  949MOL0     C30849   4.196   2.314   5.651  1.0796  0.1881  0.0872
  949MOL0     C30850   4.232   2.333   5.520  0.3722  1.1082 -0.0962
  949MOL0     C30851   4.358   2.355   5.474 -0.0170 -0.4090  0.5210
  949MOL0     C30852   4.372   2.356   5.324 -0.6589 -0.4527  0.3795
  949MOL0     C30853   4.460   2.390   5.573 -0.3859 -0.4614  0.0874
  949MOL0     C30854   4.600   2.436   5.545  0.0795  0.8619  0.2927
  949MOL0     O30855   4.683   2.471   5.653 -0.2101  0.8391 -0.8639
  949MOL0     C30856   4.796   2.545   5.630  0.0606 -0.3930  0.2499
  949MOL0     C30857   4.923   2.479   5.647 -0.1925 -0.5557  0.6731
  949MOL0     C30858   5.042   2.552   5.637 -0.0451  0.1615  0.3995
  949MOL0     C30859   5.046   2.692   5.617 -0.4986  0.4394 -0.2839
  949MOL0     O30860   5.163   2.754   5.597  0.6008 -0.2287  0.1048
  949MOL0     C30861   5.278   2.735   5.681  0.6752  0.9750  1.0045
  949MOL0     C30862   5.294   2.842   5.788  0.3105  0.1010  0.8580
  949MOL0     C30863   5.323   2.977   5.741  0.1356 -0.3565  0.5831
  949MOL0     C30864   5.331   3.078   5.853 -1.1242 -0.0292 -0.1857
  949MOL0     C30865   5.286   3.215   5.815  0.3944 -0.3980 -0.4852
  949MOL0     C30866   5.247   3.312   5.929 -0.1915  1.2507  0.3442
  949MOL0     C30867   5.162   3.432   5.897 -0.2535  0.7026 -0.3826
  949MOL0     C30868   5.146   3.526   6.023  0.5412  0.3744  0.2803
  949MOL0    Cl30869   5.030   3.651   5.976  0.0045 -0.0748 -0.2276
  949MOL0     C30870   4.920   2.759   5.592  0.5315  0.1625 -0.7190
  949MOL0     C30871   4.800   2.685   5.615  0.2172 -0.0561  0.6266
  949MOL0     O30872   4.636   2.444   5.429 -0.3910  0.2477  0.6079
  949MOL0     C30873   4.424   2.379   5.709 -0.6784  0.2255  0.3044
  949MOL0     C30874   4.298   2.327   5.744  1.4046 -0.5593 -0.6275
  949MOL0     N30875   3.490   2.338   5.837  0.0813  0.5279  0.2106
  949MOL0     N30876   3.362   2.350   5.840 -0.2439  0.2437  0.2646
  949MOL0     C30877   2.233   1.981   6.155 -0.3693 -0.9899  0.7348
  949MOL0     C30878   2.104   2.000   6.213 -0.3448 -0.4775  0.2250
  949MOL0     C30879   1.689   2.227   6.308  0.1579 -0.0891 -0.4365
  949MOL0     C30880   1.625   2.124   6.232  0.0883  0.3047  0.4064
  949MOL0     C30881   1.483   2.105   6.248  0.5510  0.7758 -0.1467
  949MOL0     C30882   1.409   2.207   6.309 -0.0844  0.2489 -0.0732
  949MOL0     O30883   1.273   2.213   6.309 -0.1013 -0.1458 -0.6099
  949MOL0     C30884   1.200   2.090   6.283  0.3172  0.9992 -0.8602
  949MOL0     C30885   1.057   2.109   6.363 -0.5168 -0.5347 -0.3729
  949MOL0     C30886   1.081   2.118   6.507  0.0206 -0.2555  0.0879
  949MOL0     C30887   0.970   2.048   6.587 -0.1655  0.3476 -1.0135
  949MOL0     C30888   0.981   1.906   6.567  0.1684  0.2950 -0.8625
  949MOL0     C30889   0.968   1.790   6.548 -0.5189 -0.2577 -0.4193
  949MOL0     C30890   1.470   2.309   6.376  0.3896 -0.4619 -0.0223
  949MOL0     C30891   1.606   2.321   6.379 -0.1310 -0.2422  0.3656
  949MOL0     C30892   1.665   2.428   6.463 -0.2885  0.0118 -0.0879
  949MOL0     H30893   2.016   2.300   6.097 -2.6103 -3.1642 -3.1723
  949MOL0     H30894   2.263   2.299   6.033 -0.2729 -0.2499 -0.8544
  949MOL0     H30895   2.470   2.283   6.085  2.9897 -0.1072  2.9111
  949MOL0     H30896   2.550   2.205   5.948 -1.7511  1.7577 -0.4893
  949MOL0     H30897   2.616   2.143   6.239  1.3176 -1.3889  0.4862
  949MOL0     H30898   2.700   2.087   6.096 -0.3686  1.4407 -3.6886
  949MOL0     H30899   2.752   2.309   6.036  0.4323  2.3632 -0.4844
  949MOL0     H30900   2.653   2.370   6.178 -2.3368 -0.8047 -3.1352
  949MOL0     H30901   2.845   2.356   6.288 -3.0811  1.3216 -0.7101
  949MOL0     H30902   2.835   2.176   6.261  0.1542  1.0040  1.0052
  949MOL0     H30903   2.977   2.388   6.099  2.2085  0.4572 -0.1316
  949MOL0     H30904   2.961   2.230   6.029 -2.7732 -0.2942 -0.2647
  949MOL0     H30905   3.115   2.294   6.303  4.1826  0.4205 -0.7559
  949MOL0     H30906   3.095   2.134   6.217  1.4410 -0.6528 -0.8375
  949MOL0     H30907   3.305   2.223   6.153 -1.4747 -0.2106 -1.0818
  949MOL0     H30908   3.251   2.387   6.100  0.0086  1.1192 -1.1690
  949MOL0     H30909   3.191   2.106   5.974 -0.2576 -1.1395 -4.5630
  949MOL0     H30910   3.122   2.253   5.906  0.2798  3.0307  1.2979
  949MOL0     H30911   3.446   2.037   5.946  3.9966 -0.0502 -2.0681
  949MOL0     H30912   3.686   2.070   5.858 -1.3607 -0.4175  2.4155
  949MOL0     H30913   3.699   2.165   6.004 -1.9107  2.9534  1.1371
  949MOL0     H30914   3.773   2.363   5.834 -0.7868  0.2085  0.3330
  949MOL0     H30915   3.884   2.244   5.888  1.6467  1.6045 -1.1588
  949MOL0     H30916   3.853   2.095   5.703 -2.5603 -1.1909 -1.5298
  949MOL0     H30917   3.738   2.184   5.634 -1.2830  0.5620  1.0309
  949MOL0     H30918   3.971   2.246   5.525 -0.0971  0.1571 -0.3963
  949MOL0     H30919   3.899   2.385   5.601  1.5298 -0.2300 -0.2331
  949MOL0     H30920   4.149   2.321   5.450 -0.4043 -0.1513  0.9754
  949MOL0     H30921   4.464   2.314   5.285 -0.4482 -1.0539  1.4995
  949MOL0     H30922   4.363   2.456   5.280  0.8789 -1.7854 -3.2783
  949MOL0     H30923   4.291   2.297   5.280  0.0854 -1.2108  0.0186
  949MOL0     H30924   4.933   2.371   5.645 -3.1176 -0.8985  0.1842
  949MOL0     H30925   5.131   2.490   5.632 -1.9139 -2.6357 -0.9427
  949MOL0     H30926   5.260   2.638   5.729 -1.2814  0.9847  0.3626
  949MOL0     H30927   5.361   2.730   5.610  0.6535 -0.6963  1.0589
  949MOL0     H30928   5.203   2.838   5.848 -2.0584  2.2807 -2.2882
  949MOL0     H30929   5.386   2.817   5.842  1.0986  2.6981  0.8290
  949MOL0     H30930   5.252   3.020   5.670  0.0144  0.1906  1.0267
  949MOL0     H30931   5.416   2.974   5.684 -0.6461 -1.5518 -0.6942
  949MOL0     H30932   5.437   3.077   5.878 -0.6388  0.0377 -2.0742
  949MOL0     H30933   5.273   3.044   5.939  1.1845 -0.6799  1.2128
  949MOL0     H30934   5.358   3.251   5.741 -0.1286  2.4321  0.2737
  949MOL0     H30935   5.194   3.195   5.758 -0.2723 -1.3848  0.8714
  949MOL0     H30936   5.346   3.352   5.954  2.4892  1.4828 -7.6613
  949MOL0     H30937   5.197   3.260   6.011 -1.5652 -2.3524 -2.4901
  949MOL0     H30938   5.074   3.389   5.849 -0.1651 -0.3943  0.4238
  949MOL0     H30939   5.201   3.487   5.810 -2.2689 -0.1718 -1.9283
  949MOL0     H30940   5.251   3.557   6.021  1.0045 -1.1367 -0.1974
  949MOL0     H30941   5.131   3.472   6.117 -3.9383 -3.0276 -2.0111
  949MOL0     H30942   4.925   2.863   5.562  1.2523  0.9817  1.9309
  949MOL0     H30943   4.709   2.737   5.585  1.1961  1.6290  0.4460
  949MOL0     H30944   4.487   2.390   5.796 -1.4435 -0.1118  0.9151
  949MOL0     H30945   4.273   2.298   5.846  1.7355 -2.1308 -0.9580
  949MOL0     H30946   2.291   1.889   6.150  2.9445  1.0214 -2.1789
  949MOL0     H30947   2.049   1.913   6.245 -0.9673  0.0154  0.5107
  949MOL0     H30948   1.683   2.049   6.180 -1.1565 -1.5108  1.5224
  949MOL0     H30949   1.437   2.023   6.195  0.1132  0.8191  0.1609
  949MOL0     H30950   1.184   2.074   6.176 -0.3880  0.0702 -0.6254
  949MOL0     H30951   1.238   2.000   6.332 -1.1858  0.7900 -0.0313
  949MOL0     H30952   0.993   2.024   6.339  2.2237 -2.6215 -0.8651
  949MOL0     H30953   1.013   2.200   6.321  0.4872  0.0249 -0.2509
  949MOL0     H30954   1.173   2.071   6.544 -1.6698  0.1072  5.6671
  949MOL0     H30955   1.088   2.223   6.539  3.0950 -0.3308  0.0016
  949MOL0     H30956   0.870   2.086   6.566  0.6702  1.2727 -3.7061
  949MOL0     H30957   0.989   2.060   6.694 -1.7349  0.4934 -0.7324
  949MOL0     H30958   0.958   1.684   6.539 -1.7241 -0.0372 -2.2646
  949MOL0     H30959   1.400   2.371   6.433  2.1068 -0.4961  2.2816
  949MOL0     H30960   1.726   2.387   6.544  2.5337  2.8653 -0.5468
  949MOL0     H30961   1.721   2.491   6.393  0.7887 -1.3066 -0.4512
  949MOL0     H30962   1.590   2.491   6.512 -0.7766 -1.3240  0.9617
  950MOL0     O30963   9.549   1.524  10.346  0.0631 -0.4695  0.1431
  950MOL0     C30964   9.555   1.570  10.455 -1.1908 -0.1029  0.7576
  950MOL0     O30965   9.551   1.500  10.573  0.2580  0.4864 -0.8111
  950MOL0     C30966   9.548   1.356  10.572  1.3586  0.2209  0.0645
  950MOL0     C30967   9.604   1.276  10.476  0.5137  0.1049 -0.0223
  950MOL0     C30968   9.604   1.137  10.480  0.5865  0.5184  0.5272
  950MOL0     C30969   9.545   1.070  10.589 -0.3669  0.9089 -0.1867
  950MOL0     O30970   9.550   0.932  10.585  0.2779 -0.3001  0.2643
  950MOL0     C30971   9.597   0.882  10.710 -0.1016  0.5516 -0.1276
  950MOL0     C30972   9.655   0.743  10.694  0.1731 -0.2921  0.6150
  950MOL0     C30973   9.699   0.690  10.836 -0.4784 -0.3379  0.0439
  950MOL0     C30974   9.582   0.631  10.915  0.1455 -0.0353 -0.1088
  950MOL0     C30975   9.614   0.547  11.036 -0.3848 -0.1410 -0.0893
  950MOL0     C30976   9.697   0.627  11.149  0.8917  0.0207 -1.0826
  950MOL0     C30977   9.621   0.764  11.182 -0.3546 -0.1588 -0.4218
  950MOL0     C30978   9.641   0.803  11.323  0.7326 -0.9653  0.4808
  950MOL0     N30979   9.775   0.842  11.364 -0.0402 -0.8292 -0.0590
  950MOL0     C30980   9.860   0.775  11.449  0.1706 -0.3506 -0.2538
  950MOL0     C30981   9.963   0.857  11.460  0.4544 -1.6428 -0.2372
  950MOL0     C30982  10.071   0.829  11.562  0.8194  0.4631  0.4382
  950MOL0     C30983  10.203   0.885  11.501 -0.7200 -1.0342 -0.3164
  950MOL0     C30984  10.270   0.811  11.379  1.5547 -0.0787 -0.5799
  950MOL0     C30985  10.363   0.912  11.311  0.3806 -0.8155  0.8327
  950MOL0     O30986  10.431   0.843  11.205 -0.0217 -0.4706  0.1103
  950MOL0     C30987  10.533   0.755  11.224  1.0912 -0.6613 -0.9898
  950MOL0     C30988  10.607   0.743  11.340 -0.7524 -0.1215 -0.7465
  950MOL0     C30989  10.730   0.663  11.344  0.7377  0.2535 -0.3194
  950MOL0     C30990  10.792   0.645  11.468 -0.1137 -1.0831  0.3670
  950MOL0     C30991  10.776   0.609  11.221 -0.6094  0.3397 -0.2478
  950MOL0     C30992  10.908   0.539  11.197  0.4247  0.0543 -0.4033
  950MOL0     O30993  10.914   0.462  11.080  0.4190  0.0764 -0.4230
  950MOL0     C30994  11.027   0.404  11.040 -0.2017  0.4295  1.1921
  950MOL0     C30995  11.007   0.277  10.980  0.3203  1.0323 -0.4418
  950MOL0     C30996  11.112   0.202  10.932  0.0693  0.4505  0.0731
  950MOL0     C30997  11.242   0.259  10.923  0.3198 -0.2504  1.0804
  950MOL0     O30998  11.346   0.186  10.855 -0.0085 -0.8498  0.5392
  950MOL0     C30999  11.468   0.179  10.922  0.1107  0.0651 -0.1899
  950MOL0     C31000  11.519   0.030  10.928  0.3434 -0.5766  0.1042
  950MOL0     C31001  11.590  -0.012  10.794  0.4630 -0.3200  0.8380
  950MOL0     C31002  11.729  -0.077  10.810 -0.1261 -0.3571 -0.3865
  950MOL0     C31003  11.731  -0.219  10.866  0.3627 -0.6136  0.2924
  950MOL0     C31004  11.873  -0.277  10.896 -0.5449  0.3614  0.0037
  950MOL0     C31005  11.878  -0.420  10.941  0.6771  0.0880  0.5366
  950MOL0     C31006  11.815  -0.460  11.069  0.4781 -0.6984  0.1681
  950MOL0    Cl31007  11.812  -0.640  11.070  0.1549  0.3220  0.0785
  950MOL0     C31008  11.255   0.393  10.971 -0.1435  0.3724 -0.0788
  950MOL0     C31009  11.150   0.471  11.029 -0.2929  0.4037 -0.1436
  950MOL0     O31010  10.998   0.538  11.288 -0.4687 -0.3315 -0.2394
  950MOL0     C31011  10.707   0.639  11.098 -0.1401  0.1572  0.3646
  950MOL0     C31012  10.583   0.708  11.104  0.2904 -0.6533 -0.2382
  950MOL0     N31013   9.952   0.975  11.382  0.4444  0.4433 -0.0066
  950MOL0     N31014   9.835   0.962  11.324  0.2437 -0.0082 -0.5058
  950MOL0     C31015   9.490   1.150  10.689  0.5238  0.9153  0.2999
  950MOL0     C31016   9.484   1.286  10.677 -0.0718  0.1283  0.7181
  950MOL0     C31017   9.582   1.721  10.462 -0.3937 -0.2078 -0.8286
  950MOL0     C31018   9.582   1.770  10.592 -0.3026 -0.5162  0.3181
  950MOL0     C31019   9.616   1.906  10.617  0.6686  0.3840  0.3227
  950MOL0     C31020   9.667   1.987  10.515 -0.1303 -0.4085  0.1417
  950MOL0     O31021   9.733   2.114  10.532 -0.4348  0.1700  0.4339
  950MOL0     C31022   9.651   2.209  10.604 -0.7155 -0.0819 -0.7980
  950MOL0     C31023   9.663   2.345  10.540  0.1740 -0.2531  0.8910
  950MOL0     C31024   9.788   2.424  10.575  0.6486  0.6636  0.3410
  950MOL0     C31025   9.914   2.339  10.530  0.2821  0.0241 -0.2389
  950MOL0     C31026   9.914   2.305  10.392  0.2370  0.4657  0.3020
  950MOL0     C31027   9.916   2.278  10.278 -0.5108  0.1921  0.8437
  950MOL0     C31028   9.648   1.948  10.376 -0.6966  0.2907 -0.2685
  950MOL0     C31029   9.595   1.814  10.353  0.9914 -0.2696 -0.4439
  950MOL0     C31030   9.561   1.777  10.215 -0.1343  0.4782 -0.5512
  950MOL0     H31031   9.642   1.328  10.389 -2.9328  1.7237 -0.7080
  950MOL0     H31032   9.649   1.082  10.398  4.4318  2.6050  0.9924
  950MOL0     H31033   9.515   0.876  10.782  0.7371 -1.7312  0.7230
  950MOL0     H31034   9.671   0.945  10.760 -0.4984  0.2642  0.8603
  950MOL0     H31035   9.570   0.688  10.652  1.4263  0.2573 -3.0095
  950MOL0     H31036   9.738   0.721  10.626  2.9620 -1.0302  3.9669
  950MOL0     H31037   9.775   0.612  10.822  3.0293  2.8553 -0.3966
  950MOL0     H31038   9.744   0.763  10.904  0.0823 -0.1692 -0.5018
  950MOL0     H31039   9.516   0.716  10.939  1.7197  0.7597  1.5854
  950MOL0     H31040   9.515   0.568  10.855 -2.2006  0.3599  1.9171
  950MOL0     H31041   9.656   0.448  11.015  1.7917  0.6033  0.4000
  950MOL0     H31042   9.517   0.520  11.080 -0.5359 -2.2944 -1.5785
  950MOL0     H31043   9.692   0.562  11.237  1.6701 -2.4619 -2.7838
  950MOL0     H31044   9.802   0.643  11.122  0.9292 -0.4191 -1.1916
  950MOL0     H31045   9.514   0.742  11.184 -0.6459  1.1657  1.7747
  950MOL0     H31046   9.648   0.847  11.116  1.6482  0.7163  1.3835
  950MOL0     H31047   9.582   0.895  11.329 -0.0014 -1.4966  2.0572
  950MOL0     H31048   9.604   0.730  11.395 -2.6271  1.0578  1.0495
  950MOL0     H31049   9.838   0.689  11.512  0.2241 -0.0363  0.1967
  950MOL0     H31050  10.092   0.723  11.577 -0.1385 -0.0273 -1.2936
  950MOL0     H31051  10.050   0.876  11.658  1.1930  0.4141  0.5456
  950MOL0     H31052  10.209   0.993  11.481  0.2375 -0.7045  1.4503
  950MOL0     H31053  10.274   0.867  11.584  1.7210  0.9705 -1.8152
  950MOL0     H31054  10.315   0.724  11.427  2.0089 -0.5765 -1.8641
  950MOL0     H31055  10.191   0.777  11.310  0.6524 -2.4757  1.4740
  950MOL0     H31056  10.298   0.988  11.267  2.1709  0.2335 -0.1237
  950MOL0     H31057  10.430   0.963  11.380 -0.3176  2.6680 -0.8727
  950MOL0     H31058  10.574   0.798  11.428  0.2895  0.3820 -0.6565
  950MOL0     H31059  10.886   0.700  11.467  0.3469 -1.8517 -0.4428
  950MOL0     H31060  10.823   0.540  11.474  1.9898 -0.4869  0.5587
  950MOL0     H31061  10.728   0.671  11.553  0.4057  1.1763  0.1253
  950MOL0     H31062  10.905   0.244  10.961  0.2811  0.8630  0.0493
  950MOL0     H31063  11.115   0.113  10.869 -0.0446  1.7054 -1.8067
  950MOL0     H31064  11.548   0.241  10.880  1.5012 -1.8554 -0.5498
  950MOL0     H31065  11.452   0.203  11.027  0.9602 -0.5679  0.1011
  950MOL0     H31066  11.595   0.013  11.005  0.9653  2.2975  0.2415
  950MOL0     H31067  11.440  -0.044  10.946  2.2290 -2.6048  0.4139
  950MOL0     H31068  11.608   0.076  10.731  1.5860 -0.3180  1.1302
  950MOL0     H31069  11.530  -0.080  10.733  1.6506 -1.1880  0.5789
  950MOL0     H31070  11.794  -0.010  10.868 -0.2019  0.6225 -1.4153
  950MOL0     H31071  11.777  -0.081  10.712  0.9309  0.1464  0.0858
  950MOL0     H31072  11.658  -0.235  10.946  0.1224 -0.8166  0.0370
  950MOL0     H31073  11.711  -0.289  10.784  0.9743 -0.7124  0.2250
  950MOL0     H31074  11.922  -0.218  10.974 -0.1655 -2.3401  1.9428
  950MOL0     H31075  11.935  -0.260  10.808  0.6858  0.3421  0.8482
  950MOL0     H31076  11.981  -0.453  10.955 -1.0433 -5.7087  2.9761
  950MOL0     H31077  11.837  -0.485  10.863  2.8181  1.6851 -2.0611
  950MOL0     H31078  11.722  -0.406  11.085  1.6947  0.8933  2.5482
  950MOL0     H31079  11.873  -0.441  11.160  1.0699 -2.9083  0.3183
  950MOL0     H31080  11.351   0.444  10.961 -0.7859  1.5307 -0.5454
  950MOL0     H31081  11.166   0.575  11.054 -1.0881  0.6244 -0.5278
  950MOL0     H31082  10.736   0.598  11.002  0.7589  0.8911  0.3089
  950MOL0     H31083  10.513   0.731  11.025  1.5165  2.7258 -0.5145
  950MOL0     H31084   9.442   1.090  10.766 -1.5030  1.7364 -0.2634
  950MOL0     H31085   9.449   1.347  10.760  1.5186  2.0785  0.0453
  950MOL0     H31086   9.557   1.714  10.682  0.3401 -2.2144 -0.5068
  950MOL0     H31087   9.618   1.935  10.722 -0.7377 -2.5419  1.2768
  950MOL0     H31088   9.548   2.174  10.599 -0.6402 -1.2091  2.8143
  950MOL0     H31089   9.688   2.218  10.707  0.5688  0.4530 -1.2874
  950MOL0     H31090   9.571   2.400  10.564  1.7660  1.9582  2.2114
  950MOL0     H31091   9.664   2.326  10.432  1.8984  0.5769  0.7225
  950MOL0     H31092   9.767   2.525  10.538 -1.5599  0.4145  0.7984
  950MOL0     H31093   9.795   2.437  10.684 -0.0881 -0.2424  0.5059
  950MOL0     H31094   9.929   2.250  10.592 -2.4887 -0.0782  0.4112
  950MOL0     H31095  10.003   2.401  10.547  0.0375 -0.0060  1.2227
  950MOL0     H31096   9.929   2.260  10.173  0.2728 -0.0148  0.9650
  950MOL0     H31097   9.695   1.995  10.290 -0.1610 -2.4591 -1.5695
  950MOL0     H31098   9.636   1.703  10.188 -0.9583 -0.1593 -1.1285
  950MOL0     H31099   9.463   1.729  10.216  0.3524 -0.5441  0.5921
  950MOL0     H31100   9.565   1.873  10.163 -0.7180  1.2617  0.7921
  951MOL0     O31101   7.127   4.278   3.302  0.7916 -0.5190  0.1561
  951MOL0     C31102   7.249   4.316   3.311  0.5268 -0.2378 -0.6976
  951MOL0     O31103   7.340   4.256   3.400  0.2949  0.4617  0.6168
  951MOL0     C31104   7.299   4.131   3.446  0.3144 -0.8829  0.5868
  951MOL0     C31105   7.292   4.023   3.360  0.2165  0.5473  0.4015
  951MOL0     C31106   7.263   3.887   3.399 -0.2767  0.3443 -0.2394
  951MOL0     C31107   7.225   3.864   3.528 -0.6482  0.3304 -0.7450
  951MOL0     O31108   7.180   3.742   3.567 -0.3356 -0.5365 -0.2099
  951MOL0     C31109   7.278   3.683   3.650  0.3299 -0.2212  0.0892
  951MOL0     C31110   7.234   3.551   3.698 -0.1699 -0.0063  0.3992
  951MOL0     C31111   7.223   3.461   3.575 -0.5846 -0.5523  0.1828
  951MOL0     C31112   7.078   3.422   3.558  0.5372  0.0195 -0.4661
  951MOL0     C31113   7.033   3.284   3.486 -0.1441  0.0494 -0.0574
  951MOL0     C31114   7.054   3.291   3.336  1.3567 -0.3703  0.1474
  951MOL0     C31115   7.204   3.285   3.281  0.9178 -0.8011 -0.6399
  951MOL0     C31116   7.213   3.280   3.139  0.3758  0.1986 -0.4245
  951MOL0     N31117   7.344   3.244   3.085  0.3044 -0.1400  0.0281
  951MOL0     C31118   7.370   3.121   3.021  0.5029  0.5008 -1.5601
  951MOL0     C31119   7.483   3.145   2.945  0.2184  0.0190 -0.1572
  951MOL0     C31120   7.583   3.051   2.889 -0.0059  0.3976  0.4139
  951MOL0     C31121   7.683   3.118   2.795 -0.6671  0.1770  0.9360
  951MOL0     C31122   7.793   3.022   2.733 -0.8727 -0.3663  1.0548
  951MOL0     C31123   7.861   2.906   2.814 -0.4136 -0.8336  0.4075
  951MOL0     O31124   7.768   2.818   2.869 -0.9256 -0.4618 -1.0623
  951MOL0     C31125   7.810   2.702   2.942  0.2839 -0.4676  0.9681
  951MOL0     C31126   7.718   2.603   2.947  0.3620  0.1272 -0.0421
  951MOL0     C31127   7.736   2.487   3.026 -0.6087 -0.5059  0.2832
  951MOL0     C31128   7.627   2.385   3.028 -1.0136 -0.3208 -0.4657
  951MOL0     C31129   7.857   2.475   3.107  0.2105 -0.8866 -0.9002
  951MOL0     C31130   7.875   2.362   3.211 -0.3696  0.1321 -0.4792
  951MOL0     O31131   8.018   2.352   3.249 -0.8302  0.1525 -0.0398
  951MOL0     C31132   8.057   2.290   3.367 -0.5269 -0.5271 -0.3517
  951MOL0     C31133   8.150   2.352   3.446  0.1355  0.1432  0.1202
  951MOL0     C31134   8.200   2.291   3.564  0.1886  0.2299 -0.1738
  951MOL0     C31135   8.144   2.165   3.603  1.1175  0.3691 -0.0162
  951MOL0     O31136   8.192   2.106   3.711 -0.2167 -0.0097 -1.4678
  951MOL0     C31137   8.159   1.979   3.755  0.0140  1.3500  0.0358
  951MOL0     C31138   8.252   1.971   3.877  0.0165 -0.2005  0.8590
  951MOL0     C31139   8.281   1.826   3.901  0.2139  0.1074  0.4173
  951MOL0     C31140   8.329   1.802   4.042 -1.2113 -0.4029  0.4772
  951MOL0     C31141   8.347   1.652   4.080  0.3197 -0.9470 -0.6884
  951MOL0     C31142   8.419   1.633   4.221 -0.7374 -0.5304  0.2475
  951MOL0     C31143   8.323   1.630   4.335  0.6263 -0.2251  1.3361
  951MOL0     C31144   8.406   1.644   4.471  0.1309 -0.7028  0.0311
  951MOL0    Cl31145   8.502   1.496   4.485  0.2503  0.7717 -0.3560
  951MOL0     C31146   8.035   2.111   3.527 -0.7924 -0.0859 -0.8486
  951MOL0     C31147   8.002   2.169   3.403  0.7407  0.9511 -0.0220
  951MOL0     O31148   7.783   2.293   3.265  0.9771 -0.1928 -0.6264
  951MOL0     C31149   7.966   2.562   3.067  1.4622 -0.0246  0.4371
  951MOL0     C31150   7.933   2.682   2.997 -0.9027 -0.2449  0.1240
  951MOL0     N31151   7.515   3.277   2.975 -1.7524  0.2971 -0.4414
  951MOL0     N31152   7.429   3.342   3.041 -0.6123 -0.6524  0.1469
  951MOL0     C31153   7.210   3.976   3.613 -1.3989  0.1403 -0.4218
  951MOL0     C31154   7.250   4.110   3.577  0.7087  1.5844  0.3979
  951MOL0     C31155   7.300   4.419   3.224  0.1814 -0.0401 -0.5216
  951MOL0     C31156   7.381   4.526   3.272 -0.6745 -0.5647  0.3950
  951MOL0     C31157   7.415   4.636   3.188  0.2357 -0.2275  0.2816
  951MOL0     C31158   7.404   4.625   3.046  0.8432 -0.1957  0.8808
  951MOL0     O31159   7.473   4.716   2.968  0.3701  0.3434  0.5264
  951MOL0     C31160   7.538   4.666   2.862 -0.0293  0.9407  0.4462
  951MOL0     C31161   7.665   4.749   2.840 -0.8295 -0.5820 -0.6456
  951MOL0     C31162   7.753   4.691   2.731 -0.4839 -1.0170 -0.1746
  951MOL0     C31163   7.686   4.682   2.589  0.1470  0.1628  0.3239
  951MOL0     C31164   7.581   4.778   2.553 -0.5603  0.0748 -0.4172
  951MOL0     C31165   7.502   4.868   2.523 -0.1442 -0.9325 -0.1644
  951MOL0     C31166   7.346   4.502   3.001  0.5862  0.1909  0.6161
  951MOL0     C31167   7.290   4.399   3.084 -0.1127 -0.7758  0.5770
  951MOL0     C31168   7.247   4.272   3.024 -0.6118 -0.2524 -0.6712
  951MOL0     H31169   7.321   4.043   3.258 -3.0512 -0.5822 -0.8778
  951MOL0     H31170   7.268   3.796   3.339  1.4492  1.4775 -1.9214
  951MOL0     H31171   7.304   3.745   3.737  0.2603  3.4908 -2.3004
  951MOL0     H31172   7.377   3.675   3.604  1.5170  0.8002  2.3400
  951MOL0     H31173   7.309   3.511   3.766  0.6395 -0.5610 -0.8011
  951MOL0     H31174   7.140   3.557   3.755  0.7045 -4.6804  2.8532
  951MOL0     H31175   7.259   3.522   3.492  0.0383  0.3923  1.1200
  951MOL0     H31176   7.285   3.371   3.575 -0.3001 -0.3560  0.1947
  951MOL0     H31177   7.031   3.411   3.656 -1.1732 -1.4620 -1.3806
  951MOL0     H31178   7.023   3.509   3.520 -0.0109  0.0129  0.3113
  951MOL0     H31179   6.935   3.254   3.523 -0.3689 -1.3170 -1.6747
  951MOL0     H31180   7.104   3.211   3.527  1.4708  0.9766 -1.1031
  951MOL0     H31181   6.991   3.213   3.292 -2.3375  0.6743  3.0206
  951MOL0     H31182   6.994   3.380   3.312  3.2207  1.4952  2.0250
  951MOL0     H31183   7.250   3.192   3.316  3.7043 -0.1007 -2.1079
  951MOL0     H31184   7.273   3.359   3.323 -1.9515  0.5425  2.1755
  951MOL0     H31185   7.125   3.229   3.100 -0.1589  0.5883  0.2470
  951MOL0     H31186   7.196   3.385   3.116  2.6720  2.1666  5.0294
  951MOL0     H31187   7.305   3.035   3.012 -0.6118  1.3946 -2.4341
  951MOL0     H31188   7.523   2.974   2.840 -3.1115  2.0815  1.2899
  951MOL0     H31189   7.629   3.001   2.974  1.7714 -0.9955 -1.2619
  951MOL0     H31190   7.616   3.171   2.726 -2.4060  1.0306  3.1226
  951MOL0     H31191   7.724   3.192   2.865  2.9438 -0.6069 -0.1833
  951MOL0     H31192   7.743   2.967   2.652  1.0829  0.8488 -1.1124
  951MOL0     H31193   7.871   3.093   2.707 -1.6368 -0.2692 -1.2426
  951MOL0     H31194   7.933   2.865   2.743  0.6645  2.5114 -0.5897
  951MOL0     H31195   7.914   2.952   2.898  1.8708 -4.2119  1.0098
  951MOL0     H31196   7.624   2.620   2.895 -2.8064 -3.1873  3.9472
  951MOL0     H31197   7.559   2.438   3.095 -0.4517  1.9224 -1.5873
  951MOL0     H31198   7.668   2.293   3.071  1.0213 -0.2748 -2.1656
  951MOL0     H31199   7.578   2.361   2.933 -0.4081 -1.4185 -0.5262
  951MOL0     H31200   8.193   2.447   3.418 -3.9232  2.6205  1.3955
  951MOL0     H31201   8.286   2.317   3.625 -0.8502 -0.3744  1.6497
  951MOL0     H31202   8.059   1.956   3.794 -1.0244  1.7049 -2.2627
  951MOL0     H31203   8.184   1.906   3.677 -0.5579  2.3006 -1.0740
  951MOL0     H31204   8.343   2.030   3.859  0.6789  0.1382  4.6010
  951MOL0     H31205   8.203   2.010   3.966 -0.1719  0.8177  0.3275
  951MOL0     H31206   8.341   1.781   3.822 -1.9964 -2.3345 -0.0036
  951MOL0     H31207   8.190   1.766   3.894 -1.0616  1.8369  1.2698
  951MOL0     H31208   8.259   1.846   4.114 -2.1133 -0.3155 -0.4283
  951MOL0     H31209   8.424   1.856   4.048 -2.8153  2.4747  2.3375
  951MOL0     H31210   8.249   1.604   4.076 -0.6642  1.0588 -1.8428
  951MOL0     H31211   8.407   1.603   4.003 -1.6659 -3.5473 -0.7264
  951MOL0     H31212   8.484   1.716   4.249 -1.3286  0.0223 -0.0015
  951MOL0     H31213   8.484   1.545   4.216 -0.2933 -0.2207  0.4619
  951MOL0     H31214   8.263   1.538   4.337  0.6366 -0.2371  3.4039
  951MOL0     H31215   8.254   1.715   4.330 -0.0683 -0.7587  1.6321
  951MOL0     H31216   8.347   1.638   4.563  0.8397 -1.3639  0.4633
  951MOL0     H31217   8.471   1.730   4.490 -2.7449  1.4455  0.7884
  951MOL0     H31218   7.992   2.016   3.556  2.9321 -1.9850 -0.9697
  951MOL0     H31219   7.927   2.122   3.340  0.6039 -0.1397  0.9167
  951MOL0     H31220   8.065   2.559   3.111  2.3201 -4.3056 -1.3061
  951MOL0     H31221   8.001   2.765   2.983 -2.5282  1.1760  0.3487
  951MOL0     H31222   7.173   3.951   3.712 -0.2781 -0.2913 -0.0953
  951MOL0     H31223   7.241   4.199   3.638 -0.2421  0.5877  1.7582
  951MOL0     H31224   7.418   4.533   3.374  1.9995 -0.9554 -0.4697
  951MOL0     H31225   7.468   4.718   3.235 -0.1965  1.1691 -1.5479
  951MOL0     H31226   7.562   4.561   2.876  0.1259  1.1789  2.1524
  951MOL0     H31227   7.475   4.678   2.773  3.1492 -0.0196 -2.0872
  951MOL0     H31228   7.718   4.756   2.935  1.5397 -2.0932 -1.7815
  951MOL0     H31229   7.629   4.849   2.812 -0.2238 -0.9581 -2.9582
  951MOL0     H31230   7.837   4.758   2.712 -1.2396  0.2551  0.7153
  951MOL0     H31231   7.803   4.598   2.759  4.4280  0.6394 -2.3335
  951MOL0     H31232   7.645   4.581   2.578  1.4779 -0.3437 -0.3601
  951MOL0     H31233   7.767   4.684   2.515  0.4826  1.1501  0.7070
  951MOL0     H31234   7.442   4.952   2.498  0.4680 -0.1915  0.7693
  951MOL0     H31235   7.340   4.499   2.893  0.0600  2.1517  0.5637
  951MOL0     H31236   7.157   4.235   3.075 -0.6252  1.6369  0.8278
  951MOL0     H31237   7.220   4.299   2.921 -1.3958  1.0945 -0.1388
  951MOL0     H31238   7.320   4.193   3.011 -1.3753 -1.1873  0.4929
  952MOL0     O31239  10.738   5.678   3.837  0.5827 -0.5148  0.7049
  952MOL0     C31240  10.828   5.608   3.796  0.3017  0.1523  0.3639
  952MOL0     O31241  10.947   5.574   3.868  1.2801  0.1226  0.1945
  952MOL0     C31242  10.947   5.609   4.001 -0.9499  1.1210 -0.0147
  952MOL0     C31243  10.918   5.509   4.101  0.7970 -0.8924  0.0159
  952MOL0     C31244  10.918   5.550   4.243 -0.4903 -0.0595  0.3052
  952MOL0     C31245  10.951   5.682   4.271  0.7623 -0.7299 -0.5801
  952MOL0     O31246  10.939   5.709   4.405 -0.0304 -0.1913  0.2784
  952MOL0     C31247  10.901   5.842   4.452 -0.1626  0.1438 -0.8505
  952MOL0     C31248  11.028   5.925   4.485  1.2537  0.5439 -1.0593
  952MOL0     C31249  11.087   5.869   4.610 -0.2936 -1.0104 -0.4441
  952MOL0     C31250  11.191   5.961   4.674 -0.0601 -0.0337 -0.0575
  952MOL0     C31251  11.130   6.094   4.733 -0.2094 -1.5088 -0.4033
  952MOL0     C31252  11.238   6.183   4.804 -0.3244 -0.6450 -0.8340
  952MOL0     C31253  11.173   6.309   4.859  0.2502  0.0690 -0.0429
  952MOL0     C31254  11.162   6.422   4.742 -0.3197  0.8771  0.2069
  952MOL0     N31255  11.171   6.555   4.806 -0.1823  0.3968  0.1568
  952MOL0     C31256  11.097   6.606   4.917  0.0768  0.1915 -0.3905
  952MOL0     C31257  11.166   6.712   4.955 -0.2723 -0.5106 -0.2948
  952MOL0     C31258  11.142   6.813   5.066 -0.1425 -0.7382  0.1470
  952MOL0     C31259  11.040   6.932   5.036  0.3990 -0.4164  0.7316
  952MOL0     C31260  11.091   6.999   4.907  0.4790 -1.7316 -0.1038
  952MOL0     C31261  11.007   7.113   4.858 -1.4520 -0.5853  0.2807
  952MOL0     O31262  11.066   7.175   4.748 -0.3103  0.3274 -0.0839
  952MOL0     C31263  11.163   7.268   4.762  0.2362  0.6394  0.1463
  952MOL0     C31264  11.241   7.301   4.648  0.0315 -0.1901  0.0959
  952MOL0     C31265  11.352   7.385   4.652 -0.4032 -1.0605  0.1198
  952MOL0     C31266  11.426   7.422   4.522 -0.7510  0.0211  0.1399
  952MOL0     C31267  11.376   7.459   4.767 -0.7387  0.8254  0.5097
  952MOL0     C31268  11.469   7.568   4.784 -0.5444 -0.9471 -0.3765
  952MOL0     O31269  11.467   7.660   4.687 -0.2621 -0.4944  0.2512
  952MOL0     C31270  11.550   7.766   4.687  0.7586 -0.2933  1.0604
  952MOL0     C31271  11.529   7.864   4.782 -0.2312 -0.2399 -0.0342
  952MOL0     C31272  11.629   7.960   4.790  1.4108 -0.6122 -0.1459
  952MOL0     C31273  11.736   7.970   4.710  0.4214  0.1446  0.6765
  952MOL0     O31274  11.836   8.063   4.704  0.0430  0.0582 -1.0127
  952MOL0     C31275  11.851   8.164   4.807  0.1410 -0.5077 -0.2077
  952MOL0     C31276  11.980   8.238   4.777 -0.2797 -0.1217 -0.8476
  952MOL0     C31277  11.971   8.342   4.668  0.6035 -0.1995  0.2241
  952MOL0     C31278  12.109   8.396   4.625 -0.8239  1.0000  0.4385
  952MOL0     C31279  12.184   8.308   4.518 -0.5758  0.0048  0.4540
  952MOL0     C31280  12.336   8.307   4.537  0.7915 -0.1462 -0.2214
  952MOL0     C31281  12.400   8.251   4.407 -0.0095  0.1148 -0.4909
  952MOL0     C31282  12.545   8.206   4.437  0.7037  0.3028  0.4839
  952MOL0    Cl31283  12.651   8.168   4.298 -0.1472 -0.2086 -0.0442
  952MOL0     C31284  11.743   7.875   4.604 -0.1379 -1.2481  0.1908
  952MOL0     C31285  11.651   7.774   4.584 -0.4076 -0.1178 -1.0285
  952MOL0     O31286  11.547   7.557   4.877  0.5172 -0.0041 -0.4803
  952MOL0     C31287  11.305   7.425   4.877  1.3978 -1.1609  0.2946
  952MOL0     C31288  11.201   7.333   4.881  0.6741  0.4869 -0.7160
  952MOL0     N31289  11.275   6.727   4.873 -0.7899 -0.3969  0.2331
  952MOL0     N31290  11.283   6.632   4.785  0.8181  0.9092 -0.1393
  952MOL0     C31291  10.989   5.774   4.175 -0.0663  0.3610  0.5565
  952MOL0     C31292  10.985   5.736   4.040  0.6275 -0.0392  0.0781
  952MOL0     C31293  10.815   5.548   3.662  0.7498 -1.1678  1.1391
  952MOL0     C31294  10.848   5.419   3.622  1.1926 -0.3654  0.0734
  952MOL0     C31295  10.829   5.372   3.485  0.6016 -0.0999  0.3187
  952MOL0     C31296  10.806   5.463   3.382 -0.0680  0.3810  0.5103
  952MOL0     O31297  10.819   5.421   3.247 -0.2657  0.8618 -0.0855
  952MOL0     C31298  10.790   5.500   3.141  0.0887 -0.2700  0.8272
  952MOL0     C31299  10.792   5.405   3.024  1.0956 -0.0050 -0.3414
  952MOL0     C31300  10.770   5.479   2.887 -0.0675  0.1243 -0.5957
  952MOL0     C31301  10.891   5.574   2.841  0.4890  0.7676  0.1284
  952MOL0     C31302  10.860   5.671   2.739  0.6036 -0.2193  0.8822
  952MOL0     C31303  10.821   5.762   2.669  0.5300  0.2137  0.9332
  952MOL0     C31304  10.781   5.599   3.413 -0.4668 -0.7700 -0.3902
  952MOL0     C31305  10.774   5.639   3.550 -1.2486 -0.1960  0.1616
  952MOL0     C31306  10.732   5.790   3.566  0.2788 -0.3692 -0.5967
  952MOL0     H31307  10.897   5.411   4.058 -0.2575 -0.6801  0.0283
  952MOL0     H31308  10.894   5.482   4.325  1.2512 -1.4768 -0.3098
  952MOL0     H31309  10.832   5.831   4.535  0.1960 -0.7707 -0.6627
  952MOL0     H31310  10.851   5.910   4.382  1.3569  0.1887 -1.9505
  952MOL0     H31311  11.092   5.908   4.398  1.8842  0.6685 -0.6246
  952MOL0     H31312  11.004   6.031   4.499 -0.2981 -0.1492  2.6853
  952MOL0     H31313  11.009   5.872   4.687 -0.0963  4.3892 -0.0625
  952MOL0     H31314  11.138   5.773   4.596  2.9978  0.4388  0.5764
  952MOL0     H31315  11.244   5.913   4.756  1.6734  1.8707  0.0155
  952MOL0     H31316  11.268   5.992   4.602 -0.9049  0.6154 -0.7120
  952MOL0     H31317  11.053   6.057   4.801 -0.1255  0.1216  0.6279
  952MOL0     H31318  11.082   6.160   4.661 -3.9516 -2.2265  1.1678
  952MOL0     H31319  11.295   6.139   4.887  1.4998  1.0686 -1.1004
  952MOL0     H31320  11.315   6.217   4.735 -1.5735 -1.6776 -2.8313
  952MOL0     H31321  11.241   6.344   4.938 -1.6371  0.3681  1.5206
  952MOL0     H31322  11.074   6.288   4.900  1.0270 -1.6324  1.1378
  952MOL0     H31323  11.260   6.411   4.693  0.7098  0.8744  2.1799
  952MOL0     H31324  11.073   6.409   4.679  2.1504 -3.4085 -2.9453
  952MOL0     H31325  11.018   6.563   4.977 -1.7653  3.0602 -0.5847
  952MOL0     H31326  11.240   6.853   5.095 -1.6542  2.3997  1.4176
  952MOL0     H31327  11.104   6.754   5.150 -3.6656 -1.0288 -1.4755
  952MOL0     H31328  10.942   6.886   5.023 -0.1571  0.6217  1.1134
  952MOL0     H31329  11.038   7.001   5.121 -3.7168 -2.0216  2.2101
  952MOL0     H31330  11.196   7.021   4.925  0.0973  0.4784 -0.2618
  952MOL0     H31331  11.082   6.939   4.816 -0.9992  0.4869 -1.5261
  952MOL0     H31332  10.905   7.077   4.840 -1.2025 -1.3960  0.4591
  952MOL0     H31333  10.994   7.191   4.934  0.4045  1.9978 -1.8686
  952MOL0     H31334  11.210   7.265   4.550  0.8181  0.5949 -0.4501
  952MOL0     H31335  11.368   7.493   4.463 -2.2866 -0.1844  1.3401
  952MOL0     H31336  11.452   7.331   4.466 -3.0262 -0.4664 -0.2120
  952MOL0     H31337  11.525   7.464   4.539 -1.8730  2.9542 -0.0671
  952MOL0     H31338  11.453   7.859   4.859  1.0937  0.4735  1.3781
  952MOL0     H31339  11.633   8.028   4.875 -0.7011 -2.2336  1.3642
  952MOL0     H31340  11.782   8.248   4.797  0.8846  0.3901  1.6955
  952MOL0     H31341  11.845   8.108   4.901  1.2227 -0.8452 -0.3323
  952MOL0     H31342  12.028   8.287   4.862 -1.5679  2.7545 -1.6771
  952MOL0     H31343  12.058   8.165   4.752  5.0490  2.8154  4.6131
  952MOL0     H31344  11.902   8.414   4.713 -3.8106 -3.7404 -0.0579
  952MOL0     H31345  11.915   8.306   4.581  0.1958 -3.9170  1.8265
  952MOL0     H31346  12.172   8.403   4.714 -1.0553  1.2370  0.5819
  952MOL0     H31347  12.103   8.496   4.580  0.2319  1.1708  0.6466
  952MOL0     H31348  12.157   8.202   4.509  2.1117 -0.6460 -1.0563
  952MOL0     H31349  12.162   8.346   4.418  0.4508 -1.2217 -0.2749
  952MOL0     H31350  12.359   8.232   4.614 -2.9071 -2.5571 -1.1801
  952MOL0     H31351  12.368   8.408   4.564 -3.6338  1.5547 -0.5131
  952MOL0     H31352  12.401   8.331   4.332  0.5804  3.0860  2.4007
  952MOL0     H31353  12.352   8.157   4.379  1.1021 -1.5038  2.5167
  952MOL0     H31354  12.544   8.126   4.513  2.4729  0.8397  1.1175
  952MOL0     H31355  12.594   8.291   4.485  1.0268  0.1199  0.4768
  952MOL0     H31356  11.826   7.866   4.534 -0.2557  1.8920 -0.4795
  952MOL0     H31357  11.672   7.711   4.498  1.3128  0.8458 -1.3802
  952MOL0     H31358  11.329   7.482   4.966 -0.8147  0.9159 -0.3298
  952MOL0     H31359  11.152   7.302   4.973  0.3794  1.3184 -0.5771
  952MOL0     H31360  11.035   5.868   4.203  1.5975 -0.2435 -0.0201
  952MOL0     H31361  11.010   5.804   3.958 -4.5837  2.2582 -0.0118
  952MOL0     H31362  10.871   5.346   3.699 -0.9349  1.9804  3.1683
  952MOL0     H31363  10.845   5.267   3.464 -1.3632 -0.1507 -1.1844
  952MOL0     H31364  10.697   5.554   3.160 -0.8691 -2.0683  1.4930
  952MOL0     H31365  10.861   5.581   3.125  0.1908 -0.2863  1.1827
  952MOL0     H31366  10.702   5.347   3.046  0.3258  0.5385 -1.9394
  952MOL0     H31367  10.880   5.340   3.017 -0.3396 -2.2205  0.9441
  952MOL0     H31368  10.747   5.400   2.814 -1.4190 -0.5470  0.4937
  952MOL0     H31369  10.679   5.540   2.889  1.6421  2.8425  0.5375
  952MOL0     H31370  10.963   5.498   2.810  0.3378  0.5859  0.2195
  952MOL0     H31371  10.938   5.628   2.925  3.0638 -1.7355  0.4473
  952MOL0     H31372  10.791   5.846   2.609  2.1185 -0.0038 -0.2312
  952MOL0     H31373  10.766   5.678   3.341  1.4592  0.3600  0.3862
  952MOL0     H31374  10.816   5.855   3.590  0.1908 -0.4244 -0.1179
  952MOL0     H31375  10.694   5.824   3.469 -2.0052  3.1303  1.3106
  952MOL0     H31376  10.652   5.792   3.641 -0.9995  1.9768 -1.9200
  953MOL0     O31377   0.337   9.960   0.904  0.3971  1.3194  0.8046
  953MOL0     C31378   0.239   9.996   0.969 -0.2017 -0.2131 -0.6201
  953MOL0     O31379   0.225  10.118   1.035 -0.0500 -0.5966 -0.6317
  953MOL0     C31380   0.330  10.210   1.026 -0.2203 -0.3261 -0.1363
  953MOL0     C31381   0.405  10.241   1.143  0.7025  0.3977  0.7052
  953MOL0     C31382   0.515  10.325   1.139  0.5492 -0.8163  0.6430
  953MOL0     C31383   0.557  10.385   1.021  0.2474  0.6922  0.8230
  953MOL0     O31384   0.668  10.466   1.012  0.0079 -0.5651  0.6910
  953MOL0     C31385   0.759  10.482   1.118  0.4402  0.5963  0.4897
  953MOL0     C31386   0.842  10.349   1.145 -1.2606  0.1609 -0.0347
  953MOL0     C31387   0.915  10.339   1.281  0.6511  0.1582  0.4059
  953MOL0     C31388   1.026  10.447   1.295  1.6005  0.1885 -0.6906
  953MOL0     C31389   1.051  10.486   1.451 -0.7703 -0.9809 -0.5163
  953MOL0     C31390   1.105  10.631   1.470  0.5417 -0.7813 -0.2153
  953MOL0     C31391   1.246  10.657   1.409 -0.0821  0.4855 -0.0032
  953MOL0     C31392   1.316  10.788   1.441 -0.0772  0.2994  0.0671
  953MOL0     N31393   1.266  10.902   1.360 -0.2122 -0.8655  0.5685
  953MOL0     C31394   1.344  11.007   1.349  0.0846 -0.3571  0.0293
  953MOL0     C31395   1.283  11.103   1.285  0.3696 -0.2110  0.1371
  953MOL0     C31396   1.344  11.240   1.251 -0.0332  0.1529  0.4807
  953MOL0     C31397   1.328  11.278   1.102  0.5446  1.0041 -0.8053
  953MOL0     C31398   1.368  11.428   1.084 -0.0423  0.6461  0.0826
  953MOL0     C31399   1.359  11.463   0.939 -0.4300 -0.2764  0.1099
  953MOL0     O31400   1.219  11.449   0.895 -0.9674 -1.7976 -0.3813
  953MOL0     C31401   1.209  11.383   0.769 -0.3537 -0.3448 -0.7244
  953MOL0     C31402   1.245  11.453   0.657  0.6154 -0.4883  0.3674
  953MOL0     C31403   1.239  11.396   0.524 -0.1668  0.4382  0.1517
  953MOL0     C31404   1.243  11.494   0.418 -0.9012 -0.4798  0.4064
  953MOL0     C31405   1.209  11.256   0.517 -0.1446  0.0350  0.1072
  953MOL0     C31406   1.204  11.175   0.387 -0.0724 -0.9884 -0.3024
  953MOL0     O31407   1.178  11.041   0.400 -0.3691  0.4732 -0.2321
  953MOL0     C31408   1.166  10.951   0.295 -0.9662  0.2028 -0.0370
  953MOL0     C31409   1.282  10.953   0.210 -0.3662  0.0605  0.1875
  953MOL0     C31410   1.277  10.856   0.110 -0.7700  0.0577  0.4906
  953MOL0     C31411   1.186  10.754   0.104 -0.4134  0.0495  0.5531
  953MOL0     O31412   1.172  10.668  -0.005 -0.9776  0.9537 -0.5740
  953MOL0     C31413   1.290  10.640  -0.091  0.8009  0.2687 -0.1558
  953MOL0     C31414   1.249  10.510  -0.167  0.1472 -0.3245  0.3513
  953MOL0     C31415   1.196  10.391  -0.078 -0.2149  0.3913  0.4713
  953MOL0     C31416   1.288  10.347   0.038  0.2581  0.1778  0.7436
  953MOL0     C31417   1.296  10.194   0.049  0.4417 -0.4127 -0.1851
  953MOL0     C31418   1.428  10.152   0.116  0.8770  0.3350 -0.4109
  953MOL0     C31419   1.419  10.005   0.162 -0.3898 -0.2117 -0.4402
  953MOL0     C31420   1.555   9.938   0.147  0.4322  0.1379  0.4944
  953MOL0    Cl31421   1.592   9.886  -0.018  0.3841  0.0112 -0.0187
  953MOL0     C31422   1.077  10.752   0.195 -0.0155 -1.3139  0.5812
  953MOL0     C31423   1.071  10.851   0.291  0.1438  0.8510  0.3271
  953MOL0     O31424   1.229  11.230   0.286  0.0103 -0.1865  0.4584
  953MOL0     C31425   1.191  11.186   0.635  0.5640 -0.0222 -0.3659
  953MOL0     C31426   1.189  11.253   0.760  0.8327 -0.7356 -0.1489
  953MOL0     N31427   1.156  11.048   1.257  0.4677 -0.1550  0.8589
  953MOL0     N31428   1.147  10.930   1.306 -0.2868  0.9594  0.7663
  953MOL0     C31429   0.474  10.374   0.906 -0.5618 -0.2232 -0.6814
  953MOL0     C31430   0.361  10.291   0.910  1.1186 -1.1251 -0.6898
  953MOL0     C31431   0.112   9.901   0.969  0.0988 -0.6147 -0.6041
  953MOL0     C31432   0.003   9.942   1.038  0.7737  0.5052 -0.6508
  953MOL0     C31433  -0.121   9.884   1.043  0.5797  0.5901 -0.0054
  953MOL0     C31434  -0.130   9.761   0.964  0.3060 -0.5934  0.5034
  953MOL0     O31435  -0.249   9.686   0.964  0.7310  0.2764  0.1569
  953MOL0     C31436  -0.364   9.721   1.047  0.2201  0.8682 -0.2194
  953MOL0     C31437  -0.463   9.601   1.038  0.2276 -0.6184  0.1325
  953MOL0     C31438  -0.409   9.465   1.085  0.5830  0.4882 -0.1499
  953MOL0     C31439  -0.517   9.353   1.112 -0.5426 -0.2683  0.8699
  953MOL0     C31440  -0.629   9.389   1.195  0.1634  0.5372 -0.9247
  953MOL0     C31441  -0.716   9.424   1.273 -0.2943 -0.5616 -0.3253
  953MOL0     C31442  -0.019   9.697   0.916  1.0772 -0.3430  1.6549
  953MOL0     C31443   0.110   9.767   0.913  0.5092  0.1887 -0.5222
  953MOL0     C31444   0.227   9.695   0.846 -0.4663 -0.0308  0.0039
  953MOL0     H31445   0.369  10.209   1.241 -2.9792 -0.2726 -0.7005
  953MOL0     H31446   0.579  10.340   1.225  1.5428  0.8351 -0.3313
  953MOL0     H31447   0.699  10.512   1.204 -0.1323 -1.1817  0.7537
  953MOL0     H31448   0.825  10.563   1.085  0.4415  1.4899  2.5378
  953MOL0     H31449   0.781  10.259   1.149 -1.8832  0.5742 -0.0443
  953MOL0     H31450   0.900  10.330   1.055 -3.2767 -0.2560 -1.3173
  953MOL0     H31451   0.856  10.368   1.368  2.0466  1.7375  0.8758
  953MOL0     H31452   0.946  10.236   1.295 -0.3578  0.0984  2.5062
  953MOL0     H31453   1.125  10.421   1.257  2.3287  2.3399 -0.4200
  953MOL0     H31454   0.983  10.538   1.253  0.8605  0.2369  0.1496
  953MOL0     H31455   1.123  10.415   1.493 -1.2582 -0.8487  0.5977
  953MOL0     H31456   0.970  10.473   1.524 -1.7851 -5.5975 -2.1766
  953MOL0     H31457   1.036  10.698   1.418 -0.8008 -1.3336  0.8217
  953MOL0     H31458   1.110  10.648   1.578  0.5180 -1.3322 -0.1256
  953MOL0     H31459   1.237  10.653   1.300 -0.3106 -0.5031  0.0394
  953MOL0     H31460   1.317  10.579   1.439  3.7854  3.2326 -1.2032
  953MOL0     H31461   1.291  10.794   1.547 -0.0315 -3.7722  0.4671
  953MOL0     H31462   1.425  10.777   1.441 -0.0208  0.8291 -0.0377
  953MOL0     H31463   1.445  11.012   1.389  0.2697 -0.1027 -0.4655
  953MOL0     H31464   1.450  11.239   1.276  1.8382  3.0748 -5.4680
  953MOL0     H31465   1.301  11.322   1.310  0.5520  1.7043 -1.1346
  953MOL0     H31466   1.395  11.203   1.058  0.9393  0.4968  0.6030
  953MOL0     H31467   1.223  11.255   1.087  0.6671  0.0047 -0.2211
  953MOL0     H31468   1.309  11.498   1.144  1.7622  1.8679  0.5571
  953MOL0     H31469   1.470  11.436   1.125 -0.4938 -2.7466  2.2323
  953MOL0     H31470   1.401  11.562   0.919  0.1781 -0.5926 -0.2033
  953MOL0     H31471   1.416  11.386   0.885 -3.7798 -3.3575  0.5364
  953MOL0     H31472   1.278  11.556   0.669  1.6069 -1.0240  2.9027
  953MOL0     H31473   1.226  11.593   0.463 -0.2349 -1.5343  3.1522
  953MOL0     H31474   1.181  11.474   0.330  1.9982 -0.0733 -1.8859
  953MOL0     H31475   1.341  11.505   0.372 -0.8407  1.3638  0.8980
  953MOL0     H31476   1.357  11.032   0.210 -0.8559  0.5360  0.2766
  953MOL0     H31477   1.347  10.865   0.028 -1.3285  1.8561  0.1642
  953MOL0     H31478   1.307  10.722  -0.161 -0.4924  3.3057  2.8074
  953MOL0     H31479   1.373  10.624  -0.021 -0.5252  3.9259  2.5841
  953MOL0     H31480   1.166  10.543  -0.230  2.2304  1.1851 -1.7649
  953MOL0     H31481   1.331  10.481  -0.233 -0.5669  0.1707 -0.7899
  953MOL0     H31482   1.182  10.307  -0.147 -0.3421  0.8418 -0.0607
  953MOL0     H31483   1.100  10.418  -0.034  0.9107  2.3570  1.8278
  953MOL0     H31484   1.252  10.385   0.134  1.3079  2.2601  0.3803
  953MOL0     H31485   1.388  10.389   0.026  0.1874  0.3155  0.6266
  953MOL0     H31486   1.207  10.148   0.094 -0.2176  1.7561  0.8450
  953MOL0     H31487   1.312  10.157  -0.053 -3.3247 -1.3700 -0.5654
  953MOL0     H31488   1.458  10.210   0.205  3.4151  0.8129 -1.4960
  953MOL0     H31489   1.517  10.160   0.053  1.7973  1.8722  0.9764
  953MOL0     H31490   1.349   9.956   0.094  1.9388 -1.9740 -1.6823
  953MOL0     H31491   1.391  10.000   0.268  2.0711 -2.4345  0.1936
  953MOL0     H31492   1.563   9.848   0.209  4.2256 -1.1281 -1.4836
  953MOL0     H31493   1.636  10.002   0.183  1.3254 -1.3662  1.2650
  953MOL0     H31494   1.003  10.673   0.184 -2.7532  1.1816 -0.0037
  953MOL0     H31495   0.991  10.844   0.364 -0.9685 -1.5207 -0.9774
  953MOL0     H31496   1.172  11.079   0.643  3.4281 -0.4193  2.8902
  953MOL0     H31497   1.163  11.199   0.851  1.3335  1.4775  1.3989
  953MOL0     H31498   0.505  10.426   0.817  0.4821 -0.1322 -0.2744
  953MOL0     H31499   0.297  10.282   0.822 -3.1702 -0.8645  2.1071
  953MOL0     H31500   0.004  10.045   1.073  0.1272  0.5547 -0.7633
  953MOL0     H31501  -0.207   9.937   1.083  2.7010  3.8580  0.6841
  953MOL0     H31502  -0.334   9.735   1.152  0.3931 -0.3324 -0.0950
  953MOL0     H31503  -0.403   9.811   0.998  1.3613  2.4397  1.5780
  953MOL0     H31504  -0.508   9.599   0.939 -0.8605  0.0288  0.5970
  953MOL0     H31505  -0.551   9.628   1.097 -0.0523  3.3070 -1.7552
  953MOL0     H31506  -0.325   9.436   1.021  0.5129 -1.4147  0.5486
  953MOL0     H31507  -0.360   9.484   1.181  3.0658 -1.4781 -0.9147
  953MOL0     H31508  -0.463   9.270   1.158 -0.4465 -0.4022  0.5219
  953MOL0     H31509  -0.557   9.307   1.021 -2.4272  0.1966  1.4110
  953MOL0     H31510  -0.797   9.457   1.334 -0.7726  4.1791 -3.0255
  953MOL0     H31511  -0.029   9.600   0.869  1.9041  1.2257 -2.0980
  953MOL0     H31512   0.280   9.757   0.773 -0.5238 -0.4446 -0.4015
  953MOL0     H31513   0.298   9.653   0.919  0.5226 -0.3536 -1.1090
  953MOL0     H31514   0.194   9.604   0.794  0.9335  0.0634 -1.1330
  954MOL0     O31515   8.600   2.185  11.172  0.2182  0.1465 -0.8159
  954MOL0     C31516   8.720   2.203  11.159 -0.5175 -0.5107  0.5703
  954MOL0     O31517   8.808   2.246  11.263 -0.6426  0.2859  0.2147
  954MOL0     C31518   8.780   2.191  11.387 -0.6825  0.2560  0.8132
  954MOL0     C31519   8.817   2.058  11.434  0.2947  0.1015  0.7956
  954MOL0     C31520   8.811   2.024  11.568  2.0409  0.6369 -1.0978
  954MOL0     C31521   8.768   2.117  11.672 -0.5503  1.2945 -0.2170
  954MOL0     O31522   8.766   2.094  11.806 -0.2398 -0.0955  0.5641
  954MOL0     C31523   8.719   1.965  11.868  0.5931 -0.2019  0.3965
  954MOL0     C31524   8.694   1.979  12.013  0.2498 -0.5572 -0.2132
  954MOL0     C31525   8.545   1.948  12.056  1.1033  0.0857  0.6587
  954MOL0     C31526   8.531   1.978  12.204  0.3330  0.6771 -0.7020
  954MOL0     C31527   8.408   1.925  12.285 -0.6617  0.3021 -0.5715
  954MOL0     C31528   8.291   2.013  12.246 -0.8401  0.9953 -0.3179
  954MOL0     C31529   8.189   2.006  12.360  0.6149  0.7650 -0.4658
  954MOL0     C31530   8.070   2.091  12.311 -0.3178  0.2677 -0.2001
  954MOL0     N31531   8.107   2.225  12.281  0.4319  0.2580  0.5494
  954MOL0     C31532   8.148   2.295  12.394  0.1398 -0.0108  0.4072
  954MOL0     C31533   8.136   2.424  12.349  0.7920  0.5602 -0.8904
  954MOL0     C31534   8.165   2.551  12.430  0.6112  0.6622  0.1872
  954MOL0     C31535   8.039   2.639  12.458 -1.2593 -0.1802  0.9150
  954MOL0     C31536   7.991   2.704  12.332  0.7743 -0.5387  0.2414
  954MOL0     C31537   7.863   2.775  12.361 -0.3949 -0.7436 -0.2965
  954MOL0     O31538   7.839   2.860  12.246 -0.0601 -0.0285 -0.0200
  954MOL0     C31539   7.745   2.961  12.247 -0.3818  0.1514 -0.8058
  954MOL0     C31540   7.663   2.993  12.361 -0.4464  0.5271  0.1951
  954MOL0     C31541   7.561   3.084  12.350 -0.0617  0.3921  0.0364
  954MOL0     C31542   7.465   3.084  12.469  0.0223 -0.8092  0.2555
  954MOL0     C31543   7.550   3.157  12.225  0.1836 -0.0250 -1.8094
  954MOL0     C31544   7.441   3.265  12.205  0.2252  0.5021  0.5074
  954MOL0     O31545   7.407   3.289  12.074 -0.4649 -0.6483  1.3641
  954MOL0     C31546   7.281   3.321  12.062  0.3416  0.4153 -0.4143
  954MOL0     C31547   7.224   3.442  12.090  0.6726 -0.0465 -0.3720
  954MOL0     C31548   7.088   3.465  12.062  0.7811 -0.3545  0.2594
  954MOL0     C31549   6.999   3.364  12.025  0.0389 -0.0800  0.1015
  954MOL0     O31550   6.865   3.367  11.992  0.8895  0.4285 -0.2370
  954MOL0     C31551   6.790   3.481  11.957  0.5663  0.5815 -0.0634
  954MOL0     C31552   6.795   3.505  11.808 -0.0220 -0.2319 -0.4408
  954MOL0     C31553   6.687   3.433  11.736 -0.7753 -0.1406 -0.2005
  954MOL0     C31554   6.742   3.416  11.593 -0.8040  0.3992 -0.1887
  954MOL0     C31555   6.645   3.337  11.500  0.2457  0.4050 -0.2755
  954MOL0     C31556   6.714   3.321  11.364 -0.1172 -0.9138 -0.1224
  954MOL0     C31557   6.633   3.239  11.273  0.1786  0.6714  0.2614
  954MOL0     C31558   6.502   3.296  11.207  0.5353  0.4729 -0.6355
  954MOL0    Cl31559   6.551   3.451  11.115  0.0726 -0.4362  0.0307
  954MOL0     C31560   7.057   3.240  12.004 -0.4116 -0.1826 -0.3578
  954MOL0     C31561   7.195   3.221  12.020 -0.8761  0.2603 -0.9719
  954MOL0     O31562   7.394   3.327  12.295 -0.1026  0.0780 -0.0189
  954MOL0     C31563   7.639   3.125  12.115  0.7256 -0.7808 -0.1143
  954MOL0     C31564   7.725   3.025  12.126 -0.4499  0.3760 -0.1680
  954MOL0     N31565   8.085   2.430  12.221 -1.0721  0.3212  0.0442
  954MOL0     N31566   8.068   2.315  12.180 -0.9115  0.2069  0.7381
  954MOL0     C31567   8.745   2.240  11.625  0.1239 -0.3958 -0.1835
  954MOL0     C31568   8.741   2.279  11.494 -0.5499  0.7130  0.3582
  954MOL0     C31569   8.763   2.210  11.017  0.9105 -0.1820 -0.3482
  954MOL0     C31570   8.880   2.284  10.993 -0.1293 -0.2002  0.1033
  954MOL0     C31571   8.915   2.314  10.861  0.0052  0.1792  0.6014
  954MOL0     C31572   8.854   2.259  10.748 -0.1190 -0.1091  0.4395
  954MOL0     O31573   8.910   2.274  10.623  0.5277 -0.4491  0.0858
  954MOL0     C31574   8.847   2.205  10.514 -0.6248  0.1475 -0.5053
  954MOL0     C31575   8.875   2.278  10.382  0.3956 -0.3000 -0.2043
  954MOL0     C31576   8.889   2.431  10.380  0.4993 -0.0478 -0.7991
  954MOL0     C31577   8.762   2.493  10.454  0.0926  0.2066  0.1181
  954MOL0     C31578   8.764   2.640  10.452 -0.1640  0.0380  0.2867
  954MOL0     C31579   8.776   2.764  10.450  0.1955 -0.6596  0.3273
  954MOL0     C31580   8.759   2.166  10.780 -1.0382  0.5186  0.2629
  954MOL0     C31581   8.705   2.150  10.905  0.0849  0.6673 -0.4688
  954MOL0     C31582   8.588   2.047  10.910  0.1679  0.9454 -0.1133
  954MOL0     H31583   8.862   1.981  11.371 -0.5763  0.0646  0.1905
  954MOL0     H31584   8.832   1.936  11.628 -2.1268  2.7738  4.4514
  954MOL0     H31585   8.804   1.897  11.854  0.9956  0.4794 -0.5954
  954MOL0     H31586   8.638   1.922  11.808 -0.5912 -0.5712  2.1840
  954MOL0     H31587   8.765   1.914  12.064  0.0322 -1.3220 -0.8593
  954MOL0     H31588   8.734   2.074  12.049  2.4256 -1.6702  0.5212
  954MOL0     H31589   8.469   2.008  12.005  3.2699  1.4009 -1.2397
  954MOL0     H31590   8.529   1.841  12.040  2.8190 -0.2600  1.0629
  954MOL0     H31591   8.619   1.940  12.257  0.5346 -0.9666 -2.1232
  954MOL0     H31592   8.544   2.085  12.223  1.3289  0.2174  1.5380
  954MOL0     H31593   8.441   1.927  12.390  0.4326  3.8564 -0.8276
  954MOL0     H31594   8.378   1.823  12.261 -2.0673  0.1521  1.6156
  954MOL0     H31595   8.314   2.119  12.237 -1.8828  1.1210 -2.0255
  954MOL0     H31596   8.263   1.980  12.145 -0.7779  0.6787 -0.2343
  954MOL0     H31597   8.234   2.045  12.451  3.8334  1.4625 -2.2036
  954MOL0     H31598   8.167   1.899  12.369  1.5741  0.7448  2.7518
  954MOL0     H31599   8.037   2.060  12.212  0.6264 -1.5015 -0.0067
  954MOL0     H31600   7.988   2.072  12.382 -0.3361 -1.2548 -0.5880
  954MOL0     H31601   8.184   2.259  12.491  0.8516  0.8296  0.4702
  954MOL0     H31602   8.235   2.617  12.377  1.5543 -0.7478 -0.3774
  954MOL0     H31603   8.200   2.511  12.526  0.5448 -2.0989 -0.8561
  954MOL0     H31604   7.958   2.586  12.509 -2.7870  2.9461  1.9904
  954MOL0     H31605   8.067   2.715  12.532 -0.4200 -1.7130  2.2379
  954MOL0     H31606   8.056   2.780  12.288 -0.0022 -1.4648 -2.7457
  954MOL0     H31607   7.969   2.618  12.268  2.3062  0.8874 -2.4053
  954MOL0     H31608   7.777   2.709  12.377 -2.5025  2.1039  1.0080
  954MOL0     H31609   7.868   2.834  12.453  0.6551 -1.0930 -0.1217
  954MOL0     H31610   7.665   2.933  12.452 -1.3576  0.3195  0.0829
  954MOL0     H31611   7.532   3.116  12.550  0.3168  1.6623 -0.8653
  954MOL0     H31612   7.418   2.987  12.489 -4.1876  1.0767  0.5157
  954MOL0     H31613   7.387   3.159  12.454  2.6332  2.9400  3.0953
  954MOL0     H31614   7.291   3.521  12.121 -1.0237  1.3304 -0.0611
  954MOL0     H31615   7.056   3.568  12.073  0.0391 -0.4369 -0.9326
  954MOL0     H31616   6.686   3.475  11.991  1.3542 -2.7075  2.3899
  954MOL0     H31617   6.833   3.565  12.012 -0.0527  0.9553 -0.1465
  954MOL0     H31618   6.774   3.611  11.791 -0.8111 -0.2462  0.3147
  954MOL0     H31619   6.897   3.481  11.777  0.3418  2.2522 -1.4014
  954MOL0     H31620   6.598   3.494  11.722 -2.7605 -3.3543 -3.5247
  954MOL0     H31621   6.654   3.340  11.782 -4.1914  1.1261  0.1633
  954MOL0     H31622   6.829   3.350  11.602 -3.1848 -2.7704  1.5234
  954MOL0     H31623   6.769   3.509  11.543 -3.3623  0.6431 -1.2704
  954MOL0     H31624   6.643   3.241  11.552  0.5558  1.9479  2.8348
  954MOL0     H31625   6.549   3.389  11.497  1.0975  2.0187 -1.2975
  954MOL0     H31626   6.797   3.255  11.388 -1.3883 -2.6989 -0.3805
  954MOL0     H31627   6.750   3.410  11.311  0.3673 -2.1971 -2.0640
  954MOL0     H31628   6.601   3.144  11.318 -2.6475  0.5202 -1.8067
  954MOL0     H31629   6.696   3.212  11.187 -0.7560 -1.2203  0.1135
  954MOL0     H31630   6.444   3.317  11.297  4.2462 -0.3634  2.2442
  954MOL0     H31631   6.447   3.221  11.150 -0.8366  0.7546  0.2786
  954MOL0     H31632   6.996   3.157  11.969  0.0935 -0.9715  0.5784
  954MOL0     H31633   7.242   3.125  12.000  0.4770  1.1997 -2.5740
  954MOL0     H31634   7.644   3.185  12.025 -2.2525  0.1718  0.2590
  954MOL0     H31635   7.783   2.987  12.043  3.5198  2.7918  1.2539
  954MOL0     H31636   8.718   2.324  11.690 -4.9402 -3.8985  3.0083
  954MOL0     H31637   8.729   2.381  11.458  2.6038  0.2523 -2.4543
  954MOL0     H31638   8.932   2.350  11.062  0.0608  0.9553 -1.0960
  954MOL0     H31639   8.991   2.390  10.844  1.2263 -1.3956 -1.4045
  954MOL0     H31640   8.890   2.105  10.526 -0.4956  0.4794  2.5807
  954MOL0     H31641   8.739   2.192  10.518 -0.5664 -0.9153 -1.7435
  954MOL0     H31642   8.808   2.248  10.300 -0.8238  0.4948  0.4758
  954MOL0     H31643   8.972   2.252  10.340 -1.5923 -1.4649 -4.7736
  954MOL0     H31644   8.983   2.461  10.425 -0.3503 -0.1415  1.1435
  954MOL0     H31645   8.887   2.461  10.275 -0.3001 -0.0987 -0.8104
  954MOL0     H31646   8.758   2.465  10.559 -0.4551  1.1403  0.3596
  954MOL0     H31647   8.671   2.452  10.408  0.9241 -1.2069 -0.3383
  954MOL0     H31648   8.779   2.871  10.451 -4.7246 -0.2500 -0.8807
  954MOL0     H31649   8.723   2.091  10.710  0.1274 -1.7143  1.9494
  954MOL0     H31650   8.527   2.041  11.001  0.6021 -3.4593  0.0607
  954MOL0     H31651   8.517   2.061  10.828  0.3943 -0.2681 -0.5262
  954MOL0     H31652   8.632   1.947  10.905 -3.2433 -0.6347 -2.3462
  955MOL0     O31653   5.458   6.783   8.701 -0.1940  0.4016 -0.3402
  955MOL0     C31654   5.536   6.757   8.614 -0.5517  1.2757 -0.8483
  955MOL0     O31655   5.653   6.678   8.638  0.3147  0.6668  0.6651
  955MOL0     C31656   5.669   6.598   8.742 -0.1493  0.0392 -0.4459
  955MOL0     C31657   5.685   6.659   8.866  0.4910  0.5218  0.7028
  955MOL0     C31658   5.677   6.583   8.986 -0.3865  0.2077 -0.5786
  955MOL0     C31659   5.685   6.441   8.985  0.9239  0.0175  0.0680
  955MOL0     O31660   5.711   6.363   9.103 -0.1629 -0.1752  0.6255
  955MOL0     C31661   5.775   6.226   9.092 -0.7315 -0.3623 -0.6192
  955MOL0     C31662   5.854   6.182   9.234  0.5033  0.8442  0.9944
  955MOL0     C31663   5.754   6.219   9.342  0.1785  1.4321  0.3088
  955MOL0     C31664   5.799   6.155   9.472 -0.8877  0.1128  0.6891
  955MOL0     C31665   5.709   6.219   9.581  0.5068 -0.6880 -0.7639
  955MOL0     C31666   5.737   6.184   9.731  0.4479 -0.0434 -0.8534
  955MOL0     C31667   5.732   6.036   9.749  0.7395 -0.2083  0.1333
  955MOL0     C31668   5.785   5.986   9.880  0.3358  0.2353 -0.0709
  955MOL0     N31669   5.807   5.839   9.879  0.6298  0.3108  0.5203
  955MOL0     C31670   5.935   5.787   9.880  0.7912  0.0233  0.7705
  955MOL0     C31671   5.908   5.649   9.879  0.4823  0.0191  0.8473
  955MOL0     C31672   6.019   5.544   9.878 -0.4614 -0.1032  0.8682
  955MOL0     C31673   6.064   5.518  10.020  0.2905  1.2071 -0.6787
  955MOL0     C31674   5.994   5.415  10.109  0.2376 -1.0578  0.6095
  955MOL0     C31675   5.996   5.267  10.054  0.3939 -0.7417  0.0515
  955MOL0     O31676   6.130   5.247  10.002  0.0910 -0.4586 -0.0283
  955MOL0     C31677   6.155   5.125   9.938 -0.3506  0.1971  0.1016
  955MOL0     C31678   6.062   5.016   9.943  1.1981  0.7258  0.8134
  955MOL0     C31679   6.089   4.897   9.876 -0.3543  0.3242 -0.1318
  955MOL0     C31680   5.985   4.777   9.887  0.0061  0.6792 -1.0868
  955MOL0     C31681   6.210   4.873   9.804  0.0493 -0.4837 -0.1925
  955MOL0     C31682   6.246   4.749   9.745 -0.5025 -0.7621  0.8377
  955MOL0     O31683   6.145   4.683   9.685  0.0000 -0.2446  0.1625
  955MOL0     C31684   6.152   4.562   9.623  0.1446  0.3841  0.7661
  955MOL0     C31685   6.266   4.486   9.597 -0.9238  0.7292  0.6446
  955MOL0     C31686   6.260   4.360   9.557 -0.3951 -0.1627 -0.6341
  955MOL0     C31687   6.142   4.299   9.514  0.3650 -0.0614  0.4920
  955MOL0     O31688   6.119   4.176   9.449  0.0453 -0.1094  0.4825
  955MOL0     C31689   6.213   4.076   9.472  0.1460  0.0756 -0.1529
  955MOL0     C31690   6.177   3.940   9.401  0.2390  0.0637  0.0160
  955MOL0     C31691   6.294   3.842   9.423  0.0504 -0.3200 -0.7209
  955MOL0     C31692   6.385   3.872   9.544  0.1587 -1.0210 -0.2873
  955MOL0     C31693   6.474   3.750   9.569 -0.0258  0.4877  0.0538
  955MOL0     C31694   6.574   3.768   9.692  0.9049  0.0564 -0.4905
  955MOL0     C31695   6.666   3.665   9.747  0.5330 -0.1373 -0.1686
  955MOL0     C31696   6.760   3.727   9.845  1.3953  1.0790  0.0358
  955MOL0    Cl31697   6.907   3.619   9.860  0.3516 -0.2770 -0.6529
  955MOL0     C31698   6.030   4.370   9.532  0.0881 -0.7047  0.3189
  955MOL0     C31699   6.035   4.500   9.589  0.4472  0.7313 -0.1279
  955MOL0     O31700   6.368   4.731   9.731 -0.1467  0.3815 -0.6621
  955MOL0     C31701   6.307   4.979   9.811 -0.0678  0.4426  0.4136
  955MOL0     C31702   6.281   5.096   9.878  0.6884 -0.5948  0.0717
  955MOL0     N31703   5.765   5.626   9.864  0.0519 -0.0381 -1.3534
  955MOL0     N31704   5.713   5.739   9.872  0.5915 -0.0962  0.2914
  955MOL0     C31705   5.690   6.384   8.853 -1.0754  0.5062 -0.2854
  955MOL0     C31706   5.687   6.464   8.731  0.3799  0.6601 -0.3106
  955MOL0     C31707   5.521   6.831   8.490  0.1773 -0.1446  1.0203
  955MOL0     C31708   5.387   6.846   8.452  0.3224  0.1222  1.0985
  955MOL0     C31709   5.364   6.880   8.317  0.0049 -0.1383 -0.4891
  955MOL0     C31710   5.459   6.923   8.237 -0.4828  0.6342 -0.4649
  955MOL0     O31711   5.422   6.970   8.112  0.3221  0.3366 -1.2649
  955MOL0     C31712   5.518   7.003   8.019  0.1702  0.1308 -0.5177
  955MOL0     C31713   5.453   6.992   7.878  0.5787  0.0967 -0.0360
  955MOL0     C31714   5.448   6.851   7.842  0.4988  0.6403  1.4687
  955MOL0     C31715   5.377   6.840   7.698  0.2789  0.6720  0.5611
  955MOL0     C31716   5.340   6.694   7.683 -0.6480 -1.5381 -0.2012
  955MOL0     C31717   5.287   6.580   7.668  0.0035 -0.4680 -0.2321
  955MOL0     C31718   5.586   6.921   8.276 -0.4814 -0.0975 -0.2064
  955MOL0     C31719   5.624   6.875   8.407  0.1625 -0.4058 -0.2920
  955MOL0     C31720   5.769   6.859   8.440 -0.1231 -0.3362  0.3961
  955MOL0     H31721   5.677   6.767   8.879  1.3532  0.4884  1.6586
  955MOL0     H31722   5.688   6.630   9.084 -1.7491  0.9327 -0.7524
  955MOL0     H31723   5.851   6.231   9.014  3.0839 -0.2775  2.7269
  955MOL0     H31724   5.694   6.159   9.063  0.2080 -0.6027 -2.8396
  955MOL0     H31725   5.876   6.076   9.218 -1.6237  0.3489  1.0473
  955MOL0     H31726   5.943   6.244   9.240 -1.9370  5.0947 -1.8113
  955MOL0     H31727   5.744   6.328   9.345 -2.4844  1.2100  2.1600
  955MOL0     H31728   5.657   6.179   9.310 -1.0111  2.6727  2.2104
  955MOL0     H31729   5.781   6.048   9.463  2.8452 -0.5970  0.3099
  955MOL0     H31730   5.905   6.171   9.494 -1.2417 -1.3127  3.8378
  955MOL0     H31731   5.613   6.181   9.547  0.6720 -0.1006 -1.9576
  955MOL0     H31732   5.713   6.328   9.570  0.5332 -0.5982  0.0417
  955MOL0     H31733   5.836   6.224   9.756 -0.0447 -0.2491  1.6619
  955MOL0     H31734   5.665   6.235   9.795  1.8308 -5.0219  5.6013
  955MOL0     H31735   5.760   5.974   9.663 -2.6003  0.2404 -1.4553
  955MOL0     H31736   5.624   6.017   9.753  0.5185  0.9859  0.3125
  955MOL0     H31737   5.884   6.022   9.912 -1.2884  2.3755  3.0886
  955MOL0     H31738   5.724   6.022   9.963  0.7844  2.1173 -0.5205
  955MOL0     H31739   6.034   5.829   9.862  0.8444  0.1283  1.2994
  955MOL0     H31740   6.102   5.599   9.832 -1.6047 -0.2863 -1.5715
  955MOL0     H31741   5.997   5.449   9.829  2.8138 -0.3251 -0.4099
  955MOL0     H31742   6.165   5.476  10.010 -1.5700 -4.0461 -0.7552
  955MOL0     H31743   6.068   5.612  10.074 -0.5391  0.0829  1.4797
  955MOL0     H31744   6.030   5.419  10.212 -0.3705 -1.4260  0.8374
  955MOL0     H31745   5.887   5.435  10.117  0.3485  0.5933 -1.2684
  955MOL0     H31746   5.984   5.195  10.136 -1.1693  0.0433  0.5504
  955MOL0     H31747   5.916   5.262   9.979  0.2469  1.1079  0.0452
  955MOL0     H31748   5.972   5.027  10.004 -0.6406 -1.1192 -1.3925
  955MOL0     H31749   5.930   4.742   9.799 -0.4877 -0.7533 -0.2454
  955MOL0     H31750   5.911   4.791   9.966 -0.3470  4.5069 -1.9054
  955MOL0     H31751   6.031   4.679   9.907 -3.0733 -0.8791 -1.0119
  955MOL0     H31752   6.368   4.513   9.622  0.6490 -3.3218 -0.5386
  955MOL0     H31753   6.355   4.308   9.553  2.9466  4.4285  4.5736
  955MOL0     H31754   6.309   4.114   9.435 -1.3766 -0.2791 -5.3770
  955MOL0     H31755   6.216   4.041   9.575 -1.0776 -1.4961 -0.6078
  955MOL0     H31756   6.091   3.905   9.458 -1.8215 -1.3138 -3.6470
  955MOL0     H31757   6.141   3.948   9.298 -0.2255  3.5058  0.3374
  955MOL0     H31758   6.353   3.839   9.331  1.6695  2.1972  0.1317
  955MOL0     H31759   6.250   3.742   9.434  1.9233 -1.2567 -1.2700
  955MOL0     H31760   6.322   3.886   9.632  1.7325  2.4976  0.4531
  955MOL0     H31761   6.438   3.965   9.520  1.6721 -1.5033  1.0933
  955MOL0     H31762   6.400   3.673   9.592  0.3613 -0.8295 -2.7942
  955MOL0     H31763   6.530   3.720   9.480  0.6595  0.0089  0.6361
  955MOL0     H31764   6.521   3.792   9.785 -0.0182 -0.9118 -0.7597
  955MOL0     H31765   6.634   3.855   9.661  0.9217  0.2723  0.1308
  955MOL0     H31766   6.727   3.639   9.660 -2.4672 -1.4729 -2.0208
  955MOL0     H31767   6.617   3.577   9.790 -0.7816  0.3643 -0.5859
  955MOL0     H31768   6.705   3.742   9.938 -2.2022 -3.5469 -0.9534
  955MOL0     H31769   6.794   3.825   9.810 -1.0781  1.1284 -2.6217
  955MOL0     H31770   5.938   4.335   9.486  1.0651 -1.6959 -0.9617
  955MOL0     H31771   5.941   4.552   9.607  2.0530  3.3840  1.1679
  955MOL0     H31772   6.401   4.961   9.758 -1.0005  2.6574 -2.2519
  955MOL0     H31773   6.358   5.171   9.893  0.5719 -0.0045 -2.0359
  955MOL0     H31774   5.720   6.282   8.831 -1.2587 -0.0177  1.6912
  955MOL0     H31775   5.680   6.407   8.639  0.9976  0.8719 -0.4917
  955MOL0     H31776   5.300   6.814   8.509 -1.4838  0.6891 -1.1699
  955MOL0     H31777   5.261   6.888   8.285 -0.3292  4.8023  1.0017
  955MOL0     H31778   5.550   7.105   8.041 -0.6062  0.7172 -1.9595
  955MOL0     H31779   5.611   6.945   8.020  0.2031  0.1703  1.3686
  955MOL0     H31780   5.509   7.047   7.802  0.2125 -1.6196 -1.6350
  955MOL0     H31781   5.350   7.024   7.862  0.0261 -2.0964 -1.4316
  955MOL0     H31782   5.548   6.806   7.828  0.4844  1.1916 -0.7318
  955MOL0     H31783   5.380   6.801   7.911 -0.8098  1.6016  0.9066
  955MOL0     H31784   5.442   6.878   7.620 -1.8897 -0.7491 -2.1122
  955MOL0     H31785   5.283   6.896   7.685 -0.9452 -1.0804  1.4241
  955MOL0     H31786   5.231   6.490   7.651 -0.9402  0.5802 -3.3940
  955MOL0     H31787   5.667   6.964   8.219  0.3216  0.9513  1.6381
  955MOL0     H31788   5.794   6.916   8.530 -1.3669 -2.8927  2.5219
  955MOL0     H31789   5.780   6.750   8.443  1.0497 -0.4018 -2.8175
  955MOL0     H31790   5.837   6.898   8.364 -0.1846 -2.2796 -0.7245
  956MOL0     O31791   4.159   3.846   8.519  1.0113 -0.7739  0.3115
  956MOL0     C31792   4.228   3.899   8.607  0.9578  0.1519 -0.3493
  956MOL0     O31793   4.222   4.022   8.647 -0.0628 -0.2474  0.3827
  956MOL0     C31794   4.137   4.125   8.600  0.2351  0.3145  0.8597
  956MOL0     C31795   4.004   4.088   8.555 -1.6051  0.9597  0.8591
  956MOL0     C31796   3.917   4.189   8.513 -0.1048  1.8226 -1.0065
  956MOL0     C31797   3.951   4.312   8.507 -0.1432 -0.4622  0.6497
  956MOL0     O31798   3.860   4.409   8.456  0.3050  0.8694 -0.4122
  956MOL0     C31799   3.889   4.542   8.466  0.1297  0.4550 -0.1608
  956MOL0     C31800   3.758   4.625   8.438  0.3212  0.5263  0.3813
  956MOL0     C31801   3.754   4.767   8.508 -0.7349  0.2729  0.5093
  956MOL0     C31802   3.741   4.762   8.659  0.5000 -0.6320  0.6898
  956MOL0     C31803   3.768   4.905   8.710  0.1415  0.5441  0.3533
  956MOL0     C31804   3.772   4.911   8.863 -0.5244  0.2227 -0.4888
  956MOL0     C31805   3.624   4.947   8.916 -0.4789 -0.3742 -0.7773
  956MOL0     C31806   3.599   5.100   8.883  0.3070  1.3114  0.1752
  956MOL0     N31807   3.477   5.161   8.940 -0.2040 -0.2750 -0.7201
  956MOL0     C31808   3.362   5.150   8.871  0.1749  0.7303 -0.9359
  956MOL0     C31809   3.287   5.244   8.932 -0.3740 -1.0857  0.5636
  956MOL0     C31810   3.145   5.290   8.890  0.0187  0.2000  0.6374
  956MOL0     C31811   3.052   5.335   8.995 -0.2114 -0.0535 -0.1558
  956MOL0     C31812   2.966   5.214   9.039  0.2231  0.4623 -0.0077
  956MOL0     C31813   3.046   5.082   9.080 -0.4314 -0.7003 -0.6851
  956MOL0     O31814   3.063   4.999   8.970  1.0276 -0.1784  0.2981
  956MOL0     C31815   3.165   4.895   8.978 -0.3122  0.3069  0.1279
  956MOL0     C31816   3.175   4.807   8.874 -0.3077 -0.6393  0.3523
  956MOL0     C31817   3.272   4.707   8.867  0.1719  0.9189  0.3484
  956MOL0     C31818   3.268   4.607   8.759 -0.3381 -0.7693 -0.0225
  956MOL0     C31819   3.364   4.691   8.969 -0.2955 -0.5315  0.6320
  956MOL0     C31820   3.472   4.596   8.984 -0.3677 -0.9386  0.3158
  956MOL0     O31821   3.568   4.619   9.081  1.0025 -0.7529 -0.1927
  956MOL0     C31822   3.670   4.526   9.074  0.4321 -1.4043  1.6169
  956MOL0     C31823   3.734   4.498   8.952  0.2297 -0.0410 -0.2024
  956MOL0     C31824   3.832   4.397   8.965 -0.7072 -0.5751  1.0283
  956MOL0     C31825   3.864   4.326   9.078 -1.0444 -0.7797 -0.0315
  956MOL0     O31826   3.971   4.244   9.084 -0.3454 -0.7525  0.5482
  956MOL0     C31827   3.944   4.109   9.071  0.7210  1.6879  0.6579
  956MOL0     C31828   3.971   4.077   8.921  0.3288  0.9644  0.3674
  956MOL0     C31829   3.954   3.926   8.897 -0.0440  0.4102 -0.3704
  956MOL0     C31830   4.041   3.825   8.981  0.9747 -0.1615  0.4080
  956MOL0     C31831   4.011   3.672   8.923 -0.1048 -0.8816 -0.5706
  956MOL0     C31832   4.074   3.544   8.978 -0.2175 -0.3941  0.1809
  956MOL0     C31833   3.989   3.426   8.927  0.6529 -0.1350 -0.1979
  956MOL0     C31834   4.016   3.292   9.003  1.1384 -0.4376  0.5058
  956MOL0    Cl31835   3.914   3.298   9.149 -0.0123  0.3420  0.5203
  956MOL0     C31836   3.808   4.376   9.193  0.0497  0.4028  0.0152
  956MOL0     C31837   3.720   4.475   9.186  0.3362  0.4470  0.3002
  956MOL0     O31838   3.463   4.494   8.921  0.0627  1.5589 -0.5120
  956MOL0     C31839   3.341   4.777   9.086  0.1468  0.6525 -0.2620
  956MOL0     C31840   3.246   4.875   9.086  0.7888  1.3801  0.0488
  956MOL0     N31841   3.360   5.302   9.038 -0.2961  0.8032  0.1462
  956MOL0     N31842   3.482   5.258   9.036  0.8901  0.1216  0.1694
  956MOL0     C31843   4.083   4.345   8.561  0.3954 -0.9011 -0.5670
  956MOL0     C31844   4.175   4.253   8.609  0.7514 -0.0158  0.6141
  956MOL0     C31845   4.339   3.814   8.661  0.3506  0.0804 -0.4937
  956MOL0     C31846   4.336   3.677   8.654  0.8477 -0.4620  0.9325
  956MOL0     C31847   4.414   3.597   8.727 -0.3197  0.6092 -0.7096
  956MOL0     C31848   4.518   3.643   8.808  0.3777 -0.3149 -0.8102
  956MOL0     O31849   4.620   3.559   8.854 -0.2038 -0.1392  0.4538
  956MOL0     C31850   4.606   3.418   8.850  1.2247  0.1062 -0.6862
  956MOL0     C31851   4.734   3.350   8.891  1.0055  0.0587 -0.0825
  956MOL0     C31852   4.785   3.394   9.024  0.6076  0.2039  0.3176
  956MOL0     C31853   4.860   3.288   9.103  0.2532  0.3788 -0.5913
  956MOL0     C31854   4.877   3.325   9.242 -0.2295 -0.5021  0.2663
  956MOL0     C31855   4.882   3.331   9.358 -0.6704  1.1367 -0.4716
  956MOL0     C31856   4.528   3.780   8.825  0.1472  0.2961  0.0755
  956MOL0     C31857   4.446   3.868   8.742  0.2529  0.1685 -0.6107
  956MOL0     C31858   4.475   4.014   8.757 -0.1636 -0.2287  0.4345
  956MOL0     H31859   3.969   3.985   8.547 -2.5049  1.1825  1.6290
  956MOL0     H31860   3.824   4.150   8.471  0.6856 -0.7560 -0.5352
  956MOL0     H31861   3.964   4.571   8.391  1.9905  0.7220  1.6988
  956MOL0     H31862   3.925   4.576   8.564 -2.2863 -2.6045  1.9841
  956MOL0     H31863   3.726   4.645   8.335 -2.2792 -1.0432  0.7670
  956MOL0     H31864   3.669   4.572   8.474  0.5052 -0.0081  0.0623
  956MOL0     H31865   3.849   4.811   8.477 -1.6611  1.3356 -0.9075
  956MOL0     H31866   3.680   4.832   8.460 -2.5879 -1.8868  0.2512
  956MOL0     H31867   3.638   4.744   8.690  0.5992 -1.5358  0.5206
  956MOL0     H31868   3.810   4.691   8.706 -0.6011 -0.5136  2.6051
  956MOL0     H31869   3.689   4.961   8.659  0.3505  2.6143  2.1852
  956MOL0     H31870   3.863   4.930   8.662 -0.2471  1.2320 -0.0787
  956MOL0     H31871   3.796   4.810   8.899  2.0716  1.5157  1.8154
  956MOL0     H31872   3.845   4.981   8.904 -0.6281  1.1695 -1.8698
  956MOL0     H31873   3.636   4.930   9.024  0.5599 -0.7767 -0.9455
  956MOL0     H31874   3.554   4.872   8.881  0.0257 -1.6215  0.7380
  956MOL0     H31875   3.682   5.163   8.917  0.4009  0.1078  2.3887
  956MOL0     H31876   3.600   5.099   8.774 -0.9616 -3.4812 -0.0390
  956MOL0     H31877   3.333   5.087   8.787 -1.1004  0.2970 -0.2075
  956MOL0     H31878   3.091   5.213   8.834 -1.6540  1.9875 -0.3584
  956MOL0     H31879   3.156   5.380   8.829 -1.0345 -1.1751 -1.7363
  956MOL0     H31880   3.113   5.372   9.078 -2.5155  0.6548  1.3248
  956MOL0     H31881   2.981   5.414   8.969 -1.7351  0.4478  4.6023
  956MOL0     H31882   2.891   5.244   9.112 -1.0988 -1.6443 -0.4184
  956MOL0     H31883   2.898   5.198   8.954 -1.2853 -1.9500  1.5580
  956MOL0     H31884   3.144   5.116   9.117 -0.2304 -0.0056 -1.8075
  956MOL0     H31885   2.981   5.041   9.158 -2.0242  0.5960 -1.2945
  956MOL0     H31886   3.109   4.814   8.788  1.5280 -5.0161 -1.7152
  956MOL0     H31887   3.368   4.601   8.714 -0.7553  0.8301 -1.2487
  956MOL0     H31888   3.204   4.642   8.678  0.6679  1.2135 -0.0283
  956MOL0     H31889   3.236   4.506   8.785  2.1514 -2.4322 -2.7389
  956MOL0     H31890   3.697   4.528   8.854  1.8228 -0.1311 -0.8532
  956MOL0     H31891   3.875   4.368   8.870 -0.5491 -0.1129  0.9555
  956MOL0     H31892   4.014   4.041   9.121  1.2364  1.3550 -0.4776
  956MOL0     H31893   3.839   4.082   9.091 -0.1785  3.2390 -1.5766
  956MOL0     H31894   3.899   4.135   8.862 -2.4530 -2.3557  0.1439
  956MOL0     H31895   4.076   4.094   8.896  1.0153 -1.0584  1.6497
  956MOL0     H31896   3.988   3.905   8.795  0.3943  1.5989 -0.4903
  956MOL0     H31897   3.847   3.905   8.908 -0.1497  2.0258  2.7168
  956MOL0     H31898   4.026   3.809   9.088  0.2672 -2.1573  0.0507
  956MOL0     H31899   4.148   3.840   8.961  2.0599 -3.4119  2.8849
  956MOL0     H31900   3.902   3.670   8.916 -0.3718  3.0634  0.0841
  956MOL0     H31901   4.037   3.675   8.817 -0.7219 -1.4790 -0.7403
  956MOL0     H31902   4.072   3.540   9.087 -1.3182  2.9860  0.4137
  956MOL0     H31903   4.180   3.547   8.950  0.2068  3.8208  1.4478
  956MOL0     H31904   4.027   3.413   8.825 -0.3451 -2.1225 -0.3690
  956MOL0     H31905   3.884   3.454   8.937 -0.3519 -3.9744  2.0646
  956MOL0     H31906   4.119   3.264   9.024  1.4783 -0.1979 -0.7188
  956MOL0     H31907   3.971   3.215   8.939  1.2375 -0.1952  0.1381
  956MOL0     H31908   3.829   4.338   9.292 -4.3154 -0.7680  0.6984
  956MOL0     H31909   3.676   4.515   9.277 -1.6028 -0.2064 -0.2914
  956MOL0     H31910   3.418   4.786   9.162 -0.6984  1.3492  0.5426
  956MOL0     H31911   3.234   4.938   9.174 -0.1048 -1.2885  1.9796
  956MOL0     H31912   4.113   4.449   8.554 -1.0625 -0.1942  2.1195
  956MOL0     H31913   4.264   4.278   8.666 -0.7138  2.5796  1.9672
  956MOL0     H31914   4.259   3.617   8.607  1.5845 -0.4181 -0.3791
  956MOL0     H31915   4.392   3.490   8.724 -0.2018  0.3804  2.7827
  956MOL0     H31916   4.526   3.391   8.920  0.7362  2.1266 -0.4081
  956MOL0     H31917   4.584   3.382   8.749  2.6371  1.8112 -1.6658
  956MOL0     H31918   4.812   3.363   8.815  2.9006 -2.2488  1.3012
  956MOL0     H31919   4.714   3.242   8.884 -0.3391  0.3144 -0.4807
  956MOL0     H31920   4.848   3.483   9.017 -0.0112  0.8449  2.1542
  956MOL0     H31921   4.700   3.423   9.086  1.1481  3.0737 -0.1720
  956MOL0     H31922   4.955   3.266   9.053  0.7312 -1.2587  0.9597
  956MOL0     H31923   4.795   3.200   9.100  0.4962  0.1735 -4.0754
  956MOL0     H31924   4.905   3.323   9.463 -0.0553 -0.7675 -0.7125
  956MOL0     H31925   4.612   3.828   8.875  0.7903  2.0166 -2.4975
  956MOL0     H31926   4.481   4.059   8.658  2.3043 -1.5206 -0.0926
  956MOL0     H31927   4.407   4.061   8.829  2.0330  0.6979  2.0389
  956MOL0     H31928   4.572   4.035   8.802  0.6397  0.4734 -1.5126
  957MOL0     O31929   4.990   0.018   8.524  0.0314  0.1584 -0.0610
  957MOL0     C31930   5.090  -0.033   8.572 -0.6808  0.5402 -1.0710
  957MOL0     O31931   5.102  -0.157   8.622  0.6227  0.2289  0.2346
  957MOL0     C31932   4.996  -0.246   8.633  0.4889  0.5735  1.5344
  957MOL0     C31933   4.888  -0.228   8.719 -0.2356 -0.1143  0.0727
  957MOL0     C31934   4.790  -0.329   8.720 -0.1979 -0.8997  0.5600
  957MOL0     C31935   4.802  -0.446   8.651 -0.0809 -0.0959  0.3092
  957MOL0     O31936   4.690  -0.531   8.648 -0.1136 -0.3668 -0.1999
  957MOL0     C31937   4.694  -0.672   8.641 -0.0485  0.1292 -1.0248
  957MOL0     C31938   4.692  -0.739   8.780  0.0385 -0.0392 -0.7391
  957MOL0     C31939   4.830  -0.718   8.836 -0.5263 -0.5192 -0.5993
  957MOL0     C31940   4.842  -0.761   8.995 -0.2960 -0.8118 -0.5975
  957MOL0     C31941   4.954  -0.680   9.070 -0.3069 -0.2872  1.4516
  957MOL0     C31942   4.971  -0.721   9.215  0.3496  0.0892  0.2163
  957MOL0     C31943   4.844  -0.690   9.295 -0.1856 -0.1612  0.3223
  957MOL0     C31944   4.751  -0.804   9.321 -0.0208  1.2511  0.2057
  957MOL0     N31945   4.804  -0.903   9.411  0.0866 -0.0852 -0.4891
  957MOL0     C31946   4.813  -0.893   9.555  0.9596 -0.1375  0.9258
  957MOL0     C31947   4.859  -1.013   9.593  0.0081  1.0476 -0.3639
  957MOL0     C31948   4.931  -1.025   9.728  0.3560  0.4130  1.3758
  957MOL0     C31949   5.076  -0.995   9.705  0.4047 -0.1922 -0.3788
  957MOL0     C31950   5.134  -0.986   9.843  0.3343 -0.3892  0.3063
  957MOL0     C31951   5.285  -0.963   9.842 -0.8260  1.1102 -0.7567
  957MOL0     O31952   5.322  -0.937   9.977  0.5560  0.5297  0.7312
  957MOL0     C31953   5.293  -1.038  10.070 -0.2549 -0.1985 -0.0909
  957MOL0     C31954   5.270  -0.995  10.197  1.0849  0.2876 -0.3231
  957MOL0     C31955   5.229  -1.082  10.307  0.1422 -0.2525 -0.3668
  957MOL0     C31956   5.196  -1.011  10.443 -0.1129  0.6143  0.1974
  957MOL0     C31957   5.226  -1.220  10.292  0.1906  0.1813 -0.2963
  957MOL0     C31958   5.170  -1.322  10.399 -0.1550 -0.1752 -0.7354
  957MOL0     O31959   5.205  -1.453  10.390 -0.2808  0.0711 -0.5717
  957MOL0     C31960   5.213  -1.546  10.493  0.4993 -0.0083  0.9648
  957MOL0     C31961   5.333  -1.558  10.557 -0.3693 -0.1311  0.0325
  957MOL0     C31962   5.332  -1.636  10.680 -0.3352  0.0970  0.8275
  957MOL0     C31963   5.226  -1.702  10.727 -0.3157 -0.0204  0.3043
  957MOL0     O31964   5.247  -1.770  10.844 -0.1452  0.1662  0.2736
  957MOL0     C31965   5.201  -1.911  10.838 -0.1918  0.0029 -0.8470
  957MOL0     C31966   5.261  -2.001  10.944  0.5513  0.4443 -0.0873
  957MOL0     C31967   5.244  -1.940  11.081  1.2368  0.4578  0.0056
  957MOL0     C31968   5.375  -1.965  11.165  1.0475  1.2673  1.0596
  957MOL0     C31969   5.337  -1.928  11.313 -0.5045  0.1171 -0.1689
  957MOL0     C31970   5.462  -1.860  11.393 -0.6960 -0.7581  0.5204
  957MOL0     C31971   5.560  -1.771  11.313  0.2469  0.8934 -0.4324
  957MOL0     C31972   5.628  -1.669  11.408  0.2502 -0.1197  0.1132
  957MOL0    Cl31973   5.807  -1.653  11.353  0.2072  0.0398 -0.2598
  957MOL0     C31974   5.103  -1.688  10.661  0.7082  0.6773  0.6147
  957MOL0     C31975   5.092  -1.618  10.541 -0.6909 -0.8349 -0.2146
  957MOL0     O31976   5.088  -1.283  10.480  0.2781 -0.3252  0.2847
  957MOL0     C31977   5.263  -1.259  10.159 -0.2811 -0.6646 -0.6350
  957MOL0     C31978   5.291  -1.178  10.052  0.2487 -0.8257  0.1370
  957MOL0     N31979   4.872  -1.093   9.480 -0.0148  0.4711 -0.0763
  957MOL0     N31980   4.834  -1.030   9.376  0.5240  1.4127 -0.0641
  957MOL0     C31981   4.908  -0.462   8.564 -0.0458  1.3259 -0.0393
  957MOL0     C31982   5.007  -0.367   8.565 -0.1625 -0.7336  1.1583
  957MOL0     C31983   5.206   0.059   8.577 -1.2336  0.1565  0.0533
  957MOL0     C31984   5.194   0.195   8.532 -0.8320 -0.7176  0.4676
  957MOL0     C31985   5.305   0.290   8.510 -1.0077  0.5112  0.6020
  957MOL0     C31986   5.431   0.239   8.542 -1.0409 -0.4343 -0.4614
  957MOL0     O31987   5.531   0.330   8.521 -0.3844  0.8572  0.3531
  957MOL0     C31988   5.660   0.299   8.574  0.4829 -0.5248 -1.3962
  957MOL0     C31989   5.768   0.399   8.518 -0.8833  0.7510 -0.6625
  957MOL0     C31990   5.785   0.393   8.364 -0.2383  0.0065 -0.1291
  957MOL0     C31991   5.938   0.362   8.330  0.6068  0.3181  0.1878
  957MOL0     C31992   5.988   0.414   8.198  0.0683  0.2944 -0.8181
  957MOL0     C31993   6.027   0.470   8.098 -0.8643 -1.5561  0.0937
  957MOL0     C31994   5.445   0.109   8.595 -0.0742  0.5155 -0.1190
  957MOL0     C31995   5.339   0.023   8.608  0.2790  0.0569  0.0787
  957MOL0     C31996   5.370  -0.114   8.645 -0.4957 -0.5881  0.1136
  957MOL0     H31997   4.884  -0.134   8.773 -1.0901 -0.3903  0.5031
  957MOL0     H31998   4.714  -0.307   8.794  0.7006 -1.2860  1.6353
  957MOL0     H31999   4.779  -0.717   8.589 -2.3142 -2.6296 -2.6268
  957MOL0     H32000   4.610  -0.703   8.579 -1.0456  0.3183  0.1794
  957MOL0     H32001   4.620  -0.709   8.857  0.9160 -0.8249  0.4104
  957MOL0     H32002   4.689  -0.844   8.750  0.2050  0.4216 -2.4541
  957MOL0     H32003   4.904  -0.770   8.775  0.0506 -2.2043  1.4257
  957MOL0     H32004   4.860  -0.613   8.840  0.4642 -0.8212  2.2472
  957MOL0     H32005   4.742  -0.739   9.034  0.0593  1.3590 -0.8159
  957MOL0     H32006   4.854  -0.869   9.007 -0.9110 -0.6950  1.4237
  957MOL0     H32007   4.934  -0.574   9.048 -0.1728 -0.3293  1.1290
  957MOL0     H32008   5.051  -0.705   9.025 -1.2082 -0.9412 -0.2042
  957MOL0     H32009   4.996  -0.827   9.214  1.6178  0.3529 -1.4947
  957MOL0     H32010   5.051  -0.663   9.262  0.7311 -2.1293  2.4810
  957MOL0     H32011   4.795  -0.614   9.233  1.3766 -0.2447 -1.0866
  957MOL0     H32012   4.865  -0.629   9.384  0.9798 -0.0796  0.0109
  957MOL0     H32013   4.664  -0.762   9.374 -1.8947  0.2417 -1.9032
  957MOL0     H32014   4.721  -0.841   9.223 -2.4411  1.6305  0.7473
  957MOL0     H32015   4.781  -0.802   9.605 -2.6603 -0.9100  0.3332
  957MOL0     H32016   4.923  -1.125   9.772 -0.4848 -0.2317 -0.1709
  957MOL0     H32017   4.879  -0.952   9.792 -2.2807  1.8628 -2.1095
  957MOL0     H32018   5.124  -1.078   9.652 -1.1826 -0.3328 -1.6943
  957MOL0     H32019   5.094  -0.902   9.650 -0.4092 -0.6912 -1.5345
  957MOL0     H32020   5.091  -0.903   9.900  0.1961 -1.1463  1.3397
  957MOL0     H32021   5.115  -1.081   9.894 -0.3700 -0.9466 -0.9427
  957MOL0     H32022   5.340  -1.050   9.805 -1.4459  0.2244  0.3089
  957MOL0     H32023   5.308  -0.882   9.774  1.3210  1.2026 -0.0085
  957MOL0     H32024   5.269  -0.889  10.217  0.5477 -0.3399  4.1221
  957MOL0     H32025   5.265  -0.929  10.464  0.9861 -0.3337  0.3996
  957MOL0     H32026   5.217  -1.076  10.528 -2.5347 -2.2518 -1.1971
  957MOL0     H32027   5.091  -0.980  10.434 -0.5586 -1.4525 -3.6709
  957MOL0     H32028   5.425  -1.516  10.517 -0.3212  2.6823  2.7055
  957MOL0     H32029   5.426  -1.639  10.734  0.9535  2.2531 -1.0848
  957MOL0     H32030   5.092  -1.921  10.830 -0.0777  0.2001 -4.6743
  957MOL0     H32031   5.221  -1.962  10.743  1.3074 -2.8336  0.8695
  957MOL0     H32032   5.215  -2.101  10.943 -1.2924  1.1950 -2.5152
  957MOL0     H32033   5.366  -2.007  10.913  0.3229 -2.5785 -0.5769
  957MOL0     H32034   5.155  -1.984  11.128  3.0663 -4.1104 -0.2922
  957MOL0     H32035   5.222  -1.833  11.078 -0.9348  0.0513 -0.6722
  957MOL0     H32036   5.454  -1.904  11.120  3.5764 -2.0952  0.4900
  957MOL0     H32037   5.416  -2.067  11.162 -4.0359 -1.0701  1.1482
  957MOL0     H32038   5.243  -1.873  11.319 -1.7379 -1.7786 -0.9527
  957MOL0     H32039   5.320  -2.025  11.361  0.9961  0.6149  1.4574
  957MOL0     H32040   5.521  -1.937  11.445  2.5530  1.3018  0.1404
  957MOL0     H32041   5.413  -1.807  11.475 -2.7003 -1.4844 -0.1423
  957MOL0     H32042   5.509  -1.733  11.224 -0.9916 -0.1315 -0.1999
  957MOL0     H32043   5.631  -1.845  11.276 -0.0046  2.0212 -3.4126
  957MOL0     H32044   5.626  -1.708  11.511 -1.5966 -1.6248 -0.4202
  957MOL0     H32045   5.573  -1.574  11.405 -0.1657 -0.2492  2.1717
  957MOL0     H32046   5.016  -1.740  10.699  0.0713 -0.0023 -1.6205
  957MOL0     H32047   4.998  -1.606  10.489  0.1814 -2.0591 -2.2082
  957MOL0     H32048   5.248  -1.363  10.133 -0.0849 -0.9668  0.4125
  957MOL0     H32049   5.300  -1.228   9.956 -1.7999  2.0758 -1.7374
  957MOL0     H32050   4.913  -0.551   8.502 -1.0686  0.7774  0.6321
  957MOL0     H32051   5.082  -0.387   8.489 -0.6921 -0.8824  0.6601
  957MOL0     H32052   5.099   0.224   8.490  0.6046 -0.0676 -2.6860
  957MOL0     H32053   5.291   0.392   8.476 -0.8813  1.0947  2.2417
  957MOL0     H32054   5.669   0.299   8.683  3.3472 -3.1026 -1.5006
  957MOL0     H32055   5.703   0.206   8.538  0.5674  0.5291 -4.2669
  957MOL0     H32056   5.866   0.384   8.564 -1.3392  4.1459  1.8334
  957MOL0     H32057   5.738   0.502   8.538  0.3724  0.7399  1.6731
  957MOL0     H32058   5.714   0.324   8.317 -0.9137 -1.5701  2.9592
  957MOL0     H32059   5.758   0.493   8.330  0.2182  0.5872  1.1460
  957MOL0     H32060   5.949   0.253   8.338 -1.2472  0.0390 -0.3420
  957MOL0     H32061   5.992   0.413   8.410 -2.7123  0.3117  2.6463
  957MOL0     H32062   6.080   0.519   8.020 -4.8413  6.2751  1.3482
  957MOL0     H32063   5.540   0.070   8.630 -1.1220 -0.1760  2.1793
  957MOL0     H32064   5.319  -0.144   8.738 -0.4333 -2.0344 -0.2921
  957MOL0     H32065   5.350  -0.186   8.565  2.1402 -3.3213  1.6728
  957MOL0     H32066   5.474  -0.118   8.678 -0.9927 -0.6910  1.7909
  958MOL0     O32067   8.072   1.219   6.650  0.6198 -0.3654  0.4227
  958MOL0     C32068   7.996   1.220   6.744  0.4752 -0.5535 -0.4814
  958MOL0     O32069   7.895   1.138   6.762 -0.5247 -0.0014 -0.1099
  958MOL0     C32070   7.866   1.036   6.667 -0.6857  0.1951  0.0776
  958MOL0     C32071   7.742   1.041   6.605  0.3155 -0.7768  0.2251
  958MOL0     C32072   7.704   0.927   6.530  0.6867 -0.1572 -0.5568
  958MOL0     C32073   7.786   0.816   6.515  1.3032 -0.3348 -0.2655
  958MOL0     O32074   7.737   0.710   6.441  0.9328 -0.0907 -0.5509
  958MOL0     C32075   7.822   0.602   6.410 -0.1731  0.4110  0.2692
  958MOL0     C32076   7.839   0.505   6.523  1.2199  0.4423  0.1535
  958MOL0     C32077   7.954   0.410   6.528 -1.1567  0.7459 -0.4340
  958MOL0     C32078   7.967   0.323   6.403 -0.4030  1.1303  0.6109
  958MOL0     C32079   8.064   0.208   6.428  0.8403 -0.9385  0.3106
  958MOL0     C32080   8.062   0.098   6.316 -0.7356 -0.6188 -0.3753
  958MOL0     C32081   8.073   0.167   6.169 -0.1946 -0.5860  0.3503
  958MOL0     C32082   8.121   0.060   6.066 -0.1991 -0.6712 -0.1714
  958MOL0     N32083   8.095   0.110   5.929 -0.0098  0.0011 -0.3029
  958MOL0     C32084   8.191   0.175   5.869  0.2963  0.1022 -1.5586
  958MOL0     C32085   8.115   0.237   5.767 -0.3704 -1.0006  0.4904
  958MOL0     C32086   8.175   0.332   5.661  0.8418  0.2882 -0.1109
  958MOL0     C32087   8.203   0.478   5.692 -0.3231  1.0843  0.1639
  958MOL0     C32088   8.286   0.548   5.582  0.2186 -0.7156  0.1525
  958MOL0     C32089   8.271   0.700   5.582 -0.6151 -0.3859 -0.2157
  958MOL0     O32090   8.312   0.771   5.693 -0.7569 -0.4516 -0.6952
  958MOL0     C32091   8.230   0.853   5.761  0.1299 -0.8107 -0.0842
  958MOL0     C32092   8.300   0.950   5.834 -0.4295  0.3899  0.7781
  958MOL0     C32093   8.241   1.055   5.901 -0.6930  0.0893 -0.7206
  958MOL0     C32094   8.329   1.148   5.991  0.0135  0.3759 -0.6392
  958MOL0     C32095   8.107   1.066   5.890  1.0021 -0.7742  0.4306
  958MOL0     C32096   8.021   1.167   5.972 -0.4469 -0.2587  0.5555
  958MOL0     O32097   8.062   1.183   6.104  0.5924  0.1083 -0.0556
  958MOL0     C32098   8.002   1.279   6.175 -0.5100  0.2701  0.6736
  958MOL0     C32099   7.949   1.245   6.299 -0.0408 -0.5659  0.3270
  958MOL0     C32100   7.916   1.348   6.383  0.0380 -0.1894  0.4794
  958MOL0     C32101   7.920   1.484   6.346 -0.6911  0.5342 -0.5242
  958MOL0     O32102   7.867   1.584   6.430  0.7624  0.1399 -0.2100
  958MOL0     C32103   7.874   1.566   6.567 -0.1327 -0.0794  0.7369
  958MOL0     C32104   7.757   1.502   6.648 -0.4525  0.7433  0.1149
  958MOL0     C32105   7.631   1.590   6.614  0.1967  0.0677 -0.2939
  958MOL0     C32106   7.518   1.557   6.712  0.6410  0.8447  0.4721
  958MOL0     C32107   7.392   1.512   6.642  0.2708  0.1230  1.0371
  958MOL0     C32108   7.394   1.376   6.567  0.4818 -0.9635 -0.5070
  958MOL0     C32109   7.260   1.331   6.515 -0.0404 -0.5125  0.6864
  958MOL0     C32110   7.277   1.186   6.464 -0.5507 -1.0982  1.0516
  958MOL0    Cl32111   7.134   1.123   6.380  0.2284 -0.0802 -0.2376
  958MOL0     C32112   7.976   1.513   6.221  1.0280 -0.9339  0.0459
  958MOL0     C32113   8.008   1.416   6.131 -0.8147  0.0917 -0.9322
  958MOL0     O32114   7.927   1.225   5.922 -0.3076  0.2756 -0.7923
  958MOL0     C32115   8.033   0.963   5.828  0.6871  0.1326  0.7253
  958MOL0     C32116   8.091   0.854   5.763  0.7912 -0.6494 -0.3707
  958MOL0     N32117   7.985   0.207   5.776 -0.2832 -0.2022 -0.1208
  958MOL0     N32118   7.973   0.128   5.879  0.7920 -0.0298  0.0895
  958MOL0     C32119   7.914   0.822   6.573  0.4192  0.3498 -0.2953
  958MOL0     C32120   7.956   0.930   6.651  0.5758 -0.2899 -0.0290
  958MOL0     C32121   8.017   1.331   6.852  1.2434 -0.7132  0.2778
  958MOL0     C32122   7.917   1.355   6.949 -0.1939  0.3304  0.7033
  958MOL0     C32123   7.924   1.440   7.052 -1.0086 -0.1634  0.5034
  958MOL0     C32124   8.049   1.515   7.065  0.2354 -0.0922 -0.7474
  958MOL0     O32125   8.059   1.587   7.183 -0.2491 -0.9924 -0.2106
  958MOL0     C32126   8.166   1.679   7.187  0.1885  0.0817 -0.7466
  958MOL0     C32127   8.145   1.774   7.310 -0.3106  1.0748  0.1951
  958MOL0     C32128   8.036   1.883   7.271 -0.1121  0.3821 -0.1490
  958MOL0     C32129   7.988   1.960   7.394 -0.0137 -1.6646 -0.4300
  958MOL0     C32130   8.074   2.071   7.430 -0.8831  0.1805 -0.4546
  958MOL0     C32131   8.139   2.172   7.465 -1.3722  0.4983 -0.6659
  958MOL0     C32132   8.142   1.511   6.969 -0.2796  1.0734  0.2967
  958MOL0     C32133   8.129   1.420   6.858 -0.6065  0.4900 -0.2800
  958MOL0     C32134   8.242   1.413   6.764 -1.0061 -0.4093 -0.4141
  958MOL0     H32135   7.675   1.124   6.625 -1.4790 -1.3916 -2.6479
  958MOL0     H32136   7.597   0.924   6.509  0.0198 -1.7478  2.4317
  958MOL0     H32137   7.914   0.645   6.371 -1.5121  0.6642 -2.9642
  958MOL0     H32138   7.783   0.538   6.330  1.2013  0.7846 -0.7364
  958MOL0     H32139   7.857   0.564   6.614 -0.5691 -0.2175  0.9888
  958MOL0     H32140   7.751   0.444   6.545  1.7689  0.3046  2.2240
  958MOL0     H32141   8.053   0.448   6.552 -1.3072  0.5101  0.5980
  958MOL0     H32142   7.932   0.335   6.605 -0.2458  1.6773  0.7809
  958MOL0     H32143   7.872   0.282   6.368  1.7572 -1.7270 -2.5311
  958MOL0     H32144   8.008   0.386   6.324 -1.8336  0.7172 -0.5111
  958MOL0     H32145   8.038   0.155   6.521  0.4394  0.4004  0.9844
  958MOL0     H32146   8.160   0.260   6.435 -0.6619  1.9009  1.2198
  958MOL0     H32147   8.146   0.029   6.325 -0.3871 -0.1990 -0.3502
  958MOL0     H32148   7.974   0.034   6.324 -0.7067 -1.2131 -3.6382
  958MOL0     H32149   8.135   0.257   6.171 -0.5313 -0.3616  1.4155
  958MOL0     H32150   7.970   0.196   6.145 -0.4953 -1.4380  0.5705
  958MOL0     H32151   8.225   0.031   6.088  0.1115 -0.2969 -1.0963
  958MOL0     H32152   8.063  -0.032   6.070  0.8456 -1.4640 -1.9332
  958MOL0     H32153   8.294   0.182   5.902  0.5624  1.8553 -2.6534
  958MOL0     H32154   8.103   0.323   5.580  0.5440  0.0442  0.1776
  958MOL0     H32155   8.257   0.284   5.607  1.5862 -0.3408  1.4950
  958MOL0     H32156   8.103   0.523   5.691 -2.4711 -3.0893 -2.3849
  958MOL0     H32157   8.256   0.486   5.787 -0.7922  1.5604  0.3918
  958MOL0     H32158   8.393   0.531   5.599  0.8960  2.9963  0.4385
  958MOL0     H32159   8.252   0.510   5.485 -3.4072  0.9542  0.5794
  958MOL0     H32160   8.326   0.724   5.490 -0.0875 -1.4979 -0.2151
  958MOL0     H32161   8.163   0.707   5.566 -0.4982 -0.8820 -1.4168
  958MOL0     H32162   8.408   0.953   5.834 -0.1495 -2.1832 -3.3213
  958MOL0     H32163   8.403   1.174   5.915  1.3857  2.5701  1.2881
  958MOL0     H32164   8.368   1.085   6.072 -1.5460  0.7482  0.4514
  958MOL0     H32165   8.277   1.234   6.034  2.9355  0.9014  2.2401
  958MOL0     H32166   7.952   1.142   6.332 -1.7567 -1.0827 -0.9789
  958MOL0     H32167   7.894   1.319   6.485 -1.1315  1.4237  0.7219
  958MOL0     H32168   7.967   1.516   6.596  0.8786  0.0321 -2.0504
  958MOL0     H32169   7.879   1.670   6.603 -3.5655 -0.4167  2.5998
  958MOL0     H32170   7.742   1.397   6.623 -0.0182 -0.3581  3.8714
  958MOL0     H32171   7.773   1.507   6.756  3.5639 -0.6587 -0.2558
  958MOL0     H32172   7.600   1.570   6.511 -2.5573 -2.6440  0.8977
  958MOL0     H32173   7.657   1.696   6.627  0.3369 -0.2430  2.3181
  958MOL0     H32174   7.496   1.635   6.785  3.0251  0.4170  1.7647
  958MOL0     H32175   7.555   1.474   6.773 -2.5784 -0.0853  1.3700
  958MOL0     H32176   7.312   1.511   6.717 -1.5921  2.8817 -0.7683
  958MOL0     H32177   7.359   1.588   6.572 -5.0824  0.0298  3.0001
  958MOL0     H32178   7.440   1.294   6.623  3.0800 -0.1314 -1.2853
  958MOL0     H32179   7.454   1.390   6.477 -0.0587 -2.3091 -1.1074
  958MOL0     H32180   7.212   1.406   6.451  4.7035  0.8620 -1.7513
  958MOL0     H32181   7.189   1.302   6.592  1.3230 -1.7811  1.5300
  958MOL0     H32182   7.312   1.125   6.549 -1.5317  1.8460  3.7508
  958MOL0     H32183   7.365   1.181   6.399  0.5054  0.7377  2.2575
  958MOL0     H32184   7.991   1.616   6.193  1.8179 -0.7623  1.0393
  958MOL0     H32185   8.054   1.438   6.035  0.7699 -0.5443 -0.3537
  958MOL0     H32186   7.925   0.962   5.841  0.4682 -1.5681 -0.7630
  958MOL0     H32187   8.020   0.788   5.715  1.1096 -1.2870  0.0356
  958MOL0     H32188   7.994   0.752   6.551  0.1082 -0.9433  2.3125
  958MOL0     H32189   8.051   0.919   6.703  1.3556 -0.2742 -1.4274
  958MOL0     H32190   7.822   1.302   6.943 -0.2239  0.4450 -0.0118
  958MOL0     H32191   7.842   1.464   7.119 -1.3227  1.4462 -0.3951
  958MOL0     H32192   8.264   1.630   7.186  1.1508  1.9387 -2.4595
  958MOL0     H32193   8.174   1.752   7.106  0.9962  2.0278  1.0013
  958MOL0     H32194   8.239   1.823   7.336  0.0507  0.3283  0.3265
  958MOL0     H32195   8.107   1.721   7.397  0.2500  1.2898  0.5761
  958MOL0     H32196   8.077   1.955   7.200 -0.1850  3.6065  2.7902
  958MOL0     H32197   7.943   1.846   7.227 -0.0939 -1.7789  1.4013
  958MOL0     H32198   7.973   1.890   7.476 -0.3669 -0.6614  0.3818
  958MOL0     H32199   7.893   2.007   7.367  0.1338 -1.4981 -0.6661
  958MOL0     H32200   8.194   2.260   7.490  1.1600 -0.8915 -1.0499
  958MOL0     H32201   8.231   1.574   6.970  0.9416 -0.2407 -4.2286
  958MOL0     H32202   8.314   1.330   6.764  0.3850  0.6413 -3.6194
  958MOL0     H32203   8.200   1.434   6.665 -0.8046  0.1020 -0.3899
  958MOL0     H32204   8.305   1.502   6.775  0.8180 -1.3880 -2.0809
  959MOL0     O32205   7.290  11.231   5.305 -0.3034  0.4326 -0.1095
  959MOL0     C32206   7.195  11.154   5.334 -0.3347 -0.8384 -0.1348
  959MOL0     O32207   7.121  11.166   5.447  0.6739  0.1008 -0.1697
  959MOL0     C32208   7.162  11.242   5.550 -0.1184  0.9141  0.0533
  959MOL0     C32209   7.293  11.274   5.592  0.5852 -0.2299  0.2496
  959MOL0     C32210   7.320  11.350   5.706  0.6532  0.4759 -0.3592
  959MOL0     C32211   7.213  11.402   5.779  0.3798 -0.6872 -0.2087
  959MOL0     O32212   7.246  11.473   5.896  0.3756 -0.5321  0.0686
  959MOL0     C32213   7.150  11.546   5.974 -0.4153  1.4202  0.1951
  959MOL0     C32214   7.228  11.634   6.049  0.5151  0.2586 -0.6075
  959MOL0     C32215   7.305  11.559   6.162 -0.3925 -1.0945 -0.1443
  959MOL0     C32216   7.246  11.569   6.295  0.9455  0.1435  0.2751
  959MOL0     C32217   7.301  11.459   6.380  0.4586 -0.3096 -0.6995
  959MOL0     C32218   7.241  11.477   6.516  0.7448 -0.1340 -0.2350
  959MOL0     C32219   7.321  11.558   6.619 -0.0603  0.7504  0.1368
  959MOL0     C32220   7.226  11.601   6.739 -0.6475 -0.8177 -0.5288
  959MOL0     N32221   7.131  11.705   6.687 -0.0777 -0.1008 -0.1005
  959MOL0     C32222   6.990  11.692   6.678 -0.4490 -0.0043 -0.1755
  959MOL0     C32223   6.950  11.798   6.604  0.2566 -0.8964  0.4124
  959MOL0     C32224   6.819  11.813   6.543  0.6358 -1.0433 -0.6519
  959MOL0     C32225   6.779  11.699   6.445 -0.7298 -0.0078 -1.6799
  959MOL0     C32226   6.816  11.723   6.300 -0.0341  0.2303 -0.5752
  959MOL0     C32227   6.783  11.602   6.210  0.1288  0.0323  0.8655
  959MOL0     O32228   6.787  11.639   6.065 -0.3012 -0.0824 -0.4216
  959MOL0     C32229   6.731  11.547   5.980 -0.1614  0.7019 -0.0096
  959MOL0     C32230   6.759  11.562   5.846 -0.1398  0.9758  0.8712
  959MOL0     C32231   6.703  11.485   5.747 -0.4984  0.0111 -0.0974
  959MOL0     C32232   6.734  11.526   5.614 -0.1238 -1.1855 -0.2574
  959MOL0     C32233   6.624  11.371   5.768 -0.5024 -0.0749  0.7382
  959MOL0     C32234   6.601  11.276   5.656  0.5269 -0.1860 -0.4147
  959MOL0     O32235   6.717  11.215   5.600 -0.0152 -0.4793 -0.4844
  959MOL0     C32236   6.704  11.127   5.499  0.4339 -0.7056  1.0316
  959MOL0     C32237   6.779  11.138   5.382 -0.2012 -0.0992  0.8618
  959MOL0     C32238   6.748  11.055   5.273 -0.6177  0.3737 -0.0843
  959MOL0     C32239   6.653  10.947   5.286 -0.1817 -1.0695  0.6777
  959MOL0     O32240   6.621  10.863   5.178  0.0926  0.0960 -1.3227
  959MOL0     C32241   6.603  10.928   5.056  0.4319 -0.3419 -0.2688
  959MOL0     C32242   6.528  10.820   4.977 -0.3141  0.8353  0.3250
  959MOL0     C32243   6.510  10.902   4.842  0.1690 -0.3670 -0.6777
  959MOL0     C32244   6.426  10.822   4.742 -0.7689 -0.4402 -1.5708
  959MOL0     C32245   6.381  10.913   4.633 -0.5470 -0.5088 -0.0164
  959MOL0     C32246   6.328  10.838   4.516  0.7210 -0.0624 -0.3903
  959MOL0     C32247   6.311  10.934   4.402 -0.0110  0.0131 -0.7496
  959MOL0     C32248   6.225  10.868   4.293 -0.7277 -0.0454  0.1099
  959MOL0    Cl32249   6.177  10.975   4.157 -0.0643  0.4710 -0.3963
  959MOL0     C32250   6.586  10.931   5.407  0.1994  0.1021 -0.0467
  959MOL0     C32251   6.607  11.021   5.509  1.1606  0.9938 -0.8611
  959MOL0     O32252   6.481  11.257   5.621  0.2511  0.4785 -0.6752
  959MOL0     C32253   6.603  11.346   5.911  0.3590  0.0952  0.7224
  959MOL0     C32254   6.634  11.441   6.009 -0.3701 -0.3612  0.2849
  959MOL0     N32255   7.054  11.888   6.589 -0.3061  0.1191  0.5825
  959MOL0     N32256   7.160  11.828   6.630 -0.1387 -0.1340 -0.4073
  959MOL0     C32257   7.079  11.385   5.732  0.5820 -0.0862 -0.0306
  959MOL0     C32258   7.052  11.292   5.625  0.2470 -0.4714  0.8245
  959MOL0     C32259   7.171  11.032   5.257  0.0484 -0.7252 -0.0973
  959MOL0     C32260   7.071  10.934   5.300 -0.0739 -0.1723  0.2316
  959MOL0     C32261   7.035  10.820   5.211 -0.3345 -0.7774 -0.7165
  959MOL0     C32262   7.097  10.814   5.090  0.1173  0.3016  0.7292
  959MOL0     O32263   7.074  10.702   5.027  0.9104  0.2123 -0.5358
  959MOL0     C32264   6.949  10.690   4.952  0.7987  0.8059 -0.1394
  959MOL0     C32265   6.975  10.648   4.806  0.2919 -0.2819 -0.1459
  959MOL0     C32266   6.889  10.715   4.695 -0.3830 -0.0463 -0.0668
  959MOL0     C32267   6.940  10.682   4.553 -0.2468 -0.1307 -0.7611
  959MOL0     C32268   6.928  10.545   4.515  0.4802 -0.1258  1.0666
  959MOL0     C32269   6.919  10.439   4.466 -0.5983  1.5428  0.2461
  959MOL0     C32270   7.192  10.903   5.045  0.5559  0.0987  0.5047
  959MOL0     C32271   7.238  11.009   5.126  0.2398 -0.0117 -1.1420
  959MOL0     C32272   7.340  11.100   5.055  0.4996 -0.2889  0.2004
  959MOL0     H32273   7.374  11.238   5.530 -0.4640  0.1046 -1.3655
  959MOL0     H32274   7.418  11.367   5.750  0.1003 -0.5970  1.3880
  959MOL0     H32275   7.085  11.480   6.032  2.3403  0.1770  2.1013
  959MOL0     H32276   7.087  11.614   5.916  0.6306  5.3968  3.2493
  959MOL0     H32277   7.308  11.682   5.993  1.4767 -1.0933 -0.4276
  959MOL0     H32278   7.169  11.711   6.101  1.7433  1.9436 -1.6348
  959MOL0     H32279   7.314  11.455   6.130 -1.4537 -1.1047 -0.4633
  959MOL0     H32280   7.407  11.599   6.165 -0.6282 -0.3488 -1.3812
  959MOL0     H32281   7.279  11.667   6.329  0.5091  0.7671 -0.9959
  959MOL0     H32282   7.136  11.567   6.291  0.9213 -0.8648  1.0004
  959MOL0     H32283   7.410  11.460   6.390  0.2475 -1.1610  3.0467
  959MOL0     H32284   7.261  11.364   6.342 -2.6683 -0.7332  2.9771
  959MOL0     H32285   7.137  11.512   6.514 -0.0376 -2.3415 -0.9325
  959MOL0     H32286   7.241  11.375   6.556  2.9368 -0.6750 -1.4287
  959MOL0     H32287   7.373  11.645   6.576  1.8894 -0.5792 -0.3138
  959MOL0     H32288   7.404  11.489   6.633 -1.7736 -1.8208 -1.5664
  959MOL0     H32289   7.163  11.520   6.777  1.0492 -1.8472  0.1949
  959MOL0     H32290   7.292  11.631   6.820  1.2247 -2.3585 -1.3967
  959MOL0     H32291   6.935  11.600   6.691  1.0905 -1.1069 -1.1978
  959MOL0     H32292   6.812  11.909   6.491 -0.9479 -0.8863 -0.1982
  959MOL0     H32293   6.740  11.820   6.618 -0.3227 -0.3929 -1.6877
  959MOL0     H32294   6.834  11.609   6.473  0.6113  0.3800 -2.9488
  959MOL0     H32295   6.673  11.674   6.461 -0.4993 -1.2888 -2.0044
  959MOL0     H32296   6.751  11.805   6.268 -1.6635 -1.6690 -2.4522
  959MOL0     H32297   6.924  11.737   6.296 -0.0371  0.2491 -0.5909
  959MOL0     H32298   6.860  11.527   6.229 -2.3866 -3.4048 -1.2783
  959MOL0     H32299   6.679  11.573   6.228  0.2071  0.8370  2.8309
  959MOL0     H32300   6.832  11.640   5.829  1.8158 -0.5226  2.0737
  959MOL0     H32301   6.682  11.621   5.601 -1.2786 -1.7633 -0.0042
  959MOL0     H32302   6.712  11.453   5.536 -0.3173  0.0571 -1.3869
  959MOL0     H32303   6.840  11.553   5.609 -0.1637  0.1926  3.2213
  959MOL0     H32304   6.854  11.216   5.383 -0.2508 -0.0062 -0.4950
  959MOL0     H32305   6.810  11.075   5.186  0.7643  2.2812  1.2627
  959MOL0     H32306   6.535  11.012   5.073  0.9168  0.4538 -1.9933
  959MOL0     H32307   6.695  10.952   5.002  0.1012 -1.0338 -1.1683
  959MOL0     H32308   6.583  10.727   4.963 -3.1925 -1.5907  3.4723
  959MOL0     H32309   6.432  10.796   5.023 -2.4837  1.1516 -3.6753
  959MOL0     H32310   6.604  10.929   4.793  0.3936  1.6732  0.7652
  959MOL0     H32311   6.459  10.994   4.870  0.9318 -0.5920  1.6551
  959MOL0     H32312   6.339  10.776   4.790  0.6364 -1.1446  0.3948
  959MOL0     H32313   6.489  10.743   4.700 -0.6096 -2.1749  1.6774
  959MOL0     H32314   6.298  10.976   4.664  0.0378 -0.0827  0.7216
  959MOL0     H32315   6.465  10.970   4.593 -1.0702  0.0005 -0.3917
  959MOL0     H32316   6.236  10.788   4.546  0.8719  0.9252  1.9314
  959MOL0     H32317   6.392  10.758   4.478  0.3073 -0.0259 -1.1920
  959MOL0     H32318   6.411  10.962   4.369  0.3608 -2.5786 -2.1244
  959MOL0     H32319   6.265  11.030   4.426 -0.5347 -0.8299  1.9503
  959MOL0     H32320   6.137  10.818   4.335  0.2011 -1.0011  0.9790
  959MOL0     H32321   6.283  10.784   4.251 -2.5706 -1.9380  1.1632
  959MOL0     H32322   6.514  10.849   5.403 -0.5735  0.7796 -0.4336
  959MOL0     H32323   6.554  10.997   5.601 -0.8952 -2.8393 -2.7971
  959MOL0     H32324   6.546  11.261   5.946  2.5825 -0.2913  3.8006
  959MOL0     H32325   6.593  11.418   6.107  0.8229 -2.5182  0.3224
  959MOL0     H32326   6.994  11.440   5.772 -1.4576 -0.5924 -3.2807
  959MOL0     H32327   6.957  11.274   5.575  0.8647 -0.4261 -0.4045
  959MOL0     H32328   7.015  10.942   5.392  2.2107 -3.4043  2.1138
  959MOL0     H32329   6.950  10.757   5.236 -1.3207 -0.1775 -2.3234
  959MOL0     H32330   6.902  10.604   5.001  0.8781  0.5063 -0.5866
  959MOL0     H32331   6.883  10.777   4.955  0.1795  0.3341  0.4181
  959MOL0     H32332   6.977  10.539   4.793  1.9354 -0.8723  3.5728
  959MOL0     H32333   7.078  10.683   4.793 -0.3619  2.0646  0.5024
  959MOL0     H32334   6.789  10.671   4.704 -0.1628 -0.4210  0.6148
  959MOL0     H32335   6.897  10.823   4.706  1.8170 -0.3067  1.4159
  959MOL0     H32336   7.043  10.717   4.541 -0.7402  3.0469  2.6084
  959MOL0     H32337   6.871  10.743   4.494 -2.7138  0.5379  2.5661
  959MOL0     H32338   6.894  10.344   4.424  0.3981  1.3817  0.0147
  959MOL0     H32339   7.220  10.895   4.940 -2.6550  2.7891 -0.7238
  959MOL0     H32340   7.283  11.193   5.041  1.2972  0.2490  0.4578
  959MOL0     H32341   7.424  11.114   5.124  1.1081  2.9646 -1.0176
  959MOL0     H32342   7.368  11.065   4.956 -2.8332  1.1856 -1.4347
  960MOL0     O32343   2.625   2.308   8.986 -0.1443 -0.1449 -0.2084
  960MOL0     C32344   2.650   2.419   8.941  0.1043  0.7929  0.4150
  960MOL0     O32345   2.695   2.526   9.014  0.2144 -0.2465 -0.2198
  960MOL0     C32346   2.737   2.531   9.147  0.6201  0.2345 -0.2946
  960MOL0     C32347   2.856   2.595   9.180 -0.1982  0.6802  0.2162
  960MOL0     C32348   2.878   2.615   9.318 -0.3824  0.6461  1.4302
  960MOL0     C32349   2.808   2.545   9.416 -0.4000 -0.2211  0.2227
  960MOL0     O32350   2.837   2.544   9.549  0.3126 -0.2164  0.3948
  960MOL0     C32351   2.973   2.529   9.590  0.4642  0.3195  0.3459
  960MOL0     C32352   2.965   2.548   9.747 -0.9571 -0.6652 -0.6418
  960MOL0     C32353   3.098   2.547   9.817 -0.0795 -0.1567  0.0532
  960MOL0     C32354   3.130   2.406   9.862 -0.0622  0.2805 -0.3569
  960MOL0     C32355   3.043   2.360   9.988 -1.0525 -0.4912  0.4362
  960MOL0     C32356   3.110   2.233  10.059  0.3729 -0.0993  0.2693
  960MOL0     C32357   3.022   2.171  10.169 -0.0452  0.9245  0.1317
  960MOL0     C32358   2.897   2.119  10.103  0.1464  0.3342  0.3535
  960MOL0     N32359   2.829   2.009  10.181  0.2954 -0.7403 -0.5533
  960MOL0     C32360   2.764   2.032  10.304  0.7043  0.0807  0.5744
  960MOL0     C32361   2.767   1.912  10.364 -0.1391  0.3127  0.5159
  960MOL0     C32362   2.735   1.883  10.510 -0.4428  0.2862 -0.1912
  960MOL0     C32363   2.774   1.739  10.555  0.4642 -0.0834  0.6901
  960MOL0     C32364   2.701   1.623  10.475  0.1779 -0.0715 -0.5115
  960MOL0     C32365   2.763   1.484  10.486 -0.0715 -0.3855  0.0270
  960MOL0     O32366   2.729   1.445  10.620  0.4756  0.0361  0.3411
  960MOL0     C32367   2.748   1.319  10.667  0.4244 -0.4806 -0.8821
  960MOL0     C32368   2.761   1.213  10.586 -0.9299  0.0912  1.4479
  960MOL0     C32369   2.758   1.080  10.639  0.6706  0.3041 -0.2963
  960MOL0     C32370   2.762   0.967  10.541 -0.0074  0.3159  0.5460
  960MOL0     C32371   2.748   1.059  10.777 -0.7095 -0.3745 -1.0825
  960MOL0     C32372   2.737   0.928  10.846  0.0158  0.1374  1.0284
  960MOL0     O32373   2.693   0.939  10.975  0.0352 -0.9031  0.2374
  960MOL0     C32374   2.672   0.823  11.044 -0.4764 -0.7913  0.2264
  960MOL0     C32375   2.548   0.812  11.101 -0.3403 -0.6469  0.1800
  960MOL0     C32376   2.522   0.717  11.201 -0.1448 -0.0372 -0.1008
  960MOL0     C32377   2.625   0.628  11.233  0.4172 -0.7990 -0.1400
  960MOL0     O32378   2.612   0.528  11.331  0.3061  0.7128 -0.0602
  960MOL0     C32379   2.485   0.479  11.369 -0.0060 -0.4427 -0.5994
  960MOL0     C32380   2.518   0.339  11.418  0.2511  0.1093  0.8796
  960MOL0     C32381   2.443   0.309  11.557 -1.1124  0.1615  0.9829
  960MOL0     C32382   2.288   0.311  11.548 -0.3580 -0.0588  0.5054
  960MOL0     C32383   2.218   0.260  11.672 -0.3924  0.2175  0.0537
  960MOL0     C32384   2.074   0.248  11.669 -1.1089 -0.5539  0.2741
  960MOL0     C32385   2.022   0.197  11.806 -1.2131  0.2191  0.6332
  960MOL0     C32386   1.866   0.192  11.805 -0.0910  0.0865  0.1406
  960MOL0    Cl32387   1.805   0.063  11.695  0.2862  0.3092 -0.0660
  960MOL0     C32388   2.754   0.646  11.185 -0.4009 -0.1991 -0.9855
  960MOL0     C32389   2.775   0.737  11.084 -0.2848 -1.0362 -1.0049
  960MOL0     O32390   2.751   0.821  10.786 -0.1769  0.2327 -0.6040
  960MOL0     C32391   2.746   1.173  10.852 -0.1499  0.3227  0.5308
  960MOL0     C32392   2.740   1.297  10.804 -0.0718 -0.2362 -0.6057
  960MOL0     N32393   2.821   1.817  10.281  0.5533 -0.8345  0.4502
  960MOL0     N32394   2.854   1.879  10.168  0.0819 -0.5921  0.2225
  960MOL0     C32395   2.704   2.467   9.379 -0.2940  0.1571 -0.8030
  960MOL0     C32396   2.665   2.462   9.246  0.6983 -0.6290 -0.3803
  960MOL0     C32397   2.617   2.439   8.789  0.2449  0.6484 -0.3267
  960MOL0     C32398   2.601   2.574   8.744 -0.2987  0.5681 -0.1595
  960MOL0     C32399   2.545   2.607   8.625  0.9124  0.0215  0.9554
  960MOL0     C32400   2.489   2.513   8.542 -0.3939  1.0997  0.3386
  960MOL0     O32401   2.421   2.551   8.425 -0.4337 -0.4626  0.3979
  960MOL0     C32402   2.342   2.456   8.365  0.7818 -0.6953  0.2694
  960MOL0     C32403   2.263   2.536   8.264  0.2987 -0.1594 -0.2238
  960MOL0     C32404   2.169   2.436   8.192 -0.8038 -0.0345 -0.9425
  960MOL0     C32405   2.092   2.511   8.077 -0.3953 -0.7171 -1.0068
  960MOL0     C32406   1.977   2.427   8.047 -0.0555 -0.9000 -0.2317
  960MOL0     C32407   1.882   2.356   8.034 -0.7065  0.4635  0.3812
  960MOL0     C32408   2.513   2.371   8.571 -0.0098 -0.2594  0.0559
  960MOL0     C32409   2.577   2.332   8.694 -0.6214  0.3222  0.8287
  960MOL0     C32410   2.592   2.182   8.730  0.1062  0.5306 -1.0940
  960MOL0     H32411   2.927   2.643   9.113  1.0405 -0.3130  0.8112
  960MOL0     H32412   2.969   2.671   9.337 -0.6855  1.7366 -0.1353
  960MOL0     H32413   3.037   2.609   9.552 -0.2378  0.9719  0.5168
  960MOL0     H32414   3.018   2.431   9.571  1.6305  0.6499  1.2440
  960MOL0     H32415   2.929   2.651   9.752  3.1452  0.9921 -0.9340
  960MOL0     H32416   2.892   2.487   9.802  0.4538 -1.8419  0.0301
  960MOL0     H32417   3.175   2.579   9.746  0.0975 -3.0675 -1.2051
  960MOL0     H32418   3.090   2.610   9.906  0.7865 -0.1242  0.1170
  960MOL0     H32419   3.131   2.333   9.781 -1.6684  0.8248 -0.9143
  960MOL0     H32420   3.229   2.404   9.908 -0.2678 -0.1148  0.0796
  960MOL0     H32421   2.948   2.328   9.943 -0.4931 -1.1440 -0.3078
  960MOL0     H32422   3.012   2.433  10.062 -2.1078 -1.7177  1.2536
  960MOL0     H32423   3.129   2.156   9.983  0.5114 -1.4280  1.6095
  960MOL0     H32424   3.206   2.252  10.107 -0.2973  1.0402  1.2180
  960MOL0     H32425   2.998   2.243  10.248  0.0465 -0.4905  1.4940
  960MOL0     H32426   3.069   2.091  10.226 -3.9424 -2.5513 -1.0221
  960MOL0     H32427   2.826   2.199  10.080 -0.9996 -0.7619 -0.0550
  960MOL0     H32428   2.919   2.073  10.006  0.2714 -3.4644  1.9948
  960MOL0     H32429   2.731   2.127  10.345  2.7524  0.3572  1.7109
  960MOL0     H32430   2.630   1.906  10.532 -0.3488 -0.2949  0.9606
  960MOL0     H32431   2.806   1.943  10.569  0.5699 -0.6314 -0.4290
  960MOL0     H32432   2.881   1.717  10.554  0.1342 -1.8713  1.0484
  960MOL0     H32433   2.754   1.732  10.662 -0.6591  0.4725  0.5304
  960MOL0     H32434   2.601   1.614  10.519  0.7821 -2.9210  0.4848
  960MOL0     H32435   2.697   1.653  10.369 -1.1993  0.4684 -0.3225
  960MOL0     H32436   2.722   1.414  10.412 -1.4829  0.5601 -0.1400
  960MOL0     H32437   2.869   1.478  10.463 -0.3013  2.2641 -2.1487
  960MOL0     H32438   2.762   1.232  10.479 -1.1821  1.0634  1.6144
  960MOL0     H32439   2.856   0.913  10.550  0.1494 -0.1438 -2.5945
  960MOL0     H32440   2.756   1.008  10.440 -0.9845  1.9590  1.2184
  960MOL0     H32441   2.673   0.904  10.550 -1.2791  2.0535  0.5367
  960MOL0     H32442   2.474   0.888  11.079 -0.0845 -0.3362  0.3663
  960MOL0     H32443   2.419   0.700  11.232 -0.2918 -0.7124 -0.9401
  960MOL0     H32444   2.454   0.525  11.464  0.6855  0.2761 -0.7144
  960MOL0     H32445   2.411   0.480  11.289  2.4320  2.7934 -3.0493
  960MOL0     H32446   2.498   0.251  11.357  0.8950  1.9735 -2.2604
  960MOL0     H32447   2.625   0.329  11.440  0.8715 -1.4375 -2.3376
  960MOL0     H32448   2.475   0.369  11.643 -1.1561  0.3483  0.8681
  960MOL0     H32449   2.467   0.203  11.571  2.6045  0.1981 -3.0431
  960MOL0     H32450   2.270   0.251  11.458  2.8489 -1.2092  0.4866
  960MOL0     H32451   2.250   0.412  11.532 -2.8029 -0.5913  2.3035
  960MOL0     H32452   2.253   0.156  11.682 -4.3953 -1.3183 -0.0604
  960MOL0     H32453   2.247   0.316  11.761 -0.3598 -1.0268  0.8456
  960MOL0     H32454   2.048   0.188  11.582  2.2847 -0.1308 -1.2147
  960MOL0     H32455   2.043   0.351  11.647 -1.0970 -0.4995  0.5026
  960MOL0     H32456   2.065   0.261  11.883 -0.8467  2.4576 -1.2991
  960MOL0     H32457   2.067   0.099  11.821  0.7624  1.1131  0.9387
  960MOL0     H32458   1.815   0.287  11.786 -0.2359  0.5971  2.7608
  960MOL0     H32459   1.841   0.169  11.909 -1.3459  0.7481  0.0113
  960MOL0     H32460   2.832   0.577  11.214 -1.1771 -0.0967  1.5838
  960MOL0     H32461   2.874   0.744  11.040  1.9188 -0.3198  3.5080
  960MOL0     H32462   2.743   1.166  10.960  2.0203 -3.6178  0.5532
  960MOL0     H32463   2.730   1.371  10.883 -1.6357 -1.2476  0.2063
  960MOL0     H32464   2.656   2.414   9.460 -0.2825  0.4408 -0.6098
  960MOL0     H32465   2.596   2.384   9.216 -0.1262  0.1272 -0.4718
  960MOL0     H32466   2.629   2.662   8.800 -0.2997 -0.1074  0.9338
  960MOL0     H32467   2.515   2.709   8.600  0.5481 -0.0473  1.1060
  960MOL0     H32468   2.412   2.388   8.315  2.2421  2.2127 -1.9467
  960MOL0     H32469   2.274   2.406   8.434 -1.9738  2.8852  0.4230
  960MOL0     H32470   2.317   2.594   8.189  4.2543 -0.9322  1.7590
  960MOL0     H32471   2.210   2.620   8.310  1.1967  0.5643 -0.4766
  960MOL0     H32472   2.228   2.356   8.147  2.2981  0.7321  1.4832
  960MOL0     H32473   2.091   2.398   8.259 -2.0297  0.2463 -2.1571
  960MOL0     H32474   2.161   2.524   7.993 -1.8031  0.0543 -2.0878
  960MOL0     H32475   2.050   2.606   8.111 -0.9904 -0.9964 -0.9648
  960MOL0     H32476   1.785   2.313   8.019 -1.3429  1.3913  1.6659
  960MOL0     H32477   2.459   2.296   8.513 -2.5377 -0.8326  2.9132
  960MOL0     H32478   2.529   2.124   8.662  0.0296 -0.3741 -0.2716
  960MOL0     H32479   2.694   2.143   8.736 -1.1052 -2.6870  1.7272
  960MOL0     H32480   2.540   2.159   8.823 -0.7005 -2.4488 -2.1698
  961MOL0     O32481   1.761   3.901   2.308  0.2529  0.5695  0.1893
  961MOL0     C32482   1.779   3.900   2.429 -0.2066  0.9426  0.0348
  961MOL0     O32483   1.804   3.785   2.505 -0.5489 -0.0349  1.0434
  961MOL0     C32484   1.824   3.666   2.441  0.0613 -0.2962 -0.1089
  961MOL0     C32485   1.762   3.552   2.488  0.6409  0.4179 -0.5296
  961MOL0     C32486   1.792   3.421   2.430 -0.7250 -0.8696 -0.0397
  961MOL0     C32487   1.892   3.416   2.331  0.0623 -0.9850 -0.0548
  961MOL0     O32488   1.933   3.308   2.270 -0.1020 -0.0650  0.2515
  961MOL0     C32489   1.908   3.178   2.335 -1.2152 -0.1950 -1.0447
  961MOL0     C32490   1.977   3.160   2.472  0.5001  0.2208 -0.3398
  961MOL0     C32491   1.950   3.019   2.520 -0.5250 -1.2137  1.2508
  961MOL0     C32492   2.016   2.999   2.652 -0.3803 -0.2245  0.0883
  961MOL0     C32493   1.939   2.918   2.742 -0.4866 -0.1453  0.8705
  961MOL0     C32494   1.896   2.780   2.689  0.5162 -0.6038  0.3217
  961MOL0     C32495   1.818   2.697   2.789 -0.2660 -0.4384  0.3293
  961MOL0     C32496   1.781   2.553   2.748 -0.3764 -0.2145 -0.3164
  961MOL0     N32497   1.664   2.550   2.659  0.1827  0.5203 -0.0898
  961MOL0     C32498   1.538   2.533   2.696 -0.9420  0.4395 -0.7232
  961MOL0     C32499   1.468   2.515   2.583 -0.6411 -0.4922  0.4165
  961MOL0     C32500   1.324   2.459   2.584 -0.1629 -0.7965 -0.1782
  961MOL0     C32501   1.236   2.567   2.516 -0.3984  0.3905  0.0492
  961MOL0     C32502   1.087   2.522   2.528 -0.5686 -0.9812 -0.0155
  961MOL0     C32503   1.011   2.560   2.407 -0.0561 -0.2749  0.2154
  961MOL0     O32504   1.039   2.694   2.357  0.4209 -0.2717 -0.1711
  961MOL0     C32505   1.031   2.796   2.456  0.0140 -0.0002  0.8947
  961MOL0     C32506   1.129   2.899   2.450  0.1151  0.3163 -0.6191
  961MOL0     C32507   1.117   3.011   2.542 -0.0730 -0.2248  0.9265
  961MOL0     C32508   1.245   3.090   2.549 -0.4900 -0.2350  0.2848
  961MOL0     C32509   1.008   3.032   2.614  0.6310  0.6697 -0.4787
  961MOL0     C32510   0.976   3.150   2.698  0.3966 -0.3404 -0.3905
  961MOL0     O32511   0.850   3.152   2.760 -0.5862  0.0692  0.7712
  961MOL0     C32512   0.821   3.278   2.810  0.1551 -0.3473 -0.0013
  961MOL0     C32513   0.728   3.355   2.749  0.1819 -0.7055  0.0902
  961MOL0     C32514   0.701   3.487   2.792  0.5783  0.6120 -0.7498
  961MOL0     C32515   0.761   3.535   2.909 -0.3532 -0.0324  0.6489
  961MOL0     O32516   0.739   3.650   2.979  0.3899 -0.2034  0.1222
  961MOL0     C32517   0.746   3.766   2.897  0.8301 -0.8730  0.5614
  961MOL0     C32518   0.798   3.883   2.984 -0.1197 -0.4957  1.0751
  961MOL0     C32519   0.926   3.851   3.052  0.1247  0.0299 -0.3248
  961MOL0     C32520   0.928   3.941   3.172  0.2710 -0.0392  0.3129
  961MOL0     C32521   1.075   3.946   3.224  0.1386  1.4176  1.8006
  961MOL0     C32522   1.075   3.989   3.363 -0.4521 -1.1814 -0.3939
  961MOL0     C32523   1.210   3.977   3.438 -0.1284  0.6528  0.1891
  961MOL0     C32524   1.196   3.989   3.588  0.3746  0.1845 -0.4164
  961MOL0    Cl32525   1.164   3.840   3.676 -0.7708 -0.1564 -0.1340
  961MOL0     C32526   0.850   3.459   2.978  0.3873  0.3558 -0.0158
  961MOL0     C32527   0.881   3.329   2.925 -0.6906 -0.7039  0.0417
  961MOL0     O32528   1.046   3.254   2.692 -0.3113 -0.2885 -0.1078
  961MOL0     C32529   0.912   2.922   2.632  0.0778 -1.0117 -0.0360
  961MOL0     C32530   0.921   2.807   2.547 -1.1842  0.7636  0.6089
  961MOL0     N32531   1.550   2.517   2.475  0.8794 -0.2155 -0.0447
  961MOL0     N32532   1.672   2.536   2.520  0.3480 -0.0152  0.0970
  961MOL0     C32533   1.956   3.535   2.288  1.4449  1.2950 -0.0442
  961MOL0     C32534   1.918   3.659   2.342 -0.5209  1.0032  0.7160
  961MOL0     C32535   1.765   4.027   2.505  0.2261 -0.3403 -0.9864
  961MOL0     C32536   1.738   4.010   2.638  0.9072 -0.3064 -0.1510
  961MOL0     C32537   1.729   4.132   2.721 -0.5303  0.3223  0.1001
  961MOL0     C32538   1.734   4.267   2.676  0.8063  0.0862  1.0534
  961MOL0     O32539   1.740   4.363   2.769  0.7510 -0.6115 -0.3512
  961MOL0     C32540   1.761   4.501   2.730  0.5125  1.0091 -0.7410
  961MOL0     C32541   1.907   4.534   2.727 -0.5138  0.3112  0.1777
  961MOL0     C32542   1.937   4.684   2.707 -0.0323 -0.8088  0.4761
  961MOL0     C32543   1.983   4.760   2.840 -0.1428  1.0896  1.1568
  961MOL0     C32544   2.122   4.758   2.876  0.4433 -0.5765 -0.5472
  961MOL0     C32545   2.232   4.746   2.919 -0.1056 -0.5337 -0.1327
  961MOL0     C32546   1.738   4.276   2.538 -0.8571  0.1542 -0.0133
  961MOL0     C32547   1.760   4.162   2.452  0.0111 -0.4855  0.4844
  961MOL0     C32548   1.799   4.198   2.315 -0.3688 -0.1795 -0.7366
  961MOL0     H32549   1.687   3.564   2.566 -0.2632 -1.9945 -0.9349
  961MOL0     H32550   1.737   3.345   2.484 -4.3313  1.6912  0.2920
  961MOL0     H32551   1.954   3.098   2.278  2.5939  0.3944  0.8664
  961MOL0     H32552   1.800   3.160   2.339 -1.1057 -1.2653 -2.3505
  961MOL0     H32553   2.084   3.179   2.462  1.2262 -1.7641  2.5664
  961MOL0     H32554   1.929   3.218   2.551  2.2424 -0.6244  1.4252
  961MOL0     H32555   1.844   2.996   2.528 -0.8969  0.2435  0.7385
  961MOL0     H32556   1.988   2.948   2.445  0.3463  1.3165 -0.8752
  961MOL0     H32557   2.116   2.957   2.637  0.0805  1.2738 -1.3587
  961MOL0     H32558   2.041   3.095   2.698 -1.2017  0.7917 -1.4946
  961MOL0     H32559   1.850   2.975   2.771 -0.5020  0.1313  0.2966
  961MOL0     H32560   1.990   2.905   2.838  2.2661 -1.7339 -0.6981
  961MOL0     H32561   1.840   2.780   2.595 -0.4502 -0.0592  0.8819
  961MOL0     H32562   1.989   2.724   2.673  0.2835 -0.6722 -0.8660
  961MOL0     H32563   1.730   2.753   2.825 -0.6096 -1.3371  0.9181
  961MOL0     H32564   1.885   2.673   2.872  0.7152  0.9184 -0.0353
  961MOL0     H32565   1.854   2.515   2.676 -1.0996  0.6508 -1.5580
  961MOL0     H32566   1.771   2.476   2.824  3.3837 -2.0180 -1.4049
  961MOL0     H32567   1.507   2.537   2.800 -0.2139  3.1696 -0.5294
  961MOL0     H32568   1.291   2.443   2.687 -0.1810 -2.6602 -0.4474
  961MOL0     H32569   1.324   2.356   2.547 -0.4646 -1.7485  2.3207
  961MOL0     H32570   1.254   2.663   2.565  2.8285  0.5085 -1.1031
  961MOL0     H32571   1.270   2.557   2.412 -0.2767  0.0604  0.1210
  961MOL0     H32572   1.091   2.415   2.551  3.4255 -1.2741 -1.2657
  961MOL0     H32573   1.037   2.571   2.612  2.2854  3.0541 -0.3664
  961MOL0     H32574   1.039   2.491   2.326  0.0376 -0.2450  0.2217
  961MOL0     H32575   0.903   2.555   2.423  0.1282  2.1747  2.7942
  961MOL0     H32576   1.219   2.894   2.390 -1.1637  1.2640 -2.7094
  961MOL0     H32577   1.279   3.087   2.653  1.1700  0.1617 -0.2094
  961MOL0     H32578   1.225   3.195   2.524  3.9468  1.4134  2.4702
  961MOL0     H32579   1.323   3.055   2.481  0.9580  3.3531 -0.1766
  961MOL0     H32580   0.663   3.319   2.670  0.2184  0.5995 -0.5630
  961MOL0     H32581   0.627   3.552   2.746  1.4644  3.5343  1.6005
  961MOL0     H32582   0.808   3.748   2.809  0.1713  0.9942 -0.3457
  961MOL0     H32583   0.642   3.786   2.868  1.4024  0.1413 -0.9054
  961MOL0     H32584   0.817   3.965   2.915 -2.6941  0.6503  1.6314
  961MOL0     H32585   0.719   3.909   3.055 -1.7009 -2.4813  0.1773
  961MOL0     H32586   1.020   3.841   2.997 -0.2958  3.2466 -1.8289
  961MOL0     H32587   0.903   3.758   3.105 -2.0843 -0.5124 -2.1005
  961MOL0     H32588   0.872   3.902   3.258  1.1622 -1.7088  0.1821
  961MOL0     H32589   0.894   4.041   3.145 -0.9607 -0.9651 -1.8108
  961MOL0     H32590   1.121   3.847   3.226 -0.5787  1.0939  3.2315
  961MOL0     H32591   1.131   4.013   3.158 -1.0358 -0.1833 -0.9981
  961MOL0     H32592   1.006   3.932   3.425 -0.6961 -0.6218 -0.1397
  961MOL0     H32593   1.046   4.095   3.361  2.5213 -0.1952  1.1672
  961MOL0     H32594   1.285   4.049   3.403  0.1006  0.8522  1.0697
  961MOL0     H32595   1.251   3.877   3.417  0.3091  1.1317 -1.3871
  961MOL0     H32596   1.115   4.055   3.619  1.3534  0.5365  1.4876
  961MOL0     H32597   1.290   4.028   3.627 -1.4190  2.5374  1.8753
  961MOL0     H32598   0.900   3.509   3.061  3.4330 -2.2769 -0.0857
  961MOL0     H32599   0.958   3.263   2.963 -1.6364 -0.3947  2.7536
  961MOL0     H32600   0.823   2.931   2.694  1.0249 -0.0552  1.2608
  961MOL0     H32601   0.848   2.727   2.548  0.7093 -1.0446  1.0863
  961MOL0     H32602   2.022   3.529   2.202 -0.5293  0.2458 -1.5696
  961MOL0     H32603   1.972   3.751   2.322  0.6815  0.8005  2.7371
  961MOL0     H32604   1.721   3.910   2.678  0.0804 -1.7288 -3.6779
  961MOL0     H32605   1.705   4.104   2.823  0.3620 -2.6444 -0.4050
  961MOL0     H32606   1.719   4.531   2.634  1.5380 -1.6578 -2.1368
  961MOL0     H32607   1.709   4.567   2.800 -0.0555  1.1145 -1.2520
  961MOL0     H32608   1.961   4.474   2.654  1.1977  2.8405 -0.7517
  961MOL0     H32609   1.950   4.500   2.822 -2.1300  1.1602  1.2592
  961MOL0     H32610   2.001   4.699   2.619 -2.2301  2.6490 -0.7380
  961MOL0     H32611   1.837   4.714   2.674 -0.5694 -3.6653 -0.8561
  961MOL0     H32612   1.910   4.733   2.917 -2.8154 -2.1054 -2.1197
  961MOL0     H32613   1.964   4.866   2.822  1.0716  1.6897  3.1051
  961MOL0     H32614   2.333   4.714   2.936  0.8314  2.0448 -0.2943
  961MOL0     H32615   1.735   4.375   2.492 -2.4495 -0.7462 -2.0213
  961MOL0     H32616   1.732   4.144   2.249 -1.7042  0.3027  0.1840
  961MOL0     H32617   1.793   4.307   2.313 -2.0165  0.0692  4.1742
  961MOL0     H32618   1.892   4.150   2.281 -0.3403 -0.3439 -0.4281
  962MOL0     O32619   6.058   5.427   1.345  0.4635  0.3407  0.4498
  962MOL0     C32620   6.049   5.550   1.339  0.4232  0.7458 -0.6454
  962MOL0     O32621   6.093   5.642   1.431  1.0010 -0.4060  0.2738
  962MOL0     C32622   6.143   5.602   1.551  0.0409 -0.1292 -0.2107
  962MOL0     C32623   6.121   5.689   1.657  0.2812  0.0982  0.4892
  962MOL0     C32624   6.183   5.665   1.782  0.1622  0.0122 -0.2561
  962MOL0     C32625   6.269   5.557   1.808 -0.7423 -0.4642  0.2449
  962MOL0     O32626   6.353   5.527   1.916 -0.3604 -0.1694 -0.2240
  962MOL0     C32627   6.312   5.563   2.049  0.2282 -0.1818 -0.0662
  962MOL0     C32628   6.193   5.488   2.094  1.1426  0.8267 -0.3008
  962MOL0     C32629   6.204   5.419   2.238  0.5490 -0.5991  0.7554
  962MOL0     C32630   6.207   5.519   2.357 -0.3357 -0.8405 -0.1337
  962MOL0     C32631   6.228   5.439   2.490  0.4484 -0.4999 -0.5512
  962MOL0     C32632   6.273   5.530   2.604  0.4605 -0.4152  0.1772
  962MOL0     C32633   6.175   5.637   2.652  0.3716  1.0882  0.2636
  962MOL0     C32634   6.204   5.676   2.797  0.2719 -0.0710  0.1268
  962MOL0     N32635   6.155   5.571   2.890 -0.1264 -0.0702 -0.8207
  962MOL0     C32636   6.026   5.550   2.940 -0.6888  0.7306 -0.0943
  962MOL0     C32637   6.045   5.443   3.032  0.1064  0.3042  0.3439
  962MOL0     C32638   5.944   5.385   3.129  0.9798 -0.0051 -0.5521
  962MOL0     C32639   5.920   5.471   3.256  0.5561  0.5267  0.0514
  962MOL0     C32640   5.847   5.411   3.372  0.4316  0.7615 -0.1669
  962MOL0     C32641   5.777   5.527   3.445  0.8039  0.8983 -0.0364
  962MOL0     O32642   5.737   5.493   3.583  0.9036  0.8910 -0.1163
  962MOL0     C32643   5.707   5.594   3.672  0.5436  0.3932 -0.8006
  962MOL0     C32644   5.651   5.544   3.792  0.1306 -0.3036 -0.8046
  962MOL0     C32645   5.599   5.629   3.886 -0.3395 -0.6166 -0.7578
  962MOL0     C32646   5.541   5.564   4.006  0.6382 -0.4779 -0.5242
  962MOL0     C32647   5.613   5.774   3.872  0.3716 -0.3280  0.2740
  962MOL0     C32648   5.571   5.876   3.968  0.8017  0.1436  0.0731
  962MOL0     O32649   5.651   5.988   3.997 -0.3153  0.3108  0.4411
  962MOL0     C32650   5.618   6.064   4.116 -1.2415 -0.0994  0.5029
  962MOL0     C32651   5.548   6.032   4.236 -0.1071  0.6134 -0.5418
  962MOL0     C32652   5.515   6.131   4.328  0.7092  0.1187 -0.4737
  962MOL0     C32653   5.578   6.255   4.325  0.2622 -0.4503  0.0240
  962MOL0     O32654   5.588   6.323   4.441 -0.1805  0.7607 -0.5317
  962MOL0     C32655   5.653   6.443   4.466  0.6518  0.7110  0.3244
  962MOL0     C32656   5.598   6.566   4.392 -0.1111  0.3833  0.0350
  962MOL0     C32657   5.713   6.674   4.378  0.7708  0.5186 -0.4513
  962MOL0     C32658   5.793   6.669   4.247  0.3914  0.5221  1.3966
  962MOL0     C32659   5.930   6.734   4.250  0.2411 -0.0863  0.5555
  962MOL0     C32660   6.037   6.681   4.156  0.0032 -0.4713  0.3754
  962MOL0     C32661   6.176   6.729   4.186 -0.4433 -0.0600  0.0064
  962MOL0     C32662   6.282   6.635   4.133  0.1151  0.5792  0.2663
  962MOL0    Cl32663   6.268   6.592   3.964  0.0492 -0.5303  0.0725
  962MOL0     C32664   5.650   6.292   4.205  0.1009  0.5601 -0.4151
  962MOL0     C32665   5.663   6.197   4.106 -0.0171  0.3244  0.1371
  962MOL0     O32666   5.471   5.841   4.032 -0.4841  1.0490  0.5522
  962MOL0     C32667   5.688   5.815   3.764 -0.4159  0.2379 -0.3624
  962MOL0     C32668   5.736   5.734   3.655  0.1898  0.4860 -1.1284
  962MOL0     N32669   6.173   5.401   3.026 -0.3355 -1.2481  0.5735
  962MOL0     N32670   6.242   5.479   2.948  0.5446 -0.6518  0.3895
  962MOL0     C32671   6.283   5.464   1.703 -0.2079  0.3839  0.5835
  962MOL0     C32672   6.232   5.494   1.576  0.1806  0.4136  0.0447
  962MOL0     C32673   6.001   5.602   1.211  0.4667 -0.9124  0.0112
  962MOL0     C32674   5.873   5.660   1.202 -0.7528 -0.4371 -0.1447
  962MOL0     C32675   5.833   5.719   1.091 -0.1872  0.2917  0.3300
  962MOL0     C32676   5.911   5.720   0.977  0.3386 -0.8654  0.6209
  962MOL0     O32677   5.863   5.776   0.862 -0.6177 -0.4851  0.3520
  962MOL0     C32678   5.757   5.881   0.859  0.6551  0.2822 -0.2406
  962MOL0     C32679   5.738   5.905   0.710  0.0463 -0.1839  0.3219
  962MOL0     C32680   5.810   6.031   0.655  0.4610  0.5095  0.3973
  962MOL0     C32681   5.827   6.007   0.503  0.5554 -0.3979  0.2798
  962MOL0     C32682   5.872   6.126   0.437 -0.1341  0.0040 -0.6217
  962MOL0     C32683   5.912   6.229   0.384 -0.6016  0.1017  0.4569
  962MOL0     C32684   6.042   5.672   0.984  0.2144  1.1421 -0.6240
  962MOL0     C32685   6.089   5.611   1.097  1.0501  0.0669 -0.6865
  962MOL0     C32686   6.223   5.543   1.084 -0.1092 -0.3109  0.1222
  962MOL0     H32687   6.060   5.778   1.643 -1.8803 -1.5504 -1.3399
  962MOL0     H32688   6.167   5.731   1.866  1.0456 -0.8243  0.5886
  962MOL0     H32689   6.288   5.670   2.048  2.3244  0.3884  1.8787
  962MOL0     H32690   6.402   5.554   2.110  1.6567 -1.2411 -2.2176
  962MOL0     H32691   6.104   5.552   2.101  0.0819 -0.5467 -0.6689
  962MOL0     H32692   6.167   5.418   2.013  1.1340 -0.6635  0.9514
  962MOL0     H32693   6.113   5.360   2.256 -0.2255  0.5713  0.7681
  962MOL0     H32694   6.298   5.363   2.227  0.6700 -0.0103 -1.5725
  962MOL0     H32695   6.287   5.593   2.349 -0.5665 -0.5558  0.1861
  962MOL0     H32696   6.108   5.565   2.350  0.2759  0.9346  2.0120
  962MOL0     H32697   6.305   5.363   2.474  3.5015  2.1670  0.4757
  962MOL0     H32698   6.134   5.397   2.527  1.2274  0.6924  3.2726
  962MOL0     H32699   6.275   5.461   2.689 -2.3131 -0.3623  0.3817
  962MOL0     H32700   6.373   5.568   2.583  1.8615 -4.1756 -0.8616
  962MOL0     H32701   6.071   5.605   2.645  0.8686 -0.2530 -3.7084
  962MOL0     H32702   6.181   5.719   2.579 -3.3814 -0.5071 -2.1565
  962MOL0     H32703   6.309   5.686   2.828  0.1763  0.2285  0.3595
  962MOL0     H32704   6.164   5.772   2.830  1.1357  0.3403  0.0041
  962MOL0     H32705   5.938   5.607   2.911 -0.3310  1.5320  0.3677
  962MOL0     H32706   5.979   5.292   3.175 -0.6807  1.5518  4.6031
  962MOL0     H32707   5.846   5.359   3.088 -0.1075 -1.6139  2.6581
  962MOL0     H32708   6.022   5.497   3.288  0.3697 -0.4960  1.5515
  962MOL0     H32709   5.865   5.561   3.226 -0.9684  0.8683  3.4199
  962MOL0     H32710   5.784   5.331   3.332  2.7066 -1.0062 -0.4732
  962MOL0     H32711   5.913   5.363   3.446 -1.2632 -0.7550  0.4495
  962MOL0     H32712   5.854   5.605   3.454  0.5709  0.9216  2.3810
  962MOL0     H32713   5.697   5.559   3.378  1.4289 -0.3412 -1.4124
  962MOL0     H32714   5.651   5.437   3.811 -1.4567 -0.4723 -1.5488
  962MOL0     H32715   5.543   5.455   4.007  2.3715 -0.4619 -0.2302
  962MOL0     H32716   5.434   5.582   4.021  0.8528 -0.2933  0.9516
  962MOL0     H32717   5.586   5.606   4.097  1.5406 -0.0462 -1.1583
  962MOL0     H32718   5.530   5.927   4.252  3.3908 -0.2398 -1.4708
  962MOL0     H32719   5.459   6.102   4.417 -0.1853  2.2692 -0.2781
  962MOL0     H32720   5.639   6.458   4.573  2.7094 -1.2001  0.9435
  962MOL0     H32721   5.760   6.422   4.450  0.8479 -0.4977  2.8628
  962MOL0     H32722   5.552   6.543   4.295 -1.6074 -1.2266  1.0640
  962MOL0     H32723   5.514   6.602   4.453  0.6289 -2.4383  2.9470
  962MOL0     H32724   5.788   6.666   4.457  0.6366 -0.1116 -0.3802
  962MOL0     H32725   5.677   6.776   4.396 -3.3944 -1.2736  3.1355
  962MOL0     H32726   5.737   6.696   4.157 -0.0477 -1.9107  0.8822
  962MOL0     H32727   5.814   6.562   4.238  1.4962  0.6853  1.9549
  962MOL0     H32728   5.928   6.841   4.226  1.7556 -0.2563 -0.4492
  962MOL0     H32729   5.974   6.723   4.350  3.3938  2.0521 -0.4355
  962MOL0     H32730   6.020   6.727   4.058 -1.2526  2.5133  1.8721
  962MOL0     H32731   6.032   6.573   4.139 -1.9235 -0.7089  2.0389
  962MOL0     H32732   6.185   6.739   4.295 -3.1027 -1.4475  0.4496
  962MOL0     H32733   6.192   6.825   4.136 -0.7686  0.1317  0.2601
  962MOL0     H32734   6.277   6.547   4.198  3.1338  0.4000  0.3886
  962MOL0     H32735   6.385   6.669   4.142 -0.3830  2.0905  0.4104
  962MOL0     H32736   5.701   6.387   4.196 -0.8320  0.9299 -2.2393
  962MOL0     H32737   5.723   6.226   4.021 -0.7442  0.0702 -0.4696
  962MOL0     H32738   5.713   5.921   3.756  1.4680 -0.2179 -1.3081
  962MOL0     H32739   5.789   5.766   3.566 -0.7857 -0.9487 -2.2837
  962MOL0     H32740   6.354   5.382   1.712  1.6402  1.7351 -0.6414
  962MOL0     H32741   6.255   5.430   1.491 -4.8344  0.2112 -1.4872
  962MOL0     H32742   5.805   5.655   1.286 -0.3113 -0.7922  0.1981
  962MOL0     H32743   5.732   5.758   1.080  0.3054  0.9945 -2.6267
  962MOL0     H32744   5.666   5.846   0.907  1.1693 -0.7751 -0.0067
  962MOL0     H32745   5.800   5.968   0.909 -0.5539 -0.2005  1.7187
  962MOL0     H32746   5.631   5.915   0.690  0.3881 -0.1236 -1.7958
  962MOL0     H32747   5.772   5.818   0.653 -1.1735 -0.0027 -0.7469
  962MOL0     H32748   5.757   6.125   0.667  0.0199  0.4537 -0.9948
  962MOL0     H32749   5.911   6.045   0.697  0.8431 -0.5552 -0.1225
  962MOL0     H32750   5.735   5.958   0.471  1.2683 -3.6660  2.6806
  962MOL0     H32751   5.896   5.925   0.483 -1.3632 -1.2632 -3.8564
  962MOL0     H32752   5.958   6.316   0.342  1.9249 -2.1675 -1.8448
  962MOL0     H32753   6.102   5.682   0.894  1.3101 -0.5727 -0.1422
  962MOL0     H32754   6.261   5.532   0.982  0.5000  0.7146  0.2318
  962MOL0     H32755   6.299   5.590   1.147  1.8030  0.0337 -2.3180
  962MOL0     H32756   6.231   5.439   1.118  1.4153 -0.9903 -2.1047
  963MOL0     O32757   8.790   5.145  10.792 -0.0543 -0.1002  0.2913
  963MOL0     C32758   8.691   5.161  10.857  0.6223  0.7376 -0.1787
  963MOL0     O32759   8.637   5.286  10.894 -0.7636 -0.6809 -0.5107
  963MOL0     C32760   8.728   5.395  10.904  0.6144 -0.7377 -0.5926
  963MOL0     C32761   8.676   5.519  10.865 -0.1391 -0.3769 -0.6187
  963MOL0     C32762   8.750   5.635  10.884 -1.1061 -0.0271 -1.1325
  963MOL0     C32763   8.890   5.631  10.934 -0.4666  0.1595 -0.4232
  963MOL0     O32764   8.960   5.748  10.964 -0.1163  0.9126  0.0219
  963MOL0     C32765   9.070   5.776  10.886 -0.4763  0.0255  0.3327
  963MOL0     C32766   9.160   5.882  10.943  0.7864 -0.2531  0.7977
  963MOL0     C32767   9.091   6.015  10.936  0.7014  1.0864 -0.5426
  963MOL0     C32768   9.075   6.085  10.794 -0.6553 -0.6969  0.0006
  963MOL0     C32769   8.958   6.183  10.813  0.1754 -0.1059 -0.0984
  963MOL0     C32770   8.977   6.333  10.775  0.1383 -0.1535  0.0895
  963MOL0     C32771   8.872   6.412  10.848  0.2392 -0.8627  0.1832
  963MOL0     C32772   8.879   6.555  10.793  0.4016  0.4369 -0.4228
  963MOL0     N32773   8.939   6.645  10.894  0.7340  0.0366  0.2942
  963MOL0     C32774   8.860   6.699  10.992 -0.5902 -0.2946 -0.1971
  963MOL0     C32775   8.950   6.760  11.077 -0.4330 -0.3455  1.0416
  963MOL0     C32776   8.908   6.834  11.203 -0.4107  0.2205 -0.0157
  963MOL0     C32777   8.860   6.734  11.313  0.5579 -0.1462  0.6579
  963MOL0     C32778   8.975   6.670  11.385 -0.2835  0.4400  0.9766
  963MOL0     C32779   8.914   6.558  11.486  0.2989  0.1460  0.9297
  963MOL0     O32780   8.846   6.633  11.586 -0.3288  0.4030 -0.2203
  963MOL0     C32781   8.907   6.712  11.678  0.5793  0.4177  0.1070
  963MOL0     C32782   8.813   6.783  11.755  0.2756  0.5603 -0.0447
  963MOL0     C32783   8.858   6.864  11.859 -0.6800  0.6236  0.6060
  963MOL0     C32784   8.745   6.930  11.943 -0.5687 -0.7758  0.8764
  963MOL0     C32785   8.999   6.872  11.892 -0.2267 -0.2195  0.8025
  963MOL0     C32786   9.064   6.959  11.994 -0.3433  0.0177 -0.2514
  963MOL0     O32787   9.203   6.964  12.000 -0.8717 -0.5267  0.3032
  963MOL0     C32788   9.262   7.039  12.093 -0.3543 -0.6926 -0.2196
  963MOL0     C32789   9.291   7.001  12.224  0.3091 -0.5706 -0.0645
  963MOL0     C32790   9.366   7.079  12.312 -0.8225  0.0414 -0.1033
  963MOL0     C32791   9.404   7.204  12.274 -0.2652  0.1132  0.3878
  963MOL0     O32792   9.477   7.280  12.357  1.0684 -0.8060 -0.7411
  963MOL0     C32793   9.576   7.365  12.306 -0.5841 -0.0675  0.2284
  963MOL0     C32794   9.693   7.336  12.393  0.7542  0.8938  1.6704
  963MOL0     C32795   9.759   7.203  12.357  0.8000 -0.5715 -0.6878
  963MOL0     C32796   9.890   7.185  12.441  0.9215 -0.1593 -0.6355
  963MOL0     C32797   9.876   7.060  12.528  0.7705 -1.0777  0.5260
  963MOL0     C32798  10.003   7.028  12.607 -1.4836  0.2447 -1.1255
  963MOL0     C32799  10.126   6.984  12.533  0.1195  0.7582  0.6929
  963MOL0     C32800  10.255   6.968  12.618  0.3601 -0.1918  0.4590
  963MOL0    Cl32801  10.350   7.109  12.623 -0.1543 -0.3383 -0.4436
  963MOL0     C32802   9.360   7.244  12.146  0.2968 -0.1619  0.9160
  963MOL0     C32803   9.296   7.167  12.056  0.2686 -0.1994 -0.2584
  963MOL0     O32804   8.991   7.031  12.058  0.1351 -0.8485  0.5710
  963MOL0     C32805   9.090   6.794  11.808  0.1890  0.3488 -0.6301
  963MOL0     C32806   9.040   6.715  11.708  1.0393  0.2195  0.1081
  963MOL0     N32807   9.080   6.739  11.022  0.3272 -0.4443 -0.0509
  963MOL0     N32808   9.073   6.663  10.917  0.5876  0.6587  0.3847
  963MOL0     C32809   8.945   5.508  10.964  0.6232  0.7780  0.8651
  963MOL0     C32810   8.856   5.387  10.961 -0.9656 -0.7343 -0.0494
  963MOL0     C32811   8.595   5.047  10.886 -0.5953 -0.2432  0.4248
  963MOL0     C32812   8.568   4.944  10.790  1.2257  0.3168  0.5649
  963MOL0     C32813   8.487   4.829  10.819  0.5020  0.0401 -0.9037
  963MOL0     C32814   8.437   4.826  10.950 -0.0468  0.2742  0.2191
  963MOL0     O32815   8.385   4.729  11.024  0.1446  0.5348  1.0024
  963MOL0     C32816   8.283   4.651  10.955 -0.6973  0.3140  0.0972
  963MOL0     C32817   8.179   4.595  11.058 -0.1838 -0.1640  0.5603
  963MOL0     C32818   8.218   4.443  11.099  0.0066  0.2905  0.3605
  963MOL0     C32819   8.184   4.341  11.003  0.2566  0.9289 -0.2470
  963MOL0     C32820   8.238   4.202  11.022 -1.9668 -0.1224  0.5560
  963MOL0     C32821   8.286   4.087  11.010 -0.1662 -0.1760  0.5094
  963MOL0     C32822   8.461   4.925  11.043  0.6266  1.2150  0.2136
  963MOL0     C32823   8.551   5.025  11.015  0.7653 -0.9225  0.2483
  963MOL0     C32824   8.585   5.103  11.130  0.0385 -1.1635  1.0133
  963MOL0     H32825   8.570   5.525  10.840 -0.0394 -1.1884 -1.2855
  963MOL0     H32826   8.712   5.734  10.862 -1.0222  0.0318 -1.0164
  963MOL0     H32827   9.040   5.809  10.786  0.5732  1.8688  0.5744
  963MOL0     H32828   9.138   5.692  10.867  2.8566  2.6541 -0.4878
  963MOL0     H32829   9.187   5.861  11.047 -3.1358 -4.3613  1.2881
  963MOL0     H32830   9.251   5.868  10.884  0.4481 -4.1334  0.9166
  963MOL0     H32831   8.995   5.998  10.987 -0.9151 -0.2429 -3.7601
  963MOL0     H32832   9.156   6.083  10.991  2.6511 -1.0013 -0.1414
  963MOL0     H32833   9.165   6.130  10.752 -0.9079 -3.0914 -3.5276
  963MOL0     H32834   9.046   6.018  10.713 -0.1347  1.0830 -1.7603
  963MOL0     H32835   8.946   6.190  10.921 -1.6073 -2.0200 -0.1102
  963MOL0     H32836   8.867   6.131  10.781  2.0553 -3.4295 -0.5425
  963MOL0     H32837   9.082   6.362  10.789  0.1497 -0.4252  0.6070
  963MOL0     H32838   8.969   6.342  10.666  5.4677  0.3556 -0.5464
  963MOL0     H32839   8.892   6.423  10.955  2.1004  2.6185 -0.3694
  963MOL0     H32840   8.769   6.379  10.837 -1.7288  3.5682  2.6945
  963MOL0     H32841   8.935   6.552  10.699  2.4213 -3.0691  0.7291
  963MOL0     H32842   8.777   6.581  10.763 -1.0243 -0.5212  3.0928
  963MOL0     H32843   8.753   6.697  11.008 -0.2365 -0.3342  2.6913
  963MOL0     H32844   8.829   6.908  11.194  1.2699  2.3022  1.2387
  963MOL0     H32845   8.994   6.893  11.235  0.8327  0.4337 -3.3499
  963MOL0     H32846   8.793   6.790  11.379 -0.9432 -0.3451 -0.6310
  963MOL0     H32847   8.796   6.656  11.271  1.0542 -2.4401  3.8329
  963MOL0     H32848   9.042   6.615  11.319 -0.8533  1.6769 -0.6709
  963MOL0     H32849   9.021   6.749  11.445 -1.8054  0.5292  2.1029
  963MOL0     H32850   8.834   6.493  11.449  1.6509  0.4007 -2.9389
  963MOL0     H32851   8.993   6.488  11.518 -1.5609 -3.3296 -1.3832
  963MOL0     H32852   8.706   6.768  11.741  0.4158 -1.5108  0.6365
  963MOL0     H32853   8.729   7.036  11.921 -2.3490 -1.1487  0.1763
  963MOL0     H32854   8.784   6.909  12.043  2.4222 -0.6702 -0.1691
  963MOL0     H32855   8.649   6.889  11.912 -0.1077  0.4269 -2.6008
  963MOL0     H32856   9.260   6.904  12.262  2.7333 -0.8889  1.2775
  963MOL0     H32857   9.382   7.048  12.415  0.7474 -1.5340 -0.7621
  963MOL0     H32858   9.610   7.345  12.204 -0.7952 -0.1449  0.1728
  963MOL0     H32859   9.554   7.472  12.316  0.9277  0.5988 -2.5085
  963MOL0     H32860   9.767   7.414  12.377  0.6143  0.9190  1.1533
  963MOL0     H32861   9.675   7.355  12.500  0.3271  3.0670  1.2572
  963MOL0     H32862   9.789   7.206  12.251 -1.1020  3.6691 -1.3234
  963MOL0     H32863   9.682   7.126  12.370 -0.7348  0.9486 -0.4846
  963MOL0     H32864   9.908   7.276  12.500  2.4405  0.5313 -2.0657
  963MOL0     H32865   9.970   7.188  12.367 -1.1547  2.7854 -3.0505
  963MOL0     H32866   9.789   7.081  12.592  1.6634 -0.1122  1.4568
  963MOL0     H32867   9.856   6.975  12.462 -0.4235 -1.4022  1.2721
  963MOL0     H32868   9.975   6.946  12.674 -0.1325  1.1763  0.6929
  963MOL0     H32869  10.028   7.122  12.658  3.4001 -0.3649 -1.9027
  963MOL0     H32870  10.142   7.034  12.437  1.2384 -1.9593 -0.6519
  963MOL0     H32871  10.099   6.886  12.493  1.4172  1.3240 -1.7948
  963MOL0     H32872  10.322   6.888  12.584  1.6324 -0.3476  3.0806
  963MOL0     H32873  10.231   6.954  12.724 -1.0989 -0.7712  0.0691
  963MOL0     H32874   9.397   7.342  12.115 -2.2903 -0.2168 -2.9119
  963MOL0     H32875   9.281   7.201  11.954 -1.4572  2.6574  0.8389
  963MOL0     H32876   9.196   6.781  11.827  0.3997 -0.3556 -2.1372
  963MOL0     H32877   9.101   6.650  11.647 -0.9182 -1.9059  0.2798
  963MOL0     H32878   9.044   5.512  11.007  0.5753 -0.9629  1.2254
  963MOL0     H32879   8.889   5.294  11.007 -3.2904  0.0644  3.6877
  963MOL0     H32880   8.602   4.947  10.687 -2.3167 -1.2638 -0.8324
  963MOL0     H32881   8.466   4.743  10.757 -1.3192  0.6479 -1.1845
  963MOL0     H32882   8.234   4.712  10.878 -0.1554  2.6635  1.5096
  963MOL0     H32883   8.326   4.561  10.910  0.3502  0.4941  0.6988
  963MOL0     H32884   8.075   4.604  11.025  1.4154 -0.2841 -5.5703
  963MOL0     H32885   8.176   4.656  11.149 -1.7836 -1.5350  1.4776
  963MOL0     H32886   8.322   4.433  11.130  0.4777 -2.6322 -1.7391
  963MOL0     H32887   8.149   4.419  11.180 -0.4161  3.1621  0.9510
  963MOL0     H32888   8.220   4.380  10.907 -1.6891  0.2595 -1.2981
  963MOL0     H32889   8.075   4.330  11.007 -0.1338  4.2259  2.2349
  963MOL0     H32890   8.342   3.996  11.012  1.0194  0.5377  0.6509
  963MOL0     H32891   8.422   4.925  11.145 -2.2635 -0.9505 -0.7424
  963MOL0     H32892   8.502   5.173  11.144  0.5558  0.0149 -1.2845
  963MOL0     H32893   8.591   5.046  11.223 -2.9229  0.1925  2.1392
  963MOL0     H32894   8.675   5.163  11.111 -1.4588  0.1108 -2.9422
  964MOL0     O32895   1.524   0.497   3.359 -0.1450 -0.0051  0.0270
  964MOL0     C32896   1.486   0.568   3.449 -0.3234 -0.5371 -1.2071
  964MOL0     O32897   1.418   0.690   3.428 -0.3107 -0.6714  0.2943
  964MOL0     C32898   1.400   0.742   3.303 -0.3783  0.2159 -0.1513
  964MOL0     C32899   1.483   0.853   3.259 -0.9803 -0.3678 -0.3590
  964MOL0     C32900   1.465   0.922   3.142 -1.1045  0.3034 -0.6043
  964MOL0     C32901   1.370   0.878   3.061  0.5053 -0.6976  0.9693
  964MOL0     O32902   1.363   0.964   2.957 -0.4418 -0.3167 -0.3805
  964MOL0     C32903   1.287   0.921   2.850  0.3377  0.0909  0.8934
  964MOL0     C32904   1.151   0.991   2.862  0.9772  0.0753 -0.0563
  964MOL0     C32905   1.160   1.145   2.882 -0.0884 -0.9100 -0.3646
  964MOL0     C32906   1.031   1.207   2.850 -1.3457  0.0724  0.9347
  964MOL0     C32907   0.959   1.210   2.718 -0.5019 -0.0904 -0.4732
  964MOL0     C32908   1.032   1.271   2.603 -0.3834  0.7734  1.0870
  964MOL0     C32909   0.951   1.277   2.473 -0.0671  0.3794  0.3691
  964MOL0     C32910   0.850   1.392   2.447  0.2284 -0.3514 -0.7048
  964MOL0     N32911   0.773   1.374   2.322 -0.5840 -0.4553  0.8023
  964MOL0     C32912   0.832   1.371   2.196  0.5772 -0.3069 -0.8284
  964MOL0     C32913   0.735   1.345   2.109  0.5475  0.2537  0.9636
  964MOL0     C32914   0.742   1.337   1.964  0.0916 -0.2837 -0.1657
  964MOL0     C32915   0.655   1.451   1.879  0.4966  0.6925  0.1554
  964MOL0     C32916   0.696   1.594   1.922  1.1182 -0.4885 -0.5503
  964MOL0     C32917   0.637   1.716   1.844  0.3639  0.4270 -0.1680
  964MOL0     O32918   0.651   1.712   1.708 -0.5593 -0.6720  0.2466
  964MOL0     C32919   0.567   1.791   1.637  0.3654 -0.6839 -0.0595
  964MOL0     C32920   0.608   1.799   1.501  0.5095  0.0596 -0.8027
  964MOL0     C32921   0.538   1.871   1.399 -0.4744 -0.1120  0.2950
  964MOL0     C32922   0.602   1.866   1.260  0.3878  0.1615 -0.0479
  964MOL0     C32923   0.417   1.945   1.432  0.9596 -1.0349  0.5829
  964MOL0     C32924   0.341   2.030   1.325 -0.6345 -0.3056 -0.4433
  964MOL0     O32925   0.362   2.024   1.190  0.3593  0.2256  0.0186
  964MOL0     C32926   0.339   2.135   1.124  0.2691  0.1141 -0.8113
  964MOL0     C32927   0.212   2.166   1.073  0.0087 -1.1404  0.1593
  964MOL0     C32928   0.199   2.277   0.987  0.6608 -0.1254 -0.0474
  964MOL0     C32929   0.306   2.365   0.961  0.1571 -0.0055 -0.6848
  964MOL0     O32930   0.295   2.477   0.888 -0.0440 -0.4602 -0.0446
  964MOL0     C32931   0.167   2.533   0.855  1.1566  1.0194  0.8959
  964MOL0     C32932   0.207   2.664   0.770  0.1718 -0.0451  0.7201
  964MOL0     C32933   0.094   2.719   0.670  0.9606 -0.5913 -0.8314
  964MOL0     C32934   0.121   2.870   0.655 -0.0868 -0.6060  0.0995
  964MOL0     C32935   0.029   2.940   0.560  0.0210 -0.0233 -0.0332
  964MOL0     C32936   0.066   3.087   0.575  0.5632 -0.4771  0.2363
  964MOL0     C32937   0.042   3.174   0.456 -0.8237 -0.0476  0.6377
  964MOL0     C32938  -0.103   3.219   0.436  1.1367  0.1802  0.0744
  964MOL0    Cl32939  -0.131   3.376   0.361 -0.2424  0.0087 -0.2406
  964MOL0     C32940   0.431   2.337   1.013 -0.9264 -0.6465  0.9680
  964MOL0     C32941   0.446   2.220   1.088  0.5900 -0.6504 -0.8133
  964MOL0     O32942   0.262   2.104   1.379  0.4914  0.1043 -0.3041
  964MOL0     C32943   0.379   1.941   1.566 -0.3355 -0.2117  0.3544
  964MOL0     C32944   0.452   1.864   1.668  0.2913 -0.0984 -0.0215
  964MOL0     N32945   0.616   1.346   2.177  0.5558  0.5948 -1.1461
  964MOL0     N32946   0.640   1.354   2.307 -0.1381 -0.3183  0.8211
  964MOL0     C32947   1.288   0.754   3.090  0.2564 -0.4119  0.3676
  964MOL0     C32948   1.309   0.688   3.216 -0.4622 -0.5482  1.0979
  964MOL0     C32949   1.514   0.539   3.590 -0.9296  0.2115 -0.3122
  964MOL0     C32950   1.529   0.402   3.625  0.2689  1.0168 -0.0903
  964MOL0     C32951   1.559   0.357   3.753 -0.2308  0.1958  0.4727
  964MOL0     C32952   1.592   0.451   3.842  0.1456  0.9630  0.3244
  964MOL0     O32953   1.632   0.421   3.967  0.4373  0.4354 -1.0161
  964MOL0     C32954   1.687   0.300   4.000 -0.6886  0.4056 -0.3768
  964MOL0     C32955   1.596   0.236   4.096 -0.3692 -0.3915  0.8489
  964MOL0     C32956   1.642   0.092   4.117 -0.8807  0.7752  0.2726
  964MOL0     C32957   1.780   0.063   4.171  0.4434  0.5273 -0.1134
  964MOL0     C32958   1.802   0.166   4.280 -1.1173  0.1246  0.5831
  964MOL0     C32959   1.810   0.233   4.381  0.8398 -0.8234  0.3257
  964MOL0     C32960   1.580   0.585   3.816  0.2871 -1.2874  0.1240
  964MOL0     C32961   1.551   0.628   3.693  0.6459 -0.9953  0.5795
  964MOL0     C32962   1.525   0.784   3.681  0.1966  0.8968  0.7725
  964MOL0     H32963   1.543   0.901   3.336 -0.6725 -1.5225  0.1408
  964MOL0     H32964   1.524   1.012   3.136 -0.9222  0.1278 -1.7610
  964MOL0     H32965   1.274   0.814   2.835 -1.7097 -0.1489  3.5125
  964MOL0     H32966   1.338   0.957   2.760  0.3467  2.7265  1.8734
  964MOL0     H32967   1.088   0.979   2.773 -1.7601 -1.5808  1.9734
  964MOL0     H32968   1.084   0.963   2.944  1.6931  0.0800  0.5403
  964MOL0     H32969   1.179   1.166   2.987  0.4758  0.8951 -0.7738
  964MOL0     H32970   1.236   1.203   2.828 -1.8153  0.2103 -1.7002
  964MOL0     H32971   0.954   1.181   2.923 -1.8879 -0.3802  0.2219
  964MOL0     H32972   1.051   1.311   2.876 -0.5408 -0.4271  2.4352
  964MOL0     H32973   0.868   1.269   2.737 -1.9440 -1.2098 -3.2847
  964MOL0     H32974   0.933   1.105   2.700  1.1129 -0.6685  0.4005
  964MOL0     H32975   1.057   1.375   2.627  0.5243  0.8002  0.1098
  964MOL0     H32976   1.125   1.219   2.579  0.1643  1.5212  1.5145
  964MOL0     H32977   0.908   1.178   2.454 -1.5415  1.1685 -0.5995
  964MOL0     H32978   1.022   1.289   2.391  0.8732 -0.5945  1.0064
  964MOL0     H32979   0.773   1.401   2.524  1.6216 -0.9322  0.8247
  964MOL0     H32980   0.910   1.483   2.439 -0.5619  0.4285  1.5565
  964MOL0     H32981   0.935   1.380   2.163  0.7279 -0.3577 -0.3729
  964MOL0     H32982   0.728   1.232   1.936 -2.0609  0.3050 -1.5600
  964MOL0     H32983   0.846   1.365   1.944  0.4417 -1.1118  0.4559
  964MOL0     H32984   0.681   1.435   1.774 -1.1137 -6.6064  0.3254
  964MOL0     H32985   0.548   1.427   1.877  0.5162  0.6137 -1.7475
  964MOL0     H32986   0.665   1.596   2.027  0.2230 -4.3954 -0.5935
  964MOL0     H32987   0.804   1.610   1.929  0.9278  0.1318  1.5576
  964MOL0     H32988   0.529   1.711   1.861  0.0383  0.1221 -2.1492
  964MOL0     H32989   0.680   1.807   1.888  1.0284  0.3551 -0.6485
  964MOL0     H32990   0.693   1.740   1.468 -0.1965 -0.7865 -1.1485
  964MOL0     H32991   0.639   1.966   1.233  0.5831 -0.0973 -0.7643
  964MOL0     H32992   0.524   1.843   1.186  0.5270 -2.6018  0.5840
  964MOL0     H32993   0.686   1.798   1.249  1.8607  1.5911  1.7353
  964MOL0     H32994   0.125   2.103   1.089 -3.4238  3.6778  2.7691
  964MOL0     H32995   0.102   2.296   0.942 -1.6802 -3.5821  3.0293
  964MOL0     H32996   0.105   2.472   0.789  1.5685  0.2162  1.2507
  964MOL0     H32997   0.116   2.559   0.948 -0.0678  0.7958  0.3056
  964MOL0     H32998   0.230   2.738   0.848  0.2671 -1.1054  1.7129
  964MOL0     H32999   0.302   2.640   0.722 -1.2240  2.4078 -3.8861
  964MOL0     H33000   0.001   2.700   0.723  1.6886  1.0254  1.1910
  964MOL0     H33001   0.102   2.675   0.570  5.1100  1.2120 -1.5238
  964MOL0     H33002   0.224   2.889   0.624 -0.3006  0.5942  0.0492
  964MOL0     H33003   0.121   2.922   0.751  1.3685  0.8079 -0.6222
  964MOL0     H33004   0.052   2.909   0.457 -3.2175 -1.4100 -0.4507
  964MOL0     H33005  -0.078   2.926   0.574  0.4305 -2.6002  1.0254
  964MOL0     H33006   0.172   3.111   0.588  0.5196  0.8057 -1.5070
  964MOL0     H33007   0.013   3.137   0.657 -0.3319  4.7746 -3.0808
  964MOL0     H33008   0.080   3.124   0.366  2.7280  0.6574  1.5900
  964MOL0     H33009   0.107   3.260   0.470  1.1334 -1.3830  0.2667
  964MOL0     H33010  -0.159   3.236   0.529 -3.0163  2.1223 -2.4792
  964MOL0     H33011  -0.144   3.140   0.373 -0.0471  0.8870 -0.0652
  964MOL0     H33012   0.520   2.395   0.989  0.3234 -2.2059  1.6355
  964MOL0     H33013   0.537   2.198   1.143 -1.8578 -0.1508  4.0202
  964MOL0     H33014   0.290   1.997   1.595 -0.3734  0.1561 -0.4319
  964MOL0     H33015   0.411   1.876   1.768 -0.9265  1.6178 -0.6712
  964MOL0     H33016   1.212   0.715   3.023 -0.5030 -0.7467  1.4009
  964MOL0     H33017   1.245   0.604   3.241 -0.8390 -0.5168  0.2806
  964MOL0     H33018   1.519   0.331   3.543 -2.0757  2.5717 -1.2464
  964MOL0     H33019   1.569   0.252   3.779 -1.5450  0.0219  0.3516
  964MOL0     H33020   1.715   0.230   3.920  0.2962 -1.8962  1.8189
  964MOL0     H33021   1.776   0.322   4.060 -0.7651  0.6800 -0.3630
  964MOL0     H33022   1.499   0.237   4.045  1.0831  2.1125 -2.2143
  964MOL0     H33023   1.596   0.282   4.195  0.2519 -1.6320  1.4419
  964MOL0     H33024   1.562   0.038   4.169 -1.3795  0.4554 -0.7837
  964MOL0     H33025   1.637   0.044   4.019 -4.7373  0.6863  0.3709
  964MOL0     H33026   1.848   0.071   4.086 -0.3504  0.3088 -0.7830
  964MOL0     H33027   1.779  -0.039   4.211  3.7935  1.1784  2.0150
  964MOL0     H33028   1.824   0.286   4.473  0.3461  2.2254 -1.2339
  964MOL0     H33029   1.614   0.654   3.892 -0.1467 -2.1011  1.0748
  964MOL0     H33030   1.558   0.834   3.773 -1.5990  2.1758  0.7619
  964MOL0     H33031   1.584   0.821   3.596 -0.4707 -1.2170 -0.7126
  964MOL0     H33032   1.420   0.809   3.667 -0.1538 -1.6802 -2.3364
  965MOL0     O33033   9.438   1.940   4.313  0.7571 -0.1545  0.5040
  965MOL0     C33034   9.328   1.918   4.373  0.0113  0.3925 -0.1709
  965MOL0     O33035   9.258   1.794   4.368 -0.3702  0.1401 -0.9013
  965MOL0     C33036   9.292   1.702   4.276 -0.0585 -0.2248 -0.5389
  965MOL0     C33037   9.329   1.573   4.316 -0.3198  0.4093 -0.0589
  965MOL0     C33038   9.351   1.472   4.217 -0.1995  0.9073  0.2113
  965MOL0     C33039   9.351   1.509   4.076  1.1614  1.4410 -0.8537
  965MOL0     O33040   9.379   1.411   3.984 -0.5004 -0.6600 -0.1685
  965MOL0     C33041   9.381   1.263   4.003 -0.0249 -0.6747 -0.2408
  965MOL0     C33042   9.300   1.181   3.911 -0.3734 -0.7442  0.6331
  965MOL0     C33043   9.337   1.215   3.772  0.2677 -0.8145  0.3453
  965MOL0     C33044   9.243   1.141   3.674 -0.3247  0.2191  0.7593
  965MOL0     C33045   9.284   1.165   3.523  0.9787  0.8194 -0.0314
  965MOL0     C33046   9.191   1.071   3.439  0.4875  0.2517 -0.3759
  965MOL0     C33047   9.206   1.108   3.295  0.9501  0.0601  0.6242
  965MOL0     C33048   9.170   1.259   3.273  0.0450 -0.2067 -0.8309
  965MOL0     N33049   9.159   1.288   3.127 -0.1769 -0.0297 -0.3163
  965MOL0     C33050   9.259   1.268   3.038 -0.5939  0.1474 -0.8144
  965MOL0     C33051   9.210   1.285   2.921  0.5301  0.3633  0.8226
  965MOL0     C33052   9.277   1.265   2.780  0.2765 -0.4372 -0.2122
  965MOL0     C33053   9.239   1.370   2.674 -0.1289  0.1350 -0.5128
  965MOL0     C33054   9.253   1.324   2.542 -0.0739 -0.4401  0.7647
  965MOL0     C33055   9.231   1.420   2.425 -0.2968 -0.0173 -0.4097
  965MOL0     O33056   9.251   1.336   2.314 -0.2115 -0.1583 -0.4564
  965MOL0     C33057   9.207   1.382   2.194  0.1061 -0.5580  0.7808
  965MOL0     C33058   9.229   1.518   2.152 -0.2938  0.2248 -0.4719
  965MOL0     C33059   9.208   1.558   2.021 -0.8505 -0.3166 -0.1888
  965MOL0     C33060   9.232   1.697   1.988  0.2413 -0.8860  0.6585
  965MOL0     C33061   9.162   1.466   1.923  0.3013  0.1266  0.3105
  965MOL0     C33062   9.147   1.485   1.772 -0.1896 -0.9403 -0.5218
  965MOL0     O33063   9.209   1.411   1.674  0.4008 -0.3135 -1.3842
  965MOL0     C33064   9.170   1.420   1.545 -0.0532  0.9113 -0.2990
  965MOL0     C33065   9.036   1.400   1.512  0.2121  0.5422 -0.6803
  965MOL0     C33066   8.992   1.376   1.374  0.2702  1.1101  0.2467
  965MOL0     C33067   9.088   1.364   1.267  0.4538 -0.0169 -1.3016
  965MOL0     O33068   9.035   1.326   1.147 -0.8729 -0.0415  0.3503
  965MOL0     C33069   9.116   1.330   1.031 -0.3797  0.5332  0.5889
  965MOL0     C33070   9.025   1.325   0.902 -0.3272 -1.1569  0.2057
  965MOL0     C33071   8.939   1.199   0.869  0.5991  0.0968  0.2543
  965MOL0     C33072   8.850   1.225   0.745  0.1231 -0.1469  0.0325
  965MOL0     C33073   8.770   1.097   0.721  0.9087  1.5789 -0.1651
  965MOL0     C33074   8.838   0.985   0.630 -0.5839 -0.3184  0.5613
  965MOL0     C33075   8.784   0.836   0.639 -0.3093 -0.7503 -0.0201
  965MOL0     C33076   8.901   0.727   0.638  0.3438  0.2197  0.6210
  965MOL0    Cl33077   8.916   0.638   0.798 -0.8674 -0.3516  0.2534
  965MOL0     C33078   9.230   1.378   1.302  0.1957  0.4705  0.3678
  965MOL0     C33079   9.271   1.401   1.438 -0.2530 -0.6376  0.2071
  965MOL0     O33080   9.074   1.584   1.749 -0.2413 -0.7425 -0.1658
  965MOL0     C33081   9.133   1.339   1.973 -1.1256 -0.7278  1.7783
  965MOL0     C33082   9.152   1.292   2.100 -0.2543  0.2950  0.7244
  965MOL0     N33083   9.081   1.327   2.938  0.2786 -0.1037  0.1827
  965MOL0     N33084   9.047   1.316   3.059  0.4717  0.1385  0.0560
  965MOL0     C33085   9.309   1.632   4.043  0.0128 -0.6837  0.4492
  965MOL0     C33086   9.278   1.724   4.143 -0.1992 -0.3752  0.0092
  965MOL0     C33087   9.270   2.017   4.471 -0.4422  1.1236  0.0520
  965MOL0     C33088   9.143   1.986   4.529  0.3032 -0.0514 -0.4444
  965MOL0     C33089   9.077   2.077   4.608 -0.9844  0.3047  0.2242
  965MOL0     C33090   9.140   2.209   4.625  0.6521  0.2685  0.1689
  965MOL0     O33091   9.085   2.309   4.702 -0.5756 -0.0553 -0.3333
  965MOL0     C33092   8.981   2.381   4.638  0.5779  0.1474  0.0163
  965MOL0     C33093   8.884   2.432   4.750  0.7390 -0.0069 -0.4615
  965MOL0     C33094   8.738   2.462   4.705 -1.6559 -0.5935  0.0960
  965MOL0     C33095   8.714   2.549   4.586  0.1881 -0.1110  0.2745
  965MOL0     C33096   8.753   2.688   4.614 -0.2335  0.7574 -0.2116
  965MOL0     C33097   8.782   2.800   4.652  0.4757 -0.2119  0.3827
  965MOL0     C33098   9.257   2.240   4.552  0.0194 -0.3457 -0.6301
  965MOL0     C33099   9.325   2.148   4.481  0.0879 -0.3304 -1.0329
  965MOL0     C33100   9.456   2.195   4.424 -0.4582  0.6363  0.1009
  965MOL0     H33101   9.346   1.550   4.420 -2.1574  1.3409  0.4874
  965MOL0     H33102   9.363   1.367   4.241 -2.6901  0.3403 -0.6675
  965MOL0     H33103   9.322   1.244   4.093 -1.5928 -0.2403 -1.1334
  965MOL0     H33104   9.481   1.222   4.020  0.3133  0.6762  1.2395
  965MOL0     H33105   9.311   1.074   3.926 -0.8033 -0.8156  0.4703
  965MOL0     H33106   9.196   1.212   3.926 -0.0251 -0.5694  3.1198
  965MOL0     H33107   9.330   1.323   3.753 -1.4282 -1.1218 -1.0753
  965MOL0     H33108   9.444   1.193   3.764  0.4566  0.3941 -0.7713
  965MOL0     H33109   9.243   1.033   3.691  0.9997  0.1713  0.5680
  965MOL0     H33110   9.144   1.186   3.682  0.2249  1.4804  0.7056
  965MOL0     H33111   9.387   1.129   3.511  0.6534 -0.7347  1.4601
  965MOL0     H33112   9.278   1.270   3.495  3.7459  0.2360 -3.5874
  965MOL0     H33113   9.207   0.965   3.461 -0.2963  0.1962 -0.0314
  965MOL0     H33114   9.087   1.087   3.468  0.8295 -0.1101  1.1072
  965MOL0     H33115   9.128   1.058   3.237  0.8226  0.1249  0.7394
  965MOL0     H33116   9.311   1.087   3.274  0.7469 -0.1947 -0.1766
  965MOL0     H33117   9.071   1.269   3.318 -0.0451 -1.4986 -0.6824
  965MOL0     H33118   9.235   1.334   3.318 -3.4733  2.1593  0.7058
  965MOL0     H33119   9.361   1.237   3.056 -1.6729 -2.2636  2.1412
  965MOL0     H33120   9.241   1.173   2.732 -0.2956  0.7170 -2.1380
  965MOL0     H33121   9.385   1.257   2.796  0.2071  0.6184  0.8954
  965MOL0     H33122   9.136   1.396   2.700  1.4513  3.2938  3.7533
  965MOL0     H33123   9.313   1.449   2.689 -0.2480  0.1946 -0.2337
  965MOL0     H33124   9.356   1.288   2.536  0.7924  1.8439  1.1107
  965MOL0     H33125   9.186   1.237   2.532  1.2564 -1.2051 -3.2211
  965MOL0     H33126   9.133   1.467   2.442  0.0819  1.9675 -3.0218
  965MOL0     H33127   9.310   1.495   2.431 -3.1456  3.1760  0.1849
  965MOL0     H33128   9.277   1.594   2.213 -0.5498 -0.0195  0.0317
  965MOL0     H33129   9.149   1.750   2.034 -1.8056  1.3693 -4.7579
  965MOL0     H33130   9.208   1.727   1.885 -0.1991  0.4029  1.1218
  965MOL0     H33131   9.323   1.750   2.017 -0.8515  2.0190 -0.8307
  965MOL0     H33132   8.947   1.400   1.575 -2.6819  3.6437 -4.2570
  965MOL0     H33133   8.892   1.353   1.337  0.8252  0.9360 -1.2278
  965MOL0     H33134   9.184   1.416   1.035  0.3824 -0.0331  0.0732
  965MOL0     H33135   9.178   1.241   1.032  2.0398  2.1331  0.5129
  965MOL0     H33136   8.967   1.417   0.890  2.5618  0.6979 -0.3554
  965MOL0     H33137   9.098   1.323   0.821  2.3234  0.9725  2.3523
  965MOL0     H33138   8.870   1.169   0.948  0.3391  3.2269  1.3675
  965MOL0     H33139   9.006   1.114   0.859 -0.1166 -0.4147 -0.3415
  965MOL0     H33140   8.911   1.246   0.657  1.1587 -3.5346 -0.1993
  965MOL0     H33141   8.788   1.313   0.765  1.3919  1.2532 -1.8828
  965MOL0     H33142   8.727   1.059   0.814 -3.2059  1.0273 -2.0261
  965MOL0     H33143   8.681   1.127   0.664 -0.0367 -2.4131 -1.1236
  965MOL0     H33144   8.940   0.991   0.669 -0.3150  2.4805 -0.3614
  965MOL0     H33145   8.850   1.011   0.525 -4.2532 -6.1467 -1.8365
  965MOL0     H33146   8.738   0.796   0.548  0.8302  0.7914 -1.3339
  965MOL0     H33147   8.718   0.826   0.725 -0.0393  1.4299  0.5015
  965MOL0     H33148   8.993   0.784   0.628  0.2004  0.8380  2.5189
  965MOL0     H33149   8.884   0.653   0.559  0.4541  0.0718  0.7365
  965MOL0     H33150   9.310   1.370   1.229 -0.6666  1.3388 -0.7128
  965MOL0     H33151   9.376   1.406   1.464 -0.4627 -2.8883  1.8683
  965MOL0     H33152   9.083   1.278   1.898  0.5034  1.6567 -1.4913
  965MOL0     H33153   9.141   1.185   2.115  0.6649  0.0537 -0.1786
  965MOL0     H33154   9.290   1.662   3.940 -3.4564 -1.4113  0.7715
  965MOL0     H33155   9.258   1.823   4.102  3.5805  0.6532  0.2750
  965MOL0     H33156   9.097   1.889   4.543  1.2060 -0.4857 -0.3898
  965MOL0     H33157   8.983   2.056   4.658 -0.3711 -1.3824  0.7264
  965MOL0     H33158   9.016   2.463   4.574 -1.4883  0.1621 -1.2224
  965MOL0     H33159   8.929   2.310   4.572  0.0237  0.2439  0.3487
  965MOL0     H33160   8.928   2.504   4.818 -1.0622 -1.5957  2.6041
  965MOL0     H33161   8.869   2.339   4.806 -0.5152  0.9971  0.9241
  965MOL0     H33162   8.691   2.367   4.677 -1.7848 -0.2617 -0.8401
  965MOL0     H33163   8.706   2.497   4.803  1.6892 -0.1126  1.1321
  965MOL0     H33164   8.614   2.545   4.544  0.8719 -3.0040 -1.2960
  965MOL0     H33165   8.773   2.513   4.501 -2.0243  0.2985 -1.5139
  965MOL0     H33166   8.800   2.903   4.673  1.2192 -0.4126  0.7724
  965MOL0     H33167   9.299   2.339   4.563  0.8384 -0.7641  0.1474
  965MOL0     H33168   9.492   2.289   4.468  1.6682  1.3977 -2.9523
  965MOL0     H33169   9.528   2.115   4.444 -1.4856 -0.2987  0.1481
  965MOL0     H33170   9.452   2.203   4.314  1.9868 -2.0765 -0.3040
  966MOL0     O33171   6.379  10.732   7.842 -0.2569  0.3146  0.2748
  966MOL0     C33172   6.361  10.651   7.939  1.0805 -0.4441 -0.1194
  966MOL0     O33173   6.253  10.662   8.029  0.0398 -0.0592  0.3171
  966MOL0     C33174   6.126  10.713   7.994 -0.8320  0.1058  0.0263
  966MOL0     C33175   6.104  10.818   7.902 -0.7568  0.3513 -0.1913
  966MOL0     C33176   5.968  10.856   7.874  0.4834 -0.7482  0.2719
  966MOL0     C33177   5.855  10.801   7.933  0.2181 -0.0834 -0.1111
  966MOL0     O33178   5.730  10.853   7.899  0.3308 -0.5869  0.0704
  966MOL0     C33179   5.623  10.763   7.907  0.6815  0.6185  0.3437
  966MOL0     C33180   5.548  10.767   7.775  0.0015 -0.2113 -0.3646
  966MOL0     C33181   5.419  10.861   7.785  0.3506 -0.4035 -0.2226
  966MOL0     C33182   5.314  10.792   7.888 -0.0854  0.7526 -0.5724
  966MOL0     C33183   5.182  10.881   7.883  0.4156  0.7602 -0.6147
  966MOL0     C33184   5.064  10.794   7.960  0.4879 -0.6505  0.8916
  966MOL0     C33185   5.007  10.870   8.083  0.3286  0.7831 -0.4723
  966MOL0     C33186   4.907  10.971   8.025 -0.8420 -0.1381 -0.2737
  966MOL0     N33187   4.908  11.099   8.114 -1.2179 -0.2565 -0.0645
  966MOL0     C33188   4.824  11.212   8.083 -0.0011  0.2170  0.5173
  966MOL0     C33189   4.877  11.305   8.170  0.2037 -0.3396  0.5513
  966MOL0     C33190   4.856  11.462   8.161 -0.2149  0.1136 -0.0604
  966MOL0     C33191   4.940  11.520   8.048 -0.7451 -0.0314  0.3403
  966MOL0     C33192   5.083  11.515   8.080 -0.8351  0.1988  0.6603
  966MOL0     C33193   5.120  11.594   8.207 -0.4147  0.6387 -0.1952
  966MOL0     O33194   5.256  11.614   8.237 -0.3457 -1.1353  0.7167
  966MOL0     C33195   5.351  11.514   8.256  0.4827 -0.9370 -0.5530
  966MOL0     C33196   5.325  11.373   8.264  0.3573 -0.0542 -0.6119
  966MOL0     C33197   5.417  11.274   8.288 -0.4584 -0.2524  0.0729
  966MOL0     C33198   5.371  11.135   8.297  0.2504 -0.0997  0.0801
  966MOL0     C33199   5.552  11.310   8.307  0.3806 -0.9119  1.2834
  966MOL0     C33200   5.656  11.216   8.347 -0.5446 -1.7392 -0.7931
  966MOL0     O33201   5.780  11.254   8.352 -0.5881 -0.3281  0.2131
  966MOL0     C33202   5.879  11.160   8.384  0.4246 -0.4177  0.3862
  966MOL0     C33203   5.939  11.097   8.289 -0.0247 -0.1548  1.0734
  966MOL0     C33204   6.041  10.999   8.292 -0.0109 -0.2838 -0.0543
  966MOL0     C33205   6.078  10.963   8.422  0.5757  0.4190  0.9972
  966MOL0     O33206   6.160  10.854   8.443 -0.1369 -0.1759  0.1463
  966MOL0     C33207   6.233  10.782   8.346 -0.5279 -0.3845  0.1237
  966MOL0     C33208   6.356  10.735   8.413 -0.5151  1.0048 -0.1312
  966MOL0     C33209   6.458  10.677   8.316  0.0252 -0.2384 -0.3476
  966MOL0     C33210   6.594  10.621   8.354 -0.5480  0.0115 -0.2294
  966MOL0     C33211   6.600  10.496   8.437  0.1664 -0.1596 -0.7505
  966MOL0     C33212   6.590  10.367   8.360  0.0567  0.1665 -0.2031
  966MOL0     C33213   6.628  10.255   8.450 -0.0628  0.5486  0.1613
  966MOL0     C33214   6.717  10.149   8.391 -0.2303 -0.9641 -0.3714
  966MOL0    Cl33215   6.848  10.200   8.304  0.0715 -0.1983 -0.2040
  966MOL0     C33216   6.011  11.022   8.528 -0.4747  0.2995 -0.3140
  966MOL0     C33217   5.916  11.126   8.515 -0.5119  0.3053  0.2570
  966MOL0     O33218   5.623  11.103   8.382  0.5353 -0.6357  0.2134
  966MOL0     C33219   5.584  11.450   8.305  0.3111 -0.8760  1.2985
  966MOL0     C33220   5.482  11.553   8.279 -0.6406 -0.0693  0.8260
  966MOL0     N33221   4.962  11.249   8.257  0.2158 -0.2701  1.0390
  966MOL0     N33222   4.988  11.123   8.233  0.8295  0.1923 -0.0883
  966MOL0     C33223   5.875  10.685   8.008 -1.0952  0.0636 -1.1372
  966MOL0     C33224   6.010  10.648   8.036 -0.7000 -0.2037 -0.6580
  966MOL0     C33225   6.446  10.536   7.953 -0.1508  0.2959 -0.7467
  966MOL0     C33226   6.382  10.416   7.989  0.8198 -1.3604 -0.4475
  966MOL0     C33227   6.456  10.305   8.020 -0.4096  0.2958 -0.3181
  966MOL0     C33228   6.588  10.302   8.002  0.7035  0.9171  0.2044
  966MOL0     O33229   6.648  10.176   8.028  1.1771 -0.1110  0.0841
  966MOL0     C33230   6.780  10.154   7.977  0.0767 -0.0642 -0.0297
  966MOL0     C33231   6.811  10.005   7.953  0.2274 -0.1582  0.4335
  966MOL0     C33232   6.837   9.917   8.082  0.2583 -0.5101 -0.0671
  966MOL0     C33233   6.970   9.923   8.162  0.0535  0.7959 -1.0217
  966MOL0     C33234   6.973   9.829   8.277 -0.3402  0.1702  0.0905
  966MOL0     C33235   6.965   9.758   8.376  0.4906  0.0757  0.8098
  966MOL0     C33236   6.658  10.414   7.964  0.1737 -0.2393  0.4699
  966MOL0     C33237   6.579  10.533   7.940  0.3000 -0.4971  0.2448
  966MOL0     C33238   6.654  10.653   7.890  0.0911  0.2573  0.2380
  966MOL0     H33239   6.184  10.881   7.865  0.0462 -1.2907 -1.3936
  966MOL0     H33240   5.946  10.937   7.805  0.1024 -0.8388  0.2870
  966MOL0     H33241   5.570  10.803   7.994 -0.0927  0.8742 -0.2370
  966MOL0     H33242   5.650  10.658   7.922  1.5410  0.2493 -2.9768
  966MOL0     H33243   5.612  10.792   7.690 -0.0137  2.8107  0.4002
  966MOL0     H33244   5.519  10.666   7.743 -2.7378  1.1817 -2.7735
  966MOL0     H33245   5.443  10.962   7.820  1.8731  0.1246 -2.5823
  966MOL0     H33246   5.379  10.871   7.683 -1.3588  5.0759  0.6575
  966MOL0     H33247   5.304  10.686   7.864  1.4448 -0.9746  5.0426
  966MOL0     H33248   5.340  10.795   7.994  0.8675  2.1405 -0.8146
  966MOL0     H33249   5.162  10.902   7.778  1.5216 -1.5095 -1.3335
  966MOL0     H33250   5.202  10.982   7.922 -0.0565  0.5024  0.3374
  966MOL0     H33251   4.980  10.767   7.895  0.4104 -1.4463  1.3085
  966MOL0     H33252   5.098  10.699   8.002  2.9813 -1.1072 -1.8270
  966MOL0     H33253   5.095  10.914   8.131  1.3249 -0.0477 -1.4702
  966MOL0     H33254   4.966  10.801   8.157 -1.6456  3.1600  0.7962
  966MOL0     H33255   4.946  11.004   7.928  3.1867  0.4170  1.3537
  966MOL0     H33256   4.812  10.922   8.001 -0.1528 -0.4396 -2.6369
  966MOL0     H33257   4.763  11.222   7.994  1.4621 -2.0680 -0.8471
  966MOL0     H33258   4.878  11.511   8.256  2.1011  1.0289 -1.0202
  966MOL0     H33259   4.749  11.484   8.154 -1.1453 -3.1464  1.5227
  966MOL0     H33260   4.915  11.467   7.955 -1.7651 -2.2412  1.8079
  966MOL0     H33261   4.915  11.624   8.025  0.5331  0.2470  0.1295
  966MOL0     H33262   5.118  11.412   8.094 -0.9035 -0.1607 -1.4746
  966MOL0     H33263   5.142  11.551   7.995  1.4807 -0.5860  1.8441
  966MOL0     H33264   5.057  11.683   8.206  1.0907  1.7349 -1.6935
  966MOL0     H33265   5.077  11.544   8.294  2.0289  2.7379  2.3945
  966MOL0     H33266   5.220  11.349   8.267  0.2772  0.2065  3.2407
  966MOL0     H33267   5.434  11.072   8.234 -1.6291 -0.7853 -1.2280
  966MOL0     H33268   5.276  11.118   8.246  0.9497  1.4755 -1.8527
  966MOL0     H33269   5.370  11.106   8.403  0.8584 -3.1141 -0.6651
  966MOL0     H33270   5.915  11.118   8.185  1.6876 -1.9056  0.2580
  966MOL0     H33271   6.055  10.945   8.199 -1.8323 -1.8395  0.5160
  966MOL0     H33272   6.181  10.688   8.323  0.2323 -1.1618  1.4344
  966MOL0     H33273   6.263  10.844   8.261  1.3214 -0.2542  0.8292
  966MOL0     H33274   6.394  10.820   8.470 -2.5726  1.3657  0.7752
  966MOL0     H33275   6.312  10.667   8.486 -3.4451  1.5952 -1.2071
  966MOL0     H33276   6.480  10.759   8.247  0.1358 -0.5170 -0.6503
  966MOL0     H33277   6.404  10.593   8.270 -0.0870 -0.5409  0.3274
  966MOL0     H33278   6.647  10.693   8.417  0.9526  1.1450 -2.6041
  966MOL0     H33279   6.663  10.617   8.269 -1.3446  2.9530 -1.1676
  966MOL0     H33280   6.694  10.494   8.491 -0.8378 -0.6417  1.0508
  966MOL0     H33281   6.521  10.503   8.512  2.4398  2.1565  1.6206
  966MOL0     H33282   6.653  10.373   8.271  0.9412 -0.0905  0.3981
  966MOL0     H33283   6.490  10.354   8.316  1.1480 -0.8702 -2.5733
  966MOL0     H33284   6.533  10.213   8.484 -1.8246  0.8248 -3.7769
  966MOL0     H33285   6.678  10.291   8.540 -0.9293  1.2725  0.3598
  966MOL0     H33286   6.668  10.081   8.320  1.3492 -0.9314 -1.5463
  966MOL0     H33287   6.746  10.080   8.471 -1.5393  0.2300  1.1960
  966MOL0     H33288   6.023  10.981   8.628 -1.5298  0.5148 -0.0931
  966MOL0     H33289   5.870  11.175   8.601  1.4411 -1.1920  2.2944
  966MOL0     H33290   5.682  11.493   8.323  0.3875 -0.4804  0.0275
  966MOL0     H33291   5.516  11.657   8.275  1.9869 -0.8749 -2.6170
  966MOL0     H33292   5.799  10.618   8.047  1.5168 -1.8747  1.0257
  966MOL0     H33293   6.020  10.553   8.087  0.1301 -0.6634 -1.6206
  966MOL0     H33294   6.275  10.427   8.009  0.9613 -1.2233  0.2604
  966MOL0     H33295   6.401  10.220   8.059 -1.7403  1.5984  0.7536
  966MOL0     H33296   6.793  10.208   7.882 -0.2600  2.1003  1.0946
  966MOL0     H33297   6.859  10.203   8.033  1.0358  0.3614 -1.6713
  966MOL0     H33298   6.878   9.995   7.866 -2.2540 -0.0099 -1.6288
  966MOL0     H33299   6.723   9.958   7.907  2.0903 -3.1329 -0.3759
  966MOL0     H33300   6.753   9.934   8.150 -1.0659 -0.0150 -1.7434
  966MOL0     H33301   6.824   9.812   8.055 -0.4031  0.0042 -1.9219
  966MOL0     H33302   6.985  10.020   8.210  0.1391  1.3681 -2.1784
  966MOL0     H33303   7.053   9.894   8.098  1.6334  2.1123  0.3519
  966MOL0     H33304   6.963   9.685   8.454  0.4012  0.1635  0.8898
  966MOL0     H33305   6.766  10.422   7.951 -0.1822  2.3244 -1.8153
  966MOL0     H33306   6.612  10.742   7.935 -2.6409 -0.5358 -0.5557
  966MOL0     H33307   6.763  10.647   7.902 -0.1336 -0.1431  2.4033
  966MOL0     H33308   6.647  10.662   7.781  3.1246  3.0959  0.1054
  967MOL0     O33309   3.525   1.905   6.938  0.2913  0.0715  0.1382
  967MOL0     C33310   3.426   1.853   6.990 -0.2480 -0.7852  1.4903
  967MOL0     O33311   3.420   1.802   7.120 -0.3304 -0.3117 -0.2196
  967MOL0     C33312   3.526   1.804   7.206  0.0069 -0.1676  0.6939
  967MOL0     C33313   3.604   1.912   7.225 -0.5465  0.0011 -0.7162
  967MOL0     C33314   3.717   1.907   7.311 -0.1340 -0.6142  0.1740
  967MOL0     C33315   3.743   1.788   7.389 -0.5514 -0.1240 -0.0301
  967MOL0     O33316   3.836   1.779   7.491 -0.7568 -0.1210 -0.4268
  967MOL0     C33317   3.953   1.872   7.477  0.6161  0.0966  0.2959
  967MOL0     C33318   4.083   1.815   7.536 -0.1004  0.0664  0.2498
  967MOL0     C33319   4.065   1.771   7.683  0.0283 -0.6011 -0.6749
  967MOL0     C33320   4.073   1.892   7.779 -0.1235  0.5237  0.3543
  967MOL0     C33321   4.102   1.844   7.923  0.2793  0.3938  0.2114
  967MOL0     C33322   3.982   1.761   7.981  0.3837 -0.7305 -0.8610
  967MOL0     C33323   4.020   1.700   8.116 -0.0326 -0.0890  0.8658
  967MOL0     C33324   4.039   1.809   8.223  0.3635 -0.0434  0.8021
  967MOL0     N33325   4.024   1.763   8.364 -0.0676 -0.9985 -0.4384
  967MOL0     C33326   4.116   1.699   8.448  1.0680 -0.9476  0.2986
  967MOL0     C33327   4.046   1.679   8.564  0.0174 -0.9554 -0.4056
  967MOL0     C33328   4.111   1.655   8.701  0.4332 -0.7782  0.8861
  967MOL0     C33329   4.246   1.718   8.721 -0.9256 -0.3629  0.2797
  967MOL0     C33330   4.305   1.682   8.861  0.5062  0.2951 -1.1276
  967MOL0     C33331   4.285   1.537   8.904 -0.6673 -0.2098  0.0321
  967MOL0     O33332   4.347   1.522   9.033  0.0956 -0.2629  0.0992
  967MOL0     C33333   4.483   1.497   9.033 -1.3723 -0.3854  0.1247
  967MOL0     C33334   4.539   1.370   8.999  0.1356  0.7827 -0.0478
  967MOL0     C33335   4.676   1.346   8.994  0.3429 -0.3475  0.1693
  967MOL0     C33336   4.733   1.208   8.971  1.3263  0.3967 -0.6416
  967MOL0     C33337   4.753   1.450   9.040 -1.3787  0.6605 -0.0974
  967MOL0     C33338   4.895   1.441   9.053  1.0645  1.0126  0.5995
  967MOL0     O33339   4.971   1.421   8.945  0.0027 -0.1371  0.2679
  967MOL0     C33340   5.087   1.368   8.964 -0.0171  0.0227  0.3079
  967MOL0     C33341   5.167   1.403   8.858 -0.8995 -0.9787 -0.7219
  967MOL0     C33342   5.301   1.365   8.847 -0.7334 -0.2721 -0.6797
  967MOL0     C33343   5.348   1.277   8.937 -0.3526  0.2047  0.2169
  967MOL0     O33344   5.483   1.243   8.923  0.7164 -0.2836 -0.4957
  967MOL0     C33345   5.547   1.230   9.051  0.2856  1.1758 -0.8891
  967MOL0     C33346   5.695   1.241   9.015  0.1621  0.7284  0.1354
  967MOL0     C33347   5.725   1.385   8.981 -0.0419 -0.3525 -0.2655
  967MOL0     C33348   5.866   1.411   8.929 -0.3293 -0.1006  0.2517
  967MOL0     C33349   5.912   1.558   8.934  0.6377 -0.5369  0.0152
  967MOL0     C33350   5.944   1.596   9.083  0.2520 -0.9833 -0.2881
  967MOL0     C33351   6.043   1.717   9.100  0.0518  0.3876 -0.0847
  967MOL0     C33352   6.039   1.755   9.254 -0.3511  0.8916 -0.7488
  967MOL0    Cl33353   6.043   1.612   9.365 -0.3053 -0.4197 -0.5824
  967MOL0     C33354   5.262   1.214   9.037 -0.5263 -0.2679 -0.2982
  967MOL0     C33355   5.131   1.270   9.055  0.6205  0.1454  0.6180
  967MOL0     O33356   4.929   1.456   9.169  0.0360  1.0118 -0.2857
  967MOL0     C33357   4.705   1.578   9.073 -0.1993  0.5931 -0.0274
  967MOL0     C33358   4.570   1.606   9.073  0.2389 -0.4910  0.2070
  967MOL0     N33359   3.926   1.726   8.550  0.3624 -0.4952  0.1927
  967MOL0     N33360   3.908   1.780   8.433  0.8428  0.2792 -0.4888
  967MOL0     C33361   3.662   1.686   7.365  0.8419 -0.5248 -0.9803
  967MOL0     C33362   3.551   1.690   7.287 -0.1248 -0.3415  0.2146
  967MOL0     C33363   3.298   1.824   6.910  0.8557 -0.8741 -0.2107
  967MOL0     C33364   3.180   1.893   6.947  0.4463  0.2751  0.9777
  967MOL0     C33365   3.056   1.873   6.878  0.1792  0.2506  0.9102
  967MOL0     C33366   3.048   1.788   6.767  0.6954  0.5392 -0.3211
  967MOL0     O33367   2.922   1.768   6.723  0.5823  0.0596  0.7927
  967MOL0     C33368   2.881   1.660   6.647 -0.0311  1.2866  0.0281
  967MOL0     C33369   2.731   1.666   6.646 -0.7839 -0.5311 -0.3536
  967MOL0     C33370   2.649   1.780   6.590 -1.0661 -0.2224  0.3129
  967MOL0     C33371   2.650   1.789   6.442 -0.0216 -0.1262 -0.7686
  967MOL0     C33372   2.564   1.900   6.398  0.2587  0.4330 -0.5530
  967MOL0     C33373   2.475   1.987   6.393  0.1632 -0.3099  0.1851
  967MOL0     C33374   3.168   1.736   6.723  0.0416 -0.5158 -0.4682
  967MOL0     C33375   3.291   1.759   6.785  0.0194  0.4236 -0.6888
  967MOL0     C33376   3.419   1.696   6.728  0.8736 -0.8932 -0.0280
  967MOL0     H33377   3.568   1.998   7.169 -1.7760 -2.4139 -3.9570
  967MOL0     H33378   3.758   2.004   7.335 -0.4726 -0.5941  0.7150
  967MOL0     H33379   3.919   1.955   7.541  2.7972  0.8962  0.4959
  967MOL0     H33380   3.977   1.908   7.377 -2.2104  3.1990  0.5526
  967MOL0     H33381   4.118   1.728   7.479 -2.2444 -1.2152  0.7522
  967MOL0     H33382   4.153   1.898   7.541  0.9995 -0.9181  2.6647
  967MOL0     H33383   3.976   1.708   7.679 -0.1233 -0.3469 -2.4265
  967MOL0     H33384   4.149   1.703   7.702  1.6357  2.0273  2.6052
  967MOL0     H33385   4.167   1.944   7.760  1.1207 -1.3065  1.2091
  967MOL0     H33386   3.986   1.958   7.771 -1.2675 -0.5787  2.6529
  967MOL0     H33387   4.127   1.930   7.986 -3.1072  2.9915 -1.6207
  967MOL0     H33388   4.182   1.771   7.916  1.4991  1.5099  1.6913
  967MOL0     H33389   3.891   1.822   7.986  0.5795 -0.5355  0.6767
  967MOL0     H33390   3.961   1.676   7.916  1.4798 -2.5933  1.1014
  967MOL0     H33391   4.110   1.638   8.111 -0.4649 -0.6234 -1.1321
  967MOL0     H33392   3.937   1.638   8.151 -0.9592  1.0265  0.7027
  967MOL0     H33393   4.142   1.846   8.226  0.7116 -0.7860 -0.8055
  967MOL0     H33394   3.974   1.891   8.192 -1.7376 -2.6008 -2.1481
  967MOL0     H33395   4.224   1.701   8.439  1.2318  1.4304  1.8419
  967MOL0     H33396   4.114   1.547   8.716  2.1607 -1.1640 -1.6585
  967MOL0     H33397   4.052   1.708   8.776  1.6148  0.2473  1.1350
  967MOL0     H33398   4.326   1.700   8.649  0.7934 -0.4296  2.1189
  967MOL0     H33399   4.232   1.825   8.703  0.4483 -0.4409 -1.5391
  967MOL0     H33400   4.413   1.692   8.850  1.0167 -0.5748  2.0275
  967MOL0     H33401   4.267   1.759   8.930  1.0238  1.9814 -2.6569
  967MOL0     H33402   4.178   1.521   8.914 -1.0251  2.2737  1.0038
  967MOL0     H33403   4.328   1.456   8.844 -0.1369 -2.8649  3.6154
  967MOL0     H33404   4.471   1.288   8.981  0.8103  0.0690  0.6190
  967MOL0     H33405   4.804   1.202   9.054 -0.9643 -0.8067  1.3481
  967MOL0     H33406   4.787   1.206   8.875  1.6320 -0.0345 -0.4654
  967MOL0     H33407   4.654   1.133   8.980  1.6694 -0.4210 -3.5343
  967MOL0     H33408   5.118   1.476   8.795 -1.7896 -2.2123 -1.5074
  967MOL0     H33409   5.368   1.418   8.779 -1.9660  1.6513 -0.4516
  967MOL0     H33410   5.521   1.301   9.130  1.5805 -1.3422  1.9687
  967MOL0     H33411   5.526   1.124   9.066  0.3738  1.1498 -0.9541
  967MOL0     H33412   5.763   1.211   9.096  1.3998  2.3094 -0.2632
  967MOL0     H33413   5.716   1.179   8.928 -0.6473 -0.1087  0.5314
  967MOL0     H33414   5.705   1.438   9.075  1.2886  1.6453 -1.0470
  967MOL0     H33415   5.648   1.425   8.913 -1.4783 -0.7197  1.0739
  967MOL0     H33416   5.869   1.374   8.826  1.2177  0.2859  0.1326
  967MOL0     H33417   5.936   1.341   8.976 -2.6904 -2.5463  0.4102
  967MOL0     H33418   6.010   1.557   8.885 -0.4224  2.3718 -2.4528
  967MOL0     H33419   5.852   1.629   8.877  1.6381  0.6147  0.3562
  967MOL0     H33420   5.982   1.510   9.140 -0.0365  0.2257  1.8506
  967MOL0     H33421   5.848   1.616   9.130 -0.5902 -1.7721 -1.6078
  967MOL0     H33422   6.009   1.801   9.039 -3.6109  1.4837  3.0844
  967MOL0     H33423   6.142   1.687   9.064 -1.0150 -2.0412 -1.2568
  967MOL0     H33424   5.945   1.807   9.271 -0.2416  1.4374 -1.7458
  967MOL0     H33425   6.116   1.825   9.289 -0.2199  0.8814 -1.0116
  967MOL0     H33426   5.296   1.135   9.103  2.5877  0.6237 -0.6623
  967MOL0     H33427   5.060   1.220   9.119 -0.2488 -0.0893 -0.5027
  967MOL0     H33428   4.774   1.661   9.086 -2.3615  2.4025  0.3799
  967MOL0     H33429   4.536   1.705   9.100 -1.9755 -1.2792  0.4883
  967MOL0     H33430   3.686   1.594   7.417  3.1499  0.6277  0.1618
  967MOL0     H33431   3.479   1.608   7.292  1.7974 -2.0475  1.6540
  967MOL0     H33432   3.174   1.961   7.032 -0.4844 -1.4765  2.3882
  967MOL0     H33433   2.960   1.907   6.917 -1.1489 -4.8167  2.8445
  967MOL0     H33434   2.932   1.667   6.550  2.0591  1.8901  1.1062
  967MOL0     H33435   2.927   1.572   6.695  3.3756  1.9283 -1.6975
  967MOL0     H33436   2.707   1.660   6.752  0.6791  2.8260  0.2662
  967MOL0     H33437   2.687   1.578   6.597  0.0627 -1.2841  0.2220
  967MOL0     H33438   2.547   1.759   6.624 -1.5384 -0.8359 -1.3808
  967MOL0     H33439   2.670   1.879   6.633 -0.4080  0.1708 -0.8587
  967MOL0     H33440   2.610   1.693   6.410 -4.4672  0.7474  1.4692
  967MOL0     H33441   2.739   1.828   6.392 -2.0102  2.8778 -2.2624
  967MOL0     H33442   2.411   2.069   6.419  1.1453  0.5040  0.1257
  967MOL0     H33443   3.167   1.680   6.629  0.4511  0.4931 -1.0913
  967MOL0     H33444   3.487   1.758   6.669  1.4625  0.3690  1.8959
  967MOL0     H33445   3.480   1.651   6.807 -0.4337  1.0398  2.1875
  967MOL0     H33446   3.389   1.615   6.661  1.1492  1.3917 -3.1204
  968MOL0     O33447  10.219   2.640   7.336 -1.0415  0.2565  0.0695
  968MOL0     C33448  10.197   2.545   7.267  0.4506  0.2518  0.3918
  968MOL0     O33449  10.190   2.548   7.137  0.7598  0.6242 -0.6395
  968MOL0     C33450  10.209   2.658   7.054 -0.6615 -0.9412 -0.2894
  968MOL0     C33451  10.251   2.788   7.100 -0.0259 -0.4584 -0.0283
  968MOL0     C33452  10.270   2.889   7.004  0.5061  0.0411  0.5602
  968MOL0     C33453  10.255   2.861   6.867 -0.2001 -0.2640  0.2129
  968MOL0     O33454  10.271   2.972   6.780 -0.3642  0.7925 -0.5201
  968MOL0     C33455  10.406   2.987   6.737  0.4855 -0.5095 -0.7315
  968MOL0     C33456  10.399   3.092   6.617 -0.3638 -0.0198 -0.4167
  968MOL0     C33457  10.549   3.113   6.564 -0.1145 -0.8090  0.5099
  968MOL0     C33458  10.557   3.188   6.427  0.1203 -1.0142 -0.3143
  968MOL0     C33459  10.705   3.212   6.384 -0.2529 -0.3878  0.0130
  968MOL0     C33460  10.713   3.268   6.245 -1.5275 -0.4725  0.6100
  968MOL0     C33461  10.857   3.248   6.196 -1.1671  1.3846 -0.4716
  968MOL0     C33462  10.867   3.282   6.058  0.6296  0.7589 -0.9438
  968MOL0     N33463  10.993   3.349   6.027 -0.3150 -0.8114  0.5857
  968MOL0     C33464  11.028   3.476   6.072  0.7204 -0.0556 -0.1133
  968MOL0     C33465  11.128   3.515   5.992  0.4306 -0.8328  0.1339
  968MOL0     C33466  11.179   3.660   5.985 -0.0496 -0.0941 -0.0570
  968MOL0     C33467  11.115   3.744   5.867 -0.4444  0.7196  0.6021
  968MOL0     C33468  11.128   3.677   5.722  0.0681 -0.5694  0.3048
  968MOL0     C33469  11.278   3.646   5.685  0.0797  0.5178  0.7219
  968MOL0     O33470  11.367   3.761   5.706  0.7093  0.1509 -0.4113
  968MOL0     C33471  11.440   3.799   5.596 -0.1076  0.3507  0.2872
  968MOL0     C33472  11.567   3.852   5.613  0.5939 -0.0076 -0.2252
  968MOL0     C33473  11.654   3.894   5.514  0.4668 -0.0162 -1.1123
  968MOL0     C33474  11.788   3.948   5.546 -0.9651 -0.2371 -0.0474
  968MOL0     C33475  11.602   3.903   5.391  0.2413 -0.1010 -0.0279
  968MOL0     C33476  11.676   3.981   5.285 -0.4629 -0.1531  0.1642
  968MOL0     O33477  11.645   3.938   5.161 -0.0990  0.1300  0.6037
  968MOL0     C33478  11.703   3.989   5.043  0.3266  0.9875 -1.2075
  968MOL0     C33479  11.835   4.027   5.029 -2.0387  0.0304  0.5810
  968MOL0     C33480  11.881   4.073   4.901 -0.7099  0.1349  0.1855
  968MOL0     C33481  11.793   4.078   4.787  0.5181  0.0689  0.0680
  968MOL0     O33482  11.837   4.110   4.664 -0.2961 -0.2898  0.4780
  968MOL0     C33483  11.936   4.218   4.643  0.6965 -0.2488  1.4099
  968MOL0     C33484  11.943   4.264   4.495  0.9635 -0.0644 -1.1811
  968MOL0     C33485  12.003   4.394   4.475 -0.0601 -0.1958  0.7954
  968MOL0     C33486  12.016   4.434   4.331 -0.6838 -0.5465  0.3151
  968MOL0     C33487  12.067   4.583   4.319 -0.6375  0.9165  1.4839
  968MOL0     C33488  12.178   4.627   4.419  0.8745  0.4294 -1.4725
  968MOL0     C33489  12.174   4.780   4.405  0.4951 -0.2529  0.5203
  968MOL0     C33490  12.123   4.855   4.529  1.1218  0.3375 -0.2527
  968MOL0    Cl33491  12.087   5.023   4.493  0.2768 -0.3027 -0.1198
  968MOL0     C33492  11.671   4.021   4.798 -0.0871 -0.0447 -0.2170
  968MOL0     C33493  11.630   3.980   4.927 -0.7103 -0.6387 -0.5408
  968MOL0     O33494  11.736   4.089   5.306  0.6276  0.2209  0.0577
  968MOL0     C33495  11.481   3.849   5.351 -1.3512 -0.6967 -0.2182
  968MOL0     C33496  11.401   3.803   5.461 -0.2504  0.1322  0.3414
  968MOL0     N33497  11.161   3.409   5.909  0.5829 -0.2124 -0.2229
  968MOL0     N33498  11.085   3.312   5.930  0.8113  0.8050 -0.4783
  968MOL0     C33499  10.223   2.736   6.816  0.1945  0.0223 -0.0341
  968MOL0     C33500  10.194   2.638   6.920 -0.1880  0.3911 -0.6292
  968MOL0     C33501  10.158   2.422   7.330  0.6126 -0.4401  0.0194
  968MOL0     C33502  10.148   2.300   7.248 -0.3141 -0.3976 -0.4367
  968MOL0     C33503  10.105   2.177   7.300  0.0386  1.0101  0.3725
  968MOL0     C33504  10.084   2.162   7.432 -0.7591 -0.1550 -0.3743
  968MOL0     O33505  10.042   2.038   7.475 -1.1767  0.3595 -0.4961
  968MOL0     C33506  10.119   1.987   7.592  1.3382 -0.1907 -1.0000
  968MOL0     C33507  10.067   1.847   7.616 -0.2346 -0.6671 -0.0281
  968MOL0     C33508  10.121   1.754   7.511  0.0726 -0.5401 -0.9734
  968MOL0     C33509  10.079   1.607   7.531  0.5862  0.3153  0.1042
  968MOL0     C33510  10.111   1.522   7.413 -1.2637 -0.2843  0.8342
  968MOL0     C33511  10.157   1.454   7.319 -0.6532 -0.3039 -0.8276
  968MOL0     C33512  10.091   2.276   7.515  0.1712 -0.6070  0.5926
  968MOL0     C33513  10.127   2.409   7.470  0.4429  0.8949  0.5031
  968MOL0     C33514  10.128   2.524   7.567 -1.0720 -0.1569  0.4715
  968MOL0     H33515  10.279   2.821   7.200 -0.3578 -0.5547  0.0969
  968MOL0     H33516  10.293   2.991   7.030 -0.3261  1.0490 -2.2693
  968MOL0     H33517  10.451   2.895   6.697  3.5146  1.1454 -1.4296
  968MOL0     H33518  10.480   3.003   6.817 -0.1384 -0.9366 -0.0565
  968MOL0     H33519  10.348   3.044   6.533  2.0861  0.9102 -2.5853
  968MOL0     H33520  10.349   3.185   6.644  0.1041  0.6892 -1.8688
  968MOL0     H33521  10.600   3.166   6.646 -3.0349 -1.1011  2.6868
  968MOL0     H33522  10.611   3.023   6.566  1.5104  0.2499  0.2784
  968MOL0     H33523  10.506   3.138   6.344 -0.3123 -1.1446  0.0291
  968MOL0     H33524  10.512   3.288   6.423  0.5073 -0.5887  3.2249
  968MOL0     H33525  10.747   3.112   6.371 -1.1902 -0.4428 -3.1928
  968MOL0     H33526  10.757   3.279   6.454  2.0934 -1.5781 -0.4614
  968MOL0     H33527  10.645   3.202   6.190 -0.2673 -1.0126 -0.3355
  968MOL0     H33528  10.672   3.369   6.232 -2.0674 -0.8133 -0.4192
  968MOL0     H33529  10.895   3.146   6.203 -0.8459  1.3481 -2.2730
  968MOL0     H33530  10.919   3.313   6.258  1.0211 -1.3584  0.4133
  968MOL0     H33531  10.849   3.188   6.004  1.7949  1.2766 -2.2728
  968MOL0     H33532  10.780   3.346   6.039  0.2867 -0.1293 -2.6219
  968MOL0     H33533  11.003   3.546   6.151  2.5496  1.7585 -1.0308
  968MOL0     H33534  11.287   3.648   5.972  0.1455  1.8599 -0.5373
  968MOL0     H33535  11.150   3.704   6.080  0.3629  0.8629 -0.3654
  968MOL0     H33536  11.011   3.765   5.894 -0.0272  4.3794 -0.0962
  968MOL0     H33537  11.156   3.845   5.865 -0.4114  0.6984 -0.2990
  968MOL0     H33538  11.078   3.580   5.717  5.1459 -3.4968 -1.2374
  968MOL0     H33539  11.077   3.757   5.666  1.5858  2.4023  2.8350
  968MOL0     H33540  11.322   3.575   5.755  2.2698  0.7237 -0.3822
  968MOL0     H33541  11.278   3.606   5.584 -2.6517  0.6123  0.6062
  968MOL0     H33542  11.592   3.860   5.719 -2.9356 -1.5516  0.8726
  968MOL0     H33543  11.774   4.054   5.569 -0.6449  0.4226 -2.5510
  968MOL0     H33544  11.870   3.939   5.473  1.5491  0.3870  2.5069
  968MOL0     H33545  11.832   3.896   5.632  2.5802  2.0817 -0.2367
  968MOL0     H33546  11.899   4.039   5.116 -1.7673 -0.2349  0.4227
  968MOL0     H33547  11.983   4.108   4.892  0.9402 -4.4443 -2.8700
  968MOL0     H33548  11.902   4.300   4.707 -0.3340  0.6989 -0.2881
  968MOL0     H33549  12.036   4.179   4.665  0.4354 -1.8056  0.0441
  968MOL0     H33550  11.989   4.184   4.436 -0.8987 -1.6349 -0.5755
  968MOL0     H33551  11.838   4.268   4.465 -0.4454  0.2035  3.1912
  968MOL0     H33552  12.105   4.401   4.514  0.9607  0.9244 -1.8070
  968MOL0     H33553  11.949   4.479   4.517  3.3762  3.7005 -1.8632
  968MOL0     H33554  11.927   4.419   4.270 -2.9393  1.1206  2.9768
  968MOL0     H33555  12.091   4.364   4.294 -1.0991 -0.6817 -0.2803
  968MOL0     H33556  12.107   4.579   4.218 -1.6847 -0.3141  1.0841
  968MOL0     H33557  11.980   4.649   4.326 -2.8519 -1.4909 -1.0904
  968MOL0     H33558  12.272   4.581   4.388  0.5069 -2.2978  0.9952
  968MOL0     H33559  12.165   4.589   4.521  3.2733 -0.2300 -1.3567
  968MOL0     H33560  12.119   4.811   4.315  0.2676 -1.9683  0.0373
  968MOL0     H33561  12.275   4.818   4.387 -0.0868 -0.3619 -4.4419
  968MOL0     H33562  12.197   4.845   4.608  1.7465  2.0144 -0.5684
  968MOL0     H33563  12.048   4.796   4.583  3.6540 -4.9370 -1.8070
  968MOL0     H33564  11.609   4.010   4.710  0.3239 -2.1912 -0.3086
  968MOL0     H33565  11.530   3.940   4.927 -0.7970 -0.4311 -0.9792
  968MOL0     H33566  11.440   3.866   5.252  0.1440  1.9856 -0.4722
  968MOL0     H33567  11.294   3.788   5.454 -0.5930  2.8998 -3.3867
  968MOL0     H33568  10.204   2.733   6.709  0.2654 -2.2025 -0.0437
  968MOL0     H33569  10.156   2.539   6.894  0.4503 -0.4393  1.3790
  968MOL0     H33570  10.179   2.292   7.145 -1.6455 -0.6768 -0.8401
  968MOL0     H33571  10.092   2.094   7.231 -3.2982  2.0144 -0.4100
  968MOL0     H33572  10.228   1.983   7.578  1.4623 -0.8264  0.0977
  968MOL0     H33573  10.099   2.051   7.677  1.4660 -1.2834 -0.1201
  968MOL0     H33574   9.960   1.834   7.634 -0.2649 -1.8803 -0.9713
  968MOL0     H33575  10.118   1.819   7.709  1.6781 -0.2782 -0.9104
  968MOL0     H33576  10.095   1.793   7.412  0.3330  3.2820  0.3187
  968MOL0     H33577  10.229   1.768   7.521 -0.2366  1.5825 -0.1399
  968MOL0     H33578   9.971   1.597   7.542  0.8453 -1.8511  1.3368
  968MOL0     H33579  10.126   1.561   7.618 -0.7819  1.8700  1.7305
  968MOL0     H33580  10.177   1.381   7.243 -2.5457  0.6720 -2.3541
  968MOL0     H33581  10.070   2.262   7.620 -1.2062  0.4826  0.4822
  968MOL0     H33582  10.231   2.557   7.584 -0.3861 -1.7410 -0.3404
  968MOL0     H33583  10.067   2.609   7.537  0.7281  0.9530 -0.1558
  968MOL0     H33584  10.084   2.472   7.653 -0.8325 -2.4513 -0.7050
  969MOL0     O33585   0.568  11.142   3.196 -0.3116  0.2891  0.6945
  969MOL0     C33586   0.661  11.222   3.174 -0.9382 -1.4450 -0.8197
  969MOL0     O33587   0.673  11.351   3.230 -0.0240  0.0011  0.3622
  969MOL0     C33588   0.556  11.406   3.285  0.1195  0.4605 -0.0522
  969MOL0     C33589   0.555  11.452   3.405  0.5104  0.4426  0.0200
  969MOL0     C33590   0.454  11.523   3.459  0.2044 -0.1998  0.3246
  969MOL0     C33591   0.341  11.559   3.379 -0.8830  0.7364  0.0104
  969MOL0     O33592   0.230  11.626   3.422 -0.3601 -0.0319 -0.4380
  969MOL0     C33593   0.244  11.755   3.481  0.1221  0.8049 -1.0863
  969MOL0     C33594   0.157  11.861   3.413 -0.2006 -0.8887 -0.0679
  969MOL0     C33595   0.193  11.887   3.262 -0.2751  0.0391 -0.1533
  969MOL0     C33596   0.114  12.013   3.220 -0.0450  0.7225  0.3775
  969MOL0     C33597   0.114  12.042   3.071  0.3827  0.3367  0.2585
  969MOL0     C33598   0.014  12.148   3.035 -1.3036 -0.1376  0.7537
  969MOL0     C33599   0.025  12.205   2.891 -0.2292 -0.2570  1.3948
  969MOL0     C33600  -0.001  12.123   2.771 -0.3892  0.0069  0.1845
  969MOL0     N33601  -0.005  12.178   2.630  0.1763 -0.2872 -0.6532
  969MOL0     C33602  -0.102  12.181   2.533 -0.2261 -0.3465  0.4178
  969MOL0     C33603  -0.043  12.200   2.418 -0.4116 -0.6732 -0.1283
  969MOL0     C33604  -0.114  12.215   2.282 -0.2343 -0.0967 -0.0051
  969MOL0     C33605  -0.031  12.188   2.144  0.4630  0.6255  0.0386
  969MOL0     C33606   0.033  12.315   2.091 -0.7254 -0.9283 -0.5136
  969MOL0     C33607  -0.051  12.432   2.061  0.1791 -0.4560 -0.6211
  969MOL0     O33608   0.022  12.525   1.977 -0.3234  1.1313  0.3704
  969MOL0     C33609  -0.004  12.652   1.978 -0.2614  0.4021 -0.1131
  969MOL0     C33610  -0.084  12.729   2.062  0.3741  0.7514  0.2160
  969MOL0     C33611  -0.111  12.865   2.038 -0.4531 -0.4108 -0.5141
  969MOL0     C33612  -0.221  12.919   2.121 -1.1696  0.4262  0.0989
  969MOL0     C33613  -0.056  12.937   1.928 -0.2456 -0.6235  0.0086
  969MOL0     C33614  -0.095  13.084   1.901 -0.5515 -0.9285 -0.0296
  969MOL0     O33615  -0.030  13.142   1.797 -0.3506  0.0652  0.0436
  969MOL0     C33616  -0.038  13.279   1.775 -1.0320 -0.3307 -0.1081
  969MOL0     C33617  -0.105  13.331   1.661  0.5448 -0.1283  0.2765
  969MOL0     C33618  -0.119  13.470   1.638 -1.4865 -0.1051 -0.6941
  969MOL0     C33619  -0.058  13.562   1.728 -0.2342  0.2562  0.3104
  969MOL0     O33620  -0.052  13.697   1.703  1.2374 -0.3739 -0.9306
  969MOL0     C33621  -0.059  13.734   1.567  0.4769  0.2041 -0.1079
  969MOL0     C33622  -0.014  13.877   1.548 -0.3459 -0.2767  0.8711
  969MOL0     C33623   0.115  13.918   1.629  0.2243  0.3062 -0.9763
  969MOL0     C33624   0.152  14.070   1.615  0.4209  0.2227  0.6388
  969MOL0     C33625   0.254  14.140   1.709  0.2514 -0.0526 -0.2541
  969MOL0     C33626   0.201  14.196   1.848 -0.7354 -0.6114  0.3376
  969MOL0     C33627   0.307  14.281   1.919 -0.2734  0.6204  0.3289
  969MOL0     C33628   0.241  14.347   2.032 -0.3421 -0.6741 -0.0081
  969MOL0    Cl33629   0.354  14.474   2.087  1.1954  0.1296 -0.0311
  969MOL0     C33630  -0.006  13.508   1.844  0.3401 -0.3186  0.0029
  969MOL0     C33631   0.003  13.373   1.876 -0.1493 -0.2125 -0.5965
  969MOL0     O33632  -0.193  13.139   1.959 -0.0246  0.1291  0.1595
  969MOL0     C33633   0.030  12.857   1.850  0.1928 -0.5799 -0.4946
  969MOL0     C33634   0.056  12.723   1.877  0.0631  0.1846  0.3181
  969MOL0     N33635   0.092  12.244   2.444  0.4226  0.7140 -0.8896
  969MOL0     N33636   0.107  12.222   2.566 -0.2442 -0.3684 -0.6739
  969MOL0     C33637   0.333  11.508   3.252 -0.1075  0.3131  0.1659
  969MOL0     C33638   0.435  11.427   3.204 -0.2855 -0.1897  0.1517
  969MOL0     C33639   0.767  11.183   3.077  0.0411 -0.5402 -0.6488
  969MOL0     C33640   0.801  11.277   2.978  0.5787  0.3753  0.4957
  969MOL0     C33641   0.876  11.238   2.865  0.3409 -0.4432 -0.3905
  969MOL0     C33642   0.929  11.108   2.851  0.4012 -1.0576  0.3991
  969MOL0     O33643   0.998  11.050   2.744 -0.0569 -0.2199  0.2646
  969MOL0     C33644   1.050  11.132   2.638 -0.3451  0.3414 -0.9687
  969MOL0     C33645   0.947  11.187   2.530 -0.2126 -0.5344 -0.4082
  969MOL0     C33646   1.003  11.185   2.392 -0.0666  0.1306 -0.5450
  969MOL0     C33647   0.894  11.240   2.299 -0.3450 -0.9720  0.1353
  969MOL0     C33648   0.767  11.177   2.296  0.2395 -0.0901 -0.8109
  969MOL0     C33649   0.671  11.102   2.305 -0.3095 -0.3223 -0.1557
  969MOL0     C33650   0.908  11.024   2.963 -0.1935  0.3458 -0.3961
  969MOL0     C33651   0.835  11.058   3.072  0.2546  0.6067  0.3446
  969MOL0     C33652   0.828  10.973   3.196 -0.0109  0.8807  0.3835
  969MOL0     H33653   0.641  11.424   3.466  0.0902 -0.6565  0.1229
  969MOL0     H33654   0.449  11.552   3.564 -4.1531  3.1456 -0.5268
  969MOL0     H33655   0.349  11.784   3.469  0.0002  0.7482 -2.5916
  969MOL0     H33656   0.214  11.766   3.585 -1.0768  1.9633 -1.5213
  969MOL0     H33657   0.049  11.843   3.418 -0.3766 -0.2131 -1.1542
  969MOL0     H33658   0.186  11.952   3.467  0.6785  0.0172 -1.9878
  969MOL0     H33659   0.299  11.891   3.240  0.2430 -2.2401  1.5031
  969MOL0     H33660   0.146  11.801   3.212 -1.0521 -0.5177  1.4538
  969MOL0     H33661   0.012  12.011   3.257 -0.7904  3.4667 -1.2745
  969MOL0     H33662   0.150  12.102   3.273  1.2701  0.2466  0.3348
  969MOL0     H33663   0.105  11.947   3.017 -0.6860  1.4573 -1.6427
  969MOL0     H33664   0.209  12.090   3.044 -0.9147  2.7975 -0.2359
  969MOL0     H33665  -0.081  12.095   3.043 -1.0736 -0.4383  1.5784
  969MOL0     H33666   0.024  12.235   3.101  1.9830 -1.1944  1.8105
  969MOL0     H33667   0.133  12.224   2.895 -0.4883  1.1586  2.3012
  969MOL0     H33668  -0.023  12.303   2.885  1.4082  0.5049 -0.6981
  969MOL0     H33669   0.070  12.041   2.779  0.5424  0.8113  0.3912
  969MOL0     H33670  -0.096  12.078   2.800  0.2836 -0.2503  2.0844
  969MOL0     H33671  -0.208  12.166   2.552 -0.0992  1.4140  3.0213
  969MOL0     H33672  -0.156  12.315   2.275 -1.0111 -0.2125  2.2042
  969MOL0     H33673  -0.207  12.157   2.276  0.1875 -0.9026  1.0761
  969MOL0     H33674   0.040  12.113   2.180 -1.2036 -0.0248  2.1725
  969MOL0     H33675  -0.093  12.139   2.069  0.3968  2.4209 -1.1548
  969MOL0     H33676   0.111  12.343   2.163 -2.1130  0.1267  0.6511
  969MOL0     H33677   0.077  12.287   1.995  0.3069 -2.1737  0.2813
  969MOL0     H33678  -0.147  12.404   2.016 -0.7800  1.1155  0.3481
  969MOL0     H33679  -0.069  12.474   2.160  1.0202  0.4520 -0.8400
  969MOL0     H33680  -0.125  12.684   2.152 -2.0163 -1.0626 -1.6564
  969MOL0     H33681  -0.188  12.997   2.190  0.5057 -2.0444  2.2679
  969MOL0     H33682  -0.269  12.858   2.198 -1.2131 -0.1440 -0.3725
  969MOL0     H33683  -0.308  12.946   2.061  0.2500  0.9933 -1.8040
  969MOL0     H33684  -0.146  13.268   1.583 -1.4672 -0.0590  1.2334
  969MOL0     H33685  -0.171  13.499   1.547 -0.7534  0.7675 -0.8512
  969MOL0     H33686   0.012  13.674   1.510 -0.6429 -0.7661 -0.5062
  969MOL0     H33687  -0.159  13.732   1.522  0.0015  0.5255  0.8935
  969MOL0     H33688   0.014  13.897   1.444  0.7110 -0.3836  1.1168
  969MOL0     H33689  -0.083  13.955   1.580 -1.6462 -2.1007  2.7930
  969MOL0     H33690   0.201  13.855   1.603 -1.0969 -0.6502 -3.2807
  969MOL0     H33691   0.105  13.906   1.737  0.2199  0.7817 -0.9202
  969MOL0     H33692   0.059  14.125   1.634  0.0326 -1.6213  5.5483
  969MOL0     H33693   0.184  14.087   1.512  0.0173  0.6582  0.5800
  969MOL0     H33694   0.335  14.068   1.727 -0.3972 -1.2975 -2.0491
  969MOL0     H33695   0.287  14.228   1.653  0.8256  2.1440  3.2275
  969MOL0     H33696   0.198  14.105   1.909 -0.6712 -1.8260 -1.3923
  969MOL0     H33697   0.103  14.244   1.838 -0.9085 -1.0188  0.0250
  969MOL0     H33698   0.330  14.361   1.847 -2.3716  3.7029  2.8250
  969MOL0     H33699   0.391  14.216   1.944  0.4581  1.5637  0.3996
  969MOL0     H33700   0.223  14.271   2.109  0.6481 -3.1352 -2.0529
  969MOL0     H33701   0.145  14.388   1.999  1.9480  4.0447 -1.6566
  969MOL0     H33702   0.035  13.587   1.905  2.4758 -0.3795 -1.2745
  969MOL0     H33703   0.052  13.341   1.967 -2.9690 -0.7126  0.8684
  969MOL0     H33704   0.087  12.892   1.765  3.4847  0.3646  1.9264
  969MOL0     H33705   0.122  12.670   1.809 -0.1014  2.3709 -1.6843
  969MOL0     H33706   0.245  11.502   3.189  0.3437  1.8951 -0.6833
  969MOL0     H33707   0.435  11.380   3.106  0.4555  0.9577 -0.4143
  969MOL0     H33708   0.761  11.378   2.983 -0.9520 -0.2537  2.9947
  969MOL0     H33709   0.892  11.314   2.790 -3.7628  0.1322 -0.8904
  969MOL0     H33710   1.101  11.215   2.688 -0.5694  0.5591 -1.1028
  969MOL0     H33711   1.127  11.079   2.581 -0.8196  2.7343 -4.0839
  969MOL0     H33712   0.912  11.290   2.545 -1.5625 -0.6581 -2.3313
  969MOL0     H33713   0.854  11.131   2.547 -1.4578  1.8314  1.2078
  969MOL0     H33714   1.095  11.243   2.404 -1.7168  2.3005  4.3592
  969MOL0     H33715   1.033  11.083   2.367  0.9614  0.0896  0.7145
  969MOL0     H33716   0.932  11.248   2.197  0.8518  2.6319  0.7006
  969MOL0     H33717   0.860  11.336   2.341 -4.1671 -2.5629  1.0642
  969MOL0     H33718   0.585  11.039   2.315  0.5336 -1.2204  1.8472
  969MOL0     H33719   0.949  10.923   2.963  0.9273  0.7684  1.0019
  969MOL0     H33720   0.727  10.940   3.225 -0.3754  0.9609 -0.7559
  969MOL0     H33721   0.892  10.885   3.187 -1.8213 -0.6875  1.9195
  969MOL0     H33722   0.871  11.023   3.283 -2.4071  1.2792  1.4222
  970MOL0     O33723   7.067   7.024  10.428  1.1048  0.3994 -0.1515
  970MOL0     C33724   7.165   7.096  10.430  0.0776 -0.4370  0.2279
  970MOL0     O33725   7.288   7.059  10.378  0.4376  0.2560  0.1056
  970MOL0     C33726   7.295   6.941  10.302  0.5432  0.2471 -0.2549
  970MOL0     C33727   7.317   6.944  10.168  1.6403 -0.0362  1.2916
  970MOL0     C33728   7.332   6.821  10.099  0.4116 -0.5112  0.3473
  970MOL0     C33729   7.331   6.703  10.176  0.9077 -0.2728 -0.4499
  970MOL0     O33730   7.346   6.587  10.106  0.5994  0.1847  0.3087
  970MOL0     C33731   7.214   6.534  10.073 -0.3411  0.3793  0.1382
  970MOL0     C33732   7.243   6.408   9.982  0.1247  0.3022 -0.4914
  970MOL0     C33733   7.142   6.388   9.873  0.3137  0.2766  0.1571
  970MOL0     C33734   7.164   6.252   9.802 -0.3687  0.0137 -0.5020
  970MOL0     C33735   7.039   6.215   9.712  0.6460 -0.4023  0.2689
  970MOL0     C33736   6.905   6.230   9.788  0.2172  1.0397  0.2928
  970MOL0     C33737   6.832   6.368   9.784 -1.0526  0.2288  0.2178
  970MOL0     C33738   6.706   6.372   9.877 -0.0493 -0.3898  0.2777
  970MOL0     N33739   6.745   6.428  10.010 -0.0961  0.2219 -0.1782
  970MOL0     C33740   6.777   6.558  10.046  0.2997 -0.2021 -1.0484
  970MOL0     C33741   6.841   6.541  10.170 -1.0897 -0.5422 -1.2124
  970MOL0     C33742   6.877   6.653  10.262  0.1184 -0.8190 -0.4165
  970MOL0     C33743   6.836   6.790  10.217 -0.4046  1.0141 -0.6916
  970MOL0     C33744   6.951   6.859  10.142  0.0379  0.5108  0.2685
  970MOL0     C33745   6.922   6.993  10.087  0.1109  0.3136 -0.8747
  970MOL0     O33746   6.904   6.993   9.947 -0.4701 -0.0672  0.2549
  970MOL0     C33747   6.867   7.119   9.896 -1.4315 -0.3336  0.1356
  970MOL0     C33748   6.866   7.243   9.956  0.2600  0.0372  0.4735
  970MOL0     C33749   6.803   7.360   9.899 -0.0750  0.9495 -0.2955
  970MOL0     C33750   6.822   7.495   9.973 -0.4783  0.3501 -0.4775
  970MOL0     C33751   6.736   7.348   9.776 -0.0158 -0.5354  0.2583
  970MOL0     C33752   6.660   7.462   9.713 -0.4749 -0.8486 -0.2351
  970MOL0     O33753   6.594   7.538   9.801  0.7496  0.1134 -0.7257
  970MOL0     C33754   6.521   7.649   9.760 -0.7517 -0.5725  0.2002
  970MOL0     C33755   6.541   7.769   9.826 -1.4257 -0.5065 -0.0361
  970MOL0     C33756   6.471   7.881   9.788 -0.1310  0.5540 -0.9817
  970MOL0     C33757   6.395   7.892   9.675 -0.5375 -0.0085  0.6196
  970MOL0     O33758   6.325   8.007   9.656 -0.2424  0.9079 -1.0571
  970MOL0     C33759   6.277   8.030   9.526  0.1470 -0.8943  0.2001
  970MOL0     C33760   6.190   8.162   9.528 -0.1580 -0.0101  0.4006
  970MOL0     C33761   6.037   8.158   9.589 -0.4564  1.1814 -0.1565
  970MOL0     C33762   6.037   8.111   9.739 -0.2729 -1.3392 -0.1092
  970MOL0     C33763   6.106   8.209   9.840  1.0556 -0.5040 -0.1561
  970MOL0     C33764   6.098   8.148   9.976  0.2865 -0.2256 -0.1228
  970MOL0     C33765   6.232   8.177  10.050 -0.0384 -0.4911  0.6712
  970MOL0     C33766   6.225   8.169  10.198 -0.4113  0.4390  0.7492
  970MOL0    Cl33767   6.178   7.994  10.251  0.1308  0.1191 -0.0366
  970MOL0     C33768   6.379   7.773   9.606 -0.6322  0.0550 -0.3972
  970MOL0     C33769   6.446   7.657   9.642 -0.3824 -0.0751  0.1170
  970MOL0     O33770   6.675   7.475   9.595  0.0577  0.8200 -0.0083
  970MOL0     C33771   6.758   7.228   9.705 -0.8356 -1.2499  0.5257
  970MOL0     C33772   6.811   7.114   9.765 -0.1150  0.3147  0.7843
  970MOL0     N33773   6.852   6.409  10.197  0.2779  1.0655  0.7271
  970MOL0     N33774   6.792   6.339  10.098 -0.3374 -0.4008 -0.8809
  970MOL0     C33775   7.298   6.704  10.314  0.0319 -0.0289 -0.5929
  970MOL0     C33776   7.275   6.819  10.382 -0.0578 -0.5123  1.0065
  970MOL0     C33777   7.162   7.228  10.499 -0.1517 -0.1167 -0.5887
  970MOL0     C33778   7.254   7.320  10.470 -1.0497 -1.0343  0.3342
  970MOL0     C33779   7.268   7.448  10.532  0.7928 -0.2069 -0.2351
  970MOL0     C33780   7.175   7.470  10.629 -0.3695 -0.9893 -0.2776
  970MOL0     O33781   7.185   7.603  10.663 -0.1164  0.3563  0.3852
  970MOL0     C33782   7.108   7.661  10.769 -0.4957 -0.5309 -0.1321
  970MOL0     C33783   7.194   7.636  10.893  0.1937  0.2655  0.0682
  970MOL0     C33784   7.157   7.732  10.998 -0.1178 -0.9089  0.7843
  970MOL0     C33785   7.258   7.850  11.012 -0.3426  0.4120 -1.1534
  970MOL0     C33786   7.232   7.966  10.929 -0.2133  0.3744 -0.2145
  970MOL0     C33787   7.206   8.060  10.860  0.0673 -0.0392  0.7528
  970MOL0     C33788   7.074   7.380  10.670 -0.4192 -0.7080 -0.0072
  970MOL0     C33789   7.074   7.255  10.607 -0.3465 -1.0623  0.4422
  970MOL0     C33790   6.968   7.156  10.661 -1.1639 -0.6959  0.1894
  970MOL0     H33791   7.323   7.043  10.123 -1.8491  0.4654  1.6768
  970MOL0     H33792   7.357   6.811   9.994  2.7799  1.1390  0.6686
  970MOL0     H33793   7.145   6.594  10.012 -1.5787 -0.0405  1.0745
  970MOL0     H33794   7.159   6.513  10.165  1.4654 -0.4304  1.0833
  970MOL0     H33795   7.342   6.418   9.936  0.3080  1.9155  0.2113
  970MOL0     H33796   7.246   6.323  10.051  0.9646  1.1148  0.4919
  970MOL0     H33797   7.045   6.390   9.924 -1.1764 -3.8875 -2.0788
  970MOL0     H33798   7.139   6.474   9.806 -0.6903  0.8084  0.8525
  970MOL0     H33799   7.248   6.256   9.732  0.2130  3.4146  0.2225
  970MOL0     H33800   7.182   6.176   9.878 -0.5048  0.6148  0.1460
  970MOL0     H33801   7.052   6.112   9.677 -0.5503 -0.0503 -1.3264
  970MOL0     H33802   7.035   6.275   9.621  1.5122 -1.4913 -0.5128
  970MOL0     H33803   6.831   6.158   9.751 -0.6104  2.1640 -0.2921
  970MOL0     H33804   6.922   6.202   9.892 -0.7881 -0.5474  0.0689
  970MOL0     H33805   6.805   6.378   9.679 -1.8444  4.7652  0.6540
  970MOL0     H33806   6.891   6.460   9.790 -2.6117  1.6200 -3.2221
  970MOL0     H33807   6.620   6.425   9.833 -0.1676 -1.3125 -0.6296
  970MOL0     H33808   6.668   6.270   9.884 -0.0438 -0.3238  1.4227
  970MOL0     H33809   6.767   6.646   9.983  2.7004  0.3458 -0.7705
  970MOL0     H33810   6.986   6.649  10.270  0.8842  1.8599 -5.4674
  970MOL0     H33811   6.833   6.626  10.358 -2.5882 -1.5390 -1.7731
  970MOL0     H33812   6.733   6.796  10.180 -0.4612 -0.7883 -0.8955
  970MOL0     H33813   6.811   6.850  10.304 -2.3116  0.3676 -0.7521
  970MOL0     H33814   7.049   6.860  10.192 -0.2367 -0.4165  0.8713
  970MOL0     H33815   6.971   6.786  10.063 -3.5580 -0.8082  0.4017
  970MOL0     H33816   6.832   7.027  10.139 -0.4837 -3.8100  1.2642
  970MOL0     H33817   7.010   7.054  10.107 -0.2799  0.3933  0.7909
  970MOL0     H33818   6.909   7.255  10.055  1.6605  1.5719 -0.2629
  970MOL0     H33819   6.928   7.484   9.998 -0.4671 -0.1413 -0.7337
  970MOL0     H33820   6.769   7.523  10.065  2.9153  1.7813  1.2098
  970MOL0     H33821   6.829   7.581   9.906 -4.0281  0.3314 -1.0757
  970MOL0     H33822   6.600   7.750   9.914 -0.0959 -3.4859 -1.4160
  970MOL0     H33823   6.473   7.969   9.851 -1.4566  2.3156 -3.2908
  970MOL0     H33824   6.365   8.035   9.461 -2.2036  0.1953 -3.1752
  970MOL0     H33825   6.211   7.954   9.482  0.8106 -1.9673  1.0090
  970MOL0     H33826   6.244   8.240   9.581 -0.3839  0.9478 -0.7316
  970MOL0     H33827   6.189   8.212   9.431  0.6588  0.6438  0.7137
  970MOL0     H33828   6.000   8.076   9.527  2.0229  0.4574 -0.7822
  970MOL0     H33829   5.974   8.245   9.565  0.6713  1.6291 -1.7089
  970MOL0     H33830   6.084   8.013   9.745 -0.6638 -1.6052 -1.2340
  970MOL0     H33831   5.933   8.083   9.760 -1.0388 -0.1976 -2.0700
  970MOL0     H33832   6.205   8.249   9.815  1.0880  3.4510  4.8634
  970MOL0     H33833   6.041   8.297   9.838 -0.6485 -1.7211 -1.8998
  970MOL0     H33834   6.081   8.040   9.975  1.1512 -0.3668 -1.3912
  970MOL0     H33835   6.013   8.183  10.036  1.0424 -3.1128  2.9070
  970MOL0     H33836   6.260   8.281  10.031 -3.0156  0.8877  2.9899
  970MOL0     H33837   6.300   8.109   9.998  1.0695  1.8538 -1.1478
  970MOL0     H33838   6.148   8.240  10.229  2.0815  4.6363 -1.6506
  970MOL0     H33839   6.329   8.188  10.226  0.4081  0.9374 -2.2298
  970MOL0     H33840   6.318   7.766   9.516 -2.4857 -1.3001  0.9011
  970MOL0     H33841   6.417   7.564   9.594 -1.8412 -1.2433  3.0297
  970MOL0     H33842   6.720   7.207   9.606  2.7903 -4.1193 -0.5212
  970MOL0     H33843   6.812   7.022   9.708 -1.4573  0.3950  0.5987
  970MOL0     H33844   7.292   6.612  10.371  0.3350 -0.7725 -1.7077
  970MOL0     H33845   7.254   6.815  10.488 -0.5316 -4.8045  0.9437
  970MOL0     H33846   7.325   7.301  10.390  0.2107  2.2707  0.4993
  970MOL0     H33847   7.346   7.521  10.514  3.5503 -1.4817  4.7242
  970MOL0     H33848   7.119   7.768  10.749  0.9451 -0.2320  1.9961
  970MOL0     H33849   7.003   7.630  10.759 -0.5916  0.4080 -2.7098
  970MOL0     H33850   7.299   7.653  10.866  1.1007 -1.3291  2.3305
  970MOL0     H33851   7.176   7.535  10.930 -0.4493  0.8361  1.3521
  970MOL0     H33852   7.056   7.770  10.982  0.3858  1.8765  3.2655
  970MOL0     H33853   7.152   7.694  11.100 -0.1649 -1.0029  0.7478
  970MOL0     H33854   7.359   7.814  10.993  0.5461  1.8875  0.4600
  970MOL0     H33855   7.252   7.883  11.116  4.7160  2.2296 -1.1690
  970MOL0     H33856   7.190   8.156  10.815  0.1474  0.4355  1.6960
  970MOL0     H33857   7.008   7.412  10.750 -0.0499  0.5451 -0.1884
  970MOL0     H33858   6.998   7.053  10.681 -3.5421 -2.2059 -3.2219
  970MOL0     H33859   6.932   7.189  10.759 -2.8727  3.1882 -1.5188
  970MOL0     H33860   6.882   7.155  10.594  0.4722  2.4508 -2.2594
  971MOL0     O33861   6.222   0.738   5.050  0.4844 -0.1542 -0.0715
  971MOL0     C33862   6.315   0.812   5.034 -0.5559 -0.3480 -0.0448
  971MOL0     O33863   6.333   0.902   4.936  0.3210  0.4373  0.3315
  971MOL0     C33864   6.245   0.920   4.827 -0.6717 -0.7215 -0.3120
  971MOL0     C33865   6.279   0.852   4.707  0.2608  0.7038  0.0247
  971MOL0     C33866   6.185   0.881   4.602 -0.2772 -0.5993 -0.4587
  971MOL0     C33867   6.081   0.966   4.611 -0.9440 -0.5871  0.0980
  971MOL0     O33868   5.978   0.995   4.527  0.6240  0.4628 -0.0495
  971MOL0     C33869   5.883   0.883   4.508  0.3811 -0.7931  0.7505
  971MOL0     C33870   5.817   0.841   4.634 -0.2302  0.6574  0.2018
  971MOL0     C33871   5.732   0.948   4.709 -0.2250 -0.8102 -0.3085
  971MOL0     C33872   5.704   0.913   4.849 -0.6476  0.2361 -0.0682
  971MOL0     C33873   5.814   0.921   4.958  0.1220 -0.1419 -0.8396
  971MOL0     C33874   5.807   1.054   5.039 -0.5462 -0.2914 -0.6918
  971MOL0     C33875   5.892   1.046   5.169 -0.5081 -1.1050  0.0993
  971MOL0     C33876   5.807   1.013   5.304 -1.1098 -0.7999 -0.4105
  971MOL0     N33877   5.892   1.051   5.415  0.5005 -0.5176 -0.4489
  971MOL0     C33878   5.857   1.173   5.483 -0.4510 -0.7327 -0.0377
  971MOL0     C33879   5.923   1.170   5.602  0.2232  0.1839 -0.4888
  971MOL0     C33880   5.911   1.288   5.699  0.1675  0.7115 -0.7222
  971MOL0     C33881   5.814   1.263   5.810 -0.6398  0.2337  0.6568
  971MOL0     C33882   5.698   1.166   5.774  0.0578  0.1881 -0.6855
  971MOL0     C33883   5.592   1.198   5.665  0.7064 -0.7719  0.4718
  971MOL0     O33884   5.602   1.335   5.616 -0.7148  0.0494  0.6310
  971MOL0     C33885   5.547   1.433   5.690  0.2605 -0.0549 -0.0157
  971MOL0     C33886   5.558   1.561   5.646 -0.7391  0.4431  0.2733
  971MOL0     C33887   5.509   1.679   5.716 -0.3099 -0.2336  0.0251
  971MOL0     C33888   5.583   1.806   5.682  0.5765  0.5585  0.3991
  971MOL0     C33889   5.441   1.661   5.837  0.0654  0.0208  1.1850
  971MOL0     C33890   5.411   1.781   5.923  0.5324  0.2591 -0.7628
  971MOL0     O33891   5.401   1.740   6.060  0.8296 -0.3133 -0.4877
  971MOL0     C33892   5.374   1.845   6.143 -0.4307  0.2703  0.0252
  971MOL0     C33893   5.253   1.887   6.173 -0.2700  0.4366  0.3615
  971MOL0     C33894   5.226   1.990   6.274  0.9219 -0.0442  0.4364
  971MOL0     C33895   5.328   2.046   6.340  0.1878  0.6694  0.4358
  971MOL0     O33896   5.304   2.132   6.444  0.9736  0.0616  0.4052
  971MOL0     C33897   5.401   2.215   6.523 -0.2196 -0.0497  0.6857
  971MOL0     C33898   5.317   2.297   6.622  0.5438  0.1149  1.2500
  971MOL0     C33899   5.390   2.400   6.706  0.0605 -0.8360  1.0724
  971MOL0     C33900   5.425   2.541   6.637  0.1915 -0.3639 -0.4946
  971MOL0     C33901   5.493   2.641   6.722  0.1830 -0.2638 -0.1852
  971MOL0     C33902   5.518   2.779   6.661 -0.7355 -0.9262  0.3771
  971MOL0     C33903   5.527   2.902   6.765  0.4421  0.2660 -0.1673
  971MOL0     C33904   5.661   2.928   6.819 -0.1524 -0.3956 -0.1737
  971MOL0    Cl33905   5.662   3.041   6.965 -0.2142  0.0230 -0.4041
  971MOL0     C33906   5.457   1.997   6.311 -1.9073  0.2595 -0.1028
  971MOL0     C33907   5.478   1.903   6.212  0.5983  0.4064 -1.1098
  971MOL0     O33908   5.391   1.897   5.878  0.1581  0.7724  0.0798
  971MOL0     C33909   5.448   1.532   5.896  0.5192  0.2674  1.1354
  971MOL0     C33910   5.492   1.420   5.817 -0.2075  0.7325  0.3367
  971MOL0     N33911   5.996   1.054   5.604  0.9274  0.1910 -0.1611
  971MOL0     N33912   5.973   0.981   5.502  1.1560  0.3816  0.5854
  971MOL0     C33913   6.071   1.042   4.722 -0.0562  0.1422 -0.1113
  971MOL0     C33914   6.143   1.010   4.840  0.1181  0.7483  0.1130
  971MOL0     C33915   6.419   0.802   5.147 -0.9400 -0.5080 -1.1519
  971MOL0     C33916   6.553   0.811   5.116 -0.2500 -0.5415 -0.9539
  971MOL0     C33917   6.646   0.814   5.221  0.1195 -0.2607 -0.0824
  971MOL0     C33918   6.607   0.800   5.359 -0.0918  0.2038  0.7109
  971MOL0     O33919   6.700   0.777   5.456 -0.1058 -0.8820 -0.3997
  971MOL0     C33920   6.659   0.699   5.569  0.8038  0.7580  0.4284
  971MOL0     C33921   6.779   0.612   5.629  0.1641 -0.3551  0.4623
  971MOL0     C33922   6.852   0.540   5.517  0.0040 -0.2258  0.2333
  971MOL0     C33923   6.942   0.427   5.552 -0.0619  0.5797  0.3010
  971MOL0     C33924   6.874   0.323   5.632 -0.8542 -0.9739 -0.2875
  971MOL0     C33925   6.833   0.255   5.722 -0.4890  0.7249 -0.9836
  971MOL0     C33926   6.470   0.798   5.387 -0.1215  0.5527 -0.4327
  971MOL0     C33927   6.373   0.795   5.284 -0.4971  0.0767  0.1767
  971MOL0     C33928   6.233   0.833   5.318 -0.0908  0.8419  0.4065
  971MOL0     H33929   6.367   0.792   4.689 -0.4630 -1.0603  1.9314
  971MOL0     H33930   6.212   0.825   4.514 -3.2261 -0.5457 -1.5111
  971MOL0     H33931   5.945   0.812   4.451 -0.8621  0.0835 -1.8709
  971MOL0     H33932   5.805   0.921   4.442  1.7951  0.4384 -0.2894
  971MOL0     H33933   5.754   0.757   4.603  1.8107 -0.3839 -1.3143
  971MOL0     H33934   5.887   0.794   4.704 -0.0822 -1.0297 -1.0182
  971MOL0     H33935   5.760   1.053   4.699 -3.1897 -0.0058 -1.4445
  971MOL0     H33936   5.632   0.957   4.665 -0.5543 -1.6792  0.2368
  971MOL0     H33937   5.615   0.967   4.884 -2.2260  0.4642 -3.8988
  971MOL0     H33938   5.662   0.813   4.837  1.7116 -0.8306  0.0841
  971MOL0     H33939   5.918   0.911   4.926  1.6061 -0.9511  3.6371
  971MOL0     H33940   5.785   0.843   5.028 -1.9356  1.0048 -0.3159
  971MOL0     H33941   5.841   1.129   4.967 -0.3689 -0.9220 -1.2712
  971MOL0     H33942   5.702   1.066   5.067 -0.6249 -2.6027  0.2055
  971MOL0     H33943   5.949   1.139   5.177 -1.2920 -0.4871 -1.1764
  971MOL0     H33944   5.962   0.962   5.166  0.2404 -0.5086  0.4109
  971MOL0     H33945   5.707   1.055   5.309 -1.4975 -1.8080  0.9098
  971MOL0     H33946   5.801   0.904   5.306  1.4035 -1.0121  1.6684
  971MOL0     H33947   5.788   1.254   5.463 -0.1173  0.0904  1.9489
  971MOL0     H33948   5.869   1.370   5.640 -0.4028  0.7298 -0.2971
  971MOL0     H33949   6.002   1.333   5.739 -0.7361  0.0255  2.3972
  971MOL0     H33950   5.876   1.218   5.888  0.7457 -4.3184 -2.6906
  971MOL0     H33951   5.775   1.360   5.843  0.5141  0.0042  2.8707
  971MOL0     H33952   5.744   1.067   5.760 -0.6152 -0.1253 -0.7184
  971MOL0     H33953   5.633   1.151   5.860 -0.0707  2.2177 -0.3894
  971MOL0     H33954   5.624   1.135   5.582 -0.2513  2.3111 -2.4540
  971MOL0     H33955   5.496   1.163   5.704 -0.4692  0.0744 -1.5077
  971MOL0     H33956   5.613   1.569   5.552  0.7614 -1.7850  0.8999
  971MOL0     H33957   5.507   1.880   5.657  0.0771 -0.8090 -2.7000
  971MOL0     H33958   5.645   1.781   5.595  3.9213 -0.0265  2.7511
  971MOL0     H33959   5.657   1.836   5.756  3.0758 -3.3924 -0.1646
  971MOL0     H33960   5.163   1.853   6.122 -0.3762 -2.6309  2.3240
  971MOL0     H33961   5.121   2.006   6.297  1.3688  3.7311  0.3854
  971MOL0     H33962   5.471   2.160   6.587  0.1483 -0.6406 -0.1988
  971MOL0     H33963   5.457   2.268   6.445 -1.7280 -0.6796 -0.8980
  971MOL0     H33964   5.232   2.330   6.562 -0.1737 -3.3877  0.0777
  971MOL0     H33965   5.271   2.226   6.691 -5.3608  2.6924  0.5514
  971MOL0     H33966   5.495   2.377   6.728  0.1293 -0.8032  0.7784
  971MOL0     H33967   5.345   2.425   6.803  1.1157  2.3482  0.8577
  971MOL0     H33968   5.324   2.579   6.626 -1.0921 -2.7084  2.0002
  971MOL0     H33969   5.480   2.519   6.545  0.3735 -2.5804  0.0839
  971MOL0     H33970   5.437   2.645   6.815 -1.2399 -1.9531 -0.9099
  971MOL0     H33971   5.591   2.596   6.737  1.4944  2.3024 -0.3486
  971MOL0     H33972   5.436   2.799   6.592 -0.4086 -0.3827  0.1402
  971MOL0     H33973   5.606   2.786   6.596  0.9787  3.1655  2.7802
  971MOL0     H33974   5.447   2.885   6.838  1.4364  3.7530  1.9962
  971MOL0     H33975   5.497   2.990   6.709  3.0063  0.8784 -0.7142
  971MOL0     H33976   5.725   2.972   6.742 -1.3539 -2.0814 -2.2726
  971MOL0     H33977   5.705   2.829   6.835 -3.0659 -1.6248  1.0236
  971MOL0     H33978   5.540   2.020   6.377 -0.0148  0.6078 -2.4651
  971MOL0     H33979   5.580   1.873   6.188  1.1887  2.2348 -1.0253
  971MOL0     H33980   5.403   1.511   5.992 -1.6269  3.2790  0.9504
  971MOL0     H33981   5.476   1.318   5.852 -0.7987  0.2441 -1.2674
  971MOL0     H33982   5.988   1.110   4.730 -1.9827 -1.9115 -1.4035
  971MOL0     H33983   6.122   1.073   4.927  0.6613 -0.4256  1.1222
  971MOL0     H33984   6.592   0.839   5.019  1.0536  0.7009 -0.1065
  971MOL0     H33985   6.753   0.829   5.206  0.1343 -0.8069 -0.5592
  971MOL0     H33986   6.616   0.766   5.644 -3.1649  2.5065 -2.9627
  971MOL0     H33987   6.577   0.636   5.532  0.6923  2.5074 -2.6039
  971MOL0     H33988   6.754   0.538   5.706  3.2722  0.7814  2.7679
  971MOL0     H33989   6.843   0.678   5.688  0.2228 -1.2861  1.4864
  971MOL0     H33990   6.775   0.498   5.452  0.7562 -1.4382  0.0972
  971MOL0     H33991   6.916   0.605   5.456 -1.0704 -0.4129 -1.1283
  971MOL0     H33992   7.033   0.455   5.606  0.0457 -3.2199  2.4890
  971MOL0     H33993   6.962   0.382   5.454  1.8871  0.3681  0.7467
  971MOL0     H33994   6.775   0.201   5.794  0.8183 -0.9597 -1.1429
  971MOL0     H33995   6.428   0.796   5.487  1.5659 -2.7542  0.3713
  971MOL0     H33996   6.187   0.747   5.368  1.3836  1.4933  3.0964
  971MOL0     H33997   6.232   0.914   5.392  0.8311  2.4438 -1.2373
  971MOL0     H33998   6.156   0.852   5.242  0.5842 -0.7648 -0.7262
  972MOL0     O33999   2.720   8.895   3.992 -0.0023 -0.1677  0.1031
  972MOL0     C34000   2.771   8.833   4.085  0.1068  1.3826  0.1301
  972MOL0     O34001   2.740   8.696   4.114 -0.3121  0.3234  0.0742
  972MOL0     C34002   2.605   8.666   4.130  0.7777 -0.4055 -0.5433
  972MOL0     C34003   2.491   8.728   4.061  1.0871 -0.0319 -0.0854
  972MOL0     C34004   2.357   8.703   4.085 -0.4461  0.6365 -0.8119
  972MOL0     C34005   2.319   8.590   4.162 -0.0814  0.1869 -0.3656
  972MOL0     O34006   2.184   8.565   4.188 -0.1865  0.4062  0.4040
  972MOL0     C34007   2.137   8.438   4.232 -0.5575 -0.3684 -0.9478
  972MOL0     C34008   2.012   8.403   4.163 -0.2152  0.0110 -0.5367
  972MOL0     C34009   2.039   8.393   4.012 -0.8469  0.3131  0.1141
  972MOL0     C34010   2.160   8.299   3.974  0.4461 -0.0922  0.3375
  972MOL0     C34011   2.172   8.276   3.816 -0.7773 -0.3097  0.6640
  972MOL0     C34012   2.209   8.413   3.745  0.2592  0.0476  1.4430
  972MOL0     C34013   2.336   8.468   3.805  0.7154  0.3462 -0.5105
  972MOL0     C34014   2.377   8.594   3.724 -0.0036  0.7906 -0.5458
  972MOL0     N34015   2.293   8.719   3.744  0.2279  0.3438  0.0048
  972MOL0     C34016   2.354   8.842   3.758 -0.2391  0.2852  0.8821
  972MOL0     C34017   2.248   8.920   3.797  0.0729  0.3432  0.1535
  972MOL0     C34018   2.248   9.070   3.827  0.2911  0.3208  0.5656
  972MOL0     C34019   2.181   9.113   3.959 -1.2242 -0.0156 -0.1198
  972MOL0     C34020   2.265   9.071   4.080 -0.2586  0.2119 -0.3432
  972MOL0     C34021   2.179   9.102   4.209  2.4552  0.3907  0.1114
  972MOL0     O34022   2.195   8.999   4.310  0.4042 -0.2547 -0.0812
  972MOL0     C34023   2.303   8.991   4.393  0.2708  0.1847  0.8132
  972MOL0     C34024   2.376   8.874   4.404  0.9478  0.5839 -1.1805
  972MOL0     C34025   2.473   8.859   4.502 -0.1325  0.3201  0.7348
  972MOL0     C34026   2.520   8.714   4.510 -0.9082  0.1210 -0.0662
  972MOL0     C34027   2.512   8.966   4.585 -0.0989 -0.3383 -0.4954
  972MOL0     C34028   2.593   8.934   4.698 -0.1462 -0.2302 -0.8482
  972MOL0     O34029   2.707   8.861   4.677 -0.1193 -0.5536  0.3256
  972MOL0     C34030   2.780   8.813   4.788  0.5938 -1.0788  0.5471
  972MOL0     C34031   2.712   8.792   4.911 -0.2422  0.6015 -0.3974
  972MOL0     C34032   2.782   8.731   5.014  0.1999  0.2932 -0.9238
  972MOL0     C34033   2.907   8.678   4.999 -0.1696 -0.8876  0.4893
  972MOL0     O34034   2.969   8.635   5.115  0.0604  0.1982  0.7921
  972MOL0     C34035   3.056   8.517   5.101  0.0463 -0.0860  0.2652
  972MOL0     C34036   3.006   8.423   5.204  0.8469  0.5192 -0.0323
  972MOL0     C34037   2.859   8.371   5.186  1.1441  0.7730 -1.2295
  972MOL0     C34038   2.814   8.285   5.310 -0.0733 -0.5379  0.3674
  972MOL0     C34039   2.657   8.276   5.334 -0.4971  0.5951 -0.4061
  972MOL0     C34040   2.605   8.392   5.416  0.2990 -0.1531  0.4791
  972MOL0     C34041   2.454   8.396   5.405 -0.8615 -0.7815 -0.1820
  972MOL0     C34042   2.406   8.446   5.260 -0.1167  0.0286  0.3835
  972MOL0    Cl34043   2.470   8.606   5.228 -0.1626  0.1711 -0.5033
  972MOL0     C34044   2.975   8.704   4.879 -0.3399 -0.2473 -0.3635
  972MOL0     C34045   2.908   8.766   4.771 -0.3421  0.2230 -0.3261
  972MOL0     O34046   2.572   9.008   4.796 -0.8878 -0.3477 -0.6008
  972MOL0     C34047   2.453   9.087   4.564  0.5320 -0.6777  0.6213
  972MOL0     C34048   2.351   9.100   4.469  0.1088 -1.3263  0.0496
  972MOL0     N34049   2.129   8.855   3.805  0.5277  0.1638  0.2065
  972MOL0     N34050   2.158   8.736   3.777  0.1054  0.3890 -0.2868
  972MOL0     C34051   2.430   8.523   4.217 -0.4377  0.3408 -0.8581
  972MOL0     C34052   2.569   8.557   4.198 -0.2228  0.7257 -0.2647
  972MOL0     C34053   2.851   8.893   4.188 -0.2388 -0.1625  0.0435
  972MOL0     C34054   2.979   8.838   4.217  0.4460  0.4090  0.0939
  972MOL0     C34055   3.073   8.894   4.309 -0.5333  0.5701 -1.0827
  972MOL0     C34056   3.028   9.009   4.387  0.3163  0.3358 -0.2501
  972MOL0     O34057   3.117   9.058   4.487  0.0855  0.5239  0.9295
  972MOL0     C34058   3.085   9.152   4.579 -0.0120 -0.0603  0.7225
  972MOL0     C34059   2.995   9.106   4.695  0.3294  0.2385  1.2466
  972MOL0     C34060   2.989   9.219   4.793  0.2008  0.0902 -1.0243
  972MOL0     C34061   2.894   9.195   4.913  0.7477 -0.1432 -0.4618
  972MOL0     C34062   2.947   9.076   4.983 -0.7857 -0.5373  0.3539
  972MOL0     C34063   2.980   8.990   5.056  0.1383  0.2224 -1.4973
  972MOL0     C34064   2.897   9.064   4.358  0.1089  0.5929 -0.2326
  972MOL0     C34065   2.814   9.018   4.256  0.5191  0.7078 -0.3511
  972MOL0     C34066   2.680   9.078   4.236 -0.1431 -0.2967 -0.0229
  972MOL0     H34067   2.508   8.816   4.000  1.4144  1.7834  2.4744
  972MOL0     H34068   2.281   8.762   4.035  0.8990  1.4261 -1.9971
  972MOL0     H34069   2.106   8.454   4.336 -0.2074  1.1262 -1.0417
  972MOL0     H34070   2.208   8.354   4.235 -0.6636 -0.4450 -0.6070
  972MOL0     H34071   1.977   8.304   4.196 -1.1134  0.6547  0.5097
  972MOL0     H34072   1.933   8.474   4.187 -1.2811 -1.5509  0.8435
  972MOL0     H34073   1.951   8.362   3.956  1.3419  1.3032 -4.3711
  972MOL0     H34074   2.065   8.494   3.978  0.9481  0.0828  0.6729
  972MOL0     H34075   2.250   8.339   4.021 -1.0263 -0.9466  4.3347
  972MOL0     H34076   2.153   8.201   4.022 -0.9624  0.4711  1.3645
  972MOL0     H34077   2.079   8.232   3.781 -0.0634 -0.4110 -1.2669
  972MOL0     H34078   2.247   8.199   3.793 -1.6926 -1.7424  2.2790
  972MOL0     H34079   2.217   8.404   3.636 -3.0830  0.5365  1.0527
  972MOL0     H34080   2.128   8.484   3.760 -1.5177 -1.7110  0.6952
  972MOL0     H34081   2.420   8.397   3.807  1.2339  0.9558  0.4757
  972MOL0     H34082   2.333   8.493   3.912  1.9879  1.1039 -0.6233
  972MOL0     H34083   2.473   8.627   3.764 -0.6514 -1.2903  3.1320
  972MOL0     H34084   2.380   8.574   3.616 -1.5603 -0.1827 -0.4504
  972MOL0     H34085   2.459   8.868   3.759  0.0676 -0.6832 -0.8819
  972MOL0     H34086   2.189   9.120   3.750  1.5485  0.7301 -0.1471
  972MOL0     H34087   2.348   9.109   3.810  0.3230 -0.7922 -2.2442
  972MOL0     H34088   2.169   9.222   3.956  0.6686  0.2778  1.5385
  972MOL0     H34089   2.077   9.078   3.955 -1.4308  0.6060 -3.0949
  972MOL0     H34090   2.293   8.967   4.064  0.4438  0.4785 -0.9122
  972MOL0     H34091   2.356   9.131   4.084 -1.3960  1.9945  0.1462
  972MOL0     H34092   2.208   9.195   4.259 -0.6567  0.3473  2.3167
  972MOL0     H34093   2.073   9.108   4.184  1.6606 -0.7327  2.8111
  972MOL0     H34094   2.339   8.785   4.355  0.6206 -2.2664  3.6605
  972MOL0     H34095   2.546   8.695   4.615  0.6123  1.6376 -0.1152
  972MOL0     H34096   2.612   8.709   4.451  0.6481  1.3391  2.1145
  972MOL0     H34097   2.448   8.643   4.469 -2.5290  0.6995  1.6454
  972MOL0     H34098   2.613   8.833   4.930 -0.2150  0.0374  1.0482
  972MOL0     H34099   2.728   8.743   5.108 -1.3059  1.3335 -1.8745
  972MOL0     H34100   3.056   8.479   4.999  1.3393 -0.8700  0.5360
  972MOL0     H34101   3.157   8.550   5.129 -0.6321  1.1880  1.3507
  972MOL0     H34102   3.074   8.338   5.200  2.5212  1.8406 -1.9792
  972MOL0     H34103   3.009   8.472   5.302 -2.7220  0.5603  0.1767
  972MOL0     H34104   2.841   8.312   5.096  2.1459 -2.5033  0.5614
  972MOL0     H34105   2.793   8.458   5.186  0.6542  0.4909  1.1428
  972MOL0     H34106   2.874   8.309   5.398  2.4404 -2.1831 -0.7866
  972MOL0     H34107   2.838   8.181   5.289 -0.3257 -0.8746  1.6541
  972MOL0     H34108   2.614   8.273   5.234  1.9445 -0.0174 -1.5254
  972MOL0     H34109   2.641   8.180   5.383 -1.2364 -0.8233 -3.2487
  972MOL0     H34110   2.658   8.484   5.390  1.8343  0.0037  3.6971
  972MOL0     H34111   2.616   8.375   5.524  3.0635 -3.0043 -0.1104
  972MOL0     H34112   2.422   8.474   5.475  0.4316  0.2096 -0.6522
  972MOL0     H34113   2.432   8.294   5.438  3.3259 -1.3065  1.5421
  972MOL0     H34114   2.298   8.460   5.255 -0.1316 -0.4395 -1.6204
  972MOL0     H34115   2.441   8.377   5.182  0.0648  0.7080 -0.1422
  972MOL0     H34116   3.079   8.677   4.859 -0.4413 -1.8123  1.0195
  972MOL0     H34117   2.958   8.790   4.678  0.5710  1.4334  0.4367
  972MOL0     H34118   2.465   9.170   4.633  2.2579 -0.8219  0.5491
  972MOL0     H34119   2.286   9.186   4.476  1.4143 -0.2368 -0.7582
  972MOL0     H34120   2.420   8.427   4.267 -1.7630 -0.6385 -2.8877
  972MOL0     H34121   2.644   8.493   4.243  0.0859  0.3093 -1.3440
  972MOL0     H34122   3.008   8.748   4.164  0.0709 -0.4262  1.2579
  972MOL0     H34123   3.168   8.856   4.344  0.3334  2.4119 -1.3115
  972MOL0     H34124   3.181   9.177   4.624  1.7338 -2.1287 -1.5547
  972MOL0     H34125   3.039   9.241   4.534  0.7640  0.1378  0.2969
  972MOL0     H34126   3.041   9.021   4.746 -2.3946 -0.4977  2.6625
  972MOL0     H34127   2.894   9.082   4.660  0.6158  0.9457 -0.1051
  972MOL0     H34128   3.090   9.241   4.830 -0.9922  0.6473  2.1470
  972MOL0     H34129   2.965   9.317   4.750  1.2544  0.8363  0.0373
  972MOL0     H34130   2.790   9.183   4.882  0.1434  0.1935  1.2969
  972MOL0     H34131   2.892   9.283   4.978  2.1634 -1.6953  1.8427
  972MOL0     H34132   2.989   8.902   5.117 -1.0625 -1.8703 -4.1717
  972MOL0     H34133   2.881   9.151   4.421  5.8826  2.4370 -0.7103
  972MOL0     H34134   2.683   9.142   4.147 -0.7889  2.1349  1.6009
  972MOL0     H34135   2.611   8.995   4.219  1.3282 -1.2903 -1.5841
  972MOL0     H34136   2.638   9.143   4.312 -2.6721 -0.5301 -1.1379
  973MOL0     O34137   9.434   6.140  10.835 -0.0520  0.1959  1.0286
  973MOL0     C34138   9.498   6.240  10.871  0.0021 -0.0983  1.0412
  973MOL0     O34139   9.457   6.319  10.971 -0.3619  0.3575 -0.9884
  973MOL0     C34140   9.398   6.270  11.085 -0.1874  0.9961 -1.1316
  973MOL0     C34141   9.330   6.351  11.181 -0.3217  0.4496 -0.5932
  973MOL0     C34142   9.290   6.309  11.310  0.5372  0.9324 -0.2469
  973MOL0     C34143   9.312   6.177  11.344 -0.5798 -1.5152 -0.3215
  973MOL0     O34144   9.269   6.106  11.457 -0.8034 -0.2787 -0.4847
  973MOL0     C34145   9.209   6.183  11.555 -1.0046  0.4132 -0.4949
  973MOL0     C34146   9.186   6.104  11.684 -0.0001  0.7349  0.5104
  973MOL0     C34147   9.158   6.168  11.820 -0.3865  0.1131 -0.0968
  973MOL0     C34148   9.044   6.266  11.800  0.3291 -0.3046  0.1888
  973MOL0     C34149   9.034   6.369  11.920 -0.3856  1.2125 -0.6569
  973MOL0     C34150   8.902   6.445  11.914  0.2377 -1.0290 -0.1773
  973MOL0     C34151   8.843   6.496  12.045  0.1295  0.3814  0.2524
  973MOL0     C34152   8.942   6.589  12.129  0.6772  0.5293 -0.1230
  973MOL0     N34153   9.054   6.508  12.194  0.0869 -0.3002  0.4054
  973MOL0     C34154   9.031   6.394  12.264  0.3300  0.3530  0.0674
  973MOL0     C34155   9.147   6.323  12.266  0.0229  0.1017  0.7931
  973MOL0     C34156   9.167   6.187  12.324  0.4049  0.3539 -0.7069
  973MOL0     C34157   9.237   6.194  12.461  0.2268  0.2086 -1.1133
  973MOL0     C34158   9.152   6.283  12.563  0.5809 -0.0123 -0.1194
  973MOL0     C34159   9.200   6.427  12.586  0.1802 -0.0088  0.2003
  973MOL0     O34160   9.299   6.442  12.692  0.0338  0.1790  0.1131
  973MOL0     C34161   9.324   6.570  12.747 -0.7289  0.3550  0.8525
  973MOL0     C34162   9.361   6.590  12.882 -0.2203  1.4290  0.2594
  973MOL0     C34163   9.372   6.720  12.941 -0.0128  0.4203 -0.0644
  973MOL0     C34164   9.430   6.722  13.075  0.0500  0.5002 -0.7681
  973MOL0     C34165   9.343   6.836  12.859  0.5803 -0.2479 -0.0235
  973MOL0     C34166   9.360   6.977  12.894  0.2766 -0.2789  0.8113
  973MOL0     O34167   9.353   7.076  12.789 -0.0412  0.2500  0.2199
  973MOL0     C34168   9.382   7.204  12.814 -0.3162 -0.5538  0.7811
  973MOL0     C34169   9.300   7.278  12.893  0.0992  0.2937  0.2091
  973MOL0     C34170   9.331   7.418  12.902 -0.3358 -0.9106 -0.5490
  973MOL0     C34171   9.425   7.484  12.812  0.6168 -0.0276  0.9756
  973MOL0     O34172   9.436   7.617  12.806 -0.5125  0.3338  0.3472
  973MOL0     C34173   9.465   7.684  12.930  0.1346  0.7757 -0.1428
  973MOL0     C34174   9.353   7.786  12.964  0.2048 -0.4595  0.8240
  973MOL0     C34175   9.362   7.868  13.097  0.4066 -0.4288  0.3687
  973MOL0     C34176   9.239   7.955  13.120  0.6157 -0.2086 -0.3431
  973MOL0     C34177   9.231   8.039  13.245  0.9714 -0.3931  0.2484
  973MOL0     C34178   9.216   7.956  13.373 -0.3324 -0.8552  0.2810
  973MOL0     C34179   9.166   8.047  13.489 -0.2757 -0.0824 -0.2079
  973MOL0     C34180   9.149   7.969  13.626  0.4831  0.3699  0.8152
  973MOL0    Cl34181   9.322   7.931  13.666 -0.1175 -0.0918 -0.2914
  973MOL0     C34182   9.495   7.403  12.728 -0.3649 -0.4008  0.2033
  973MOL0     C34183   9.473   7.266  12.726  0.5477  0.8590  0.6754
  973MOL0     O34184   9.374   7.004  13.008 -0.4998 -0.8546  0.6828
  973MOL0     C34185   9.309   6.806  12.725  0.2975  0.8362 -0.1817
  973MOL0     C34186   9.294   6.679  12.671 -0.2174  0.0735  0.1679
  973MOL0     N34187   9.244   6.404  12.217  0.0726  0.3005 -0.0743
  973MOL0     N34188   9.191   6.515  12.172  0.6806  0.0950 -0.0373
  973MOL0     C34189   9.368   6.089  11.256  0.2755  0.0456  0.2897
  973MOL0     C34190   9.427   6.139  11.129  0.5282  0.1195 -0.0908
  973MOL0     C34191   9.632   6.280  10.801  0.9286 -0.2408  0.3952
  973MOL0     C34192   9.661   6.416  10.804  0.6304  0.0251  0.9341
  973MOL0     C34193   9.781   6.462  10.739  1.3777  0.3815 -0.1140
  973MOL0     C34194   9.860   6.374  10.659 -0.0312  0.0152 -0.1257
  973MOL0     O34195   9.983   6.407  10.598 -0.9084 -0.0987  0.4490
  973MOL0     C34196  10.036   6.537  10.594 -0.7591 -0.1396  0.2530
  973MOL0     C34197  10.095   6.583  10.730 -0.0240  0.3845 -0.9332
  973MOL0     C34198  10.169   6.466  10.788  0.3636  1.2017 -0.0624
  973MOL0     C34199  10.262   6.514  10.898  0.2533 -0.5284 -0.2392
  973MOL0     C34200  10.388   6.551  10.838  0.7133 -0.2598 -0.1359
  973MOL0     C34201  10.486   6.591  10.779  0.2916  0.1573 -0.4393
  973MOL0     C34202   9.825   6.243  10.658 -0.2235  0.1646 -0.4831
  973MOL0     C34203   9.720   6.191  10.734 -0.4108 -1.0663 -1.3612
  973MOL0     C34204   9.700   6.048  10.753 -0.1000 -0.2744 -0.4879
  973MOL0     H34205   9.316   6.454  11.150 -0.0066  1.7510  3.0930
  973MOL0     H34206   9.248   6.377  11.383  0.2788 -1.5667  2.0932
  973MOL0     H34207   9.116   6.221  11.511 -1.2734  0.3692  0.0270
  973MOL0     H34208   9.272   6.266  11.586 -1.1119  0.4760 -0.4460
  973MOL0     H34209   9.097   6.047  11.657  0.3475 -0.7757  2.2910
  973MOL0     H34210   9.262   6.028  11.703  0.7430  0.8717 -1.6611
  973MOL0     H34211   9.130   6.087  11.888  1.7327 -1.1282 -0.6192
  973MOL0     H34212   9.245   6.218  11.862  0.6603 -1.0629 -0.7941
  973MOL0     H34213   9.060   6.331  11.714  3.6440 -2.8214 -1.3290
  973MOL0     H34214   8.953   6.207  11.786  0.2740  0.1112 -1.3254
  973MOL0     H34215   9.127   6.425  11.937 -0.0006  0.3416  0.2283
  973MOL0     H34216   9.036   6.301  12.006  0.4464  0.9886 -0.8477
  973MOL0     H34217   8.913   6.527  11.843 -0.5148  0.5085  1.4037
  973MOL0     H34218   8.829   6.375  11.873  1.3781 -0.3379 -3.7195
  973MOL0     H34219   8.819   6.412  12.111 -0.0629  1.6896  1.9428
  973MOL0     H34220   8.751   6.550  12.019 -0.3962 -1.3083 -1.5997
  973MOL0     H34221   8.988   6.668  12.068  0.1062 -1.1602 -2.9243
  973MOL0     H34222   8.876   6.628  12.207  1.1006 -1.6281  1.4219
  973MOL0     H34223   8.931   6.362  12.289  0.1910 -0.1289 -1.0442
  973MOL0     H34224   9.221   6.121  12.255  2.6426  1.0692  0.2610
  973MOL0     H34225   9.068   6.143  12.336  0.7372 -0.8115 -2.0473
  973MOL0     H34226   9.255   6.093  12.499  2.3797  1.3210  1.1552
  973MOL0     H34227   9.337   6.234  12.440  0.3413 -0.8120 -2.5955
  973MOL0     H34228   9.046   6.290  12.534  0.6977  1.8977 -0.1871
  973MOL0     H34229   9.143   6.237  12.662  0.7013 -0.4591 -0.3110
  973MOL0     H34230   9.239   6.456  12.488 -1.2643 -3.3954 -1.5523
  973MOL0     H34231   9.113   6.492  12.603  1.2544  0.9277  2.6694
  973MOL0     H34232   9.378   6.500  12.940  0.0191  0.9560 -0.5361
  973MOL0     H34233   9.371   6.791  13.136  1.2227  1.9109 -1.1815
  973MOL0     H34234   9.537   6.746  13.073  0.3252 -0.5502  0.1386
  973MOL0     H34235   9.432   6.624  13.124  0.5198  1.1634  0.6080
  973MOL0     H34236   9.218   7.239  12.952 -0.9034  2.6601  0.4943
  973MOL0     H34237   9.274   7.477  12.973  1.5724  0.7944 -0.3388
  973MOL0     H34238   9.468   7.616  13.015  2.9199  0.3578 -0.4502
  973MOL0     H34239   9.561   7.734  12.912 -1.1602  2.2760 -3.9340
  973MOL0     H34240   9.368   7.864  12.890 -2.5011 -0.3017  0.3475
  973MOL0     H34241   9.254   7.744  12.949  0.2539  0.2152 -1.8906
  973MOL0     H34242   9.455   7.925  13.091  1.3934 -2.0757 -0.8498
  973MOL0     H34243   9.379   7.800  13.181 -1.9992 -1.6199 -0.0262
  973MOL0     H34244   9.149   7.894  13.115 -1.5405  2.8138 -1.2640
  973MOL0     H34245   9.234   8.021  13.032 -0.2325 -0.3228 -0.3890
  973MOL0     H34246   9.327   8.092  13.249  0.2493  0.9526  0.2851
  973MOL0     H34247   9.163   8.121  13.221 -0.2126 -2.4339 -4.4553
  973MOL0     H34248   9.312   7.914  13.405 -1.4497 -3.5281  0.3924
  973MOL0     H34249   9.152   7.870  13.352 -1.9362  0.6500 -1.3106
  973MOL0     H34250   9.063   8.076  13.469 -0.8753 -2.5241 -1.0479
  973MOL0     H34251   9.231   8.134  13.500  2.2205 -1.7810 -0.6060
  973MOL0     H34252   9.090   7.879  13.610  0.0596  0.9875 -1.4143
  973MOL0     H34253   9.096   8.033  13.697 -3.4439  1.7369 -2.9084
  973MOL0     H34254   9.562   7.444  12.653  0.9984  1.9466  2.5383
  973MOL0     H34255   9.507   7.209  12.641 -2.1560 -1.2803  0.8906
  973MOL0     H34256   9.277   6.868  12.642 -0.0545 -0.5425 -1.1183
  973MOL0     H34257   9.277   6.667  12.565 -0.9818  0.9957  0.1685
  973MOL0     H34258   9.373   5.983  11.278  0.0432  0.4621  2.5259
  973MOL0     H34259   9.472   6.077  11.052  0.9936  1.2186 -0.7115
  973MOL0     H34260   9.598   6.492  10.851 -1.4191  0.5915 -2.3597
  973MOL0     H34261   9.795   6.568  10.754 -2.4158  1.0648 -0.3104
  973MOL0     H34262  10.117   6.553  10.523 -0.3570 -1.5567  0.3796
  973MOL0     H34263   9.956   6.611  10.583 -0.3927  0.1311 -0.6418
  973MOL0     H34264  10.015   6.614  10.799  1.3970  0.8576  0.5520
  973MOL0     H34265  10.162   6.664  10.699  2.4219 -1.0937  0.2104
  973MOL0     H34266  10.094   6.398  10.830 -0.3802  0.7692 -1.9762
  973MOL0     H34267  10.219   6.407  10.710 -2.1879 -0.4576 -0.5524
  973MOL0     H34268  10.284   6.440  10.976 -1.3607 -0.3172  0.4623
  973MOL0     H34269  10.223   6.605  10.945  3.1898  0.2381  0.9239
  973MOL0     H34270  10.580   6.623  10.738 -0.5333  3.1964 -0.1997
  973MOL0     H34271   9.899   6.176  10.616 -1.6467 -0.3983 -2.2147
  973MOL0     H34272   9.660   6.010  10.658 -0.3323 -1.1984 -0.0349
  973MOL0     H34273   9.794   5.993  10.768  2.0677  3.0129 -0.8154
  973MOL0     H34274   9.639   6.019  10.839  0.4762 -1.3954 -0.4347
  974MOL0     O34275   9.914   9.021   6.096  0.7031  0.5372 -1.0515
  974MOL0     C34276   9.810   8.994   6.156 -0.4183 -0.3758 -0.4842
  974MOL0     O34277   9.687   9.000   6.103  0.2841 -0.4998 -0.0698
  974MOL0     C34278   9.670   9.041   5.981 -0.0795 -1.1786  0.3622
  974MOL0     C34279   9.550   9.107   5.954 -0.1259  0.0118  0.9061
  974MOL0     C34280   9.509   9.148   5.830  0.5506  0.3128 -0.6518
  974MOL0     C34281   9.589   9.109   5.725  0.4076  0.4468  0.3841
  974MOL0     O34282   9.560   9.130   5.588  0.4544 -0.3111 -0.7947
  974MOL0     C34283   9.431   9.147   5.539  0.7324 -0.3376 -0.2060
  974MOL0     C34284   9.442   9.198   5.396  0.7700 -0.3560 -0.4412
  974MOL0     C34285   9.545   9.126   5.314 -0.1207 -0.0814 -0.8717
  974MOL0     C34286   9.528   9.172   5.176  0.6270  0.5479 -0.1427
  974MOL0     C34287   9.626   9.095   5.080  0.8653  0.4095 -0.5165
  974MOL0     C34288   9.633   9.157   4.942  0.5132  0.2918 -0.8668
  974MOL0     C34289   9.735   9.090   4.852  0.6528  0.1535 -0.3519
  974MOL0     C34290   9.719   8.941   4.853  0.1716  0.7670  0.5939
  974MOL0     N34291   9.774   8.884   4.725 -0.7038 -0.5457 -0.1964
  974MOL0     C34292   9.719   8.903   4.607  0.5303 -0.3374  0.0483
  974MOL0     C34293   9.801   8.837   4.519  0.1038 -0.4592  0.6786
  974MOL0     C34294   9.785   8.815   4.370 -0.8971 -0.9768  0.4838
  974MOL0     C34295   9.904   8.861   4.290 -0.1591  1.3086  0.1256
  974MOL0     C34296   9.910   8.806   4.146  1.0076 -1.2580  0.5538
  974MOL0     C34297   9.815   8.867   4.041 -0.2987 -0.7086 -0.1333
  974MOL0     O34298   9.689   8.834   4.088 -0.0671  0.0597 -0.4325
  974MOL0     C34299   9.601   8.806   3.987 -0.2684 -0.2178  0.3996
  974MOL0     C34300   9.496   8.895   3.959  0.1429 -0.5886 -0.4460
  974MOL0     C34301   9.393   8.858   3.878 -0.0018 -0.4962  0.5870
  974MOL0     C34302   9.259   8.945   3.876 -0.6723  1.0180 -0.6763
  974MOL0     C34303   9.394   8.735   3.802 -0.7018  0.4688 -0.5294
  974MOL0     C34304   9.281   8.692   3.722 -0.1317 -0.7746 -0.1570
  974MOL0     O34305   9.248   8.560   3.741  0.2499 -0.1036 -0.4050
  974MOL0     C34306   9.124   8.517   3.698  0.1339  0.1620 -0.1285
  974MOL0     C34307   9.011   8.598   3.670 -0.9927  0.0376  0.4822
  974MOL0     C34308   8.888   8.546   3.644  0.7524 -0.7280  0.5872
  974MOL0     C34309   8.889   8.410   3.615 -0.3134  0.7377  0.4942
  974MOL0     O34310   8.783   8.349   3.554 -0.0940  0.1856 -0.2331
  974MOL0     C34311   8.818   8.300   3.424 -0.5704 -0.3715  0.4880
  974MOL0     C34312   8.701   8.292   3.332  0.5489  0.4463 -0.4980
  974MOL0     C34313   8.645   8.432   3.291  0.3578 -0.5912  0.3432
  974MOL0     C34314   8.513   8.427   3.212 -0.3017 -0.7632  0.1336
  974MOL0     C34315   8.477   8.576   3.180  0.1539  0.6422 -0.3114
  974MOL0     C34316   8.371   8.578   3.064  0.5897 -0.5420 -0.5480
  974MOL0     C34317   8.350   8.726   3.009  0.6410  0.4073 -0.2443
  974MOL0     C34318   8.463   8.763   2.912 -0.6404  0.0778 -0.0720
  974MOL0    Cl34319   8.434   8.936   2.884  0.1662  0.6511 -0.4077
  974MOL0     C34320   8.995   8.315   3.642  0.1127 -0.0910  0.6134
  974MOL0     C34321   9.108   8.376   3.690 -0.3203  0.3002  0.0172
  974MOL0     O34322   9.235   8.763   3.638 -0.0397 -0.3671 -0.0716
  974MOL0     C34323   9.508   8.644   3.819  0.1449  0.0472 -0.6034
  974MOL0     C34324   9.604   8.687   3.922 -0.3225  0.2021 -0.4902
  974MOL0     N34325   9.898   8.769   4.598  0.3452 -0.0065  0.5728
  974MOL0     N34326   9.882   8.796   4.722  0.1664 -0.5593 -0.3906
  974MOL0     C34327   9.708   9.039   5.747 -0.4523 -0.0722 -0.4556
  974MOL0     C34328   9.754   9.021   5.878  0.6637  0.5487  0.2082
  974MOL0     C34329   9.825   8.942   6.289  0.6225  0.3414 -0.3066
  974MOL0     C34330   9.946   8.953   6.361  0.9822 -0.1158  1.0069
  974MOL0     C34331   9.954   8.937   6.494  0.6900 -0.3387  0.0955
  974MOL0     C34332   9.845   8.900   6.576  0.2249 -0.2025  0.3032
  974MOL0     O34333   9.853   8.868   6.712 -0.1948 -0.1473  0.4154
  974MOL0     C34334   9.805   8.965   6.798 -0.1360 -0.0839  0.1743
  974MOL0     C34335   9.667   8.947   6.849  0.1719  0.1490  0.1452
  974MOL0     C34336   9.637   9.067   6.941  0.0339  0.5833  0.2325
  974MOL0     C34337   9.505   9.046   7.024 -0.1382  0.4259  0.3687
  974MOL0     C34338   9.455   9.160   7.088  0.0609  0.1752  1.0537
  974MOL0     C34339   9.415   9.267   7.129  0.0487 -0.1655 -0.4437
  974MOL0     C34340   9.730   8.877   6.502  0.2687 -0.2247 -0.7682
  974MOL0     C34341   9.706   8.898   6.363 -0.4881 -1.1253 -0.5921
  974MOL0     C34342   9.571   8.868   6.305  0.7715  0.7744 -0.0667
  974MOL0     H34343   9.482   9.124   6.037  1.6236 -0.1654  2.4325
  974MOL0     H34344   9.409   9.188   5.836 -0.8416 -3.0014  1.9456
  974MOL0     H34345   9.375   9.213   5.606  2.9659 -0.5785  2.0269
  974MOL0     H34346   9.387   9.047   5.541 -1.7323  0.6296  2.9684
  974MOL0     H34347   9.345   9.183   5.347  1.4392  0.3152 -2.0497
  974MOL0     H34348   9.462   9.306   5.401  0.9690 -0.4029 -0.2184
  974MOL0     H34349   9.648   9.153   5.339 -0.0834  0.9542 -2.0811
  974MOL0     H34350   9.528   9.019   5.329  0.1730 -0.2842 -1.9291
  974MOL0     H34351   9.427   9.160   5.136  1.0954  0.3290 -1.2915
  974MOL0     H34352   9.556   9.277   5.169  0.4544  0.4806 -2.3258
  974MOL0     H34353   9.588   8.993   5.075 -4.1932  2.0068  0.0476
  974MOL0     H34354   9.718   9.081   5.138 -1.1597 -1.4248  2.5141
  974MOL0     H34355   9.536   9.160   4.893  0.3307 -0.2678 -0.5466
  974MOL0     H34356   9.646   9.266   4.946  1.8339  0.1232  1.1564
  974MOL0     H34357   9.836   9.111   4.890 -0.0961 -0.3241  2.0947
  974MOL0     H34358   9.738   9.137   4.753 -1.1357  0.0667 -0.4774
  974MOL0     H34359   9.780   8.911   4.939 -0.9699 -3.3333  0.1557
  974MOL0     H34360   9.615   8.916   4.875  1.3218 -1.5765  4.3513
  974MOL0     H34361   9.619   8.940   4.582 -0.0413 -2.6067 -1.2629
  974MOL0     H34362   9.688   8.855   4.339 -0.7178  1.2065  2.4867
  974MOL0     H34363   9.786   8.707   4.354 -1.0080 -0.8237 -0.5903
  974MOL0     H34364   9.904   8.970   4.281 -1.8811  1.1540 -2.8466
  974MOL0     H34365   9.995   8.824   4.339 -1.0727 -0.6613  0.4315
  974MOL0     H34366  10.013   8.834   4.122  1.1866 -0.8476  1.7247
  974MOL0     H34367   9.894   8.700   4.125 -0.9643 -0.4767 -2.6021
  974MOL0     H34368   9.817   8.973   4.017 -1.7462 -0.4660  0.7388
  974MOL0     H34369   9.838   8.818   3.945 -0.4722 -2.2826  0.5889
  974MOL0     H34370   9.483   8.989   4.013 -1.9041 -0.2305 -1.4707
  974MOL0     H34371   9.228   8.979   3.777  0.7954 -0.8760 -1.8524
  974MOL0     H34372   9.270   9.034   3.940  0.8736 -0.3885  1.1489
  974MOL0     H34373   9.179   8.879   3.912  1.0160 -0.4483  0.5639
  974MOL0     H34374   9.013   8.706   3.685  0.9862  0.0925  0.0852
  974MOL0     H34375   8.801   8.605   3.620  2.9166  1.2463 -3.4198
  974MOL0     H34376   8.896   8.358   3.374 -2.0980 -0.8202 -2.6016
  974MOL0     H34377   8.855   8.198   3.439  2.4957  0.9078  2.9731
  974MOL0     H34378   8.710   8.226   3.245  0.8543 -2.4294  1.5413
  974MOL0     H34379   8.633   8.231   3.393  2.1471 -3.3157 -2.1378
  974MOL0     H34380   8.707   8.477   3.213  1.1404  2.3870  2.5174
  974MOL0     H34381   8.635   8.498   3.377 -0.9415  1.4346 -1.2557
  974MOL0     H34382   8.437   8.361   3.256 -0.4695 -1.8387 -1.6569
  974MOL0     H34383   8.532   8.372   3.120 -3.4358 -4.0189  1.1603
  974MOL0     H34384   8.431   8.629   3.265 -1.6672  1.1245 -1.5414
  974MOL0     H34385   8.571   8.622   3.149  0.1938 -0.2908 -1.6156
  974MOL0     H34386   8.277   8.535   3.102  0.8698 -0.4723  0.2506
  974MOL0     H34387   8.403   8.511   2.985 -0.4085 -1.8940  0.1532
  974MOL0     H34388   8.345   8.791   3.097 -2.5035 -1.4343  1.1121
  974MOL0     H34389   8.258   8.721   2.950  1.0471 -2.1867 -0.7824
  974MOL0     H34390   8.453   8.699   2.823  2.8883 -4.1255  2.1575
  974MOL0     H34391   8.562   8.741   2.951  0.4871  3.3072 -0.7956
  974MOL0     H34392   8.975   8.210   3.627  0.3745  0.2193 -2.9390
  974MOL0     H34393   9.188   8.317   3.735 -0.7660  1.6016  2.6893
  974MOL0     H34394   9.513   8.556   3.756  0.1251 -0.9025  0.6878
  974MOL0     H34395   9.685   8.623   3.955  1.1280  2.4289  0.5653
  974MOL0     H34396   9.758   8.998   5.660  0.0838  0.1554 -0.2579
  974MOL0     H34397   9.845   8.964   5.892  0.0345 -0.2399  1.2961
  974MOL0     H34398  10.040   8.998   6.329  0.6979  0.0256  0.3353
  974MOL0     H34399  10.042   8.971   6.547 -0.2793 -1.2845  2.4428
  974MOL0     H34400   9.866   8.962   6.889 -2.3962  0.3554  1.7900
  974MOL0     H34401   9.811   9.063   6.748 -0.5415  1.7177  3.4071
  974MOL0     H34402   9.663   8.848   6.896  1.9322 -1.3767 -2.6745
  974MOL0     H34403   9.583   8.952   6.778 -1.1348  1.7185  1.6995
  974MOL0     H34404   9.726   9.086   7.001  0.3930 -1.2947  0.3444
  974MOL0     H34405   9.621   9.155   6.878  2.9876 -0.2272 -1.8453
  974MOL0     H34406   9.533   8.979   7.106 -0.8282  1.5734  1.5693
  974MOL0     H34407   9.442   8.995   6.950 -0.8442 -1.9831  2.4904
  974MOL0     H34408   9.380   9.364   7.155 -1.0289 -0.1223 -1.9415
  974MOL0     H34409   9.639   8.842   6.550 -0.3235  0.5086 -1.3295
  974MOL0     H34410   9.532   8.967   6.283  0.6383  0.6871 -0.2233
  974MOL0     H34411   9.585   8.815   6.211 -2.6510 -0.0622 -0.2396
  974MOL0     H34412   9.503   8.820   6.377  2.0487  0.7282  1.1650
  975MOL0     O34413   5.235   3.591   4.752  0.5232 -0.0182 -0.5070
  975MOL0     C34414   5.227   3.570   4.875 -0.1901 -0.2572  0.2902
  975MOL0     O34415   5.206   3.446   4.933 -0.0752 -0.5738 -0.3384
  975MOL0     C34416   5.147   3.358   4.848 -0.4484  0.6489  0.0096
  975MOL0     C34417   5.209   3.251   4.790  0.2636  0.1798  0.8993
  975MOL0     C34418   5.143   3.149   4.706 -0.3526  0.3493 -0.4683
  975MOL0     C34419   5.010   3.173   4.665 -0.3429 -0.4051 -0.4657
  975MOL0     O34420   4.960   3.093   4.576 -0.8471 -0.1163  0.6924
  975MOL0     C34421   4.823   3.047   4.585  0.1668 -0.3425  0.3203
  975MOL0     C34422   4.800   2.937   4.484 -0.4678  0.0906 -0.4362
  975MOL0     C34423   4.891   2.811   4.498  0.6760 -1.0428  0.7918
  975MOL0     C34424   4.938   2.792   4.638 -0.0623  0.9084  1.2137
  975MOL0     C34425   4.985   2.646   4.644  0.7814  1.3006  0.2298
  975MOL0     C34426   5.020   2.601   4.787  0.1349 -0.3473  0.0330
  975MOL0     C34427   5.028   2.449   4.797 -0.5403 -0.2569  1.2072
  975MOL0     C34428   5.078   2.415   4.937  0.0812  0.6585  0.2012
  975MOL0     N34429   5.110   2.271   4.937  0.3381  0.6659  0.3332
  975MOL0     C34430   5.031   2.167   4.881 -0.3676  0.4821  0.5203
  975MOL0     C34431   5.106   2.061   4.898 -1.2523 -0.8014 -1.2199
  975MOL0     C34432   5.053   1.923   4.847  0.1830  0.4323 -1.0017
  975MOL0     C34433   5.021   1.923   4.700  0.0203  0.2798  1.2334
  975MOL0     C34434   5.138   1.971   4.613  1.1394 -0.1571 -0.0807
  975MOL0     C34435   5.116   1.969   4.469  0.8196 -0.8209 -0.3563
  975MOL0     O34436   4.989   2.021   4.428 -0.2995 -0.6359  0.3365
  975MOL0     C34437   4.965   2.151   4.376  0.0237 -0.9737  0.0227
  975MOL0     C34438   4.867   2.166   4.288  0.9538 -0.4448  0.9985
  975MOL0     C34439   4.834   2.283   4.223 -0.3019 -0.7533 -0.7167
  975MOL0     C34440   4.737   2.289   4.104  0.1448 -0.8683 -0.0886
  975MOL0     C34441   4.916   2.395   4.262  0.5961  0.2371 -0.6240
  975MOL0     C34442   4.883   2.526   4.214 -0.0958 -1.1664 -0.4985
  975MOL0     O34443   4.754   2.559   4.199  0.6839  0.3104 -0.1748
  975MOL0     C34444   4.693   2.671   4.150  0.4266 -0.3884 -0.7540
  975MOL0     C34445   4.755   2.802   4.148 -0.3271 -0.2312  0.6215
  975MOL0     C34446   4.687   2.909   4.092  0.1233 -1.0962  0.1829
  975MOL0     C34447   4.558   2.887   4.039  0.1274 -0.0049  0.3429
  975MOL0     O34448   4.484   2.983   3.969  0.6478  0.1914 -0.2909
  975MOL0     C34449   4.487   3.112   4.035  0.0704  0.2727 -0.4797
  975MOL0     C34450   4.389   3.216   3.980 -0.4741  0.4171  1.5935
  975MOL0     C34451   4.239   3.175   3.955  0.0196  0.4734 -0.2722
  975MOL0     C34452   4.187   3.106   4.085 -0.2243  0.2595  0.4675
  975MOL0     C34453   4.042   3.036   4.068 -1.2296 -0.6803  0.6596
  975MOL0     C34454   4.058   2.902   3.994  1.0185  0.1967 -0.5646
  975MOL0     C34455   3.929   2.827   3.959  0.4368  0.9498  0.0838
  975MOL0     C34456   3.863   2.903   3.838  1.0561 -0.5028  0.2372
  975MOL0    Cl34457   3.703   2.816   3.797  0.1754  0.0226 -0.5191
  975MOL0     C34458   4.504   2.757   4.039  0.1487  1.2839  0.1524
  975MOL0     C34459   4.574   2.651   4.089 -0.2472 -0.0853  0.2843
  975MOL0     O34460   4.979   2.602   4.191 -0.0194  0.0330  0.7673
  975MOL0     C34461   5.020   2.382   4.353  0.2063  0.3274  1.1594
  975MOL0     C34462   5.049   2.257   4.406 -0.2192 -0.4746 -0.1011
  975MOL0     N34463   5.224   2.097   4.964  0.1516 -1.2390 -0.0928
  975MOL0     N34464   5.221   2.224   4.987 -0.4760  0.3856  1.0408
  975MOL0     C34465   4.947   3.286   4.725 -0.0853 -0.4020  0.7965
  975MOL0     C34466   5.012   3.378   4.811  0.3826  0.8468  0.4887
  975MOL0     C34467   5.273   3.690   4.962  0.3967 -0.6929  0.5693
  975MOL0     C34468   5.340   3.805   4.908  0.4869 -0.5984 -0.2551
  975MOL0     C34469   5.386   3.905   4.992  1.2758 -0.4462  0.3493
  975MOL0     C34470   5.388   3.886   5.133  0.3374 -0.8391  0.4102
  975MOL0     O34471   5.457   3.986   5.203 -0.0656 -0.0516  0.2948
  975MOL0     C34472   5.451   4.000   5.349 -0.4209 -0.6958 -0.3907
  975MOL0     C34473   5.563   3.911   5.403  0.8903 -0.1077 -0.3276
  975MOL0     C34474   5.599   3.919   5.554 -0.3602  0.1922 -0.9741
  975MOL0     C34475   5.517   3.832   5.652 -0.1680  0.8201  0.6795
  975MOL0     C34476   5.369   3.856   5.666 -0.0227  0.4841  0.0066
  975MOL0     C34477   5.246   3.868   5.672  0.7348 -0.8815 -0.2003
  975MOL0     C34478   5.315   3.776   5.189 -1.6028 -0.6047 -0.6695
  975MOL0     C34479   5.258   3.681   5.110 -1.0331 -0.5464 -0.4702
  975MOL0     C34480   5.168   3.582   5.182  0.8470 -0.1845 -1.1301
  975MOL0     H34481   5.312   3.234   4.821 -0.7233 -1.2223  3.7567
  975MOL0     H34482   5.202   3.064   4.672  0.3843  0.6587  0.0007
  975MOL0     H34483   4.755   3.132   4.575  2.7517  2.0631  1.8354
  975MOL0     H34484   4.802   3.015   4.687 -2.5693  3.0534  1.0166
  975MOL0     H34485   4.695   2.906   4.484  0.0202 -1.7394 -0.2684
  975MOL0     H34486   4.834   2.981   4.390  1.7538  0.9849  0.7230
  975MOL0     H34487   4.836   2.721   4.467  2.4827 -1.9570  0.0969
  975MOL0     H34488   4.970   2.823   4.425 -1.5012  2.0201 -1.3055
  975MOL0     H34489   5.025   2.850   4.670  0.1941 -0.4591  3.2520
  975MOL0     H34490   4.866   2.797   4.721 -1.7599  4.0440 -0.3040
  975MOL0     H34491   5.070   2.630   4.577  1.3058  2.4892  0.5858
  975MOL0     H34492   4.909   2.576   4.607  2.0433 -0.3241  0.6162
  975MOL0     H34493   5.116   2.651   4.800  0.3881 -1.4377  3.1515
  975MOL0     H34494   4.946   2.633   4.862  1.7714  1.0982  1.1156
  975MOL0     H34495   5.092   2.418   4.714 -1.1871  1.8643 -0.1835
  975MOL0     H34496   4.931   2.406   4.768  1.8719 -4.0205 -2.2692
  975MOL0     H34497   5.175   2.456   4.965  0.1962 -0.1380  1.0166
  975MOL0     H34498   4.990   2.431   5.000 -1.0554  0.3821 -1.2692
  975MOL0     H34499   4.934   2.173   4.834 -0.8353 -0.7375  1.2837
  975MOL0     H34500   4.964   1.907   4.909  2.1929 -0.3046  1.8806
  975MOL0     H34501   5.127   1.847   4.874 -3.3750 -2.9605  0.2906
  975MOL0     H34502   4.997   1.820   4.672  0.3845  0.5513 -0.1348
  975MOL0     H34503   4.933   1.985   4.686 -0.8900 -1.6199 -3.2194
  975MOL0     H34504   5.146   2.079   4.630 -2.3943  0.1085  0.5197
  975MOL0     H34505   5.233   1.917   4.620 -1.1884 -5.1515 -2.2033
  975MOL0     H34506   5.195   2.026   4.419  1.0576 -1.1324 -0.3354
  975MOL0     H34507   5.123   1.867   4.432  0.4961 -0.4934 -1.3575
  975MOL0     H34508   4.815   2.076   4.260  1.7269 -0.4734 -0.4337
  975MOL0     H34509   4.771   2.369   4.037 -0.8685  0.4089  0.8806
  975MOL0     H34510   4.635   2.316   4.132 -0.3192 -0.4005 -2.0703
  975MOL0     H34511   4.734   2.186   4.067 -1.4055  0.4143 -4.1882
  975MOL0     H34512   4.848   2.830   4.195  1.0035  1.7186 -2.7918
  975MOL0     H34513   4.737   3.003   4.070  1.9234 -1.3843  2.6798
  975MOL0     H34514   4.467   3.108   4.142  0.8832 -3.5988 -0.3281
  975MOL0     H34515   4.591   3.147   4.035  1.5175 -3.4831  0.5643
  975MOL0     H34516   4.401   3.308   4.037 -2.2111  1.9310 -0.3291
  975MOL0     H34517   4.435   3.242   3.884 -0.3669 -3.0303  0.5560
  975MOL0     H34518   4.233   3.098   3.878 -2.1303 -1.3529  1.5653
  975MOL0     H34519   4.180   3.265   3.932  3.6853  2.5218 -2.7837
  975MOL0     H34520   4.195   3.167   4.176 -0.0674 -0.6195  1.0519
  975MOL0     H34521   4.263   3.029   4.100  0.3410  0.1915 -2.2605
  975MOL0     H34522   3.994   3.027   4.166  2.2249 -0.2033  2.5237
  975MOL0     H34523   3.980   3.106   4.011 -1.3657 -1.4935 -0.2293
  975MOL0     H34524   4.126   2.849   4.062  0.6323 -3.6417 -2.9196
  975MOL0     H34525   4.119   2.917   3.905  0.7604 -1.9778 -1.1402
  975MOL0     H34526   3.864   2.825   4.048  0.3194 -0.9259 -0.0120
  975MOL0     H34527   3.946   2.723   3.930  1.1945  0.3687  2.3731
  975MOL0     H34528   3.921   2.893   3.746 -0.2641 -2.8746 -0.4126
  975MOL0     H34529   3.843   3.009   3.855 -3.8339 -1.6500  3.9901
  975MOL0     H34530   4.409   2.725   3.998  1.2409 -0.6544 -1.0275
  975MOL0     H34531   4.526   2.554   4.090  1.8459 -1.2627 -1.9185
  975MOL0     H34532   5.071   2.470   4.391  3.9172 -0.3954 -1.4969
  975MOL0     H34533   5.130   2.257   4.479 -0.3542  1.1468  0.0739
  975MOL0     H34534   4.851   3.319   4.686 -0.4905 -2.6698 -0.2691
  975MOL0     H34535   4.952   3.459   4.850 -0.4104  0.1789  0.6958
  975MOL0     H34536   5.361   3.816   4.803 -1.5731  1.4118 -0.5381
  975MOL0     H34537   5.446   3.979   4.942 -0.6272  1.2088  0.3724
  975MOL0     H34538   5.467   4.107   5.365  0.6134 -0.7730 -0.8468
  975MOL0     H34539   5.354   3.973   5.393 -0.7862  0.1062 -0.6908
  975MOL0     H34540   5.651   3.925   5.339 -0.1804 -3.8403 -3.0126
  975MOL0     H34541   5.541   3.805   5.386  1.7184 -0.1759 -1.0220
  975MOL0     H34542   5.698   3.876   5.570 -1.4123 -1.9430  0.2921
  975MOL0     H34543   5.604   4.022   5.590  0.5449 -0.4022  0.6809
  975MOL0     H34544   5.552   3.846   5.754 -1.9762 -0.5144  1.5336
  975MOL0     H34545   5.541   3.727   5.633 -0.7548  0.9743 -1.1902
  975MOL0     H34546   5.139   3.865   5.661  0.8769 -1.0930 -1.9229
  975MOL0     H34547   5.317   3.761   5.296 -4.4901  0.4248 -0.3766
  975MOL0     H34548   5.137   3.631   5.275  0.8815 -0.6517 -0.8724
  975MOL0     H34549   5.078   3.568   5.122  1.4805  3.1220 -3.1323
  975MOL0     H34550   5.228   3.493   5.203  0.7528 -0.1174 -0.5649
  976MOL0     O34551   1.965   1.322  10.532 -0.4619  0.1353  0.6165
  976MOL0     C34552   2.067   1.287  10.467  0.2678  0.2616  0.0549
  976MOL0     O34553   2.097   1.337  10.342  0.6003  0.1788 -0.0294
  976MOL0     C34554   2.018   1.418  10.276  0.6948  0.0715 -0.5202
  976MOL0     C34555   1.884   1.383  10.229 -0.3133  0.4882  1.4034
  976MOL0     C34556   1.826   1.464  10.134  0.3920  0.8232 -1.2539
  976MOL0     C34557   1.884   1.572  10.073 -0.3384  0.4492  1.3677
  976MOL0     O34558   1.822   1.655   9.986  0.1051 -0.1017 -0.3623
  976MOL0     C34559   1.851   1.801   9.988 -0.3127 -0.2494 -0.8536
  976MOL0     C34560   1.718   1.873   9.987  0.7197 -0.2221 -0.2640
  976MOL0     C34561   1.728   2.026   9.980  0.6290 -0.1354 -0.3119
  976MOL0     C34562   1.781   2.081   9.845 -0.6898 -0.0826 -0.2095
  976MOL0     C34563   1.781   2.229   9.838  1.2451  0.8804  0.1180
  976MOL0     C34564   1.801   2.276   9.691 -0.0198 -0.3975 -0.4674
  976MOL0     C34565   1.829   2.427   9.689  0.3746  0.4580 -0.2506
  976MOL0     C34566   1.923   2.472   9.570  0.4681 -0.4826 -0.1068
  976MOL0     N34567   1.854   2.533   9.454  1.1381  0.5026  0.1464
  976MOL0     C34568   1.771   2.638   9.442  1.2754  0.7840  0.4586
  976MOL0     C34569   1.750   2.646   9.306  0.5738 -0.5764  0.5178
  976MOL0     C34570   1.651   2.752   9.257 -0.2076  0.2860 -0.0778
  976MOL0     C34571   1.538   2.791   9.343  0.0814  0.4247 -0.2547
  976MOL0     C34572   1.570   2.909   9.447 -0.1560  0.9298  0.2630
  976MOL0     C34573   1.474   2.924   9.557 -0.5005 -0.2486 -0.0458
  976MOL0     O34574   1.343   2.884   9.517  0.4362 -0.7710 -0.6959
  976MOL0     C34575   1.242   2.895   9.613  0.2148  0.0647  0.4883
  976MOL0     C34576   1.253   2.939   9.747  0.5051 -0.3736  0.0620
  976MOL0     C34577   1.149   2.927   9.845  0.8880  0.7489 -0.3440
  976MOL0     C34578   1.169   2.966   9.984 -0.0741  0.4563 -0.8516
  976MOL0     C34579   1.028   2.868   9.800  0.2264  0.6336 -0.3022
  976MOL0     C34580   0.912   2.832   9.884 -0.9236  0.0748 -0.1103
  976MOL0     O34581   0.937   2.783  10.017 -0.3887 -0.5420  0.2835
  976MOL0     C34582   0.838   2.719  10.086  0.0695  0.6580  0.4728
  976MOL0     C34583   0.834   2.736  10.227 -1.1810 -0.0815  0.2131
  976MOL0     C34584   0.754   2.673  10.320 -0.2714  0.4720  0.1198
  976MOL0     C34585   0.649   2.598  10.265 -0.3828  0.1026 -0.5956
  976MOL0     O34586   0.551   2.551  10.346  0.2603  0.9722 -0.4216
  976MOL0     C34587   0.595   2.491  10.464  0.5643 -0.0307  0.0981
  976MOL0     C34588   0.471   2.499  10.562 -0.0700 -0.7238  0.4445
  976MOL0     C34589   0.487   2.409  10.685 -0.2512  0.7273  0.3383
  976MOL0     C34590   0.340   2.380  10.738  0.4429  0.6733 -0.0411
  976MOL0     C34591   0.367   2.289  10.868 -0.1967  0.5045  0.2027
  976MOL0     C34592   0.262   2.176  10.906 -0.1574  0.1298  0.1813
  976MOL0     C34593   0.281   2.117  11.049 -0.0970  0.7740  0.3144
  976MOL0     C34594   0.148   2.044  11.091 -0.7310  0.0366  0.1884
  976MOL0    Cl34595   0.174   1.991  11.266 -0.3683  0.6182  0.0230
  976MOL0     C34596   0.644   2.568  10.125 -0.1695 -0.4983  0.5346
  976MOL0     C34597   0.746   2.618  10.037 -0.8185 -0.2022  0.9058
  976MOL0     O34598   0.801   2.829   9.827 -0.6251 -0.1487  0.7128
  976MOL0     C34599   1.008   2.848   9.659 -1.1255 -0.0139 -0.0314
  976MOL0     C34600   1.117   2.857   9.558 -0.1225 -0.8180  0.5830
  976MOL0     N34601   1.811   2.543   9.240 -0.2536  0.1779 -0.9404
  976MOL0     N34602   1.889   2.487   9.330  0.6867  0.4433 -0.2509
  976MOL0     C34603   2.016   1.592  10.108 -0.3153  0.0186 -0.6577
  976MOL0     C34604   2.084   1.524  10.211 -0.0527 -0.1390 -0.3350
  976MOL0     C34605   2.155   1.199  10.532  0.0956  1.1719  0.0005
  976MOL0     C34606   2.114   1.073  10.565  0.5874 -0.1719  0.4794
  976MOL0     C34607   2.206   0.984  10.612 -0.2372  0.6386 -0.1676
  976MOL0     C34608   2.341   1.007  10.624  0.1644 -0.2131  0.1704
  976MOL0     O34609   2.432   0.922  10.675 -0.2075 -0.3494  0.4889
  976MOL0     C34610   2.384   0.826  10.768  0.0677 -0.6252 -0.0446
  976MOL0     C34611   2.387   0.694  10.706 -0.2686  0.3492 -0.0553
  976MOL0     C34612   2.393   0.568  10.796 -0.4740  0.9728  0.0948
  976MOL0     C34613   2.246   0.534  10.828 -0.8501 -0.1131 -0.9544
  976MOL0     C34614   2.239   0.467  10.954  0.3018  0.9874 -0.3185
  976MOL0     C34615   2.254   0.393  11.052 -0.3917  0.4481 -0.4530
  976MOL0     C34616   2.385   1.141  10.582 -0.8419 -0.2703 -1.1378
  976MOL0     C34617   2.297   1.241  10.546  0.2371  0.3193 -1.3938
  976MOL0     C34618   2.354   1.373  10.518 -0.1638 -0.0577 -0.7023
  976MOL0     H34619   1.838   1.286  10.247 -0.3932 -0.6088 -3.3809
  976MOL0     H34620   1.723   1.438  10.113 -0.4002  2.0381  0.7830
  976MOL0     H34621   1.887   1.824   9.887  2.3374  0.9924  0.2658
  976MOL0     H34622   1.914   1.833  10.071  0.1443  0.1364 -1.3403
  976MOL0     H34623   1.651   1.842   9.907 -1.0251  1.0234  0.6418
  976MOL0     H34624   1.656   1.838  10.071  0.5868  0.2981 -0.1447
  976MOL0     H34625   1.631   2.077   9.988  1.6356  1.8522 -0.0591
  976MOL0     H34626   1.782   2.073  10.064  0.7331  0.5148 -0.7327
  976MOL0     H34627   1.888   2.060   9.834 -0.4895  2.1382 -3.6153
  976MOL0     H34628   1.742   2.033   9.755  0.6185 -1.7923  0.0866
  976MOL0     H34629   1.847   2.272   9.914  0.8773 -1.0626  1.6068
  976MOL0     H34630   1.680   2.265   9.862  1.0647  0.0360  0.6671
  976MOL0     H34631   1.890   2.227   9.650  1.8674  2.3892 -0.0195
  976MOL0     H34632   1.713   2.252   9.632 -1.5418  2.5254  0.4072
  976MOL0     H34633   1.893   2.444   9.776 -0.0855  2.2309 -0.2208
  976MOL0     H34634   1.730   2.473   9.699 -0.9020 -2.2604  0.6518
  976MOL0     H34635   1.978   2.560   9.604  2.3884 -0.6676 -2.4907
  976MOL0     H34636   2.000   2.409   9.525  1.3632  1.9206 -2.2042
  976MOL0     H34637   1.737   2.703   9.522 -0.1461  2.4911 -1.4313
  976MOL0     H34638   1.608   2.717   9.162 -1.4266  4.7838 -1.4331
  976MOL0     H34639   1.717   2.837   9.237 -2.4487  1.6461 -2.4352
  976MOL0     H34640   1.470   2.819   9.262 -0.3203 -1.9507 -0.8120
  976MOL0     H34641   1.496   2.713   9.407  0.9385 -0.3798 -0.6562
  976MOL0     H34642   1.674   2.907   9.480 -0.9771 -3.9605  3.5671
  976MOL0     H34643   1.555   2.997   9.383 -3.2563  0.1511 -0.2409
  976MOL0     H34644   1.504   2.861   9.641 -2.4202 -2.5696 -0.9657
  976MOL0     H34645   1.474   3.027   9.593  0.3958  0.9856 -3.2615
  976MOL0     H34646   1.349   2.974   9.782 -1.1162  1.8940  2.6538
  976MOL0     H34647   1.204   2.878  10.039 -2.2570 -1.3968 -2.2125
  976MOL0     H34648   1.081   3.003  10.037 -0.7343  1.6514 -2.6869
  976MOL0     H34649   1.256   3.032   9.982 -0.4512  0.9817 -0.2313
  976MOL0     H34650   0.915   2.786  10.279  0.1505 -1.9316  0.0433
  976MOL0     H34651   0.760   2.709  10.423  2.0296  2.8905 -0.7607
  976MOL0     H34652   0.606   2.384  10.441 -3.0724 -0.9947  1.9612
  976MOL0     H34653   0.676   2.536  10.522  0.0777 -0.8491  1.4925
  976MOL0     H34654   0.472   2.601  10.601  2.5708 -0.8198  0.8098
  976MOL0     H34655   0.376   2.485  10.510  0.7541 -0.3412 -1.2501
  976MOL0     H34656   0.543   2.448  10.770 -1.7841  0.6222  1.4432
  976MOL0     H34657   0.526   2.314  10.646  2.7927  0.7404  2.9790
  976MOL0     H34658   0.280   2.328  10.664  2.9960 -0.6860 -1.2885
  976MOL0     H34659   0.289   2.475  10.756 -1.9504 -0.0529 -2.3770
  976MOL0     H34660   0.472   2.258  10.869 -0.1359  0.5967 -1.1564
  976MOL0     H34661   0.360   2.362  10.948 -1.3316 -1.2825  1.8248
  976MOL0     H34662   0.251   2.105  10.824 -0.6406  1.3745 -0.8804
  976MOL0     H34663   0.167   2.230  10.906 -1.4110 -1.9519 -0.9175
  976MOL0     H34664   0.296   2.192  11.126  0.3040  2.1470 -1.0621
  976MOL0     H34665   0.354   2.035  11.052  0.0568  0.9425  1.8398
  976MOL0     H34666   0.132   1.963  11.020 -1.2295 -0.7147  1.1331
  976MOL0     H34667   0.054   2.098  11.086 -0.8460 -0.2694 -2.0634
  976MOL0     H34668   0.567   2.499  10.091  1.7976 -1.7786 -1.6185
  976MOL0     H34669   0.759   2.610   9.930 -1.9692 -0.0774  0.7517
  976MOL0     H34670   0.908   2.821   9.628 -1.1393 -2.7649  2.0083
  976MOL0     H34671   1.106   2.840   9.452 -0.6978  0.8035  0.3531
  976MOL0     H34672   2.067   1.674  10.060  0.7353 -0.8643 -1.1032
  976MOL0     H34673   2.186   1.547  10.239 -0.8764  1.2435  1.7715
  976MOL0     H34674   2.011   1.043  10.551  0.4893  1.6983 -5.1825
  976MOL0     H34675   2.175   0.881  10.628 -1.7398  0.8817 -1.3340
  976MOL0     H34676   2.450   0.826  10.855 -2.5868 -0.3627  2.1037
  976MOL0     H34677   2.286   0.860  10.804  0.3013  1.3120 -1.1014
  976MOL0     H34678   2.476   0.694  10.644 -1.1336  1.1580 -1.3458
  976MOL0     H34679   2.301   0.672  10.642 -2.1225 -0.3881  2.4925
  976MOL0     H34680   2.438   0.480  10.749 -1.4709  0.2999  0.3760
  976MOL0     H34681   2.456   0.589  10.882 -0.5331 -0.1772  0.4313
  976MOL0     H34682   2.198   0.478  10.747 -0.7936  1.7140 -2.2968
  976MOL0     H34683   2.189   0.624  10.851 -0.0511 -0.0480  0.9816
  976MOL0     H34684   2.285   0.334  11.136 -0.7174 -0.6162 -1.0629
  976MOL0     H34685   2.493   1.151  10.586 -1.0139  1.8585  1.1870
  976MOL0     H34686   2.448   1.384  10.571 -0.6574  0.5149  0.0733
  976MOL0     H34687   2.378   1.373  10.411  0.1971 -1.2344 -0.6288
  976MOL0     H34688   2.279   1.452  10.528 -0.9183 -0.6615 -1.4215
  977MOL0     O34689   9.487  10.465   9.755 -0.3475  0.5110  0.2387
  977MOL0     C34690   9.464  10.427   9.644 -0.1002  0.3662 -0.1117
  977MOL0     O34691   9.553  10.394   9.556 -0.1881  0.2241  0.0045
  977MOL0     C34692   9.686  10.378   9.589 -0.1879  0.4164  0.2597
  977MOL0     C34693   9.759  10.481   9.643  0.3436  0.7596 -0.1212
  977MOL0     C34694   9.893  10.470   9.661 -0.3199 -0.4830  0.4536
  977MOL0     C34695   9.954  10.346   9.635  0.0461  0.4559 -0.2273
  977MOL0     O34696  10.095  10.342   9.655 -0.2189 -0.6782  0.3376
  977MOL0     C34697  10.166  10.269   9.554 -0.5542  0.4768 -0.0094
  977MOL0     C34698  10.133  10.286   9.407  0.4278 -0.1484 -0.7058
  977MOL0     C34699  10.176  10.173   9.315  0.4643 -0.6146 -0.0423
  977MOL0     C34700  10.333  10.177   9.306  0.8652 -0.4977  0.5104
  977MOL0     C34701  10.382  10.096   9.187 -0.1283  1.0354  0.4140
  977MOL0     C34702  10.360  10.165   9.046 -0.7154  0.5562 -0.4193
  977MOL0     C34703  10.449  10.112   8.943  1.0647  0.2254 -0.5469
  977MOL0     C34704  10.420   9.976   8.888 -0.7683  0.1433 -0.2932
  977MOL0     N34705  10.505   9.929   8.777  0.6816  0.4447  0.1574
  977MOL0     C34706  10.486   9.966   8.646  0.3425 -1.1194  0.2917
  977MOL0     C34707  10.563   9.884   8.571 -0.1537 -0.4215 -0.6533
  977MOL0     C34708  10.578   9.878   8.422 -0.5903 -0.7578  0.0336
  977MOL0     C34709  10.697   9.792   8.385  0.3253 -0.4562  0.4813
  977MOL0     C34710  10.715   9.808   8.234  0.9767  1.6388 -0.8968
  977MOL0     C34711  10.851   9.754   8.211 -0.4394  0.5713 -0.2565
  977MOL0     O34712  10.855   9.616   8.241  0.2612  0.2564 -0.1002
  977MOL0     C34713  10.977   9.556   8.263 -0.6797  0.4252  0.4753
  977MOL0     C34714  11.035   9.553   8.390  0.0081  0.1735 -0.8899
  977MOL0     C34715  11.164   9.505   8.414  0.7269  0.6356 -0.2960
  977MOL0     C34716  11.224   9.515   8.553  0.6933  0.0858  0.6268
  977MOL0     C34717  11.226   9.436   8.310  1.1061 -0.0005  0.3792
  977MOL0     C34718  11.351   9.366   8.338 -0.4147  0.1723  0.6630
  977MOL0     O34719  11.369   9.275   8.435 -0.3862 -0.0981  0.1955
  977MOL0     C34720  11.489   9.214   8.443  1.0273 -1.2107  0.8912
  977MOL0     C34721  11.586   9.270   8.524 -0.0603  0.6104 -0.5433
  977MOL0     C34722  11.704   9.204   8.544 -1.3057 -0.2520  0.6467
  977MOL0     C34723  11.744   9.085   8.471 -0.1207 -0.3217  0.6778
  977MOL0     O34724  11.879   9.042   8.477  0.3052 -0.2205 -0.9861
  977MOL0     C34725  11.918   9.001   8.610  0.6204 -0.2323 -0.1747
  977MOL0     C34726  11.852   8.879   8.673  0.1146  0.7946 -0.8996
  977MOL0     C34727  11.793   8.768   8.587  0.8810  0.4101 -0.0335
  977MOL0     C34728  11.723   8.659   8.678 -0.2350  0.7596  0.6279
  977MOL0     C34729  11.749   8.519   8.629 -0.5198  0.7006  0.2310
  977MOL0     C34730  11.698   8.414   8.723 -0.9178 -0.2605  0.3539
  977MOL0     C34731  11.544   8.432   8.761 -0.1101  0.0736 -0.7748
  977MOL0     C34732  11.458   8.449   8.639 -0.4310  0.8996  0.7585
  977MOL0    Cl34733  11.292   8.434   8.699 -0.0865 -0.2397 -0.1355
  977MOL0     C34734  11.648   9.044   8.387 -0.2201  0.3608  0.9619
  977MOL0     C34735  11.517   9.101   8.373 -1.0185 -0.1527  0.2163
  977MOL0     O34736  11.443   9.403   8.266 -1.0612 -0.1689  0.0467
  977MOL0     C34737  11.172   9.438   8.173 -0.7908  0.0328  0.2914
  977MOL0     C34738  11.051   9.504   8.157  0.6807 -0.1717 -0.5918
  977MOL0     N34739  10.607   9.787   8.661 -0.1938 -0.5136 -0.0958
  977MOL0     N34740  10.577   9.820   8.778  0.0902 -0.0294 -0.0227
  977MOL0     C34741   9.882  10.234   9.586  0.8506  0.3640  0.0650
  977MOL0     C34742   9.750  10.249   9.564 -0.4963 -0.2030 -0.0125
  977MOL0     C34743   9.326  10.416   9.601  0.4559 -0.3711 -0.7313
  977MOL0     C34744   9.292  10.376   9.474 -0.4140  0.3810  0.4846
  977MOL0     C34745   9.163  10.371   9.408 -0.3312  0.9998 -0.1521
  977MOL0     C34746   9.054  10.409   9.484  0.2683  0.2429  0.4215
  977MOL0     O34747   8.938  10.379   9.426 -0.5591 -0.0225  0.1837
  977MOL0     C34748   8.837  10.331   9.516  0.2820 -0.6599  1.2621
  977MOL0     C34749   8.712  10.288   9.441  0.8831  0.0277  0.0828
  977MOL0     C34750   8.643  10.411   9.355  0.4153 -0.3179  0.6305
  977MOL0     C34751   8.572  10.510   9.451  0.2325 -0.0499  0.3166
  977MOL0     C34752   8.488  10.439   9.546 -0.7703 -0.2075  0.1634
  977MOL0     C34753   8.420  10.367   9.612 -0.5154  0.3615 -0.8674
  977MOL0     C34754   9.075  10.451   9.622 -1.3624 -0.1941  0.7420
  977MOL0     C34755   9.207  10.468   9.675 -0.5347 -0.0222 -0.0532
  977MOL0     C34756   9.218  10.551   9.806 -0.1798  0.5318 -0.2955
  977MOL0     H34757   9.709  10.574   9.670 -1.2505 -0.0322 -0.2113
  977MOL0     H34758   9.941  10.562   9.694  0.3182  0.0238 -1.7611
  977MOL0     H34759  10.162  10.165   9.589  2.6742  0.1249 -0.4490
  977MOL0     H34760  10.272  10.287   9.570  0.9469 -5.5289 -0.5599
  977MOL0     H34761  10.024  10.301   9.403  0.0207 -1.1678  3.1369
  977MOL0     H34762  10.187  10.373   9.368  2.2092 -1.8069 -2.1893
  977MOL0     H34763  10.142  10.076   9.353  1.3750 -0.3570  1.5210
  977MOL0     H34764  10.138  10.200   9.216 -2.1144  1.1159  1.2690
  977MOL0     H34765  10.364  10.280   9.288  0.4516  0.0656  2.7519
  977MOL0     H34766  10.380  10.153   9.402  1.0475 -0.7752  0.3509
  977MOL0     H34767  10.339   9.997   9.207 -0.0629  1.5958  3.8865
  977MOL0     H34768  10.489  10.084   9.205  0.1619 -0.5111 -1.9002
  977MOL0     H34769  10.256  10.142   9.020 -0.6822 -3.1121  1.9523
  977MOL0     H34770  10.378  10.272   9.063  1.2179  0.2930 -0.6543
  977MOL0     H34771  10.546  10.095   8.991  2.0111  2.6743 -1.4522
  977MOL0     H34772  10.464  10.187   8.865  0.8010 -0.1576 -0.9699
  977MOL0     H34773  10.411   9.912   8.976 -0.0161  0.4933  0.0424
  977MOL0     H34774  10.318   9.981   8.850 -1.7272  1.0115  2.1931
  977MOL0     H34775  10.446  10.060   8.612  1.8370 -0.3197  0.6360
  977MOL0     H34776  10.585   9.984   8.394 -0.0060 -0.8576 -0.2039
  977MOL0     H34777  10.486   9.834   8.382  0.8002 -3.1096 -0.7364
  977MOL0     H34778  10.785   9.839   8.429 -0.2122 -0.8773  2.0536
  977MOL0     H34779  10.686   9.687   8.411 -0.6151 -0.7631 -1.0018
  977MOL0     H34780  10.636   9.754   8.181  0.6499  1.4185 -0.1945
  977MOL0     H34781  10.707   9.913   8.205 -0.3899  2.0726  0.8767
  977MOL0     H34782  10.870   9.758   8.104  3.3728 -2.3822  0.1034
  977MOL0     H34783  10.928   9.807   8.269  1.5990 -3.5161  1.1532
  977MOL0     H34784  10.974   9.586   8.474  0.0268 -1.7356 -0.0642
  977MOL0     H34785  11.330   9.529   8.533  0.7630 -1.5040 -0.2527
  977MOL0     H34786  11.207   9.417   8.598 -2.7930  1.1134  1.8774
  977MOL0     H34787  11.196   9.597   8.620  1.0947  0.5049  0.2847
  977MOL0     H34788  11.561   9.360   8.579 -3.2484 -1.0106  0.9605
  977MOL0     H34789  11.765   9.240   8.626 -0.5062 -0.8406  0.3234
  977MOL0     H34790  12.020   8.966   8.597 -0.8082 -5.0633 -0.1568
  977MOL0     H34791  11.931   9.082   8.683  2.4707 -0.6461 -0.0046
  977MOL0     H34792  11.930   8.823   8.727 -1.3440  1.2545  1.9058
  977MOL0     H34793  11.784   8.905   8.755  1.6179 -0.1863  0.7474
  977MOL0     H34794  11.871   8.728   8.521 -1.0996 -0.0953 -2.2180
  977MOL0     H34795  11.714   8.798   8.518  1.1183  2.1827  0.4140
  977MOL0     H34796  11.616   8.674   8.662  0.0381  0.3234 -2.1029
  977MOL0     H34797  11.735   8.672   8.786  0.6443  0.4586  0.5765
  977MOL0     H34798  11.707   8.505   8.529  0.2630  1.5251 -0.2333
  977MOL0     H34799  11.856   8.503   8.611 -0.6450 -0.1650  0.2330
  977MOL0     H34800  11.761   8.421   8.812  1.1659  0.7140 -1.1219
  977MOL0     H34801  11.710   8.315   8.678 -2.6673 -2.0884  3.5093
  977MOL0     H34802  11.541   8.526   8.816  2.2276 -1.2969  1.9781
  977MOL0     H34803  11.513   8.361   8.838  2.9372 -0.2235  0.3248
  977MOL0     H34804  11.484   8.376   8.562 -3.0440  0.4620  0.2187
  977MOL0     H34805  11.474   8.536   8.574  2.8461 -1.2737 -1.7252
  977MOL0     H34806  11.657   8.959   8.320  2.2946  0.8461  0.6007
  977MOL0     H34807  11.437   9.067   8.308 -0.0684  0.7942 -1.5204
  977MOL0     H34808  11.231   9.400   8.091  0.2370 -1.7151  1.7646
  977MOL0     H34809  11.009   9.499   8.057  0.0178 -2.2745 -0.2555
  977MOL0     H34810   9.925  10.139   9.555 -0.1922 -1.4784  3.7033
  977MOL0     H34811   9.698  10.170   9.511  2.6067  0.1301 -4.0342
  977MOL0     H34812   9.366  10.329   9.410  0.5557  3.1017 -0.5180
  977MOL0     H34813   9.151  10.328   9.308 -2.7930 -1.1160  0.9321
  977MOL0     H34814   8.871  10.246   9.576  0.6734 -2.8741 -1.8106
  977MOL0     H34815   8.807  10.408   9.587 -1.3222 -0.2604  0.2101
  977MOL0     H34816   8.642  10.243   9.512 -3.3484  1.8845 -2.5362
  977MOL0     H34817   8.742  10.217   9.364  2.2295  1.7800 -1.0916
  977MOL0     H34818   8.719  10.464   9.297  1.2082 -1.0474  0.9868
  977MOL0     H34819   8.572  10.373   9.281 -1.1907  3.5331 -0.0614
  977MOL0     H34820   8.524  10.586   9.389  0.2639 -0.1407  0.1811
  977MOL0     H34821   8.646  10.563   9.511 -1.1480  2.6525 -0.2515
  977MOL0     H34822   8.353  10.302   9.665  2.1090 -3.2170 -1.4908
  977MOL0     H34823   8.998  10.501   9.680 -2.0767 -0.2131 -0.1617
  977MOL0     H34824   9.279  10.512   9.888 -0.6572 -0.2213 -0.2855
  977MOL0     H34825   9.255  10.653   9.793 -0.2479  0.9352  2.1961
  977MOL0     H34826   9.124  10.553   9.861 -1.0975  1.7605 -1.8138
  978MOL0     O34827   3.904   1.658   5.995 -0.6216  0.5981  0.6262
  978MOL0     C34828   3.802   1.723   5.982 -0.8968 -0.0999 -0.5689
  978MOL0     O34829   3.794   1.831   5.901 -0.2601  0.2747 -0.1206
  978MOL0     C34830   3.911   1.871   5.829  0.0754 -0.0962  0.2296
  978MOL0     C34831   3.936   1.831   5.698 -0.0319  0.2626  0.8623
  978MOL0     C34832   4.067   1.847   5.648  0.2866  0.3676  0.5477
  978MOL0     C34833   4.161   1.920   5.718  0.4967 -0.5697 -0.0096
  978MOL0     O34834   4.284   1.948   5.664  0.7272  0.6245  0.4540
  978MOL0     C34835   4.384   1.983   5.753  0.4681  0.2897  0.6067
  978MOL0     C34836   4.519   1.948   5.705 -0.2018  0.0054 -0.2156
  978MOL0     C34837   4.568   2.047   5.608  0.0215 -0.4087  0.4174
  978MOL0     C34838   4.682   1.988   5.538 -0.4684  1.1636 -0.5780
  978MOL0     C34839   4.760   2.089   5.451  1.4690  0.0126  0.4989
  978MOL0     C34840   4.850   2.028   5.348 -0.2560 -0.1677  0.2994
  978MOL0     C34841   4.946   2.128   5.285  0.8704 -0.4370 -0.7678
  978MOL0     C34842   4.891   2.263   5.243  0.2305 -0.1324 -0.1250
  978MOL0     N34843   4.790   2.256   5.141 -0.0256 -0.1934  0.3872
  978MOL0     C34844   4.703   2.351   5.097  0.3106  0.4164  0.2794
  978MOL0     C34845   4.659   2.320   4.978  0.4208 -0.2244 -0.4465
  978MOL0     C34846   4.560   2.404   4.905  0.3039  0.7657  0.1893
  978MOL0     C34847   4.602   2.525   4.824  1.4368 -1.2566  0.5289
  978MOL0     C34848   4.482   2.606   4.781 -0.9876 -0.4997 -0.4408
  978MOL0     C34849   4.529   2.725   4.684  0.0412 -0.6595  0.3251
  978MOL0     O34850   4.425   2.789   4.609  0.0900  0.3680  0.6256
  978MOL0     C34851   4.380   2.905   4.648 -0.4630 -0.4771 -0.2426
  978MOL0     C34852   4.349   3.001   4.550  0.3917 -0.8919 -0.0839
  978MOL0     C34853   4.271   3.117   4.584 -0.4379 -1.0467 -0.3976
  978MOL0     C34854   4.225   3.204   4.468  0.1309  0.7441  0.6083
  978MOL0     C34855   4.240   3.148   4.718  0.7264 -0.6368 -1.2882
  978MOL0     C34856   4.159   3.267   4.775  0.7549  0.5522  0.7432
  978MOL0     O34857   4.132   3.279   4.913 -0.2682 -0.7627  0.6277
  978MOL0     C34858   4.035   3.375   4.948 -0.8318  0.3132  0.0204
  978MOL0     C34859   3.902   3.346   4.924 -0.1835 -1.2913  0.5872
  978MOL0     C34860   3.805   3.434   4.979 -0.1723  0.4045  0.2456
  978MOL0     C34861   3.845   3.555   5.048 -1.0613  0.2231  0.7006
  978MOL0     O34862   3.768   3.655   5.091  0.2470  0.3222  0.1485
  978MOL0     C34863   3.632   3.610   5.120 -1.0142  0.5783  0.9320
  978MOL0     C34864   3.572   3.725   5.203  0.1875 -0.1827  0.1828
  978MOL0     C34865   3.423   3.725   5.253 -0.9688  0.1647  0.3452
  978MOL0     C34866   3.390   3.853   5.339  0.5412  1.2562  0.7950
  978MOL0     C34867   3.243   3.860   5.367 -0.2084 -0.7731  0.2271
  978MOL0     C34868   3.199   4.005   5.400  0.3526 -0.8587  0.7307
  978MOL0     C34869   3.214   4.034   5.549 -0.7671 -0.6027  0.9980
  978MOL0     C34870   3.346   4.001   5.633 -0.5292  0.7373  0.1664
  978MOL0    Cl34871   3.497   4.077   5.554  0.6263  0.5398 -0.0184
  978MOL0     C34872   3.982   3.578   5.061 -0.7300 -0.9933 -0.2745
  978MOL0     C34873   4.074   3.485   5.019 -0.5803 -0.3217 -0.6354
  978MOL0     O34874   4.086   3.331   4.696  0.4214  0.0318  0.0479
  978MOL0     C34875   4.272   3.053   4.815 -0.3052  0.9589 -0.2955
  978MOL0     C34876   4.336   2.940   4.778 -0.2612  0.3137  1.0984
  978MOL0     N34877   4.729   2.205   4.945  0.2224  0.6658 -0.1551
  978MOL0     N34878   4.803   2.172   5.039  0.2057  0.5720 -0.0313
  978MOL0     C34879   4.127   1.973   5.841  1.0723 -0.1816 -0.5177
  978MOL0     C34880   4.001   1.942   5.905  0.1383  0.8335  0.0312
  978MOL0     C34881   3.667   1.682   6.042  0.6747 -0.4555  0.9792
  978MOL0     C34882   3.557   1.715   5.970 -0.2682  0.0107  0.7909
  978MOL0     C34883   3.443   1.649   6.001  0.2518  0.0248  0.4643
  978MOL0     C34884   3.424   1.556   6.105 -0.1030 -0.1401 -0.4890
  978MOL0     O34885   3.305   1.501   6.154  0.0810 -0.8534  0.6258
  978MOL0     C34886   3.260   1.395   6.066  0.1047  0.1522 -0.2939
  978MOL0     C34887   3.315   1.260   6.128 -0.5360 -0.9124 -0.0721
  978MOL0     C34888   3.248   1.145   6.061 -0.1507  0.6565  0.0871
  978MOL0     C34889   3.240   1.027   6.147  0.8708  0.5349  0.2677
  978MOL0     C34890   3.204   0.899   6.086  0.2748 -0.0152 -0.1422
  978MOL0     C34891   3.174   0.795   6.024  0.0814 -0.3579  0.3199
  978MOL0     C34892   3.530   1.526   6.179 -0.3252  0.1893 -0.5211
  978MOL0     C34893   3.654   1.593   6.157  0.3824 -1.3813 -0.3883
  978MOL0     C34894   3.761   1.540   6.237  0.5018 -0.3666 -0.1848
  978MOL0     H34895   3.859   1.780   5.641 -0.5844  0.6109  1.2905
  978MOL0     H34896   4.107   1.783   5.569  1.5951  1.1351  0.5641
  978MOL0     H34897   4.374   1.938   5.853  3.4292  0.5399  1.1067
  978MOL0     H34898   4.385   2.090   5.777  1.5993  0.6162 -0.7836
  978MOL0     H34899   4.588   1.948   5.791  3.1953  0.7469 -2.7389
  978MOL0     H34900   4.508   1.847   5.665 -3.7628  1.2771 -2.9066
  978MOL0     H34901   4.490   2.075   5.536 -0.5381 -3.3011 -0.2330
  978MOL0     H34902   4.598   2.134   5.667  0.0438 -1.0253  1.3306
  978MOL0     H34903   4.745   1.933   5.608 -1.6963 -0.6431 -0.8369
  978MOL0     H34904   4.640   1.917   5.466 -2.4357  0.0533  1.5354
  978MOL0     H34905   4.802   2.163   5.520 -5.5083  4.0726  1.4208
  978MOL0     H34906   4.683   2.146   5.398  1.0106 -1.3404 -0.3446
  978MOL0     H34907   4.920   1.969   5.408  2.6217  1.7215 -0.9683
  978MOL0     H34908   4.799   1.974   5.268 -1.2732 -0.3524  1.0398
  978MOL0     H34909   4.980   2.080   5.192  2.6949  1.8747 -1.3892
  978MOL0     H34910   5.032   2.146   5.350 -1.6849  2.7709  2.0790
  978MOL0     H34911   4.850   2.327   5.323 -0.2079  0.6388 -0.9473
  978MOL0     H34912   4.977   2.326   5.217  1.2817 -0.3910  2.3775
  978MOL0     H34913   4.675   2.445   5.145 -0.3557 -0.5234  1.8369
  978MOL0     H34914   4.487   2.435   4.981  0.5860  0.7250  0.4776
  978MOL0     H34915   4.503   2.344   4.834  4.2642  0.6709 -3.2566
  978MOL0     H34916   4.664   2.588   4.888  3.7312  0.6727 -3.2117
  978MOL0     H34917   4.665   2.501   4.738  1.6150  1.2928 -0.1502
  978MOL0     H34918   4.419   2.533   4.729  0.4584  0.5644 -4.0452
  978MOL0     H34919   4.427   2.648   4.866  1.1216  2.7312 -0.4672
  978MOL0     H34920   4.572   2.807   4.743  2.2297  0.0312 -2.0570
  978MOL0     H34921   4.613   2.683   4.629  0.1930 -1.0159  0.8301
  978MOL0     H34922   4.379   2.975   4.450  0.5064  1.9616 -0.8881
  978MOL0     H34923   4.253   3.157   4.373 -3.7601  0.2172 -0.4561
  978MOL0     H34924   4.263   3.306   4.466 -0.6534  1.0359  0.4130
  978MOL0     H34925   4.117   3.186   4.466  0.5426 -3.2686  3.1684
  978MOL0     H34926   3.869   3.256   4.873  0.2520 -2.3339  2.0674
  978MOL0     H34927   3.706   3.400   4.952 -0.7988  0.5155  2.2134
  978MOL0     H34928   3.572   3.584   5.033  1.2967  1.0492 -0.9091
  978MOL0     H34929   3.650   3.515   5.173 -0.0358 -1.5659 -2.8607
  978MOL0     H34930   3.642   3.741   5.286 -0.4748  0.4640  0.6351
  978MOL0     H34931   3.589   3.817   5.147  2.8835 -0.4812  0.3624
  978MOL0     H34932   3.419   3.645   5.327  0.2122  0.9711  1.3368
  978MOL0     H34933   3.349   3.716   5.173 -1.0162  0.4189  0.3568
  978MOL0     H34934   3.426   3.945   5.291  0.9631  0.4296 -0.5184
  978MOL0     H34935   3.434   3.840   5.438  2.1881  4.0292  0.5330
  978MOL0     H34936   3.193   3.844   5.272  3.6127 -0.5952 -2.0285
  978MOL0     H34937   3.212   3.791   5.446 -0.9876 -0.3983  0.2596
  978MOL0     H34938   3.096   4.021   5.368  0.8086 -1.7883 -1.3984
  978MOL0     H34939   3.256   4.076   5.341 -0.7380 -1.4749 -1.1572
  978MOL0     H34940   3.128   3.988   5.599 -0.0496 -1.8567  1.1246
  978MOL0     H34941   3.210   4.143   5.560 -0.6980  0.1516 -4.1572
  978MOL0     H34942   3.364   3.894   5.649 -0.2802  0.6354 -0.7283
  978MOL0     H34943   3.329   4.041   5.733 -0.7188 -0.0964  0.4748
  978MOL0     H34944   4.031   3.664   5.108 -0.1730 -1.7505  0.5772
  978MOL0     H34945   4.180   3.506   5.032 -1.6265  5.2575  2.2552
  978MOL0     H34946   4.240   3.058   4.918 -2.2436 -3.4315 -0.4808
  978MOL0     H34947   4.333   2.859   4.850  0.2389 -0.2788  0.4583
  978MOL0     H34948   4.189   2.030   5.909  0.9945 -1.4933  0.7148
  978MOL0     H34949   3.982   1.977   6.007 -2.6274  1.9361 -0.7613
  978MOL0     H34950   3.562   1.769   5.877  5.5435 -3.2533 -1.3191
  978MOL0     H34951   3.356   1.682   5.945 -0.8889  1.6421  3.0028
  978MOL0     H34952   3.154   1.409   6.043  0.1910  4.2569  1.0397
  978MOL0     H34953   3.303   1.397   5.965  0.6550  1.7879 -0.0512
  978MOL0     H34954   3.292   1.249   6.235 -0.6186 -8.0771 -0.3844
  978MOL0     H34955   3.423   1.273   6.131 -0.7524  1.3235  2.9631
  978MOL0     H34956   3.142   1.153   6.034 -0.7636 -4.3206  0.0147
  978MOL0     H34957   3.297   1.126   5.965 -3.6455 -2.6061 -1.3211
  978MOL0     H34958   3.171   1.050   6.229  0.9777 -2.0191  1.1657
  978MOL0     H34959   3.334   1.002   6.198  1.4589  1.4858 -0.3202
  978MOL0     H34960   3.137   0.717   5.960 -2.2011  0.4223  0.5763
  978MOL0     H34961   3.528   1.460   6.266 -0.3509  2.8561  1.6256
  978MOL0     H34962   3.812   1.625   6.283 -1.4432  1.0987 -0.6139
  978MOL0     H34963   3.727   1.470   6.314 -2.4046 -1.1350 -2.0255
  978MOL0     H34964   3.827   1.484   6.171  1.7966 -0.0776  0.8258
  979MOL0     O34965   8.072   4.948   2.743  1.0583 -0.2684  0.2584
  979MOL0     C34966   8.130   4.890   2.835 -0.8142  0.8518 -0.2539
  979MOL0     O34967   8.207   4.778   2.823 -0.2531 -0.3666 -0.3754
  979MOL0     C34968   8.224   4.713   2.702 -0.8138  1.4489 -0.6947
  979MOL0     C34969   8.117   4.662   2.629 -0.4490 -0.1035 -0.3922
  979MOL0     C34970   8.130   4.593   2.506 -1.2768  0.9122 -0.3713
  979MOL0     C34971   8.256   4.572   2.458  0.4943 -0.0192 -1.0477
  979MOL0     O34972   8.270   4.512   2.331  0.9219 -0.5482 -0.3654
  979MOL0     C34973   8.362   4.558   2.235  0.0320  0.3033 -0.2510
  979MOL0     C34974   8.318   4.501   2.097 -0.2377 -0.2463 -0.2120
  979MOL0     C34975   8.440   4.503   1.997 -0.5556  0.2952 -0.4011
  979MOL0     C34976   8.457   4.396   1.896 -0.5609 -0.0281  0.4473
  979MOL0     C34977   8.558   4.291   1.913  0.1572 -0.9688 -1.0099
  979MOL0     C34978   8.518   4.201   2.026 -0.4883  0.7680 -0.7790
  979MOL0     C34979   8.639   4.101   2.060  0.1961 -0.0724  0.3665
  979MOL0     C34980   8.597   3.960   2.003 -0.7350  0.1837 -0.7298
  979MOL0     N34981   8.712   3.860   1.999  0.4029  0.1216  0.1021
  979MOL0     C34982   8.840   3.860   1.941 -0.6214 -0.3265 -0.7481
  979MOL0     C34983   8.889   3.736   1.946 -0.2389 -0.5269  0.6138
  979MOL0     C34984   9.031   3.704   1.893  0.6820  0.0942  0.1787
  979MOL0     C34985   9.075   3.565   1.860 -0.0925  0.2971 -0.1328
  979MOL0     C34986   9.095   3.463   1.976  0.2951  0.5248 -0.4161
  979MOL0     C34987   9.186   3.355   1.945 -0.3722 -0.1442 -0.2266
  979MOL0     O34988   9.321   3.402   1.950 -0.3819 -0.0077 -0.0328
  979MOL0     C34989   9.411   3.325   1.888  1.0749 -0.1106 -0.1030
  979MOL0     C34990   9.535   3.310   1.951  0.1524 -0.4107 -0.3404
  979MOL0     C34991   9.639   3.230   1.893 -1.0153 -0.4440  0.4625
  979MOL0     C34992   9.771   3.237   1.959  0.3676  0.2945  0.3239
  979MOL0     C34993   9.618   3.155   1.780  0.2026 -0.0883  0.0150
  979MOL0     C34994   9.722   3.058   1.728  0.7941 -0.9679 -0.5388
  979MOL0     O34995   9.687   2.949   1.671 -0.3418 -0.5308 -0.3604
  979MOL0     C34996   9.736   2.827   1.731  0.1385 -0.6228 -0.6563
  979MOL0     C34997   9.693   2.701   1.670  0.6483 -0.3890 -0.6732
  979MOL0     C34998   9.743   2.582   1.722  0.0811 -0.1186 -0.4236
  979MOL0     C34999   9.833   2.579   1.834  0.9200 -0.9309 -0.8102
  979MOL0     O35000   9.885   2.464   1.882 -0.1993  0.3286 -0.0233
  979MOL0     C35001  10.018   2.427   1.836 -0.0742  0.6012 -0.5381
  979MOL0     C35002  10.093   2.350   1.949 -0.0392  0.6206  0.0174
  979MOL0     C35003  10.192   2.248   1.891  0.2819  0.4813 -0.2103
  979MOL0     C35004  10.264   2.192   2.013 -0.7552  0.5242  0.9285
  979MOL0     C35005  10.389   2.118   1.965  0.3167 -0.2088 -0.0852
  979MOL0     C35006  10.444   2.053   2.092  0.3353  0.1783 -0.5044
  979MOL0     C35007  10.543   1.933   2.066  0.5707 -0.1973 -0.4884
  979MOL0     C35008  10.635   1.920   2.177  1.0017  0.1982 -0.4435
  979MOL0    Cl35009  10.544   1.859   2.319 -0.1451  0.3359  0.1193
  979MOL0     C35010   9.883   2.701   1.887  1.1838 -0.1427  0.1379
  979MOL0     C35011   9.837   2.826   1.837 -0.3816  0.9992  0.7980
  979MOL0     O35012   9.831   3.106   1.725 -0.3156  0.6372 -0.5374
  979MOL0     C35013   9.488   3.164   1.717  0.0892  1.0501  0.8501
  979MOL0     C35014   9.389   3.251   1.767  0.2687 -0.3667 -0.2215
  979MOL0     N35015   8.807   3.673   2.033  0.2150 -0.0612  0.3399
  979MOL0     N35016   8.706   3.741   2.060  0.1394 -0.3730 -0.3015
  979MOL0     C35017   8.367   4.613   2.537 -0.8153  0.1167  0.2606
  979MOL0     C35018   8.355   4.690   2.649  0.0210 -0.2373 -0.1997
  979MOL0     C35019   8.112   4.931   2.975 -0.7806 -0.1053 -0.3839
  979MOL0     C35020   8.003   5.017   3.004  0.4649  0.1819 -0.4002
  979MOL0     C35021   7.971   5.052   3.131  0.5869  0.7696  0.5550
  979MOL0     C35022   8.053   5.031   3.239  0.5875  0.2030 -1.0760
  979MOL0     O35023   8.013   5.087   3.359 -0.4037  0.3920  0.0064
  979MOL0     C35024   8.080   5.056   3.483  1.0507 -0.5867  0.8833
  979MOL0     C35025   8.188   5.160   3.526 -0.1043 -0.7425  0.3891
  979MOL0     C35026   8.255   5.132   3.656 -0.3340  0.5164  0.2818
  979MOL0     C35027   8.405   5.151   3.677  0.2665  0.5443 -0.4924
  979MOL0     C35028   8.451   5.066   3.794 -0.2436 -0.7565  0.2197
  979MOL0     C35029   8.484   4.990   3.889  1.0459  0.8254 -0.3337
  979MOL0     C35030   8.177   4.956   3.218  1.0002  0.5763  1.0044
  979MOL0     C35031   8.204   4.909   3.086  0.2760 -1.2049  0.0242
  979MOL0     C35032   8.332   4.848   3.078 -1.7800 -0.3746  1.1520
  979MOL0     H35033   8.022   4.667   2.680  0.7226 -0.1018  1.9232
  979MOL0     H35034   8.045   4.562   2.446 -1.3673 -2.3407  1.2264
  979MOL0     H35035   8.456   4.513   2.268 -0.4770 -0.3049  0.4307
  979MOL0     H35036   8.371   4.667   2.244 -0.7922  0.2411  2.1149
  979MOL0     H35037   8.288   4.397   2.114 -1.2337  0.2671  1.4314
  979MOL0     H35038   8.225   4.538   2.055 -0.3433 -1.2013 -0.8552
  979MOL0     H35039   8.427   4.593   1.937 -0.5925  0.4329 -0.1910
  979MOL0     H35040   8.537   4.516   2.046 -1.0749  0.5970  0.5879
  979MOL0     H35041   8.366   4.345   1.864 -0.1982  1.2111 -2.8759
  979MOL0     H35042   8.493   4.446   1.806  0.9313 -0.3240  0.8500
  979MOL0     H35043   8.662   4.319   1.931 -0.0121  3.1338 -4.7658
  979MOL0     H35044   8.578   4.244   1.817 -3.0185 -2.6355 -0.9882
  979MOL0     H35045   8.498   4.261   2.115 -2.5655 -2.9395  1.5112
  979MOL0     H35046   8.422   4.153   2.005 -1.6694  1.8406  1.7228
  979MOL0     H35047   8.647   4.091   2.169  0.7989  0.9185  0.4251
  979MOL0     H35048   8.733   4.134   2.016 -1.2753 -0.3991 -3.3713
  979MOL0     H35049   8.518   3.914   2.063  0.8000 -0.7549  0.6471
  979MOL0     H35050   8.566   3.971   1.898 -1.3151 -0.3963 -0.6250
  979MOL0     H35051   8.881   3.938   1.876  2.4206 -1.7983 -0.7735
  979MOL0     H35052   9.108   3.740   1.963 -1.2106  0.0740  2.3737
  979MOL0     H35053   9.051   3.764   1.803  3.8363  0.1071  0.7736
  979MOL0     H35054   8.996   3.523   1.797  1.8268 -2.0788 -1.1432
  979MOL0     H35055   9.171   3.568   1.807  1.0754 -1.6360  1.7155
  979MOL0     H35056   9.124   3.524   2.063 -1.7902  2.9928 -1.3071
  979MOL0     H35057   8.997   3.424   2.004  1.3009 -1.6421  0.2885
  979MOL0     H35058   9.176   3.285   2.028 -0.0188 -0.0727 -0.1197
  979MOL0     H35059   9.153   3.307   1.852  0.1479  1.2004 -1.1382
  979MOL0     H35060   9.560   3.354   2.047 -1.5842 -2.7003  1.2748
  979MOL0     H35061   9.825   3.143   1.966  1.0280  0.4166 -2.1567
  979MOL0     H35062   9.760   3.268   2.063  1.9291 -1.1104  0.9521
  979MOL0     H35063   9.827   3.311   1.900 -2.7304  2.5757 -0.0329
  979MOL0     H35064   9.616   2.703   1.593 -1.2063  0.9713  1.0944
  979MOL0     H35065   9.726   2.491   1.665 -1.1544 -0.8761  1.0671
  979MOL0     H35066  10.005   2.371   1.743  1.7913 -2.5011  0.8946
  979MOL0     H35067  10.093   2.505   1.825  1.9270 -0.5817  3.0863
  979MOL0     H35068  10.149   2.415   2.017  0.6879 -1.1830  1.2227
  979MOL0     H35069  10.019   2.303   2.013 -0.9735  1.4929 -0.4043
  979MOL0     H35070  10.266   2.291   1.823 -0.1558  0.5324 -0.6562
  979MOL0     H35071  10.135   2.162   1.855  3.8108 -2.6530  0.9946
  979MOL0     H35072  10.202   2.134   2.081  1.8966 -1.4133  1.8717
  979MOL0     H35073  10.307   2.274   2.071  0.9225  0.1631  0.2689
  979MOL0     H35074  10.370   2.046   1.885 -0.4814  0.0267 -0.1115
  979MOL0     H35075  10.461   2.190   1.924  2.9588 -2.1022  0.8859
  979MOL0     H35076  10.368   2.017   2.162 -1.1055  0.4812 -1.8395
  979MOL0     H35077  10.492   2.135   2.146 -1.3119  1.7366 -1.2860
  979MOL0     H35078  10.607   1.938   1.977 -1.0132 -1.0259 -1.7141
  979MOL0     H35079  10.490   1.838   2.057 -2.3000  1.3009 -0.5369
  979MOL0     H35080  10.692   2.009   2.207  0.7664  0.1642  0.1170
  979MOL0     H35081  10.708   1.842   2.151  3.0570  0.5788  3.3670
  979MOL0     H35082   9.958   2.700   1.966  0.4123 -0.8399  0.8766
  979MOL0     H35083   9.880   2.917   1.877  2.9483  1.2004 -2.6478
  979MOL0     H35084   9.463   3.101   1.632 -0.9054  0.5742  1.4842
  979MOL0     H35085   9.300   3.264   1.706 -1.3217  1.1898  2.1999
  979MOL0     H35086   8.464   4.578   2.503 -0.8416 -0.4585  0.7693
  979MOL0     H35087   8.440   4.720   2.710  0.2282  1.8423 -1.4028
  979MOL0     H35088   7.934   5.057   2.930 -2.0362  0.3038  1.8691
  979MOL0     H35089   7.887   5.119   3.146 -1.1348 -1.3274  0.8122
  979MOL0     H35090   7.997   5.047   3.553  0.1343 -0.9152 -0.2219
  979MOL0     H35091   8.125   4.956   3.483  1.6273 -0.3377  1.5054
  979MOL0     H35092   8.148   5.262   3.529 -2.6485 -1.6406 -0.4779
  979MOL0     H35093   8.263   5.172   3.447 -2.8076  0.0430 -2.2638
  979MOL0     H35094   8.204   5.202   3.723 -4.1470 -1.6200 -0.1256
  979MOL0     H35095   8.215   5.034   3.683  2.9128 -0.9412  0.3180
  979MOL0     H35096   8.421   5.258   3.690  1.2629  0.3649 -0.1308
  979MOL0     H35097   8.475   5.121   3.598 -1.2879  1.5649 -2.3367
  979MOL0     H35098   8.513   4.909   3.952 -2.0135  0.5873  0.9382
  979MOL0     H35099   8.257   4.940   3.289  3.2489 -1.4599 -1.7595
  979MOL0     H35100   8.377   4.816   3.173  0.1054 -1.0755  0.0895
  979MOL0     H35101   8.346   4.754   3.024  0.5312 -1.4249  3.3350
  979MOL0     H35102   8.399   4.921   3.032  0.3670 -2.3096  0.9733
  980MOL0     O35103  10.599   0.545   1.105  0.3897 -0.0603  0.5288
  980MOL0     C35104  10.578   0.435   1.059 -0.2533 -0.2500 -0.2219
  980MOL0     O35105  10.667   0.337   1.026  0.5134 -1.5397 -0.2522
  980MOL0     C35106  10.795   0.355   1.070  0.6170 -0.3921 -0.2380
  980MOL0     C35107  10.850   0.275   1.168 -0.8104  0.1730 -1.0668
  980MOL0     C35108  10.996   0.284   1.193  0.0954 -0.1646 -0.3272
  980MOL0     C35109  11.068   0.397   1.144 -0.1307 -0.2363  0.1975
  980MOL0     O35110  11.202   0.406   1.150  0.5739 -0.2452 -0.4898
  980MOL0     C35111  11.284   0.332   1.235 -0.4908 -0.7447  0.7236
  980MOL0     C35112  11.428   0.354   1.191 -0.5442 -0.0326 -0.3113
  980MOL0     C35113  11.466   0.503   1.177 -0.8349  0.5153 -0.1670
  980MOL0     C35114  11.613   0.532   1.128 -0.2949 -0.1227  0.4265
  980MOL0     C35115  11.624   0.487   0.987 -0.3764  0.0960  0.6841
  980MOL0     C35116  11.729   0.580   0.912  0.7164  0.6371 -0.1569
  980MOL0     C35117  11.863   0.630   0.976  0.4410  0.4565  0.9632
  980MOL0     C35118  11.868   0.759   1.059 -0.0423  0.6335 -0.9005
  980MOL0     N35119  11.898   0.871   0.973 -0.0075  0.1994 -0.5755
  980MOL0     C35120  12.009   0.953   0.997 -0.8592 -0.3195  1.3178
  980MOL0     C35121  11.988   1.043   0.899 -0.5588 -0.2041 -0.3574
  980MOL0     C35122  12.076   1.162   0.874  0.0324 -0.1165  0.0539
  980MOL0     C35123  12.084   1.246   0.994 -0.7047 -0.4835  0.4637
  980MOL0     C35124  11.954   1.299   1.056 -0.4143 -0.5545  0.4929
  980MOL0     C35125  11.903   1.410   0.967  0.8608  0.6444 -0.4179
  980MOL0     O35126  11.989   1.527   0.977 -0.0586  0.0906 -0.2906
  980MOL0     C35127  11.949   1.651   0.926 -0.1695 -0.5460 -0.5924
  980MOL0     C35128  11.833   1.667   0.857  0.0425  0.9333  0.0678
  980MOL0     C35129  11.789   1.790   0.798 -0.1258  0.7690  0.0104
  980MOL0     C35130  11.646   1.786   0.737 -0.0387 -0.3077  0.2872
  980MOL0     C35131  11.866   1.907   0.798  0.7382  0.5768 -0.1952
  980MOL0     C35132  11.853   2.021   0.713 -0.3484 -0.2455  0.0476
  980MOL0     O35133  11.953   2.101   0.717 -0.0289 -0.3751  0.8442
  980MOL0     C35134  11.997   2.164   0.607 -1.1015  0.4399 -0.0569
  980MOL0     C35135  11.948   2.289   0.569 -0.0780  0.6879  0.0361
  980MOL0     C35136  11.989   2.350   0.454 -0.4836 -0.4831 -0.5518
  980MOL0     C35137  12.084   2.291   0.368 -0.2526  0.4382 -0.1379
  980MOL0     O35138  12.131   2.335   0.252  0.2483  0.1500 -0.0596
  980MOL0     C35139  12.133   2.475   0.232 -1.2059 -0.7666 -0.2233
  980MOL0     C35140  12.172   2.512   0.091  0.2603  0.0839 -0.7388
  980MOL0     C35141  12.326   2.514   0.049  0.2173 -0.6634  0.0849
  980MOL0     C35142  12.430   2.416   0.120 -0.2710  0.2020  0.6203
  980MOL0     C35143  12.573   2.468   0.095  0.3343  0.3928 -0.9421
  980MOL0     C35144  12.675   2.370   0.154 -0.8345  1.0175 -0.5748
  980MOL0     C35145  12.826   2.405   0.152 -0.1324  0.5649  1.1762
  980MOL0     C35146  12.853   2.463   0.012 -0.6055  0.1383 -0.8047
  980MOL0    Cl35147  13.033   2.461   0.002  0.5478 -0.1381 -0.0599
  980MOL0     C35148  12.144   2.173   0.417 -0.8714 -0.6114 -0.9061
  980MOL0     C35149  12.100   2.108   0.536  1.0365  0.1188 -0.0598
  980MOL0     O35150  11.750   2.035   0.649  0.4530  0.5016  0.3292
  980MOL0     C35151  11.988   1.888   0.869  0.2643  0.6081  0.7384
  980MOL0     C35152  12.032   1.761   0.925  0.2550 -0.7096  0.9177
  980MOL0     N35153  11.869   1.026   0.826 -0.4818  0.3965  0.2148
  980MOL0     N35154  11.818   0.915   0.878  0.7789  0.1560 -0.4843
  980MOL0     C35155  11.005   0.482   1.055 -0.2728 -0.0751 -0.1933
  980MOL0     C35156  10.874   0.458   1.026  0.4319  0.6686  0.6841
  980MOL0     C35157  10.433   0.411   1.035  0.6105 -0.2743 -0.2451
  980MOL0     C35158  10.353   0.522   0.999 -0.8701 -0.0871 -0.3794
  980MOL0     C35159  10.216   0.506   1.010  0.0653 -1.0139  0.0053
  980MOL0     C35160  10.151   0.388   1.038  0.3374 -0.0033 -0.5272
  980MOL0     O35161  10.014   0.377   1.056 -0.2388 -0.2277  0.0534
  980MOL0     C35162   9.932   0.482   1.008 -0.0854 -0.5267 -0.6333
  980MOL0     C35163   9.792   0.439   1.015  0.3618 -0.2219  0.8372
  980MOL0     C35164   9.696   0.556   0.975 -0.8481 -0.3179 -1.0168
  980MOL0     C35165   9.550   0.509   0.965  0.3201 -0.1478  0.7440
  980MOL0     C35166   9.523   0.431   0.847 -0.1579  0.7786 -0.1149
  980MOL0     C35167   9.520   0.328   0.788 -0.3518  0.2042  0.9172
  980MOL0     C35168  10.228   0.272   1.051 -0.3339  0.3718 -0.8809
  980MOL0     C35169  10.367   0.285   1.055 -0.0594 -0.6875 -0.2307
  980MOL0     C35170  10.451   0.155   1.073  0.3703 -0.6372 -0.6752
  980MOL0     H35171  10.792   0.203   1.223 -0.1329  0.1405 -0.3732
  980MOL0     H35172  11.038   0.203   1.252  0.0132  1.7434  2.5423
  980MOL0     H35173  11.265   0.224   1.241  3.6063 -1.6668  0.5888
  980MOL0     H35174  11.278   0.380   1.332 -1.3848  2.5330 -0.8185
  980MOL0     H35175  11.494   0.296   1.256  1.1935  0.3457 -1.6890
  980MOL0     H35176  11.442   0.312   1.091 -2.1681 -5.3241  1.3535
  980MOL0     H35177  11.400   0.563   1.114 -1.7714 -1.1396 -0.8018
  980MOL0     H35178  11.452   0.559   1.271  3.5316  0.5435  0.6619
  980MOL0     H35179  11.629   0.640   1.134  0.3424 -0.2217  0.5250
  980MOL0     H35180  11.694   0.482   1.182  2.0262  1.2894 -1.5189
  980MOL0     H35181  11.531   0.492   0.930  0.0529  2.8424  0.0571
  980MOL0     H35182  11.661   0.385   0.999  3.0755  1.4683  3.8071
  980MOL0     H35183  11.747   0.524   0.820 -1.7583  1.1011 -0.9969
  980MOL0     H35184  11.673   0.667   0.879 -3.6913 -0.8110  2.6076
  980MOL0     H35185  11.928   0.656   0.892  0.5442  2.1703  1.5350
  980MOL0     H35186  11.893   0.537   1.026 -1.9093 -1.6310 -1.2224
  980MOL0     H35187  11.765   0.772   1.093  0.2002  0.9480 -0.2562
  980MOL0     H35188  11.935   0.755   1.146  1.4811 -2.0612 -2.0813
  980MOL0     H35189  12.089   0.947   1.070 -1.6536 -3.0257  2.0900
  980MOL0     H35190  12.047   1.225   0.790 -0.6270 -2.4879 -1.6069
  980MOL0     H35191  12.172   1.117   0.845 -0.9942 -0.3347 -3.4913
  980MOL0     H35192  12.147   1.192   1.065 -0.0713 -0.3688  0.0007
  980MOL0     H35193  12.139   1.332   0.955  1.3429 -0.5066  3.0102
  980MOL0     H35194  11.873   1.225   1.066 -3.1353  1.6589 -2.7653
  980MOL0     H35195  11.984   1.339   1.153  0.7986  1.4402 -0.6474
  980MOL0     H35196  11.882   1.367   0.868 -0.6372  0.3152  0.0156
  980MOL0     H35197  11.805   1.430   1.010 -0.8538 -2.9602 -2.1534
  980MOL0     H35198  11.760   1.587   0.853 -0.8704  1.7537  0.0519
  980MOL0     H35199  11.657   1.746   0.636  1.6949 -1.2015  0.7998
  980MOL0     H35200  11.597   1.884   0.745 -1.0656 -0.6779 -1.0576
  980MOL0     H35201  11.581   1.707   0.778  0.6362 -1.0697 -0.0975
  980MOL0     H35202  11.868   2.334   0.626 -0.1389  0.5960  0.0231
  980MOL0     H35203  11.938   2.444   0.438 -0.4885 -0.6714 -1.6853
  980MOL0     H35204  12.034   2.512   0.260 -1.4572 -3.2465  2.6214
  980MOL0     H35205  12.205   2.529   0.295 -0.9704  0.1231 -1.2168
  980MOL0     H35206  12.108   2.455   0.024 -0.8845  1.1870 -0.6314
  980MOL0     H35207  12.142   2.617   0.078  5.1676  1.8460 -0.0426
  980MOL0     H35208  12.363   2.609   0.089  2.2945 -1.6628  0.6371
  980MOL0     H35209  12.333   2.519  -0.060  0.4993  0.5715  0.1488
  980MOL0     H35210  12.412   2.312   0.092 -1.7225  0.2058  1.4120
  980MOL0     H35211  12.407   2.397   0.225 -1.9535 -0.5217  0.1617
  980MOL0     H35212  12.596   2.464  -0.012 -1.3354 -2.9258 -1.2994
  980MOL0     H35213  12.588   2.570   0.131  1.6852 -0.5891  1.4986
  980MOL0     H35214  12.676   2.281   0.091  0.5498  0.6159 -0.0189
  980MOL0     H35215  12.633   2.344   0.252  0.5976 -2.1658 -0.6982
  980MOL0     H35216  12.889   2.321   0.181  0.0216  0.5270  0.7353
  980MOL0     H35217  12.838   2.488   0.223 -0.3684  2.2200 -0.6503
  980MOL0     H35218  12.804   2.561   0.020 -0.3575  0.1867  0.3543
  980MOL0     H35219  12.816   2.396  -0.066 -0.5893  0.0006 -0.6942
  980MOL0     H35220  12.225   2.126   0.362  1.7221  1.4832  0.8775
  980MOL0     H35221  12.125   2.009   0.572 -2.6091 -2.2073 -3.1890
  980MOL0     H35222  12.053   1.975   0.881 -1.3074  2.1110 -1.0624
  980MOL0     H35223  12.132   1.751   0.966  1.4364  0.3697 -1.4994
  980MOL0     H35224  11.062   0.565   1.013 -0.8423  1.0400  1.1589
  980MOL0     H35225  10.821   0.523   0.957  1.4527 -1.3392 -2.1587
  980MOL0     H35226  10.408   0.614   0.984  0.9623 -1.3459 -1.9601
  980MOL0     H35227  10.159   0.591   0.975 -0.9030 -1.9868 -0.8547
  980MOL0     H35228   9.948   0.572   1.069 -2.5854 -1.4764  1.6822
  980MOL0     H35229   9.949   0.517   0.906 -1.0727  2.4623  0.1337
  980MOL0     H35230   9.771   0.413   1.119 -1.3163  3.5403  1.6049
  980MOL0     H35231   9.782   0.349   0.954 -2.5990  1.1265 -0.9090
  980MOL0     H35232   9.699   0.627   1.058 -3.7478 -2.8997  1.5822
  980MOL0     H35233   9.731   0.589   0.877  0.7921  3.4152  0.6321
  980MOL0     H35234   9.501   0.607   0.967  0.3420 -0.1227  0.1740
  980MOL0     H35235   9.516   0.464   1.059  2.3527 -1.4303  0.9251
  980MOL0     H35236   9.495   0.237   0.738  2.4126 -0.9230  1.4216
  980MOL0     H35237  10.188   0.172   1.064  3.1248 -0.8051  2.2246
  980MOL0     H35238  10.525   0.136   0.995  3.4720  0.9326  1.6457
  980MOL0     H35239  10.518   0.175   1.157  3.6562 -0.8685 -3.0538
  980MOL0     H35240  10.388   0.068   1.093  0.9291 -0.9931 -0.4218
  981MOL0     O35241   5.938   9.865   1.583  0.9028  0.4554  0.3206
  981MOL0     C35242   5.953   9.784   1.674 -0.4122  0.6583 -0.2942
  981MOL0     O35243   5.891   9.782   1.800  0.3332  0.5418 -0.1687
  981MOL0     C35244   5.794   9.876   1.832  0.1221  0.5631  0.1511
  981MOL0     C35245   5.671   9.881   1.761 -0.3006 -0.6260  1.2724
  981MOL0     C35246   5.564   9.970   1.799 -0.1640  0.0833 -0.3995
  981MOL0     C35247   5.583  10.048   1.915 -0.1152 -0.1714 -0.9448
  981MOL0     O35248   5.486  10.133   1.961 -0.2570  0.4799  0.6066
  981MOL0     C35249   5.450  10.238   1.875  0.2662  1.1221 -0.5242
  981MOL0     C35250   5.382  10.345   1.961 -0.4941  0.1791 -0.2835
  981MOL0     C35251   5.358  10.468   1.865 -0.0318  0.6382  0.3578
  981MOL0     C35252   5.316  10.588   1.948  0.9451 -0.2343  0.6368
  981MOL0     C35253   5.207  10.681   1.892 -0.7800  0.0893  0.3224
  981MOL0     C35254   5.219  10.819   1.971 -0.1872 -0.8751 -0.3076
  981MOL0     C35255   5.110  10.920   1.926  0.8397 -0.3434  1.0436
  981MOL0     C35256   5.105  11.039   2.019 -0.5224  0.2292  0.1228
  981MOL0     N35257   5.017  11.145   1.979  0.5638  0.5766 -0.5310
  981MOL0     C35258   4.883  11.119   1.958 -0.5112  0.0903  0.3224
  981MOL0     C35259   4.843  11.237   1.903  0.0195 -0.5533 -0.3204
  981MOL0     C35260   4.698  11.260   1.861 -0.1541 -0.1844 -1.1190
  981MOL0     C35261   4.691  11.327   1.725 -0.8337 -0.2318 -0.8698
  981MOL0     C35262   4.556  11.393   1.696  0.5261  0.1396 -0.3178
  981MOL0     C35263   4.572  11.478   1.568 -0.0643  0.4802  0.0427
  981MOL0     O35264   4.447  11.551   1.552 -1.4647  0.4816 -0.5299
  981MOL0     C35265   4.439  11.611   1.432 -0.0109 -0.7978 -0.6521
  981MOL0     C35266   4.490  11.739   1.414 -0.4506  0.8024  0.5021
  981MOL0     C35267   4.460  11.822   1.295  0.2408  0.3607 -0.1878
  981MOL0     C35268   4.470  11.979   1.296  0.8347 -0.0701 -0.3569
  981MOL0     C35269   4.400  11.743   1.187 -0.8236 -0.4352  0.2050
  981MOL0     C35270   4.388  11.794   1.046 -0.1121  0.0921 -0.6918
  981MOL0     O35271   4.324  11.715   0.968  0.3691  1.0647 -0.4472
  981MOL0     C35272   4.301  11.749   0.838  0.2785 -0.5213  0.0702
  981MOL0     C35273   4.310  11.647   0.741  0.6063 -0.3149  0.1377
  981MOL0     C35274   4.296  11.683   0.606 -0.0673  0.2976  0.0401
  981MOL0     C35275   4.271  11.812   0.567  0.5040  1.1710  0.5810
  981MOL0     O35276   4.259  11.851   0.431  1.0389  0.0356 -0.4387
  981MOL0     C35277   4.196  11.764   0.336  0.0082 -1.3486  0.8189
  981MOL0     C35278   4.042  11.769   0.347  0.0813 -0.2073  1.1779
  981MOL0     C35279   4.002  11.918   0.346 -0.3380  0.3060 -0.2488
  981MOL0     C35280   3.865  11.934   0.296  0.5500  0.0790 -1.5936
  981MOL0     C35281   3.832  12.079   0.249  0.0819  0.6049  0.1033
  981MOL0     C35282   3.867  12.182   0.364 -0.5893 -1.0852  0.2762
  981MOL0     C35283   3.935  12.311   0.304  0.1711 -0.6708 -0.5708
  981MOL0     C35284   4.074  12.279   0.255  0.1776  0.4015 -0.8377
  981MOL0    Cl35285   4.148  12.433   0.202 -0.4028  0.1247 -0.2042
  981MOL0     C35286   4.260  11.904   0.660  0.0387 -1.0053 -0.5155
  981MOL0     C35287   4.277  11.885   0.791 -0.6782  0.3151 -0.2674
  981MOL0     O35288   4.422  11.910   1.027 -0.7445  0.3478  0.8223
  981MOL0     C35289   4.358  11.603   1.212 -0.6760  0.4772  0.8061
  981MOL0     C35290   4.384  11.539   1.332 -0.5415 -0.0543 -0.2119
  981MOL0     N35291   4.940  11.330   1.893 -0.0516 -0.0046 -0.9959
  981MOL0     N35292   5.043  11.276   1.939 -0.3465  0.0691  0.1423
  981MOL0     C35293   5.704  10.042   1.986 -0.2803  0.8340  0.0452
  981MOL0     C35294   5.810   9.956   1.946  0.5122  0.1860 -0.1745
  981MOL0     C35295   6.037   9.665   1.653 -0.4087 -0.2896  0.1024
  981MOL0     C35296   6.131   9.673   1.544 -0.1739  0.2517  0.7236
  981MOL0     C35297   6.224   9.571   1.510 -0.1313  0.0156  0.1684
  981MOL0     C35298   6.217   9.449   1.576 -0.9158  0.0973 -1.0634
  981MOL0     O35299   6.313   9.348   1.537 -0.6009 -0.0877 -0.0383
  981MOL0     C35300   6.261   9.218   1.500 -0.6542  0.3974  0.0074
  981MOL0     C35301   6.368   9.111   1.487 -0.1581 -1.2368  0.5054
  981MOL0     C35302   6.431   9.075   1.619 -1.2171  0.0881 -0.0397
  981MOL0     C35303   6.536   8.962   1.611 -0.1683 -0.2241  0.0913
  981MOL0     C35304   6.669   9.018   1.607  0.9815  0.1238 -0.3974
  981MOL0     C35305   6.770   9.070   1.609 -0.5261  0.2284  0.3593
  981MOL0     C35306   6.135   9.431   1.687  0.1098  0.8679 -0.9683
  981MOL0     C35307   6.041   9.536   1.721  0.2856  0.1552 -0.7251
  981MOL0     C35308   5.960   9.502   1.845 -0.0012 -0.1261  0.4189
  981MOL0     H35309   5.659   9.834   1.665  2.7668  0.4359  0.2281
  981MOL0     H35310   5.469   9.967   1.747 -0.2597 -2.1339 -0.1930
  981MOL0     H35311   5.386  10.207   1.792  1.2400  2.2366 -1.7463
  981MOL0     H35312   5.538  10.283   1.829  1.2252 -0.2514 -0.0992
  981MOL0     H35313   5.294  10.304   2.011  0.1447 -1.3391 -0.3388
  981MOL0     H35314   5.445  10.381   2.043 -0.9694 -4.9391  2.7672
  981MOL0     H35315   5.445  10.506   1.811 -1.5139  1.9785 -1.2224
  981MOL0     H35316   5.288  10.448   1.783  1.3770  1.0880 -1.0082
  981MOL0     H35317   5.275  10.555   2.043  0.4429  0.0767  0.5276
  981MOL0     H35318   5.402  10.652   1.972  0.1799  1.2903 -0.5381
  981MOL0     H35319   5.110  10.631   1.891 -0.1601 -1.1738  0.8523
  981MOL0     H35320   5.238  10.696   1.788  1.5742  2.5593  1.2684
  981MOL0     H35321   5.199  10.795   2.075  3.3258 -1.1515  0.4072
  981MOL0     H35322   5.312  10.876   1.972 -0.6873  0.3412  4.8936
  981MOL0     H35323   5.010  10.876   1.933  0.6098  0.3001  1.8895
  981MOL0     H35324   5.128  10.943   1.821 -4.4125 -0.8128 -0.2472
  981MOL0     H35325   5.086  11.008   2.123  1.8299 -1.1165  0.2338
  981MOL0     H35326   5.201  11.089   2.026  0.4717 -1.7743  2.1884
  981MOL0     H35327   4.825  11.027   1.962  0.0906 -0.3528 -0.6079
  981MOL0     H35328   4.640  11.308   1.941 -0.1017  0.7063 -1.6017
  981MOL0     H35329   4.654  11.160   1.847  1.2820 -1.3945  2.0714
  981MOL0     H35330   4.767  11.405   1.732  0.7099 -1.7492  0.1240
  981MOL0     H35331   4.720  11.265   1.639 -3.0704 -1.3451 -0.8861
  981MOL0     H35332   4.488  11.308   1.683  1.7172 -0.7528 -1.0046
  981MOL0     H35333   4.525  11.457   1.779  1.5309 -1.3269  1.2723
  981MOL0     H35334   4.659  11.542   1.585  0.8096 -0.9343  1.1354
  981MOL0     H35335   4.586  11.416   1.479 -3.3909 -1.3077  0.6003
  981MOL0     H35336   4.534  11.792   1.498  1.4928  1.8870 -1.1076
  981MOL0     H35337   4.553  12.019   1.237 -1.3031  1.8669 -2.2622
  981MOL0     H35338   4.466  12.015   1.399 -0.4284  2.4744 -1.2304
  981MOL0     H35339   4.378  12.012   1.246  0.8368  0.7024  0.1463
  981MOL0     H35340   4.331  11.547   0.778  1.9191 -0.0678  0.0963
  981MOL0     H35341   4.322  11.617   0.523  1.3429  3.9767 -2.7745
  981MOL0     H35342   4.222  11.799   0.235  0.2570 -1.4349  0.8527
  981MOL0     H35343   4.228  11.659   0.334 -0.7374 -1.6284 -2.2018
  981MOL0     H35344   3.994  11.714   0.266 -4.6853  1.2848  2.6664
  981MOL0     H35345   4.007  11.724   0.440 -2.0411  1.4526  1.2757
  981MOL0     H35346   4.065  11.981   0.283 -1.3260  1.6480  0.0545
  981MOL0     H35347   4.012  11.960   0.447  0.5294  0.9908 -0.6092
  981MOL0     H35348   3.802  11.909   0.381 -0.7087  0.4124 -2.4098
  981MOL0     H35349   3.837  11.869   0.212 -0.5546  0.3164 -1.4171
  981MOL0     H35350   3.883  12.108   0.157 -0.3412  2.1369  0.3388
  981MOL0     H35351   3.724  12.075   0.237 -0.0330  0.3066  1.1279
  981MOL0     H35352   3.940  12.153   0.440 -2.6091 -3.6571  1.3846
  981MOL0     H35353   3.777  12.194   0.423 -0.7392 -1.3243  0.0986
  981MOL0     H35354   3.930  12.389   0.380 -3.7180 -2.7457  1.6423
  981MOL0     H35355   3.876  12.331   0.214 -2.5481  3.1546  1.7918
  981MOL0     H35356   4.077  12.205   0.174  0.1493  3.1138 -3.5318
  981MOL0     H35357   4.130  12.233   0.336  1.4064 -3.0691 -3.4070
  981MOL0     H35358   4.257  12.011   0.638  0.7720 -0.5628  1.3062
  981MOL0     H35359   4.272  11.971   0.857  0.8289  2.0962 -2.3362
  981MOL0     H35360   4.314  11.544   1.132  1.3074  1.7080 -1.3124
  981MOL0     H35361   4.363  11.435   1.354  3.8337 -1.2480 -0.7990
  981MOL0     H35362   5.726  10.105   2.072  0.5969  0.6099 -0.0066
  981MOL0     H35363   5.904   9.965   1.999  0.2727 -0.1930  0.3243
  981MOL0     H35364   6.133   9.757   1.477  1.7159  0.4854  1.0026
  981MOL0     H35365   6.290   9.599   1.429  0.0212  2.2142  0.9803
  981MOL0     H35366   6.197   9.185   1.582 -3.5950  1.8619 -1.5157
  981MOL0     H35367   6.204   9.225   1.407  2.3721 -2.2491 -2.2550
  981MOL0     H35368   6.447   9.149   1.421 -1.8815  2.2573  0.2138
  981MOL0     H35369   6.318   9.028   1.435  0.4171 -1.1447 -0.2135
  981MOL0     H35370   6.466   9.170   1.662  0.0882 -0.4070  0.0350
  981MOL0     H35371   6.353   9.042   1.689 -0.3952  2.3424  2.0981
  981MOL0     H35372   6.519   8.906   1.519  2.0472  2.7700 -2.3378
  981MOL0     H35373   6.533   8.903   1.704  2.5592  0.7638  0.9102
  981MOL0     H35374   6.867   9.115   1.617 -0.9791  1.1128  0.9830
  981MOL0     H35375   6.131   9.342   1.749 -0.0201  0.0808 -2.0739
  981MOL0     H35376   5.986   9.571   1.926  2.6494 -1.9264  1.2197
  981MOL0     H35377   5.854   9.514   1.823  0.4969  1.5727 -1.4309
  981MOL0     H35378   5.997   9.409   1.889  2.8027  1.4353  1.6577
  982MOL0     O35379   3.883   5.848   5.620  0.7318 -0.4921  0.1431
  982MOL0     C35380   3.810   5.908   5.698  0.0391 -0.5183  1.8963
  982MOL0     O35381   3.857   6.024   5.756 -0.0331 -0.6955  0.5297
  982MOL0     C35382   3.943   6.109   5.703  0.2489 -1.1315 -1.1196
  982MOL0     C35383   4.003   6.115   5.578  0.7045  0.7494 -0.0207
  982MOL0     C35384   4.098   6.212   5.539 -0.5646  0.0091 -0.3685
  982MOL0     C35385   4.140   6.304   5.643 -0.4166  0.1594  0.3553
  982MOL0     O35386   4.244   6.388   5.609 -0.0852 -0.9904  0.5032
  982MOL0     C35387   4.241   6.528   5.659 -0.0766  0.1490 -0.3948
  982MOL0     C35388   4.117   6.599   5.606  0.5410 -0.0770 -0.2039
  982MOL0     C35389   4.102   6.741   5.656  1.0880 -0.1892  0.4094
  982MOL0     C35390   4.204   6.786   5.753 -0.2235 -0.6295  0.0685
  982MOL0     C35391   4.174   6.919   5.830 -1.0167 -0.4743 -0.1343
  982MOL0     C35392   4.240   6.920   5.960  1.0423  0.4400 -0.0458
  982MOL0     C35393   4.222   7.049   6.047  0.9517 -0.6934  0.8329
  982MOL0     C35394   4.323   7.160   6.032 -0.5199 -0.3026 -0.5920
  982MOL0     N35395   4.273   7.297   6.045  0.1220  0.8802  0.4569
  982MOL0     C35396   4.222   7.358   6.160 -0.3827  1.2081  0.2074
  982MOL0     C35397   4.184   7.485   6.125 -0.8216 -0.4440 -0.5074
  982MOL0     C35398   4.120   7.572   6.227  1.3842  0.5396  1.0757
  982MOL0     C35399   4.032   7.675   6.162  0.3781 -1.1037 -0.3938
  982MOL0     C35400   3.978   7.779   6.259  0.1663 -0.0925  0.1759
  982MOL0     C35401   4.065   7.902   6.268 -0.4104  1.0990 -0.0684
  982MOL0     O35402   4.067   7.975   6.146  0.0009  0.0586 -0.2000
  982MOL0     C35403   3.971   8.065   6.118 -0.1965 -0.1179  0.4231
  982MOL0     C35404   3.968   8.145   5.994 -0.9163  0.0720  0.0969
  982MOL0     C35405   3.870   8.243   5.959  0.4262  0.3612 -0.3950
  982MOL0     C35406   3.886   8.304   5.820 -0.0617  0.8062  0.6788
  982MOL0     C35407   3.774   8.278   6.063  0.0592 -0.2706  0.7746
  982MOL0     C35408   3.689   8.394   6.059  0.5681 -0.5127 -0.5638
  982MOL0     O35409   3.568   8.377   6.122 -0.1871 -0.4346 -0.9965
  982MOL0     C35410   3.442   8.426   6.088  0.8002  0.1059 -0.1211
  982MOL0     C35411   3.410   8.468   5.963 -0.6250 -0.0763  0.4819
  982MOL0     C35412   3.273   8.496   5.932 -1.2012  0.8821  0.5912
  982MOL0     C35413   3.170   8.464   6.023 -0.1722  0.3987 -0.0938
  982MOL0     O35414   3.041   8.469   5.975  0.4809 -0.3516  0.1903
  982MOL0     C35415   2.992   8.566   5.882  0.3306 -0.8059  0.2933
  982MOL0     C35416   3.009   8.704   5.943  0.9244 -0.6212  0.5451
  982MOL0     C35417   2.894   8.804   5.892  0.6629 -0.2693 -0.0025
  982MOL0     C35418   2.898   8.930   5.979 -0.2326  0.1782 -0.0630
  982MOL0     C35419   2.787   9.035   5.956 -1.0083  0.7991  0.3394
  982MOL0     C35420   2.638   8.995   5.973  0.2696 -0.0262  0.1350
  982MOL0     C35421   2.626   8.922   6.104 -0.0042  0.9736  0.3237
  982MOL0     C35422   2.483   8.863   6.132 -0.8400  0.1998  0.2824
  982MOL0    Cl35423   2.462   8.779   6.283 -0.2956  0.0993 -0.1709
  982MOL0     C35424   3.200   8.418   6.152 -0.2982 -0.4274 -0.0186
  982MOL0     C35425   3.334   8.401   6.180  0.1369 -1.0349 -0.8289
  982MOL0     O35426   3.711   8.489   5.986 -0.2851  0.7741  0.1039
  982MOL0     C35427   3.768   8.196   6.177 -0.9565 -0.5041 -0.4994
  982MOL0     C35428   3.865   8.100   6.200 -0.2634  0.1058  0.4662
  982MOL0     N35429   4.213   7.489   5.991  0.1370  0.2245 -0.4335
  982MOL0     N35430   4.245   7.377   5.935  0.6993 -0.8498 -0.8706
  982MOL0     C35431   4.077   6.305   5.765 -0.3802  0.4498 -1.0478
  982MOL0     C35432   3.971   6.214   5.791 -0.2418 -0.4572 -0.1127
  982MOL0     C35433   3.680   5.860   5.733 -0.0401 -0.4962  0.9551
  982MOL0     C35434   3.610   5.941   5.833 -0.0328  0.8738 -0.3058
  982MOL0     C35435   3.486   5.907   5.871  0.6819  0.0201 -0.3479
  982MOL0     C35436   3.413   5.796   5.836 -0.2197  1.3285  0.1424
  982MOL0     O35437   3.288   5.762   5.883 -0.2415  0.2891  0.5619
  982MOL0     C35438   3.209   5.661   5.827 -0.7970 -0.0804  0.2962
  982MOL0     C35439   3.233   5.527   5.903 -0.3199 -0.0397 -0.1862
  982MOL0     C35440   3.162   5.411   5.822 -0.6786  0.4775 -0.7196
  982MOL0     C35441   3.151   5.289   5.914  0.3058 -0.0748 -0.5688
  982MOL0     C35442   3.271   5.251   5.967 -0.6076  0.0881  0.0357
  982MOL0     C35443   3.378   5.213   6.016 -0.5761 -0.8019  0.0172
  982MOL0     C35444   3.482   5.716   5.747 -0.6511 -0.3727 -0.1138
  982MOL0     C35445   3.612   5.736   5.696  0.3135 -0.4266 -0.4428
  982MOL0     C35446   3.658   5.649   5.581  0.1053 -0.2828 -0.8105
  982MOL0     H35447   3.967   6.045   5.503 -0.0091 -1.1399  2.0026
  982MOL0     H35448   4.147   6.208   5.443 -0.6038 -3.4870 -0.3709
  982MOL0     H35449   4.339   6.568   5.632  2.2643 -3.4977  1.8194
  982MOL0     H35450   4.246   6.531   5.768 -2.5485  0.7025 -0.2408
  982MOL0     H35451   4.110   6.600   5.496  1.8774  1.7757 -0.3272
  982MOL0     H35452   4.026   6.548   5.638 -2.4523  4.9897  0.5356
  982MOL0     H35453   4.118   6.799   5.564 -1.7117 -1.6493 -1.1461
  982MOL0     H35454   3.995   6.750   5.678  0.2517  1.5283 -3.3603
  982MOL0     H35455   4.220   6.712   5.832  2.5907 -0.4723 -0.2566
  982MOL0     H35456   4.299   6.798   5.699 -0.1232 -1.1707  0.1165
  982MOL0     H35457   4.070   6.948   5.849 -0.2445  2.3188  0.1332
  982MOL0     H35458   4.220   6.993   5.764 -0.1276 -1.3402 -0.5185
  982MOL0     H35459   4.195   6.850   6.031  3.7846 -0.0522  1.3736
  982MOL0     H35460   4.345   6.890   5.964  0.5485 -1.2985  0.8061
  982MOL0     H35461   4.203   7.029   6.153 -1.5203 -2.1100  0.1781
  982MOL0     H35462   4.129   7.099   6.018  2.5750  2.8117  1.0297
  982MOL0     H35463   4.402   7.141   6.104 -1.7428  2.4272  1.6837
  982MOL0     H35464   4.365   7.168   5.931  2.5330  3.7687  0.7338
  982MOL0     H35465   4.217   7.319   6.261  1.9552  2.0642  0.7263
  982MOL0     H35466   4.190   7.621   6.295  1.1779  3.6418 -0.7964
  982MOL0     H35467   4.059   7.514   6.297  0.4794  3.9844  3.3973
  982MOL0     H35468   4.095   7.713   6.081  2.5165  0.7774  1.9443
  982MOL0     H35469   3.947   7.631   6.111 -0.7333 -0.4462  0.8170
  982MOL0     H35470   3.887   7.829   6.225  0.8421  0.9259 -0.1905
  982MOL0     H35471   3.965   7.725   6.353  2.6181 -0.8522  0.1473
  982MOL0     H35472   4.042   7.966   6.354  3.1899  3.0068 -0.3337
  982MOL0     H35473   4.168   7.867   6.284 -1.3327 -1.3332  1.0876
  982MOL0     H35474   4.031   8.107   5.915 -1.5513 -0.5599 -0.1159
  982MOL0     H35475   3.833   8.248   5.742  0.7591 -0.4290  0.9746
  982MOL0     H35476   3.992   8.296   5.791 -0.0422 -0.4514  1.0209
  982MOL0     H35477   3.869   8.411   5.809 -3.0746  0.1639 -3.1663
  982MOL0     H35478   3.482   8.478   5.882 -1.8397 -0.1006 -0.6383
  982MOL0     H35479   3.253   8.528   5.830  0.8313  1.2818  0.2814
  982MOL0     H35480   3.057   8.569   5.794  1.3588  0.6962  1.0598
  982MOL0     H35481   2.891   8.552   5.844  0.7985  2.1888 -2.5309
  982MOL0     H35482   2.994   8.691   6.051 -1.8762  1.3138  0.5034
  982MOL0     H35483   3.112   8.737   5.930  0.5603  3.2835  4.8549
  982MOL0     H35484   2.800   8.750   5.907 -0.4759  1.3164 -1.0403
  982MOL0     H35485   2.906   8.828   5.786 -0.0028  4.9116  0.8259
  982MOL0     H35486   2.999   8.963   5.953  0.0408 -0.6272 -0.0486
  982MOL0     H35487   2.891   8.898   6.083 -2.6500 -2.8868 -1.0115
  982MOL0     H35488   2.805   9.119   6.024 -1.1294  0.5807  0.6443
  982MOL0     H35489   2.794   9.053   5.848 -2.1236 -1.0101 -0.0802
  982MOL0     H35490   2.605   8.917   5.903  2.0160 -0.0710 -0.6964
  982MOL0     H35491   2.564   9.074   5.962 -1.9270 -2.1602 -1.6233
  982MOL0     H35492   2.643   8.997   6.181 -0.8513  0.8955  0.5989
  982MOL0     H35493   2.692   8.835   6.092  0.7079  1.8650 -4.2559
  982MOL0     H35494   2.468   8.794   6.048  1.3677  0.3382 -0.2906
  982MOL0     H35495   2.404   8.938   6.126  0.3829  1.6671  1.6814
  982MOL0     H35496   3.125   8.403   6.229  0.8754  1.3938  1.5542
  982MOL0     H35497   3.364   8.370   6.279  1.8212  1.6977 -0.3677
  982MOL0     H35498   3.698   8.213   6.259 -1.5713 -0.4471 -1.0274
  982MOL0     H35499   3.862   8.047   6.295  2.1207  0.3068  0.7214
  982MOL0     H35500   4.107   6.372   5.845 -0.4208 -0.4683 -0.2463
  982MOL0     H35501   3.931   6.230   5.891 -1.5514  2.5287 -0.9930
  982MOL0     H35502   3.659   6.022   5.885  1.2919 -0.5136  0.6831
  982MOL0     H35503   3.438   5.977   5.937  0.7384 -0.2376 -0.0295
  982MOL0     H35504   3.108   5.703   5.829  0.3570  3.2070 -1.4707
  982MOL0     H35505   3.224   5.647   5.719 -1.4271 -0.6322  0.2750
  982MOL0     H35506   3.195   5.544   6.004 -0.3380 -0.9771 -0.0256
  982MOL0     H35507   3.341   5.507   5.908 -0.2946 -1.4682 -3.6574
  982MOL0     H35508   3.063   5.438   5.785 -0.9875  0.1909 -0.1155
  982MOL0     H35509   3.227   5.386   5.738  0.3333 -3.1186  0.9249
  982MOL0     H35510   3.112   5.206   5.855  0.1457 -1.0397  0.8438
  982MOL0     H35511   3.077   5.308   5.993  1.3010 -1.6857  0.8026
  982MOL0     H35512   3.475   5.184   6.049  0.2908  0.7552 -1.0136
  982MOL0     H35513   3.447   5.621   5.709  0.7709 -0.4758 -1.2475
  982MOL0     H35514   3.757   5.606   5.595  1.2369  0.7906 -4.3582
  982MOL0     H35515   3.587   5.575   5.543  1.3598 -1.0586 -1.7212
  982MOL0     H35516   3.683   5.712   5.495 -1.4460  1.5757  0.0019
  983MOL0     O35517   1.533  11.481   2.994 -0.1032  0.3005 -0.9435
  983MOL0     C35518   1.553  11.573   2.914 -0.5273  0.6029  0.4198
  983MOL0     O35519   1.668  11.600   2.849 -0.3146 -0.8031  0.0753
  983MOL0     C35520   1.742  11.491   2.809  0.1338  0.5894 -0.9651
  983MOL0     C35521   1.746  11.462   2.676 -0.1048 -0.2293 -0.0060
  983MOL0     C35522   1.815  11.357   2.621  0.4238 -0.0569 -0.5204
  983MOL0     C35523   1.893  11.270   2.704 -0.3563  0.2627 -0.4313
  983MOL0     O35524   1.946  11.163   2.636  0.0190  1.1767 -0.0962
  983MOL0     C35525   2.069  11.109   2.674  0.1550  0.6435  0.3625
  983MOL0     C35526   2.042  10.987   2.759 -0.3433  0.2787  0.0637
  983MOL0     C35527   1.984  10.873   2.679 -0.4877 -0.9587 -0.6681
  983MOL0     C35528   1.958  10.765   2.776 -0.2198 -0.0646 -0.4721
  983MOL0     C35529   1.957  10.623   2.714  0.2302 -0.3918  0.3402
  983MOL0     C35530   1.877  10.526   2.806  0.1771  0.2555 -0.0113
  983MOL0     C35531   1.962  10.492   2.935 -0.1428 -0.1157  0.2222
  983MOL0     C35532   1.915  10.364   3.008  0.4764 -0.4679 -0.1249
  983MOL0     N35533   1.775  10.373   3.050 -0.1775  0.3289 -0.3209
  983MOL0     C35534   1.659  10.326   2.993 -0.5395 -0.0696  0.2062
  983MOL0     C35535   1.554  10.360   3.078 -0.2485  0.2182  1.2223
  983MOL0     C35536   1.404  10.321   3.055  0.9088  0.7413 -0.0578
  983MOL0     C35537   1.293  10.433   3.038  0.4069 -0.9003 -0.3047
  983MOL0     C35538   1.278  10.539   3.150 -0.7752  0.6585  0.1289
  983MOL0     C35539   1.137  10.540   3.206  1.0313 -0.0785  0.1000
  983MOL0     O35540   1.051  10.551   3.094  0.5456  0.3631  0.6333
  983MOL0     C35541   0.917  10.554   3.105  0.0191  0.6096  0.5252
  983MOL0     C35542   0.837  10.533   2.990  1.1168  0.2577 -0.4141
  983MOL0     C35543   0.694  10.541   3.002 -0.1165 -0.2468  0.4617
  983MOL0     C35544   0.615  10.497   2.885 -0.0447 -0.5723 -0.4334
  983MOL0     C35545   0.632  10.580   3.123  0.0718  0.1133  0.6703
  983MOL0     C35546   0.486  10.571   3.145 -0.1663 -0.1669  0.3644
  983MOL0     O35547   0.378  10.647   3.079  0.3228  0.8644  0.1406
  983MOL0     C35548   0.400  10.753   2.996  0.1097 -0.5140  0.0925
  983MOL0     C35549   0.489  10.847   3.016 -0.3246  0.2132 -0.2316
  983MOL0     C35550   0.499  10.954   2.937 -0.1081 -0.3897 -0.1031
  983MOL0     C35551   0.406  10.983   2.846  0.0251 -0.3225  1.5144
  983MOL0     O35552   0.416  11.091   2.760  0.5828 -0.4810 -0.6276
  983MOL0     C35553   0.416  11.224   2.813 -0.0788 -0.4255  0.4562
  983MOL0     C35554   0.440  11.315   2.691 -0.2370 -0.4950  0.5465
  983MOL0     C35555   0.439  11.455   2.749  0.9087  0.0286  0.3361
  983MOL0     C35556   0.438  11.544   2.620  0.1977 -0.8139  0.5395
  983MOL0     C35557   0.392  11.683   2.652  1.2622  0.8846 -0.2835
  983MOL0     C35558   0.395  11.765   2.524 -0.4252  0.3291  0.0297
  983MOL0     C35559   0.390  11.909   2.567 -0.1596 -0.7596 -0.2747
  983MOL0     C35560   0.388  12.016   2.462  0.1306  0.2114  0.1602
  983MOL0    Cl35561   0.550  12.025   2.388 -0.6775  0.1003 -0.2204
  983MOL0     C35562   0.302  10.895   2.834  0.1296 -0.2618 -0.2742
  983MOL0     C35563   0.301  10.773   2.903  0.7963  0.0923 -0.0847
  983MOL0     O35564   0.463  10.504   3.239  0.1030  0.4831  0.0160
  983MOL0     C35565   0.714  10.615   3.233  0.7966  0.0158 -0.3606
  983MOL0     C35566   0.851  10.596   3.226 -0.6529  0.1568 -0.8328
  983MOL0     N35567   1.599  10.419   3.192 -0.8259  0.5640 -0.0005
  983MOL0     N35568   1.734  10.409   3.181 -0.2105  0.6298  1.1152
  983MOL0     C35569   1.912  11.307   2.839 -0.6695  0.7966 -0.0915
  983MOL0     C35570   1.832  11.417   2.892  0.0672  0.5359  0.7419
  983MOL0     C35571   1.456  11.684   2.911  0.0488 -0.2623  0.0027
  983MOL0     C35572   1.483  11.810   2.961  0.2714  0.5614 -0.2294
  983MOL0     C35573   1.382  11.904   2.985 -0.4838 -0.7585 -0.4209
  983MOL0     C35574   1.250  11.878   2.947  0.5249  0.0163  0.3700
  983MOL0     O35575   1.155  11.977   2.978  0.0689  0.0300  0.1688
  983MOL0     C35576   1.022  11.958   2.914 -0.0788 -0.9864 -0.3325
  983MOL0     C35577   0.931  12.081   2.955 -0.2095  0.0088  0.2061
  983MOL0     C35578   0.801  12.079   2.873 -0.1729 -0.1911  0.0950
  983MOL0     C35579   0.690  12.166   2.929 -0.5530 -0.2167 -0.5552
  983MOL0     C35580   0.578  12.160   2.838  0.1777 -0.2487  0.0257
  983MOL0     C35581   0.484  12.175   2.765  0.0026 -0.5667  0.0908
  983MOL0     C35582   1.227  11.762   2.876  0.3077 -0.2459  0.0406
  983MOL0     C35583   1.331  11.665   2.856  1.3541  0.6205  0.0549
  983MOL0     C35584   1.285  11.532   2.790 -0.3256  0.7790 -0.3951
  983MOL0     H35585   1.695  11.535   2.614  2.4930 -0.6870 -2.9245
  983MOL0     H35586   1.796  11.352   2.515 -0.2345 -0.1696 -0.4001
  983MOL0     H35587   2.127  11.181   2.733  1.6361 -1.1190  1.1719
  983MOL0     H35588   2.137  11.069   2.598 -1.1843 -2.7265  0.7625
  983MOL0     H35589   2.127  10.952   2.818 -0.9137 -1.2309  0.0342
  983MOL0     H35590   1.970  11.017   2.836 -0.3055 -0.8949  0.5790
  983MOL0     H35591   1.895  10.907   2.624 -1.0779 -1.0124  0.2369
  983MOL0     H35592   2.066  10.847   2.611 -0.0642 -0.9770 -0.1527
  983MOL0     H35593   2.033  10.762   2.856 -1.4290 -3.1728  0.7129
  983MOL0     H35594   1.861  10.776   2.825 -1.5456  0.9705 -3.1788
  983MOL0     H35595   2.057  10.591   2.685 -0.6991 -2.3222 -0.9808
  983MOL0     H35596   1.898  10.637   2.622  0.3929  1.5859  0.4998
  983MOL0     H35597   1.782  10.570   2.838 -0.3524  0.4462 -1.7688
  983MOL0     H35598   1.859  10.428   2.761  0.5583 -0.7930  1.9527
  983MOL0     H35599   1.966  10.574   3.007  2.4466  0.9136 -1.0021
  983MOL0     H35600   2.064  10.481   2.899  1.0954  5.7575  1.0347
  983MOL0     H35601   1.909  10.275   2.944 -2.4543 -1.8756  1.9060
  983MOL0     H35602   1.984  10.353   3.093 -0.7252  1.0707  1.1096
  983MOL0     H35603   1.639  10.295   2.891  0.2668  0.5118 -0.1404
  983MOL0     H35604   1.376  10.271   3.149 -1.0853  0.9081 -0.5162
  983MOL0     H35605   1.390  10.254   2.970 -0.8739 -2.2423  2.3583
  983MOL0     H35606   1.314  10.485   2.944  0.6068  0.1325  0.2948
  983MOL0     H35607   1.200  10.376   3.028 -1.6720  2.0185  1.1390
  983MOL0     H35608   1.336  10.509   3.238 -1.9767  1.8334  1.3742
  983MOL0     H35609   1.327  10.631   3.117 -0.0709 -0.1489 -1.1432
  983MOL0     H35610   1.111  10.454   3.269 -0.8096  0.9218  0.8060
  983MOL0     H35611   1.129  10.629   3.270  1.1638 -0.4199  0.5977
  983MOL0     H35612   0.877  10.500   2.894  0.6240 -2.8710  0.3440
  983MOL0     H35613   0.545  10.573   2.848 -0.7914 -2.1071 -2.3781
  983MOL0     H35614   0.565  10.400   2.886 -2.9350  0.7995  0.0076
  983MOL0     H35615   0.690  10.467   2.812  0.8817 -2.1325  1.0935
  983MOL0     H35616   0.574  10.830   3.081 -0.1776 -0.2651 -0.5435
  983MOL0     H35617   0.592  11.005   2.961  0.7334 -2.5307  1.6477
  983MOL0     H35618   0.334  11.244   2.882 -0.7920 -2.7816  0.3751
  983MOL0     H35619   0.506  11.223   2.876 -0.0283 -2.7229  0.4449
  983MOL0     H35620   0.538  11.285   2.651 -0.2380  1.6262 -1.2473
  983MOL0     H35621   0.366  11.294   2.614  2.4581  0.1606 -2.4277
  983MOL0     H35622   0.522  11.478   2.816 -0.6382 -0.2615  2.4400
  983MOL0     H35623   0.348  11.465   2.809  1.2218 -0.5513  0.9184
  983MOL0     H35624   0.367  11.503   2.547  1.8988  0.0621 -1.7471
  983MOL0     H35625   0.526  11.547   2.555 -0.8897  1.9003 -0.9957
  983MOL0     H35626   0.292  11.679   2.698  1.0857  0.1910 -0.7074
  983MOL0     H35627   0.455  11.734   2.725 -0.5917  1.7128  0.8158
  983MOL0     H35628   0.316  11.737   2.454 -0.5966 -0.5452  0.5609
  983MOL0     H35629   0.491  11.745   2.477  0.0473 -4.5055  2.4382
  983MOL0     H35630   0.470  11.938   2.635 -2.6030  0.9137  2.1170
  983MOL0     H35631   0.301  11.932   2.626  0.6243  5.5044 -0.7817
  983MOL0     H35632   0.350  12.112   2.496 -2.1854 -0.8894  0.8730
  983MOL0     H35633   0.313  11.982   2.390  0.2140  1.4954 -0.5474
  983MOL0     H35634   0.234  10.925   2.755 -1.3361 -5.3190 -1.3026
  983MOL0     H35635   0.213  10.712   2.881 -0.6724  2.7689 -2.3324
  983MOL0     H35636   0.676  10.626   3.333  1.8806  4.5330 -0.2401
  983MOL0     H35637   0.905  10.610   3.319 -4.3306 -2.0633  1.9477
  983MOL0     H35638   1.958  11.234   2.904 -1.2949 -0.8864 -1.4660
  983MOL0     H35639   1.838  11.437   2.998 -1.7676  0.0627  0.9686
  983MOL0     H35640   1.587  11.833   2.984  0.8903 -0.3001 -1.9615
  983MOL0     H35641   1.398  11.999   3.034 -3.5221 -2.0052  3.5947
  983MOL0     H35642   1.033  11.969   2.806 -4.0297  1.3389 -0.6831
  983MOL0     H35643   0.979  11.863   2.946  2.6910 -1.7008  1.6044
  983MOL0     H35644   0.982  12.177   2.942  0.4470  0.0563  2.6371
  983MOL0     H35645   0.906  12.062   3.060 -3.0553  1.3720 -0.1273
  983MOL0     H35646   0.830  12.107   2.772  1.0816 -2.5406 -0.2640
  983MOL0     H35647   0.764  11.977   2.873  2.1912 -1.1178 -1.0545
  983MOL0     H35648   0.728  12.266   2.947 -1.5097  0.2117 -0.8596
  983MOL0     H35649   0.656  12.128   3.026 -2.0313  0.5887 -0.7288
  983MOL0     H35650   0.393  12.179   2.710  1.9840  0.6115 -3.4406
  983MOL0     H35651   1.137  11.751   2.817  1.3978 -0.7332 -1.5884
  983MOL0     H35652   1.372  11.488   2.741 -0.5070 -0.5116  0.4030
  983MOL0     H35653   1.265  11.461   2.870 -0.2118  1.1113 -0.0733
  983MOL0     H35654   1.202  11.535   2.718 -1.1894 -1.8406  0.3985
  984MOL0     O35655   7.904   1.826   3.435  0.5360 -0.0230 -0.1177
  984MOL0     C35656   8.013   1.792   3.399  0.8142 -0.0382  0.5895
  984MOL0     O35657   8.068   1.832   3.281 -0.1077 -0.3349 -0.0244
  984MOL0     C35658   7.984   1.873   3.167  0.3629 -0.3764 -0.4276
  984MOL0     C35659   7.889   1.784   3.120 -0.0727 -0.0347 -0.2246
  984MOL0     C35660   7.839   1.802   2.994 -0.6875 -0.4718 -0.8019
  984MOL0     C35661   7.856   1.917   2.918 -0.7068  0.0123 -0.4209
  984MOL0     O35662   7.778   1.943   2.810  0.3147 -0.6718  0.0613
  984MOL0     C35663   7.795   2.055   2.724 -0.2315 -0.8430  0.2906
  984MOL0     C35664   7.882   2.025   2.605 -0.4749  0.2514  0.3942
  984MOL0     C35665   7.809   1.934   2.503  1.2123 -1.3216  0.8521
  984MOL0     C35666   7.731   2.035   2.403  0.9563 -0.4118 -0.6683
  984MOL0     C35667   7.663   1.968   2.282  0.7648  0.4749  0.4483
  984MOL0     C35668   7.524   1.934   2.328  0.0303  0.3276 -0.2691
  984MOL0     C35669   7.444   1.890   2.197 -0.0195 -0.1129  0.1778
  984MOL0     C35670   7.427   1.740   2.174  0.8779  0.7760  0.3979
  984MOL0     N35671   7.396   1.673   2.295 -0.2444 -0.0893  0.5204
  984MOL0     C35672   7.283   1.695   2.369 -0.0983  0.2782  0.2410
  984MOL0     C35673   7.285   1.609   2.467 -0.4303 -0.0782 -0.4579
  984MOL0     C35674   7.196   1.597   2.596  0.3918 -0.8968 -0.4696
  984MOL0     C35675   7.043   1.638   2.592  0.7834  1.0567 -0.7940
  984MOL0     C35676   6.952   1.529   2.524 -0.0377  0.3395  0.4906
  984MOL0     C35677   6.806   1.558   2.545 -0.3885 -0.6106  0.3243
  984MOL0     O35678   6.766   1.480   2.656  0.6280 -0.1702 -0.4651
  984MOL0     C35679   6.663   1.541   2.726  0.3636  0.3778  0.1379
  984MOL0     C35680   6.683   1.577   2.864  0.5469  0.2390  0.0713
  984MOL0     C35681   6.573   1.649   2.933  0.1813  1.2002 -1.0309
  984MOL0     C35682   6.596   1.685   3.074  0.1317 -0.0178 -0.7097
  984MOL0     C35683   6.456   1.665   2.863  0.2118  0.5945 -0.6618
  984MOL0     C35684   6.334   1.727   2.929 -0.8141 -0.1627  0.0184
  984MOL0     O35685   6.293   1.686   3.053  0.4224 -0.6618  0.4721
  984MOL0     C35686   6.216   1.786   3.108  0.4723 -0.1205 -0.5081
  984MOL0     C35687   6.277   1.903   3.153  0.3091 -0.3772  0.4010
  984MOL0     C35688   6.205   2.008   3.216 -0.1324 -0.2568 -0.2848
  984MOL0     C35689   6.073   2.002   3.213  0.5478 -0.5179 -0.0848
  984MOL0     O35690   5.988   2.105   3.261 -0.2086  0.6803  0.0257
  984MOL0     C35691   6.007   2.236   3.227  0.7294 -1.1770  0.3629
  984MOL0     C35692   5.905   2.307   3.304  0.0433 -0.4333  0.2853
  984MOL0     C35693   5.916   2.455   3.314  0.8005  0.7160  1.5087
  984MOL0     C35694   5.799   2.530   3.395 -0.6779 -1.1934  0.0176
  984MOL0     C35695   5.768   2.459   3.525  0.0071  0.1391 -0.3162
  984MOL0     C35696   5.678   2.558   3.599  0.7313 -0.0818 -0.1640
  984MOL0     C35697   5.630   2.484   3.715  0.3328 -0.2044 -0.0489
  984MOL0     C35698   5.514   2.564   3.783 -0.1171  0.3967 -0.4227
  984MOL0    Cl35699   5.576   2.694   3.897 -0.2301  0.0145 -0.0441
  984MOL0     C35700   6.008   1.881   3.180  0.5400  0.9122  1.3676
  984MOL0     C35701   6.084   1.774   3.129  0.2562  0.1648 -0.0086
  984MOL0     O35702   6.283   1.820   2.861 -0.3966 -0.6194 -0.2345
  984MOL0     C35703   6.443   1.623   2.729 -0.0294 -0.9282  0.6322
  984MOL0     C35704   6.543   1.567   2.661 -0.6858  0.5498  0.7493
  984MOL0     N35705   7.381   1.522   2.451  0.5820 -0.2394  0.0024
  984MOL0     N35706   7.453   1.554   2.343  0.2313 -0.5808  0.3969
  984MOL0     C35707   7.934   2.016   2.982 -0.2129  0.1388 -0.5955
  984MOL0     C35708   8.015   1.986   3.092 -0.0978 -0.2070  0.3180
  984MOL0     C35709   8.110   1.730   3.493  0.1921 -0.3290  1.1963
  984MOL0     C35710   8.244   1.760   3.477 -0.8464 -0.1751  0.1892
  984MOL0     C35711   8.340   1.689   3.554 -0.1996 -0.5253  0.2704
  984MOL0     C35712   8.303   1.589   3.641 -0.0654  0.2565 -0.2744
  984MOL0     O35713   8.387   1.518   3.728 -0.2462 -0.3272  0.3263
  984MOL0     C35714   8.532   1.530   3.703  0.6148 -0.9653 -0.9628
  984MOL0     C35715   8.608   1.466   3.814  0.0154 -0.1258 -0.4120
  984MOL0     C35716   8.656   1.327   3.768  0.2641 -0.0881 -0.3215
  984MOL0     C35717   8.783   1.327   3.673 -1.1764  0.3820  0.1665
  984MOL0     C35718   8.915   1.393   3.704 -0.1707  0.4657 -0.0011
  984MOL0     C35719   9.025   1.435   3.712 -1.6709  0.0327  0.0495
  984MOL0     C35720   8.166   1.563   3.655  0.4969 -0.4735  0.4372
  984MOL0     C35721   8.068   1.626   3.579  0.8869  1.1350 -0.6256
  984MOL0     C35722   7.917   1.580   3.592 -0.8280  0.3156  0.3237
  984MOL0     H35723   7.865   1.688   3.167 -0.6170  0.6595  0.9668
  984MOL0     H35724   7.779   1.718   2.960 -0.3491 -0.1628 -2.2322
  984MOL0     H35725   7.837   2.143   2.773 -2.5835  0.8995 -0.6147
  984MOL0     H35726   7.700   2.090   2.682  0.9045  3.8910  1.1367
  984MOL0     H35727   7.926   2.115   2.562  1.2264 -1.2119 -1.1373
  984MOL0     H35728   7.969   1.966   2.636 -0.8690 -0.9512 -0.6772
  984MOL0     H35729   7.882   1.879   2.443  2.0625  1.1378 -0.4689
  984MOL0     H35730   7.738   1.866   2.551 -1.1031 -1.0749 -1.9532
  984MOL0     H35731   7.660   2.096   2.460  4.7215  2.2237  1.5768
  984MOL0     H35732   7.805   2.105   2.365  0.7455  0.8022  1.0057
  984MOL0     H35733   7.717   1.874   2.267  1.0237  0.8704 -1.3091
  984MOL0     H35734   7.663   2.024   2.188 -3.0294  0.2366  0.1753
  984MOL0     H35735   7.533   1.858   2.405 -0.3823 -1.7160 -2.1351
  984MOL0     H35736   7.481   2.027   2.366  1.2734  0.4465  0.9204
  984MOL0     H35737   7.491   1.932   2.108 -1.6806  5.6556  1.6405
  984MOL0     H35738   7.342   1.919   2.225 -0.0404 -1.9770  2.4156
  984MOL0     H35739   7.357   1.714   2.094  0.9093 -0.5717  0.7869
  984MOL0     H35740   7.528   1.709   2.142  0.6724 -0.6983  1.0863
  984MOL0     H35741   7.218   1.780   2.350 -3.4268 -2.3776 -1.3564
  984MOL0     H35742   7.237   1.665   2.672  1.5740 -1.5224 -0.5217
  984MOL0     H35743   7.202   1.495   2.635 -1.9055 -0.3889  1.3954
  984MOL0     H35744   7.012   1.640   2.697  1.8425 -1.7901 -0.3399
  984MOL0     H35745   7.024   1.738   2.552 -0.5459  1.5650  0.9645
  984MOL0     H35746   6.974   1.529   2.417  2.1347  0.8629  0.8941
  984MOL0     H35747   6.976   1.432   2.567  1.2495  0.0302 -0.8444
  984MOL0     H35748   6.789   1.665   2.561  0.1737 -0.4719  0.0286
  984MOL0     H35749   6.748   1.521   2.460  0.5245 -0.1761 -0.5203
  984MOL0     H35750   6.778   1.564   2.916  2.0198 -0.9071 -2.6879
  984MOL0     H35751   6.601   1.588   3.126  3.5277  1.0349  1.2495
  984MOL0     H35752   6.513   1.734   3.125  0.2488 -1.5992  1.1349
  984MOL0     H35753   6.693   1.733   3.092  0.4918 -1.0723  0.2854
  984MOL0     H35754   6.382   1.915   3.130  0.7373 -3.0889  0.6265
  984MOL0     H35755   6.270   2.089   3.245  1.8837 -1.2744 -1.7347
  984MOL0     H35756   6.114   2.255   3.243  0.4393 -0.8878  2.1079
  984MOL0     H35757   5.997   2.265   3.122  0.7609  3.2264  1.3736
  984MOL0     H35758   5.798   2.291   3.285 -0.4192 -1.0777  3.0296
  984MOL0     H35759   5.912   2.258   3.401  2.7661  0.1837  0.4705
  984MOL0     H35760   5.935   2.501   3.217 -0.5373  2.0224  1.8374
  984MOL0     H35761   6.013   2.481   3.359  0.7277 -1.2169  2.9292
  984MOL0     H35762   5.718   2.526   3.321 -1.7624  2.1260  0.8628
  984MOL0     H35763   5.827   2.635   3.405 -0.4482 -1.0444 -1.8565
  984MOL0     H35764   5.711   2.366   3.511  1.5472 -1.0131  0.8294
  984MOL0     H35765   5.859   2.456   3.584  0.9536 -2.7513 -1.7472
  984MOL0     H35766   5.599   2.584   3.528  0.6901 -0.0936 -0.1223
  984MOL0     H35767   5.730   2.649   3.629 -1.3706  0.5831  1.7451
  984MOL0     H35768   5.712   2.470   3.786  0.5136 -0.7630 -0.3618
  984MOL0     H35769   5.591   2.384   3.690  1.2088 -0.6660  0.3927
  984MOL0     H35770   5.451   2.490   3.833  0.6694 -0.6143 -0.8980
  984MOL0     H35771   5.445   2.600   3.706 -1.0031 -2.6340 -1.1869
  984MOL0     H35772   5.901   1.878   3.193  0.1624  1.2303 -1.1195
  984MOL0     H35773   6.032   1.683   3.101 -1.4248  0.9253  0.4842
  984MOL0     H35774   6.362   1.640   2.659  0.7790  0.2875 -0.0568
  984MOL0     H35775   6.534   1.535   2.558 -1.8787  0.2406  0.9308
  984MOL0     H35776   7.943   2.115   2.937  1.9332  0.4040  0.2857
  984MOL0     H35777   8.086   2.058   3.132 -3.0007  2.3033  1.4269
  984MOL0     H35778   8.276   1.843   3.416 -0.3055  0.0083  0.7168
  984MOL0     H35779   8.445   1.711   3.543 -0.2547  1.1066  2.4706
  984MOL0     H35780   8.545   1.493   3.600  1.6083  2.1265 -2.0490
  984MOL0     H35781   8.566   1.633   3.714  5.5424 -2.3019 -1.0909
  984MOL0     H35782   8.553   1.446   3.907  1.1033 -1.9387 -0.1116
  984MOL0     H35783   8.695   1.524   3.845 -1.0464  0.9253  0.7194
  984MOL0     H35784   8.681   1.265   3.855  1.3319  3.1058  1.8486
  984MOL0     H35785   8.576   1.273   3.717  0.6570 -0.2503 -0.7768
  984MOL0     H35786   8.746   1.366   3.578  1.9569 -1.9389 -2.2325
  984MOL0     H35787   8.815   1.226   3.646 -0.8672  0.1719  1.2834
  984MOL0     H35788   9.122   1.480   3.710 -1.0119 -1.3363 -0.5390
  984MOL0     H35789   8.139   1.482   3.721  0.1726  1.4092  2.7495
  984MOL0     H35790   7.912   1.500   3.667  0.1919 -0.1904 -0.1253
  984MOL0     H35791   7.857   1.665   3.626 -2.7998 -0.2895 -1.4509
  984MOL0     H35792   7.886   1.544   3.494  0.1513  2.0777 -0.6616
  985MOL0     O35793  10.598  10.750   4.170  0.2271 -0.0334  0.0521
  985MOL0     C35794  10.527  10.822   4.242 -0.4408  0.7979  1.0162
  985MOL0     O35795  10.463  10.785   4.356  0.1685  0.8699 -0.7150
  985MOL0     C35796  10.448  10.658   4.390 -0.4588  0.3233 -0.1522
  985MOL0     C35797  10.396  10.560   4.302 -1.2697  0.2144 -0.0721
  985MOL0     C35798  10.391  10.427   4.358  0.4273  0.5663  0.2764
  985MOL0     C35799  10.440  10.396   4.482  0.6096 -0.0471 -0.6695
  985MOL0     O35800  10.440  10.263   4.530 -0.1197 -1.3831  0.2435
  985MOL0     C35801  10.562  10.210   4.586  0.2155 -0.3428 -0.2121
  985MOL0     C35802  10.548  10.060   4.606 -0.6543  0.2793  0.0413
  985MOL0     C35803  10.657  10.028   4.709  0.7539  0.1710 -0.2281
  985MOL0     C35804  10.694   9.879   4.722 -0.2699 -0.2020 -0.0213
  985MOL0     C35805  10.775   9.847   4.843 -0.6953  0.4466 -0.0718
  985MOL0     C35806  10.768   9.691   4.865  0.3421 -0.9010 -0.7729
  985MOL0     C35807  10.842   9.660   4.999 -0.3461  0.2391 -0.2957
  985MOL0     C35808  10.785   9.728   5.118  0.6190  0.1259  0.1795
  985MOL0     N35809  10.854   9.695   5.248  0.0027 -1.4095  0.9541
  985MOL0     C35810  10.783   9.680   5.362 -0.0908  0.7731 -0.8122
  985MOL0     C35811  10.887   9.656   5.450  0.8382 -0.4446 -0.1068
  985MOL0     C35812  10.866   9.630   5.593  0.1129  0.4185  0.5154
  985MOL0     C35813  10.839   9.767   5.654 -0.2054  0.2109  0.2991
  985MOL0     C35814  10.741   9.759   5.768 -0.5660  0.8504 -0.2648
  985MOL0     C35815  10.795   9.663   5.876  0.8172 -0.4177  0.3552
  985MOL0     O35816  10.700   9.604   5.958 -0.7105  0.1529  0.4066
  985MOL0     C35817  10.723   9.525   6.061 -0.6628  0.2429  1.1022
  985MOL0     C35818  10.855   9.498   6.105 -0.3688 -0.2710  0.4030
  985MOL0     C35819  10.887   9.432   6.226  0.6469  0.1066 -0.3494
  985MOL0     C35820  11.025   9.419   6.267  0.4391 -0.0055  0.7241
  985MOL0     C35821  10.774   9.383   6.301  0.4285  0.2853 -0.0107
  985MOL0     C35822  10.786   9.316   6.436  0.1927 -0.2080  0.9441
  985MOL0     O35823  10.671   9.299   6.505  0.6189  0.4793  0.1542
  985MOL0     C35824  10.684   9.270   6.638 -1.3113  0.9028 -0.3623
  985MOL0     C35825  10.615   9.168   6.694 -0.6362  0.0043 -0.0631
  985MOL0     C35826  10.624   9.138   6.820  0.5042 -0.9445 -0.9542
  985MOL0     C35827  10.707   9.208   6.910  0.0368  0.9885 -0.4973
  985MOL0     O35828  10.721   9.170   7.036  0.4280  0.3090  0.7502
  985MOL0     C35829  10.655   9.253   7.132  0.2054  0.2370  0.1044
  985MOL0     C35830  10.501   9.242   7.125 -0.5808 -0.7237 -0.0476
  985MOL0     C35831  10.427   9.273   7.251 -0.6474 -0.3741 -0.1515
  985MOL0     C35832  10.284   9.314   7.228 -0.1130  0.4273 -0.7407
  985MOL0     C35833  10.211   9.388   7.346  0.5799 -0.5121 -0.3987
  985MOL0     C35834  10.080   9.467   7.315 -1.2818  0.8773  0.3773
  985MOL0     C35835  10.009   9.505   7.444 -0.0437  0.1547  0.2774
  985MOL0     C35836  10.081   9.616   7.536 -0.6631 -0.7133  0.0116
  985MOL0    Cl35837  10.061   9.765   7.444 -0.3752  0.6363  0.2544
  985MOL0     C35838  10.772   9.317   6.858  0.2691  0.0716 -0.1745
  985MOL0     C35839  10.766   9.349   6.722 -0.3736  0.0844  1.2431
  985MOL0     O35840  10.896   9.273   6.475 -0.0204 -0.6831  0.8871
  985MOL0     C35841  10.647   9.396   6.255 -0.7089  0.4296 -0.3593
  985MOL0     C35842  10.616   9.465   6.132  0.4797  0.5409  0.2220
  985MOL0     N35843  11.009   9.662   5.383  0.6654 -0.9292  0.0008
  985MOL0     N35844  10.987   9.676   5.255 -0.2031 -0.5982 -1.3064
  985MOL0     C35845  10.476  10.499   4.566  0.5381  0.0739 -0.0278
  985MOL0     C35846  10.486  10.625   4.520 -0.5499  0.5885  0.5528
  985MOL0     C35847  10.504  10.964   4.195  0.0218  0.3203  1.1430
  985MOL0     C35848  10.375  11.005   4.207 -0.0390 -0.5154 -0.7824
  985MOL0     C35849  10.328  11.117   4.140 -0.4991  1.3286 -0.6552
  985MOL0     C35850  10.413  11.208   4.070 -0.4627 -0.2699  0.9137
  985MOL0     O35851  10.387  11.323   4.002 -0.2323  0.6973 -0.3055
  985MOL0     C35852  10.248  11.372   4.006 -0.3047  0.9725 -0.1131
  985MOL0     C35853  10.152  11.287   3.920 -0.0567 -0.4218  0.7084
  985MOL0     C35854  10.014  11.288   3.967  0.2672  0.1661  0.0119
  985MOL0     C35855   9.936  11.172   3.899 -0.3274  1.1045 -0.3601
  985MOL0     C35856   9.810  11.138   3.960  0.2016 -0.3672 -0.3756
  985MOL0     C35857   9.715  11.092   4.014  0.6621  0.3677 -0.7587
  985MOL0     C35858  10.550  11.171   4.072 -0.1641 -0.7850 -0.6500
  985MOL0     C35859  10.597  11.052   4.130 -0.2434 -0.2269 -0.1998
  985MOL0     C35860  10.737  11.023   4.122 -0.2981  0.7202  0.8033
  985MOL0     H35861  10.362  10.598   4.206  0.1395  0.4728 -0.4918
  985MOL0     H35862  10.338  10.348   4.306 -2.1408  1.2300  1.6937
  985MOL0     H35863  10.600  10.262   4.675 -2.1469  2.1437 -0.5335
  985MOL0     H35864  10.635  10.242   4.511  0.4568 -2.6438 -1.0190
  985MOL0     H35865  10.453  10.042   4.655 -1.0833  0.0080 -0.8660
  985MOL0     H35866  10.561  10.002   4.514  0.9949  1.5960 -0.6366
  985MOL0     H35867  10.746  10.092   4.702  0.3599  0.6253 -1.3167
  985MOL0     H35868  10.623  10.048   4.810  1.5217  2.8061 -0.4192
  985MOL0     H35869  10.596   9.831   4.725  0.3313 -1.4081  0.7712
  985MOL0     H35870  10.744   9.850   4.629 -2.4045  2.3593 -2.1453
  985MOL0     H35871  10.739   9.904   4.930 -0.5261  0.5390 -0.0627
  985MOL0     H35872  10.876   9.878   4.817  0.4650 -0.9515  2.3427
  985MOL0     H35873  10.666   9.658   4.885  0.1435  0.9719  1.7870
  985MOL0     H35874  10.827   9.631   4.794  1.5264  1.4532 -1.8842
  985MOL0     H35875  10.944   9.697   4.987 -0.6345  1.0538 -0.3198
  985MOL0     H35876  10.840   9.552   5.016  0.2554  0.0253 -1.4451
  985MOL0     H35877  10.800   9.835   5.100  1.0029  0.6877  3.2306
  985MOL0     H35878  10.679   9.703   5.134  0.8213 -1.0750 -0.2719
  985MOL0     H35879  10.675   9.672   5.367 -0.0762 -0.2159 -1.6604
  985MOL0     H35880  10.961   9.580   5.614  0.3031 -0.6587 -2.4883
  985MOL0     H35881  10.781   9.560   5.594  0.2261  0.2804  0.5791
  985MOL0     H35882  10.936   9.801   5.691  0.3317 -1.1255  0.1505
  985MOL0     H35883  10.790   9.838   5.586  1.8320  1.4675  0.0723
  985MOL0     H35884  10.747   9.852   5.824 -2.4764  0.2402  1.0913
  985MOL0     H35885  10.636   9.732   5.751  0.0175 -1.9339  0.0672
  985MOL0     H35886  10.854   9.582   5.832  1.8196 -0.0885  1.0474
  985MOL0     H35887  10.882   9.693   5.935  1.3785 -1.2529 -0.0279
  985MOL0     H35888  10.946   9.532   6.057 -0.0636 -0.0511  1.1247
  985MOL0     H35889  11.072   9.320   6.263  0.8708  0.1437 -3.8575
  985MOL0     H35890  11.019   9.444   6.373  3.6449 -2.1214  1.5593
  985MOL0     H35891  11.083   9.498   6.219 -1.8474 -0.1947 -2.7700
  985MOL0     H35892  10.545   9.107   6.637 -1.7599  2.5029 -1.5266
  985MOL0     H35893  10.568   9.059   6.868 -0.7335 -0.0007 -0.8072
  985MOL0     H35894  10.701   9.219   7.225  3.4891  1.2509 -1.0071
  985MOL0     H35895  10.679   9.360   7.128 -0.2680  0.3317 -0.3067
  985MOL0     H35896  10.479   9.312   7.044  0.7209  0.3259  0.4593
  985MOL0     H35897  10.468   9.139   7.108 -2.1640 -0.7307  2.5677
  985MOL0     H35898  10.482   9.348   7.309  2.7194 -1.2813 -1.8574
  985MOL0     H35899  10.416   9.180   7.307 -0.5520  1.0984  2.4762
  985MOL0     H35900  10.232   9.219   7.211 -0.7453  1.1774 -3.6201
  985MOL0     H35901  10.278   9.374   7.136  0.0532 -2.3714 -2.7296
  985MOL0     H35902  10.187   9.328   7.434  0.3339  0.1153 -0.0235
  985MOL0     H35903  10.283   9.454   7.396  1.8909 -3.5918  2.1124
  985MOL0     H35904  10.027   9.405   7.242  2.1005 -2.1832  0.2294
  985MOL0     H35905  10.112   9.560   7.268  2.5116  0.0538  0.9343
  985MOL0     H35906   9.992   9.415   7.503 -1.1586 -0.2747 -0.6567
  985MOL0     H35907   9.907   9.528   7.413 -1.0010 -2.8739  0.9241
  985MOL0     H35908  10.185   9.587   7.554 -0.9657 -1.6452  0.3120
  985MOL0     H35909  10.035   9.630   7.634  1.2279  2.4970  0.5658
  985MOL0     H35910  10.832   9.372   6.931 -0.3884  0.3218  0.1845
  985MOL0     H35911  10.831   9.424   6.678  2.1028 -1.6081  1.7764
  985MOL0     H35912  10.568   9.342   6.306 -1.2882  0.0809 -1.5898
  985MOL0     H35913  10.522   9.481   6.081  0.3516 -0.7597  0.0263
  985MOL0     H35914  10.492  10.474   4.670 -0.6132 -1.3486 -0.1727
  985MOL0     H35915  10.530  10.706   4.577  4.0054  1.1942 -3.1672
  985MOL0     H35916  10.300  10.947   4.261  0.7309 -1.2050 -0.4408
  985MOL0     H35917  10.222  11.134   4.150 -0.7330 -0.9628  1.8329
  985MOL0     H35918  10.216  11.355   4.110 -0.5618 -0.3217 -0.3865
  985MOL0     H35919  10.248  11.473   3.966  2.2389  1.1844  0.2800
  985MOL0     H35920  10.189  11.186   3.900  0.5773 -0.0189 -0.2508
  985MOL0     H35921  10.155  11.328   3.819  0.9782 -3.3073 -0.5522
  985MOL0     H35922  10.016  11.268   4.075 -1.1185 -1.3148 -0.2099
  985MOL0     H35923   9.965  11.385   3.962 -3.0219 -1.2131  2.1406
  985MOL0     H35924   9.997  11.083   3.913 -0.7960  1.1853  2.9870
  985MOL0     H35925   9.924  11.194   3.793 -3.2420 -1.7633 -0.7928
  985MOL0     H35926   9.631  11.047   4.062 -0.3641  0.3983 -2.4654
  985MOL0     H35927  10.623  11.231   4.019  2.5348  0.5163  3.9436
  985MOL0     H35928  10.771  10.995   4.222 -0.8643  0.8479  1.0360
  985MOL0     H35929  10.750  10.945   4.046 -0.8970  3.2338 -2.0795
  985MOL0     H35930  10.795  11.111   4.096 -3.7044  3.0318  0.3294
  986MOL0     O35931  11.498   9.780   1.489 -0.8244 -0.8219 -1.5855
  986MOL0     C35932  11.377   9.790   1.490  0.6316 -0.7991  0.5662
  986MOL0     O35933  11.304   9.891   1.425 -0.9210 -0.4667  0.0446
  986MOL0     C35934  11.361  10.003   1.372 -0.6201  0.3670 -0.1138
  986MOL0     C35935  11.488  10.055   1.411  0.4370  0.0487  0.4951
  986MOL0     C35936  11.543  10.170   1.345  0.3908 -0.8657  0.1639
  986MOL0     C35937  11.473  10.224   1.241 -0.4767  0.2826 -0.0235
  986MOL0     O35938  11.512  10.333   1.160  1.1505  0.2702 -0.3326
  986MOL0     C35939  11.647  10.355   1.131  0.4688 -0.2751 -0.4950
  986MOL0     C35940  11.678  10.508   1.109  1.2402  0.2196 -1.3545
  986MOL0     C35941  11.654  10.597   1.231 -0.6984 -0.0825  0.1495
  986MOL0     C35942  11.749  10.549   1.350  0.2849 -0.1467 -0.4192
  986MOL0     C35943  11.736  10.642   1.468 -0.3526 -0.6325 -0.2201
  986MOL0     C35944  11.595  10.670   1.506  0.1191  0.5350 -0.2383
  986MOL0     C35945  11.600  10.723   1.640 -0.1429  0.9424  0.7493
  986MOL0     C35946  11.637  10.627   1.760 -0.5849  0.4398 -1.0296
  986MOL0     N35947  11.528  10.616   1.864  0.5484 -0.1648  0.8151
  986MOL0     C35948  11.395  10.656   1.852  0.5847 -0.3035  0.8054
  986MOL0     C35949  11.356  10.682   1.976 -0.5937 -0.0253  0.6540
  986MOL0     C35950  11.221  10.721   2.022 -0.2012  0.5447 -0.2893
  986MOL0     C35951  11.225  10.830   2.128 -0.5467  0.4677 -0.0428
  986MOL0     C35952  11.100  10.827   2.211  0.6463 -0.5146 -0.1223
  986MOL0     C35953  10.975  10.867   2.127 -0.4719  0.3147  1.0155
  986MOL0     O35954  10.864  10.875   2.211  0.3862 -0.6364 -0.6359
  986MOL0     C35955  10.746  10.901   2.140 -0.8443 -1.4759 -0.9443
  986MOL0     C35956  10.680  10.795   2.095 -1.0511  0.0779  0.7090
  986MOL0     C35957  10.559  10.810   2.030 -0.4892  0.4588  1.1243
  986MOL0     C35958  10.503  10.685   1.966  0.0518  0.4476 -0.2731
  986MOL0     C35959  10.492  10.934   2.037 -0.3345  0.7909 -0.6486
  986MOL0     C35960  10.356  10.960   1.980  0.9299  0.1795  0.1895
  986MOL0     O35961  10.279  11.046   2.044 -0.2746  0.3563  0.1373
  986MOL0     C35962  10.151  11.068   1.999 -0.6403 -0.2230  0.5791
  986MOL0     C35963  10.135  11.141   1.885 -0.0751 -0.4407 -0.4993
  986MOL0     C35964  10.013  11.133   1.823  0.1854 -0.5183  0.2094
  986MOL0     C35965   9.899  11.100   1.889 -0.0918  0.6484 -0.5579
  986MOL0     O35966   9.770  11.126   1.847 -0.2573  0.0818 -0.3275
  986MOL0     C35967   9.752  11.212   1.744  0.1675  0.4612 -0.0485
  986MOL0     C35968   9.607  11.259   1.735 -0.6620  0.2660 -0.8355
  986MOL0     C35969   9.519  11.135   1.717 -0.2478  0.0825 -0.2403
  986MOL0     C35970   9.370  11.182   1.750 -0.5874  0.2253  0.3671
  986MOL0     C35971   9.254  11.076   1.732  0.4412 -0.8971  0.3454
  986MOL0     C35972   9.272  10.939   1.787 -0.1575 -0.2023 -0.1741
  986MOL0     C35973   9.152  10.847   1.759  0.1858  0.0489  0.0794
  986MOL0     C35974   9.180  10.712   1.829  0.7278  0.5459  0.2487
  986MOL0    Cl35975   9.072  10.596   1.740  0.4199 -0.2394 -0.3914
  986MOL0     C35976   9.914  11.048   2.021  0.6927  0.0528 -0.0401
  986MOL0     C35977  10.039  11.031   2.073 -0.1662 -0.2458 -0.1131
  986MOL0     O35978  10.321  10.898   1.877  0.9318 -0.4408 -0.0959
  986MOL0     C35979  10.552  11.036   2.108  0.2859 -0.4252 -0.5310
  986MOL0     C35980  10.679  11.021   2.151  1.0231 -0.4624 -0.2048
  986MOL0     N35981  11.462  10.658   2.067  1.5488  0.4895 -1.2128
  986MOL0     N35982  11.561  10.615   1.996  0.1264 -0.2085 -0.5128
  986MOL0     C35983  11.348  10.184   1.210 -0.1706 -0.6404  0.1764
  986MOL0     C35984  11.297  10.073   1.272  0.7050 -0.7669 -0.0121
  986MOL0     C35985  11.295   9.694   1.578  0.3289  0.1714  0.0565
  986MOL0     C35986  11.162   9.731   1.607 -0.4624  0.4783  1.1802
  986MOL0     C35987  11.094   9.670   1.710  0.1525  0.7588  1.3856
  986MOL0     C35988  11.130   9.542   1.748  0.1295 -0.0279  1.1369
  986MOL0     O35989  11.043   9.452   1.803  0.0859 -0.2721 -0.6254
  986MOL0     C35990  10.949   9.382   1.730 -0.8498 -0.1303  0.3566
  986MOL0     C35991  10.997   9.310   1.600 -0.1272  0.2194  0.1240
  986MOL0     C35992  11.098   9.205   1.610  0.6951 -0.0943 -0.7161
  986MOL0     C35993  11.041   9.081   1.671  0.4987 -0.6487 -0.8031
  986MOL0     C35994  10.922   9.020   1.611 -0.1867 -0.3572 -0.6621
  986MOL0     C35995  10.828   8.961   1.562  0.9705  0.2504  0.9729
  986MOL0     C35996  11.268   9.513   1.725 -0.4766  0.1316  0.4699
  986MOL0     C35997  11.354   9.581   1.643 -0.7277 -0.4800 -0.4200
  986MOL0     C35998  11.489   9.529   1.606 -0.5521 -0.2470  0.4368
  986MOL0     H35999  11.554  10.009   1.483 -0.0126  2.1025  2.3178
  986MOL0     H36000  11.630  10.224   1.384  0.0644 -0.3210  0.1537
  986MOL0     H36001  11.664  10.307   1.034  0.0078 -3.0099  0.6984
  986MOL0     H36002  11.715  10.303   1.198  1.1440 -1.1270 -1.7870
  986MOL0     H36003  11.783  10.526   1.084  1.4395  2.6447  0.8289
  986MOL0     H36004  11.610  10.548   1.033 -2.9282 -0.6185  1.5884
  986MOL0     H36005  11.655  10.704   1.210 -3.7552 -0.1103 -0.6844
  986MOL0     H36006  11.550  10.576   1.257 -0.8947 -0.4057 -0.8514
  986MOL0     H36007  11.718  10.455   1.396 -4.0062  1.1565 -0.2335
  986MOL0     H36008  11.854  10.539   1.323  0.6427 -1.5714  1.3218
  986MOL0     H36009  11.784  10.739   1.451  0.3971 -0.7453  1.0985
  986MOL0     H36010  11.790  10.589   1.547  2.7593 -1.7585 -2.8940
  986MOL0     H36011  11.548  10.748   1.445 -2.7101 -0.4018  0.5725
  986MOL0     H36012  11.530  10.582   1.499 -4.0862  3.3183  0.0133
  986MOL0     H36013  11.500  10.762   1.658 -0.1045  2.7616 -2.3178
  986MOL0     H36014  11.673  10.805   1.635 -0.7522  1.4051 -1.5991
  986MOL0     H36015  11.653  10.524   1.729 -0.7643  0.0828  0.0218
  986MOL0     H36016  11.730  10.659   1.809 -0.8683 -2.1189  1.4287
  986MOL0     H36017  11.327  10.678   1.770  1.8157 -0.6528 -0.3328
  986MOL0     H36018  11.178  10.628   2.061  0.0180  1.1804  1.5707
  986MOL0     H36019  11.154  10.744   1.939 -1.9269 -3.8533 -0.3632
  986MOL0     H36020  11.308  10.809   2.197 -0.3291 -1.1812 -0.7690
  986MOL0     H36021  11.243  10.930   2.086 -0.0126  0.9849  1.3400
  986MOL0     H36022  11.092  10.726   2.254 -0.3388 -1.0163 -1.4234
  986MOL0     H36023  11.118  10.901   2.290 -3.2324 -0.5976  1.0808
  986MOL0     H36024  10.994  10.962   2.077 -0.2604 -1.4918 -2.6780
  986MOL0     H36025  10.965  10.792   2.048 -0.4470  3.4170 -2.1416
  986MOL0     H36026  10.734  10.701   2.106  1.7848  0.5515 -5.2270
  986MOL0     H36027  10.404  10.667   2.007 -0.4131  0.0048 -1.5363
  986MOL0     H36028  10.554  10.592   1.994  0.8760 -0.0365 -3.0618
  986MOL0     H36029  10.502  10.689   1.857 -1.5497 -2.0242 -0.4143
  986MOL0     H36030  10.215  11.180   1.824 -0.9248 -0.7866 -1.8650
  986MOL0     H36031  10.011  11.167   1.719  1.1028  0.4530  0.4841
  986MOL0     H36032   9.818  11.294   1.775 -1.8430  1.2310  2.5599
  986MOL0     H36033   9.788  11.173   1.649  2.5733 -0.3080  1.0906
  986MOL0     H36034   9.582  11.318   1.824  0.3867 -1.0257  0.3689
  986MOL0     H36035   9.595  11.324   1.647 -4.9410 -2.2347 -2.3466
  986MOL0     H36036   9.542  11.061   1.794  2.3332 -1.7600 -2.6033
  986MOL0     H36037   9.533  11.088   1.620  1.7620 -1.4083  0.6963
  986MOL0     H36038   9.344  11.270   1.689 -0.0477  0.8603  1.0394
  986MOL0     H36039   9.363  11.209   1.856 -1.3795  1.6323 -0.0111
  986MOL0     H36040   9.160  11.111   1.774  0.1457 -0.9879 -0.2404
  986MOL0     H36041   9.244  11.071   1.624 -0.9149  1.3030  0.3015
  986MOL0     H36042   9.286  10.947   1.895  1.5429 -1.0351 -0.2866
  986MOL0     H36043   9.365  10.899   1.744 -0.1963 -0.7742  0.2625
  986MOL0     H36044   9.148  10.830   1.651  0.7296  2.5925 -0.4156
  986MOL0     H36045   9.060  10.895   1.793  0.3819  0.3869  0.1328
  986MOL0     H36046   9.143  10.723   1.932 -1.2959  3.1969 -0.6626
  986MOL0     H36047   9.284  10.684   1.814  0.0107 -1.8953 -0.5840
  986MOL0     H36048   9.825  11.041   2.084  0.9905  0.3880  0.4229
  986MOL0     H36049  10.044  10.973   2.165  0.3257 -0.2320 -0.1281
  986MOL0     H36050  10.495  11.127   2.119 -0.6050 -0.6560 -2.6894
  986MOL0     H36051  10.716  11.106   2.208  2.3449  1.1968 -3.2795
  986MOL0     H36052  11.293  10.230   1.129 -2.1342 -1.4856  0.9498
  986MOL0     H36053  11.194  10.054   1.244 -0.5243 -1.2103  4.1476
  986MOL0     H36054  11.104   9.808   1.557  0.4808 -0.5358 -1.6535
  986MOL0     H36055  10.989   9.692   1.726  0.0922 -0.0638  2.1910
  986MOL0     H36056  10.928   9.292   1.790  1.2288 -0.2354  1.0408
  986MOL0     H36057  10.855   9.432   1.709 -1.4373 -1.8837 -1.5317
  986MOL0     H36058  11.039   9.383   1.530  3.2852 -0.2431  1.5051
  986MOL0     H36059  10.912   9.273   1.542  0.7684  0.7251 -1.5873
  986MOL0     H36060  11.149   9.189   1.514  0.4574 -0.0764 -0.8456
  986MOL0     H36061  11.182   9.251   1.664 -0.5093  0.6308  0.6046
  986MOL0     H36062  11.013   9.094   1.776  3.0799  0.9987 -0.2255
  986MOL0     H36063  11.119   9.005   1.660 -0.5250 -1.6876 -1.1215
  986MOL0     H36064  10.740   8.920   1.518 -0.4665  4.9212 -1.1297
  986MOL0     H36065  11.295   9.410   1.747 -0.8882 -0.2608 -0.8194
  986MOL0     H36066  11.560   9.599   1.649  1.0934 -0.4451 -1.7455
  986MOL0     H36067  11.508   9.426   1.640 -2.0923 -0.8794 -0.4820
  986MOL0     H36068  11.500   9.529   1.497  3.2083 -0.7754  0.6802
  987MOL0     O36069   6.588   8.496   0.482  0.2497  0.6915  0.2767
  987MOL0     C36070   6.501   8.572   0.447  0.3991  0.4940  0.7481
  987MOL0     O36071   6.375   8.562   0.486 -0.4234 -0.0677 -0.7221
  987MOL0     C36072   6.339   8.456   0.565 -0.5098 -0.1173 -0.2069
  987MOL0     C36073   6.292   8.476   0.691  0.1648 -0.3074 -0.1354
  987MOL0     C36074   6.279   8.375   0.788  0.1960 -0.3772  0.3494
  987MOL0     C36075   6.294   8.249   0.740  0.3435  0.2269 -0.2120
  987MOL0     O36076   6.254   8.145   0.816 -0.0578  0.0823 -0.7132
  987MOL0     C36077   6.162   8.053   0.765 -0.2817  0.2615  0.6698
  987MOL0     C36078   6.184   7.915   0.818 -0.3671  0.3753 -0.1145
  987MOL0     C36079   6.217   7.919   0.973 -0.2503  0.1726  0.4074
  987MOL0     C36080   6.218   7.775   1.025 -0.4006  0.0755 -0.0955
  987MOL0     C36081   6.280   7.771   1.168  0.5467  0.0184 -0.4506
  987MOL0     C36082   6.318   7.628   1.197  0.5525  0.4102  0.5108
  987MOL0     C36083   6.208   7.523   1.194  0.4174  0.0584 -0.3904
  987MOL0     C36084   6.122   7.543   1.326 -1.4448  0.4057  0.0072
  987MOL0     N36085   5.985   7.596   1.303 -0.0984  0.4351 -0.1255
  987MOL0     C36086   5.941   7.712   1.341  0.6186  0.5871 -0.6572
  987MOL0     C36087   5.809   7.721   1.293 -0.1393 -0.2288  0.4482
  987MOL0     C36088   5.738   7.846   1.291  0.0329 -0.2074  0.3279
  987MOL0     C36089   5.812   7.961   1.217 -0.8761 -1.0548  0.6541
  987MOL0     C36090   5.805   7.954   1.052 -0.3619  0.7117  0.6257
  987MOL0     C36091   5.796   8.091   0.974 -0.9232 -0.7480  0.0145
  987MOL0     O36092   5.897   8.187   1.005 -0.2057  0.6687  0.2114
  987MOL0     C36093   5.903   8.317   0.957  0.2025  0.6003  0.2825
  987MOL0     C36094   5.962   8.419   1.024  0.0253  0.1277 -0.4037
  987MOL0     C36095   5.992   8.544   0.968 -0.5909  0.2795  0.5604
  987MOL0     C36096   6.070   8.635   1.056 -0.4433 -0.4268  0.2800
  987MOL0     C36097   5.943   8.569   0.830 -0.9205  0.5113  1.1550
  987MOL0     C36098   5.974   8.700   0.758 -0.1137 -1.0543 -0.2695
  987MOL0     O36099   5.928   8.716   0.628 -0.2565  0.1438 -0.6404
  987MOL0     C36100   5.972   8.820   0.545 -0.1996  0.0901  0.3394
  987MOL0     C36101   6.110   8.844   0.524 -0.4433  0.2671 -0.1664
  987MOL0     C36102   6.154   8.945   0.437  0.2865  0.7455 -0.2840
  987MOL0     C36103   6.058   9.017   0.358  0.3581 -0.6570  0.2133
  987MOL0     O36104   6.083   9.113   0.271 -0.6458  0.3640 -0.3099
  987MOL0     C36105   6.222   9.150   0.243 -1.1614 -0.2003 -0.5997
  987MOL0     C36106   6.224   9.271   0.153 -0.0296 -0.1522  0.7015
  987MOL0     C36107   6.134   9.231   0.039  0.6536 -0.0831 -0.1629
  987MOL0     C36108   6.159   9.313  -0.083  0.3085 -0.9572 -0.0664
  987MOL0     C36109   6.122   9.464  -0.055 -0.0470  0.0940 -0.1242
  987MOL0     C36110   6.142   9.524  -0.195 -0.4157  0.7776  1.0614
  987MOL0     C36111   6.082   9.665  -0.205  0.1871 -0.1820  0.3841
  987MOL0     C36112   5.934   9.659  -0.231  0.9814 -0.1565 -0.2417
  987MOL0    Cl36113   5.893   9.632  -0.402 -0.0561 -0.0415 -0.8137
  987MOL0     C36114   5.917   8.983   0.372  0.2345  0.8332 -0.0474
  987MOL0     C36115   5.876   8.885   0.457 -0.5683  0.2786 -0.7043
  987MOL0     O36116   6.039   8.784   0.823 -0.2324  0.1897 -0.9257
  987MOL0     C36117   5.859   8.473   0.765  0.2927  0.4477  0.2283
  987MOL0     C36118   5.851   8.349   0.826  0.1139  0.5522 -0.4406
  987MOL0     N36119   5.777   7.605   1.234 -0.4308 -0.0882  0.3597
  987MOL0     N36120   5.886   7.532   1.237 -0.8344 -0.1884 -0.2104
  987MOL0     C36121   6.344   8.227   0.618 -0.3398  0.1536  0.4568
  987MOL0     C36122   6.373   8.324   0.530  0.3870 -0.2355  0.9487
  987MOL0     C36123   6.533   8.672   0.337  0.5358  0.6641 -0.0673
  987MOL0     C36124   6.424   8.703   0.251 -0.6084  0.3929  0.0543
  987MOL0     C36125   6.432   8.794   0.149 -0.4863  0.0666 -0.1983
  987MOL0     C36126   6.562   8.858   0.118  0.3395  0.8522  0.3776
  987MOL0     O36127   6.561   8.934   0.000  0.2438 -0.6034 -0.4215
  987MOL0     C36128   6.675   9.012  -0.047  0.0022  0.9048  0.7423
  987MOL0     C36129   6.660   9.144   0.030 -0.3394  0.0853 -0.5041
  987MOL0     C36130   6.768   9.163   0.130  0.1358 -0.3293  0.3684
  987MOL0     C36131   6.915   9.133   0.072  1.3475  0.3143 -0.3454
  987MOL0     C36132   6.950   9.185  -0.065 -0.1433  0.4855  0.4200
  987MOL0     C36133   7.001   9.188  -0.171 -0.6994 -0.2602  1.2496
  987MOL0     C36134   6.677   8.827   0.198 -0.4433 -0.7681 -0.6664
  987MOL0     C36135   6.666   8.726   0.306  1.0282  0.0514  0.2973
  987MOL0     C36136   6.781   8.666   0.372 -0.6253 -0.5393 -0.3558
  987MOL0     H36137   6.263   8.574   0.729  0.0669 -1.3641  2.7620
  987MOL0     H36138   6.245   8.388   0.890  2.0814  0.5535  0.9062
  987MOL0     H36139   6.172   8.047   0.656  1.3522 -0.9017  0.8500
  987MOL0     H36140   6.066   8.099   0.792 -0.9894 -1.1608  0.6751
  987MOL0     H36141   6.103   7.845   0.794  0.9890 -0.4472 -2.6700
  987MOL0     H36142   6.273   7.871   0.772  0.5167  0.6469  1.2732
  987MOL0     H36143   6.320   7.957   0.974  0.1003 -0.7481  1.1471
  987MOL0     H36144   6.156   7.987   1.033 -0.0216  1.3973 -0.7061
  987MOL0     H36145   6.117   7.734   1.018 -0.9142  1.2482  0.2293
  987MOL0     H36146   6.292   7.731   0.958 -0.8775 -0.1379 -0.4927
  987MOL0     H36147   6.208   7.810   1.240 -0.5906 -0.5721 -1.2318
  987MOL0     H36148   6.375   7.826   1.171  1.3131 -1.3228  1.6667
  987MOL0     H36149   6.393   7.598   1.124  0.9297 -2.3127  1.8679
  987MOL0     H36150   6.370   7.627   1.294 -1.7104 -2.1045  1.8505
  987MOL0     H36151   6.242   7.420   1.195  0.7698  0.1702 -0.8532
  987MOL0     H36152   6.141   7.540   1.109  0.2239  4.3119  0.3502
  987MOL0     H36153   6.113   7.443   1.369 -1.6350  0.1161 -0.6836
  987MOL0     H36154   6.182   7.606   1.392 -0.4557 -0.6664  0.1430
  987MOL0     H36155   5.986   7.795   1.394 -0.9380  1.3589 -0.4663
  987MOL0     H36156   5.737   7.867   1.399 -0.2633  1.1559  0.0802
  987MOL0     H36157   5.638   7.833   1.251 -0.6561  2.8900  0.7876
  987MOL0     H36158   5.760   8.051   1.253 -3.8522 -0.4317 -4.2464
  987MOL0     H36159   5.918   7.973   1.243  0.2725  0.0101 -3.7224
  987MOL0     H36160   5.898   7.904   1.024 -0.0660  2.6040 -2.0758
  987MOL0     H36161   5.721   7.890   1.021  1.4719 -0.7523 -1.6383
  987MOL0     H36162   5.797   8.069   0.867  1.0869  1.6664 -0.5418
  987MOL0     H36163   5.700   8.141   0.989 -0.3389  0.2994  0.3609
  987MOL0     H36164   5.988   8.403   1.128  0.6837  2.1133 -0.2402
  987MOL0     H36165   6.026   8.735   1.049 -1.7151 -0.9585 -6.6188
  987MOL0     H36166   6.173   8.643   1.020 -1.4363  1.0568 -2.5593
  987MOL0     H36167   6.062   8.599   1.159  1.1234 -1.9676 -0.0916
  987MOL0     H36168   6.184   8.780   0.570  0.1956  1.4058  0.4014
  987MOL0     H36169   6.260   8.959   0.420  0.3606  0.3557 -0.1611
  987MOL0     H36170   6.273   9.179   0.336 -2.1710  2.7203 -0.8679
  987MOL0     H36171   6.278   9.069   0.196 -1.3666 -2.0721  2.1365
  987MOL0     H36172   6.188   9.360   0.206  2.0562  0.6488  0.8934
  987MOL0     H36173   6.328   9.292   0.125  0.7170 -0.5132  2.9949
  987MOL0     H36174   6.028   9.239   0.064  0.7462  0.8293 -0.0163
  987MOL0     H36175   6.165   9.128   0.024  0.0460 -0.6902  2.3010
  987MOL0     H36176   6.099   9.261  -0.159  1.9498 -0.5651 -1.7038
  987MOL0     H36177   6.260   9.310  -0.126  0.3371 -3.8747 -0.0159
  987MOL0     H36178   6.014   9.470  -0.048  0.1412  2.0778  2.1738
  987MOL0     H36179   6.165   9.531   0.020 -4.3642  0.2688  2.5323
  987MOL0     H36180   6.083   9.460  -0.261 -1.7796  1.7408  1.3267
  987MOL0     H36181   6.251   9.530  -0.206 -0.3170  0.2264  1.6430
  987MOL0     H36182   6.136   9.718  -0.284  0.7009 -1.7689 -0.3690
  987MOL0     H36183   6.107   9.723  -0.116  1.6571  2.1924 -1.4490
  987MOL0     H36184   5.877   9.742  -0.189 -1.1648 -0.9422 -1.4659
  987MOL0     H36185   5.891   9.581  -0.167  1.4377  1.1985  1.8216
  987MOL0     H36186   5.843   9.035   0.313  2.1377  1.1286 -2.3596
  987MOL0     H36187   5.774   8.849   0.455  0.0499 -1.5824 -0.8446
  987MOL0     H36188   5.804   8.487   0.673 -1.0030  0.6263  1.0186
  987MOL0     H36189   5.796   8.270   0.774  2.5992 -2.2502  0.8768
  987MOL0     H36190   6.364   8.121   0.602  2.3608  0.7747 -0.7597
  987MOL0     H36191   6.413   8.309   0.430  0.9870 -0.5870  1.2324
  987MOL0     H36192   6.326   8.658   0.269 -1.1543  0.7744 -1.7431
  987MOL0     H36193   6.344   8.801   0.086 -1.2586  0.7386  0.9271
  987MOL0     H36194   6.767   8.955  -0.030  0.7163  1.4803 -1.0013
  987MOL0     H36195   6.665   9.027  -0.154  3.5970  0.8148  0.2637
  987MOL0     H36196   6.563   9.174   0.072  1.3345  4.5500  0.7087
  987MOL0     H36197   6.673   9.224  -0.043  0.2835  2.0316  1.6170
  987MOL0     H36198   6.765   9.266   0.166  0.7137  0.0493 -0.6207
  987MOL0     H36199   6.757   9.100   0.219  1.0595  0.1365  0.8214
  987MOL0     H36200   6.932   9.025   0.083  1.4153  0.4743  1.4972
  987MOL0     H36201   6.998   9.169   0.133  1.2677 -0.5708  0.3039
  987MOL0     H36202   7.044   9.178  -0.269 -1.0785 -2.6876  1.2748
  987MOL0     H36203   6.776   8.856   0.164 -0.5552  1.0910  0.4629
  987MOL0     H36204   6.880   8.697   0.335 -0.3334 -2.5990 -1.4277
  987MOL0     H36205   6.783   8.715   0.470  2.1369  4.4820 -2.5169
  987MOL0     H36206   6.779   8.557   0.367 -1.0713 -0.4843 -3.2995
  988MOL0     O36207   9.943   4.702   6.599  0.6680  0.3629  0.9190
  988MOL0     C36208  10.044   4.719   6.666  0.9873  0.6129  0.4085
  988MOL0     O36209  10.089   4.839   6.703  0.2868  0.6301 -0.8861
  988MOL0     C36210  10.041   4.949   6.634 -0.3111 -0.3307  0.2966
  988MOL0     C36211  10.118   5.002   6.524  0.4906 -0.4620  0.3781
  988MOL0     C36212  10.075   5.116   6.445 -0.3132 -0.1498 -1.1436
  988MOL0     C36213   9.953   5.176   6.477  0.3294  0.0200 -0.6080
  988MOL0     O36214   9.897   5.289   6.409  0.2389  0.7052  0.3831
  988MOL0     C36215   9.986   5.374   6.336  0.0945 -0.9427  0.5490
  988MOL0     C36216   9.917   5.512   6.337  0.5435  0.4569  0.2514
  988MOL0     C36217   9.991   5.606   6.238 -0.3866  0.1750 -1.2120
  988MOL0     C36218   9.951   5.756   6.258 -0.5400  0.4431  0.6162
  988MOL0     C36219  10.019   5.847   6.162  0.5783  0.3192 -0.5798
  988MOL0     C36220   9.962   5.988   6.155  1.5481  0.8010  0.2172
  988MOL0     C36221   9.990   6.078   6.273 -0.2999  0.1524 -1.4345
  988MOL0     C36222   9.887   6.196   6.281 -0.4871 -0.7755  0.0422
  988MOL0     N36223   9.925   6.308   6.195 -0.3110 -0.2387  0.1791
  988MOL0     C36224  10.027   6.393   6.230  0.0212  1.0775 -0.0249
  988MOL0     C36225  10.023   6.489   6.131 -0.6018 -0.2650 -0.3620
  988MOL0     C36226  10.146   6.574   6.114 -0.1600  0.1740  0.5650
  988MOL0     C36227  10.095   6.717   6.132 -0.1400 -0.6895  0.3085
  988MOL0     C36228  10.036   6.750   6.266  0.1240 -0.1145 -0.8974
  988MOL0     C36229  10.147   6.756   6.372  0.0267 -0.0160  0.4894
  988MOL0     O36230  10.104   6.755   6.506  0.1161 -0.0788  0.4571
  988MOL0     C36231  10.177   6.838   6.591 -0.5950  0.5964  1.1984
  988MOL0     C36232  10.139   6.843   6.726 -0.0992 -0.3495  0.1057
  988MOL0     C36233  10.204   6.913   6.823  1.3030 -0.7915 -0.4114
  988MOL0     C36234  10.127   6.931   6.957 -0.3157 -0.4433 -0.2771
  988MOL0     C36235  10.338   6.948   6.803  0.8404  0.4650 -0.7396
  988MOL0     C36236  10.434   6.990   6.909 -0.0636 -0.4298 -0.1609
  988MOL0     O36237  10.564   6.981   6.878  0.0197 -0.5639 -0.4380
  988MOL0     C36238  10.640   6.991   6.992  0.7426  0.2643 -0.1253
  988MOL0     C36239  10.650   6.873   7.066 -0.2736 -0.7459  0.0904
  988MOL0     C36240  10.758   6.869   7.159  0.1702  0.2990  0.3228
  988MOL0     C36241  10.846   6.975   7.185  0.2808 -0.5831  0.3670
  988MOL0     O36242  10.953   6.975   7.277  0.2605  0.9345  0.9975
  988MOL0     C36243  10.979   6.847   7.346 -0.1698 -0.4331 -0.5480
  988MOL0     C36244  10.878   6.814   7.449 -0.7487  0.3163  0.3138
  988MOL0     C36245  10.856   6.655   7.448  0.1639 -0.8585 -0.3451
  988MOL0     C36246  10.909   6.584   7.574 -0.5066 -0.1956  1.1277
  988MOL0     C36247  11.059   6.553   7.561  0.2437  0.0071  0.8664
  988MOL0     C36248  11.110   6.456   7.670  0.7276  0.6019 -0.0161
  988MOL0     C36249  11.137   6.306   7.619 -0.4568  0.3811 -0.1330
  988MOL0     C36250  11.229   6.231   7.724 -1.0647  0.5823  0.0071
  988MOL0    Cl36251  11.145   6.244   7.892  0.2174 -0.4334  0.7599
  988MOL0     C36252  10.830   7.085   7.110 -0.3408  0.0034  0.9542
  988MOL0     C36253  10.725   7.094   7.015 -0.1609 -0.3072 -0.8666
  988MOL0     O36254  10.387   7.050   7.006  1.1894 -0.0023  0.3518
  988MOL0     C36255  10.385   6.944   6.670 -0.4630 -0.1099 -0.2333
  988MOL0     C36256  10.307   6.891   6.565  0.3784 -0.0944 -0.6736
  988MOL0     N36257   9.920   6.468   6.046  0.2790 -0.2773  1.3370
  988MOL0     N36258   9.855   6.361   6.087 -0.4725  0.0617 -0.1918
  988MOL0     C36259   9.883   5.131   6.583  0.3978  0.1417  0.3770
  988MOL0     C36260   9.931   5.024   6.661 -0.7987  0.6688 -1.6936
  988MOL0     C36261  10.114   4.594   6.712 -0.3307  0.5256  0.3288
  988MOL0     C36262  10.257   4.599   6.733  0.0088  0.3115  0.4194
  988MOL0     C36263  10.337   4.495   6.753  0.8429 -0.0969  0.4691
  988MOL0     C36264  10.278   4.378   6.795  0.3625  0.1413  0.0501
  988MOL0     O36265  10.348   4.262   6.823 -0.3460 -0.3537 -0.6026
  988MOL0     C36266  10.487   4.287   6.856 -1.1723  0.2496 -0.2014
  988MOL0     C36267  10.561   4.161   6.899 -0.5191  0.2530 -0.4707
  988MOL0     C36268  10.581   4.074   6.781  0.6143 -0.5559 -0.4415
  988MOL0     C36269  10.671   3.957   6.800 -0.2586  0.3808  0.5492
  988MOL0     C36270  10.726   3.937   6.930  0.5718 -0.4645  0.1820
  988MOL0     C36271  10.782   3.921   7.034 -0.5017 -0.6062 -0.9521
  988MOL0     C36272  10.135   4.356   6.787  0.8037  0.6528  0.3511
  988MOL0     C36273  10.063   4.463   6.735  1.6671 -0.8666  0.0349
  988MOL0     C36274   9.915   4.439   6.720  0.6323  0.2150  0.3905
  988MOL0     H36275  10.215   4.957   6.508  1.3840  0.7729  2.0008
  988MOL0     H36276  10.136   5.140   6.358  1.3145 -1.8727 -0.5104
  988MOL0     H36277  10.006   5.336   6.235  1.2454 -2.5389  1.3299
  988MOL0     H36278  10.086   5.368   6.381 -0.2448 -1.8929  1.1971
  988MOL0     H36279   9.811   5.509   6.309  0.2281 -1.5836  1.4979
  988MOL0     H36280   9.920   5.558   6.436  0.8183  0.4885  0.2296
  988MOL0     H36281  10.098   5.586   6.246 -0.6755 -1.1719 -0.2909
  988MOL0     H36282   9.967   5.565   6.140  1.1796 -0.0264 -1.5425
  988MOL0     H36283   9.842   5.763   6.246 -0.8854 -2.3211  1.4737
  988MOL0     H36284   9.972   5.789   6.360  2.4704  0.8460 -0.0255
  988MOL0     H36285  10.004   5.791   6.069 -0.5488  0.0897 -0.2699
  988MOL0     H36286  10.122   5.851   6.199 -0.3011  0.0899  2.1046
  988MOL0     H36287  10.000   6.030   6.062 -0.4289  2.0145 -0.1012
  988MOL0     H36288   9.853   5.981   6.152  1.3573  2.0004  2.2778
  988MOL0     H36289  10.091   6.121   6.280 -1.3991  2.7543  4.5091
  988MOL0     H36290   9.975   6.023   6.367  3.6749  2.3575  0.8032
  988MOL0     H36291   9.782   6.172   6.263  0.1224 -2.3368 -1.7567
  988MOL0     H36292   9.880   6.238   6.382 -0.1567  0.2789 -0.3578
  988MOL0     H36293  10.098   6.384   6.311  0.8227  3.9994 -0.3253
  988MOL0     H36294  10.173   6.555   6.010  0.7775  4.6109 -0.2255
  988MOL0     H36295  10.229   6.543   6.178 -1.2327 -0.4741  1.6638
  988MOL0     H36296  10.179   6.786   6.122 -0.6036 -0.1774 -0.1080
  988MOL0     H36297  10.029   6.742   6.048 -0.9830 -1.3323  0.7580
  988MOL0     H36298   9.996   6.852   6.265 -3.5494 -1.3173  2.0679
  988MOL0     H36299   9.955   6.682   6.293  1.3905 -2.1966 -2.0663
  988MOL0     H36300  10.218   6.673   6.364  0.3336  0.1357  1.4191
  988MOL0     H36301  10.205   6.845   6.347  2.2193 -1.5227 -0.1382
  988MOL0     H36302  10.051   6.781   6.742 -0.8109  0.8253  0.8398
  988MOL0     H36303  10.026   6.889   6.959  0.7458 -3.2484  0.6623
  988MOL0     H36304  10.115   7.038   6.973  0.0446 -0.5685  0.9988
  988MOL0     H36305  10.181   6.899   7.047  1.7934  2.2224 -0.4607
  988MOL0     H36306  10.606   6.774   7.055 -0.5104 -0.5845 -0.4103
  988MOL0     H36307  10.766   6.769   7.199 -2.8568  0.0211  0.4607
  988MOL0     H36308  10.991   6.781   7.259 -0.7887  1.6570 -2.3167
  988MOL0     H36309  11.076   6.859   7.394 -1.4015  3.1006  1.3595
  988MOL0     H36310  10.929   6.848   7.540  4.1128  1.0595 -2.3112
  988MOL0     H36311  10.781   6.861   7.435 -0.3322  0.7753 -1.2900
  988MOL0     H36312  10.897   6.621   7.353 -1.5122  1.4032 -1.9830
  988MOL0     H36313  10.746   6.650   7.445  0.1990 -1.0687 -1.5777
  988MOL0     H36314  10.853   6.491   7.585  0.9649 -1.4737 -1.3350
  988MOL0     H36315  10.892   6.656   7.655  1.6154  1.6063  0.0871
  988MOL0     H36316  11.072   6.512   7.461  3.4450  2.7170 -0.0210
  988MOL0     H36317  11.112   6.648   7.565  2.3471 -1.1257  1.3586
  988MOL0     H36318  11.040   6.454   7.754 -1.8320 -1.8519 -1.9983
  988MOL0     H36319  11.203   6.500   7.707  0.5788  3.9824 -3.1239
  988MOL0     H36320  11.190   6.302   7.524 -0.2054  1.2328 -0.0346
  988MOL0     H36321  11.040   6.255   7.614 -0.0629 -0.2575 -2.1109
  988MOL0     H36322  11.326   6.280   7.715 -1.4106  1.1145 -0.9582
  988MOL0     H36323  11.251   6.125   7.706 -0.1962  0.9124 -0.9896
  988MOL0     H36324  10.908   7.160   7.113  1.5308 -1.6311 -1.6670
  988MOL0     H36325  10.714   7.183   6.954  3.1074  1.5110  0.9407
  988MOL0     H36326  10.485   6.976   6.643 -0.1788 -1.0765 -0.3667
  988MOL0     H36327  10.369   6.898   6.477  2.4123  1.2377  0.7646
  988MOL0     H36328   9.789   5.180   6.608 -0.3580 -1.1222  0.0675
  988MOL0     H36329   9.880   4.999   6.754 -1.7146  1.9274 -1.8387
  988MOL0     H36330  10.316   4.686   6.709  1.6785 -0.4672  1.5783
  988MOL0     H36331  10.443   4.517   6.766  0.1773  2.9310  1.6788
  988MOL0     H36332  10.548   4.315   6.769  1.9228  2.4651  2.4271
  988MOL0     H36333  10.493   4.357   6.940 -0.4456  0.6062 -0.5464
  988MOL0     H36334  10.488   4.108   6.962 -0.0918 -2.6614 -2.2466
  988MOL0     H36335  10.646   4.196   6.958 -1.1264  0.6355  0.2072
  988MOL0     H36336  10.483   4.030   6.763  1.3484 -2.6093  0.3971
  988MOL0     H36337  10.591   4.123   6.683 -2.6627 -0.7727 -0.9967
  988MOL0     H36338  10.755   3.954   6.730 -2.0272 -1.1070 -1.6968
  988MOL0     H36339  10.620   3.871   6.755  0.2872 -0.1921  1.0136
  988MOL0     H36340  10.830   3.901   7.128 -1.8804  1.9590  0.4152
  988MOL0     H36341  10.087   4.262   6.810  0.3407  0.9105  0.4506
  988MOL0     H36342   9.878   4.338   6.740 -2.0092  1.0232  0.0671
  988MOL0     H36343   9.857   4.500   6.790 -0.6797 -0.9947  0.3957
  988MOL0     H36344   9.892   4.448   6.614 -0.1915 -4.4134 -0.0458
  989MOL0     O36345   0.705   9.327  10.195 -0.2680  0.4235  1.3483
  989MOL0     C36346   0.759   9.275  10.098 -0.2154  0.6287  0.2576
  989MOL0     O36347   0.759   9.327   9.965 -0.5115  0.3203 -0.1604
  989MOL0     C36348   0.679   9.435   9.937  0.0461  0.2929  0.2401
  989MOL0     C36349   0.727   9.565   9.955 -0.1527 -0.0043 -0.7089
  989MOL0     C36350   0.644   9.670   9.926  0.0934 -0.3809 -0.7355
  989MOL0     C36351   0.515   9.645   9.876 -1.4033 -0.7674 -0.0291
  989MOL0     O36352   0.432   9.753   9.832 -0.2482 -0.2246  0.0137
  989MOL0     C36353   0.460   9.876   9.893 -0.1507  0.4952  0.1369
  989MOL0     C36354   0.439   9.886  10.053 -0.4932  0.1106  0.2579
  989MOL0     C36355   0.304   9.843  10.114 -0.3029  0.2406 -0.1295
  989MOL0     C36356   0.264   9.696  10.104  0.0343 -0.3845 -0.1324
  989MOL0     C36357   0.115   9.656  10.160 -0.8110 -1.0502  0.7703
  989MOL0     C36358   0.063   9.536  10.095 -0.0763 -0.1767 -0.8002
  989MOL0     C36359   0.133   9.401  10.131 -0.9083  0.3103 -0.1720
  989MOL0     C36360   0.163   9.355  10.277  0.7024  0.3702 -0.9378
  989MOL0     N36361   0.030   9.335  10.337  0.1145  0.7111  0.2203
  989MOL0     C36362  -0.051   9.218  10.331 -0.4378 -0.0369  0.3808
  989MOL0     C36363  -0.166   9.254  10.391  0.6896 -0.3491  0.4033
  989MOL0     C36364  -0.278   9.160  10.420  0.6536  1.2254  0.2040
  989MOL0     C36365  -0.261   9.044  10.521  0.4669  0.0574 -0.8180
  989MOL0     C36366  -0.381   8.938  10.517  0.7940 -0.6169  0.1703
  989MOL0     C36367  -0.366   8.835  10.615 -1.0633  0.2220  0.4198
  989MOL0     O36368  -0.241   8.766  10.579  0.3281 -0.5641  0.4322
  989MOL0     C36369  -0.197   8.664  10.656 -1.2727  0.0350 -0.9373
  989MOL0     C36370  -0.069   8.607  10.623  0.1713 -0.7232 -1.0678
  989MOL0     C36371   0.001   8.505  10.693  0.0898 -0.1467 -0.3217
  989MOL0     C36372   0.127   8.458  10.634 -0.3842 -0.1783 -0.1066
  989MOL0     C36373  -0.063   8.454  10.816  0.5699  0.0172  0.3505
  989MOL0     C36374  -0.001   8.357  10.914 -0.8604 -0.2361 -0.2118
  989MOL0     O36375  -0.085   8.309  11.004  1.0339  0.0499 -0.3285
  989MOL0     C36376  -0.043   8.200  11.080  0.2026  0.1564 -0.1379
  989MOL0     C36377   0.003   8.076  11.030  0.2353 -0.0496 -0.8886
  989MOL0     C36378   0.030   7.967  11.114  0.0528  0.1559  0.4894
  989MOL0     C36379   0.008   7.978  11.255  0.8292  0.5241 -0.2285
  989MOL0     O36380   0.028   7.870  11.337 -0.1892 -0.8054 -0.2852
  989MOL0     C36381   0.005   7.898  11.483  0.4002 -0.4765 -0.5237
  989MOL0     C36382   0.053   7.787  11.578 -0.1170 -0.1595  0.4616
  989MOL0     C36383  -0.031   7.666  11.558  1.5137 -0.2136 -0.8023
  989MOL0     C36384   0.044   7.529  11.555  0.5386  0.0117  0.2356
  989MOL0     C36385  -0.060   7.418  11.523  0.4459  0.2883 -0.9181
  989MOL0     C36386   0.001   7.284  11.552  0.3713  0.1752  0.2438
  989MOL0     C36387  -0.085   7.165  11.550 -0.2714  0.1539 -0.8690
  989MOL0     C36388  -0.007   7.037  11.573 -0.1092 -0.5560 -0.1588
  989MOL0    Cl36389  -0.107   6.883  11.613 -0.3382 -0.5059  0.1648
  989MOL0     C36390  -0.034   8.101  11.306 -0.6098 -0.5801 -0.8916
  989MOL0     C36391  -0.062   8.208  11.222  0.5648  0.9841  0.4445
  989MOL0     O36392   0.117   8.320  10.893 -0.2715  0.6057 -0.5079
  989MOL0     C36393  -0.193   8.509  10.849 -0.4893 -0.0842 -0.7866
  989MOL0     C36394  -0.247   8.613  10.774 -0.0481  0.2345 -1.0317
  989MOL0     N36395  -0.149   9.382  10.444 -0.0412 -0.5989 -0.9350
  989MOL0     N36396  -0.041   9.432  10.402 -0.0166  0.2586  0.0649
  989MOL0     C36397   0.464   9.516   9.852 -0.4554  1.5519 -0.6928
  989MOL0     C36398   0.551   9.409   9.877 -0.2327  0.0967 -0.1220
  989MOL0     C36399   0.839   9.144  10.127 -0.4011  0.3421  0.2482
  989MOL0     C36400   0.805   9.030  10.049 -0.1362  0.4810  0.0297
  989MOL0     C36401   0.878   8.910  10.055  0.0010  0.5140 -0.6097
  989MOL0     C36402   1.002   8.906  10.131  0.0165 -0.2889  0.6441
  989MOL0     O36403   1.090   8.797  10.111  0.2927 -0.1512 -0.5485
  989MOL0     C36404   1.082   8.686  10.204 -0.3888  0.3023 -0.2613
  989MOL0     C36405   1.219   8.620  10.205 -0.5887  1.4666 -0.1218
  989MOL0     C36406   1.231   8.511  10.309 -0.9543 -1.0365 -0.6102
  989MOL0     C36407   1.164   8.385  10.257  0.1069 -0.1964 -0.2692
  989MOL0     C36408   1.232   8.266  10.299  0.3350 -0.3189  0.1888
  989MOL0     C36409   1.286   8.162  10.313 -0.3712  0.0674  1.1676
  989MOL0     C36410   1.040   9.018  10.201  0.8708 -0.2593 -0.0456
  989MOL0     C36411   0.965   9.139  10.193  0.3620  0.2582  0.5081
  989MOL0     C36412   1.029   9.264  10.268 -0.2837  0.8615  0.2078
  989MOL0     H36413   0.825   9.597   9.989 -0.7294  1.2252 -0.1716
  989MOL0     H36414   0.685   9.769   9.940  1.4557 -0.2089 -4.6725
  989MOL0     H36415   0.388   9.946   9.849 -1.6025 -1.8517 -1.4215
  989MOL0     H36416   0.556   9.916   9.859 -0.7022  1.2260 -0.6007
  989MOL0     H36417   0.521   9.818  10.079 -1.2771 -2.1560 -2.5582
  989MOL0     H36418   0.457   9.989  10.084  0.7424 -0.4091  1.3160
  989MOL0     H36419   0.306   9.868  10.220  1.0802 -1.8087  0.3787
  989MOL0     H36420   0.223   9.897  10.063 -0.6949  1.0142  1.2588
  989MOL0     H36421   0.268   9.659  10.001 -0.4367  0.5471 -0.4951
  989MOL0     H36422   0.336   9.636  10.160 -2.6731 -3.7600  0.0856
  989MOL0     H36423   0.044   9.738  10.145 -2.6088 -2.4893  1.0380
  989MOL0     H36424   0.114   9.635  10.267  2.4897  2.3451  1.6916
  989MOL0     H36425  -0.039   9.540  10.133 -1.3325  0.1582 -3.8773
  989MOL0     H36426   0.051   9.550   9.987  0.3300 -5.0768 -1.6800
  989MOL0     H36427   0.234   9.397  10.089 -1.3030 -2.1499 -1.0362
  989MOL0     H36428   0.077   9.318  10.087 -1.9484  0.6455  0.4736
  989MOL0     H36429   0.217   9.260  10.270  0.9663  0.1911  2.1967
  989MOL0     H36430   0.223   9.429  10.331  2.0995  0.8408 -3.0054
  989MOL0     H36431  -0.026   9.117  10.302 -0.9099 -0.3678  1.1088
  989MOL0     H36432  -0.306   9.109  10.328 -0.2808  1.0389  0.5771
  989MOL0     H36433  -0.359   9.222  10.461 -2.3631 -0.5701 -2.5436
  989MOL0     H36434  -0.166   8.989  10.520  0.4401 -0.1648  1.7153
  989MOL0     H36435  -0.259   9.090  10.621 -0.4476  0.7354 -1.1066
  989MOL0     H36436  -0.469   8.993  10.551  0.4992 -1.0645  0.1334
  989MOL0     H36437  -0.406   8.894  10.420  0.4278  2.0883 -1.0592
  989MOL0     H36438  -0.348   8.897  10.703 -1.1388 -0.0482  0.6254
  989MOL0     H36439  -0.453   8.769  10.615  0.3785 -1.7594 -0.1906
  989MOL0     H36440  -0.038   8.670  10.540  0.8392  1.8243  0.9732
  989MOL0     H36441   0.151   8.351  10.630  0.6947  0.0768 -2.8914
  989MOL0     H36442   0.199   8.508  10.699  4.2550 -2.2674 -3.0184
  989MOL0     H36443   0.139   8.486  10.529 -2.8291  2.9830  0.3085
  989MOL0     H36444   0.026   8.072  10.924  0.2441  2.0386 -1.0015
  989MOL0     H36445   0.067   7.874  11.071  1.3348  1.6027 -1.7251
  989MOL0     H36446   0.073   7.981  11.507 -1.2707  0.4071  1.5532
  989MOL0     H36447  -0.099   7.918  11.512  0.6649 -2.1653  1.8777
  989MOL0     H36448   0.159   7.769  11.558 -0.0682  1.9408 -1.5816
  989MOL0     H36449   0.047   7.814  11.684 -3.6536 -3.0722  1.1933
  989MOL0     H36450  -0.075   7.651  11.459  3.5963 -1.5367 -1.6034
  989MOL0     H36451  -0.109   7.663  11.634  1.3755  0.2434 -0.9204
  989MOL0     H36452   0.108   7.521  11.643  0.9322 -0.6213 -0.0945
  989MOL0     H36453   0.119   7.530  11.476 -1.0959 -0.2639 -1.3843
  989MOL0     H36454  -0.144   7.440  11.590 -0.3800  1.8074 -2.3914
  989MOL0     H36455  -0.110   7.411  11.426 -1.4048  0.3759 -0.0158
  989MOL0     H36456   0.043   7.289  11.653 -0.2042  1.7116  0.4316
  989MOL0     H36457   0.087   7.269  11.487  0.8747  0.7430  0.7691
  989MOL0     H36458  -0.162   7.146  11.475 -1.4713  0.2433  0.3088
  989MOL0     H36459  -0.141   7.175  11.643  0.2912  3.0946 -0.7637
  989MOL0     H36460   0.055   7.049  11.662 -1.2731  2.7474  0.3265
  989MOL0     H36461   0.053   7.019  11.483 -2.3468  0.0578 -1.8479
  989MOL0     H36462  -0.056   8.125  11.410  2.8337 -0.6079 -0.0227
  989MOL0     H36463  -0.109   8.300  11.256 -1.8848 -0.0304 -0.0110
  989MOL0     H36464  -0.239   8.491  10.946  2.6987 -1.3413  0.6499
  989MOL0     H36465  -0.340   8.656  10.810  0.0709  1.7108 -2.3752
  989MOL0     H36466   0.365   9.503   9.811 -1.1588 -1.9185  1.7180
  989MOL0     H36467   0.519   9.309   9.848  0.4275 -1.4435  3.8249
  989MOL0     H36468   0.726   9.045   9.975  0.3577  0.6911 -0.4604
  989MOL0     H36469   0.843   8.823  10.000 -0.7861  1.7573 -2.1608
  989MOL0     H36470   1.056   8.711  10.307  0.9615  1.7884 -0.2371
  989MOL0     H36471   0.997   8.629  10.166  1.1517 -1.7372 -0.8269
  989MOL0     H36472   1.288   8.701  10.229  1.9913 -1.3059  2.7083
  989MOL0     H36473   1.242   8.585  10.104  3.0595 -0.5953  1.2160
  989MOL0     H36474   1.334   8.476  10.321 -1.1385 -1.8510 -1.3190
  989MOL0     H36475   1.190   8.539  10.406 -3.2537 -1.1702 -1.4739
  989MOL0     H36476   1.173   8.378  10.148 -1.0566  0.3814 -0.4117
  989MOL0     H36477   1.061   8.382  10.293  0.4415  0.2524  0.7668
  989MOL0     H36478   1.342   8.073  10.333  1.2984  1.0719  1.1832
  989MOL0     H36479   1.118   9.004  10.276 -0.8595 -0.9443  1.7150
  989MOL0     H36480   1.135   9.272  10.242 -0.8148  1.6271 -1.9206
  989MOL0     H36481   0.979   9.358  10.241  1.5632  1.4027 -1.5954
  989MOL0     H36482   1.028   9.236  10.374 -0.8716 -0.9742 -0.2403
  990MOL0     O36483   0.454   0.391   0.649 -0.3133 -0.4376  0.6189
  990MOL0     C36484   0.413   0.415   0.537 -0.7804 -0.7827  0.1125
  990MOL0     O36485   0.449   0.364   0.419 -0.4068  0.6739 -0.5246
  990MOL0     C36486   0.537   0.262   0.412 -0.6089 -0.2874  0.7730
  990MOL0     C36487   0.505   0.131   0.453  0.3589  0.4127  0.2898
  990MOL0     C36488   0.593   0.023   0.455  0.2078 -0.0783  0.2843
  990MOL0     C36489   0.724   0.050   0.418 -0.7210 -0.1723  0.5770
  990MOL0     O36490   0.829  -0.037   0.436  0.1929 -0.2334 -0.0514
  990MOL0     C36491   0.903  -0.013   0.562  0.2079 -0.2988  0.7025
  990MOL0     C36492   0.909  -0.147   0.646 -0.1671  0.2401 -0.7791
  990MOL0     C36493   0.762  -0.188   0.690 -0.6083 -0.0742 -0.4220
  990MOL0     C36494   0.760  -0.323   0.759 -0.2676 -0.0838 -1.2485
  990MOL0     C36495   0.810  -0.321   0.910  0.1335 -1.3679 -0.4097
  990MOL0     C36496   0.753  -0.434   1.003 -0.9844  0.5658  0.2967
  990MOL0     C36497   0.847  -0.554   0.996 -0.6203  0.3861 -0.2380
  990MOL0     C36498   0.836  -0.691   1.067 -0.2037  0.0994  0.2712
  990MOL0     N36499   0.711  -0.756   1.022  0.0821 -0.0984  0.2857
  990MOL0     C36500   0.648  -0.758   0.906  0.1979  1.0875  0.1616
  990MOL0     C36501   0.543  -0.848   0.923 -0.7278  0.2403  0.1519
  990MOL0     C36502   0.443  -0.897   0.818 -0.3276 -0.0378 -0.2136
  990MOL0     C36503   0.308  -0.948   0.884  0.9100  0.0343 -0.1032
  990MOL0     C36504   0.232  -0.845   0.950  0.6194  0.3934 -0.6986
  990MOL0     C36505   0.272  -0.800   1.088 -0.6974  0.7588  0.6130
  990MOL0     O36506   0.177  -0.701   1.142  0.4147 -0.2556  0.4241
  990MOL0     C36507   0.186  -0.661   1.270 -0.2424 -0.0051 -0.0788
  990MOL0     C36508   0.070  -0.620   1.340  0.1120 -0.0077  0.4970
  990MOL0     C36509   0.067  -0.572   1.468 -0.1064 -0.8306 -0.3404
  990MOL0     C36510  -0.056  -0.503   1.515  0.7781 -0.4299  0.4154
  990MOL0     C36511   0.180  -0.594   1.551 -0.0945  0.2155 -0.1322
  990MOL0     C36512   0.188  -0.578   1.700 -0.4075 -1.3951  0.1284
  990MOL0     O36513   0.244  -0.674   1.781 -0.6684 -0.0352 -0.0733
  990MOL0     C36514   0.225  -0.662   1.917 -0.3908  0.1759 -0.3043
  990MOL0     C36515   0.112  -0.731   1.982  0.9410 -0.7009 -0.3017
  990MOL0     C36516   0.076  -0.707   2.116  0.3144 -0.1416  0.0268
  990MOL0     C36517   0.157  -0.625   2.190  0.7750 -0.7482 -0.2313
  990MOL0     O36518   0.129  -0.588   2.322 -0.5540 -0.4512 -0.3907
  990MOL0     C36519  -0.009  -0.573   2.361  0.4219  0.6541  0.4968
  990MOL0     C36520  -0.019  -0.544   2.507 -0.1425  0.3440  0.6284
  990MOL0     C36521   0.057  -0.427   2.546 -0.1846  0.3740  0.5923
  990MOL0     C36522   0.013  -0.386   2.688  0.8132  0.9430 -0.2645
  990MOL0     C36523   0.050  -0.499   2.784  0.8593 -0.2162  0.3495
  990MOL0     C36524   0.020  -0.453   2.928  1.3347  0.1232 -0.7157
  990MOL0     C36525  -0.129  -0.416   2.962 -1.0802 -0.4211  0.4810
  990MOL0     C36526  -0.155  -0.387   3.108  0.3568  0.5576 -0.9144
  990MOL0    Cl36527  -0.074  -0.238   3.166 -0.4509 -0.0038  0.3430
  990MOL0     C36528   0.275  -0.583   2.139 -0.4363 -0.1965 -0.4649
  990MOL0     C36529   0.309  -0.593   2.006  0.2366 -0.5152  0.1767
  990MOL0     O36530   0.134  -0.478   1.741 -0.7590  0.5351  0.4016
  990MOL0     C36531   0.292  -0.640   1.484  0.6233  0.1158 -0.9552
  990MOL0     C36532   0.297  -0.680   1.348 -0.0054 -0.6272 -0.7697
  990MOL0     N36533   0.557  -0.902   1.050  0.4596 -0.6227 -0.1594
  990MOL0     N36534   0.650  -0.841   1.104 -0.9844  0.1038  0.8123
  990MOL0     C36535   0.752   0.178   0.364  0.1182  0.1865 -0.6235
  990MOL0     C36536   0.661   0.288   0.370  0.2809 -0.0337 -0.2330
  990MOL0     C36537   0.296   0.503   0.530 -0.3766  0.2365  1.3626
  990MOL0     C36538   0.305   0.622   0.609  0.4766 -0.3972 -0.6139
  990MOL0     C36539   0.216   0.719   0.593  0.4871 -0.6122 -0.0873
  990MOL0     C36540   0.102   0.701   0.508 -0.2241 -0.3193 -0.3744
  990MOL0     O36541   0.001   0.782   0.489 -0.1541  0.0740  0.2518
  990MOL0     C36542   0.018   0.918   0.500 -1.0806 -0.2983  0.1334
  990MOL0     C36543   0.106   0.972   0.394 -0.5633 -0.0281  0.2056
  990MOL0     C36544   0.124   1.130   0.409 -0.7026  0.5675 -0.9617
  990MOL0     C36545   0.181   1.163   0.553  0.2365 -0.1093  0.8865
  990MOL0     C36546   0.202   1.304   0.574 -0.3941  0.3077 -0.1323
  990MOL0     C36547   0.207   1.425   0.580 -0.0817  0.1220 -0.4982
  990MOL0     C36548   0.087   0.584   0.437 -0.0855  0.7268  0.0926
  990MOL0     C36549   0.179   0.477   0.444 -0.6434 -0.4372 -0.2179
  990MOL0     C36550   0.170   0.359   0.361  0.8482  0.3105 -0.0415
  990MOL0     H36551   0.400   0.126   0.479 -0.3250  4.7479 -0.8966
  990MOL0     H36552   0.568  -0.074   0.496  1.2798 -0.8346 -0.7972
  990MOL0     H36553   0.862   0.072   0.617 -0.5199  0.9548 -1.6395
  990MOL0     H36554   1.006   0.011   0.537 -0.3383 -0.4097 -2.0249
  990MOL0     H36555   0.948  -0.220   0.575 -2.1102 -1.6015 -0.0616
  990MOL0     H36556   0.965  -0.133   0.739 -1.0593 -0.0402 -0.1868
  990MOL0     H36557   0.720  -0.109   0.753 -5.7380 -1.2243 -1.8809
  990MOL0     H36558   0.701  -0.181   0.599 -1.5308  3.5702  0.3186
  990MOL0     H36559   0.660  -0.367   0.751 -1.2559  1.2665  2.0394
  990MOL0     H36560   0.827  -0.392   0.706 -0.7170 -2.3599  0.9253
  990MOL0     H36561   0.786  -0.223   0.953  3.6358 -1.5449  2.3762
  990MOL0     H36562   0.919  -0.329   0.915  0.1936  0.0879  3.0984
  990MOL0     H36563   0.737  -0.393   1.103  0.0384  0.4314  0.5264
  990MOL0     H36564   0.656  -0.474   0.972 -0.4354  0.3403 -1.2249
  990MOL0     H36565   0.936  -0.515   1.047 -2.6033  0.9681  3.0197
  990MOL0     H36566   0.877  -0.574   0.893  2.8052 -2.6811  1.1193
  990MOL0     H36567   0.917  -0.765   1.060  0.1579  0.5229 -0.0909
  990MOL0     H36568   0.833  -0.672   1.175 -2.4066 -2.4036  0.7652
  990MOL0     H36569   0.677  -0.712   0.813  3.8211 -0.9602  0.0850
  990MOL0     H36570   0.478  -0.966   0.741 -0.7725  0.0660 -0.5178
  990MOL0     H36571   0.424  -0.806   0.761  2.3673  1.1307  0.6075
  990MOL0     H36572   0.240  -0.998   0.815 -1.0715  1.7236  0.5503
  990MOL0     H36573   0.326  -1.022   0.962 -0.6913  1.1136  1.3697
  990MOL0     H36574   0.217  -0.760   0.884 -0.6532  1.6142  1.0600
  990MOL0     H36575   0.134  -0.887   0.976  1.5883  0.1350  3.1694
  990MOL0     H36576   0.261  -0.884   1.158 -3.4263  0.8153  0.3685
  990MOL0     H36577   0.376  -0.765   1.092  0.0823 -1.4637  1.3499
  990MOL0     H36578  -0.025  -0.612   1.286  0.3668 -2.8642 -0.5359
  990MOL0     H36579  -0.090  -0.560   1.602  1.4637 -1.1928  0.1973
  990MOL0     H36580  -0.135  -0.518   1.441  1.8765 -2.7905 -0.3605
  990MOL0     H36581  -0.034  -0.398   1.535  3.6113 -1.0008  0.7454
  990MOL0     H36582   0.041  -0.777   1.914  0.4300  1.2836 -1.2044
  990MOL0     H36583  -0.013  -0.755   2.156  1.6904 -3.2468 -0.3966
  990MOL0     H36584  -0.054  -0.500   2.294  1.0602  1.7131  1.1886
  990MOL0     H36585  -0.057  -0.671   2.356 -1.7574  1.6737  0.4474
  990MOL0     H36586  -0.126  -0.534   2.527 -0.7013 -1.3793 -1.1840
  990MOL0     H36587   0.008  -0.637   2.558 -0.0102  1.5985  2.9639
  990MOL0     H36588   0.031  -0.343   2.482  0.5616 -0.0893 -0.3293
  990MOL0     H36589   0.164  -0.447   2.552 -0.3794 -0.4512  1.8682
  990MOL0     H36590  -0.093  -0.360   2.685  0.1606 -1.2407  1.2529
  990MOL0     H36591   0.069  -0.300   2.726  1.5395 -0.6631  2.5837
  990MOL0     H36592  -0.006  -0.593   2.779 -1.5103  1.0856  0.8164
  990MOL0     H36593   0.157  -0.521   2.778  0.2865 -3.3343 -0.1437
  990MOL0     H36594   0.066  -0.359   2.960 -1.1510  1.1055  0.2873
  990MOL0     H36595   0.063  -0.542   2.975  1.2293 -0.3710 -1.5450
  990MOL0     H36596  -0.193  -0.495   2.921 -2.3380  0.1728  1.2689
  990MOL0     H36597  -0.151  -0.330   2.899  2.4131  1.1862  1.2050
  990MOL0     H36598  -0.122  -0.477   3.162  0.6644 -0.3239 -2.5128
  990MOL0     H36599  -0.262  -0.372   3.123  0.3046 -0.1393 -0.5361
  990MOL0     H36600   0.348  -0.523   2.194 -0.2609 -1.1133  0.3100
  990MOL0     H36601   0.389  -0.531   1.967  0.4031  1.4046  3.1908
  990MOL0     H36602   0.374  -0.662   1.551  1.1432  0.2340 -1.5515
  990MOL0     H36603   0.396  -0.708   1.313 -0.2500 -3.1009  0.2918
  990MOL0     H36604   0.854   0.206   0.337  0.5649 -0.6195  0.1689
  990MOL0     H36605   0.683   0.392   0.349 -3.9007  0.9059 -0.8237
  990MOL0     H36606   0.387   0.637   0.678 -0.9697 -1.8419  1.5215
  990MOL0     H36607   0.230   0.816   0.639  0.4463 -1.2121  1.2122
  990MOL0     H36608  -0.081   0.963   0.486 -1.6425 -1.6605 -0.4257
  990MOL0     H36609   0.035   0.943   0.605 -4.5650 -1.9255  1.2554
  990MOL0     H36610   0.046   0.957   0.304  0.5650 -0.7711 -0.4446
  990MOL0     H36611   0.201   0.918   0.387  0.2894  1.1821  1.6829
  990MOL0     H36612   0.190   1.156   0.326  2.5198  0.6458  1.4303
  990MOL0     H36613   0.023   1.171   0.410  1.0438  5.5995  1.8527
  990MOL0     H36614   0.277   1.114   0.570  1.7221  2.3987  0.2149
  990MOL0     H36615   0.104   1.138   0.627 -1.9043  1.8530 -0.5294
  990MOL0     H36616   0.213   1.529   0.606 -1.2034  0.1638 -0.3560
  990MOL0     H36617   0.001   0.568   0.373 -0.7914 -2.2180  1.5937
  990MOL0     H36618   0.215   0.267   0.400  0.2940  0.9347  2.1919
  990MOL0     H36619   0.063   0.336   0.362  0.7232  0.8920  0.2968
  990MOL0     H36620   0.211   0.374   0.261 -2.8240  0.6355 -1.6378
  991MOL0     O36621   2.415   2.839  11.401 -0.3817 -0.1897 -0.4426
  991MOL0     C36622   2.449   2.721  11.400  0.7460  0.1049  0.9104
  991MOL0     O36623   2.404   2.620  11.489  0.1074  0.7023  0.0389
  991MOL0     C36624   2.350   2.648  11.612  0.2408  0.3125  0.9476
  991MOL0     C36625   2.268   2.555  11.663 -0.1916  0.4945 -0.2220
  991MOL0     C36626   2.199   2.583  11.781  0.6425  0.8534 -0.0341
  991MOL0     C36627   2.221   2.699  11.854  0.9516  0.2527 -0.3072
  991MOL0     O36628   2.137   2.713  11.959  0.5517  0.0118 -0.0270
  991MOL0     C36629   2.097   2.850  11.997  0.3254 -0.4999 -1.2395
  991MOL0     C36630   1.990   2.926  11.914 -0.2558 -1.1357  0.0047
  991MOL0     C36631   1.971   3.070  11.975  0.6966 -0.1381 -0.6813
  991MOL0     C36632   2.079   3.178  11.959 -1.0182  0.1907 -0.0805
  991MOL0     C36633   2.026   3.325  11.954 -0.0260  1.2677 -0.3741
  991MOL0     C36634   1.971   3.384  11.823  1.6556  0.6461 -0.3902
  991MOL0     C36635   1.963   3.535  11.802  0.2321  0.2307  0.4513
  991MOL0     C36636   1.927   3.567  11.656  0.3147  0.4266 -0.7292
  991MOL0     N36637   1.875   3.710  11.638 -1.1166  0.3950  0.6931
  991MOL0     C36638   1.946   3.820  11.678  0.7480 -0.2075 -0.3031
  991MOL0     C36639   1.851   3.913  11.714 -0.1171 -0.5263  0.2644
  991MOL0     C36640   1.870   4.059  11.748 -1.0397 -0.3532  1.1831
  991MOL0     C36641   1.919   4.077  11.895  0.9377  0.8388 -0.1127
  991MOL0     C36642   1.942   4.217  11.953  0.8962 -0.0227 -0.4455
  991MOL0     C36643   1.810   4.296  11.933  0.1948  0.3135 -0.3835
  991MOL0     O36644   1.818   4.436  11.967  0.3653  0.5656 -0.4189
  991MOL0     C36645   1.913   4.479  12.058  0.0185  0.6547 -0.1829
  991MOL0     C36646   1.920   4.422  12.190 -0.0708  0.5231  0.2254
  991MOL0     C36647   2.004   4.473  12.291 -0.6956 -0.1047 -0.5789
  991MOL0     C36648   1.991   4.415  12.431  0.0814 -0.3267  0.3326
  991MOL0     C36649   2.107   4.573  12.256  0.4362 -0.5907 -1.1400
  991MOL0     C36650   2.206   4.620  12.355  0.8679 -0.3978 -0.3107
  991MOL0     O36651   2.172   4.622  12.486  0.5348  0.6560 -0.2493
  991MOL0     C36652   2.250   4.695  12.574  0.5052 -0.0211 -0.0674
  991MOL0     C36653   2.294   4.822  12.541 -0.5546 -0.2600 -0.2101
  991MOL0     C36654   2.382   4.895  12.617 -0.0235 -0.6145 -0.7261
  991MOL0     C36655   2.415   4.849  12.747  0.5812  0.8622 -0.0563
  991MOL0     O36656   2.489   4.916  12.838 -0.5807 -0.5018 -0.6143
  991MOL0     C36657   2.400   5.021  12.893 -0.1868  0.1066 -0.6608
  991MOL0     C36658   2.487   5.080  13.013 -0.8193  1.0237  1.1197
  991MOL0     C36659   2.412   5.190  13.083  0.1471  0.2144  0.8877
  991MOL0     C36660   2.487   5.235  13.209  0.2348  0.3794  0.1734
  991MOL0     C36661   2.405   5.309  13.323 -0.7563 -0.4170 -0.6133
  991MOL0     C36662   2.512   5.341  13.423 -0.2854 -0.3775 -0.4401
  991MOL0     C36663   2.454   5.403  13.550 -0.3140 -0.2882 -0.6253
  991MOL0     C36664   2.449   5.555  13.523 -0.2074  0.6324  0.0875
  991MOL0    Cl36665   2.374   5.648  13.648  0.6828 -0.0506 -0.5776
  991MOL0     C36666   2.365   4.722  12.792 -0.5036 -0.4931 -0.0679
  991MOL0     C36667   2.286   4.648  12.708 -0.4647  0.2118  0.0128
  991MOL0     O36668   2.315   4.662  12.317  0.9124 -0.6788  0.2012
  991MOL0     C36669   2.097   4.633  12.130 -1.0388 -0.0426  0.6564
  991MOL0     C36670   2.000   4.594  12.033 -0.3638  0.8951  0.1505
  991MOL0     N36671   1.729   3.857  11.687  0.3699  0.2998 -1.1777
  991MOL0     N36672   1.744   3.739  11.642 -0.1099 -0.2294 -0.2096
  991MOL0     C36673   2.303   2.797  11.797 -0.5538  0.3365  0.2619
  991MOL0     C36674   2.366   2.771  11.675  0.3696 -0.6875  0.2908
  991MOL0     C36675   2.553   2.670  11.297  0.1744  0.5499 -0.3323
  991MOL0     C36676   2.609   2.537  11.308 -0.1641 -0.1144 -0.8831
  991MOL0     C36677   2.712   2.490  11.216  0.6900 -0.0269 -0.2769
  991MOL0     C36678   2.748   2.570  11.104 -0.0862  1.4712  0.5268
  991MOL0     O36679   2.837   2.532  11.006  0.3633  0.1114  0.4714
  991MOL0     C36680   2.890   2.396  11.004  0.5709 -0.2827  1.2016
  991MOL0     C36681   2.989   2.399  10.891  0.4677 -0.5233  0.2045
  991MOL0     C36682   3.085   2.277  10.887 -0.0612 -0.2237 -0.4448
  991MOL0     C36683   3.164   2.267  10.752 -0.7990 -0.7920 -0.2853
  991MOL0     C36684   3.078   2.238  10.633 -0.1731  0.6453 -0.3243
  991MOL0     C36685   3.004   2.202  10.547 -0.8775  0.0699 -0.0857
  991MOL0     C36686   2.691   2.691  11.084 -0.3232 -0.2678 -0.5571
  991MOL0     C36687   2.604   2.742  11.181  0.8515  0.7788 -0.1943
  991MOL0     C36688   2.560   2.882  11.168 -0.8194 -1.3457  0.7193
  991MOL0     H36689   2.249   2.454  11.629  0.3967 -1.3434  4.2194
  991MOL0     H36690   2.129   2.507  11.817 -2.4372  3.2249 -0.5975
  991MOL0     H36691   2.173   2.929  12.002 -2.5721  2.3668  1.5794
  991MOL0     H36692   2.054   2.832  12.096  1.0782 -1.5771 -1.0836
  991MOL0     H36693   2.018   2.936  11.809 -0.5308 -1.2316 -0.0782
  991MOL0     H36694   1.896   2.870  11.919 -1.1996  0.4514  0.9168
  991MOL0     H36695   1.880   3.110  11.928  1.3528 -0.3525 -2.1890
  991MOL0     H36696   1.946   3.055  12.080  0.2119  2.1850 -0.4086
  991MOL0     H36697   2.147   3.159  12.042 -0.0188  0.8677 -0.7245
  991MOL0     H36698   2.128   3.161  11.863 -0.1889  0.5902  0.2637
  991MOL0     H36699   2.108   3.394  11.978  0.4036  0.5571  0.2515
  991MOL0     H36700   1.944   3.336  12.025 -1.8855 -0.9823 -2.0084
  991MOL0     H36701   2.031   3.333  11.747 -0.3376 -0.4860 -1.2831
  991MOL0     H36702   1.865   3.361  11.807  1.0630  2.7186  0.2589
  991MOL0     H36703   2.062   3.569  11.835  0.4478 -0.1979  0.2630
  991MOL0     H36704   1.891   3.577  11.872 -2.6819  1.5635 -3.0603
  991MOL0     H36705   2.018   3.582  11.598  0.5282 -3.0521 -1.5211
  991MOL0     H36706   1.861   3.499  11.600 -0.8152 -1.7922  2.9588
  991MOL0     H36707   2.054   3.833  11.680  1.0040 -1.9378 -0.9935
  991MOL0     H36708   1.770   4.104  11.744 -2.0505 -2.5650 -1.2400
  991MOL0     H36709   1.939   4.111  11.681  0.9453  0.7033  3.8912
  991MOL0     H36710   1.847   4.023  11.957  1.1961  0.9506  0.2864
  991MOL0     H36711   2.009   4.015  11.899 -0.1040 -0.6618  0.8352
  991MOL0     H36712   1.972   4.211  12.058 -1.3773 -0.8913  0.2153
  991MOL0     H36713   2.022   4.266  11.897  0.8327  0.2040 -0.3420
  991MOL0     H36714   1.780   4.302  11.828 -1.4118 -1.4696 -0.0719
  991MOL0     H36715   1.724   4.256  11.988  1.0508  1.7160  2.1733
  991MOL0     H36716   1.856   4.336  12.209  0.6344  0.0237  0.4049
  991MOL0     H36717   1.956   4.492  12.501  1.7528  0.5102  0.2915
  991MOL0     H36718   2.087   4.376  12.467  2.4585  3.6562 -0.9881
  991MOL0     H36719   1.906   4.347  12.443 -0.5984  0.8362  2.6819
  991MOL0     H36720   2.253   4.866  12.451  1.0539  0.8199 -0.4512
  991MOL0     H36721   2.426   4.986  12.577  0.4624  0.4593  2.0408
  991MOL0     H36722   2.382   5.111  12.835  2.4374 -0.4435 -2.5276
  991MOL0     H36723   2.307   4.978  12.931 -0.2179 -2.4188 -3.2190
  991MOL0     H36724   2.498   4.997  13.084 -1.4858 -0.5030 -0.4994
  991MOL0     H36725   2.588   5.104  12.979 -0.9302 -1.8329 -1.6429
  991MOL0     H36726   2.312   5.152  13.106  0.7219  0.1785  3.6060
  991MOL0     H36727   2.392   5.269  13.009 -2.3178  0.0493  1.2960
  991MOL0     H36728   2.574   5.297  13.185  2.7480 -2.5702  1.0224
  991MOL0     H36729   2.530   5.145  13.253 -0.2808  0.0918  0.0881
  991MOL0     H36730   2.364   5.399  13.276 -0.9890  0.4086  1.0943
  991MOL0     H36731   2.323   5.253  13.369 -0.3151 -1.4703 -1.0840
  991MOL0     H36732   2.580   5.408  13.370 -0.4409 -0.3566 -0.6134
  991MOL0     H36733   2.573   5.254  13.449  0.6893  1.0059  2.3034
  991MOL0     H36734   2.506   5.377  13.643 -1.9580  2.3969  1.1601
  991MOL0     H36735   2.350   5.370  13.557 -0.9724  1.9470  2.1379
  991MOL0     H36736   2.386   5.575  13.436 -0.0925  4.1538  0.6766
  991MOL0     H36737   2.551   5.592  13.505  1.0698 -1.4841  2.3716
  991MOL0     H36738   2.395   4.680  12.888  0.0002 -0.3660 -0.1667
  991MOL0     H36739   2.245   4.555  12.746 -2.9879  2.1582  2.5967
  991MOL0     H36740   2.166   4.713  12.105  0.1850 -0.4770  2.5434
  991MOL0     H36741   1.983   4.647  11.940 -2.7090 -0.4747 -0.2827
  991MOL0     H36742   2.324   2.889  11.851  0.4320  0.7455 -0.7778
  991MOL0     H36743   2.431   2.843  11.627  0.6859 -2.4980 -2.1617
  991MOL0     H36744   2.563   2.471  11.380 -1.4212  3.2477  1.6676
  991MOL0     H36745   2.765   2.398  11.239 -1.2447 -1.4851 -1.3452
  991MOL0     H36746   2.945   2.386  11.098  1.6340  1.3472  0.8087
  991MOL0     H36747   2.818   2.314  11.004  2.9687 -2.4937  1.7799
  991MOL0     H36748   3.038   2.497  10.886  0.8303 -0.3834  3.8680
  991MOL0     H36749   2.936   2.384  10.797  0.0867 -0.1430  0.3539
  991MOL0     H36750   3.143   2.292  10.978 -1.7329 -1.2016  0.8420
  991MOL0     H36751   3.032   2.186  10.915  0.2750 -0.3108 -0.0835
  991MOL0     H36752   3.232   2.181  10.748 -0.5426 -0.5881 -0.3204
  991MOL0     H36753   3.228   2.354  10.735 -0.9818 -0.4726  0.6121
  991MOL0     H36754   2.942   2.173  10.465  1.5614  2.3809 -2.9721
  991MOL0     H36755   2.710   2.749  10.994 -2.2599 -0.2963 -1.0426
  991MOL0     H36756   2.454   2.890  11.144 -1.1147 -1.2420  2.0392
  991MOL0     H36757   2.575   2.939  11.260 -3.9778  3.0350 -1.1467
  991MOL0     H36758   2.612   2.944  11.094 -3.8046 -0.4946 -0.8136
  992MOL0     O36759   9.331   6.452   4.278  0.1305 -0.5426 -0.0750
  992MOL0     C36760   9.331   6.544   4.358  0.1256 -0.0865 -0.6095
  992MOL0     O36761   9.411   6.644   4.355 -0.4080 -0.4024 -0.1883
  992MOL0     C36762   9.516   6.642   4.260  0.0322 -0.0392  0.2036
  992MOL0     C36763   9.638   6.578   4.292 -0.3640 -0.4332 -0.4305
  992MOL0     C36764   9.735   6.565   4.196 -0.7746 -0.2309  1.0074
  992MOL0     C36765   9.729   6.639   4.070  0.6174  0.9448 -1.1508
  992MOL0     O36766   9.837   6.622   3.986 -0.0805 -0.0905 -0.0307
  992MOL0     C36767   9.885   6.739   3.920  0.4016 -0.4563 -0.8156
  992MOL0     C36768  10.022   6.737   3.849 -0.6365 -0.2939 -0.2899
  992MOL0     C36769  10.143   6.734   3.955 -0.3406  0.4956  0.2573
  992MOL0     C36770  10.280   6.709   3.888 -0.2753 -0.3170 -0.2242
  992MOL0     C36771  10.393   6.682   3.995 -0.4464  0.5202 -0.0710
  992MOL0     C36772  10.540   6.710   3.954 -0.0737  0.1671  0.1424
  992MOL0     C36773  10.636   6.666   4.068  1.0874 -0.1289 -0.1939
  992MOL0     C36774  10.779   6.730   4.057  0.4959  0.5180 -0.5178
  992MOL0     N36775  10.759   6.877   4.048  0.4536 -0.9244 -0.0195
  992MOL0     C36776  10.716   6.958   4.149 -0.0873 -0.2835  0.5714
  992MOL0     C36777  10.690   7.082   4.084  0.8162 -0.6983 -0.1430
  992MOL0     C36778  10.617   7.204   4.136  0.4680  0.2243  1.5112
  992MOL0     C36779  10.465   7.174   4.152 -0.3510  0.2923  1.2324
  992MOL0     C36780  10.395   7.139   4.020  0.0827 -0.0787 -0.3570
  992MOL0     C36781  10.243   7.166   4.051 -0.5436 -0.5463 -0.0839
  992MOL0     O36782  10.206   7.082   4.159  0.4332 -0.4683 -0.2012
  992MOL0     C36783  10.079   7.077   4.191 -0.0816 -0.4742  0.1701
  992MOL0     C36784   9.980   7.155   4.130 -0.7632  0.0882  0.3352
  992MOL0     C36785   9.846   7.150   4.168 -0.1921  0.8397 -1.1467
  992MOL0     C36786   9.753   7.252   4.115 -0.3361  0.6888  1.0671
  992MOL0     C36787   9.798   7.048   4.260  0.2078 -1.2852  0.1612
  992MOL0     C36788   9.658   7.032   4.302 -0.1216  0.1037 -0.3706
  992MOL0     O36789   9.554   7.078   4.225 -1.2088  0.1899 -0.6459
  992MOL0     C36790   9.429   7.078   4.284 -0.6971  0.1544  1.1347
  992MOL0     C36791   9.396   7.098   4.420  0.3533 -0.4431 -0.9127
  992MOL0     C36792   9.253   7.120   4.450 -0.5987 -0.0955 -0.1203
  992MOL0     C36793   9.143   7.091   4.364  0.1222 -0.5252  0.5957
  992MOL0     O36794   9.012   7.108   4.407  0.2557  0.0815 -0.1040
  992MOL0     C36795   8.948   7.228   4.359 -0.1665 -0.0043  0.9338
  992MOL0     C36796   9.003   7.363   4.411  0.1363 -0.3137  0.0790
  992MOL0     C36797   8.970   7.379   4.564  0.2203 -0.7779  0.4600
  992MOL0     C36798   9.019   7.516   4.610  0.8657  0.5215 -0.1445
  992MOL0     C36799   8.954   7.643   4.550  0.0499  1.0172 -0.1912
  992MOL0     C36800   9.009   7.770   4.616  0.8994  0.1563  0.1238
  992MOL0     C36801   8.946   7.893   4.546 -0.6958 -0.0258  0.7004
  992MOL0     C36802   8.964   8.015   4.635 -0.1073  0.3673  0.5996
  992MOL0    Cl36803   8.816   8.041   4.747 -0.4304 -0.5673  0.0343
  992MOL0     C36804   9.182   7.080   4.226  0.7666  0.6085  0.2212
  992MOL0     C36805   9.321   7.062   4.190 -0.2188  0.8211 -0.7954
  992MOL0     O36806   9.647   6.965   4.401  0.2037  0.6312 -0.2151
  992MOL0     C36807   9.901   6.972   4.323  1.2626 -0.1608  1.4041
  992MOL0     C36808  10.039   6.989   4.295 -0.6344 -0.9537  1.1839
  992MOL0     N36809  10.740   7.061   3.953 -1.1637 -0.3780 -0.1681
  992MOL0     N36810  10.770   6.940   3.929 -0.8678  0.4900 -1.3100
  992MOL0     C36811   9.609   6.709   4.048  0.5412 -0.4235 -0.6499
  992MOL0     C36812   9.502   6.699   4.133 -0.7321  0.2433  0.1982
  992MOL0     C36813   9.243   6.542   4.473  0.1359 -0.0565 -0.0621
  992MOL0     C36814   9.270   6.447   4.572  0.8436  0.0649 -0.7425
  992MOL0     C36815   9.170   6.440   4.679 -1.1270  0.7860 -0.5407
  992MOL0     C36816   9.070   6.534   4.685  0.3326  0.0384  0.4484
  992MOL0     O36817   8.975   6.541   4.783 -0.3725 -0.0801  0.3269
  992MOL0     C36818   9.026   6.571   4.911  0.1848  0.5629  0.0677
  992MOL0     C36819   9.003   6.449   5.021 -0.2980 -0.1012 -0.3174
  992MOL0     C36820   8.860   6.451   5.059 -0.6625 -0.5584  0.1611
  992MOL0     C36821   8.847   6.345   5.161  0.4324  0.8824 -0.2670
  992MOL0     C36822   8.706   6.319   5.195 -0.3656  0.6018 -0.1491
  992MOL0     C36823   8.598   6.286   5.223  0.0240  0.3370  0.5065
  992MOL0     C36824   9.051   6.633   4.594 -0.5697  0.5564  0.5297
  992MOL0     C36825   9.144   6.636   4.485  0.3436  0.4716  0.3629
  992MOL0     C36826   9.104   6.725   4.368 -0.3442  0.4138  0.9602
  992MOL0     H36827   9.651   6.536   4.391 -1.0292 -0.3884 -0.3178
  992MOL0     H36828   9.826   6.522   4.235 -2.2073 -1.1880  3.5373
  992MOL0     H36829   9.889   6.812   4.001 -0.5563 -0.7507 -0.4843
  992MOL0     H36830   9.816   6.785   3.849  1.7838  0.5530 -1.5514
  992MOL0     H36831  10.020   6.653   3.780  1.2049 -0.9819  0.4399
  992MOL0     H36832  10.037   6.819   3.778 -1.3899 -2.3138 -2.9571
  992MOL0     H36833  10.156   6.827   4.012  1.0233 -0.6529  1.9156
  992MOL0     H36834  10.131   6.655   4.029  0.5987  0.0386 -0.0553
  992MOL0     H36835  10.289   6.631   3.812  4.6366 -1.7799  1.5093
  992MOL0     H36836  10.311   6.803   3.841  0.6017 -0.8848 -0.8087
  992MOL0     H36837  10.380   6.577   4.023  2.0157  0.1384 -0.1474
  992MOL0     H36838  10.373   6.744   4.083 -0.6690 -0.2610  0.4293
  992MOL0     H36839  10.560   6.657   3.861  1.9619  1.1129 -0.0083
  992MOL0     H36840  10.551   6.815   3.927 -0.0419 -0.3169 -1.8412
  992MOL0     H36841  10.644   6.557   4.056 -1.3506 -0.1380 -2.9235
  992MOL0     H36842  10.591   6.692   4.164  2.3120  2.8280 -0.3376
  992MOL0     H36843  10.845   6.717   4.143  1.1367 -0.9522 -1.1975
  992MOL0     H36844  10.839   6.687   3.976  0.5390 -0.1170 -0.1531
  992MOL0     H36845  10.685   6.937   4.251  2.8780  1.3820  1.9532
  992MOL0     H36846  10.635   7.296   4.080 -0.5269 -0.8900 -0.7810
  992MOL0     H36847  10.657   7.221   4.237  1.2424 -0.4755  1.3315
  992MOL0     H36848  10.456   7.099   4.231 -1.5927 -0.6154  0.2534
  992MOL0     H36849  10.423   7.268   4.188  1.0648  1.3651  0.1976
  992MOL0     H36850  10.425   7.209   3.941 -1.5487  1.5557  0.4058
  992MOL0     H36851  10.413   7.040   3.977 -3.1967  0.5059 -3.4821
  992MOL0     H36852  10.231   7.266   4.094  1.9665 -0.5137  0.6744
  992MOL0     H36853  10.192   7.153   3.955 -0.6121  0.4769 -0.1990
  992MOL0     H36854  10.012   7.223   4.052 -0.3047 -2.0317 -1.4269
  992MOL0     H36855   9.815   7.340   4.096  0.1887  0.3646  1.2546
  992MOL0     H36856   9.679   7.300   4.180  0.7616  2.0260  1.3710
  992MOL0     H36857   9.702   7.213   4.026  2.3550 -1.0480  0.1716
  992MOL0     H36858   9.464   7.112   4.504 -0.4740 -2.0337  0.0636
  992MOL0     H36859   9.242   7.148   4.554 -2.2143  2.8239 -0.9634
  992MOL0     H36860   8.964   7.238   4.252 -2.6643 -0.3333  0.4690
  992MOL0     H36861   8.839   7.224   4.367 -0.1134 -2.4074  1.0736
  992MOL0     H36862   9.112   7.358   4.403  0.0628  0.5052 -1.9445
  992MOL0     H36863   8.970   7.436   4.337 -0.5755 -2.1798 -1.5454
  992MOL0     H36864   9.017   7.300   4.624  0.1946 -0.5992  0.7154
  992MOL0     H36865   8.862   7.366   4.578  0.1653  0.9466  2.0932
  992MOL0     H36866   9.125   7.518   4.585  1.1964 -1.6713  0.7583
  992MOL0     H36867   9.000   7.530   4.717  3.9272  1.5194  0.3423
  992MOL0     H36868   8.983   7.640   4.445  1.0997  0.2592  0.1044
  992MOL0     H36869   8.849   7.645   4.578  0.1970 -2.3194  1.0804
  992MOL0     H36870   9.118   7.780   4.618  0.9644  0.7174 -2.5245
  992MOL0     H36871   8.968   7.770   4.718  0.0407  1.7571 -0.1923
  992MOL0     H36872   8.838   7.876   4.548 -0.8278  0.6404  3.3852
  992MOL0     H36873   8.996   7.910   4.450  0.3583 -2.4432  0.7537
  992MOL0     H36874   8.957   8.102   4.569 -0.7266 -0.5000 -0.4994
  992MOL0     H36875   9.063   8.015   4.683  0.5294  0.9272 -0.6581
  992MOL0     H36876   9.097   7.081   4.159 -1.5903  1.5984  3.0114
  992MOL0     H36877   9.330   7.056   4.082  0.4360  1.3823 -0.7762
  992MOL0     H36878   9.872   6.906   4.405 -3.6907 -0.9208 -0.5728
  992MOL0     H36879  10.109   6.923   4.346  0.7391 -0.2047  0.3362
  992MOL0     H36880   9.584   6.746   3.949 -1.4301 -0.4131 -0.1918
  992MOL0     H36881   9.410   6.748   4.105  0.1108  2.1432  0.5748
  992MOL0     H36882   9.343   6.368   4.561 -1.8086 -3.0137  1.9263
  992MOL0     H36883   9.178   6.355   4.745  0.9635  0.8316 -0.6694
  992MOL0     H36884   9.135   6.565   4.904  0.2772  0.5680  1.2017
  992MOL0     H36885   8.994   6.672   4.940  0.0767  1.5433 -3.1541
  992MOL0     H36886   9.077   6.457   5.101 -1.6767 -0.9793  1.0753
  992MOL0     H36887   9.034   6.356   4.972 -0.8409 -1.1096  1.2241
  992MOL0     H36888   8.819   6.539   5.110 -2.8634 -0.2895 -1.8479
  992MOL0     H36889   8.790   6.439   4.975  1.0726 -2.2286 -1.1264
  992MOL0     H36890   8.895   6.380   5.252 -0.5556 -0.5574  0.8679
  992MOL0     H36891   8.881   6.244   5.135  2.6656  1.3046  0.8175
  992MOL0     H36892   8.498   6.254   5.241 -0.2290 -0.5702 -2.1634
  992MOL0     H36893   8.972   6.706   4.612 -0.9766  0.4648 -0.8113
  992MOL0     H36894   9.085   6.674   4.273 -0.9866  1.0209  0.7540
  992MOL0     H36895   9.022   6.796   4.380 -0.1477  0.7754  0.2620
  992MOL0     H36896   9.186   6.789   4.334  0.2774  0.0125  1.6689
  993MOL0     O36897  11.306   3.746   2.419  0.3478  1.1085  0.1087
  993MOL0     C36898  11.422   3.712   2.403 -0.1473  1.0892  0.4489
  993MOL0     O36899  11.527   3.782   2.442  0.1618 -0.0416 -0.4252
  993MOL0     C36900  11.521   3.918   2.476 -0.2305 -0.9342  0.8032
  993MOL0     C36901  11.625   3.975   2.552 -0.0112  1.0733  0.8416
  993MOL0     C36902  11.636   4.113   2.584 -0.5543  0.3555  0.4724
  993MOL0     C36903  11.536   4.203   2.549  0.1528 -0.2291 -1.1051
  993MOL0     O36904  11.556   4.330   2.609 -0.1248  0.5921 -0.1947
  993MOL0     C36905  11.464   4.421   2.568 -0.4705  0.6135  0.1560
  993MOL0     C36906  11.484   4.563   2.629 -0.4364  1.0562  0.0871
  993MOL0     C36907  11.357   4.649   2.610 -0.3886 -0.2866  0.3959
  993MOL0     C36908  11.333   4.657   2.458  0.7175  0.0342 -0.7436
  993MOL0     C36909  11.206   4.743   2.430  0.2061  0.4425 -0.2523
  993MOL0     C36910  11.156   4.713   2.292  0.0221  1.0331  0.5494
  993MOL0     C36911  11.010   4.758   2.266  0.2593 -0.3081 -0.2535
  993MOL0     C36912  10.957   4.708   2.125  0.2079  0.6961  0.4921
  993MOL0     N36913  10.949   4.556   2.113 -0.0397 -1.2697 -0.6188
  993MOL0     C36914  11.046   4.477   2.068  0.2941 -0.1086  0.6687
  993MOL0     C36915  10.996   4.355   2.074 -0.0365 -0.5627 -0.0633
  993MOL0     C36916  11.074   4.229   2.042 -0.2931  1.1224  0.0091
  993MOL0     C36917  10.987   4.122   1.972  0.4210  0.1916  0.6913
  993MOL0     C36918  10.888   4.050   2.069  0.1535 -0.8072 -0.0073
  993MOL0     C36919  10.934   3.966   2.188  0.0071  0.0728 -0.3239
  993MOL0     O36920  10.818   3.897   2.242  0.5582 -0.0254 -0.6254
  993MOL0     C36921  10.845   3.779   2.315 -0.4037 -1.0774  1.2584
  993MOL0     C36922  10.738   3.702   2.366 -0.0410 -0.1163 -0.0678
  993MOL0     C36923  10.755   3.590   2.449  0.5994 -0.2498 -0.7818
  993MOL0     C36924  10.626   3.508   2.475  0.1583  0.1565 -0.0712
  993MOL0     C36925  10.884   3.551   2.501  0.3345  0.6385  0.3344
  993MOL0     C36926  10.921   3.432   2.582 -0.6072 -0.3460  0.0070
  993MOL0     O36927  10.819   3.364   2.653  0.5041  0.6245 -0.4321
  993MOL0     C36928  10.850   3.235   2.699 -0.2077 -0.2860 -0.2363
  993MOL0     C36929  10.953   3.217   2.792  0.1671  0.0771  0.3608
  993MOL0     C36930  10.982   3.096   2.846  0.1659 -0.3262 -0.9492
  993MOL0     C36931  10.895   2.985   2.821  0.8859 -0.2002 -0.4291
  993MOL0     O36932  10.909   2.862   2.875  0.3492  0.5511  0.0847
  993MOL0     C36933  10.991   2.839   2.994  0.1635 -0.1968 -0.1062
  993MOL0     C36934  11.014   2.694   3.026  0.4195  0.0176  0.3008
  993MOL0     C36935  10.888   2.599   3.009  0.0653  0.0518  0.5589
  993MOL0     C36936  10.914   2.447   2.993  0.3961  0.4910  1.3751
  993MOL0     C36937  10.791   2.371   2.943  0.4020  0.8876 -0.3745
  993MOL0     C36938  10.672   2.382   3.047  0.3867  0.2374 -0.1794
  993MOL0     C36939  10.545   2.316   2.994  0.3680 -0.1206  0.7449
  993MOL0     C36940  10.465   2.401   2.886 -0.3472  0.8659  0.0764
  993MOL0    Cl36941  10.320   2.295   2.833 -0.8014 -0.0807 -0.4143
  993MOL0     C36942  10.785   3.005   2.733  0.0682  0.7713 -0.3447
  993MOL0     C36943  10.768   3.129   2.673  0.2402  0.2614 -0.3369
  993MOL0     O36944  11.040   3.391   2.568 -1.1798 -0.6203 -0.0612
  993MOL0     C36945  10.985   3.638   2.450 -1.2882  1.0552  0.3185
  993MOL0     C36946  10.970   3.740   2.363 -0.2773  0.6793 -0.6076
  993MOL0     N36947  10.866   4.361   2.116 -0.3039 -0.2098 -0.5711
  993MOL0     N36948  10.837   4.479   2.132 -0.4570 -1.8365 -0.3932
  993MOL0     C36949  11.447   4.147   2.459 -0.1113  0.2193  1.0584
  993MOL0     C36950  11.424   4.011   2.435  0.2243 -0.0319  0.1615
  993MOL0     C36951  11.450   3.584   2.329 -0.2546 -1.5576  0.4199
  993MOL0     C36952  11.347   3.491   2.317 -0.5470 -0.0401  0.5545
  993MOL0     C36953  11.371   3.380   2.236  0.0858 -0.0861  0.4405
  993MOL0     C36954  11.499   3.339   2.191  0.1513 -0.1686 -0.4597
  993MOL0     O36955  11.515   3.214   2.135  0.3900  0.1839  1.0136
  993MOL0     C36956  11.631   3.183   2.060  0.1117 -0.0473 -0.4096
  993MOL0     C36957  11.604   3.051   1.987  0.7919  0.0927 -0.3833
  993MOL0     C36958  11.687   3.011   1.864  1.0632  0.1815 -0.1417
  993MOL0     C36959  11.643   3.093   1.732 -0.6179  0.2049 -0.2421
  993MOL0     C36960  11.653   3.237   1.724  0.3921 -1.3014  0.3733
  993MOL0     C36961  11.668   3.351   1.711  0.4865 -0.4599 -0.4610
  993MOL0     C36962  11.598   3.433   2.211 -0.1808  0.8790 -0.0191
  993MOL0     C36963  11.578   3.558   2.267  0.3973  0.4578  0.4306
  993MOL0     C36964  11.690   3.651   2.255 -0.7116  0.1210 -0.5730
  993MOL0     H36965  11.687   3.913   2.616 -1.1070  1.1776  2.0427
  993MOL0     H36966  11.711   4.141   2.656 -2.2955  4.3308  0.9917
  993MOL0     H36967  11.366   4.380   2.595  0.2400 -1.2876 -0.0022
  993MOL0     H36968  11.463   4.418   2.458 -1.7966 -2.4597  0.1326
  993MOL0     H36969  11.507   4.554   2.736  1.3275 -0.0695 -0.3572
  993MOL0     H36970  11.571   4.618   2.590  1.5784  1.0402  4.0368
  993MOL0     H36971  11.267   4.608   2.656 -0.6104 -1.0323 -0.6497
  993MOL0     H36972  11.367   4.751   2.648  2.2575 -0.8784  1.5066
  993MOL0     H36973  11.412   4.700   2.395 -2.9621  1.4524 -4.8483
  993MOL0     H36974  11.314   4.556   2.421  0.0076 -1.4387  3.1514
  993MOL0     H36975  11.220   4.852   2.435 -0.8076  0.5458  0.7059
  993MOL0     H36976  11.130   4.705   2.498 -0.5283  1.9528 -0.1937
  993MOL0     H36977  11.228   4.759   2.223 -1.3741  0.6791 -1.2394
  993MOL0     H36978  11.155   4.604   2.278  0.2759  0.8449  1.8829
  993MOL0     H36979  11.006   4.868   2.270  0.2580 -0.3133 -0.1096
  993MOL0     H36980  10.954   4.708   2.345  0.5896 -1.7714 -0.9091
  993MOL0     H36981  10.857   4.745   2.100  1.2324  0.9790 -4.1494
  993MOL0     H36982  11.019   4.749   2.044  0.3263  0.3203  0.3908
  993MOL0     H36983  11.143   4.509   2.033 -0.5729 -0.0917 -1.9406
  993MOL0     H36984  11.101   4.192   2.141 -1.0543 -1.0740 -0.5326
  993MOL0     H36985  11.164   4.244   1.980 -0.5216 -2.1414 -1.3242
  993MOL0     H36986  10.936   4.159   1.883  0.0158  1.2836  1.3510
  993MOL0     H36987  11.066   4.061   1.928  0.8669  0.5798  0.9548
  993MOL0     H36988  10.820   4.123   2.112 -1.4807 -0.3645 -3.0585
  993MOL0     H36989  10.826   3.989   2.003  0.8470  0.4695 -1.9320
  993MOL0     H36990  11.004   3.895   2.142 -1.1910 -1.1869 -0.2936
  993MOL0     H36991  10.981   4.025   2.267 -0.1829 -0.9649  0.5930
  993MOL0     H36992  10.638   3.737   2.343  0.7866  1.8780 -0.8198
  993MOL0     H36993  10.541   3.568   2.441  0.8817  0.6388 -1.0756
  993MOL0     H36994  10.613   3.473   2.578 -3.2694  0.3458 -0.3080
  993MOL0     H36995  10.615   3.424   2.405 -1.9398  2.0578 -2.2204
  993MOL0     H36996  11.010   3.304   2.825 -0.1411 -0.2323  1.7514
  993MOL0     H36997  11.079   3.077   2.889  0.6563  0.1823 -1.7869
  993MOL0     H36998  11.090   2.883   2.981 -0.2524  0.0574 -3.0380
  993MOL0     H36999  10.933   2.883   3.076  1.1028  1.0867 -0.0899
  993MOL0     H37000  11.087   2.657   2.954  1.2963 -0.6924  1.5017
  993MOL0     H37001  11.044   2.678   3.131 -1.1989 -3.1869  0.3979
  993MOL0     H37002  10.825   2.641   2.930 -0.0065  1.9609  1.5872
  993MOL0     H37003  10.825   2.605   3.099 -0.5022 -3.2809  0.5139
  993MOL0     H37004  10.932   2.402   3.091  1.0527 -0.9268  0.6306
  993MOL0     H37005  10.998   2.436   2.923 -0.6096  3.6681 -0.5736
  993MOL0     H37006  10.755   2.423   2.853 -1.7993 -0.5767 -0.4014
  993MOL0     H37007  10.805   2.264   2.925  0.5884  0.9823 -0.8282
  993MOL0     H37008  10.641   2.486   3.062  0.5142 -0.0096  2.3019
  993MOL0     H37009  10.703   2.344   3.145  0.4097 -0.9138 -0.6125
  993MOL0     H37010  10.479   2.297   3.079 -2.3330  0.5471 -1.0643
  993MOL0     H37011  10.583   2.226   2.944 -1.8993 -0.1786 -1.0683
  993MOL0     H37012  10.527   2.418   2.798 -0.0509 -0.2727  0.0449
  993MOL0     H37013  10.442   2.494   2.939 -0.7272  1.1014 -0.4997
  993MOL0     H37014  10.718   2.922   2.716 -0.7067  1.1184  0.8887
  993MOL0     H37015  10.681   3.145   2.611 -0.3821  1.2607  0.7727
  993MOL0     H37016  11.087   3.637   2.489 -1.4339 -0.3619  0.7334
  993MOL0     H37017  11.059   3.779   2.314 -1.6145 -0.2160 -4.0971
  993MOL0     H37018  11.381   4.221   2.413  0.0605 -0.5190 -0.4396
  993MOL0     H37019  11.354   3.989   2.354  2.1659  0.5462 -1.7530
  993MOL0     H37020  11.254   3.511   2.369  0.2673  1.9412  1.3270
  993MOL0     H37021  11.279   3.324   2.222  0.0161  0.3255 -0.7599
  993MOL0     H37022  11.650   3.263   1.988 -1.0512 -0.5147 -1.2541
  993MOL0     H37023  11.714   3.172   2.131  0.0949  4.1598  0.5622
  993MOL0     H37024  11.504   3.053   1.944  0.6613 -0.3363 -0.1124
  993MOL0     H37025  11.608   2.970   2.062  2.0063  0.1497 -0.3619
  993MOL0     H37026  11.794   3.024   1.880  0.9231  2.9268 -0.9086
  993MOL0     H37027  11.681   2.905   1.839  3.6497  0.2176 -1.2288
  993MOL0     H37028  11.539   3.066   1.711 -0.0547 -2.6259  0.2016
  993MOL0     H37029  11.711   3.060   1.653 -1.2407 -1.2501 -0.1994
  993MOL0     H37030  11.681   3.455   1.693 -1.6324 -0.3526 -1.8383
  993MOL0     H37031  11.703   3.413   2.189  0.5106  1.0439  2.7530
  993MOL0     H37032  11.751   3.659   2.345 -2.5014 -0.8854  0.8004
  993MOL0     H37033  11.756   3.625   2.171 -0.4245  0.8854 -0.5912
  993MOL0     H37034  11.653   3.749   2.224  2.0255  2.0676  1.8199
  994MOL0     O37035   8.729   0.744   9.325 -0.0018  0.2434 -0.2146
  994MOL0     C37036   8.794   0.800   9.411  0.5569  0.0801  0.6883
  994MOL0     O37037   8.752   0.832   9.535  0.2475  0.2404  0.2332
  994MOL0     C37038   8.618   0.836   9.550  0.3239 -0.2194  0.2063
  994MOL0     C37039   8.539   0.723   9.583 -0.1708 -0.0013 -0.4842
  994MOL0     C37040   8.399   0.725   9.572 -0.9610  0.9483  0.1044
  994MOL0     C37041   8.338   0.841   9.554  0.1320  0.2341  0.4713
  994MOL0     O37042   8.204   0.863   9.560  0.7434  0.0604  0.4355
  994MOL0     C37043   8.116   0.750   9.547 -0.0237 -0.3753  0.2844
  994MOL0     C37044   7.962   0.808   9.558 -0.4666  0.6259 -0.1326
  994MOL0     C37045   7.948   0.849   9.707 -0.1068  0.2467  0.8499
  994MOL0     C37046   7.807   0.900   9.719 -0.0617 -0.1710 -0.0580
  994MOL0     C37047   7.773   1.021   9.633  0.0717  0.5717 -0.1595
  994MOL0     C37048   7.629   1.082   9.655 -0.8673  0.1593  0.1664
  994MOL0     C37049   7.585   1.201   9.577 -0.0496 -0.7161 -1.6512
  994MOL0     C37050   7.670   1.323   9.605 -0.2958 -0.9067  0.5215
  994MOL0     N37051   7.658   1.440   9.510 -0.0059  1.7302 -0.0227
  994MOL0     C37052   7.661   1.432   9.377  0.1219  0.6775 -0.3463
  994MOL0     C37053   7.619   1.552   9.339 -0.0780 -0.2231 -0.3447
  994MOL0     C37054   7.604   1.599   9.192 -0.4305 -0.3380 -0.8343
  994MOL0     C37055   7.721   1.680   9.136 -0.1128 -0.7827 -0.3070
  994MOL0     C37056   7.761   1.798   9.224  0.6241  0.0652  0.4531
  994MOL0     C37057   7.895   1.860   9.170 -0.1593 -0.2217 -0.5647
  994MOL0     O37058   7.934   1.950   9.277 -0.1002  0.1897  0.6865
  994MOL0     C37059   8.042   2.032   9.263 -0.2572  0.2001 -0.1151
  994MOL0     C37060   8.127   2.032   9.147 -0.2676  0.2968 -1.2546
  994MOL0     C37061   8.244   2.103   9.155  0.0748  0.5328 -0.2174
  994MOL0     C37062   8.347   2.108   9.046 -0.3176 -0.2126 -0.2321
  994MOL0     C37063   8.273   2.180   9.269  0.0423  0.7188 -1.0770
  994MOL0     C37064   8.389   2.275   9.292 -0.2268 -0.5559 -1.0948
  994MOL0     O37065   8.433   2.351   9.192 -0.1294  0.0941 -0.0686
  994MOL0     C37066   8.564   2.392   9.201  0.3017 -0.1079  0.3393
  994MOL0     C37067   8.585   2.532   9.213 -0.2223  0.0401  0.7547
  994MOL0     C37068   8.720   2.585   9.222  0.0074 -0.0507 -0.4450
  994MOL0     C37069   8.834   2.496   9.237  0.5312  0.2589  0.2704
  994MOL0     O37070   8.955   2.553   9.267  0.2858  0.3845 -0.9371
  994MOL0     C37071   9.069   2.478   9.277  0.7296  0.1291  0.5523
  994MOL0     C37072   9.191   2.564   9.291 -0.3686 -0.3693  0.3090
  994MOL0     C37073   9.183   2.688   9.196  0.1452  0.6238 -0.5694
  994MOL0     C37074   9.208   2.660   9.053 -0.2631 -0.0913 -0.4202
  994MOL0     C37075   9.227   2.792   8.973 -0.8839  0.5022  0.1260
  994MOL0     C37076   9.306   2.765   8.839  0.4802  0.7270 -0.8153
  994MOL0     C37077   9.297   2.898   8.761  0.6393  0.2303 -0.0830
  994MOL0     C37078   9.360   2.899   8.626  0.7733 -0.2532 -0.3810
  994MOL0    Cl37079   9.301   3.035   8.522 -0.0372 -0.1623  0.3435
  994MOL0     C37080   8.800   2.366   9.229 -1.1638 -0.3695 -0.5768
  994MOL0     C37081   8.674   2.312   9.197 -0.3734  0.5723 -1.1831
  994MOL0     O37082   8.446   2.260   9.404 -0.1839  0.3181  0.3765
  994MOL0     C37083   8.189   2.166   9.377 -0.2500  0.0459 -0.1932
  994MOL0     C37084   8.075   2.088   9.381 -0.2137  0.2759 -0.6636
  994MOL0     N37085   7.580   1.625   9.449  0.8944  0.2343  0.5969
  994MOL0     N37086   7.611   1.558   9.554 -0.0836 -0.1862 -0.8492
  994MOL0     C37087   8.414   0.950   9.535 -0.4681 -1.3476  0.9133
  994MOL0     C37088   8.547   0.953   9.518 -0.9108  1.0026 -1.0746
  994MOL0     C37089   8.935   0.833   9.389  0.4042 -0.2085 -0.4844
  994MOL0     C37090   9.015   0.857   9.503  0.6685 -0.1310 -0.0843
  994MOL0     C37091   9.156   0.888   9.486 -1.0055  0.7116 -0.9046
  994MOL0     C37092   9.217   0.887   9.359 -1.1304 -0.2700 -0.4287
  994MOL0     O37093   9.351   0.909   9.334 -0.6482  0.1382 -0.7110
  994MOL0     C37094   9.421   0.820   9.244 -0.0278  0.0732 -0.0795
  994MOL0     C37095   9.577   0.836   9.251 -0.1010  0.2924  1.1163
  994MOL0     C37096   9.633   0.751   9.366  0.6192 -0.4855 -0.3809
  994MOL0     C37097   9.787   0.772   9.386  0.0232 -0.5185 -0.9696
  994MOL0     C37098   9.843   0.752   9.520 -0.3418  0.2242  0.6360
  994MOL0     C37099   9.880   0.730   9.633  0.0080  1.1041  0.5766
  994MOL0     C37100   9.140   0.852   9.253  1.4609  1.1624  0.8905
  994MOL0     C37101   8.996   0.824   9.260 -0.2326 -0.2141  0.4932
  994MOL0     C37102   8.929   0.788   9.123 -0.0353 -0.2338  0.8979
  994MOL0     H37103   8.587   0.627   9.602  0.9158  0.5773 -0.1722
  994MOL0     H37104   8.353   0.629   9.592  1.3070 -0.1915  0.1532
  994MOL0     H37105   8.149   0.680   9.625  0.9038  0.0204  0.2660
  994MOL0     H37106   8.114   0.700   9.450 -1.1611 -1.0107  0.6221
  994MOL0     H37107   7.963   0.896   9.492 -0.5810  1.3917  0.8722
  994MOL0     H37108   7.896   0.724   9.535  3.2442 -1.5728 -4.4426
  994MOL0     H37109   7.980   0.765   9.769 -1.8963 -0.7436  0.4824
  994MOL0     H37110   8.018   0.931   9.727  0.6545  0.5193 -2.3378
  994MOL0     H37111   7.732   0.826   9.686  0.6065 -0.5925 -0.6689
  994MOL0     H37112   7.799   0.923   9.825  1.7657  0.5371 -0.0397
  994MOL0     H37113   7.772   0.982   9.531  3.7699  1.0561 -0.5053
  994MOL0     H37114   7.852   1.097   9.640 -0.0946  0.7184  0.1679
  994MOL0     H37115   7.554   1.005   9.634  0.2962 -0.9426 -0.0590
  994MOL0     H37116   7.622   1.103   9.762 -1.1581 -2.1189  0.6522
  994MOL0     H37117   7.482   1.214   9.613  0.8307 -0.4319  0.9390
  994MOL0     H37118   7.583   1.180   9.469  0.0017  2.3878 -2.3560
  994MOL0     H37119   7.674   1.359   9.708 -0.1542 -1.3161  0.6607
  994MOL0     H37120   7.769   1.292   9.571 -0.8060 -0.6302 -1.3534
  994MOL0     H37121   7.671   1.342   9.317 -0.6441  0.2956  0.0921
  994MOL0     H37122   7.507   1.647   9.181 -1.2928 -2.0662 -1.2121
  994MOL0     H37123   7.596   1.509   9.130  1.0131 -1.4889  0.5403
  994MOL0     H37124   7.795   1.604   9.109 -2.5664 -2.5033 -2.7264
  994MOL0     H37125   7.683   1.727   9.045  0.7891 -1.4380 -1.0394
  994MOL0     H37126   7.683   1.873   9.211  1.7119  0.8671 -2.0468
  994MOL0     H37127   7.770   1.777   9.331 -0.8674  4.4997  1.6590
  994MOL0     H37128   7.970   1.781   9.155  1.5170  1.1654  0.1858
  994MOL0     H37129   7.861   1.903   9.075 -1.2469 -3.8991 -2.0194
  994MOL0     H37130   8.095   1.970   9.064  0.7542  0.4554 -1.7689
  994MOL0     H37131   8.448   2.094   9.084 -0.3501  2.0323  0.8053
  994MOL0     H37132   8.329   2.210   9.010 -1.1649 -0.7808 -1.5280
  994MOL0     H37133   8.329   2.042   8.960  1.8247  1.4111 -2.0617
  994MOL0     H37134   8.502   2.601   9.218 -0.0928  0.1915  5.4666
  994MOL0     H37135   8.730   2.693   9.218  0.2821 -0.0954 -0.9856
  994MOL0     H37136   9.063   2.415   9.366 -0.9152 -0.1652  0.2704
  994MOL0     H37137   9.086   2.424   9.183  3.2687  2.8993 -0.7789
  994MOL0     H37138   9.192   2.607   9.392 -2.3149  0.4521  0.0210
  994MOL0     H37139   9.275   2.503   9.258 -2.2428 -1.7433 -2.2318
  994MOL0     H37140   9.267   2.750   9.231 -1.0548  2.8317 -1.3863
  994MOL0     H37141   9.089   2.743   9.196 -0.7377 -0.8134 -1.9954
  994MOL0     H37142   9.137   2.598   8.997 -1.4860  1.5398 -0.7368
  994MOL0     H37143   9.304   2.607   9.049 -1.9535 -3.3066 -1.8344
  994MOL0     H37144   9.126   2.827   8.950 -1.2438 -2.0123 -2.7459
  994MOL0     H37145   9.271   2.867   9.040 -4.2283  1.6425  1.2948
  994MOL0     H37146   9.268   2.679   8.782 -0.6646  0.5287  0.2152
  994MOL0     H37147   9.406   2.734   8.871 -0.2258  1.0779  1.9508
  994MOL0     H37148   9.328   2.982   8.824 -1.1370  0.1411  0.9808
  994MOL0     H37149   9.189   2.909   8.752  0.3436 -1.9987 -0.0419
  994MOL0     H37150   9.352   2.804   8.572 -1.7978 -0.9898  1.0815
  994MOL0     H37151   9.466   2.921   8.635  1.1668 -2.5865  2.2135
  994MOL0     H37152   8.888   2.306   9.247  0.5108  2.5051  1.6604
  994MOL0     H37153   8.652   2.207   9.177  2.9633  0.0247 -2.7190
  994MOL0     H37154   8.217   2.206   9.474 -2.4388 -0.7556  0.8537
  994MOL0     H37155   8.009   2.073   9.465 -1.5882 -1.0820 -1.9042
  994MOL0     H37156   8.366   1.047   9.528  4.5710  1.6937  3.1548
  994MOL0     H37157   8.595   1.049   9.504  3.0659 -0.4047  1.1326
  994MOL0     H37158   8.973   0.852   9.603 -1.0266  1.0013 -0.6819
  994MOL0     H37159   9.218   0.902   9.573 -0.5134  2.5057 -1.4943
  994MOL0     H37160   9.389   0.715   9.245 -3.6150  1.0247  0.2597
  994MOL0     H37161   9.396   0.848   9.142  2.7680  1.2664 -0.5328
  994MOL0     H37162   9.607   0.938   9.276 -0.1062  0.4236  0.5897
  994MOL0     H37163   9.635   0.816   9.161 -1.2474  0.2460  0.3588
  994MOL0     H37164   9.583   0.784   9.458  4.4142  1.0813  1.3394
  994MOL0     H37165   9.612   0.644   9.356  2.7376 -0.8344 -1.6149
  994MOL0     H37166   9.810   0.878   9.370 -1.0851 -0.3747 -1.6498
  994MOL0     H37167   9.841   0.717   9.308  3.9430  0.9815  0.4215
  994MOL0     H37168   9.911   0.703   9.732  2.1251  0.9313 -0.0731
  994MOL0     H37169   9.182   0.842   9.154 -0.9452  3.6388 -0.5254
  994MOL0     H37170   8.940   0.679   9.118  1.8208 -0.1645  2.3749
  994MOL0     H37171   8.824   0.818   9.117 -0.4814 -1.8247  0.2396
  994MOL0     H37172   8.974   0.832   9.033  2.5199 -2.2032  1.1024
  995MOL0     O37173  11.402   3.415   4.717  0.6433  0.5773 -0.2275
  995MOL0     C37174  11.420   3.346   4.617  0.4075  0.3681 -0.3657
  995MOL0     O37175  11.466   3.391   4.499 -0.5703 -0.7151  0.0967
  995MOL0     C37176  11.486   3.527   4.490  0.4215  0.2907  0.1094
  995MOL0     C37177  11.399   3.617   4.421 -0.3772 -0.7767 -1.0730
  995MOL0     C37178  11.447   3.749   4.408 -0.3741  0.3151  0.5505
  995MOL0     C37179  11.572   3.804   4.449  0.0069  0.2895  0.8464
  995MOL0     O37180  11.610   3.935   4.432  0.1690  0.5315 -0.4260
  995MOL0     C37181  11.716   3.953   4.337  0.2101  0.1957 -0.8810
  995MOL0     C37182  11.670   4.061   4.231 -1.0373 -1.3780  1.1999
  995MOL0     C37183  11.805   4.119   4.178  0.7110 -0.1793  0.5188
  995MOL0     C37184  11.778   4.178   4.041 -0.3489  0.4740  0.2269
  995MOL0     C37185  11.899   4.187   3.954  0.3078 -0.6173  0.2182
  995MOL0     C37186  11.992   4.303   3.993  0.7420  0.6690 -0.4619
  995MOL0     C37187  11.918   4.437   3.965 -0.8075 -0.0676 -0.3088
  995MOL0     C37188  12.017   4.550   3.925  0.0501  0.5181 -0.3628
  995MOL0     N37189  12.095   4.528   3.802  0.4252  0.7536 -0.3676
  995MOL0     C37190  12.224   4.495   3.795 -0.1135 -0.1406  0.4780
  995MOL0     C37191  12.255   4.466   3.669 -0.0151  0.6467  0.3336
  995MOL0     C37192  12.384   4.408   3.609 -0.3270 -0.2574  1.1790
  995MOL0     C37193  12.469   4.520   3.540 -0.7315  0.3113  0.0095
  995MOL0     C37194  12.551   4.572   3.671  0.1266  0.4232  1.1849
  995MOL0     C37195  12.621   4.702   3.626  0.1731  0.2587 -0.3103
  995MOL0     O37196  12.540   4.814   3.666  0.1834  0.2585 -0.5995
  995MOL0     C37197  12.487   4.900   3.574 -0.1554  0.3946  0.9353
  995MOL0     C37198  12.366   4.880   3.506  0.1955 -0.8872  0.9890
  995MOL0     C37199  12.310   4.981   3.431  0.5385 -0.0974  0.7455
  995MOL0     C37200  12.184   4.946   3.357 -0.1058 -0.3058  0.2206
  995MOL0     C37201  12.368   5.111   3.432 -1.4091  0.0785 -0.8790
  995MOL0     C37202  12.310   5.227   3.359  0.3708 -0.4399  0.4614
  995MOL0     O37203  12.216   5.207   3.264 -0.1145  0.3281 -0.0342
  995MOL0     C37204  12.161   5.304   3.179 -0.1047  0.4813 -0.4342
  995MOL0     C37205  12.032   5.270   3.139 -0.4680  0.3306 -0.4871
  995MOL0     C37206  11.962   5.355   3.048  0.7518 -0.0372 -0.3109
  995MOL0     C37207  12.019   5.475   3.006  0.7303  0.5653 -0.5948
  995MOL0     O37208  11.945   5.561   2.932 -0.1011  0.6410 -0.2541
  995MOL0     C37209  11.980   5.700   2.954 -0.1116  0.7387 -0.4733
  995MOL0     C37210  11.956   5.751   3.100  0.4444 -0.6074  0.2806
  995MOL0     C37211  11.807   5.728   3.131 -0.4014  0.8224 -0.4243
  995MOL0     C37212  11.764   5.824   3.235  0.5599  0.5050  0.4836
  995MOL0     C37213  11.796   5.768   3.374 -0.5433  0.3187  0.5047
  995MOL0     C37214  11.783   5.876   3.482  0.2637  0.0480 -0.7330
  995MOL0     C37215  11.633   5.907   3.517  1.1527  0.9093  0.0186
  995MOL0     C37216  11.620   6.006   3.630 -0.1565 -0.2828  0.3470
  995MOL0    Cl37217  11.704   5.972   3.776 -0.1926 -0.6855 -0.8431
  995MOL0     C37218  12.152   5.507   3.043  0.1161 -1.0180 -0.4863
  995MOL0     C37219  12.225   5.419   3.129 -0.7342 -0.9680 -1.1937
  995MOL0     O37220  12.365   5.339   3.380 -0.5041 -0.1964 -1.1212
  995MOL0     C37221  12.494   5.127   3.491 -0.0714 -0.4099 -0.6487
  995MOL0     C37222  12.541   5.024   3.567  0.2819 -0.2617  0.2207
  995MOL0     N37223  12.150   4.510   3.594 -0.2939 -0.7677 -0.5079
  995MOL0     N37224  12.056   4.542   3.670  0.5426 -0.8181 -0.8134
  995MOL0     C37225  11.659   3.706   4.508 -0.1393  0.1897 -0.0451
  995MOL0     C37226  11.610   3.573   4.531 -0.5337 -0.1623  0.7859
  995MOL0     C37227  11.420   3.191   4.626  0.4464  0.1176 -0.3138
  995MOL0     C37228  11.409   3.125   4.505 -0.1239  0.4083 -0.1533
  995MOL0     C37229  11.409   2.982   4.487 -0.6733 -0.0618 -0.3410
  995MOL0     C37230  11.381   2.906   4.604  0.2869  0.6149  0.0861
  995MOL0     O37231  11.349   2.766   4.586 -0.3792 -0.4399 -0.6274
  995MOL0     C37232  11.361   2.678   4.693  0.0808 -0.1758 -0.5107
  995MOL0     C37233  11.365   2.542   4.624 -0.4485  0.3833 -1.0473
  995MOL0     C37234  11.282   2.434   4.687  0.9821 -0.2332  0.5697
  995MOL0     C37235  11.128   2.461   4.686 -0.2684 -0.7041 -0.1889
  995MOL0     C37236  11.063   2.375   4.787  0.2013 -0.0448 -0.4169
  995MOL0     C37237  11.005   2.316   4.876 -0.1465 -1.0574  0.1802
  995MOL0     C37238  11.379   2.966   4.731 -0.3799 -0.3484  0.0276
  995MOL0     C37239  11.416   3.106   4.740  0.8577 -0.0452  0.2264
  995MOL0     C37240  11.424   3.155   4.885  0.7354 -0.2859  0.0115
  995MOL0     H37241  11.300   3.592   4.383 -0.9514 -0.5797  0.2265
  995MOL0     H37242  11.368   3.816   4.376 -1.4543 -1.2451 -0.1727
  995MOL0     H37243  11.757   3.862   4.294 -2.4098 -0.2241 -2.7630
  995MOL0     H37244  11.796   3.998   4.397 -0.0433  1.7038 -1.6325
  995MOL0     H37245  11.611   4.018   4.149 -0.6639  2.5162 -1.3817
  995MOL0     H37246  11.625   4.146   4.283  1.3514  0.5240  0.3887
  995MOL0     H37247  11.848   4.183   4.255  0.3723 -2.2002  2.5234
  995MOL0     H37248  11.876   4.036   4.175 -1.1658 -2.1697  4.2647
  995MOL0     H37249  11.705   4.108   3.997  0.7486 -0.0649 -0.7918
  995MOL0     H37250  11.731   4.273   4.067  0.0250  0.5404  0.6657
  995MOL0     H37251  11.868   4.193   3.849 -0.7151  2.0847  0.5806
  995MOL0     H37252  11.960   4.097   3.946  1.5939  0.1297  1.3270
  995MOL0     H37253  12.024   4.301   4.098  0.1109  3.3886 -0.1468
  995MOL0     H37254  12.081   4.300   3.929  1.2226  2.6309  0.0378
  995MOL0     H37255  11.859   4.470   4.051 -0.8480  1.3221 -0.8346
  995MOL0     H37256  11.851   4.426   3.879 -1.9573 -0.3951  0.6015
  995MOL0     H37257  11.960   4.638   3.897  0.0497  1.1821  1.6217
  995MOL0     H37258  12.080   4.568   4.012  1.4118 -1.8004 -0.7684
  995MOL0     H37259  12.292   4.484   3.878  0.9755 -0.9795 -0.4861
  995MOL0     H37260  12.358   4.336   3.531 -2.9096  2.9708 -1.2166
  995MOL0     H37261  12.443   4.362   3.689  1.4927 -1.7622 -0.9051
  995MOL0     H37262  12.535   4.460   3.477  0.1325  1.7607 -0.5018
  995MOL0     H37263  12.431   4.605   3.483  1.7044  0.2199 -1.9025
  995MOL0     H37264  12.486   4.595   3.756 -1.3417  0.2379  0.1465
  995MOL0     H37265  12.619   4.490   3.697 -1.3021 -1.6191 -1.0364
  995MOL0     H37266  12.716   4.714   3.679 -1.3075  3.4482  1.9658
  995MOL0     H37267  12.640   4.688   3.519  1.2403  2.2875 -0.4315
  995MOL0     H37268  12.318   4.782   3.502 -2.6797  0.4421  0.0954
  995MOL0     H37269  12.191   4.934   3.249 -3.6234 -0.6501 -0.0823
  995MOL0     H37270  12.116   5.029   3.380 -1.7600 -1.3367 -0.7867
  995MOL0     H37271  12.144   4.852   3.395 -0.2204 -1.8983 -3.5027
  995MOL0     H37272  11.999   5.175   3.180  1.5775  0.2903  1.2819
  995MOL0     H37273  11.866   5.330   3.004  0.4509  1.8246 -0.8125
  995MOL0     H37274  12.085   5.723   2.934  0.2507  2.3924  2.6733
  995MOL0     H37275  11.919   5.764   2.889 -1.4060  2.1491  1.9812
  995MOL0     H37276  12.017   5.705   3.178  1.1099 -0.5734 -0.2152
  995MOL0     H37277  11.963   5.860   3.092 -2.5381 -0.4793 -3.3751
  995MOL0     H37278  11.788   5.626   3.166 -0.6313  0.6802 -0.9492
  995MOL0     H37279  11.750   5.746   3.039 -1.8743 -0.7967  0.0950
  995MOL0     H37280  11.656   5.828   3.219  0.8187 -0.0424 -1.7466
  995MOL0     H37281  11.813   5.921   3.220  0.2312  0.9032  1.7758
  995MOL0     H37282  11.734   5.681   3.398 -1.2154  0.7853  0.4826
  995MOL0     H37283  11.898   5.731   3.388 -1.3543 -2.3504 -0.0171
  995MOL0     H37284  11.830   5.970   3.453  0.1838  1.3896  2.9894
  995MOL0     H37285  11.828   5.832   3.572  1.5694  2.3451 -0.1955
  995MOL0     H37286  11.595   5.809   3.546  2.3788  0.1869 -0.7283
  995MOL0     H37287  11.580   5.935   3.426 -2.6550  0.7098  2.0009
  995MOL0     H37288  11.515   6.017   3.659  0.3369  3.1689  1.3812
  995MOL0     H37289  11.654   6.104   3.593 -2.3677  0.4016 -0.0455
  995MOL0     H37290  12.204   5.591   2.999 -0.5178 -0.3644 -0.0129
  995MOL0     H37291  12.323   5.449   3.166 -0.9710 -2.8520  1.1891
  995MOL0     H37292  12.538   5.227   3.496  2.3728 -1.3991 -0.9082
  995MOL0     H37293  12.622   5.056   3.631 -0.0736 -0.2345  0.6602
  995MOL0     H37294  11.760   3.738   4.527  0.0259  2.6182 -3.9078
  995MOL0     H37295  11.678   3.500   4.574 -1.1253 -1.0124  0.3276
  995MOL0     H37296  11.395   3.187   4.417 -0.6183 -3.0151 -2.6757
  995MOL0     H37297  11.411   2.939   4.388  0.1355  0.8884 -0.7606
  995MOL0     H37298  11.457   2.692   4.743 -1.5876 -2.6529  3.9534
  995MOL0     H37299  11.287   2.680   4.774  0.2103 -1.2650 -0.3483
  995MOL0     H37300  11.471   2.515   4.630 -0.7613 -0.5008  2.0384
  995MOL0     H37301  11.340   2.550   4.517 -1.6323 -2.1672 -1.0458
  995MOL0     H37302  11.303   2.344   4.629 -1.0012  0.0308 -0.6383
  995MOL0     H37303  11.312   2.417   4.791  1.8485 -1.8910  0.0718
  995MOL0     H37304  11.083   2.428   4.592 -1.8964  0.6317  0.0878
  995MOL0     H37305  11.106   2.565   4.709 -4.1098 -1.3289 -0.4714
  995MOL0     H37306  10.973   2.262   4.962 -1.8286  1.5103  1.2784
  995MOL0     H37307  11.364   2.908   4.822  2.6033  1.5086  1.8640
  995MOL0     H37308  11.489   3.242   4.896 -1.9719  1.6290  2.8350
  995MOL0     H37309  11.321   3.183   4.910  0.1353 -2.0823 -0.3553
  995MOL0     H37310  11.443   3.079   4.960  0.8784  0.5970  0.8875
  996MOL0     O37311  10.310   5.673   2.407 -0.3718 -0.1411  0.4230
  996MOL0     C37312  10.419   5.703   2.360 -0.4074  0.6499 -0.3738
  996MOL0     O37313  10.519   5.616   2.333 -0.2608  0.0232  0.4090
  996MOL0     C37314  10.486   5.483   2.352  1.2246 -0.7649 -0.7720
  996MOL0     C37315  10.537   5.425   2.473 -0.3060  0.3036 -0.2466
  996MOL0     C37316  10.525   5.286   2.494  0.4341 -0.1970 -0.0405
  996MOL0     C37317  10.464   5.208   2.397 -0.1726 -0.8010  0.1261
  996MOL0     O37318  10.420   5.085   2.412  0.3334  0.0572  0.5732
  996MOL0     C37319  10.492   4.972   2.455  0.5313  0.8096 -0.8479
  996MOL0     C37320  10.414   4.892   2.572 -1.0824  1.3021  0.6318
  996MOL0     C37321  10.313   4.786   2.527  0.1991  1.0262 -0.6631
  996MOL0     C37322  10.185   4.847   2.448  0.2950  0.2547  0.0650
  996MOL0     C37323  10.072   4.847   2.544  0.7797  0.2655  0.7104
  996MOL0     C37324   9.962   4.903   2.446  0.1338  0.8633 -0.7327
  996MOL0     C37325   9.828   4.871   2.504 -0.3334 -0.0417 -0.3470
  996MOL0     C37326   9.825   4.869   2.662  0.5234  0.8449 -0.0257
  996MOL0     N37327   9.685   4.892   2.711  0.1619  0.4840  0.1723
  996MOL0     C37328   9.622   5.002   2.773 -0.1796  0.1483 -0.3930
  996MOL0     C37329   9.514   4.955   2.844 -0.2176 -0.5157 -0.5782
  996MOL0     C37330   9.425   5.039   2.943 -0.3974 -0.7052 -0.1361
  996MOL0     C37331   9.389   4.979   3.075  0.0671  0.1268 -0.2490
  996MOL0     C37332   9.511   4.916   3.156 -0.2084 -1.2710 -0.1416
  996MOL0     C37333   9.567   5.030   3.239 -1.2294  0.1288 -0.6467
  996MOL0     O37334   9.638   5.130   3.174 -0.5156 -0.3387  0.7421
  996MOL0     C37335   9.760   5.094   3.117  0.5968  0.6076  0.4131
  996MOL0     C37336   9.857   5.007   3.175  0.8831 -0.3003  0.2599
  996MOL0     C37337   9.977   4.978   3.114  0.4692  0.1619 -0.6848
  996MOL0     C37338  10.045   4.857   3.172 -0.9327 -0.3306  0.1355
  996MOL0     C37339  10.013   5.062   3.006 -0.0295 -0.4749 -0.7036
  996MOL0     C37340  10.149   5.068   2.945 -0.4811 -0.7795 -1.3622
  996MOL0     O37341  10.263   5.057   3.021 -0.5088  0.1847  0.8427
  996MOL0     C37342  10.383   5.037   2.958 -0.0754 -0.1900  0.1174
  996MOL0     C37343  10.452   5.149   2.909 -0.3993 -0.5617  0.1342
  996MOL0     C37344  10.584   5.135   2.861 -0.2352  0.0484 -0.5830
  996MOL0     C37345  10.647   5.002   2.872  0.5395 -0.4014  0.8407
  996MOL0     O37346  10.772   4.988   2.820 -0.0006 -0.4609  0.6237
  996MOL0     C37347  10.873   5.097   2.837  0.5712 -0.7160 -0.0907
  996MOL0     C37348  10.904   5.161   2.700  0.8754  0.0554  0.3207
  996MOL0     C37349  10.959   5.059   2.608  0.2829 -0.3709  0.3877
  996MOL0     C37350  11.012   5.118   2.479 -0.0147 -0.4773  0.4279
  996MOL0     C37351  10.905   5.176   2.384 -0.5645 -0.1288 -0.4028
  996MOL0     C37352  10.979   5.226   2.262 -0.0318  0.5427 -0.3083
  996MOL0     C37353  10.879   5.290   2.167 -0.1628  0.3677 -0.3020
  996MOL0     C37354  10.787   5.184   2.103 -0.4209  1.2339 -0.5623
  996MOL0    Cl37355  10.887   5.056   2.030 -1.0068  0.0540 -0.2699
  996MOL0     C37356  10.581   4.893   2.920 -1.3869 -0.7510 -0.5535
  996MOL0     C37357  10.448   4.908   2.963  1.2200  0.2062 -0.2950
  996MOL0     O37358  10.141   5.088   2.824 -0.2514  0.0385 -0.9446
  996MOL0     C37359   9.918   5.151   2.942 -0.2210  0.3253  0.0338
  996MOL0     C37360   9.795   5.153   3.000  0.2438 -0.4564 -0.1751
  996MOL0     N37361   9.509   4.822   2.826 -0.3389 -0.0296  0.1345
  996MOL0     N37362   9.612   4.779   2.757 -1.6319  0.4599 -0.0931
  996MOL0     C37363  10.428   5.267   2.283 -0.5159  0.7615 -0.1909
  996MOL0     C37364  10.438   5.400   2.260  0.1793  0.2567 -0.4814
  996MOL0     C37365  10.461   5.845   2.339  0.3468 -0.4829 -0.5803
  996MOL0     C37366  10.603   5.888   2.340  0.9705  1.2422  0.4125
  996MOL0     C37367  10.644   6.014   2.323  0.2138  0.5989  0.8005
  996MOL0     C37368  10.560   6.125   2.317  0.0414  0.3160  0.3087
  996MOL0     O37369  10.618   6.253   2.306 -0.7599  0.5674  0.7939
  996MOL0     C37370  10.549   6.371   2.364 -0.7904  0.4134 -0.4617
  996MOL0     C37371  10.652   6.472   2.419 -0.1000  0.2429 -0.3430
  996MOL0     C37372  10.680   6.456   2.573 -0.7875 -0.0251  0.3712
  996MOL0     C37373  10.545   6.498   2.657 -0.0445  0.5627 -0.2605
  996MOL0     C37374  10.552   6.459   2.803  0.1594  0.1239  0.6284
  996MOL0     C37375  10.542   6.436   2.927  0.0327  0.7858  0.2933
  996MOL0     C37376  10.422   6.096   2.309 -0.9361  0.0304  0.3337
  996MOL0     C37377  10.372   5.957   2.326  0.1190  0.2983  0.1907
  996MOL0     C37378  10.220   5.936   2.325 -0.5797 -0.8337  0.5613
  996MOL0     H37379  10.576   5.479   2.559 -3.4571  0.1067  1.4889
  996MOL0     H37380  10.565   5.239   2.584 -0.2503 -0.5338  0.0954
  996MOL0     H37381  10.586   5.001   2.501  0.4662 -0.3916  0.0957
  996MOL0     H37382  10.524   4.907   2.373 -0.0957 -0.6248  0.0115
  996MOL0     H37383  10.489   4.839   2.631 -2.3719 -1.7252 -0.2466
  996MOL0     H37384  10.364   4.955   2.646  0.7514 -0.0160  3.1624
  996MOL0     H37385  10.365   4.716   2.462 -0.7189  0.6678 -1.0244
  996MOL0     H37386  10.282   4.728   2.614  2.6609 -0.5995 -0.7701
  996MOL0     H37387  10.208   4.947   2.411  1.1938 -0.3435 -1.0436
  996MOL0     H37388  10.174   4.785   2.359  3.7198 -2.2933  1.2098
  996MOL0     H37389  10.088   4.920   2.624  1.1539  4.3655 -2.7641
  996MOL0     H37390  10.048   4.749   2.587 -0.9038  0.3311  0.0093
  996MOL0     H37391   9.985   5.009   2.435  2.3885  0.9571  2.9686
  996MOL0     H37392   9.958   4.868   2.343  2.1548 -2.2836  0.1190
  996MOL0     H37393   9.815   4.765   2.478  1.0150 -0.7349  1.5429
  996MOL0     H37394   9.753   4.942   2.471 -1.1931 -0.2954  0.9596
  996MOL0     H37395   9.865   4.771   2.690 -0.7956  0.4149  0.4381
  996MOL0     H37396   9.883   4.955   2.697 -1.5879  1.4832  2.2750
  996MOL0     H37397   9.664   5.102   2.770 -1.0245  0.6569  2.1970
  996MOL0     H37398   9.330   5.065   2.895 -1.1333  0.0184  1.6272
  996MOL0     H37399   9.480   5.134   2.948  0.3793 -1.0061 -2.0711
  996MOL0     H37400   9.330   5.038   3.145 -0.2225 -2.4349  1.8041
  996MOL0     H37401   9.323   4.898   3.041 -0.6915  0.9791 -0.8448
  996MOL0     H37402   9.469   4.849   3.231 -1.6887  2.8464  3.1511
  996MOL0     H37403   9.577   4.869   3.083 -2.3075 -3.1261 -0.9361
  996MOL0     H37404   9.484   5.075   3.294  0.7596  1.7677  1.1855
  996MOL0     H37405   9.631   4.989   3.318  2.0862  0.7378 -2.8205
  996MOL0     H37406   9.821   4.957   3.265  2.6121 -0.5201  0.8700
  996MOL0     H37407  10.025   4.774   3.104  0.9841 -1.6322  1.0735
  996MOL0     H37408  10.016   4.832   3.275  0.3905 -0.1423  0.5756
  996MOL0     H37409  10.153   4.871   3.180 -0.4563 -2.1386 -2.0958
  996MOL0     H37410  10.419   5.253   2.908  0.2073 -0.3063 -2.9054
  996MOL0     H37411  10.637   5.219   2.819  5.1040 -3.9845 -3.0817
  996MOL0     H37412  10.835   5.162   2.916  0.4447 -1.5464  0.5474
  996MOL0     H37413  10.967   5.061   2.879 -0.1518 -2.5334  0.0562
  996MOL0     H37414  10.811   5.203   2.660 -1.0569 -6.0122 -2.6259
  996MOL0     H37415  10.968   5.250   2.707 -1.5221  2.0521 -1.2329
  996MOL0     H37416  10.879   4.989   2.580 -0.1514  0.9611 -1.9806
  996MOL0     H37417  11.040   5.008   2.661  1.7464  2.8374  1.4930
  996MOL0     H37418  11.076   5.044   2.429  4.0861  2.2570  1.1191
  996MOL0     H37419  11.082   5.199   2.502  1.6893 -1.9961  0.8463
  996MOL0     H37420  10.842   5.090   2.360 -2.1913  0.7253  0.5721
  996MOL0     H37421  10.849   5.263   2.419 -0.2278 -0.2544  0.4680
  996MOL0     H37422  11.028   5.146   2.206 -1.6444  0.1716 -1.2363
  996MOL0     H37423  11.054   5.303   2.285 -0.2134  0.4200  0.7631
  996MOL0     H37424  10.930   5.331   2.080 -0.4175  0.5719 -0.3583
  996MOL0     H37425  10.834   5.378   2.213  0.9149  2.6728 -3.3441
  996MOL0     H37426  10.718   5.238   2.037 -2.0372  2.4510  1.9479
  996MOL0     H37427  10.721   5.146   2.182  0.3974  3.2714  1.2138
  996MOL0     H37428  10.634   4.799   2.926 -1.9138 -0.9264  2.2699
  996MOL0     H37429  10.397   4.816   2.990 -0.0716  0.7701 -0.7119
  996MOL0     H37430   9.952   5.220   2.865  3.3512 -0.5894  0.6081
  996MOL0     H37431   9.727   5.228   2.959  0.0113  0.4144  1.6958
  996MOL0     H37432  10.373   5.202   2.216 -1.9374  1.9043 -0.1957
  996MOL0     H37433  10.405   5.432   2.161  1.8229 -0.0923 -1.1796
  996MOL0     H37434  10.670   5.809   2.373 -3.1135 -2.0415  1.6618
  996MOL0     H37435  10.745   6.052   2.340  0.7760 -1.2293  1.7289
  996MOL0     H37436  10.481   6.429   2.302 -0.3199  1.4293 -0.0478
  996MOL0     H37437  10.501   6.328   2.452  4.6248  0.2778  2.9062
  996MOL0     H37438  10.609   6.571   2.402 -0.7077  0.6610  2.9593
  996MOL0     H37439  10.745   6.470   2.361 -1.1643  0.9823 -2.1772
  996MOL0     H37440  10.715   6.352   2.582  0.3257  0.3868  1.0262
  996MOL0     H37441  10.748   6.540   2.589 -1.8053  1.1852 -1.4144
  996MOL0     H37442  10.465   6.432   2.622 -0.7785  0.7061  1.0547
  996MOL0     H37443  10.512   6.599   2.631 -1.2129  0.2032 -0.2605
  996MOL0     H37444  10.551   6.399   3.027 -0.9949 -4.1421 -1.1593
  996MOL0     H37445  10.352   6.176   2.292  0.1098  1.0269  0.5803
  996MOL0     H37446  10.169   6.029   2.298  0.3856 -1.1871 -2.9901
  996MOL0     H37447  10.201   5.870   2.240  3.1624 -1.1002 -0.2750
  996MOL0     H37448  10.178   5.891   2.416  2.5859 -2.3585  1.4230
  997MOL0     O37449   1.480   3.813   3.471  0.0805 -0.4330  0.3550
  997MOL0     C37450   1.481   3.705   3.414 -0.4136  0.2088  0.1182
  997MOL0     O37451   1.483   3.687   3.273  0.1110  0.5265 -0.3651
  997MOL0     C37452   1.458   3.781   3.179 -0.3559 -0.8852  0.7989
  997MOL0     C37453   1.470   3.921   3.199 -1.0314 -0.3148  0.8821
  997MOL0     C37454   1.470   4.004   3.084 -0.0358 -1.3388  0.2118
  997MOL0     C37455   1.437   3.952   2.963  0.6630  0.6929  0.2174
  997MOL0     O37456   1.414   4.034   2.856 -0.4878  0.2929 -0.3588
  997MOL0     C37457   1.268   4.045   2.827 -0.7668  0.4637 -0.0150
  997MOL0     C37458   1.195   4.178   2.873  0.5710  0.9988 -0.5217
  997MOL0     C37459   1.266   4.295   2.816  0.0613  0.7053 -0.0340
  997MOL0     C37460   1.186   4.429   2.816  0.0498 -0.1609  0.5629
  997MOL0     C37461   1.261   4.547   2.756  0.1181 -0.0200 -0.0424
  997MOL0     C37462   1.351   4.514   2.634  0.1436  0.7730  0.6131
  997MOL0     C37463   1.445   4.633   2.580 -0.0460  0.1940  0.0301
  997MOL0     C37464   1.384   4.755   2.505  0.2180 -0.1398  0.5273
  997MOL0     N37465   1.467   4.880   2.529  0.1781  0.5405  0.6311
  997MOL0     C37466   1.488   4.945   2.648  0.5231 -0.7379  0.2101
  997MOL0     C37467   1.609   5.002   2.640 -0.4996  0.5915 -0.9567
  997MOL0     C37468   1.682   5.089   2.739 -0.4582 -0.2729 -1.1027
  997MOL0     C37469   1.711   5.235   2.694  0.2257  0.7315  0.1405
  997MOL0     C37470   1.578   5.315   2.678  0.0843  0.2037 -1.1502
  997MOL0     C37471   1.600   5.435   2.589 -0.0598 -0.3958 -0.5659
  997MOL0     O37472   1.486   5.447   2.504  0.0494  0.4349  0.6512
  997MOL0     C37473   1.477   5.539   2.399  0.4662  0.7915  0.2019
  997MOL0     C37474   1.594   5.589   2.328 -0.5465  1.3105  0.4987
  997MOL0     C37475   1.579   5.692   2.241  0.4819  0.7897  0.4038
  997MOL0     C37476   1.704   5.769   2.190  0.6350  0.3509 -0.0144
  997MOL0     C37477   1.445   5.731   2.195 -0.4525  0.3469  0.3308
  997MOL0     C37478   1.416   5.837   2.107  0.4600  0.9546  0.7629
  997MOL0     O37479   1.508   5.873   2.010 -0.0238 -1.4094  0.3825
  997MOL0     C37480   1.497   5.994   1.942 -0.7060 -0.1561 -0.3408
  997MOL0     C37481   1.516   5.974   1.806 -0.1689  1.5422 -0.3373
  997MOL0     C37482   1.500   6.080   1.715 -0.0586 -0.6686  1.6439
  997MOL0     C37483   1.462   6.198   1.771 -1.0643 -0.2195 -0.2918
  997MOL0     O37484   1.432   6.315   1.704  0.6752  1.1319  0.0472
  997MOL0     C37485   1.548   6.383   1.645  0.2175  0.3043  0.3924
  997MOL0     C37486   1.493   6.438   1.510 -0.1436 -0.5525 -0.1162
  997MOL0     C37487   1.610   6.502   1.429 -0.1595 -0.4081  0.1514
  997MOL0     C37488   1.574   6.562   1.297 -0.6487 -0.0672  0.0593
  997MOL0     C37489   1.687   6.633   1.225  0.3846 -0.1819 -0.3568
  997MOL0     C37490   1.632   6.720   1.110 -0.0226  0.9123 -0.3208
  997MOL0     C37491   1.742   6.795   1.025  1.1012  1.1143  0.1817
  997MOL0     C37492   1.683   6.878   0.909 -0.6573  0.7864 -0.4250
  997MOL0    Cl37493   1.812   6.990   0.832  0.2437 -0.0395  0.0544
  997MOL0     C37494   1.464   6.228   1.904 -0.3858  0.0463 -0.3751
  997MOL0     C37495   1.480   6.124   2.000  0.3298  0.4590  0.3438
  997MOL0     O37496   1.308   5.892   2.131  0.0451  0.5254 -0.3120
  997MOL0     C37497   1.333   5.665   2.249  0.4770  0.6400 -1.7163
  997MOL0     C37498   1.347   5.567   2.344  0.7037  0.3010  0.8097
  997MOL0     N37499   1.657   4.980   2.510  0.8089 -0.4644 -0.2329
  997MOL0     N37500   1.568   4.907   2.448 -0.6774  0.4165  0.0545
  997MOL0     C37501   1.416   3.810   2.944 -0.0494  0.3060 -0.0733
  997MOL0     C37502   1.435   3.726   3.049 -0.6984 -0.1934 -0.3976
  997MOL0     C37503   1.511   3.582   3.491 -0.0078  0.4597  0.6149
  997MOL0     C37504   1.433   3.574   3.605  0.8311 -0.3913  0.2260
  997MOL0     C37505   1.452   3.463   3.697 -0.3126  0.1982  0.8276
  997MOL0     C37506   1.522   3.352   3.659  0.7972 -0.1100 -0.3527
  997MOL0     O37507   1.545   3.240   3.742  0.0797  0.0205 -0.1925
  997MOL0     C37508   1.439   3.189   3.819 -1.4961 -0.7766 -0.5326
  997MOL0     C37509   1.505   3.103   3.926 -0.4663  0.4483 -0.2009
  997MOL0     C37510   1.610   3.175   4.008 -0.1897 -1.1641 -0.7100
  997MOL0     C37511   1.556   3.326   4.049  0.8555  1.0198 -0.7126
  997MOL0     C37512   1.456   3.317   4.158  0.4279  0.1808  0.1328
  997MOL0     C37513   1.371   3.327   4.240  0.2089 -0.3202 -0.1279
  997MOL0     C37514   1.584   3.353   3.537  0.5051 -0.1970  0.3157
  997MOL0     C37515   1.579   3.463   3.446  0.4508  0.6316  0.0851
  997MOL0     C37516   1.665   3.469   3.324 -0.1488 -0.4417 -0.0222
  997MOL0     H37517   1.487   3.969   3.295 -1.2519  0.6581  0.4510
  997MOL0     H37518   1.480   4.112   3.090 -0.4677 -1.2323 -0.9159
  997MOL0     H37519   1.209   3.968   2.878  3.0766 -1.5018  1.8750
  997MOL0     H37520   1.249   4.039   2.719  0.8564  2.1213 -0.4525
  997MOL0     H37521   1.089   4.174   2.846  0.4607  0.0969  0.0125
  997MOL0     H37522   1.212   4.176   2.980  2.4693  0.0379 -0.8078
  997MOL0     H37523   1.359   4.306   2.872 -1.0430 -0.2766  2.1215
  997MOL0     H37524   1.284   4.277   2.710 -0.7341 -1.0787  0.1019
  997MOL0     H37525   1.100   4.408   2.751  0.1020  0.1374  0.3945
  997MOL0     H37526   1.150   4.454   2.916 -0.1581 -0.5821  0.5915
  997MOL0     H37527   1.332   4.583   2.831 -1.4540 -0.4232  1.6879
  997MOL0     H37528   1.189   4.626   2.731 -0.4477  0.6987  3.3453
  997MOL0     H37529   1.414   4.428   2.660 -1.6131 -0.8178 -0.1059
  997MOL0     H37530   1.289   4.485   2.549  2.8845  0.5847 -1.4228
  997MOL0     H37531   1.504   4.580   2.505 -0.7316  1.3769 -1.4044
  997MOL0     H37532   1.509   4.666   2.662 -0.5568 -0.1186  0.5640
  997MOL0     H37533   1.383   4.735   2.398  2.4268 -1.8822  0.7671
  997MOL0     H37534   1.285   4.774   2.549  0.2576 -0.8306  0.9210
  997MOL0     H37535   1.413   4.948   2.726 -0.3501  3.4073 -0.5527
  997MOL0     H37536   1.775   5.040   2.768 -0.5000 -0.3137 -1.0367
  997MOL0     H37537   1.631   5.098   2.835  1.2630  0.5878 -0.2210
  997MOL0     H37538   1.767   5.280   2.776  1.6445  1.6616 -1.2893
  997MOL0     H37539   1.766   5.239   2.599 -1.3475 -1.7485 -1.0060
  997MOL0     H37540   1.494   5.264   2.630 -1.4093  0.0878  1.4295
  997MOL0     H37541   1.538   5.346   2.774  1.2769  0.3921 -0.6992
  997MOL0     H37542   1.609   5.523   2.653  0.9765  1.7471 -3.3986
  997MOL0     H37543   1.694   5.422   2.535 -0.0634  0.8318 -0.9036
  997MOL0     H37544   1.695   5.574   2.364 -0.3579  2.4869  0.5092
  997MOL0     H37545   1.694   5.876   2.210 -0.7301  0.4042 -0.8745
  997MOL0     H37546   1.718   5.758   2.082  2.8711 -1.3831  0.3649
  997MOL0     H37547   1.801   5.731   2.225  0.3990 -0.5468 -0.2999
  997MOL0     H37548   1.517   5.874   1.764 -0.7829  0.2514  2.4538
  997MOL0     H37549   1.488   6.051   1.612 -4.0857 -1.5719  2.1909
  997MOL0     H37550   1.586   6.463   1.709  1.7113  0.7370 -0.9552
  997MOL0     H37551   1.625   6.308   1.623  0.6761  0.7384  0.4840
  997MOL0     H37552   1.447   6.351   1.462 -1.6934 -0.6674  1.4558
  997MOL0     H37553   1.402   6.496   1.523 -2.4906 -3.9199 -0.1474
  997MOL0     H37554   1.694   6.433   1.420  2.1591  2.1369  1.0426
  997MOL0     H37555   1.649   6.589   1.482 -0.9867 -0.6895  1.2567
  997MOL0     H37556   1.489   6.629   1.311  1.1290  2.5823 -0.9402
  997MOL0     H37557   1.538   6.483   1.230  0.6662  0.0286 -0.7897
  997MOL0     H37558   1.733   6.706   1.291 -0.5218  1.0379 -1.0389
  997MOL0     H37559   1.759   6.559   1.190  3.3067  3.0064 -1.5720
  997MOL0     H37560   1.562   6.791   1.154  2.0078  1.7055  1.8680
  997MOL0     H37561   1.572   6.665   1.037 -0.1467  1.8808 -0.9695
  997MOL0     H37562   1.807   6.723   0.975 -0.0400  0.8424 -0.9972
  997MOL0     H37563   1.804   6.864   1.084  1.4607  3.9684 -3.1513
  997MOL0     H37564   1.608   6.947   0.947 -2.5679 -2.2736  1.8791
  997MOL0     H37565   1.639   6.818   0.829  3.2015  0.2965 -2.4133
  997MOL0     H37566   1.460   6.332   1.934 -2.1579  0.0560 -0.5824
  997MOL0     H37567   1.463   6.128   2.107  0.0303  0.5556  0.2938
  997MOL0     H37568   1.227   5.676   2.226  0.2507  1.2961 -0.4583
  997MOL0     H37569   1.259   5.516   2.382  0.4597 -2.4731 -2.8955
  997MOL0     H37570   1.398   3.773   2.844 -1.9045 -2.7673  1.2460
  997MOL0     H37571   1.419   3.624   3.017 -0.0245 -0.3415 -0.2652
  997MOL0     H37572   1.372   3.654   3.647  0.7842  0.8863 -2.1301
  997MOL0     H37573   1.422   3.482   3.799 -1.0343  2.4553  0.2387
  997MOL0     H37574   1.379   3.271   3.859 -0.9676  0.4051 -2.0625
  997MOL0     H37575   1.366   3.131   3.762 -0.2280 -1.0262 -1.9673
  997MOL0     H37576   1.569   3.040   3.864 -2.5051 -0.9123 -1.0169
  997MOL0     H37577   1.430   3.047   3.982 -0.4950 -1.4935 -2.0285
  997MOL0     H37578   1.634   3.114   4.095  0.8849  3.4693  2.6513
  997MOL0     H37579   1.697   3.179   3.942  1.7662 -2.3168  1.6514
  997MOL0     H37580   1.511   3.391   3.974 -3.4803  1.0759  1.6276
  997MOL0     H37581   1.653   3.353   4.092  1.4770 -0.6440 -0.9906
  997MOL0     H37582   1.304   3.350   4.321  0.1577 -0.7061 -0.0573
  997MOL0     H37583   1.630   3.261   3.501  1.0461  0.6637 -1.2648
  997MOL0     H37584   1.727   3.378   3.320  0.6572  0.1495 -2.8090
  997MOL0     H37585   1.599   3.454   3.239 -1.0037 -2.5500  0.9286
  997MOL0     H37586   1.719   3.563   3.312  1.7729 -1.6181 -1.2238
  998MOL0     O37587   4.874   5.658   1.707 -0.2813 -0.7811 -0.3468
  998MOL0     C37588   4.822   5.716   1.806  0.9254 -0.1278 -0.1184
  998MOL0     O37589   4.874   5.724   1.934  0.5336  0.4014  0.4260
  998MOL0     C37590   4.994   5.673   1.969 -0.2775  0.4226 -0.3805
  998MOL0     C37591   5.081   5.585   1.898  0.3734  0.5909  0.4995
  998MOL0     C37592   5.203   5.547   1.945  1.3168 -0.5564 -0.5545
  998MOL0     C37593   5.253   5.594   2.069 -0.2996  0.3343  0.3418
  998MOL0     O37594   5.380   5.557   2.094 -0.8653  0.3774 -1.1321
  998MOL0     C37595   5.418   5.515   2.229 -0.2814  0.6403 -0.1479
  998MOL0     C37596   5.469   5.361   2.232  1.0056 -0.8480  0.5140
  998MOL0     C37597   5.366   5.265   2.173  0.0329 -0.5551  0.0809
  998MOL0     C37598   5.391   5.115   2.227  0.1245  0.3652 -0.9373
  998MOL0     C37599   5.532   5.054   2.197  0.4969  0.4826  0.0082
  998MOL0     C37600   5.543   4.902   2.237 -0.4087  0.3674  0.1110
  998MOL0     C37601   5.673   4.831   2.216 -0.4145  0.2442 -0.2718
  998MOL0     C37602   5.793   4.906   2.286 -0.8367 -1.1106 -0.5093
  998MOL0     N37603   5.830   5.022   2.217 -0.2864  0.2258  0.3750
  998MOL0     C37604   5.839   5.044   2.084 -0.7489 -0.0374  0.5135
  998MOL0     C37605   5.869   5.173   2.063 -0.8769 -0.2166 -0.3536
  998MOL0     C37606   5.900   5.249   1.944 -0.2264 -0.8083 -0.6007
  998MOL0     C37607   5.994   5.172   1.845 -0.7867  0.0985 -0.5657
  998MOL0     C37608   5.989   5.257   1.719  1.2049  0.5544 -0.3516
  998MOL0     C37609   6.061   5.173   1.611  0.1161  0.0438  0.2018
  998MOL0     O37610   5.989   5.049   1.571 -0.6960 -0.7194  0.1632
  998MOL0     C37611   5.879   5.054   1.500 -0.0506 -1.1041 -0.6255
  998MOL0     C37612   5.837   5.162   1.419  0.3396  0.2242 -0.3945
  998MOL0     C37613   5.711   5.142   1.351 -0.7618  0.3071 -0.5036
  998MOL0     C37614   5.656   5.263   1.277 -0.0592 -0.5846 -0.2472
  998MOL0     C37615   5.635   5.020   1.352 -1.0634  0.2402  0.1564
  998MOL0     C37616   5.514   4.997   1.280  0.2671  0.1322  0.8543
  998MOL0     O37617   5.386   5.005   1.336 -0.0022 -0.0759 -0.3198
  998MOL0     C37618   5.283   4.989   1.256 -0.5514 -0.4365  0.3075
  998MOL0     C37619   5.239   5.105   1.195 -0.0889  0.1169 -0.2971
  998MOL0     C37620   5.126   5.101   1.110 -0.5410 -1.4886 -0.2090
  998MOL0     C37621   5.079   4.972   1.076  0.1009  0.0789  0.5181
  998MOL0     O37622   4.958   4.985   1.002  0.8237 -0.4313  0.4601
  998MOL0     C37623   4.909   4.866   0.932 -0.5027  0.2573 -0.4873
  998MOL0     C37624   4.788   4.878   0.842  0.1754 -0.4199  0.1434
  998MOL0     C37625   4.777   4.779   0.729  0.6666  0.3086 -0.5686
  998MOL0     C37626   4.636   4.720   0.724 -0.3732 -0.6175 -0.5756
  998MOL0     C37627   4.631   4.627   0.603  0.5686  0.2537  0.7693
  998MOL0     C37628   4.507   4.531   0.618  0.2140 -0.3640 -0.3435
  998MOL0     C37629   4.476   4.444   0.495 -0.0723 -0.1569  0.1794
  998MOL0     C37630   4.598   4.351   0.463 -0.2940 -0.6399 -0.2521
  998MOL0    Cl37631   4.724   4.463   0.378  0.4855  0.3099  0.2628
  998MOL0     C37632   5.134   4.843   1.129  0.3483  0.8467 -0.4576
  998MOL0     C37633   5.239   4.867   1.225 -0.0983  0.2152  0.4178
  998MOL0     O37634   5.536   4.974   1.161  0.2551 -0.2669  0.2480
  998MOL0     C37635   5.685   4.921   1.434  0.2433 -0.9129 -0.6322
  998MOL0     C37636   5.808   4.942   1.508  0.5517  0.5450 -0.9198
  998MOL0     N37637   5.882   5.234   2.184 -0.0416  0.1501 -0.0237
  998MOL0     N37638   5.864   5.146   2.274 -0.1472  0.8103  0.2936
  998MOL0     C37639   5.164   5.667   2.145 -0.2413  0.2499 -1.2889
  998MOL0     C37640   5.041   5.714   2.099  0.2927 -0.6285  0.8539
  998MOL0     C37641   4.703   5.796   1.772  0.6677 -0.1266 -1.4154
  998MOL0     C37642   4.653   5.798   1.641 -0.0477 -0.1713 -0.5774
  998MOL0     C37643   4.548   5.878   1.595  0.0526 -0.8355  0.1169
  998MOL0     C37644   4.485   5.965   1.688  0.3257  0.2244 -0.8992
  998MOL0     O37645   4.395   6.054   1.670 -0.3390  0.5346 -0.1790
  998MOL0     C37646   4.391   6.129   1.552  0.2603 -0.4083 -0.3552
  998MOL0     C37647   4.527   6.207   1.531  0.2788 -0.9375 -0.5660
  998MOL0     C37648   4.581   6.298   1.649 -0.2206  0.5964  0.6780
  998MOL0     C37649   4.494   6.424   1.656  1.0922  0.5345  0.3074
  998MOL0     C37650   4.529   6.517   1.763  0.0517  0.5103  0.7280
  998MOL0     C37651   4.541   6.595   1.856 -0.0849 -0.3387  1.1242
  998MOL0     C37652   4.534   5.965   1.822  0.3115 -0.8488  0.9266
  998MOL0     C37653   4.635   5.885   1.869 -0.2789 -0.5211 -0.6627
  998MOL0     C37654   4.653   5.882   2.017 -0.1309  0.3243  0.1425
  998MOL0     H37655   5.061   5.544   1.800 -1.2605 -1.6414  1.6687
  998MOL0     H37656   5.269   5.491   1.880  1.3924  0.2007 -1.1467
  998MOL0     H37657   5.336   5.532   2.299 -2.1145 -3.1746 -1.1170
  998MOL0     H37658   5.499   5.579   2.262 -1.4317  2.1531 -0.1542
  998MOL0     H37659   5.576   5.349   2.211  1.0878  2.2869 -1.5246
  998MOL0     H37660   5.460   5.335   2.337  0.2886  2.0872  1.2740
  998MOL0     H37661   5.263   5.298   2.193  0.9111  2.6965 -0.2149
  998MOL0     H37662   5.380   5.259   2.065 -0.3811  2.2163 -0.2145
  998MOL0     H37663   5.389   5.110   2.336 -0.6007  1.4551 -0.8905
  998MOL0     H37664   5.306   5.055   2.192 -0.1967  0.7426 -0.8081
  998MOL0     H37665   5.598   5.106   2.266  1.0550  0.9670 -0.8634
  998MOL0     H37666   5.557   5.074   2.092 -3.6779  0.2389 -1.2254
  998MOL0     H37667   5.522   4.904   2.344 -0.4729  3.4211  0.1246
  998MOL0     H37668   5.461   4.841   2.197 -0.7152 -0.5411  2.0310
  998MOL0     H37669   5.695   4.799   2.114 -0.5757 -3.1011  0.6016
  998MOL0     H37670   5.655   4.747   2.284 -2.8313  2.1532  1.6405
  998MOL0     H37671   5.761   4.933   2.387 -1.4298 -0.9737 -0.7316
  998MOL0     H37672   5.870   4.828   2.291 -1.0203 -1.3016  4.4684
  998MOL0     H37673   5.827   4.964   2.011  1.8762 -0.3766  0.3847
  998MOL0     H37674   5.941   5.349   1.961 -0.7540  0.1558 -4.1653
  998MOL0     H37675   5.799   5.264   1.906  0.5103  1.1171 -1.8989
  998MOL0     H37676   6.099   5.178   1.877  1.2469  2.5580 -6.4178
  998MOL0     H37677   5.960   5.068   1.837 -1.8382  0.4945 -1.4737
  998MOL0     H37678   5.886   5.268   1.685  0.9605 -1.7476 -0.4854
  998MOL0     H37679   6.033   5.356   1.733 -0.8502  1.3418  1.1821
  998MOL0     H37680   6.099   5.235   1.529 -1.1207  0.3208 -0.1796
  998MOL0     H37681   6.151   5.142   1.664 -0.2579 -0.2969  0.6433
  998MOL0     H37682   5.895   5.254   1.415  0.5250  0.1311  0.0739
  998MOL0     H37683   5.733   5.341   1.274 -1.3168  0.7737  0.8588
  998MOL0     H37684   5.567   5.295   1.332 -0.1032 -1.1376  0.0107
  998MOL0     H37685   5.648   5.256   1.168  2.4751 -1.1089 -0.4581
  998MOL0     H37686   5.283   5.194   1.238 -1.2553 -1.1867  4.1873
  998MOL0     H37687   5.075   5.191   1.077  2.7191  0.5151 -0.1241
  998MOL0     H37688   4.982   4.843   0.855 -1.9656 -1.8152 -1.3365
  998MOL0     H37689   4.899   4.776   0.994  0.0223  0.4495 -0.1163
  998MOL0     H37690   4.700   4.878   0.907  0.9406 -6.0894  1.7742
  998MOL0     H37691   4.800   4.977   0.798  0.8596 -0.0776  1.0588
  998MOL0     H37692   4.849   4.698   0.744 -0.2799 -0.6553 -1.0169
  998MOL0     H37693   4.802   4.830   0.636 -0.8178  1.2160 -0.5094
  998MOL0     H37694   4.560   4.798   0.718 -1.2630 -1.5572 -1.9654
  998MOL0     H37695   4.610   4.657   0.810  1.8716 -1.4033 -0.3818
  998MOL0     H37696   4.608   4.688   0.515  2.3208 -1.8673 -1.2620
  998MOL0     H37697   4.722   4.569   0.586  0.7464  0.9450 -0.8327
  998MOL0     H37698   4.424   4.601   0.631  0.6891  0.4266 -1.4411
  998MOL0     H37699   4.511   4.485   0.718  0.6641 -2.0229 -1.1004
  998MOL0     H37700   4.426   4.497   0.413 -0.8543 -1.0583  0.0506
  998MOL0     H37701   4.391   4.381   0.523 -1.2268  0.9744 -0.6398
  998MOL0     H37702   4.571   4.279   0.385  5.3195 -0.1828 -3.0877
  998MOL0     H37703   4.636   4.317   0.559 -2.4288 -0.1374  0.8352
  998MOL0     H37704   5.092   4.744   1.119 -4.5515  2.7497 -1.6781
  998MOL0     H37705   5.292   4.781   1.265  0.8654  0.8639  0.5707
  998MOL0     H37706   5.627   4.836   1.467 -0.4863 -1.2935 -2.7269
  998MOL0     H37707   5.830   4.862   1.578  0.7624 -1.3071 -2.9728
  998MOL0     H37708   5.186   5.719   2.238 -4.7125  1.6779 -0.7725
  998MOL0     H37709   4.982   5.781   2.160 -0.2936  0.7290 -1.1040
  998MOL0     H37710   4.698   5.728   1.571 -0.7685  0.2800 -1.5087
  998MOL0     H37711   4.510   5.871   1.494  0.3901  0.8090 -0.1502
  998MOL0     H37712   4.386   6.066   1.463  1.2296 -5.8220  2.9621
  998MOL0     H37713   4.302   6.191   1.564  0.8243 -0.0668  3.1504
  998MOL0     H37714   4.518   6.265   1.438 -4.5624 -1.6826 -0.8114
  998MOL0     H37715   4.601   6.130   1.509 -0.3184 -1.3833 -1.0268
  998MOL0     H37716   4.580   6.245   1.744 -1.5901  2.1577  1.5958
  998MOL0     H37717   4.685   6.324   1.629 -0.5133  0.5732 -1.0319
  998MOL0     H37718   4.390   6.400   1.678  1.5093 -1.1016  0.6711
  998MOL0     H37719   4.495   6.477   1.560  2.3472 -0.4865 -0.2788
  998MOL0     H37720   4.536   6.652   1.947  0.6389 -3.1584  3.0654
  998MOL0     H37721   4.483   6.043   1.879 -2.0591  2.8643 -5.2480
  998MOL0     H37722   4.566   5.919   2.072 -2.1502 -1.3923 -1.7128
  998MOL0     H37723   4.653   5.774   2.034  0.1978  0.1441 -0.9050
  998MOL0     H37724   4.748   5.929   2.046 -1.0285  2.6341 -0.3955
  999MOL0     O37725   4.063  10.976   4.978  0.1520  0.1183  0.2320
  999MOL0     C37726   4.184  10.983   4.967  0.0707  1.2694  1.0756
  999MOL0     O37727   4.249  11.085   4.893  0.1276 -0.5357 -0.8902
  999MOL0     C37728   4.171  11.168   4.813 -0.6597  0.9078  0.0209
  999MOL0     C37729   4.121  11.287   4.871 -0.2893 -0.2299  0.2116
  999MOL0     C37730   4.057  11.382   4.793 -1.1451  0.7391 -0.1135
  999MOL0     C37731   4.031  11.357   4.657  0.6713 -0.4444 -0.1760
  999MOL0     O37732   3.963  11.442   4.572  0.0747 -0.2620 -0.4645
  999MOL0     C37733   3.847  11.393   4.501 -0.5336 -0.3950 -0.7445
  999MOL0     C37734   3.833  11.470   4.367 -0.4064 -0.5924  0.9858
  999MOL0     C37735   3.701  11.438   4.295  1.0214  0.4363  0.8876
  999MOL0     C37736   3.700  11.523   4.166  0.3380 -0.1426 -0.4012
  999MOL0     C37737   3.554  11.510   4.096  0.3095 -0.2535 -0.5779
  999MOL0     C37738   3.543  11.572   3.956  0.4470  0.9812 -0.3860
  999MOL0     C37739   3.620  11.697   3.952  0.4417 -0.3101 -0.2920
  999MOL0     C37740   3.598  11.757   3.814  0.1032 -0.2507 -0.5506
  999MOL0     N37741   3.681  11.869   3.787 -0.9112  0.7866  0.8094
  999MOL0     C37742   3.653  11.997   3.816  0.2238 -0.4875 -0.4123
  999MOL0     C37743   3.747  12.076   3.767 -0.0665 -0.1880 -0.5413
  999MOL0     C37744   3.762  12.233   3.760 -0.3766 -0.5559 -0.8190
  999MOL0     C37745   3.659  12.302   3.672  0.8422  0.2437  0.0227
  999MOL0     C37746   3.629  12.454   3.700 -0.0092  0.1174  0.0020
  999MOL0     C37747   3.560  12.521   3.574 -0.3019  0.0963 -0.4323
  999MOL0     O37748   3.476  12.635   3.617 -0.5700  0.0896 -0.4159
  999MOL0     C37749   3.335  12.612   3.650  0.5771 -0.8428  0.2655
  999MOL0     C37750   3.267  12.727   3.692  0.7594 -0.7252  0.7634
  999MOL0     C37751   3.132  12.724   3.736  0.2716 -0.5598  0.2809
  999MOL0     C37752   3.075  12.863   3.761  0.1169  0.1903  0.8075
  999MOL0     C37753   3.058  12.607   3.711  1.4814 -0.3426 -0.0359
  999MOL0     C37754   2.915  12.591   3.729 -0.9950 -0.3581 -0.0338
  999MOL0     O37755   2.853  12.476   3.693  0.0914 -0.4694 -0.2604
  999MOL0     C37756   2.718  12.457   3.687 -0.8652 -0.7858 -0.1527
  999MOL0     C37757   2.672  12.461   3.548  0.0168  0.9886 -0.5544
  999MOL0     C37758   2.540  12.441   3.517  0.3301  0.7424  0.8593
  999MOL0     C37759   2.447  12.427   3.622 -0.3581  0.6842 -0.3222
  999MOL0     O37760   2.318  12.392   3.587 -0.4172 -0.4900  0.3169
  999MOL0     C37761   2.225  12.426   3.675  0.0271 -0.4940 -0.8095
  999MOL0     C37762   2.095  12.383   3.624  0.0810  0.3565 -0.6131
  999MOL0     C37763   2.061  12.457   3.488 -0.4816 -0.5314 -1.4502
  999MOL0     C37764   1.912  12.435   3.449  0.3584 -0.7034  0.5338
  999MOL0     C37765   1.885  12.488   3.300  0.1063  0.3392 -1.0969
  999MOL0     C37766   1.893  12.374   3.181 -0.0073 -0.4706 -0.6556
  999MOL0     C37767   1.837  12.417   3.053  0.3971 -0.0944  0.1089
  999MOL0     C37768   1.888  12.331   2.938 -0.1904  0.2096 -0.5875
  999MOL0    Cl37769   1.766  12.318   2.812  0.7348 -0.0474 -0.1743
  999MOL0     C37770   2.498  12.445   3.760  1.1431 -0.5309 -0.2703
  999MOL0     C37771   2.637  12.461   3.794  0.6935  0.1272  0.0298
  999MOL0     O37772   2.863  12.678   3.790  0.2893 -0.5097 -0.3413
  999MOL0     C37773   3.125  12.496   3.657 -0.7018  0.4141  0.3096
  999MOL0     C37774   3.260  12.499   3.623 -1.4326 -0.1563  0.2798
  999MOL0     N37775   3.839  11.998   3.698 -0.5585 -0.2039 -0.4222
  999MOL0     N37776   3.799  11.870   3.703  1.1313 -1.4379 -0.0360
  999MOL0     C37777   4.079  11.238   4.609  0.8306  0.1524 -0.5475
  999MOL0     C37778   4.149  11.140   4.676 -0.3923  0.3682 -0.2520
  999MOL0     C37779   4.281  10.887   5.037  0.0938 -0.0309  0.0153
  999MOL0     C37780   4.413  10.879   4.987 -0.1937 -0.3904 -0.1454
  999MOL0     C37781   4.491  10.767   5.031  0.2417 -0.3388  1.0278
  999MOL0     C37782   4.442  10.684   5.139  0.6297 -0.7649  0.2070
  999MOL0     O37783   4.507  10.578   5.190  0.1306 -0.1224 -0.0956
  999MOL0     C37784   4.478  10.448   5.127 -0.2250  0.5170 -0.1921
  999MOL0     C37785   4.590  10.340   5.150 -0.1899  0.4594  0.5223
  999MOL0     C37786   4.731  10.398   5.096  0.0322  0.1248  0.2923
  999MOL0     C37787   4.822  10.464   5.208  0.6167  0.0299  0.1906
  999MOL0     C37788   4.876  10.352   5.295 -0.2679  0.1650 -0.4395
  999MOL0     C37789   4.905  10.261   5.377  0.0605 -0.3184  0.9597
  999MOL0     C37790   4.318  10.713   5.201  0.3995 -0.0094 -0.0620
  999MOL0     C37791   4.236  10.811   5.145  0.0126  0.5533  0.8048
  999MOL0     C37792   4.097  10.830   5.206  0.5878  0.6340 -1.0824
  999MOL0     H37793   4.143  11.301   4.976 -0.1426  1.2628 -0.0070
  999MOL0     H37794   4.031  11.473   4.846 -1.4416  2.5867 -3.2401
  999MOL0     H37795   3.761  11.420   4.564  0.1312  1.9365 -0.7474
  999MOL0     H37796   3.858  11.285   4.488  0.6527 -0.6541  1.8055
  999MOL0     H37797   3.838  11.575   4.398  1.1189  0.0446 -1.2066
  999MOL0     H37798   3.925  11.457   4.309  0.3850  2.0716  1.4702
  999MOL0     H37799   3.691  11.331   4.277 -0.6426  0.8307 -0.7451
  999MOL0     H37800   3.617  11.472   4.356 -1.2915 -2.3304 -0.5254
  999MOL0     H37801   3.725  11.622   4.204 -1.3100  0.0175  0.3360
  999MOL0     H37802   3.785  11.489   4.105  0.7954 -2.9518  1.6044
  999MOL0     H37803   3.490  11.574   4.157 -2.2053 -1.0704 -2.2063
  999MOL0     H37804   3.511  11.410   4.094  2.0392 -1.0162 -2.1452
  999MOL0     H37805   3.564  11.499   3.877 -0.4424  1.3574 -0.9866
  999MOL0     H37806   3.437  11.598   3.946 -0.6022 -2.0633  1.3946
  999MOL0     H37807   3.726  11.670   3.951  0.2111 -1.5313 -3.2805
  999MOL0     H37808   3.593  11.751   4.043  1.4582 -1.9564  1.0428
  999MOL0     H37809   3.620  11.683   3.738 -1.4680 -1.9002  0.5131
  999MOL0     H37810   3.495  11.787   3.790  0.7258 -0.4953 -3.9166
  999MOL0     H37811   3.569  12.041   3.869  1.0485  3.4489 -2.0285
  999MOL0     H37812   3.860  12.255   3.719 -1.1382  1.6874 -1.5836
  999MOL0     H37813   3.757  12.265   3.865 -0.0200  2.3370 -1.5922
  999MOL0     H37814   3.689  12.281   3.569 -1.2575 -1.3418 -0.3346
  999MOL0     H37815   3.562  12.254   3.683 -0.3113  2.4944  0.2116
  999MOL0     H37816   3.584  12.466   3.799  1.7541 -0.9861  0.9971
  999MOL0     H37817   3.731  12.492   3.715 -0.2325  0.2083  1.4945
  999MOL0     H37818   3.640  12.559   3.510  0.6411  3.6903  2.5164
  999MOL0     H37819   3.495  12.450   3.522 -0.8936  1.6797 -1.9347
  999MOL0     H37820   3.331  12.813   3.709 -0.1065  0.0106  0.4161
  999MOL0     H37821   3.153  12.939   3.754  2.0260 -1.7835 -0.9924
  999MOL0     H37822   3.031  12.874   3.861 -2.1246  0.8126 -0.1909
  999MOL0     H37823   2.992  12.891   3.695  1.4655 -2.9675 -2.5596
  999MOL0     H37824   2.745  12.485   3.471 -0.0761  3.4269  0.0387
  999MOL0     H37825   2.495  12.459   3.420  1.8236  4.3091  0.6937
  999MOL0     H37826   2.246  12.376   3.770 -1.1797  0.9215  0.2379
  999MOL0     H37827   2.227  12.534   3.689  2.2740 -0.5491 -0.3218
  999MOL0     H37828   2.092  12.277   3.600  5.7048 -0.3098  0.3186
  999MOL0     H37829   2.020  12.395   3.703  0.1720 -0.9877 -0.3008
  999MOL0     H37830   2.105  12.391   3.412 -0.5909 -1.8482 -0.4077
  999MOL0     H37831   2.092  12.562   3.490 -4.8928  1.0812 -3.4916
  999MOL0     H37832   1.847  12.492   3.515  0.6102  0.7809 -0.4466
  999MOL0     H37833   1.879  12.331   3.454  1.4017 -1.1552 -0.9754
  999MOL0     H37834   1.784  12.527   3.288 -0.7033 -2.0016 -2.6027
  999MOL0     H37835   1.962  12.563   3.279  0.0179  0.0070 -2.7377
  999MOL0     H37836   1.829  12.291   3.213 -1.1090  0.5187 -0.2672
  999MOL0     H37837   1.998  12.345   3.172  1.0460  2.5518  0.7459
  999MOL0     H37838   1.874  12.518   3.031 -3.3342  1.5805  0.7991
  999MOL0     H37839   1.729  12.406   3.067  0.4579  1.0030  1.6561
  999MOL0     H37840   1.900  12.231   2.980 -0.8065  0.8616  1.2198
  999MOL0     H37841   1.986  12.354   2.894 -1.0210 -1.0904 -3.3416
  999MOL0     H37842   2.436  12.440   3.849  3.2289  1.4193  1.3976
  999MOL0     H37843   2.675  12.466   3.895  2.3669 -1.8327 -0.4353
  999MOL0     H37844   3.083  12.397   3.642 -0.7808  0.4872  0.0257
  999MOL0     H37845   3.301  12.404   3.591 -2.7702  0.1449 -2.7097
  999MOL0     H37846   4.069  11.222   4.502 -4.5869 -1.5164 -0.1114
  999MOL0     H37847   4.189  11.052   4.625 -0.6786 -0.7568  1.3893
  999MOL0     H37848   4.435  10.933   4.896 -1.6105  0.2511 -0.1270
  999MOL0     H37849   4.582  10.726   4.990 -0.0060  0.5504 -0.4817
  999MOL0     H37850   4.388  10.404   5.170 -0.6459  1.7871  0.2733
  999MOL0     H37851   4.480  10.459   5.018  0.7088  0.3298 -0.2068
  999MOL0     H37852   4.562  10.248   5.097 -0.8854  0.6957  0.4690
  999MOL0     H37853   4.603  10.324   5.257  1.5447 -0.2648  0.2437
  999MOL0     H37854   4.785  10.307   5.072 -2.4450 -1.9986  2.1578
  999MOL0     H37855   4.715  10.449   5.001 -1.2226 -4.5601 -2.3255
  999MOL0     H37856   4.767  10.540   5.265  0.6867  1.5918 -1.7334
  999MOL0     H37857   4.903  10.525   5.168  0.0143 -0.2124 -1.4666
  999MOL0     H37858   4.935  10.189   5.450 -0.1635 -1.7330 -0.2727
  999MOL0     H37859   4.283  10.647   5.279  0.9700 -0.4886 -0.1975
  999MOL0     H37860   4.091  10.758   5.288 -0.8113 -0.5135 -2.1368
  999MOL0     H37861   4.071  10.927   5.249  1.3842  1.9740 -3.4606
  999MOL0     H37862   4.022  10.806   5.130  1.3953  1.7731 -2.2791
 1000MOL0     O37863   9.448   4.493  11.360 -0.1564 -0.0778 -0.4233
 1000MOL0     C37864   9.559   4.459  11.321 -0.8726 -1.2599 -0.9269
 1000MOL0     O37865   9.602   4.330  11.291 -0.5439 -0.3636  0.4500
 1000MOL0     C37866   9.505   4.229  11.315  0.1602  0.2657  0.3343
 1000MOL0     C37867   9.380   4.219  11.235  0.2250  0.6485  0.6129
 1000MOL0     C37868   9.287   4.118  11.266  0.6738 -1.0126  0.1926
 1000MOL0     C37869   9.317   4.019  11.370  0.5959  0.5682 -0.7129
 1000MOL0     O37870   9.231   3.923  11.425  0.7895  0.1049 -0.0161
 1000MOL0     C37871   9.097   3.946  11.391  0.0768  0.2611 -0.2273
 1000MOL0     C37872   8.997   3.849  11.448  0.0841  0.5915  0.4915
 1000MOL0     C37873   9.022   3.702  11.406 -1.2611  0.5589  0.1220
 1000MOL0     C37874   8.923   3.663  11.303 -0.0640  0.6012  1.4199
 1000MOL0     C37875   8.945   3.512  11.262 -0.4177 -0.5187  0.1926
 1000MOL0     C37876   8.830   3.475  11.160  0.1528 -0.1922 -0.4558
 1000MOL0     C37877   8.859   3.347  11.082  0.7988  0.1559  0.2277
 1000MOL0     C37878   8.800   3.345  10.943  0.7544 -0.2895  0.2218
 1000MOL0     N37879   8.828   3.223  10.876 -0.5455  0.4410  1.4167
 1000MOL0     C37880   8.780   3.103  10.918 -0.4015  0.3624 -0.2422
 1000MOL0     C37881   8.874   3.008  10.886  0.0623 -0.7468 -0.3213
 1000MOL0     C37882   8.865   2.860  10.903  0.3588 -1.0893 -0.3325
 1000MOL0     C37883   8.725   2.808  10.849 -0.1051  0.8895 -0.5158
 1000MOL0     C37884   8.723   2.657  10.888  0.0022  0.9111  0.2857
 1000MOL0     C37885   8.593   2.586  10.861  0.6407 -0.0545 -0.2714
 1000MOL0     O37886   8.571   2.579  10.724  0.8168  0.0447 -0.0883
 1000MOL0     C37887   8.451   2.523  10.684  0.9243 -0.7243  0.1325
 1000MOL0     C37888   8.329   2.588  10.706 -0.7193 -0.1955 -0.0476
 1000MOL0     C37889   8.202   2.530  10.685 -0.0627 -0.2650 -0.2809
 1000MOL0     C37890   8.084   2.622  10.720 -1.1622 -0.1648 -0.7404
 1000MOL0     C37891   8.196   2.400  10.626  0.1781  0.3913  0.2955
 1000MOL0     C37892   8.073   2.336  10.579  0.1284 -0.1146  0.4108
 1000MOL0     O37893   8.090   2.202  10.551 -0.3299  0.4363 -0.0049
 1000MOL0     C37894   7.992   2.141  10.481 -0.3817  0.5621 -0.4392
 1000MOL0     C37895   7.871   2.086  10.536  0.5049  0.9142 -1.0605
 1000MOL0     C37896   7.781   2.011  10.468  0.3012  0.4166 -0.1911
 1000MOL0     C37897   7.798   2.002  10.328  0.1082  0.2426  0.8634
 1000MOL0     O37898   7.713   1.940  10.243  0.6242 -0.1961  0.6212
 1000MOL0     C37899   7.589   1.880  10.298 -0.8589 -0.3867 -1.1192
 1000MOL0     C37900   7.479   1.844  10.201 -0.5334 -0.1314 -0.4529
 1000MOL0     C37901   7.506   1.721  10.113 -0.3195  1.0550 -0.0085
 1000MOL0     C37902   7.370   1.683  10.040  0.1066  0.6973  0.6248
 1000MOL0     C37903   7.374   1.603   9.901  0.4709 -0.1772 -0.0957
 1000MOL0     C37904   7.441   1.476   9.936  0.2656  0.4158 -0.6195
 1000MOL0     C37905   7.352   1.390  10.024 -0.5538  0.9615 -0.1028
 1000MOL0     C37906   7.363   1.245   9.999  0.1205  0.7335 -0.5132
 1000MOL0    Cl37907   7.250   1.170  10.122  0.0013  0.0082  0.3733
 1000MOL0     C37908   7.913   2.055  10.270  0.3517  0.3459  0.2527
 1000MOL0     C37909   8.007   2.114  10.344 -0.0708  0.3484  0.5505
 1000MOL0     O37910   7.973   2.402  10.550  0.2939 -1.0104 -0.3161
 1000MOL0     C37911   8.317   2.334  10.605 -0.8469 -0.9771  0.2876
 1000MOL0     C37912   8.445   2.397  10.636  0.3311 -0.6836 -0.1837
 1000MOL0     N37913   8.976   3.077  10.826 -0.0010  1.0421  0.5412
 1000MOL0     N37914   8.946   3.201  10.826  0.0520  0.7324  0.3929
 1000MOL0     C37915   9.446   4.028  11.426  0.8980  1.3133 -0.3314
 1000MOL0     C37916   9.528   4.131  11.410 -0.3506  0.0863 -0.6176
 1000MOL0     C37917   9.647   4.576  11.277  0.8393 -0.3142 -0.1757
 1000MOL0     C37918   9.593   4.710  11.259  0.2513  0.4622 -0.2805
 1000MOL0     C37919   9.674   4.819  11.237  0.5414 -0.4094 -0.1417
 1000MOL0     C37920   9.814   4.808  11.227  0.1941 -0.7142 -0.0192
 1000MOL0     O37921   9.885   4.921  11.221  0.0993 -0.1832  1.0485
 1000MOL0     C37922   9.999   4.945  11.306  0.4312 -0.4527  1.1045
 1000MOL0     C37923  10.031   5.093  11.333  0.2169  1.5202  0.5108
 1000MOL0     C37924  10.026   5.174  11.199 -0.3841 -0.4274 -0.1684
 1000MOL0     C37925  10.157   5.158  11.123  0.3611  0.6230 -0.7194
 1000MOL0     C37926  10.257   5.234  11.190  0.4218 -0.2663 -0.0693
 1000MOL0     C37927  10.323   5.298  11.265 -0.9012 -0.2712  1.1097
 1000MOL0     C37928   9.869   4.679  11.242  0.8968  0.5274  0.7976
 1000MOL0     C37929   9.787   4.564  11.251 -0.1154  0.0493  0.2443
 1000MOL0     C37930   9.863   4.430  11.245  0.3141  0.2956 -0.3897
 1000MOL0     H37931   9.346   4.294  11.164  2.5209  1.5640  0.4065
 1000MOL0     H37932   9.191   4.121  11.215  0.9991 -1.4795 -0.4743
 1000MOL0     H37933   9.085   3.935  11.283  1.9910 -1.0353 -0.3516
 1000MOL0     H37934   9.078   4.049  11.422 -0.0012 -0.0248  0.7012
 1000MOL0     H37935   9.000   3.860  11.557  1.6898  2.1539  0.3388
 1000MOL0     H37936   8.895   3.881  11.422  0.0198  0.4178  0.5284
 1000MOL0     H37937   9.129   3.690  11.383 -1.4131 -2.4742  0.5687
 1000MOL0     H37938   8.996   3.637  11.490 -2.6252 -0.9007 -1.3478
 1000MOL0     H37939   8.819   3.663  11.337 -0.7575 -0.7996 -0.5066
 1000MOL0     H37940   8.929   3.720  11.210 -0.2728 -0.5159  0.6870
 1000MOL0     H37941   8.942   3.436  11.341  1.5998 -0.7155  0.1294
 1000MOL0     H37942   9.042   3.498  11.213  0.6479  1.6275  1.5309
 1000MOL0     H37943   8.728   3.473  11.200  1.1333 -3.0166  2.3062
 1000MOL0     H37944   8.836   3.549  11.080  0.7994  1.4466  1.0440
 1000MOL0     H37945   8.810   3.275  11.148  2.3138 -1.0250  0.1241
 1000MOL0     H37946   8.966   3.324  11.079  0.8227  0.3722 -1.8819
 1000MOL0     H37947   8.692   3.345  10.964  0.4285 -3.1483 -1.0387
 1000MOL0     H37948   8.834   3.428  10.880  0.6991 -3.0644 -3.8259
 1000MOL0     H37949   8.689   3.089  10.976 -0.6891  1.2912 -0.4654
 1000MOL0     H37950   8.869   2.842  11.011  0.6120  0.7211 -0.0096
 1000MOL0     H37951   8.950   2.816  10.852  0.8450 -0.4093 -0.1241
 1000MOL0     H37952   8.643   2.856  10.903 -0.6168  0.3554 -0.8102
 1000MOL0     H37953   8.715   2.830  10.743 -4.0998  2.5638  0.0242
 1000MOL0     H37954   8.806   2.630  10.822 -0.3080  0.3130  0.1315
 1000MOL0     H37955   8.729   2.656  10.998 -2.2180  2.6443  0.4929
 1000MOL0     H37956   8.605   2.489  10.911  2.1044  1.4870  2.5972
 1000MOL0     H37957   8.510   2.634  10.913  1.5451  3.6781 -1.9982
 1000MOL0     H37958   8.342   2.686  10.752 -0.9412  0.6871 -1.7726
 1000MOL0     H37959   8.037   2.579  10.808 -2.5184 -0.5733 -1.6473
 1000MOL0     H37960   8.010   2.634  10.640 -0.5640 -1.7699 -1.5787
 1000MOL0     H37961   8.134   2.715  10.750  0.7060 -0.5976 -2.2759
 1000MOL0     H37962   7.856   2.099  10.642  1.0959 -2.5470 -0.4124
 1000MOL0     H37963   7.694   1.969  10.517  1.6691 -2.0236  0.3644
 1000MOL0     H37964   7.607   1.795  10.364  0.5609  0.0627 -0.8979
 1000MOL0     H37965   7.544   1.957  10.361  0.2255 -0.8087  0.2201
 1000MOL0     H37966   7.383   1.837  10.252 -1.0730 -0.0539 -1.4398
 1000MOL0     H37967   7.480   1.931  10.134  3.0758 -0.0415 -0.4662
 1000MOL0     H37968   7.524   1.640  10.184  0.8905 -0.9338 -2.4413
 1000MOL0     H37969   7.594   1.719  10.048  1.7395  1.4070  2.6095
 1000MOL0     H37970   7.329   1.781  10.013 -0.1955  0.4792  0.2892
 1000MOL0     H37971   7.303   1.639  10.114 -0.6949  3.6857  1.8580
 1000MOL0     H37972   7.275   1.572   9.868  0.0562  0.0937  0.8713
 1000MOL0     H37973   7.421   1.660   9.821 -1.0366 -0.6196 -1.3307
 1000MOL0     H37974   7.532   1.502   9.992 -0.3832 -0.7136  1.0479
 1000MOL0     H37975   7.477   1.429   9.844  0.9485  2.4733 -1.4742
 1000MOL0     H37976   7.247   1.419  10.014 -0.2815  2.4613  1.0402
 1000MOL0     H37977   7.384   1.423  10.123  0.1513 -0.7750  0.2990
 1000MOL0     H37978   7.465   1.207  10.015 -0.7799 -1.1404  1.2074
 1000MOL0     H37979   7.332   1.225   9.896 -4.8427  0.3669  0.8248
 1000MOL0     H37980   7.923   2.024  10.167  2.7733 -0.8590  0.7974
 1000MOL0     H37981   8.096   2.142  10.288  0.7226 -2.0691  0.4853
 1000MOL0     H37982   8.312   2.229  10.579 -1.5325 -0.5286 -1.5374
 1000MOL0     H37983   8.535   2.341  10.613  0.5225 -1.3461  1.9800
 1000MOL0     H37984   9.474   3.952  11.498  0.0139  2.4180  1.2396
 1000MOL0     H37985   9.619   4.140  11.469 -1.9302  0.3644  1.9042
 1000MOL0     H37986   9.487   4.727  11.276 -0.0190 -1.2874 -0.0121
 1000MOL0     H37987   9.621   4.913  11.229 -1.8175 -1.7079 -0.7373
 1000MOL0     H37988   9.982   4.893  11.400  0.7046 -0.6685  1.0354
 1000MOL0     H37989  10.088   4.908  11.254 -0.8826  0.0825 -1.7725
 1000MOL0     H37990  10.128   5.086  11.382  1.0890 -2.6068 -1.3132
 1000MOL0     H37991   9.958   5.128  11.407  0.1567  0.4180  0.9854
 1000MOL0     H37992   9.943   5.144  11.135 -2.5995  1.1052  1.8056
 1000MOL0     H37993  10.013   5.281  11.220  0.9451  0.1478 -2.0375
 1000MOL0     H37994  10.152   5.194  11.019 -1.9196  2.5116 -0.0402
 1000MOL0     H37995  10.203   5.059  11.114 -0.0494  0.5845 -3.0818
 1000MOL0     H37996  10.406   5.342  11.317 -0.9340 -0.1535  1.0629
 1000MOL0     H37997   9.977   4.677  11.247  0.8824 -2.9164  3.4464
 1000MOL0     H37998   9.885   4.385  11.342  0.1040  2.4386  0.7130
 1000MOL0     H37999   9.809   4.358  11.183 -0.8942  0.5107  0.3669
 1000MOL0     H38000   9.958   4.457  11.199  1.1096 -0.7943  0.5549
 1001MOL0     O38001   8.524   9.845   7.393 -0.3357 -0.6053  0.4757
 1001MOL0     C38002   8.459   9.768   7.461 -0.4108 -0.4266  0.1276
 1001MOL0     O38003   8.501   9.637   7.499  0.8501 -0.0305  0.2916
 1001MOL0     C38004   8.632   9.595   7.495 -0.0809 -0.6906  0.9575
 1001MOL0     C38005   8.744   9.674   7.492 -0.3020 -1.1012  0.5729
 1001MOL0     C38006   8.875   9.630   7.473 -0.3574  0.9957 -0.3888
 1001MOL0     C38007   8.890   9.491   7.468  0.7765  0.2040  0.4960
 1001MOL0     O38008   9.010   9.432   7.463 -1.2917 -0.0561  0.1968
 1001MOL0     C38009   9.086   9.449   7.580 -0.0571 -0.3150 -0.9939
 1001MOL0     C38010   9.210   9.367   7.584  0.2955  0.6058  0.3274
 1001MOL0     C38011   9.199   9.218   7.555 -0.0485 -0.6426  0.8054
 1001MOL0     C38012   9.153   9.142   7.684 -0.6701 -0.0869  1.3954
 1001MOL0     C38013   9.074   9.009   7.654 -0.3004  0.3142  0.5302
 1001MOL0     C38014   8.999   8.957   7.784  0.0340 -0.0453  0.3167
 1001MOL0     C38015   8.879   9.045   7.823 -0.8263 -0.0272 -0.2173
 1001MOL0     C38016   8.755   9.025   7.742 -0.9235  0.2886  0.9582
 1001MOL0     N38017   8.646   9.104   7.799  0.3998 -1.0010  0.1861
 1001MOL0     C38018   8.656   9.241   7.807 -0.0634  0.1244  0.2171
 1001MOL0     C38019   8.532   9.271   7.851 -0.4777 -0.4956 -0.2969
 1001MOL0     C38020   8.473   9.406   7.861  0.1122 -0.9727 -0.7774
 1001MOL0     C38021   8.556   9.520   7.915  0.6907  0.8691  0.1972
 1001MOL0     C38022   8.460   9.639   7.930 -0.1210  0.3451 -0.4960
 1001MOL0     C38023   8.549   9.753   7.941  0.3174 -0.0488 -0.3220
 1001MOL0     O38024   8.476   9.863   7.992  0.5575  0.1095  0.8418
 1001MOL0     C38025   8.520   9.991   7.988  0.9754  0.5006  0.3967
 1001MOL0     C38026   8.431  10.092   8.038  0.7492  0.1097 -0.6091
 1001MOL0     C38027   8.460  10.228   8.050  0.3646 -0.0040  0.0563
 1001MOL0     C38028   8.363  10.316   8.112 -0.7921 -1.6413  1.3231
 1001MOL0     C38029   8.585  10.270   8.002 -0.5809  0.2624  0.3748
 1001MOL0     C38030   8.624  10.414   7.989 -0.3796  0.7275 -0.9502
 1001MOL0     O38031   8.662  10.493   8.093  0.4328  0.0943 -0.3588
 1001MOL0     C38032   8.667  10.454   8.224 -0.3739  0.2060 -0.1216
 1001MOL0     C38033   8.601  10.528   8.317 -0.0401 -0.2637  0.3197
 1001MOL0     C38034   8.563  10.477   8.445 -0.6138  0.1663 -0.8474
 1001MOL0     C38035   8.627  10.361   8.495 -0.2138 -0.1881 -0.3007
 1001MOL0     O38036   8.608  10.320   8.629  0.4504  0.0382 -0.1428
 1001MOL0     C38037   8.633  10.424   8.727 -0.4239 -0.1606  0.5159
 1001MOL0     C38038   8.654  10.367   8.865  0.1688 -0.5607  0.2442
 1001MOL0     C38039   8.799  10.315   8.878  0.5034  0.0671  0.5947
 1001MOL0     C38040   8.802  10.169   8.885  0.2111  0.4109 -0.4667
 1001MOL0     C38041   8.948  10.118   8.903 -0.3008 -0.5192  0.1769
 1001MOL0     C38042   9.015  10.163   9.033  0.8372 -0.2228 -0.7328
 1001MOL0     C38043   8.935  10.136   9.169  1.0485  0.0342  0.5015
 1001MOL0     C38044   9.026  10.052   9.259 -0.5606  0.8838 -0.7705
 1001MOL0    Cl38045   9.040   9.878   9.226 -0.2105  0.4968  0.0297
 1001MOL0     C38046   8.707  10.296   8.410  0.0598 -0.6315 -0.2817
 1001MOL0     C38047   8.724  10.332   8.280  0.2222 -0.7052  0.2523
 1001MOL0     O38048   8.619  10.450   7.874  0.3642 -0.1319  0.4952
 1001MOL0     C38049   8.672  10.172   7.948 -0.0121 -0.3068  0.0835
 1001MOL0     C38050   8.639  10.037   7.937  0.0086  0.2027  0.2943
 1001MOL0     N38051   8.458   9.161   7.866  1.2836 -0.2177  0.1621
 1001MOL0     N38052   8.522   9.057   7.836 -0.6182 -0.4752  0.0245
 1001MOL0     C38053   8.774   9.405   7.488 -0.6490  0.6052 -0.6400
 1001MOL0     C38054   8.651   9.462   7.503 -0.5775 -0.1357 -0.1179
 1001MOL0     C38055   8.331   9.809   7.498  1.0949  1.1011  1.3412
 1001MOL0     C38056   8.227   9.741   7.438 -0.1549  0.4542 -0.4504
 1001MOL0     C38057   8.093   9.769   7.471  0.7649  0.3233 -0.3228
 1001MOL0     C38058   8.062   9.874   7.565 -0.5539 -0.3051  1.0267
 1001MOL0     O38059   7.944   9.916   7.620  0.2627  1.0416 -0.3832
 1001MOL0     C38060   7.818   9.844   7.605  0.9718 -0.9262  0.5048
 1001MOL0     C38061   7.746   9.858   7.477 -0.5544 -0.0493 -0.3139
 1001MOL0     C38062   7.707   9.730   7.419  0.1869 -0.4625 -0.1215
 1001MOL0     C38063   7.652   9.754   7.278 -0.5855  0.4027  0.2471
 1001MOL0     C38064   7.603   9.630   7.217  0.1539 -0.5413 -0.7699
 1001MOL0     C38065   7.558   9.527   7.159 -0.3480 -0.0900 -0.0147
 1001MOL0     C38066   8.173   9.943   7.620 -0.5484 -0.0712 -0.0080
 1001MOL0     C38067   8.303   9.916   7.582  0.3430 -0.0883 -0.6916
 1001MOL0     C38068   8.411   9.990   7.657  0.1997 -0.8388 -0.4422
 1001MOL0     H38069   8.733   9.781   7.510 -0.0082 -1.3289  2.2523
 1001MOL0     H38070   8.964   9.691   7.482  1.4174 -1.2410 -1.6200
 1001MOL0     H38071   9.029   9.421   7.669 -0.4844  1.4935 -0.6536
 1001MOL0     H38072   9.119   9.553   7.570 -0.0711 -0.5142 -3.6467
 1001MOL0     H38073   9.264   9.420   7.505 -1.4019  2.5188  0.3790
 1001MOL0     H38074   9.249   9.371   7.687  1.1923  0.0084  0.0191
 1001MOL0     H38075   9.128   9.191   7.476  1.7751 -1.5240 -0.6339
 1001MOL0     H38076   9.295   9.185   7.512 -0.5414  0.0130 -0.9091
 1001MOL0     H38077   9.237   9.111   7.747  0.7505 -0.9969 -0.8280
 1001MOL0     H38078   9.084   9.209   7.737 -1.8979  0.2012 -0.4720
 1001MOL0     H38079   9.148   8.936   7.620 -1.4722 -2.5257  3.5388
 1001MOL0     H38080   9.002   9.025   7.573 -2.0650 -1.1769  1.7086
 1001MOL0     H38081   8.969   8.853   7.765 -0.0336  0.5291 -3.2771
 1001MOL0     H38082   9.067   8.946   7.869 -2.4104 -0.4808  2.3382
 1001MOL0     H38083   8.901   9.150   7.844 -1.9665 -0.2083  2.1324
 1001MOL0     H38084   8.864   9.002   7.922  0.1541  1.7928  0.7872
 1001MOL0     H38085   8.777   9.068   7.644 -1.5777 -0.5679  0.4195
 1001MOL0     H38086   8.738   8.918   7.730 -0.8506  0.1268  2.2030
 1001MOL0     H38087   8.745   9.303   7.812 -0.6177  0.8735  1.3252
 1001MOL0     H38088   8.375   9.392   7.909  0.8359 -3.3436  0.2084
 1001MOL0     H38089   8.466   9.448   7.761 -0.7354  2.3133  0.5170
 1001MOL0     H38090   8.600   9.492   8.011  0.6179  3.0206  0.9076
 1001MOL0     H38091   8.630   9.542   7.838 -1.5705 -0.1007 -2.4290
 1001MOL0     H38092   8.391   9.650   7.846 -2.8505  3.0458  1.8657
 1001MOL0     H38093   8.400   9.624   8.020  0.8931 -0.9477  0.0015
 1001MOL0     H38094   8.617   9.728   8.023 -1.7739  0.8593  1.8028
 1001MOL0     H38095   8.606   9.776   7.850 -0.2358  0.5126 -0.5379
 1001MOL0     H38096   8.339  10.045   8.072  0.6922  0.3549 -0.4125
 1001MOL0     H38097   8.282  10.331   8.040  2.5291 -1.2738 -2.6536
 1001MOL0     H38098   8.412  10.414   8.113 -0.7957 -1.5489 -1.2671
 1001MOL0     H38099   8.338  10.293   8.216  1.1434 -1.7951  1.7806
 1001MOL0     H38100   8.562  10.624   8.283 -0.5450 -1.9830 -4.6952
 1001MOL0     H38101   8.502  10.539   8.510 -0.4475  1.9180 -2.2809
 1001MOL0     H38102   8.717  10.491   8.708 -1.5809  1.1248 -0.2435
 1001MOL0     H38103   8.543  10.485   8.742  0.3724  0.9331  0.9892
 1001MOL0     H38104   8.633  10.455   8.926  2.7070 -0.0793  0.5339
 1001MOL0     H38105   8.567  10.301   8.867 -2.3201  2.4366 -0.6386
 1001MOL0     H38106   8.847  10.352   8.969  0.5585  0.1883  0.5159
 1001MOL0     H38107   8.857  10.346   8.791  0.1623  1.7299  0.9220
 1001MOL0     H38108   8.772  10.128   8.787  2.3267  1.4732 -1.6254
 1001MOL0     H38109   8.733  10.127   8.959  0.3769  1.6299  0.4083
 1001MOL0     H38110   8.935  10.010   8.898  1.2164 -0.7284  0.3355
 1001MOL0     H38111   9.009  10.146   8.817  1.9973 -2.8393  0.9226
 1001MOL0     H38112   9.025  10.272   9.029 -2.5395  0.2377 -0.1389
 1001MOL0     H38113   9.117  10.126   9.048  0.3831 -0.3130  3.2321
 1001MOL0     H38114   8.840  10.081   9.160  0.6892  0.3078  2.2247
 1001MOL0     H38115   8.916  10.240   9.195  0.0825  0.5204 -1.9355
 1001MOL0     H38116   8.990  10.061   9.362 -0.3760 -3.7939 -0.0812
 1001MOL0     H38117   9.127  10.092   9.266 -0.6212  0.8203  4.0632
 1001MOL0     H38118   8.751  10.205   8.450 -0.9957  0.1706  3.0699
 1001MOL0     H38119   8.800  10.272   8.232 -0.9261 -1.1034 -1.1458
 1001MOL0     H38120   8.761  10.220   7.911  0.6565  1.6004  3.7562
 1001MOL0     H38121   8.699   9.962   7.887 -2.0043  1.2392 -4.2648
 1001MOL0     H38122   8.784   9.297   7.493  1.9056  0.6622 -2.5287
 1001MOL0     H38123   8.561   9.402   7.499 -1.1301  0.5769  1.0957
 1001MOL0     H38124   8.253   9.661   7.369 -0.8829 -2.4230  2.3772
 1001MOL0     H38125   8.015   9.712   7.423  1.1539  1.8323 -2.9490
 1001MOL0     H38126   7.830   9.740   7.637 -4.4797 -1.1004  2.9625
 1001MOL0     H38127   7.755   9.887   7.683  0.1965  1.1669 -1.1831
 1001MOL0     H38128   7.805   9.917   7.407  0.9992  0.6004  1.4589
 1001MOL0     H38129   7.659   9.922   7.496 -1.6837 -1.8077  0.7451
 1001MOL0     H38130   7.797   9.668   7.417  0.4876 -0.0216 -1.8530
 1001MOL0     H38131   7.631   9.681   7.482  0.1652  0.6831  0.7738
 1001MOL0     H38132   7.726   9.808   7.218 -1.6005  0.6507 -0.8135
 1001MOL0     H38133   7.566   9.821   7.286 -0.9680 -0.2982  3.4175
 1001MOL0     H38134   7.534   9.437   7.107  1.3642 -0.0013 -1.0280
 1001MOL0     H38135   8.149  10.014   7.698  0.9507  0.1331  0.2992
 1001MOL0     H38136   8.388  10.097   7.665  2.0980 -0.4823  0.9613
 1001MOL0     H38137   8.422   9.951   7.759  0.7362 -1.3432 -0.6865
 1001MOL0     H38138   8.511   9.998   7.612  0.2355  0.6278 -0.1319
 1002MOL0     O38139   6.680   7.640   0.062 -0.6322  0.5449  0.3692
 1002MOL0     C38140   6.738   7.542   0.007  0.1023 -1.3803  0.8282
 1002MOL0     O38141   6.734   7.513  -0.135  0.1194  0.0426  0.2246
 1002MOL0     C38142   6.620   7.550  -0.203  0.1845 -0.4072  0.7275
 1002MOL0     C38143   6.507   7.473  -0.195  0.4702 -0.5003 -0.8568
 1002MOL0     C38144   6.382   7.497  -0.264 -0.3811  0.0949 -0.8437
 1002MOL0     C38145   6.379   7.603  -0.345 -0.3354  0.0653  0.2476
 1002MOL0     O38146   6.280   7.650  -0.422 -0.7115 -1.3723  0.8408
 1002MOL0     C38147   6.265   7.569  -0.543 -0.1186 -0.4535  0.2059
 1002MOL0     C38148   6.118   7.522  -0.556  0.6218  0.0772  0.0553
 1002MOL0     C38149   6.086   7.405  -0.451  0.3737 -0.5388  0.7551
 1002MOL0     C38150   5.932   7.383  -0.416  0.4940  0.2293 -0.1736
 1002MOL0     C38151   5.909   7.255  -0.333 -0.1371 -0.5562  0.4217
 1002MOL0     C38152   5.966   7.278  -0.193 -0.1514 -1.0975  0.4173
 1002MOL0     C38153   5.887   7.207  -0.079  0.3063 -0.2733 -0.1360
 1002MOL0     C38154   5.916   7.057  -0.081 -1.4903 -0.4725 -0.3696
 1002MOL0     N38155   5.885   6.999   0.047 -0.5150  0.2677  1.0924
 1002MOL0     C38156   5.956   7.011   0.165 -0.2750 -0.9459 -0.5379
 1002MOL0     C38157   5.875   6.959   0.260 -0.3641 -0.7576  0.1759
 1002MOL0     C38158   5.903   6.957   0.406  1.2135 -0.6633 -0.2186
 1002MOL0     C38159   5.859   7.078   0.497 -0.1158 -0.3917 -0.0660
 1002MOL0     C38160   5.913   7.066   0.642 -0.4758  0.0204 -1.1059
 1002MOL0     C38161   5.876   7.199   0.729  0.7599 -0.0262  0.0147
 1002MOL0     O38162   5.949   7.311   0.679  0.0848 -0.8103  0.0275
 1002MOL0     C38163   6.082   7.322   0.720  0.4270  0.1957  0.1901
 1002MOL0     C38164   6.150   7.249   0.822  0.1053 -0.1467 -0.3534
 1002MOL0     C38165   6.288   7.272   0.849  1.1872  0.6603 -0.3315
 1002MOL0     C38166   6.348   7.175   0.956  0.7880  0.2433  0.3514
 1002MOL0     C38167   6.355   7.375   0.785  0.6542  0.8477 -0.9199
 1002MOL0     C38168   6.497   7.426   0.808 -0.2274 -0.4014  0.5778
 1002MOL0     O38169   6.526   7.549   0.734 -0.5086  0.6008 -0.4840
 1002MOL0     C38170   6.650   7.599   0.717  0.3968  0.5199 -0.4775
 1002MOL0     C38171   6.670   7.735   0.739  0.6928 -0.1719 -0.4060
 1002MOL0     C38172   6.795   7.801   0.721 -1.0144  0.0711 -0.6674
 1002MOL0     C38173   6.905   7.720   0.687 -0.3089 -0.0848  0.1354
 1002MOL0     O38174   7.036   7.768   0.671  0.1142  0.2192  0.1415
 1002MOL0     C38175   7.075   7.857   0.771  0.4088 -0.6005  0.4195
 1002MOL0     C38176   7.223   7.875   0.769 -0.0489  0.0410 -0.4811
 1002MOL0     C38177   7.305   7.748   0.806 -1.0873 -0.3209 -0.4336
 1002MOL0     C38178   7.448   7.754   0.742  0.5292  1.4859  0.1220
 1002MOL0     C38179   7.531   7.873   0.765 -0.3662 -0.6974  0.9468
 1002MOL0     C38180   7.660   7.872   0.677 -0.4058  0.3756 -0.1074
 1002MOL0     C38181   7.749   7.997   0.675 -0.7990  0.6947  0.8160
 1002MOL0     C38182   7.884   7.984   0.608 -0.9086  1.2237  1.4700
 1002MOL0    Cl38183   7.857   7.973   0.427  0.7219 -0.0988  0.2865
 1002MOL0     C38184   6.886   7.583   0.655  0.1917  0.4495  1.3419
 1002MOL0     C38185   6.764   7.525   0.677  0.1303 -0.0197 -0.0669
 1002MOL0     O38186   6.575   7.359   0.877  0.1763 -0.3144  0.2453
 1002MOL0     C38187   6.288   7.436   0.677 -0.1359 -1.5082  0.0136
 1002MOL0     C38188   6.153   7.410   0.642  0.4978 -0.3273  0.6702
 1002MOL0     N38189   5.758   6.915   0.201 -0.5759 -0.1469  0.2970
 1002MOL0     N38190   5.772   6.928   0.075  0.4691  0.0405 -0.1328
 1002MOL0     C38191   6.491   7.688  -0.346 -0.2563  0.0877  0.1490
 1002MOL0     C38192   6.600   7.664  -0.269 -0.0817 -0.5419  0.5855
 1002MOL0     C38193   6.817   7.446   0.091 -0.1212 -0.2823  0.3833
 1002MOL0     C38194   6.848   7.315   0.039  0.2798 -0.5377  0.2660
 1002MOL0     C38195   6.905   7.209   0.120 -0.1633  0.0125 -0.4609
 1002MOL0     C38196   6.932   7.244   0.249  0.0887 -0.2615 -0.4856
 1002MOL0     O38197   6.986   7.163   0.337 -0.1982  1.0804  0.0727
 1002MOL0     C38198   7.118   7.131   0.314 -0.7718  0.2746 -0.6613
 1002MOL0     C38199   7.168   7.021   0.419 -1.1612 -1.1304  0.0315
 1002MOL0     C38200   7.091   6.881   0.405  0.5001  0.1286 -1.0101
 1002MOL0     C38201   7.151   6.769   0.494 -0.0538 -0.9468 -0.2546
 1002MOL0     C38202   7.072   6.644   0.490  0.3732 -0.0919 -0.1028
 1002MOL0     C38203   7.013   6.534   0.465  0.3225 -0.3156  0.2148
 1002MOL0     C38204   6.912   7.371   0.297  0.6390  0.0730 -0.5277
 1002MOL0     C38205   6.858   7.470   0.220  0.0099  0.9479 -0.2776
 1002MOL0     C38206   6.859   7.606   0.283  0.3631 -0.0348  0.8385
 1002MOL0     H38207   6.517   7.393  -0.122  0.7916 -2.3854 -2.8588
 1002MOL0     H38208   6.292   7.438  -0.251 -0.5347  0.3993 -0.4931
 1002MOL0     H38209   6.326   7.478  -0.539  0.9997  0.2982  1.3298
 1002MOL0     H38210   6.296   7.631  -0.627  0.8174  2.3918  2.4671
 1002MOL0     H38211   6.067   7.616  -0.534  2.3912  1.3690 -1.1138
 1002MOL0     H38212   6.095   7.495  -0.660  1.1502  1.3381 -0.4067
 1002MOL0     H38213   6.123   7.311  -0.493  1.1800 -0.9535  2.3112
 1002MOL0     H38214   6.144   7.421  -0.359  0.6861  3.4764  0.0484
 1002MOL0     H38215   5.878   7.465  -0.367 -4.0412 -3.0791  1.0130
 1002MOL0     H38216   5.876   7.367  -0.508  1.2524 -0.2939 -0.5507
 1002MOL0     H38217   5.954   7.169  -0.383 -4.2650 -3.4599  1.1089
 1002MOL0     H38218   5.803   7.227  -0.324  0.3661 -2.7606 -0.0590
 1002MOL0     H38219   6.073   7.262  -0.177 -0.0829  0.7920  2.2051
 1002MOL0     H38220   5.958   7.385  -0.172 -1.5608 -1.2304  0.6122
 1002MOL0     H38221   5.779   7.216  -0.091  0.5877  1.8432 -1.7349
 1002MOL0     H38222   5.924   7.251   0.013 -0.1610  0.6438 -0.3743
 1002MOL0     H38223   5.882   7.002  -0.169 -3.1191  0.5528 -0.4235
 1002MOL0     H38224   6.025   7.051  -0.086 -1.4371 -0.1493  0.2500
 1002MOL0     H38225   6.055   7.057   0.168 -0.8073  0.2103  2.0690
 1002MOL0     H38226   6.009   6.929   0.409  1.9318  1.8672  0.9237
 1002MOL0     H38227   5.846   6.871   0.440  2.7703 -2.8915 -2.8057
 1002MOL0     H38228   5.880   7.180   0.465 -2.7715  0.6139  1.1104
 1002MOL0     H38229   5.751   7.072   0.506 -0.5088  3.8893  0.1751
 1002MOL0     H38230   5.893   6.973   0.695 -0.9205  0.0585 -1.2051
 1002MOL0     H38231   6.022   7.074   0.641 -0.3685 -0.5415  1.1334
 1002MOL0     H38232   5.768   7.214   0.737  0.3684 -2.7539  0.8363
 1002MOL0     H38233   5.899   7.181   0.834  2.8732  0.9440 -0.2399
 1002MOL0     H38234   6.087   7.202   0.897 -0.8060  1.4782 -0.0471
 1002MOL0     H38235   6.429   7.110   0.922  0.4218  0.5810 -1.2286
 1002MOL0     H38236   6.273   7.104   0.993 -1.7420  1.4161 -2.1480
 1002MOL0     H38237   6.388   7.230   1.042  1.6995 -0.2547  0.2570
 1002MOL0     H38238   6.587   7.797   0.770  0.5367 -1.0886  1.1411
 1002MOL0     H38239   6.810   7.907   0.736  1.1652 -0.1162 -1.1572
 1002MOL0     H38240   7.030   7.952   0.743 -1.7943 -2.6735 -4.0382
 1002MOL0     H38241   7.036   7.820   0.867  1.4446  0.4267  1.2617
 1002MOL0     H38242   7.260   7.910   0.672  1.8271  0.2362  0.2495
 1002MOL0     H38243   7.244   7.952   0.845 -0.4341 -1.7028  1.4706
 1002MOL0     H38244   7.254   7.658   0.771  0.8203 -3.1592  3.3393
 1002MOL0     H38245   7.320   7.730   0.913 -3.8189 -1.6896 -0.1955
 1002MOL0     H38246   7.441   7.737   0.635  0.6000 -1.2564  0.4775
 1002MOL0     H38247   7.498   7.666   0.783  2.9978  3.4362  1.6132
 1002MOL0     H38248   7.467   7.962   0.755 -1.5405 -1.5673  0.4365
 1002MOL0     H38249   7.560   7.871   0.870 -3.2360 -0.6768  1.8169
 1002MOL0     H38250   7.629   7.844   0.575 -3.7514 -1.2318  1.1957
 1002MOL0     H38251   7.712   7.786   0.722  0.9157  1.5521  0.6893
 1002MOL0     H38252   7.768   8.019   0.781 -5.1255  2.3242  1.4375
 1002MOL0     H38253   7.684   8.070   0.627 -0.5946  0.8427  0.7626
 1002MOL0     H38254   7.929   7.889   0.640 -0.1804  1.1554  0.2915
 1002MOL0     H38255   7.945   8.073   0.624  0.2480  0.5653  0.8539
 1002MOL0     H38256   6.971   7.530   0.614 -2.3487 -1.3029 -2.2069
 1002MOL0     H38257   6.735   7.424   0.650 -2.0457  1.0113 -2.0043
 1002MOL0     H38258   6.329   7.504   0.602 -4.2415  0.5552 -0.6470
 1002MOL0     H38259   6.107   7.470   0.565  1.4211 -2.0124 -1.2751
 1002MOL0     H38260   6.465   7.782  -0.395  1.5873  1.3680  1.4895
 1002MOL0     H38261   6.680   7.736  -0.281 -1.8741  1.2737 -1.5018
 1002MOL0     H38262   6.835   7.296  -0.068 -0.4620  5.4062 -1.0618
 1002MOL0     H38263   6.926   7.116   0.067 -5.0766 -1.8268  0.3434
 1002MOL0     H38264   7.130   7.082   0.217 -1.4457 -0.9263 -0.1658
 1002MOL0     H38265   7.183   7.219   0.322 -1.2828  0.7157 -1.2640
 1002MOL0     H38266   7.129   7.069   0.510  1.8605  4.5578 -1.1766
 1002MOL0     H38267   7.277   7.014   0.417 -1.1846 -3.2638  2.1098
 1002MOL0     H38268   6.986   6.904   0.423  0.6999  0.0989  0.3141
 1002MOL0     H38269   7.102   6.836   0.306 -0.3475 -2.3914 -0.0506
 1002MOL0     H38270   7.143   6.802   0.598  0.2879  0.9648 -0.7935
 1002MOL0     H38271   7.257   6.752   0.471  0.9461  0.6685  2.5888
 1002MOL0     H38272   6.975   6.439   0.434 -2.2220 -0.2154  2.6203
 1002MOL0     H38273   6.939   7.402   0.397 -1.2710 -0.4808  0.2140
 1002MOL0     H38274   6.894   7.683   0.214  2.1174 -1.3071  0.2245
 1002MOL0     H38275   6.757   7.638   0.305  0.4232  2.1013 -1.6012
 1002MOL0     H38276   6.930   7.610   0.366  1.1381  1.0821  0.1463
 1003MOL0     O38277   0.807   3.057  10.636 -0.4548 -0.2172 -0.3248
 1003MOL0     C38278   0.778   3.165  10.699  1.2899  0.6623  0.8181
 1003MOL0     O38279   0.650   3.198  10.730  0.1267 -0.2890  0.3835
 1003MOL0     C38280   0.544   3.122  10.712 -0.5656 -0.3634 -0.4771
 1003MOL0     C38281   0.506   3.065  10.593  0.2328  1.1117  0.6023
 1003MOL0     C38282   0.394   2.974  10.580  1.1532 -0.2354  0.5090
 1003MOL0     C38283   0.318   2.939  10.701  0.3082 -0.2122  0.2396
 1003MOL0     O38284   0.228   2.843  10.703 -0.6462  0.2980  0.2795
 1003MOL0     C38285   0.097   2.874  10.648 -0.4158 -0.5927  0.1327
 1003MOL0     C38286  -0.000   2.812  10.742  0.1147 -0.2175 -0.3349
 1003MOL0     C38287  -0.134   2.868  10.735  0.1651 -0.0127  0.1375
 1003MOL0     C38288  -0.177   2.918  10.598 -0.1711  0.1855  0.0055
 1003MOL0     C38289  -0.323   2.978  10.613 -0.8438 -0.2296  0.1380
 1003MOL0     C38290  -0.415   2.938  10.500 -0.3385  0.8002  0.6726
 1003MOL0     C38291  -0.553   3.002  10.529  0.3012  0.1440 -0.1469
 1003MOL0     C38292  -0.648   2.944  10.416 -0.0405  0.0854 -0.0670
 1003MOL0     N38293  -0.755   2.869  10.484 -0.2628  0.1230  0.3464
 1003MOL0     C38294  -0.746   2.746  10.551 -0.8832 -0.1954 -0.2077
 1003MOL0     C38295  -0.869   2.691  10.552 -0.3402  0.3020 -0.8938
 1003MOL0     C38296  -0.914   2.553  10.575 -0.2033 -1.0799 -0.6786
 1003MOL0     C38297  -0.916   2.507  10.721 -0.3613 -0.2049  0.2007
 1003MOL0     C38298  -1.046   2.543  10.781 -0.3893  0.2725 -0.2726
 1003MOL0     C38299  -1.040   2.536  10.941  0.5608  0.6248 -0.0213
 1003MOL0     O38300  -0.967   2.421  10.985 -0.0634  0.2124  0.3951
 1003MOL0     C38301  -0.987   2.380  11.116  0.3403  0.3721  0.8521
 1003MOL0     C38302  -1.028   2.462  11.222  0.4378 -1.2898  0.0176
 1003MOL0     C38303  -1.061   2.413  11.349 -0.0601  0.2660  0.7047
 1003MOL0     C38304  -1.121   2.514  11.443  0.0682 -0.2981 -0.0746
 1003MOL0     C38305  -1.047   2.273  11.377  0.3424 -0.6959  0.3696
 1003MOL0     C38306  -1.101   2.199  11.498 -0.3903 -0.3154 -0.1017
 1003MOL0     O38307  -1.131   2.064  11.467 -0.1713 -0.0778  0.2979
 1003MOL0     C38308  -1.189   1.987  11.559  0.5555 -0.7416  0.7145
 1003MOL0     C38309  -1.262   2.041  11.673 -0.2099 -0.1966  0.1822
 1003MOL0     C38310  -1.311   1.952  11.773 -0.2248 -0.3196  1.0308
 1003MOL0     C38311  -1.303   1.816  11.747 -0.0825  0.5416 -0.5781
 1003MOL0     O38312  -1.375   1.728  11.813  0.5890 -0.4383 -0.5433
 1003MOL0     C38313  -1.505   1.747  11.877 -0.6789 -0.0183 -0.4726
 1003MOL0     C38314  -1.496   1.727  12.033  0.1585 -0.6957  0.0435
 1003MOL0     C38315  -1.591   1.627  12.082 -0.7254  0.4820  0.2175
 1003MOL0     C38316  -1.528   1.534  12.193  0.2133 -0.1175 -0.5153
 1003MOL0     C38317  -1.623   1.437  12.265  0.3459 -0.8640  0.1432
 1003MOL0     C38318  -1.543   1.322  12.327  0.0506 -0.0985 -0.7253
 1003MOL0     C38319  -1.639   1.209  12.374 -0.2814  0.9215  0.2611
 1003MOL0     C38320  -1.560   1.097  12.438 -0.0089 -0.2063 -1.5167
 1003MOL0    Cl38321  -1.471   1.169  12.583  0.4016 -0.4176  0.1651
 1003MOL0     C38322  -1.233   1.767  11.627  0.5821 -0.4277  0.4216
 1003MOL0     C38323  -1.178   1.851  11.539  0.6057  0.3995 -0.3065
 1003MOL0     O38324  -1.080   2.250  11.612 -0.3682 -0.1544 -0.0161
 1003MOL0     C38325  -0.987   2.197  11.278  0.1402 -0.7095 -0.0708
 1003MOL0     C38326  -0.961   2.251  11.153  0.3869 -0.0359  0.9029
 1003MOL0     N38327  -0.958   2.782  10.502 -0.0696  0.7191  0.6016
 1003MOL0     N38328  -0.887   2.884  10.460 -0.1854 -0.6426 -0.2834
 1003MOL0     C38329   0.341   3.013  10.823 -0.6562 -0.1299  0.5232
 1003MOL0     C38330   0.449   3.107  10.823 -0.1356  0.6522 -0.0931
 1003MOL0     C38331   0.888   3.270  10.702 -0.8473 -0.2947 -0.8174
 1003MOL0     C38332   1.023   3.226  10.672 -0.5213  0.1520 -1.0069
 1003MOL0     C38333   1.138   3.310  10.699 -0.1766 -0.1651  0.0451
 1003MOL0     C38334   1.121   3.438  10.752 -0.6271 -0.5875  0.2252
 1003MOL0     O38335   1.236   3.514  10.769  0.4014  0.1843 -0.2831
 1003MOL0     C38336   1.235   3.651  10.745 -0.9364  0.0645 -0.5651
 1003MOL0     C38337   1.389   3.691  10.752 -0.0880 -0.7318 -0.5516
 1003MOL0     C38338   1.488   3.628  10.655 -0.2202  0.4479 -0.4559
 1003MOL0     C38339   1.436   3.650  10.512 -0.6073  0.1462 -0.2303
 1003MOL0     C38340   1.445   3.791  10.487 -0.2543 -0.3790 -0.2690
 1003MOL0     C38341   1.466   3.896  10.436 -0.0626 -0.1782 -0.1550
 1003MOL0     C38342   0.999   3.484  10.768 -0.3555  0.6052 -0.6081
 1003MOL0     C38343   0.887   3.398  10.756  0.2939 -0.0086  0.6100
 1003MOL0     C38344   0.752   3.451  10.803  0.3423 -0.4299 -0.2345
 1003MOL0     H38345   0.561   3.075  10.500 -0.4228  0.4262  0.1264
 1003MOL0     H38346   0.363   2.928  10.486 -0.4767  0.0523  0.8716
 1003MOL0     H38347   0.085   2.835  10.546  0.4706 -2.6232  0.7436
 1003MOL0     H38348   0.079   2.981  10.643  0.9293 -0.2996  1.1115
 1003MOL0     H38349   0.005   2.703  10.734  1.8159 -0.3172  1.4438
 1003MOL0     H38350   0.030   2.837  10.844 -2.8621  1.1981  0.2995
 1003MOL0     H38351  -0.201   2.787  10.763 -1.2730  1.5109  1.2896
 1003MOL0     H38352  -0.158   2.945  10.808  1.9928 -0.8974  1.7547
 1003MOL0     H38353  -0.111   2.989  10.549  2.0594  0.2249  2.8183
 1003MOL0     H38354  -0.195   2.844  10.519  0.2483 -1.5079  1.4318
 1003MOL0     H38355  -0.316   3.087  10.620 -0.0508 -0.3923  2.7070
 1003MOL0     H38356  -0.370   2.944  10.706 -0.8509  0.6862  0.4810
 1003MOL0     H38357  -0.379   2.975  10.404  2.1970 -2.2606  0.2589
 1003MOL0     H38358  -0.423   2.829  10.497  0.3727  0.5941  3.2571
 1003MOL0     H38359  -0.544   3.109  10.509  0.6203  0.1535  0.0371
 1003MOL0     H38360  -0.585   2.982  10.631  0.4306 -0.6372 -0.2536
 1003MOL0     H38361  -0.689   3.037  10.375 -0.2871  1.1264  2.3658
 1003MOL0     H38362  -0.593   2.899  10.333 -3.4545  0.4898 -2.7899
 1003MOL0     H38363  -0.655   2.701  10.588 -1.1830  2.0442  3.8004
 1003MOL0     H38364  -0.843   2.493  10.517 -0.1972  2.2024 -4.4233
 1003MOL0     H38365  -1.016   2.538  10.537  0.2965 -2.3523 -1.5732
 1003MOL0     H38366  -0.908   2.398  10.725  0.1339 -0.2102 -0.8079
 1003MOL0     H38367  -0.833   2.550  10.778  0.3809  0.2906 -1.2148
 1003MOL0     H38368  -1.082   2.636  10.736 -3.5897 -2.3301 -3.7011
 1003MOL0     H38369  -1.126   2.474  10.752 -0.6558 -1.2785  3.5624
 1003MOL0     H38370  -0.984   2.623  10.976  1.1038  0.8713 -1.4471
 1003MOL0     H38371  -1.142   2.544  10.981  0.8973 -2.5760  1.8704
 1003MOL0     H38372  -1.033   2.570  11.210 -1.2886 -0.8489  3.4237
 1003MOL0     H38373  -1.143   2.478  11.544  3.0225 -2.0535  0.0542
 1003MOL0     H38374  -1.200   2.566  11.387  1.4432  0.2669 -1.5607
 1003MOL0     H38375  -1.043   2.586  11.471 -0.8891  1.1847 -1.0562
 1003MOL0     H38376  -1.272   2.148  11.685 -1.2270 -0.0051 -1.8540
 1003MOL0     H38377  -1.370   1.990  11.855  1.2380  5.1250 -0.0269
 1003MOL0     H38378  -1.548   1.847  11.876  0.4021  0.7733  4.7222
 1003MOL0     H38379  -1.582   1.679  11.841 -2.9260  1.3616  1.4825
 1003MOL0     H38380  -1.391   1.700  12.047  0.9507  1.5027 -1.0473
 1003MOL0     H38381  -1.507   1.823  12.086  2.0476 -0.6690  0.4588
 1003MOL0     H38382  -1.629   1.564  12.001 -2.1451  0.6121  0.7444
 1003MOL0     H38383  -1.675   1.674  12.136  1.4026  2.4623  2.0310
 1003MOL0     H38384  -1.476   1.594  12.268 -0.9818  0.2593  0.0331
 1003MOL0     H38385  -1.447   1.472  12.154  0.8044 -2.8973  4.3788
 1003MOL0     H38386  -1.676   1.483  12.348  0.2613 -2.5738  1.0951
 1003MOL0     H38387  -1.695   1.388  12.198 -0.6646 -1.7718  1.8161
 1003MOL0     H38388  -1.478   1.374  12.398 -0.5046 -0.8282  0.3438
 1003MOL0     H38389  -1.477   1.273  12.254  1.4473  1.8769 -0.8961
 1003MOL0     H38390  -1.702   1.171  12.293  3.7026 -1.9901 -1.8340
 1003MOL0     H38391  -1.704   1.249  12.453  1.4999  1.9012  1.2801
 1003MOL0     H38392  -1.483   1.052  12.375 -0.8954 -2.5521 -1.0404
 1003MOL0     H38393  -1.634   1.025  12.475 -2.1837  3.4721  2.3438
 1003MOL0     H38394  -1.219   1.665  11.594  1.4605  0.8288 -3.5902
 1003MOL0     H38395  -1.143   1.818  11.442 -2.1314  1.2900 -1.7033
 1003MOL0     H38396  -0.959   2.093  11.293  0.3763 -0.7353 -0.6538
 1003MOL0     H38397  -0.920   2.179  11.083 -0.0472  0.1148  0.4885
 1003MOL0     H38398   0.286   2.995  10.915 -0.6015  1.2493  0.8494
 1003MOL0     H38399   0.481   3.161  10.912  0.9492 -1.9531  1.1987
 1003MOL0     H38400   1.047   3.125  10.639  2.2306 -0.0378  1.2047
 1003MOL0     H38401   1.239   3.275  10.681 -0.2818  0.0692 -1.0617
 1003MOL0     H38402   1.200   3.676  10.644  0.8122 -1.6091 -1.6528
 1003MOL0     H38403   1.176   3.708  10.817  2.9570  3.2095  0.4981
 1003MOL0     H38404   1.428   3.668  10.852 -0.7401  2.4357  0.5256
 1003MOL0     H38405   1.407   3.798  10.748 -1.2559 -0.4543  0.7521
 1003MOL0     H38406   1.588   3.665  10.679 -0.0947 -0.1101 -0.0796
 1003MOL0     H38407   1.495   3.520  10.670  2.8262  0.3260 -2.1026
 1003MOL0     H38408   1.336   3.612  10.490  0.1520 -1.7981 -0.5288
 1003MOL0     H38409   1.514   3.615  10.444 -0.5710 -0.4366  0.1021
 1003MOL0     H38410   1.486   3.999  10.411 -0.3858  0.4439  1.9530
 1003MOL0     H38411   0.988   3.585  10.804 -0.9679  0.1500  0.5437
 1003MOL0     H38412   0.683   3.383  10.854 -2.9706  0.6740 -2.8849
 1003MOL0     H38413   0.768   3.534  10.872 -1.3617  2.7355 -3.3219
 1003MOL0     H38414   0.700   3.479  10.711 -1.3296 -0.0260  0.8041
 1004MOL0     O38415   1.048  11.333   9.383  0.1244 -0.2922  0.0045
 1004MOL0     C38416   1.092  11.444   9.362 -0.6662  0.2807 -0.0884
 1004MOL0     O38417   1.039  11.540   9.290  0.3679 -0.0628  0.3842
 1004MOL0     C38418   0.919  11.517   9.219  0.0488  0.5088 -0.2344
 1004MOL0     C38419   0.890  11.415   9.126  1.1463  0.1779 -0.3491
 1004MOL0     C38420   0.769  11.420   9.055 -0.1483  0.0786  0.3381
 1004MOL0     C38421   0.679  11.517   9.083  0.6622  0.8876 -0.3926
 1004MOL0     O38422   0.570  11.520   9.006  0.5046 -0.3121 -0.1481
 1004MOL0     C38423   0.450  11.596   9.021 -0.1477  0.1978  0.3265
 1004MOL0     C38424   0.340  11.545   8.923 -0.3226  0.0167 -0.1834
 1004MOL0     C38425   0.390  11.551   8.780  0.0668 -0.7387 -0.0414
 1004MOL0     C38426   0.301  11.468   8.681 -0.4277 -0.7479  0.0451
 1004MOL0     C38427   0.325  11.489   8.536  0.5702  0.1537  1.1222
 1004MOL0     C38428   0.478  11.460   8.494  0.5382  0.2412  0.0760
 1004MOL0     C38429   0.528  11.550   8.380 -0.3256 -0.5625 -0.3438
 1004MOL0     C38430   0.443  11.575   8.261 -0.1060  0.1602 -0.6487
 1004MOL0     N38431   0.439  11.459   8.172 -1.1932  0.7982  0.5078
 1004MOL0     C38432   0.478  11.450   8.035 -0.6857 -1.0725  0.5567
 1004MOL0     C38433   0.459  11.320   8.004 -0.6820  0.5395  0.0091
 1004MOL0     C38434   0.459  11.255   7.867 -0.3987 -0.6394 -0.0551
 1004MOL0     C38435   0.334  11.156   7.840 -0.0864  0.2286  0.3822
 1004MOL0     C38436   0.327  11.121   7.690  0.6526 -0.3096  0.6829
 1004MOL0     C38437   0.193  11.045   7.654  0.6599  0.2839  0.5792
 1004MOL0     O38438   0.203  10.912   7.707  0.1785  0.7137  0.0166
 1004MOL0     C38439   0.193  10.815   7.611  0.7037  0.0880  0.9897
 1004MOL0     C38440   0.072  10.742   7.597 -0.3280  0.0755  0.3348
 1004MOL0     C38441   0.059  10.638   7.503  0.1548 -0.8459 -0.7460
 1004MOL0     C38442  -0.072  10.587   7.486  0.4232 -0.1618  0.4538
 1004MOL0     C38443   0.179  10.598   7.446 -0.8472 -0.7302 -0.1309
 1004MOL0     C38444   0.185  10.480   7.353 -0.3391  0.3122  0.4846
 1004MOL0     O38445   0.309  10.408   7.347  0.0480  0.4275 -0.1879
 1004MOL0     C38446   0.333  10.300   7.267 -0.0549  0.4900  0.4250
 1004MOL0     C38447   0.435  10.230   7.320 -0.3652  0.0302 -0.4860
 1004MOL0     C38448   0.461  10.105   7.264 -0.3880 -0.0551 -0.2248
 1004MOL0     C38449   0.374  10.042   7.179 -0.4660  0.4430  0.5697
 1004MOL0     O38450   0.409   9.918   7.147 -0.1120 -0.7932  0.5683
 1004MOL0     C38451   0.379   9.872   7.012  0.0030 -0.7122 -0.8062
 1004MOL0     C38452   0.438   9.738   7.009 -1.2710 -0.0097  0.0014
 1004MOL0     C38453   0.594   9.759   7.014  0.0514 -0.1931  0.7957
 1004MOL0     C38454   0.665   9.636   7.063  0.3243 -0.6464 -0.4365
 1004MOL0     C38455   0.815   9.648   7.072 -0.8239 -0.2461 -0.8662
 1004MOL0     C38456   0.872   9.666   6.924  0.5281  0.9707  0.0861
 1004MOL0     C38457   1.029   9.669   6.922 -0.2693  0.0793  0.2552
 1004MOL0     C38458   1.080   9.807   6.979 -0.8929 -0.0551  0.6833
 1004MOL0    Cl38459   1.037   9.943   6.886 -0.0060 -0.5340  0.3756
 1004MOL0     C38460   0.275  10.121   7.125  0.2667  1.0562  0.1424
 1004MOL0     C38461   0.247  10.241   7.167  0.1845 -0.5829  0.2240
 1004MOL0     O38462   0.086  10.455   7.291 -0.0726 -0.2273 -0.4554
 1004MOL0     C38463   0.300  10.664   7.462  0.3917  0.7730 -1.0020
 1004MOL0     C38464   0.309  10.779   7.543  0.1536 -0.2577 -0.1771
 1004MOL0     N38465   0.423  11.245   8.117  0.2829  0.5520  0.2658
 1004MOL0     N38466   0.398  11.334   8.204  0.5816 -0.6332 -0.5203
 1004MOL0     C38467   0.706  11.613   9.182  0.0985  0.8151  0.5559
 1004MOL0     C38468   0.821  11.610   9.252  0.3856 -0.8858 -0.9089
 1004MOL0     C38469   1.218  11.470   9.431  0.3970  0.2236 -0.4682
 1004MOL0     C38470   1.297  11.359   9.481 -0.4711 -0.3712  0.4863
 1004MOL0     C38471   1.413  11.373   9.552  0.4670  0.4493  0.2527
 1004MOL0     C38472   1.469  11.500   9.569 -0.4416 -0.0371 -0.3658
 1004MOL0     O38473   1.592  11.501   9.633  0.4443 -0.1424  0.3693
 1004MOL0     C38474   1.596  11.580   9.760  0.1971 -1.3555  0.6473
 1004MOL0     C38475   1.725  11.537   9.835 -0.3323  1.0727  0.2738
 1004MOL0     C38476   1.731  11.390   9.900  0.5830  0.2802  0.1233
 1004MOL0     C38477   1.880  11.347   9.923  0.3158  0.4736 -0.4236
 1004MOL0     C38478   1.889  11.200   9.919  0.4726  0.4778 -0.3376
 1004MOL0     C38479   1.867  11.077   9.909 -0.5419 -0.0891  0.6324
 1004MOL0     C38480   1.390  11.614   9.536 -0.2558  0.1638  0.0507
 1004MOL0     C38481   1.269  11.599   9.469 -1.3836 -0.8819  0.1204
 1004MOL0     C38482   1.192  11.732   9.454 -0.0750  0.8136 -0.4666
 1004MOL0     H38483   0.960  11.333   9.107  0.2591 -1.0734  1.4874
 1004MOL0     H38484   0.731  11.351   8.981  1.0073 -1.0151  0.7300
 1004MOL0     H38485   0.477  11.699   8.997  0.6987  0.0866  0.7658
 1004MOL0     H38486   0.408  11.596   9.122 -1.3391 -3.4538 -0.0011
 1004MOL0     H38487   0.310  11.444   8.953 -0.5452  0.4108  0.9543
 1004MOL0     H38488   0.243  11.595   8.927 -1.5526 -2.2643  2.9138
 1004MOL0     H38489   0.381  11.659   8.762 -1.3682 -0.7309  0.5744
 1004MOL0     H38490   0.493  11.516   8.777  0.7705  1.2882 -0.9657
 1004MOL0     H38491   0.320  11.361   8.694 -0.8430 -1.1006 -1.9685
 1004MOL0     H38492   0.197  11.484   8.711 -0.3979 -2.3168  1.0965
 1004MOL0     H38493   0.295  11.590   8.505 -0.7903 -0.2349  1.0851
 1004MOL0     H38494   0.260  11.425   8.475  0.6005 -0.2643  1.5235
 1004MOL0     H38495   0.542  11.464   8.583 -1.0166  1.5227  1.2081
 1004MOL0     H38496   0.488  11.356   8.462 -0.6208  0.4483 -1.0057
 1004MOL0     H38497   0.627  11.518   8.346 -0.1594  1.0433 -1.4930
 1004MOL0     H38498   0.556  11.649   8.417  1.9116  0.3972 -4.0352
 1004MOL0     H38499   0.341  11.603   8.289 -0.1965 -1.3079  0.6640
 1004MOL0     H38500   0.485  11.659   8.206 -1.6544 -0.2894 -2.6132
 1004MOL0     H38501   0.502  11.536   7.974 -2.6758 -1.9341 -1.5966
 1004MOL0     H38502   0.556  11.213   7.841 -0.4409 -1.4597  1.0474
 1004MOL0     H38503   0.464  11.341   7.799  2.5507 -1.6873 -1.3400
 1004MOL0     H38504   0.349  11.068   7.903  2.2050  1.2403  1.3580
 1004MOL0     H38505   0.239  11.201   7.870  0.4044  3.9074 -2.8116
 1004MOL0     H38506   0.323  11.213   7.630  1.1216 -0.7689 -0.0704
 1004MOL0     H38507   0.413  11.056   7.673 -1.3451 -2.6314 -1.4850
 1004MOL0     H38508   0.113  11.108   7.694  4.0864  3.9891  2.3711
 1004MOL0     H38509   0.179  11.044   7.545 -0.9893  1.3471  0.7357
 1004MOL0     H38510  -0.011  10.767   7.663 -1.4829 -0.3033 -0.9215
 1004MOL0     H38511  -0.090  10.573   7.379  2.2499  3.3330 -0.4304
 1004MOL0     H38512  -0.143  10.664   7.519 -1.6657 -1.7914  0.0000
 1004MOL0     H38513  -0.103  10.500   7.544 -0.7740 -1.5746 -2.1050
 1004MOL0     H38514   0.490  10.279   7.400  0.1852 -1.3537  0.0074
 1004MOL0     H38515   0.537  10.032   7.293  0.6983  1.2733  0.3843
 1004MOL0     H38516   0.271   9.863   6.999 -0.0188 -0.4802 -0.8053
 1004MOL0     H38517   0.428   9.937   6.938  0.9767  0.1981  0.5833
 1004MOL0     H38518   0.405   9.693   7.103  0.5722 -2.0104 -0.2388
 1004MOL0     H38519   0.413   9.677   6.922  1.7812 -3.1376  1.0762
 1004MOL0     H38520   0.617   9.846   7.077 -0.8391 -0.1428  1.0739
 1004MOL0     H38521   0.621   9.788   6.912  1.4363 -1.4903  0.7723
 1004MOL0     H38522   0.638   9.552   6.998 -0.8431 -1.2110  0.7237
 1004MOL0     H38523   0.622   9.613   7.161 -0.4280  0.4384 -0.5050
 1004MOL0     H38524   0.861   9.731   7.127 -0.6275 -1.0833  0.2677
 1004MOL0     H38525   0.849   9.552   7.110  0.7939  0.9676  0.9123
 1004MOL0     H38526   0.824   9.753   6.880 -1.8488 -1.0255 -1.5330
 1004MOL0     H38527   0.839   9.578   6.869 -3.5042  1.6839  1.0704
 1004MOL0     H38528   1.065   9.677   6.819 -2.5051  2.6490 -0.4310
 1004MOL0     H38529   1.082   9.595   6.982 -0.0900  1.4724  1.8778
 1004MOL0     H38530   1.189   9.808   6.990 -0.7807  1.7872 -0.2878
 1004MOL0     H38531   1.041   9.822   7.080 -1.3406  2.0262  0.2417
 1004MOL0     H38532   0.217  10.065   7.052  3.9846 -4.2124  0.6513
 1004MOL0     H38533   0.161  10.298   7.133 -1.3234 -1.0215  3.0303
 1004MOL0     H38534   0.387  10.632   7.406 -0.0158  1.4763 -2.0662
 1004MOL0     H38535   0.395  10.844   7.551 -0.5371  0.9450 -1.9324
 1004MOL0     H38536   0.635  11.693   9.199 -2.4275 -1.3008  0.6861
 1004MOL0     H38537   0.845  11.683   9.329 -0.3778 -1.9202  0.3464
 1004MOL0     H38538   1.257  11.259   9.465  0.6659 -0.4695 -2.3310
 1004MOL0     H38539   1.464  11.279   9.574  1.3481  0.8017 -0.2193
 1004MOL0     H38540   1.594  11.685   9.728  2.2794 -1.4251  0.1380
 1004MOL0     H38541   1.503  11.553   9.812 -2.4906  0.3743 -2.8093
 1004MOL0     H38542   1.747  11.611   9.913  1.1317  0.3301  0.5927
 1004MOL0     H38543   1.796  11.544   9.753 -2.0638 -1.9761 -1.6474
 1004MOL0     H38544   1.679  11.395   9.996  0.0972  2.5601 -0.2091
 1004MOL0     H38545   1.681  11.322   9.830 -0.1272  2.2067 -1.3316
 1004MOL0     H38546   1.930  11.390  10.011  1.1745  0.2030 -0.7743
 1004MOL0     H38547   1.931  11.387   9.834 -2.0757 -1.1316 -2.6370
 1004MOL0     H38548   1.826  10.979   9.892 -0.9967  0.1471  0.3383
 1004MOL0     H38549   1.443  11.709   9.544  2.0163 -0.8583 -1.8724
 1004MOL0     H38550   1.223  11.798   9.536 -2.4433  0.7437  0.5571
 1004MOL0     H38551   1.212  11.778   9.357 -2.0771 -0.8001 -1.7170
 1004MOL0     H38552   1.087  11.704   9.467  0.5767 -1.2970  0.6595
 1005MOL0     O38553   7.452   9.879   8.829 -0.2672  0.3542  0.0798
 1005MOL0     C38554   7.435   9.757   8.854 -0.1695 -1.5268 -0.3109
 1005MOL0     O38555   7.311   9.695   8.886  0.2558 -0.5282 -0.2682
 1005MOL0     C38556   7.198   9.777   8.893 -0.2833  0.5313  0.4242
 1005MOL0     C38557   7.127   9.816   8.772  0.3075  0.3317 -0.9310
 1005MOL0     C38558   7.022   9.901   8.781  0.3005 -0.0712 -0.1231
 1005MOL0     C38559   7.003   9.982   8.893  0.5870 -0.9273  0.2070
 1005MOL0     O38560   6.911  10.084   8.907 -0.3632 -0.0080  0.0349
 1005MOL0     C38561   6.811  10.113   8.808  0.6774  0.7047  0.7032
 1005MOL0     C38562   6.689  10.025   8.841 -1.0598  0.3677  0.6337
 1005MOL0     C38563   6.560  10.078   8.768 -0.2569  1.0407  1.7665
 1005MOL0     C38564   6.529  10.227   8.810 -0.0748  0.1358 -0.5019
 1005MOL0     C38565   6.399  10.274   8.745  0.3316 -0.1244 -0.2185
 1005MOL0     C38566   6.361  10.416   8.791 -0.0605  0.2512  0.5252
 1005MOL0     C38567   6.254  10.476   8.698  0.8819  0.6533 -0.5641
 1005MOL0     C38568   6.200  10.611   8.746  0.5046  0.3480 -0.8248
 1005MOL0     N38569   6.129  10.607   8.872  0.4972 -0.3891  0.0495
 1005MOL0     C38570   6.023  10.528   8.889 -0.7696  0.4166 -0.4696
 1005MOL0     C38571   6.002  10.548   9.022 -0.2132  0.1577  0.7206
 1005MOL0     C38572   5.911  10.469   9.103 -0.8962  0.5354 -0.0091
 1005MOL0     C38573   5.972  10.348   9.169  0.3937 -0.1428  0.3714
 1005MOL0     C38574   5.977  10.230   9.072  0.1707  1.1363 -0.3562
 1005MOL0     C38575   6.072  10.117   9.103 -0.6283  0.1274  0.0820
 1005MOL0     O38576   6.057  10.071   9.236 -0.1293 -0.0493  0.0910
 1005MOL0     C38577   5.944  10.007   9.274 -0.1678  0.0065 -0.1179
 1005MOL0     C38578   5.888   9.897   9.212  0.9106  1.0022  0.2678
 1005MOL0     C38579   5.775   9.833   9.259 -0.8216  1.2555 -0.5811
 1005MOL0     C38580   5.738   9.708   9.183 -0.8285  0.7721  0.2426
 1005MOL0     C38581   5.708   9.886   9.370 -0.0706 -0.1601  0.4838
 1005MOL0     C38582   5.597   9.829   9.445 -0.3542 -0.4384  0.8123
 1005MOL0     O38583   5.533   9.903   9.540 -0.0562 -0.0574 -0.5070
 1005MOL0     C38584   5.433   9.839   9.602 -0.5865 -0.0515 -0.6384
 1005MOL0     C38585   5.444   9.791   9.734  0.6843 -1.2749 -0.1062
 1005MOL0     C38586   5.338   9.729   9.790 -0.3103  0.1542  0.7924
 1005MOL0     C38587   5.218   9.694   9.718  0.0905  0.2866  1.0365
 1005MOL0     O38588   5.111   9.624   9.756  0.1958  0.5697  0.4449
 1005MOL0     C38589   5.134   9.482   9.784 -0.2112 -0.0996  1.2350
 1005MOL0     C38590   5.044   9.394   9.691  0.1807  0.2754  0.2805
 1005MOL0     C38591   5.053   9.255   9.749  0.7239 -0.2802  1.4519
 1005MOL0     C38592   4.951   9.159   9.689 -0.8124 -0.5829 -0.5223
 1005MOL0     C38593   4.998   9.027   9.740  0.2003 -0.2337 -1.0893
 1005MOL0     C38594   4.922   8.906   9.680 -0.7572  0.3720  0.4086
 1005MOL0     C38595   4.975   8.882   9.530 -0.2714  0.0927 -0.1320
 1005MOL0     C38596   4.879   8.798   9.448  0.4566  0.3360 -0.5400
 1005MOL0    Cl38597   4.846   8.637   9.514 -0.0211 -0.0314 -0.0279
 1005MOL0     C38598   5.207   9.735   9.577  0.5329  0.2722 -1.3763
 1005MOL0     C38599   5.314   9.800   9.533 -1.6883 -0.3474 -0.5021
 1005MOL0     O38600   5.564   9.714   9.410 -0.4051 -0.3694 -0.2982
 1005MOL0     C38601   5.763  10.004   9.423  0.3204  0.4851  0.1191
 1005MOL0     C38602   5.880  10.066   9.379 -0.4080 -0.3209  0.2052
 1005MOL0     N38603   6.082  10.646   9.079 -0.7239  0.0216 -0.2990
 1005MOL0     N38604   6.159  10.671   8.985  0.2203  0.6383 -0.8382
 1005MOL0     C38605   7.081   9.947   9.012  0.8006  0.1778 -0.5414
 1005MOL0     C38606   7.184   9.853   9.011  0.5357  0.6235 -0.6840
 1005MOL0     C38607   7.556   9.665   8.868  0.0891 -1.2613 -0.8683
 1005MOL0     C38608   7.537   9.530   8.903  0.0314  0.0086  0.4153
 1005MOL0     C38609   7.645   9.435   8.881  0.8092  0.2800  0.7367
 1005MOL0     C38610   7.769   9.473   8.824 -0.5993  0.2190 -0.3625
 1005MOL0     O38611   7.877   9.389   8.812  0.4125  0.4612 -0.6195
 1005MOL0     C38612   7.949   9.372   8.695  0.1668 -0.0104  0.1483
 1005MOL0     C38613   7.869   9.295   8.587 -1.1596 -0.7920 -0.0535
 1005MOL0     C38614   7.888   9.356   8.441  0.0369  0.6855 -0.1865
 1005MOL0     C38615   7.770   9.305   8.346  1.1549 -0.4814  0.6798
 1005MOL0     C38616   7.785   9.356   8.208 -0.4358  0.0673 -0.1562
 1005MOL0     C38617   7.791   9.423   8.100 -0.2174 -0.8477  0.7398
 1005MOL0     C38618   7.785   9.608   8.809 -0.3478  0.2729  0.9892
 1005MOL0     C38619   7.685   9.707   8.823  0.8129  0.6670  0.0349
 1005MOL0     C38620   7.730   9.839   8.793 -0.3454 -0.5259  0.2779
 1005MOL0     H38621   7.155   9.765   8.681 -1.3639 -0.1624 -1.2106
 1005MOL0     H38622   6.949   9.907   8.701  0.0549 -1.0276  0.0248
 1005MOL0     H38623   6.857  10.101   8.710 -3.5522 -5.1859 -1.1288
 1005MOL0     H38624   6.786  10.219   8.824 -1.1894  0.2548  1.0345
 1005MOL0     H38625   6.703   9.920   8.813  3.2638  1.1135 -0.7360
 1005MOL0     H38626   6.665  10.025   8.947 -2.1649 -2.5700  0.4820
 1005MOL0     H38627   6.569  10.062   8.660 -4.6132  1.2650  1.2008
 1005MOL0     H38628   6.480  10.010   8.799 -0.3669  0.0203 -0.5421
 1005MOL0     H38629   6.507  10.224   8.917  3.1003 -3.8719  0.3129
 1005MOL0     H38630   6.608  10.291   8.772  1.4411 -1.9594 -1.0922
 1005MOL0     H38631   6.327  10.196   8.771  0.2338 -0.1517 -0.5700
 1005MOL0     H38632   6.408  10.288   8.637  1.2251  2.1712  0.1059
 1005MOL0     H38633   6.333  10.411   8.896  0.5071  1.8764  0.7843
 1005MOL0     H38634   6.449  10.479   8.781  0.1289 -0.1096 -0.1446
 1005MOL0     H38635   6.171  10.406   8.712 -1.4604  3.4815  1.0982
 1005MOL0     H38636   6.284  10.487   8.593  0.2204  1.7239 -0.6617
 1005MOL0     H38637   6.278  10.687   8.739  3.7539 -2.1423  3.4939
 1005MOL0     H38638   6.125  10.629   8.669 -1.0580 -0.3638  0.4933
 1005MOL0     H38639   5.967  10.462   8.824  0.8913 -0.8930 -0.6345
 1005MOL0     H38640   5.829  10.437   9.038 -0.6426  1.0849 -0.6206
 1005MOL0     H38641   5.859  10.525   9.180 -0.2184 -0.0723  0.9058
 1005MOL0     H38642   6.072  10.377   9.203  1.2668  1.4881 -3.1442
 1005MOL0     H38643   5.902  10.314   9.246  0.8392 -3.0501 -0.3685
 1005MOL0     H38644   5.876  10.188   9.065  1.7483 -3.2506  0.2832
 1005MOL0     H38645   6.004  10.261   8.970 -2.7125 -0.4009 -1.7100
 1005MOL0     H38646   6.059  10.029   9.040 -1.0732 -0.2531  0.6912
 1005MOL0     H38647   6.171  10.164   9.095  0.0774 -1.3267  0.0037
 1005MOL0     H38648   5.943   9.863   9.125  1.7800  0.3055  1.0683
 1005MOL0     H38649   5.632   9.702   9.159 -0.5538  0.2446 -0.9183
 1005MOL0     H38650   5.771   9.624   9.245 -1.5057 -0.0340 -0.4767
 1005MOL0     H38651   5.800   9.712   9.093  1.3064  5.9366  1.5166
 1005MOL0     H38652   5.535   9.795   9.793  1.8892 -0.7869 -1.9229
 1005MOL0     H38653   5.353   9.693   9.891  3.6160  1.1878  0.7187
 1005MOL0     H38654   5.240   9.458   9.766 -0.0782  0.7362  0.8276
 1005MOL0     H38655   5.122   9.452   9.889 -0.5019  0.3432  1.3289
 1005MOL0     H38656   4.942   9.432   9.703  0.6950  1.9195 -0.1537
 1005MOL0     H38657   5.062   9.407   9.584 -0.1139  0.5815  0.2655
 1005MOL0     H38658   5.041   9.256   9.857  2.7186 -0.7026  1.7277
 1005MOL0     H38659   5.157   9.229   9.725  2.1014  4.7600  0.6841
 1005MOL0     H38660   4.962   9.153   9.581  1.0852 -0.6472 -0.3669
 1005MOL0     H38661   4.849   9.193   9.705 -1.0008 -0.0289 -2.6971
 1005MOL0     H38662   5.104   9.009   9.721  0.2659 -0.6606 -0.3661
 1005MOL0     H38663   5.001   9.015   9.849  1.4897  0.1575 -1.0705
 1005MOL0     H38664   4.818   8.937   9.679 -0.8069  0.2264 -0.8540
 1005MOL0     H38665   4.928   8.818   9.745 -1.9831 -0.5349 -0.6609
 1005MOL0     H38666   5.075   8.838   9.538 -0.3201 -0.7031 -2.8413
 1005MOL0     H38667   4.970   8.979   9.481 -2.6814  0.4372  0.6886
 1005MOL0     H38668   4.927   8.783   9.350 -0.5871  0.1226 -1.0333
 1005MOL0     H38669   4.786   8.852   9.427 -1.0002 -2.4342 -1.7599
 1005MOL0     H38670   5.125   9.708   9.511  1.4265 -4.0586 -0.9898
 1005MOL0     H38671   5.322   9.832   9.430  2.1382  3.7240  0.7306
 1005MOL0     H38672   5.721  10.037   9.518 -0.1932 -0.2179  0.1484
 1005MOL0     H38673   5.924  10.155   9.422  3.1645 -1.3702 -0.9703
 1005MOL0     H38674   7.055  10.001   9.102 -0.6148  0.1525 -0.9131
 1005MOL0     H38675   7.231   9.827   9.105 -0.5664  0.8773 -0.0457
 1005MOL0     H38676   7.453   9.494   8.962  2.7420 -2.8926  2.8830
 1005MOL0     H38677   7.628   9.328   8.891 -0.5363  0.3999  0.0062
 1005MOL0     H38678   7.973   9.472   8.657  0.5347 -0.4429 -0.7855
 1005MOL0     H38679   8.048   9.329   8.712  2.0245  2.2504 -3.5764
 1005MOL0     H38680   7.765   9.308   8.618 -0.6067  2.8962  0.7460
 1005MOL0     H38681   7.893   9.188   8.587  3.7840  0.0634 -0.9275
 1005MOL0     H38682   7.884   9.466   8.440  0.4953  0.7088  0.0254
 1005MOL0     H38683   7.984   9.334   8.393 -0.6704  1.4820 -2.0651
 1005MOL0     H38684   7.663   9.312   8.366  0.9551  1.1948 -0.7024
 1005MOL0     H38685   7.785   9.197   8.337  0.6036 -0.5474  0.5195
 1005MOL0     H38686   7.775   9.478   8.010 -3.2727 -2.3404  0.2592
 1005MOL0     H38687   7.882   9.636   8.770 -0.0514 -2.7473 -0.7023
 1005MOL0     H38688   7.664   9.898   8.728  2.6140  0.3114 -2.1964
 1005MOL0     H38689   7.708   9.901   8.880 -0.9103  1.6664 -1.3349
 1005MOL0     H38690   7.833   9.850   8.758 -0.1415 -0.0382  1.0194
 1006MOL0     O38691   9.317   3.770   8.786  0.2299  0.6839 -0.5799
 1006MOL0     C38692   9.320   3.817   8.896 -0.0743  0.7827 -1.0582
 1006MOL0     O38693   9.424   3.798   8.975  0.1481  1.1518  0.0426
 1006MOL0     C38694   9.549   3.792   8.922 -0.9746  0.4545  1.3621
 1006MOL0     C38695   9.630   3.683   8.927  0.3783  0.9513 -0.4586
 1006MOL0     C38696   9.763   3.691   8.881 -0.8059  0.0538  1.2376
 1006MOL0     C38697   9.809   3.804   8.825  0.7219 -0.0988 -0.2001
 1006MOL0     O38698   9.935   3.822   8.787 -0.2197  0.2827  0.9538
 1006MOL0     C38699  10.001   3.709   8.720  0.2113 -0.3128  1.1408
 1006MOL0     C38700   9.992   3.754   8.568  0.4357 -0.3866  0.0069
 1006MOL0     C38701  10.127   3.715   8.492  0.3387 -0.7303 -0.2911
 1006MOL0     C38702  10.115   3.743   8.340 -0.6047  0.0835 -0.9295
 1006MOL0     C38703  10.243   3.689   8.262 -0.0022  0.0811  0.2268
 1006MOL0     C38704  10.223   3.717   8.109  0.9573  0.5796 -1.2305
 1006MOL0     C38705  10.227   3.861   8.050 -0.7387  0.1759 -0.9463
 1006MOL0     C38706  10.198   3.893   7.905  0.2462  0.3918  0.6758
 1006MOL0     N38707  10.298   3.838   7.812 -0.2492  0.0139  0.0674
 1006MOL0     C38708  10.380   3.910   7.729  0.0363 -0.3885 -0.8327
 1006MOL0     C38709  10.451   3.816   7.651 -0.0304  0.5710  1.0246
 1006MOL0     C38710  10.555   3.839   7.534  0.2391  0.6952 -0.0524
 1006MOL0     C38711  10.470   3.821   7.410 -0.5070 -0.5277  0.5927
 1006MOL0     C38712  10.562   3.812   7.294  0.2146 -0.0158 -0.3061
 1006MOL0     C38713  10.489   3.770   7.161 -0.0772  0.2566 -0.5647
 1006MOL0     O38714  10.401   3.866   7.095 -0.2798 -0.4928  0.8096
 1006MOL0     C38715  10.350   3.846   6.974 -0.2437 -0.8193 -0.0432
 1006MOL0     C38716  10.366   3.721   6.915 -0.6252  0.0612  0.2523
 1006MOL0     C38717  10.308   3.692   6.794 -1.2779 -0.4079  0.4891
 1006MOL0     C38718  10.346   3.558   6.734 -0.6677  0.3173 -0.1488
 1006MOL0     C38719  10.220   3.790   6.732 -0.6479 -0.8227 -0.3606
 1006MOL0     C38720  10.147   3.767   6.608  0.5243  0.1812  0.0796
 1006MOL0     O38721  10.213   3.705   6.505  0.5081 -0.2823  0.1933
 1006MOL0     C38722  10.183   3.746   6.382 -0.8837 -0.7879  0.8281
 1006MOL0     C38723  10.144   3.645   6.288  1.2203 -0.7042  0.5844
 1006MOL0     C38724  10.122   3.669   6.155 -0.9240  0.7129  0.0720
 1006MOL0     C38725  10.162   3.793   6.109 -0.6069  0.5394  0.0387
 1006MOL0     O38726  10.136   3.816   5.972  0.4229 -0.1031  0.5179
 1006MOL0     C38727  10.024   3.900   5.934 -0.5960  0.2022 -0.2956
 1006MOL0     C38728  10.047   3.956   5.792 -0.0377 -1.2145  0.3985
 1006MOL0     C38729   9.934   4.052   5.754  0.3679 -0.3065  0.2265
 1006MOL0     C38730   9.813   3.975   5.683 -0.3396  0.1729 -0.6079
 1006MOL0     C38731   9.707   4.073   5.619  0.2937 -0.0411  0.1758
 1006MOL0     C38732   9.754   4.148   5.500  0.4124 -0.4523  0.1968
 1006MOL0     C38733   9.667   4.270   5.453 -0.8095 -0.5715 -1.1407
 1006MOL0     C38734   9.712   4.361   5.348 -0.6248 -0.1055 -0.0653
 1006MOL0    Cl38735   9.838   4.479   5.395  0.3323 -0.4266 -0.2901
 1006MOL0     C38736  10.192   3.900   6.195 -0.0692  0.0290 -0.1311
 1006MOL0     C38737  10.190   3.884   6.334 -0.4709  0.2498  0.4983
 1006MOL0     O38738  10.036   3.819   6.596  0.4654  0.6205 -0.2634
 1006MOL0     C38739  10.196   3.910   6.791 -1.2478  0.4307  0.4089
 1006MOL0     C38740  10.264   3.938   6.904 -0.7913  0.1216 -0.0172
 1006MOL0     N38741  10.391   3.700   7.695  0.4546  0.0649 -0.3249
 1006MOL0     N38742  10.303   3.705   7.783  0.5352 -0.1117 -0.6091
 1006MOL0     C38743   9.724   3.916   8.815 -0.1547  0.2907  1.0655
 1006MOL0     C38744   9.594   3.904   8.865  0.1102 -1.1236 -0.4511
 1006MOL0     C38745   9.212   3.896   8.953 -0.1827 -0.1142 -0.1417
 1006MOL0     C38746   9.251   4.021   9.007 -0.3796  0.9740  0.4405
 1006MOL0     C38747   9.148   4.091   9.073 -0.0657 -0.7934  0.3042
 1006MOL0     C38748   9.016   4.049   9.071  0.3937  0.9523  0.8212
 1006MOL0     O38749   8.902   4.108   9.119 -0.2995 -0.1708  0.5747
 1006MOL0     C38750   8.907   4.245   9.161 -0.1957 -0.3574  0.4474
 1006MOL0     C38751   8.932   4.352   9.061  0.7685 -0.0905 -0.4679
 1006MOL0     C38752   8.897   4.492   9.124 -0.3573 -0.1937 -0.1756
 1006MOL0     C38753   8.987   4.604   9.057  0.0492  0.3694 -0.0915
 1006MOL0     C38754   8.944   4.745   9.072 -0.0230  0.4170 -0.0571
 1006MOL0     C38755   8.890   4.858   9.069 -0.1652  0.9103  0.4175
 1006MOL0     C38756   8.979   3.923   9.014 -0.8964  0.4978  0.2659
 1006MOL0     C38757   9.075   3.846   8.956  0.5548 -1.1847  0.5375
 1006MOL0     C38758   9.034   3.725   8.893 -0.1886 -0.1747 -0.1016
 1006MOL0     H38759   9.598   3.592   8.977  1.7859 -0.5903 -2.2253
 1006MOL0     H38760   9.826   3.602   8.885 -0.2032  0.4660  1.0883
 1006MOL0     H38761   9.959   3.609   8.733  1.6709 -1.0736  0.2548
 1006MOL0     H38762  10.100   3.709   8.766 -0.1684  2.3745  2.1411
 1006MOL0     H38763   9.902   3.717   8.518 -0.1161  0.6190  0.2287
 1006MOL0     H38764   9.998   3.863   8.560  1.6528 -0.4887 -0.8473
 1006MOL0     H38765  10.221   3.756   8.532  1.8120 -1.0213 -3.1985
 1006MOL0     H38766  10.148   3.610   8.512  1.2416 -0.1122  2.4623
 1006MOL0     H38767  10.021   3.701   8.303 -1.8935  3.0393 -1.2931
 1006MOL0     H38768  10.096   3.850   8.332 -4.8098 -0.3020  0.9112
 1006MOL0     H38769  10.248   3.581   8.279 -0.4376 -0.0192 -0.2482
 1006MOL0     H38770  10.331   3.738   8.305 -1.6404  2.2290  1.3206
 1006MOL0     H38771  10.296   3.649   8.064 -0.3774 -2.1464  0.4818
 1006MOL0     H38772  10.127   3.673   8.081 -0.1656  2.1887 -0.0678
 1006MOL0     H38773  10.332   3.888   8.066 -0.7708 -0.1745 -0.1375
 1006MOL0     H38774  10.173   3.923   8.122 -1.3062 -1.0570 -0.2764
 1006MOL0     H38775  10.100   3.848   7.886  1.7701 -1.6698 -3.5538
 1006MOL0     H38776  10.195   4.002   7.896  0.5479  0.3283 -0.2745
 1006MOL0     H38777  10.397   4.016   7.742 -0.4611 -0.3627 -0.3598
 1006MOL0     H38778  10.637   3.769   7.548 -0.4436  0.3373  2.6931
 1006MOL0     H38779  10.605   3.936   7.534 -1.5330  1.9303 -4.6908
 1006MOL0     H38780  10.411   3.729   7.411 -0.8436 -0.3328  2.6442
 1006MOL0     H38781  10.398   3.903   7.403  0.1154  0.2428  2.4738
 1006MOL0     H38782  10.612   3.903   7.261 -0.6835  0.8440  0.6611
 1006MOL0     H38783  10.635   3.735   7.322 -3.0354 -2.2198  2.9779
 1006MOL0     H38784  10.563   3.748   7.083 -1.6449  0.3040 -2.1280
 1006MOL0     H38785  10.422   3.688   7.189  0.6538  0.2249  1.1677
 1006MOL0     H38786  10.412   3.635   6.961 -1.9390 -1.8428 -1.7765
 1006MOL0     H38787  10.256   3.500   6.711  0.2496 -2.0886  1.8422
 1006MOL0     H38788  10.412   3.509   6.807 -1.5017  1.0625  1.1409
 1006MOL0     H38789  10.390   3.587   6.638 -0.1976  0.8738  0.2259
 1006MOL0     H38790  10.139   3.545   6.329 -1.1537 -0.3600  1.2744
 1006MOL0     H38791  10.086   3.587   6.094 -1.8384  0.8968  0.3611
 1006MOL0     H38792   9.928   3.851   5.916 -0.5821  0.2186 -0.4142
 1006MOL0     H38793  10.010   3.981   6.007 -1.2029 -2.5867  2.9166
 1006MOL0     H38794  10.141   4.012   5.794 -0.5660 -0.3195  1.9777
 1006MOL0     H38795  10.069   3.879   5.717  1.6381  0.2553 -0.7267
 1006MOL0     H38796   9.983   4.127   5.691  2.4915  1.6386  3.8225
 1006MOL0     H38797   9.896   4.107   5.841  4.0278 -0.1554  1.9626
 1006MOL0     H38798   9.761   3.913   5.756 -0.3352  4.9896  4.0928
 1006MOL0     H38799   9.846   3.899   5.611 -0.6287 -2.3444  1.7553
 1006MOL0     H38800   9.620   4.012   5.594  0.3560  0.3513 -1.0769
 1006MOL0     H38801   9.679   4.146   5.695 -0.6478  0.3699 -0.5480
 1006MOL0     H38802   9.763   4.066   5.428 -0.3203 -0.2247 -0.1649
 1006MOL0     H38803   9.860   4.172   5.512  0.4319  0.4398 -1.3495
 1006MOL0     H38804   9.648   4.332   5.541  0.0272 -2.4447  0.4115
 1006MOL0     H38805   9.572   4.226   5.423 -0.5552 -1.7144 -0.3180
 1006MOL0     H38806   9.625   4.409   5.302  0.2739  2.0155  0.3602
 1006MOL0     H38807   9.763   4.308   5.267  0.6463 -1.4573  1.5519
 1006MOL0     H38808  10.176   3.999   6.156 -1.6350 -0.1170  0.0686
 1006MOL0     H38809  10.206   3.978   6.385  0.5557 -0.3396  1.3143
 1006MOL0     H38810  10.135   3.987   6.745  0.0731  0.1725 -1.9224
 1006MOL0     H38811  10.246   4.031   6.958 -1.5058  0.3783 -0.6710
 1006MOL0     H38812   9.757   4.014   8.779 -1.2651  0.6437  0.9833
 1006MOL0     H38813   9.529   3.991   8.860  1.5500  0.1839  1.8229
 1006MOL0     H38814   9.354   4.055   9.014 -0.8950  2.1742  3.9427
 1006MOL0     H38815   9.181   4.174   9.134  0.4446  0.1422 -1.1875
 1006MOL0     H38816   8.811   4.264   9.210  0.5299 -1.9744  2.6334
 1006MOL0     H38817   8.982   4.253   9.240  2.1009 -0.2841 -1.6058
 1006MOL0     H38818   8.882   4.346   8.964  1.1307  3.2609 -0.9800
 1006MOL0     H38819   9.035   4.357   9.027  0.6704  1.0020 -0.6459
 1006MOL0     H38820   8.792   4.516   9.104 -0.6621  1.8178  3.0027
 1006MOL0     H38821   8.900   4.477   9.233 -4.4360  0.2371  0.1668
 1006MOL0     H38822   8.996   4.593   8.949 -2.7700 -1.5004 -0.2245
 1006MOL0     H38823   9.088   4.580   9.092  0.2802  1.0538 -0.2694
 1006MOL0     H38824   8.845   4.954   9.084 -2.2048  0.2640 -1.0029
 1006MOL0     H38825   8.877   3.887   9.024 -0.5041 -0.4372  0.9533
 1006MOL0     H38826   9.040   3.729   8.784  1.6963  0.8576  0.0075
 1006MOL0     H38827   9.119   3.659   8.913  1.4873  1.5073 -1.3846
 1006MOL0     H38828   8.940   3.685   8.934 -0.4204  0.0191 -0.4379
 1007MOL0     O38829   3.060   9.952   0.428  0.0297 -0.7043 -0.2340
 1007MOL0     C38830   3.128   9.867   0.376  0.6553  0.4485 -0.0339
 1007MOL0     O38831   3.258   9.888   0.332  0.3600 -0.8794 -0.1224
 1007MOL0     C38832   3.322  10.004   0.369 -0.3884  0.0782 -0.0451
 1007MOL0     C38833   3.384  10.024   0.492  0.5131  0.2312 -0.0271
 1007MOL0     C38834   3.476  10.130   0.521 -0.1796  0.1237  0.6077
 1007MOL0     C38835   3.488  10.223   0.416  0.2612 -0.0440 -1.0801
 1007MOL0     O38836   3.559  10.333   0.452  0.2724 -0.0458  0.6714
 1007MOL0     C38837   3.565  10.437   0.350 -0.1445 -0.0418 -0.1045
 1007MOL0     C38838   3.667  10.540   0.376 -0.3947 -0.9417 -0.2208
 1007MOL0     C38839   3.646  10.679   0.313 -0.0686 -0.7464  1.1688
 1007MOL0     C38840   3.759  10.773   0.349 -1.2382 -0.8190  1.2109
 1007MOL0     C38841   3.752  10.919   0.288 -0.7111 -0.0400  0.9391
 1007MOL0     C38842   3.744  10.919   0.126 -0.4413  0.1558 -0.9631
 1007MOL0     C38843   3.782  11.045   0.054 -0.2346 -0.2404  0.1848
 1007MOL0     C38844   3.794  11.023  -0.098 -0.1932  0.5789  0.3035
 1007MOL0     N38845   3.694  10.936  -0.165 -0.2921 -0.0607 -0.7144
 1007MOL0     C38846   3.711  10.837  -0.258  1.2458 -0.4482  0.1228
 1007MOL0     C38847   3.587  10.780  -0.274 -0.6410  1.0138  0.6409
 1007MOL0     C38848   3.549  10.662  -0.344  0.1150  0.9991 -0.3299
 1007MOL0     C38849   3.495  10.700  -0.484 -0.8583  0.0454 -1.1943
 1007MOL0     C38850   3.420  10.585  -0.544  0.3269 -0.2179 -0.4265
 1007MOL0     C38851   3.462  10.439  -0.513  0.0349 -0.4463 -0.6502
 1007MOL0     O38852   3.603  10.414  -0.556  0.6395 -0.3937  0.6458
 1007MOL0     C38853   3.672  10.289  -0.553  0.5229 -0.5397 -0.7097
 1007MOL0     C38854   3.610  10.165  -0.557 -0.7401  0.1923  0.2117
 1007MOL0     C38855   3.674  10.038  -0.543  0.0394 -0.5608 -0.2263
 1007MOL0     C38856   3.584   9.927  -0.533  0.5511 -0.1469  0.4446
 1007MOL0     C38857   3.815  10.036  -0.542 -0.6011 -0.1112 -0.4637
 1007MOL0     C38858   3.893   9.911  -0.548  0.2640  0.7119  0.2119
 1007MOL0     O38859   4.030   9.920  -0.571  0.0396 -0.0850  0.6169
 1007MOL0     C38860   4.101   9.808  -0.608 -0.7746  0.7423 -0.0684
 1007MOL0     C38861   4.232   9.806  -0.569  0.7520 -0.6976 -0.4916
 1007MOL0     C38862   4.310   9.696  -0.599  0.2791  0.9457 -0.5896
 1007MOL0     C38863   4.272   9.599  -0.696 -0.1485  0.1402 -0.9605
 1007MOL0     O38864   4.359   9.497  -0.744 -0.5913 -0.2817 -0.3278
 1007MOL0     C38865   4.441   9.415  -0.653 -0.0930 -0.5339  0.0773
 1007MOL0     C38866   4.588   9.433  -0.678 -0.3660  0.4914  0.0438
 1007MOL0     C38867   4.637   9.412  -0.824  0.1121 -0.2101  0.0827
 1007MOL0     C38868   4.780   9.461  -0.845 -0.6787  0.9802  0.7143
 1007MOL0     C38869   4.837   9.417  -0.977  0.8613 -0.2347  0.0771
 1007MOL0     C38870   4.948   9.515  -1.031  0.5967  0.2594 -0.1519
 1007MOL0     C38871   4.977   9.500  -1.182  0.5259 -0.7768 -0.1724
 1007MOL0     C38872   5.009   9.366  -1.248  0.0128  0.5634  0.6616
 1007MOL0    Cl38873   5.072   9.394  -1.419 -0.3945 -0.3497  0.3700
 1007MOL0     C38874   4.133   9.604  -0.733  0.0481 -1.1175  0.1215
 1007MOL0     C38875   4.062   9.717  -0.705  0.0515 -0.5186 -0.0693
 1007MOL0     O38876   3.836   9.804  -0.534 -0.1455  0.5652 -0.3165
 1007MOL0     C38877   3.883  10.159  -0.535  0.9403 -0.4837  0.6657
 1007MOL0     C38878   3.810  10.279  -0.543  0.0980 -0.7257 -0.8223
 1007MOL0     N38879   3.494  10.846  -0.191 -0.5095  0.1721 -0.7706
 1007MOL0     N38880   3.564  10.947  -0.138  0.1950  0.2140  0.4982
 1007MOL0     C38881   3.426  10.202   0.292 -0.0705  0.3401  0.7600
 1007MOL0     C38882   3.352  10.088   0.267  0.4065 -0.0737 -1.0541
 1007MOL0     C38883   3.079   9.727   0.359  0.2419  0.8423  0.5617
 1007MOL0     C38884   3.165   9.625   0.386  0.2713 -0.8510  0.1047
 1007MOL0     C38885   3.131   9.491   0.378  0.1390  0.0066 -0.4771
 1007MOL0     C38886   3.005   9.456   0.342 -0.0952  0.1008 -0.2705
 1007MOL0     O38887   2.966   9.324   0.347  0.2999 -0.0036 -0.3434
 1007MOL0     C38888   3.043   9.211   0.308 -0.2960  0.0870  0.1282
 1007MOL0     C38889   3.081   9.229   0.160  0.3439  0.0680 -0.3595
 1007MOL0     C38890   3.133   9.108   0.085 -0.1407  0.3495 -1.5355
 1007MOL0     C38891   3.142   9.131  -0.064  0.4989  0.6109 -0.3399
 1007MOL0     C38892   3.006   9.110  -0.109 -0.0068  0.3302 -0.4327
 1007MOL0     C38893   2.897   9.072  -0.146 -0.5394  0.4329  0.0766
 1007MOL0     C38894   2.910   9.551   0.320  0.3504  0.0767  0.4727
 1007MOL0     C38895   2.946   9.688   0.325  0.2799  0.6190  1.1648
 1007MOL0     C38896   2.830   9.788   0.306  1.1726 -0.3655  0.3105
 1007MOL0     H38897   3.380   9.951   0.573  2.3284 -0.0633 -0.1673
 1007MOL0     H38898   3.548  10.134   0.602  0.4774  1.4482 -0.0102
 1007MOL0     H38899   3.476  10.498   0.335  0.7784  1.3163 -0.1933
 1007MOL0     H38900   3.597  10.390   0.256 -2.8422 -4.5677  0.9384
 1007MOL0     H38901   3.662  10.557   0.484  0.0622  0.4932 -0.4041
 1007MOL0     H38902   3.771  10.505   0.367 -0.0263  0.3343 -1.2227
 1007MOL0     H38903   3.636  10.682   0.205  0.1740 -0.9035  1.1412
 1007MOL0     H38904   3.563  10.735   0.358  1.1952  0.6078  1.9071
 1007MOL0     H38905   3.764  10.781   0.458 -1.1246  2.4012  1.0666
 1007MOL0     H38906   3.856  10.734   0.317  0.5996  1.5813  3.3722
 1007MOL0     H38907   3.842  10.972   0.322  0.2622  1.5822 -3.5116
 1007MOL0     H38908   3.669  10.973   0.335 -1.0862 -0.8471  1.2174
 1007MOL0     H38909   3.814  10.841   0.094  0.8004  0.4872  0.7879
 1007MOL0     H38910   3.642  10.894   0.095 -1.1692  0.1822  1.2392
 1007MOL0     H38911   3.883  11.061   0.092 -0.9560 -4.1357  4.7881
 1007MOL0     H38912   3.713  11.125   0.084  0.0613  0.5155 -1.0924
 1007MOL0     H38913   3.766  11.120  -0.143  1.0588  0.0702 -1.7290
 1007MOL0     H38914   3.897  10.993  -0.116  0.3272 -0.2188  3.9871
 1007MOL0     H38915   3.805  10.799  -0.298  1.5520 -1.8895  2.0399
 1007MOL0     H38916   3.470  10.614  -0.285  1.1502  0.9364  1.0804
 1007MOL0     H38917   3.634  10.593  -0.351 -1.4376 -0.9383 -0.8140
 1007MOL0     H38918   3.424  10.783  -0.474 -0.2198  0.4790 -0.1029
 1007MOL0     H38919   3.584  10.727  -0.542  0.0046  0.4858  0.2868
 1007MOL0     H38920   3.318  10.600  -0.510  0.2252 -1.3352 -0.2109
 1007MOL0     H38921   3.430  10.589  -0.653 -1.1406  0.4131 -0.5496
 1007MOL0     H38922   3.445  10.424  -0.406  0.9916  0.1158 -0.4141
 1007MOL0     H38923   3.395  10.376  -0.572 -0.3807 -0.1895 -0.4566
 1007MOL0     H38924   3.504  10.178  -0.575 -0.6203 -0.3862 -1.0711
 1007MOL0     H38925   3.617   9.848  -0.464  2.8221  1.8933  1.8662
 1007MOL0     H38926   3.567   9.867  -0.623 -1.0027 -3.0168  2.5027
 1007MOL0     H38927   3.488   9.960  -0.495 -0.3144 -1.6915 -0.3067
 1007MOL0     H38928   4.262   9.885  -0.502 -4.5602  2.0970 -0.9061
 1007MOL0     H38929   4.416   9.695  -0.580  0.5102 -1.9186 -1.4987
 1007MOL0     H38930   4.406   9.433  -0.551 -0.2561 -0.3878 -0.0023
 1007MOL0     H38931   4.430   9.311  -0.683 -0.4274 -1.5841  3.4318
 1007MOL0     H38932   4.620   9.533  -0.647 -1.2914  0.4721  1.1163
 1007MOL0     H38933   4.645   9.364  -0.616 -0.2068  1.2699  0.7822
 1007MOL0     H38934   4.565   9.471  -0.881 -2.3207 -2.5274  0.5744
 1007MOL0     H38935   4.636   9.310  -0.864  3.3494  1.1037 -4.1496
 1007MOL0     H38936   4.845   9.425  -0.764  4.5516  2.6657 -2.2281
 1007MOL0     H38937   4.783   9.570  -0.843  0.1885  1.0759 -1.8559
 1007MOL0     H38938   4.884   9.320  -0.966 -3.6614 -2.8352 -0.8628
 1007MOL0     H38939   4.758   9.415  -1.052 -1.0163  0.7449  1.8888
 1007MOL0     H38940   5.035   9.499  -0.967  0.8918  0.5635 -0.4751
 1007MOL0     H38941   4.912   9.617  -1.012 -3.7252 -0.8677 -1.0580
 1007MOL0     H38942   5.067   9.557  -1.205  1.8994 -2.3534  1.1263
 1007MOL0     H38943   4.899   9.557  -1.235  0.2508  2.3403  3.1193
 1007MOL0     H38944   4.922   9.300  -1.249 -1.2132  2.1005 -0.2868
 1007MOL0     H38945   5.095   9.325  -1.195  0.8540  2.9338  1.2398
 1007MOL0     H38946   4.100   9.532  -0.808  2.5160 -1.5319 -0.6450
 1007MOL0     H38947   3.965   9.731  -0.751  0.2018  0.1615 -0.1976
 1007MOL0     H38948   3.990  10.162  -0.521  0.8055 -0.4320  1.7837
 1007MOL0     H38949   3.860  10.375  -0.545  4.1151 -2.6094  0.5961
 1007MOL0     H38950   3.449  10.280   0.220  2.3481 -0.2247  0.8360
 1007MOL0     H38951   3.318  10.067   0.166  0.0933  0.7608 -1.1324
 1007MOL0     H38952   3.270   9.644   0.403  0.4018 -2.3347  1.2507
 1007MOL0     H38953   3.201   9.409   0.387 -1.5544 -1.3918  0.5912
 1007MOL0     H38954   3.136   9.203   0.364  0.3539  1.5519 -0.6884
 1007MOL0     H38955   2.976   9.125   0.317  0.9931 -0.9365  0.1903
 1007MOL0     H38956   3.149   9.314   0.148  1.1692 -0.2842  1.4971
 1007MOL0     H38957   2.995   9.274   0.111 -0.9706  1.4006  2.8684
 1007MOL0     H38958   3.234   9.088   0.122 -0.7431 -1.4232 -0.7606
 1007MOL0     H38959   3.071   9.020   0.105  0.6144  0.1593  0.1413
 1007MOL0     H38960   3.206   9.055  -0.107 -1.0792 -2.6967  2.6276
 1007MOL0     H38961   3.170   9.234  -0.090  2.0835  0.3744  0.3421
 1007MOL0     H38962   2.802   9.066  -0.194  0.1935  0.4449 -1.4581
 1007MOL0     H38963   2.808   9.518   0.299 -0.3254  2.8163 -1.0182
 1007MOL0     H38964   2.813   9.843   0.398 -0.1722 -0.5521  0.1866
 1007MOL0     H38965   2.835   9.855   0.220 -0.4382  0.8746  1.1335
 1007MOL0     H38966   2.737   9.733   0.288  2.1258 -1.5925 -1.2316
 1008MOL0     O38967   1.897   6.725   3.171  0.1906 -0.4864 -0.5407
 1008MOL0     C38968   1.877   6.609   3.138 -0.3855  1.5966  0.0482
 1008MOL0     O38969   1.972   6.521   3.092  0.2799 -0.6432  0.0281
 1008MOL0     C38970   2.099   6.569   3.075  0.2231  0.0440 -0.1431
 1008MOL0     C38971   2.171   6.604   3.186  0.1927 -0.9055  0.0571
 1008MOL0     C38972   2.286   6.685   3.157 -0.2089  0.4786 -0.2584
 1008MOL0     C38973   2.333   6.715   3.036 -1.1640 -0.7077 -0.7282
 1008MOL0     O38974   2.441   6.798   3.022 -0.3595  0.0023  0.0910
 1008MOL0     C38975   2.438   6.914   2.937 -0.9825 -0.6125  0.4618
 1008MOL0     C38976   2.549   7.019   2.966  0.2281  0.2509 -0.1478
 1008MOL0     C38977   2.702   6.953   2.971  0.8971  0.6557 -0.3156
 1008MOL0     C38978   2.797   7.050   3.038  0.2538  0.3028 -0.4207
 1008MOL0     C38979   2.932   6.987   3.065  0.4975  0.5761 -0.0378
 1008MOL0     C38980   2.937   6.871   3.167  0.1403 -0.5495 -0.8338
 1008MOL0     C38981   3.048   6.763   3.136 -0.0241  0.4790 -0.1915
 1008MOL0     C38982   3.027   6.651   3.239 -0.6457 -1.0404  1.1084
 1008MOL0     N38983   3.107   6.540   3.180 -0.2565  0.2121 -0.1104
 1008MOL0     C38984   3.227   6.483   3.231  0.1610  0.3078 -0.7166
 1008MOL0     C38985   3.232   6.380   3.141 -0.4316  1.0947 -0.1814
 1008MOL0     C38986   3.342   6.276   3.124 -0.2946  0.1937 -0.0840
 1008MOL0     C38987   3.437   6.304   3.010 -0.5864 -0.2295  0.3628
 1008MOL0     C38988   3.572   6.372   3.047 -0.7258 -0.3570  0.4376
 1008MOL0     C38989   3.562   6.523   3.100 -1.0931  0.1251 -0.1837
 1008MOL0     O38990   3.521   6.518   3.236 -0.5762  0.4280 -0.1983
 1008MOL0     C38991   3.548   6.634   3.310  0.2050  0.2367 -0.7166
 1008MOL0     C38992   3.645   6.641   3.399 -0.2715  0.2079 -0.5753
 1008MOL0     C38993   3.692   6.753   3.476  0.6198 -0.6045  0.2148
 1008MOL0     C38994   3.791   6.737   3.587 -0.6799  0.9207 -0.1100
 1008MOL0     C38995   3.619   6.879   3.458 -0.1260  0.6325 -0.8414
 1008MOL0     C38996   3.654   7.011   3.536 -0.4234 -0.4870 -0.1703
 1008MOL0     O38997   3.589   7.128   3.488  0.6256 -0.1339  0.2618
 1008MOL0     C38998   3.619   7.243   3.554  0.3020 -0.3073  0.4042
 1008MOL0     C38999   3.519   7.315   3.620  0.1712  0.1848  0.4035
 1008MOL0     C39000   3.553   7.441   3.666 -0.6618 -0.7537  0.2572
 1008MOL0     C39001   3.684   7.497   3.659 -0.2986  0.0663 -0.1585
 1008MOL0     O39002   3.703   7.618   3.725 -0.0090 -0.1200  0.8032
 1008MOL0     C39003   3.816   7.701   3.688 -0.5308 -0.5098 -0.0834
 1008MOL0     C39004   3.816   7.821   3.769  0.1084 -0.6942  0.0505
 1008MOL0     C39005   3.858   7.786   3.916 -0.5557 -0.5039 -0.1964
 1008MOL0     C39006   4.004   7.797   3.961  1.1963 -0.5193  0.1675
 1008MOL0     C39007   4.032   7.739   4.102  0.2520  0.3320  0.2608
 1008MOL0     C39008   4.176   7.754   4.145 -0.4769 -1.1356  0.5897
 1008MOL0     C39009   4.203   7.664   4.263 -0.1205  0.4714 -0.0884
 1008MOL0     C39010   4.229   7.517   4.223  0.8519 -0.5116  0.2884
 1008MOL0    Cl39011   4.375   7.489   4.128  0.2791  0.1980  0.1735
 1008MOL0     C39012   3.787   7.430   3.586 -0.8562  0.5346  0.1093
 1008MOL0     C39013   3.753   7.302   3.537  0.5860  0.4065 -0.9598
 1008MOL0     O39014   3.719   7.003   3.643 -0.7051  0.5904  0.2993
 1008MOL0     C39015   3.517   6.875   3.366  0.0223  0.3185  0.5166
 1008MOL0     C39016   3.483   6.758   3.292 -0.3103 -0.3243  0.9994
 1008MOL0     N39017   3.114   6.358   3.071 -0.5324 -0.4026 -0.5066
 1008MOL0     N39018   3.043   6.456   3.097 -0.2387  0.2261  0.5172
 1008MOL0     C39019   2.271   6.664   2.927 -1.1498 -0.3181  0.1223
 1008MOL0     C39020   2.140   6.603   2.945  0.1985 -0.3730 -0.3656
 1008MOL0     C39021   1.747   6.542   3.169  0.3156 -0.6244 -0.8392
 1008MOL0     C39022   1.742   6.398   3.159  0.4884 -0.1058 -0.2697
 1008MOL0     C39023   1.626   6.331   3.199  0.7597  0.9483  0.4878
 1008MOL0     C39024   1.507   6.396   3.225 -0.4176 -0.4381  0.3013
 1008MOL0     O39025   1.403   6.315   3.243  0.8242 -0.0479 -0.4502
 1008MOL0     C39026   1.283   6.373   3.304  0.2736 -0.0858  0.3394
 1008MOL0     C39027   1.177   6.262   3.327  0.2625 -0.0565 -0.0651
 1008MOL0     C39028   1.135   6.191   3.198  0.5039  0.9090 -0.8813
 1008MOL0     C39029   1.025   6.259   3.113 -0.5674 -0.0983  0.6037
 1008MOL0     C39030   0.988   6.184   2.996  0.0215  0.0942 -0.0554
 1008MOL0     C39031   0.979   6.125   2.893  0.0898 -0.6834 -0.5265
 1008MOL0     C39032   1.508   6.535   3.230 -1.2079 -0.0892  0.2114
 1008MOL0     C39033   1.623   6.611   3.200 -0.2653 -0.0027 -1.4399
 1008MOL0     C39034   1.601   6.756   3.198 -0.0846  0.3433  0.6577
 1008MOL0     H39035   2.130   6.580   3.284 -0.8955  2.4058  0.5325
 1008MOL0     H39036   2.340   6.718   3.245  1.5915 -2.6093 -0.0604
 1008MOL0     H39037   2.336   6.950   2.921 -0.9722 -0.6440  0.3213
 1008MOL0     H39038   2.471   6.864   2.845  1.1753  0.4727  0.5749
 1008MOL0     H39039   2.560   7.103   2.897  4.7027  0.1301  0.1164
 1008MOL0     H39040   2.538   7.065   3.065  1.6831  2.2292 -0.8353
 1008MOL0     H39041   2.691   6.860   3.027 -1.8036  2.0044  1.6478
 1008MOL0     H39042   2.738   6.927   2.871  2.5232 -2.1339  0.8588
 1008MOL0     H39043   2.813   7.123   2.958 -1.4529  1.3741  0.1555
 1008MOL0     H39044   2.758   7.101   3.127  1.1028  0.1535  0.0523
 1008MOL0     H39045   3.014   7.057   3.083  1.1761 -0.6555  1.9978
 1008MOL0     H39046   2.959   6.945   2.967  1.6682 -0.1454  0.5737
 1008MOL0     H39047   2.953   6.911   3.267 -1.7036 -0.1208 -0.6742
 1008MOL0     H39048   2.850   6.805   3.166  0.0298 -0.4010 -1.3751
 1008MOL0     H39049   3.150   6.804   3.145 -0.0615  1.2075 -2.4630
 1008MOL0     H39050   3.035   6.725   3.035 -1.3050 -2.4653  0.9849
 1008MOL0     H39051   3.075   6.685   3.331  3.6956  0.0870 -1.2977
 1008MOL0     H39052   2.922   6.620   3.242 -0.5258 -1.8718 -1.2707
 1008MOL0     H39053   3.297   6.520   3.305 -0.7052  1.1026 -0.2666
 1008MOL0     H39054   3.293   6.186   3.086  0.7512  0.1556 -1.4000
 1008MOL0     H39055   3.399   6.258   3.216  2.1169 -0.3861 -1.6034
 1008MOL0     H39056   3.456   6.207   2.962 -2.4911 -1.4182  1.8573
 1008MOL0     H39057   3.383   6.367   2.939  2.1907  1.3942 -0.4356
 1008MOL0     H39058   3.613   6.305   3.124  1.5583  1.2786  0.7392
 1008MOL0     H39059   3.641   6.361   2.963 -0.4991 -3.5785  0.9087
 1008MOL0     H39060   3.658   6.575   3.104 -0.4252 -1.1471  1.9914
 1008MOL0     H39061   3.500   6.593   3.043 -0.7322  1.3645  0.8943
 1008MOL0     H39062   3.693   6.544   3.412 -0.2078  0.3355  0.1239
 1008MOL0     H39063   3.817   6.631   3.599  1.0856  1.5394  2.5107
 1008MOL0     H39064   3.763   6.764   3.690 -3.6654  1.0103 -0.8625
 1008MOL0     H39065   3.880   6.793   3.558  0.7361 -0.2891  1.6769
 1008MOL0     H39066   3.417   7.283   3.635 -0.6532  3.0423  1.5534
 1008MOL0     H39067   3.482   7.497   3.727 -1.2947  0.5207 -1.5784
 1008MOL0     H39068   3.912   7.651   3.703  2.9715  5.3691  0.5108
 1008MOL0     H39069   3.815   7.735   3.584  1.1925  2.1857  0.6732
 1008MOL0     H39070   3.878   7.905   3.735 -0.6834  2.8209  5.8824
 1008MOL0     H39071   3.719   7.871   3.778  1.2984  1.7120  0.5644
 1008MOL0     H39072   3.830   7.685   3.948  0.5653 -2.4649 -4.6398
 1008MOL0     H39073   3.801   7.861   3.972  0.5355 -0.9326  1.5638
 1008MOL0     H39074   4.040   7.899   3.941  0.8973 -0.6797 -1.2886
 1008MOL0     H39075   4.059   7.732   3.894 -0.8955 -3.2629  0.9292
 1008MOL0     H39076   3.968   7.801   4.166 -0.4800  1.2619 -1.3099
 1008MOL0     H39077   4.002   7.635   4.114 -0.3729  0.4727 -0.0283
 1008MOL0     H39078   4.195   7.861   4.157  0.5554 -1.1582 -0.6180
 1008MOL0     H39079   4.228   7.714   4.057 -0.0119  0.3364  0.1714
 1008MOL0     H39080   4.129   7.658   4.343  0.6765 -0.9059  0.5796
 1008MOL0     H39081   4.298   7.697   4.307 -0.3880 -0.5722  1.3519
 1008MOL0     H39082   4.146   7.468   4.171  2.2836 -1.1641 -1.5352
 1008MOL0     H39083   4.247   7.464   4.317  0.4094  1.1019  1.3123
 1008MOL0     H39084   3.892   7.456   3.580 -0.7869  1.5040  3.4919
 1008MOL0     H39085   3.834   7.245   3.492  2.0426  0.9185  0.8943
 1008MOL0     H39086   3.471   6.967   3.331  0.4064  0.4599  0.3781
 1008MOL0     H39087   3.404   6.758   3.218 -0.2986 -0.7431  0.9848
 1008MOL0     H39088   2.315   6.691   2.831  1.3997 -2.3311  0.6235
 1008MOL0     H39089   2.069   6.576   2.867  1.4659 -3.0195 -0.7021
 1008MOL0     H39090   1.833   6.340   3.147 -0.2627 -1.0969 -1.5137
 1008MOL0     H39091   1.632   6.224   3.214 -0.7719  0.8510  0.5197
 1008MOL0     H39092   1.317   6.431   3.390  2.9569 -0.8824 -0.0897
 1008MOL0     H39093   1.244   6.440   3.227 -3.1921 -1.5284  0.6392
 1008MOL0     H39094   1.089   6.308   3.374 -1.1107  0.0673 -2.5412
 1008MOL0     H39095   1.225   6.197   3.400  0.0825  0.8687  0.9062
 1008MOL0     H39096   1.224   6.163   3.142 -0.3649 -2.1246 -0.9225
 1008MOL0     H39097   1.093   6.093   3.223 -0.3565  0.4721 -3.6324
 1008MOL0     H39098   1.072   6.355   3.089  0.0384 -0.7622 -0.9923
 1008MOL0     H39099   0.943   6.275   3.184  0.4078 -0.0769  1.7674
 1008MOL0     H39100   0.974   6.084   2.794 -2.0849 -0.0134 -0.7657
 1008MOL0     H39101   1.430   6.598   3.272  0.5028  1.2112  1.5762
 1008MOL0     H39102   1.675   6.815   3.253  1.7823 -1.3598  0.0987
 1008MOL0     H39103   1.605   6.784   3.092 -0.3093  3.4169  1.3578
 1008MOL0     H39104   1.504   6.794   3.229 -0.9089 -0.8020 -0.4468
 1009MOL0     O39105   0.266   6.977  10.820 -0.8141 -0.5603 -0.5462
 1009MOL0     C39106   0.243   6.897  10.915 -0.2425 -0.6593 -0.2815
 1009MOL0     O39107   0.313   6.782  10.947 -0.1635  0.2099 -0.8242
 1009MOL0     C39108   0.422   6.758  10.867  0.0614  0.5089 -0.5846
 1009MOL0     C39109   0.433   6.632  10.801  0.0587 -0.1505  0.3673
 1009MOL0     C39110   0.548   6.606  10.734 -0.3855  0.2990  1.0640
 1009MOL0     C39111   0.656   6.685  10.730 -0.3818 -0.3914 -0.3556
 1009MOL0     O39112   0.766   6.627  10.662  0.0879 -0.0936  0.5537
 1009MOL0     C39113   0.888   6.698  10.642  0.1088  0.0226 -0.0723
 1009MOL0     C39114   0.942   6.651  10.501 -0.3725 -0.4204 -0.1088
 1009MOL0     C39115   0.867   6.712  10.376 -0.9197  0.7824  0.0341
 1009MOL0     C39116   0.921   6.854  10.342 -0.2620 -1.0684 -0.7162
 1009MOL0     C39117   0.840   6.924  10.230  0.3733  0.2229  0.7304
 1009MOL0     C39118   0.691   6.931  10.257  0.6550 -0.2094  0.0535
 1009MOL0     C39119   0.654   6.992  10.388 -0.2424 -0.4432  0.2131
 1009MOL0     C39120   0.514   7.057  10.414  0.0123 -0.6115  0.2253
 1009MOL0     N39121   0.414   6.967  10.369  1.0763  0.2812 -0.6010
 1009MOL0     C39122   0.387   6.841  10.428 -0.1343 -0.1133 -0.3126
 1009MOL0     C39123   0.300   6.780  10.350 -0.7975  0.0692  0.2571
 1009MOL0     C39124   0.262   6.639  10.369 -0.0231 -0.2903  0.6290
 1009MOL0     C39125   0.393   6.560  10.338 -0.3827 -0.8077 -0.1489
 1009MOL0     C39126   0.372   6.413  10.300  0.8362  0.9476 -0.1075
 1009MOL0     C39127   0.353   6.331  10.426  0.4694 -0.1430  0.2128
 1009MOL0     O39128   0.346   6.184  10.402  0.0486 -0.3496 -0.8457
 1009MOL0     C39129   0.225   6.132  10.393 -0.9128  0.3739  1.0150
 1009MOL0     C39130   0.099   6.200  10.392  0.2371 -0.2594  0.3064
 1009MOL0     C39131  -0.024   6.119  10.388  0.1080 -0.2122  0.4024
 1009MOL0     C39132  -0.147   6.203  10.402 -0.5920 -0.1730  0.5856
 1009MOL0     C39133  -0.020   5.980  10.361 -0.0838 -0.1895 -0.6970
 1009MOL0     C39134  -0.146   5.896  10.353 -0.9001 -0.7938 -1.0311
 1009MOL0     O39135  -0.267   5.955  10.374 -0.0111  0.2418 -0.0623
 1009MOL0     C39136  -0.376   5.877  10.403  0.6006  0.2429  0.5974
 1009MOL0     C39137  -0.389   5.777  10.499 -0.0568 -0.9181  0.8802
 1009MOL0     C39138  -0.515   5.729  10.537  0.7716  0.0102  0.1312
 1009MOL0     C39139  -0.632   5.766  10.474  1.2520 -0.5692 -0.1207
 1009MOL0     O39140  -0.765   5.724  10.503 -0.3880  0.0926  1.6790
 1009MOL0     C39141  -0.852   5.829  10.542 -0.3195 -0.2739  0.6835
 1009MOL0     C39142  -0.996   5.798  10.511 -0.3084  1.1715  0.0902
 1009MOL0     C39143  -1.092   5.907  10.560 -0.6989 -0.1314  0.9886
 1009MOL0     C39144  -1.241   5.880  10.535 -1.2374 -0.5285  0.2589
 1009MOL0     C39145  -1.327   6.000  10.565  0.2546  0.5482  0.0906
 1009MOL0     C39146  -1.298   6.126  10.488  1.2066 -0.3416 -0.8751
 1009MOL0     C39147  -1.283   6.108  10.341 -0.7665  0.7832  0.7282
 1009MOL0     C39148  -1.408   6.046  10.282  0.0786  0.2992 -0.3445
 1009MOL0    Cl39149  -1.397   6.059  10.109  0.3692 -0.2416 -0.2019
 1009MOL0     C39150  -0.616   5.862  10.372  0.4503 -0.5779  0.0863
 1009MOL0     C39151  -0.494   5.911  10.324 -0.1650  0.2898 -0.3407
 1009MOL0     O39152  -0.127   5.775  10.344  0.1879  0.8920 -0.0828
 1009MOL0     C39153   0.106   5.917  10.375 -0.0661  0.1311  0.3466
 1009MOL0     C39154   0.229   5.990  10.400 -0.0800  0.8440  0.1934
 1009MOL0     N39155   0.261   6.864  10.247  0.3294  0.5905 -0.3349
 1009MOL0     N39156   0.329   6.971  10.263 -0.4332 -0.4175  0.3692
 1009MOL0     C39157   0.641   6.817  10.779 -0.1049  0.3994 -0.3573
 1009MOL0     C39158   0.522   6.856  10.843  0.4333 -0.0896 -0.3862
 1009MOL0     C39159   0.124   6.926  10.997 -0.5366  0.3535  0.3017
 1009MOL0     C39160   0.032   7.026  10.962 -0.2044 -0.6723 -0.7825
 1009MOL0     C39161  -0.092   7.039  11.017 -0.1014  0.3663 -0.4284
 1009MOL0     C39162  -0.136   6.954  11.125  0.0749 -0.2086  0.2112
 1009MOL0     O39163  -0.271   6.948  11.170  0.3674 -1.1303  0.5906
 1009MOL0     C39164  -0.303   6.868  11.283 -0.3481 -0.6348  0.7300
 1009MOL0     C39165  -0.449   6.884  11.326 -1.0214 -0.3639 -0.6075
 1009MOL0     C39166  -0.539   6.835  11.204 -0.4333 -0.4112  0.1615
 1009MOL0     C39167  -0.655   6.740  11.242  0.0414  0.1180  0.2925
 1009MOL0     C39168  -0.633   6.643  11.347 -0.8609  0.7774 -0.0463
 1009MOL0     C39169  -0.623   6.568  11.443 -0.6048 -1.2541  0.4739
 1009MOL0     C39170  -0.035   6.862  11.169  0.5452 -0.2677 -0.8320
 1009MOL0     C39171   0.098   6.853  11.111  0.7816  0.4672  0.0546
 1009MOL0     C39172   0.195   6.770  11.195 -1.1566 -0.3526  0.3367
 1009MOL0     H39173   0.351   6.561  10.802 -3.7286  3.7774  0.5844
 1009MOL0     H39174   0.551   6.513  10.678  0.4234  0.7541  0.3359
 1009MOL0     H39175   0.972   6.683  10.710  2.0440  3.6067 -1.4463
 1009MOL0     H39176   0.864   6.804  10.635 -2.2001 -0.2797  1.7758
 1009MOL0     H39177   1.047   6.677  10.489 -0.3517 -0.7363 -0.6745
 1009MOL0     H39178   0.930   6.542  10.501  0.4185 -0.6956 -4.6432
 1009MOL0     H39179   0.895   6.649  10.291 -0.9367 -0.8514  1.1898
 1009MOL0     H39180   0.767   6.698  10.416 -1.0447  0.8458 -0.2505
 1009MOL0     H39181   0.906   6.924  10.425 -0.2399  0.6578 -2.1045
 1009MOL0     H39182   1.029   6.865  10.327 -0.3904  0.5503 -0.5695
 1009MOL0     H39183   0.880   6.866  10.146 -0.3682 -0.9098  1.1327
 1009MOL0     H39184   0.878   7.026  10.221 -1.6701  1.1501  2.0085
 1009MOL0     H39185   0.641   6.982  10.174  0.0053 -5.1654 -3.0211
 1009MOL0     H39186   0.656   6.827  10.255  0.8308 -0.2574 -1.6963
 1009MOL0     H39187   0.725   7.070  10.418  1.9620 -1.8471 -1.0876
 1009MOL0     H39188   0.665   6.906  10.455  2.6368  0.7511  1.4523
 1009MOL0     H39189   0.495   7.087  10.517 -2.8436  0.9085 -0.6427
 1009MOL0     H39190   0.512   7.149  10.355 -0.0894 -1.4940 -1.1866
 1009MOL0     H39191   0.427   6.800  10.520  0.0851 -2.4830 -1.3939
 1009MOL0     H39192   0.186   6.611  10.295  0.1074  2.0951 -0.4884
 1009MOL0     H39193   0.218   6.609  10.464 -3.0075  1.6124 -0.0141
 1009MOL0     H39194   0.426   6.610  10.246 -1.6636  0.5077  0.0624
 1009MOL0     H39195   0.470   6.574  10.414  0.7384 -0.4378 -1.2959
 1009MOL0     H39196   0.290   6.401  10.229  2.6199 -1.1819 -1.9731
 1009MOL0     H39197   0.464   6.376  10.254 -0.2102  0.0103 -1.5702
 1009MOL0     H39198   0.435   6.339  10.499 -0.9060  0.3186  1.7662
 1009MOL0     H39199   0.274   6.370  10.491  2.4352  0.7308  2.2264
 1009MOL0     H39200   0.096   6.307  10.378 -0.7964 -0.1977  0.9020
 1009MOL0     H39201  -0.138   6.312  10.413  0.1517 -0.1778  0.0956
 1009MOL0     H39202  -0.186   6.158  10.494  0.6407 -0.4831  0.9885
 1009MOL0     H39203  -0.211   6.182  10.316  1.5762 -0.7810 -0.9626
 1009MOL0     H39204  -0.311   5.748  10.569  0.2071  1.4054  1.6128
 1009MOL0     H39205  -0.521   5.650  10.610  1.9346  1.6868  2.1361
 1009MOL0     H39206  -0.835   5.836  10.650  1.7807 -1.3188  0.4846
 1009MOL0     H39207  -0.824   5.928  10.505 -1.5183 -1.1039 -2.7424
 1009MOL0     H39208  -1.004   5.769  10.406  0.2158 -0.9104  0.5849
 1009MOL0     H39209  -1.022   5.710  10.570 -0.9642  2.2851  1.5416
 1009MOL0     H39210  -1.057   6.002  10.518  3.5700 -1.6916  0.4930
 1009MOL0     H39211  -1.090   5.912  10.669 -3.1416  0.5736  1.0667
 1009MOL0     H39212  -1.288   5.796  10.587  0.5639 -2.4122 -0.9995
 1009MOL0     H39213  -1.244   5.840  10.433  2.9829 -1.0005  0.1736
 1009MOL0     H39214  -1.432   5.971  10.567 -0.0634  1.6695  1.8443
 1009MOL0     H39215  -1.314   6.012  10.673 -0.4351  0.4053  0.1940
 1009MOL0     H39216  -1.210   6.184  10.516 -1.0255  2.3852  1.0801
 1009MOL0     H39217  -1.387   6.184  10.515  1.1476  0.6966 -3.0572
 1009MOL0     H39218  -1.209   6.030  10.324 -1.0607  0.8598 -1.1281
 1009MOL0     H39219  -1.261   6.196  10.279  0.6721  0.2671  0.4753
 1009MOL0     H39220  -1.493   6.106  10.315  0.3436 -0.1458  1.2394
 1009MOL0     H39221  -1.423   5.943  10.316 -1.9880  0.6761 -0.0281
 1009MOL0     H39222  -0.704   5.906  10.327  0.8046  0.4925  0.4221
 1009MOL0     H39223  -0.479   5.980  10.241  2.5786  1.2245  0.7916
 1009MOL0     H39224   0.096   5.810  10.364 -0.7868  0.2137  0.0990
 1009MOL0     H39225   0.326   5.943  10.414 -1.2046 -2.6006 -2.4105
 1009MOL0     H39226   0.723   6.889  10.779 -1.6328  2.2393  1.1847
 1009MOL0     H39227   0.517   6.954  10.891 -1.3447 -0.3522  0.0173
 1009MOL0     H39228   0.062   7.107  10.897  2.4734 -0.6148  0.3969
 1009MOL0     H39229  -0.167   7.106  10.975 -1.4720 -0.6016  0.3646
 1009MOL0     H39230  -0.284   6.765  11.250 -3.5527 -0.5837 -1.6432
 1009MOL0     H39231  -0.238   6.900  11.365  0.5929  5.1750 -1.8237
 1009MOL0     H39232  -0.469   6.987  11.353 -1.5106 -0.0399 -2.1031
 1009MOL0     H39233  -0.471   6.822  11.414 -1.3386  1.1181  0.3861
 1009MOL0     H39234  -0.587   6.927  11.168  0.4577 -1.2012 -3.5161
 1009MOL0     H39235  -0.486   6.786  11.122  0.4504 -2.1845  1.7215
 1009MOL0     H39236  -0.683   6.692  11.148  0.2982  2.0145 -0.7997
 1009MOL0     H39237  -0.738   6.800  11.279 -0.2933 -0.9803  1.3860
 1009MOL0     H39238  -0.619   6.498  11.524  4.3894 -2.0648 -0.1399
 1009MOL0     H39239  -0.050   6.823  11.269  2.4283  0.6540 -0.1475
 1009MOL0     H39240   0.201   6.664  11.169 -2.1210 -0.1731 -0.6925
 1009MOL0     H39241   0.297   6.807  11.182 -1.5186  1.2157  1.7037
 1009MOL0     H39242   0.172   6.782  11.301 -0.9017  0.6570  0.2821
 1010MOL0     O39243  11.149   5.839   5.800  0.1900  0.1799  0.4244
 1010MOL0     C39244  11.066   5.750   5.780  0.3214  0.3891  0.2030
 1010MOL0     O39245  10.972   5.712   5.870  0.0936 -0.2446  0.0887
 1010MOL0     C39246  10.970   5.752   6.001 -0.4494 -0.5641 -0.1183
 1010MOL0     C39247  10.901   5.657   6.075 -0.3692 -0.1920  0.2864
 1010MOL0     C39248  10.905   5.669   6.216 -1.0718  0.3146  0.2458
 1010MOL0     C39249  10.949   5.781   6.280 -0.1267  0.4387 -0.1845
 1010MOL0     O39250  10.942   5.797   6.416 -0.6976 -0.0114 -0.0250
 1010MOL0     C39251  10.916   5.679   6.492  0.2346 -0.1155  0.8191
 1010MOL0     C39252  10.885   5.719   6.638  0.4618  0.3738  0.4357
 1010MOL0     C39253  10.771   5.823   6.648  0.2058  1.7826  0.6876
 1010MOL0     C39254  10.719   5.826   6.797  0.0727  1.3888  0.2644
 1010MOL0     C39255  10.638   5.702   6.846  0.3465 -0.0924  0.6705
 1010MOL0     C39256  10.569   5.731   6.968 -0.0924  0.4662 -0.3623
 1010MOL0     C39257  10.660   5.775   7.092 -0.4246 -0.2997 -0.4020
 1010MOL0     C39258  10.563   5.792   7.206 -1.0068 -0.9391  0.8452
 1010MOL0     N39259  10.636   5.795   7.339 -0.3477 -0.9978  0.5773
 1010MOL0     C39260  10.661   5.671   7.407 -0.1265 -0.0787  0.0690
 1010MOL0     C39261  10.690   5.715   7.536 -0.9377  0.9221  0.2811
 1010MOL0     C39262  10.720   5.622   7.649 -0.2311 -0.1521  0.8265
 1010MOL0     C39263  10.668   5.664   7.786 -0.2766 -0.2897 -0.2759
 1010MOL0     C39264  10.733   5.795   7.851  0.9102  0.5867  0.2706
 1010MOL0     C39265  10.641   5.851   7.955  0.1202 -0.4887 -0.8024
 1010MOL0     O39266  10.610   5.750   8.034  0.7400  0.0648  0.0869
 1010MOL0     C39267  10.502   5.773   8.118 -0.0802 -0.0784  0.1477
 1010MOL0     C39268  10.442   5.899   8.147  0.3285  0.0167 -0.0226
 1010MOL0     C39269  10.331   5.912   8.228 -0.7418 -0.6019 -0.6672
 1010MOL0     C39270  10.275   6.053   8.244  1.1306 -0.8497  0.0909
 1010MOL0     C39271  10.275   5.796   8.285  0.8164  0.2472 -0.3032
 1010MOL0     C39272  10.137   5.795   8.362 -0.0028  0.4864  0.1339
 1010MOL0     O39273  10.059   5.677   8.350 -0.2177  0.0405  0.3933
 1010MOL0     C39274   9.932   5.672   8.394 -0.0645 -0.9385  0.4075
 1010MOL0     C39275   9.902   5.553   8.465 -0.0480  0.1863 -0.1678
 1010MOL0     C39276   9.773   5.531   8.514 -0.9256 -0.3041  0.0150
 1010MOL0     C39277   9.671   5.625   8.498  0.4715 -0.8546 -0.4397
 1010MOL0     O39278   9.542   5.600   8.540  0.3509  1.3883  0.7476
 1010MOL0     C39279   9.528   5.536   8.671 -0.3411  0.2519  0.6144
 1010MOL0     C39280   9.417   5.606   8.747  0.4014 -1.6358 -1.2727
 1010MOL0     C39281   9.467   5.740   8.800 -0.2878 -0.1376  0.0159
 1010MOL0     C39282   9.562   5.730   8.926  1.6918  0.8852  0.0025
 1010MOL0     C39283   9.482   5.710   9.058 -0.0218 -0.2558  0.2315
 1010MOL0     C39284   9.557   5.635   9.171  0.7734 -0.1389  0.2502
 1010MOL0     C39285   9.572   5.485   9.147  0.4239  0.6689  0.0496
 1010MOL0     C39286   9.678   5.415   9.237 -0.1580  0.6897  0.3660
 1010MOL0    Cl39287   9.615   5.401   9.403  0.4953 -0.0752  0.0080
 1010MOL0     C39288   9.696   5.741   8.424  0.9705  0.3604  0.1239
 1010MOL0     C39289   9.827   5.769   8.382  0.0782 -1.3445  0.0989
 1010MOL0     O39290  10.101   5.899   8.424 -0.1623  0.7558  0.5848
 1010MOL0     C39291  10.336   5.675   8.259  0.8829  0.3011  0.0845
 1010MOL0     C39292  10.450   5.658   8.180  0.2906 -0.7995 -0.4598
 1010MOL0     N39293  10.701   5.848   7.531  1.0564 -0.6212  0.5514
 1010MOL0     N39294  10.668   5.896   7.420  0.3662 -0.0727 -0.1051
 1010MOL0     C39295  10.996   5.883   6.200 -0.2893  0.4083 -0.5242
 1010MOL0     C39296  11.023   5.868   6.070  0.1700 -0.5107 -0.2662
 1010MOL0     C39297  11.064   5.669   5.659  0.2475  0.3606 -0.5753
 1010MOL0     C39298  10.971   5.566   5.651  0.4040 -0.1514  0.1524
 1010MOL0     C39299  10.948   5.496   5.530 -0.3179 -0.6663  0.4171
 1010MOL0     C39300  11.027   5.513   5.416  0.2643  0.6765  0.4430
 1010MOL0     O39301  11.007   5.442   5.299  0.0185 -0.4556 -0.8817
 1010MOL0     C39302  10.924   5.328   5.302 -0.4794 -0.5410 -0.8925
 1010MOL0     C39303  10.992   5.211   5.383 -0.2973 -0.3204  0.0188
 1010MOL0     C39304  10.951   5.060   5.358  0.1677  0.4320 -0.3641
 1010MOL0     C39305  11.076   4.975   5.408  1.1116 -1.2426  0.4150
 1010MOL0     C39306  11.073   4.840   5.351  0.1644  0.7613 -0.6779
 1010MOL0     C39307  11.029   4.735   5.311  1.2924  0.3471  0.8270
 1010MOL0     C39308  11.133   5.602   5.425  0.8924  0.0176  0.0393
 1010MOL0     C39309  11.146   5.689   5.540  0.0815  0.1270 -0.4275
 1010MOL0     C39310  11.254   5.795   5.526 -1.4220 -0.2049 -1.2811
 1010MOL0     H39311  10.852   5.571   6.030  0.6513 -0.1698 -0.9241
 1010MOL0     H39312  10.887   5.576   6.269  3.2838 -0.5557  0.5491
 1010MOL0     H39313  10.993   5.603   6.478 -1.4152 -1.6669 -0.1609
 1010MOL0     H39314  10.825   5.633   6.453  4.1418 -4.9224 -4.1239
 1010MOL0     H39315  10.861   5.624   6.687 -3.2587  0.1310 -1.4576
 1010MOL0     H39316  10.978   5.766   6.670  1.1499 -0.5987 -0.0758
 1010MOL0     H39317  10.806   5.921   6.615  0.5724  0.3294 -4.1067
 1010MOL0     H39318  10.693   5.786   6.581 -0.1220  4.6753 -0.6490
 1010MOL0     H39319  10.809   5.833   6.858 -0.1702 -0.2892  0.8593
 1010MOL0     H39320  10.658   5.915   6.813  2.2083  2.9471  0.0769
 1010MOL0     H39321  10.701   5.613   6.860 -1.5556 -2.1135 -2.3863
 1010MOL0     H39322  10.561   5.670   6.774 -0.7639  1.0124  1.3194
 1010MOL0     H39323  10.493   5.805   6.939 -0.0097  1.4161  1.7054
 1010MOL0     H39324  10.509   5.642   6.993  1.4220 -0.0030  1.9019
 1010MOL0     H39325  10.718   5.867   7.081 -3.0980  1.3170 -2.0205
 1010MOL0     H39326  10.730   5.692   7.097 -0.3853 -0.2939 -0.8712
 1010MOL0     H39327  10.517   5.888   7.182 -0.2007 -1.0922 -1.5711
 1010MOL0     H39328  10.492   5.709   7.203  0.6583 -2.4426  1.0015
 1010MOL0     H39329  10.649   5.573   7.363  1.6597 -0.2515 -0.0877
 1010MOL0     H39330  10.829   5.623   7.662 -0.3904  1.2507  2.2690
 1010MOL0     H39331  10.681   5.525   7.617 -0.6678  0.3122 -0.0942
 1010MOL0     H39332  10.559   5.672   7.787 -0.1912  1.0306  0.2049
 1010MOL0     H39333  10.690   5.578   7.850  0.8053 -1.5592 -2.2459
 1010MOL0     H39334  10.835   5.767   7.882  2.0598 -1.1546 -4.2360
 1010MOL0     H39335  10.749   5.866   7.769  0.7693 -0.3564 -0.6028
 1010MOL0     H39336  10.682   5.932   8.016 -4.8202  0.7137  1.4335
 1010MOL0     H39337  10.555   5.891   7.901 -0.3456 -2.9746 -2.0462
 1010MOL0     H39338  10.474   5.992   8.102 -2.4360  1.0967  0.0362
 1010MOL0     H39339  10.279   6.092   8.346 -1.9066 -0.0118 -0.0341
 1010MOL0     H39340  10.169   6.053   8.218  0.9737 -0.9387  0.7381
 1010MOL0     H39341  10.334   6.103   8.166 -0.3249 -1.1562 -1.2681
 1010MOL0     H39342   9.970   5.470   8.481 -0.4097  0.2523  1.9019
 1010MOL0     H39343   9.774   5.436   8.566  3.1849  0.0881  1.0342
 1010MOL0     H39344   9.499   5.433   8.647  1.0962 -0.2858  1.0412
 1010MOL0     H39345   9.626   5.526   8.719  0.7757 -1.6293 -1.8242
 1010MOL0     H39346   9.326   5.627   8.691 -1.2686 -2.8397  0.8197
 1010MOL0     H39347   9.387   5.539   8.829  2.6206 -0.1374  0.9101
 1010MOL0     H39348   9.376   5.800   8.809  0.7238  1.4810 -0.1791
 1010MOL0     H39349   9.513   5.805   8.724 -1.6703  1.5394  0.5226
 1010MOL0     H39350   9.608   5.828   8.922 -0.3495  1.8669 -1.5298
 1010MOL0     H39351   9.639   5.654   8.913 -0.5795 -1.5901 -0.0435
 1010MOL0     H39352   9.441   5.808   9.082 -0.4695 -0.2731 -0.4316
 1010MOL0     H39353   9.393   5.650   9.035 -0.5717  0.4512  0.5030
 1010MOL0     H39354   9.493   5.655   9.257 -1.9075 -2.8820 -0.8974
 1010MOL0     H39355   9.655   5.681   9.183 -0.3216  2.1643  1.0823
 1010MOL0     H39356   9.594   5.472   9.041  2.2208  4.5830 -0.2255
 1010MOL0     H39357   9.469   5.450   9.162 -1.0207  4.7175  1.1282
 1010MOL0     H39358   9.777   5.459   9.250 -0.1495  0.8080 -0.0837
 1010MOL0     H39359   9.693   5.312   9.203  0.8667  0.4591  1.4710
 1010MOL0     H39360   9.621   5.818   8.414  3.3499  2.8196  0.0469
 1010MOL0     H39361   9.850   5.868   8.344  1.4575 -1.6867 -0.0202
 1010MOL0     H39362  10.300   5.583   8.304  0.1879  1.1500  1.3079
 1010MOL0     H39363  10.483   5.556   8.161  1.4478 -0.6929  0.8325
 1010MOL0     H39364  11.027   5.977   6.244  0.0824  1.7416 -3.3843
 1010MOL0     H39365  11.066   5.947   6.008 -0.9421 -0.7112 -1.3358
 1010MOL0     H39366  10.893   5.556   5.726 -1.3547 -0.0458 -1.5719
 1010MOL0     H39367  10.866   5.425   5.542 -0.0382 -1.2841 -1.0126
 1010MOL0     H39368  10.822   5.340   5.342  0.7778 -0.3739  2.5923
 1010MOL0     H39369  10.915   5.307   5.195 -0.1837  2.1581 -1.5118
 1010MOL0     H39370  10.982   5.219   5.492  0.7318 -0.6269  0.1413
 1010MOL0     H39371  11.099   5.222   5.362 -0.2134  1.8329  1.3128
 1010MOL0     H39372  10.865   5.045   5.424  0.3497  1.3529  0.0936
 1010MOL0     H39373  10.927   5.037   5.254 -1.5011 -1.6833  0.4100
 1010MOL0     H39374  11.072   4.982   5.517 -1.1802 -4.2906  0.6746
 1010MOL0     H39375  11.171   5.014   5.370  0.8303 -3.1151 -2.5880
 1010MOL0     H39376  11.003   4.633   5.293  0.8232  0.6939 -0.5493
 1010MOL0     H39377  11.186   5.615   5.331  2.0346  1.3953  0.8329
 1010MOL0     H39378  11.322   5.770   5.608 -0.0689  2.6538 -1.4442
 1010MOL0     H39379  11.300   5.794   5.427  0.1201  1.6613 -0.6328
 1010MOL0     H39380  11.220   5.896   5.548  3.0774  1.7009 -2.0339
 1011MOL0     O39381   2.185   4.924  11.452  0.4200 -0.6248 -0.5808
 1011MOL0     C39382   2.111   4.972  11.539  0.0413 -0.6868  0.2315
 1011MOL0     O39383   2.065   4.912  11.649  0.7669 -0.6057 -0.7343
 1011MOL0     C39384   2.097   4.775  11.663  0.8651  0.3385 -0.5257
 1011MOL0     C39385   1.993   4.697  11.696 -0.1279 -0.0203 -0.2766
 1011MOL0     C39386   2.009   4.555  11.697 -0.1921  0.2107  0.5352
 1011MOL0     C39387   2.130   4.494  11.659 -0.8417 -0.8138 -0.1283
 1011MOL0     O39388   2.127   4.353  11.661 -0.2990 -0.2957  0.1924
 1011MOL0     C39389   2.246   4.284  11.623 -0.3477  0.2821 -0.0847
 1011MOL0     C39390   2.242   4.133  11.659 -0.9150 -0.6863 -1.4252
 1011MOL0     C39391   2.366   4.072  11.604 -0.1094 -0.3897 -0.4277
 1011MOL0     C39392   2.386   3.938  11.670  0.7964 -0.4868 -0.1930
 1011MOL0     C39393   2.506   3.868  11.628 -1.0381 -0.0231 -0.2895
 1011MOL0     C39394   2.634   3.911  11.694 -0.0201  0.3316 -0.3191
 1011MOL0     C39395   2.759   3.838  11.638 -0.6685 -0.3021  0.0201
 1011MOL0     C39396   2.808   3.877  11.506 -0.5808 -0.1961  0.0193
 1011MOL0     N39397   2.853   4.016  11.486  0.4926 -1.2377 -0.1848
 1011MOL0     C39398   2.939   4.081  11.564 -0.3621 -0.0746  0.5366
 1011MOL0     C39399   2.970   4.202  11.510  0.4110  0.0001 -0.3595
 1011MOL0     C39400   3.045   4.311  11.584 -0.5633 -0.0859  0.0061
 1011MOL0     C39401   2.945   4.417  11.638  0.2605 -0.0956 -0.4315
 1011MOL0     C39402   3.033   4.516  11.707  0.2651 -0.3861  0.1036
 1011MOL0     C39403   2.967   4.646  11.739  0.2098  0.2235 -0.6664
 1011MOL0     O39404   3.017   4.699  11.860 -0.4021 -0.0026  0.4419
 1011MOL0     C39405   3.146   4.745  11.853 -1.0047  0.6237 -0.1709
 1011MOL0     C39406   3.183   4.857  11.795 -0.9382  0.2333  0.6598
 1011MOL0     C39407   3.318   4.912  11.790 -0.7335  0.0208 -0.4019
 1011MOL0     C39408   3.334   5.035  11.711  0.5368 -0.7747  0.1986
 1011MOL0     C39409   3.420   4.840  11.853  0.6168  0.2309  0.0116
 1011MOL0     C39410   3.560   4.887  11.851 -0.1026  0.5136 -1.1965
 1011MOL0     O39411   3.600   4.978  11.766 -0.0507  0.1676  0.3825
 1011MOL0     C39412   3.721   5.031  11.780 -0.1157 -0.1780  0.4306
 1011MOL0     C39413   3.756   5.106  11.895 -0.1913 -0.0881 -0.5554
 1011MOL0     C39414   3.885   5.149  11.911 -0.0324 -0.8464 -0.2433
 1011MOL0     C39415   3.984   5.122  11.814  0.0697 -0.6222 -0.0965
 1011MOL0     O39416   4.115   5.157  11.852  0.3172  0.3378 -0.2173
 1011MOL0     C39417   4.221   5.096  11.772 -0.1012  0.1134 -0.7653
 1011MOL0     C39418   4.344   5.117  11.857 -0.1800  0.4511  1.1090
 1011MOL0     C39419   4.465   5.047  11.799 -0.1609 -0.3771 -1.0307
 1011MOL0     C39420   4.541   5.144  11.710  0.4779  0.6761  0.0114
 1011MOL0     C39421   4.665   5.072  11.655  0.1771  0.0584  0.2781
 1011MOL0     C39422   4.790   5.080  11.733 -1.1009 -1.1923 -0.3160
 1011MOL0     C39423   4.861   4.948  11.761  1.1834 -0.3745 -0.3002
 1011MOL0     C39424   4.918   4.933  11.905 -1.0990  0.3096 -0.8364
 1011MOL0    Cl39425   4.930   4.757  11.936  0.3097  0.0066  0.3005
 1011MOL0     C39426   3.939   5.059  11.699  0.3381 -0.3084 -0.5637
 1011MOL0     C39427   3.806   5.020  11.678  0.2295  1.3322 -0.1167
 1011MOL0     O39428   3.638   4.833  11.932  0.8004 -0.0289 -0.2804
 1011MOL0     C39429   3.392   4.715  11.900 -1.0442 -0.2180 -1.0626
 1011MOL0     C39430   3.259   4.671  11.904  0.4202  1.4649  0.7811
 1011MOL0     N39431   2.900   4.213  11.396 -0.3307 -0.4750 -0.5582
 1011MOL0     N39432   2.830   4.101  11.379 -0.1180  0.5721 -0.1134
 1011MOL0     C39433   2.241   4.572  11.623  0.6116  0.2125  0.4159
 1011MOL0     C39434   2.217   4.705  11.635  0.2490 -0.8373 -0.9221
 1011MOL0     C39435   2.083   5.117  11.528  0.1691 -0.1319 -0.4350
 1011MOL0     C39436   1.987   5.164  11.433 -0.2254 -0.0780 -0.2142
 1011MOL0     C39437   1.928   5.282  11.428  0.1208 -0.4921 -0.2670
 1011MOL0     C39438   1.973   5.375  11.526  0.2564  0.2435 -0.6895
 1011MOL0     O39439   1.910   5.496  11.526 -0.0396 -0.7589  0.2153
 1011MOL0     C39440   1.970   5.605  11.588 -0.5209 -1.6210  0.0269
 1011MOL0     C39441   2.096   5.663  11.525 -0.2293  0.0724  0.1454
 1011MOL0     C39442   2.136   5.803  11.579  0.6700  0.7885 -0.4364
 1011MOL0     C39443   2.230   5.881  11.486  1.1088  0.1506  0.4982
 1011MOL0     C39444   2.246   6.018  11.525  0.4935  1.2219 -0.3436
 1011MOL0     C39445   2.279   6.129  11.569  1.0909 -0.5998  0.0632
 1011MOL0     C39446   2.077   5.336  11.614  0.3807 -0.8905  0.5384
 1011MOL0     C39447   2.141   5.211  11.612 -0.5973  0.8576  0.2369
 1011MOL0     C39448   2.244   5.176  11.715 -0.3588 -0.1930 -0.2893
 1011MOL0     H39449   1.898   4.735  11.733  0.1733 -0.4269  0.9730
 1011MOL0     H39450   1.920   4.501  11.729 -1.3162  0.4343 -1.9820
 1011MOL0     H39451   2.334   4.333  11.666  3.1714 -0.9590 -5.0219
 1011MOL0     H39452   2.268   4.295  11.516 -2.0137  2.1009 -0.3115
 1011MOL0     H39453   2.251   4.123  11.768  0.4517 -1.1237 -1.5645
 1011MOL0     H39454   2.162   4.071  11.618  0.3034 -3.7849  0.4568
 1011MOL0     H39455   2.342   4.047  11.501  1.1426 -2.1175 -0.3582
 1011MOL0     H39456   2.451   4.140  11.620  0.5626 -2.0245  5.7850
 1011MOL0     H39457   2.403   3.951  11.777 -0.3183  0.7058 -0.1480
 1011MOL0     H39458   2.301   3.870  11.662  0.4752 -0.1651  0.3872
 1011MOL0     H39459   2.527   3.884  11.522  0.2209 -1.7977 -0.3486
 1011MOL0     H39460   2.491   3.760  11.629  2.0321 -0.5375  0.5903
 1011MOL0     H39461   2.645   4.019  11.678  1.2201  0.0802 -1.3876
 1011MOL0     H39462   2.624   3.886  11.800  3.0835  1.2117  0.2721
 1011MOL0     H39463   2.759   3.730  11.658  1.2474 -0.2224  0.7218
 1011MOL0     H39464   2.842   3.871  11.701 -1.7401  1.8192  0.4073
 1011MOL0     H39465   2.904   3.825  11.499  1.1218  2.7948 -0.6105
 1011MOL0     H39466   2.749   3.843  11.421  0.2090  1.3202 -1.1679
 1011MOL0     H39467   2.978   4.052  11.661 -0.0011  1.2285  0.8048
 1011MOL0     H39468   3.111   4.360  11.512 -1.0497  1.1957  0.4025
 1011MOL0     H39469   3.108   4.258  11.656 -2.7911 -4.3221 -0.8317
 1011MOL0     H39470   2.881   4.445  11.554 -3.4883 -3.8417  0.7980
 1011MOL0     H39471   2.880   4.368  11.712 -2.3085  3.1452 -0.3446
 1011MOL0     H39472   3.077   4.475  11.798  0.2213 -1.7126 -0.4436
 1011MOL0     H39473   3.118   4.547  11.646  0.6888 -1.3182  0.2013
 1011MOL0     H39474   2.989   4.714  11.656 -0.3807  0.7945 -0.3619
 1011MOL0     H39475   2.859   4.638  11.747  0.0947  1.4481 -0.7492
 1011MOL0     H39476   3.108   4.899  11.729  0.0413 -2.6649 -2.6218
 1011MOL0     H39477   3.386   5.113  11.767  0.4355 -2.4277  2.7439
 1011MOL0     H39478   3.240   5.069  11.667  0.1280 -3.3892 -1.1410
 1011MOL0     H39479   3.395   5.012  11.623 -1.1564  1.6938 -1.7643
 1011MOL0     H39480   3.686   5.120  11.976  0.9666  0.5521  0.3753
 1011MOL0     H39481   3.914   5.202  12.002 -1.7653 -0.8484  0.3462
 1011MOL0     H39482   4.207   4.988  11.757 -2.0657  0.1516  0.4980
 1011MOL0     H39483   4.241   5.138  11.673  0.3418 -1.5917 -1.4475
 1011MOL0     H39484   4.357   5.226  11.856 -2.6989  0.8949 -2.2381
 1011MOL0     H39485   4.331   5.083  11.960 -0.1429  2.2150  1.7400
 1011MOL0     H39486   4.428   4.957  11.749  0.0674  1.2415 -4.3639
 1011MOL0     H39487   4.529   5.018  11.883  1.5149  2.5188 -1.1594
 1011MOL0     H39488   4.575   5.237  11.757  0.8248  0.3823  0.3573
 1011MOL0     H39489   4.485   5.186  11.626  1.1392  2.4131  0.4004
 1011MOL0     H39490   4.643   4.971  11.619  0.3504 -0.1821  0.8392
 1011MOL0     H39491   4.688   5.121  11.560  1.5320 -2.1074 -0.5830
 1011MOL0     H39492   4.775   5.134  11.828  1.3359 -0.1579 -0.4410
 1011MOL0     H39493   4.863   5.138  11.676 -0.6939 -3.2739 -2.0384
 1011MOL0     H39494   4.938   4.923  11.687  1.1770 -0.6197 -0.2257
 1011MOL0     H39495   4.778   4.876  11.759  1.4748 -0.8924  2.5043
 1011MOL0     H39496   4.854   4.985  11.977 -1.1076  1.7736 -1.8404
 1011MOL0     H39497   5.017   4.978  11.901 -0.8764 -0.2608 -3.3277
 1011MOL0     H39498   4.001   5.057  11.610  0.3559 -0.1177 -0.5565
 1011MOL0     H39499   3.761   4.973  11.591  1.9132 -2.7772  1.0052
 1011MOL0     H39500   3.466   4.650  11.945  2.3651  2.3352 -2.5359
 1011MOL0     H39501   3.266   4.568  11.938  0.7745  0.9713 -0.7174
 1011MOL0     H39502   2.338   4.537  11.588  0.3148 -0.0821 -0.1273
 1011MOL0     H39503   2.304   4.766  11.615 -0.8854  1.3573  0.3536
 1011MOL0     H39504   1.940   5.095  11.365  1.6059 -1.6191  0.0001
 1011MOL0     H39505   1.855   5.320  11.357  0.3940 -0.1118 -0.3503
 1011MOL0     H39506   1.892   5.680  11.582  0.6051  0.2022  4.2336
 1011MOL0     H39507   1.982   5.591  11.696 -0.0496  0.2137  0.2432
 1011MOL0     H39508   2.086   5.659  11.416 -0.0134 -1.3394  0.1566
 1011MOL0     H39509   2.180   5.596  11.547  0.6958  1.2236  0.2052
 1011MOL0     H39510   2.048   5.866  11.565  0.0015 -0.3352 -1.6141
 1011MOL0     H39511   2.176   5.798  11.681  0.7597  2.4314 -0.3596
 1011MOL0     H39512   2.195   5.870  11.383  1.7658  4.1522 -0.3040
 1011MOL0     H39513   2.326   5.834  11.510  0.6306  0.1311  2.6216
 1011MOL0     H39514   2.303   6.225  11.609  0.9453  0.2330 -1.7717
 1011MOL0     H39515   2.115   5.406  11.687 -0.8690  1.6568 -1.1061
 1011MOL0     H39516   2.342   5.164  11.668  1.3136 -2.1112  3.3003
 1011MOL0     H39517   2.254   5.244  11.800  1.7706 -2.2348  1.1955
 1011MOL0     H39518   2.216   5.082  11.763 -1.2742  0.8377  1.3173
 1012MOL0     O39519   6.456   5.702   0.720 -0.2937 -0.0364 -0.9790
 1012MOL0     C39520   6.500   5.673   0.610  1.2243  0.9994  1.2287
 1012MOL0     O39521   6.595   5.587   0.575  0.5880 -0.8570 -0.3996
 1012MOL0     C39522   6.654   5.525   0.684 -0.6275  0.5307  0.7671
 1012MOL0     C39523   6.582   5.456   0.782 -0.8945  0.9318  0.2369
 1012MOL0     C39524   6.644   5.358   0.863  0.6189  0.1288 -0.8652
 1012MOL0     C39525   6.778   5.334   0.861  0.6888  0.0291  0.2671
 1012MOL0     O39526   6.858   5.258   0.953  0.6184 -0.0828 -0.5111
 1012MOL0     C39527   6.809   5.150   1.032  0.6036 -0.2195  0.9369
 1012MOL0     C39528   6.811   5.166   1.188  0.2964  0.7288  0.4676
 1012MOL0     C39529   6.947   5.170   1.262  0.3139  0.7138  0.8425
 1012MOL0     C39530   7.010   5.310   1.267  0.1548  0.1015 -0.0543
 1012MOL0     C39531   7.162   5.308   1.322  0.8175 -0.7224 -0.8494
 1012MOL0     C39532   7.234   5.440   1.296  0.8710  0.2670  0.5741
 1012MOL0     C39533   7.258   5.467   1.146 -0.5575  0.3481 -0.9615
 1012MOL0     C39534   7.381   5.395   1.093  0.8220  0.4632 -0.1423
 1012MOL0     N39535   7.375   5.386   0.946  0.8661 -0.3372 -0.0147
 1012MOL0     C39536   7.265   5.373   0.862 -0.0001 -0.3930  0.2867
 1012MOL0     C39537   7.308   5.366   0.740 -0.1997  1.0509  0.1268
 1012MOL0     C39538   7.239   5.341   0.608 -0.7055  0.2926 -0.0558
 1012MOL0     C39539   7.243   5.193   0.570 -0.6033  0.8081 -0.6478
 1012MOL0     C39540   7.192   5.089   0.673 -0.9671  0.2782  0.2734
 1012MOL0     C39541   7.031   5.104   0.709  0.0318 -0.4086  0.1103
 1012MOL0     O39542   6.944   5.124   0.592  0.1033  0.3396  0.2990
 1012MOL0     C39543   6.922   5.017   0.513  0.3904 -0.8767  0.0780
 1012MOL0     C39544   6.826   5.018   0.415 -0.2063  0.7021  0.8789
 1012MOL0     C39545   6.789   4.906   0.332 -0.5640 -0.0797 -0.3450
 1012MOL0     C39546   6.686   4.922   0.222  0.5210  0.0061  1.0024
 1012MOL0     C39547   6.866   4.789   0.347 -0.1829 -0.3016  0.0853
 1012MOL0     C39548   6.886   4.678   0.243  0.0207  1.1172  0.8802
 1012MOL0     O39549   6.997   4.598   0.256 -0.6489  0.5437 -0.2162
 1012MOL0     C39550   7.029   4.531   0.146  0.0885 -0.5435  0.4525
 1012MOL0     C39551   7.136   4.577   0.073 -0.4545  0.1796 -0.2124
 1012MOL0     C39552   7.201   4.491  -0.020 -0.4271 -0.3647 -0.9716
 1012MOL0     C39553   7.143   4.377  -0.075  0.6391  0.2395 -0.1661
 1012MOL0     O39554   7.216   4.311  -0.176  0.9260 -0.3928  0.7860
 1012MOL0     C39555   7.173   4.190  -0.228 -0.9185 -0.1339  0.3289
 1012MOL0     C39556   7.293   4.134  -0.304 -0.0702 -0.7799  0.0691
 1012MOL0     C39557   7.243   4.024  -0.397  0.9063 -0.6607  0.7466
 1012MOL0     C39558   7.290   3.881  -0.363  1.0886  0.3881 -0.8420
 1012MOL0     C39559   7.252   3.793  -0.482  0.8835  0.4890  0.5691
 1012MOL0     C39560   7.276   3.645  -0.452  0.5571 -0.5610  0.7457
 1012MOL0     C39561   7.190   3.550  -0.542  0.0563 -0.2565  0.2794
 1012MOL0     C39562   7.065   3.500  -0.468  0.1555  0.4146  0.0314
 1012MOL0    Cl39563   6.944   3.643  -0.474 -0.0131 -0.3448  0.4479
 1012MOL0     C39564   7.012   4.343  -0.018  0.0989 -0.8228 -0.8734
 1012MOL0     C39565   6.969   4.411   0.105  0.3250 -0.3346 -0.2949
 1012MOL0     O39566   6.802   4.662   0.159  0.2999  0.0881 -0.3417
 1012MOL0     C39567   6.945   4.784   0.458 -0.1684  0.3562 -0.1076
 1012MOL0     C39568   6.981   4.894   0.537 -0.8849  0.0641  0.0304
 1012MOL0     N39569   7.450   5.362   0.748  0.7516 -0.3453  0.1946
 1012MOL0     N39570   7.485   5.391   0.870 -0.0014 -0.1311 -0.1188
 1012MOL0     C39571   6.842   5.403   0.763 -1.5328  0.2146  0.6720
 1012MOL0     C39572   6.786   5.488   0.672 -0.3956 -1.1756 -0.1919
 1012MOL0     C39573   6.430   5.740   0.489  0.1442  0.6724 -0.6453
 1012MOL0     C39574   6.470   5.693   0.365 -0.6186 -0.0946  0.4831
 1012MOL0     C39575   6.430   5.753   0.244 -0.1494 -0.7944 -0.2654
 1012MOL0     C39576   6.323   5.846   0.258  0.1279 -0.3876  0.7495
 1012MOL0     O39577   6.268   5.905   0.150  0.3994  0.3606 -0.7083
 1012MOL0     C39578   6.211   5.812   0.047 -0.8829 -0.5603  0.1241
 1012MOL0     C39579   6.063   5.851   0.038  0.0416  0.6130  0.2523
 1012MOL0     C39580   6.032   5.953  -0.074  0.3865  0.0055 -0.0827
 1012MOL0     C39581   6.136   6.051  -0.128 -0.0127 -0.3833  0.0825
 1012MOL0     C39582   6.225   5.999  -0.232 -0.0974  0.1686 -0.1977
 1012MOL0     C39583   6.306   5.953  -0.308 -0.2698  0.1273  1.2395
 1012MOL0     C39584   6.269   5.875   0.386 -0.0648 -0.0562 -0.0774
 1012MOL0     C39585   6.326   5.837   0.502  0.0362 -0.3900 -0.1729
 1012MOL0     C39586   6.265   5.885   0.627 -0.1136 -0.0252 -0.0023
 1012MOL0     H39587   6.475   5.464   0.799 -1.0635 -0.8129  0.2109
 1012MOL0     H39588   6.586   5.300   0.934 -0.9839  1.7246 -0.8042
 1012MOL0     H39589   6.877   5.070   1.003 -0.1617  0.0970 -2.0856
 1012MOL0     H39590   6.710   5.119   0.996  1.2220  1.4208 -2.5933
 1012MOL0     H39591   6.752   5.257   1.205 -3.4542 -1.5080  0.5194
 1012MOL0     H39592   6.759   5.086   1.242 -0.1670 -0.3755 -1.4899
 1012MOL0     H39593   6.933   5.121   1.359 -4.5762  1.1715  0.6440
 1012MOL0     H39594   7.015   5.104   1.207 -0.2854  1.4487 -0.8748
 1012MOL0     H39595   6.996   5.356   1.169 -1.0505  4.1629  1.8209
 1012MOL0     H39596   6.959   5.377   1.337  0.1402  0.8835 -0.8066
 1012MOL0     H39597   7.220   5.227   1.278 -2.6689 -4.0216  0.0692
 1012MOL0     H39598   7.158   5.287   1.429  1.1812 -3.1118 -1.2659
 1012MOL0     H39599   7.154   5.508   1.323  1.4285 -0.1030  3.5426
 1012MOL0     H39600   7.316   5.467   1.364  2.5839  0.2242 -1.3780
 1012MOL0     H39601   7.263   5.576   1.143 -1.3954  0.7226  3.4339
 1012MOL0     H39602   7.168   5.431   1.096  0.3642 -2.6015 -0.6800
 1012MOL0     H39603   7.466   5.454   1.126  1.8600  0.1486 -2.0838
 1012MOL0     H39604   7.387   5.293   1.133  0.9890 -0.1362 -1.6100
 1012MOL0     H39605   7.160   5.382   0.890  0.2627  1.9708  0.7116
 1012MOL0     H39606   7.281   5.400   0.525 -0.5255 -1.7060 -1.4482
 1012MOL0     H39607   7.140   5.385   0.624 -0.1870  2.2959 -1.8223
 1012MOL0     H39608   7.197   5.177   0.472  1.8430 -1.2280 -1.5790
 1012MOL0     H39609   7.346   5.169   0.542 -1.7748 -2.0722 -2.8789
 1012MOL0     H39610   7.216   4.991   0.631  3.6278  0.8915  0.9646
 1012MOL0     H39611   7.256   5.106   0.760  1.0604 -1.8260 -0.6761
 1012MOL0     H39612   7.002   5.022   0.774 -2.3880  0.5580  0.3546
 1012MOL0     H39613   7.025   5.200   0.762 -1.2146  0.0255 -0.7481
 1012MOL0     H39614   6.766   5.108   0.403  1.3478  1.8098  1.1320
 1012MOL0     H39615   6.619   4.836   0.233 -0.9170  0.8658 -0.5275
 1012MOL0     H39616   6.735   4.936   0.125 -2.4133 -1.6424 -0.8852
 1012MOL0     H39617   6.638   5.018   0.243 -0.3680  0.6640 -3.1588
 1012MOL0     H39618   7.179   4.672   0.101 -2.0759  0.5710  1.0906
 1012MOL0     H39619   7.301   4.514  -0.056 -0.4858  2.0231  0.2372
 1012MOL0     H39620   7.146   4.128  -0.142 -3.1828 -1.5042 -1.2369
 1012MOL0     H39621   7.089   4.220  -0.291  1.7371  4.9458 -1.3260
 1012MOL0     H39622   7.336   4.215  -0.363 -0.6329 -1.7150 -1.7098
 1012MOL0     H39623   7.356   4.092  -0.225  1.6200  2.7107  0.7723
 1012MOL0     H39624   7.279   4.056  -0.495 -3.9254 -4.3761 -2.7572
 1012MOL0     H39625   7.134   4.016  -0.404  0.7375  0.2130  2.0179
 1012MOL0     H39626   7.242   3.855  -0.268  1.0280  1.1175 -0.6682
 1012MOL0     H39627   7.399   3.881  -0.349  1.0208  2.0181 -0.1149
 1012MOL0     H39628   7.147   3.808  -0.507  0.1603 -1.1646  2.4159
 1012MOL0     H39629   7.319   3.819  -0.564 -0.5913 -0.5471 -1.0258
 1012MOL0     H39630   7.262   3.615  -0.348  0.1227 -1.3533  0.4627
 1012MOL0     H39631   7.384   3.626  -0.461  1.0334  0.1327  3.9244
 1012MOL0     H39632   7.259   3.466  -0.555 -1.0239 -1.1042 -0.2012
 1012MOL0     H39633   7.170   3.590  -0.642  0.6349  0.6281  0.5105
 1012MOL0     H39634   7.089   3.459  -0.370 -1.2943 -2.0156 -0.5440
 1012MOL0     H39635   7.027   3.407  -0.512  2.9134  0.0576 -1.8799
 1012MOL0     H39636   6.936   4.279  -0.062 -2.2760  2.2364 -1.5835
 1012MOL0     H39637   6.879   4.385   0.160  0.5238  1.9671  1.2845
 1012MOL0     H39638   6.985   4.687   0.485  2.7656  1.2920 -0.7500
 1012MOL0     H39639   7.049   4.872   0.619  0.8130  1.0318 -1.0592
 1012MOL0     H39640   6.949   5.383   0.765 -1.5725 -0.3525 -0.9824
 1012MOL0     H39641   6.840   5.519   0.583 -3.5551  0.2690 -1.7433
 1012MOL0     H39642   6.538   5.608   0.354 -0.0646  0.3194  0.6418
 1012MOL0     H39643   6.467   5.713   0.150 -2.4887 -0.6028 -1.3225
 1012MOL0     H39644   6.252   5.835  -0.052 -2.8313 -1.1162 -0.8520
 1012MOL0     H39645   6.253   5.714   0.073  5.3559  1.1041 -1.8498
 1012MOL0     H39646   6.023   5.883   0.135 -2.1696  1.0743 -0.7460
 1012MOL0     H39647   6.013   5.756   0.016 -1.1550  1.7986 -2.7340
 1012MOL0     H39648   5.983   5.907  -0.160 -2.8789 -0.5585  1.8842
 1012MOL0     H39649   5.946   6.008  -0.034  0.4433 -0.9907  1.5444
 1012MOL0     H39650   6.201   6.071  -0.042 -0.4446  2.1645 -0.1252
 1012MOL0     H39651   6.086   6.145  -0.152 -0.2427 -1.1275 -2.6501
 1012MOL0     H39652   6.367   5.912  -0.386 -2.9615 -1.3085 -0.2739
 1012MOL0     H39653   6.174   5.926   0.389 -1.9264 -2.9907 -2.7502
 1012MOL0     H39654   6.231   5.795   0.679 -2.6077 -0.1342 -1.6282
 1012MOL0     H39655   6.327   5.946   0.694 -0.8547  2.4310 -1.4306
 1012MOL0     H39656   6.170   5.939   0.623 -0.6347 -0.4042  3.5425
 1013MOL0     O39657  10.038   6.803   0.228  0.7887 -0.2906  0.0394
 1013MOL0     C39658  10.067   6.852   0.117  0.0608 -0.1080  0.4763
 1013MOL0     O39659  10.098   6.781   0.007 -1.2383 -0.2995  0.3375
 1013MOL0     C39660  10.068   6.655   0.006  0.3285 -0.5858  0.0794
 1013MOL0     C39661  10.177   6.569   0.045 -0.0711  0.0999 -0.0660
 1013MOL0     C39662  10.154   6.431   0.063  0.4400 -0.3861  0.4835
 1013MOL0     C39663  10.030   6.377   0.043 -0.1213  0.6095 -0.4108
 1013MOL0     O39664   9.993   6.251   0.090 -0.3821  0.0195 -0.6101
 1013MOL0     C39665   9.942   6.158  -0.005 -0.7167 -0.0054  0.2535
 1013MOL0     C39666  10.038   6.043  -0.036  0.2900 -0.5974 -0.1343
 1013MOL0     C39667  10.050   5.950   0.082  0.6400 -0.1785  0.6606
 1013MOL0     C39668  10.178   5.984   0.164  0.0309 -0.3196  1.1999
 1013MOL0     C39669  10.211   5.858   0.240 -0.5913  0.5399 -0.4952
 1013MOL0     C39670  10.315   5.876   0.349  0.2038  1.0748  0.5327
 1013MOL0     C39671  10.372   5.740   0.404 -0.5567  0.2837  0.2946
 1013MOL0     C39672  10.479   5.687   0.308  0.0886  0.5123  0.8054
 1013MOL0     N39673  10.583   5.779   0.272 -0.3199 -0.8388  0.2649
 1013MOL0     C39674  10.685   5.830   0.353  0.5779  1.2311  0.3605
 1013MOL0     C39675  10.757   5.918   0.283 -0.9919  0.7770 -0.4053
 1013MOL0     C39676  10.876   5.992   0.329 -0.7784 -0.3983 -0.1883
 1013MOL0     C39677  11.005   5.919   0.284  0.1965  0.1562 -0.8262
 1013MOL0     C39678  11.115   6.012   0.283  0.2019  0.2222 -0.7940
 1013MOL0     C39679  11.243   5.932   0.242  0.0304 -0.3666 -1.1670
 1013MOL0     O39680  11.252   5.882   0.112 -0.5436  0.2368  0.4849
 1013MOL0     C39681  11.357   5.800   0.091 -0.2092  0.9229  0.2538
 1013MOL0     C39682  11.484   5.826   0.145 -0.3187  0.1057 -0.1991
 1013MOL0     C39683  11.600   5.742   0.144  0.9106 -0.6827  0.1325
 1013MOL0     C39684  11.720   5.779   0.222 -0.3161  0.4953 -0.1633
 1013MOL0     C39685  11.589   5.630   0.058 -0.0214  1.0076 -0.9973
 1013MOL0     C39686  11.696   5.524   0.023  0.5247 -0.9863  0.6627
 1013MOL0     O39687  11.823   5.570   0.036 -0.3132  0.7070 -0.4474
 1013MOL0     C39688  11.929   5.490   0.022 -0.1647  1.5194 -0.5450
 1013MOL0     C39689  11.983   5.483  -0.099 -0.5570 -0.3810 -0.7389
 1013MOL0     C39690  12.091   5.391  -0.117 -0.3530  0.3057 -0.7752
 1013MOL0     C39691  12.145   5.315  -0.014  0.4689 -0.2383 -0.2097
 1013MOL0     O39692  12.250   5.241  -0.050  0.0891 -0.0671  0.0137
 1013MOL0     C39693  12.332   5.192   0.064  0.5385 -0.7476 -0.0493
 1013MOL0     C39694  12.482   5.174   0.024 -0.1422  0.1879 -0.0877
 1013MOL0     C39695  12.578   5.272   0.086 -1.1862  1.1650 -0.4466
 1013MOL0     C39696  12.726   5.237   0.047  1.3030  1.0538  0.1102
 1013MOL0     C39697  12.840   5.322   0.085 -0.8632 -1.1293  0.0660
 1013MOL0     C39698  12.986   5.243   0.070 -1.1155 -0.0974 -0.0303
 1013MOL0     C39699  13.008   5.221  -0.078 -0.8593 -0.5299 -0.1981
 1013MOL0     C39700  13.150   5.186  -0.110  0.0106  0.2631  0.7429
 1013MOL0    Cl39701  13.158   5.148  -0.283  0.0108  0.3137  0.3223
 1013MOL0     C39702  12.071   5.306   0.101  0.1164 -0.0293 -0.0467
 1013MOL0     C39703  11.968   5.394   0.122  0.2185  0.3837 -0.6363
 1013MOL0     O39704  11.656   5.409  -0.020 -0.4032  1.2726 -0.6585
 1013MOL0     C39705  11.456   5.602  -0.008  0.9807 -0.7087  0.6754
 1013MOL0     C39706  11.344   5.691   0.011 -0.4483 -0.3890 -0.5170
 1013MOL0     N39707  10.700   5.932   0.158 -0.5508 -0.0141  0.0821
 1013MOL0     N39708  10.612   5.836   0.148  0.2869 -0.3250  0.1359
 1013MOL0     C39709   9.925   6.461  -0.011 -0.4345 -0.7793 -0.4490
 1013MOL0     C39710   9.946   6.596  -0.027 -0.0922 -0.5620 -0.4738
 1013MOL0     C39711  10.043   7.003   0.097 -0.6450  1.0327  0.1169
 1013MOL0     C39712  10.037   7.048  -0.036  0.2634 -0.4239  0.0289
 1013MOL0     C39713  10.022   7.193  -0.062  0.6647  0.7041 -0.2548
 1013MOL0     C39714  10.006   7.280   0.044 -0.2947  0.6389 -0.4894
 1013MOL0     O39715   9.976   7.407   0.004  0.2519  0.5486  0.5856
 1013MOL0     C39716   9.937   7.512   0.100  0.7653  0.4281  0.7401
 1013MOL0     C39717   9.806   7.467   0.164  0.8260 -0.1833 -0.4925
 1013MOL0     C39718   9.723   7.583   0.219  0.6692 -0.7994 -0.0963
 1013MOL0     C39719   9.618   7.530   0.324 -0.2398  0.6737 -0.0194
 1013MOL0     C39720   9.548   7.628   0.399  0.2266  0.4477  1.1311
 1013MOL0     C39721   9.481   7.710   0.449  0.2971  0.2293  0.0268
 1013MOL0     C39722  10.019   7.227   0.173  0.3056  0.0015 -0.1070
 1013MOL0     C39723  10.036   7.093   0.203  0.6170 -0.1288  0.2548
 1013MOL0     C39724  10.063   7.071   0.347 -0.1034 -1.0263 -0.0027
 1013MOL0     H39725  10.277   6.611   0.053  0.4554 -1.4189  2.0757
 1013MOL0     H39726  10.232   6.364   0.096  0.3214 -2.0514 -2.2340
 1013MOL0     H39727   9.910   6.212  -0.094  0.8929 -2.2722 -1.8093
 1013MOL0     H39728   9.853   6.111   0.037 -1.4819 -0.6188 -1.9581
 1013MOL0     H39729   9.978   5.992  -0.112 -2.2859  1.8004  0.1255
 1013MOL0     H39730  10.128   6.088  -0.080  0.0865  1.7961  1.7212
 1013MOL0     H39731   9.968   5.960   0.153 -2.6644  5.7552 -3.1321
 1013MOL0     H39732  10.044   5.850   0.038  1.0267 -0.0319  0.2612
 1013MOL0     H39733  10.270   6.011   0.110  0.8270 -0.5577  2.3931
 1013MOL0     H39734  10.152   6.061   0.237 -2.0469 -0.8115  1.0392
 1013MOL0     H39735  10.257   5.786   0.172  3.6922  2.1096  0.4393
 1013MOL0     H39736  10.123   5.811   0.284  0.2478  1.1401  2.0089
 1013MOL0     H39737  10.394   5.940   0.308  0.4561  2.5369  3.0582
 1013MOL0     H39738  10.278   5.926   0.440  1.1775 -0.5080  1.8658
 1013MOL0     H39739  10.290   5.670   0.421  1.0421 -1.7157  0.1858
 1013MOL0     H39740  10.420   5.762   0.500  0.4261 -1.6331  0.2975
 1013MOL0     H39741  10.535   5.606   0.357  1.3504  3.4428  4.7350
 1013MOL0     H39742  10.439   5.653   0.212  0.0160  3.0417 -0.1296
 1013MOL0     H39743  10.703   5.812   0.459 -1.5983  1.3835  0.7951
 1013MOL0     H39744  10.871   6.005   0.437  3.6765  1.5337  0.0279
 1013MOL0     H39745  10.877   6.098   0.299  1.8204 -0.1235  0.6478
 1013MOL0     H39746  11.023   5.838   0.355 -1.3899 -2.4516 -3.2209
 1013MOL0     H39747  10.990   5.870   0.188 -0.9843 -3.1974  0.9040
 1013MOL0     H39748  11.088   6.095   0.217  0.9336 -1.1624 -2.9630
 1013MOL0     H39749  11.135   6.037   0.387  1.1279 -1.9187 -0.3883
 1013MOL0     H39750  11.325   6.002   0.261  1.1003 -1.7346 -0.5800
 1013MOL0     H39751  11.262   5.844   0.304 -0.4751 -0.1073 -0.6320
 1013MOL0     H39752  11.485   5.926   0.188 -3.4059  0.9842 -1.8954
 1013MOL0     H39753  11.779   5.849   0.161 -1.0059 -0.6020 -2.1972
 1013MOL0     H39754  11.784   5.694   0.244  1.2286  0.8763 -2.7857
 1013MOL0     H39755  11.703   5.831   0.317 -0.1589  4.1986 -1.9647
 1013MOL0     H39756  11.949   5.547  -0.180 -0.0920 -0.0122 -0.6463
 1013MOL0     H39757  12.134   5.402  -0.216  1.4373 -1.0880 -0.2150
 1013MOL0     H39758  12.338   5.270   0.140 -0.5363 -3.8418  3.4759
 1013MOL0     H39759  12.309   5.094   0.107 -1.2921  0.7399  2.6457
 1013MOL0     H39760  12.507   5.073   0.058  2.4436  1.3577  1.8686
 1013MOL0     H39761  12.496   5.177  -0.085  2.1058  2.2105  0.1650
 1013MOL0     H39762  12.570   5.252   0.194 -0.2007 -3.4829 -0.9921
 1013MOL0     H39763  12.552   5.376   0.068  1.2468  1.3228 -4.0656
 1013MOL0     H39764  12.719   5.224  -0.062 -3.6026 -2.6212  0.5597
 1013MOL0     H39765  12.740   5.143   0.100 -1.2564 -0.1211 -1.1393
 1013MOL0     H39766  12.839   5.415   0.026  3.6944  0.2240  1.6934
 1013MOL0     H39767  12.840   5.368   0.184 -2.3975  1.0712 -0.8722
 1013MOL0     H39768  12.993   5.152   0.130  0.4087 -0.3617 -0.5666
 1013MOL0     H39769  13.059   5.311   0.115 -1.4485 -0.6594  1.4378
 1013MOL0     H39770  12.986   5.310  -0.138 -1.6146  1.0783  2.3138
 1013MOL0     H39771  12.957   5.134  -0.121  2.0710 -3.4883  1.8566
 1013MOL0     H39772  13.179   5.094  -0.058  0.1502  0.2279  0.6045
 1013MOL0     H39773  13.208   5.276  -0.087 -1.8127  2.1414 -1.4628
 1013MOL0     H39774  12.093   5.241   0.186  0.0976 -0.4297 -0.3444
 1013MOL0     H39775  11.903   5.404   0.209 -0.7592 -0.9725 -1.1736
 1013MOL0     H39776  11.444   5.525  -0.083 -0.3685  1.2113 -1.1661
 1013MOL0     H39777  11.249   5.670  -0.037 -2.7838  1.0829  3.0383
 1013MOL0     H39778   9.828   6.420  -0.036  0.1114 -0.5590 -3.2702
 1013MOL0     H39779   9.851   6.644  -0.048 -1.1153 -1.2892  2.0401
 1013MOL0     H39780  10.032   6.986  -0.125 -0.0846 -3.0282  1.7327
 1013MOL0     H39781  10.029   7.227  -0.165  2.1097  1.5395  0.0816
 1013MOL0     H39782  10.013   7.537   0.174  0.5509 -2.3192  2.0127
 1013MOL0     H39783   9.903   7.597   0.040  1.7749  2.6212  3.1136
 1013MOL0     H39784   9.829   7.400   0.247  3.5065 -0.4565 -1.3804
 1013MOL0     H39785   9.742   7.417   0.091 -3.9559  4.0587  0.1476
 1013MOL0     H39786   9.783   7.657   0.273 -2.2398  3.4120 -2.1807
 1013MOL0     H39787   9.675   7.636   0.137 -0.3945 -0.5820  0.6475
 1013MOL0     H39788   9.664   7.451   0.383 -0.2718 -0.8546 -1.9567
 1013MOL0     H39789   9.538   7.483   0.266 -0.6848  1.0177  0.3100
 1013MOL0     H39790   9.440   7.790   0.508  1.2933  2.5097 -2.1980
 1013MOL0     H39791  10.007   7.299   0.253 -4.1882 -0.5884  0.0250
 1013MOL0     H39792  10.076   6.966   0.374  0.2408 -2.1082 -3.8031
 1013MOL0     H39793  10.147   7.123   0.395  0.9976 -2.5324 -0.2334
 1013MOL0     H39794   9.971   7.098   0.400 -0.6663 -3.9310  0.6672
 1014MOL0     O39795   3.532   3.575   7.866 -0.0554 -0.5252  0.4148
 1014MOL0     C39796   3.605   3.551   7.774 -0.3212  0.4201  0.1295
 1014MOL0     O39797   3.625   3.622   7.653  1.0200  0.4193  0.0433
 1014MOL0     C39798   3.570   3.745   7.645 -0.1406  0.1267 -0.5208
 1014MOL0     C39799   3.614   3.856   7.722 -0.0965  0.0713  0.2099
 1014MOL0     C39800   3.569   3.989   7.689 -0.4214  0.6824 -0.5807
 1014MOL0     C39801   3.460   4.002   7.598  0.8698 -0.9238  0.3404
 1014MOL0     O39802   3.404   4.126   7.564  0.4689 -0.0282 -0.5385
 1014MOL0     C39803   3.466   4.245   7.626 -0.9218  1.2086  0.1645
 1014MOL0     C39804   3.379   4.368   7.583  0.5095 -0.2613 -1.4317
 1014MOL0     C39805   3.225   4.344   7.598 -0.1266  0.3431 -0.1631
 1014MOL0     C39806   3.153   4.484   7.604 -0.8281  0.0774  0.6403
 1014MOL0     C39807   3.009   4.462   7.550 -1.3196  0.3256  0.3351
 1014MOL0     C39808   2.915   4.587   7.560 -0.1435 -0.0451  0.9977
 1014MOL0     C39809   2.767   4.583   7.514  0.8675 -0.0771 -0.2356
 1014MOL0     C39810   2.743   4.514   7.379  1.3755 -0.0577 -0.3051
 1014MOL0     N39811   2.700   4.373   7.398 -0.0390 -0.6908 -0.0476
 1014MOL0     C39812   2.736   4.278   7.495 -0.2923 -1.4200 -0.4499
 1014MOL0     C39813   2.697   4.157   7.452  0.0510  0.6298  0.1673
 1014MOL0     C39814   2.717   4.021   7.517  0.5793 -0.1615 -0.2160
 1014MOL0     C39815   2.634   4.002   7.648  0.1353 -0.5843  0.7835
 1014MOL0     C39816   2.638   3.863   7.711 -0.3064 -0.0907  0.5239
 1014MOL0     C39817   2.787   3.815   7.715  0.5504 -0.2556 -0.3227
 1014MOL0     O39818   2.782   3.688   7.789  0.1644  0.0435 -0.3459
 1014MOL0     C39819   2.871   3.596   7.749  0.4375  0.3308  0.3333
 1014MOL0     C39820   3.008   3.620   7.725  0.8740 -0.4388 -1.1135
 1014MOL0     C39821   3.105   3.521   7.709 -0.1822 -0.6199 -0.3282
 1014MOL0     C39822   3.252   3.553   7.701  0.1529  0.0748 -0.0144
 1014MOL0     C39823   3.064   3.387   7.718  0.4137 -0.7458  0.1823
 1014MOL0     C39824   3.155   3.265   7.708 -0.3544 -0.1259  0.0168
 1014MOL0     O39825   3.256   3.270   7.624 -0.4309  0.3349 -0.7059
 1014MOL0     C39826   3.330   3.151   7.599 -0.6914 -0.5145  0.1062
 1014MOL0     C39827   3.414   3.104   7.702  0.7493 -0.4641  0.7458
 1014MOL0     C39828   3.479   2.985   7.691  0.8514 -0.0813  0.5961
 1014MOL0     C39829   3.491   2.924   7.566 -0.3664  0.5721 -0.3692
 1014MOL0     O39830   3.537   2.796   7.544  0.2037 -0.0280 -0.1467
 1014MOL0     C39831   3.545   2.711   7.653 -1.1961 -0.2762  0.3552
 1014MOL0     C39832   3.624   2.581   7.607 -0.1321 -0.4081  0.2246
 1014MOL0     C39833   3.536   2.486   7.527  0.0157 -0.8156 -0.0075
 1014MOL0     C39834   3.619   2.360   7.486  0.6516  0.6517 -0.2800
 1014MOL0     C39835   3.596   2.309   7.344 -0.0465 -0.3420 -0.7313
 1014MOL0     C39836   3.442   2.298   7.302  0.1952  0.7987 -1.5808
 1014MOL0     C39837   3.357   2.230   7.414  0.2339  0.1150  0.8033
 1014MOL0     C39838   3.207   2.223   7.383  0.3271 -0.7028  0.1816
 1014MOL0    Cl39839   3.119   2.241   7.537  0.3183 -0.1264 -0.2142
 1014MOL0     C39840   3.425   2.979   7.451  0.6633 -0.3682  0.1233
 1014MOL0     C39841   3.347   3.098   7.465 -0.7620 -0.4124 -0.8508
 1014MOL0     O39842   3.110   3.153   7.750  0.1009  0.9902  0.1896
 1014MOL0     C39843   2.928   3.361   7.747 -0.5591 -0.3859 -1.1688
 1014MOL0     C39844   2.831   3.455   7.759  0.3327  0.3299  0.4145
 1014MOL0     N39845   2.626   4.172   7.335  0.0991  0.2295  0.6960
 1014MOL0     N39846   2.648   4.298   7.291  1.0904  0.0316 -0.2745
 1014MOL0     C39847   3.420   3.890   7.522 -0.2888  0.1589 -0.1830
 1014MOL0     C39848   3.490   3.767   7.541  0.5134  0.0304 -0.1965
 1014MOL0     C39849   3.674   3.418   7.779  0.9451 -0.4677 -0.4959
 1014MOL0     C39850   3.720   3.368   7.905  0.4565 -0.9900 -0.4874
 1014MOL0     C39851   3.793   3.243   7.922 -0.6220 -0.8113  0.2400
 1014MOL0     C39852   3.810   3.156   7.816  0.6907  0.0733  0.6260
 1014MOL0     O39853   3.869   3.034   7.826  0.1520 -1.0736  0.2222
 1014MOL0     C39854   3.951   2.994   7.941  0.9699  0.5017  0.1763
 1014MOL0     C39855   3.868   2.885   8.020  0.0429 -0.1579  0.4008
 1014MOL0     C39856   3.834   2.757   7.943  0.2304  0.0026 -0.6509
 1014MOL0     C39857   3.736   2.663   8.030 -0.3564 -0.1566 -0.0917
 1014MOL0     C39858   3.603   2.722   8.034 -0.3353  0.4842  1.4956
 1014MOL0     C39859   3.498   2.786   8.017  0.5271  0.1660  0.4266
 1014MOL0     C39860   3.747   3.187   7.697  0.0825 -0.9110  0.1905
 1014MOL0     C39861   3.691   3.318   7.678  0.4840 -0.3561  0.0131
 1014MOL0     C39862   3.627   3.345   7.550 -0.4683  0.0567 -0.0364
 1014MOL0     H39863   3.660   3.838   7.818  0.4384  0.7825  0.0859
 1014MOL0     H39864   3.612   4.074   7.741 -1.5601  0.5990  0.5276
 1014MOL0     H39865   3.573   4.258   7.606 -0.6329  0.1854  0.9567
 1014MOL0     H39866   3.474   4.229   7.734  1.8757  1.2181  0.0213
 1014MOL0     H39867   3.401   4.449   7.653  1.1463  0.0282 -1.9527
 1014MOL0     H39868   3.416   4.399   7.484  1.5746  1.0247 -0.6709
 1014MOL0     H39869   3.191   4.282   7.514 -1.5603  0.5776  0.2182
 1014MOL0     H39870   3.204   4.295   7.694  1.7508  1.7555  1.0231
 1014MOL0     H39871   3.137   4.533   7.700  0.1594  0.7783  0.4639
 1014MOL0     H39872   3.201   4.562   7.544 -1.2217 -1.7332 -2.2139
 1014MOL0     H39873   2.964   4.388   7.617  0.0924  0.4224  1.4294
 1014MOL0     H39874   3.016   4.411   7.454  2.8158  0.1037  0.5714
 1014MOL0     H39875   2.910   4.625   7.663 -2.3108  1.6942  0.3269
 1014MOL0     H39876   2.947   4.670   7.497  0.1853 -1.0514 -0.1882
 1014MOL0     H39877   2.713   4.679   7.518 -2.7806 -1.9525  0.4230
 1014MOL0     H39878   2.718   4.522   7.590 -0.5176  0.9116 -0.2853
 1014MOL0     H39879   2.676   4.568   7.311  0.9243 -2.9060 -2.3153
 1014MOL0     H39880   2.831   4.523   7.315  1.5311  3.0639  0.1985
 1014MOL0     H39881   2.783   4.317   7.585  1.0396  0.4552 -1.8652
 1014MOL0     H39882   2.820   3.991   7.540 -0.1893 -1.8752  1.2013
 1014MOL0     H39883   2.685   3.946   7.445 -1.6372  1.4358 -1.0041
 1014MOL0     H39884   2.668   4.082   7.714  1.9276 -2.1990  1.9211
 1014MOL0     H39885   2.531   4.036   7.632  0.7462  0.7840 -0.3941
 1014MOL0     H39886   2.603   3.858   7.814  0.8572 -1.4940  0.8744
 1014MOL0     H39887   2.580   3.795   7.648  1.4592  0.2533 -1.6045
 1014MOL0     H39888   2.815   3.802   7.611 -0.0608  0.7379 -0.6274
 1014MOL0     H39889   2.855   3.886   7.764 -1.1549  0.3864  1.2552
 1014MOL0     H39890   3.034   3.723   7.747  0.3853 -0.6362  0.5044
 1014MOL0     H39891   3.302   3.500   7.782 -0.4743  0.1974  0.4622
 1014MOL0     H39892   3.254   3.662   7.702 -4.1448  0.3171  0.4422
 1014MOL0     H39893   3.296   3.515   7.608 -2.2063  0.9745 -1.6118
 1014MOL0     H39894   3.411   3.160   7.795  1.6919  4.9496 -2.0883
 1014MOL0     H39895   3.532   2.947   7.778  2.9954  1.7277  0.1556
 1014MOL0     H39896   3.614   2.765   7.719  3.9206  1.1464 -5.2634
 1014MOL0     H39897   3.449   2.679   7.695 -0.8661 -2.4487 -0.4108
 1014MOL0     H39898   3.718   2.614   7.563 -0.1089  0.0357  0.6075
 1014MOL0     H39899   3.669   2.520   7.686 -1.0170  0.1540  1.1912
 1014MOL0     H39900   3.494   2.533   7.438 -3.1060 -0.1954  1.6710
 1014MOL0     H39901   3.446   2.464   7.585 -0.5593 -0.6782 -0.8246
 1014MOL0     H39902   3.599   2.285   7.562 -0.2756  1.2030  0.0332
 1014MOL0     H39903   3.724   2.389   7.497  0.7400  0.2209  0.0081
 1014MOL0     H39904   3.646   2.379   7.276 -1.5297  3.6282  1.8890
 1014MOL0     H39905   3.645   2.211   7.342  4.6397  1.6613  1.9297
 1014MOL0     H39906   3.445   2.229   7.217  1.1090  0.1622 -1.0576
 1014MOL0     H39907   3.398   2.395   7.280 -3.7384  0.3103  2.6000
 1014MOL0     H39908   3.372   2.278   7.511  1.7494 -1.2434  1.2870
 1014MOL0     H39909   3.405   2.135   7.438 -0.9813 -0.4425  1.0780
 1014MOL0     H39910   3.191   2.132   7.323  1.1915 -0.5095 -0.3614
 1014MOL0     H39911   3.181   2.302   7.312 -3.3514 -2.5820 -0.8274
 1014MOL0     H39912   3.428   2.927   7.355 -4.4010 -0.0250 -0.4652
 1014MOL0     H39913   3.294   3.144   7.383 -0.2320  1.5002 -0.1766
 1014MOL0     H39914   2.894   3.258   7.759  1.2428 -0.8172  0.9668
 1014MOL0     H39915   2.729   3.428   7.784  0.2277 -0.4710 -0.7743
 1014MOL0     H39916   3.338   3.896   7.451  0.7040 -2.5310 -1.7224
 1014MOL0     H39917   3.453   3.686   7.480  0.1154 -0.4594  0.6768
 1014MOL0     H39918   3.713   3.448   7.978  1.7365 -0.5814 -0.7901
 1014MOL0     H39919   3.810   3.204   8.021 -0.2772  1.7740  1.2906
 1014MOL0     H39920   4.045   2.948   7.910  0.6361 -1.1257  1.4278
 1014MOL0     H39921   3.967   3.076   8.011 -1.3784  0.2004  1.1608
 1014MOL0     H39922   3.781   2.940   8.059  0.6937  3.9203 -3.1868
 1014MOL0     H39923   3.928   2.859   8.107 -1.0495  1.4381  1.6978
 1014MOL0     H39924   3.802   2.759   7.839 -4.0367  0.4711  0.4717
 1014MOL0     H39925   3.930   2.705   7.945  0.5658  0.6198  0.4625
 1014MOL0     H39926   3.782   2.642   8.127 -0.0280  0.9494  0.0040
 1014MOL0     H39927   3.739   2.568   7.977  1.1315 -0.1837  0.0016
 1014MOL0     H39928   3.410   2.846   8.008  1.3850  2.4451  4.6004
 1014MOL0     H39929   3.758   3.133   7.603 -2.5687 -0.7027 -0.3032
 1014MOL0     H39930   3.521   3.370   7.557 -1.3786 -2.3658 -2.8631
 1014MOL0     H39931   3.677   3.425   7.494 -0.9588  2.0838  2.2577
 1014MOL0     H39932   3.620   3.254   7.489 -0.1206 -0.4496  0.6762
 1015MOL0     O39933   5.625   3.277   0.517 -0.5717 -0.2119 -0.0193
 1015MOL0     C39934   5.632   3.340   0.407 -0.5095 -0.4636 -0.7329
 1015MOL0     O39935   5.540   3.345   0.308  0.0759  0.5028 -0.4841
 1015MOL0     C39936   5.414   3.320   0.352  0.8187  0.8094  0.4231
 1015MOL0     C39937   5.378   3.186   0.407 -0.5039  0.2048  0.0410
 1015MOL0     C39938   5.245   3.175   0.454 -0.2000  0.7818 -0.8200
 1015MOL0     C39939   5.154   3.277   0.450 -0.2251 -0.4792  0.6512
 1015MOL0     O39940   5.036   3.238   0.500  0.2036 -0.3817 -0.7459
 1015MOL0     C39941   4.918   3.322   0.500 -0.0506  0.3282 -1.4866
 1015MOL0     C39942   4.800   3.234   0.525  0.0303 -0.1709 -0.1312
 1015MOL0     C39943   4.795   3.182   0.668 -0.0861  0.5417 -0.7374
 1015MOL0     C39944   4.759   3.291   0.771  0.1182  0.9317 -0.1441
 1015MOL0     C39945   4.768   3.238   0.914 -0.5084 -0.5243 -0.3993
 1015MOL0     C39946   4.765   3.347   1.024 -0.8195  0.1598 -0.0245
 1015MOL0     C39947   4.893   3.422   1.045  0.3546  0.0183 -0.3536
 1015MOL0     C39948   4.902   3.500   1.177  0.1191 -0.5349  0.4159
 1015MOL0     N39949   5.018   3.595   1.187 -1.4556  0.3084 -0.8807
 1015MOL0     C39950   5.014   3.711   1.118 -0.1147 -1.2499 -0.2853
 1015MOL0     C39951   5.140   3.760   1.132 -0.7442 -0.0660  0.9591
 1015MOL0     C39952   5.189   3.896   1.099  0.1630 -0.6118  0.2554
 1015MOL0     C39953   5.223   3.979   1.223  0.8049  0.3076 -0.4025
 1015MOL0     C39954   5.110   3.996   1.327  0.3234  0.2441  0.8888
 1015MOL0     C39955   5.162   4.064   1.447 -0.0264 -0.1161  0.6941
 1015MOL0     O39956   5.054   4.092   1.549 -0.2901 -0.5992  0.5537
 1015MOL0     C39957   5.085   4.165   1.662  0.1198 -0.7417  0.7069
 1015MOL0     C39958   5.218   4.181   1.708 -0.1042  0.4129 -0.5465
 1015MOL0     C39959   5.263   4.259   1.813  0.2013 -0.4390 -0.0116
 1015MOL0     C39960   5.410   4.237   1.858 -0.0098 -0.2212 -0.0870
 1015MOL0     C39961   5.156   4.333   1.877  0.8433 -0.2346 -0.0191
 1015MOL0     C39962   5.176   4.430   1.994  0.3615  0.3992 -0.2455
 1015MOL0     O39963   5.064   4.494   2.021  0.3515 -0.1661  0.0055
 1015MOL0     C39964   5.049   4.589   2.114 -0.5188 -0.8277 -0.9877
 1015MOL0     C39965   4.946   4.585   2.208  0.7921 -0.7692  0.0542
 1015MOL0     C39966   4.937   4.700   2.296  0.0230  0.9401  0.6465
 1015MOL0     C39967   5.031   4.800   2.311  0.0501  0.1362  0.4458
 1015MOL0     O39968   5.031   4.896   2.406  1.2857  0.0841 -0.6526
 1015MOL0     C39969   4.897   4.924   2.460 -0.1734  0.3171 -0.0302
 1015MOL0     C39970   4.887   5.066   2.501  0.4395 -1.0683  0.5132
 1015MOL0     C39971   4.915   5.168   2.390  0.2801  0.1441 -0.3732
 1015MOL0     C39972   4.809   5.158   2.277  0.7811 -0.3544 -0.9511
 1015MOL0     C39973   4.858   5.248   2.165 -0.4066  0.7032  0.9797
 1015MOL0     C39974   4.740   5.259   2.065 -0.4840  0.6974  0.4947
 1015MOL0     C39975   4.766   5.374   1.959 -0.6367  0.3470 -0.3199
 1015MOL0     C39976   4.647   5.385   1.858  0.5792  0.5667 -0.7521
 1015MOL0    Cl39977   4.506   5.426   1.963  0.3413 -0.2988 -0.2803
 1015MOL0     C39978   5.145   4.790   2.226 -0.4032 -0.1752  0.1285
 1015MOL0     C39979   5.148   4.684   2.130  0.2699 -0.6249  0.1996
 1015MOL0     O39980   5.282   4.429   2.057  0.0517  0.3506 -0.3768
 1015MOL0     C39981   5.021   4.315   1.828 -0.4376  0.0973  0.8139
 1015MOL0     C39982   4.985   4.235   1.722  0.7113 -1.2423 -0.0127
 1015MOL0     N39983   5.225   3.655   1.156  0.0494 -0.8576  0.8739
 1015MOL0     N39984   5.152   3.555   1.188 -0.5750 -0.4371  0.5814
 1015MOL0     C39985   5.185   3.391   0.394  0.4644 -0.2063  0.2910
 1015MOL0     C39986   5.318   3.415   0.344  0.0075 -0.9456 -0.8244
 1015MOL0     C39987   5.749   3.430   0.394  0.1929  0.4409 -0.5277
 1015MOL0     C39988   5.879   3.372   0.397  0.6718 -0.4833 -0.5981
 1015MOL0     C39989   5.990   3.450   0.388  0.1043 -0.2083 -0.0911
 1015MOL0     C39990   5.975   3.591   0.382  0.4743 -0.0216  0.3152
 1015MOL0     O39991   6.093   3.661   0.352  0.4763 -0.6723  0.6661
 1015MOL0     C39992   6.199   3.657   0.452 -0.1544  1.2726  0.9860
 1015MOL0     C39993   6.323   3.652   0.369  0.7240  0.5297 -0.6195
 1015MOL0     C39994   6.366   3.792   0.305  0.2009  0.5793  0.5184
 1015MOL0     C39995   6.493   3.789   0.250 -1.5296  0.3944 -0.1320
 1015MOL0     C39996   6.602   3.776   0.347  0.1023  0.4030 -0.6942
 1015MOL0     C39997   6.687   3.774   0.433  0.2883  1.0593  0.2615
 1015MOL0     C39998   5.856   3.650   0.363  1.0264 -0.1312  1.7080
 1015MOL0     C39999   5.739   3.570   0.373 -0.9445 -0.3463  0.1741
 1015MOL0     C40000   5.601   3.633   0.370  0.1690 -0.2599 -0.0860
 1015MOL0     H40001   5.446   3.101   0.404  1.5104  1.7219 -3.0191
 1015MOL0     H40002   5.221   3.078   0.496 -3.1354  2.2070  1.1398
 1015MOL0     H40003   4.903   3.362   0.399 -3.6765 -1.5536 -1.8640
 1015MOL0     H40004   4.928   3.404   0.570 -3.0017 -1.5538  1.4062
 1015MOL0     H40005   4.705   3.287   0.518 -0.4185 -0.8768  0.3538
 1015MOL0     H40006   4.798   3.150   0.455  3.5518  0.4061 -1.0714
 1015MOL0     H40007   4.718   3.104   0.673 -1.1194  1.4913 -1.3002
 1015MOL0     H40008   4.892   3.139   0.695  0.9285  2.9166 -0.2835
 1015MOL0     H40009   4.823   3.378   0.754 -1.2870  1.8466 -0.9451
 1015MOL0     H40010   4.653   3.316   0.759 -0.8067 -2.1305  0.6825
 1015MOL0     H40011   4.860   3.180   0.914 -0.0517  0.1711 -0.9508
 1015MOL0     H40012   4.684   3.171   0.934 -0.4575 -0.1692  1.0953
 1015MOL0     H40013   4.690   3.425   1.005  0.4490  1.0376 -1.7591
 1015MOL0     H40014   4.757   3.297   1.121  1.2593  0.1309  0.1664
 1015MOL0     H40015   4.897   3.492   0.962 -1.0068 -0.2409 -0.6498
 1015MOL0     H40016   4.979   3.357   1.026  0.7569  0.1387  0.8921
 1015MOL0     H40017   4.812   3.561   1.186 -0.6571 -1.4081 -1.1066
 1015MOL0     H40018   4.913   3.429   1.260  0.6702  1.2519  1.9663
 1015MOL0     H40019   4.932   3.780   1.101 -0.0176 -0.9027  0.5832
 1015MOL0     H40020   5.118   3.953   1.038 -0.3212 -2.3899 -0.9262
 1015MOL0     H40021   5.277   3.893   1.034  0.2293 -0.4849  0.3384
 1015MOL0     H40022   5.314   3.935   1.263  0.3224 -0.2058  0.1580
 1015MOL0     H40023   5.250   4.079   1.186 -2.7263  1.9841  1.0017
 1015MOL0     H40024   5.030   4.060   1.289 -1.7754 -1.7961  1.5986
 1015MOL0     H40025   5.061   3.901   1.352  1.6673 -0.3155  1.5002
 1015MOL0     H40026   5.233   3.995   1.492 -1.7144 -0.3130  3.2548
 1015MOL0     H40027   5.221   4.153   1.422  0.7048 -0.4077  1.3157
 1015MOL0     H40028   5.286   4.110   1.662 -1.7953 -0.4189 -1.8801
 1015MOL0     H40029   5.440   4.136   1.829 -0.3792  0.7871 -4.6824
 1015MOL0     H40030   5.417   4.251   1.967 -1.6307  2.0961 -0.1823
 1015MOL0     H40031   5.470   4.317   1.813  1.3369  0.9232  3.3850
 1015MOL0     H40032   4.869   4.510   2.215 -1.8291  1.8791  3.9625
 1015MOL0     H40033   4.855   4.690   2.367  0.3622 -2.5047  0.7435
 1015MOL0     H40034   4.808   4.898   2.402 -2.3728 -2.6102  4.1502
 1015MOL0     H40035   4.884   4.865   2.551 -2.2433  1.7619  0.6607
 1015MOL0     H40036   4.785   5.084   2.535 -0.0113 -2.4255 -0.0632
 1015MOL0     H40037   4.954   5.084   2.585  0.9588 -4.5019  0.9872
 1015MOL0     H40038   5.018   5.162   2.354 -0.2064  2.1377 -2.2557
 1015MOL0     H40039   4.898   5.265   2.437 -1.7895 -1.0466  1.5746
 1015MOL0     H40040   4.712   5.188   2.319  1.3887 -0.3295  0.5156
 1015MOL0     H40041   4.798   5.052   2.253  0.2514  0.3506 -4.3612
 1015MOL0     H40042   4.880   5.347   2.204  4.6540 -0.6978  2.3769
 1015MOL0     H40043   4.945   5.213   2.109 -1.0101  2.1265 -0.9627
 1015MOL0     H40044   4.648   5.284   2.120  0.2217  3.1091  0.7090
 1015MOL0     H40045   4.734   5.162   2.015 -0.3560  1.8143 -1.7752
 1015MOL0     H40046   4.864   5.346   1.919  0.8543  0.7860  2.7330
 1015MOL0     H40047   4.783   5.468   2.013  1.2052 -1.3343  2.3391
 1015MOL0     H40048   4.626   5.298   1.796 -2.3835  0.5807  0.0806
 1015MOL0     H40049   4.676   5.463   1.788  1.0577  2.4405  1.4319
 1015MOL0     H40050   5.226   4.862   2.233 -1.8966  1.7628 -1.4578
 1015MOL0     H40051   5.236   4.666   2.070 -1.0352 -0.4473 -1.8572
 1015MOL0     H40052   4.939   4.383   1.850 -3.8109 -1.7187 -4.3204
 1015MOL0     H40053   4.885   4.231   1.681  0.7770 -0.4185 -0.2710
 1015MOL0     H40054   5.122   3.479   0.394  2.3870  1.3311 -2.4189
 1015MOL0     H40055   5.351   3.511   0.304 -2.1665 -1.1339 -3.3618
 1015MOL0     H40056   5.889   3.265   0.414 -3.5984 -0.9384  0.1429
 1015MOL0     H40057   6.092   3.421   0.412  1.3921  4.7158  1.5822
 1015MOL0     H40058   6.220   3.752   0.502 -1.9108  1.7625  0.8487
 1015MOL0     H40059   6.204   3.578   0.528  2.6646 -0.4140 -0.7906
 1015MOL0     H40060   6.308   3.582   0.287 -0.4639  0.1350 -0.0811
 1015MOL0     H40061   6.413   3.620   0.423  1.9362  0.4410 -2.5873
 1015MOL0     H40062   6.301   3.817   0.220  0.8119  2.8454  0.6701
 1015MOL0     H40063   6.357   3.868   0.382 -0.0842  0.9305  0.1450
 1015MOL0     H40064   6.493   3.887   0.201  0.9004  0.3704 -0.3193
 1015MOL0     H40065   6.501   3.706   0.179 -2.7533 -0.2446  0.4603
 1015MOL0     H40066   6.760   3.778   0.511 -0.9046  0.7880  1.4227
 1015MOL0     H40067   5.856   3.757   0.349 -0.0946 -0.5079 -2.8518
 1015MOL0     H40068   5.612   3.742   0.364  2.8996 -0.4190  0.5011
 1015MOL0     H40069   5.546   3.596   0.283  3.0753 -0.5633 -1.9357
 1015MOL0     H40070   5.531   3.620   0.453  1.0202 -2.2151  0.3737
 1016MOL0     O40071   3.663   0.406   2.939 -0.2246  0.7215  0.5709
 1016MOL0     C40072   3.661   0.417   2.813  0.2073 -0.9103  0.3738
 1016MOL0     O40073   3.751   0.359   2.743  0.1545  0.1852  0.0606
 1016MOL0     C40074   3.830   0.275   2.803  0.4059  0.1990 -0.8043
 1016MOL0     C40075   3.797   0.139   2.791  0.3650 -0.1693  0.6246
 1016MOL0     C40076   3.869   0.047   2.866 -0.3240 -0.6279 -0.4344
 1016MOL0     C40077   3.984   0.092   2.946 -0.4172  0.8475 -0.5102
 1016MOL0     O40078   4.065   0.020   3.030  0.0799 -0.2507 -0.1171
 1016MOL0     C40079   4.048  -0.121   3.020 -0.8182 -0.5477  0.5557
 1016MOL0     C40080   4.133  -0.194   3.128 -0.4050 -0.4550  0.2794
 1016MOL0     C40081   4.122  -0.346   3.116 -0.6272  0.2341 -0.5513
 1016MOL0     C40082   4.214  -0.417   3.212 -0.2708 -0.4287  0.9810
 1016MOL0     C40083   4.226  -0.566   3.188  0.1153 -0.6649 -0.0875
 1016MOL0     C40084   4.281  -0.623   3.321  0.3641  0.0776 -0.7148
 1016MOL0     C40085   4.319  -0.768   3.305  0.0838 -0.0990  0.6407
 1016MOL0     C40086   4.461  -0.786   3.249  0.2076 -0.1465 -0.6420
 1016MOL0     N40087   4.566  -0.759   3.344 -0.4842  0.5956 -0.6887
 1016MOL0     C40088   4.573  -0.814   3.477  0.5214  0.0780  0.1415
 1016MOL0     C40089   4.698  -0.787   3.520  0.4870  0.1698 -0.1861
 1016MOL0     C40090   4.756  -0.798   3.654  1.0203  0.1304 -0.4002
 1016MOL0     C40091   4.764  -0.957   3.690  1.7020 -0.0601 -0.1845
 1016MOL0     C40092   4.873  -1.008   3.792  0.7794 -0.5750 -0.0863
 1016MOL0     C40093   4.833  -1.022   3.938 -0.4267  0.3225  0.3357
 1016MOL0     O40094   4.726  -0.932   3.967  0.4206 -0.0431  0.5964
 1016MOL0     C40095   4.714  -0.916   4.102  0.2292  0.4376 -0.3852
 1016MOL0     C40096   4.620  -1.003   4.176  0.4783  0.5682 -0.6787
 1016MOL0     C40097   4.599  -0.984   4.318 -0.6186  1.3012  0.0049
 1016MOL0     C40098   4.523  -1.100   4.390  0.8384  0.7498  0.8376
 1016MOL0     C40099   4.677  -0.881   4.382  0.1209 -0.1901  0.4548
 1016MOL0     C40100   4.650  -0.836   4.523 -0.5439 -0.5713 -0.2035
 1016MOL0     O40101   4.741  -0.748   4.579 -0.1950 -0.2032  0.8458
 1016MOL0     C40102   4.755  -0.737   4.710  0.0673  0.3434 -0.0203
 1016MOL0     C40103   4.818  -0.845   4.775 -0.0953 -0.2483 -1.3068
 1016MOL0     C40104   4.861  -0.830   4.901 -0.0360  0.1644 -0.0235
 1016MOL0     C40105   4.829  -0.716   4.977 -0.4617 -0.7965  0.5776
 1016MOL0     O40106   4.874  -0.701   5.103  0.9857  0.2127 -0.6354
 1016MOL0     C40107   4.777  -0.658   5.205 -1.1415 -0.4699  0.6375
 1016MOL0     C40108   4.757  -0.779   5.302  0.2277  0.6967 -0.1405
 1016MOL0     C40109   4.882  -0.836   5.360 -0.4031 -0.5421  0.1570
 1016MOL0     C40110   4.982  -0.743   5.427 -0.8742  0.2534  0.3578
 1016MOL0     C40111   5.093  -0.821   5.502 -1.0998  0.3607 -0.1610
 1016MOL0     C40112   5.186  -0.888   5.398 -0.2016  0.0635 -0.4805
 1016MOL0     C40113   5.325  -0.922   5.460 -0.1178  0.0617  0.2612
 1016MOL0     C40114   5.408  -1.006   5.366 -0.4720  0.2121  0.3443
 1016MOL0    Cl40115   5.343  -1.173   5.345  0.4166  0.0790 -0.2271
 1016MOL0     C40116   4.750  -0.618   4.916  0.4746  0.6299 -0.3731
 1016MOL0     C40117   4.702  -0.627   4.782 -0.9409  0.1726 -0.6979
 1016MOL0     O40118   4.543  -0.869   4.576  0.3242 -0.4254  0.1969
 1016MOL0     C40119   4.767  -0.799   4.306  0.1658 -0.1402  0.3484
 1016MOL0     C40120   4.781  -0.816   4.169 -0.2808  0.2945  0.2719
 1016MOL0     N40121   4.776  -0.737   3.417  0.4009 -0.1279 -1.2081
 1016MOL0     N40122   4.698  -0.727   3.315 -0.1667  0.4558  0.6204
 1016MOL0     C40123   4.019   0.226   2.936 -0.1144  0.7338 -0.3370
 1016MOL0     C40124   3.941   0.316   2.879  0.1334 -0.0212  0.5018
 1016MOL0     C40125   3.569   0.520   2.751  0.4316 -0.3591  0.8523
 1016MOL0     C40126   3.517   0.622   2.835 -0.9862  0.5402  0.1634
 1016MOL0     C40127   3.414   0.708   2.796 -0.3734  0.1022 -0.3229
 1016MOL0     C40128   3.375   0.715   2.663  0.1201 -0.0179 -0.3527
 1016MOL0     O40129   3.269   0.805   2.637 -0.3114 -0.3578  0.0042
 1016MOL0     C40130   3.205   0.807   2.508 -0.4126 -0.2761  0.3893
 1016MOL0     C40131   3.088   0.899   2.534  0.4409 -0.1056  0.2771
 1016MOL0     C40132   2.947   0.839   2.498 -0.0670  0.1917  0.8833
 1016MOL0     C40133   2.907   0.864   2.348  0.2919  0.5264 -0.1407
 1016MOL0     C40134   3.008   0.820   2.259  1.0003 -0.3443 -0.6250
 1016MOL0     C40135   3.090   0.779   2.179 -0.1311 -0.9357 -0.1930
 1016MOL0     C40136   3.432   0.627   2.570 -1.2235 -0.6106 -0.8342
 1016MOL0     C40137   3.527   0.529   2.614  0.6336 -0.1570 -1.0717
 1016MOL0     C40138   3.572   0.425   2.517 -0.2987 -0.9710  0.6173
 1016MOL0     H40139   3.701   0.109   2.748  0.0430  0.9682  0.5074
 1016MOL0     H40140   3.841  -0.058   2.869  0.9673 -1.1100 -2.7569
 1016MOL0     H40141   4.082  -0.146   2.920  0.1252  0.5819  0.5732
 1016MOL0     H40142   3.944  -0.153   3.030  0.0924 -3.7560  0.7744
 1016MOL0     H40143   4.235  -0.162   3.105 -1.0294  0.5906 -1.2090
 1016MOL0     H40144   4.108  -0.172   3.232 -0.9629  0.1680  0.0224
 1016MOL0     H40145   4.016  -0.369   3.131 -0.8991  1.4592 -0.4459
 1016MOL0     H40146   4.139  -0.384   3.015  2.6958 -1.0903  0.3814
 1016MOL0     H40147   4.314  -0.375   3.200 -1.2789  1.2852 -2.5442
 1016MOL0     H40148   4.179  -0.406   3.316 -0.3023 -3.4762  1.3768
 1016MOL0     H40149   4.288  -0.586   3.100  0.0822 -3.0069  0.3618
 1016MOL0     H40150   4.127  -0.605   3.163 -0.7353  1.8272 -0.9773
 1016MOL0     H40151   4.364  -0.575   3.374 -0.2918 -1.5879  1.9716
 1016MOL0     H40152   4.195  -0.607   3.386  0.1028 -2.7623 -0.2403
 1016MOL0     H40153   4.251  -0.821   3.238  0.8792 -1.9014  1.1929
 1016MOL0     H40154   4.310  -0.814   3.404 -1.7231  1.6499  1.3589
 1016MOL0     H40155   4.470  -0.887   3.208  4.0432 -0.4808  0.5781
 1016MOL0     H40156   4.488  -0.722   3.165  2.2321 -2.4744 -1.8801
 1016MOL0     H40157   4.489  -0.849   3.536 -0.1490  1.6529  0.1938
 1016MOL0     H40158   4.691  -0.750   3.727  2.4538  0.9797  0.3564
 1016MOL0     H40159   4.855  -0.753   3.649  0.7663  0.6149 -1.3579
 1016MOL0     H40160   4.663  -0.987   3.721  0.4577  2.7644 -1.1371
 1016MOL0     H40161   4.783  -1.013   3.598  2.2805  1.1907 -0.8480
 1016MOL0     H40162   4.898  -1.109   3.759  2.5878 -0.3921  0.5965
 1016MOL0     H40163   4.960  -0.942   3.783  1.5621 -1.7691 -1.8920
 1016MOL0     H40164   4.795  -1.121   3.965 -0.6519  1.0525  3.0313
 1016MOL0     H40165   4.926  -1.004   3.994 -0.8045  0.1467  1.0249
 1016MOL0     H40166   4.584  -1.091   4.124  0.8496 -0.7440  1.1697
 1016MOL0     H40167   4.592  -1.159   4.451 -1.0703 -2.2746  0.2816
 1016MOL0     H40168   4.465  -1.161   4.320  1.8599  0.0819  0.5476
 1016MOL0     H40169   4.451  -1.048   4.455  1.8985  3.1154  0.2346
 1016MOL0     H40170   4.858  -0.933   4.726 -0.0308 -3.6210  4.0338
 1016MOL0     H40171   4.921  -0.907   4.948 -0.7782 -1.4330 -1.5639
 1016MOL0     H40172   4.819  -0.574   5.263 -1.9674 -0.5591  1.3836
 1016MOL0     H40173   4.682  -0.619   5.167 -0.1441  2.4914  0.9236
 1016MOL0     H40174   4.716  -0.738   5.395 -1.5861  2.2075 -1.5435
 1016MOL0     H40175   4.684  -0.848   5.258  0.0237  1.5566 -1.1948
 1016MOL0     H40176   4.936  -0.909   5.299  0.6456 -0.5938  1.1023
 1016MOL0     H40177   4.857  -0.892   5.452  1.0599  1.4427  1.8454
 1016MOL0     H40178   4.921  -0.694   5.503  0.2166  1.1646  0.6681
 1016MOL0     H40179   5.021  -0.668   5.359  2.2503 -0.9650  0.6479
 1016MOL0     H40180   5.149  -0.746   5.557  1.6434  0.3386 -2.6199
 1016MOL0     H40181   5.054  -0.891   5.576  0.7381  0.2696  0.7681
 1016MOL0     H40182   5.209  -0.803   5.333 -1.6022  1.0537  0.2770
 1016MOL0     H40183   5.139  -0.978   5.358  1.8642 -0.3003 -2.3251
 1016MOL0     H40184   5.319  -0.972   5.557  1.2098  0.9432  0.8257
 1016MOL0     H40185   5.374  -0.827   5.479 -1.6425  0.8187  0.5372
 1016MOL0     H40186   5.511  -1.002   5.403 -0.0512  1.6254 -0.8880
 1016MOL0     H40187   5.419  -0.965   5.266 -1.9347 -3.0260 -1.2948
 1016MOL0     H40188   4.728  -0.529   4.974  0.0925 -1.1258  2.3756
 1016MOL0     H40189   4.651  -0.551   4.725 -1.8261  0.1893  0.0841
 1016MOL0     H40190   4.796  -0.708   4.357  2.9994 -0.1270 -1.0749
 1016MOL0     H40191   4.842  -0.756   4.103 -1.4773 -0.0653 -1.2133
 1016MOL0     H40192   4.103   0.260   2.994  2.0145 -3.0491 -0.8336
 1016MOL0     H40193   3.959   0.423   2.889 -0.9900  0.1954  0.3359
 1016MOL0     H40194   3.556   0.625   2.936  2.7648  0.6617 -1.1608
 1016MOL0     H40195   3.361   0.781   2.857  0.5737  1.9091 -1.5820
 1016MOL0     H40196   3.268   0.861   2.437 -0.2521  0.2959  0.9531
 1016MOL0     H40197   3.165   0.714   2.469 -0.3363 -0.5742  1.0090
 1016MOL0     H40198   3.111   0.989   2.476  3.4906  0.0557  1.5444
 1016MOL0     H40199   3.090   0.924   2.640 -2.4377 -3.6085  1.3582
 1016MOL0     H40200   2.945   0.730   2.508  0.4950  0.0473 -0.4327
 1016MOL0     H40201   2.870   0.887   2.561  2.7084  2.3533  2.8909
 1016MOL0     H40202   2.876   0.968   2.338 -0.1983  0.3500 -0.5192
 1016MOL0     H40203   2.817   0.803   2.329  1.6877 -2.3435  1.7182
 1016MOL0     H40204   3.162   0.761   2.101 -1.6409 -1.5500 -1.5159
 1016MOL0     H40205   3.388   0.623   2.471 -4.3800  0.3302  0.3771
 1016MOL0     H40206   3.484   0.418   2.451 -0.8556  0.1625  1.2193
 1016MOL0     H40207   3.658   0.462   2.461  0.0397 -0.5407  1.4190
 1016MOL0     H40208   3.594   0.326   2.557  1.5917 -0.7144  0.2853
 1017MOL0     O40209   5.375   5.389   8.124  0.0862 -0.1034 -0.3003
 1017MOL0     C40210   5.383   5.454   8.020  0.0715 -1.6846 -0.5452
 1017MOL0     O40211   5.281   5.501   7.944 -0.8556 -0.1530 -0.7063
 1017MOL0     C40212   5.311   5.521   7.811 -0.1278  0.2912  0.1590
 1017MOL0     C40213   5.355   5.413   7.726  0.2581  0.8326 -1.3207
 1017MOL0     C40214   5.389   5.430   7.598  0.4417 -0.0168 -0.3122
 1017MOL0     C40215   5.383   5.556   7.540 -0.5041 -0.1548 -0.6795
 1017MOL0     O40216   5.413   5.582   7.404  0.7277 -0.5549 -0.5016
 1017MOL0     C40217   5.441   5.481   7.305 -0.4996 -0.4983  0.0760
 1017MOL0     C40218   5.396   5.527   7.165 -0.5307 -0.2780  0.1238
 1017MOL0     C40219   5.442   5.451   7.045  0.3098  0.2262 -0.6712
 1017MOL0     C40220   5.589   5.484   6.998  0.5275 -0.3008  1.2572
 1017MOL0     C40221   5.611   5.643   6.974 -0.1997  0.4925 -0.8800
 1017MOL0     C40222   5.499   5.718   6.896  0.4515 -0.3136  0.2980
 1017MOL0     C40223   5.500   5.639   6.759  0.6652 -0.0701 -0.1691
 1017MOL0     C40224   5.565   5.711   6.641  0.4128 -0.5924  0.7007
 1017MOL0     N40225   5.587   5.634   6.514  0.9263 -0.3632 -0.5620
 1017MOL0     C40226   5.634   5.506   6.497 -0.6361 -0.3107 -0.8788
 1017MOL0     C40227   5.680   5.498   6.367  0.1582 -0.1884 -0.1210
 1017MOL0     C40228   5.737   5.372   6.309 -0.9934 -0.7658  0.7222
 1017MOL0     C40229   5.612   5.298   6.259 -0.1178  0.5960 -0.6671
 1017MOL0     C40230   5.667   5.178   6.166  0.0842  0.5548  0.5425
 1017MOL0     C40231   5.547   5.090   6.137 -0.5959  0.2937  0.3255
 1017MOL0     O40232   5.471   5.153   6.029  0.6669 -0.0859 -1.4806
 1017MOL0     C40233   5.502   5.119   5.897 -0.2661  0.8823 -0.2096
 1017MOL0     C40234   5.623   5.061   5.840 -0.3103  0.5788 -0.4233
 1017MOL0     C40235   5.624   5.011   5.700  0.3167  0.2770  0.3955
 1017MOL0     C40236   5.749   4.947   5.654  0.8122  0.1622 -0.2289
 1017MOL0     C40237   5.517   5.046   5.614  0.2746 -0.2324  0.0937
 1017MOL0     C40238   5.512   5.010   5.470 -0.1774 -0.0968 -0.0333
 1017MOL0     O40239   5.438   5.085   5.387  0.0181  0.1208 -0.3963
 1017MOL0     C40240   5.418   5.081   5.247  0.1839 -0.6234  0.4784
 1017MOL0     C40241   5.388   5.209   5.189  0.7119 -0.4340  0.1936
 1017MOL0     C40242   5.383   5.218   5.048 -0.1738 -0.9811 -0.2560
 1017MOL0     C40243   5.406   5.093   4.971 -0.1973 -0.5854 -0.4398
 1017MOL0     O40244   5.399   5.101   4.834 -0.2214 -0.5547  0.2203
 1017MOL0     C40245   5.283   5.157   4.768 -0.0949 -0.0255 -0.2471
 1017MOL0     C40246   5.341   5.233   4.655  0.2362 -0.4844  0.8633
 1017MOL0     C40247   5.248   5.273   4.551  0.0112  0.4991  0.3748
 1017MOL0     C40248   5.292   5.388   4.459  0.2313  0.2125 -0.5416
 1017MOL0     C40249   5.230   5.517   4.499 -1.0160  0.4006 -0.1464
 1017MOL0     C40250   5.259   5.625   4.395 -0.3390  0.6963  0.1439
 1017MOL0     C40251   5.205   5.762   4.438 -0.4416 -0.8864  1.5842
 1017MOL0     C40252   5.197   5.866   4.323 -0.6321  0.4683 -0.6150
 1017MOL0    Cl40253   5.070   5.816   4.204 -0.1420 -0.4672  0.5831
 1017MOL0     C40254   5.431   4.973   5.031  0.2515 -0.3407 -1.0848
 1017MOL0     C40255   5.435   4.970   5.169 -0.6427  0.1598 -1.0242
 1017MOL0     O40256   5.585   4.923   5.432 -0.0483  0.1196  0.7431
 1017MOL0     C40257   5.404   5.109   5.669 -0.9200  0.2113  0.0379
 1017MOL0     C40258   5.396   5.136   5.807 -0.5703 -0.9817 -0.2647
 1017MOL0     N40259   5.652   5.616   6.302  0.6609  0.0866 -0.3916
 1017MOL0     N40260   5.596   5.695   6.388 -0.1612 -0.6213 -0.6563
 1017MOL0     C40261   5.331   5.662   7.617 -0.1010  0.1102  0.6905
 1017MOL0     C40262   5.303   5.650   7.753  0.1667  0.7692 -0.0518
 1017MOL0     C40263   5.527   5.508   7.999  0.3421  0.2880 -0.2775
 1017MOL0     C40264   5.532   5.648   7.976 -0.0669  0.2992 -0.0471
 1017MOL0     C40265   5.643   5.708   7.936  0.2134 -0.2857  0.6198
 1017MOL0     C40266   5.760   5.639   7.935  0.1689 -0.5932 -0.2462
 1017MOL0     O40267   5.885   5.687   7.922  0.3692 -0.4269  0.4867
 1017MOL0     C40268   5.931   5.810   7.979  0.9538 -0.4729  0.4327
 1017MOL0     C40269   5.989   5.777   8.121  0.2516  1.0898 -0.4163
 1017MOL0     C40270   5.894   5.832   8.232  0.5677  0.0616  1.0871
 1017MOL0     C40271   5.957   5.811   8.370 -0.4022  0.0462 -0.5350
 1017MOL0     C40272   5.893   5.719   8.465  0.3226 -1.4215 -0.6611
 1017MOL0     C40273   5.836   5.642   8.542  0.0971 -0.3546  0.0441
 1017MOL0     C40274   5.758   5.497   7.966  1.1553 -0.5640  0.4100
 1017MOL0     C40275   5.645   5.427   7.990 -0.4605  0.4353 -0.1825
 1017MOL0     C40276   5.646   5.293   8.057  0.4493  1.5513  0.0405
 1017MOL0     H40277   5.360   5.312   7.766 -2.2865  0.5751 -1.5188
 1017MOL0     H40278   5.422   5.341   7.546 -1.1022 -1.8156  1.5689
 1017MOL0     H40279   5.383   5.392   7.330 -1.1941 -0.4978 -1.4317
 1017MOL0     H40280   5.548   5.463   7.311 -0.2503  0.2923 -1.4065
 1017MOL0     H40281   5.288   5.514   7.177 -0.4587  0.7913  2.5116
 1017MOL0     H40282   5.411   5.634   7.152 -2.9480  0.1631  0.5178
 1017MOL0     H40283   5.439   5.349   7.085 -2.5225  0.7036  0.5920
 1017MOL0     H40284   5.378   5.451   6.956  1.4045  0.2105 -1.4902
 1017MOL0     H40285   5.663   5.458   7.074  1.7410 -2.1168 -0.4513
 1017MOL0     H40286   5.620   5.418   6.917 -0.8924  0.4606  0.0387
 1017MOL0     H40287   5.707   5.653   6.923  0.2116 -0.7609 -0.3938
 1017MOL0     H40288   5.618   5.685   7.075 -0.8625 -0.3100 -0.4829
 1017MOL0     H40289   5.401   5.716   6.945  0.0070 -0.3370 -0.5605
 1017MOL0     H40290   5.515   5.825   6.875 -0.6726 -0.0884  0.5214
 1017MOL0     H40291   5.400   5.604   6.731  1.6358 -5.2239  1.6915
 1017MOL0     H40292   5.565   5.551   6.768  3.8492  2.3615  3.8292
 1017MOL0     H40293   5.507   5.802   6.627  2.8529  1.4909  2.9110
 1017MOL0     H40294   5.660   5.760   6.665 -0.8058  5.3759 -4.2473
 1017MOL0     H40295   5.639   5.428   6.572 -3.1312 -1.6342 -1.9714
 1017MOL0     H40296   5.808   5.319   6.373 -0.4607 -1.5914 -0.5005
 1017MOL0     H40297   5.809   5.406   6.233  1.4331 -0.6837  2.9114
 1017MOL0     H40298   5.572   5.264   6.355  3.7078  2.8521  1.9840
 1017MOL0     H40299   5.537   5.355   6.203 -2.8839 -3.7640 -1.9539
 1017MOL0     H40300   5.722   5.225   6.084  1.3036  1.1576  1.6683
 1017MOL0     H40301   5.737   5.122   6.228 -0.0750  0.9269  1.0650
 1017MOL0     H40302   5.585   4.993   6.104 -1.2227 -0.0329  0.5390
 1017MOL0     H40303   5.490   5.077   6.230  0.8870  0.5343  1.2994
 1017MOL0     H40304   5.702   5.038   5.912 -0.4999  0.6880 -0.1815
 1017MOL0     H40305   5.801   4.910   5.743 -0.5652 -0.8885  0.1693
 1017MOL0     H40306   5.808   5.016   5.592 -1.7670  0.6080 -2.3794
 1017MOL0     H40307   5.716   4.859   5.599 -1.9644  2.0243 -1.8095
 1017MOL0     H40308   5.351   5.299   5.236  1.7288 -0.0776  0.3422
 1017MOL0     H40309   5.368   5.311   4.994  0.7398 -0.4696  0.3258
 1017MOL0     H40310   5.212   5.076   4.753 -0.9763  0.5577  0.6874
 1017MOL0     H40311   5.224   5.220   4.834 -0.4801 -2.1033  1.5091
 1017MOL0     H40312   5.383   5.327   4.693  1.5691  0.3122 -2.2443
 1017MOL0     H40313   5.421   5.171   4.614 -1.5064 -0.3294 -3.2230
 1017MOL0     H40314   5.149   5.287   4.597 -0.1656 -1.0727  0.5305
 1017MOL0     H40315   5.230   5.193   4.479  1.0556  1.7583 -1.3506
 1017MOL0     H40316   5.276   5.368   4.352  2.6837 -0.9679 -0.7550
 1017MOL0     H40317   5.399   5.387   4.480 -0.5111 -0.7242  4.2610
 1017MOL0     H40318   5.121   5.513   4.495 -0.9996 -0.4841  0.2078
 1017MOL0     H40319   5.273   5.540   4.596  1.4425  2.3129 -1.5572
 1017MOL0     H40320   5.213   5.599   4.300 -1.8239  1.1752  0.7005
 1017MOL0     H40321   5.366   5.646   4.391 -0.9057  3.8604 -1.9637
 1017MOL0     H40322   5.260   5.803   4.523 -2.5631  1.0390  2.1335
 1017MOL0     H40323   5.101   5.758   4.472 -1.4574 -0.9441 -1.2660
 1017MOL0     H40324   5.296   5.882   4.280  0.0988 -0.0749  0.8235
 1017MOL0     H40325   5.156   5.961   4.360 -0.6654  0.0605  0.4223
 1017MOL0     H40326   5.434   4.879   4.976 -3.5850 -2.0247  1.1835
 1017MOL0     H40327   5.443   4.883   5.233 -1.0712  1.3769  0.7518
 1017MOL0     H40328   5.326   5.141   5.600 -0.7875  1.5401  0.4727
 1017MOL0     H40329   5.308   5.183   5.849 -0.4218 -0.4698 -0.5257
 1017MOL0     H40330   5.304   5.759   7.578 -0.4627  0.3152  1.4217
 1017MOL0     H40331   5.292   5.722   7.833  3.8721 -0.9873  2.3084
 1017MOL0     H40332   5.441   5.708   7.980 -0.7131 -0.6259 -0.5053
 1017MOL0     H40333   5.644   5.813   7.909  2.9011 -0.8954 -2.1746
 1017MOL0     H40334   6.013   5.848   7.917  0.4949  3.4365  1.9265
 1017MOL0     H40335   5.854   5.888   7.979 -0.4256 -1.7518 -1.1573
 1017MOL0     H40336   6.089   5.821   8.129  1.5740 -1.6435 -0.8683
 1017MOL0     H40337   6.012   5.671   8.130  1.6863  1.4332  0.4828
 1017MOL0     H40338   5.865   5.936   8.215  4.8661  1.0433 -1.7985
 1017MOL0     H40339   5.805   5.769   8.224  2.8219 -3.1050 -1.8276
 1017MOL0     H40340   5.967   5.910   8.415 -1.6908  0.3416 -0.8482
 1017MOL0     H40341   6.062   5.781   8.361 -1.4834 -3.8449 -2.3210
 1017MOL0     H40342   5.790   5.572   8.608  0.1626  2.0263  2.8481
 1017MOL0     H40343   5.848   5.436   7.975  2.4661  1.2269  0.0308
 1017MOL0     H40344   5.552   5.237   8.050  1.2082  0.1733  0.4552
 1017MOL0     H40345   5.722   5.231   8.009  0.1120  0.4344  0.9052
 1017MOL0     H40346   5.670   5.299   8.163 -0.2720 -0.1629  0.3346
 1018MOL0     O40347   6.995   0.787   4.836 -0.7861  0.6833 -0.1071
 1018MOL0     C40348   6.945   0.683   4.776 -0.3172  0.1734  0.2013
 1018MOL0     O40349   6.986   0.637   4.656 -0.2042  0.6909 -0.1513
 1018MOL0     C40350   7.111   0.677   4.619  0.4458 -0.4764 -0.2510
 1018MOL0     C40351   7.197   0.567   4.601 -0.2655  0.1691 -0.4843
 1018MOL0     C40352   7.327   0.588   4.569 -1.1258  0.7067  0.3615
 1018MOL0     C40353   7.371   0.723   4.556  0.0634 -0.0357  0.2416
 1018MOL0     O40354   7.499   0.746   4.508  0.0748 -0.0155  0.4794
 1018MOL0     C40355   7.599   0.798   4.596  0.2072  1.1774  0.4003
 1018MOL0     C40356   7.688   0.905   4.517 -0.9668 -0.6103 -0.1829
 1018MOL0     C40357   7.816   0.918   4.605  0.1962  0.0137 -0.2687
 1018MOL0     C40358   7.916   0.808   4.584  0.9558 -0.1800  0.6641
 1018MOL0     C40359   8.011   0.772   4.705 -0.3200  0.1916 -1.3300
 1018MOL0     C40360   8.114   0.883   4.747  0.0312  0.3951  0.1966
 1018MOL0     C40361   8.165   0.863   4.887  0.3946 -0.0729  0.3346
 1018MOL0     C40362   8.054   0.883   4.990 -0.1867 -0.2776  1.3450
 1018MOL0     N40363   7.996   1.014   4.990 -0.1604 -0.8512 -0.6797
 1018MOL0     C40364   8.060   1.126   5.020 -0.4812  0.3009 -0.0139
 1018MOL0     C40365   7.965   1.224   5.000 -0.4262 -0.1920 -0.7047
 1018MOL0     C40366   7.990   1.369   4.981  0.4558 -0.5186 -0.7840
 1018MOL0     C40367   7.942   1.462   5.096 -0.3275  0.1971 -1.1828
 1018MOL0     C40368   8.022   1.584   5.111 -0.0145 -0.2700  0.1972
 1018MOL0     C40369   8.008   1.679   4.986  0.6546  0.5481 -0.6535
 1018MOL0     O40370   8.126   1.671   4.910 -0.1664 -0.3389  0.6681
 1018MOL0     C40371   8.126   1.740   4.795  0.3859 -0.6171  1.0970
 1018MOL0     C40372   8.227   1.833   4.773 -0.0829 -0.1422 -0.4353
 1018MOL0     C40373   8.234   1.904   4.653 -0.1850 -0.2809  0.0837
 1018MOL0     C40374   8.343   1.998   4.639 -0.1585 -0.5051  0.3325
 1018MOL0     C40375   8.133   1.886   4.550 -0.3447 -1.1605 -0.6893
 1018MOL0     C40376   8.139   1.952   4.416 -0.8480 -0.7250  0.2560
 1018MOL0     O40377   8.016   1.979   4.366  0.2137  0.2396  0.5877
 1018MOL0     C40378   7.994   2.055   4.257  0.2652 -0.1739 -0.2119
 1018MOL0     C40379   8.070   2.171   4.224  0.2656 -0.4584 -0.5128
 1018MOL0     C40380   8.037   2.244   4.105  0.1651  0.4824 -0.0144
 1018MOL0     C40381   7.948   2.200   4.006  1.2252  0.9344 -0.5269
 1018MOL0     O40382   7.907   2.251   3.885  0.8576  0.8257 -0.9146
 1018MOL0     C40383   7.970   2.367   3.834 -0.9561  0.1359  0.1318
 1018MOL0     C40384   7.887   2.418   3.718 -0.4029 -0.4989  0.0792
 1018MOL0     C40385   7.741   2.469   3.742  0.5892  0.9413 -0.1660
 1018MOL0     C40386   7.700   2.549   3.615 -0.8038 -0.5553 -0.7681
 1018MOL0     C40387   7.552   2.588   3.627 -0.3959 -0.7724  0.2029
 1018MOL0     C40388   7.492   2.604   3.481  0.1124 -0.0158 -0.5336
 1018MOL0     C40389   7.580   2.688   3.384  0.0980 -0.4957 -0.0841
 1018MOL0     C40390   7.489   2.714   3.264 -1.1478 -0.5134  0.5590
 1018MOL0    Cl40391   7.458   2.884   3.245  0.0414  0.0015 -0.1787
 1018MOL0     C40392   7.871   2.089   4.043 -0.0404  0.2200  0.4121
 1018MOL0     C40393   7.897   2.014   4.162  0.4765 -0.1709 -0.3162
 1018MOL0     O40394   8.243   1.981   4.363 -0.0609  0.7347 -0.3562
 1018MOL0     C40395   8.026   1.792   4.579 -0.8541  0.0817 -0.5635
 1018MOL0     C40396   8.025   1.720   4.697  0.6523 -0.1114  0.5294
 1018MOL0     N40397   7.847   1.168   4.953  0.9869 -0.8228 -0.3775
 1018MOL0     N40398   7.866   1.044   4.955  0.9511 -1.5700 -0.0928
 1018MOL0     C40399   7.285   0.835   4.575  0.4315 -0.0595 -1.0379
 1018MOL0     C40400   7.154   0.807   4.595 -0.0207  0.3129 -0.1655
 1018MOL0     C40401   6.835   0.595   4.839  0.7510  0.3447 -0.1016
 1018MOL0     C40402   6.750   0.517   4.756 -0.1486  0.4986 -0.0208
 1018MOL0     C40403   6.654   0.427   4.807  0.9424  0.3183 -0.9229
 1018MOL0     C40404   6.621   0.426   4.943  0.2721 -0.1299 -0.6285
 1018MOL0     O40405   6.524   0.346   4.991  0.5546 -0.0165 -0.2750
 1018MOL0     C40406   6.442   0.404   5.091 -0.6404 -0.0428  0.5337
 1018MOL0     C40407   6.498   0.348   5.221  1.4288  0.5772  0.5193
 1018MOL0     C40408   6.449   0.209   5.253 -0.5982 -0.1667  0.0135
 1018MOL0     C40409   6.517   0.144   5.369 -0.0323 -0.0186  0.0252
 1018MOL0     C40410   6.474  -0.001   5.372  0.4231  0.3923  0.0590
 1018MOL0     C40411   6.465  -0.125   5.362  0.1839  0.7929  0.3619
 1018MOL0     C40412   6.697   0.511   5.023  1.0787 -0.2677 -0.2535
 1018MOL0     C40413   6.804   0.583   4.972 -0.3313  0.5789  0.0832
 1018MOL0     C40414   6.908   0.645   5.060  0.1484 -0.0333  0.8366
 1018MOL0     H40415   7.166   0.468   4.633  1.9184 -0.4924 -0.2814
 1018MOL0     H40416   7.403   0.511   4.565 -1.0331  0.7446  1.1848
 1018MOL0     H40417   7.659   0.711   4.623 -0.3863  0.9601  1.0587
 1018MOL0     H40418   7.553   0.850   4.681 -1.2597 -0.7285  0.8447
 1018MOL0     H40419   7.728   0.883   4.417 -0.6086  2.0460 -0.6798
 1018MOL0     H40420   7.639   1.003   4.513  0.9848  0.7850  4.2209
 1018MOL0     H40421   7.861   1.017   4.592 -0.6175  0.5596  0.8615
 1018MOL0     H40422   7.792   0.922   4.712 -0.6464  3.1448 -0.4733
 1018MOL0     H40423   7.859   0.717   4.564 -1.6120  0.8371  2.7126
 1018MOL0     H40424   7.979   0.834   4.499 -0.7884  2.2359  0.0090
 1018MOL0     H40425   8.064   0.680   4.676  1.0941  1.2544 -2.2299
 1018MOL0     H40426   7.945   0.748   4.789  0.9636 -1.2127 -0.6862
 1018MOL0     H40427   8.190   0.884   4.668 -0.1322 -0.4660  0.0240
 1018MOL0     H40428   8.069   0.983   4.742  2.4998  1.8636  3.3344
 1018MOL0     H40429   8.245   0.931   4.918 -0.4878 -0.3879  3.7656
 1018MOL0     H40430   8.211   0.764   4.901  2.5063  1.1422  3.0893
 1018MOL0     H40431   7.976   0.806   4.984 -0.5269  0.1680 -1.1499
 1018MOL0     H40432   8.105   0.859   5.084  0.7078  1.4867  1.3378
 1018MOL0     H40433   8.166   1.140   5.040 -0.6025  2.6339 -0.7644
 1018MOL0     H40434   7.943   1.403   4.889 -1.4117  1.4733  0.8145
 1018MOL0     H40435   8.097   1.377   4.957  0.6771 -1.8121 -0.3302
 1018MOL0     H40436   7.836   1.487   5.087 -0.0455  1.0777 -2.2789
 1018MOL0     H40437   7.953   1.411   5.192  1.0031  0.5550 -1.1193
 1018MOL0     H40438   8.006   1.640   5.204  2.2751  0.1437  0.4116
 1018MOL0     H40439   8.122   1.543   5.128 -0.6301 -1.6781  0.5383
 1018MOL0     H40440   7.915   1.650   4.935  1.9623 -1.2017 -2.1989
 1018MOL0     H40441   7.986   1.784   5.011  2.1391  0.9540 -0.9809
 1018MOL0     H40442   8.298   1.852   4.854  1.4939 -1.9754 -1.3202
 1018MOL0     H40443   8.315   2.102   4.619 -0.4134 -0.3969  1.2143
 1018MOL0     H40444   8.420   1.957   4.572  1.4883  0.3070  1.6466
 1018MOL0     H40445   8.402   1.998   4.731 -0.9506  1.8349  0.8965
 1018MOL0     H40446   8.139   2.222   4.291 -1.0302  1.5417 -0.6147
 1018MOL0     H40447   8.102   2.325   4.076  0.4274  1.0494  2.0406
 1018MOL0     H40448   7.983   2.450   3.904  0.1224  0.5983 -0.5760
 1018MOL0     H40449   8.073   2.350   3.800 -1.3464  1.4368 -1.8759
 1018MOL0     H40450   7.941   2.496   3.664 -2.4983  2.6040  2.0780
 1018MOL0     H40451   7.902   2.339   3.645  0.8120 -1.9140  1.7865
 1018MOL0     H40452   7.726   2.514   3.840 -0.0531  0.9815 -0.2817
 1018MOL0     H40453   7.677   2.381   3.750  1.7277  0.1294  0.2254
 1018MOL0     H40454   7.722   2.482   3.531  1.0962 -1.3624  0.3168
 1018MOL0     H40455   7.765   2.637   3.619 -2.3479  0.8616  6.4935
 1018MOL0     H40456   7.505   2.521   3.699 -2.4221  1.5245  1.1481
 1018MOL0     H40457   7.551   2.674   3.694 -1.7570 -3.8908  4.7062
 1018MOL0     H40458   7.390   2.643   3.494  0.4209  0.2431  1.2588
 1018MOL0     H40459   7.476   2.505   3.437 -1.9432 -0.6489  1.4660
 1018MOL0     H40460   7.671   2.633   3.360  0.5247 -0.1393  0.6655
 1018MOL0     H40461   7.601   2.784   3.432 -0.0603  0.5471 -1.9768
 1018MOL0     H40462   7.391   2.668   3.277 -1.4713 -0.3351 -1.0402
 1018MOL0     H40463   7.548   2.673   3.181  0.6125 -0.1062  1.5611
 1018MOL0     H40464   7.809   2.054   3.960 -0.3573  1.0556  0.2891
 1018MOL0     H40465   7.842   1.924   4.188 -1.4540  0.8767 -0.5899
 1018MOL0     H40466   7.950   1.772   4.504 -1.0465  0.1833 -0.3973
 1018MOL0     H40467   7.965   1.629   4.699  0.3386  0.0856  2.7772
 1018MOL0     H40468   7.325   0.935   4.575 -3.0324  1.4767 -2.2430
 1018MOL0     H40469   7.075   0.882   4.585 -2.4580 -2.3605 -3.9132
 1018MOL0     H40470   6.743   0.516   4.648  0.2938 -0.2413 -0.0493
 1018MOL0     H40471   6.609   0.363   4.731  1.0313  1.6373 -2.1258
 1018MOL0     H40472   6.458   0.512   5.099 -1.2035  0.1825 -1.0826
 1018MOL0     H40473   6.338   0.383   5.068 -0.0664 -0.1685 -2.3211
 1018MOL0     H40474   6.476   0.413   5.306  2.6480 -1.1538  2.2532
 1018MOL0     H40475   6.607   0.339   5.213  1.3348 -0.6630  0.3380
 1018MOL0     H40476   6.339   0.211   5.249 -0.6894 -0.6309  1.7155
 1018MOL0     H40477   6.474   0.144   5.169  2.1759  2.4485 -1.3499
 1018MOL0     H40478   6.499   0.181   5.470  1.1281 -6.8214  3.2564
 1018MOL0     H40479   6.625   0.151   5.356 -0.1378 -0.9100 -1.5980
 1018MOL0     H40480   6.469  -0.232   5.360  1.3627  0.4474  5.9082
 1018MOL0     H40481   6.703   0.533   5.130 -1.2066  0.0168 -0.1333
 1018MOL0     H40482   7.007   0.617   5.024  0.1909  1.8334 -0.6697
 1018MOL0     H40483   6.895   0.753   5.071 -1.0015 -0.1798  0.9975
 1018MOL0     H40484   6.903   0.607   5.163  0.5157 -0.4863  0.6883
 1019MOL0     O40485   8.992   0.103   5.184 -0.2266  0.5295 -0.4429
 1019MOL0     C40486   8.941   0.018   5.267  0.3716 -0.0332  0.3060
 1019MOL0     O40487   8.993  -0.019   5.392 -0.6415 -0.0242 -0.6695
 1019MOL0     C40488   9.117   0.015   5.420 -1.1717 -0.3909  0.7158
 1019MOL0     C40489   9.213  -0.085   5.432 -0.4872  0.3271 -0.3905
 1019MOL0     C40490   9.345  -0.050   5.463  0.2606  0.1291 -0.5993
 1019MOL0     C40491   9.384   0.087   5.491  0.3673 -0.1919 -0.2463
 1019MOL0     O40492   9.517   0.140   5.499 -0.1628  0.1101 -0.8917
 1019MOL0     C40493   9.621   0.040   5.515  0.0232 -1.5906 -1.0762
 1019MOL0     C40494   9.753   0.111   5.507 -0.3604  0.5081 -0.0041
 1019MOL0     C40495   9.787   0.185   5.642 -0.3992 -0.0958 -0.2536
 1019MOL0     C40496   9.897   0.289   5.629  0.0562 -0.5968  0.7933
 1019MOL0     C40497  10.024   0.239   5.566 -0.0127 -0.7646 -0.4183
 1019MOL0     C40498  10.108   0.188   5.684  0.0772  0.0125  0.1721
 1019MOL0     C40499  10.242   0.154   5.626 -0.2156 -0.1621  0.3798
 1019MOL0     C40500  10.337   0.111   5.736  0.0357  0.4070  0.2026
 1019MOL0     N40501  10.445   0.020   5.696  0.6908  0.4391  0.0544
 1019MOL0     C40502  10.567   0.060   5.650  0.9203 -0.4608  0.6658
 1019MOL0     C40503  10.622  -0.062   5.614 -1.1662  1.1800 -0.5464
 1019MOL0     C40504  10.770  -0.082   5.589  0.2523 -1.1665  0.3776
 1019MOL0     C40505  10.837  -0.102   5.728  0.4182 -0.6526  0.3597
 1019MOL0     C40506  10.992  -0.075   5.719 -0.9924  0.4397 -0.1880
 1019MOL0     C40507  11.047  -0.032   5.855 -0.4300  0.9329 -0.1747
 1019MOL0     O40508  11.011   0.101   5.872  0.5187  0.2832  0.4636
 1019MOL0     C40509  11.041   0.164   5.991 -0.8285 -0.9307  0.5362
 1019MOL0     C40510  11.120   0.110   6.103 -0.4490 -0.3189 -0.8813
 1019MOL0     C40511  11.174   0.184   6.213 -0.4753 -0.0176 -0.3428
 1019MOL0     C40512  11.236   0.095   6.327  0.2735  0.0593  0.6384
 1019MOL0     C40513  11.161   0.330   6.216 -0.0013 -0.9772  0.9061
 1019MOL0     C40514  11.216   0.417   6.318  0.2572  0.2377  0.2395
 1019MOL0     O40515  11.328   0.372   6.394  0.1593  0.0151  0.4406
 1019MOL0     C40516  11.356   0.424   6.522 -0.0985  0.2843  0.1133
 1019MOL0     C40517  11.271   0.471   6.619  0.2516 -0.6851  0.2773
 1019MOL0     C40518  11.316   0.515   6.745  0.9300 -0.5933 -0.0935
 1019MOL0     C40519  11.454   0.510   6.779 -0.1146 -0.1322 -0.4799
 1019MOL0     O40520  11.483   0.581   6.894  0.8151 -0.1190 -0.3536
 1019MOL0     C40521  11.616   0.631   6.918  0.7032  0.5138  0.0889
 1019MOL0     C40522  11.600   0.763   6.998  0.5524 -0.0658 -0.0997
 1019MOL0     C40523  11.589   0.887   6.902 -0.4668 -1.1348  0.0385
 1019MOL0     C40524  11.456   0.894   6.843  0.7984 -1.1761  0.4894
 1019MOL0     C40525  11.394   1.023   6.782 -0.0054 -0.3173  0.7097
 1019MOL0     C40526  11.239   1.012   6.745 -1.2888  0.0780 -0.9796
 1019MOL0     C40527  11.183   0.879   6.708  0.2267 -0.0009 -0.4362
 1019MOL0     C40528  11.045   0.910   6.630 -0.2174 -0.0645 -0.0055
 1019MOL0    Cl40529  11.085   0.944   6.460 -0.6911 -0.1858 -0.3421
 1019MOL0     C40530  11.543   0.467   6.680  0.2019  0.1221 -0.2993
 1019MOL0     C40531  11.495   0.420   6.557  0.0421 -0.0472  0.8828
 1019MOL0     O40532  11.163   0.528   6.336  0.0058  0.1360 -0.6679
 1019MOL0     C40533  11.078   0.384   6.109  0.4876  1.0588 -0.7396
 1019MOL0     C40534  11.022   0.307   6.005 -0.4847  0.1425 -0.0499
 1019MOL0     N40535  10.525  -0.168   5.628 -0.1741  0.5420 -0.2664
 1019MOL0     N40536  10.418  -0.109   5.666 -0.4817  0.1283 -0.0774
 1019MOL0     C40537   9.282   0.182   5.493  0.1095 -0.4862 -0.5287
 1019MOL0     C40538   9.159   0.142   5.463  0.0033 -0.4286  1.1699
 1019MOL0     C40539   8.803  -0.039   5.264 -0.1464 -0.4666 -0.5868
 1019MOL0     C40540   8.768  -0.179   5.308 -0.2875 -0.3586  0.5020
 1019MOL0     C40541   8.635  -0.224   5.304 -1.5078  0.4092 -0.4829
 1019MOL0     C40542   8.535  -0.151   5.253  0.6405 -0.5497 -1.0322
 1019MOL0     O40543   8.417  -0.221   5.246  0.2974 -0.8532  0.0149
 1019MOL0     C40544   8.329  -0.198   5.128  0.2494 -0.5818 -1.9300
 1019MOL0     C40545   8.225  -0.311   5.115  0.0339  0.4011  0.6423
 1019MOL0     C40546   8.145  -0.335   5.243 -0.5230  0.5958 -0.1298
 1019MOL0     C40547   8.229  -0.433   5.343 -0.4102 -0.5169  0.1658
 1019MOL0     C40548   8.133  -0.477   5.436  0.6406  0.5548 -1.0282
 1019MOL0     C40549   8.050  -0.531   5.507 -0.0024  0.3860  0.0161
 1019MOL0     C40550   8.555  -0.014   5.216  0.5967  0.9374 -0.5449
 1019MOL0     C40551   8.687   0.042   5.216  0.7376 -0.3612 -0.1857
 1019MOL0     C40552   8.708   0.179   5.154  0.4178 -0.0943 -0.8793
 1019MOL0     H40553   9.192  -0.179   5.383 -0.1604 -0.1541  0.3686
 1019MOL0     H40554   9.420  -0.128   5.463 -0.9957 -1.1090 -0.4292
 1019MOL0     H40555   9.617  -0.033   5.435  0.8890 -3.5620  0.5863
 1019MOL0     H40556   9.595  -0.020   5.603 -1.6213  2.6566  1.6621
 1019MOL0     H40557   9.831   0.037   5.487 -0.7481  0.3543 -0.9897
 1019MOL0     H40558   9.761   0.179   5.422  0.4835  0.2940 -0.1052
 1019MOL0     H40559   9.695   0.229   5.682 -0.0905 -0.7009  1.1661
 1019MOL0     H40560   9.819   0.105   5.709 -0.1037 -1.6931 -2.1882
 1019MOL0     H40561   9.875   0.373   5.563 -0.4509 -0.9106  0.5580
 1019MOL0     H40562   9.922   0.317   5.732  3.9898  0.7616 -0.3778
 1019MOL0     H40563  10.069   0.315   5.503  2.0408 -3.6956 -2.8018
 1019MOL0     H40564  10.030   0.155   5.496  1.0328 -3.2034  2.3579
 1019MOL0     H40565  10.106   0.269   5.758 -5.3066 -1.0918  1.6574
 1019MOL0     H40566  10.067   0.102   5.737  0.3548 -0.6450 -0.6703
 1019MOL0     H40567  10.278   0.243   5.573 -2.5380  0.3759 -0.4075
 1019MOL0     H40568  10.224   0.069   5.560  0.7882 -0.8144  0.9211
 1019MOL0     H40569  10.389   0.191   5.789 -1.2219  2.5135 -1.5712
 1019MOL0     H40570  10.286   0.068   5.822  1.4798 -0.4368  0.6869
 1019MOL0     H40571  10.610   0.159   5.662  1.0378 -0.6931  2.3632
 1019MOL0     H40572  10.810   0.010   5.547 -1.6045 -0.8244 -0.7667
 1019MOL0     H40573  10.792  -0.170   5.528 -1.5254 -1.3011 -0.1465
 1019MOL0     H40574  10.795  -0.048   5.813 -0.6758 -2.4046  1.0045
 1019MOL0     H40575  10.816  -0.206   5.758  3.1158 -1.0983  0.9921
 1019MOL0     H40576  11.051  -0.158   5.679 -1.2425  0.4429 -0.5712
 1019MOL0     H40577  11.012   0.007   5.649 -2.0625 -0.1241 -1.1837
 1019MOL0     H40578  10.994  -0.090   5.931 -0.2667  1.6379  0.4856
 1019MOL0     H40579  11.155  -0.045   5.866 -0.3201 -2.1308 -3.2730
 1019MOL0     H40580  11.136   0.003   6.104  1.4094 -0.0714  0.3926
 1019MOL0     H40581  11.171   0.093   6.415 -2.7280 -3.9136 -1.3613
 1019MOL0     H40582  11.341   0.110   6.354 -0.0961  0.2156  2.0746
 1019MOL0     H40583  11.225  -0.012   6.308  1.5942 -0.2325  1.3544
 1019MOL0     H40584  11.164   0.486   6.604 -0.0269 -3.0628 -0.6364
 1019MOL0     H40585  11.249   0.551   6.822  1.9084  2.0623 -0.3907
 1019MOL0     H40586  11.675   0.558   6.975  3.4850  1.1619 -1.7306
 1019MOL0     H40587  11.676   0.656   6.830  2.2334 -1.4062  0.5077
 1019MOL0     H40588  11.516   0.741   7.064  1.0293  0.4951  0.7198
 1019MOL0     H40589  11.684   0.781   7.066 -0.1642  2.1688  0.2683
 1019MOL0     H40590  11.660   0.863   6.822 -0.3504  0.1820 -0.2709
 1019MOL0     H40591  11.619   0.968   6.970 -1.4894  0.4626 -1.3406
 1019MOL0     H40592  11.385   0.868   6.922 -1.5387 -0.1578 -1.1436
 1019MOL0     H40593  11.448   0.820   6.762 -2.0590 -0.5297  0.0732
 1019MOL0     H40594  11.406   1.109   6.849  0.7764  0.3370 -0.2345
 1019MOL0     H40595  11.444   1.057   6.691 -1.2707 -1.5590 -0.4890
 1019MOL0     H40596  11.223   1.081   6.662  0.9095  3.4153  1.1121
 1019MOL0     H40597  11.181   1.050   6.830  3.2305  2.2339  1.5353
 1019MOL0     H40598  11.162   0.821   6.799  2.0320  0.0648  0.0569
 1019MOL0     H40599  11.262   0.830   6.650 -0.7681 -1.1008 -0.9077
 1019MOL0     H40600  10.989   0.989   6.681 -0.9202 -1.3464  1.2680
 1019MOL0     H40601  10.978   0.825   6.640 -0.1699  0.0719  1.7053
 1019MOL0     H40602  11.649   0.444   6.690 -0.5124 -3.4436  0.4536
 1019MOL0     H40603  11.561   0.395   6.474 -0.5053 -2.2905  1.0543
 1019MOL0     H40604  11.089   0.492   6.096  1.0617  1.0921 -0.0264
 1019MOL0     H40605  10.966   0.359   5.927 -1.1128  1.5209  1.2655
 1019MOL0     H40606   9.294   0.290   5.497 -2.3387 -0.1784  0.3392
 1019MOL0     H40607   9.083   0.217   5.447 -2.1095 -2.8523 -0.8204
 1019MOL0     H40608   8.845  -0.242   5.351 -0.1974 -1.5855 -1.3539
 1019MOL0     H40609   8.606  -0.318   5.352  0.1034  0.6344  1.0414
 1019MOL0     H40610   8.279  -0.103   5.151  1.4688 -0.9180  3.2713
 1019MOL0     H40611   8.388  -0.185   5.037  0.9908  2.7072 -1.1271
 1019MOL0     H40612   8.272  -0.402   5.075 -0.8583  0.8820 -1.5778
 1019MOL0     H40613   8.156  -0.293   5.033  0.7602 -3.8764 -1.1572
 1019MOL0     H40614   8.110  -0.243   5.292  0.0758  0.9417 -0.3260
 1019MOL0     H40615   8.054  -0.391   5.226 -0.7768 -1.3947  5.6324
 1019MOL0     H40616   8.314  -0.385   5.393 -0.5761  2.4200 -2.0674
 1019MOL0     H40617   8.266  -0.522   5.290 -2.0516 -0.9651 -0.2884
 1019MOL0     H40618   7.966  -0.578   5.555 -1.4194  1.1016 -1.6500
 1019MOL0     H40619   8.476   0.047   5.173 -0.5908 -0.4991 -0.4979
 1019MOL0     H40620   8.608   0.205   5.118 -1.5064 -0.5360  3.4971
 1019MOL0     H40621   8.732   0.256   5.229  0.1632 -3.0580  2.5169
 1019MOL0     H40622   8.783   0.174   5.075  2.3863  2.0188  0.7068
 1020MOL0     O40623   3.540   7.342  11.318  0.1061 -0.2375 -0.7964
 1020MOL0     C40624   3.453   7.356  11.240  0.1683  0.5203  0.3190
 1020MOL0     O40625   3.396   7.254  11.162  0.5479  0.2871  0.1841
 1020MOL0     C40626   3.395   7.124  11.203  0.3982 -0.2625  0.0329
 1020MOL0     C40627   3.285   7.095  11.285  1.0024  0.0748  0.0793
 1020MOL0     C40628   3.281   6.963  11.338  0.4030 -0.1254  0.7590
 1020MOL0     C40629   3.385   6.871  11.312 -0.1362 -0.6178  0.3216
 1020MOL0     O40630   3.398   6.752  11.372  0.4408  0.4054 -0.8258
 1020MOL0     C40631   3.287   6.711  11.461 -0.2363  0.0947 -0.0537
 1020MOL0     C40632   3.322   6.561  11.497  0.0952 -0.2061 -0.2200
 1020MOL0     C40633   3.225   6.500  11.600  0.2861 -0.7768 -0.5100
 1020MOL0     C40634   3.297   6.406  11.701  0.6083 -0.0601  1.2398
 1020MOL0     C40635   3.289   6.262  11.658  0.0929  0.4759  0.5071
 1020MOL0     C40636   3.327   6.170  11.768 -0.5676 -0.5208  0.7253
 1020MOL0     C40637   3.322   6.017  11.734  0.1584 -0.2772  0.1100
 1020MOL0     C40638   3.452   5.953  11.700 -0.1349  0.3101  0.2740
 1020MOL0     N40639   3.507   5.993  11.578  0.4226  0.2552 -0.0580
 1020MOL0     C40640   3.437   6.002  11.464 -0.2499  0.2849  0.0175
 1020MOL0     C40641   3.511   6.083  11.384  0.3708 -0.0050  0.4788
 1020MOL0     C40642   3.485   6.101  11.242  0.6247 -0.2947 -0.4574
 1020MOL0     C40643   3.374   6.198  11.213 -0.2516 -0.7202  0.1324
 1020MOL0     C40644   3.319   6.193  11.073  0.1948  0.8041  0.1758
 1020MOL0     C40645   3.433   6.223  10.970 -0.1373 -0.2762 -0.3406
 1020MOL0     O40646   3.489   6.352  11.004 -0.0766 -0.0741 -0.2045
 1020MOL0     C40647   3.544   6.426  10.905 -0.0893 -0.7846 -0.1646
 1020MOL0     C40648   3.579   6.370  10.783 -0.6711 -0.1672  0.2506
 1020MOL0     C40649   3.641   6.439  10.676  0.0699 -0.8075 -0.6892
 1020MOL0     C40650   3.701   6.360  10.553 -0.4703 -0.0102  0.2190
 1020MOL0     C40651   3.651   6.581  10.697  0.6762  0.3726  0.1718
 1020MOL0     C40652   3.704   6.682  10.597  0.2616  0.5305  0.1929
 1020MOL0     O40653   3.741   6.811  10.636 -0.7832 -0.0107 -0.7373
 1020MOL0     C40654   3.784   6.904  10.553 -0.1340 -0.7145  0.3846
 1020MOL0     C40655   3.903   6.976  10.571 -1.0543 -0.3429  0.0295
 1020MOL0     C40656   3.942   7.080  10.494 -0.3048  0.2376 -0.3382
 1020MOL0     C40657   3.870   7.113  10.379  0.2623 -0.1396 -0.2747
 1020MOL0     O40658   3.915   7.188  10.281 -0.1631 -0.0831 -0.0240
 1020MOL0     C40659   3.970   7.320  10.316  0.1025  0.0956 -0.7468
 1020MOL0     C40660   4.058   7.381  10.202  0.4990  0.0118 -0.2497
 1020MOL0     C40661   3.989   7.401  10.070  1.1005  0.4136  0.6189
 1020MOL0     C40662   4.080   7.460   9.957  0.3642  0.0529  0.5623
 1020MOL0     C40663   4.073   7.616   9.949 -0.5342 -0.0978  0.2322
 1020MOL0     C40664   4.168   7.683   9.840 -0.2577  0.4558  0.4894
 1020MOL0     C40665   4.311   7.648   9.843  0.3059 -0.3978 -0.2707
 1020MOL0     C40666   4.362   7.689   9.981 -0.2548 -0.5409 -0.5340
 1020MOL0    Cl40667   4.526   7.737   9.928  0.0599  0.3642 -0.1351
 1020MOL0     C40668   3.757   7.042  10.352  0.9237  0.6009  0.4377
 1020MOL0     C40669   3.721   6.928  10.431  0.4324 -0.5893 -1.3090
 1020MOL0     O40670   3.693   6.646  10.484  0.0907  0.4041  0.6744
 1020MOL0     C40671   3.615   6.633  10.822  0.3253  0.4065  0.1393
 1020MOL0     C40672   3.556   6.553  10.925 -0.7696 -0.5332  0.4902
 1020MOL0     N40673   3.629   6.114  11.449 -0.1174 -0.7086 -0.2337
 1020MOL0     N40674   3.628   6.059  11.565  0.0795  0.2530  0.2445
 1020MOL0     C40675   3.487   6.909  11.219 -0.4902 -0.0851  0.2441
 1020MOL0     C40676   3.490   7.036  11.166 -0.0955 -0.3246  0.4993
 1020MOL0     C40677   3.408   7.498  11.212 -0.7893  0.7206  0.2390
 1020MOL0     C40678   3.277   7.516  11.167 -0.6395  0.3013 -0.1064
 1020MOL0     C40679   3.231   7.640  11.144 -0.6697 -0.9709  0.7583
 1020MOL0     C40680   3.309   7.752  11.143 -0.3890 -0.1694  1.0238
 1020MOL0     O40681   3.253   7.861  11.086 -0.5587 -0.0812  0.4988
 1020MOL0     C40682   3.326   7.991  11.108 -0.3593  0.2131 -0.1313
 1020MOL0     C40683   3.451   8.020  11.019  0.6921  0.5034 -0.8273
 1020MOL0     C40684   3.436   7.978  10.869  0.3736  0.5454  0.1902
 1020MOL0     C40685   3.349   8.084  10.796 -0.5394  0.0948 -0.4239
 1020MOL0     C40686   3.385   8.085  10.656  0.8442 -1.0119 -0.8349
 1020MOL0     C40687   3.393   8.075  10.538 -0.3339  0.8041  0.3513
 1020MOL0     C40688   3.431   7.738  11.212 -0.7035 -0.7896 -0.3373
 1020MOL0     C40689   3.484   7.614  11.247 -0.0068 -0.2876 -0.6842
 1020MOL0     C40690   3.608   7.609  11.316 -0.1902 -0.9518 -0.0245
 1020MOL0     H40691   3.208   7.167  11.309 -0.5807 -1.5732  0.1466
 1020MOL0     H40692   3.211   6.919  11.408  1.8780 -2.3727  0.9478
 1020MOL0     H40693   3.184   6.703  11.424 -0.3228  0.8166  0.0202
 1020MOL0     H40694   3.286   6.782  11.544  0.9498  2.5515 -1.9736
 1020MOL0     H40695   3.314   6.504  11.404  0.5743  2.0038 -1.6719
 1020MOL0     H40696   3.427   6.557  11.529 -0.1244 -2.6984  0.4138
 1020MOL0     H40697   3.173   6.587  11.640  0.7397 -0.2670 -1.0148
 1020MOL0     H40698   3.152   6.439  11.547 -0.6808 -0.4463  0.4170
 1020MOL0     H40699   3.400   6.437  11.722  1.2586 -0.5999 -0.8982
 1020MOL0     H40700   3.240   6.419  11.794 -3.5728 -5.1283 -0.1214
 1020MOL0     H40701   3.344   6.246  11.565 -0.8857  1.4150 -0.2598
 1020MOL0     H40702   3.191   6.227  11.626 -0.2332 -1.0215  2.8697
 1020MOL0     H40703   3.428   6.199  11.801  0.9125 -2.9438 -1.3122
 1020MOL0     H40704   3.271   6.205  11.855  0.4625  2.3565  0.3395
 1020MOL0     H40705   3.257   6.001  11.647 -1.4850  1.0180  1.0475
 1020MOL0     H40706   3.281   5.970  11.823  0.8702  3.0174  2.3694
 1020MOL0     H40707   3.519   5.974  11.783 -0.6737 -4.1841  2.1244
 1020MOL0     H40708   3.437   5.845  11.696 -1.7735  0.4482  1.5057
 1020MOL0     H40709   3.350   5.943  11.436  0.4305 -0.9583  0.4713
 1020MOL0     H40710   3.460   6.004  11.198  0.1654  0.3160 -1.5845
 1020MOL0     H40711   3.578   6.145  11.202  1.5286 -0.9631  0.8404
 1020MOL0     H40712   3.290   6.169  11.277  2.2747 -2.9047  2.7427
 1020MOL0     H40713   3.397   6.301  11.240  1.8849 -1.8162  2.9876
 1020MOL0     H40714   3.283   6.090  11.059 -0.3591  0.9506  0.4935
 1020MOL0     H40715   3.236   6.261  11.050 -1.0842 -0.7956 -0.1482
 1020MOL0     H40716   3.501   6.137  10.973 -0.0935 -0.4930 -3.7304
 1020MOL0     H40717   3.400   6.225  10.866  0.0604 -0.5317 -0.4107
 1020MOL0     H40718   3.571   6.264  10.763 -1.3433  0.0654 -0.8358
 1020MOL0     H40719   3.720   6.255  10.576  0.0821 -0.5755 -2.4384
 1020MOL0     H40720   3.792   6.407  10.516 -0.6379  0.9478  0.9948
 1020MOL0     H40721   3.628   6.363  10.471  0.1059 -0.0495 -0.3018
 1020MOL0     H40722   3.977   6.953  10.647 -2.2315 -3.7443  0.3144
 1020MOL0     H40723   4.042   7.112  10.523  1.5073 -4.5239 -0.5407
 1020MOL0     H40724   3.892   7.396  10.324 -0.1849 -0.3941  3.2257
 1020MOL0     H40725   4.035   7.310  10.404 -1.4927 -1.7930  0.3042
 1020MOL0     H40726   4.092   7.479  10.236 -0.5575  0.7604 -1.2627
 1020MOL0     H40727   4.140   7.312  10.181 -0.2018  0.1354 -3.9541
 1020MOL0     H40728   3.893   7.453  10.063 -0.0186 -1.7459 -2.8638
 1020MOL0     H40729   3.950   7.305  10.035 -3.6657  2.8555 -1.7714
 1020MOL0     H40730   4.057   7.425   9.856 -0.9213  1.3125  0.3908
 1020MOL0     H40731   4.184   7.433   9.978  0.6240  0.5636 -0.0459
 1020MOL0     H40732   3.968   7.644   9.936  0.1992  1.9126 -2.1298
 1020MOL0     H40733   4.110   7.659  10.043 -0.2768 -1.0822  0.5995
 1020MOL0     H40734   4.154   7.790   9.854 -1.7113  0.7873 -2.7805
 1020MOL0     H40735   4.127   7.654   9.743 -2.9387 -1.0585  1.9474
 1020MOL0     H40736   4.369   7.702   9.767 -1.9696  0.1065 -1.7779
 1020MOL0     H40737   4.315   7.541   9.821 -0.3279 -0.1932 -1.4982
 1020MOL0     H40738   4.365   7.603  10.049  1.9592 -0.3901 -0.3699
 1020MOL0     H40739   4.309   7.777  10.017 -5.3821 -3.8245  1.0157
 1020MOL0     H40740   3.694   7.058  10.264  2.3217 -0.6794 -0.8643
 1020MOL0     H40741   3.626   6.881  10.407  1.6833 -3.4781 -1.0111
 1020MOL0     H40742   3.636   6.739  10.828  0.2136  0.6437 -2.4147
 1020MOL0     H40743   3.552   6.595  11.025  3.5104 -1.9191  1.4903
 1020MOL0     H40744   3.555   6.833  11.183 -1.7696 -0.3929 -1.6789
 1020MOL0     H40745   3.564   7.077  11.098 -2.0278  1.4887 -0.6587
 1020MOL0     H40746   3.217   7.429  11.142  1.4353 -0.9420 -0.9694
 1020MOL0     H40747   3.124   7.635  11.126 -0.6109 -0.3859  0.1993
 1020MOL0     H40748   3.247   8.064  11.083 -1.1127 -0.3134  0.6734
 1020MOL0     H40749   3.345   8.003  11.215 -1.7261 -0.5612  0.2189
 1020MOL0     H40750   3.535   7.958  11.053  0.7757  0.7951 -0.4879
 1020MOL0     H40751   3.482   8.125  11.031  2.4119 -0.2310  2.2599
 1020MOL0     H40752   3.535   7.983  10.823 -0.5453  0.8447 -1.8825
 1020MOL0     H40753   3.394   7.878  10.854 -1.1240  1.0901  0.5794
 1020MOL0     H40754   3.370   8.182  10.841  0.4977 -0.9616  1.4864
 1020MOL0     H40755   3.245   8.055  10.812 -0.1739 -0.8685  0.3005
 1020MOL0     H40756   3.394   8.067  10.431 -3.3304 -1.8757  0.3733
 1020MOL0     H40757   3.485   7.829  11.236  1.6270 -1.5944 -2.0485
 1020MOL0     H40758   3.641   7.710  11.340 -0.4855 -0.8746  0.0670
 1020MOL0     H40759   3.602   7.564  11.416  0.8987 -0.8638  0.0880
 1020MOL0     H40760   3.685   7.549  11.266  0.8363  0.2660  0.0591
 1021MOL0     O40761   2.951  10.813   0.606 -0.0797 -0.7552 -0.1803
 1021MOL0     C40762   3.053  10.779   0.547 -1.1770 -0.1368 -0.0240
 1021MOL0     O40763   3.087  10.782   0.409 -0.2370  0.2323  0.4180
 1021MOL0     C40764   3.032  10.897   0.358 -1.0274 -0.5681  0.1897
 1021MOL0     C40765   3.084  11.031   0.384  0.1492 -0.1553  0.8987
 1021MOL0     C40766   3.037  11.143   0.319  0.8530 -1.0902  0.0012
 1021MOL0     C40767   2.929  11.130   0.232 -0.6216 -0.3664  0.7601
 1021MOL0     O40768   2.878  11.245   0.170  0.1013  0.1747  0.0215
 1021MOL0     C40769   2.740  11.274   0.208  0.9883 -0.6080 -0.2443
 1021MOL0     C40770   2.736  11.349   0.345  1.4033  0.6881 -0.9265
 1021MOL0     C40771   2.706  11.263   0.470  0.4951  0.2601 -0.4483
 1021MOL0     C40772   2.554  11.259   0.491 -0.4118  0.5583 -0.0194
 1021MOL0     C40773   2.526  11.182   0.633 -0.0970  0.0398  0.1466
 1021MOL0     C40774   2.382  11.180   0.674  0.4735 -0.1000 -0.4907
 1021MOL0     C40775   2.316  11.311   0.696  0.3343 -0.6232 -0.4041
 1021MOL0     C40776   2.195  11.301   0.785  0.7257  0.0131  0.6640
 1021MOL0     N40777   2.081  11.272   0.709  0.7051 -0.1401 -0.1570
 1021MOL0     C40778   2.036  11.145   0.694  0.1747  0.0977 -0.8294
 1021MOL0     C40779   1.947  11.142   0.592 -0.3208  0.6866  0.2456
 1021MOL0     C40780   1.878  11.025   0.531 -0.3333 -0.0758  0.0122
 1021MOL0     C40781   1.894  11.025   0.377 -0.4510 -0.4154  0.0723
 1021MOL0     C40782   1.813  10.907   0.310 -0.7504 -0.3682  0.8190
 1021MOL0     C40783   1.664  10.922   0.326 -0.7907 -0.1060  0.2666
 1021MOL0     O40784   1.613  11.049   0.271  0.6662 -0.2471 -0.1625
 1021MOL0     C40785   1.618  11.073   0.136  0.9602 -0.1748  0.3977
 1021MOL0     C40786   1.602  10.965   0.044  0.6860  0.4459  0.7444
 1021MOL0     C40787   1.613  10.986  -0.095 -0.6444 -0.1547  0.3322
 1021MOL0     C40788   1.604  10.855  -0.188  0.4672 -1.8599 -0.1621
 1021MOL0     C40789   1.631  11.123  -0.145 -0.1851 -0.1410 -0.6538
 1021MOL0     C40790   1.642  11.173  -0.284 -0.1601  0.2268 -0.4068
 1021MOL0     O40791   1.765  11.225  -0.319  0.8900 -0.0571  0.4127
 1021MOL0     C40792   1.781  11.274  -0.441  0.6626  0.1861 -0.1101
 1021MOL0     C40793   1.896  11.234  -0.503  0.4155 -0.7342 -0.9250
 1021MOL0     C40794   1.933  11.272  -0.637  0.0158  0.6985 -0.0819
 1021MOL0     C40795   1.845  11.348  -0.710 -0.5233  0.2177  0.3358
 1021MOL0     O40796   1.861  11.397  -0.840  0.1582  0.3312 -0.2020
 1021MOL0     C40797   1.970  11.337  -0.921  0.0407 -1.4416  0.0753
 1021MOL0     C40798   2.099  11.412  -0.908  0.0081 -0.4465 -0.4962
 1021MOL0     C40799   2.211  11.365  -1.000 -0.2243 -0.1502 -0.8791
 1021MOL0     C40800   2.201  11.429  -1.146  0.0808  0.4686 -0.1463
 1021MOL0     C40801   2.310  11.392  -1.238  0.4513  0.2162  0.0401
 1021MOL0     C40802   2.295  11.430  -1.382 -0.2287 -0.5740  0.0231
 1021MOL0     C40803   2.182  11.357  -1.455  0.0669  0.5075  0.5451
 1021MOL0     C40804   2.196  11.382  -1.604 -0.3301  0.4947 -0.3030
 1021MOL0    Cl40805   2.157  11.552  -1.641 -0.0339 -0.1005  0.2092
 1021MOL0     C40806   1.719  11.375  -0.652 -1.0790  0.0545  0.0999
 1021MOL0     C40807   1.694  11.342  -0.523  0.2877 -0.0363  0.3425
 1021MOL0     O40808   1.544  11.154  -0.356  0.4319  0.2297 -0.1345
 1021MOL0     C40809   1.651  11.219  -0.048  1.2324  0.1596  1.6380
 1021MOL0     C40810   1.644  11.194   0.087  0.1168 -0.4133 -0.3441
 1021MOL0     N40811   1.923  11.278   0.562 -0.3559 -0.6249 -0.0471
 1021MOL0     N40812   2.007  11.356   0.629 -0.0693  1.2026 -0.1157
 1021MOL0     C40813   2.874  11.005   0.211  0.5541 -0.7093 -0.9927
 1021MOL0     C40814   2.932  10.895   0.265  0.7348 -0.4824  0.1812
 1021MOL0     C40815   3.158  10.703   0.632  0.5235  0.1148  0.1028
 1021MOL0     C40816   3.224  10.591   0.573  0.2544  0.6230  0.3059
 1021MOL0     C40817   3.326  10.520   0.643 -0.1546  0.3785 -0.1521
 1021MOL0     C40818   3.349  10.549   0.781 -0.7867  0.2607 -0.6028
 1021MOL0     O40819   3.439  10.474   0.849 -0.8657  0.1289  0.0778
 1021MOL0     C40820   3.416  10.455   0.990 -0.6277  0.8740 -0.4297
 1021MOL0     C40821   3.491  10.313   1.012  0.4523 -0.4378 -1.1542
 1021MOL0     C40822   3.642  10.303   1.008  0.1627  0.4053 -0.3777
 1021MOL0     C40823   3.691  10.276   1.150 -0.4173  0.2648  0.9472
 1021MOL0     C40824   3.816  10.349   1.177  0.3527 -0.7420 -0.4167
 1021MOL0     C40825   3.924  10.406   1.202 -0.2493 -0.2225 -0.6316
 1021MOL0     C40826   3.305  10.671   0.832  0.1461  0.1968  0.1846
 1021MOL0     C40827   3.198  10.743   0.767 -1.1027  0.2505  0.0024
 1021MOL0     C40828   3.155  10.866   0.835  1.0895  0.0950  0.0602
 1021MOL0     H40829   3.162  11.051   0.456 -1.2563 -1.3275  2.8507
 1021MOL0     H40830   3.082  11.241   0.330  0.9060 -1.2634  1.5163
 1021MOL0     H40831   2.670  11.190   0.206  2.8673 -2.3123  1.6350
 1021MOL0     H40832   2.696  11.343   0.135  2.6501  0.9842  0.1782
 1021MOL0     H40833   2.840  11.377   0.362  1.8012 -2.0293  2.1734
 1021MOL0     H40834   2.664  11.432   0.340 -2.4154 -1.9263  2.9407
 1021MOL0     H40835   2.744  11.163   0.452  5.1927  1.3410  1.9290
 1021MOL0     H40836   2.743  11.302   0.566  2.0935 -0.9990 -0.5141
 1021MOL0     H40837   2.518  11.361   0.506 -0.7322  0.1877  2.0498
 1021MOL0     H40838   2.496  11.206   0.415 -0.9495  0.6511  0.3245
 1021MOL0     H40839   2.574  11.246   0.708 -3.0284 -0.0622  2.2881
 1021MOL0     H40840   2.569  11.081   0.638 -0.5169 -0.0925  1.4431
 1021MOL0     H40841   2.316  11.120   0.610  0.4209 -2.5085  1.6425
 1021MOL0     H40842   2.379  11.133   0.773  0.8646  2.2795  0.7154
 1021MOL0     H40843   2.289  11.355   0.599  1.2458 -0.9086 -0.8089
 1021MOL0     H40844   2.389  11.366   0.757 -0.3166 -1.2262  0.9561
 1021MOL0     H40845   2.203  11.226   0.863  0.2413 -2.6149 -1.6593
 1021MOL0     H40846   2.177  11.395   0.839 -0.6563 -0.3976  0.9453
 1021MOL0     H40847   2.079  11.065   0.754  0.5522  3.0625  3.2877
 1021MOL0     H40848   1.773  11.045   0.556  0.2596  1.4071  1.4895
 1021MOL0     H40849   1.909  10.934   0.583  1.6712  1.8008  2.3663
 1021MOL0     H40850   1.865  11.124   0.341  0.3499  0.1235  0.8876
 1021MOL0     H40851   1.995  11.007   0.339 -0.2585  2.2389 -0.8409
 1021MOL0     H40852   1.843  10.910   0.205 -2.5571  1.8180  0.3006
 1021MOL0     H40853   1.845  10.811   0.352 -2.4401 -0.8912  0.9813
 1021MOL0     H40854   1.614  10.835   0.282  1.6674 -0.9236 -1.1120
 1021MOL0     H40855   1.645  10.920   0.434 -0.8709  1.3829  0.3039
 1021MOL0     H40856   1.575  10.869   0.086 -0.4278  0.2169 -0.4233
 1021MOL0     H40857   1.583  10.878  -0.293 -0.9813  2.3087  0.8785
 1021MOL0     H40858   1.518  10.793  -0.158 -1.3608 -0.2453 -1.7949
 1021MOL0     H40859   1.692  10.802  -0.151  0.1617  0.6234  4.8004
 1021MOL0     H40860   1.976  11.179  -0.454 -0.8546 -2.2364 -0.4557
 1021MOL0     H40861   2.029  11.253  -0.682  0.2888  2.5527 -0.3666
 1021MOL0     H40862   1.981  11.229  -0.919 -2.2305 -1.7312 -0.2842
 1021MOL0     H40863   1.943  11.366  -1.023  1.1887  2.0081  0.6106
 1021MOL0     H40864   2.059  11.512  -0.926  0.3951 -0.3026 -0.5532
 1021MOL0     H40865   2.133  11.408  -0.804  2.7522  2.0306 -1.1686
 1021MOL0     H40866   2.209  11.256  -1.004 -0.0068 -0.4213  2.6918
 1021MOL0     H40867   2.309  11.389  -0.957  0.1592  1.1184 -2.3735
 1021MOL0     H40868   2.212  11.538  -1.135  2.9500 -0.0232  4.7005
 1021MOL0     H40869   2.105  11.411  -1.195 -0.5755  3.6113 -0.2848
 1021MOL0     H40870   2.407  11.427  -1.202 -1.4540  3.2179  2.8271
 1021MOL0     H40871   2.311  11.283  -1.232  0.0921  0.0461 -2.2249
 1021MOL0     H40872   2.390  11.427  -1.437 -1.2221  0.3331 -1.8299
 1021MOL0     H40873   2.244  11.526  -1.376 -2.5770 -1.5926 -1.7693
 1021MOL0     H40874   2.087  11.403  -1.429  1.6338  1.9602  4.5125
 1021MOL0     H40875   2.193  11.248  -1.449 -3.2425 -0.3361 -3.7907
 1021MOL0     H40876   2.135  11.319  -1.669  0.3596  0.8114 -1.2709
 1021MOL0     H40877   2.295  11.358  -1.644 -0.3893  0.5246 -0.4659
 1021MOL0     H40878   1.639  11.428  -0.703 -3.4423 -2.0014  1.4424
 1021MOL0     H40879   1.595  11.363  -0.484 -0.1468 -3.2844  1.2087
 1021MOL0     H40880   1.660  11.320  -0.088  3.4316 -0.3085  0.8012
 1021MOL0     H40881   1.663  11.271   0.161  1.3614 -1.2772  0.2761
 1021MOL0     H40882   2.787  10.993   0.147  1.8177  0.2146 -2.9950
 1021MOL0     H40883   2.885  10.797   0.258 -3.0185  0.9316  2.4483
 1021MOL0     H40884   3.192  10.548   0.480 -0.4227 -2.0507  1.6773
 1021MOL0     H40885   3.366  10.433   0.593  1.6799  1.0407  0.1070
 1021MOL0     H40886   3.454  10.537   1.052 -3.7956  1.7598  0.5093
 1021MOL0     H40887   3.307  10.456   1.000 -0.8550 -2.8867 -1.0303
 1021MOL0     H40888   3.462  10.234   0.942  2.4988 -2.4605  0.1530
 1021MOL0     H40889   3.445  10.288   1.108 -2.2626 -0.1280 -2.2944
 1021MOL0     H40890   3.661  10.221   0.938  1.0295  2.0311 -2.1420
 1021MOL0     H40891   3.684  10.394   0.964 -3.2478  2.7251  0.7310
 1021MOL0     H40892   3.701  10.169   1.170  0.5650  0.3941  1.2051
 1021MOL0     H40893   3.620  10.308   1.227 -3.2890  0.8127 -1.7510
 1021MOL0     H40894   4.024  10.442   1.216 -1.5831  4.0753 -0.7781
 1021MOL0     H40895   3.347  10.709   0.925 -5.6184  0.8876  2.9858
 1021MOL0     H40896   3.111  10.933   0.761 -0.3193 -1.8338 -0.9549
 1021MOL0     H40897   3.063  10.832   0.885  0.0340  0.8322 -1.3042
 1021MOL0     H40898   3.217  10.913   0.912 -1.3201 -0.8449  2.7856
 1022MOL0     O40899  10.395   6.299   3.561 -0.1138 -0.9077 -0.1898
 1022MOL0     C40900  10.330   6.265   3.661 -0.5700 -0.0746  0.2270
 1022MOL0     O40901  10.379   6.195   3.767  0.2278  1.3629 -0.2702
 1022MOL0     C40902  10.515   6.189   3.793 -0.0752  0.1355 -0.0762
 1022MOL0     C40903  10.589   6.068   3.775  0.2749  0.1018 -0.0642
 1022MOL0     C40904  10.727   6.065   3.797  0.1868 -0.3313 -0.6095
 1022MOL0     C40905  10.794   6.190   3.817 -0.6901  0.3620  0.5259
 1022MOL0     O40906  10.923   6.186   3.837  0.1946  1.0276  0.8253
 1022MOL0     C40907  10.999   6.156   3.720 -0.3367  0.4516  0.6400
 1022MOL0     C40908  11.148   6.172   3.750  1.3539 -0.1328  0.4936
 1022MOL0     C40909  11.232   6.090   3.657  0.0222 -0.1366 -0.5315
 1022MOL0     C40910  11.251   6.151   3.514 -0.1573 -0.0144 -0.5618
 1022MOL0     C40911  11.304   6.038   3.419  0.1776 -0.0880 -0.9794
 1022MOL0     C40912  11.194   5.944   3.367  0.5909  0.4854 -0.4277
 1022MOL0     C40913  11.246   5.809   3.300  0.3092 -0.1802  0.3357
 1022MOL0     C40914  11.136   5.706   3.282  0.2371 -1.2254  0.6734
 1022MOL0     N40915  11.179   5.599   3.188 -0.7027  0.1759 -0.9211
 1022MOL0     C40916  11.310   5.565   3.162 -0.9778 -0.7791 -0.5004
 1022MOL0     C40917  11.306   5.447   3.113  0.7905  0.3085  0.4405
 1022MOL0     C40918  11.435   5.371   3.062  0.2630 -0.2758 -0.9737
 1022MOL0     C40919  11.411   5.279   2.949 -0.2899 -0.3003  0.3373
 1022MOL0     C40920  11.350   5.340   2.816 -0.4183 -0.5248 -1.3631
 1022MOL0     C40921  11.413   5.473   2.787  0.1720  0.4793 -0.1319
 1022MOL0     O40922  11.553   5.475   2.796  0.4135  0.7639  0.3274
 1022MOL0     C40923  11.634   5.452   2.689  0.2845  0.4278  0.5208
 1022MOL0     C40924  11.756   5.403   2.709  0.5815 -0.0319 -0.5747
 1022MOL0     C40925  11.852   5.377   2.605  1.2710  0.3979 -1.0757
 1022MOL0     C40926  11.974   5.285   2.637 -0.2562 -0.5076  0.1317
 1022MOL0     C40927  11.822   5.419   2.477 -0.2876  0.3780 -0.0085
 1022MOL0     C40928  11.915   5.404   2.342  0.2337 -0.2500  0.7226
 1022MOL0     O40929  11.870   5.479   2.238 -0.0524 -0.2847  0.5535
 1022MOL0     C40930  11.959   5.493   2.132  0.8775 -0.4859  0.1251
 1022MOL0     C40931  11.999   5.620   2.102  0.3370  0.9784 -0.9506
 1022MOL0     C40932  12.084   5.639   1.980 -0.2402 -0.4091  0.4805
 1022MOL0     C40933  12.115   5.535   1.897 -0.8099 -0.4608 -0.4403
 1022MOL0     O40934  12.186   5.536   1.780 -0.0636 -0.8274 -0.4599
 1022MOL0     C40935  12.215   5.669   1.737 -0.0925  0.3015  0.5418
 1022MOL0     C40936  12.096   5.742   1.661  0.0766 -0.6105 -0.0007
 1022MOL0     C40937  12.149   5.866   1.590  0.0993  0.4849 -0.0264
 1022MOL0     C40938  12.184   5.973   1.694 -0.0425 -0.9467 -0.6067
 1022MOL0     C40939  12.058   6.047   1.753 -0.1983 -0.1557 -1.3025
 1022MOL0     C40940  11.954   6.111   1.660 -1.7256 -0.0387 -0.1299
 1022MOL0     C40941  11.830   6.128   1.729  0.5792 -0.7285  0.2205
 1022MOL0     C40942  11.741   6.228   1.656  0.3965 -0.8522 -0.2093
 1022MOL0    Cl40943  11.580   6.252   1.756  0.0458 -0.4222  0.2053
 1022MOL0     C40944  12.066   5.406   1.924 -0.3018  0.0202 -0.0952
 1022MOL0     C40945  11.991   5.383   2.051 -1.3961 -0.5035  1.0441
 1022MOL0     O40946  12.017   5.335   2.341 -0.3195  0.1489 -0.0043
 1022MOL0     C40947  11.693   5.463   2.450  0.3139 -0.2684 -0.3637
 1022MOL0     C40948  11.596   5.481   2.558 -1.0982  0.5022  0.3394
 1022MOL0     N40949  11.171   5.413   3.094 -0.0727 -1.0399 -0.0465
 1022MOL0     N40950  11.098   5.498   3.148  0.4064  0.1117 -0.9946
 1022MOL0     C40951  10.718   6.302   3.841  0.0112 -0.7419  1.0310
 1022MOL0     C40952  10.581   6.308   3.835 -0.0149 -0.9005  0.3775
 1022MOL0     C40953  10.184   6.299   3.658  0.8605 -0.2625  0.8031
 1022MOL0     C40954  10.119   6.303   3.535 -0.2836  0.2566  0.3832
 1022MOL0     C40955   9.991   6.360   3.526 -0.7279  0.6114  0.5377
 1022MOL0     C40956   9.914   6.389   3.641 -0.2999 -0.3889  0.2092
 1022MOL0     O40957   9.785   6.442   3.610 -0.1774  0.4646  0.2194
 1022MOL0     C40958   9.696   6.458   3.728  0.5569  0.4437 -0.1737
 1022MOL0     C40959   9.549   6.445   3.663 -0.1182 -0.5577  0.3155
 1022MOL0     C40960   9.427   6.472   3.748  0.8560  0.3600 -0.7867
 1022MOL0     C40961   9.415   6.366   3.866  0.8167 -1.1703  0.7807
 1022MOL0     C40962   9.430   6.228   3.819 -0.7126 -0.9226 -0.6005
 1022MOL0     C40963   9.438   6.113   3.783  0.5347  0.2735 -0.7701
 1022MOL0     C40964   9.969   6.373   3.772 -0.1434  0.6500  1.1890
 1022MOL0     C40965  10.106   6.334   3.780 -0.4744 -0.1631  1.4758
 1022MOL0     C40966  10.165   6.328   3.916 -0.0288  0.7159  0.9436
 1022MOL0     H40967  10.536   5.976   3.750  2.9453 -0.7029 -3.6180
 1022MOL0     H40968  10.794   5.979   3.803  3.0995  1.7528 -1.2540
 1022MOL0     H40969  10.977   6.232   3.644 -0.1438 -1.0217 -0.9578
 1022MOL0     H40970  10.974   6.063   3.669  2.1262 -0.1365  0.3921
 1022MOL0     H40971  11.169   6.277   3.724 -0.2306 -0.1212 -0.9222
 1022MOL0     H40972  11.172   6.145   3.853  0.8300 -2.3893  0.0800
 1022MOL0     H40973  11.333   6.082   3.700 -0.3281  1.6421  0.7220
 1022MOL0     H40974  11.189   5.990   3.654  3.3452 -1.7055 -0.8693
 1022MOL0     H40975  11.158   6.197   3.479 -1.8473 -2.1617  0.8628
 1022MOL0     H40976  11.329   6.228   3.513 -0.6640  0.8066 -5.8084
 1022MOL0     H40977  11.379   5.971   3.464  3.3813  1.5238 -3.4757
 1022MOL0     H40978  11.351   6.082   3.331  3.0294 -1.1036 -0.1053
 1022MOL0     H40979  11.127   5.926   3.451  2.2805  1.5650  1.2281
 1022MOL0     H40980  11.134   6.000   3.295 -0.5755  0.6364  0.6281
 1022MOL0     H40981  11.314   5.766   3.375  0.7976  0.7436  0.4382
 1022MOL0     H40982  11.290   5.830   3.202 -4.4084 -1.0243 -2.2673
 1022MOL0     H40983  11.121   5.666   3.382 -0.6970  0.2968  1.1713
 1022MOL0     H40984  11.043   5.745   3.241 -0.2010 -3.4620 -0.6388
 1022MOL0     H40985  11.391   5.626   3.201 -2.0469  1.7827 -2.0791
 1022MOL0     H40986  11.473   5.312   3.147  0.0326 -0.7156 -1.1727
 1022MOL0     H40987  11.510   5.446   3.039 -1.9558  1.9490 -1.3321
 1022MOL0     H40988  11.510   5.239   2.925  1.3632  3.5975 -0.0996
 1022MOL0     H40989  11.342   5.202   2.985  0.5998  0.1372  3.2224
 1022MOL0     H40990  11.387   5.280   2.733  0.9720  0.7654 -1.7270
 1022MOL0     H40991  11.241   5.351   2.813 -0.3249  0.0841 -3.2141
 1022MOL0     H40992  11.387   5.501   2.685  3.6733 -2.1927 -1.9931
 1022MOL0     H40993  11.381   5.553   2.854 -0.6501  1.1859 -1.3416
 1022MOL0     H40994  11.786   5.365   2.806  0.4290 -0.6685 -0.7762
 1022MOL0     H40995  11.983   5.247   2.739  0.6862  0.3835  0.3978
 1022MOL0     H40996  12.066   5.332   2.602 -1.1966  1.3121  0.0112
 1022MOL0     H40997  11.968   5.195   2.575  1.2209  0.2603 -1.1873
 1022MOL0     H40998  11.978   5.704   2.166 -0.4625  0.7117 -0.8433
 1022MOL0     H40999  12.113   5.743   1.973  0.0705 -0.2708  2.9434
 1022MOL0     H41000  12.266   5.734   1.810 -0.5187 -1.2517  2.3117
 1022MOL0     H41001  12.289   5.663   1.657  1.5155  3.1727  1.6613
 1022MOL0     H41002  12.061   5.669   1.589  3.7105 -1.9700 -0.5968
 1022MOL0     H41003  12.013   5.763   1.730  1.7542  0.7051  1.7474
 1022MOL0     H41004  12.082   5.919   1.522 -0.0193  1.7535  1.0234
 1022MOL0     H41005  12.238   5.839   1.532 -0.9475  0.3443 -1.6234
 1022MOL0     H41006  12.250   6.051   1.654  0.9612 -0.5770  1.6132
 1022MOL0     H41007  12.237   5.936   1.783  1.9533  2.0750 -0.3949
 1022MOL0     H41008  11.998   5.980   1.814 -0.4783  1.5011  0.3249
 1022MOL0     H41009  12.103   6.122   1.818  0.9023  0.6154 -2.8754
 1022MOL0     H41010  11.949   6.046   1.572  1.8730  0.6588 -1.0010
 1022MOL0     H41011  11.996   6.209   1.639 -0.1275 -1.1532 -2.6556
 1022MOL0     H41012  11.853   6.171   1.827  0.0013  0.5740 -0.1952
 1022MOL0     H41013  11.786   6.029   1.746  1.3114 -1.2963 -1.0730
 1022MOL0     H41014  11.710   6.194   1.556 -1.5932  2.2688 -0.8319
 1022MOL0     H41015  11.801   6.320   1.653 -1.1261  0.4314  3.1331
 1022MOL0     H41016  12.085   5.332   1.846  1.9075 -0.6660  1.0305
 1022MOL0     H41017  11.957   5.283   2.077  1.6982 -1.2103  2.8572
 1022MOL0     H41018  11.658   5.486   2.350 -0.2165  2.3554  0.3462
 1022MOL0     H41019  11.504   5.530   2.532 -0.5033  2.3045  1.4389
 1022MOL0     H41020  10.762   6.397   3.870 -4.3744  2.2888 -1.0891
 1022MOL0     H41021  10.524   6.397   3.862  2.1424  0.1584  1.7796
 1022MOL0     H41022  10.168   6.286   3.440 -0.0204  0.7635  0.4279
 1022MOL0     H41023   9.950   6.366   3.425  0.7596  2.3106 -0.0159
 1022MOL0     H41024   9.713   6.381   3.804 -0.5437  2.8969  2.8266
 1022MOL0     H41025   9.703   6.559   3.771 -0.3786  0.1296  0.7718
 1022MOL0     H41026   9.543   6.349   3.611  0.2643 -0.3551 -0.1038
 1022MOL0     H41027   9.539   6.522   3.586 -3.5757 -0.0210  1.1452
 1022MOL0     H41028   9.424   6.575   3.784 -0.0627  0.3234 -0.7271
 1022MOL0     H41029   9.345   6.455   3.677 -0.0839 -2.5124  0.7992
 1022MOL0     H41030   9.316   6.380   3.912  0.0067 -2.9162 -0.3399
 1022MOL0     H41031   9.483   6.391   3.948  3.1931 -0.8142 -1.1872
 1022MOL0     H41032   9.417   6.016   3.743 -1.2345  0.9057 -1.4893
 1022MOL0     H41033   9.908   6.414   3.852  1.4332  2.0931  1.7019
 1022MOL0     H41034  10.225   6.239   3.936  2.2971  1.8287 -0.6024
 1022MOL0     H41035  10.223   6.421   3.919  2.1490 -0.5896  3.9751
 1022MOL0     H41036  10.085   6.350   3.988 -0.8423  0.6145  0.1000
 1023MOL0     O41037   4.896   9.930  11.085 -0.4495  0.5103  0.2740
 1023MOL0     C41038   4.790   9.970  11.046  0.3685  0.2235 -0.7523
 1023MOL0     O41039   4.664   9.962  11.116 -0.3187  0.2245  1.2527
 1023MOL0     C41040   4.673   9.962  11.249 -0.2510  0.3127 -0.1665
 1023MOL0     C41041   4.773  10.032  11.324 -0.8276 -0.8436  0.3251
 1023MOL0     C41042   4.781  10.021  11.464 -0.2705 -1.6823  0.9035
 1023MOL0     C41043   4.695   9.940  11.537  0.3085  0.1006 -0.2761
 1023MOL0     O41044   4.711   9.892  11.664  0.0723 -0.2282 -0.1543
 1023MOL0     C41045   4.834   9.923  11.735  1.0655 -0.1502  0.8043
 1023MOL0     C41046   4.880   9.819  11.842  0.7906 -1.0599  0.5011
 1023MOL0     C41047   4.776   9.802  11.951  0.0543 -0.2104 -0.0024
 1023MOL0     C41048   4.833   9.730  12.072  0.0910  0.5553  0.0084
 1023MOL0     C41049   4.858   9.587  12.041  0.1449  0.0112 -0.4769
 1023MOL0     C41050   4.925   9.521  12.169  0.0878 -0.3132  0.7967
 1023MOL0     C41051   4.950   9.373  12.156  0.1406  0.4651  0.4259
 1023MOL0     C41052   5.080   9.347  12.076  0.1111  0.3385  0.1055
 1023MOL0     N41053   5.062   9.212  12.012 -0.2880 -0.6874  0.5483
 1023MOL0     C41054   5.145   9.107  12.031 -0.4697 -0.4815  0.8909
 1023MOL0     C41055   5.085   8.998  11.978 -0.4184  0.2605 -0.1627
 1023MOL0     C41056   5.122   8.852  11.968 -0.6109  0.4880 -0.3884
 1023MOL0     C41057   5.268   8.815  11.942  0.5925 -0.0549  0.2241
 1023MOL0     C41058   5.314   8.675  11.989 -0.3281  0.2327 -0.9394
 1023MOL0     C41059   5.428   8.608  11.904 -0.4748  0.8643  0.0734
 1023MOL0     O41060   5.542   8.692  11.904 -0.4380 -0.4108 -0.2595
 1023MOL0     C41061   5.623   8.696  11.789  0.1158  1.0317 -0.7263
 1023MOL0     C41062   5.689   8.816  11.762 -0.1158  0.7363  0.0972
 1023MOL0     C41063   5.782   8.813  11.662  0.0566 -0.5078 -0.4894
 1023MOL0     C41064   5.855   8.933  11.639 -0.2953 -0.8645  0.2808
 1023MOL0     C41065   5.816   8.693  11.592 -0.2529  0.7425 -0.0764
 1023MOL0     C41066   5.918   8.673  11.478 -0.1865  0.7643  0.2507
 1023MOL0     O41067   5.948   8.768  11.383 -0.0080 -0.4668 -0.2224
 1023MOL0     C41068   6.077   8.789  11.344  0.6380 -1.1902  0.1056
 1023MOL0     C41069   6.088   8.829  11.211  0.4262  0.0251  0.4872
 1023MOL0     C41070   6.215   8.860  11.155 -0.1029  1.0997 -0.2542
 1023MOL0     C41071   6.331   8.843  11.236  0.4300 -0.6726  0.1814
 1023MOL0     O41072   6.462   8.866  11.190 -0.4986 -0.3021 -0.6196
 1023MOL0     C41073   6.484   8.896  11.056 -0.5680 -0.2323  1.1159
 1023MOL0     C41074   6.442   8.774  10.965 -0.6555 -0.4737 -0.2409
 1023MOL0     C41075   6.528   8.654  10.987 -0.1869  0.4302 -0.0021
 1023MOL0     C41076   6.497   8.535  10.910 -0.0023  0.5548  0.1328
 1023MOL0     C41077   6.583   8.418  10.944  0.5124 -0.0356  0.1809
 1023MOL0     C41078   6.729   8.413  10.905 -0.8252  0.4384 -0.0014
 1023MOL0     C41079   6.765   8.343  10.771  0.3986  0.1157 -0.3860
 1023MOL0     C41080   6.778   8.189  10.786 -0.3360  0.0075 -0.4455
 1023MOL0    Cl41081   6.887   8.139  10.925 -0.6505 -0.1555  0.0568
 1023MOL0     C41082   6.311   8.802  11.370  0.5925  0.0754  0.1635
 1023MOL0     C41083   6.188   8.777  11.423  0.8219 -0.0560 -0.5277
 1023MOL0     O41084   5.975   8.559  11.483  0.2925 -0.0989  0.9548
 1023MOL0     C41085   5.739   8.577  11.620 -0.5729 -0.2275  0.5314
 1023MOL0     C41086   5.636   8.585  11.711 -0.0885 -0.2039 -0.1259
 1023MOL0     N41087   4.980   9.042  11.903  0.5501  0.2485 -0.0230
 1023MOL0     N41088   4.966   9.167  11.933  0.1248 -0.4833 -0.8666
 1023MOL0     C41089   4.590   9.870  11.474  0.1671  0.1666  0.3541
 1023MOL0     C41090   4.583   9.883  11.331  0.0577 -1.1120  0.2678
 1023MOL0     C41091   4.777  10.001  10.905  0.3930 -0.8863 -0.1643
 1023MOL0     C41092   4.677   9.926  10.840  0.2087 -0.5836 -0.7047
 1023MOL0     C41093   4.648   9.950  10.702  0.9481 -1.4313  0.4903
 1023MOL0     C41094   4.720  10.049  10.639  0.1475  0.3202  0.0495
 1023MOL0     O41095   4.679  10.056  10.508  0.2638 -0.4868  0.4186
 1023MOL0     C41096   4.745  10.156  10.429  0.1861  0.6342  0.5561
 1023MOL0     C41097   4.713  10.146  10.279  0.5713  0.3180  0.2455
 1023MOL0     C41098   4.738  10.279  10.209 -0.0609 -0.4669 -0.5216
 1023MOL0     C41099   4.880  10.337  10.238 -0.2963 -0.1149 -0.5821
 1023MOL0     C41100   4.911  10.446  10.144  0.3773 -0.1427 -0.1713
 1023MOL0     C41101   4.927  10.545  10.071 -0.5689 -0.5059  0.1481
 1023MOL0     C41102   4.819  10.124  10.699  0.0926  0.3531  0.4880
 1023MOL0     C41103   4.853  10.091  10.828 -0.5470  0.6858 -0.2712
 1023MOL0     C41104   4.962  10.168  10.892  0.5408  0.1524  0.0541
 1023MOL0     H41105   4.854  10.084  11.274 -1.1869  1.0685  1.6303
 1023MOL0     H41106   4.865  10.075  11.507 -0.8637  0.2698 -0.2717
 1023MOL0     H41107   4.819  10.023  11.778  1.1626  0.7095 -1.0316
 1023MOL0     H41108   4.919   9.926  11.666  2.1620 -0.5251  2.1031
 1023MOL0     H41109   4.901   9.726  11.789  1.6848  0.9075 -2.9758
 1023MOL0     H41110   4.974   9.854  11.886  1.8996 -0.2960 -2.2478
 1023MOL0     H41111   4.744   9.899  11.990  3.3874 -0.1487  3.0880
 1023MOL0     H41112   4.691   9.749  11.907  2.2517 -1.9598 -2.5075
 1023MOL0     H41113   4.931   9.775  12.093  2.0449 -3.0192 -0.6110
 1023MOL0     H41114   4.760   9.749  12.152 -0.8139  1.5161 -1.0071
 1023MOL0     H41115   4.905   9.574  11.943 -1.4963  3.4083 -1.8773
 1023MOL0     H41116   4.759   9.540  12.034  0.1233  0.0571 -0.4771
 1023MOL0     H41117   5.027   9.562  12.174  1.1632 -2.4113 -1.5198
 1023MOL0     H41118   4.871   9.533  12.263  0.1154 -3.9937  1.4327
 1023MOL0     H41119   4.868   9.316  12.110  1.0177 -0.1411 -0.4364
 1023MOL0     H41120   4.970   9.341  12.259  1.8245 -0.4466 -0.1490
 1023MOL0     H41121   5.099   9.422  11.998 -0.8725 -0.8334 -1.3308
 1023MOL0     H41122   5.162   9.341  12.148  0.7342 -2.1054 -0.7191
 1023MOL0     H41123   5.234   9.112  12.094 -1.0092  0.7466  1.6022
 1023MOL0     H41124   5.058   8.812  11.890 -0.1766 -0.0449 -0.4730
 1023MOL0     H41125   5.081   8.824  12.066 -0.8726  1.8435 -0.0795
 1023MOL0     H41126   5.284   8.827  11.835  0.4242 -2.4338 -0.1198
 1023MOL0     H41127   5.344   8.879  11.988  3.3254 -2.5687 -0.4429
 1023MOL0     H41128   5.361   8.683  12.087 -1.5542 -1.7657 -0.1152
 1023MOL0     H41129   5.235   8.601  12.005  0.5859 -0.7849 -1.0053
 1023MOL0     H41130   5.458   8.520  11.962 -2.9620  1.1104  1.9367
 1023MOL0     H41131   5.388   8.585  11.805  0.4522  1.2516 -0.4010
 1023MOL0     H41132   5.671   8.891  11.838 -1.0172  0.1531  0.4791
 1023MOL0     H41133   5.926   8.911  11.559 -0.1457 -1.3615  0.5466
 1023MOL0     H41134   5.902   8.976  11.728  0.9521 -0.6846 -0.4310
 1023MOL0     H41135   5.789   9.005  11.589  1.2439  1.1106  0.9142
 1023MOL0     H41136   5.999   8.842  11.150  0.5032 -1.5895 -0.0089
 1023MOL0     H41137   6.225   8.899  11.054  0.0814 -1.1573 -1.1495
 1023MOL0     H41138   6.436   8.994  11.048  1.0315  0.5989  1.3648
 1023MOL0     H41139   6.588   8.920  11.034 -0.7596 -0.5211 -0.1607
 1023MOL0     H41140   6.341   8.736  10.984 -0.9330  0.5681  0.5160
 1023MOL0     H41141   6.457   8.818  10.866 -2.5640  1.0509  0.0718
 1023MOL0     H41142   6.520   8.613  11.088  0.8845  0.9099  0.2925
 1023MOL0     H41143   6.630   8.693  10.982 -0.3246  0.7557 -0.2582
 1023MOL0     H41144   6.516   8.566  10.806 -0.1202  2.1646  0.5535
 1023MOL0     H41145   6.391   8.510  10.925  0.3325 -0.0229  1.6507
 1023MOL0     H41146   6.580   8.409  11.053 -3.0599  3.2622  0.5732
 1023MOL0     H41147   6.530   8.331  10.905 -0.1292  0.1479  0.6407
 1023MOL0     H41148   6.777   8.364  10.990 -0.8566  0.0714 -0.1961
 1023MOL0     H41149   6.771   8.514  10.900 -1.8700  0.9222  0.7178
 1023MOL0     H41150   6.859   8.387  10.738  1.4517  1.4415  3.7211
 1023MOL0     H41151   6.686   8.359  10.697 -2.1307 -0.7538  1.9236
 1023MOL0     H41152   6.825   8.152  10.695  0.0537  0.9068 -0.6190
 1023MOL0     H41153   6.678   8.144  10.790 -1.3343  2.0427 -1.2819
 1023MOL0     H41154   6.404   8.797  11.426  0.0167  1.3161  1.2860
 1023MOL0     H41155   6.176   8.766  11.531 -0.5739  0.1162 -0.6475
 1023MOL0     H41156   5.745   8.487  11.560 -0.0951  1.0356 -1.4065
 1023MOL0     H41157   5.588   8.488  11.719  2.7387 -1.7262 -0.3781
 1023MOL0     H41158   4.519   9.825  11.542  0.4942  0.9466  1.2339
 1023MOL0     H41159   4.502   9.830  11.283  0.9541 -1.5663 -0.7805
 1023MOL0     H41160   4.619   9.856  10.899 -3.1006  0.6713 -2.2003
 1023MOL0     H41161   4.569   9.902  10.645  0.6097 -2.0471  1.4630
 1023MOL0     H41162   4.712  10.254  10.463  0.6866  1.2028 -0.5666
 1023MOL0     H41163   4.854  10.148  10.437  0.1131 -2.5524 -0.2851
 1023MOL0     H41164   4.612  10.104  10.272 -0.5816  2.9810 -0.0494
 1023MOL0     H41165   4.774  10.067  10.233  3.0731  1.1560  1.8772
 1023MOL0     H41166   4.734  10.262  10.101  0.4781 -0.9899 -0.4637
 1023MOL0     H41167   4.658  10.350  10.235 -1.0087 -0.8966 -2.1440
 1023MOL0     H41168   4.945  10.249  10.229 -3.1152 -2.7098  1.9161
 1023MOL0     H41169   4.890  10.382  10.338 -0.1988  0.3511 -0.8010
 1023MOL0     H41170   4.928  10.640  10.023 -2.2900  0.0205  1.0940
 1023MOL0     H41171   4.871  10.204  10.648  0.2987 -1.0412 -1.5939
 1023MOL0     H41172   4.992  10.247  10.823 -3.4007 -0.2970 -2.4965
 1023MOL0     H41173   4.926  10.219  10.982  0.0735 -1.6868  0.9621
 1023MOL0     H41174   5.046  10.108  10.928  0.6179  0.9278  1.2322
 1024MOL0     O41175   0.841   3.214   8.067 -0.1568 -1.1574  0.9645
 1024MOL0     C41176   0.766   3.225   7.969 -0.6264  1.1552 -0.2120
 1024MOL0     O41177   0.805   3.212   7.833 -0.5342  0.2117 -0.7804
 1024MOL0     C41178   0.946   3.198   7.802  0.1569 -0.6933  0.0116
 1024MOL0     C41179   0.982   3.268   7.689 -0.3355 -0.3678  0.2264
 1024MOL0     C41180   1.107   3.253   7.629  0.2653 -0.4165  0.0626
 1024MOL0     C41181   1.204   3.171   7.687 -1.0197 -0.2829 -0.0849
 1024MOL0     O41182   1.332   3.164   7.646 -0.1653 -0.5777 -0.0309
 1024MOL0     C41183   1.386   3.294   7.599 -0.7388  0.0584 -0.0676
 1024MOL0     C41184   1.414   3.263   7.452  0.3686 -0.3038  0.7889
 1024MOL0     C41185   1.496   3.133   7.437 -0.5368 -0.7766  0.3635
 1024MOL0     C41186   1.571   3.117   7.306  0.2690  0.4544 -0.8264
 1024MOL0     C41187   1.642   2.983   7.300  0.5028  0.4624  0.1461
 1024MOL0     C41188   1.737   2.958   7.181 -0.6473 -0.0994  1.0619
 1024MOL0     C41189   1.661   2.929   7.046  0.1791 -0.1149  0.0646
 1024MOL0     C41190   1.752   2.888   6.937 -0.7319  0.1539  0.0203
 1024MOL0     N41191   1.878   2.821   6.951 -0.3028 -0.5406  0.3040
 1024MOL0     C41192   1.998   2.872   6.963  0.0686 -0.3804  1.1851
 1024MOL0     C41193   2.096   2.776   6.929  0.0366  0.1598  0.1591
 1024MOL0     C41194   2.241   2.796   6.943 -0.2011  1.1562  0.5795
 1024MOL0     C41195   2.275   2.762   7.085 -0.5389 -0.3427 -0.5314
 1024MOL0     C41196   2.204   2.843   7.196  0.5907 -0.0846 -0.2591
 1024MOL0     C41197   2.266   2.837   7.336 -0.2844  0.8741 -0.6753
 1024MOL0     O41198   2.266   2.961   7.412 -0.1365 -0.0178  0.0632
 1024MOL0     C41199   2.146   3.005   7.459 -0.5233 -0.9991 -0.1533
 1024MOL0     C41200   2.138   3.150   7.471  0.2464 -0.3104 -1.2881
 1024MOL0     C41201   2.034   3.207   7.535  0.2260  0.4982 -0.0173
 1024MOL0     C41202   2.037   3.346   7.545 -0.3864 -0.4425  0.2513
 1024MOL0     C41203   1.934   3.126   7.590 -0.5554 -0.1904 -0.7373
 1024MOL0     C41204   1.819   3.183   7.676 -0.7264 -0.1920  0.9035
 1024MOL0     O41205   1.794   3.125   7.798  0.3031 -0.0720  0.0167
 1024MOL0     C41206   1.692   3.179   7.875  0.4092 -0.4351 -0.0272
 1024MOL0     C41207   1.590   3.082   7.918 -0.4712 -0.7481 -0.0862
 1024MOL0     C41208   1.483   3.130   7.992 -1.6298  0.6974 -0.5413
 1024MOL0     C41209   1.470   3.273   8.023 -0.0297 -0.6365  0.1712
 1024MOL0     O41210   1.360   3.324   8.076  0.8229 -0.2239 -0.3118
 1024MOL0     C41211   1.337   3.269   8.204  0.4298 -0.3313 -0.1746
 1024MOL0     C41212   1.216   3.185   8.210  0.4490 -0.1156  0.5574
 1024MOL0     C41213   1.138   3.193   8.344 -0.1096  0.8261 -0.6497
 1024MOL0     C41214   1.052   3.075   8.349 -0.3506  0.5697  0.3761
 1024MOL0     C41215   0.949   3.083   8.466  0.4400 -0.0618  0.4405
 1024MOL0     C41216   0.831   3.174   8.416  0.1694 -0.4435  0.5196
 1024MOL0     C41217   0.749   3.223   8.532  0.8678 -0.9451 -0.8905
 1024MOL0     C41218   0.652   3.315   8.468  0.1122  0.8427 -0.5065
 1024MOL0    Cl41219   0.505   3.327   8.575 -0.1412  0.2209  0.1461
 1024MOL0     C41220   1.571   3.363   7.990 -0.4574 -0.2723  0.3430
 1024MOL0     C41221   1.687   3.308   7.925  0.1441 -0.0890 -0.3684
 1024MOL0     O41222   1.762   3.284   7.624 -0.5034 -0.0424  0.3667
 1024MOL0     C41223   1.949   2.981   7.576 -0.1518 -0.4246  1.2073
 1024MOL0     C41224   2.048   2.925   7.509  0.5393 -0.3414 -0.0443
 1024MOL0     N41225   2.020   2.666   6.894 -0.6678  0.4328 -0.4683
 1024MOL0     N41226   1.892   2.702   6.899  0.0786 -1.5785 -0.4783
 1024MOL0     C41227   1.162   3.102   7.807  0.2766 -0.0869 -0.1760
 1024MOL0     C41228   1.039   3.113   7.860  0.1888  0.2024 -0.8812
 1024MOL0     C41229   0.623   3.249   7.981 -0.3436  0.2154 -0.3717
 1024MOL0     C41230   0.562   3.155   8.062  0.5088  0.7740 -1.6739
 1024MOL0     C41231   0.421   3.144   8.078  0.6770  0.4797 -0.8246
 1024MOL0     C41232   0.344   3.243   8.019  0.2013 -0.0521 -0.1227
 1024MOL0     O41233   0.211   3.252   8.034 -0.4781  0.4391 -0.2579
 1024MOL0     C41234   0.130   3.193   8.136 -0.0263  0.6340  1.1139
 1024MOL0     C41235  -0.008   3.246   8.149 -0.0169  0.3557  0.0071
 1024MOL0     C41236  -0.010   3.379   8.218 -0.0440  0.7194  0.1634
 1024MOL0     C41237  -0.152   3.436   8.231  0.4888 -0.7699 -0.6326
 1024MOL0     C41238  -0.194   3.479   8.105  0.7556  0.2981  1.7386
 1024MOL0     C41239  -0.225   3.505   7.990  0.2016  0.0906 -0.4298
 1024MOL0     C41240   0.408   3.346   7.949 -0.1060  0.1756  0.0042
 1024MOL0     C41241   0.545   3.352   7.938  0.0653 -0.8802 -0.1289
 1024MOL0     C41242   0.615   3.478   7.879 -0.1915  0.2905  0.9922
 1024MOL0     H41243   0.903   3.327   7.644  1.8651  2.3631 -0.3103
 1024MOL0     H41244   1.136   3.298   7.534 -0.1294  0.0909  0.1781
 1024MOL0     H41245   1.487   3.311   7.637 -0.7889  1.1888 -0.3796
 1024MOL0     H41246   1.331   3.386   7.621 -1.1996 -0.8193  2.8303
 1024MOL0     H41247   1.325   3.257   7.387  0.4730 -1.1729  0.7031
 1024MOL0     H41248   1.483   3.338   7.415  1.7256 -0.9296  1.9756
 1024MOL0     H41249   1.574   3.130   7.513  2.0955  1.4991 -1.9882
 1024MOL0     H41250   1.423   3.054   7.458 -0.9286 -0.2154  1.1792
 1024MOL0     H41251   1.498   3.124   7.225  0.2943 -0.7267 -0.9777
 1024MOL0     H41252   1.642   3.199   7.297 -1.6232  2.0096 -2.3697
 1024MOL0     H41253   1.574   2.897   7.299  1.9976 -0.7773  0.8098
 1024MOL0     H41254   1.697   2.962   7.392  1.3027  2.0517  0.0737
 1024MOL0     H41255   1.796   3.050   7.180 -1.2929  0.3361 -0.6516
 1024MOL0     H41256   1.793   2.865   7.193 -0.7925 -0.9398 -3.1125
 1024MOL0     H41257   1.603   3.016   7.013  0.0490  1.4657  3.9114
 1024MOL0     H41258   1.591   2.849   7.072 -2.8953  1.6876 -1.9873
 1024MOL0     H41259   1.697   2.831   6.861 -2.1987 -0.3229  1.3844
 1024MOL0     H41260   1.778   2.985   6.892  4.3335 -0.9070  0.0822
 1024MOL0     H41261   2.036   2.969   6.993  1.7045 -0.1008 -1.4379
 1024MOL0     H41262   2.271   2.900   6.927  0.0816  1.0388  0.3338
 1024MOL0     H41263   2.298   2.741   6.868 -2.3230  0.1909 -0.3919
 1024MOL0     H41264   2.255   2.654   7.091 -1.6409 -0.1311 -0.0041
 1024MOL0     H41265   2.380   2.790   7.094 -0.7624  2.4141 -4.0658
 1024MOL0     H41266   2.202   2.949   7.167  1.2492 -0.2441 -0.9122
 1024MOL0     H41267   2.101   2.807   7.196  1.1255 -1.7967 -2.0664
 1024MOL0     H41268   2.208   2.758   7.383 -0.4189  1.4337  0.1095
 1024MOL0     H41269   2.371   2.807   7.330 -0.4518  0.3927 -1.5023
 1024MOL0     H41270   2.228   3.201   7.439 -0.4123  1.0954 -0.9953
 1024MOL0     H41271   2.125   3.389   7.497  0.4135 -3.1281 -0.9179
 1024MOL0     H41272   2.026   3.375   7.650 -0.1831 -1.0418  0.4437
 1024MOL0     H41273   1.955   3.384   7.484  2.4058  1.9788 -2.3146
 1024MOL0     H41274   1.608   2.985   7.874  1.9342  0.7109 -2.6395
 1024MOL0     H41275   1.414   3.053   8.024 -0.5375  0.0426  0.3336
 1024MOL0     H41276   1.423   3.217   8.247 -0.2143 -0.5483  0.8818
 1024MOL0     H41277   1.338   3.352   8.275  1.1705  0.2533 -0.8377
 1024MOL0     H41278   1.154   3.199   8.121 -1.0292 -0.8184  1.4271
 1024MOL0     H41279   1.258   3.084   8.203 -0.4932 -0.5724  1.3164
 1024MOL0     H41280   1.081   3.284   8.366 -1.0426  0.5637 -1.8948
 1024MOL0     H41281   1.214   3.188   8.422 -1.1500  2.3523  0.5088
 1024MOL0     H41282   1.115   2.990   8.377 -1.0120  0.3272  1.1634
 1024MOL0     H41283   1.008   3.056   8.251  2.1236 -2.4095 -0.3169
 1024MOL0     H41284   0.898   2.987   8.482  3.2092 -1.2315  3.4585
 1024MOL0     H41285   0.994   3.125   8.556  0.4563  2.9384 -0.8485
 1024MOL0     H41286   0.772   3.122   8.340  2.4089 -0.0888 -1.5947
 1024MOL0     H41287   0.879   3.265   8.378 -3.1081  2.5934  2.9385
 1024MOL0     H41288   0.823   3.269   8.598  1.1292 -2.8705  0.2547
 1024MOL0     H41289   0.698   3.153   8.599  0.8125  1.6327  1.9448
 1024MOL0     H41290   0.629   3.282   8.367  0.4267  1.2904 -0.7295
 1024MOL0     H41291   0.696   3.412   8.444 -0.5992  0.5508 -3.3110
 1024MOL0     H41292   1.547   3.469   7.992 -2.9143 -0.5622 -3.3145
 1024MOL0     H41293   1.771   3.374   7.907  0.6596 -0.2816  1.2143
 1024MOL0     H41294   1.872   2.917   7.617 -0.0459 -1.3855 -0.0400
 1024MOL0     H41295   2.042   2.818   7.495  1.6241 -0.6328  1.3766
 1024MOL0     H41296   1.232   3.036   7.857  2.1319  2.8876  1.3964
 1024MOL0     H41297   1.012   3.060   7.951  3.0645  3.0209  1.8584
 1024MOL0     H41298   0.626   3.081   8.110 -1.2812  1.2941  1.8843
 1024MOL0     H41299   0.394   3.058   8.139  0.9159  2.9562  3.1923
 1024MOL0     H41300   0.120   3.089   8.102 -0.8029  2.1163 -3.8983
 1024MOL0     H41301   0.191   3.202   8.227  0.4991  1.7795  0.6660
 1024MOL0     H41302  -0.063   3.181   8.217  1.0318 -0.5197  0.0361
 1024MOL0     H41303  -0.044   3.242   8.046  1.8236 -3.0236 -0.6487
 1024MOL0     H41304   0.039   3.377   8.316  2.2502  0.5982 -0.9241
 1024MOL0     H41305   0.060   3.444   8.164 -0.6248  3.6764  2.7086
 1024MOL0     H41306  -0.137   3.523   8.296 -2.1820  1.5568 -2.9036
 1024MOL0     H41307  -0.224   3.369   8.280 -1.5644  0.0525 -2.4022
 1024MOL0     H41308  -0.265   3.531   7.894  2.2478 -1.1683 -1.6984
 1024MOL0     H41309   0.351   3.430   7.913  2.8049  0.9375 -3.3957
 1024MOL0     H41310   0.548   3.549   7.829 -1.4697 -2.5766 -1.6866
 1024MOL0     H41311   0.688   3.517   7.950 -1.0942  0.4596  1.8452
 1024MOL0     H41312   0.678   3.437   7.799 -2.6955  0.5721 -1.2575
  11.62524  11.62524  11.62524
